/*--------------------------------*- C++ -*----------------------------------*\
| =========                 |                                                 |
| \\      /  F ield         | OpenFOAM: The Open Source CFD Toolbox           |
|  \\    /   O peration     | Version:  v1912                                 |
|   \\  /    A nd           | Website:  www.openfoam.com                      |
|    \\/     M anipulation  |                                                 |
\*---------------------------------------------------------------------------*/
FoamFile
{
    version     2.0;
    format      ascii;
    class       volScalarField;
    location    "590";
    object      epsilon;
}
// * * * * * * * * * * * * * * * * * * * * * * * * * * * * * * * * * * * * * //

dimensions      [0 2 -3 0 0 0 0];


internalField   nonuniform List<scalar> 
12441
(
0.0102964
0.00908504
0.00832713
0.00770265
0.00718366
0.00674895
0.00638218
0.00607072
0.00580473
0.00557605
0.00537869
0.00520712
0.00504978
0.00491824
0.00480339
0.00469688
0.00491105
0.0207259
0.28041
3.06326
20.9474
39.25
0.010119
0.00892024
0.00818408
0.00757695
0.00707196
0.0066487
0.00629134
0.00598775
0.00572841
0.00550539
0.00531298
0.00514573
0.00499148
0.00486357
0.00475223
0.00465043
0.00482507
0.0204778
0.264032
3.05525
21.2367
40.2318
0.00989695
0.00871748
0.0080004
0.00740917
0.00691754
0.0065056
0.00615794
0.00586276
0.00561079
0.00539434
0.00520787
0.00504612
0.00489692
0.00477418
0.00466802
0.0045709
0.00465882
0.0185382
0.223219
3.02346
21.6147
41.3784
0.00967336
0.00851383
0.00781503
0.00723893
0.00675996
0.00635873
0.00602021
0.00573293
0.00548788
0.00527759
0.00509668
0.0049401
0.00479623
0.0046783
0.00457688
0.00448594
0.00450949
0.0162076
0.183623
2.99986
22.0816
42.5504
0.00942913
0.00828921
0.00760914
0.00704868
0.0065829
0.0061929
0.00586408
0.00558528
0.00534774
0.00514421
0.00496952
0.00481879
0.00468043
0.00456829
0.00447279
0.00438819
0.00435793
0.0141094
0.163245
3.00597
22.5998
43.6698
0.00922316
0.00809959
0.00743474
0.00688689
0.00643167
0.0060506
0.00572937
0.00545712
0.00522526
0.00502675
0.00485655
0.00470993
0.00457605
0.00446789
0.00437635
0.00429684
0.00428299
0.0141716
0.182512
3.11302
23.2333
44.7472
0.00900249
0.00789598
0.00724759
0.00671347
0.00626983
0.00589863
0.0055859
0.00532108
0.00509578
0.00490316
0.00473833
0.00459673
0.00446744
0.00436498
0.00427649
0.00420363
0.00603163
0.0231653
0.288613
3.41719
24.0848
45.7945
0.00882404
0.00773133
0.00709577
0.00657225
0.00613745
0.00577365
0.00546718
0.00520769
0.00498697
0.00479832
0.00463697
0.0044985
0.00437297
0.00427449
0.00419369
0.00516229
0.0341198
0.0790499
0.604649
4.06229
25.2823
46.8732
0.00862989
0.00755212
0.00693108
0.00641969
0.0059951
0.00564001
0.00534104
0.00508809
0.00487313
0.00468963
0.00453294
0.00439882
0.00427756
0.00414546
0.00539181
0.0266649
0.17063
0.292132
1.29738
5.20559
26.9629
48.0153
0.00847521
0.00740923
0.00679918
0.00629683
0.00587976
0.00553094
0.00523724
0.00498874
0.00477758
0.00459734
0.00444348
0.00431205
0.00419341
0.00427148
0.0248507
0.142928
0.490259
0.759596
2.38346
6.90834
29.2263
49.2846
0.00830576
0.00725276
0.00665545
0.00616373
0.00575562
0.00541444
0.00512732
0.00488454
0.00467841
0.00450264
0.00435279
0.00422605
0.00407784
0.00942734
0.108032
0.390426
0.919606
1.40696
3.63152
9.05908
32.0998
50.6975
0.00817074
0.00712806
0.00654031
0.00605644
0.00565481
0.00531903
0.00503641
0.00479743
0.0045945
0.00442147
0.00427399
0.00415091
0.00415321
0.0467778
0.28581
0.68378
1.2993
2.02873
4.77932
11.4281
35.5257
52.295
0.0080216
0.00699039
0.00641399
0.0059396
0.00554595
0.00521696
0.0049402
0.00470629
0.0045078
0.0043387
0.0041947
0.00403779
0.00829077
0.150292
0.492804
0.918817
1.56943
2.50981
5.72031
13.7912
39.3875
54.0597
0.00790071
0.00687875
0.00631091
0.00584354
0.0054557
0.00513153
0.0048588
0.00462829
0.00443268
0.00426604
0.00412418
0.00388208
0.0355835
0.290578
0.654865
1.07672
1.74851
2.85139
6.46317
15.9989
43.541
56.0037
0.00776931
0.00675739
0.00619958
0.00574057
0.00535977
0.00504159
0.004774
0.00454793
0.0043562
0.00419297
0.00405409
0.004256
0.102339
0.414351
0.765036
1.18049
1.86846
3.09216
7.0514
17.981
47.8474
58.0812
0.00766025
0.00665672
0.00610663
0.00565395
0.00527839
0.00496457
0.00470062
0.00447763
0.0042885
0.00412752
0.00399064
0.0093326
0.188622
0.504647
0.838542
1.25099
1.95209
3.26712
7.52713
19.7197
52.1868
60.2902
0.0075443
0.00654964
0.00600848
0.00556322
0.00519388
0.00488533
0.00462588
0.00440676
0.00422098
0.00406291
0.00392899
0.0307023
0.267169
0.567568
0.889421
1.30122
2.01326
3.40016
7.9226
21.2261
56.4697
62.571
0.00744278
0.00645606
0.00592218
0.00548292
0.00511857
0.00481418
0.00455825
0.00434212
0.0041589
0.00400306
0.00387373
0.0729419
0.328017
0.612081
0.926393
1.33877
2.06025
3.50649
8.26068
22.5221
60.6326
64.9213
0.00734015
0.00636115
0.00583511
0.00540236
0.00504344
0.00474364
0.0044916
0.0042788
0.00409843
0.00394508
0.00380959
0.122197
0.372724
0.644909
0.954586
1.36814
2.09811
3.5957
8.55705
23.6332
64.6398
67.2818
0.00724553
0.00627401
0.00575481
0.00532771
0.00497351
0.00467767
0.004429
0.00421907
0.0040412
0.00389003
0.00426873
0.166335
0.405722
0.670251
0.977048
1.39212
2.13006
3.67387
8.82228
24.5832
68.475
69.6617
0.00715529
0.00619049
0.00567817
0.00525673
0.00490722
0.0046153
0.00436992
0.00416277
0.00398725
0.00383818
0.00972067
0.202136
0.430891
0.690665
0.995667
1.4125
2.15823
3.74484
9.06332
25.3941
72.1423
72.0102
0.00706452
0.00610707
0.00560148
0.00518565
0.00484086
0.00455294
0.00431098
0.0041068
0.00393386
0.00378755
0.0265728
0.230362
0.450881
0.707733
1.01167
1.43048
2.18409
3.81096
9.28469
26.0847
75.6591
74.3523
0.00698522
0.00603345
0.00553376
0.00512273
0.00478188
0.00449723
0.004258
0.00405608
0.00388506
0.00374246
0.0524923
0.252718
0.467385
0.722468
1.02588
1.44689
2.20868
3.8735
9.48921
26.6718
79.0584
76.6493
0.00689873
0.00595407
0.00546087
0.0050553
0.00471908
0.00443838
0.00420255
0.0040036
0.00383518
0.00370262
0.0791423
0.270752
0.481481
0.735554
1.03889
1.46236
2.23268
3.93308
9.67872
27.1703
82.3838
78.9445
0.00683044
0.00589056
0.00540234
0.00500075
0.00466773
0.00438961
0.00415588
0.00395863
0.00379161
0.0036839
0.102159
0.285693
0.493866
0.747466
1.05111
1.47729
2.25647
3.98997
9.85443
27.593
85.6917
81.212
0.00674476
0.00581219
0.0053307
0.00493482
0.00460669
0.0043328
0.00410274
0.0039087
0.00374452
0.00364417
0.121069
0.298435
0.505006
0.758547
1.06286
1.49199
2.28018
4.04428
10.0173
27.9513
89.0467
83.5114
0.0066856
0.00575684
0.0052794
0.00488669
0.00456105
0.00428912
0.00406062
0.00386782
0.00370469
0.00383036
0.136719
0.309595
0.515223
0.769045
1.07433
1.50661
2.3038
4.09613
10.168
28.2553
92.5225
85.8273
0.00660188
0.00568042
0.00520971
0.00482276
0.0045021
0.00423449
0.00400976
0.00382028
0.00366015
0.00570446
0.150022
0.319597
0.524746
0.779141
1.08568
1.52123
2.32721
4.14562
10.3073
28.5134
96.1951
88.2307
0.0065522
0.00563368
0.00516613
0.00478153
0.00446261
0.0041963
0.00397253
0.00378373
0.00362454
0.0107463
0.161656
0.328729
0.533742
0.788963
1.09698
1.53585
2.35029
4.19289
10.4358
28.7327
100.142
90.7106
0.00646812
0.00555726
0.0050968
0.00471834
0.00440475
0.0041431
0.0039234
0.0037382
0.00358313
0.0195059
0.17207
0.337195
0.542334
0.798595
1.10825
1.55044
2.37294
4.23806
10.5544
28.919
104.433
93.3406
0.00642588
0.00551709
0.00505893
0.00468208
0.0043696
0.00410868
0.00388948
0.00370459
0.00355196
0.0314577
0.181548
0.34514
0.550609
0.808093
1.1195
1.56493
2.39508
4.28122
10.6636
29.0776
109.129
96.1058
0.00634342
0.00544229
0.00499123
0.00462057
0.0043135
0.00405734
0.00384229
0.00366105
0.00351602
0.0452799
0.190272
0.352668
0.558633
0.817484
1.13071
1.57927
2.41665
4.32247
10.7643
29.2129
114.278
99.0732
0.00630972
0.0054099
0.00496033
0.00459051
0.00428383
0.00402775
0.00381261
0.00363115
0.00349481
0.0596355
0.198369
0.359858
0.566447
0.826777
1.14184
1.59341
2.43761
4.36185
10.857
29.3292
119.914
102.217
0.00622526
0.00533364
0.00489173
0.00452864
0.0042279
0.00397705
0.00376648
0.00358905
0.00347357
0.0735553
0.205929
0.366767
0.574081
0.835969
1.15287
1.6073
2.45792
4.39938
10.9424
29.4307
126.056
105.592
0.00619841
0.00530733
0.00486608
0.00450309
0.00420207
0.00395072
0.00373959
0.00356155
0.00347793
0.0865107
0.213019
0.373434
0.581549
0.845048
1.16375
1.6209
2.47756
4.43506
11.0213
29.5215
132.719
109.157
0.00611143
0.00522924
0.00479626
0.00444056
0.00414599
0.00390032
0.00369413
0.00352043
0.00354549
0.0982567
0.219688
0.379888
0.588857
0.853997
1.17444
1.63418
2.49649
4.46886
11.0942
29.6051
139.908
112.957
0.00608787
0.00520586
0.00477312
0.00441711
0.0041219
0.00387542
0.00366843
0.00349396
0.00609227
0.108704
0.22597
0.386148
0.596002
0.862793
1.18493
1.6471
2.51469
4.5007
11.1618
29.6842
147.624
116.938
0.00599589
0.00512387
0.00470031
0.0043524
0.0040643
0.00382407
0.00362249
0.00345273
0.023346
0.117782
0.231886
0.392223
0.602976
0.871413
1.19516
1.65964
2.53211
4.53053
11.2248
29.7607
155.85
121.137
0.00596757
0.00509638
0.0046736
0.0043258
0.00403742
0.00379672
0.00359466
0.00342493
0.040413
0.125325
0.23745
0.398115
0.609766
0.87983
1.20512
1.67177
2.54872
4.55824
11.2837
29.8349
164.533
125.495
0.0058629
0.00500349
0.00459149
0.00425316
0.00397312
0.00373972
0.003544
0.00338445
0.0490685
0.131409
0.24267
0.403822
0.616357
0.888016
1.21476
1.68346
2.56447
4.58373
11.3392
29.906
173.542
130.045
0.00582129
0.00496402
0.00455392
0.00421669
0.00393725
0.00370422
0.00350883
0.00333375
0.0535951
0.13629
0.247553
0.409336
0.62273
0.895941
1.22407
1.69467
2.57931
4.6069
11.3917
29.9724
182.607
134.727
0.00569967
0.00485649
0.00445891
0.00413239
0.00386225
0.00363733
0.00344902
0.00325826
0.0562355
0.140224
0.252107
0.414644
0.628868
0.90357
1.233
1.70536
2.59317
4.62769
11.4413
30.033
191.25
139.588
0.00561736
0.00478995
0.00440439
0.0040862
0.00382166
0.00360039
0.00341424
0.0034174
0.0579158
0.143422
0.256343
0.419734
0.634751
0.910869
1.24151
1.71549
2.60601
4.64604
11.4875
30.088
198.778
144.654
0.00525496
0.0044607
0.00411247
0.00382694
0.00358973
0.00339126
0.00322382
0.00348872
0.059047
0.146037
0.26027
0.424585
0.640362
0.917799
1.24958
1.72503
2.61775
4.66197
11.5294
30.1386
204.387
150.447
95.0235
43.8944
24.6969
19.8552
21.1412
18.7188
18.5108
16.5069
15.4293
14.8287
14.0425
13.0955
13.5357
15.3235
18.0954
20.7615
22.9199
25.3797
28.6874
31.8923
34.2868
36.1147
37.375
38.1313
38.8308
39.2468
39.2343
38.6768
37.6385
35.8043
33.7207
31.6188
31.6251
31.856
5.41442
94.6475
43.8641
24.7015
19.9828
21.465
18.9904
18.7981
16.7276
15.627
14.9993
14.1315
13.1749
13.6126
15.4121
18.2101
20.8832
23.0355
25.4693
28.7894
32.1487
34.7855
36.7879
38.118
38.8506
39.4913
39.8527
39.8119
39.2396
38.1775
36.2661
34.0969
31.9072
31.9423
32.0965
5.44077
93.9266
43.7973
24.7114
20.2435
22.1116
19.536
19.3602
17.1583
16.0198
15.339
14.3194
13.3382
13.7682
15.598
18.4515
21.1469
23.2913
25.6683
29.0031
32.6581
35.7863
38.1706
39.6794
40.3833
40.8995
41.1304
41.0123
40.3988
39.2888
37.2222
34.8746
32.4996
32.5822
32.1834
5.4886
92.8104
43.6894
24.7297
20.6506
23.0724
20.3556
20.175
17.7842
16.6
15.8417
14.629
13.6095
14.0244
15.9047
18.8634
21.623
23.7702
26.063
29.3974
33.4793
37.3547
40.3616
42.2077
42.9076
43.2256
43.2148
42.933
42.2293
41.0424
38.7377
36.1068
33.4283
33.566
32.2677
5.56109
91.3035
43.5356
24.7613
21.2147
24.3329
21.4435
21.221
18.5959
17.3605
16.5009
15.0865
14.0195
14.4059
16.3525
19.4877
22.3979
24.6045
26.8092
30.1101
34.7325
39.6071
43.5157
45.931
46.707
46.7505
46.3344
45.7411
44.8559
43.5489
40.9126
37.8735
34.7426
34.929
32.4778
5.66247
89.3553
43.331
24.8136
21.9491
25.8908
22.8021
22.4914
19.596
18.3031
17.3175
15.7169
14.5992
14.9346
16.9503
20.3445
23.5464
25.9555
28.142
31.3752
36.6197
42.7294
47.8594
51.1759
52.2026
51.9129
50.858
49.7068
48.4743
46.9723
43.8916
40.2908
36.5142
36.7226
32.9257
5.79808
87.0012
43.0709
24.8971
22.8751
27.7598
24.4481
23.9977
20.8
19.4418
18.3057
16.5479
15.3819
15.6339
17.7048
21.4405
25.1179
27.9859
30.3705
33.5508
39.4572
47.0074
53.7182
58.392
59.9951
59.3764
57.3646
55.2563
53.3838
51.5499
47.8778
43.5213
38.8428
39.0167
33.7186
5.97445
84.2135
42.75
25.0274
24.0235
29.9658
26.4103
25.7664
22.2351
20.803
19.4924
17.6166
16.4113
16.5406
18.6373
22.79
27.1525
30.8458
33.8576
37.1436
43.7179
52.872
61.5547
68.1776
70.9026
70.1097
66.7438
63.0514
60.037
57.6214
53.1522
47.7901
41.8657
41.9027
34.9715
6.1996
81.0699
42.3628
25.2265
25.4321
32.5386
28.7248
27.8352
23.9386
22.4239
20.9171
18.9737
17.7462
17.7139
19.7931
24.4296
29.7013
34.6794
38.997
42.8236
50.0805
60.9485
72.0019
81.2785
85.945
85.4325
80.305
74.0916
69.1041
65.6654
60.0963
53.401
45.7674
45.4971
36.8218
6.48315
77.574
41.9031
25.5249
27.1426
35.5052
31.4296
30.2479
25.9561
24.3508
22.6307
20.6842
19.4634
19.242
21.2483
26.4246
32.8337
39.6205
46.1558
51.387
59.4391
72.0625
85.8315
98.4705
106.132
106.848
99.7719
89.7837
81.5302
76.3312
69.2094
60.7521
50.7893
49.9418
39.447
6.83653
73.8369
41.3641
25.9637
29.196
38.8842
34.5605
33.0507
28.3398
26.6375
24.6946
22.8267
21.655
21.2459
23.1171
28.8767
36.6396
45.755
55.4982
63.4867
72.7123
87.059
103.696
120.13
131.757
135.21
126.743
111.75
98.4837
90.4169
81.0926
70.3279
57.233
55.3999
43.0822
7.27284
69.8857
40.7379
26.5968
31.6281
42.6816
38.1468
36.2866
31.1453
29.3414
27.1778
25.487
24.4236
23.8833
25.5619
31.9343
41.2293
53.0527
66.6462
78.854
90.1016
106.147
125.405
145.32
161.034
168.715
160.772
140.76
120.908
108.661
96.3236
82.626
65.437
62.0359
48.0386
7.8062
65.8489
40.0158
27.491
34.4657
46.8882
42.2088
39.9913
34.4267
32.5181
30.1536
28.7509
27.8662
27.3406
28.8017
35.8086
46.7383
61.2969
78.3769
95.231
109.72
127.703
148.868
170.876
189.136
200.951
196.179
174.111
148.183
131.097
115.075
97.9188
75.692
69.9684
54.7075
8.44991
61.7626
39.1888
28.7243
37.7247
51.478
46.7578
44.1883
38.23
36.2154
33.6885
32.6838
32.0522
31.8027
33.1102
40.7784
53.3138
70.0622
88.8851
108.732
127.188
147.75
170.002
192.138
210.111
223.327
222.288
203.38
176.069
155.834
136.334
115.732
88.0302
79.1747
63.5179
9.21259
57.7502
38.2486
30.3784
41.4041
56.4114
51.7897
48.8845
42.5888
40.4674
37.8348
37.326
36.9847
37.3896
38.7799
47.162
61.0746
78.8034
96.7921
116.69
138.512
162.173
185.032
205.785
220.969
231.767
231.53
218.559
196.788
178.159
157.037
134.113
101.847
89.3383
74.7726
10.0909
53.8399
37.1904
32.5279
45.4911
61.6379
57.2818
54.0679
47.5202
45.2889
42.6158
42.6504
42.5791
44.0453
46.0076
55.1997
69.9948
87.0563
102.043
119.813
143.549
170.005
193.151
211.783
222.974
228.836
225.7
216.925
204.201
192.152
172.386
149.4
115.496
99.6819
88.2607
11.0584
50.1273
36.0177
35.2263
49.9439
67.107
63.1888
59.706
53.023
50.6762
48.0261
48.5819
48.6571
51.4208
54.6552
64.8085
79.7641
94.6463
105.737
120.842
145.3
173.498
196.293
212.313
219.192
219.454
211.703
204.058
198.85
194.733
178.377
157.635
126.377
108.93
102.662
12.052
46.6135
34.7514
38.492
54.7039
72.7552
69.4358
65.7427
59.0732
56.6081
54.0346
55.0158
55.0223
58.8974
63.9858
75.244
89.681
101.712
109.304
122.311
146.868
175.493
196.863
209.61
212.073
207.168
195.179
187.064
186.027
187.543
174.493
157.084
132.009
115.601
115.246
12.9652
43.349
33.4419
42.2783
59.7076
78.5052
75.9137
72.0954
65.6192
63.0511
60.5974
61.871
61.5473
65.8352
72.7134
85.0848
98.8385
108.545
113.826
125.589
149.892
177.589
196.229
204.923
202.879
193.649
178.847
170.237
170.835
174.66
163.485
149.219
131.493
118.598
122.763
13.6611
40.3033
32.1751
46.4765
64.8744
84.2671
82.4821
78.6536
72.5749
69.954
67.6662
69.1159
68.2788
71.9822
79.7019
92.9125
106.539
115.378
119.794
130.993
154.551
179.939
194.612
198.627
192.127
179.554
163.575
155.144
156.059
159.668
148.996
137.194
125.894
117.704
123.378
14.0122
37.4893
31.064
50.9217
70.1077
89.9445
88.9835
85.2851
79.8183
77.2511
75.1942
76.785
75.4181
77.6631
84.8125
98.3686
112.79
122.345
127.094
137.98
160.025
181.816
191.638
190.729
180.118
165.257
149.508
141.958
142.623
144.641
133.778
123.874
117.267
113.548
117.677
13.9462
34.8769
30.2325
55.4145
75.3012
95.4424
95.2651
91.8491
87.1993
84.8452
83.1264
84.9291
83.2628
83.6836
89.0531
102.4
118.332
129.582
135.197
145.476
165.016
182.257
186.9
181.277
167.221
151.134
136.618
130.38
130.542
130.466
119.348
111.014
107.494
107.155
107.773
13.4694
32.4767
29.7976
59.7612
80.345
100.675
101.198
98.213
94.5576
92.6255
91.3938
93.5788
92.0548
90.8587
93.9568
106.681
124.385
137.396
143.498
152.275
168.311
180.588
180.289
170.524
153.904
137.572
124.87
120.043
119.546
117.421
106.332
99.3876
97.7805
99.4964
95.861
12.6555
30.2708
29.8576
63.8139
85.1324
105.572
106.689
104.265
101.744
100.468
99.9075
102.701
101.918
99.8166
100.976
112.867
132.19
146.289
151.711
157.637
169.255
176.66
172.039
158.898
140.664
124.899
114.226
110.645
109.37
105.539
94.8721
89.1825
88.6979
91.2734
83.502
11.6141
28.2673
30.4887
67.49
89.567
110.076
111.678
109.92
108.637
108.256
108.572
112.221
112.808
110.796
111.132
122.367
142.871
156.87
159.961
161.48
167.909
170.807
162.613
146.894
127.936
113.318
104.624
101.969
99.8422
94.7878
84.8885
80.306
80.4172
82.913
71.611
10.459
26.4614
31.7448
70.767
93.5729
114.153
116.142
115.128
115.154
115.89
117.303
122.054
124.607
123.731
124.896
136.241
157.298
169.656
168.604
164.267
164.84
163.622
152.533
134.967
116.035
102.912
95.9737
93.8726
90.8885
85.1178
76.2162
72.5649
72.906
74.6521
60.6658
9.28646
24.8623
33.6585
73.6629
97.1059
117.788
120.088
119.87
121.258
123.31
126.048
132.148
137.178
138.391
142.2
155.228
176.185
184.95
177.874
166.52
160.785
155.737
142.264
123.473
105.148
93.6577
88.1666
86.2699
82.5052
76.4743
68.6703
65.7511
66.0554
66.6275
50.8879
8.16565
23.4808
36.242
76.2159
100.159
120.994
123.551
124.163
126.955
130.499
134.798
142.506
150.466
154.588
162.712
179.521
199.851
202.694
187.734
168.628
156.402
147.674
132.155
112.655
95.3472
85.4699
81.0875
79.1181
74.7221
68.7925
62.0734
59.6786
59.7462
58.9356
42.3492
7.13881
22.3333
39.484
78.4673
102.757
123.801
126.59
128.053
132.289
137.492
143.602
153.202
164.501
172.248
186.135
208.916
228.154
222.397
197.785
170.664
152.157
139.804
122.437
102.654
86.6215
78.2291
74.6314
72.4042
67.5727
61.9955
56.2668
54.1947
53.8798
51.6614
35.0293
6.226
21.4546
43.3433
80.4523
104.947
126.258
129.272
131.607
137.338
144.368
152.572
164.393
179.451
191.482
212.419
242.941
260.132
242.982
207.361
172.533
148.303
132.331
113.239
93.529
78.905
71.8072
68.7099
66.1328
61.0768
55.9967
51.1141
49.1822
48.3883
44.8841
28.8495
5.43152
20.8892
47.7404
82.1981
106.787
128.417
131.67
134.902
142.203
151.253
161.891
176.35
195.634
212.611
241.842
281.218
294.17
262.836
215.57
173.916
144.879
125.323
104.617
85.2849
72.102
66.0821
63.2557
60.316
55.2321
50.7048
46.5016
44.5558
43.2345
38.6707
23.6973
4.74986
20.7351
52.5509
83.726
108.338
130.338
133.855
138.028
147.007
158.324
171.841
189.5
213.615
236.279
275.096
323.292
327.867
279.943
221.494
174.463
141.736
118.735
96.5793
77.8864
66.1051
60.9457
58.22
54.9641
50.015
46.0294
42.3365
40.2573
38.406
33.067
19.4439
4.1703
21.1259
57.6086
85.0557
109.659
132.078
135.899
141.079
151.901
165.824
182.843
204.529
234.338
263.608
313.37
368.432
358.339
292.277
224.301
173.751
138.583
112.451
89.1107
71.2773
60.8061
56.3066
53.5697
50.0804
45.3846
41.8853
38.5453
36.25
33.9069
28.0923
15.9587
3.68
22.2957
62.7223
86.2086
110.806
133.697
137.875
144.164
157.073
174.091
195.532
222.541
259.404
296.52
358.4
414.772
382.096
298.125
223.469
171.491
135.072
106.321
82.1856
65.3875
56.103
52.0904
49.2819
45.6575
41.2893
38.1955
35.071
32.5136
29.7489
23.7394
13.1177
3.26601
24.5223
67.7033
87.2091
111.831
135.256
139.86
147.412
162.77
183.609
210.887
245.337
291.471
338.103
412.057
458.506
395.702
296.498
218.814
167.462
130.885
100.215
75.7779
60.1422
51.9034
48.2372
45.3395
41.6782
37.672
34.8927
31.8706
29.0383
25.9439
19.9783
10.8094
2.91624
28.1637
72.3934
88.0825
112.781
136.817
141.945
150.987
169.335
195.099
230.441
275.863
334.887
392.904
474.685
493.016
396.322
287.305
210.558
161.644
125.802
94.0425
69.8641
55.4649
48.1262
44.7
41.7268
38.116
34.4756
31.9199
28.9124
25.8208
22.499
16.7632
8.93675
2.62
33.4954
76.6914
88.8534
113.699
138.454
144.243
155.115
177.268
209.67
256.646
318.852
396.071
465.762
540.888
509.943
383.025
271.464
199.214
154.104
119.727
87.7824
64.421
51.2817
44.7022
41.4412
38.4276
34.9384
31.6457
29.2298
26.1735
22.86
19.4133
14.0386
7.41774
2.3681
40.701
80.5526
89.5441
114.628
140.255
146.909
160.124
187.334
229.091
293.429
381.238
481.758
555.695
594.43
502.303
357.192
250.634
185.531
145.067
112.689
81.4668
59.4237
47.5233
41.5745
38.431
35.4228
32.1087
29.1328
26.7841
23.6378
20.1548
16.6778
11.7456
6.18423
2.1528
49.6321
83.9831
90.174
115.615
142.336
150.171
166.522
200.768
256.292
346.889
470.054
588.719
641.409
611.382
469.079
322.516
226.877
170.331
134.806
104.811
75.1661
54.8421
44.1276
38.6975
35.6454
32.6911
29.5893
26.8931
24.5521
21.2938
17.7017
14.2757
9.82632
5.18048
1.96765
59.8743
87.0304
90.7616
116.718
144.868
154.382
175.141
219.67
296.254
424.938
580.585
682.362
677.471
578.058
416.651
283.569
202.153
154.439
123.682
96.2833
68.9599
50.6411
41.0409
36.0373
33.065
30.209
27.3427
24.8889
22.5097
19.1332
15.4944
12.1846
8.22614
4.36136
1.80735
70.5911
89.7718
91.3263
118.019
148.118
160.144
187.444
247.83
357.238
530.269
672.941
702.821
634.872
505.168
355.868
244.597
178.064
138.581
112.055
87.3405
62.9226
46.7813
38.2186
33.5698
30.675
27.9526
25.3334
23.0877
20.6381
17.1497
13.5234
10.3782
6.89584
3.69063
1.66753
80.9187
92.3017
91.8923
119.644
152.545
168.548
206.211
292.347
449.599
635.591
685.236
632.785
537.734
418.076
296.381
208.407
155.684
123.365
100.315
78.238
57.112
43.222
35.6249
31.2801
28.4644
25.8981
23.5282
21.4619
18.9223
15.3376
11.7763
8.82814
5.79199
3.13925
1.54462
89.3733
94.7336
92.4945
121.808
159.014
181.784
237.138
365.488
566.574
670.498
607.27
518.113
431.155
336.847
243.574
176.405
135.646
109.264
88.8226
69.2305
51.5692
39.9228
33.2317
29.1602
26.4265
24.0243
21.8973
19.9878
17.3502
13.6912
10.2384
7.50584
4.87704
2.68409
1.43568
95.1437
97.2226
93.1931
124.912
169.348
204.693
292.181
474.834
634.274
597.406
487.496
407.237
340.861
269.279
198.904
148.854
118.154
96.5931
77.9336
60.5662
46.3207
36.8457
31.0166
27.2063
24.5581
22.3138
20.4144
18.6446
15.9116
12.2045
8.8935
6.38342
4.11895
2.30669
1.33829
0.00337799
0.00250658
0.00228154
0.00217199
0.0021329
0.00213724
0.0021686
0.003514
0.0596408
0.14765
0.262987
0.427988
0.644258
0.922535
1.25505
1.7314
2.62533
4.67178
11.5559
30.1764
206.6
160.198
0.00334457
0.00224299
0.001844
0.0016097
0.00149047
0.00145443
0.001487
0.00353095
0.0599329
0.148525
0.264549
0.429855
0.646235
0.924801
1.25753
1.73418
2.62845
4.67586
11.57
30.2047
207.492
170.351
0.00354061
0.00237589
0.0018824
0.0015454
0.00132474
0.00119554
0.00116546
0.00354418
0.0601243
0.149169
0.265771
0.431195
0.647442
0.925992
1.25864
1.73521
2.62929
4.67694
11.5777
30.2341
207.532
180.041
0.00367097
0.00251744
0.00200371
0.00162962
0.00135822
0.00116767
0.00103261
0.00355397
0.0602297
0.149599
0.266652
0.431998
0.647865
0.926094
1.25835
1.73447
2.62777
4.67487
11.5776
30.265
206.786
189.139
0.00392272
0.00276386
0.00222593
0.00182134
0.00151331
0.00127927
0.000996831
0.00356085
0.0602574
0.149823
0.267189
0.432259
0.647492
0.925097
1.25664
1.73194
2.62385
4.66952
11.5683
30.2978
205.297
198.104
0.00406038
0.00292971
0.00239809
0.00199127
0.00167405
0.00142386
0.000984855
0.00356525
0.0602123
0.149847
0.26738
0.431972
0.646318
0.922996
1.25352
1.72759
2.61747
4.66079
11.5483
30.3326
203.098
207.104
0.00434062
0.00320788
0.00265892
0.00223237
0.0018945
0.00162277
0.00105321
0.00356746
0.0600969
0.149676
0.267223
0.431136
0.644343
0.919795
1.24897
1.72141
2.60859
4.64854
11.5165
30.3691
200.23
216.136
0.00447874
0.00337926
0.00284347
0.00242257
0.00208511
0.00180955
0.00117946
0.00356757
0.0599126
0.149312
0.26672
0.429751
0.641571
0.9155
1.24302
1.7134
2.59717
4.6327
11.4719
30.4063
196.742
225.14
0.00478417
0.00368452
0.00313398
0.00269573
0.0023403
0.00204683
0.00130389
0.00356549
0.05966
0.148756
0.265875
0.427825
0.638015
0.910128
1.23568
1.70357
2.58318
4.61315
11.4136
30.4429
192.689
234.043
0.00490885
0.00384886
0.0033191
0.00289375
0.00254546
0.00225448
0.00139452
0.00356095
0.0593388
0.148011
0.264693
0.425368
0.633691
0.903701
1.22698
1.69193
2.56657
4.58982
11.3409
30.4766
188.134
242.762
0.00522951
0.00417111
0.00362939
0.00318924
0.0028253
0.00251865
0.0015086
0.00355373
0.0589483
0.14708
0.263185
0.422393
0.628625
0.896246
1.21695
1.6785
2.54733
4.56259
11.2533
30.5043
183.142
251.184
0.00533944
0.00432472
0.00380948
0.00338819
0.00303718
0.00273858
0.00162854
0.0035434
0.058487
0.145966
0.261362
0.418919
0.622843
0.8878
1.20564
1.66333
2.52542
4.53138
11.1505
30.5219
177.78
259.176
0.00567218
0.00466077
0.00413607
0.00370211
0.00333727
0.0030247
0.00183289
0.00352961
0.0579522
0.144671
0.259236
0.414969
0.616381
0.878403
1.1931
1.64644
2.50082
4.49606
11.0323
30.5242
172.117
266.589
0.0057564
0.00479293
0.0043008
0.0038921
0.00354652
0.00324811
0.00211068
0.00351172
0.0573396
0.143198
0.256821
0.410569
0.609275
0.868101
1.17939
1.62791
2.47355
4.45652
10.8985
30.5053
166.221
273.269
0.00609215
0.00513315
0.00463365
0.00421432
0.00385683
0.00354641
0.00251476
0.00348913
0.0566423
0.141546
0.25413
0.405745
0.601567
0.856946
1.16457
1.6078
2.4436
4.41261
10.7493
30.458
160.156
279.069
0.0061523
0.00524299
0.00477986
0.00439026
0.00405684
0.00376554
0.0029808
0.00346053
0.0558498
0.139716
0.251175
0.40053
0.593302
0.844991
1.14871
1.58619
2.41103
4.36419
10.5848
30.3744
153.983
283.857
0.00648679
0.00558291
0.00511415
0.00471552
0.00437162
0.00406967
0.00349276
0.0034247
0.0549459
0.1377
0.247966
0.394955
0.584527
0.832295
1.13189
1.56318
2.37587
4.31109
10.4052
30.2463
147.756
287.523
0.00651848
0.0056655
0.00523625
0.00487125
0.00455571
0.00427738
0.00388979
0.0033783
0.0539064
0.135488
0.244509
0.389051
0.57529
0.818917
1.11417
1.53885
2.33822
4.25314
10.211
30.0646
141.523
289.985
0.00683902
0.00599228
0.0055592
0.005187
0.00486279
0.00457565
0.00426645
0.00332258
0.0526953
0.13306
0.240804
0.382849
0.565643
0.804919
1.09565
1.51331
2.29818
4.19019
10.0027
29.8206
135.326
291.188
0.0068536
0.00605579
0.00566209
0.00532438
0.00503007
0.0047686
0.00452247
0.00326643
0.0512595
0.13038
0.236844
0.376374
0.555638
0.790365
1.07639
1.48668
2.25587
4.12207
9.78093
29.5055
129.198
291.1
0.0071601
0.00636924
0.0059732
0.00562968
0.00532793
0.0050587
0.0048174
0.00326796
0.0495213
0.127396
0.232607
0.369648
0.545324
0.775319
1.05647
1.45906
2.21144
4.04866
9.54647
29.1115
123.168
289.712
0.00715672
0.00641255
0.00605536
0.00574672
0.00547596
0.00523397
0.00501854
0.0034882
0.0473685
0.124029
0.228056
0.362679
0.534751
0.759846
1.03598
1.43056
2.16505
3.96987
9.30015
28.6317
117.255
287.03
0.00744655
0.0067095
0.00635089
0.00603741
0.00576011
0.0055112
0.00528736
0.00400637
0.0446436
0.12016
0.223126
0.355462
0.523962
0.744013
1.01499
1.4013
2.1169
3.88563
9.0429
28.0608
111.475
283.072
0.00743063
0.00673706
0.00641558
0.0061361
0.00588962
0.00566828
0.00546709
0.00462561
0.0411336
0.115614
0.217717
0.347967
0.51299
0.727884
0.993574
1.3714
2.06718
3.79597
8.7757
27.3955
105.837
277.865
0.00770415
0.00701762
0.00669535
0.00641171
0.00615927
0.00593146
0.00572286
0.00522728
0.0365858
0.110143
0.211676
0.34013
0.50185
0.711523
0.971814
1.34096
2.01611
3.70096
8.49953
26.6348
100.346
271.446
0.00767678
0.00703044
0.00674329
0.00649242
0.00627019
0.00606986
0.00588537
0.00561095
0.0307951
0.103399
0.204775
0.331835
0.490531
0.694986
0.949779
1.3101
1.96392
3.60077
8.21539
25.7802
95.0028
263.857
0.00793327
0.00729361
0.00700595
0.0067513
0.0065235
0.00631701
0.0061264
0.00591926
0.0238627
0.0949244
0.196681
0.322895
0.478977
0.678313
0.927542
1.27892
1.91086
3.49569
7.92423
24.8362
89.804
255.151
0.00789955
0.0072964
0.00704126
0.00681743
0.00661843
0.00643849
0.00627197
0.00610731
0.016565
0.0842041
0.186915
0.31302
0.467067
0.661519
0.905166
1.24754
1.8572
3.38609
7.62698
23.8098
84.7433
245.394
0.00814114
0.00754417
0.0072886
0.00706117
0.00685678
0.00667076
0.00649837
0.00633367
0.0105774
0.070861
0.174812
0.301775
0.454584
0.644568
0.882699
1.21605
1.8032
3.27251
7.3245
22.711
79.8126
234.663
0.00810336
0.00753939
0.00731373
0.00711506
0.00693788
0.00677724
0.00662821
0.00648564
0.00732901
0.0551363
0.1595
0.28852
0.441177
0.627343
0.860159
1.18455
1.74917
3.1556
7.01769
21.5517
75.0003
223.056
0.00833019
0.00777183
0.00754573
0.00734361
0.0071612
0.0069946
0.00683976
0.00669287
0.00649273
0.0384895
0.140014
0.272333
0.426299
0.609604
0.837508
1.15312
1.69541
3.03618
6.70742
20.3462
70.2942
210.685
0.00829264
0.00776378
0.00756478
0.00738902
0.00723185
0.007089
0.00695622
0.00682945
0.006575
0.0236373
0.115714
0.25194
0.409135
0.590931
0.814608
1.1218
1.64222
2.91524
6.39472
19.1096
65.6806
197.686
0.00850596
0.00798218
0.00778274
0.00760369
0.00744149
0.00729283
0.00715428
0.00702281
0.00683766
0.0134694
0.0872536
0.225747
0.38848
0.570653
0.791171
1.09054
1.5899
2.79392
6.08081
17.858
61.1481
184.208
0.00847099
0.00797344
0.00779838
0.00764332
0.0075043
0.00737765
0.0072597
0.00714699
0.00701819
0.00858584
0.057816
0.19223
0.362606
0.547741
0.766683
1.05919
1.53866
2.67348
5.76724
16.6076
56.6874
170.42
0.0086716
0.00817864
0.00800313
0.00784495
0.00770115
0.00756891
0.00744532
0.0073278
0.00720815
0.00709593
0.0329478
0.151141
0.329198
0.520667
0.740313
1.0274
1.48861
2.55522
5.45596
15.3741
52.2963
156.495
0.00864155
0.00817176
0.00801798
0.00788142
0.00775867
0.00764659
0.00754198
0.00744183
0.00734132
0.00694767
0.017172
0.105589
0.285675
0.487207
0.710784
0.994571
1.43969
2.44044
5.14935
14.1723
47.9805
142.615
0.00883155
0.00836586
0.00821158
0.00807203
0.00794469
0.0078272
0.00771706
0.00761204
0.00750908
0.0072004
0.0101312
0.0632681
0.2306
0.444316
0.67619
0.959729
1.39156
2.3302
4.85016
13.0157
43.7567
128.957
0.00880911
0.00836378
0.00822876
0.00810851
0.00800014
0.00790091
0.00780804
0.0077189