/*--------------------------------*- C++ -*----------------------------------*\
| =========                 |                                                 |
| \\      /  F ield         | OpenFOAM: The Open Source CFD Toolbox           |
|  \\    /   O peration     | Version:  v1912                                 |
|   \\  /    A nd           | Website:  www.openfoam.com                      |
|    \\/     M anipulation  |                                                 |
\*---------------------------------------------------------------------------*/
FoamFile
{
    version     2.0;
    format      ascii;
    class       volScalarField;
    location    "590";
    object      nut;
}
// * * * * * * * * * * * * * * * * * * * * * * * * * * * * * * * * * * * * * //

dimensions      [0 2 -1 0 0 0 0];


internalField   nonuniform List<scalar> 
12441
(
5.82185e-24
1.79046e-20
8.10466e-20
3.32532e-19
1.06828e-18
3.88827e-18
1.01057e-17
2.50057e-17
6.13861e-17
1.2754e-16
3.05681e-16
7.7159e-16
2.17901e-15
7.40055e-15
1.03539e-13
1.89309e-11
0.000192745
0.000919402
0.0029671
0.00259905
0.00364786
0.00775321
6.34178e-24
3.03333e-20
1.11726e-19
4.23926e-19
1.30204e-18
4.80714e-18
1.21983e-17
3.00103e-17
7.36108e-17
1.54463e-16
3.79826e-16
1.02936e-15
2.82537e-15
9.37248e-15
1.1295e-13
3.89641e-11
5.74803e-05
0.0011138
0.00339848
0.00282997
0.00401069
0.00781733
6.36454e-24
3.58934e-20
1.20771e-19
4.48106e-19
1.37767e-18
4.9065e-18
1.29286e-17
3.20407e-17
8.05139e-17
1.7178e-16
4.17906e-16
1.11761e-15
2.78171e-15
7.66203e-15
5.3457e-14
6.56647e-12
1.10716e-05
0.000818585
0.00135791
0.00267059
0.0041641
0.0078909
6.319e-24
3.76895e-20
1.18527e-19
4.29283e-19
1.32527e-18
4.7133e-18
1.25129e-17
3.13262e-17
7.84929e-17
1.7368e-16
4.2377e-16
1.15413e-15
2.60773e-15
8.47197e-15
3.84648e-14
1.54151e-12
1.62287e-06
0.000572282
0.00101396
0.00259543
0.00432697
0.0079647
6.28497e-24
4.38805e-20
1.29771e-19
4.58285e-19
1.4026e-18
4.77903e-18
1.30902e-17
3.27935e-17
8.42947e-17
1.87528e-16
4.54171e-16
1.2848e-15
3.01543e-15
4.07035e-14
2.46917e-13
2.29521e-12
1.39499e-07
0.00040536
0.000997198
0.00258366
0.00446718
0.00803394
6.23478e-24
4.12856e-20
1.20532e-19
4.2916e-19
1.34263e-18
4.62175e-18
1.27496e-17
3.23916e-17
8.28906e-17
1.92689e-16
4.7695e-16
1.44569e-15
4.52797e-15
1.32863e-12
1.18859e-11
5.09831e-11
4.58145e-07
0.00037525
0.00106741
0.00264038
0.0045928
0.00809948
6.19989e-24
5.02609e-20
1.37787e-19
4.75735e-19
1.46004e-18
4.79209e-18
1.35922e-17
3.44516e-17
9.06973e-17
2.11124e-16
5.2084e-16
2.00026e-15
2.49932e-14
4.14381e-11
6.57125e-10
9.36615e-09
1.87567e-05
0.000399744
0.00125791
0.00282167
0.00473594
0.00816218
6.15011e-24
4.34496e-20
1.23164e-19
4.40126e-19
1.40806e-18
4.72242e-18
1.35113e-17
3.48428e-17
9.13141e-17
2.23848e-16
5.72506e-16
5.43645e-15
6.09144e-13
2.25237e-09
8.40767e-08
4.98269e-06
0.000197526
0.000467726
0.00170842
0.00318812
0.00492149
0.00822577
6.11733e-24
5.5701e-20
1.46121e-19
4.9964e-19
1.554e-18
4.95822e-18
1.46106e-17
3.75679e-17
1.02067e-16
2.50942e-16
6.45335e-16
6.13547e-14
2.58734e-11
7.41873e-08
1.04429e-05
0.000156765
0.000830245
0.000850432
0.00263631
0.0038086
0.00518049
0.00829204
6.07046e-24
4.43469e-20
1.25427e-19
4.56597e-19
1.50742e-18
4.9532e-18
1.47463e-17
3.87226e-17
1.04871e-16
2.75117e-16
7.48605e-16
1.6821e-12
1.08232e-09
4.4372e-06
0.000195178
0.000649933
0.0018432
0.00165495
0.00436296
0.00475955
0.00552532
0.00836448
6.04131e-24
6.02566e-20
1.53424e-19
5.25867e-19
1.67258e-18
5.20546e-18
1.60237e-17
4.20312e-17
1.19285e-16
3.17362e-16
8.92048e-16
5.2312e-11
5.50172e-08
8.29725e-05
0.00076928
0.00192758
0.00429356
0.00342313
0.0073847
0.00614462
0.00596913
0.00844366
5.99588e-24
4.46263e-20
1.27727e-19
4.76907e-19
1.63356e-18
5.28048e-18
1.64008e-17
4.40616e-17
1.2549e-16
3.64621e-16
1.15857e-15
1.45678e-09
3.24824e-06
0.000362671
0.00181358
0.00467513
0.0095073
0.0071123
0.0122206
0.00801462
0.00650181
0.00853143
5.9703e-24
6.41458e-20
1.6044e-19
5.53767e-19
1.81481e-18
5.54138e-18
1.79068e-17
4.82177e-17
1.46691e-16
4.44711e-16
1.69449e-15
3.52182e-08
7.34094e-05
0.00121313
0.00486007
0.0110647
0.0197916
0.0140502
0.0190729
0.0103577
0.00711561
0.00862633
5.9263e-24
4.43227e-20
1.29661e-19
4.99275e-19
1.78304e-18
5.69138e-18
1.85308e-17
5.13795e-17
1.59838e-16
5.59136e-16
3.60123e-15
7.96612e-07
0.000364102
0.00340664
0.011554
0.0232112
0.0372545
0.0253843
0.0276337
0.0130549
0.00778008
0.00872852
5.90395e-24
6.7512e-20
1.66644e-19
5.82576e-19
1.97782e-18
5.93954e-18
2.02671e-17
5.67772e-17
1.96037e-16
7.78676e-16
1.65163e-14
1.52288e-05
0.00127098
0.00864221
0.0241569
0.0429587
0.0628877
0.0412913
0.0370761
0.0159531
0.00847657
0.00883515
5.86024e-24
4.39564e-20
1.31989e-19
5.24766e-19
1.95763e-18
6.18496e-18
2.12002e-17
6.16736e-17
2.28147e-16
1.21622e-15
3.02147e-13
0.000140384
0.00342097
0.0187962
0.0444778
0.0709807
0.0957839
0.0604172
0.0463706
0.0188567
0.00916985
0.00894576
5.84119e-24
7.05366e-20
1.73493e-19
6.15076e-19
2.17042e-18
6.43892e-18
2.33084e-17
6.93717e-17
3.08203e-16
2.30483e-15
1.26018e-11
0.000559928
0.00836383
0.0355668
0.0727371
0.106421
0.132765
0.0801149
0.054599
0.0216275
0.00984598
0.00905718
5.7972e-24
4.34998e-20
1.34484e-19
5.53098e-19
2.16049e-18
6.77096e-18
2.46161e-17
7.7223e-17
4.08429e-16
5.44538e-15
5.47967e-10
0.00153845
0.0176922
0.0598423
0.108272
0.146564
0.16888
0.0973848
0.0612812
0.0241423
0.0104784
0.00916919
5.78088e-24
7.32604e-20
1.80278e-19
6.4909e-19
2.38782e-18
7.01102e-18
2.71801e-17
8.9063e-17
6.61666e-16
1.69222e-14
4.40892e-08
0.004026
0.0330134
0.0907353
0.148303
0.187325
0.198784
0.11015
0.0663513
0.0263663
0.0110668
0.00927899
5.73632e-24
4.30511e-20
1.36863e-19
5.82366e-19
2.3867e-18
7.43751e-18
2.90048e-17
1.02307e-16
1.08033e-15
7.52677e-14
8.58363e-06
0.00909318
0.0548319
0.126764
0.189749
0.223914
0.218406
0.117914
0.0701034
0.0282676
0.0115975
0.00938714
5.72329e-24
7.57264e-20
1.86793e-19
6.83139e-19
2.62908e-18
7.67242e-18
3.23015e-17
1.22236e-16
2.19356e-15
7.80152e-13
0.000172621
0.0182902
0.0824433
0.165098
0.228229
0.252282
0.226312
0.121684
0.0729191
0.0298803
0.0120833
0.00949146
5.6779e-24
4.24323e-20
1.38564e-19
6.10889e-19
2.63493e-18
8.1926e-18
3.49369e-17
1.46451e-16
4.33975e-15
1.34051e-11
0.000715127
0.0326975
0.114171
0.203328
0.260574
0.269971
0.223967
0.12312
0.0751816
0.0312153
0.0125215
0.00959327
5.66757e-24
7.80198e-20
1.92461e-19
7.15445e-19
2.88969e-18
8.41767e-18
3.94302e-17
1.83568e-16
1.02748e-14
1.66094e-10
0.00202717
0.0525113
0.14789
0.238435
0.283905
0.276881
0.21489
0.123725
0.0771345
0.0323322
0.0129361
0.00969106
5.62163e-24
4.19626e-20
1.39785e-19
6.37965e-19
2.90241e-18
9.03687e-18
4.34975e-17
2.31471e-16
2.24181e-14
1.55799e-09
0.00498931
0.0770965
0.181509
0.268544
0.297783
0.274823
0.203067
0.124349
0.078939
0.0332602
0.0133339
0.00978684
5.61483e-24
8.02728e-20
1.9757e-19
7.45781e-19
3.17102e-18
9.26674e-18
5.02609e-17
3.06404e-16
5.64356e-14
1.37808e-08
0.0106068
0.104918
0.213252
0.291946
0.302723
0.266866
0.191605
0.125265
0.0806479
0.0340747
0.0137476
0.00987966
5.5671e-24
4.17905e-20
1.40757e-19
6.63832e-19
3.19182e-18
9.99168e-18
5.71475e-17
4.08423e-16
1.30468e-13
3.19049e-07
0.0198117
0.134409
0.241761
0.308487
0.301007
0.256117
0.182138
0.126389
0.0822876
0.0348206
0.0141904
0.00997203
5.56281e-24
8.24817e-20
2.0209e-19
7.73984e-19
3.47272e-18
1.02317e-17
6.84559e-17
5.73317e-16
3.92508e-13
1.87966e-05
0.0328571
0.163888
0.266137
0.31837
0.294789
0.245063
0.175056
0.127544
0.0838378
0.0355807
0.0146988
0.0100634
5.51394e-24
4.18582e-20
1.41216e-19
6.87487e-19
3.5013e-18
1.1068e-17
8.1322e-17
8.10317e-16
1.82976e-12
0.000216726
0.0495381
0.192181
0.285937
0.322913
0.286502
0.235159
0.170052
0.128566
0.0852848
0.0363975
0.015285
0.0101564
5.51302e-24
8.46736e-20
2.05791e-19
7.99189e-19
3.79609e-18
1.13436e-17
1.02507e-16
1.20431e-15
1.28004e-11
0.000754482
0.0690337
0.218291
0.301152
0.323286
0.277627
0.227024
0.166601
0.129364
0.0865936
0.0373356
0.0159792
0.0102507
5.46189e-24
4.20333e-20
1.40961e-19
7.08379e-19
3.83337e-18
1.23037e-17
1.28817e-16
1.79558e-15
7.40845e-11
0.00161055
0.0905711
0.241668
0.312109
0.321015
0.269348
0.220681
0.164214
0.129896
0.0877442
0.0384072
0.0167813
0.0103488
5.46299e-24
8.68049e-20
2.08973e-19
8.21776e-19
4.14305e-18
1.26526e-17
1.72469e-16
2.80941e-15
3.5638e-10
0.00300444
0.113206
0.261902
0.319376
0.317089
0.262043
0.215901
0.162524
0.130169
0.0887029
0.0396358
0.0177047
0.01045
5.41081e-24
4.22455e-20
1.39894e-19
7.26572e-19
4.19059e-18
1.37405e-17
2.30114e-16
4.38922e-15
1.38678e-09
0.00521282
0.136253
0.278927
0.323623
0.312496
0.255967
0.212357
0.161285
0.130205
0.089452
0.040992
0.0187288
0.0105565
5.41502e-24
8.89168e-20
2.11409e-19
8.42361e-19
4.52251e-18
1.41927e-17
3.26384e-16
7.0832e-15
4.74643e-09
0.0086234
0.158973
0.292775
0.325544
0.307694
0.250976
0.209757
0.160351
0.130044
0.0899631
0.0424624
0.0198459
0.010667
5.35936e-24
4.2278e-20
1.37804e-19
7.42841e-19
4.58465e-18
1.54525e-17
4.58219e-16
1.12947e-14
1.44526e-08
0.0136536
0.180933
0.303714
0.325766
0.303143
0.247007
0.207852
0.159639
0.129725
0.0902229
0.0439945
0.0210156
0.0107831
5.36551e-24
8.84564e-20
2.10335e-19
8.57217e-19
4.93646e-18
1.60474e-17
6.77954e-16
1.85063e-14
4.2814e-08
0.0207554
0.201742
0.312036
0.324829
0.298935
0.243827
0.206464
0.159108
0.129289
0.0902094
0.0455675
0.0222172
0.0109032
5.30581e-24
4.14853e-20
1.32571e-19
7.51585e-19
5.00981e-18
1.74614e-17
9.80397e-16
2.99159e-14
2.20001e-07
0.0305082
0.221336
0.318169
0.323165
0.295253
0.241347
0.205459
0.158747
0.128776
0.0899157
0.0471401
0.0234029
0.0110282
5.31234e-24
8.52625e-20
2.03823e-19
8.62051e-19
5.38096e-18
1.81861e-17
1.47465e-15
5.74562e-14
1.18927e-05
0.0436602
0.239698
0.32249
0.321108
0.292044
0.239381
0.204756
0.158558
0.128227
0.0893291
0.0487192
0.0245537
0.0111563
5.24587e-24
4.16143e-20
1.27321e-19
7.57658e-19
5.4823e-18
1.98555e-17
2.14218e-15
4.6499e-13
0.000266525
0.06134
0.257047
0.325435
0.318903
0.289397
0.237888
0.204298
0.158558
0.127677
0.0884544
0.0503016
0.025632
0.0112883
5.2493e-24
5.37896e-20
1.5472e-19
7.99471e-19
5.7687e-18
2.06383e-17
3.2014e-15
2.31283e-11
0.00244385
0.0849095
0.273531
0.327348
0.316723
0.287235
0.236748
0.204066
0.15877
0.127167
0.0872947
0.051935
0.0266407
0.011422
5.17247e-24
4.32799e-20
1.14468e-19
7.24232e-19
5.93989e-18
2.35426e-17
4.66219e-15
1.03289e-09
0.0110624
0.115291
0.289348
0.328592
0.314678
0.285647
0.235977
0.204051
0.159221
0.12673
0.0858759
0.0536446
0.0275711
0.0115584
5.16588e-24
1.9395e-21
1.1209e-20
4.0064e-19
5.44889e-18
2.44366e-17
7.20668e-15
1.85268e-07
0.0322684
0.152529
0.304472
0.329429
0.312827
0.284576
0.2355
0.204271
0.159943
0.126398
0.0842274
0.0554706
0.028461
0.0116955
5.07771e-24
1.71163e-20
4.47715e-20
4.17353e-19
5.46175e-18
3.6203e-17
1.80035e-14
5.83279e-05
0.0715608
0.196005
0.31883
0.330144
0.311174
0.284149
0.23539
0.204747
0.160961
0.126191
0.0824077
0.0573557
0.029324
0.0118345
5.03894e-24
6.72015e-22
8.45905e-23
2.35236e-19
5.06604e-18
8.28112e-17
3.70754e-13
0.00159094
0.132798
0.244551
0.332101
0.330928
0.309683
0.284312
0.235595
0.20553
0.162304
0.126121
0.0804828
0.0591249
0.0301602
0.011976
4.83814e-24
2.10319e-19
4.58118e-19
1.02948e-18
7.26001e-18
9.13474e-16
7.18196e-12
0.0107794
0.21767
0.297424
0.344476
0.332147
0.308317
0.285189
0.236187
0.206645
0.163972
0.126116
0.0785345
0.060331
0.0306644
0.0121338
0.00987657
0.033707
0.0426394
0.0158617
0.0111183
0.0105672
0.0104246
0.0108968
0.0109339
0.0116382
0.0171661
0.0168563
0.0161115
0.0162234
0.0171947
0.0191614
0.0214527
0.0223885
0.0203358
0.0158377
0.0130053
0.0122578
0.0121901
0.0123242
0.012564
0.0128317
0.0131367
0.0135625
0.0140599
0.014744
0.0156718
0.0167065
0.0167373
0.0165975
0.0978271
0.00986353
0.034351
0.0415419
0.0155098
0.0110581
0.0104758
0.0105458
0.0110477
0.0109944
0.0116876
0.0168217
0.0164302
0.0157276
0.0158135
0.0167688
0.0187646
0.0212661
0.022557
0.0206679
0.0159242
0.0128471
0.0120159
0.0119296
0.0120677
0.0123239
0.0126053
0.0129156
0.0133391
0.0138374
0.0145281
0.0154712
0.0165242
0.016543
0.0164438
0.0972003
0.00983842
0.0349799
0.0396306
0.014909
0.0110973
0.0104115
0.010845
0.011369
0.0111603
0.0118171
0.0155995
0.0150232
0.0145843
0.0145907
0.0150597
0.0163895
0.0184721
0.01999
0.0189905
0.0150412
0.0122715
0.0114659
0.0113788
0.0115356
0.0118279
0.0121412
0.0124682
0.0128914
0.0133925
0.0140929
0.0150649
0.0161539
0.0161565
0.0163346
0.0960189
0.00979929
0.0355804
0.0372015
0.0144016
0.0112917
0.0104731
0.0112852
0.0117285
0.0114077
0.0120425
0.0142831
0.0134793
0.0132803
0.0133473
0.0134072
0.0138944
0.0151381
0.0164794
0.0163317
0.0135806
0.0113861
0.0106576
0.0105691
0.0107442
0.0110841
0.0114475
0.0118072
0.0122361
0.0127407
0.0134493
0.0144589
0.0156011
0.0155903
0.016192
0.0942577
0.00974597
0.0360098
0.0344205
0.0139523
0.0115098
0.0105656
0.0117191
0.0120049
0.0116239
0.0122443
0.0131743
0.0121769
0.0122242
0.012484
0.012278
0.0119942
0.0122948
0.0131364
0.0134813
0.0118682
0.0102973
0.00965743
0.00955328
0.00973073
0.0101161
0.0105429
0.0109539
0.0113991
0.0119078
0.0126182
0.0136676
0.0148774
0.0148629
0.015955
0.0919033
0.00967615
0.036141
0.031416
0.0134566
0.0116424
0.0105947
0.0120231
0.0121221
0.0117125
0.012293
0.0122451
0.0111307
0.0114162
0.0118952
0.011556
0.0106961
0.0101825
0.0104187
0.0108954
0.0101348
0.00910171
0.00853956
0.00840172
0.00855437
0.00896574
0.00945764
0.00993682
0.0104129
0.0109276
0.0116296
0.0127134
0.014
0.0139982
0.015578
0.0889551
0.00959042
0.0358854
0.0283236
0.0128719
0.0116567
0.0105282
0.012143
0.0120582
0.0116307
0.0121227
0.0113841
0.0102197
0.0106856
0.0113174
0.0109428
0.00973849
0.00864891
0.00835056
0.00873602
0.00850852
0.00787602
0.00737663
0.00719354
0.00729265
0.00769531
0.0082364
0.00879227
0.00931501
0.00984001
0.0105217
0.0116259
0.012991
0.0130236
0.0150302
0.085428
0.00948687
0.0351721
0.0252831
0.0122233
0.0115772
0.0103829
0.0120857
0.0118325
0.0113849
0.0117352
0.0105159
0.00934642
0.0099004
0.0105837
0.0102287
0.00887951
0.00745568
0.00677079
0.00697901
0.00703547
0.0066757
0.00623176
0.00600579
0.00603252
0.00638549
0.00694053
0.00756544
0.00814633
0.0086881
0.00933852
0.0104419
0.0118778
0.0119692
0.0142963
0.0813551
0.00936733
0.0339793
0.0224143
0.0115692
0.011452
0.0101982
0.0118931
0.0114856
0.0110086
0.0111752
0.00962596
0.00847534
0.00902489
0.00967628
0.00936218
0.00800571
0.00643635
0.00551366
0.00553805
0.00572031
0.00554074
0.00515587
0.00490428
0.00485761
0.00512724
0.00564804
0.00631301
0.00695211
0.00751663
0.00812766
0.00920458
0.0106921
0.0108668
0.0133767
0.0767897
0.0092307
0.0323045
0.0198073
0.0109701
0.0113314
0.0100178
0.0116212
0.0110672
0.0105484
0.0105052
0.00873641
0.00761289
0.00808491
0.00865832
0.00838665
0.00710381
0.00551897
0.00448062
0.00434713
0.00456367
0.00450502
0.00418901
0.00393867
0.00383606
0.00400794
0.00444744
0.00510403
0.00578314
0.00637104
0.00693795
0.00796138
0.00947054
0.0097489
0.0122877
0.0718082
0.00908003
0.030194
0.0175177
0.0104753
0.0112585
0.00988197
0.0113268
0.010627
0.0100521
0.00978893
0.00788255
0.00678291
0.00712607
0.00760887
0.00737603
0.00620895
0.00469533
0.00363801
0.00338651
0.00358321
0.00360326
0.00336348
0.00314177
0.00301238
0.0030955
0.0034239
0.00401589
0.00469638
0.00529716
0.00581695
0.00676227
0.00825361
0.00864771
0.0110618
0.066511
0.00891508
0.0277102
0.0155775
0.0101194
0.0112695
0.00982429
0.0110632
0.0102116
0.00956563
0.00908362
0.00709915
0.00601183
0.00619128
0.00658557
0.00639126
0.00536129
0.00397957
0.00298135
0.00266202
0.00280849
0.00286979
0.00270348
0.00252917
0.00240331
0.00242496
0.0026399
0.00312208
0.00375182
0.00434051
0.00480886
0.00565664
0.00708497
0.00759475
0.00974733
0.0610236
0.00874002
0.0249599
0.0139999
0.00992492
0.0113963
0.0098728
0.0108765
0.00986158
0.00912918
0.00843605
0.0064138
0.00532395
0.0053167
0.00562278
0.0054698
0.00458995
0.0033845
0.00250516
0.00217133
0.00225834
0.00232667
0.0022189
0.00209693
0.00199652
0.00199118
0.0021168
0.00247231
0.00300272
0.00354308
0.00395204
0.00468973
0.00600916
0.00661986
0.00840587
0.0554955
0.00855535
0.0220599
0.0127888
0.00990597
0.0116707
0.0100518
0.0108063
0.0096118
0.00877723
0.00788294
0.00584678
0.00473856
0.00453341
0.00474076
0.00462974
0.00390924
0.00291044
0.00218746
0.00188317
0.00191847
0.00196892
0.00189764
0.00182061
0.00175524
0.00175368
0.00182911
0.00207416
0.00247964
0.0029362
0.00327524
0.00389826
0.00506828
0.0057503
0.00710846
0.0500962
0.00836592
0.0191554
0.0119369
0.0100743
0.0121263
0.0103872
0.0108865
0.00949015
0.00853725
0.00745045
0.00540933
0.00427015
0.00386723
0.00395738
0.00388187
0.00332436
0.00254601
0.00199176
0.00174283
0.00174148
0.0017618
0.00170668
0.00166206
0.00163193
0.00165563
0.00172086
0.00189275
0.00217796
0.002531
0.00279249
0.00330534
0.00429716
0.00500921
0.00592834
0.0450093
0.00817267
0.0163862
0.0114285
0.0104426
0.0128028
0.0109125
0.01115
0.00952101
0.00843166
0.00715704
0.00511023
0.00392708
0.00333703
0.00329191
0.0032377
0.00283633
0.00227137
0.00187504
0.00168862
0.00166528
0.00165477
0.00160379
0.00158157
0.00158339
0.00164472
0.00173157
0.00187159
0.00206176
0.00231377
0.00249919
0.00291613
0.0037177
0.00441353
0.00493106
0.0404216
0.00798033
0.0138921
0.0112461
0.0110342
0.0137475
0.0116753
0.0116338
0.00972999
0.00848001
0.00701576
0.00495449
0.00371376
0.00295322
0.00276297
0.00271084
0.00244457
0.0020638
0.00179764
0.00166695
0.00163306
0.00159962
0.00155098
0.00154737
0.00157912
0.00168414
0.00181263
0.00195433
0.00208123
0.00225235
0.002374
0.0027173
0.00333443
0.0039716
0.00416306
0.0365083
0.00778933
0.0117932
0.0113898
0.0118842
0.0150225
0.012743
0.0123864
0.0101508
0.00870431
0.00703919
0.00494813
0.00363094
0.00271676
0.00238143
0.00231216
0.00214616
0.00190242
0.00172939
0.00164024
0.0016051
0.00156247
0.00152238
0.00153953
0.00160224
0.00175389
0.00193251
0.00209591
0.00218845
0.00230857
0.00238674
0.00268219
0.0031341
0.00368147
0.00364285
0.033414
0.00760307
0.0101681
0.0119
0.0130402
0.0167059
0.0142066
0.0134716
0.0108305
0.00913275
0.00724404
0.00510114
0.00368
0.0026222
0.00214593
0.00204176
0.00193331
0.00177234
0.00165405
0.00159103
0.00156314
0.00152721
0.00150557
0.0015489
0.00164628
0.00184669
0.00207506
0.0022662
0.00234601
0.00244838
0.00250685
0.00277876
0.00309067
0.00353146
0.00336046
0.0312328
0.00742066
0.00903398
0.0128678
0.0145671
0.0188924
0.0161789
0.0149697
0.0118317
0.00980394
0.00765517
0.00543246
0.00386527
0.00266139
0.00204297
0.00188615
0.00179319
0.00166547
0.0015688
0.00151931
0.00150682
0.00149204
0.00149823
0.00157371
0.00171083
0.00196225
0.00223446
0.00244893
0.00253003
0.00264687
0.00270851
0.00297597
0.00317263
0.00350342
0.00328712
0.0300013
0.00724378
0.00835154
0.0144362
0.0165496
0.0216911
0.0187881
0.0169731
0.013231
0.010766
0.00830662
0.00597141
0.00419997
0.00282942
0.00205324
0.00182141
0.00170883
0.00157894
0.00148127
0.00143723
0.00144614
0.00146254
0.00150306
0.00161575
0.00179793
0.00210258
0.00240988
0.00263787
0.00272921
0.00288925
0.0029723
0.00324725
0.00334935
0.00357741
0.0033896
0.0297105
0.00707145
0.00805233
0.0167931
0.0190996
0.0252275
0.0221723
0.0195823
0.0151124
0.0120757
0.00923971
0.00675757
0.00470778
0.00312789
0.00215884
0.0018216
0.00166317
0.00151198
0.00140264
0.00136006
0.00139312
0.00144561
0.00152376
0.00167771
0.00190996
0.00226937
0.00260188
0.00283289
0.00294156
0.00316903
0.00328479
0.00357188
0.00359508
0.00373606
0.00364183
0.0303326
0.00690537
0.00806394
0.0201474
0.0223751
0.0296545
0.0264834
0.0229051
0.0175615
0.0137914
0.0104965
0.00783196
0.00542322
0.00357342
0.00235155
0.0018657
0.00164204
0.00146404
0.00134239
0.00130021
0.00135654
0.00144594
0.00156294
0.00176174
0.00204867
0.00246291
0.00281068
0.00303692
0.00317074
0.0034853
0.00363715
0.00393504
0.00389085
0.0039674
0.00403071
0.0318452
0.00674534
0.0083273
0.0247014
0.026606
0.0351709
0.0318982
0.027061
0.0206606
0.0159668
0.0121104
0.00922309
0.00637936
0.00419112
0.00263838
0.00194407
0.00163804
0.0014346
0.00130514
0.00126363
0.00134007
0.00146523
0.00162166
0.00186922
0.00221486
0.00268208
0.00303597
0.00325424
0.00342306
0.00383989
0.00402376
0.00432744
0.00422489
0.00426633
0.00455738
0.0342426
0.00659312
0.00879542
0.0306181
0.032116
0.0420315
0.0386217
0.0321789
0.0244809
0.0186407
0.0140929
0.0109274
0.00759016
0.00500174
0.00304178
0.00206042
0.00165062
0.00142412
0.00129229
0.00125189
0.00134348
0.0015027
0.00169983
0.0020008
0.00240846
0.00292484
0.00327735
0.00348969
0.00370553
0.00423545
0.00444112
0.00474453
0.00459225
0.00463492
0.00523601
0.0375354
0.00644962
0.00943782
0.0379905
0.0393173
0.0505265
0.0468528
0.0383688
0.0290605
0.0218186
0.0164187
0.0128945
0.00902662
0.00599447
0.00358322
0.00223115
0.00168608
0.00143483
0.00130396
0.00126435
0.00136465
0.00155636
0.00179679
0.0021568
0.00262872
0.00318879
0.0035349
0.00374834
0.00402455
0.0046741
0.0048873
0.00518591
0.00499399
0.00508215
0.00609204
0.0417441
0.00631698
0.010235
0.0468219
0.0486682
0.0609207
0.0567003
0.0456581
0.034361
0.0254434
0.0190082
0.0150179
0.0106069
0.00710943
0.00425295
0.00247408
0.00175375
0.00147066
0.00134146
0.00130157
0.00140194
0.00162389
0.00191194
0.00233738
0.00287445
0.00347182
0.00380966
0.00403531
0.00438534
0.005157
0.00536168
0.00565472
0.00543628
0.00562335
0.00716063
0.0468895
0.00619775
0.0111867
0.0570703
0.0606013
0.0733605
0.0680684
0.0539068
0.0402164
0.0293661
0.0217154
0.0171391
0.0121978
0.00823865
0.00498741
0.00278993
0.00186247
0.00153637
0.00140703
0.00136515
0.00145517
0.00170363
0.00204508
0.00254281
0.00314433
0.00377249
0.00410372
0.00435558
0.0047915
0.00568423
0.00586498
0.00615718
0.00592965
0.00627963
0.00848558
0.0529838
0.00609509
0.0123093
0.0687346
0.0754501
0.0877762
0.0805602
0.0627376
0.0462968
0.0333286
0.0243276
0.0190602
0.0136348
0.00924917
0.00568221
0.00314337
0.00201264
0.00163581
0.00150386
0.00145826
0.00152635
0.00179504
0.00219677
0.00277351
0.00343712
0.00409038
0.00442014
0.0047137
0.00524503
0.00625514
0.00639943
0.00670224
0.00648838
0.0070775
0.0101187
0.0600227
0.00601408
0.0136496
0.0819422
0.0933601
0.103789
0.0934361
0.0715188
0.0521111
0.0369748
0.026581
0.0205677
0.0147448
0.0100083
0.00622478
0.00346994
0.00219162
0.00176951
0.00163397
0.00158332
0.00161921
0.00189942
0.00236861
0.00303022
0.00375194
0.00442618
0.0047627
0.00511351
0.00574624
0.00686877
0.0069688
0.00730134
0.00713016
0.0080487
0.0121193
0.0679798
0.00596079
0.0152814
0.096923
0.114116
0.12061
0.105633
0.0794084
0.0570526
0.0398887
0.0281941
0.0214598
0.015374
0.0104078
0.00652536
0.00370154
0.00237392
0.00193251
0.00179719
0.00174176
0.0017391
0.00202032
0.00256344
0.00331396
0.00408841
0.0047816
0.00513541
0.00555787
0.00629406
0.0075244
0.00757852
0.00796822
0.00787587
0.00923025
0.0145537
0.0768043
0.00594609
0.017317
0.113883
0.136866
0.136958
0.115853
0.085464
0.0604867
0.0416595
0.0289104
0.0215771
0.0154084
0.010378
0.0065315
0.00379363
0.00253257
0.00211443
0.00198874
0.00193104
0.00189153
0.00216403
0.00278545
0.00362606
0.00444674
0.00515917
0.00554222
0.00604837
0.00688621
0.00822193
0.00823567
0.00871893
0.00874964
0.0106648
0.0174945
0.0864222
0.00598322
0.0198911
0.132724
0.159864
0.151096
0.12275
0.0888036
0.0618642
0.041957
0.028548
0.0208318
0.0147948
0.00989845
0.00623613
0.00373607
0.00264946
0.00230251
0.00219987
0.002145
0.0020809
0.00233951
0.00304021
0.00396805
0.00482767
0.00556204
0.00598652
0.00658519
0.00751963
0.0089623
0.00894894
0.00957183
0.00977901
0.012401
0.0210202
0.0967394
0.00609167
0.0231649
0.152772
0.180532
0.16109
0.125211
0.0888026
0.0608472
0.0406091
0.0270439
0.0192327
0.0135516
0.00900109
0.00567651
0.00355306
0.0027219
0.0024855
0.00241817
0.00237213
0.00230781
0.0025578
0.00333427
0.00434153
0.00523234
0.00599351
0.0064708
0.00716706
0.00819077
0.00974757
0.00972867
0.0105478
0.0109953
0.0144943
0.0252135
0.107649
0.00628805
0.0272909
0.172624
0.195995
0.165294
0.122657
0.0852613
0.0574031
0.0376526
0.0244813
0.0168969
0.011779
0.00777277
0.00493322
0.0032929
0.00275972
0.00265652
0.00263147
0.00259947
0.00256815
0.00283023
0.00367461
0.00474775
0.00566194
0.00645681
0.00699634
0.00779125
0.008896
0.0105811
0.0105868
0.0116705
0.0124343
0.0170079
0.0301612
0.119038
0.00658505
0.0324146
0.190411
0.203961
0.162843
0.11524
0.0784823
0.0518362
0.0333448
0.0210873
0.0140451
0.00965538
0.00635163
0.00411885
0.00301338
0.00277992
0.00281257
0.00282869
0.00281367
0.00285234
0.0031657
0.00406715
0.0051872
0.00611732
0.00695467
0.00756309
0.00845382
0.0096319
0.0114676
0.011537
0.0129667
0.0141367
0.0200133
0.035953
0.130798
0.00697682
0.038585
0.204255
0.203408
0.153917
0.103805
0.0692027
0.0447248
0.028114
0.0171996
0.0109776
0.0074283
0.00491925
0.00335872
0.00276513
0.00279883
0.00295301
0.00300285
0.00300627
0.0031487
0.0035672
0.00451509
0.00565887
0.00659849
0.00748906
0.00816961
0.00914994
0.0103955
0.0124129
0.0125947
0.0144668
0.0161494
0.0235918
0.0426816
0.142833
0.00744499
0.045694
0.212706
0.194719
0.139622
0.089661
0.0584122
0.0367919
0.0224767
0.0132095
0.00803406
0.00538146
0.0036707
0.00275376
0.00258085
0.00282749
0.00307665
0.00314942
0.00317285
0.00344581
0.00402902
0.00501622
0.00615955
0.00710419
0.00806102
0.00881333
0.00987439
0.0111846
0.013424
0.0137776
0.0162056
0.0185263
0.0278356
0.050443
0.155066
0.00795396
0.0532131
0.214772
0.179247
0.121597
0.0742346
0.0471253
0.0287541
0.0169399
0.00949991
0.00553597
0.00376831
0.00275443
0.00234899
0.00247191
0.00286831
0.00318114
0.00326773
0.00331588
0.00373729
0.00453632
0.00556122
0.00668318
0.00763157
0.00867054
0.00949097
0.0106223
0.0119979
0.0145088
0.0151055
0.0182226
0.0213299
0.0328488
0.0593377
0.167448
0.00846726
0.0600976
0.209835
0.158752
0.101561
0.0587911
0.0362039
0.0212119
0.0119336
0.00639117
0.00370432
0.00270867
0.00220445
0.00213008
0.00243097
0.00291589
0.00326206
0.00335808
0.00344099
0.00402179
0.00506759
0.0061326
0.00722074
0.00817624
0.00931668
0.0101993
0.0113897
0.0128352
0.0156763
0.016601
0.0205634
0.0246325
0.0387492
0.0694727
0.179962
0.00894498
0.0647081
0.197532
0.134979
0.0810117
0.0442751
0.0262688
0.0146001
0.00777576
0.00409056
0.00257178
0.00213747
0.00194574
0.00204861
0.00243636
0.00295878
0.00331434
0.00342265
0.00355827
0.00430524
0.00559982
0.00670712
0.007761
0.00873253
0.00999764
0.0109357
0.0121747
0.013698
0.0169364
0.0182893
0.0232796
0.028517
0.0456692
0.0809638
0.192624
0.0093615
0.0653389
0.17786
0.109544
0.0611354
0.0313123
0.0177147
0.00920174
0.00466771
0.00263489
0.001977
0.00188384
0.00186178
0.00204293
0.00245976
0.00298419
0.00333224
0.00346236
0.00367804
0.00459807
0.00611387
0.0072597
0.00829212
0.00929414
0.0107108
0.011699
0.0129781
0.0145893
0.0182996
0.0201987
0.0264298
0.0330789
0.0537568
0.0939377
0.205486
0.0096768
0.0605118
0.151235
0.0839723
0.0429102
0.0203233
0.0107929
0.00519209
0.00267226
0.00185429
0.00169364
0.00178146
0.00184387
0.00205625
0.0024768
0.00298164
0.00331065
0.00347771
0.00381233
0.00491684
0.00659995
0.00777021
0.00880402
0.0098549
0.0114527
0.0124899
0.0138038
0.0155146
0.0197773
0.0223599
0.0300793
0.0384257
0.0631763
0.108535
0.218633
0.00988074
0.0500517
0.118946
0.0596671
0.0271608
0.0115855
0.00565943
0.00262599
0.00161937
0.00146737
0.00154028
0.00170352
0.00180685
0.00204439
0.00246939
0.00294152
0.00324271
0.00346433
0.0039693
0.00528058
0.00706004
0.00822737
0.00929049
0.0104096
0.0122183
0.0133098
0.014659
0.0164815
0.0213816
0.0248053
0.0342993
0.0446773
0.0741075
0.12491
0.232182
4.88214e-24
3.14984e-19
1.13918e-18
4.29728e-18
2.4894e-17
3.13985e-14
9.00013e-11
0.040774
0.298261
0.338696
0.352806
0.333441
0.307384
0.286415
0.236956
0.207848
0.165575
0.126005
0.0771001
0.0605688
0.0302949
0.0121375
4.99579e-24
7.39196e-20
8.34297e-20
6.22936e-18
6.21678e-17
2.44458e-13
9.18516e-10
0.077695
0.35337
0.36374
0.356741
0.334039
0.306787
0.287487
0.237786
0.208903
0.166984
0.125983
0.0764271
0.0603645
0.0298733
0.0121845
5.10197e-24
2.76602e-19
8.77624e-19
8.89196e-18
1.21972e-16
9.24625e-13
9.28022e-09
0.121884
0.402651
0.384292
0.359344
0.334408
0.306313
0.288676
0.238848
0.210133
0.168628
0.126058
0.0761555
0.0597768
0.0293505
0.0123416
5.06169e-24
5.72565e-20
2.14771e-20
6.8491e-18
1.92153e-16
2.27474e-12
1.69448e-07
0.168527
0.445045
0.400842
0.361336
0.334736
0.306077
0.290056
0.240201
0.211508
0.170455
0.12624
0.0762743
0.0588385
0.0287609
0.0125974
5.16563e-24
2.21309e-19
6.32298e-19
7.23209e-18
2.88243e-16
3.60956e-12
6.56465e-06
0.21033
0.480322
0.413925
0.363232
0.335165
0.30619
0.2916
0.241809
0.213008
0.172409
0.126531
0.0767496
0.0576226
0.02815
0.0129435
5.11379e-24
4.59225e-20
1.20683e-20
4.61623e-18
4.09854e-16
4.87274e-12
1.86964e-05
0.239381
0.508617
0.424156
0.365458
0.335855
0.306741
0.293397
0.243732
0.214612
0.174427
0.126925
0.0775439
0.0561887
0.0275281
0.0133972
5.22918e-24
1.78692e-19
4.73433e-19
4.63812e-18
5.80601e-16
5.06395e-12
3.45901e-05
0.251869
0.530335
0.432053
0.368251
0.336911
0.307805
0.295418
0.245932
0.216323
0.176453
0.127419
0.0785988
0.0546216
0.0269209
0.0139721
5.17e-24
3.80397e-20
7.88116e-21
2.78044e-18
7.72405e-16
4.37783e-12
2.5874e-05
0.248902
0.54582
0.438103
0.371798
0.338452
0.309432
0.297761
0.24848
0.218141
0.178437
0.127997
0.0798627
0.0529789
0.026326
0.0146859
5.2979e-24
1.46661e-19
3.69602e-19
2.86211e-18
9.86266e-16
2.88181e-12
2.74924e-05
0.234499
0.555388
0.442626
0.376134
0.340538
0.31166
0.300394
0.251337
0.220095
0.180349
0.12865
0.0812701
0.0513367
0.025763
0.0155427
5.22335e-24
3.24408e-20
5.88788e-21
1.68708e-18
1.14809e-15
1.68945e-12
3.53757e-05
0.212469
0.559077
0.445863
0.381281
0.343245
0.314503
0.303406
0.254578
0.222211
0.182177
0.129358
0.0827725
0.0497373
0.0252228
0.016546
5.35771e-24
1.21933e-19
2.97424e-19
1.84261e-18
1.2526e-15
8.52798e-13
4.02169e-05
0.18533
0.556774
0.447853
0.387135
0.346592
0.317967
0.306752
0.25816
0.224536
0.183938
0.130112
0.0843129
0.0482404
0.024721
0.0176816
5.27101e-24
2.8427e-20
4.69207e-21
1.08065e-18
1.23896e-15
4.16567e-13
4.11616e-05
0.155406
0.548052
0.448539
0.393599
0.350621
0.322044
0.310503