/*--------------------------------*- C++ -*----------------------------------*\
| =========                 |                                                 |
| \\      /  F ield         | OpenFOAM: The Open Source CFD Toolbox           |
|  \\    /   O peration     | Version:  v1912                                 |
|   \\  /    A nd           | Website:  www.openfoam.com                      |
|    \\/     M anipulation  |                                                 |
\*---------------------------------------------------------------------------*/
FoamFile
{
    version     2.0;
    format      ascii;
    class       volScalarField;
    location    "590";
    object      p;
}
// * * * * * * * * * * * * * * * * * * * * * * * * * * * * * * * * * * * * * //

dimensions      [0 2 -2 0 0 0 0];


internalField   nonuniform List<scalar> 
12441
(
9.15733
9.46402
10.3388
11.6944
13.4489
15.6476
18.3885
21.7559
25.949
31.1249
37.4748
45.2157
54.8405
66.5967
81.9813
101.465
129.766
165.524
223.574
286.539
377.24
438.759
9.15733
9.46401
10.3388
11.6944
13.4489
15.6475
18.3884
21.7558
25.9488
31.1246
37.4744
45.2152
54.8396
66.595
81.9783
101.458
129.75
165.499
223.494
286.464
377.193
438.569
9.15731
9.46399
10.3388
11.6944
13.4488
15.6475
18.3883
21.7556
25.9485
31.1242
37.4737
45.214
54.8377
66.5915
81.9723
101.444
129.724
165.441
223.327
286.284
377.066
438.224
9.15729
9.46397
10.3388
11.6943
13.4487
15.6473
18.3881
21.7553
25.9481
31.1235
37.4726
45.2123
54.8348
66.5862
81.9633
101.422
129.69
165.354
223.15
286.01
376.834
437.687
9.15725
9.46393
10.3387
11.6943
13.4486
15.6472
18.3879
21.7549
25.9475
31.1225
37.4711
45.21
54.8311
66.5792
81.9515
101.394
129.645
165.244
222.986
285.664
376.506
436.955
9.15721
9.46388
10.3387
11.6942
13.4485
15.647
18.3876
21.7544
25.9468
31.1214
37.4693
45.2071
54.8263
66.5704
81.9367
101.36
129.589
165.115
222.8
285.247
376.088
436.028
9.15717
9.46383
10.3386
11.6941
13.4483
15.6467
18.3872
21.7538
25.9459
31.12
37.4671
45.2036
54.8207
66.5599
81.9189
101.319
129.524
164.964
222.583
284.761
375.583
434.905
9.15711
9.46376
10.3385
11.6939
13.4481
15.6465
18.3868
21.7531
25.9448
31.1183
37.4645
45.1995
54.814
66.5476
81.8983
101.272
129.452
164.791
222.347
284.216
374.997
433.585
9.15705
9.46369
10.3384
11.6938
13.4479
15.6461
18.3863
21.7523
25.9437
31.1165
37.4616
45.1949
54.8065
66.5337
81.8752
101.22
129.379
164.607
222.11
283.626
374.333
432.062
9.15698
9.46361
10.3383
11.6936
13.4477
15.6458
18.3858
21.7514
25.9423
31.1144
37.4582
45.1897
54.798
66.5182
81.851
101.169
129.311
164.421
221.901
282.999
373.592
430.331
9.1569
9.46352
10.3382
11.6935
13.4474
15.6454
18.3852
21.7504
25.9408
31.1121
37.4546
45.1839
54.7885
66.5013
81.8271
101.124
129.27
164.259
221.751
282.347
372.77
428.385
9.15681
9.46342
10.3381
11.6933
13.4471
15.6449
18.3845
21.7493
25.9392
31.1095
37.4505
45.1775
54.7782
66.4843
81.8083
101.101
129.295
164.16
221.696
281.673
371.86
426.214
9.15671
9.46331
10.3379
11.6931
13.4468
15.6445
18.3838
21.7481
25.9374
31.1067
37.4461
45.1706
54.7673
66.4698
81.8068
101.13
129.443
164.179
221.743
280.969
370.855
423.807
9.15661
9.46319
10.3378
11.6928
13.4465
15.6439
18.383
21.7468
25.9355
31.1037
37.4413
45.1631
54.7565
66.464
81.8442
101.249
129.77
164.363
221.864
280.218
369.745
421.15
9.1565
9.46306
10.3376
11.6926
13.4461
15.6434
18.3822
21.7454
25.9334
31.1004
37.4362
45.155
54.7477
66.4789
81.9453
101.489
130.306
164.715
221.991
279.394
368.52
418.23
9.15638
9.46293
10.3374
11.6923
13.4457
15.6428
18.3813
21.7439
25.9312
31.0969
37.4307
45.1466
54.745
66.5294
82.1306
101.862
131.024
165.175
222.047
278.471
367.172
415.032
9.15625
9.46278
10.3372
11.692
13.4453
15.6421
18.3803
21.7423
25.9289
31.0932
37.4247
45.1386
54.7558
66.629
82.4055
102.353
131.839
165.63
221.969
277.43
365.693
411.542
9.15611
9.46263
10.337
11.6917
13.4448
15.6415
18.3793
21.7406
25.9264
31.0892
37.4184
45.1322
54.7897
66.7833
82.7588
102.918
132.618
165.954
221.726
276.259
364.077
407.746
9.15597
9.46246
10.3368
11.6914
13.4443
15.6407
18.3782
21.7388
25.9237
31.085
37.4115
45.1306
54.8548
66.9879
83.1626
103.488
133.221
166.062
221.321
274.956
362.321
403.626
9.15582
9.46229
10.3366
11.6911
13.4438
15.64
18.3771
21.7369
25.9209
31.0806
37.4044
45.1385
54.9541
67.2292
83.5778
103.986
133.539
165.94
220.777
273.525
360.421
399.168
9.15566
9.46211
10.3363
11.6907
13.4433
15.6392
18.3758
21.7348
25.9179
31.0758
37.3972
45.1615
55.0837
67.4882
83.9591
104.344
133.537
165.63
220.129
271.971
358.377
394.355
9.15549
9.46192
10.3361
11.6903
13.4427
15.6383
18.3746
21.7327
25.9148
31.0709
37.3906
45.2042
55.2347
67.7439
84.2663
104.52
133.253
165.204
219.403
270.303
356.19
389.17
9.15532
9.46172
10.3358
11.69
13.4422
15.6374
18.3733
21.7305
25.9115
31.0656
37.3857
45.2674
55.3954
67.9757
84.4712
104.513
132.781
164.725
218.62
268.529
353.859
383.596
9.15513
9.46151
10.3355
11.6895
13.4415
15.6365
18.3719
21.7282
25.9081
31.06
37.3848
45.3479
55.5548
68.1672
84.5647
104.351
132.224
164.231
217.79
266.659
351.388
377.613
9.15494
9.46129
10.3352
11.6891
13.4409
15.6356
18.3704
21.7258
25.9045
31.0542
37.3908
45.4404
55.7029
68.3076
84.5556
104.085
131.664
163.733
216.918
264.703
348.779
371.201
9.15474
9.46106
10.3349
11.6887
13.4402
15.6346
18.3689
21.7233
25.9008
31.048
37.4062
45.5385
55.8326
68.3935
84.4665
103.766
131.147
163.23
216.005
262.669
346.034
364.34
9.15454
9.46083
10.3346
11.6882
13.4395
15.6335
18.3674
21.7207
25.8969
31.0417
37.432
45.636
55.939
68.4281
84.3237
103.434
130.684
162.714
215.051
260.568
343.156
357.006
9.15432
9.46058
10.3343
11.6877
13.4388
15.6324
18.3657
21.718
25.8929
31.0355
37.468
45.7282
56.0199
68.4197
84.153
103.116
130.267
162.18
214.056
258.407
340.146
349.175
9.1541
9.46033
10.334
11.6872
13.4381
15.6313
18.364
21.7152
25.8886
31.0296
37.5119
45.8115
56.075
68.3784
83.9727
102.821
129.883
161.622
213.017
256.194
337.003
340.82
9.15387
9.46006
10.3336
11.6867
13.4373
15.6302
18.3623
21.7123
25.8842
31.0241
37.5608
45.8838
56.1063
68.3146
83.7953
102.551
129.517
161.041
211.936
253.933
333.727
331.913
9.15363
9.45979
10.3333
11.6862
13.4365
15.629
18.3605
21.7093
25.8796
31.0195
37.6122
45.9436
56.1166
68.2368
83.6261
102.302
129.16
160.437
210.812
251.626
330.313
322.423
9.15338
9.45951
10.3329
11.6856
13.4357
15.6277
18.3586
21.7062
25.8748
31.0163
37.6642
45.9906
56.1097
68.1519
83.4675
102.069
128.806
159.81
209.644
249.274
326.752
312.317
9.15313
9.45922
10.3325
11.6851
13.4348
15.6264
18.3567
21.7029
25.8699
31.0153
37.7149
46.025
56.0892
68.064
83.3184
101.845
128.449
159.162
208.434
246.876
323.038
301.559
9.15286
9.45892
10.3321
11.6845
13.434
15.6251
18.3547
21.6996
25.8648
31.0172
37.7632
46.0477
56.0586
67.976
83.1777
101.629
128.089
158.496
207.181
244.431
319.158
290.112
9.15259
9.45861
10.3317
11.6839
13.4331
15.6238
18.3527
21.6961
25.8595
31.023
37.808
46.06
56.0207
67.8893
83.0431
101.415
127.723
157.812
205.886
241.94
315.101
277.937
9.15231
9.45829
10.3313
11.6833
13.4321
15.6224
18.3506
21.6926
25.854
31.0336
37.849
46.0632
55.9781
67.8047
82.9135
101.203
127.352
157.112
204.55
239.403
310.855
264.991
9.15203
9.45796
10.3308
11.6826
13.4312
15.6209
18.3484
21.6889
25.8484
31.0509
37.8864
46.0591
55.9323
67.7223
82.7868
100.991
126.975
156.397
203.173
236.823
306.408
251.231
9.15173
9.45763
10.3304
11.682
13.4302
15.6194
18.3462
21.6852
25.8432
31.0774
37.9205
46.0491
55.8849
67.6424
82.6625
100.777
126.593
155.669
201.757
234.205
301.75
236.608
9.15143
9.45728
10.3299
11.6813
13.4292
15.6179
18.3439
21.6813
25.8404
31.1149
37.9518
46.0346
55.8366
67.5648
82.5395
100.563
126.207
154.928
200.304
231.554
296.874
221.075
9.15112
9.45693
10.3295
11.6806
13.4281
15.6164
18.3415
21.6772
25.8456
31.1649
37.9808
46.0169
55.7882
67.4898
82.4178
100.347
125.817
154.176
198.817
228.876
291.773
204.578
9.1508
9.45657
10.329
11.6799
13.4271
15.6148
18.3391
21.6731
25.8677
31.2277
38.0075
45.9971
55.7398
67.4174
82.2966
100.131
125.425
153.412
197.299
226.175
286.446
187.063
9.15047
9.45619
10.3285
11.6792
13.426
15.6131
18.3367
21.6691
25.915
31.3023
38.0314
45.9762
55.6916
67.348
82.1767
99.9138
125.029
152.638
195.756
223.453
280.892
168.482
9.15014
9.45581
10.328
11.6784
13.4249
15.6114
18.3341
21.6665
25.9928
31.3868
38.0524
45.9552
55.6433
67.2818
82.0575
99.6971
124.632
151.851
194.192
220.707
275.084
148.748
9.1498
9.45542
10.3275
11.6777
13.4237
15.6097
18.3315
21.6709
26.1004
31.4774
38.0697
45.9349
55.595
67.2192
81.9401
99.4812
124.235
151.048
192.614
217.926
268.942
127.115
-19.2968
-20.8498
-18.1719
-20.3072
-17.2568
-17.5558
-15.1923
-15.0356
-12.939
-11.5358
-8.59202
-7.41823
-7.78474
-9.77352
-7.53152
-0.935872
5.35946
7.09537
6.47192
7.43047
9.12704
10.8519
10.9699
9.47087
8.09244
6.93256
5.87233
4.68425
3.53127
2.21035
1.26007
0.225922
0.536405
-7.07827
0.474062
-19.2953
-20.8338
-18.1947
-20.3103
-17.2584
-17.5545
-15.1927
-15.0349
-12.9389
-11.5354
-8.59358
-7.41921
-7.78337
-9.76935
-7.52654
-0.930351
5.36548
7.10165
6.47605
7.43344
9.13006
10.8547
10.9726
9.47332
8.09451
6.93429
5.87383
4.68562
3.53247
2.21153
1.26103
0.226136
0.539195
-7.07762
0.464927
-19.2923
-20.8197
-18.2261
-20.3165
-17.26
-17.5539
-15.193
-15.0346
-12.9388
-11.5351
-8.59541
-7.4191
-7.78089
-9.76447
-7.51929
-0.918496
5.38189
7.12099
6.4918
7.44286
9.13637
10.8602
10.9776
9.47761
8.09812
6.93736
5.87655
4.68809
3.53466
2.21357
1.26271
0.226809
0.542949
-7.07668
0.459092
-19.2881
-20.8133
-18.2657
-20.324
-17.2623
-17.5537
-15.1931
-15.0345
-12.9388
-11.5348
-8.5975
-7.41857
-7.7782
-9.75974
-7.51163
-0.903728
5.40446
7.14999
6.51837
7.45922
9.14639
10.8687
10.9851
9.4841
8.10356
6.94196
5.88056
4.69175
3.53793
2.2166
1.2653
0.228062
0.547191
-7.0753
0.464243
-19.2829
-20.8179
-18.311
-20.332
-17.265
-17.5537
-15.193
-15.0344
-12.9391
-11.5346
-8.5994
-7.4175
-7.77582
-9.75672
-7.50672
-0.89157
5.42526
7.17855
6.54715
7.47848
9.15882
10.8794
10.9948
9.49254
8.11065
6.94793
5.88573
4.69642
3.54215
2.22053
1.26874
0.229887
0.551822
-7.07235
0.479256
-19.2766
-20.8377
-18.3596
-20.3404
-17.2678
-17.5532
-15.1925
-15.0345
-12.9396
-11.5348
-8.601
-7.41596
-7.77379
-9.75541
-7.5048
-0.883421
5.44126
7.20174
6.57264
7.49753
9.17234
10.8915
11.006
9.50244
8.11909
6.95504
5.89183
4.7019
3.5471
2.22522
1.2729
0.232231
0.556782
-7.06703
0.502889
-19.2693
-20.876
-18.4091
-20.349
-17.2703
-17.5521
-15.1914
-15.0348
-12.9405
-11.5353
-8.60243
-7.41391
-7.77186
-9.75506
-7.50456
-0.878124
5.45302
7.21925
6.59326
7.51487
9.18595
10.9041
11.0178
9.51312
8.12841
6.963
5.89862
4.70793
3.55258
2.23046
1.27766
0.235026
0.562018
-7.05894
0.534562
-19.2613
-20.9351
-18.4572
-20.3575
-17.2725
-17.5505
-15.1899
-15.0352
-12.9418
-11.5362
-8.60374
-7.41152
-7.76997
-9.75501
-7.50455
-0.87398
5.46205
7.23242
6.6094
7.53008
9.19896
10.9162
11.0293
9.52379
8.13802
6.9714
5.90581
4.71428
3.55834
2.23605
1.28284
0.238191
0.567465
-7.04794
0.573738
-19.2526
-21.0163
-18.5021
-20.3655
-17.2745
-17.5486
-15.1882
-15.036
-12.9434
-11.5375
-8.605
-7.40882
-7.76818
-9.75515
-7.50418
-0.869894
5.46963
7.24267
6.62209
7.54317
9.21083
10.9271
11.0396
9.53356
8.1472
6.97974
5.91309
4.72069
3.56414
2.24174
1.28826
0.241633
0.573058
-7.03407
0.619677
-19.2434
-21.1194
-18.5424
-20.3729
-17.2762
-17.5469
-15.1865
-15.0371
-12.9454
-11.5392
-8.60617
-7.40599
-7.76667
-9.7556
-7.50339
-0.865484
5.47635
7.25087
6.63216
7.5543
9.22114
10.9361
11.0479
9.54158
8.15517
6.98742
5.92006
4.72689
3.56972
2.2473
1.2937
0.245237
0.578732
-7.01758
0.671375
-19.2341
-21.2429
-18.5773
-20.3796
-17.2779
-17.5454
-15.185
-15.0385
-12.9479
-11.5414
-8.60729
-7.40303
-7.76551
-9.75654
-7.50258
-0.860948
5.48231
7.25732
6.64005
7.56343
9.22947
10.9428
11.0536
9.54723
8.16125
6.99383
5.92628
4.73259
3.57486
2.25247
1.29893
0.248872
0.58443
-6.9989
0.72763
-19.2247
-21.384
-18.6065
-20.3858
-17.2795
-17.5446
-15.184
-15.0405
-12.9508
-11.5442
-8.60839
-7.40013
-7.76476
-9.758
-7.502
-0.856663
5.48722
7.26201
6.64585
7.57043
9.23549
10.9467
11.0565
9.55016
8.16501
6.99849
5.93135
4.73749
3.57933
2.25702
1.30371
0.252391
0.590097
-6.97864
0.787017
-19.2157
-21.5384
-18.63
-20.3916
-17.2812
-17.5445
-15.1837
-15.0429
-12.9543
-11.5475
-8.60962
-7.39728
-7.76439
-9.75992
-7.50187
-0.853041
5.49081
7.26489
6.64964
7.57516
9.23902
10.9479
11.0566
9.55044
8.16635
7.00116
5.93496
4.74136
3.58292
2.26077
1.30784
0.255637
0.595684
-6.95757
0.847961
-19.2072
-21.7005
-18.6483
-20.3973
-17.2832
-17.5454
-15.1843
-15.0461
-12.9584
-11.5517
-8.6111
-7.39471
-7.76445
-9.76214
-7.50211
-0.850304
5.49287
7.26604
6.65153
7.5777
9.24016
10.9467
11.0542
9.54844
8.16552
7.00189
5.93699
4.74402
3.58552
2.26359
1.31116
0.258451
0.601142
-6.93648
0.908743
-19.1994
-21.8639
-18.6621
-20.4029
-17.2856
-17.5474
-15.186
-15.0501
-12.9633
-11.5566
-8.61303
-7.39246
-7.76491
-9.7645
-7.50264
-0.848546
5.49346
7.26571
6.65184
7.57837
9.23927
10.9433
11.0499
9.54468
8.16302
7.00101
5.93756
4.74545
3.58706
2.26543
1.31359
0.260687
0.606425
-6.91616
0.967614
-19.1926
-22.0218
-18.6725
-20.4088
-17.2888
-17.5506
-15.1891
-15.055
-12.9692
-11.5626
-8.61558
-7.39081
-7.76581
-9.7668
-7.50325
-0.847661
5.49274
7.26422
6.65095
7.57765
9.23682
10.9382
11.0441
9.53967
8.15937
6.99897
5.93696
4.74578
3.58761
2.26636
1.31514
0.262243
0.61149
-6.89721
1.02282
-19.1869
-22.1678
-18.6803
-20.4151
-17.2929
-17.5553
-15.1936
-15.0612
-12.9763
-11.5697
-8.61902
-7.38987
-7.76718
-9.76897
-7.50386
-0.847515
5.49102
7.26192
6.64928
7.57606
9.2333
10.9318
11.0369
9.53372
8.15499
6.99622
5.93556
4.74527
3.58732
2.2665
1.31588
0.263081
0.616303
-6.87992
1.07274
-19.1822
-22.2972
-18.6864
-20.422
-17.2983
-17.5619
-15.2
-15.069
-12.9849
-11.5782
-8.62356
-7.3899
-7.76911
-9.77091
-7.50433
-0.847906
5.48854
7.25907
6.64717
7.57408
9.22916
10.9243
11.0286
9.52699
8.15013
6.99306
5.93366
4.74419
3.58642
2.26604
1.31598
0.26325
0.620858
-6.86424
1.1159
-19.1785
-22.408
-18.6914
-20.43
-17.3052
-17.5707
-15.2087
-15.0788
-12.9954
-11.5885
-8.62952
-7.39097
-7.7717
-9.7727
-7.50472
-0.848718
5.48551
7.25579
6.64486
7.57204
9.22463
10.9158
11.0191
9.51947
8.14486
6.98966
5.9315
4.74277
3.58509
2.26513
1.31556
0.26286
0.625194
-6.84983
1.15124
-19.1755
-22.5015
-18.6959
-20.4396
-17.3139
-17.5821
-15.2202
-15.0913
-13.0084
-11.6008
-8.63728
-7.39334
-7.77514
-9.77441
-7.50496
-0.849826
5.4819
7.25198
6.64238
7.57009
9.21983
10.9063
11.0085
9.51114
8.13918
6.98607
5.92918
4.74117
3.58349
2.26393
1.31479
0.262041
0.629401
-6.83619
1.17834
-19.1729
-22.5807
-18.7012
-20.4515
-17.3245
-17.5966
-15.2352
-15.1073
-13.0247
-11.616
-8.64735
-7.39709
-7.77967
-9.7763
-7.50512
-0.851194
5.47763
7.24743
6.63968
7.5682
9.2147
10.8958
10.9966
9.50197
8.13305
6.98227
5.92677
4.7395
3.58174
2.26255
1.31375
0.260908
0.633589
-6.82284
1.19767
-19.1703
-22.6491
-18.7095
-20.4668
-17.3374
-17.6149
-15.2544
-15.1278
-13.0451
-11.6346
-8.66038
-7.40263
-7.78571
-9.77867
-7.50517
-0.852758
5.4724
7.24178
6.63654
7.56629
9.20919
10.8841
10.9835
9.49196
8.12646
6.97823
5.92426
4.73779
3.57989
2.26104
1.31253
0.259549
0.637852
-6.80944
1.21043
-19.1673
-22.7099
-18.7232
-20.4872
-17.353
-17.6375
-15.2789
-15.1539
-13.0707
-11.6575
-8.67705
-7.41021
-7.7938
-9.78213
-7.50526
-0.854544
5.46602
7.23471
6.63279
7.56417
9.20315
10.8713
10.9691
9.48114
8.11941
6.97392
5.92165
4.73607
3.57798
2.25945
1.31118
0.258027
0.642252
-6.7958
1.2182
-19.1637
-22.766
-18.7444
-20.5147
-17.3717
-17.6653
-15.3095
-15.187
-13.1028
-11.6856
-8.69791
-7.42034
-7.8047
-9.78751
-7.50563
-0.856592
5.45818
7.22593
6.6282
7.56174
9.19655
10.8573
10.9535
9.46957
8.11193
6.96936
5.91893
4.73431
3.57602
2.2578
1.30973
0.256391
0.64681
-6.78188
1.22246
-19.1591
-22.8197
-18.7738
-20.5517
-17.3945
-17.6993
-15.3475
-15.2284
-13.1426
-11.7197
-8.72311
-7.4329
-7.81905
-9.79619
-7.50704
-0.859157
5.44871
7.21524
6.62263
7.55888
9.18932
10.8421
10.9367
9.45731
8.10406
6.96455
5.9161
4.73252
3.57401
2.25608
1.3082
0.25468
0.651523
-6.7677
1.22445
-19.1533
-22.8728
-18.8109
-20.6006
-17.4224
-17.7404
-15.3942
-15.2793
-13.191
-11.7601
-8.75221
-7.44766
-7.83714
-9.80951
-7.51043
-0.862638
5.43732
7.20248
6.61593
7.55554
9.18147
10.8258
10.9189
9.44442
8.09584
6.95953
5.91317
4.73067
3.57193
2.25431
1.3066
0.252926
0.656365
-6.75333
1.22502
-19.1461
-22.9272
-18.8532
-20.6637
-17.4565
-17.7894
-15.4502
-15.3404
-13.2487
-11.8066
-8.78393
-7.46316
-7.85846
-9.82862
-7.51715
-0.867718
5.42379
7.18757
6.60804
7.55165
9.17301
10.8083
10.8999
9.43098
8.08733
6.95432
5.91013
4.72874
3.56979
2.25248
1.30496
0.251156
0.661302
-6.73885
1.22482
-19.1372
-22.9844
-18.8974
-20.7423
-17.4977
-17.8463
-15.5157
-15.4111
-13.315
-11.8581
-8.8163
-7.47787
-7.88172
-9.8533
-7.52788
-0.875044
5.40774
7.17034
6.5988
7.54717
9.16399
10.7898
10.8801
9.41706
8.07857
6.94896
5.90698
4.7267
3.56755
2.2506
1.30327
0.249388
0.66628
-6.72433
1.22427
-19.1264
-23.0465
-18.9409
-20.8366
-17.5461
-17.9099
-15.5891
-15.4896
-13.3881
-11.9124
-8.84661
-7.48916
-7.90499
-9.88214
-7.54249
-0.885094
5.38892
7.15074
6.58818
7.54197
9.15439
10.7704
10.8594
9.40273
8.06961
6.94348
5.90372
4.72454
3.56522
2.24868
1.30156
0.247639
0.671244
-6.70986
1.22372
-19.1133
-23.1161
-18.9826
-20.9454
-17.6012
-17.9772
-15.6668
-15.5718
-13.4646
-11.9661
-8.87183
-7.49503
-7.92628
-9.91224
-7.5592
-0.897689
5.3671
7.12866
6.57605
7.53594
9.1442
10.75
10.8379
9.38806
8.06051
6.93792
5.90034
4.72224
3.56277
2.24672
1.29983
0.245917
0.676126
-6.69552
1.22339
-19.0978
-23.197
-19.0235
-21.065
-17.6613
-18.044
-15.7437
-15.6522
-13.5395
-12.015
-8.88879
-7.49306
-7.94373
-9.94056
-7.57567
-0.912136
5.34243
7.10418
6.56243
7.52889
9.13329
10.7287
10.8157
9.37312
8.05131
6.93229
5.89682
4.71978
3.56023
2.24474
1.2981
0.244228
0.680855
-6.6814
1.22346
-19.0793
-23.295
-19.0654
-21.1885
-17.7232
-18.1042
-15.8129
-15.7237
-13.6069
-12.055
-8.89484
-7.48225
-7.956
-9.96374
-7.58919
-0.927245
5.3152
7.07741
6.54736
7.52069
9.12153
10.7066
10.793
9.35798
8.04208
6.92661
5.89316
4.71713
3.55756
2.24276
1.29639
0.242571
0.68535
-6.66759
1.22401
-19.0575
-23.418
-19.11
-21.305
-17.7823
-18.1515
-15.8675
-15.7794
-13.6611
-12.0817
-8.888
-7.46182
-7.96221
-9.97946
-7.59822
-0.942022
5.28602
7.04873
6.53105
7.51121
9.10867
10.6835
10.7696
9.34269
8.03285
6.9209
5.88933
4.7143
3.5548
2.24079
1.2947
0.240947
0.689532
-6.6542
1.22513
-19.0317
-23.576
-19.1562
-21.4007
-17.8332
-18.1799
-15.9012
-15.8136
-13.6973
-12.0925
-8.86775
-7.43289
-7.96207
-9.98608
-7.60191
-0.955658
5.25536
7.01844
6.51374
7.50047
9.09455
10.6595
10.7458
9.32734
8.02368
6.91517
5.88531
4.71126
3.55192
2.23885
1.29306
0.23935
0.693301
-6.64133
1.22683
-19.001
-23.7818
-19.2006
-21.4624
-17.8707
-18.1854
-15.9105
-15.8229
-13.7127
-12.0861
-8.83505
-7.39715
-7.95576
-9.98393
-7.60069
-0.967918
5.22373
6.98699
6.49581
7.48854
9.07897
10.6344
10.7216
9.31198
8.01461
6.90944
5.8811
4.70801
3.54895
2.23697
1.29148
0.23778
0.696561
-6.62914
1.22918
-18.9635
-24.0505
-19.2372
-21.4816
-17.8915
-18.1674
-15.8949
-15.8073
-13.7072
-12.0637
-8.79277
-7.35784
-7.94441
-9.97464
-7.59505
-0.978653
5.19127
6.95453
6.47744
7.47568
9.06195
10.6083
10.697
9.2967
8.00571
6.90369
5.87667
4.70452
3.54589
2.23516
1.28998
0.236228
0.699186
-6.61776
1.23214
-18.9159
-24.3984
-19.2589
-21.457
-17.8951
-18.1283
-15.8575
-15.7703
-13.6834
-12.028
-8.74522
-7.31847
-7.93054
-9.96113
-7.58587
-0.988067
5.15808
6.92117
6.45885
7.46207
9.04352
10.5812
10.6722
9.28155
7.99701
6.89795
5.87202
4.70082
3.54276
2.23345
1.28857
0.234697
0.701048
-6.60736
1.23575
-18.8562
-24.836
-19.2581
-21.3942
-17.8833
-18.0734
-15.8039
-15.7173
-13.6454
-11.9835
-8.69789
-7.28351
-7.91796
-9.94565
-7.57337
-0.99629
5.12389
6.8867
6.43999
7.44804
9.02399
10.5532
10.6471
9.26662
7.98854
6.89218
5.86711
4.69687
3.53956
2.23186
1.28728
0.233179
0.701981
-6.59813
1.23996
-18.7844
-25.3568
-19.2271
-21.3025
-17.8599
-18.0089
-15.7407
-15.6549
-13.5984
-11.9355
-8.6565
-7.25728
-7.91026
-9.92949
-7.55803
-1.00388
5.0884
6.85098
6.42092
7.43376
9.00363
10.5244
10.6219
9.25194
7.98031
6.88639
5.86195
4.69273
3.53633
2.23041
1.28612
0.231681
0.701804
-6.59031
1.24485
-18.7021
-25.9229
-19.1578
-21.1916
-17.8287
-17.9405
-15.6739
-15.5889
-13.5471
-11.8896
-8.6263
-7.24317
-7.90894
-9.91242
-7.54005
-1.01151
5.0509
6.81379
6.40176
7.41959
8.98288
10.4951
10.5967
9.23751
7.97235
6.88058
5.85656
4.68837
3.53306
2.22911
1.28512
0.230201
0.700251
-6.5841
1.25048
-18.6031
-26.4533
-19.0419
-21.0696
-17.7931
-17.8727
-15.6083
-15.5238
-13.4958
-11.8511
-8.61026
-7.24126
-7.91307
-9.89411
-7.52048
-1.02052
5.01099
6.77559
6.38312
7.40571
8.96171
10.4651
10.5713
9.22332
7.96469
6.87482
5.85099
4.68385
3.52977
2.22795
1.28429
0.22875
0.697085
-6.57973
1.25697
-18.4597
-26.8216
-18.8727
-20.9423
-17.7545
-17.8076
-15.5469
-15.4624
-13.4495
-11.8242
-8.60737
-7.2487
-7.92039
-9.87426
-7.50081
-1.03218
4.96883
6.73761
6.36572
7.39204
8.93964
10.4342
10.5455
9.20944
7.95754
6.86925
5.84527
4.6791
3.52637
2.22695
1.28368
0.22733
0.692327
-6.57719
1.26365
-18.2804
-26.8738
-18.6441
-20.8139
-17.7136
-17.7463
-15.4903
-15.4075
-13.4142
-11.8086
-8.61307
-7.26082
-7.92841
-9.8542
-7.48411
-1.04724
4.9268
6.70246
6.35004
7.37711
8.91493
10.4017
10.5198
9.1963
7.9513
6.86404
5.83933
4.67397
3.52282
2.22616
1.28335
0.225995
0.686297
-6.57669
1.26949
-18.3592
-26.4821
-18.3507
-20.6901
-17.6736
-17.6915
-15.4388
-15.3631
-13.3926
-11.8002
-8.6231
-7.27452
-7.93646
-9.83609
-7.47178
-1.06368
4.88827
6.67162
6.33426
7.35764
8.88551
10.3681
10.4955
9.18541
7.94674
6.85895
5.83247
4.66798
3.51912
2.22591
1.28361
0.22482
0.676233
-6.58062
1.27839
9.14953
9.45511
10.3271
11.6771
13.4228
15.6083
18.3293
21.694
26.2019
31.5472
38.0787
45.9194
55.557
67.1739
81.8514
99.3154
123.927
150.409
191.387
215.723
263.867
105.367
9.14933
9.45488
10.3268
11.6766
13.4221
15.6073
18.3277
21.7291
26.276
31.5904
38.0802
45.9075
55.5293
67.1432
81.7901
99.1964
123.705
149.939
190.5
214.123
259.99
102.402
9.14911
9.45464
10.3264
11.6762
13.4214
15.6063
18.3261
21.7727
26.34
31.6234
38.077
45.8937
55.5009
67.1114
81.7275
99.0738
123.474
149.449
189.592
212.461
255.954
104.056
9.14889
9.45439
10.3261
11.6757
13.4207
15.6051
18.3243
21.8166
26.3928
31.6477
38.0715
45.8789
55.4726
67.0785
81.6639
98.9459
123.234
148.94
188.661
210.731
251.803
103.922
9.14866
9.45412
10.3257
11.6752
13.4199
15.6039
18.3225
21.8551
26.4354
31.6649
38.0652
45.8635
55.4447
67.0443
81.5984
98.8125
122.981
148.408
187.702
208.932
247.528
102.103
9.14841
9.45384
10.3254
11.6746
13.4191
15.6027
18.3205
21.8816
26.4684
31.6763
38.0592
45.8482
55.4177
67.0094
81.5317
98.6726
122.714
147.853
186.709
207.066
243.123
100.032
9.14815
9.45354
10.325
11.674
13.4182
15.6013
18.3185
21.8921
26.4922
31.6828
38.0541
45.8333
55.3918
66.9735
81.4629
98.5261
122.431
147.275
185.675
205.134
238.593
98.1032
9.14787
9.45322
10.3246
11.6734
13.4173
15.5999
18.3163
21.8872
26.5074
31.6854
38.0505
45.8192
55.3674
66.937
81.3926
98.3722
122.129
146.671
184.594
203.137
233.944
96.1538
9.14758
9.45289
10.3241
11.6728
13.4163
15.5984
18.3139
21.8705
26.5141
31.6847
38.0483
45.8061
55.3443
66.8997
81.32
98.2111
121.807
146.041
183.459
201.076
229.181
94.0854
9.14728
9.45254
10.3237
11.6721
13.4153
15.5968
18.3115
21.846
26.5127
31.681
38.0476
45.7941
55.3227
66.862
81.2456
98.0422
121.464
145.383
182.263
198.949
224.307
91.9224
9.14695
9.45217
10.3232
11.6714
13.4142
15.5952
18.309
21.816
26.5028
31.6745
38.048
45.7834
55.3023
66.8233
81.1685
97.8659
121.1
144.695
181.002
196.757
219.326
89.6997
9.14661
9.45178
10.3226
11.6706
13.4131
15.5934
18.3062
21.7825
26.4839
31.665
38.0493
45.7739
55.2831
66.7841
81.0892
97.6818
120.713
143.975
179.669
194.498
214.245
87.4281
9.14625
9.45136
10.3221
11.6698
13.4119
15.5915
18.3034
21.7474
26.4552
31.6519
38.0508
45.7655
55.2648
66.7436
81.0066
97.4902
120.304
143.222
178.261
192.171
209.068
85.1117
9.14586
9.45093
10.3215
11.6689
13.4106
15.5895
18.3003
21.713
26.4158
31.6346
38.0517
45.7583
55.2474
66.7021
80.9212
97.2904
119.873
142.435
176.772
189.775
203.801
82.7591
9.14546
9.45046
10.3209
11.668
13.4092
15.5874
18.297
21.681
26.365
31.6118
38.0511
45.7519
55.2305
66.6589
80.8318
97.0826
119.42
141.612
175.201
187.307
198.448
80.3824
9.14503
9.44997
10.3202
11.6671
13.4078
15.5851
18.2936
21.653
26.3024
31.5822
38.0477
45.7462
55.2141
66.6138
80.7385
96.8659
118.945
140.751
173.545
184.767
193.013
77.9947
9.14458
9.44945
10.3196
11.6661
13.4063
15.5827
18.2899
21.6298
26.2286
31.5441
38.0397
45.7407
55.1978
66.5662
80.6403
96.64
118.447
139.852
171.802
182.154
187.502
75.61
9.1441
9.44891
10.3188
11.665
13.4047
15.5802
18.286
21.6115
26.1455
31.4957
38.0251
45.7347
55.1818
66.5161
80.5369
96.404
117.926
138.913
169.972
179.464
181.919
73.2423
9.14359
9.44832
10.318
11.6639
13.403
15.5775
18.2819
21.5975
26.0564
31.4351
38.0011
45.7271
55.1656
66.4625
80.4272
96.1573
117.381
137.933
168.053
176.698
176.266
70.9042
9.14305
9.44771
10.3172
11.6627
13.4012
15.5747
18.2775
21.5866
25.9657
31.3611
37.9645
45.7162
55.149
66.4056
80.311
95.8987
116.811
136.91
166.045
173.854
170.55
68.6063
9.14248
9.44705
10.3164
11.6614
13.3992
15.5717
18.2728
21.5777
25.8786
31.2736
37.9114
45.6996
55.1315
66.3445
80.1868
95.6276
116.214
135.843
163.948
170.929
164.773
66.3558
9.14187
9.44636
10.3154
11.6601
13.3972
15.5685
18.2678
21.5696
25.7995
31.1741
37.8378
45.6735
55.1121
66.2793
80.0545
95.3425
115.588
134.73
161.762
167.923
158.942
64.1557
9.14123
9.44562
10.3145
11.6586
13.3951
15.5651
18.2624
21.5617
25.732
31.0662
37.7402
45.6326
55.0888
66.2093
79.9125
95.0427
114.933
133.57
159.486
164.834
153.062
62.0044
9.14054
9.44484
10.3134
11.6571
13.3928
15.5615
18.2568
21.5536
25.6777
30.9553
37.6167
45.57
55.0588
66.134
79.7606
94.7268
114.246
132.361
157.12
161.66
147.141
59.8949
9.13982
9.44401
10.3123
11.6555
13.3903
15.5577
18.2507
21.545
25.6358
30.8476
37.4688
45.4771
55.0164
66.0523
79.5974
94.3939
113.526
131.101
154.664
158.401
141.186
57.8156
9.13904
9.44313
10.3111
11.6538
13.3878
15.5536
18.2443
21.5357
25.6038
30.7488
37.302
45.3449
54.9532
65.9623
79.4225
94.0426
112.771
129.788
152.117
155.053
135.207
55.7503
9.13822
9.4422
10.3099
11.652
13.385
15.5493
18.2375
21.5259
25.5786
30.6626
37.1258
45.1674
54.8562
65.8598
79.234
93.6722
111.981
128.42
149.48
151.616
129.214
53.6793
9.13735
9.4412
10.3086
11.6501
13.3821
15.5448
18.2303
21.5152
25.5571
30.5902
36.9514
44.9447
54.709
65.7375
79.0303
93.2811
111.153
126.996
146.753
148.087
123.22
51.5802
9.13642
9.44014
10.3072
11.648
13.379
15.5399
18.2227
21.5039
25.5372
30.5306
36.7892
44.6859
54.4938
65.5823
78.8065
92.8681
110.288
125.513
143.936
144.465
117.238
49.4297
9.13544
9.43902
10.3057
11.6458
13.3757
15.5348
18.2145
21.4917
25.5174
30.4809
36.6463
44.4085
54.199
65.375
78.5553
92.4305
109.384
123.971
141.03
140.749
111.28
47.2043
9.13439
9.43782
10.3041
11.6435
13.3722
15.5293
18.2059
21.4787
25.497
30.4377
36.5251
44.1338
53.8266
65.0908
78.2621
91.9642
108.441
122.367
138.036
136.938
105.362
44.8822
9.13327
9.43655
10.3024
11.641
13.3685
15.5235
18.1967
21.4649
25.4754
30.3976
36.4236
43.8805
53.3972
64.7067
77.905
91.461
107.456
120.701
134.956
133.031
99.4987
42.4442
9.13208
9.43519
10.3005
11.6384
13.3645
15.5173
18.1869
21.4502
25.4524
30.3583
36.3372
43.6592
52.9457
64.2129
77.4535
90.9077
106.427
118.97
131.79
129.029
93.704
39.875
9.13081
9.43374
10.2986
11.6356
13.3603
15.5107
18.1766
21.4345
25.4279
30.318
36.2601
43.4718
52.5104
63.6239
76.8771
90.2825
105.348
117.174
128.542
124.933
87.993
37.1636
9.12945
9.4322
10.2966
11.6326
13.3558
15.5037
18.1655
21.4179
25.4018
30.2758
36.1868
43.3124
52.1189
62.9794
76.1581
89.5575
104.207
115.311
125.214
120.746
82.3802
34.3048
9.12801
9.43056
10.2944
11.6294
13.351
15.4963
18.1538
21.4001
25.374
30.2312
36.1132
43.1717
51.7823
62.3322
75.3074
88.7029
102.987
113.379
121.81
116.473
76.8798
31.2989
9.12647
9.42881
10.292
11.626
13.3459
15.4883
18.1414
21.3812
25.3444
30.1838
36.037
43.0399
51.4953
61.7282
74.3693
87.6998
101.668
111.376
118.336
112.118
71.5056
28.1524
9.12483
9.42694
10.2895
11.6223
13.3405
15.4799
18.1281
21.3611
25.3129
30.1335
35.9567
42.9091
51.2431
61.1913
73.4102
86.5541
100.228
109.299
114.799
107.692
66.271
24.8775
9.12307
9.42495
10.2869
11.6185
13.3347
15.4709
18.114
21.3396
25.2794
30.08
35.8716
42.774
51.0083
60.7201
72.4925
85.3031
98.653
107.146
111.213
103.206
61.1898
21.4923
9.1212
9.42282
10.284
11.6143
13.3284
15.4613
18.0989
21.3168
25.2437
30.0231
35.7815
42.632
50.7761
60.2958
71.6517
84.0072
96.9492
104.918
107.598
98.6743
56.2764
18.0196
9.1192
9.42055
10.281
11.6099
13.3218
15.451
18.0829
21.2924
25.2057
29.9627
35.6857
42.4817
50.5368
59.8931
70.8888
82.7264
95.1447
102.621
103.98
94.1201
51.5467
14.487
9.11706
9.41813
10.2778
11.6052
13.3148
15.4401
18.0659
21.2665
25.1651
29.8984
35.5841
42.3226
50.2852
59.4903
70.1788
81.4975
93.2836
100.268
100.393
89.5722
47.0185
10.9262
9.11478
9.41554
10.2743
11.6002
13.3072
15.4285
18.0477
21.2388
25.122
29.83
35.4761
42.1539
50.0191
59.0725
69.4873
80.3247
91.4092
97.8715
96.874
85.0678
42.7122
7.37284
9.11233
9.41277
10.2706
11.5948
13.2991
15.416
18.0284
21.2093
25.076
29.7573
35.3615
41.9749
49.7378
58.6325
68.7841
79.1859
89.5479
95.4431
93.4529
80.6508
38.6501
3.86572
9.10972
9.40981
10.2666
11.5891
13.2905
15.4028
18.0078
21.1778
25.027
29.6799
35.2397
41.785
49.4402
58.1679
68.0497
78.0472
87.7048
92.981
90.1413
76.3671
34.855
0.446612
9.10693
9.40664
10.2624
11.5829
13.2813
15.3886
17.9858
21.1442
24.9747
29.5975
35.1102
41.5836
49.1253
57.6778
67.2754
76.8767
85.8655
90.4734
86.9192
72.2549
31.3473
-2.84118
9.10394
9.40326
10.2579
11.5764
13.2715
15.3735
17.9623
21.1084
24.919
29.5099
34.9728
41.37
48.7921
57.1611
66.46
75.6535
84.0031
87.9102
83.733
68.3314
28.1403
-5.95472
9.10074
9.39963
10.253
11.5693
13.261
15.3574
17.9373
21.0702
24.8597
29.4166
34.8268
41.1434
48.4395
56.6162
65.6042
74.37
82.0883
85.2886
80.515
64.5782
25.2331
-8.85451
9.09731
9.39576
10.2479
11.5618
13.2497
15.3401
17.9106
21.0294
24.7964
29.3174
34.6717
40.9031
48.0665
56.0417
64.7078