/*--------------------------------*- C++ -*----------------------------------*\
| =========                 |                                                 |
| \\      /  F ield         | OpenFOAM: The Open Source CFD Toolbox           |
|  \\    /   O peration     | Version:  v1912                                 |
|   \\  /    A nd           | Website:  www.openfoam.com                      |
|    \\/     M anipulation  |                                                 |
\*---------------------------------------------------------------------------*/
FoamFile
{
    version     2.0;
    format      ascii;
    class       surfaceScalarField;
    location    "590";
    object      phi;
}
// * * * * * * * * * * * * * * * * * * * * * * * * * * * * * * * * * * * * * //

dimensions      [0 3 -1 0 0 0 0];
oriented        oriented;


internalField   nonuniform List<scalar> 
24588
(
6.81681e-05
2.011e-08
6.81133e-05
5.5164e-08
6.80271e-05
8.57747e-08
6.79099e-05
1.17115e-07
6.77577e-05
1.51862e-07
6.75658e-05
1.91734e-07
6.73294e-05
2.36495e-07
6.70319e-05
2.98006e-07
6.66641e-05
3.67589e-07
6.62112e-05
4.53472e-07
6.56482e-05
5.62149e-07
6.49331e-05
7.03137e-07
6.41254e-05
8.58947e-07
6.29367e-05
1.13798e-06
6.1482e-05
1.43907e-06
5.91819e-05
2.32592e-06
5.62338e-05
2.94749e-06
5.13669e-05
4.86695e-06
4.46058e-05
6.76098e-06
3.33771e-05
1.12288e-05
1.97886e-05
1.35886e-05
1.97885e-05
6.81684e-05
4.06958e-08
6.81131e-05
1.10865e-07
6.8027e-05
1.71413e-07
6.79099e-05
2.34012e-07
6.77579e-05
3.03528e-07
6.75659e-05
3.8346e-07
6.73296e-05
4.72911e-07
6.7032e-05
5.96242e-07
6.66643e-05
7.34952e-07
6.62117e-05
9.06857e-07
6.5648e-05
1.12483e-06
6.49306e-05
1.40701e-06
6.41339e-05
1.71297e-06
6.2928e-05
2.29449e-06
6.14734e-05
2.87704e-06
5.92491e-05
4.57496e-06
5.6251e-05
5.94458e-06
5.13344e-05
9.78359e-06
4.46499e-05
1.34452e-05
3.32799e-05
2.25988e-05
1.97539e-05
2.71147e-05
3.95423e-05
6.81684e-05
6.12812e-08
6.81131e-05
1.6656e-07
6.8027e-05
2.57077e-07
6.79099e-05
3.50945e-07
6.77578e-05
4.55219e-07
6.75659e-05
5.75169e-07
6.73296e-05
7.09329e-07
6.70319e-05
8.94472e-07
6.66643e-05
1.10234e-06
6.62117e-05
1.36013e-06
6.56479e-05
1.68769e-06
6.49305e-05
2.11036e-06
6.41366e-05
2.5662e-06
6.29323e-05
3.43905e-06
6.14714e-05
4.3207e-06
5.92823e-05
6.79325e-06
5.62477e-05
8.97791e-06
5.1355e-05
1.46764e-05
4.46267e-05
2.01732e-05
3.33017e-05
3.3924e-05
1.9774e-05
4.06425e-05
5.93163e-05
6.81684e-05
8.18699e-08
6.81131e-05
2.22237e-07
6.8027e-05
3.42709e-07
6.79099e-05
4.67847e-07
6.77579e-05
6.06879e-07
6.75659e-05
7.66904e-07
6.73296e-05
9.45773e-07
6.70319e-05
1.1927e-06
6.66642e-05
1.46975e-06
6.62116e-05
1.81352e-06
6.56479e-05
2.25036e-06
6.49304e-05
2.81436e-06
6.41306e-05
3.42278e-06
6.29273e-05
4.59497e-06
6.14671e-05
5.7651e-06
5.93009e-05
8.98264e-06
5.62712e-05
1.20065e-05
5.13695e-05
1.95781e-05
4.46172e-05
2.6925e-05
3.33314e-05
4.52098e-05
1.98079e-05
5.41661e-05
7.91241e-05
6.81684e-05
1.02453e-07
6.81131e-05
2.77899e-07
6.8027e-05
4.28367e-07
6.79099e-05
5.84794e-07
6.77578e-05
7.5857e-07
6.75659e-05
9.58613e-07
6.73296e-05
1.18221e-06
6.70319e-05
1.49091e-06
6.66642e-05
1.83715e-06
6.62116e-05
2.26685e-06
6.56476e-05
2.81335e-06
6.49302e-05
3.51796e-06
6.41339e-05
4.27819e-06
6.29321e-05
5.73654e-06
6.14661e-05
7.21409e-06
5.93095e-05
1.11686e-05
5.62958e-05
1.50189e-05
5.13718e-05
2.45023e-05
4.4636e-05
3.36605e-05
3.33781e-05
5.64679e-05
1.98565e-05
6.76878e-05
9.89806e-05
6.81684e-05
1.23042e-07
6.81131e-05
3.33547e-07
6.80271e-05
5.13982e-07
6.79099e-05
7.01694e-07
6.77579e-05
9.10211e-07
6.75659e-05
1.15035e-06
6.73296e-05
1.41867e-06
6.7032e-05
1.78911e-06
6.66643e-05
2.20457e-06
6.62116e-05
2.72028e-06
6.56479e-05
3.37591e-06
6.49309e-05
4.22171e-06
6.4128e-05
5.13642e-06
6.29271e-05
6.89304e-06
6.14634e-05
8.66305e-06
5.93085e-05
1.33457e-05
5.63105e-05
1.80156e-05
5.13837e-05
2.94291e-05
4.46681e-05
4.03758e-05
3.34447e-05
6.76913e-05
1.99221e-05
8.12105e-05
0.000118903
6.81684e-05
1.43624e-07
6.81131e-05
3.89177e-07
6.80271e-05
5.99629e-07
6.79099e-05
8.18651e-07
6.77579e-05
1.06189e-06
6.75659e-05
1.34204e-06
6.73296e-05
1.65512e-06
6.7032e-05
2.0873e-06
6.66643e-05
2.57196e-06
6.62116e-05
3.17367e-06
6.56475e-05
3.93903e-06
6.49303e-05
4.92541e-06
6.41323e-05
5.99296e-06
6.29326e-05
8.03103e-06
6.14624e-05
1.01176e-05
5.93027e-05
1.55336e-05
5.6325e-05
2.09923e-05
5.14067e-05
3.43477e-05
4.4718e-05
4.70642e-05
3.35394e-05
7.887e-05
2.00077e-05
9.47423e-05
0.00013891
6.81684e-05
1.64215e-07
6.81131e-05
4.44799e-07
6.80271e-05
6.85226e-07
6.791e-05
9.35543e-07
6.77579e-05
1.2135e-06
6.7566e-05
1.53377e-06
6.73297e-05
1.89158e-06
6.7032e-05
2.38547e-06
6.66643e-05
2.93936e-06
6.62116e-05
3.62712e-06
6.56482e-05
4.5013e-06
6.49321e-05
5.62843e-06
6.41257e-05
6.85221e-06
6.29259e-05
9.1897e-06
6.14522e-05
1.15789e-05
5.92871e-05
1.77192e-05
5.63424e-05
2.3936e-05
5.14591e-05
3.92309e-05
4.48052e-05
5.37179e-05
3.3675e-05
9.00002e-05
2.01177e-05
0.0001083
0.000159028
6.81684e-05
1.84796e-07
6.81132e-05
5.004e-07
6.80271e-05
7.70861e-07
6.79099e-05
1.0525e-06
6.77579e-05
1.36516e-06
6.7566e-05
1.72545e-06
6.73297e-05
2.12802e-06
6.7032e-05
2.68361e-06
6.66644e-05
3.30671e-06
6.62116e-05
4.08056e-06
6.56474e-05
5.06456e-06
6.49303e-05
6.33271e-06
6.41284e-05
7.71214e-06
6.29308e-05
1.03257e-05
6.14338e-05
1.30631e-05
5.92867e-05
1.98857e-05
5.63533e-05
2.68691e-05
5.1576e-05
4.40084e-05
4.49555e-05
6.03382e-05
3.38651e-05
0.000101091
2.02568e-05
0.000121908
0.000179285
6.81684e-05
2.05388e-07
6.81131e-05
5.55996e-07
6.80271e-05
8.56445e-07
6.791e-05
1.16939e-06
6.77579e-05
1.51675e-06
6.7566e-05
1.91717e-06
6.73297e-05
2.36449e-06
6.70321e-05
2.98175e-06
6.66644e-05
3.67408e-06
6.62117e-05
4.53402e-06
6.56489e-05
5.62621e-06
6.49344e-05
7.03439e-06
6.41175e-05
8.57701e-06
6.29145e-05
1.14908e-05
6.14069e-05
1.45656e-05
5.93087e-05
2.19944e-05
5.6375e-05
2.98022e-05
5.17634e-05
4.86199e-05
4.51745e-05
6.6927e-05
3.41152e-05
0.00011215
2.04288e-05
0.000135595
0.000199713
6.81684e-05
2.25967e-07
6.81132e-05
6.11568e-07
6.80271e-05
9.42075e-07
6.791e-05
1.28635e-06
6.77579e-05
1.66839e-06
6.7566e-05
2.10883e-06
6.73297e-05
2.60091e-06
6.70321e-05
3.27983e-06
6.66645e-05
4.0414e-06
6.62117e-05
4.98748e-06
6.5648e-05
6.18898e-06
6.49289e-05
7.74143e-06
6.4102e-05
9.4581e-06
6.29037e-05
1.26386e-05
6.13886e-05
1.60744e-05
5.9342e-05
2.4048e-05
5.64242e-05
3.272e-05
5.19862e-05
5.30581e-05
4.54337e-05
7.34794e-05
3.44168e-05
0.000123167
2.06352e-05
0.000149376
0.000220349
6.81684e-05
2.46559e-07
6.81132e-05
6.67139e-07
6.80271e-05
1.02765e-06
6.791e-05
1.40322e-06
6.7758e-05
1.81995e-06
6.75661e-05
2.30053e-06
6.73298e-05
2.83736e-06
6.70322e-05
3.5779e-06
6.66646e-05
4.40874e-06
6.62118e-05
5.44097e-06
6.56498e-05
6.74991e-06
6.49326e-05
8.44687e-06
6.40758e-05
1.03537e-05
6.28922e-05
1.37993e-05
6.13794e-05
1.75877e-05
5.93742e-05
2.6056e-05
5.64845e-05
3.56095e-05
5.21911e-05
5.73513e-05
4.56949e-05
7.99755e-05
3.47518e-05
0.00013411
2.08748e-05
0.000163253
0.000241223
6.81684e-05
2.67136e-07
6.81132e-05
7.22683e-07
6.80271e-05
1.11328e-06
6.791e-05
1.52018e-06
6.77579e-05
1.97158e-06
6.75661e-05
2.49216e-06
6.73298e-05
3.07375e-06
6.70323e-05
3.87591e-06
6.66646e-05
4.77607e-06
6.62118e-05
5.89443e-06
6.5649e-05
7.3118e-06
6.49284e-05
9.15701e-06
6.40465e-05
1.12749e-05
6.28892e-05
1.49352e-05
6.13772e-05
1.90963e-05
5.93994e-05
2.80357e-05
5.65382e-05
3.84708e-05
5.23525e-05
6.15372e-05
4.59353e-05
8.63927e-05
3.51023e-05
0.000144943
2.1144e-05
0.000177212
0.000262367
6.81684e-05
2.87726e-07
6.81132e-05
7.78227e-07
6.80271e-05
1.19885e-06
6.791e-05
1.63704e-06
6.7758e-05
2.12311e-06
6.75662e-05
2.68385e-06
6.73299e-05
3.31017e-06
6.70324e-05
4.1739e-06
6.66648e-05
5.14339e-06
6.62117e-05
6.34814e-06
6.56484e-05
7.87414e-06
6.49258e-05
9.87052e-06
6.40326e-05
1.21864e-05
6.28854e-05
1.60775e-05
6.13775e-05
2.06059e-05
5.94165e-05
2.99972e-05
5.65794e-05
4.13077e-05
5.24731e-05
6.56434e-05
4.61478e-05
9.2718e-05
3.54548e-05
0.000155636
2.1438e-05
0.000191228
0.000283805
6.81684e-05
3.08299e-07
6.81132e-05
8.33743e-07
6.80271e-05
1.28448e-06
6.791e-05
1.75401e-06
6.7758e-05
2.27472e-06
6.75661e-05
2.87546e-06
6.73299e-05
3.54652e-06
6.70324e-05
4.47184e-06
6.66649e-05
5.51058e-06
6.62113e-05
6.80243e-06
6.56452e-05
8.43937e-06
6.49151e-05
1.05933e-05
6.40221e-05
1.3094e-05
6.28814e-05
1.72103e-05
6.13786e-05
2.21067e-05
5.94275e-05
3.19491e-05
5.66092e-05
4.41262e-05
5.25636e-05
6.96891e-05
4.63336e-05
9.8948e-05
3.58016e-05
0.000166168
2.1752e-05
0.000205278
0.000305557
6.81684e-05
3.28886e-07
6.81132e-05
8.8926e-07
6.80271e-05
1.37005e-06
6.79101e-05
1.87085e-06
6.77581e-05
2.42622e-06
6.75662e-05
3.06712e-06
6.733e-05
3.78288e-06
6.70326e-05
4.76977e-06
6.66652e-05
5.87768e-06
6.62106e-05
7.25764e-06
6.56378e-05
9.01131e-06
6.49093e-05
1.13166e-05
6.40139e-05
1.3993e-05
6.28782e-05
1.83464e-05
6.13798e-05
2.36067e-05
5.94344e-05
3.38945e-05
5.66302e-05
4.69302e-05
5.26336e-05
7.36856e-05
4.64963e-05
0.000105085
3.61388e-05
0.000176526
2.20817e-05
0.000219335
0.000327639
6.81684e-05
3.49454e-07
6.81132e-05
9.44747e-07
6.80271e-05
1.45569e-06
6.791e-05
1.98781e-06
6.7758e-05
2.57781e-06
6.75662e-05
3.2587e-06
6.733e-05
4.01918e-06
6.70327e-05
5.06759e-06
6.66652e-05
6.24481e-06
6.62103e-05
7.71314e-06
6.56251e-05
9.59578e-06
6.49073e-05
1.20316e-05
6.40072e-05
1.48982e-05
6.28762e-05
1.94736e-05
6.13809e-05
2.51003e-05
5.94387e-05
3.58372e-05
5.66451e-05
4.97238e-05
5.269e-05
7.76408e-05
4.66405e-05
0.000111135
3.64652e-05
0.000186701
2.24239e-05
0.000233377
0.000350063
6.81683e-05
3.70037e-07
6.81132e-05
1.00024e-06
6.80271e-05
1.54127e-06
6.79101e-05
2.10464e-06
6.77581e-05
2.72929e-06
6.75663e-05
3.45033e-06
6.73301e-05
4.25552e-06
6.70329e-05
5.36531e-06
6.66652e-05
6.61215e-06
6.62108e-05
8.16818e-06
6.56124e-05
1.01934e-05
6.49055e-05
1.2737e-05
6.40026e-05
1.58011e-05
6.28749e-05
2.06029e-05
6.13818e-05
2.65947e-05
5.94412e-05
3.77777e-05
5.66559e-05
5.2509e-05
5.27377e-05
8.1559e-05
4.67703e-05
0.000117102
3.6781e-05
0.00019669
2.27762e-05
0.000247381
0.000372839
6.81684e-05
3.90599e-07
6.81132e-05
1.05569e-06
6.80271e-05
1.62692e-06
6.791e-05
2.22159e-06
6.77581e-05
2.88086e-06
6.75663e-05
3.64187e-06
6.73301e-05
4.49179e-06
6.7033e-05
5.66289e-06
6.66652e-05
6.97967e-06
6.6211e-05
8.62301e-06
6.56044e-05
1.07993e-05
6.49025e-05
1.34383e-05
6.39997e-05
1.67064e-05
6.28741e-05
2.17258e-05
6.13827e-05
2.80846e-05
5.94428e-05
3.97179e-05
5.66642e-05
5.52877e-05
5.27801e-05
8.54432e-05
4.68895e-05
0.000122993
3.70876e-05
0.000206492
2.31372e-05
0.000261332
0.000395976
6.81683e-05
4.11178e-07
6.81132e-05
1.11116e-06
6.80272e-05
1.71249e-06
6.79101e-05
2.3384e-06
6.77582e-05
3.03231e-06
6.75664e-05
3.83346e-06
6.73303e-05
4.72809e-06
6.70332e-05
5.96042e-06
6.66654e-05
7.34718e-06
6.62076e-05
9.08143e-06
6.56025e-05
1.14038e-05
6.48993e-05
1.41412e-05
6.39979e-05
1.7607e-05
6.28737e-05
2.28516e-05
6.13836e-05
2.95759e-05
5.94439e-05
4.16575e-05
5.66712e-05
5.80602e-05
5.28197e-05
8.92947e-05
4.70013e-05
0.000128811
3.73868e-05
0.000216107
2.3506e-05
0.000275213
0.000419482
6.81684e-05
4.31734e-07
6.81132e-05
1.16659e-06
6.80272e-05
1.79815e-06
6.79101e-05
2.45535e-06
6.77581e-05
3.18387e-06
6.75664e-05
4.02496e-06
6.73303e-05
4.96428e-06
6.70332e-05
6.25795e-06
6.66659e-05
7.71416e-06
6.61985e-05
9.54942e-06
6.56055e-05
1.19966e-05
6.48967e-05
1.48499e-05
6.39967e-05
1.85087e-05
6.28735e-05
2.39727e-05
6.13846e-05
3.10636e-05
5.9445e-05
4.35974e-05
5.66779e-05
6.08273e-05
5.28584e-05
9.31144e-05
4.71083e-05
0.000134561
3.76807e-05
0.000225534
2.38825e-05
0.000289011
0.000443365
6.81683e-05
4.52308e-07
6.81132e-05
1.22202e-06
6.80272e-05
1.88373e-06
6.79102e-05
2.57214e-06
6.77582e-05
3.33529e-06
6.75665e-05
4.21652e-06
6.73305e-05
5.20045e-06
6.70332e-05
6.55565e-06
6.6667e-05
8.08016e-06
6.61875e-05
1.00295e-05
6.56086e-05
1.25753e-05
6.48948e-05
1.55636e-05
6.39961e-05
1.94065e-05
6.28736e-05
2.50968e-05
6.13858e-05
3.25525e-05
5.94465e-05
4.55366e-05
5.66852e-05
6.35885e-05
5.28975e-05
9.6902e-05
4.72126e-05
0.000140246
3.79717e-05
0.000234775
2.42669e-05
0.000302716
0.000467631
6.81684e-05
4.72857e-07
6.81132e-05
1.27742e-06
6.80272e-05
1.9694e-06
6.79101e-05
2.68909e-06
6.77582e-05
3.48681e-06
6.75665e-05
4.408e-06
6.73306e-05
5.43646e-06
6.70332e-05
6.85348e-06
6.6668e-05
8.44508e-06
6.61791e-05
1.05189e-05
6.56095e-05
1.31448e-05
6.48935e-05
1.62795e-05
6.39958e-05
2.03055e-05
6.28739e-05
2.62168e-05
6.13874e-05
3.40379e-05
5.94489e-05
4.74753e-05
5.66937e-05
6.63438e-05
5.29379e-05
0.000100658
4.73161e-05
0.000145868
3.82621e-05
0.000243829
2.46601e-05
0.000316318
0.000492292
6.81683e-05
4.93426e-07
6.81132e-05
1.33282e-06
6.80272e-05
2.05498e-06
6.79102e-05
2.80586e-06
6.77583e-05
3.63819e-06
6.75666e-05
4.59954e-06
6.73308e-05
5.67246e-06
6.70333e-05
7.1514e-06
6.66688e-05
8.80927e-06
6.6174e-05
1.10143e-05
6.56089e-05
1.37099e-05
6.48927e-05
1.69957e-05
6.39958e-05
2.12014e-05
6.28745e-05
2.73396e-05
6.13895e-05
3.5524e-05
5.94525e-05
4.94122e-05
5.67039e-05
6.90924e-05
5.29801e-05
0.000104382
4.74198e-05
0.000151428
3.85543e-05
0.000252695
2.50629e-05
0.000329809
0.000517354
6.81684e-05
5.13968e-07
6.81132e-05
1.38819e-06
6.80272e-05
2.14066e-06
6.79101e-05
2.92279e-06
6.77582e-05
3.7897e-06
6.75666e-05
4.79097e-06
6.73308e-05
5.90833e-06
6.70334e-05
7.44925e-06
6.66692e-05
9.17317e-06
6.61709e-05
1.15129e-05
6.56079e-05
1.42729e-05
6.48922e-05
1.77114e-05
6.3996e-05
2.20988e-05
6.28754e-05
2.84585e-05
6.13921e-05
3.70062e-05
5.94577e-05
5.13468e-05
5.67162e-05
7.18339e-05
5.30243e-05
0.000108074
4.75247e-05
0.000156928
3.88506e-05
0.000261369
2.54766e-05
0.000343183
0.000542831
6.81683e-05
5.34531e-07
6.81132e-05
1.44357e-06
6.80272e-05
2.22625e-06
6.79102e-05
3.03954e-06
6.77584e-05
3.94104e-06
6.75668e-05
4.98246e-06
6.7331e-05
6.14426e-06
6.70337e-05
7.74694e-06
6.66681e-05
9.53853e-06
6.61698e-05
1.20116e-05
6.5607e-05
1.48357e-05
6.48919e-05
1.84264e-05
6.39964e-05
2.29935e-05
6.28766e-05
2.95797e-05
6.13954e-05
3.84884e-05
5.94645e-05
5.32777e-05
5.67307e-05
7.45676e-05
5.30705e-05
0.000111734
4.76314e-05
0.000162367
3.91533e-05
0.000269847
2.59027e-05
0.000356434
0.000568734
6.81684e-05
5.55065e-07
6.81132e-05
1.49891e-06
6.80272e-05
2.31193e-06
6.79102e-05
3.15646e-06
6.77583e-05
4.09253e-06
6.75667e-05
5.17381e-06
6.73309e-05
6.38013e-06
6.70341e-05
8.04422e-06
6.66626e-05
9.90974e-06
6.6172e-05
1.25025e-05
6.56063e-05
1.54014e-05
6.48919e-05
1.91409e-05
6.39969e-05
2.38895e-05
6.28781e-05
3.06969e-05
6.13995e-05
3.99659e-05
5.9473e-05
5.52044e-05
5.67476e-05
7.7293e-05
5.31188e-05
0.000115363
4.77404e-05
0.000167745
3.94645e-05
0.000278123
2.63428e-05
0.000369556
0.000595076
6.81683e-05
5.75623e-07
6.81132e-05
1.55425e-06
6.80272e-05
2.39752e-06
6.79103e-05
3.27317e-06
6.77585e-05
4.24385e-06
6.75669e-05
5.36519e-06
6.73311e-05
6.61616e-06
6.70347e-05
8.34095e-06
6.66544e-05
1.02898e-05
6.6176e-05
1.29811e-05
6.56059e-05
1.59714e-05
6.4892e-05
1.98548e-05
6.39976e-05
2.47831e-05
6.28799e-05
3.1816e-05
6.14043e-05
4.14425e-05
5.94831e-05
5.71255e-05
5.6767e-05
8.0009e-05
5.31692e-05
0.00011896
4.78519e-05
0.000173063
3.97861e-05
0.000286188
2.67983e-05
0.000382543
0.000621875
6.81683e-05
5.9615e-07
6.81133e-05
1.60956e-06
6.80272e-05
2.48322e-06
6.79102e-05
3.39008e-06
6.77584e-05
4.39533e-06
6.75669e-05
5.55642e-06
6.7331e-05
6.85217e-06
6.70353e-05
8.63701e-06
6.66475e-05
1.06773e-05
6.61788e-05
1.34499e-05
6.56057e-05
1.65446e-05
6.48922e-05
2.05682e-05
6.39984e-05
2.56778e-05
6.28821e-05
3.29307e-05
6.14099e-05
4.29136e-05
5.94949e-05
5.90407e-05
5.67887e-05
8.27153e-05
5.32217e-05
0.000122527
4.79658e-05
0.000178319
4.01192e-05
0.000294035
2.72707e-05
0.000395392
0.000649145
6.81683e-05
6.16701e-07
6.81132e-05
1.66488e-06
6.80273e-05
2.56881e-06
6.79103e-05
3.50676e-06
6.77585e-05
4.54662e-06
6.75672e-05
5.74767e-06
6.73311e-05
7.08834e-06
6.7036e-05
8.93256e-06
6.66428e-05
1.10702e-05
6.61802e-05
1.39126e-05
6.56056e-05
1.71192e-05
6.48925e-05
2.12813e-05
6.39994e-05
2.65702e-05
6.28846e-05
3.40469e-05
6.14162e-05
4.4383e-05
5.95081e-05
6.09487e-05
5.68129e-05
8.54104e-05
5.32763e-05
0.000126064
4.80821e-05
0.000183513
4.0465e-05
0.000301652
2.77612e-05
0.000408096
0.000676906
6.81683e-05
6.37221e-07
6.81133e-05
1.72016e-06
6.80273e-05
2.65451e-06
6.79103e-05
3.62364e-06
6.77585e-05
4.69808e-06
6.75671e-05
5.93877e-06
6.73311e-05
7.32444e-06
6.70364e-05
9.22762e-06
6.66397e-05
1.14667e-05
6.61809e-05
1.43713e-05
6.56057e-05
1.76944e-05
6.48929e-05
2.19941e-05
6.40004e-05
2.74636e-05
6.28874e-05
3.51583e-05
6.14232e-05
4.5846e-05
5.95227e-05
6.28494e-05
5.68395e-05
8.80937e-05
5.33332e-05
0.00012957
4.82007e-05
0.000188645
4.08238e-05
0.000309029
2.82708e-05
0.000420649
0.000705177
6.81683e-05
6.57766e-07
6.81132e-05
1.77545e-06
6.80273e-05
2.7401e-06
6.79104e-05
3.74029e-06
6.77586e-05
4.84934e-06
6.75673e-05
6.12992e-06
6.73313e-05
7.5606e-06
6.70369e-05
9.52244e-06
6.66377e-05
1.18656e-05
6.61814e-05
1.48277e-05
6.56059e-05
1.82699e-05
6.48934e-05
2.27066e-05
6.40016e-05
2.83546e-05
6.28904e-05
3.6271e-05
6.14307e-05
4.73068e-05
5.95386e-05
6.47413e-05
5.68685e-05
9.07638e-05
5.33925e-05
0.000133046
4.83215e-05
0.000193716
4.11955e-05
0.000316155
2.88e-05
0.000433044
0.000733977
6.81683e-05
6.78278e-07
6.81133e-05
1.8307e-06
6.80273e-05
2.8258e-06
6.79103e-05
3.85715e-06
6.77585e-05
5.00077e-06
6.75673e-05
6.32094e-06
6.73314e-05
7.79659e-06
6.70371e-05
9.81705e-06
6.66365e-05
1.2266e-05
6.61817e-05
1.52825e-05
6.56061e-05
1.88455e-05
6.48939e-05
2.34188e-05
6.40029e-05
2.92465e-05
6.28937e-05
3.73785e-05
6.14387e-05
4.87606e-05
5.95558e-05
6.66245e-05
5.68999e-05
9.34197e-05
5.34543e-05
0.000136492
4.84443e-05
0.000198726
4.15799e-05
0.00032302
2.93493e-05
0.000445275
0.000763327
6.81683e-05
6.98819e-07
6.81133e-05
1.88596e-06
6.80273e-05
2.91139e-06
6.79105e-05
3.97376e-06
6.77587e-05
5.15198e-06
6.75675e-05
6.51203e-06
6.73317e-05
8.03255e-06
6.70374e-05
1.01117e-05
6.66357e-05
1.26675e-05
6.61821e-05
1.57361e-05
6.56065e-05
1.94211e-05
6.48945e-05
2.41307e-05
6.40043e-05
3.0136e-05
6.28973e-05
3.8487e-05
6.14473e-05
5.02117e-05
5.9574e-05
6.84977e-05
5.69338e-05
9.60599e-05
5.35187e-05
0.000139907
4.85695e-05
0.000203675
4.19766e-05
0.000329612
2.99189e-05
0.000457333
0.000793245
6.81683e-05
7.19324e-07
6.81133e-05
1.94118e-06
6.80273e-05
2.99709e-06
6.79104e-05
4.09061e-06
6.77586e-05
5.30337e-06
6.75675e-05
6.703e-06
6.73318e-05
8.26822e-06
6.70374e-05
1.04065e-05
6.66351e-05
1.30696e-05
6.61825e-05
1.61886e-05
6.56069e-05
1.99967e-05
6.48952e-05
2.48425e-05
6.40058e-05
3.10263e-05
6.2901e-05
3.95899e-05
6.14563e-05
5.16554e-05
5.95934e-05
7.03608e-05
5.697e-05
9.86833e-05
5.3586e-05
0.000143291
4.86971e-05
0.000208564
4.23852e-05
0.000335924
3.05087e-05
0.000469209
0.000823754
6.81683e-05
7.39859e-07
6.81133e-05
1.99641e-06
6.80274e-05
3.08267e-06
6.79105e-05
4.20718e-06
6.77589e-05
5.45451e-06
6.75677e-05
6.89408e-06
6.73322e-05
8.50376e-06
6.70372e-05
1.07019e-05
6.66347e-05
1.3472e-05
6.6183e-05
1.66403e-05
6.56074e-05
2.05723e-05
6.48958e-05
2.5554e-05
6.40073e-05
3.1914e-05
6.2905e-05
4.06938e-05
6.14656e-05
5.30958e-05
5.96137e-05
7.22126e-05
5.70087e-05
0.000101288
5.36564e-05
0.000146643
4.88277e-05
0.000213393
4.28058e-05
0.000341946
3.11191e-05
0.000480896
0.000854873
6.81683e-05
7.60358e-07
6.81133e-05
2.0516e-06
6.80274e-05
3.16837e-06
6.79104e-05
4.32401e-06
6.77588e-05
5.60582e-06
6.75676e-05
7.08509e-06
6.73326e-05
8.73875e-06
6.7033e-05
1.10018e-05
6.66363e-05
1.38686e-05
6.61835e-05
1.70931e-05
6.56079e-05
2.11478e-05
6.48966e-05
2.62653e-05
6.40089e-05
3.28026e-05
6.2909e-05
4.17918e-05
6.14753e-05
5.45283e-05
5.96351e-05
7.4053e-05
5.70496e-05
0.000103874
5.37301e-05
0.000149963
4.89616e-05
0.000218162
4.32384e-05
0.00034767
3.17504e-05
0.000492384
0.000886624
6.81683e-05
7.80888e-07
6.81133e-05
2.10681e-06
6.80274e-05
3.25393e-06
6.79106e-05
4.44057e-06
6.77591e-05
5.75682e-06
6.75676e-05
7.27639e-06
6.73337e-05
8.97282e-06
6.7019e-05
1.13168e-05
6.66426e-05
1.4245e-05
6.6184e-05
1.75518e-05
6.56085e-05
2.17233e-05
6.48973e-05
2.69765e-05
6.40105e-05
3.36886e-05
6.29133e-05
4.28906e-05
6.14854e-05
5.59573e-05
5.96574e-05
7.5881e-05
5.70928e-05
0.000106438
5.38073e-05
0.000153248
4.90994e-05
0.00022287
4.36835e-05
0.000353085
3.2403e-05
0.000503665
0.000919027
6.81683e-05
8.01379e-07
6.81133e-05
2.16197e-06
6.80274e-05
3.33961e-06
6.79105e-05
4.5574e-06
6.7759e-05
5.90798e-06
6.75675e-05
7.46772e-06
6.73343e-05
9.20596e-06
6.70111e-05
1.16404e-05
6.66456e-05
1.46105e-05
6.61845e-05
1.80129e-05
6.5609e-05
2.22987e-05
6.48981e-05
2.76874e-05
6.40122e-05
3.45754e-05
6.29176e-05
4.39834e-05
6.14958e-05
5.73779e-05
5.96805e-05
7.76964e-05
5.71381e-05
0.000108981
5.38883e-05
0.000156498
4.92412e-05
0.000227517
4.41415e-05
0.000358185
3.30777e-05
0.000514728
0.000952104
6.81683e-05
8.21902e-07
6.81133e-05
2.21714e-06
6.80274e-05
3.42515e-06
6.79106e-05
4.67393e-06
6.77592e-05
6.05886e-06
6.75677e-05
7.65912e-06
6.73347e-05
9.43904e-06
6.70085e-05
1.1967e-05
6.66461e-05
1.49729e-05
6.6185e-05
1.8474e-05
6.56096e-05
2.28741e-05
6.48988e-05
2.83981e-05
6.40139e-05
3.54596e-05
6.2922e-05
4.5077e-05
6.15064e-05
5.87947e-05
5.97044e-05
7.94983e-05
5.71854e-05
0.0001115
5.39734e-05
0.00015971
4.93873e-05
0.000232103
4.46124e-05
0.00036296
3.3775e-05
0.000525566
0.000985879
6.81683e-05
8.42392e-07
6.81133e-05
2.27228e-06
6.80274e-05
3.51082e-06
6.79105e-05
4.79071e-06
6.77591e-05
6.21001e-06
6.75679e-05
7.85015e-06
6.73328e-05
9.67409e-06
6.70074e-05
1.22926e-05
6.6646e-05
1.53343e-05
6.61854e-05
1.89345e-05
6.56102e-05
2.34494e-05
6.48996e-05
2.91087e-05
6.40156e-05
3.63447e-05
6.29265e-05
4.6164e-05
6.15173e-05
6.02024e-05
5.9729e-05
8.12868e-05
5.72345e-05
0.000113994
5.40629e-05
0.000162881
4.95374e-05
0.000236628
4.50947e-05
0.000367403
3.44943e-05
0.000536166
0.00102037
6.81683e-05
8.62909e-07
6.81133e-05
2.32742e-06
6.80275e-05
3.59638e-06
6.79108e-05
4.90712e-06
6.7759e-05
6.36129e-06
6.75694e-05
8.0396e-06
6.73179e-05
9.92573e-06
6.70091e-05
1.26015e-05
6.66459e-05
1.56975e-05
6.61858e-05
1.93946e-05
6.56107e-05
2.40245e-05
6.49004e-05
2.9819e-05
6.40173e-05
3.72268e-05
6.29311e-05
4.72521e-05
6.15284e-05
6.16064e-05
5.97543e-05
8.30608e-05
5.72852e-05
0.000116463
5.41572e-05
0.000166009
4.96911e-05
0.000241094
4.5584e-05
0.00037151
3.52324e-05
0.000546518
0.00105561
6.81683e-05
8.8339e-07
6.81134e-05
2.38251e-06
6.80275e-05
3.68209e-06
6.79108e-05
5.02371e-06
6.77586e-05
6.51311e-06
6.75704e-05
8.22761e-06
6.73079e-05
1.01883e-05
6.70101e-05
1.28993e-05
6.66457e-05
1.60618e-05
6.61861e-05
1.98542e-05
6.56112e-05
2.45995e-05
6.49011e-05
3.05291e-05
6.4019e-05
3.81101e-05
6.29357e-05
4.83333e-05
6.15397e-05
6.30008e-05
5.978e-05
8.48207e-05
5.73373e-05
0.000118906
5.42566e-05
0.00016909
4.9848e-05
0.000245503
4.60709e-05
0.000375287
3.59816e-05
0.000556607
0.00109159
6.81682e-05
9.03852e-07
6.81133e-05
2.43758e-06
6.80275e-05
3.76762e-06
6.7911e-05
5.13993e-06
6.77588e-05
6.66468e-06
6.7571e-05
8.41524e-06
6.73051e-05
1.04543e-05
6.70098e-05
1.31947e-05
6.66456e-05
1.6426e-05
6.61864e-05
2.03134e-05
6.56116e-05
2.51742e-05
6.49018e-05
3.12389e-05
6.40206e-05
3.89903e-05
6.29403e-05
4.94155e-05
6.15512e-05
6.43913e-05
5.98062e-05
8.65655e-05
5.73903e-05
0.000121322
5.43622e-05
0.000172118
5.00073e-05
0.000249858
4.65522e-05
0.000378742
3.68215e-05
0.000566338
0.00112841
1.11926e-06
-1.11926e-06
-9.84748e-07
2.10401e-06
-1.8175e-06
8.32749e-07
-1.99608e-06
1.78622e-07
-1.72365e-06
-2.72431e-07
-1.27441e-06
-4.4909e-07
-1.07441e-06
-1.99831e-07
-1.03073e-06
-4.33947e-08
-1.0834e-06
5.40863e-08
-1.12172e-06
4.04209e-08
-1.27917e-06
1.78185e-07
-1.3044e-06
1.08642e-09
-1.13909e-06
-1.70088e-07
-5.93048e-07
-5.45814e-07
3.279e-07
-9.16781e-07
1.53905e-06
-1.20668e-06
2.94962e-06
-1.41026e-06
4.79382e-06
-1.84521e-06
7.23474e-06
-2.44574e-06
1.02603e-05
-3.02367e-06
1.36645e-05
-3.40388e-06
1.71586e-05
-3.49421e-06
2.05502e-05
-3.39073e-06
2.37734e-05
-3.22383e-06
2.68326e-05
-3.05965e-06
2.97632e-05
-2.92985e-06
3.26035e-05
-2.83921e-06
3.53869e-05
-2.78445e-06
3.81127e-05
-2.72871e-06
4.08429e-05
-2.72935e-06
4.35913e-05
-2.74855e-06
4.55764e-05
-1.98444e-06
4.89522e-05
-3.37542e-06
5.90374e-05
-1.00855e-05
-7.69829e-06
1.13888e-06
-2.25814e-06
-9.63732e-07
4.20663e-06
-1.78225e-06
1.65127e-06
-1.96597e-06
3.62421e-07
-1.68375e-06
-5.54654e-07
-1.24722e-06
-8.85316e-07
-1.04528e-06
-4.01453e-07
-1.01361e-06
-7.45e-08
-1.07279e-06
1.15933e-07
-1.11476e-06
8.64787e-08
-1.25085e-06
3.48254e-07
-1.2544e-06
-3.58831e-08
-1.09609e-06
-3.3773e-07
-5.97925e-07
-1.04367e-06
2.91158e-07
-1.79757e-06
1.52904e-06
-2.43538e-06
2.98503e-06
-2.8656e-06
4.83529e-06
-3.69754e-06
7.24135e-06
-4.86133e-06
1.02296e-05
-6.00821e-06
1.3621e-05
-6.79453e-06
1.71333e-05
-7.00684e-06
2.05431e-05
-6.79881e-06
2.37726e-05
-6.4544e-06
2.683e-05
-6.11806e-06
2.97562e-05
-5.85464e-06
3.25919e-05
-5.67285e-06
3.53724e-05
-5.56683e-06
3.80974e-05
-5.45913e-06
4.08227e-05
-5.45314e-06
4.35715e-05
-5.49768e-06
4.55878e-05
-3.99944e-06
4.87985e-05
-6.58536e-06
5.87949e-05
-2.00825e-05
-1.5535e-05
1.15719e-06
-3.41534e-06
-9.37743e-07
6.30157e-06
-1.74457e-06
2.4581e-06
-1.91554e-06
5.33461e-07
-1.63115e-06
-8.39042e-07
-1.19979e-06
-1.3164e-06
-1.00505e-06
-5.9592e-07
-9.81552e-07
-9.75125e-08
-1.04658e-06
1.83371e-07
-1.08444e-06
1.27988e-07
-1.20017e-06
4.98219e-07
-1.18899e-06
-8.89839e-08
-1.06077e-06
-4.75267e-07
-6.14219e-07
-1.4897e-06
2.63782e-07
-2.66719e-06
1.54507e-06
-3.7071e-06
3.04524e-06
-4.36513e-06
4.89212e-06
-5.54659e-06
7.25874e-06
-7.23778e-06
1.02172e-05
-8.96292e-06
1.36095e-05
-1.01862e-05
1.71426e-05
-1.05402e-05
2.05719e-05
-1.02266e-05
2.38079e-05
-9.69149e-06
2.68626e-05
-9.17374e-06
2.97836e-05
-8.77417e-06
3.26133e-05
-8.50035e-06
3.53884e-05
-8.34395e-06
3.81097e-05
-8.18593e-06
4.08284e-05
-8.17034e-06
4.35745e-05
-8.244e-06
4.56198e-05
-6.0435e-06
4.86774e-05
-9.64217e-06
5.85815e-05
-2.99873e-05
-2.34855e-05
1.17756e-06
-4.5929e-06
-9.09536e-07
8.38867e-06
-1.69932e-06
3.24788e-06
-1.85014e-06
6.84363e-07
-1.56082e-06
-1.12835e-06
-1.13582e-06
-1.7411e-06
-9.49853e-07
-7.81579e-07
-9.33776e-07
-1.13039e-07
-1.00271e-06
2.54819e-07
-1.03723e-06
1.66506e-07
-1.13423e-06
6.25317e-07
-1.11145e-06
-1.50584e-07
-1.01716e-06
-5.80199e-07
-6.20898e-07
-1.88562e-06
2.51098e-07
-3.5293e-06
1.5805e-06
-5.02441e-06
3.12806e-06
-5.91179e-06
4.97115e-06
-7.39255e-06
7.29818e-06
-9.57683e-06
1.02318e-05
-1.18922e-05
1.36314e-05
-1.3585e-05
1.71892e-05
-1.40984e-05
2.06399e-05
-1.36754e-05
2.3883e-05
-1.29358e-05
2.69344e-05
-1.22263e-05
2.98485e-05
-1.16866e-05
3.26697e-05
-1.13192e-05
3.54369e-05
-1.11134e-05
3.81519e-05
-1.09068e-05
4.08617e-05
-1.08785e-05
4.36014e-05
-1.0984e-05
4.5673e-05
-8.11366e-06
4.85901e-05
-1.25586e-05
5.8395e-05
-3.97928e-05
-3.15271e-05
1.19997e-06
-5.79287e-06
-8.79118e-07
1.04678e-05
-1.64599e-06
4.01475e-06
-1.76987e-06
8.0832e-07
-1.47344e-06
-1.42478e-06
-1.05628e-06
-2.15799e-06
-8.8052e-07
-9.57101e-07
-8.71012e-07
-1.22097e-07
-9.42427e-07
3.28427e-07
-9.73249e-07
2.0079e-07
-1.05076e-06
7.3e-07
-1.01864e-06
-2.19782e-07
-9.62271e-07
-6.46847e-07
-6.1508e-07
-2.23214e-06
2.57044e-07
-4.392e-06
1.64195e-06
-6.39703e-06
3.24337e-06
-7.51233e-06
5.08332e-06
-9.23565e-06
7.36865e-06
-1.18755e-05
1.02802e-05
-1.47988e-05
1.36926e-05
-1.69969e-05
1.72797e-05
-1.76859e-05
2.07542e-05
-1.7148e-05
2.4005e-05
-1.61878e-05
2.70521e-05
-1.52745e-05
2.99568e-05
-1.45896e-05
3.27662e-05
-1.41263e-05
3.55222e-05
-1.38717e-05
3.82278e-05
-1.36183e-05
4.09255e-05
-1.35746e-05
4.36547e-05
-1.37134e-05
4.57493e-05
-1.02068e-05
4.8537e-05
-1.53454e-05
5.82341e-05
-4.94905e-05
-3.96379e-05
1.22432e-06
-7.01719e-06
-8.46433e-07
1.25385e-05
-1.58385e-06
4.75217e-06
-1.67441e-06
8.98973e-07
-1.36908e-06
-1.73011e-06
-9.61505e-07
-2.56526e-06
-7.97141e-07
-1.12117e-06
-7.9334e-07
-1.25335e-07
-8.66315e-07
4.03846e-07
-8.92528e-07
2.3105e-07
-9.48476e-07
8.10354e-07
-9.08652e-07
-2.94933e-07
-8.9352e-07
-6.74011e-07
-5.93629e-07
-2.53164e-06
2.85377e-07
-5.25975e-06
1.73558e-06
-7.83179e-06
3.40152e-06
-9.17702e-06
5.24202e-06
-1.10806e-05
7.48294e-06
-1.41337e-05
1.0373e-05
-1.7683e-05
1.38032e-05
-2.0426e-05
1.74252e-05
-2.13083e-05
2.0927e-05
-2.06474e-05
2.41858e-05
-1.94483e-05
2.72264e-05
-1.83164e-05
3.01179e-05
-1.74792e-05
3.29111e-05
-1.69167e-05
3.56512e-05
-1.66144e-05
3.8343e-05
-1.63169e-05
4.10247e-05
-1.62544e-05
4.3738e-05
-1.64271e-05
4.58518e-05
-1.2319e-05
4.85186e-05
-1.80114e-05
5.80979e-05
-5.90705e-05
-4.77965e-05
1.25037e-06
-8.26756e-06
-8.11322e-07
1.46002e-05
-1.51181e-06
5.45265e-06
-1.56267e-06
9.49915e-07
-1.24704e-06
-2.04574e-06
-8.50913e-07
-2.96112e-06
-6.98989e-07
-1.27287e-06
-7.00036e-07
-1.2383e-07
-7.7391e-07
4.79825e-07
-7.94391e-07
2.55084e-07
-8.26102e-07
8.62254e-07
-7.79517e-07
-3.73446e-07
-8.07842e-07
-6.57015e-07
-5.53503e-07
-2.78517e-06
3.38478e-07
-6.14147e-06
1.86558e-06
-9.34397e-06
3.61192e-06
-1.09222e-05
5.4625e-06
-1.29359e-05
7.65795e-06
-1.63484e-05
1.05259e-05
-2.05442e-05
1.39784e-05
-2.38778e-05
1.76426e-05
-2.49731e-05
2.1177e-05
-2.41794e-05
2.44446e-05
-2.27177e-05
2.74746e-05
-2.13479e-05
3.03464e-05
-2.03486e-05
3.31162e-05
-1.96835e-05
3.58339e-05
-1.93351e-05
3.85061e-05
-1.89963e-05
4.11661e-05
-1.89122e-05
4.38566e-05
-1.9118e-05
4.59846e-05
-1.44453e-05
4.85368e-05
-2.05627e-05
5.79859e-05
-6.85203e-05
-5.59816e-05
1.27772e-06
-9.54529e-06
-7.73506e-07
1.66515e-05
-1.42853e-06
6.10768e-06
-1.43304e-06
9.54516e-07
-1.10625e-06
-2.37252e-06
-7.23356e-07
-3.34369e-06
-5.84713e-07
-1.41121e-06
-5.89668e-07
-1.18267e-07
-6.63745e-07
5.56404e-07
-6.77088e-07
2.72793e-07
-6.81407e-07
8.85702e-07
-6.2807e-07
-4.58865e-07
-7.00939e-07
-5.97881e-07
-4.91116e-07
-2.99456e-06
4.1863e-07
-7.03838e-06
2.03525e-06
-1.09417e-05
3.88342e-06
-1.27688e-05
5.76182e-06
-1.48209e-05
7.91524e-06
-1.85273e-05
1.07603e-05
-2.3381e-05
1.42403e-05
-2.73565e-05
1.79573e-05
-2.86907e-05
2.15329e-05
-2.77518e-05
2.48106e-05