/*--------------------------------*- C++ -*----------------------------------*\
| =========                 |                                                 |
| \\      /  F ield         | OpenFOAM: The Open Source CFD Toolbox           |
|  \\    /   O peration     | Version:  v1912                                 |
|   \\  /    A nd           | Website:  www.openfoam.com                      |
|    \\/     M anipulation  |                                                 |
\*---------------------------------------------------------------------------*/
FoamFile
{
    version     2.0;
    format      ascii;
    class       volVectorField;
    location    "590";
    object      U;
}
// * * * * * * * * * * * * * * * * * * * * * * * * * * * * * * * * * * * * * //

dimensions      [0 1 -1 0 0 0 0];


internalField   nonuniform List<vector> 
12441
(
(29.9988 1.72651e-05 0)
(29.9852 5.24072e-05 0)
(29.9555 9.12444e-05 0)
(29.9104 0.000140022 0)
(29.8514 0.00020405 0)
(29.7764 0.000289628 0)
(29.6833 0.000401129 0)
(29.5674 0.000568112 0)
(29.423 0.000787665 0)
(29.2438 0.00109261 0)
(29.0256 0.00152282 0)
(28.7482 0.00213457 0)
(28.4062 0.00294095 0)
(27.9912 0.00438396 0)
(27.4137 0.00617925 0)
(26.6353 0.0112871 0)
(25.5913 0.0152217 0)
(23.9097 0.031776 0)
(21.54 0.0531725 0)
(17.8329 0.0914698 0)
(12.0496 0.121844 0)
(5.77631 0.195536 0)
(29.9988 5.12849e-05 0)
(29.9851 0.000156331 0)
(29.9554 0.000272003 0)
(29.9104 0.000417615 0)
(29.8514 0.00060895 0)
(29.7763 0.000864295 0)
(29.6833 0.00119884 0)
(29.5674 0.00169929 0)
(29.4231 0.00235506 0)
(29.2436 0.00326708 0)
(29.026 0.00455653 0)
(28.7484 0.00640765 0)
(28.4063 0.00877985 0)
(27.9914 0.0131734 0)
(27.4109 0.018594 0)
(26.6351 0.0335875 0)
(25.594 0.0482659 0)
(23.9104 0.091244 0)
(21.5399 0.13895 0)
(17.8307 0.264667 0)
(12.0507 0.357986 0)
(5.78031 0.584023 0)
(29.9988 8.51615e-05 0)
(29.9851 0.000260236 0)
(29.9554 0.000452084 0)
(29.9104 0.000694087 0)
(29.8514 0.00101242 0)
(29.7763 0.00143841 0)
(29.6833 0.00199498 0)
(29.5674 0.0028288 0)
(29.4231 0.00392067 0)
(29.2437 0.00544024 0)
(29.0261 0.00758924 0)
(28.7484 0.0106738 0)
(28.4063 0.0146013 0)
(27.9948 0.0219952 0)
(27.4122 0.0310477 0)
(26.6363 0.0550177 0)
(25.5955 0.0820376 0)
(23.9154 0.148921 0)
(21.5434 0.222221 0)
(17.8303 0.435523 0)
(12.0566 0.590628 0)
(5.78863 0.970599 0)
(29.9988 0.000119464 0)
(29.9851 0.000364879 0)
(29.9554 0.000633071 0)
(29.9104 0.00097186 0)
(29.8514 0.00141765 0)
(29.7764 0.00201447 0)
(29.6833 0.00279373 0)
(29.5675 0.00396173 0)
(29.4231 0.00549019 0)
(29.2437 0.00761777 0)
(29.0261 0.0106293 0)
(28.7486 0.0149484 0)
(28.4062 0.0204393 0)
(27.991 0.0308311 0)
(27.412 0.0435161 0)
(26.6363 0.0764937 0)
(25.5973 0.115066 0)
(23.9203 0.209567 0)
(21.552 0.330228 0)
(17.8348 0.614435 0)
(12.0689 0.827226 0)
(5.80165 1.35881 0)
(29.9988 0.000153832 0)
(29.9851 0.000469412 0)
(29.9554 0.00081386 0)
(29.9104 0.0012494 0)
(29.8514 0.00182252 0)
(29.7764 0.00258996 0)
(29.6833 0.00359184 0)
(29.5675 0.00509378 0)
(29.4231 0.00705858 0)
(29.2437 0.00979416 0)
(29.0261 0.013668 0)
(28.7485 0.0192204 0)
(28.4063 0.026285 0)
(27.9948 0.0396559 0)
(27.4133 0.0560087 0)
(26.6376 0.0977469 0)
(25.5999 0.14761 0)
(23.925 0.270975 0)
(21.5631 0.421079 0)
(17.8453 0.789538 0)
(12.0891 1.06362 0)
(5.81969 1.7483 0)
(29.9988 0.000188198 0)
(29.9851 0.000573885 0)
(29.9554 0.000994625 0)
(29.9104 0.00152696 0)
(29.8514 0.0022274 0)
(29.7764 0.00316553 0)
(29.6834 0.00439011 0)
(29.5675 0.00622594 0)
(29.4232 0.00862723 0)
(29.2438 0.0119709 0)
(29.0262 0.0167065 0)
(28.7489 0.023494 0)
(28.4067 0.0321336 0)
(27.9906 0.0484702 0)
(27.4136 0.0685039 0)
(26.6381 0.118886 0)
(25.6022 0.179881 0)
(23.9292 0.331854 0)
(21.5759 0.510379 0)
(17.8626 0.963327 0)
(12.1187 1.29972 0)
(5.84316 2.13889 0)
(29.9988 0.000222561 0)
(29.9852 0.000678326 0)
(29.9554 0.00117539 0)
(29.9104 0.00180454 0)
(29.8514 0.00263227 0)
(29.7764 0.00374108 0)
(29.6834 0.00518838 0)
(29.5675 0.00735805 0)
(29.4232 0.0101958 0)
(29.2439 0.0141479 0)
(29.0262 0.0197455 0)
(28.7486 0.0277656 0)
(28.4067 0.0379894 0)
(27.9952 0.0572652 0)
(27.4148 0.0809982 0)
(26.6397 0.139891 0)
(25.6058 0.211429 0)
(23.9336 0.390159 0)
(21.5938 0.601807 0)
(17.8903 1.13721 0)
(12.1605 1.53592 0)
(5.87259 2.53089 0)
(29.9988 0.000256925 0)
(29.9851 0.000782745 0)
(29.9554 0.00135613 0)
(29.9104 0.0020821 0)
(29.8515 0.0030371 0)
(29.7764 0.00431661 0)
(29.6834 0.00598665 0)
(29.5676 0.00849007 0)
(29.4233 0.0117644 0)
(29.2439 0.0163247 0)
(29.0263 0.0227836 0)
(28.7493 0.0320362 0)
(28.4076 0.0438446 0)
(27.9902 0.0660333 0)
(27.4153 0.0933345 0)
(26.64 0.160484 0)
(25.6107 0.244529 0)
(23.9393 0.450335 0)
(21.6265 0.694253 0)
(17.9361 1.31059 0)
(12.2179 1.77246 0)
(5.90857 2.92479 0)
(29.9988 0.000291288 0)
(29.9852 0.000887137 0)
(29.9555 0.00153686 0)
(29.9104 0.00235967 0)
(29.8514 0.00344191 0)
(29.7764 0.00489212 0)
(29.6834 0.00678492 0)
(29.5676 0.00962205 0)
(29.4233 0.0133328 0)
(29.244 0.0185018 0)
(29.0263 0.0258223 0)
(28.7487 0.0363085 0)
(28.4068 0.0497003 0)
(27.996 0.0748938 0)
(27.4192 0.105769 0)
(26.6412 0.181405 0)
(25.6194 0.276045 0)
(23.9525 0.509852 0)
(21.6885 0.786369 0)
(18.0092 1.48318 0)
(12.2947 2.00965 0)
(5.9518 3.32112 0)
(29.9988 0.000325652 0)
(29.9851 0.000991505 0)
(29.9555 0.00171758 0)
(29.9104 0.00263723 0)
(29.8515 0.00384668 0)
(29.7765 0.00546761 0)
(29.6835 0.00758318 0)
(29.5676 0.0107539 0)
(29.4234 0.0149012 0)
(29.2441 0.0206788 0)
(29.0264 0.0288589 0)
(28.7501 0.0405768 0)
(28.4093 0.0555688 0)
(27.9908 0.0835071 0)
(27.4219 0.118861 0)
(26.6392 0.202706 0)
(25.6339 0.308198 0)
(23.9845 0.567418 0)
(21.7825 0.878266 0)
(18.1127 1.65538 0)
(12.3936 2.24797 0)
(6.00297 3.72049 0)
(29.9988 0.000360015 0)
(29.9852 0.00109585 0)
(29.9555 0.00189829 0)
(29.9104 0.00291479 0)
(29.8515 0.00425142 0)
(29.7765 0.00604308 0)
(29.6835 0.00838141 0)
(29.5677 0.0118857 0)
(29.4234 0.0164695 0)
(29.2441 0.0228562 0)
(29.0265 0.0318952 0)
(28.7494 0.0448457 0)
(28.4063 0.0615093 0)
(27.9908 0.0920628 0)
(27.4227 0.13132 0)
(26.6376 0.222986 0)
(25.654 0.341183 0)
(24.0361 0.624049 0)
(21.8905 0.970007 0)
(18.2394 1.82723 0)
(12.5153 2.48782 0)
(6.06279 4.12357 0)
(29.9988 0.000394377 0)
(29.9852 0.00120016 0)
(29.9555 0.002079 0)
(29.9104 0.00319234 0)
(29.8515 0.00465613 0)
(29.7765 0.00661851 0)
(29.6835 0.00917962 0)
(29.5677 0.0130173 0)
(29.4235 0.0180378 0)
(29.2442 0.0250326 0)
(29.0266 0.0349319 0)
(28.7511 0.0491102 0)
(28.4102 0.0674507 0)
(27.9829 0.1009 0)
(27.4188 0.144915 0)
(26.6384 0.243422 0)
(25.6738 0.373617 0)
(24.0907 0.678687 0)
(21.9901 1.06071 0)
(18.3761 1.99816 0)
(12.6579 2.72938 0)
(6.13181 4.53103 0)
(29.9988 0.000428738 0)
(29.9852 0.00130445 0)
(29.9555 0.0022597 0)
(29.9104 0.00346989 0)
(29.8515 0.00506082 0)
(29.7765 0.00719392 0)
(29.6835 0.00997778 0)
(29.5677 0.0141488 0)
(29.4236 0.019606 0)
(29.2443 0.0272101 0)
(29.0267 0.0379573 0)
(28.7512 0.053428 0)
(28.4108 0.073355 0)
(27.9748 0.110006 0)
(27.4146 0.158638 0)
(26.6412 0.263203 0)
(25.689 0.405284 0)
(24.1355 0.731195 0)
(22.0719 1.14993 0)
(18.5108 2.16746 0)
(12.8173 2.9725 0)
(6.21037 4.94349 0)
(29.9988 0.000463096 0)
(29.9852 0.00140872 0)
(29.9555 0.0024404 0)
(29.9105 0.00374742 0)
(29.8515 0.00546548 0)
(29.7765 0.00776929 0)
(29.6836 0.0107759 0)
(29.5678 0.0152802 0)
(29.4236 0.0211743 0)
(29.2444 0.029389 0)
(29.0266 0.0409954 0)
(28.753 0.0577373 0)
(28.4137 0.0797522 0)
(27.9661 0.119211 0)
(27.412 0.171823 0)
(26.6441 0.282294 0)
(25.6992 0.436315 0)
(24.1681 0.782076 0)
(22.1366 1.23767 0)
(18.6364 2.33465 0)
(12.9891 3.21686 0)
(6.29846 5.3615 0)
(29.9988 0.000497452 0)
(29.9852 0.00151296 0)
(29.9555 0.0026211 0)
(29.9105 0.00402496 0)
(29.8515 0.0058701 0)
(29.7765 0.00834464 0)
(29.6836 0.0115739 0)
(29.5678 0.0164114 0)
(29.4237 0.0227426 0)
(29.2445 0.0315679 0)
(29.0262 0.0440454 0)
(28.7543 0.0619231 0)
(28.4091 0.086172 0)
(27.96 0.128091 0)
(27.4106 0.184781 0)
(26.6465 0.301158 0)
(25.7056 0.467024 0)
(24.1912 0.831874 0)
(22.1881 1.32406 0)
(18.7503 2.4994 0)
(13.169 3.46202 0)
(6.39584 5.7855 0)
(29.9988 0.000531805 0)
(29.9852 0.00161717 0)
(29.9555 0.00280181 0)
(29.9105 0.00430248 0)
(29.8516 0.00627469 0)
(29.7766 0.00891994 0)
(29.6836 0.0123718 0)
(29.5679 0.0175426 0)
(29.4238 0.0243095 0)
(29.2447 0.0337546 0)
(29.0256 0.047102 0)
(28.7546 0.0662468 0)
(28.4036 0.0925618 0)
(27.9563 0.136777 0)
(27.4099 0.197632 0)
(26.6483 0.31996 0)
(25.7095 0.497563 0)
(24.2074 0.880946 0)
(22.23 1.40918 0)
(18.8523 2.66153 0)
(13.3533 3.70752 0)
(6.50206 6.21584 0)
(29.9988 0.000566154 0)
(29.9852 0.00172136 0)
(29.9555 0.00298252 0)
(29.9105 0.00457999 0)
(29.8515 0.00667926 0)
(29.7766 0.00949522 0)
(29.6836 0.0131697 0)
(29.5679 0.0186735 0)
(29.4239 0.0258768 0)
(29.2447 0.0359404 0)
(29.0254 0.050229 0)
(28.7524 0.0706596 0)
(28.3987 0.0988203 0)
(27.9541 0.145397 0)
(27.4094 0.210466 0)
(26.6497 0.338751 0)
(25.7116 0.52799 0)
(24.2191 0.929486 0)
(22.2656 1.49314 0)
(18.9435 2.8209 0)
(13.5397 3.95294 0)
(6.61659 6.65279 0)
(29.9988 0.0006005 0)
(29.9852 0.00182552 0)
(29.9555 0.00316323 0)
(29.9105 0.00485748 0)
(29.8516 0.00708379 0)
(29.7766 0.0100704 0)
(29.6837 0.0139675 0)
(29.568 0.0198039 0)
(29.424 0.0274449 0)
(29.2447 0.0381213 0)
(29.026 0.0533887 0)
(28.7484 0.0751675 0)
(28.3955 0.10498 0)
(27.9529 0.153997 0)
(27.4092 0.223307 0)
(26.6508 0.35754 0)
(25.7127 0.558333 0)
(24.2278 0.977604 0)
(22.297 1.576 0)
(19.0258 2.97744 0)
(13.7266 4.1979 0)
(6.73885 7.09657 0)
(29.9988 0.000634841 0)
(29.9852 0.00192965 0)
(29.9555 0.00334395 0)
(29.9105 0.00513497 0)
(29.8515 0.0074883 0)
(29.7766 0.0106456 0)
(29.6837 0.0147653 0)
(29.568 0.020934 0)
(29.4242 0.0290136 0)
(29.2446 0.040309 0)
(29.0268 0.0565486 0)
(28.7444 0.0795473 0)
(28.3933 0.111117 0)
(27.9522 0.16259 0)
(27.409 0.236149 0)
(26.6518 0.376329 0)
(25.7131 0.588611 0)
(24.2347 1.02536 0)
(22.3259 1.65784 0)
(19.1009 3.13111 0)
(13.9131 4.44206 0)
(6.8683 7.54736 0)
(29.9988 0.000669178 0)
(29.9852 0.00203376 0)
(29.9555 0.00352468 0)
(29.9105 0.00541244 0)
(29.8516 0.00789277 0)
(29.7767 0.0112207 0)
(29.6838 0.015563 0)
(29.5681 0.0220636 0)
(29.4243 0.0305841 0)
(29.2447 0.0425054 0)
(29.0273 0.0597637 0)
(28.7412 0.0838349 0)
(28.392 0.117235 0)
(27.9518 0.171193 0)
(27.4089 0.248992 0)
(26.6526 0.395122 0)
(25.7132 0.618837 0)
(24.2406 1.07279 0)
(22.3535 1.73869 0)
(19.1704 3.28187 0)
(14.0992 4.68512 0)
(7.00447 8.00532 0)
(29.9988 0.000703511 0)
(29.9852 0.00213784 0)
(29.9555 0.00370541 0)
(29.9105 0.0056899 0)
(29.8516 0.00829722 0)
(29.7767 0.0117957 0)
(29.6838 0.0163606 0)
(29.5682 0.0231929 0)
(29.4243 0.0321539 0)
(29.2452 0.0447186 0)
(29.0264 0.0630056 0)
(28.739 0.0881148 0)
(28.3912 0.123355 0)
(27.9516 0.179797 0)
(27.409 0.261828 0)
(26.6535 0.413921 0)
(25.7133 0.649022 0)
(24.2463 1.11989 0)
(22.3807 1.81859 0)
(19.236 3.42973 0)
(14.285 4.92685 0)
(7.14697 8.4706 0)
(29.9988 0.000737839 0)
(29.9852 0.00224189 0)
(29.9555 0.00388615 0)
(29.9105 0.00596734 0)
(29.8516 0.00870163 0)
(29.7767 0.0123707 0)
(29.6839 0.0171579 0)
(29.5683 0.0243228 0)
(29.4243 0.0337184 0)
(29.2461 0.046993 0)
(29.0238 0.0662482 0)
(28.7375 0.0924068 0)
(28.3906 0.129472 0)
(27.9516 0.188405 0)
(27.409 0.274661 0)
(26.6544 0.432727 0)
(25.7137 0.679176 0)
(24.2521 1.16665 0)
(22.4082 1.89757 0)
(19.299 3.57469 0)
(14.4713 5.16704 0)
(7.29553 8.94334 0)
(29.9988 0.000772161 0)
(29.9852 0.00234592 0)
(29.9555 0.0040669 0)
(29.9105 0.00624477 0)
(29.8516 0.00910599 0)
(29.7767 0.0129456 0)
(29.6839 0.017955 0)
(29.5684 0.0254532 0)
(29.4242 0.0352783 0)
(29.2471 0.0493183 0)
(29.021 0.0694711 0)
(28.7365 0.0967222 0)
(28.3903 0.135593 0)
(27.9516 0.197009 0)
(27.4093 0.287486 0)
(26.6556 0.451537 0)
(25.7146 0.7093 0)
(24.2584 1.21302 0)
(22.4363 1.97566 0)
(19.3604 3.71676 0)
(14.6588 5.40551 0)
(7.44997 9.42373 0)
(29.9988 0.000806479 0)
(29.9852 0.00244991 0)
(29.9555 0.00424766 0)
(29.9105 0.00652218 0)
(29.8517 0.00951031 0)
(29.7768 0.0135205 0)
(29.6839 0.0187518 0)
(29.5685 0.0265843 0)
(29.4242 0.0368326 0)
(29.2477 0.0516809 0)
(29.0187 0.0725858 0)
(28.7358 0.10105 0)
(28.3901 0.141711 0)
(27.9518 0.205613 0)
(27.4096 0.300305 0)
(26.657 0.470347 0)
(25.7163 0.739385 0)
(24.2654 1.25899 0)
(22.4652 2.05288 0)
(19.4212 3.8559 0)
(14.8486 5.64211 0)
(7.61022 9.91192 0)
(29.9988 0.000840791 0)
(29.9852 0.00255389 0)
(29.9555 0.00442842 0)
(29.9105 0.00679957 0)
(29.8516 0.00991458 0)
(29.7768 0.0140954 0)
(29.6839 0.0195481 0)
(29.5685 0.0277158 0)
(29.4243 0.038382 0)
(29.2479 0.0540292 0)
(29.0171 0.0756281 0)
(28.7354 0.105383 0)
(28.3901 0.147828 0)
(27.952 0.214213 0)
(27.4101 0.313116 0)
(26.6587 0.48915 0)
(25.719 0.769405 0)
(24.2734 1.30454 0)
(22.495 2.12925 0)
(19.4822 3.99211 0)
(15.042 5.87672 0)
(7.77628 10.4081 0)
(29.9988 0.000875098 0)
(29.9852 0.00265783 0)
(29.9555 0.00460919 0)
(29.9106 0.00707694 0)
(29.8517 0.0103188 0)
(29.7768 0.0146702 0)
(29.684 0.0203446 0)
(29.5686 0.0288458 0)
(29.4246 0.0399463 0)
(29.2477 0.0563583 0)
(29.0161 0.0786426 0)
(28.7351 0.109718 0)
(28.3901 0.153943 0)
(27.9523 0.222811 0)
(27.4108 0.325915 0)
(26.6608 0.507932 0)
(25.7227 0.799335 0)
(24.2823 1.34968 0)
(22.5256 2.20478 0)
(19.5439 4.12532 0)
(15.2402 6.10923 0)
(7.94828 10.9126 0)
(29.9988 0.000909399 0)
(29.9852 0.00276175 0)
(29.9555 0.00478996 0)
(29.9106 0.00735429 0)
(29.8516 0.010723 0)
(29.7768 0.0152449 0)
(29.684 0.021141 0)
(29.5686 0.0299764 0)
(29.4249 0.0415204 0)
(29.2468 0.0587863 0)
(29.0154 0.0816661 0)
(28.735 0.114052 0)
(28.3901 0.160054 0)
(27.9527 0.231403 0)
(27.4117 0.338698 0)
(26.6634 0.526678 0)
(25.7275 0.829161 0)
(24.2922 1.39442 0)
(22.557 2.27947 0)
(19.6068 4.25544 0)
(15.4444 6.33954 0)
(8.1264 11.4255 0)
(29.9988 0.000943695 0)
(29.9852 0.00286563 0)
(29.9555 0.00497074 0)
(29.9106 0.00763161 0)
(29.8517 0.0111272 0)
(29.7769 0.0158194 0)
(29.6842 0.0219372 0)
(29.5686 0.0311058 0)
(29.4255 0.0431059 0)
(29.2453 0.0611843 0)
(29.0149 0.0847153 0)
(28.7349 0.118385 0)
(28.3902 0.166162 0)
(27.9532 0.239988 0)
(27.4128 0.351458 0)
(26.6664 0.545374 0)
(25.7333 0.858876 0)
(24.3032 1.43879 0)
(22.5891 2.35332 0)
(19.671 4.38237 0)
(15.6558 6.56756 0)
(8.31091 11.9472 0)
(29.9988 0.000977985 0)
(29.9852 0.00296949 0)
(29.9555 0.00515153 0)
(29.9106 0.0079089 0)
(29.8517 0.0115314 0)
(29.7769 0.0163937 0)
(29.6842 0.0227343 0)
(29.5686 0.0322298 0)
(29.4261 0.0447495 0)
(29.2437 0.0634426 0)
(29.0146 0.0877906 0)
(28.7349 0.122717 0)
(28.3904 0.172267 0)
(27.9537 0.248565 0)
(27.4141 0.36419 0)
(26.6699 0.564009 0)
(25.74 0.888479 0)
(24.3154 1.48277 0)
(22.622 2.42632 0)
(19.7368 4.50598 0)
(15.8755 6.7932 0)
(8.50211 12.4781 0)
(29.9988 0.00101227 0)
(29.9852 0.00307332 0)
(29.9555 0.00533232 0)
(29.9106 0.00818615 0)
(29.8518 0.0119355 0)
(29.777 0.0169678 0)
(29.6843 0.0235314 0)
(29.5686 0.033352 0)
(29.4266 0.0464208 0)
(29.2422 0.0656773 0)
(29.0144 0.0908835 0)
(28.735 0.127047 0)
(28.3906 0.178368 0)
(27.9543 0.257132 0)
(27.4156 0.37689 0)
(26.6737 0.582576 0)
(25.7476 0.917967 0)
(24.3288 1.52638 0)
(22.6556 2.49848 0)
(19.804 4.6261 0)
(16.1042 7.01636 0)
(8.70035 13.0184 0)
(29.9988 0.00104655 0)
(29.9853 0.00317713 0)
(29.9556 0.00551311 0)
(29.9106 0.00846338 0)
(29.8517 0.0123396 0)
(29.7769 0.0175417 0)
(29.6844 0.0243285 0)
(29.5686 0.034473 0)
(29.4271 0.0481056 0)
(29.2411 0.0679025 0)
(29.0143 0.0939849 0)
(28.7351 0.131375 0)
(28.3908 0.184464 0)
(27.955 0.265687 0)
(27.4173 0.389554 0)
(26.678 0.60107 0)
(25.7559 0.94733 0)
(24.3434 1.56962 0)
(22.6899 2.56978 0)
(19.8725 4.74257 0)
(16.3423 7.23693 0)
(8.90596 13.5685 0)
(29.9988 0.00108082 0)
(29.9852 0.0032809 0)
(29.9556 0.00569391 0)
(29.9106 0.00874057 0)
(29.8518 0.0127437 0)
(29.777 0.0181155 0)
(29.6845 0.0251258 0)
(29.5687 0.0355925 0)
(29.4274 0.0498034 0)
(29.2404 0.0701067 0)
(29.0143 0.0970899 0)
(28.7352 0.135701 0)
(28.3911 0.190556 0)
(27.9557 0.274227 0)
(27.4192 0.40218 0)
(26.6826 0.619484 0)
(25.7651 0.976559 0)
(24.3594 1.61249 0)
(22.7251 2.64023 0)
(19.9422 4.85522 0)
(16.5902 7.45482 0)
(9.1193 14.1288 0)
(29.9988 0.00111509 0)
(29.9853 0.00338465 0)
(29.9556 0.00587471 0)
(29.9106 0.00901773 0)
(29.8518 0.0131477 0)
(29.777 0.0186891 0)
(29.6845 0.0259228 0)
(29.5687 0.0367113 0)
(29.4275 0.0515096 0)
(29.2399 0.0722968 0)
(29.0144 0.100196 0)
(28.7354 0.140026 0)
(28.3914 0.196644 0)
(27.9565 0.282752 0)
(27.4213 0.414764 0)
(26.6875 0.637813 0)
(25.775 1.00564 0)
(24.3768 1.65499 0)
(22.7611 2.70983 0)
(20.0128 4.96389 0)
(16.8476 7.66988 0)
(9.34068 14.6996 0)
(29.9988 0.00114935 0)
(29.9852 0.00348837 0)
(29.9556 0.0060555 0)
(29.9106 0.00929485 0)
(29.8519 0.0135517 0)
(29.7771 0.0192627 0)
(29.6846 0.0267192 0)
(29.5689 0.0378301 0)
(29.4275 0.0532218 0)
(29.2397 0.0744754 0)
(29.0145 0.103303 0)
(28.7356 0.144349 0)
(28.3917 0.202726 0)
(27.9574 0.29126 0)
(27.4235 0.427306 0)
(26.6926 0.656051 0)
(25.7856 1.03456 0)
(24.3955 1.69712 0)
(22.7981 2.77859 0)
(20.0845 5.06841 0)
(17.1144 7.88199 0)
(9.5704 15.2815 0)
(29.9988 0.00118361 0)
(29.9853 0.00359207 0)
(29.9556 0.00623629 0)
(29.9106 0.00957196 0)
(29.8518 0.0139555 0)
(29.7771 0.0198364 0)
(29.6846 0.0275152 0)
(29.5691 0.0389435 0)
(29.4273 0.0549379 0)
(29.2397 0.0766462 0)
(29.0146 0.10641 0)
(28.7358 0.148671 0)
(28.3921 0.208802 0)
(27.9583 0.299751 0)
(27.4258 0.439804 0)
(26.698 0.674191 0)
(25.7969 1.0633 0)
(24.4156 1.73886 0)
(22.8363 2.84652 0)
(20.1573 5.16864 0)
(17.3903 8.09101 0)
(9.80871 15.8748 0)
(29.9988 0.00121787 0)
(29.9853 0.00369574 0)
(29.9556 0.00641708 0)
(29.9107 0.00984899 0)
(29.8519 0.0143596 0)
(29.7772 0.020409 0)
(29.6847 0.0283149 0)
(29.5694 0.0400518 0)
(29.4269 0.0565614 0)
(29.2397 0.0788102 0)
(29.0148 0.109517 0)
(28.736 0.152992 0)
(28.3924 0.214873 0)
(27.9593 0.308223 0)
(27.4282 0.452255 0)
(26.7037 0.692228 0)
(25.8088 1.09184 0)
(24.4372 1.78022 0)
(22.8757 2.91361 0)
(20.2313 5.26443 0)
(17.6752 8.29678 0)
(10.0558 16.4798 0)
(29.9988 0.00125211 0)
(29.9853 0.00379938 0)
(29.9556 0.00659785 0)
(29.9107 0.0101261 0)
(29.8518 0.014763 0)
(29.7772 0.0209838 0)
(29.6846 0.0291026 0)
(29.5697 0.0412323 0)
(29.4257 0.0579099 0)
(29.2399 0.0809767 0)
(29.015 0.112625 0)
(28.7363 0.157312 0)
(28.3928 0.220937 0)
(27.9603 0.316677 0)
(27.4307 0.464659 0)
(26.7095 0.710154 0)
(25.8214 1.12019 0)
(24.4601 1.82119 0)
(22.9167 2.97988 0)
(20.3068 5.35566 0)
(17.969 8.49916 0)
(10.312 17.097 0)
(29.9988 0.00128636 0)
(29.9853 0.003903 0)
(29.9556 0.00677861 0)
(29.9107 0.0104031 0)
(29.852 0.0151667 0)
(29.7773 0.0215565 0)
(29.6845 0.029901 0)
(29.5707 0.0423588 0)
(29.4224 0.059934 0)
(29.24 0.0831699 0)
(29.0152 0.115732 0)
(28.7366 0.16163 0)
(28.3932 0.226996 0)
(27.9613 0.325111 0)
(27.4333 0.477013 0)
(26.7156 0.727965 0)
(25.8346 1.14831 0)
(24.4843 1.86175 0)
(22.9594 3.04531 0)
(20.3839 5.44218 0)
(18.2719 8.69799 0)
(10.5775 17.7268 0)
(29.9988 0.00132059 0)
(29.9853 0.00400658 0)
(29.9556 0.00695938 0)
(29.9107 0.01068 0)
(29.8519 0.0155704 0)
(29.7774 0.02213 0)
(29.6844 0.0306885 0)
(29.5714 0.0435594 0)
(29.4201 0.0617793 0)
(29.2402 0.085383 0)
(29.0154 0.11884 0)
(28.7368 0.165948 0)
(28.3936 0.233049 0)
(27.9623 0.333525 0)
(27.436 0.489316 0)
(26.7218 0.745655 0)
(25.8482 1.17619 0)
(24.5098 1.90188 0)
(23.0042 3.1099 0)
(20.4627 5.52386 0)
(18.5845 8.89311 0)
(10.8524 18.3697 0)
(29.9988 0.00135483 0)
(29.9853 0.00411014 0)
(29.9556 0.00714006 0)
(29.9107 0.0109572 0)
(29.852 0.0159725 0)
(29.7775 0.0227099 0)
(29.6845 0.0314507 0)
(29.5715 0.0447831 0)
(29.4191 0.0633111 0)
(29.2403 0.0875985 0)
(29.0157 0.121947 0)
(28.7371 0.170264 0)
(28.394 0.239095 0)
(27.9634 0.341919 0)
(27.4387 0.501566 0)
(26.7282 0.763218 0)
(25.8624 1.20383 0)
(24.5365 1.94156 0)
(23.0512 3.17364 0)
(20.543 5.60058 0)
(18.9066 9.08437 0)
(11.137 19.026 0)
(29.9988 0.00138906 0)
(29.9853 0.00421369 0)
(29.9556 0.00732079 0)
(29.9107 0.0112339 0)
(29.8519 0.0163765 0)
(29.7774 0.0232781 0)
(29.6847 0.0322896 0)
(29.5706 0.0456442 0)
(29.4185 0.0647877 0)
(29.2405 0.0898098 0)
(29.0159 0.125053 0)
(28.7374 0.174578 0)
(28.3944 0.245135 0)
(27.9644 0.350291 0)
(27.4415 0.51376 0)
(26.7348 0.78065 0)
(25.8771 1.23121 0)
(24.5643 1.98077 0)
(23.101 3.23655 0)
(20.6242 5.67219 0)
(19.2377 9.27163 0)
(11.4317 19.6962 0)
(29.9988 0.00142328 0)
(29.9853 0.00431725 0)
(29.9556 0.00750153 0)
(29.9107 0.0115109 0)
(29.8521 0.0167797 0)
(29.7772 0.0238529 0)
(29.6862 0.0330948 0)
(29.5648 0.0470901 0)
(29.4182 0.0662952 0)
(29.2406 0.0920178 0)
(29.0161 0.128159 0)
(28.7376 0.178892 0)
(28.3948 0.251168 0)
(27.9655 0.358641 0)
(27.4443 0.5259 0)
(26.7415 0.797947 0)
(25.8921 1.25831 0)
(24.5932 2.01946 0)
(23.1538 3.29863 0)
(20.7056 5.7386 0)
(19.5746 9.4549 0)
(11.7364 20.3814 0)
(29.9988 0.00145734 0)
(29.9853 0.0044207 0)
(29.9556 0.00768242 0)
(29.9107 0.0117877 0)
(29.8521 0.0171843 0)
(29.7769 0.0244209 0)
(29.6874 0.0339301 0)
(29.5608 0.048553 0)
(29.4179 0.0678344 0)
(29.2407 0.0942265 0)
(29.0163 0.131264 0)
(28.7379 0.183204 0)
(28.3951 0.257195 0)
(27.9666 0.366968 0)
(27.4472 0.53798 0)
(26.7483 0.815105 0)
(25.9074 1.28513 0)
(24.6228 2.0576 0)
(23.2102 3.35988 0)
(20.7867 5.79981 0)
(19.9103 9.63386 0)
(12.0509 21.0892 0)
(29.9988 0.00149086 0)
(29.9853 0.00452292 0)
(29.9556 0.00786183 0)
(29.9107 0.0120626 0)
(29.8523 0.0175887 0)
(29.7769 0.0249759 0)
(29.6877 0.0348305 0)
(29.5594 0.0497082 0)
(29.4177 0.069378 0)
(29.2407 0.096432 0)
(29.0164 0.134369 0)
(28.7381 0.187517 0)
(28.3955 0.263215 0)
(27.9676 0.375268 0)
(27.4501 0.55 0)
(26.7553 0.832121 0)
(25.923 1.31165 0)
(24.6532 2.0951 0)
(23.2705 3.42035 0)
(20.8673 5.8559 0)
(20.2335 9.80648 0)
(12.4615 21.8408 0)
(1.03334 -0.0113646 0)
(-0.0968921 0.0199251 0)
(-0.794663 0.00727941 0)
(-0.809916 0.0014311 0)
(-0.945665 -0.00202763 0)
(-0.561013 -0.00308998 0)
(-0.556292 -0.00127627 0)
(-0.385494 -0.000265182 0)
(-0.525285 0.000295452 0)
(-0.425437 0.000227901 0)
(-0.56582 0.000872002 0)
(-0.559779 -9.47721e-06 0)
(-0.58927 -0.000753821 0)
(-0.40762 -0.00205921 0)
(-0.101891 -0.00308077 0)
(0.412109 -0.00372863 0)
(0.964956 -0.00409125 0)
(1.6578 -0.00501945 0)
(2.59754 -0.00614239 0)
(3.81769 -0.00692028 0)
(5.2693 -0.00710842 0)
(6.81744 -0.00671402 0)
(8.34273 -0.00600956 0)
(9.79903 -0.00527751 0)
(11.1764 -0.0046268 0)
(12.4885 -0.00409187 0)
(13.7535 -0.00366361 0)
(14.9867 -0.00331916 0)
(16.2022 -0.00300283 0)
(17.384 -0.00277361 0)
(18.6065 -0.0025763 0)
(19.8013 -0.0017073 0)
(20.3274 -0.00275752 0)
(22.8496 -0.00746929 0)
(29.3636 -0.00519799 0)
(1.03803 -0.0344006 0)
(-0.0868892 0.0596244 0)
(-0.783806 0.0216862 0)
(-0.793513 0.00435857 0)
(-0.930137 -0.00611412 0)
(-0.545808 -0.00916552 0)
(-0.544196 -0.00381888 0)
(-0.374466 -0.000722049 0)
(-0.520558 0.000889282 0)
(-0.423372 0.000623149 0)
(-0.559917 0.00244515 0)
(-0.538431 -7.86599e-05 0)
(-0.563148 -0.00199313 0)
(-0.40026 -0.00583821 0)
(-0.119255 -0.009149 0)
(0.398023 -0.0112663 0)
(0.974902 -0.0122218 0)
(1.68118 -0.0147033 0)
(2.60942 -0.0179332 0)
(3.80896 -0.0204225 0)
(5.24957 -0.0212139 0)
(6.80098 -0.0201345 0)
(8.33697 -0.0180472 0)
(9.79874 -0.0158426 0)
(11.176 -0.0138806 0)
(12.4864 -0.0122689 0)
(13.7494 -0.0109745 0)
(14.9806 -0.00993844 0)
(16.1957 -0.00899652 0)
(17.3768 -0.0083058 0)
(18.5958 -0.00772817 0)
(19.7947 -0.00516744 0)
(20.3455 -0.00800171 0)
(22.6878 -0.0222816 0)
(29.3176 -0.0158154 0)
(1.04383 -0.0578485 0)
(-0.07627 0.0991764 0)
(-0.771504 0.035847 0)
(-0.772572 0.00724895 0)
(-0.906412 -0.0103329 0)
(-0.523279 -0.0151311 0)
(-0.525209 -0.00634306 0)
(-0.358003 -0.00103012 0)
(-0.50907 0.0016119 0)
(-0.411741 0.0010831 0)
(-0.544773 0.00393496 0)
(-0.508253 -0.000507052 0)
(-0.535663 -0.00325377 0)
(-0.398024 -0.00925166 0)
(-0.13704 -0.0148863 0)
(0.392298 -0.0187998 0)
(0.996334 -0.0204557 0)
(1.71326 -0.0242635 0)
(2.62658 -0.0294202 0)
(3.80619 -0.0336501 0)
(5.24121 -0.0352426 0)
(6.79963 -0.033619 0)
(8.34687 -0.0301278 0)
(9.81443 -0.0263972 0)
(11.1914 -0.0230966 0)
(12.4996 -0.0204072 0)
(13.7602 -0.0182584 0)
(14.9884 -0.0165467 0)
(16.2019 -0.0149863 0)
(17.3813 -0.0138196 0)
(18.5961 -0.0128711 0)
(19.797 -0.00867364 0)
(20.3724 -0.0130171 0)
(22.5477 -0.0369764 0)
(29.2738 -0.0265351 0)
(1.05093 -0.0816918 0)
(-0.0652176 0.138633 0)
(-0.757583 0.049773 0)
(-0.746493 0.00988653 0)
(-0.874578 -0.014602 0)
(-0.493192 -0.0210107 0)
(-0.499304 -0.00876087 0)
(-0.335278 -0.00125023 0)
(-0.489967 0.00236327 0)
(-0.392152 0.00148232 0)
(-0.522785 0.00522119 0)
(-0.471438 -0.00099704 0)
(-0.504173 -0.00421919 0)
(-0.392691 -0.0123248 0)
(-0.149524 -0.0207241 0)
(0.394258 -0.0268403 0)
(1.02758 -0.0291581 0)
(1.75556 -0.0340014 0)
(2.65282 -0.0408916 0)
(3.81365 -0.0468704 0)
(5.24645 -0.0493338 0)
(6.81422 -0.0472081 0)
(8.37378 -0.0422938 0)
(9.84758 -0.0369866 0)
(11.2243 -0.0323157 0)
(12.5298 -0.0285389 0)
(13.787 -0.0255302 0)
(15.0111 -0.0231432 0)
(16.2218 -0.0209688 0)
(17.3984 -0.0193209 0)
(18.6081 -0.0180091 0)
(19.8087 -0.0122319 0)
(20.4085 -0.0177834 0)
(22.4286 -0.0515096 0)
(29.2318 -0.0374313 0)
(1.05943 -0.105967 0)
(-0.0538728 0.177932 0)
(-0.74188 0.0633585 0)
(-0.714982 0.0121268 0)
(-0.835029 -0.0189436 0)
(-0.455816 -0.0267831 0)
(-0.467036 -0.01105 0)
(-0.306514 -0.00139127 0)
(-0.463649 0.00314808 0)
(-0.365351 0.00184585 0)
(-0.493236 0.00629972 0)
(-0.426733 -0.00155989 0)
(-0.467236 -0.00490447 0)
(-0.382933 -0.0150328 0)
(-0.155301 -0.0265398 0)
(0.405917 -0.0352246 0)
(1.0723 -0.0382054 0)
(1.8132 -0.0437865 0)
(2.69265 -0.0522318 0)
(3.83469 -0.0600174 0)
(5.26788 -0.0634818 0)
(6.8474 -0.0609101 0)
(8.42076 -0.0545458 0)
(9.90144 -0.0476038 0)
(11.2778 -0.0415246 0)
(12.5796 -0.0366483 0)
(13.8323 -0.0327771 0)
(15.0506 -0.0297192 0)
(16.2572 -0.0269365 0)
(17.4296 -0.0248025 0)
(18.6329 -0.0231329 0)
(19.8307 -0.0158335 0)
(20.4547 -0.0223334 0)
(22.3298 -0.0658888 0)
(29.1914 -0.0484412 0)
(1.06931 -0.13072 0)
(-0.0423404 0.217072 0)
(-0.724207 0.0764901 0)
(-0.677612 0.0138749 0)
(-0.787841 -0.0234012 0)
(-0.411196 -0.0324337 0)
(-0.428584 -0.0132005 0)
(-0.271639 -0.00146133 0)
(-0.430255 0.00395349 0)
(-0.331746 0.00216852 0)
(-0.455676 0.0071564 0)
(-0.37345 -0.0021788 0)
(-0.423869 -0.00527238 0)
(-0.367405 -0.0173678 0)
(-0.152898 -0.0323374 0)
(0.429166 -0.0439352 0)
(1.13399 -0.0475692 0)
(1.89192 -0.0535545 0)
(2.75217 -0.0633674 0)
(3.87443 -0.0730602 0)
(5.30983 -0.0776929 0)
(6.9037 -0.0747364 0)
(8.49301 -0.0668891 0)
(9.98144 -0.058248 0)
(11.3569 -0.0507164 0)
(12.6537 -0.0447245 0)
(13.8998 -0.0399871 0)
(15.1103 -0.036264 0)
(16.3108 -0.0328802 0)
(17.4771 -0.030256 0)
(18.6723 -0.0282324 0)
(19.8643 -0.0194719 0)
(20.5123 -0.0266843 0)
(22.2505 -0.080106 0)
(29.1525 -0.0595281 0)
(1.08044 -0.155989 0)
(-0.0306856 0.25605 0)
(-0.704324 0.0890479 0)
(-0.633697 0.015038 0)
(-0.732709 -0.0280057 0)
(-0.359065 -0.0379435 0)
(-0.383695 -0.0152014 0)
(-0.230273 -0.00146944 0)
(-0.389526 0.00477174 0)
(-0.291211 0.00244148 0)
(-0.409605 0.00776912 0)
(-0.310962 -0.00283375 0)
(-0.372918 -0.00530873 0)
(-0.344594 -0.0193604 0)
(-0.141247 -0.0381758 0)
(0.465118 -0.0530338 0)
(1.21521 -0.0573048 0)
(1.99755 -0.0633212 0)
(2.83906 -0.0742782 0)
(3.94002 -0.085992 0)
(5.37877 -0.0919832 0)
(6.99013 -0.0887084 0)
(8.59858 -0.0793376 0)
(10.0962 -0.0689215 0)
(11.4698 -0.0598826 0)
(12.7588 -0.0527531 0)
(13.9953 -0.0471449 0)
(15.1948 -0.0427644 0)
(16.3867 -0.0387893 0)
(17.5443 -0.0356716 0)
(18.7291 -0.0332964 0)
(19.9115 -0.0231392 0)
(20.583 -0.0308485 0)
(22.1905 -0.0941423 0)
(29.1149 -0.0706643 0)
(1.09246 -0.181806 0)
(-0.018932 0.294849 0)
(-0.681922 0.100895 0)
(-0.582354 0.0155131 0)
(-0.669111 -0.0327741 0)
(-0.298979 -0.0432867 0)
(-0.331797 -0.0170398 0)
(-0.181792 -0.00142536 0)
(-0.340826 0.0055971 0)
(-0.243097 0.0026534 0)
(-0.35412 0.0081224 0)
(-0.238182 -0.00352719 0)
(-0.312593 -0.00500737 0)
(-0.312593 -0.0210353 0)
(-0.119246 -0.0441137 0)
(0.514731 -0.062617 0)
(1.31808 -0.067525 0)
(2.13591 -0.0731552 0)
(2.96266 -0.0849679 0)
(4.04108 -0.098806 0)
(5.48397 -0.10637 0)
(7.11697 -0.102856 0)
(8.74949 -0.0919113 0)
(10.2588 -0.0796273 0)
(11.6292 -0.0690096 0)
(12.906 -0.0607107 0)
(14.1275 -0.0542273 0)
(15.3113 -0.0492017 0)
(16.4908 -0.0446493 0)
(17.6362 -0.0410358 0)
(18.8072 -0.03831 0)
(19.975 -0.0268255 0)
(20.669 -0.0348337 0)
(22.1502 -0.107976 0)
(29.0787 -0.081822 0)
(1.10483 -0.208193 0)
(-0.00706169 0.333432 0)
(-0.656603 0.111872 0)
(-0.522657 0.0151894 0)
(-0.59653 -0.0377135 0)
(-0.230508 -0.0484385 0)
(-0.272148 -0.0187061 0)
(-0.125411 -0.00134107 0)
(-0.283211 0.00642114 0)
(-0.186302 0.00278829 0)
(-0.287743 0.00818261 0)
(-0.153358 -0.0042628 0)
(-0.240346 -0.00436433 0)
(-0.268898 -0.0223959 0)
(-0.085132 -0.050188 0)
(0.579807 -0.0727852 0)
(1.44552 -0.0783824 0)
(2.31368 -0.0831825 0)
(3.1346 -0.095475 0)
(4.19048 -0.111497 0)
(5.63839 -0.120873 0)
(7.29877 -0.117221 0)
(8.96286 -0.104644 0)
(10.4887 -0.0903721 0)
(11.8545 -0.0780757 0)
(13.112 -0.0685599 0)
(14.3095 -0.0611964 0)
(15.4696 -0.0555474 0)
(16.6311 -0.0504393 0)
(17.7597 -0.0463301 0)
(18.912 -0.0432529 0)
(20.0585 -0.0305166 0)
(20.7733 -0.0386435 0)
(22.1307 -0.121583 0)
(29.0439 -0.0929715 0)
(1.11677 -0.235157 0)
(0.0049861 0.371741 0)
(-0.62785 0.121804 0)
(-0.453826 0.013954 0)
(-0.514631 -0.0428208 0)
(-0.153413 -0.0533799 0)
(-0.203976 -0.0201971 0)
(-0.0602766 -0.00123225 0)
(-0.21551 0.00723022 0)
(-0.11936 0.00282272 0)
(-0.208401 0.00791595 0)
(-0.0540956 -0.00506508 0)
(-0.152924 -0.00338289 0)
(-0.21027 -0.0234352 0)
(-0.0360743 -0.0564184 0)
(0.663635 -0.083634 0)
(1.60248 -0.0900611 0)
(2.53981 -0.0935937 0)
(3.37005 -0.10589 0)
(4.40557 -0.124077 0)
(5.85985 -0.135525 0)
(7.55524 -0.13187 0)
(9.26167 -0.117594 0)
(10.8129 -0.101176 0)
(12.1741 -0.0870521 0)
(13.4021 -0.0762419 0)
(14.5609 -0.0679917 0)
(15.6843 -0.0617561 0)
(16.819 -0.0561286 0)
(17.9241 -0.0515283 0)
(19.0511 -0.0480966 0)
(20.1669 -0.0341921 0)
(20.8995 -0.0422771 0)
(22.1346 -0.134934 0)
(29.0108 -0.10408 0)
(1.12729 -0.262684 0)