/*--------------------------------*- C++ -*----------------------------------*\
| =========                 |                                                 |
| \\      /  F ield         | OpenFOAM: The Open Source CFD Toolbox           |
|  \\    /   O peration     | Version:  v1912                                 |
|   \\  /    A nd           | Website:  www.openfoam.com                      |
|    \\/     M anipulation  |                                                 |
\*---------------------------------------------------------------------------*/
FoamFile
{
    version     2.0;
    format      ascii;
    class       volScalarField;
    location    "590";
    object      yPlus;
}
// * * * * * * * * * * * * * * * * * * * * * * * * * * * * * * * * * * * * * //

dimensions      [0 0 0 0 0 0 0];


internalField   uniform 0;

boundaryField
{
    inlet
    {
        type            calculated;
        value           uniform 0;
    }
    outlet
    {
        type            calculated;
        value           uniform 0;
    }
    lowerSymmetry
    {
        type            symmetryPlane;
    }
    obstical
    {
        type            calculated;
        value           nonuniform List<scalar> 
88
(
476.721
478.938
483.328
489.881
498.532
509.195
521.783
536.207
552.385
570.239
589.696
610.685
633.127
656.934
682.013
708.269
735.612
763.959
793.237
823.385
854.354
886.104
918.606
951.842
985.8
1020.48
1055.87
1092.01
1128.88
1166.52
1204.95
1244.17
1284.23
1325.13
1366.9
1409.56
1453.13
1497.64
1543.09
1589.53
1636.97
1685.47
1735.44
1790.83
101.389
101.829
102.405
103.137
104.032
105.09
106.298
107.628
109.036
110.457
111.814
113.011
113.944
114.504
114.582
114.084
112.936
111.096
108.562
105.375
101.618
97.419
92.9445
88.4034
84.0476
80.1717
77.1035
75.1759
74.6756
75.7824
78.5303
82.8183
88.4631
95.2615
103.038
111.67
121.182
131.729
143.575
157.076
172.621
190.521
211.069
235.109
)
;
    }
    obsticalTop
    {
        type            calculated;
        value           nonuniform List<scalar> 
20
(
53.4285
38.8728
47.1967
53.2645
56.0941
57.7155
58.3063
57.9834
57.0184
55.5417
53.5265
50.8597
47.443
43.084
37.7516
30.8076
24.3686
14.8255
13.2928
11.2692
)
;
    }
    top
    {
        type            calculated;
        value           uniform 0;
    }
    defaultFaces
    {
        type            empty;
    }
}


// ************************************************************************* //
