/*--------------------------------*- C++ -*----------------------------------*\
| =========                 |                                                 |
| \\      /  F ield         | OpenFOAM: The Open Source CFD Toolbox           |
|  \\    /   O peration     | Version:  v1912                                 |
|   \\  /    A nd           | Website:  www.openfoam.com                      |
|    \\/     M anipulation  |                                                 |
\*---------------------------------------------------------------------------*/
FoamFile
{
    version     2.0;
    format      ascii;
    class       volScalarField;
    location    "100";
    object      k;
}
// * * * * * * * * * * * * * * * * * * * * * * * * * * * * * * * * * * * * * //

dimensions      [0 2 -2 0 0 0 0];


internalField   nonuniform List<scalar> 
10000
(
7.18851e-11
6.36353e-11
7.27597e-11
7.81149e-11
1.18613e-10
1.44539e-10
2.86246e-10
3.7682e-10
8.4338e-10
1.16969e-09
2.78104e-09
3.99024e-09
9.67936e-09
1.42602e-08
3.39675e-08
5.06801e-08
1.13917e-07
2.04985e-07
3.20029e-07
7.62738e-07
1.14784e-10
1.11376e-10
1.34105e-10
1.53364e-10
2.89295e-10
3.78888e-10
9.08798e-10
1.26872e-09
3.17006e-09
4.55273e-09
1.11809e-08
1.62374e-08
3.84944e-08
5.61178e-08
1.28299e-07
1.86898e-07
4.09773e-07
6.02146e-07
1.27158e-06
1.82488e-06
7.29968e-12
7.14759e-12
6.92599e-12
6.98382e-12
9.89882e-12
8.80098e-12
2.58955e-11
2.60476e-11
9.29643e-11
1.06968e-10
3.38812e-10
4.29708e-10
1.17844e-09
1.56262e-09
4.19229e-09
6.30581e-09
1.25376e-08
2.19459e-08
4.04599e-08
5.97536e-08
3.00136e-12
2.5882e-12
2.44847e-12
2.06552e-12
2.16872e-12
1.83591e-12
2.52022e-12
1.66508e-12
4.99792e-12
2.55894e-12
1.577e-11
1.12411e-11
5.45785e-11
5.3629e-11
1.97829e-10
2.53884e-10
6.04351e-10
8.9056e-10
1.55839e-09
2.1444e-09
2.80087e-12
2.46061e-12
2.08644e-12
1.97116e-12
1.50649e-12
1.45527e-12
1.45468e-12
1.21685e-12
1.26371e-12
1.04179e-12
1.71762e-12
1.1274e-12
3.20924e-12
3.21901e-12
8.93025e-12
1.97801e-11
3.20748e-11
3.9783e-11
1.62337e-09
1.68983e-09
2.76824e-12
2.412e-12
1.99063e-12
2.10905e-12
1.6141e-12
1.64632e-12
1.66093e-12
1.60903e-12
1.60384e-12
1.36835e-12
1.28291e-12
1.2388e-12
1.1661e-12
1.63061e-12
1.79945e-12
2.42083e-12
3.40912e-12
3.68448e-12
4.88431e-11
7.38564e-11
2.754e-12
2.41255e-12
2.07989e-12
2.0204e-12
1.9964e-12
1.90862e-12
1.77957e-12
1.67717e-12
1.4592e-12
1.37599e-12
1.47622e-12
1.29447e-12
1.61897e-12
1.49587e-12
1.47268e-12
1.80803e-12
1.70452e-12
1.67754e-12
3.37884e-12
4.27687e-12
2.73884e-12
2.38033e-12
1.9718e-12
2.07134e-12
1.57585e-12
1.57815e-12
1.51924e-12
1.38627e-12
1.38952e-12
1.46826e-12
1.27379e-12
1.21273e-12
1.21513e-12
1.25233e-12
1.12853e-12
1.30157e-12
1.1903e-12
1.44017e-12
1.39549e-12
1.30817e-12
2.72586e-12
2.08607e-12
1.76591e-12
1.85314e-12
1.41922e-12
1.79798e-12
1.53181e-12
1.48586e-12
1.46242e-12
1.7607e-12
1.53467e-12
1.47145e-12
1.40039e-12
1.46125e-12
1.41483e-12
1.63794e-12
1.49454e-12
1.52034e-12
1.70658e-12
1.63779e-12
2.71154e-12
2.35662e-12
2.05971e-12
1.98639e-12
2.00672e-12
2.00041e-12
1.99628e-12
1.92116e-12
1.82979e-12
1.6995e-12
1.6049e-12
1.43896e-12
1.36999e-12
1.43025e-12
1.28703e-12
1.4557e-12
1.50029e-12
1.55937e-12
2.35805e-12
2.26443e-12
2.69924e-12
2.47944e-12
1.73042e-12
1.46943e-12
1.35928e-12
1.266e-12
1.22314e-12
1.50073e-12
1.60905e-12
1.64781e-12
1.4489e-12
1.35376e-12
1.3907e-12
1.41054e-12
1.61496e-12
1.49455e-12
1.46707e-12
1.84264e-12
1.82199e-12
2.23988e-12
2.68729e-12
2.27823e-12
2.26708e-12
1.68338e-12
1.56539e-12
1.48441e-12
1.44631e-12
1.85786e-12
2.07062e-12
2.08805e-12
1.96272e-12
1.90624e-12
1.65888e-12
1.57325e-12
1.52935e-12
1.54472e-12
1.40136e-12
1.41769e-12
1.43392e-12
1.86504e-12
2.6769e-12
2.35345e-12
1.77843e-12
1.59102e-12
1.19819e-12
1.11904e-12
1.0473e-12
1.42664e-12
1.27908e-12
1.5469e-12
1.36306e-12
1.65133e-12
1.50503e-12
1.69029e-12
1.52384e-12
1.49946e-12
1.60346e-12
1.74986e-12
1.6051e-12
1.59533e-12
2.66641e-12
2.3342e-12
2.02542e-12
1.9261e-12
1.82399e-12
1.58715e-12
1.26273e-12
1.16578e-12
1.19806e-12
1.02663e-12
1.16938e-12
1.05467e-12
1.16492e-12
1.04596e-12
1.12185e-12
1.07342e-12
1.14875e-12
1.18036e-12
1.27526e-12
1.18522e-12
2.65757e-12
2.44796e-12
1.70135e-12
1.45511e-12
1.31481e-12
1.24652e-12
1.51624e-12
1.26017e-12
1.4793e-12
1.29076e-12
1.32966e-12
1.32719e-12
1.29175e-12
1.27333e-12
1.18535e-12
1.18829e-12
1.43737e-12
1.32838e-12
1.60615e-12
1.58133e-12
2.64881e-12
2.02696e-12
1.71315e-12
1.80613e-12
1.37764e-12
1.5472e-12
2.08404e-12
1.76565e-12
1.99042e-12
2.12718e-12
2.06634e-12
2.00186e-12
1.86585e-12
1.78219e-12
1.68051e-12
1.57793e-12
1.51857e-12
1.37306e-12
1.35038e-12
1.32212e-12
2.64146e-12
2.32551e-12
2.0152e-12
1.84011e-12
1.75241e-12
1.52909e-12
1.37148e-12
1.3206e-12
1.11162e-12
1.07055e-12
1.15622e-12
1.19767e-12
1.17519e-12
1.19769e-12
1.09985e-12
1.06097e-12
1.06107e-12
1.05258e-12
1.04985e-12
1.04827e-12
2.63409e-12
2.20647e-12
1.85496e-12
1.62177e-12
1.68349e-12
1.33675e-12
1.24955e-12
1.15949e-12
1.2281e-12
1.21884e-12
1.21394e-12
1.39268e-12
1.88844e-12
1.71835e-12
1.93642e-12
1.97596e-12
1.96614e-12
1.99966e-12
1.81312e-12
1.7357e-12
2.62784e-12
2.29661e-12
2.05638e-12
1.87569e-12
1.67233e-12
1.47635e-12
1.38271e-12
1.14439e-12
1.07947e-12
1.09517e-12
1.15683e-12
1.01287e-12
1.05708e-12
1.12629e-12
1.08324e-12
1.23944e-12
1.10352e-12
1.78392e-12
1.82835e-12
1.9136e-12
2.62172e-12
2.28465e-12
1.96993e-12
1.92079e-12
1.59113e-12
1.56782e-12
1.26031e-12
1.37482e-12
1.1788e-12
1.2575e-12
1.09244e-12
1.06268e-12
1.02543e-12
1.26598e-12
1.19537e-12
1.18905e-12
1.20008e-12
1.19981e-12
1.22236e-12
1.23326e-12
2.61663e-12
2.32511e-12
1.99781e-12
1.65825e-12
1.43505e-12
1.36963e-12
1.10495e-12
1.05221e-12
1.1394e-12
1.19643e-12
1.17835e-12
1.24165e-12
1.10174e-12
1.13571e-12
1.1617e-12
1.84129e-12
1.77861e-12
2.23478e-12
2.06487e-12
2.04998e-12
2.61157e-12
2.23815e-12
1.8479e-12
1.74831e-12
1.34106e-12
1.28604e-12
1.34388e-12
1.11714e-12
1.12607e-12
1.11926e-12
1.50638e-12
2.23799e-12
2.01973e-12
2.22536e-12
2.36021e-12
2.29452e-12
2.30759e-12
2.089e-12
2.01252e-12
1.97686e-12
2.6074e-12
2.24956e-12
1.99214e-12
1.91499e-12
1.90841e-12
1.91931e-12
1.91191e-12
1.87212e-12
1.77975e-12
1.66913e-12
1.59896e-12
1.48042e-12
1.34585e-12
1.35127e-12
1.21607e-12
1.42304e-12
1.34342e-12
1.34106e-12
1.56588e-12
1.69658e-12
2.60279e-12
2.3001e-12
1.99307e-12
1.69465e-12
1.49317e-12
1.39992e-12
1.13895e-12
1.06548e-12
1.08224e-12
1.06027e-12
1.11917e-12
9.84868e-13
1.09594e-12
9.55454e-13
1.45138e-12
1.46479e-12
1.5244e-12
2.17702e-12
2.07417e-12
2.34315e-12
2.59816e-12
2.26284e-12
1.88149e-12
2.06833e-12
1.61062e-12
1.50851e-12
1.79822e-12
1.96982e-12
1.99531e-12
1.89036e-12
1.80631e-12
1.58385e-12
1.52955e-12
1.46329e-12
1.39987e-12
1.39464e-12
1.29598e-12
1.26969e-12
1.2795e-12
1.28545e-12
2.59455e-12
2.25452e-12
1.95482e-12
1.84898e-12
1.71299e-12
1.6417e-12
1.53513e-12
1.38655e-12
1.27438e-12
1.24313e-12
1.07193e-12
1.23167e-12
1.11293e-12
1.08613e-12
1.29088e-12
1.17952e-12
1.23728e-12
1.27996e-12
1.36967e-12
1.42678e-12
2.59237e-12
2.42617e-12
1.6636e-12
1.50121e-12
1.38542e-12
1.88724e-12
1.58509e-12
1.86463e-12
1.99349e-12
1.95988e-12
1.90314e-12
1.80575e-12
1.60113e-12
1.48488e-12
1.38251e-12
1.35226e-12
1.21818e-12
1.2355e-12
1.22329e-12
1.28038e-12
2.58937e-12
2.43551e-12
1.66225e-12
1.48736e-12
1.33557e-12
1.24672e-12
1.15244e-12
1.10908e-12
1.25234e-12
1.27365e-12
1.33072e-12
1.16053e-12
1.13606e-12
1.10829e-12
1.42589e-12
1.33547e-12
1.47064e-12
1.61301e-12
1.4762e-12
1.57974e-12
2.58659e-12
2.2694e-12
1.92762e-12
1.75665e-12
1.82726e-12
1.4299e-12
1.3143e-12
1.37849e-12
1.15388e-12
1.097e-12
1.04023e-12
1.01712e-12
9.84903e-13
1.19107e-12
1.1084e-12
1.08381e-12
1.10972e-12
1.12712e-12
1.14244e-12
1.21391e-12
2.58398e-12
2.23201e-12
1.95381e-12
1.71679e-12
1.70392e-12
1.35344e-12
1.2229e-12
1.1795e-12
1.12974e-12
1.1403e-12
1.15127e-12
1.66976e-12
1.52189e-12
1.72828e-12
1.79253e-12
1.71675e-12
1.69361e-12
1.5314e-12
1.56694e-12
1.82985e-12
2.58179e-12
2.22837e-12
1.98663e-12
1.60751e-12
1.57346e-12
1.24336e-12
1.15818e-12
1.17244e-12
1.26692e-12
1.08698e-12
1.03201e-12
1.03771e-12
1.03102e-12
1.37569e-12
1.32515e-12
1.32549e-12
1.69264e-12
1.58731e-12
1.55677e-12
1.57087e-12
2.57966e-12
2.26891e-12
1.9491e-12
1.67816e-12
1.57931e-12
1.22849e-12
1.12671e-12
1.28585e-12
1.09476e-12
1.04563e-12
9.9105e-13
9.76297e-13
9.54808e-13
1.23042e-12
1.14575e-12
1.32083e-12
1.21528e-12
1.21626e-12
1.42535e-12
1.32966e-12
2.5778e-12
2.24598e-12
1.97535e-12
1.74379e-12
1.30528e-12
1.1803e-12
1.0667e-12
1.0079e-12
9.48822e-13
1.14944e-12
1.02605e-12
1.0912e-12
1.18806e-12
1.05837e-12
1.08426e-12
1.19321e-12
1.10505e-12
1.17702e-12
1.24274e-12
1.7412e-12
2.57603e-12
2.38108e-12
1.62721e-12
1.60417e-12
1.5851e-12
1.2418e-12
1.15531e-12
1.06878e-12
1.0105e-12
1.10809e-12
1.10838e-12
1.1545e-12
1.01819e-12
1.19769e-12
1.12661e-12
1.28652e-12
1.4332e-12
1.30907e-12
1.52108e-12
1.47592e-12
2.57448e-12
2.26558e-12
1.94168e-12
1.84128e-12
1.72559e-12
1.62017e-12
1.47271e-12
1.35139e-12
1.20973e-12
1.17386e-12
1.00898e-12
1.07102e-12
9.50346e-13
9.78794e-13
1.33317e-12
1.23334e-12
1.23449e-12
1.26644e-12
1.62647e-12
1.52782e-12
2.57299e-12
2.23323e-12
1.82508e-12
2.00969e-12
1.50417e-12
1.68515e-12
1.88257e-12
1.97933e-12
1.88338e-12
1.81191e-12
1.65771e-12
1.42896e-12
1.34851e-12
1.40985e-12
1.27395e-12
1.20997e-12
1.1861e-12
1.16281e-12
1.18454e-12
1.19117e-12
2.57179e-12
2.00743e-12
1.7185e-12
1.63123e-12
1.23785e-12
1.20223e-12
1.1615e-12
1.7483e-12
1.55084e-12
1.756e-12
2.02248e-12
2.10617e-12
2.07296e-12
1.96284e-12
1.86518e-12
1.77184e-12
1.65854e-12
1.55739e-12
1.49799e-12
1.43731e-12
2.57063e-12
2.22749e-12
2.00768e-12
1.82468e-12
1.79144e-12
1.72981e-12
1.63738e-12
1.5385e-12
1.36918e-12
1.2756e-12
1.2648e-12
1.10225e-12
1.12317e-12
1.193e-12
1.1216e-12
1.17713e-12
1.33236e-12
1.26154e-12
1.75508e-12
2.42119e-12
2.56904e-12
2.23093e-12
1.9017e-12
1.75566e-12
1.53014e-12
1.1852e-12
1.08978e-12
1.14476e-12
9.64462e-13
9.30212e-13
8.89774e-13
8.76105e-13
1.0918e-12
9.85018e-13
1.24516e-12
1.21247e-12
1.23216e-12
1.6785e-12
1.59897e-12
1.59074e-12
2.5681e-12
2.29332e-12
1.76301e-12
1.43308e-12
1.28892e-12
1.36911e-12
1.10824e-12
1.0587e-12
1.00264e-12
9.62768e-13
1.18768e-12
1.66049e-12
1.5067e-12
1.4548e-12
1.72738e-12
1.62082e-12
1.59792e-12
1.59486e-12
1.83814e-12
1.70659e-12
2.56727e-12
2.25375e-12
1.95731e-12
1.87983e-12
1.79275e-12
1.68113e-12
1.49031e-12
1.40716e-12
1.16946e-12
1.10455e-12
1.04085e-12
1.00785e-12
9.68704e-13
9.52971e-13
9.29998e-13
9.30497e-13
9.21299e-13
9.55817e-13
9.83627e-13
1.06182e-12
2.56639e-12
2.16857e-12
2.18525e-12
1.60202e-12
1.46261e-12
1.62243e-12
1.74538e-12
1.69324e-12
1.59978e-12
1.55061e-12
1.39158e-12
1.36656e-12
1.19859e-12
1.16058e-12
1.21273e-12
1.27382e-12
1.15207e-12
1.15237e-12
1.15213e-12
1.20947e-12
2.56555e-12
2.24023e-12
1.49413e-12
1.31349e-12
1.16009e-12
1.45174e-12
1.28709e-12
1.6666e-12
1.4317e-12
1.7919e-12
1.60022e-12
1.76702e-12
1.90987e-12
1.6952e-12
1.62615e-12
1.56623e-12
1.52108e-12
1.46834e-12
1.43316e-12
1.39687e-12
2.5662e-12
2.228e-12
1.96095e-12
1.85118e-12
1.81949e-12
1.79407e-12
1.65689e-12
1.57419e-12
1.35457e-12
1.26312e-12
1.28697e-12
1.1195e-12
1.08316e-12
1.19802e-12
1.08023e-12
1.17761e-12
1.45114e-12
1.64556e-12
1.92558e-12
1.79845e-12
2.56563e-12
2.24925e-12
2.0037e-12
1.82064e-12
1.69253e-12
1.54264e-12
1.42693e-12
1.16396e-12
1.09065e-12
1.09304e-12
1.13558e-12
9.90507e-13
1.0627e-12
9.56927e-13
1.05796e-12
1.5757e-12
1.46665e-12
1.44519e-12
1.82132e-12
1.77076e-12
2.56507e-12
2.24056e-12
2.00709e-12
1.83102e-12
1.63496e-12
1.47144e-12
1.32396e-12
1.19627e-12
1.1825e-12
1.00287e-12
9.65716e-13
1.09614e-12
9.75099e-13
9.70545e-13
9.5984e-13
1.28089e-12
1.35219e-12
1.43412e-12
2.07134e-12
2.87166e-12
2.56467e-12
2.06798e-12
1.79096e-12
1.51587e-12
1.32821e-12
1.3202e-12
1.06928e-12
1.33653e-12
1.18212e-12
1.43177e-12
1.25876e-12
1.20913e-12
1.17924e-12
1.24474e-12
1.35978e-12
1.23136e-12
1.28182e-12
1.38669e-12
1.26862e-12
1.55093e-12
2.56428e-12
2.15769e-12
2.17359e-12
1.59674e-12
1.46125e-12
1.60162e-12
1.69306e-12
1.60874e-12
1.50826e-12
1.41125e-12
1.31106e-12
1.23863e-12
1.25722e-12
1.11731e-12
1.17384e-12
1.21827e-12
1.24753e-12
1.33146e-12
1.28853e-12
1.31248e-12
2.56391e-12
2.36394e-12
1.64232e-12
1.39263e-12
1.66422e-12
1.35578e-12
1.55192e-12
1.61163e-12
1.56481e-12
1.38702e-12
1.31238e-12
1.24096e-12
1.34509e-12
1.54617e-12
1.40085e-12
1.422e-12
1.45869e-12
1.32643e-12
1.34925e-12
1.31172e-12
2.56367e-12
2.25601e-12
1.88953e-12
1.80127e-12
1.45302e-12
1.26289e-12
1.17266e-12
1.26874e-12
1.06994e-12
1.03676e-12
1.16447e-12
1.22538e-12
1.21603e-12
1.27716e-12
1.14852e-12
1.242e-12
1.51761e-12
1.40154e-12
1.50242e-12
1.50608e-12
2.56341e-12
2.1019e-12
1.83941e-12
1.41653e-12
1.2986e-12
1.33459e-12
1.08397e-12
1.08577e-12
1.07125e-12
1.66172e-12
1.52384e-12
1.50817e-12
1.90036e-12
2.1138e-12
2.12156e-12
2.07048e-12
1.94637e-12
1.86089e-12
1.76438e-12
1.762e-12
2.56312e-12
2.20031e-12
1.8594e-12
1.65836e-12
1.24403e-12
1.14969e-12
1.2097e-12
1.26551e-12
1.0664e-12
1.03993e-12
1.00458e-12
1.22371e-12
1.10149e-12
1.14385e-12
1.16834e-12
1.24086e-12
1.66979e-12
1.91363e-12
2.05399e-12
1.89012e-12
2.56291e-12
2.26411e-12
1.86842e-12
1.62167e-12
1.3495e-12
1.27891e-12
1.02913e-12
9.89288e-13
9.42731e-13
9.54822e-13
9.63075e-13
9.71815e-13
1.01657e-12
1.43569e-12
2.1004e-12
1.94302e-12
1.89147e-12
2.15836e-12
2.02245e-12
2.21683e-12
2.56215e-12
2.19402e-12
1.99898e-12
1.55628e-12
1.81385e-12
1.44571e-12
1.32202e-12
1.25124e-12
1.36198e-12
1.16877e-12
1.12413e-12
1.16544e-12
1.25263e-12
1.1186e-12
1.38977e-12
1.34671e-12
1.66126e-12
1.8006e-12
1.93141e-12
1.78223e-12
2.56195e-12
2.22765e-12
1.8091e-12
1.28404e-12
1.31599e-12
1.12782e-12
1.1473e-12
1.2388e-12
1.0457e-12
9.89112e-13
9.47088e-13
9.15749e-13
9.37168e-13
1.23942e-12
1.13674e-12
1.14667e-12
1.40322e-12
1.30021e-12
1.56346e-12
1.47989e-12
2.56181e-12
2.35392e-12
1.63496e-12
1.37695e-12
1.25625e-12
1.14758e-12
1.09961e-12
1.40171e-12
1.20381e-12
1.15699e-12
1.10079e-12
1.0849e-12
1.29298e-12
1.16286e-12
1.15436e-12
1.13509e-12
1.31762e-12
1.36209e-12
1.53369e-12
1.40031e-12
2.56135e-12
2.23577e-12
2.0542e-12
1.73623e-12
1.62183e-12
1.46186e-12
1.25574e-12
1.1688e-12
1.08849e-12
1.30005e-12
1.16167e-12
1.24645e-12
1.32557e-12
1.17747e-12
1.20785e-12
1.27423e-12
1.24476e-12
1.2874e-12
1.39106e-12
1.28654e-12
2.52038e-12
2.3692e-12
1.6142e-12
1.44744e-12
1.2975e-12
1.20877e-12
1.14044e-12
1.10303e-12
1.27257e-12
1.23071e-12
1.32037e-12
1.21201e-12
1.1868e-12
1.17241e-12
1.04386e-12
9.99678e-13
9.6455e-13
1.06252e-12
9.46092e-13
1.45691e-12
2.56108e-12
2.20862e-12
1.97289e-12
1.83007e-12
1.70177e-12
1.62224e-12
1.45422e-12
1.36534e-12
1.35178e-12
1.15597e-12
1.12445e-12
1.13834e-12
1.00181e-12
1.1013e-12
1.20637e-12
1.16011e-12
1.14193e-12
1.28311e-12
1.37253e-12
1.31002e-12
2.53469e-12
2.21388e-12
1.88479e-12
1.73987e-12
1.6043e-12
1.35688e-12
1.26317e-12
1.21574e-12
1.0158e-12
9.75792e-13
9.3146e-13
1.05951e-12
1.054e-12
1.11018e-12
1.22987e-12
1.19347e-12
1.21898e-12
1.47048e-12
1.73697e-12
1.6088e-12
2.56114e-12
2.08517e-12
1.57768e-12
1.37193e-12
1.35394e-12
1.30564e-12
1.2057e-12
1.25386e-12
1.05723e-12
1.37716e-12
1.21387e-12
1.19268e-12
1.16101e-12
1.15262e-12
1.1335e-12
1.38399e-12
1.28747e-12
1.25684e-12
1.24471e-12
1.22634e-12
2.56108e-12
2.24411e-12
1.97938e-12
1.8925e-12
1.39213e-12
1.24466e-12
1.19649e-12
1.17863e-12
9.86404e-13
9.40803e-13
8.92053e-13
8.83124e-13
8.67259e-13
1.1351e-12
1.05901e-12
1.23434e-12
1.13114e-12
1.10437e-12
1.08389e-12
1.19541e-12
2.56094e-12
2.24958e-12
1.94616e-12
1.88292e-12
1.7327e-12
1.60629e-12
1.46662e-12
1.45783e-12
1.22957e-12
1.2466e-12
1.07628e-12
1.13881e-12
1.32142e-12
1.19252e-12
1.21497e-12
1.2698e-12
1.15085e-12
1.11252e-12
1.08224e-12
1.33944e-12
2.53433e-12
2.22322e-12
1.70638e-12
1.41646e-12
1.22412e-12
1.23957e-12
1.00144e-12
9.32652e-13
8.84581e-13
1.28838e-12
1.24991e-12
1.27807e-12
1.94109e-12
1.80893e-12
2.21514e-12
2.26628e-12
2.30656e-12
2.31892e-12
2.12337e-12
2.05374e-12
2.56079e-12
2.20723e-12
1.9421e-12
1.88543e-12
1.84722e-12
1.88543e-12
1.9049e-12
1.87338e-12
1.776e-12
1.70392e-12
1.54307e-12
1.33102e-12
1.26527e-12
1.25529e-12
1.29146e-12
1.16275e-12
1.23209e-12
1.49018e-12
1.39878e-12
1.37122e-12
2.53424e-12
2.06887e-12
1.69692e-12
1.70514e-12
1.27261e-12
1.33206e-12
1.08241e-12
1.04038e-12
1.21318e-12
1.0498e-12
1.24314e-12
1.12017e-12
1.18865e-12
1.28416e-12
1.15181e-12
1.19918e-12
1.20172e-12
1.25124e-12
1.26129e-12
1.32579e-12
2.56053e-12
2.16883e-12
2.1334e-12
1.57497e-12
1.839e-12
1.61413e-12
1.70313e-12
1.75789e-12
1.6791e-12
1.63609e-12
1.57527e-12
1.47896e-12
1.35406e-12
1.33216e-12
1.257e-12
1.20526e-12
1.27059e-12
1.3145e-12
1.38975e-12
1.51857e-12
2.56053e-12
2.18212e-12
1.81316e-12
1.2873e-12
1.15049e-12
1.06091e-12
1.01353e-12
9.55929e-13
9.57511e-13
1.2949e-12
1.1492e-12
1.12121e-12
1.10258e-12
1.11519e-12
1.27951e-12
1.28433e-12
1.59195e-12
1.83866e-12
1.69114e-12
1.67069e-12
2.56047e-12
2.27602e-12
1.76237e-12
1.70963e-12
1.90956e-12
1.51983e-12
1.42207e-12
1.4971e-12
1.48835e-12
1.4151e-12
1.35257e-12
1.2673e-12
1.29514e-12
1.1505e-12
1.13739e-12
1.11627e-12
1.32805e-12
1.26165e-12
1.33223e-12
1.89029e-12
2.56045e-12
2.20653e-12
1.68703e-12
1.53711e-12
1.15801e-12
1.0681e-12
9.80835e-13
9.23062e-13
9.18298e-13
1.11201e-12
1.28628e-12
1.1288e-12
1.27339e-12
1.16039e-12
1.12139e-12
1.29782e-12
1.20463e-12
1.1868e-12
1.40737e-12
1.33296e-12
2.5604e-12
2.22415e-12
1.856e-12
1.92919e-12
1.53358e-12
1.68152e-12
1.73541e-12
1.68175e-12
1.58809e-12
1.49068e-12
1.35891e-12
1.31407e-12
1.14956e-12
1.11549e-12
1.12236e-12
1.12383e-12
1.16663e-12
1.19194e-12
1.2785e-12
1.35735e-12
2.56038e-12
1.95631e-12
1.65672e-12
1.65319e-12
1.53667e-12
1.58008e-12
1.28235e-12
1.33263e-12
1.88907e-12
1.66026e-12
1.8391e-12
1.97851e-12
1.95883e-12
1.93527e-12
1.7525e-12
1.68857e-12
1.51579e-12
1.46636e-12
1.41491e-12
1.38921e-12
2.56036e-12
1.95492e-12
1.65576e-12
1.65335e-12
1.53201e-12
1.58995e-12
1.2918e-12
1.68916e-12
1.49847e-12
1.56857e-12
1.81015e-12
1.85763e-12
1.77141e-12
1.78969e-12
1.60426e-12
1.52275e-12
1.53243e-12
1.58977e-12
1.66973e-12
1.62833e-12
2.56032e-12
2.26475e-12
1.95255e-12
1.78701e-12
1.59944e-12
1.47901e-12
1.31524e-12
1.24514e-12
1.03938e-12
9.96277e-13
1.11005e-12
9.81025e-13
1.21767e-12
1.13062e-12
1.10914e-12
1.37993e-12
1.30685e-12
1.47365e-12
1.61522e-12
1.48999e-12
2.5603e-12
2.25647e-12
1.7879e-12
1.56364e-12
1.42142e-12
1.40193e-12
1.14259e-12
1.04195e-12
9.94188e-13
9.60463e-13
9.38879e-13
1.00724e-12
1.0508e-12
1.72683e-12
1.63737e-12
1.63917e-12
1.65399e-12
1.70619e-12
2.09954e-12
1.94619e-12
2.53396e-12
2.16028e-12
1.68712e-12
1.47629e-12
1.3314e-12
1.21943e-12
1.13526e-12
1.13972e-12
9.60152e-13
1.05929e-12
1.29814e-12
1.16159e-12
1.25948e-12
1.12919e-12
1.11809e-12
1.29289e-12
1.18433e-12
1.15671e-12
1.13611e-12
1.13172e-12
2.56032e-12
2.21251e-12
1.96837e-12
1.8344e-12
1.86807e-12
1.47541e-12
1.52119e-12
1.5429e-12
1.45011e-12
1.34515e-12
1.31813e-12
1.14469e-12
1.20819e-12
1.08773e-12
1.11006e-12
1.13064e-12
1.22788e-12
1.87473e-12
1.77303e-12
2.12334e-12
2.56034e-12
2.24536e-12
1.69416e-12
1.50144e-12
1.12953e-12
1.30157e-12
1.09967e-12
1.18475e-12
1.26097e-12
1.12922e-12
1.15576e-12
1.16499e-12
1.80787e-12
1.7026e-12
2.00874e-12
2.29711e-12
2.35464e-12
2.34968e-12
2.20022e-12
2.11823e-12
2.56034e-12
2.25394e-12
1.94034e-12
1.61357e-12
1.45324e-12
1.42899e-12
1.22162e-12
1.16759e-12
1.09834e-12
1.13352e-12
9.83236e-13
1.09729e-12
9.92236e-13
1.05713e-12
1.10461e-12
1.77158e-12
1.70492e-12
1.70853e-12
1.74474e-12
2.19019e-12
2.56031e-12
2.3048e-12
1.61321e-12
1.62294e-12
1.23125e-12
1.42143e-12
1.18399e-12
1.29786e-12
1.09607e-12
1.05678e-12
1.19491e-12
1.05779e-12
1.02027e-12
1.1534e-12
1.16702e-12
1.25899e-12
1.22595e-12
1.19999e-12
1.21154e-12
1.21569e-12
2.56028e-12
2.23729e-12
1.92654e-12
1.75293e-12
1.81372e-12
1.45348e-12
1.42311e-12
1.42182e-12
1.19034e-12
1.34792e-12
1.21009e-12
1.16984e-12
1.15214e-12
1.3271e-12
1.20179e-12
1.19219e-12
1.17198e-12
1.1768e-12
1.16877e-12
1.20973e-12
2.56027e-12
2.20082e-12
1.95671e-12
1.88255e-12
1.86605e-12
1.82439e-12
1.70231e-12
1.59091e-12
1.32341e-12
1.2525e-12
1.18031e-12
1.13149e-12
1.14567e-12
1.14714e-12
1.21472e-12
1.25814e-12
1.94082e-12
1.8483e-12
2.01964e-12
2.29227e-12
2.56047e-12
2.24876e-12
1.94357e-12
1.55008e-12
1.29923e-12
1.18189e-12
1.21214e-12
1.1749e-12
1.12833e-12
1.15044e-12
9.9843e-13
1.21849e-12
1.12339e-12
1.09902e-12
1.1174e-12
1.12338e-12
1.16088e-12
1.17852e-12
1.22809e-12
1.57093e-12
2.56046e-12
2.22963e-12
2.01044e-12
1.78254e-12
1.44232e-12
1.2455e-12
1.15072e-12
1.06113e-12
1.1404e-12
1.04498e-12
1.08777e-12
1.17897e-12
1.04356e-12
1.07048e-12
1.16499e-12
1.08493e-12
1.14327e-12
1.19624e-12
1.98145e-12
1.95723e-12
2.56045e-12
2.35163e-12
1.57737e-12
1.47275e-12
1.60245e-12
1.2659e-12
1.26064e-12
1.28789e-12
1.0807e-12
1.03762e-12
1.16392e-12
1.02345e-12
9.99097e-13
1.15346e-12
1.0427e-12
1.13534e-12
1.31692e-12
1.49593e-12
1.45008e-12
1.43743e-12
2.56046e-12
2.22087e-12
1.83276e-12
1.90789e-12
1.45092e-12
1.42919e-12
1.38259e-12
1.18464e-12
1.09762e-12
1.0469e-12
9.90401e-13
9.65731e-13
1.06139e-12
1.07141e-12
1.12665e-12
1.01727e-12
1.01285e-12
1.00544e-12
1.19586e-12
1.23909e-12
2.56044e-12
2.2328e-12
1.98046e-12
1.79454e-12
1.54903e-12
1.46185e-12
1.16941e-12
1.17248e-12
1.07112e-12
1.00645e-12
1.16461e-12
1.05522e-12
1.02042e-12
1.17093e-12
1.11255e-12
1.25371e-12
1.29398e-12
1.33817e-12
1.9254e-12
1.86115e-12
2.56016e-12
2.20286e-12
1.97418e-12
1.87127e-12
1.89028e-12
1.80625e-12
1.68416e-12
1.58181e-12
1.37799e-12
1.28821e-12
1.20326e-12
1.31079e-12
1.17756e-12
1.12802e-12
1.10277e-12
1.07549e-12
1.07262e-12
1.06305e-12
1.27891e-12
1.20849e-12
2.56016e-12
2.22553e-12
1.97572e-12
1.76726e-12
1.79137e-12
1.74657e-12
1.74334e-12
1.58039e-12
1.50653e-12
1.2956e-12
1.20832e-12
1.12499e-12
1.20751e-12
1.1872e-12
1.43762e-12
1.69378e-12
1.54709e-12
1.64003e-12
1.71153e-12
1.64464e-12
2.56016e-12
2.16582e-12
1.71304e-12
1.3483e-12
1.21969e-12
1.10642e-12
1.28154e-12
1.5667e-12
1.67762e-12
1.53002e-12
1.65103e-12
1.44279e-12
1.38673e-12
1.49967e-12
1.34748e-12
1.31695e-12
1.43301e-12
1.4464e-12
1.51757e-12
1.39726e-12
2.56015e-12
2.19921e-12
1.97502e-12
1.70702e-12
1.54296e-12
1.2731e-12
1.19313e-12
1.27116e-12
1.52242e-12
1.31679e-12
1.33496e-12
1.33232e-12
1.90462e-12
1.77538e-12
2.12906e-12
2.2124e-12
2.2084e-12
2.13622e-12
2.1035e-12
1.92296e-12
2.56014e-12
2.20913e-12
2.08019e-12
1.59946e-12
1.47225e-12
1.60991e-12
1.68955e-12
1.39132e-12
1.55813e-12
1.34974e-12
1.29039e-12
1.24907e-12
1.31265e-12
1.41448e-12
1.26828e-12
1.25035e-12
1.23565e-12
1.24939e-12
1.25226e-12
1.50223e-12
2.56018e-12
2.21793e-12
1.93733e-12
1.88282e-12
1.89247e-12
1.90109e-12
1.87672e-12
1.838e-12
1.70996e-12
1.62631e-12
1.42898e-12
1.35573e-12
1.28557e-12
1.40847e-12
1.27045e-12
1.29597e-12
1.30473e-12
1.39723e-12
1.46971e-12
1.98097e-12
2.53402e-12
2.2749e-12
1.80996e-12
1.72571e-12
1.28186e-12
1.15972e-12
1.16228e-12
1.18955e-12
1.0044e-12
9.96009e-13
9.75576e-13
1.02482e-12
1.05974e-12
1.09258e-12
1.20738e-12
1.28666e-12
2.1637e-12
2.05888e-12
2.06637e-12
2.0788e-12
2.56015e-12
1.95724e-12
1.65549e-12
1.42123e-12
1.30647e-12
1.49881e-12
1.60336e-12
1.31936e-12
1.47304e-12
1.28045e-12
1.30372e-12
1.3762e-12
1.21392e-12
1.19343e-12
1.16436e-12
1.30699e-12
1.38521e-12
1.37676e-12
1.40419e-12
1.42379e-12
2.56033e-12
2.19813e-12
1.9662e-12
1.87216e-12
1.88649e-12
1.78862e-12
1.71888e-12
1.58882e-12
1.31937e-12
1.23109e-12
1.16053e-12
1.11129e-12
1.1864e-12
1.05799e-12
1.04095e-12
1.01628e-12
1.1792e-12
1.08146e-12
1.17535e-12
1.59778e-12
2.56033e-12
2.22852e-12
2.00763e-12
1.77978e-12
1.60714e-12
1.468e-12
1.17143e-12
1.25938e-12
1.07518e-12
1.00445e-12
9.83663e-13
9.69808e-13
1.2956e-12
1.9796e-12
1.83995e-12
1.80183e-12
2.1638e-12
2.0806e-12
2.07229e-12
2.09405e-12
2.56033e-12
1.95584e-12
1.65817e-12
1.65544e-12
1.55431e-12
1.59674e-12
1.29506e-12
1.64218e-12
1.44758e-12
1.69446e-12
1.86587e-12
1.85666e-12
1.77566e-12
1.74006e-12
1.54664e-12
1.4909e-12
1.53288e-12
1.53563e-12
1.48452e-12
1.49015e-12
2.56025e-12
2.19964e-12
1.94333e-12
1.8772e-12
1.91998e-12
1.92463e-12
1.86136e-12
1.82203e-12
1.60607e-12
1.53624e-12
1.49597e-12
1.29565e-12
1.37156e-12
1.23096e-12
1.18977e-12
1.30135e-12
1.58481e-12
1.57151e-12
1.67931e-12
1.67726e-12
2.56162e-12
2.25016e-12
1.72334e-12
1.44583e-12
1.22191e-12
1.22544e-12
9.90362e-13
9.84247e-13
9.64625e-13
1.17681e-12
1.72921e-12
1.55675e-12
1.7305e-12
1.82647e-12
1.81897e-12
1.73996e-12
1.62776e-12
1.56944e-12
1.50966e-12
1.47391e-12
0.00789874
0.00792549
0.00689152
0.00615093
0.00588103
0.00575525
0.00570251
0.00565192
0.00560232
0.0055359
0.00546648
0.00539615
0.00532841
0.00526111
0.00520207
0.00514195
0.00509329
0.00503891
0.00499864
0.0049478
0.00491504
0.00486699
0.00484147
0.0047953
0.00477555
0.00473114
0.0047151
0.00467334
0.00466035
0.004621
0.00461056
0.00457353
0.00456499
0.0045299
0.00452262
0.00448963
0.00448323
0.00445247
0.00444662
0.00441812
0.00441263
0.00438614
0.00438085
0.00435622
0.00435118
0.00432829
0.00432361
0.00430237
0.00429816
0.00427837
0.00427472
0.00425635
0.00425337
0.00423649
0.00423433
0.00421905
0.00421792
0.00420431
0.00420435
0.00419241
0.00419375
0.00418339
0.00418612
0.00417743
0.00418154
0.00417453
0.00417988
0.00417444
0.00418091
0.00417682
0.00418407
0.00418101
0.00418874
0.00418653
0.00419437
0.0041929
0.00420014
0.0041996
0.00420362
0.00420718
0.000731076
0.00161207
0.00339599
0.00521533
0.00606176
0.00640171
0.0065399
0.00652153
0.00646797
0.00636797
0.00628096
0.00619736
0.00612056
0.00605112
0.0059936
0.0059369
0.00589072
0.00583741
0.00579818
0.00574742
0.00571552
0.00566812
0.00564325
0.00559693
0.00557589
0.00553122
0.00551267
0.00547213
0.0054559
0.00541806
0.00540493
0.005368
0.00535768
0.00532068
0.00531305
0.00527693
0.00527119
0.00523674
0.0052321
0.00519971
0.00519531
0.00516476
0.00516054
0.00513205
0.00512799
0.00510152
0.00509776
0.00507329
0.00506982
0.00504695
0.005044
0.00502271
0.00502056
0.005001
0.00499976
0.00498219
0.00498214
0.00496646
0.00496764
0.00495381
0.00495662
0.00494464
0.00494907
0.00493899
0.00494511
0.00493686
0.00494431
0.00493782
0.00494648
0.00494138
0.00495087
0.00494678
0.00495683
0.00495356
0.00496391
0.00496108
0.00497162
0.0049685
0.00498019
0.00497338
3.54632e-05
0.000213857
0.000468562
0.00121654
0.00233461
0.00343413
0.00417077
0.0045631
0.00477625
0.00486151
0.00490844
0.00492392
0.00492426
0.00492041
0.00491559
0.00490454
0.00489661
0.00487918
0.00486948
0.00484852
0.00483939
0.0048188
0.00480999
0.00478826
0.00477871
0.00475615
0.00474697
0.00472535
0.00471706
0.00469626
0.00468904
0.00466805
0.00466147
0.00463991
0.00463437
0.00461308
0.00460842
0.00458788
0.0045838
0.00456412
0.00456002
0.00454098
0.00453697
0.00451893
0.00451505
0.00449807
0.00449443
0.00447862
0.00447509
0.00446013
0.00445688
0.00444289
0.00444013
0.00442734
0.00442518
0.00441385
0.00441244
0.00440232
0.0044019
0.00439318
0.00439392
0.00438656
0.00438856
0.00438259
0.00438591
0.00438113
0.00438551
0.00438202
0.00438751
0.00438497
0.0043912
0.00438927
0.00439603
0.00439458
0.00440182
0.00440043
0.00440814
0.00440616
0.00441555
0.00441053
9.0537e-06
2.78567e-05
4.17456e-05
0.000198582
0.000423254
0.000974722
0.00193362
0.00273934
0.00327562
0.00362705
0.00385538
0.00398762
0.00407748
0.00414167
0.00419126
0.00422424
0.00425559
0.00427231
0.00429165
0.00429799
0.00431124
0.00431337
0.00432053
0.00431861
0.00432125
0.00431644
0.00431714
0.00431056
0.00431049
0.00430285
0.0043021
0.00429308
0.00429109
0.00428093
0.00427879
0.00426807
0.00426602
0.00425519
0.00425318
0.00424218
0.0042398
0.00422863
0.0042261
0.00421519
0.00421258
0.00420202
0.0041995
0.00418945
0.00418681
0.00417702
0.00417442
0.00416512
0.00416275
0.00415419
0.00415219
0.00414461
0.00414302
0.00413628
0.00413518
0.00412914
0.00412906
0.00412428
0.00412502
0.00412121
0.00412295
0.00411996
0.00412253
0.00412051
0.00412406
0.00412266
0.0041269
0.00412589
0.00413068
0.00413
0.00413537
0.00413453
0.0041405
0.004139
0.00414657
0.00414299
1.18819e-08
1.7087e-06
5.13037e-06
1.74138e-05
3.05807e-05
0.000165035
0.000377525
0.0008882
0.00160999
0.00222868
0.00267018
0.00298672
0.00322056
0.00338668
0.00351519
0.00361122
0.00369076
0.00374626
0.00379852
0.00383476
0.00387249
0.00389723
0.00392352
0.0039403
0.00395905
0.00396978
0.00398339
0.00398995
0.00400053
0.00400423
0.00401195
0.00401315
0.00401781
0.00401734
0.00402042
0.00401853
0.00402085
0.00401791
0.00401964
0.00401553
0.0040164
0.00401157
0.00401182
0.00400669
0.00400644
0.0040011
0.00400065
0.00399518
0.00399432
0.0039886
0.00398753
0.00398184
0.00398071
0.00397533
0.00397429
0.00396941
0.00396846
0.00396398
0.00396317
0.00395892
0.00395878
0.00395547
0.00395582
0.00395315
0.00395419
0.00395201
0.00395357
0.00395205
0.00395446
0.00395339
0.00395641
0.00395555
0.00395915
0.00395856
0.00396276
0.00396188
0.00396671
0.00396519
0.00397146
0.00396861
1.15844e-09
1.57984e-07
3.3701e-07
1.14871e-06
3.68e-06
1.23163e-05
2.3675e-05
0.000141247
0.000328041
0.000737154
0.00129697
0.0017914
0.00217551
0.00247307
0.00271852
0.00290667
0.00305968
0.00317474
0.0032762
0.00335404
0.00342479
0.00347946
0.00352982
0.00356918
0.0036056
0.00363463
0.00366186
0.00368423
0.00370534
0.00372257
0.00373861
0.00375185
0.00376399
0.00377392
0.00378342
0.00379034
0.00379833
0.00380289
0.00380977
0.00381201
0.00381752
0.00381843
0.00382274
0.00382275
0.003826
0.00382525
0.00382794
0.00382648
0.00382832
0.00382626
0.00382746
0.00382505
0.00382582
0.00382328
0.00382378
0.00382126
0.00382146
0.0038189
0.00381888
0.00381632
0.00381646
0.0038143
0.00381465
0.00381282
0.00381354
0.00381189
0.0038128
0.00381147
0.00381303
0.00381202
0.00381406
0.00381314
0.00381574
0.00381497
0.00381823
0.00381716
0.00382102
0.00381938
0.00382446
0.00382209
5.75113e-11
7.43378e-09
2.27811e-08
6.76701e-08
5.19697e-08
9.14665e-07
2.38315e-06
9.961e-06
2.07227e-05
0.000111951
0.000255297