/*--------------------------------*- C++ -*----------------------------------*\
| =========                 |                                                 |
| \\      /  F ield         | OpenFOAM: The Open Source CFD Toolbox           |
|  \\    /   O peration     | Version:  v1912                                 |
|   \\  /    A nd           | Website:  www.openfoam.com                      |
|    \\/     M anipulation  |                                                 |
\*---------------------------------------------------------------------------*/
FoamFile
{
    version     2.0;
    format      ascii;
    class       volScalarField;
    location    "100";
    object      nut;
}
// * * * * * * * * * * * * * * * * * * * * * * * * * * * * * * * * * * * * * //

dimensions      [0 2 -1 0 0 0 0];


internalField   nonuniform List<scalar> 
10000
(
1.16899e-13
1.45414e-13
1.93418e-13
2.48737e-13
3.93955e-13
5.15699e-13
1.01461e-12
1.36548e-12
2.9704e-12
4.14916e-12
9.49388e-12
1.36258e-11
3.15599e-11
4.67098e-11
1.04985e-10
1.55373e-10
3.33146e-10
5.93688e-10
8.87875e-10
2.06518e-09
1.82552e-13
2.40041e-13
3.29143e-13
4.35041e-13
8.36887e-13
1.17106e-12
2.78486e-12
3.94755e-12
9.65094e-12
1.39559e-11
3.33382e-11
4.85633e-11
1.11698e-10
1.63049e-10
3.61224e-10
5.26288e-10
1.11776e-09
1.64086e-09
3.35599e-09
4.80959e-09
1.22145e-14
1.70684e-14
2.17838e-14
2.68509e-14
4.56552e-14
4.60813e-14
1.55021e-13
1.69862e-13
6.72005e-13
8.22848e-13
2.82288e-12
3.76373e-12
1.09624e-11
1.52063e-11
4.25576e-11
6.6907e-11
1.36459e-10
2.494e-10
4.64611e-10
7.06931e-10
5.02902e-15
6.25703e-15
7.81539e-15
8.22625e-15
1.03751e-14
1.02653e-14
1.61233e-14
1.20141e-14
4.00436e-14
2.26286e-14
1.51639e-13
1.17665e-13
6.11272e-13
6.47985e-13
2.52358e-12
3.47358e-12
8.62747e-12
1.35954e-11
2.44759e-11
3.65706e-11
4.6933e-15
5.94988e-15
6.66105e-15
7.85489e-15
7.21293e-15
8.14572e-15
9.3268e-15
8.79559e-15
1.01705e-14
9.23788e-15
1.66469e-14
1.18495e-14
3.63994e-14
3.91304e-14
1.16099e-13
2.73116e-13
4.71229e-13
6.17054e-13
2.66492e-11
2.9365e-11
4.63868e-15
5.83236e-15
6.35514e-15
8.40445e-15
7.72821e-15
9.21555e-15
1.06494e-14
1.1632e-14
1.29082e-14
1.21375e-14
1.24333e-14
1.30289e-14
1.32217e-14
1.98461e-14
2.33692e-14
3.34934e-14
4.98941e-14
5.7247e-14
7.96025e-13
1.27852e-12
4.61482e-15
5.83361e-15
6.64005e-15
8.05095e-15
9.55865e-15
1.06833e-14
1.14106e-14
1.21232e-14
1.17453e-14
1.22028e-14
1.43099e-14
1.36093e-14
1.83635e-14
1.81926e-14
1.91383e-14
2.49775e-14
2.49754e-14
2.59657e-14
5.51396e-14
7.34383e-14
4.58939e-15
5.75559e-15
6.29489e-15
8.25366e-15
7.54504e-15
8.8329e-15
9.74153e-15
1.00194e-14
1.11853e-14
1.30187e-14
1.23496e-14
1.27458e-14
1.37869e-14
1.52224e-14
1.46731e-14
1.7963e-14
1.74546e-14
2.22474e-14
2.27967e-14
2.23694e-14
4.56754e-15
5.04394e-15
5.63741e-15
7.3841e-15
6.7948e-15
1.00635e-14
9.82136e-15
1.074e-14
1.17704e-14
1.5614e-14
1.48753e-14
1.54693e-14
1.58827e-14
1.77696e-14
1.83843e-14
2.26199e-14
2.18948e-14
2.35063e-14
2.78351e-14
2.80338e-14
4.54359e-15
5.69809e-15
6.57523e-15
7.91509e-15
9.60716e-15
1.11969e-14
1.27982e-14
1.38876e-14
1.47248e-14
1.50741e-14
1.55516e-14
1.51326e-14
1.55309e-14
1.74018e-14
1.67121e-14
2.01189e-14
2.19563e-14
2.41361e-14
3.84016e-14
3.88132e-14
4.52302e-15
5.99501e-15
5.52399e-15
5.85506e-15
6.50749e-15
7.08597e-15
7.84158e-15
1.08479e-14
1.29488e-14
1.46145e-14
1.40407e-14
1.42348e-14
1.57674e-14
1.71585e-14
2.09743e-14
2.06496e-14
2.14767e-14
2.85076e-14
2.96848e-14
3.83655e-14
4.50301e-15
5.50843e-15
7.23705e-15
6.70745e-15
7.49411e-15
8.30822e-15
9.27221e-15
1.34289e-14
1.66631e-14
1.85182e-14
1.902e-14
2.00431e-14
1.88083e-14
1.91366e-14
1.9863e-14
2.13409e-14
2.05157e-14
2.19306e-14
2.33637e-14
3.19399e-14
4.4856e-15
5.69023e-15
5.67708e-15
6.3393e-15
5.73611e-15
6.26312e-15
6.71412e-15
1.03117e-14
1.02931e-14
1.37184e-14
1.32089e-14
1.73619e-14
1.70642e-14
2.05587e-14
1.97921e-14
2.07136e-14
2.34759e-14
2.70655e-14
2.61553e-14
2.73162e-14
4.46804e-15
5.64364e-15
6.46543e-15
7.67429e-15
8.73184e-15
8.88287e-15
8.09498e-15
8.42604e-15
9.64095e-15
9.1043e-15
1.13317e-14
1.10885e-14
1.32074e-14
1.27218e-14
1.45703e-14
1.48283e-14
1.68175e-14
1.82574e-14
2.0779e-14
2.02948e-14
4.45327e-15
5.91863e-15
5.43088e-15
5.79761e-15
6.29413e-15
6.97634e-15
9.72e-15
9.10809e-15
1.19038e-14
1.14464e-14
1.28845e-14
1.39536e-14
1.46449e-14
1.54872e-14
1.53943e-14
1.64153e-14
2.10414e-14
2.05476e-14
2.61679e-14
2.70793e-14
4.43862e-15
4.90068e-15
5.46848e-15
7.19604e-15
6.59483e-15
8.65891e-15
1.33597e-14
1.27612e-14
1.60165e-14
1.88632e-14
2.00228e-14
2.10459e-14
2.11536e-14
2.1675e-14
2.18253e-14
2.17964e-14
2.22309e-14
2.12365e-14
2.20022e-14
2.26374e-14
4.42631e-15
5.62245e-15
6.43255e-15
7.33131e-15
8.38869e-15
8.55743e-15
8.79162e-15
9.5444e-15
8.94481e-15
9.49305e-15
1.12036e-14
1.25909e-14
1.33234e-14
1.45657e-14
1.42842e-14
1.46545e-14
1.55339e-14
1.62783e-14
1.71067e-14
1.7946e-14
4.41399e-15
5.33459e-15
5.92101e-15
6.46132e-15
8.05864e-15
7.48087e-15
8.00986e-15
8.37985e-15
9.88184e-15
1.08078e-14
1.17626e-14
1.46407e-14
2.1409e-14
2.08973e-14
2.51482e-14
2.72924e-14
2.87828e-14
3.09248e-14
2.95422e-14
2.97148e-14
4.40356e-15
5.55249e-15
6.56383e-15
7.47283e-15
8.00507e-15
8.26193e-15
8.86328e-15
8.27055e-15
8.68567e-15
9.71101e-15
1.12089e-14
1.06477e-14
1.19836e-14
1.3697e-14
1.40673e-14
1.71195e-14
1.61536e-14
2.7589e-14
2.97879e-14
3.27618e-14
4.39333e-15
5.52351e-15
6.2878e-15
7.65239e-15
7.61623e-15
8.77365e-15
8.07853e-15
9.93568e-15
9.48475e-15
1.11502e-14
1.05847e-14
1.11711e-14
1.16244e-14
1.53954e-14
1.5523e-14
1.64232e-14
1.75666e-14
1.85552e-14
1.99142e-14
2.11137e-14
4.38482e-15
5.62128e-15
6.37673e-15
6.60634e-15
6.86902e-15
7.66445e-15
7.08251e-15
7.60402e-15
9.16756e-15
1.06084e-14
1.14169e-14
1.30522e-14
1.24893e-14
1.38109e-14
1.50856e-14
2.54311e-14
2.60349e-14
3.45596e-14
3.364e-14
3.50945e-14
4.37636e-15
5.41101e-15
5.89816e-15
6.96503e-15
6.41902e-15
7.1965e-15
8.61388e-15
8.07315e-15
9.06011e-15
9.92396e-15
1.45948e-14
2.35251e-14
2.28952e-14
2.70609e-14
3.06487e-14
3.16899e-14
3.37774e-14
3.23042e-14
3.27867e-14
3.38414e-14
4.3694e-15
5.43855e-15
6.35846e-15
7.62894e-15
9.13451e-15
1.074e-14
1.22545e-14
1.35288e-14
1.43192e-14
1.47991e-14
1.54915e-14
1.55615e-14
1.52559e-14
1.64315e-14
1.57911e-14
1.96534e-14
1.96638e-14
2.07377e-14
2.55098e-14
2.90425e-14
4.3617e-15
5.56068e-15
6.36136e-15
6.75105e-15
7.14687e-15
7.83353e-15
7.30005e-15
7.69952e-15
8.70712e-15
9.40058e-15
1.08428e-14
1.03523e-14
1.24227e-14
1.16181e-14
1.88461e-14
2.02297e-14
2.23122e-14
3.36641e-14
3.37891e-14
4.011e-14
4.35395e-15
5.47057e-15
6.00517e-15
8.23959e-15
7.70891e-15
8.441e-15
1.15254e-14
1.42343e-14
1.60529e-14
1.676e-14
1.74996e-14
1.66481e-14
1.73374e-14
1.7793e-14
1.81768e-14
1.92604e-14
1.89685e-14
1.96332e-14
2.08431e-14
2.20037e-14
4.34791e-15
5.45041e-15
6.23914e-15
7.36568e-15
8.19876e-15
9.18616e-15
9.83898e-15
1.00193e-14
1.02525e-14
1.10214e-14
1.03848e-14
1.2946e-14
1.26148e-14
1.32065e-14
1.67614e-14
1.62891e-14
1.81091e-14
1.97915e-14
2.23116e-14
2.44223e-14
4.34428e-15
5.86536e-15
5.30959e-15
5.98019e-15
6.63082e-15
1.05599e-14
1.01591e-14
1.34737e-14
1.60376e-14
1.73757e-14
1.84371e-14
1.89798e-14
1.81482e-14
1.80547e-14
1.79507e-14
1.86744e-14
1.78292e-14
1.91036e-14
1.99267e-14
2.19157e-14
4.33926e-15
5.88789e-15
5.30525e-15
5.92496e-15
6.39217e-15
6.97582e-15
7.38602e-15
8.01403e-15
1.00749e-14
1.12916e-14
1.28914e-14
1.21978e-14
1.28765e-14
1.34755e-14
1.85137e-14
1.84422e-14
2.15236e-14
2.49404e-14
2.40459e-14
2.70393e-14
4.33461e-15
5.48629e-15
6.15213e-15
6.9976e-15
8.7453e-15
8.00063e-15
8.42327e-15
9.96056e-15
9.28268e-15
9.72535e-15
1.00771e-14
1.06903e-14
1.11631e-14
1.44818e-14
1.43911e-14
1.49667e-14
1.6241e-14
1.74272e-14
1.86089e-14
2.07773e-14
4.33026e-15
5.39588e-15
6.23568e-15
6.83876e-15
8.15493e-15
7.57277e-15
7.83736e-15
8.52263e-15
9.08831e-15
1.01091e-14
1.11527e-14
1.75495e-14
1.7249e-14
2.10133e-14
2.32733e-14
2.37067e-14
2.47861e-14
2.36778e-14
2.55229e-14
3.1319e-14
4.3266e-15
5.38706e-15
6.34038e-15
6.40339e-15
7.53043e-15
6.95676e-15
7.42254e-15
8.47148e-15
1.01918e-14
9.63625e-15
9.99716e-15
1.09063e-14
1.16854e-14
1.6726e-14
1.72048e-14
1.83035e-14
2.47714e-14
2.45418e-14
2.53567e-14
2.68859e-14
4.32305e-15
5.48504e-15
6.22053e-15
6.68475e-15
7.55837e-15
6.87348e-15
7.22072e-15
9.29081e-15
8.8067e-15
9.2696e-15
9.60029e-15
1.02608e-14
1.08215e-14
1.49596e-14
1.48754e-14
1.82388e-14
1.77851e-14
1.88046e-14
2.32158e-14
2.27569e-14
4.31993e-15
5.42959e-15
6.30426e-15
6.94611e-15
6.24684e-15
6.60379e-15
6.8361e-15
7.28245e-15
7.63262e-15
1.01897e-14
9.93922e-15
1.14682e-14
1.34649e-14
1.28676e-14
1.40769e-14
1.64763e-14
1.61717e-14
1.81976e-14
2.02411e-14
2.97997e-14
4.31697e-15
5.75617e-15
5.19315e-15
6.38991e-15
7.58592e-15
6.94779e-15
7.40386e-15
7.7222e-15
8.1287e-15
9.82309e-15
1.07366e-14
1.21334e-14
1.15395e-14
1.45613e-14
1.46264e-14
1.77646e-14
2.09736e-14
2.02389e-14
2.4774e-14
2.52593e-14
4.31438e-15
5.47693e-15
6.19675e-15
7.33435e-15
8.25823e-15
9.06467e-15
9.43782e-15
9.76409e-15
9.73121e-15
1.0406e-14
9.77357e-15
1.12559e-14
1.07705e-14
1.18998e-14
1.7308e-14
1.70301e-14
1.80653e-14
1.95795e-14
2.64901e-14
2.6147e-14
4.31189e-15
5.39872e-15
5.82458e-15
8.00511e-15
7.19851e-15
9.42815e-15
1.20643e-14
1.4301e-14
1.515e-14
1.6062e-14
1.60575e-14
1.50176e-14
1.52829e-14
1.71402e-14
1.6539e-14
1.67071e-14
1.73571e-14
1.7977e-14
1.92923e-14
2.03851e-14
4.30989e-15
4.85286e-15
5.48442e-15
6.49755e-15
5.92395e-15
6.72623e-15
7.44333e-15
1.26316e-14
1.2475e-14
1.55663e-14
1.95906e-14
2.21344e-14
2.3493e-14
2.3863e-14
2.42144e-14
2.44651e-14
2.42703e-14
2.40769e-14
2.4397e-14
2.4597e-14
4.30795e-15
5.38484e-15
6.40729e-15
7.26807e-15
8.57319e-15
9.67787e-15
1.04929e-14
1.11157e-14
1.10136e-14
1.13076e-14
1.22514e-14
1.15839e-14
1.27288e-14
1.45036e-14
1.45608e-14
1.62534e-14
1.94969e-14
1.9503e-14
2.85835e-14
4.1434e-14
4.30529e-15
5.39314e-15
6.06903e-15
6.99312e-15
7.32266e-15
6.63086e-15
6.98363e-15
8.27083e-15
7.75803e-15
8.24581e-15
8.61864e-15
9.20711e-15
1.23732e-14
1.1975e-14
1.61647e-14
1.6741e-14
1.80305e-14
2.59486e-14
2.60408e-14
2.72219e-14
4.30371e-15
5.54397e-15
5.62642e-15
5.70822e-15
6.16826e-15
7.65977e-15
7.10188e-15
7.64905e-15
8.06503e-15
8.53436e-15
1.15041e-14
1.74502e-14
1.70751e-14
1.76861e-14
2.24247e-14
2.23792e-14
2.33824e-14
2.46555e-14
2.99353e-14
2.92041e-14
4.30232e-15
5.4483e-15
6.24648e-15
7.48767e-15
8.57933e-15
9.40538e-15
9.55023e-15
1.01666e-14
9.40688e-15
9.79111e-15
1.00818e-14
1.05915e-14
1.0978e-14
1.15853e-14
1.20731e-14
1.28476e-14
1.34813e-14
1.47761e-14
1.60188e-14
1.81702e-14
4.30084e-15
5.24238e-15
6.9739e-15
6.38108e-15
6.99938e-15
9.07691e-15
1.11848e-14
1.22334e-14
1.28682e-14
1.3745e-14
1.34791e-14
1.4361e-14
1.35832e-14
1.41091e-14
1.57433e-14
1.75877e-14
1.68581e-14
1.78143e-14
1.87629e-14
2.06963e-14
4.29944e-15
5.4156e-15
4.76827e-15
5.2318e-15
5.55163e-15
8.12193e-15
8.24788e-15
1.20409e-14
1.15162e-14
1.58838e-14
1.54998e-14
1.85694e-14
2.16436e-14
2.06082e-14
2.11101e-14
2.16248e-14
2.22574e-14
2.26987e-14
2.33391e-14
2.3903e-14
4.30053e-15
5.38604e-15
6.25807e-15
7.37348e-15
8.70721e-15
1.00371e-14
1.06176e-14
1.13732e-14
1.08957e-14
1.11966e-14
1.24656e-14
1.17647e-14
1.22749e-14
1.4564e-14
1.40231e-14
1.6259e-14
2.12338e-14
2.5438e-14
3.13579e-14
3.0774e-14
4.29957e-15
5.43741e-15
6.39448e-15
7.25183e-15
8.09962e-15
8.63046e-15
9.14394e-15
8.40931e-15
8.77281e-15
9.68883e-15
1.09992e-14
1.0409e-14
1.2043e-14
1.16329e-14
1.37341e-14
2.1755e-14
2.14611e-14
2.23398e-14
2.96605e-14
3.02989e-14
4.29864e-15
5.41641e-15
6.40529e-15
7.29317e-15
7.82409e-15
8.2321e-15
8.48414e-15
8.64269e-15
9.51158e-15
8.88954e-15
9.35393e-15
1.1519e-14
1.10503e-14
1.17984e-14
1.24602e-14
1.76845e-14
1.97859e-14
2.21687e-14
3.37313e-14
4.91362e-14
4.29796e-15
4.99922e-15
5.71554e-15
6.03788e-15
6.35615e-15
7.38594e-15
6.85206e-15
9.65602e-15
9.50847e-15
1.26913e-14
1.21923e-14
1.27063e-14
1.33635e-14
1.51316e-14
1.76518e-14
1.70006e-14
1.87559e-14
2.14354e-14
2.06587e-14
2.65375e-14
4.29732e-15
5.21608e-15
6.93666e-15
6.35998e-15
6.99276e-15
8.96034e-15
1.08493e-14
1.16227e-14
1.21318e-14
1.25094e-14
1.26987e-14
1.30163e-14
1.4247e-14
1.35826e-14
1.52378e-14
1.68199e-14
1.82538e-14
2.05816e-14
2.09825e-14
2.24572e-14
4.29669e-15
5.71466e-15
5.24119e-15
5.54699e-15
7.96409e-15
7.585e-15
9.94481e-15
1.16435e-14
1.25866e-14
1.22946e-14
1.27115e-14
1.30407e-14
1.52428e-14
1.87958e-14
1.81846e-14
1.96325e-14
2.13433e-14
2.05036e-14
2.1971e-14
2.24439e-14
4.29629e-15
5.45376e-15
6.03012e-15
7.17462e-15
6.95341e-15
7.06527e-15
7.51445e-15
9.16622e-15
8.60611e-15
9.18988e-15
1.12788e-14
1.28769e-14
1.37802e-14
1.55255e-14
1.49089e-14
1.71472e-14
2.22053e-14
2.16643e-14
2.44651e-14
2.5769e-14
4.29585e-15
5.0812e-15
5.87016e-15
5.64217e-15
6.21439e-15
7.46638e-15
6.94614e-15
7.84431e-15
8.61661e-15
1.47294e-14
1.47596e-14
1.58486e-14
2.1535e-14
2.56958e-14
2.75399e-14
2.85852e-14
2.84784e-14
2.87647e-14
2.87301e-14
3.01477e-14
4.29537e-15
5.31912e-15
5.93395e-15
6.60541e-15
5.95327e-15
6.43195e-15
7.75183e-15
9.14281e-15
8.57757e-15
9.21784e-15
9.73013e-15
1.28592e-14
1.24821e-14
1.39047e-14
1.5166e-14
1.71313e-14
2.44315e-14
2.95796e-14
3.34458e-14
3.23393e-14
4.29503e-15
5.47333e-15
5.96275e-15
6.45926e-15
6.45795e-15
7.1549e-15
6.59467e-15
7.14723e-15
7.5828e-15
8.46348e-15
9.32803e-15
1.02122e-14
1.15197e-14
1.74524e-14
2.72647e-14
2.68251e-14
2.76747e-14
3.33621e-14
3.29317e-14
3.79286e-14
4.29374e-15
5.3039e-15
6.3794e-15
6.1988e-15
8.68007e-15
8.08806e-15
8.47153e-15
9.03973e-15
1.0955e-14
1.03599e-14
1.08879e-14
1.22469e-14
1.41946e-14
1.35978e-14
1.804e-14
1.85926e-14
2.4306e-14
2.78322e-14
3.14487e-14
3.04927e-14
4.29342e-15
5.38521e-15
5.77343e-15
5.11445e-15
6.29761e-15
6.30958e-15
7.35187e-15
8.94985e-15
8.411e-15
8.76738e-15
9.17311e-15
9.623e-15
1.06198e-14
1.50663e-14
1.47555e-14
1.58306e-14
2.05306e-14
2.00972e-14
2.54573e-14
2.53195e-14
4.29318e-15
5.69046e-15
5.2177e-15
5.48452e-15
6.01172e-15
6.42014e-15
7.04632e-15
1.01268e-14
9.68273e-15
1.02554e-14
1.06617e-14
1.14005e-14
1.46517e-14
1.41356e-14
1.49841e-14
1.56705e-14
1.92781e-14
2.10533e-14
2.49725e-14
2.39574e-14
4.29241e-15
5.40483e-15
6.55564e-15
6.91557e-15
7.76118e-15
8.17836e-15
8.04674e-15
8.44408e-15
8.75517e-15
1.15235e-14
1.12514e-14
1.3098e-14
1.5021e-14
1.43131e-14
1.56784e-14
1.75913e-14
1.82119e-14
1.98987e-14
2.26499e-14
2.20108e-14
4.22375e-15
5.72739e-15
5.15144e-15
5.76528e-15
6.20909e-15
6.76246e-15
7.30789e-15
7.96891e-15
1.02357e-14
1.09088e-14
1.27885e-14
1.27361e-14
1.34484e-14
1.42515e-14
1.35496e-14
1.38009e-14
1.4112e-14
1.64226e-14
1.54045e-14
2.49254e-14
4.29195e-15
5.3392e-15
6.29613e-15
7.2893e-15
8.14369e-15
9.07559e-15
9.31859e-15
9.86394e-15
1.08728e-14
1.02463e-14
1.08908e-14
1.19619e-14
1.13521e-14
1.3387e-14
1.5659e-14
1.60155e-14
1.67071e-14
1.9832e-14
2.23476e-14
2.2412e-14
4.24774e-15
5.3519e-15
6.01499e-15
6.93002e-15
7.67727e-15
7.59101e-15
8.09434e-15
8.78317e-15
8.17037e-15
8.64919e-15
9.0216e-15
1.11334e-14
1.19434e-14
1.3495e-14
1.59638e-14
1.64761e-14
1.78342e-14
2.27279e-14
2.82811e-14
2.75232e-14
4.29206e-15
5.04076e-15
5.03488e-15
5.4645e-15
6.47918e-15
7.30436e-15
7.72607e-15
9.05851e-15
8.50363e-15
1.22068e-14
1.17568e-14
1.25328e-14
1.31559e-14
1.40107e-14
1.47129e-14
1.91061e-14
1.88361e-14
1.94256e-14
2.02659e-14
2.098e-14
4.29195e-15
5.425e-15
6.31686e-15
7.53799e-15
6.66193e-15
6.96323e-15
7.66703e-15
8.51505e-15
7.93394e-15
8.339e-15
8.63989e-15
9.27987e-15
9.82732e-15
1.37977e-14
1.3746e-14
1.70399e-14
1.65489e-14
1.70688e-14
1.76475e-14
2.04505e-14
4.29171e-15
5.43822e-15
6.21084e-15
7.49983e-15
8.29169e-15
8.98635e-15
9.398e-15
1.05321e-14
9.88974e-15
1.10495e-14
1.04242e-14
1.19666e-14
1.49735e-14
1.44956e-14
1.57702e-14
1.75294e-14
1.6837e-14
1.71948e-14
1.76203e-14
2.29144e-14
4.24713e-15
5.37449e-15
5.44562e-15
5.64186e-15
5.85796e-15
6.93471e-15
6.41717e-15
6.73793e-15
7.11491e-15
1.14198e-14
1.21058e-14
1.34299e-14
2.19951e-14
2.19882e-14
2.87522e-14
3.12854e-14
3.37451e-14
3.58399e-14
3.45714e-14
3.51336e-14
4.29147e-15
5.33583e-15
6.19787e-15
7.50979e-15
8.83973e-15
1.05479e-14
1.22065e-14
1.35342e-14
1.42848e-14
1.5103e-14
1.49451e-14
1.39863e-14
1.43371e-14
1.52584e-14
1.67627e-14
1.60515e-14
1.80253e-14
2.30316e-14
2.27736e-14
2.3458e-14
4.24697e-15
5.00135e-15
5.41541e-15
6.79171e-15
6.08997e-15
7.45212e-15
6.93602e-15
7.51614e-15
9.75793e-15
9.30493e-15
1.20403e-14
1.17705e-14
1.34691e-14
1.56091e-14
1.49504e-14
1.65539e-14
1.75812e-14
1.9338e-14
2.05354e-14
2.26801e-14
4.29104e-15
5.24302e-15
6.80838e-15
6.2732e-15
8.8004e-15
9.03018e-15
1.09135e-14
1.26999e-14
1.35053e-14
1.45017e-14
1.52568e-14
1.55408e-14
1.5343e-14
1.61929e-14
1.63151e-14
1.66384e-14
1.85879e-14
2.03166e-14
2.26256e-14
2.59793e-14
4.29103e-15
5.27514e-15
5.78639e-15
5.12741e-15
5.50556e-15
5.9352e-15
6.49458e-15
6.90607e-15
7.70145e-15
1.14775e-14
1.11303e-14
1.17815e-14
1.24935e-14
1.35553e-14
1.66074e-14
1.77295e-14
2.32896e-14
2.8417e-14
2.75331e-14
2.85803e-14
4.29093e-15
5.50213e-15
5.62429e-15
6.80957e-15
9.13804e-15
8.50258e-15
9.1125e-15
1.08157e-14
1.19711e-14
1.25429e-14
1.31e-14
1.33166e-14
1.46754e-14
1.39845e-14
1.47628e-14
1.54095e-14
1.94288e-14
1.94989e-14
2.16898e-14
3.23366e-14
4.29089e-15
5.33415e-15
5.38385e-15
6.12243e-15
5.54156e-15
5.97542e-15
6.28509e-15
6.66861e-15
7.38604e-15
9.85641e-15
1.24578e-14
1.18612e-14
1.44289e-14
1.41047e-14
1.4555e-14
1.79157e-14
1.7623e-14
1.83422e-14
2.29127e-14
2.28027e-14
4.29082e-15
5.37675e-15
5.92309e-15
7.68411e-15
7.33882e-15
9.40718e-15
1.11203e-14
1.21497e-14
1.27733e-14
1.32127e-14
1.31612e-14
1.38079e-14
1.30258e-14
1.35588e-14
1.45676e-14
1.55137e-14
1.70671e-14
1.84214e-14
2.08147e-14
2.32197e-14
4.29079e-15
4.72926e-15
5.28714e-15
6.58478e-15
7.35362e-15
8.83967e-15
8.21717e-15
9.62745e-15
1.51941e-14
1.47158e-14
1.7812e-14
2.07897e-14
2.21956e-14
2.35233e-14
2.27464e-14
2.33096e-14
2.21751e-14
2.26627e-14
2.30355e-14
2.37648e-14
4.29074e-15
4.72589e-15
5.28405e-15
6.58542e-15
7.33131e-15
8.89487e-15
8.27771e-15
1.22032e-14
1.20525e-14
1.39031e-14
1.75316e-14
1.95195e-14
2.00719e-14
2.17537e-14
2.08223e-14
2.10206e-14
2.24185e-14
2.45698e-14
2.71841e-14
2.78551e-14
4.29069e-15
5.47489e-15
6.23121e-15
7.1178e-15
7.65397e-15
8.27424e-15
8.42794e-15
8.99542e-15
8.35994e-15
8.83053e-15
1.0751e-14
1.03083e-14
1.37975e-14
1.37426e-14
1.4396e-14
1.90489e-14
1.91185e-14
2.2775e-14
2.62969e-14
2.54882e-14
4.29065e-15
5.45488e-15
5.70575e-15
6.2281e-15
6.80209e-15
7.84303e-15
7.32156e-15
7.52753e-15
7.9964e-15
8.51312e-15
9.09314e-15
1.05839e-14
1.19066e-14
2.09897e-14
2.12518e-14
2.26278e-14
2.41965e-14
2.63694e-14
3.41809e-14
3.32931e-14
4.24651e-15
5.22234e-15
5.38413e-15
5.88018e-15
6.37131e-15
6.82203e-15
7.27459e-15
8.23381e-15
7.72266e-15
9.38901e-15
1.25727e-14
1.22055e-14
1.42713e-14
1.37252e-14
1.45123e-14
1.78471e-14
1.73264e-14
1.78763e-14
1.84971e-14
1.9359e-14
4.29069e-15
5.3486e-15
6.28169e-15
7.30653e-15
8.93948e-15
8.2541e-15
9.74759e-15
1.11466e-14
1.16634e-14
1.19227e-14
1.27663e-14
1.2028e-14
1.36901e-14
1.32212e-14
1.4408e-14
1.56076e-14
1.79632e-14
2.89736e-14
2.8866e-14
3.63226e-14
4.29071e-15
5.42801e-15
5.4066e-15
5.98032e-15
5.40528e-15
7.28153e-15
7.04657e-15
8.55914e-15
1.01421e-14
1.00089e-14
1.11936e-14
1.22414e-14
2.04849e-14
2.06952e-14
2.6072e-14
3.17101e-14
3.44465e-14
3.63144e-14
3.58201e-14
3.62361e-14
4.29071e-15
5.44875e-15
6.19224e-15
6.42695e-15
6.95436e-15
7.99437e-15
7.82801e-15
8.43519e-15
8.83413e-15
1.00469e-14
9.52277e-15
1.15301e-14
1.12431e-14
1.28494e-14
1.43372e-14
2.44553e-14
2.4942e-14
2.64051e-14
2.84053e-14
3.74663e-14
4.29066e-15
5.5717e-15
5.14827e-15
6.46427e-15
5.89201e-15
7.9521e-15
7.58689e-15
9.37627e-15
8.81589e-15
9.36683e-15
1.15729e-14
1.1115e-14
1.15606e-14
1.40195e-14
1.51471e-14
1.73795e-14
1.79349e-14
1.85458e-14
1.97245e-14
2.07963e-14
4.29062e-15
5.4085e-15
6.14821e-15
6.98202e-15
8.67939e-15
8.13136e-15
9.11915e-15
1.02718e-14
9.57411e-15
1.19472e-14
1.172e-14
1.22923e-14
1.30551e-14
1.61306e-14
1.55988e-14
1.64569e-14
1.71458e-14
1.81867e-14
1.90289e-14
2.06933e-14
4.2906e-15
5.32033e-15
6.24449e-15
7.49832e-15
8.9298e-15
1.02064e-14
1.09082e-14
1.14934e-14
1.06444e-14
1.11015e-14
1.14315e-14
1.18894e-14
1.29816e-14
1.39434e-14
1.57664e-14
1.73677e-14
2.83931e-14
2.85654e-14
3.28808e-14
3.92129e-14
4.29093e-15
5.43623e-15
6.20256e-15
6.17408e-15
6.21735e-15
6.61202e-15
7.76723e-15
8.48795e-15
9.07536e-15
1.0197e-14
9.66993e-15
1.28035e-14
1.27291e-14
1.33586e-14
1.45032e-14
1.55074e-14
1.69831e-14
1.82139e-14
1.99942e-14
2.68731e-14
4.29091e-15
5.38998e-15
6.41595e-15
7.09999e-15
6.90211e-15
6.96787e-15
7.37369e-15
7.66608e-15
9.1724e-15
9.26226e-15
1.05352e-14
1.23883e-14
1.18246e-14
1.30117e-14
1.51209e-14
1.49768e-14
1.67253e-14
1.84879e-14
3.2259e-14
3.34819e-14
4.2909e-15
5.68491e-15
5.03389e-15
5.86605e-15
7.66839e-15
7.082e-15
8.07803e-15
9.30426e-15
8.69228e-15
9.19691e-15
1.12728e-14
1.07541e-14
1.13209e-14
1.40202e-14
1.35338e-14
1.56723e-14
1.92662e-14
2.3119e-14
2.3609e-14
2.45886e-14
4.29091e-15
5.36882e-15
5.84894e-15
7.59927e-15
6.94324e-15
7.9955e-15
8.85949e-15
8.55833e-15
8.82837e-15
9.27926e-15
9.59219e-15
1.01476e-14
1.20267e-14
1.30231e-14
1.46233e-14
1.40427e-14
1.48175e-14
1.55391e-14
1.94695e-14
2.11966e-14
4.29088e-15
5.39764e-15
6.32029e-15
7.14778e-15
7.41274e-15
8.17823e-15
7.49343e-15
8.4705e-15
8.61515e-15
8.92071e-15
1.12795e-14
1.1088e-14
1.15625e-14
1.42326e-14
1.44403e-14
1.73065e-14
1.89304e-14
2.06812e-14
3.13472e-14
3.18376e-14
4.29042e-15
5.32528e-15
6.30025e-15
7.45339e-15
9.04574e-15
1.0105e-14
1.07919e-14
1.14278e-14
1.10833e-14
1.14182e-14
1.16537e-14
1.37737e-14
1.33428e-14
1.37114e-14
1.4313e-14
1.48469e-14
1.56914e-14
1.64301e-14
2.08207e-14
2.06743e-14
4.29042e-15
5.38007e-15
6.30515e-15
7.03912e-15
8.57244e-15
9.77108e-15
1.11711e-14
1.14174e-14
1.21173e-14
1.14835e-14
1.17029e-14
1.18209e-14
1.36826e-14
1.44303e-14
1.86599e-14
2.3381e-14
2.26337e-14
2.53461e-14
2.78658e-14
2.81336e-14
4.29041e-15
5.23573e-15
5.46687e-15
5.37038e-15
5.83673e-15
6.18978e-15
8.21199e-15
1.13185e-14
1.34934e-14
1.35614e-14
1.59905e-14
1.51604e-14
1.57132e-14
1.82285e-14
1.74897e-14
1.81795e-14
2.09644e-14
2.23542e-14
2.47072e-14
2.39026e-14
4.29039e-15
5.31644e-15
6.30293e-15
6.79918e-15
7.38371e-15
7.12229e-15
7.64544e-15
9.18336e-15
1.22452e-14
1.16714e-14
1.29295e-14
1.39996e-14
2.15817e-14
2.15795e-14
2.76348e-14
3.054e-14
3.23091e-14
3.30141e-14
3.42483e-14
3.28939e-14
4.29039e-15
5.34042e-15
6.63855e-15
6.37076e-15
7.04531e-15
9.00654e-15
1.08265e-14
1.00515e-14
1.25323e-14
1.19635e-14
1.24977e-14
1.31249e-14
1.48738e-14
1.71931e-14
1.64619e-14
1.72602e-14
1.80773e-14
1.93093e-14
2.0388e-14
2.5698e-14
4.29044e-15
5.3617e-15
6.18263e-15
7.49943e-15
9.05623e-15
1.06356e-14
1.20258e-14
1.32786e-14
1.37534e-14
1.4415e-14
1.38398e-14
1.42459e-14
1.45667e-14
1.71204e-14
1.64896e-14
1.78904e-14
1.90874e-14
2.15949e-14
2.39277e-14
3.38888e-14
4.24661e-15
5.49943e-15
5.77615e-15
6.87361e-15
6.13423e-15
6.48796e-15
7.44782e-15
8.59377e-15
8.07862e-15
8.82811e-15
9.44875e-15
1.07685e-14
1.20082e-14
1.32802e-14
1.56716e-14
1.77612e-14
3.1655e-14
3.18194e-14
3.36435e-14
3.55604e-14
4.2904e-15
4.7315e-15
5.28319e-15
5.66086e-15
6.25202e-15
8.38497e-15
1.02742e-14
9.53158e-15
1.1848e-14
1.13493e-14
1.26269e-14
1.44607e-14
1.37552e-14
1.45061e-14
1.5113e-14
1.80421e-14
2.02652e-14
2.1278e-14
2.28616e-14
2.43567e-14
4.2907e-15
5.31383e-15
6.27479e-15
7.45695e-15
9.02761e-15
1.00063e-14
1.10144e-14
1.14783e-14
1.06119e-14
1.09118e-14
1.124e-14
1.16772e-14
1.34433e-14
1.28601e-14
1.3511e-14
1.40293e-14
1.72511e-14
1.67144e-14
1.91354e-14
2.73337e-14
4.2907e-15
5.3873e-15
6.407e-15
7.089e-15
7.69085e-15
8.21263e-15
7.50642e-15
9.0983e-15
8.64784e-15
8.90302e-15
9.52695e-15
1.01906e-14
1.46806e-14
2.40624e-14
2.38816e-14
2.48736e-14
3.16553e-14
3.21566e-14
3.37382e-14
3.58236e-14
4.2907e-15
4.72811e-15
5.29175e-15
6.59373e-15
7.43801e-15
8.93287e-15
8.29862e-15
1.18638e-14
1.16432e-14
1.50189e-14
1.80714e-14
1.95093e-14
2.01205e-14
2.11504e-14
2.00749e-14
2.05809e-14
2.24258e-14
2.37333e-14
2.41697e-14
2.54916e-14
4.29057e-15
5.31749e-15
6.2018e-15
7.47704e-15
9.18788e-15
1.07672e-14
1.19274e-14
1.31632e-14
1.29178e-14
1.36167e-14
1.44886e-14
1.36147e-14
1.55412e-14
1.49627e-14
1.54424e-14
1.79649e-14
2.31846e-14
2.42888e-14
2.73398e-14
2.86941e-14
4.29287e-15
5.43962e-15
5.49973e-15
5.75882e-15
5.84735e-15
6.85567e-15
6.34615e-15
7.11063e-15
7.75867e-15
1.04308e-14
1.67478e-14
1.6358e-14
1.96086e-14
2.22009e-14
2.36096e-14
2.40193e-14
2.38137e-14
2.42559e-14
2.45789e-14
2.52141e-14
5.88925e-07
6.44912e-07
6.06386e-07
5.72793e-07
5.6788e-07
5.69676e-07
5.73167e-07
5.75154e-07
5.76097e-07
5.75002e-07
5.73108e-07
5.70834e-07
5.68414e-07
5.65893e-07
5.6363e-07
5.61272e-07
5.59362e-07
5.57168e-07
5.55548e-07
5.53438e-07
5.52089e-07
5.50064e-07
5.48994e-07
5.47033e-07
5.46129e-07
5.44314e-07
5.43404e-07
5.41854e-07
5.40921e-07
5.39591e-07
5.38662e-07
5.37501e-07
5.36594e-07
5.35537e-07
5.34659e-07
5.33688e-07
5.32851e-07
5.31958e-07
5.31165e-07
5.3034e-07
5.29595e-07
5.28815e-07
5.28116e-07
5.27376e-07
5.26723e-07
5.26024e-07
5.2542e-07
5.24766e-07
5.24207e-07
5.23599e-07
5.23083e-07
5.22527e-07
5.22052e-07
5.2156e-07
5.2113e-07
5.20717e-07
5.20337e-07
5.20014e-07
5.19691e-07
5.19453e-07
5.19194e-07
5.19028e-07
5.18843e-07
5.18752e-07
5.18647e-07
5.1863e-07
5.18594e-07
5.18644e-07
5.18674e-07
5.1878e-07
5.18856e-07
5.19e-07
5.19111e-07
5.19283e-07
5.19416e-07
5.19603e-07
5.19738e-07
5.19931e-07
5.19951e-07
5.20325e-07
5.90131e-07
1.05085e-06
1.72834e-06
2.52671e-06
3.08052e-06
3.52176e-06
3.86563e-06
4.10397e-06
4.27518e-06
4.36261e-06
4.41802e-06
4.45451e-06
4.47612e-06
4.49111e-06
4.50262e-06
4.51048e-06
4.51885e-06
4.52245e-06
4.52748e-06
4.52739e-06
4.53025e-06
4.52909e-06
4.53059e-06
4.52903e-06
4.52776e-06
4.52711e-06
4.52093e-06
4.52467e-06
4.51397e-06
4.52134e-06
4.5074e-06
4.51711e-06
4.50122e-06
4.5112e-06
4.49434e-06
4.50447e-06
4.4874e-06
4.49746e-06
4.48074e-06
4.49045e-06
4.47445e-06
4.48301e-06
4.46793e-06
4.47549e-06
4.46144e-06
4.46811e-06
4.45509e-06
4.46116e-06
4.44903e-06
4.45451e-06
4.44306e-06
4.44824e-06
4.43734e-06
4.44262e-06
4.43222e-06
4.43796e-06
4.42816e-06
4.43422e-06
4.42493e-06
4.43131e-06
4.42269e-06
4.42944e-06
4.42147e-06
4.42859e-06
4.42134e-06
4.42878e-06
4.42215e-06
4.42977e-06
4.42373e-06
4.43145e-06
4.42592e-06
4.4336e-06
4.42854e-06
4.43612e-06
4.4315e-06
4.43889e-06
4.43453e-06
4.44185e-06
4.43659e-06
4.44799e-06
1.38947e-07
3.91736e-07
6.11062e-07
1.25518e-06
2.27107e-06
3.42849e-06
4.54786e-06
5.27437e-06
5.78897e-06
6.14894e-06
6.42186e-06
6.62533e-06
6.77758e-06
6.90422e-06
7.00685e-06
7.09415e-06
7.16878e-06
7.2305e-06
7.28463e-06
7.32974e-06
7.36988e-06
7.40766e-06
7.43583e-06
7.46805e-06
7.48566e-06
7.51369e-06
7.52242e-06
7.54997e-06
7.55257e-06
7.57883e-06
7.57849e-06
7.60072e-06
7.59952e-06
7.61588e-06
7.61514e-06
7.62721e-06
7.62689e-06
7.63626e-06
7.63601e-06
7.64344e-06
7.64272e-06
7.64823e-06
7.64717e-06
7.65147e-06
7.65013e-06
7.6536e-06
7.65212e-06
7.65517e-06
7.65341e-06
7.65582e-06
7.654e-06
7.65601e-06
7.65437e-06
7.6564e-06
7.65501e-06
7.65744e-06
7.6567e-06
7.65877e-06
7.65933e-06
7.66112e-06
7.66345e-06
7.66466e-06
7.66867e-06
7.66989e-06
7.6751e-06
7.67547e-06
7.68169e-06
7.68271e-06
7.68938e-06
7.69011e-06
7.69676e-06
7.69726e-06
7.70394e-06
7.70433e-06
7.71109e-06
7.71072e-06
7.71776e-06
7.71561e-06
7.72406e-06
7.72107e-06
1.12264e-07
2.36324e-07
1.7735e-07
5.32955e-07
7.81932e-07
1.47555e-06
2.85744e-06
4.00788e-06
5.06063e-06
6.01494e-06
6.72765e-06
7.22279e-06
7.61862e-06
7.94926e-06
8.23049e-06
8.47398e-06
8.68465e-06
8.86447e-06
9.02294e-06
9.1627e-06
9.28549e-06
9.40287e-06
9.49538e-06
9.5964e-06
9.66499e-06
9.75179e-06
9.80386e-06
9.88025e-06
9.9208e-06
9.98829e-06
1.00208e-05
1.00795e-05
1.01047e-05
1.01543e-05
1.01752e-05
1.02175e-05
1.02355e-05
1.02722e-05
1.02877e-05
1.03196e-05
1.03324e-05
1.036e-05
1.03707e-05
1.03949e-05
1.04038e-05
1.04253e-05
1.04328e-05
1.04522e-05
1.04584e-05
1.04755e-05
1.04805e-05
1.0496e-05
1.05003e-05
1.05147e-05
1.05185e-05
1.05323e-05
1.0536e-05
1.05487e-05
1.05524e-05
1.05636e-05
1.05687e-05
1.05796e-05
1.05853e-05
1.05953e-05
1.06019e-05
1.061e-05
1.0619e-05
1.06262e-05
1.06361e-05
1.06405e-05
1.06504e-05
1.06538e-05
1.06636e-05
1.06669e-05
1.06764e-05
1.06776e-05
1.06872e-05
1.06857e-05
1.06967e-05
1.06938e-05
2.10996e-10
3.12086e-08
6.04149e-08
1.70188e-07
1.66454e-07
6.01545e-07
9.31212e-07
1.8337e-06
3.10473e-06
4.16146e-06
5.19743e-06
6.15915e-06
6.98298e-06
7.69056e-06
8.33837e-06
8.89543e-06
9.30434e-06
9.6599e-06
9.97766e-06
1.02622e-05
1.05149e-05
1.07534e-05
1.09563e-05
1.11579e-05
1.13188e-05
1.14898e-05
1.16211e-05
1.17691e-05
1.18788e-05
1.20081e-05
1.21007e-05
1.22145e-05
1.22895e-05
1.23896e-05
1.24527e-05
1.25407e-05
1.25957e-05
1.26736e-05
1.27216e-05
1.27906e-05
1.28317e-05
1.28934e-05
1.29289e-05
1.29844e-05
1.30149e-05
1.3065e-05
1.30918e-05
1.31374e-05
1.31605e-05
1.32015e-05
1.32216e-05
1.32589e-05
1.32765e-05
1.33109e-05
1.33268e-05
1.33587e-05
1.33729e-05
1.34022e-05
1.34149e-05
1.34408e-05
1.34538e-05
1.34785e-05
1.34907e-05
1.3513e-05
1.35252e-05
1.35441e-05
1.3558e-05
1.35727e-05
1.35897e-05
1.35998e-05
1.36151e-05
1.36236e-05
1.36387e-05
1.36484e-05
1.36616e-05
1.36665e-05
1.36797e-05
1.36815e-05
1.3696e-05
1.36947e-05
2.0785e-11
3.03064e-09
6.45894e-09
2.33512e-08
5.3145e-08
1.56856e-07
1.64842e-07
6.50829e-07
1.0391e-06
1.94978e-06
3.2148e-06
4.13829e-06
5.09309e-06
6.03356e-06
6.93821e-06
7.73179e-06
8.46626e-06
9.15025e-06
9.7542e-06
1.02964e-05
1.07877e-05
1.12581e-05
1.16405e-05
1.1978e-05
1.2264e-05
1.25533e-05
1.2793e-05
1.30452e-05
1.32486e-05
1.34707e-05
1.3645e-05
1.38397e-05
1.39873e-05
1.41585e-05
1.42864e-05
1.44373e-05
1.45508e-05
1.46846e-05
1.47859e-05
1.49044e-05
1.49931e-05
1.51002e-05
1.51775e-05
1.52751e-05
1.53424e-05
1.54315e-05
1.54914e-05
1.55731e-05
1.56253e-05
1.57001e-05