/*--------------------------------*- C++ -*----------------------------------*\
| =========                 |                                                 |
| \\      /  F ield         | OpenFOAM: The Open Source CFD Toolbox           |
|  \\    /   O peration     | Version:  v1912                                 |
|   \\  /    A nd           | Website:  www.openfoam.com                      |
|    \\/     M anipulation  |                                                 |
\*---------------------------------------------------------------------------*/
FoamFile
{
    version     2.0;
    format      ascii;
    class       volScalarField;
    location    "100";
    object      omega;
}
// * * * * * * * * * * * * * * * * * * * * * * * * * * * * * * * * * * * * * //

dimensions      [0 0 -1 0 0 0 0];


internalField   nonuniform List<scalar> 
10000
(
614.933
437.616
376.179
314.047
301.083
280.277
282.125
275.962
283.928
281.911
292.93
292.846
306.698
305.293
323.545
326.182
341.944
345.273
360.444
369.333
628.772
463.988
407.439
352.528
345.68
323.543
326.335
321.395
328.472
326.224
335.378
334.356
344.628
344.177
355.178
355.125
366.601
366.97
378.898
379.426
597.624
418.762
317.942
260.096
216.817
190.988
167.045
153.346
138.339
129.997
120.024
114.171
107.498
102.761
98.5086
94.2475
91.8777
87.9949
87.0832
84.5254
596.808
413.647
313.288
251.089
209.031
178.846
156.309
138.593
124.812
113.084
103.997
95.5355
89.2867
82.7627
78.3923
73.09
70.0496
65.5044
63.6703
58.6374
596.78
413.556
313.23
250.948
208.86
178.655
155.968
138.348
124.253
112.774
103.179
95.1432
88.1674
82.2638
76.9191
72.424
68.0663
64.4725
60.916
57.5457
596.774
413.554
313.231
250.944
208.858
178.646
155.964
138.328
124.25
112.737
103.183
95.0807
88.196
82.1631
77.0009
72.2779
68.327
64.3612
61.3588
57.7671
596.773
413.56
313.234
250.952
208.858
178.656
155.958
138.343
124.237
112.76
103.161
95.1167
88.1624
82.224
76.9496
72.3864
68.248
64.6059
61.2779
58.2377
596.776
413.569
313.238
250.96
208.859
178.667
155.955
138.358
124.227
112.781
103.144
95.1471
88.1366
82.2692
76.9119
72.4584
68.1944
64.7344
61.2145
58.4804
596.79
413.579
313.248
250.963
208.869
178.664
155.967
138.349
124.245
112.764
103.169
95.1211
88.1709
82.233
76.9587
72.4115
68.26
64.678
61.3103
58.422
596.783
413.58
313.253
250.962
208.877
178.658
155.981
138.336
124.266
112.743
103.199
95.09
88.2109
82.1901
77.0122
72.3548
68.331
64.6076
61.4051
58.3419
596.778
413.584
313.256
250.967
208.879
178.663
155.981
138.343
124.263
112.752
103.192
95.1021
88.2006
82.2063
76.9969
72.3766
68.3099
64.6367
61.3778
58.3826
596.777
413.589
313.26
250.972
208.883
178.668
155.983
138.347
124.264
112.757
103.193
95.1071
88.1996
82.2119
76.9947
72.3831
68.3066
64.6444
61.3736
58.3922
596.775
413.594
313.265
250.977
208.886
178.672
155.985
138.352
124.265
112.761
103.192
95.1122
88.1981
82.2179
76.9919
72.39
68.3024
64.6527
61.3678
58.4023
596.773
413.599
313.269
250.981
208.89
178.675
155.989
138.354
124.268
112.763
103.196
95.1133
88.2015
82.2181
76.9957
72.3895
68.3066
64.6514
61.3724
58.4001
596.769
413.603
313.273
250.985
208.894
178.679
155.992
138.357
124.271
112.765
103.199
95.1146
88.2047
82.2186
76.9995
72.3888
68.3114
64.6492
61.3786
58.3963
596.766
413.607
313.277
250.989
208.898
178.683
155.995
138.361
124.273
112.769
103.2
95.1186
88.2047
82.2232
76.9983
72.3942
68.3088
64.6557
61.3748
58.4043
596.762
413.611
313.281
250.993
208.901
178.686
155.998
138.364
124.275
112.772
103.201
95.1221
88.2052
82.2272
76.9976
72.399
68.3068
64.6619
61.3709
58.4122
596.758
413.615
313.285
250.997
208.905
178.69
156.001
138.367
124.278
112.774
103.204
95.1238
88.2078
82.2283
77.0004
72.3997
68.3097
64.6619
61.374
58.4119
596.755
413.619
313.289
251.001
208.909
178.693
156.005
138.369
124.281
112.776
103.207
95.125
88.2111
82.2288
77.004
72.3992
68.3139
64.6605
61.3791
58.4094
596.751
413.622
313.293
251.005
208.913
178.696
156.008
138.372
124.284
112.778
103.209
95.127
88.2132
82.2305
77.006
72.4007
68.3159
64.6617
61.3811
58.4103
596.748
413.626
313.297
251.009
208.916
178.7
156.011
138.375
124.286
112.781
103.211
95.1295
88.2147
82.233
77.007
72.4033
68.3165
64.6644
61.3814
58.4132
596.745
413.629
313.301
251.013
208.92
178.703
156.014
138.378
124.289
112.784
103.213
95.1318
88.2164
82.2351
77.0084
72.4053
68.3176
64.6665
61.3822
58.4156
596.742
413.633
313.305
251.016
208.923
178.706
156.017
138.38
124.292
112.786
103.215
95.1336
88.2185
82.2367
77.0103
72.4068
68.3192
64.6679
61.3837
58.4171
596.739
413.636
313.309
251.02
208.927
178.709
156.019
138.383
124.294
112.788
103.218
95.1353
88.2206
82.2382
77.0122
72.408
68.3211
64.669
61.3856
58.4181
596.737
413.639
313.312
251.023
208.93
178.712
156.022
138.385
124.297
112.79
103.22
95.1371
88.2225
82.2397
77.014
72.4094
68.3228
64.6702
61.3872
58.4194
596.734
413.642
313.316
251.027
208.933
178.715
156.025
138.388
124.299
112.792
103.222
95.1391
88.224
82.2416
77.0153
72.4112
68.3238
64.672
61.3882
58.4213
596.732
413.645
313.319
251.03
208.936
178.718
156.027
138.39
124.301
112.794
103.223
95.1408
88.2257
82.2431
77.0167
72.4126
68.3252
64.6734
61.3895
58.4227
596.73
413.647
313.322
251.033
208.939
178.72
156.03
138.392
124.303
112.796
103.225
95.1425
88.2273
82.2445
77.0182
72.4139
68.3266
64.6745
61.391
58.4239
596.728
413.649
313.325
251.036
208.942
178.723
156.032
138.394
124.305
112.798
103.227
95.144
88.2288
82.2459
77.0196
72.4151
68.328
64.6756
61.3924
58.4251
596.726
413.651
313.328
251.039
208.944
178.725
156.034
138.396
124.307
112.799
103.228
95.1456
88.2301
82.2473
77.0209
72.4163
68.3291
64.6768
61.3936
58.4264
596.725
413.653
313.331
251.041
208.947
178.727
156.036
138.398
124.308
112.801
103.23
95.1469
88.2315
82.2485
77.0222
72.4174
68.3304
64.6779
61.3949
58.4274
596.723
413.655
313.333
251.043
208.949
178.729
156.038
138.4
124.31
112.803
103.231
95.1483
88.2327
82.2498
77.0232
72.4186
68.3314
64.6791
61.3959
58.4288
596.722
413.656
313.335
251.046
208.951
178.731
156.04
138.402
124.311
112.804
103.233
95.1495
88.2338
82.2509
77.0242
72.4197
68.3323
64.6802
61.3969
58.43
596.721
413.657
313.337
251.048
208.953
178.733
156.041
138.403
124.313
112.805
103.234
95.1505
88.2351
82.2517
77.0255
72.4205
68.3336
64.6809
61.3982
58.4309
596.72
413.658
313.339
251.049
208.954
178.735
156.043
138.404
124.314
112.806
103.235
95.1515
88.2361
82.2527
77.0264
72.4214
68.3345
64.6819
61.3992
58.4319
596.72
413.659
313.341
251.051
208.956
178.736
156.044
138.406
124.315
112.807
103.236
95.1527
88.2368
82.2538
77.0271
72.4225
68.3351
64.683
61.3999
58.4333
596.719
413.66
313.342
251.052
208.957
178.737
156.045
138.407
124.316
112.808
103.237
95.1535
88.2377
82.2546
77.0279
72.4233
68.3359
64.6839
61.4008
58.4343
596.718
413.66
313.343
251.054
208.959
178.739
156.047
138.408
124.317
112.809
103.238
95.1543
88.2386
82.2553
77.0287
72.4239
68.3368
64.6846
61.4018
58.435
596.718
413.661
313.344
251.055
208.96
178.74
156.047
138.409
124.318
112.81
103.238
95.1553
88.2391
82.2562
77.0292
72.4249
68.3374
64.6855
61.4026
58.4361
596.718
413.661
313.345
251.056
208.961
178.741
156.048
138.41
124.319
112.811
103.239
95.1558
88.2399
82.2567
77.0301
72.4253
68.3384
64.6859
61.4038
58.4366
596.717
413.661
313.346
251.057
208.962
178.741
156.049
138.41
124.32
112.811
103.24
95.1563
88.2407
82.2572
77.0309
72.4258
68.3392
64.6866
61.4046
58.4375
596.717
413.661
313.347
251.058
208.962
178.742
156.05
138.411
124.32
112.812
103.24
95.1571
88.241
82.2581
77.0311
72.4269
68.3393
64.6879
61.4047
58.4391
596.717
413.661
313.347
251.058
208.963
178.743
156.051
138.412
124.321
112.813
103.241
95.1575
88.2417
82.2584
77.0319
72.4272
68.3403
64.6882
61.406
58.4393
596.717
413.661
313.348
251.059
208.964
178.743
156.051
138.412
124.321
112.813
103.242
95.1581
88.2421
82.2591
77.0323
72.4279
68.3408
64.6891
61.4065
58.4404
596.717
413.661
313.348
251.059
208.964
178.744
156.052
138.413
124.322
112.814
103.242
95.159
88.2421
82.2603
77.032
72.4296
68.3401
64.6913
61.4056
58.4431
596.717
413.662
313.348
251.06
208.964
178.745
156.052
138.414
124.322
112.815
103.242
95.1598
88.2423
82.261
77.0325
72.43
68.3411
64.6914
61.4071
58.4429
596.717
413.662
313.348
251.06
208.965
178.745
156.052
138.414
124.322
112.815
103.242
95.1599
88.2431
82.261
77.0335
72.43
68.3423
64.6915
61.4085
58.4431
596.717
413.662
313.349
251.061
208.965
178.745
156.053
138.414
124.323
112.815
103.243
95.1599
88.244
82.261
77.0345
72.4301
68.3434
64.6917
61.4097
58.4435
596.717
413.662
313.349
251.061
208.966
178.746
156.053
138.414
124.323
112.815
103.244
95.1604
88.2444
82.2616
77.0349
72.4308
68.3439
64.6925
61.4103
58.4445
596.717
413.662
313.349
251.061
208.966
178.746
156.054
138.415
124.324
112.816
103.244
95.1608
88.2448
82.2621
77.0354
72.4314
68.3444
64.6933
61.4109
58.4454
596.717
413.662
313.349
251.061
208.966
178.746
156.054
138.415
124.324
112.816
103.244
95.1614
88.2451
82.2626
77.036
72.4318
68.3453
64.6935
61.4122
58.4455
596.717
413.662
313.349
251.061
208.966
178.746
156.054
138.415
124.324
112.817
103.245
95.1616
88.2457
82.263
77.0365
72.4324
68.3458
64.6944
61.4126
58.4466
596.717
413.662
313.349
251.061
208.967
178.747
156.054
138.416
124.325
112.817
103.245
95.1618
88.2463
82.2633
77.0372
72.4328
68.3465
64.695
61.4133
58.4475
596.717
413.662
313.349
251.062
208.967
178.747
156.055
138.416
124.325
112.817
103.246
95.1617
88.2474
82.2631
77.0384
72.4327
68.3479
64.695
61.4147
58.4477
596.717
413.662
313.349
251.062
208.967
178.747
156.055
138.416
124.325
112.817
103.246
95.1625
88.2473
82.2641
77.0384
72.4338
68.348
64.6961
61.415
58.4487
596.717
413.662
313.349
251.062
208.967
178.747
156.055
138.416
124.326
112.818
103.246
95.163
88.2476
82.2647
77.0387
72.4346
68.3483
64.6971
61.4153
58.4499
596.717
413.662
313.349
251.062
208.967
178.747
156.055
138.416
124.326
112.818
103.247
95.1634
88.248
82.2652
77.0392
72.4352
68.3489
64.6978
61.416
58.4505
596.717
413.662
313.349
251.062
208.967
178.748
156.055
138.417
124.326
112.818
103.247
95.1639
88.2484
82.2657
77.0397
72.4358
68.3495
64.6983
61.4168
58.4511
596.717
413.661
313.349
251.062
208.967
178.748
156.056
138.417
124.327
112.819
103.247
95.1642
88.2488
82.2662
77.0402
72.4363
68.35
64.6991
61.4173
58.4519
596.717
413.661
313.349
251.062
208.968
178.748
156.056
138.417
124.327
112.819
103.248
95.1645
88.2494
82.2665
77.0408
72.4367
68.3508
64.6994
61.4182
58.4523
596.717
413.661
313.35
251.062
208.968
178.748
156.056
138.417
124.327
112.819
103.248
95.1649
88.2498
82.267
77.0413
72.4372
68.3513
64.7
61.4187
58.4529
596.717
413.661
313.35
251.062
208.968
178.748
156.056
138.418
124.327
112.82
103.248
95.1655
88.2498
82.2678
77.0413
72.4382
68.3514
64.701
61.4189
58.4538
596.716
413.661
313.35
251.062
208.968
178.748
156.056
138.418
124.327
112.82
103.249
95.1657
88.2504
82.2679
77.0422
72.4382
68.3524
64.701
61.4199
58.4539
596.716
413.661
313.35
251.062
208.968
178.748
156.057
138.418
124.328
112.82
103.249
95.166
88.2508
82.2684
77.0424
72.439
68.3524
64.7021
61.4197
58.4552
596.716
413.661
313.35
251.062
208.968
178.748
156.057
138.418
124.328
112.82
103.249
95.1661
88.2514
82.2684
77.0433
72.4388
68.3536
64.7016
61.4213
58.4543
596.716
413.662
313.349
251.063
208.968
178.749
156.056
138.419
124.327
112.822
103.248
95.1677
88.2503
82.2702
77.0421
72.4407
68.3524
64.7035
61.4203
58.4562
596.716
413.661
313.35
251.062
208.968
178.748
156.057
138.418
124.329
112.82
103.251
95.166
88.2529
82.268
77.0452
72.4381
68.3559
64.7007
61.4239
58.4533
596.716
413.661
313.35
251.062
208.968
178.749
156.057
138.419
124.329
112.821
103.25
95.167
88.2523
82.2694
77.0442
72.4399
68.3546
64.7029
61.4223
58.4558
596.716
413.661
313.35
251.063
208.968
178.749
156.057
138.419
124.329
112.821
103.25
95.1675
88.2522
82.27
77.0441
72.4406
68.3545
64.7037
61.422
58.4567
596.716
413.661
313.35
251.063
208.968
178.749
156.057
138.419
124.329
112.821
103.251
95.1674
88.2527
82.2699
77.0447
72.4405
68.3552
64.7034
61.4229
58.4563
596.716
413.661
313.35
251.063
208.968
178.749
156.057
138.419
124.329
112.821
103.251
95.1677
88.2528
82.2703
77.0448
72.4409
68.3551
64.7039
61.4227
58.4569
596.716
413.661
313.35
251.063
208.968
178.749
156.057
138.419
124.329
112.822
103.251
95.1678
88.253
82.2703
77.0451
72.4408
68.3556
64.7038
61.4233
58.4567
596.716
413.661
313.35
251.063
208.969
178.749
156.058
138.419
124.329
112.822
103.251
95.1679
88.2531
82.2705
77.0451
72.4412
68.3555
64.7043
61.423
58.4573
596.716
413.661
313.35
251.063
208.968
178.749
156.058
138.419
124.329
112.822
103.251
95.1682
88.2529
82.2709
77.0449
72.4417
68.3551
64.7048
61.4226
58.4579
596.716
413.661
313.35
251.063
208.969
178.749
156.058
138.419
124.33
112.822
103.251
95.1678
88.2537
82.2702
77.0458
72.4407
68.3564
64.7035
61.4243
58.4562
596.716
413.661
313.35
251.063
208.968
178.749
156.058
138.42
124.329
112.822
103.251
95.1688
88.2525
82.2717
77.0442
72.4427
68.3542
64.7062
61.4214
58.4595
596.716
413.661
313.35
251.063
208.969
178.749
156.058
138.42
124.329
112.822
103.251
95.1684
88.2531
82.2711
77.045
72.4418
68.3553
64.7049
61.4229
58.4578
596.716
413.661
313.35
251.063
208.969
178.749
156.058
138.419
124.33
112.822
103.251
95.1679
88.2537
82.2703
77.0459
72.4408
68.3565
64.7036
61.4242
58.4564
596.716
413.661
313.35
251.063
208.969
178.749
156.058
138.419
124.329
112.822
103.251
95.1682
88.2533
82.2709
77.0452
72.4416
68.3555
64.7047
61.4229
58.4577
596.716
413.661
313.35
251.063
208.969
178.749
156.058
138.419
124.329
112.822
103.251
95.1681
88.2534
82.2707
77.0454
72.4414
68.3557
64.7043
61.4232
58.4572
596.716
413.662
313.35
251.063
208.968
178.75
156.057
138.42
124.329
112.823
103.25
95.1692
88.252
82.2722
77.0437
72.4431
68.3536
64.7065
61.4207
58.4597
596.716
413.662
313.35
251.063
208.969
178.749
156.058
138.42
124.329
112.822
103.251
95.1682
88.2531
82.2708
77.0451
72.4413
68.3555
64.7042
61.423
58.457
596.716
413.661
313.35
251.063
208.969
178.749
156.058
138.419
124.329
112.822
103.251
95.1681
88.2531
82.2707
77.045
72.4414
68.3552
64.7044
61.4226
58.4573
596.716
413.661
313.35
251.063
208.969
178.749
156.058
138.419
124.329
112.822
103.251
95.1678
88.2534
82.2703
77.0453
72.4408
68.3556
64.7037
61.4231
58.4566
596.716
413.662
313.35
251.063
208.968
178.749
156.057
138.42
124.329
112.822
103.25
95.1687
88.2521
82.2716
77.0437
72.4425
68.3536
64.7058
61.4207
58.459
596.716
413.662
313.35
251.063
208.968
178.749
156.058
138.419
124.329
112.822
103.251
95.168
88.2529
82.2706
77.0448
72.4411
68.355
64.704
61.4224
58.4568
596.716
413.662
313.35
251.063
208.969
178.749
156.058
138.419
124.329
112.822
103.251
95.168
88.2527
82.2706
77.0444
72.4414
68.3544
64.7045
61.4216
58.4575
596.717
413.661
313.35
251.062
208.969
178.749
156.058
138.418
124.33
112.82
103.252
95.1664
88.2545
82.2685
77.0467
72.4387
68.3572
64.7013
61.4248
58.4539
596.716
413.662
313.35
251.063
208.968
178.749
156.057
138.42
124.328
112.822
103.25
95.1689
88.2515
82.2716
77.0432
72.4423
68.3532
64.7053
61.4206
58.458
596.717
413.662
313.35
251.063
208.968
178.749
156.057
138.419
124.329
112.822
103.25
95.1682
88.2522
82.2706
77.0441
72.4411
68.3544
64.7038
61.4219
58.4564
596.717
413.662
313.35
251.063
208.968
178.749
156.057
138.42
124.329
112.822
103.25
95.1688
88.2513
82.2717
77.0426
72.4428
68.3522
64.7061
61.4191
58.4593
596.717
413.662
313.35
251.063
208.968
178.749
156.057
138.419
124.329
112.822
103.25
95.1681
88.2521
82.2706
77.0438
72.4411
68.3539
64.704
61.4212
58.4568
596.717
413.661
313.35
251.062
208.969
178.749
156.058
138.418
124.33
112.82
103.252
95.1664
88.2538
82.2686
77.0458
72.439
68.3559
64.7019
61.4231
58.4549
596.717
413.662
313.35
251.063
208.968
178.749
156.057
138.42
124.328
112.822
103.249
95.1688
88.251
82.2716
77.0425
72.4423
68.3524
64.7053
61.4195
58.4582
596.717
413.662
313.35
251.063
208.968
178.749
156.057
138.42
124.328
112.822
103.25
95.1681
88.2518
82.2704
77.0437
72.4408
68.354
64.7034
61.4214
58.456
596.717
413.662
313.35
251.063
208.968
178.749
156.057
138.419
124.329
112.822
103.25
95.1675
88.2524
82.2697
77.0445
72.4398
68.355
64.7021
61.4228
58.4543
596.717
413.662
313.35
251.063
208.968
178.749
156.057
138.419
124.329
112.821
103.251
95.1671
88.2527
82.2693
77.0447
72.4395
68.355
64.702
61.4226
58.4544
596.717
413.662
313.35
251.063
208.968
178.749
156.057
138.419
124.328
112.822
103.25
95.168
88.2516
82.2704
77.0434
72.4409
68.3534
64.7037
61.4207
58.4564
596.717
413.662
313.35
251.062
208.969
178.749
156.058
138.418
124.33
112.82
103.251
95.1661
88.2536
82.2682
77.0457
72.4383
68.356
64.7009
61.4234
58.4534
596.717
413.662
313.35
251.063
208.968
178.749
156.057
138.419
124.329
112.821
103.25
95.1675
88.252
82.2699
77.0436
72.4404
68.3537
64.7032
61.4209
58.4558
3487.45
3490.81
3260.84
3084.96
3018.7
2987
2973.7
2961.04
2948.34
2931.4
2913.44
2895.23
2877.44
2859.83
2844.09
2828.22
2815.06
2800.6
2789.56
2775.95
2766.86
2753.89
2746.72
2734.17
2728.65
2716.31
2711.98
2700.13
2696.77
2685.41
2682.8
2672.04
2669.92
2659.73
2657.9
2648.32
2646.68
2637.74
2636.23
2627.92
2626.48
2618.75
2617.35
2610.15
2608.8
2602.1
2600.84
2594.62
2593.48
2587.69
2586.72
2581.35
2580.57
2575.66
2575.12
2570.69
2570.46
2566.56
2566.69
2563.25
2563.79
2560.83
2561.79
2559.32
2560.7
2558.73
2560.46
2558.95
2560.99
2559.86
2562.1
2561.25
2563.61
2563.01
2565.38
2564.98
2567.17
2567.02
2568.25
2569.3
1238.84
1534.07
1661.14
1749.96
1711.71
1597.22
1502.46
1422.58
1362.73
1318.82
1286.63
1260.82
1240.33
1222.78
1208.57
1195.37
1184.5
1173.31
1164.73
1154.92
1148.26
1139.36
1134.37
1125.87
1122.26
1113.88
1111.85
1103.22
1102.51
1093.82
1093.86
1085.64
1085.74
1078.42
1078.38
1071.88
1071.75
1065.87
1065.71
1060.32
1060.12
1055.16
1054.95
1050.39
1050.18
1045.97
1045.78
1041.89
1041.73
1038.11
1037.99
1034.67
1034.59
1031.54
1031.56
1028.77
1028.9
1026.35
1026.63
1024.33
1024.78
1022.73
1023.36
1021.56
1022.38
1020.85
1021.83
1020.55
1021.72
1020.66
1021.95
1021.07
1022.43
1021.69
1023.08
1022.45
1023.84
1023.3
1024.78
1023.48
255.228
545.921
766.799
969.219
1027.97
1001.65
917.084
865.146
825.06
790.626
764.334
743.197
726.551
712.667
701.541
691.35
683.047
674.805
668.46
661.486
656.645
650.517
646.867
641.167
638.382
632.998
631.044
625.877
624.564
619.654
618.73
614.159
613.39
609.241
608.573
604.818
604.233
600.802
600.288
597.129
596.649
593.73
593.287
590.597
590.193
587.707
587.345
585.046
584.719
582.58
582.294
580.315
580.077
578.254
578.077
576.414
576.285
574.807
574.711
573.438
573.36
572.31
572.272
571.403
571.447
570.796
570.904
570.375
570.593
570.209
570.526
570.237
570.621
570.404
570.842
570.689
571.168
571.071
571.662
571.233
80.6462
117.875
235.385
372.606
541.293
660.583
676.695
658.994
625.276
596.403
573.064
552.089
535.2
521.014
509.236
498.495
490.013
481.959
475.638
469.075
464.299
458.729
455.014
450.024
447.103
442.631
440.351
436.28
434.49
430.789
429.315
425.922
424.663
421.587
420.51
417.722
416.786
414.242
413.425
411.078
410.341
408.17
407.505
405.505
404.908
403.061
402.527
400.818
400.331
398.741
398.302
396.829
396.442
395.085
394.75
393.513
393.227
392.112
391.87
390.884
390.686
389.833
389.692
388.965
388.887
388.307
388.223
387.768
387.74
387.449
387.489
387.268
387.364
387.179
387.339
387.214
387.426
387.338
387.65
387.419
56.3134
54.7508
84.9189
102.321
183.719
274.352
405.413
484.375
502.014
496.004
478.497
459.818
444.565
430.193
417.475
405.964
396.671
387.816
380.702
373.679
368.287
362.418
358.108
353.139
349.777
345.505
342.772
339.02
336.778
333.46
331.548
328.557
326.929
324.251
322.855
320.439
319.225
317.03
315.97
313.944
313.005
311.134
310.299
308.577
307.836
306.246
305.584
304.108
303.508
302.133
301.592
300.315
299.831
298.652
298.219
297.141
296.755
295.771
295.429
294.544
294.251
293.466
293.226
292.545
292.358
291.788
291.604
291.176
290.989
290.694
290.59
290.346
290.288
290.039
290.066
289.897
289.971
289.821
289.972
289.791
55.7343
52.1288
52.1773
49.1928
69.2444
78.5195
143.623
217.026
315.696
378.07
397.625
396.082
387.742
375.846
364.985
354.713
345.309
335.898
328.213
320.723
314.606
308.241
303.235
297.979
293.998
289.536
286.24
282.421
279.678
276.345
273.992
271.093
269.101
266.549
264.828
262.538
261.04
258.971
257.662
255.764
254.619
252.872
251.868
250.26
249.374
247.885
247.101
245.71
245.008
243.709
243.081
241.87
241.308
240.183
239.677
238.64
238.181
237.224
236.809
235.935
235.568
234.779
234.463
233.761
233.495
232.882
232.636
232.143
231.91
231.516
231.35
231.013
230.879
230.6
230.551
230.286
230.29
230.025
230.077
229.871
55.4956
52.8896
50.4154
48.4512
47.0324
44.4572
57.4117
65.1817
112.921
169.873
248.278
301.244
324.212
326.985
323.989
317.243
309.592
301.933
295.183
288.013
281.681
275.26
269.918
264.479
259.92
255.208
251.376
247.387
244.126
240.646
237.816
234.841
232.436
229.838
227.742
225.426
223.605
221.523
219.943
218.061
216.694
214.971
213.782
212.196
211.151
209.677
208.754
207.376
206.559
205.274
204.547
203.345
202.694
201.571
200.985
199.938
199.405
198.427
197.943
197.038
196.603
195.773
195.388
194.634
194.298
193.617
193.316
192.729
192.46
191.955
191.74
191.302
191.119
190.755
190.645
190.298
190.242
189.935
189.922
189.602
55.4566
53.2737
50.5502
48.7878
46.4168
45.0396
43.1944
42.737
46.7905
52.4759
86.3511
127.868
189.54
237.972
265.412
275.37
275.016
272.538
267.625
262.037
257.003
251.811
246.964
241.919
237.243
232.67
228.594
224.601
220.935
217.398
214.176
211.116
208.302
205.603
203.125
200.733
198.579
196.431
194.549
192.603
190.982
189.206
187.805
186.164
184.935
183.407
182.326
180.909
179.965
178.645
177.808
176.571
175.821
174.66
173.984
172.893
172.278
171.253
170.693
169.736
169.228
168.338
167.882
167.057
166.649
165.889
165.529
164.842
164.527
163.913
163.647
163.105
162.877
162.415
162.249
161.821
161.702
161.332
161.276
160.86
55.6158
53.2088
50.8923
48.8046
46.8733
44.9677
43.3592
41.5453
40.5988
38.2978
42.0314
44.7326
66.0601
92.2829
137.336
182.897
214.051
230.933
236.294
235.807
233.83
230.349
226.533
222.751
219.031
215.349
211.586
208.015
204.312
201.05
197.714
194.755
191.67
188.969
186.215
183.808
181.376
179.185
177.025
175.005
173.134
171.28
169.658
167.932
166.511
164.899
163.652
162.153
161.066
159.665
158.701
157.385
156.525
155.286
154.51
153.341
152.638
151.54
150.9
149.867
149.284
148.314
147.784
146.873
146.392
145.542
145.115
144.33
143.953
143.236
142.91
142.266
141.986
141.421
141.198
140.688
140.508
140.062
139.955
139.47
55.748
53.1568
51.0563
48.8002
47.0929
45.065
43.6509
41.774
40.596
38.87
38.0254
36.3502
37.4432
38.2248
49.761
63.6595
94.8673
131.225
165.628
188.665
200.895
205.187
204.925
203.694
201.39
198.616
195.661
193.032
189.992
187.465
184.427
181.902
178.876
176.458
173.686
171.436
168.876
166.743
164.423
162.421
160.375
158.489
156.685
154.898
153.311
151.633
150.239
148.653
147.422
145.924
144.833
143.421
142.449
141.113
140.236
138.966
138.17
136.969
136.244
135.108
134.446
133.369
132.764
131.745
131.194
130.239
129.746
128.853
128.408
127.582
127.191
126.443
126.106
125.435
125.152
124.552
124.314
123.783
123.621
123.074
55.7135
53.2316
50.9955
48.9252
47.0033
45.2682
43.5756
42.1049
40.5761
39.3222
37.9067
36.8503
35.5646
34.6667
34.0918
33.7253
39.3455
44.8357
61.2281
87.0318
117.517
144.708
164.42
174.658
179.722
179.944
179.262
177.796
175.724
173.819
171.393
169.603
167.122
165.316
162.853
160.992
158.575
156.706
154.462
152.657
150.59
148.792
146.911
145.154
143.486
141.8
140.316
138.687
137.35
135.787
134.596
133.107
132.041
130.617
129.652
128.281
127.399
126.089
125.281
124.032
123.291
122.097
121.419
120.279
119.663
118.58
118.026
117.005
116.495
115.545
115.088
114.228
113.828
113.049
112.703
112.002
111.707
111.082
110.865
110.251
55.7093
53.2402
51.0052
48.9251
47.0367
45.2527
43.642
42.0833
40.7013
39.3113
38.1227
36.8545
35.8419
34.6379
33.7957
32.6512
32.1196
31.029
32.6993
34.1282
41.9237
53.3726
74.9922
99.4876
123.106
140.909
152.206
157.225
159.216
158.965
157.995
156.886
155.134
153.833
151.857
150.545
148.596
147.215
145.289
143.852
141.964
140.431
138.662
137.101
135.499
133.922
132.449
130.872
129.514
127.97
126.742
125.237
124.117
122.645
121.62
120.185
119.241
117.85
116.976
115.632
114.823
113.521
112.781
111.523
110.853
109.641
109.033
107.881
107.317
106.235
105.72
104.728
104.269
103.366
102.957
102.147
101.794
101.068
100.792
100.101
55.7023
53.2521
50.9978
48.942
47.0263
45.2789
43.6262
42.1264
40.6799
39.3845
38.0982
36.9765
35.8127
34.8413
33.764
32.9279
31.9102
31.193
30.2728
29.6911
29.2245
29.1058
32.3094
36.0533
44.9357
60.7838
80.8922
100.987
118.306
130.449
137.6
140.697
141.617
141.387
140.516
139.692
138.268
137.321
135.755
134.736
133.216
132.112
130.644
129.427
128.031
126.698
125.368
123.981
122.733
121.341
120.171
118.751
117.65
116.217
115.187
113.766
112.806
111.396
110.489
109.097
108.244
106.872
106.089
104.743
104.032
102.72
102.07
100.809
100.206
99.0078
98.4486
97.3289
96.8194
95.7938
95.3284
94.3994
93.9936
93.1541
92.8182
92.0347
55.7083
53.2472
51.0071
48.9334
47.0408
45.2658
43.6481
42.1074
40.7132
39.3581
38.1494
36.9414
35.8907
34.798
33.8853
32.8797
32.0913
31.146
30.473
29.5632
29.0034
28.135
27.7438
27.0072
27.325
27.789
31.7864
37.3548
46.7404
62.4952
79.3123
95.6282
108.919
118.159
123.52
126.013
126.675
126.55
125.915
125.257
124.147
123.373
122.244
121.345
120.217
119.24
118.176
117.109
116.072
114.938
113.91
112.695
111.699
110.43
109.48
108.186
107.271
105.938
105.05
103.69
102.839
101.471
100.678
99.308
98.5782
97.2175
96.5448
95.2188
94.5909
93.3234
92.732
91.5298
90.9796
89.8623
89.355
88.3245
87.8711
86.9261
86.5284
85.6459
55.7167
53.2418
51.0167
48.9273
47.0512
45.2595
43.6589
42.1021
40.7237
39.3552
38.1592
36.9433
35.8995
34.8084
33.8921
32.9048
32.0951
31.1969
30.4745
29.655
29.0002
28.257
27.6552
26.9761
26.4219
25.8022
25.4243
24.8985
25.8145
26.6365
30.7408
36.7727
45.177
59.0711
72.9544
86.6647
97.7701
105.662
110.585
112.961
113.895
113.84
113.533
112.972
112.151
111.458
110.636
109.876
109.009
108.16
107.327
106.421
105.603
104.605
103.795
102.72
101.904
100.75
99.9396
98.721
97.9303
96.6712
95.9091
94.6086
93.8872
92.5623
91.8891
90.5707
89.943
88.6684
88.0701
86.8464
86.2799
85.1207
84.5917
83.5048
83.0152
82.0014
81.552
80.5901
55.7116
53.2521
51.0079
48.941
47.0383
45.2773
43.6413
42.125
40.7003
39.3847
38.1286
36.9815
35.8605
34.8568
33.8455
32.9648
32.0438
31.2691
30.4221
29.7406
28.9535
28.3547
27.617
27.0898
26.389
25.9296
25.257
24.8641
24.2323
23.9239
23.4358
23.3015
23.9842
24.9877
28.589
33.7279
40.8773
52.2927
63.9936
75.7718
85.9095
93.3292
98.4552
101.2
102.597
102.852
102.732
102.394
101.779
101.176
100.504
99.8464
99.1872
98.4414
97.7442
96.925
96.2431
95.3535
94.6612
93.6756
92.9786
91.9176
91.2152
90.0813
89.3942
88.2077
87.5578
86.3438
85.7439
84.5398
83.9664
82.7915
82.2384
81.1043
80.5792
79.4947
78.9944
77.9651
77.4954
76.5013
55.7058
53.2619
51.0007
48.9519
47.0298
45.289
43.632
42.1368
40.6911
39.3957
38.1205
36.9905
35.8544
34.8634
33.8412
32.9691
32.0406
31.2717
30.4203
29.7422
28.9542
28.3567
27.621
27.0957
26.4033
25.9416
25.2863
24.8791
24.2594
23.8992
23.3179
22.9989
22.4587
22.2084
21.7799
21.7601
21.8732
23.0371
24.4916
29.4825
34.6252
43.811
53.2851
63.6839
73.0265
80.7675
86.4143
89.9897
92.1163
93.0092
93.1436
93.0025
92.6592
92.1618
91.593
90.9737
90.3863
89.7259
89.1237
88.3647
87.726
86.8938
86.2688
85.3699
84.7369
83.7673
83.1513
82.1273
81.5533
80.5084
79.9613
78.912
78.3891
77.3518
76.8583
75.8417
75.3647
74.387
73.9341
72.9818
55.709
53.2611
51.0043
48.9502
47.0339
45.2864
43.6367
42.133
40.6971
39.3898
38.1292
36.9812
35.867
34.8492
33.8592
32.9489
32.0649
31.2449
30.4512
29.7088
28.9919
28.3173
27.6654
27.0509
26.4548
25.8935
25.346
24.831
24.3267
23.8509
23.3847
22.9428
22.5135
22.1004
21.7066
21.3181
20.9581
20.6148
20.3168
20.1439
20.0952
21.0254
21.8131
24.9815
28.3366
34.9354
42.2718
50.9764
59.5226
67.3012
73.8082
78.4292
81.6482
83.3996
84.3435
84.4965
84.3778
84.0481
83.5768
83.014
82.4536
81.8039
81.2359
80.5388
79.9482
79.1878
78.5877
77.7756
77.1983
76.3645
75.8175
74.9617
74.4449
73.5797
73.1001
72.2241
71.7665
70.902
70.4739
69.6362
55.7155
53.2574
51.0122
48.9448
47.0433
45.2791
43.6478
42.1239
40.7097
39.3792
38.1429
36.9697
35.8812
34.8377
33.8731
32.9381
32.0779
31.2355
30.463
29.7012
29.0021
28.3118
27.6741
27.0478
26.4618
25.8925
25.3513
24.832
24.3307
23.8544
23.3899
22.95
22.5198
22.1107
21.7123
21.3296
20.9604
20.6008
20.2596
19.9217
19.6091
19.3029
19.046
18.8095
18.7215
18.7996
19.5193
20.6483
22.762
26.7596
31.5595
38.3397
45.3885
52.7132
59.5128
65.3044
69.882
72.9662
75.1212
76.0515
76.6596
76.5711
76.3365
75.84
75.3211
74.7263
74.1371
73.5129
72.9297
72.284
71.7143
71.0415
70.5063
69.8162
69.3174
68.6055
68.1363
67.4162
66.9833
66.287
55.7179
53.2581
51.0146
48.9452
47.0456
45.2793
43.65
42.1241
40.7116
39.3797
38.144
36.971
35.8811
34.8401
33.8717
32.9418
32.0751
31.2403
30.4591
29.7066
28.9979
28.3171
27.6704
27.0524
26.4591
25.8962
25.3496
24.8352
24.3296
23.8583
23.3886
22.9557
22.5179
22.1193
21.7097
21.342
20.9576
20.6178
20.2547
19.9423
19.5958
19.3118
18.9762
18.7236
18.3959
18.1731
17.8673
17.6821
17.4396
17.3926
17.5493
17.8855
19.0337
20.6903
22.9967
27.21
31.8654
37.7885
43.731
49.6297
55.0877
59.6764
63.3944
65.968
67.7607
68.7627
69.171
69.2918
69.1292
68.7071
68.1412
67.5918
66.988
66.3981
65.8294
65.2389
64.7322
64.1092
63.686
63.064
55.7181
53.2613
51.0145
48.9484
47.0452
45.2825
43.6492
42.1274
40.7103
39.3835
38.142
36.9755
35.8782
34.8454
33.8679
32.9476
32.0707
31.2463
30.4543
29.7125
28.9928
28.3227
27.6648
27.0577
26.453
25.9012
25.3428
24.8401
24.322
23.863
23.3802
22.9603
22.5089
22.1234
21.7011
21.345
20.9501
20.6193
20.2499
19.9417
19.5947
19.3087
18.979
18.7169
18.3984
18.1626
17.8502
17.6409
17.3329
17.1483
16.849
16.6882
16.4188
16.2955
16.13
16.0956
16.4335
16.7472
17.7169
19.1824
20.9156
24.4768
27.5233
32.3418
36.4003
41.2981
45.3252
49.4447
52.6906
55.5672
57.5703
59.4064
60.3344
61.2911
61.7704
62.1387
61.9614
61.6212
61.3793
60.4939
55.7188
53.2639
51.0149
48.9509
47.0454
45.285
43.6492
42.13
40.7102
39.3859
38.1419
36.9776
35.8783
34.847