/*--------------------------------*- C++ -*----------------------------------*\
| =========                 |                                                 |
| \\      /  F ield         | OpenFOAM: The Open Source CFD Toolbox           |
|  \\    /   O peration     | Version:  v1912                                 |
|   \\  /    A nd           | Website:  www.openfoam.com                      |
|    \\/     M anipulation  |                                                 |
\*---------------------------------------------------------------------------*/
FoamFile
{
    version     2.0;
    format      ascii;
    class       volScalarField;
    location    "100";
    object      p;
}
// * * * * * * * * * * * * * * * * * * * * * * * * * * * * * * * * * * * * * //

dimensions      [0 2 -2 0 0 0 0];


internalField   nonuniform List<scalar> 
10000
(
0.00117636
0.00253736
0.00228959
0.00211369
0.00209643
0.00213854
0.00214954
0.00218796
0.00220694
0.00226735
0.00229974
0.00238503
0.002434
0.00255907
0.00263512
0.00283548
0.00296681
0.00336149
0.00366717
0.00498973
0.00119213
0.0025212
0.00228736
0.00211309
0.00209609
0.0021384
0.00214939
0.00218794
0.00220683
0.0022674
0.0022996
0.00238515
0.00243379
0.0025593
0.00263475
0.0028359
0.00296616
0.00336202
0.00366686
0.00496741
0.00121311
0.00249924
0.00228641
0.00211331
0.00209635
0.00213844
0.00214961
0.00218788
0.00220705
0.00226723
0.00229988
0.00238485
0.00243418
0.00255881
0.00263535
0.00283504
0.00296718
0.00335995
0.00366982
0.00492272
0.00123554
0.00247744
0.00228605
0.00211376
0.00209623
0.00213853
0.0021494
0.002188
0.00220679
0.00226742
0.00229955
0.00238512
0.00243375
0.00255917
0.00263479
0.00283546
0.00296648
0.00335973
0.00366905
0.00487481
0.00125879
0.00245517
0.00228532
0.00211369
0.00209619
0.00213827
0.00214952
0.00218778
0.00220698
0.00226717
0.00229979
0.00238481
0.00243402
0.00255879
0.00263505
0.00283497
0.00296661
0.00335854
0.0036673
0.00482791
0.00128259
0.00243262
0.00228405
0.00211398
0.00209603
0.00213837
0.00214941
0.00218791
0.00220684
0.00226728
0.00229963
0.00238487
0.00243387
0.00255873
0.00263497
0.00283458
0.00296673
0.0033565
0.00366585
0.0047798
0.00130708
0.00240953
0.00228272
0.00211417
0.00209603
0.00213819
0.00214945
0.00218776
0.00220688
0.00226712
0.00229965
0.00238472
0.00243386
0.00255854
0.00263489
0.00283416
0.00296666
0.00335416
0.00366405
0.00473005
0.00133207
0.0023863
0.00228092
0.00211451
0.00209585
0.00213812
0.00214937
0.00218773
0.00220683
0.00226707
0.00229962
0.00238459
0.00243384
0.00255828
0.00263487
0.00283356
0.00296662
0.00335133
0.00366163
0.00467905
0.00135765
0.0023628
0.00227883
0.00211481
0.00209574
0.00213796
0.00214934
0.00218765
0.0022068
0.00226696
0.00229958
0.00238443
0.00243378
0.00255798
0.0026348
0.0028328
0.00296657
0.00334786
0.00365867
0.00462691
0.00138358
0.00233928
0.00227633
0.00211521
0.00209558
0.00213779
0.00214928
0.00218755
0.00220676
0.00226682
0.00229953
0.00238422
0.00243372
0.00255761
0.00263472
0.00283191
0.00296647
0.00334377
0.00365511
0.00457366
0.00140987
0.00231577
0.00227345
0.00211562
0.00209541
0.00213759
0.00214922
0.00218743
0.0022067
0.00226667
0.00229948
0.00238397
0.00243365
0.00255715
0.00263462
0.00283082
0.00296631
0.00333899
0.00365085
0.00451935
0.00143646
0.00229236
0.00227011
0.00211608
0.00209522
0.00213735
0.00214913
0.00218729
0.00220664
0.00226648
0.00229941
0.00238368
0.00243356
0.00255661
0.0026345
0.00282954
0.00296609
0.00333348
0.00364582
0.00446407
0.00146329
0.00226915
0.00226632
0.00211656
0.00209501
0.00213706
0.00214904
0.00218713
0.00220657
0.00226625
0.00229933
0.00238333
0.00243345
0.00255598
0.00263434
0.00282802
0.00296576
0.0033272
0.00363993
0.00440791
0.00149025
0.00224626
0.00226205
0.00211706
0.00209479
0.00213673
0.00214892
0.00218693
0.00220649
0.00226599
0.00229923
0.00238292
0.00243333
0.00255523
0.00263416
0.00282626
0.00296532
0.00332008
0.0036331
0.00435097
0.00151726
0.00222378
0.00225727
0.00211757
0.00209455
0.00213635
0.00214879
0.0021867
0.00220639
0.00226568
0.00229912
0.00238244
0.00243317
0.00255435
0.00263393
0.00282422
0.00296473
0.0033121
0.00362523
0.00429334
0.00154425
0.00220183
0.00225199
0.00211808
0.0020943
0.00213591
0.00214863
0.00218643
0.00220627
0.00226532
0.00229899
0.00238189
0.00243299
0.00255334
0.00263364
0.00282187
0.00296396
0.00330321
0.00361622
0.00423514
0.00157112
0.00218051
0.00224617
0.00211858
0.00209404
0.00213541
0.00214845
0.00218613
0.00220613
0.0022649
0.00229883
0.00238124
0.00243278
0.00255218
0.0026333
0.00281919
0.00296296
0.00329336
0.00360596
0.00417649
0.00159778
0.00215994
0.00223983
0.00211903
0.00209377
0.00213483
0.00214823
0.00218577
0.00220597
0.00226442
0.00229865
0.0023805
0.00243253
0.00255084
0.00263288
0.00281614
0.0029617
0.00328253
0.00359434
0.00411749
0.00162414
0.00214021
0.00223295
0.00211944
0.0020935
0.00213419
0.00214798
0.00218536
0.00220579
0.00226387
0.00229843
0.00237965
0.00243222
0.00254931
0.00263236
0.00281269
0.00296011
0.00327068
0.00358128
0.00405827
0.00165012
0.00212142
0.00222555
0.00211976
0.00209322
0.00213346
0.00214769
0.00218489
0.00220557
0.00226323
0.00229818
0.00237868
0.00243187
0.00254757
0.00263173
0.00280881
0.00295815
0.00325779
0.00356664
0.00399893
0.00167562
0.00210367
0.00221764
0.00211998
0.00209293
0.00213265
0.00214735
0.00218435
0.00220532
0.0022625
0.00229788
0.00237757
0.00243145
0.0025456
0.00263097
0.00280447
0.00295574
0.00324384
0.00355034
0.0039396
0.00170054
0.00208704
0.00220924
0.00212006
0.00209265
0.00213175
0.00214697
0.00218373
0.00220504
0.00226168
0.00229754
0.00237632
0.00243094
0.00254338
0.00263004
0.00279963
0.00295282
0.00322881
0.00353227
0.00388038
0.0017248
0.00207161
0.0022004
0.00211999
0.00209236
0.00213075
0.00214652
0.00218303
0.00220471
0.00226074
0.00229713
0.0023749
0.00243035
0.00254089
0.00262892
0.00279427
0.0029493
0.00321269
0.00351234
0.00382138
0.0017483
0.00205745
0.00219114
0.00211973
0.00209206
0.00212965
0.00214601
0.00218224
0.00220432
0.00225968
0.00229666
0.0023733
0.00242965
0.0025381
0.00262757
0.00278834
0.00294509
0.00319548
0.00349045
0.00376267
0.00177096
0.0020446
0.00218153
0.00211924
0.00209176
0.00212844
0.00214543
0.00218134
0.00220388
0.00225849
0.00229611
0.0023715
0.00242882
0.00253499
0.00262595
0.00278183
0.00294011
0.00317719
0.00346655
0.00370436
0.00179268
0.00203311
0.00217162
0.0021185
0.00209145
0.00212711
0.00214477
0.00218033
0.00220337
0.00225714
0.00229547
0.00236949
0.00242783
0.00253153
0.002624
0.0027747
0.00293425
0.00315782
0.00344056
0.0036465
0.00181339
0.00202299
0.00216148
0.00211747
0.00209112
0.00212566
0.00214402
0.00217918
0.00220278
0.00225563
0.00229471
0.00236724
0.00242667
0.00252771
0.00262169
0.00276693
0.00292741
0.00313738
0.00341245
0.00358913
0.00183303
0.00201425
0.00215119
0.00211613
0.00209076
0.00212409
0.00214316
0.0021779
0.0022021
0.00225395
0.00229383
0.00236475
0.0024253
0.00252349
0.00261893
0.00275848
0.00291949
0.0031159
0.0033822
0.00353231
0.00185153
0.00200687
0.00214083
0.00211444
0.00209035
0.00212239
0.00214219
0.00217646
0.00220132
0.00225206
0.0022928
0.00236198
0.00242367
0.00251885
0.00261568
0.00274934
0.00291039
0.00309338
0.00334981
0.00347603
0.00186885
0.00200079
0.00213049
0.00211239
0.0020899
0.00212055
0.0021411
0.00217485
0.00220041
0.00224997
0.0022916
0.00235891
0.00242177
0.00251377
0.00261185
0.00273947
0.00289998
0.00306985
0.00331531
0.00342031
0.00188494
0.00199597
0.00212025
0.00210996
0.00208936
0.00211857
0.00213986
0.00217305
0.00219936
0.00224765
0.0022902
0.00235554
0.00241952
0.00250823
0.00260736
0.00272887
0.00288819
0.00304533
0.00327875
0.00336511
0.00189978
0.00199232
0.00211021
0.00210712
0.00208873
0.00211644
0.00213847
0.00217104
0.00219815
0.00224508
0.00228856
0.00235182
0.00241689
0.00250219
0.00260214
0.0027175
0.00287491
0.00301983
0.00324022
0.00331041
0.00191336
0.00198973
0.00210046
0.00210389
0.00208797
0.00211416
0.00213691
0.00216882
0.00219675
0.00224224
0.00228665
0.00234775
0.00241382
0.00249564
0.0025961
0.00270534
0.00286005
0.00299335
0.00319982
0.00325616
0.00192567
0.00198808
0.00209106
0.00210025
0.00208705
0.00211172
0.00213516
0.00216635
0.00219513
0.00223912
0.00228443
0.00234331
0.00241025
0.00248854
0.00258914
0.00269237
0.00284357
0.00296591
0.0031577
0.00320231
0.00193673
0.00198725
0.00208209
0.00209623
0.00208595
0.0021091
0.0021332
0.00216363
0.00219327
0.0022357
0.00228185
0.00233846
0.0024061
0.00248088
0.00258119
0.00267856
0.00282539
0.0029375
0.003114
0.00314878
0.00194656
0.00198707
0.00207361
0.00209182
0.00208463
0.0021063
0.00213101
0.00216063
0.00219112
0.00223195
0.00227887
0.00233318
0.00240132
0.00247261
0.00257215
0.00266388
0.00280549
0.00290812
0.00306893
0.00309553
0.00195518
0.00198741
0.00206565
0.00208707
0.00208305
0.00210331
0.00212856
0.00215733
0.00218864
0.00222786
0.00227543
0.00232745
0.00239582
0.00246372
0.00256195
0.00264829
0.00278386
0.00287775
0.00302266
0.00304249
0.00196263
0.00198809
0.00205823
0.00208199
0.00208117
0.0021001
0.00212582
0.00215371
0.0021858
0.00222339
0.00227146
0.00232124
0.00238954
0.00245416
0.00255052
0.00263175
0.00276051
0.00284637
0.00297541
0.00298962
0.00196896
0.00198897
0.00205136
0.00207661
0.00207895
0.00209666
0.00212278
0.00214976
0.00218253
0.00221853
0.00226692
0.00231451
0.0023824
0.00244388
0.00253778
0.00261422
0.00273547
0.00281397
0.00292739
0.00293688
0.00197421
0.00198989
0.002045
0.00207099
0.00207635
0.00209296
0.00211938
0.00214544
0.0021788
0.00221324
0.00226174
0.00230723
0.00237433
0.00243285
0.0025237
0.00259563
0.00270881
0.00278052
0.00287881
0.00288425
0.00197841
0.0019907
0.00203912
0.00206514
0.00207335
0.00208899
0.00211561
0.00214074
0.00217454
0.0022075
0.00225585
0.00229937
0.00236526
0.002421
0.00250824
0.00257594
0.00268059
0.00274603
0.00282987
0.00283176
0.00198162
0.00199128
0.00203365
0.00205911
0.00206989
0.00208471
0.00211141
0.00213562
0.0021697
0.00220127
0.00224919
0.00229086
0.00235513
0.00240827
0.00249136
0.00255509
0.0026509
0.00271047
0.00278074
0.0027794
0.00198388
0.0019915
0.00202851
0.00205291
0.00206595
0.00208009
0.00210674
0.00213006
0.00216423
0.0021945
0.0022417
0.00228165
0.0023439
0.00239461
0.00247308
0.00253303
0.00261986
0.00267387
0.00273158
0.00272724
0.0019852
0.00199127
0.00202358
0.00204656
0.0020615
0.00207509
0.00210156
0.00212403
0.00215806
0.00218716
0.00223332
0.00227169
0.00233151
0.00237993
0.0024534
0.0025097
0.00258758
0.00263625
0.00268253
0.00267533
0.00198562
0.00199049
0.00201875
0.00204007
0.00205649
0.00206968
0.00209582
0.00211749
0.00215114
0.00217918
0.002224
0.00226091
0.00231793
0.00236416
0.00243234
0.00248506
0.00255416
0.00259766
0.0026337
0.00262374
0.00198514
0.00198909
0.00201389
0.00203342
0.00205091
0.0020638
0.00208946
0.00211039
0.00214341
0.0021705
0.00221369
0.00224923
0.00230314
0.00234723
0.00240992
0.00245909
0.00251973
0.00255815
0.00258517
0.00257256
0.00198377
0.001987
0.00200888
0.00202658
0.00204472
0.0020574
0.00208244
0.00210269
0.00213484
0.00216106
0.00220234
0.00223658
0.00228712
0.00232907
0.0023862
0.00243178
0.00248439
0.00251782
0.00253699
0.00252186
0.00198151
0.00198418
0.00200358
0.00201951
0.0020379
0.00205044
0.00207469
0.00209432
0.00212535
0.00215079
0.00218993
0.00222287
0.00226987
0.00230963
0.00236122
0.00240313
0.00244822
0.00247676
0.00248919
0.00247172
0.00197833
0.00198058
0.00199786
0.00201215
0.0020304
0.00204285
0.00206618
0.00208523
0.00211492
0.0021396
0.00217641
0.00220804
0.00225137
0.00228884
0.00233501
0.00237318
0.00241133
0.00243508
0.0024418
0.0024222
0.00197422
0.00197614
0.00199159
0.00200441
0.0020222
0.00203457
0.00205684
0.00207534
0.00210351
0.00212742
0.00216176
0.002192
0.00223162
0.00226669
0.00230764
0.00234197
0.00237378
0.0023929
0.00239481
0.00237335
0.00196914
0.00197083
0.00198467
0.0019962
0.00201326
0.00202553
0.00204662
0.00206457
0.00209106
0.00211417
0.00214596
0.00217469
0.00221064
0.00224316
0.00227913
0.00230956
0.00233565
0.00235033
0.00234824
0.0023252
0.00196305
0.00196458
0.00197698
0.00198742
0.00200352
0.00201565
0.00203548
0.00205285
0.00207756
0.00209977
0.00212897
0.00215607
0.00218842
0.00221824
0.00224952
0.00227604
0.00229697
0.00230747
0.00230206
0.00227775
0.0019559
0.00195735
0.00196844
0.00197794
0.00199294
0.00200487
0.00202335
0.0020401
0.00206295
0.00208415
0.00211077
0.0021361
0.00216497
0.00219196
0.00221887
0.0022415
0.00225782
0.00226444
0.00225627
0.002231
0.00194765
0.00194907
0.00195894
0.00196767
0.00198146
0.00199309
0.00201019
0.00202623
0.0020472
0.00206726
0.00209134
0.00211474
0.00214028
0.00216435
0.00218719
0.00220603
0.00221824
0.00222132
0.00221088
0.00218494
0.00193823
0.00193967
0.00194842
0.00195647
0.00196902
0.00198025
0.00199594
0.00201118
0.00203026
0.00204904
0.00207066
0.00209199
0.00211436
0.00213546
0.00215454
0.00216973
0.00217827
0.00217817
0.00216586
0.00213952
0.0019276
0.00192908
0.00193678
0.00194423
0.00195553
0.00196625
0.00198053
0.00199486
0.0020121
0.00202946
0.00204869
0.00206786
0.00208722
0.00210535
0.00212096
0.00213269
0.00213797
0.00213506
0.00212123
0.00209471
0.00191568
0.00191721
0.00192396
0.00193084
0.00194092
0.00195103
0.00196392
0.00197723
0.00199266
0.00200848
0.00202541
0.00204235
0.00205887
0.00207407
0.00208649
0.00209499
0.00209737
0.00209202
0.00207695
0.00205047
0.00190242
0.001904
0.00190986
0.00191619
0.00192511
0.00193451
0.00194604
0.00195823
0.00197191
0.00198609
0.00200082
0.00201549
0.00202933
0.00204171
0.00205117
0.00205671
0.00205653
0.00204909
0.00203303
0.00200674
0.00188774
0.00188935
0.00189443
0.0019002
0.00190802
0.00191661
0.00192683
0.00193781
0.00194979
0.00196227
0.00197489
0.00198731
0.00199862
0.00200831
0.00201506
0.00201792
0.00201548
0.00200626
0.00198944
0.00196348
0.00187157
0.0018732
0.00187757
0.00188276
0.00188956
0.00189728
0.00190621
0.00191594
0.00192628
0.00193703
0.00194762
0.00195784
0.00196677
0.00197394
0.00197822
0.00197867
0.00197424
0.00196357
0.00194616
0.00192063
0.00185385
0.00185548
0.00185922
0.00186381
0.00186964
0.00187645
0.00188415
0.00189257
0.00190133
0.00191036
0.00191902
0.00192712
0.00193382
0.00193865
0.00194068
0.00193901
0.00193286
0.00192099
0.00190317
0.00187816
0.00183451
0.0018361
0.00183928
0.00184328
0.00184821
0.00185408
0.00186058
0.0018677
0.00187493
0.00188228
0.00188909
0.00189518
0.00189981
0.0019025
0.00190251
0.00189897
0.00189135
0.00187852
0.00186043
0.001836
0.00181348
0.00181503
0.00181771
0.00182109
0.00182518
0.00183011
0.00183546
0.0018413
0.00184707
0.00185279
0.00185785
0.00186207
0.00186478
0.00186555
0.00186373
0.00185859
0.00184971
0.00183614
0.00181791
0.00179411
0.00179071
0.0017922
0.00179442
0.00179721
0.0018005
0.00180451
0.00180876
0.00181335
0.00181772
0.00182192
0.00182533
0.00182782
0.00182878
0.00182782
0.00182439
0.00181789
0.00180796
0.00179384
0.00177558
0.00175245
0.00176615
0.00176757
0.00176937
0.00177159
0.00177412
0.00177725
0.00178045
0.00178385
0.0017869
0.00178966
0.00179155
0.00179247
0.00179183
0.00178935
0.00178453
0.00177688
0.00176609
0.00175158
0.00173338
0.00171095
0.00173975
0.0017411
0.00174252
0.00174419
0.00174602
0.00174831
0.00175051
0.0017528
0.00175462
0.00175606
0.00175654
0.00175604
0.00175398
0.00175019
0.00174415
0.00173556
0.00172409
0.00170934
0.00169128
0.00166957
0.00171149
0.00171276
0.00171383
0.00171499
0.00171616
0.00171767
0.00171895
0.00172021
0.00172089
0.00172113
0.00172034
0.00171858
0.00171527
0.00171034
0.00170329
0.00169394
0.00168194
0.00166708
0.00164925
0.00162826
0.00168135
0.00168255
0.00168329
0.00168398
0.00168454
0.00168534
0.00168577
0.00168609
0.00168573
0.00168489
0.00168298
0.00168012
0.00167573
0.00166984
0.00166195
0.00165201
0.00163963
0.00162477
0.00160722
0.00158697
0.00164932
0.00165046
0.0016509
0.00165116
0.00165117
0.00165132
0.00165098
0.00165046
0.00164918
0.00164739
0.00164449
0.00164069
0.00163538
0.00162871
0.00162013
0.00160975
0.00159714
0.00158236
0.00156517
0.00154565
0.00161542
0.00161649
0.00161667
0.00161655
0.00161607
0.00161563
0.00161461
0.00161336
0.00161126
0.00160865
0.00160491
0.00160031
0.00159424
0.00158694
0.00157785
0.00156717
0.00155443
0.00153982
0.00152303
0.00150425
0.00157967
0.00158068
0.00158063
0.00158017
0.00157926
0.00157832
0.0015767
0.00157481
0.00157201
0.00156871
0.00156426
0.00155901
0.00155233
0.00154455
0.00153508
0.00152422
0.00151147
0.00149711
0.00148078
0.00146273
0.0015421
0.00154307
0.00154281
0.00154207
0.00154078
0.00153941
0.00153729
0.00153485
0.00153148
0.00152761
0.00152258
0.00151682
0.00150968
0.00150155
0.00149184
0.0014809
0.00146824
0.00145419
0.00143835
0.00142103
0.00150278
0.00150371
0.00150328
0.00150229
0.00150069
0.00149896
0.00149643
0.00149355
0.00148971
0.00148538
0.00147992
0.00147376
0.00146629
0.00145793
0.0014481
0.00143719
0.00142471
0.00141101
0.0013957
0.00137913
0.00146178
0.00146266
0.00146209
0.00146091
0.00145906
0.00145704
0.00145417
0.00145095
0.00144675
0.00144208
0.00143629
0.00142986
0.00142218
0.00141371
0.00140386
0.00139307
0.00138083
0.00136754
0.0013528
0.00133696
0.00141917
0.00142001
0.00141933
0.00141799
0.00141595
0.00141371
0.00141059
0.00140711
0.00140266
0.00139774
0.00139174
0.00138515
0.00137737
0.00136888
0.00135911
0.00134851
0.00133659
0.00132375
0.0013096
0.0012945
0.00137503
0.00137584
0.00137508
0.00137362
0.00137145
0.00136904
0.00136576
0.0013621
0.00135748
0.00135241
0.0013463
0.00133964
0.00133186
0.00132344
0.00131383
0.00130349
0.00129195
0.0012796
0.00126606
0.0012517
0.00132947
0.00133025
0.00132944
0.0013279
0.00132564
0.00132313
0.00131974
0.00131598
0.00131127
0.00130614
0.00130001
0.00129337
0.00128567
0.0012774
0.00126803
0.00125801
0.00124688
0.00123506
0.00122216
0.00120852
0.00128259
0.00128334
0.0012825
0.00128092
0.00127861
0.00127605
0.00127262
0.00126882
0.00126411
0.00125899
0.00125291
0.00124637
0.00123883
0.00123077
0.00122169
0.00121204
0.00120138
0.0011901
0.00117784
0.00116495
0.0012345
0.00123523
0.00123437
0.00123278
0.00123047
0.0012279
0.00122448
0.00122071
0.00121604
0.001211
0.00120504
0.00119866
0.00119134
0.00118356
0.00117483
0.00116559
0.00115542
0.00114471
0.00113311
0.00112094
0.00118531
0.00118602
0.00118516
0.00118359
0.0011813
0.00117877
0.00117541
0.0011717
0.00116714
0.00116224
0.00115645
0.00115029
0.00114324
0.00113577
0.00112743
0.00111864
0.00110899
0.00109886
0.00108792
0.00107648
0.00113513
0.00113581
0.00113498
0.00113344
0.00113121
0.00112874
0.00112548
0.00112189
0.00111748
0.00111275
0.00110719
0.00110128
0.00109454
0.00108744
0.00107951
0.00107119
0.00106207
0.00105254
0.00104226
0.00103155
0.00108406
0.00108473
0.00108392
0.00108244
0.00108029
0.00107791
0.00107477
0.00107133
0.00106711
0.00106259
0.00105729
0.00105168
0.00104528
0.00103856
0.00103108
0.00102325
0.00101468
0.00100575
0.000996131
0.00098613
0.0010322
0.00103286
0.0010321
0.00103068
0.00102863
0.00102637
0.00102338
0.00102011
0.0010161
0.00101182
0.0010068
0.00100151
0.000995487
0.000989172
0.000982147
0.000974815
0.000966807
0.000958475
0.000949511
0.000940211
0.00097967
0.000980313
0.000979593
0.000978256
0.000976313
0.000974182
0.000971359
0.000968281
0.000964506
0.000960491
0.00095578
0.000950824
0.000945184
0.000939288
0.000932731
0.000925906
0.000918454
0.000910719
0.000902401
0.000893786
0.000926539
0.000927168
0.000926499
0.000925249
0.000923425
0.000921435
0.000918791
0.000915919
0.000912391
0.00090865
0.000904257
0.000899649
0.000894402
0.000888931
0.000882847
0.000876528
0.000869629
0.000862482
0.000854798
0.000846852
0.000872898
0.000873506
0.000872891
0.000871731
0.000870033
0.00086819
0.000865735
0.000863076
0.000859802
0.000856342
0.000852275
0.000848018
0.000843168
0.000838124
0.00083251
0.000826692
0.000820338
0.000813768
0.000806702
0.000799407
0.000818801
0.000819391
0.000818831
0.000817765
0.000816196
0.000814503
0.000812239
0.000809797
0.000806782
0.000803605
0.000799863
0.000795958
0.000791503
0.00078688
0.000781731
0.000776405
0.000770585
0.000764576
0.000758112
0.000751446
0.000764309
0.000764877
0.000764371
0.000763399
0.000761961
0.000760418
0.000758346
0.000756119
0.000753362
0.000750466
0.000747048
0.00074349
0.000739424
0.000735215
0.00073052
0.000725675
0.000720373
0.000714909
0.000709026
0.000702968
0.00070946
0.000709997
0.000709544
0.000708665
0.000707357
0.000705962
0.000704081
0.000702065
0.000699563
0.000696942
0.000693842
0.000690623
0.000686937
0.00068313
0.000678878
0.000674496
0.000669698
0.000664759
0.000659436
0.000653962
0.000654254
0.000654769
0.000654367
0.000653579
0.000652398
0.000651148
0.000649453
0.000647645
0.00064539
0.000643038
0.000640245
0.000637356
0.000634038
0.000630621
0.000626795
0.000622862
0.000618546
0.000614113
0.000609328
0.000604413
0.000598704
0.000599186
0.000598834
0.000598134
0.000597078
0.000595967
0.000594453
0.000592844
0.000590831
0.000588736
0.000586243
0.00058367
0.000580709
0.000577665
0.000574251
0.000570747
0.000566897
0.000562947
0.000558679
0.000554299
0.000542774
0.000543224
0.000542919
0.000542303
0.000541367
0.00054039
0.00053905
0.000537633
0.000535851
0.000534005
0.000531799
0.000529529
0.000526909
0.000524222
0.000521203
0.000518109
0.000514704
0.000511215
0.000507441
0.000503571
0.000486404
0.000486819
0.000486558
0.000486023
0.000485204
0.000484355
0.000483184
0.00048195
0.000480392
0.000478783
0.000476854
0.000474874
0.000472583
0.000470239
0.000467598
0.000464897
0.000461919
0.000458872
0.000455571
0.000452189
0.000429513
0.000429889
0.000429668
0.000429209
0.000428501
0.000427773
0.000426762
0.000425702
0.000424357
0.000422972
0.000421307
0.000419602
0.000417625
0.000415605
0.000413326
0.000410998
0.000408427
0.000405799
0.000402949
0.000400031
0.000371956
0.000372288
0.000372106
0.00037172
0.000371121
0.000370509
0.000369655
0.000368762
0.000367624
0.000366457
0.000365048
0.000363609
0.000361936
0.00036023
0.0003583
0.000356333
0.000354156
0.000351933
0.000349519
0.00034705
0.000313534
0.000313822
0.000313675
0.000313358
0.00031286
0.000312357
0.000311648
0.000310912
0.000309969
0.000309005
0.000307837
0.000306648
0.000305262
0.000303852
0.000302254
0.000300626
0.000298823
0.000296985
0.000294985
0.000292941
0.000254075
0.000254316
0.000254205
0.000253956
0.000253562
0.000253167
0.000252607
0.000252028
0.000251281
0.000250521
0.000249596
0.000248656
0.000247557
0.000246441
0.000245172
0.000243884
0.000242452
0.000240994
0.000239405
0.000237783
0.000193169
0.000193349
0.000193259
0.000193067
0.000192765
0.000192462
0.000192034
0.000191593
0.000191024
0.000190448
0.000189745
0.000189035
0.000188201
0.000187359
0.000186399
0.000185427
0.000184345
0.000183246
0.000182047
0.000180825
0.000130625
0.000130752
0.000130703
0.000130584
0.000130391
0.000130199
0.000129923
0.000129638
0.000129268
0.000128893
0.000128433
0.000127967
0.000127419
0.000126864
0.000126231
0.000125589
0.000124873
0.000124146
0.000123351
0.000122541
6.54889e-05
6.55327e-05
6.54816e-05
6.54047e-05
6.52926e-05
6.51793e-05
6.50234e-05
6.48634e-05
6.46615e-05
6.44571e-05
6.42114e-05
6.39633e-05
6.36753e-05
6.33844e-05
6.30554e-05
6.27224e-05
6.23539e-05
6.19799e-05
6.15734e-05
6.11594e-05
0.0054327
0.0030743
0.00194785
0.00171039
0.00168273
0.00163723
0.0015937
0.0015568
0.00149499
0.00142443
0.00134953
0.00128295
0.00121452
0.0011534
0.0010955
0.0010443
0.000998223
0.000952237
0.000910811
0.000869883
0.000833694
0.000794573
0.000765326
0.000728759
0.000702448
0.00066592
0.000644624
0.000608629
0.000589194
0.000555523
0.000539144
0.000506952
0.000489869
0.000460279
0.000443494
0.000416648
0.000398138
0.000374056
0.000355229
0.000334234
0.000313497
0.000293481
0.000272276
0.000254112
0.0002326
0.000214188
0.000192576
0.00017469
0.000153892
0.000135458
0.000114951
9.58958e-05
7.66528e-05
5.76467e-05
4.00147e-05
2.14912e-05
5.56754e-06
-1.14606e-05
-2.50151e-05
-4.05736e-05
-5.02827e-05
-6.19531e-05
-6.80308e-05
-7.71584e-05
-7.85914e-05
-8.16506e-05
-7.76261e-05
-7.75674e-05
-6.8181e-05
-6.37972e-05
-4.84826e-05
-4.21421e-05
-1.97303e-05
-1.05116e-05
2.47248e-05
3.85339e-05
0.00010127
0.000126754
0.000276962
0.00026475
0.0054101
0.00309377
0.00197654
0.00173753
0.00170286
0.00165174
0.00160398
0.00156462
0.0015012
0.00142958
0.00135414
0.00128715
0.00121843
0.00115701
0.00109887
0.00104739
0.00100114
0.000954904
0.000913358
0.000872213
0.000835946
0.000796621
0.000767325
0.000730569
0.000704236
0.000667538
0.000646246
0.000610093
0.00059066
0.000556858
0.000540467
0.000508179
0.000491066
0.000461418
0.000444585
0.00041771
0.000399136
0.000375046
0.000356146
0.000335157
0.000314342
0.00029434
0.000273061
0.000254911
0.000233331
0.000214929
0.000193255
0.000175371
0.00015452
0.000136081
0.000115527
9.64601e-05
7.71733e-05
5.81494e-05
4.04756e-05
2.19275e-05
5.96002e-06
-1.10974e-05
-2.46968e-05
-4.02854e-05
-5.0042e-05
-6.17439e-05
-6.78699e-05
-7.70244e-05
-7.85095e-05
-8.15965e-05
-7.7621e-05
-7.75805e-05
-6.82391e-05
-6.38664e-05
-4.85918e-05
-4.22501e-05
-1.98766e-05
-1.06409e-05
2.45474e-05
3.84082e-05
0.000101056
0.000126666
0.000276902
0.000264828
0.00535908
0.00310153
0.00199755
0.00176004
0.00172363
0.00166978
0.00161819
0.00157506
0.00150938
0.0014365
0.00136034
0.00129278
0.00122365
0.00116184
0.00110339
0.00105157
0.0010051
0.000958548
0.000916841
0.000875416
0.000839046
0.000799452
0.000770097
0.00073309
0.000706721
0.000669806
0.000648506
0.000612152
0.000592714
0.000558737
0.000542332
0.000509907
0.000492759
0.000463022
0.000446132
0.000419207
0.000400553
0.000376447
0.000357451
0.000336464
0.000315545
0.000295559
0.000274179
0.000256046
0.000234371
0.000215982
0.000194222
0.00017634
0.000155414
0.000136968
0.000116347
9.72623e-05
7.7913e-05
5.88629e-05
4.11296e-05
2.2546e-05
6.51531e-06
-1.05845e-05
-2.42475e-05
-3.98796e-05
-4.97028e-05
-6.14514e-05
-6.76454e-05
-7.684e-05
-7.83958e-05
-8.15249e-05
-7.76162e-05
-7.76026e-05
-6.83228e-05
-6.39676e-05
-4.87478e-05
-4.24065e-05
-2.00837e-05
-1.08284e-05
2.4296e-05
3.8219e-05
0.00010074
0.000126515
0.000276809
0.000264975
0.00531399
0.00311032
0.00200812
0.00176679
0.00173027
0.00167948
0.001629
0.00158302
0.00151636
0.00144257
0.00136545
0.00129727
0.00122788
0.00116588
0.00110726
0.00105524
0.00100857
0.000961773
0.000919939
0.000878294
0.000841842
0.000802029
0.000772632
0.000735422
0.000709008
0.00067193
0.000650598
0.000614094
0.000594625
0.00056052
0.000544083
0.000511551
0.000494355
0.000464551
0.0004476
0.000420637
0.000401906
0.000377787
0.000358704
0.000337718
0.000316706
0.000296731
0.000275262
0.00025714
0.000235381
0.000217001
0.000195165
0.000177282
0.000156289
0.000137834
0.000117152
9.80499e-05
7.86432e-05
5.95683e-05
4.17806e-05
2.3164e-05
7.0736e-06
-1.0066e-05
-2.37883e-05
-3.94602e-05
-4.93463e-05
-6.11395e-05
-6.73983e-05
-7.66302e-05
-7.82528e-05
-8.1426e-05
-7.75787e-05
-7.75928e-05
-6.83717e-05
-6.40371e-05
-4.88707e-05
-4.25328e-05
-2.02588e-05
-1.09894e-05
2.4069e-05
3.80439e-05
0.000100425
0.00012634
0.000276699
0.000265062
0.0052682
0.0031177
0.00201961
0.00177562
0.00173406
0.00168159
0.00163167
0.00158776
0.00152262
0.00144776
0.0013701
0.00130126
0.0012316
0.00116956
0.00111093
0.0010586
0.00101163
0.0009647
0.000922795
0.000881011
0.000844509
0.000804544
0.000775107
0.000737722
0.000711255
0.000674045
0.000652675
0.000616048
0.000596537
0.000562332
0.000545857
0.000513233
0.000495981
0.000466119
0.000449102
0.000422108
0.000403297
0.000379169
0.000360001
0.000339015
0.000317912
0.000297947
0.000276391
0.000258278
0.000236437
0.000218065
0.000196154
0.000178268
0.000157208
0.000138746
0.000118001
9.88826e-05
7.94161e-05
6.03182e-05
4.24735e-05
2.38253e-05
7.67243e-06
-9.50654e-06
-2.32911e-05
-3.9001e-05
-4.89522e-05
-6.07902e-05
-6.71177e-05
-7.63854e-05
-7.80756e-05
-8.12964e-05
-7.75116e-05
-7.75525e-05
-6.83911e-05
-6.40786e-05
-4.89682e-05
-4.26346e-05
-2.04135e-05
-1.11315e-05
2.38529e-05
3.78761e-05
0.000100093
0.000126133
0.000276511
0.000265056
0.00521928
0.00312446
0.00203223
0.00178507
0.00173942
0.00168477
0.00163174
0.00158741
0.00152377
0.00145136
0.00137497
0.0013051
0.00123536
0.0011733
0.00111443
0.00106171
0.00101457
0.000967606
0.000925593
0.000883743
0.000847233
0.000807157
0.000777577
0.000740022
0.000713508
0.00067622
0.000654816
0.000618098
0.000598546
0.000564263
0.000547738
0.00051503
0.000497717
0.000467801
0.000450718
0.000423695
0.000404804
0.000380668
0.000361418
0.000340427
0.000319236
0.000299274
0.000277632
0.000259522
0.000237601
0.000219232
0.000197247
0.000179356
0.000158227
0.000139756
0.000118946
9.9809e-05
8.02784e-05
6.11569e-05
4.32502e-05
2.45704e-05
8.34935e-06
-8.87052e-06
-2.27231e-05
-3.84716e-05
-4.84934e-05
-6.0379e-05
-6.6781e-05
-7.60849e-05
-7.78492e-05
-8.11222e-05
-7.74059e-05
-7.74726e-05
-6.83751e-05
-6.4086e-05
-4.9038e-05
-4.27096e-05
-2.05481e-05
-1.12524e-05
2.36465e-05
3.77167e-05
9.97392e-05
0.000125902
0.000276199
0.000264924
0.00516829
0.00313144
0.0020454
0.00179482
0.00174523
0.00168789
0.00163317
0.00158782
0.001523
0.00145116
0.00137577
0.00130761
0.00123934
0.00117686
0.00111738
0.00106473
0.00101758
0.000970465
0.00092824
0.000886436
0.000849929
0.000809732
0.000779957
0.000742309
0.000715761
0.000678442
0.000656985
0.000620217
0.000600626
0.000566263
0.000549623
0.000516858
0.000499488
0.000469546
0.000452404
0.000425364
0.000406399
0.000382257
0.000362924
0.000341926
0.000320653
0.000300688
0.000278967
0.000260855
0.000238858
0.00022049
0.000198438
0.000180534
0.000159342
0.000140855
0.000119984
0.000100823
8.12305e-05
6.2082e-05
4.41138e-05
2.54008e-05
9.11085e-06
-8.15236e-06
-2.2076e-05
-3.78642e-05
-4.79598e-05
-5.98963e-05
-6.63769e-05
-7.57183e-05
-7.75581e-05
-8.0887e-05
-7.72461e-05
-7.73398e-05
-6.83108e-05
-6.40467e-05
-4.90668e-05
-4.27451e-05
-2.06496e-05
-1.13395e-05
2.3461e-05
3.75785e-05
9.93685e-05
0.000125651
0.000275724
0.0002646
0.00511547
0.00313818
0.00205883
0.00180491
0.00175109
0.0016913
0.0016349
0.00158837
0.0015234
0.00145144
0.00137526
0.00130748
0.00124
0.00117849
0.00112046
0.00106824
0.00102026
0.000972849
0.000930713
0.000889015
0.000852404
0.000812071
0.000782229
0.000744649
0.000718029
0.000680648
0.000659114
0.000622343
0.000602698