/*--------------------------------*- C++ -*----------------------------------*\
| =========                 |                                                 |
| \\      /  F ield         | OpenFOAM: The Open Source CFD Toolbox           |
|  \\    /   O peration     | Version:  v1912                                 |
|   \\  /    A nd           | Website:  www.openfoam.com                      |
|    \\/     M anipulation  |                                                 |
\*---------------------------------------------------------------------------*/
FoamFile
{
    version     2.0;
    format      ascii;
    class       surfaceScalarField;
    location    "100";
    object      phi;
}
// * * * * * * * * * * * * * * * * * * * * * * * * * * * * * * * * * * * * * //

dimensions      [0 3 -1 0 0 0 0];
oriented        oriented;


internalField   nonuniform List<scalar> 
19800
(
2.28491e-07
-1.383e-08
2.28494e-07
-3.41377e-12
2.28646e-07
-1.51784e-10
2.28482e-07
1.64339e-10
2.28669e-07
-1.87329e-10
2.28483e-07
1.85664e-10
2.2867e-07
-1.8716e-10
2.28472e-07
1.98127e-10
2.28663e-07
-1.90965e-10
2.28453e-07
2.10183e-10
2.28647e-07
-1.93682e-10
2.28423e-07
2.23239e-10
2.28618e-07
-1.94743e-10
2.28379e-07
2.39309e-10
2.2857e-07
-1.90727e-10
2.2831e-07
2.59397e-10
2.28474e-07
-1.63816e-10
2.28202e-07
2.72093e-10
2.28146e-07
5.54463e-11
4.97296e-10
2.27649e-07
2.42159e-07
-1.69684e-08
2.42436e-07
-2.80282e-10
2.42266e-07
1.79525e-11
2.42406e-07
2.44377e-11
2.42256e-07
-3.71606e-11
2.42397e-07
4.47904e-11
2.42227e-07
-1.71673e-11
2.42378e-07
4.68772e-11
2.42191e-07
-4.24738e-12
2.42354e-07
4.71506e-11
2.42148e-07
1.26829e-11
2.42324e-07
4.72893e-11
2.42092e-07
3.70267e-11
2.42283e-07
4.86371e-11
2.42013e-07
7.86865e-11
2.42221e-07
5.11847e-11
2.41882e-07
1.76042e-10
2.42117e-07
3.63069e-11
2.41493e-07
6.79808e-10
4.12376e-10
2.41578e-07
2.55676e-07
-1.66351e-08
2.55885e-07
-4.89023e-10
2.55814e-07
8.90437e-11
2.55871e-07
-3.2642e-11
2.55829e-07
4.2689e-12
2.55873e-07
7.94305e-13
2.55824e-07
3.1826e-11
2.55863e-07
8.41682e-12
2.55811e-07
4.74706e-11
2.55844e-07
1.43551e-11
2.55788e-07
6.80862e-11
2.55815e-07
2.10567e-11
2.55752e-07
9.96112e-11
2.55771e-07
2.97265e-11
2.55692e-07
1.57981e-10
2.55703e-07
4.00233e-11
2.55578e-07
3.01309e-10
2.55584e-07
2.94728e-11
2.55212e-07
1.05212e-09
6.04668e-10
2.55019e-07
2.70096e-07
-1.59212e-08
2.70267e-07
-6.59957e-10
2.70235e-07
1.21393e-10
2.70252e-07
-5.05266e-11
2.70247e-07
9.99481e-12
2.70254e-07
-6.37382e-12
2.70238e-07
4.7009e-11
2.70242e-07
4.70309e-12
2.70222e-07
6.76738e-11
2.70223e-07
1.36427e-11
2.70196e-07
9.49877e-11
2.70193e-07
2.38061e-11
2.70155e-07
1.37229e-10
2.70148e-07
3.66351e-11
2.7009e-07
2.16317e-10
2.70078e-07
5.18169e-11
2.69969e-07
4.10909e-10
2.69954e-07
4.46485e-11
2.69594e-07
1.41181e-09
8.24309e-10
2.69374e-07
2.85419e-07
-1.52866e-08
2.85583e-07
-8.23913e-10
2.85557e-07
1.47473e-10
2.85568e-07
-6.12718e-11
2.85566e-07
1.20438e-11
2.85567e-07
-7.60695e-12
2.85555e-07
5.94267e-11
2.85553e-07
6.66621e-12
2.85534e-07
8.58531e-11
2.8553e-07
1.81601e-11
2.85504e-07
1.20869e-10
2.85497e-07
3.12341e-11
2.85459e-07
1.75155e-10
2.85448e-07
4.77681e-11
2.85387e-07
2.76719e-10
2.85371e-07
6.75621e-11
2.85256e-07
5.26008e-10
2.85235e-07
6.55143e-11
2.84869e-07
1.77815e-09
1.05832e-09
2.84635e-07
3.0162e-07
-1.46546e-08
3.01783e-07
-9.87021e-10
3.01758e-07
1.72537e-10
3.01768e-07
-7.20059e-11
3.01765e-07
1.5319e-11
3.01767e-07
-9.51098e-12
3.01753e-07
7.35565e-11
3.01751e-07
8.2005e-12
3.01731e-07
1.06149e-10
3.01727e-07
2.23005e-11
3.01698e-07
1.4952e-10
3.01691e-07
3.82642e-11
3.0165e-07
2.16751e-10
3.01639e-07
5.85297e-11
3.01573e-07
3.42195e-10
3.01558e-07
8.33047e-11
3.01435e-07
6.48933e-10
3.01411e-07
8.94551e-11
3.01037e-07
2.15182e-09
1.30415e-09
3.00791e-07
3.18738e-07
-1.40111e-08
3.18899e-07
-1.14773e-09
3.18876e-07
1.95236e-10
3.18886e-07
-8.17816e-11
3.18883e-07
1.86446e-11
3.18884e-07
-1.11623e-11
3.1887e-07
8.80807e-11
3.18868e-07
1.03717e-11
3.18847e-07
1.27103e-10
3.18842e-07
2.72755e-11
3.18812e-07
1.79305e-10
3.18804e-07
4.62644e-11
3.1876e-07
2.60312e-10
3.18748e-07
7.04248e-11
3.1868e-07
4.11014e-10
3.18662e-07
1.0057e-10
3.18533e-07
7.77853e-10
3.18504e-07
1.18545e-10
3.18127e-07
2.52913e-09
1.56293e-09
3.17868e-07
3.36829e-07
-1.33449e-08
3.36987e-07
-1.3049e-09
3.36966e-07
2.15475e-10
3.36975e-07
-9.08581e-11
3.36972e-07
2.236e-11
3.36973e-07
-1.29313e-11
3.36958e-07
1.03412e-10
3.36956e-07
1.27309e-11
3.36933e-07
1.49202e-10
3.36928e-07
3.26493e-11
3.36897e-07
2.10731e-10
3.36888e-07
5.48898e-11
3.36842e-07
3.06251e-10
3.36829e-07
8.31904e-11
3.36757e-07
4.83582e-10
3.36738e-07
1.19255e-10
3.36603e-07
9.13194e-10
3.36568e-07
1.53146e-10
3.36188e-07
2.90927e-09
1.83527e-09
3.35916e-07
3.55945e-07
-1.26221e-08
3.56099e-07
-1.45806e-09
3.56081e-07
2.3332e-10
3.56089e-07
-9.95711e-11
3.56085e-07
2.69456e-11
3.56087e-07
-1.54167e-11
3.56071e-07
1.20084e-10
3.56069e-07
1.45582e-11
3.56045e-07
1.73073e-10
3.5604e-07
3.7541e-11
3.56006e-07
2.44519e-10
3.55998e-07
6.31353e-11
3.55949e-07
3.55425e-10
3.55936e-07
9.58511e-11
3.55859e-07
5.6073e-10
3.5584e-07
1.38541e-10
3.55697e-07
1.05558e-09
3.55657e-07
1.92812e-10
3.55275e-07
3.2916e-09
2.11986e-09
3.5499e-07
3.76147e-07
-1.19063e-08
3.76294e-07
-1.60492e-09
3.7628e-07
2.47655e-10
3.76287e-07
-1.0699e-10
3.76283e-07
3.17281e-11
3.76285e-07
-1.76545e-11
3.76267e-07
1.37393e-10
3.76265e-07
1.68944e-11
3.7624e-07
1.97966e-10
3.76235e-07
4.31308e-11
3.76199e-07
2.79817e-10
3.7619e-07
7.23099e-11
3.76139e-07
4.06803e-10
3.76125e-07
1.0975e-10
3.76044e-07
6.41347e-10
3.76023e-07
1.59922e-10
3.75875e-07
1.20365e-09
3.75828e-07
2.39651e-10
3.75446e-07
3.67299e-09
2.41884e-09
3.75147e-07
3.97498e-07
-1.11962e-08
3.97637e-07
-1.74426e-09
3.97626e-07
2.5807e-10
3.97632e-07
-1.12742e-10
3.97627e-07
3.63778e-11
3.97629e-07
-1.92542e-11
3.97611e-07
1.54936e-10
3.97608e-07
2.01742e-11
3.97583e-07
2.23579e-10
3.97576e-07
4.97258e-11
3.97539e-07
3.16558e-10
3.97529e-07
8.2542e-11
3.97475e-07
4.60685e-10
3.9746e-07
1.24918e-10
3.97375e-07
7.25993e-10
3.97352e-07
1.8339e-10
3.97197e-07
1.35803e-09
3.97143e-07
2.93807e-10
3.96763e-07
4.05339e-09
2.73079e-09
3.9645e-07
4.20059e-07
-1.04802e-08
4.2019e-07
-1.8755e-09
4.20183e-07
2.65342e-10
4.20188e-07
-1.17917e-10
4.20183e-07
4.21024e-11
4.20185e-07
-2.13625e-11
4.20166e-07
1.73861e-10
4.20163e-07
2.32903e-11
4.20135e-07
2.50939e-10
4.20128e-07
5.64619e-11
4.20089e-07
3.55529e-10
4.20079e-07
9.32765e-11
4.20022e-07
5.17546e-10
4.20006e-07
1.41037e-10
4.19917e-07
8.14989e-10
4.19891e-07
2.08947e-10
4.1973e-07
1.51887e-09
4.19668e-07
3.56007e-10
4.1929e-07
4.43136e-09
3.05569e-09
4.18965e-07
4.43902e-07
-9.76173e-09
4.44024e-07
-1.9981e-09
4.44019e-07
2.69848e-10
4.44024e-07
-1.22879e-10
4.44017e-07
4.94888e-11
4.4402e-07
-2.43257e-11
4.43999e-07
1.94609e-10
4.43996e-07
2.60367e-11
4.43967e-07
2.80369e-10
4.4396e-07
6.31682e-11
4.43919e-07
3.96989e-10
4.43908e-07
1.04386e-10
4.43848e-07
5.77656e-10
4.4383e-07
1.58151e-10
4.43737e-07
9.0846e-10
4.43709e-07
2.36931e-10
4.43542e-07
1.6858e-09
4.43471e-07
4.26949e-10
4.43097e-07
4.80518e-09
3.39313e-09
4.42759e-07
4.69097e-07
-9.04817e-09
4.69209e-07
-2.11027e-09
4.69208e-07
2.70929e-10
4.69212e-07
-1.27288e-10
4.69204e-07
5.81134e-11
4.69207e-07
-2.77675e-11
4.69185e-07
2.16812e-10
4.69182e-07
2.86742e-11
4.69151e-07
3.11723e-10
4.69144e-07
7.00688e-11
4.691e-07
4.40948e-10
4.69088e-07
1.16064e-10
4.69025e-07
6.41065e-10
4.69007e-07
1.76395e-10
4.68909e-07
1.00651e-09
4.68878e-07
2.6763e-10
4.68705e-07
1.85876e-09
4.68625e-07
5.07515e-10
4.68256e-07
5.17321e-09
3.74291e-09
4.67906e-07
4.95723e-07
-8.34388e-09
4.95823e-07
-2.21046e-09
4.95826e-07
2.68065e-10
4.95829e-07
-1.3062e-10
4.9582e-07
6.7621e-11
4.95823e-07
-3.12398e-11
4.958e-07
2.40071e-10
4.95797e-07
3.16783e-11
4.95764e-07
3.44547e-10
4.95756e-07
7.7648e-11
4.9571e-07
4.8689e-10
4.95697e-07
1.28962e-10
4.95631e-07
7.0717e-10
4.95611e-07
1.96822e-10
4.95509e-07
1.10822e-09
4.95474e-07
3.02665e-10
4.95297e-07
2.03607e-09
4.95205e-07
5.99776e-10
4.94845e-07
5.5324e-09
4.10597e-09
4.94482e-07
5.2386e-07
-7.65242e-09
5.23946e-07
-2.29714e-09
5.23953e-07
2.60831e-10
5.23955e-07
-1.32619e-10
5.23945e-07
7.76243e-11
5.23948e-07
-3.42594e-11
5.23924e-07
2.6382e-10
5.2392e-07
3.56522e-11
5.23887e-07
3.78191e-10
5.23878e-07
8.68371e-11
5.23831e-07
5.33893e-10
5.23815e-07
1.44406e-10
5.23748e-07
7.74608e-10
5.23723e-07
2.21175e-10
5.2362e-07
1.21177e-09
5.23578e-07
3.44418e-10
5.23399e-07
2.21526e-09
5.23292e-07
7.07087e-10
5.22945e-07
5.87854e-09
4.48406e-09
5.22567e-07
5.53593e-07
-6.97858e-09
5.53665e-07
-2.36914e-09
5.53676e-07
2.49063e-10
5.53677e-07
-1.32924e-10
5.53666e-07
8.78755e-11
5.53668e-07
-3.63313e-11
5.53645e-07
2.87665e-10
5.53639e-07
4.11802e-11
5.53605e-07
4.12205e-10
5.53594e-07
9.81036e-11
5.53546e-07
5.81635e-10
5.53528e-07
1.62744e-10
5.53459e-07
8.43299e-10
5.5343e-07
2.49816e-10
5.53325e-07
1.31714e-09
5.53276e-07
3.9345e-10
5.53095e-07
2.39584e-09
5.52972e-07
8.29951e-10
5.52641e-07
6.21038e-09
4.87598e-09
5.52248e-07
5.85013e-07
-6.32623e-09
5.85069e-07
-2.42548e-09
5.85085e-07
2.3284e-10
5.85084e-07
-1.3168e-10
5.85074e-07
9.84054e-11
5.85075e-07
-3.73948e-11
5.85051e-07
3.1159e-10
5.85044e-07
4.82215e-11
5.85009e-07
4.46812e-10
5.84996e-07
1.11348e-10
5.84947e-07
6.30571e-10
5.84926e-07
1.83641e-10
5.84855e-07
9.13981e-10
5.84823e-07
2.81983e-10
5.84715e-07
1.42551e-09
5.84659e-07
4.48636e-10
5.84476e-07
2.57929e-09
5.84339e-07
9.67065e-10
5.8402e-07
6.5289e-09
5.27731e-09
5.83619e-07
6.18216e-07
-5.69835e-09
6.18256e-07
-2.46559e-09
6.18276e-07
2.12669e-10
6.18273e-07
-1.29069e-10
6.18262e-07
1.09556e-10
6.18262e-07
-3.75251e-11
6.18238e-07
3.35855e-10
6.18229e-07
5.67464e-11
6.18194e-07
4.82208e-10
6.18179e-07
1.26432e-10
6.18128e-07
6.80969e-10
6.18105e-07
2.06946e-10
6.18032e-07
9.87032e-10
6.17996e-07
3.17712e-10
6.17885e-07
1.5371e-09
6.17823e-07
5.10419e-10
6.17637e-07
2.7651e-09
6.17485e-07
1.1187e-09
6.17181e-07
6.83292e-09
5.6867e-09
6.16772e-07
6.53302e-07
-5.09685e-09
6.53325e-07
-2.48909e-09
6.53349e-07
1.89056e-10
6.53345e-07
-1.25546e-10
6.53333e-07
1.21657e-10
6.53332e-07
-3.69348e-11
6.53307e-07
3.60698e-10
6.53298e-07
6.65069e-11
6.53261e-07
5.18724e-10
6.53244e-07
1.43325e-10
6.53192e-07
7.33026e-10
6.53166e-07
2.32849e-10
6.53091e-07
1.06235e-09
6.53051e-07
3.57438e-10
6.52937e-07
1.65148e-09
6.52867e-07
5.79682e-10
6.5268e-07
2.9522e-09
6.52513e-07
1.28632e-09
6.52225e-07
7.12013e-09
6.10297e-09
6.51809e-07
6.90377e-07
-4.52408e-09
6.90384e-07
-2.49567e-09
6.9041e-07
1.62722e-10
6.90406e-07
-1.21352e-10
6.90393e-07
1.35081e-10
6.90391e-07
-3.57073e-11
6.90366e-07
3.86413e-10
6.90355e-07
7.74764e-11
6.90317e-07
5.56538e-10
6.90298e-07
1.61929e-10
6.90244e-07
7.86927e-10
6.90216e-07
2.61346e-10
6.90138e-07
1.14012e-09
6.90094e-07
4.01495e-10
6.89977e-07
1.76849e-09
6.89899e-07
6.57302e-10
6.89712e-07
3.13955e-09
6.89528e-07
1.47039e-09
6.89259e-07
7.38926e-09
6.52476e-09
6.88837e-07
7.29556e-07
-3.98165e-09
7.29545e-07
-2.48536e-09
7.29574e-07
1.34273e-10
7.29569e-07
-1.16889e-10
7.29554e-07
1.50063e-10
7.29553e-07
-3.397e-11
7.29526e-07
4.13175e-10
7.29514e-07
8.94337e-11
7.29474e-07
5.95984e-10
7.29454e-07
1.82188e-10
7.29398e-07
8.42946e-10
7.29367e-07
2.92492e-10
7.29287e-07
1.22044e-09
7.29238e-07
4.50005e-10
7.29118e-07
1.88809e-09
7.29032e-07
7.43508e-10
7.28845e-07
3.32685e-09
7.28644e-07
1.67102e-09
7.28394e-07
7.63969e-09
6.94855e-09
7.2797e-07
7.70956e-07
-3.47175e-09
7.70928e-07
-2.45824e-09
7.70958e-07
1.04562e-10
7.70954e-07
-1.12327e-10
7.70937e-07
1.66868e-10
7.70935e-07
-3.16827e-11
7.70906e-07
4.41186e-10
7.70893e-07
1.02461e-10
7.70852e-07
6.37154e-10
7.7083e-07
2.04071e-10
7.70772e-07
9.01234e-10
7.70738e-07
3.263e-10
7.70655e-07
1.30352e-09
7.70602e-07
5.0323e-10
7.7048e-07
2.01027e-09
7.70384e-07
8.38928e-10
7.70198e-07
3.51335e-09
7.69981e-07
1.88784e-09
7.6975e-07
7.87114e-09
7.37196e-09
7.69326e-07
8.14703e-07
-2.99562e-09
8.14659e-07
-2.41478e-09
8.14689e-07
7.42831e-11
8.14685e-07
-1.07987e-10
8.14666e-07
1.85605e-10
8.14663e-07
-2.88413e-11
8.14634e-07
4.70496e-10
8.1462e-07
1.16466e-10
8.14577e-07
6.80246e-10
8.14553e-07
2.27692e-10
8.14493e-07
9.61888e-10
8.14456e-07
3.63017e-10
8.1437e-07
1.38925e-09
8.14312e-07
5.61511e-10
8.14187e-07
2.13471e-09
8.14082e-07
9.4393e-10
8.13897e-07
3.69853e-09
8.13664e-07
2.12074e-09
8.13452e-07
8.08323e-09
7.7911e-09
8.13033e-07
8.60929e-07
-2.555e-09
8.6087e-07
-2.35554e-09
8.609e-07
4.44017e-11
8.60896e-07
-1.03963e-10
8.60875e-07
2.0643e-10
8.60872e-07
-2.52848e-11
8.60841e-07
5.0121e-10
8.60826e-07
1.31672e-10
8.60781e-07
7.25204e-10
8.60755e-07
2.53188e-10
8.60692e-07
1.02487e-09
8.60652e-07
4.02879e-10
8.60564e-07
1.47759e-09
8.605e-07
6.25382e-10
8.60374e-07
2.26107e-09
8.60258e-07
1.05938e-09
8.60076e-07
3.88132e-09
8.59827e-07
2.36923e-09
8.59634e-07
8.27585e-09
8.20375e-09
8.59222e-07
9.09777e-07
-2.15034e-09
9.09702e-07
-2.28151e-09
9.09731e-07
1.56918e-11
9.09728e-07
-1.00493e-10
9.09705e-07
2.29349e-10
9.097e-07
-2.09105e-11
9.09668e-07
5.33287e-10
9.09652e-07
1.48086e-10
9.09605e-07
7.72118e-10
9.09577e-07
2.80817e-10
9.09512e-07
1.09013e-09
9.09469e-07
4.46304e-10
9.09378e-07
1.56823e-09
9.09308e-07
6.9537e-10
9.0918e-07
2.38878e-09
9.09054e-07
1.18571e-09
9.08874e-07
4.06106e-09
9.0861e-07
2.63288e-09
9.08437e-07
8.44895e-09
8.60588e-09
9.08035e-07
9.61392e-07
-1.78263e-09
9.61304e-07
-2.19377e-09
9.61331e-07
-1.08152e-11
9.61328e-07
-9.75819e-11
9.61303e-07
2.54425e-10
9.61298e-07
-1.54744e-11
9.61264e-07
5.66777e-10
9.61246e-07
1.66025e-10
9.61197e-07
8.20837e-10
9.61167e-07
3.10823e-10
9.611e-07
1.15751e-09
9.61053e-07
4.93667e-10
9.6096e-07
1.66095e-09
9.60883e-07
7.7213e-10
9.60755e-07
2.51739e-09
9.60617e-07
1.32374e-09
9.60441e-07
4.23666e-09
9.60163e-07
2.91067e-09
9.60009e-07
8.60296e-09
8.9952e-09
9.5962e-07
1.01593e-06
-1.45159e-09
1.01583e-06
-2.09377e-09
1.01586e-06
-3.4322e-11
1.01585e-06
-9.53509e-11
1.01583e-06
2.81558e-10
1.01582e-06
-8.78671e-12
1.01579e-06
6.0157e-10
1.01577e-06
1.8558e-10
1.01572e-06
8.71363e-10
1.01568e-06
3.43575e-10
1.01561e-06
1.22682e-09
1.01556e-06
5.45497e-10
1.01547e-06
1.75534e-09
1.01538e-06
8.56268e-10
1.01525e-06
2.64619e-09
1.0151e-06
1.47376e-09
1.01493e-06
4.40753e-09
1.01464e-06
3.20161e-09
1.01451e-06
8.73839e-09
9.36754e-09
1.01413e-06
1.07356e-06
-1.15721e-09
1.07345e-06
-1.98311e-09
1.07347e-06
-5.38379e-11
1.07347e-06
-9.36757e-11
1.07344e-06
3.1071e-10
1.07343e-06
-5.35001e-13
1.0734e-06
6.37666e-10
1.07338e-06
2.07142e-10
1.07332e-06
9.23465e-10
1.07329e-06
3.794e-10
1.07322e-06
1.29784e-09
1.07316e-06
6.02256e-10
1.07307e-06
1.85106e-09
1.07297e-06
9.48451e-10
1.07284e-06
2.77469e-09
1.07268e-06
1.63635e-09
1.07252e-06
4.57281e-09
1.07221e-06
3.504e-09
1.0721e-06
8.85632e-09
9.72063e-09
1.07174e-06
1.13446e-06
-8.9813e-10
1.13434e-06
-1.86367e-09
1.13436e-06
-6.86474e-11
1.13436e-06
-9.25228e-11
1.13432e-06
3.4168e-10
1.13431e-06
9.53857e-12
1.13428e-06
6.74909e-10
1.13425e-06
2.30874e-10
1.1342e-06
9.77077e-10
1.13416e-06
4.18745e-10
1.13409e-06
1.37029e-09
1.13403e-06
6.64517e-10
1.13393e-06
1.94765e-09
1.13383e-06
1.04924e-09
1.1337e-06
2.9022e-09
1.13353e-06
1.81144e-09
1.13337e-06
4.73218e-09
1.13305e-06
3.8161e-09
1.13295e-06
8.95785e-09
1.00505e-08
1.13262e-06
1.19881e-06
-6.73352e-10
1.19868e-06
-1.73742e-09
1.19869e-06
-7.79391e-11
1.19869e-06
-9.16073e-11
1.19866e-06
3.74327e-10
1.19865e-06
2.17956e-11
1.19861e-06
7.13257e-10
1.19858e-06
2.57219e-10
1.19853e-06
1.03191e-09
1.19848e-06
4.61989e-10
1.19841e-06
1.44387e-09
1.19834e-06
7.32773e-10
1.19824e-06
2.04472e-09
1.19813e-06
1.15919e-09
1.19801e-06
3.0283e-09
1.19782e-06
1.99915e-09
1.19767e-06
4.88512e-09
1.19735e-06
4.13553e-09
1.19726e-06
9.04466e-09
1.0355e-08
1.19696e-06
1.2668e-06
-4.80711e-10
1.26667e-06
-1.60642e-09
1.26668e-06
-8.11954e-11
1.26667e-06
-9.07013e-11
1.26664e-06
4.08353e-10
1.26663e-06
3.65512e-11
1.26659e-06
7.52508e-10
1.26656e-06
2.86414e-10
1.2665e-06
1.08782e-09
1.26645e-06
5.09639e-10
1.26638e-06
1.51826e-09
1.2663e-06
8.07593e-10
1.26621e-06
2.14179e-09
1.26609e-06
1.27873e-09
1.26596e-06
3.15242e-09
1.26576e-06
2.19897e-09
1.26562e-06
5.03167e-09
1.26529e-06
4.45984e-09
1.26522e-06
9.11827e-09
1.06309e-08
1.26494e-06
1.33865e-06
-3.18367e-10
1.33852e-06
-1.47282e-09
1.33851e-06
-7.79352e-11
1.33851e-06
-8.93397e-11
1.33848e-06
4.43518e-10
1.33846e-06
5.41994e-11
1.33842e-06
7.92578e-10
1.33839e-06
3.18944e-10
1.33833e-06
1.14448e-09
1.33828e-06
5.621e-10
1.3382e-06
1.5931e-09
1.33812e-06
8.89435e-10
1.33802e-06
2.23851e-09
1.33789e-06
1.40817e-09
1.33777e-06
3.2743e-09
1.33756e-06
2.4104e-09
1.33742e-06
5.17177e-09
1.33709e-06
4.78605e-09
1.33703e-06
9.18073e-09
1.08767e-08
1.33679e-06
1.41457e-06
-1.83551e-10
1.41443e-06
-1.33863e-09
1.41442e-06
-6.79734e-11
1.41442e-06
-8.70898e-11
1.41438e-06
4.79446e-10
1.41436e-06
7.50892e-11
1.41432e-06
8.33227e-10
1.41429e-06
3.55105e-10
1.41423e-06
1.20168e-09
1.41417e-06
6.19896e-10
1.4141e-06
1.66808e-09
1.41401e-06
9.78782e-10
1.41391e-06
2.33445e-09
1.41377e-06
1.54765e-09
1.41365e-06
3.39359e-09
1.41343e-06
2.63231e-09
1.4133e-06
5.30588e-09
1.41297e-06
5.11117e-09
1.41292e-06
9.23374e-09
1.10899e-08
1.4127e-06
1.49479e-06
-7.37727e-11
1.49465e-06
-1.20589e-09
1.49464e-06
-5.12709e-11
1.49463e-06
-8.3332e-11
1.4946e-06
5.15841e-10
1.49457e-06
9.96075e-11
1.49453e-06
8.74356e-10
1.49449e-06
3.95382e-10
1.49443e-06
1.25909e-09
1.49437e-06
6.83389e-10
1.49429e-06
1.74286e-09
1.4942e-06
1.07595e-09
1.4941e-06
2.42937e-09
1.49395e-06
1.69711e-09
1.49384e-06
3.51034e-09
1.4936e-06
2.86353e-09
1.49348e-06
5.43439e-09
1.49316e-06
5.43183e-09
1.49311e-06
9.27942e-09
1.12701e-08
1.49293e-06
1.57955e-06
1.40317e-11
1.57942e-06
-1.07631e-09
1.5794e-06
-2.80524e-11
1.57939e-06
-7.7475e-11
1.57935e-06
5.52302e-10
1.57933e-06
1.28084e-10
1.57928e-06
9.15712e-10
1.57924e-06
4.40078e-10
1.57918e-06
1.3165e-09
1.57911e-06
7.53029e-10
1.57904e-06
1.81719e-09
1.57893e-06
1.18119e-09
1.57884e-06
2.52305e-09
1.57868e-06
1.85622e-09
1.57857e-06
3.62452e-09
1.57833e-06
3.10226e-09
1.5782e-06
5.55812e-09
1.57789e-06
5.74481e-09
1.57785e-06
9.31927e-09
1.14159e-08
1.5777e-06
1.66912e-06
8.26196e-11
1.66899e-06
-9.51507e-10
1.66896e-06
1.21355e-12
1.66895e-06
-6.87913e-11
1.66892e-06
5.88509e-10
1.66889e-06
1.60881e-10
1.66884e-06
9.57188e-10
1.66879e-06
4.89656e-10
1.66874e-06
1.3736e-09
1.66866e-06
8.29076e-10
1.66859e-06
1.89082e-09
1.66847e-06
1.29457e-09
1.66838e-06
2.61544e-09
1.66821e-06
2.02444e-09
1.6681e-06
3.7365e-09
1.66786e-06
3.34665e-09
1.66774e-06
5.67779e-09
1.66744e-06
6.04677e-09
1.6674e-06
9.35508e-09
1.1528e-08
1.66729e-06
1.76376e-06
1.34978e-10
1.76364e-06
-8.32664e-10
1.76361e-06
3.58703e-11
1.76359e-06
-5.6623e-11
1.76356e-06
6.24092e-10
1.76352e-06
1.98252e-10
1.76348e-06
9.98545e-10
1.76343e-06
5.44357e-10
1.76337e-06
1.43024e-09
1.76329e-06
9.11813e-10
1.76321e-06
1.96363e-09
1.76309e-06
1.41602e-09
1.763e-06
2.70656e-09
1.76282e-06
2.20087e-09
1.76271e-06
3.84661e-09
1.76247e-06
3.59431e-09
1.76235e-06
5.7944e-09
1.76206e-06
6.33463e-09
1.76203e-06
9.38782e-09
1.16067e-08
1.76195e-06
1.86377e-06
1.7376e-10
1.86366e-06
-7.20772e-10
1.86362e-06
7.50147e-11
1.8636e-06
-4.02636e-11
1.86357e-06
6.58803e-10
1.86352e-06
2.40468e-10
1.86348e-06
1.03972e-09
1.86342e-06
6.04536e-10
1.86337e-06
1.48621e-09
1.86328e-06
1.00128e-09
1.8632e-06
2.0356e-09
1.86308e-06
1.54521e-09
1.86299e-06
2.79667e-09
1.8628e-06
2.38442e-09
1.86269e-06
3.95551e-09
1.86244e-06
3.84292e-09
1.86233e-06
5.90876e-09
1.86206e-06
6.60554e-09
1.86203e-06
9.41857e-09
1.16537e-08
1.86198e-06
1.96944e-06
2.01505e-10
1.96934e-06
-6.16355e-10
1.9693e-06
1.17633e-10
1.96928e-06
-1.91241e-11
1.96924e-06
6.9236e-10
1.96919e-06
2.87654e-10
1.96915e-06
1.08053e-09
1.96909e-06
6.70295e-10
1.96903e-06
1.54149e-09
1.96894e-06
1.09748e-09
1.96887e-06
2.10679e-09
1.96873e-06
1.68163e-09
1.96864e-06
2.88606e-09
1.96845e-06
2.57361e-09
1.96834e-06
4.06377e-09
1.96809e-06
4.08972e-09
1.96798e-06
6.02171e-09
1.96773e-06
6.85708e-09
1.9677e-06
9.44752e-09
1.16705e-08
1.96768e-06
2.08111e-06
2.20425e-10
2.08101e-06
-5.19668e-10
2.08097e-06
1.62546e-10
2.08094e-06
7.33935e-12
2.08091e-06
7.24653e-10
2.08086e-06
3.39938e-10
2.08082e-06
1.121e-09
2.08074e-06
7.41801e-10
2.08069e-06
1.59605e-09
2.08059e-06
1.20015e-09
2.08052e-06
2.17743e-09
2.08037e-06
1.82451e-09
2.08028e-06
2.97527e-09
2.08009e-06
2.76685e-09
2.07998e-06
4.17221e-09
2.07974e-06
4.33225e-09
2.07963e-06
6.13382e-09
2.0794e-06
7.08731e-09
2.07937e-06
9.47485e-09
1.16599e-08
2.07938e-06
2.1991e-06
2.32431e-10
2.19901e-06
-4.30601e-10
2.19897e-06
2.08592e-10
2.19894e-06
3.94658e-11
2.19891e-06
7.55574e-10
2.19885e-06
3.97238e-10
2.19881e-06
1.16106e-09
2.19873e-06
8.18903e-10
2.19868e-06
1.65005e-09
2.19857e-06
1.30891e-09
2.1985e-06
2.24786e-09
2.19835e-06
1.97283e-09
2.19826e-06
3.06484e-09
2.19806e-06
2.96221e-09
2.19795e-06
4.28139e-09
2.19772e-06
4.56776e-09
2.19761e-06
6.24547e-09
2.1974e-06
7.2948e-09
2.19738e-06
9.49991e-09
1.16242e-08
2.19741e-06
2.32379e-06
2.39109e-10
2.32371e-06
-3.48768e-10
2.32366e-06
2.54583e-10
2.32362e-06
7.74738e-11
2.32359e-06
7.85209e-10
2.32353e-06
4.59466e-10
2.32349e-06
1.20087e-09
2.32341e-06
9.01474e-10
2.32335e-06
1.70373e-09
2.32324e-06
1.4231e-09
2.32317e-06
2.31855e-09
2.32302e-06
2.1254e-09
2.32293e-06
3.15546e-09
2.32273e-06
3.15777e-09
2.32262e-06
4.392e-09
2.32239e-06
4.79404e-09
2.32228e-06
6.35666e-09
2.3221e-06
7.4788e-09
2.32208e-06
9.52201e-09
1.15668e-08
2.32213e-06
2.45554e-06
2.41697e-10
2.45546e-06
-2.736e-10
2.45542e-06
2.99474e-10
2.45538e-06
1.21308e-10
2.45535e-06
8.13674e-10
2.45528e-06
5.26286e-10
2.45524e-06
1.24055e-09
2.45515e-06
9.89036e-10
2.4551e-06
1.75747e-09
2.45498e-06
1.54191e-09
2.45491e-06
2.39004e-09
2.45475e-06
2.28079e-09
2.45466e-06
3.24774e-09
2.45447e-06
3.3514e-09
2.45435e-06
4.50434e-09
2.45414e-06
5.00881e-09
2.45403e-06
6.46704e-09
2.45387e-06
7.63902e-09
2.45385e-06
9.53988e-09
1.14905e-08
2.45393e-06
2.59476e-06
2.41165e-10
2.59469e-06
-2.04327e-10
2.59465e-06
3.42345e-10
2.5946e-06
1.70753e-10
2.59457e-06
8.41264e-10
2.5945e-06
5.9735e-10
2.59446e-06
1.28041e-09
2.59437e-06
1.08111e-09
2.59431e-06
1.81172e-09
2.59419e-06
1.66434e-09
2.59412e-06
2.46297e-09
2.59396e-06
2.43748e-09
2.59387e-06
3.34228e-09
2.59368e-06
3.54121e-09
2.59356e-06
4.61862e-09
2.59336e-06
5.21046e-09
2.59325e-06
6.57588e-09
2.59312e-06
7.77588e-09
2.5931e-06
9.55227e-09
1.13984e-08
2.5932e-06
2.74187e-06
2.38198e-10
2.74181e-06
-1.40194e-10
2.74177e-06
3.82522e-10
2.74172e-06
2.253e-10
2.74169e-06
8.68302e-10
2.74161e-06
6.72057e-10
2.74157e-06
1.32074e-09
2.74148e-06
1.17689e-09
2.74142e-06
1.86704e-09
2.7413e-06
1.78924e-09
2.74122e-06
2.53791e-09
2.74107e-06
2.59385e-09
2.74097e-06
3.43947e-09
2.74078e-06
3.72524e-09
2.74067e-06
4.73456e-09
2.74048e-06
5.39754e-09
2.74038e-06
6.68209e-09
2.74026e-06
7.89011e-09
2.74026e-06
9.55769e-09
1.12932e-08
2.74036e-06
2.89733e-06
2.33355e-10
2.89727e-06
-8.039e-11
2.89723e-06
4.19571e-10
2.89717e-06
2.8428e-10
2.89715e-06
8.95255e-10
2.89707e-06
7.49791e-10
2.89703e-06
1.36201e-09
2.89693e-06
1.27555e-09
2.89687e-06
1.92398e-09
2.89675e-06
1.91535e-09
2.89667e-06
2.6154e-09
2.89651e-06
2.74836e-09
2.89641e-06
3.53952e-09
2.89624e-06
3.90194e-09
2.89612e-06
4.85166e-09
2.89595e-06
5.56928e-09
2.89585e-06
6.7843e-09
2.89575e-06
7.98296e-09
2.89576e-06
9.55481e-09
1.11774e-08
2.89587e-06
3.0616e-06
2.2699e-10
3.06154e-06
-2.42791e-11
3.06151e-06
4.53334e-10
3.06144e-06
3.46785e-10
3.06142e-06
9.22575e-10
3.06134e-06
8.29735e-10
3.06129e-06
1.40458e-09
3.06119e-06
1.37605e-09
3.06114e-06
1.9831e-09
3.06101e-06
2.04139e-09
3.06093e-06
2.69581e-09
3.06078e-06
2.89949e-09
3.06067e-06
3.6423e-09
3.06051e-06
4.06987e-09
3.06039e-06
4.96891e-09
3.06023e-06
5.72512e-09
3.06014e-06
6.88088e-09
3.06006e-06
8.05581e-09
3.06008e-06
9.54236e-09
1.10533e-08
3.0602e-06
3.23518e-06
2.19443e-10
3.23513e-06
2.87135e-11
3.23509e-06
4.83915e-10
3.23503e-06
4.11816e-10
3.235e-06
9.5078e-10
3.23492e-06
9.11078e-10
3.23488e-06
1.44894e-09
3.23477e-06
1.47737e-09
3.23471e-06
2.04483e-09
3.23459e-06
2.1661e-09
3.2345e-06
2.77931e-09
3.23436e-06
3.04594e-09
3.23425e-06
3.74739e-09
3.23409e-06
4.22804e-09
3.23398e-06
5.08512e-09
3.23384e-06
5.86507e-09
3.23375e-06
6.97017e-09
3.2337e-06
8.11023e-09
3.23372e-06
9.51938e-09
1.09223e-08
3.23385e-06
3.4186e-06
2.11023e-10
3.41855e-06
7.88989e-11
3.41852e-06
5.1165e-10
3.41846e-06
4.78226e-10
3.41843e-06
9.80327e-10
3.41835e-06
9.92874e-10
3.4183e-06
1.49544e-09
3.4182e-06
1.57838e-09
3.41813e-06
2.10948e-09
3.41801e-06
2.28829e-09
3.41792e-06
2.86579e-09
3.41778e-06
3.18656e-09
3.41768e-06
3.854e-09
3.41753e-06
4.37566e-09
3.41742e-06
5.1987e-09
3.41729e-06
5.98926e-09
3.41721e-06
7.05048e-09
3.41717e-06
8.14769e-09
3.41721e-06
9.48519e-09
1.0786e-08
3.41734e-06
3.61242e-06
2.02155e-10
3.61237e-06
1.26478e-10
3.61235e-06
5.37069e-10
3.61228e-06
5.44886e-10
3.61225e-06
1.01165e-09
3.61217e-06
1.07424e-09
3.61212e-06
1.5444e-09
3.61202e-06
1.67806e-09
3.61195e-06
2.17716e-09
3.61184e-06
2.40692e-09
3.61175e-06
2.95486e-09
3.61161e-06
3.32047e-09
3.61151e-06
3.96105e-09
3.61137e-06
4.51232e-09
3.61126e-06
5.308e-09
3.61115e-06
6.09816e-09
3.61108e-06
7.1203e-09
3.61106e-06
8.16966e-09
3.6111e-06
9.43942e-09
1.0645e-08
3.61125e-06
3.81723e-06
1.93278e-10
3.81719e-06
1.71419e-10
3.81716e-06
5.60788e-10
3.8171e-06
6.10666e-10
3.81706e-06
1.04502e-09
3.81698e-06
1.15426e-09
3.81693e-06
1.59593e-09
3.81684e-06
1.7754e-09
3.81677e-06
2.2477e-09
3.81665e-06
2.5211e-09
3.81656e-06
3.04581e-09
3.81643e-06
3.44697e-09
3.81633e-06
4.06715e-09
3.8162e-06
4.63776e-09
3.8161e-06
5.4112e-09
3.81601e-06
6.19225e-09
3.81595e-06
7.17831e-09
3.81594e-06
8.17733e-09
3.816e-06
9.38202e-09
1.05002e-08
3.81614e-06
4.03365e-06
1.84752e-10
4.03361e-06
2.1365e-10
4.03359e-06
5.83439e-10
4.03353e-06
6.74606e-10
4.03349e-06
1.08057e-09
4.03341e-06
1.2322e-09
4.03336e-06
1.64994e-09
4.03326e-06
1.86964e-09
4.03319e-06
2.32064e-09
4.03308e-06
2.63018e-09
4.03299e-06
3.13761e-09
4.03287e-06
3.56565e-09
4.03277e-06
4.17075e-09
4.03265e-06
4.75194e-09
4.03256e-06
5.50661e-09
4.03248e-06
6.2721e-09
4.03243e-06
7.22351e-09
4.03244e-06
8.17178e-09
4.03251e-06
9.3132e-09
1.03518e-08
4.03266e-06
4.26235e-06
1.76975e-10
4.26231e-06
2.52966e-10
4.26229e-06
6.05587e-10
4.26222e-06
7.35857e-10
4.26219e-06
1.11824e-09
4.26211e-06
1.30735e-09
4.26206e-06
1.70613e-09
4.26196e-06
1.96009e-09
4.26189e-06
2.39522e-09
4.26179e-06
2.73365e-09
4.2617e-06
3.229e-09
4.26158e-06
3.67618e-09
4.26149e-06
4.27016e-09
4.26138e-06
4.85486e-09
4.2613e-06
5.59262e-09
4.26123e-06
6.33817e-09
4.2612e-06
7.2552e-09
4.26122e-06
8.15382e-09
4.2613e-06
9.23334e-09
1.02e-08
4.26145e-06
4.50401e-06
1.70328e-10
4.50397e-06
2.89203e-10
4.50395e-06
6.27691e-10
4.50389e-06
7.93791e-10
4.50385e-06
1.15777e-09
4.50378e-06
1.3792e-09
4.50372e-06
1.76397e-09
4.50363e-06
2.04626e-09
4.50356e-06
2.47048e-09
4.50346e-06
2.83115e-09
4.50337e-06
3.31858e-09
4.50327e-06
3.77836e-09
4.50318e-06
4.36376e-09
4.50308e-06
4.94656e-09
4.50301e-06
5.66791e-09
4.50296e-06
6.39087e-09
4.50294e-06
7.27299e-09
4.50297e-06
8.12411e-09
4.50306e-06
9.14301e-09
1.0045e-08
4.50321e-06
4.75936e-06
1.65112e-10
4.75933e-06
3.22204e-10
4.75931e-06
6.5001e-10
4.75925e-06
8.47961e-10
4.75921e-06
1.1987e-09
4.75915e-06
1.44732e-09
4.75909e-06
1.82268e-09
4.75901e-06
2.12776e-09
4.75893e-06
2.54525e-09
4.75884e-06
2.9224e-09
4.75875e-06
3.40485e-09
4.75866e-06
3.87199e-09
4.75857e-06
4.44999e-09
4.75849e-06
5.027e-09
4.75843e-06
5.73138e-09
4.75839e-06
6.43045e-09
4.75839e-06
7.2768e-09
4.75843e-06
8.08315e-09
4.75853e-06
9.04279e-09
9.88672e-09
4.75869e-06
5.0292e-06
1.61358e-10
5.02917e-06
3.51946e-10
5.02915e-06
6.72594e-10
5.0291e-06
8.98159e-10
5.02906e-06
1.24039e-09
5.02899e-06
1.51147e-09
5.02893e-06
1.88132e-09
5.02886e-06
2.20433e-09
5.02878e-06
2.61823e-09
5.0287e-06
3.00716e-09
5.02862e-06
3.48632e-09
5.02853e-06
3.95687e-09
5.02846e-06
4.52748e-09
5.02839e-06
5.09611e-09
5.02834e-06
5.78223e-09
5.02831e-06
6.45714e-09
5.02832e-06
7.26673e-09
5.02837e-06
8.03135e-09
5.02848e-06
8.93331e-09
9.7252e-09
5.02864e-06
5.31434e-06
1.59157e-10
5.31431e-06
3.78452e-10
5.31429e-06
6.95318e-10
5.31424e-06
9.44286e-10
5.3142e-06
1.28208e-09
5.31414e-06
1.57141e-09
5.31408e-06
1.93886e-09
5.31401e-06
2.27571e-09
5.31394e-06
2.68809e-09
5.31386e-06
3.08513e-09
5.31379e-06
3.56162e-09
5.31371e-06
4.03269e-09
5.31364e-06
4.59506e-09
5.31359e-06
5.1537e-09
5.31355e-06
5.81995e-09
5.31353e-06
6.47103e-09
5.31356e-06
7.24311e-09
5.31362e-06
7.96906e-09
5.31374e-06
8.81519e-09
9.56041e-09
5.3139e-06
5.61564e-06
1.58341e-10
5.61562e-06
4.01884e-10
5.61559e-06
7.1788e-10
5.61555e-06
9.86392e-10
5.61551e-06
1.32293e-09
5.61545e-06
1.627e-09
5.6154e-06
1.99419e-09
5.61533e-06
2.34166e-09
5.61527e-06
2.75358e-09
5.6152e-06
3.156e-09
5.61513e-06
3.62949e-09
5.61506e-06
4.09911e-09
5.61501e-06
4.65183e-09
5.61496e-06
5.19956e-09
5.61494e-06
5.84425e-09
5.61493e-06
6.47223e-09
5.61497e-06
7.20635e-09
5.61504e-06
7.89659e-09
5.61517e-06
8.689e-09
9.39231e-09
5.61534e-06
5.93402e-06
1.5869e-10
5.934e-06
4.2244e-10
5.93398e-06
7.39861e-10
5.93394e-06
1.02456e-09
5.9339e-06
1.36208e-09
5.93385e-06
1.67809e-09
5.9338e-06
2.04625e-09
5.93374e-06
2.40188e-09
5.93368e-06
2.8135e-09
5.93362e-06
3.21935e-09
5.93356e-06
3.6889e-09
5.9335e-06
4.15571e-09
5.93346e-06
4.6971e-09
5.93342e-06
5.23344e-09
5.93341e-06
5.85507e-09
5.93342e-06
6.46083e-09
5.93347e-06
7.15696e-09
5.93355e-06
7.81425e-09
5.93369e-06
8.55527e-09
9.22085e-09
5.93386e-06
6.27046e-06
1.5987e-10
6.27044e-06
4.40374e-10
6.27042e-06
7.6079e-10
6.27039e-06
1.05889e-09
6.27035e-06
1.39872e-09
6.2703e-06
1.72447e-09
6.27026e-06
2.09405e-09
6.2702e-06
2.45599e-09
6.27015e-06
2.86685e-09
6.27009e-06
3.27468e-09
6.27004e-06
3.73897e-09
6.27e-06
4.20201e-09
6.26996e-06
4.73042e-09
6.26994e-06
5.2551e-09
6.26994e-06
5.8525e-09
6.26997e-06
6.43694e-09
6.27003e-06
7.09551e-09
6.27012e-06
7.72228e-09