/*--------------------------------*- C++ -*----------------------------------*\
| =========                 |                                                 |
| \\      /  F ield         | OpenFOAM: The Open Source CFD Toolbox           |
|  \\    /   O peration     | Version:  v1912                                 |
|   \\  /    A nd           | Website:  www.openfoam.com                      |
|    \\/     M anipulation  |                                                 |
\*---------------------------------------------------------------------------*/
FoamFile
{
    version     2.0;
    format      ascii;
    class       volVectorField;
    location    "100";
    object      U;
}
// * * * * * * * * * * * * * * * * * * * * * * * * * * * * * * * * * * * * * //

dimensions      [0 1 -1 0 0 0 0];


internalField   nonuniform List<vector> 
10000
(
(0.935295 -0.000798475 0)
(1.06 -8.19726e-05 0)
(0.932764 -0.000105362 0)
(1.06202 2.47678e-05 0)
(0.931411 -8.28829e-05 0)
(1.06365 4.9446e-05 0)
(0.929725 -8.26999e-05 0)
(1.06533 6.60631e-05 0)
(0.927949 -8.9913e-05 0)
(1.06706 8.24413e-05 0)
(0.926049 -0.000102114 0)
(1.06882 0.000101554 0)
(0.924012 -0.000119974 0)
(1.07062 0.000126307 0)
(0.921793 -0.000145908 0)
(1.07245 0.00016108 0)
(0.919297 -0.000184465 0)
(1.07418 0.000212916 0)
(0.91628 -0.000233436 0)
(1.07502 0.000256367 0)
(0.985662 -0.00156278 0)
(1.01545 -0.000147786 0)
(0.98549 1.16219e-05 0)
(1.01471 -1.90969e-05 0)
(0.98673 3.13772e-05 0)
(1.01347 -2.01886e-05 0)
(0.987827 3.92833e-05 0)
(1.01211 -2.85396e-05 0)
(0.989028 4.71659e-05 0)
(1.01063 -3.89571e-05 0)
(0.990308 5.76021e-05 0)
(1.009 -5.1478e-05 0)
(0.991671 7.15122e-05 0)
(1.00719 -6.66925e-05 0)
(0.993112 9.03526e-05 0)
(1.00513 -8.55777e-05 0)
(0.994598 0.000118142 0)
(1.00263 -0.000112502 0)
(0.995912 0.000194075 0)
(0.998762 -0.000239319 0)
(0.999128 -0.00169964 0)
(1.00026 -1.52881e-05 0)
(0.998398 6.63407e-06 0)
(1.00033 3.71556e-05 0)
(0.998937 -2.26098e-05 0)
(1 3.34082e-05 0)
(0.999216 -3.04395e-05 0)
(0.999665 3.57348e-05 0)
(0.999469 -3.57168e-05 0)
(0.999317 4.06101e-05 0)
(0.99966 -3.97311e-05 0)
(0.998958 4.64348e-05 0)
(0.999778 -4.23168e-05 0)
(0.998572 5.19899e-05 0)
(0.999796 -4.09924e-05 0)
(0.998112 5.46766e-05 0)
(0.999654 -2.69321e-05 0)
(0.997429 4.49565e-05 0)
(0.999105 6.10924e-05 0)
(0.995745 -4.34812e-05 0)
(1.00021 -0.00160412 0)
(0.998563 -7.21924e-05 0)
(0.999201 2.81677e-05 0)
(0.998903 -3.32285e-05 0)
(0.999434 1.64446e-05 0)
(0.998859 -2.89377e-05 0)
(0.999421 2.53053e-05 0)
(0.998794 -2.71971e-05 0)
(0.9994 3.10804e-05 0)
(0.998703 -2.64166e-05 0)
(0.999338 3.55112e-05 0)
(0.99858 -2.50249e-05 0)
(0.999227 3.87897e-05 0)
(0.998408 -2.11019e-05 0)
(0.999043 4.10829e-05 0)
(0.998139 -1.15955e-05 0)
(0.998724 4.5034e-05 0)
(0.997628 8.28975e-06 0)
(0.998026 9.77055e-05 0)
(0.996135 9.89695e-05 0)
(0.999852 -0.00157207 0)
(0.998935 -6.09001e-05 0)
(0.99882 -3.24125e-06 0)
(0.999286 9.84929e-06 0)
(0.999005 -1.20458e-05 0)
(0.99927 1.78166e-05 0)
(0.998948 -7.66131e-06 0)
(0.999228 1.85221e-05 0)
(0.998888 -5.74347e-06 0)
(0.999158 1.76568e-05 0)
(0.99879 -1.79343e-06 0)
(0.999051 1.56259e-05 0)
(0.99865 5.9995e-06 0)
(0.99889 1.18666e-05 0)
(0.998441 2.08841e-05 0)
(0.998628 5.61283e-06 0)
(0.9981 5.1891e-05 0)
(0.99812 -3.89544e-06 0)
(0.997388 0.000165563 0)
(0.996667 0.000105559 0)
(0.999814 -0.00148735 0)
(0.999035 -0.000100521 0)
(0.99881 2.5983e-05 0)
(0.999357 -1.52155e-05 0)
(0.998998 1.08083e-05 0)
(0.999336 -1.03376e-05 0)
(0.998944 1.41124e-05 0)
(0.999289 -8.38308e-06 0)
(0.998886 1.54236e-05 0)
(0.999212 -5.2406e-06 0)
(0.998792 1.734e-05 0)
(0.999098 -8.41238e-07 0)
(0.998656 2.0677e-05 0)
(0.998927 4.61799e-06 0)
(0.998453 2.8976e-05 0)
(0.998654 9.86994e-06 0)
(0.99812 5.58081e-05 0)
(0.998134 7.82216e-06 0)
(0.99742 0.000200934 0)
(0.996708 0.000113808 0)
(0.999825 -0.00143902 0)
(0.999075 -0.000101135 0)
(0.998848 1.32362e-05 0)
(0.999374 -2.7084e-06 0)
(0.999034 -3.36409e-06 0)
(0.999354 3.00572e-06 0)
(0.998979 4.40234e-06 0)
(0.999309 4.30636e-06 0)
(0.998917 9.72393e-06 0)
(0.999235 4.68539e-06 0)
(0.99882 1.61766e-05 0)
(0.999123 4.93765e-06 0)
(0.998681 2.49521e-05 0)
(0.998954 5.99585e-06 0)
(0.998476 3.91497e-05 0)
(0.998683 9.01485e-06 0)
(0.99814 7.12091e-05 0)
(0.998166 1.21825e-05 0)
(0.997439 0.000233071 0)
(0.996787 0.000142895 0)
(0.999876 -0.00136421 0)
(0.999078 -0.000125947 0)
(0.998926 2.29321e-05 0)
(0.999353 -1.10675e-05 0)
(0.999111 4.00348e-06 0)
(0.999333 -2.67684e-06 0)
(0.999054 1.09166e-05 0)
(0.999288 4.15242e-07 0)
(0.998993 1.42113e-05 0)
(0.999215 2.79814e-06 0)
(0.998895 1.90945e-05 0)
(0.999103 5.18426e-06 0)
(0.998755 2.76287e-05 0)
(0.998935 7.64556e-06 0)
(0.998549 4.449e-05 0)
(0.998663 1.02168e-05 0)
(0.998213 8.50952e-05 0)
(0.998147 1.25502e-05 0)
(0.997515 0.000271803 0)
(0.996813 0.000170573 0)
(1.00002 -0.00129927 0)
(0.998979 -0.000137179 0)
(0.999098 2.12857e-05 0)
(0.999228 -8.66495e-06 0)
(0.999284 1.84588e-06 0)
(0.999206 -1.01454e-06 0)
(0.999231 1.08963e-05 0)
(0.999158 1.34491e-06 0)
(0.999173 1.61175e-05 0)
(0.999081 3.32982e-06 0)
(0.99908 2.29294e-05 0)
(0.998966 5.84413e-06 0)
(0.998945 3.31674e-05 0)
(0.998794 9.217e-06 0)
(0.998745 5.20921e-05 0)
(0.998518 1.33065e-05 0)
(0.998415 9.8551e-05 0)
(0.998 1.7002e-05 0)
(0.997726 0.000310828 0)
(0.99671 0.00019855 0)
(0.999982 -0.00122537 0)
(0.99906 -0.000153401 0)
(0.999089 2.44901e-05 0)
(0.999287 -1.04349e-05 0)
(0.99927 3.07359e-06 0)
(0.999267 -1.67237e-06 0)
(0.999215 1.28704e-05 0)
(0.999221 1.66146e-06 0)
(0.999156 1.85324e-05 0)
(0.999146 4.1208e-06 0)
(0.99906 2.62581e-05 0)
(0.999033 6.73868e-06 0)
(0.998924 3.82255e-05 0)
(0.998863 1.01378e-05 0)
(0.998721 6.01777e-05 0)
(0.998591 1.48386e-05 0)
(0.99839 0.000112908 0)
(0.998078 2.13028e-05 0)
(0.997703 0.000348656 0)
(0.996842 0.000227318 0)
(0.999962 -0.00115475 0)
(0.999131 -0.000167401 0)
(0.999097 2.5164e-05 0)
(0.999337 -1.10581e-05 0)
(0.999272 3.38672e-06 0)
(0.999322 -1.95961e-06 0)
(0.999213 1.467e-05 0)
(0.999279 1.76592e-06 0)
(0.999149 2.11034e-05 0)
(0.999207 4.59141e-06 0)
(0.999051 2.97922e-05 0)
(0.999096 7.71944e-06 0)
(0.998912 4.33485e-05 0)
(0.998928 1.16844e-05 0)
(0.998709 6.84299e-05 0)
(0.998656 1.70428e-05 0)
(0.998378 0.000128262 0)
(0.998146 2.6308e-05 0)
(0.997697 0.000386844 0)
(0.996956 0.000258009 0)
(0.999978 -0.00108328 0)
(0.999166 -0.000181016 0)
(0.999144 2.60019e-05 0)
(0.999346 -1.14277e-05 0)
(0.999318 3.82343e-06 0)
(0.999329 -1.92661e-06 0)
(0.999261 1.63789e-05 0)
(0.999284 2.25584e-06 0)
(0.999199 2.36823e-05 0)
(0.999211 5.3719e-06 0)
(0.999102 3.35741e-05 0)
(0.999099 8.86078e-06 0)
(0.998965 4.88712e-05 0)
(0.998929 1.33867e-05 0)
(0.998763 7.70056e-05 0)
(0.998657 1.96645e-05 0)
(0.998433 0.000143901 0)
(0.998149 3.22063e-05 0)
(0.997759 0.000424625 0)
(0.997006 0.000290108 0)
(0.999991 -0.0010115 0)
(0.999202 -0.000193725 0)
(0.999191 2.67376e-05 0)
(0.999355 -1.20552e-05 0)
(0.999365 4.60376e-06 0)
(0.999335 -2.33683e-06 0)
(0.999311 1.84609e-05 0)
(0.999286 2.41327e-06 0)
(0.999253 2.66048e-05 0)
(0.99921 5.92131e-06 0)
(0.999158 3.76791e-05 0)
(0.999096 9.80538e-06 0)
(0.999023 5.48296e-05 0)
(0.998925 1.48632e-05 0)
(0.998822 8.62613e-05 0)
(0.998652 2.21561e-05 0)
(0.998494 0.000160428 0)
(0.998147 3.8665e-05 0)
(0.997828 0.000462432 0)
(0.997052 0.000323066 0)
(0.999993 -0.000939968 0)
(0.99925 -0.000205326 0)
(0.999226 2.69042e-05 0)
(0.999377 -1.24347e-05 0)
(0.999397 5.29377e-06 0)
(0.999356 -2.55641e-06 0)
(0.999345 2.05108e-05 0)
(0.999306 2.79741e-06 0)
(0.999288 2.95423e-05 0)
(0.999229 6.7306e-06 0)
(0.999195 4.18335e-05 0)
(0.999113 1.1091e-05 0)
(0.99906 6.08807e-05 0)
(0.998941 1.67834e-05 0)
(0.998862 9.57216e-05 0)
(0.998668 2.52368e-05 0)
(0.998536 0.000177306 0)
(0.998167 4.64053e-05 0)
(0.997878 0.000499386 0)
(0.997119 0.000357668 0)
(0.999993 -0.000868958 0)
(0.9993 -0.000216038 0)
(0.999257 2.69094e-05 0)
(0.999405 -1.29359e-05 0)
(0.999423 6.32434e-06 0)
(0.999386 -3.01876e-06 0)
(0.99937 2.29142e-05 0)
(0.999336 2.9513e-06 0)
(0.999313 3.28879e-05 0)
(0.999259 7.31116e-06 0)
(0.999219 4.64739e-05 0)
(0.999145 1.21642e-05 0)
(0.999084 6.7509e-05 0)
(0.998974 1.85488e-05 0)
(0.998883 0.000105875 0)
(0.998704 2.83285e-05 0)
(0.998555 0.00019501 0)
(0.998213 5.48326e-05 0)
(0.997901 0.00053594 0)
(0.997219 0.000393183 0)
(0.999992 -0.000799242 0)
(0.99935 -0.000225273 0)
(0.999286 2.63118e-05 0)
(0.999436 -1.31151e-05 0)
(0.999445 7.21372e-06 0)
(0.99942 -3.26161e-06 0)
(0.99939 2.51764e-05 0)
(0.999372 3.37983e-06 0)
(0.99933 3.61285e-05 0)
(0.999299 8.22382e-06 0)
(0.999232 5.10508e-05 0)
(0.999189 1.36453e-05 0)
(0.999092 7.41309e-05 0)
(0.999026 2.08396e-05 0)
(0.998884 0.000116098 0)
(0.998766 3.22049e-05 0)
(0.998546 0.000212817 0)
(0.998292 6.48405e-05 0)
(0.997888 0.00057119 0)
(0.997361 0.000430365 0)
(0.999988 -0.0007309 0)
(0.999403 -0.000233243 0)
(0.999312 2.54371e-05 0)
(0.999469 -1.3313e-05 0)
(0.999462 8.31469e-06 0)
(0.999458 -3.60325e-06 0)
(0.999404 2.7643e-05 0)
(0.999415 3.7758e-06 0)
(0.99934 3.95896e-05 0)
(0.999345 9.18076e-06 0)
(0.999238 5.58487e-05 0)
(0.999241 1.52866e-05 0)
(0.999091 8.09771e-05 0)
(0.999085 2.34608e-05 0)
(0.998876 0.000126564 0)
(0.998835 3.67328e-05 0)
(0.998531 0.000230805 0)
(0.998377 7.63716e-05 0)
(0.997872 0.000605048 0)
(0.997506 0.000469005 0)
(0.999983 -0.000664653 0)
(0.999455 -0.000239563 0)
(0.999337 2.39562e-05 0)
(0.999504 -1.32025e-05 0)
(0.999479 9.28593e-06 0)
(0.999497 -3.69866e-06 0)
(0.999417 2.99669e-05 0)
(0.999457 4.46252e-06 0)
(0.999349 4.29606e-05 0)
(0.999392 1.04596e-05 0)
(0.999244 6.06279e-05 0)
(0.999291 1.72982e-05 0)
(0.999095 8.78953e-05 0)
(0.999139 2.65487e-05 0)
(0.998877 0.000137205 0)
(0.998893 4.19871e-05 0)
(0.99853 0.000248964 0)
(0.998444 8.94331e-05 0)
(0.997881 0.0006375 0)
(0.997622 0.00050882 0)
(0.999978 -0.000600607 0)
(0.999506 -0.000244399 0)
(0.999365 2.21614e-05 0)
(0.999536 -1.30483e-05 0)
(0.999498 1.0409e-05 0)
(0.999533 -3.79382e-06 0)
(0.999433 3.24103e-05 0)
(0.999495 5.21159e-06 0)
(0.999363 4.64905e-05 0)
(0.999433 1.18509e-05 0)
(0.999256 6.5621e-05 0)
(0.999335 1.94846e-05 0)
(0.999105 9.51089e-05 0)
(0.999185 2.99162e-05 0)
(0.998886 0.000148238 0)
(0.998941 4.77959e-05 0)
(0.99854 0.000267475 0)
(0.998502 0.000103838 0)
(0.997902 0.000668667 0)
(0.997727 0.000549383 0)
(0.999976 -0.000539184 0)
(0.999553 -0.000247516 0)
(0.999395 1.99222e-05 0)
(0.999566 -1.27081e-05 0)
(0.999519 1.15374e-05 0)
(0.999565 -3.74141e-06 0)
(0.999454 3.48342e-05 0)
(0.999528 6.15166e-06 0)
(0.999382 5.00607e-05 0)
(0.999468 1.34688e-05 0)
(0.999273 7.07267e-05 0)
(0.999372 2.19558e-05 0)
(0.999121 0.000102521 0)
(0.999224 3.36894e-05 0)
(0.998901 0.000159542 0)
(0.998984 5.43369e-05 0)
(0.998555 0.000286135 0)
(0.998554 0.000119811 0)
(0.997928 0.000698218 0)
(0.997828 0.000590757 0)
(0.999975 -0.00048047 0)
(0.999597 -0.000249005 0)
(0.999427 1.7429e-05 0)
(0.999593 -1.23382e-05 0)
(0.999543 1.28287e-05 0)
(0.999593 -3.66283e-06 0)
(0.999477 3.73721e-05 0)
(0.999557 7.18125e-06 0)
(0.999405 5.37844e-05 0)
(0.999497 1.52398e-05 0)
(0.999295 7.60293e-05 0)
(0.999402 2.46733e-05 0)
(0.999143 0.00011018 0)
(0.999256 3.78742e-05 0)
(0.998923 0.00017112 0)
(0.999019 6.16723e-05 0)
(0.998577 0.000304869 0)
(0.998601 0.000137418 0)
(0.997962 0.000726014 0)
(0.997923 0.000632755 0)
(0.999975 -0.000424748 0)
(0.999639 -0.00024877 0)
(0.99946 1.46644e-05 0)
(0.999618 -1.18957e-05 0)
(0.999569 1.42374e-05 0)
(0.999619 -3.50539e-06 0)
(0.999503 3.99841e-05 0)
(0.999583 8.33638e-06 0)
(0.99943 5.76381e-05 0)
(0.999523 1.71896e-05 0)
(0.999321 8.15192e-05 0)
(0.999428 2.76598e-05 0)
(0.999169 0.000118082 0)
(0.999282 4.25038e-05 0)
(0.998949 0.000182952 0)
(0.999048 6.98639e-05 0)
(0.998606 0.000323599 0)
(0.99864 0.000156695 0)
(0.998006 0.000751947 0)
(0.998007 0.000675149 0)
(0.999976 -0.000372154 0)
(0.999678 -0.000246865 0)
(0.999494 1.17524e-05 0)
(0.999641 -1.14524e-05 0)
(0.999594 1.58334e-05 0)
(0.999644 -3.30875e-06 0)
(0.999529 4.27254e-05 0)
(0.999606 9.58381e-06 0)
(0.999457 6.16715e-05 0)
(0.999546 1.92953e-05 0)
(0.999349 8.72374e-05 0)
(0.999451 3.09053e-05 0)
(0.999198 0.000126257 0)
(0.999305 4.75855e-05 0)
(0.99898 0.000195051 0)
(0.999072 7.89391e-05 0)
(0.99864 0.000342295 0)
(0.998674 0.000177606 0)
(0.998057 0.000776008 0)
(0.998083 0.000717599 0)
(0.999977 -0.000322893 0)
(0.999715 -0.000243292 0)
(0.999528 8.74206e-06 0)
(0.999664 -1.10093e-05 0)
(0.99962 1.76101e-05 0)
(0.999666 -3.05209e-06 0)
(0.999555 4.5589e-05 0)
(0.999628 1.0936e-05 0)
(0.999484 6.58842e-05 0)
(0.999567 2.15695e-05 0)
(0.999377 9.31868e-05 0)
(0.999471 3.44284e-05 0)
(0.999228 0.000134704 0)
(0.999325 5.31546e-05 0)
(0.999012 0.000207392 0)
(0.999094 8.89561e-05 0)
(0.998677 0.000360881 0)
(0.998705 0.000200141 0)
(0.998113 0.000798143 0)
(0.998154 0.000759817 0)
(0.999978 -0.000277096 0)
(0.999749 -0.000238116 0)
(0.999562 5.73077e-06 0)
(0.999685 -1.05989e-05 0)
(0.999645 1.95932e-05 0)
(0.999688 -2.73589e-06 0)
(0.999582 4.85921e-05 0)
(0.999648 1.23936e-05 0)
(0.999512 7.02906e-05 0)
(0.999586 2.40213e-05 0)
(0.999406 9.93748e-05 0)
(0.99949 3.82509e-05 0)
(0.999258 0.000143417 0)
(0.999343 5.92527e-05 0)
(0.999045 0.000219945 0)
(0.999114 9.99723e-05 0)
(0.998714 0.000379285 0)
(0.998735 0.000224261 0)
(0.998172 0.000818341 0)
(0.998223 0.000801481 0)
(0.999979 -0.00023488 0)
(0.999781 -0.00023141 0)
(0.999596 2.79965e-06 0)
(0.999706 -1.02315e-05 0)
(0.99967 2.17844e-05 0)
(0.999708 -2.34166e-06 0)
(0.999607 5.17323e-05 0)
(0.999667 1.39725e-05 0)
(0.999538 7.48873e-05 0)
(0.999604 2.66738e-05 0)
(0.999434 0.000105793 0)
(0.999507 4.24094e-05 0)
(0.999288 0.000152375 0)
(0.999361 6.59378e-05 0)
(0.999077 0.00023266 0)
(0.999133 0.000112061 0)
(0.998753 0.00039741 0)
(0.998765 0.00024993 0)
(0.998232 0.000836581 0)
(0.998289 0.00084229 0)
(0.999981 -0.000196316 0)
(0.99981 -0.00022328 0)
(0.999629 4.14671e-08 0)
(0.999725 -9.92273e-06 0)
(0.999693 2.41902e-05 0)
(0.999727 -1.85547e-06 0)
(0.999632 5.50136e-05 0)
(0.999685 1.56854e-05 0)
(0.999564 7.96747e-05 0)
(0.999622 2.95491e-05 0)
(0.999461 0.000112433 0)
(0.999524 4.69402e-05 0)
(0.999317 0.000161555 0)
(0.999377 7.32655e-05 0)
(0.999109 0.000245489 0)
(0.999152 0.00012528 0)
(0.998791 0.000415174 0)
(0.998795 0.00027707 0)
(0.998293 0.000852892 0)
(0.998355 0.000881918 0)
(0.999982 -0.000161436 0)
(0.999837 -0.000213855 0)
(0.99966 -2.45256e-06 0)
(0.999744 -9.67669e-06 0)
(0.999716 2.68064e-05 0)
(0.999746 -1.25261e-06 0)
(0.999656 5.84298e-05 0)
(0.999702 1.75562e-05 0)
(0.999589 8.4642e-05 0)
(0.999638 3.26817e-05 0)
(0.999487 0.000119275 0)
(0.999539 5.18929e-05 0)
(0.999345 0.000170921 0)
(0.999393 8.13039e-05 0)
(0.99914 0.000258369 0)
(0.999171 0.000139691 0)
(0.998828 0.000432488 0)
(0.998825 0.000305585 0)
(0.998355 0.000867314 0)
(0.998419 0.000920046 0)
(0.999983 -0.000130225 0)
(0.999862 -0.000203286 0)
(0.999691 -4.59157e-06 0)
(0.999762 -9.49415e-06 0)
(0.999737 2.96281e-05 0)
(0.999763 -5.1034e-07 0)
(0.999679 6.19785e-05 0)
(0.999719 1.9606e-05 0)
(0.999612 8.97807e-05 0)
(0.999653 3.61031e-05 0)
(0.999512 0.000126302 0)
(0.999555 5.73136e-05 0)
(0.999372 0.000180439 0)
(0.999409 9.01135e-05 0)
(0.99917 0.000271243 0)
(0.99919 0.000155334 0)
(0.998865 0.000449282 0)
(0.998856 0.000335335 0)
(0.998416 0.000879934 0)
(0.998482 0.000956346 0)
(0.999985 -0.000102614 0)
(0.999884 -0.00019175 0)
(0.999721 -6.29161e-06 0)
(0.99978 -9.36573e-06 0)
(0.999757 3.26405e-05 0)
(0.999779 4.02851e-07 0)
(0.9997 6.56482e-05 0)
(0.999734 2.18663e-05 0)
(0.999634 9.50724e-05 0)
(0.999668 3.98559e-05 0)
(0.999536 0.000133483 0)
(0.999569 6.32588e-05 0)
(0.999397 0.000190063 0)
(0.999424 9.97606e-05 0)
(0.999199 0.000284046 0)
(0.999209 0.00017224 0)
(0.998902 0.000465493 0)
(0.998887 0.000366153 0)
(0.998478 0.000890858 0)
(0.998544 0.000990508 0)
(0.999986 -7.84844e-05 0)
(0.999903 -0.00017944 0)
(0.999749 -7.47486e-06 0)
(0.999796 -9.27738e-06 0)
(0.999776 3.58292e-05 0)
(0.999795 1.51434e-06 0)
(0.999721 6.9433e-05 0)
(0.999748 2.43628e-05 0)
(0.999655 0.000100503 0)
(0.999682 4.39775e-05 0)
(0.999558 0.000140795 0)
(0.999583 6.97774e-05 0)
(0.999421 0.000199757 0)
(0.999439 0.000110297 0)
(0.999226 0.000296729 0)
(0.999227 0.000190408 0)
(0.998938 0.000481085 0)
(0.998919 0.000397825 0)
(0.99854 0.000900232 0)
(0.998606 0.00102222 0)
(0.999987 -5.76764e-05 0)
(0.99992 -0.000166558 0)
(0.999775 -8.07645e-06 0)
(0.999812 -9.2e-06 0)
(0.999794 3.91693e-05 0)
(0.999809 2.86249e-06 0)
(0.99974 7.33166e-05 0)
(0.999762 2.71348e-05 0)
(0.999675 0.000106047 0)
(0.999695 4.85172e-05 0)
(0.999579 0.000148201 0)
(0.999596 7.69283e-05 0)
(0.999444 0.00020947 0)
(0.999454 0.000121778 0)
(0.999253 0.000309234 0)
(0.999246 0.000209822 0)
(0.998974 0.000496029 0)
(0.998951 0.000430114 0)
(0.998602 0.000908212 0)
(0.998666 0.00105122 0)
(0.999989 -3.99876e-05 0)
(0.999935 -0.000153318 0)
(0.9998 -8.04461e-06 0)
(0.999827 -9.10194e-06 0)
(0.99981 4.26364e-05 0)
(0.999823 4.47801e-06 0)
(0.999757 7.72888e-05 0)
(0.999775 3.02134e-05 0)
(0.999693 0.000111684 0)
(0.999708 5.35158e-05 0)
(0.999598 0.000155672 0)
(0.999609 8.47577e-05 0)
(0.999466 0.000219165 0)
(0.999468 0.000134236 0)
(0.999278 0.000321527 0)
(0.999265 0.000230427 0)
(0.999009 0.00051033 0)
(0.998984 0.000462738 0)
(0.998664 0.000914985 0)
(0.998726 0.00107726 0)
(0.99999 -2.51865e-05 0)
(0.999948 -0.000139927 0)
(0.999823 -7.34921e-06 0)
(0.999842 -8.93406e-06 0)
(0.999825 4.61966e-05 0)
(0.999835 6.40338e-06 0)
(0.999774 8.13289e-05 0)
(0.999787 3.36434e-05 0)
(0.99971 0.000117383 0)
(0.99972 5.90255e-05 0)
(0.999616 0.000163168 0)
(0.999622 9.33194e-05 0)
(0.999486 0.000228798 0)
(0.999483 0.000147699 0)
(0.999303 0.000333571 0)
(0.999285 0.000252149 0)
(0.999044 0.000524004 0)
(0.999017 0.000495403 0)
(0.998725 0.000920736 0)
(0.998785 0.00110015 0)
(0.999991 -1.30082e-05 0)
(0.999959 -0.000126588 0)
(0.999844 -5.9772e-06 0)
(0.999855 -8.64614e-06 0)
(0.999838 4.98185e-05 0)
(0.999847 8.67088e-06 0)
(0.999789 8.54236e-05 0)
(0.999798 3.74591e-05 0)
(0.999725 0.000123121 0)
(0.999731 6.50868e-05 0)
(0.999633 0.000170662 0)
(0.999634 0.000102649 0)
(0.999505 0.00023834 0)
(0.999497 0.000162167 0)
(0.999326 0.000345356 0)
(0.999304 0.000274863 0)
(0.999079 0.000537101 0)
(0.99905 0.000527782 0)
(0.998786 0.00092566 0)
(0.998842 0.00111973 0)
(0.999992 -3.17301e-06 0)
(0.999968 -0.000113489 0)
(0.999863 -3.94094e-06 0)
(0.999868 -8.17485e-06 0)
(0.999851 5.34652e-05 0)
(0.999858 1.13201e-05 0)
(0.999802 8.95523e-05 0)
(0.999808 4.17042e-05 0)
(0.99974 0.000128866 0)
(0.999742 7.1744e-05 0)
(0.999649 0.000178119 0)
(0.999645 0.000112779 0)
(0.999523 0.000247764 0)
(0.99951 0.000177626 0)
(0.999349 0.000356879 0)
(0.999324 0.000298426 0)
(0.999113 0.000549678 0)
(0.999084 0.000559548 0)
(0.998847 0.000929937 0)
(0.9989 0.00113593 0)
(0.999992 4.61082e-06 0)
(0.999976 -0.000100796 0)
(0.999881 -1.27442e-06 0)
(0.99988 -7.45508e-06 0)
(0.999862 5.7102e-05 0)
(0.999868 1.4383e-05 0)
(0.999815 9.36992e-05 0)
(0.999818 4.64146e-05 0)
(0.999753 0.000134596 0)
(0.999752 7.90306e-05 0)
(0.999664 0.000185516 0)
(0.999656 0.000123722 0)
(0.999541 0.000257058 0)
(0.999524 0.000194026 0)
(0.999372 0.000368162 0)
(0.999344 0.000322649 0)
(0.999147 0.00056182 0)
(0.999118 0.000590364 0)
(0.998906 0.000933735 0)
(0.998956 0.00114871 0)
(0.999993 1.06318e-05 0)
(0.999982 -8.86488e-05 0)
(0.999897 1.96226e-06 0)
(0.999892 -6.41543e-06 0)
(0.999873 6.06925e-05 0)
(0.999877 1.78933e-05 0)
(0.999827 9.78439e-05 0)
(0.999827 5.16289e-05 0)
(0.999765 0.000140283 0)
(0.999761 8.6977e-05 0)
(0.999677 0.000192834 0)
(0.999667 0.000135484 0)
(0.999557 0.000266217 0)
(0.999538 0.000211301 0)
(0.999394 0.000379237 0)
(0.999364 0.000347323 0)
(0.999182 0.000573609 0)
(0.999152 0.000619913 0)
(0.998965 0.000937188 0)
(0.999012 0.00115813 0)
(0.999994 1.51719e-05 0)
(0.999986 -7.71547e-05 0)
(0.999911 5.69217e-06 0)
(0.999902 -4.98817e-06 0)
(0.999882 6.42073e-05 0)
(0.999885 2.18751e-05 0)
(0.999837 0.000101974 0)
(0.999836 5.73744e-05 0)
(0.999776 0.000145913 0)
(0.99977 9.5597e-05 0)
(0.99969 0.000200066 0)
(0.999677 0.000148039 0)
(0.999573 0.000275262 0)
(0.999551 0.000229345 0)
(0.999416 0.000390161 0)
(0.999384 0.000372203 0)
(0.999217 0.000585145 0)
(0.999187 0.00064789 0)
(0.999023 0.000940403 0)
(0.999067 0.00116428 0)
(0.999994 1.84915e-05 0)
(0.99999 -6.63882e-05 0)
(0.999923 9.81551e-06 0)
(0.999912 -3.10778e-06 0)
(0.999891 6.76188e-05 0)
(0.999893 2.63499e-05 0)
(0.999847 0.000106074 0)
(0.999844 6.36768e-05 0)
(0.999786 0.000151472 0)
(0.999779 0.000104895 0)
(0.999702 0.000207213 0)
(0.999688 0.00016135 0)
(0.999588 0.000284216 0)
(0.999565 0.000248033 0)
(0.999438 0.000400993 0)
(0.999405 0.000397039 0)
(0.999251 0.000596505 0)
(0.999223 0.000674037 0)
(0.99908 0.000943436 0)
(0.999121 0.00116733 0)
(0.999995 2.08266e-05 0)
(0.999993 -5.6386e-05 0)
(0.999934 1.42224e-05 0)
(0.999921 -7.16773e-07 0)
(0.999899 7.09078e-05 0)
(0.9999 3.13302e-05 0)
(0.999856 0.000110138 0)
(0.999851 7.05489e-05 0)
(0.999796 0.000156956 0)
(0.999787 0.000114858 0)
(0.999714 0.00021429 0)
(0.999698 0.000175348 0)
(0.999603 0.000293124 0)
(0.999579 0.000267206 0)
(0.999459 0.000411806 0)
(0.999426 0.000421562 0)
(0.999286 0.000607768 0)
(0.999258 0.000698128 0)
(0.999135 0.000946307 0)
(0.999175 0.00116749 0)
(0.999995 2.23828e-05 0)
(0.999995 -4.71531e-05 0)
(0.999943 1.87931e-05 0)
(0.99993 2.22838e-06 0)
(0.999906 7.40629e-05 0)
(0.999907 3.68186e-05 0)
(0.999864 0.000114161 0)
(0.999858 7.79927e-05 0)
(0.999805 0.000162374 0)
(0.999795 0.000125454 0)
(0.999725 0.000221326 0)
(0.999708 0.000189947 0)
(0.999618 0.000302039 0)
(0.999593 0.000286688 0)
(0.999481 0.00042267 0)
(0.999448 0.000445513 0)
(0.99932 0.000618975 0)
(0.999295 0.000720003 0)
(0.99919 0.000948986 0)
(0.999228 0.00116504 0)
(0.999996 2.33331e-05 0)
(0.999997 -3.86627e-05 0)
(0.999951 2.34104e-05 0)
(0.999938 5.75579e-06 0)
(0.999913 7.70842e-05 0)
(0.999913 4.28066e-05 0)
(0.999872 0.00011815 0)
(0.999865 8.59929e-05 0)
(0.999814 0.000167745 0)
(0.999803 0.000136628 0)
(0.999735 0.000228364 0)
(0.999718 0.000205031 0)
(0.999633 0.000311029 0)
(0.999607 0.000306282 0)
(0.999503 0.000433654 0)
(0.999471 0.000468639 0)
(0.999355 0.000630151 0)
(0.999332 0.000739547 0)
(0.999243 0.000951405 0)
(0.99928 0.00116026 0)
(0.999996 2.38162e-05 0)
(0.999998 -3.08635e-05 0)
(0.999957 2.79597e-05 0)
(0.999945 9.87352e-06 0)
(0.999919 7.99799e-05 0)
(0.999918 4.92742e-05 0)
(0.999879 0.000122116 0)
(0.999871 9.4522e-05 0)
(0.999822 0.0001731 0)
(0.99981 0.000148311 0)
(0.999746 0.000235453 0)
(0.999728 0.000220471 0)
(0.999647 0.000320156 0)
(0.999621 0.000325787 0)
(0.999525 0.000444803 0)
(0.999494 0.000490717 0)
(0.99939 0.000641271 0)
(0.999369 0.000756719 0)
(0.999295 0.000953458 0)
(0.999331 0.00115346 0)
(0.999996 2.39421e-05 0)
(0.999999 -2.36886e-05 0)
(0.999963 3.23457e-05 0)
(0.999951 1.45654e-05 0)
(0.999925 8.27746e-05 0)
(0.999924 5.61842e-05 0)
(0.999885 0.000126085 0)
(0.999878 0.000103527 0)
(0.99983 0.000178484 0)
(0.999818 0.000160404 0)
(0.999756 0.000242658 0)
(0.999738 0.000236112 0)
(0.999662 0.000329488 0)
(0.999636 0.000344994 0)
(0.999547 0.000456149 0)
(0.999517 0.000511549 0)
(0.999425 0.000652286 0)
(0.999406 0.00077152 0)
(0.999345 0.000955022 0)
(0.999382 0.00114493 0)
(0.999997 2.37884e-05 0)
(1 -1.70568e-05 0)
(0.999967 3.64844e-05 0)
(0.999957 1.97977e-05 0)
(0.99993 8.54941e-05 0)
(0.999928 6.3494e-05 0)
(0.999891 0.000130081 0)
(0.999883 0.000112949 0)
(0.999837 0.000183944 0)
(0.999825 0.000172806 0)
(0.999767 0.000250034 0)
(0.999748 0.000251804 0)
(0.999677 0.000339069 0)
(0.999652 0.000363717 0)
(0.99957 0.000467683 0)
(0.999541 0.000530988 0)
(0.99946 0.000663093 0)
(0.999444 0.000784021 0)
(0.999394 0.000955949 0)
(0.999431 0.00113498 0)
(0.999997 2.34196e-05 0)
(1 -1.08929e-05 0)
(0.999971 4.03273e-05 0)
(0.999962 2.55051e-05 0)
(0.999935 8.81856e-05 0)
(0.999933 7.11354e-05 0)
(0.999897 0.000134151 0)
(0.999889 0.000122698 0)
(0.999845 0.000189545 0)
(0.999832 0.000185386 0)
(0.999777 0.000257649 0)
(0.999759 0.000267376 0)
(0.999692 0.000348941 0)
(0.999668 0.00038177 0)
(0.999593 0.000479373 0)
(0.999566 0.000548916 0)
(0.999495 0.000673576 0)
(0.999482 0.000794315 0)
(0.999442 0.000956104 0)
(0.999479 0.00112386 0)
(0.999997 2.28747e-05 0)
(1 -5.11847e-06 0)
(0.999975 4.38396e-05 0)
(0.999967 3.16136e-05 0)
(0.99994 9.08876e-05 0)
(0.999937 7.90441e-05 0)
(0.999903 0.000138329 0)
(0.999895 0.000132688 0)
(0.999852 0.000195334 0)
(0.99984 0.000198025 0)
(0.999788 0.000265539 0)
(0.999769 0.000282686 0)
(0.999708 0.000359096 0)
(0.999684 0.000399014 0)
(0.999616 0.000491131 0)
(0.999592 0.000565279 0)
(0.999529 0.000683568 0)
(0.99952 0.000802547 0)
(0.999488 0.000955346 0)
(0.999526 0.00111181 0)
(0.999997 2.21934e-05 0)
(1 3.20253e-07 0)
(0.999977 4.70278e-05 0)
(0.999971 3.80192e-05 0)
(0.999945 9.36581e-05 0)
(0.999941 8.71286e-05 0)
(0.999909 0.000142669 0)
(0.9999 0.000142803 0)
(0.99986 0.000201373 0)
(0.999847 0.000210584 0)
(0.999798 0.000273743 0)
(0.99978 0.000297579 0)
(0.999723 0.000369519 0)
(0.999701 0.000415317 0)
(0.999639 0.000502857 0)
(0.999618 0.000580042 0)
(0.999563 0.000692916 0)
(0.999558 0.000808854 0)
(0.999532 0.000953576 0)
(0.999572 0.001099 0)
(0.999997 2.1401e-05 0)
(1 5.47339e-06 0)
(0.99998 4.99076e-05 0)
(0.999974 4.46217e-05 0)
(0.999949 9.65364e-05 0)
(0.999945 9.53107e-05 0)
(0.999914 0.000147201 0)
(0.999906 0.000152948 0)
(0.999867 0.000207688 0)
(0.999855 0.000222952 0)
(0.999809 0.000282252 0)
(0.999792 0.000311947 0)
(0.999739 0.000380134 0)
(0.999718 0.000430606 0)
(0.999663 0.000514393 0)
(0.999645 0.000593227 0)
(0.999597 0.000701433 0)
(0.999595 0.000813406 0)
(0.999575 0.000950699 0)
(0.999616 0.00108561 0)
(0.999997 2.05423e-05 0)
(1 1.03575e-05 0)
(0.999981 5.2534e-05 0)
(0.999977 5.12963e-05 0)
(0.999953 9.95788e-05 0)
(0.999949 0.000103486 0)
(0.999919 0.000151975 0)
(0.999911 0.000162999 0)
(0.999875 0.000214315 0)
(0.999863 0.000235002 0)
(0.99982 0.000291056 0)
(0.999804 0.000325672 0)
(0.999755 0.000390861 0)
(0.999736 0.000444806 0)
(0.999686 0.000525592 0)
(0.999671 0.000604851 0)
(0.99963 0.000708975 0)
(0.999632 0.000816333 0)
(0.999617 0.000946681 0)
(0.999659 0.00107171 0)
(0.999997 1.96535e-05 0)
(1 1.49875e-05 0)
(0.999983 5.49576e-05 0)
(0.999979 5.7939e-05 0)
(0.999957 0.00010281 0)
(0.999952 0.000111575 0)
(0.999924 0.000156998 0)
(0.999916 0.000172869 0)
(0.999882 0.000221237 0)
(0.999871 0.000246655 0)
(0.999831 0.000300081 0)
(0.999816 0.000338696 0)
(0.999771 0.000401557 0)
(0.999755 0.000457903 0)
(0.99971 0.000536257 0)
(0.999698 0.000614982 0)
(0.999663 0.000715381 0)
(0.999668 0.000817786 0)
(0.999658 0.000941487 0)
(0.999699 0.0010574 0)
(0.999997 1.87845e-05 0)
(1 1.93473e-05 0)
(0.999985 5.72536e-05 0)
(0.999982 6.44334e-05 0)
(0.99996 0.000106265 0)
(0.999956 0.000119482 0)
(0.999929 0.000162288 0)
(0.999922 0.000182453 0)
(0.99989 0.000228437 0)
(0.999879 0.000257815 0)
(0.999842 0.000309258 0)
(0.999828 0.000350944 0)
(0.999788 0.00041209 0)
(0.999774 0.000469866 0)
(0.999734 0.000546232 0)
(0.999725 0.000623654 0)
(0.999695 0.000720554 0)
(0.999704 0.000817858 0)
(0.999696 0.000935143 0)
(0.999738 0.00104271 0)
(0.999998 1.7965e-05 0)
(1 2.34303e-05 0)
(0.999986 5.94705e-05 0)
(0.999984 7.07017e-05 0)
(0.999963 0.00010993 0)
(0.999959 0.000127149 0)
(0.999934 0.000167809 0)
(0.999927 0.000191696 0)
(0.999897 0.000235835 0)
(0.999887 0.000268446 0)
(0.999853 0.000318449 0)
(0.999841 0.000362403 0)
(0.999804 0.000422277 0)
(0.999793 0.000480716 0)
(0.999757 0.000555328 0)
(0.999752 0.000630938 0)
(0.999726 0.000724391 0)
(0.999738 0.000816661 0)
(0.999733 0.000927666 0)
(0.999776 0.00102769 0)
(0.999998 1.72457e-05 0)
(1 2.72065e-05 0)
(0.999987 6.16728e-05 0)
(0.999985 7.66572e-05 0)
(0.999966 0.000113806 0)
(0.999962 0.000134499 0)
(0.999939 0.000173534 0)
(0.999933 0.000200524 0)
(0.999905 0.000243362 0)
(0.999896 0.000278487 0)
(0.999864 0.000327539 0)
(0.999854 0.000373029 0)
(0.999821 0.000431968 0)
(0.999812 0.000490434 0)
(0.99978 0.000563418 0)
(0.999779 0.000636859 0)
(0.999757 0.000726857 0)
(0.999772 0.00081425 0)
(0.999769 0.00091912 0)
(0.999812 0.00101232 0)
(0.999998 1.66517e-05 0)
(1 3.06691e-05 0)
(0.999988 6.38858e-05 0)
(0.999987 8.22593e-05 0)
(0.999969 0.000117841 0)
(0.999966 0.000141501 0)
(0.999944 0.000179381 0)
(0.999938 0.000208909 0)
(0.999912 0.000250893 0)
(0.999905 0.000287925 0)
(0.999876 0.000336363 0)
(0.999867 0.000382819 0)
(0.999837 0.000440986 0)
(0.999831 0.00049904 0)
(0.999803 0.000570364 0)
(0.999805 0.000641465 0)
(0.999786 0.000727915 0)
(0.999804 0.000810697 0)
(0.999803 0.00090955 0)
(0.999845 0.000996643 0)
(0.999998 1.62099e-05 0)
(1 3.37985e-05 0)
(0.999989 6.61346e-05 0)
(0.999988 8.74648e-05 0)
(0.999972 0.000121994 0)
(0.999969 0.000148108 0)
(0.999949 0.000185279 0)
(0.999944 0.000216805 0)
(0.99992 0.000258316 0)
(0.999914 0.000296718 0)
(0.999887 0.000344786 0)
(0.999881 0.000391739 0)
(0.999853 0.000449199 0)
(0.99985 0.00050651 0)
(0.999826 0.000576087 0)
(0.999831 0.000644764 0)
(0.999815 0.000727582 0)
(0.999835 0.000806033 0)
(0.999835 0.000899031 0)
(0.999878 0.000980632 0)
(0.999998 1.5916e-05 0)
(1 3.66057e-05 0)
(0.99999 6.84015e-05 0)
(0.99999 9.22726e-05 0)
(0.999975 0.000126177 0)
(0.999972 0.000154312 0)
(0.999953 0.000191108 0)
(0.999949 0.000224204 0)
(0.999927 0.000265481 0)
(0.999923 0.00030486 0)
(0.999898 0.000352645 0)
(0.999894 0.00039978 0)
(0.99987 0.000456462 0)
(0.999869 0.000512848 0)
(0.999848 0.000580506 0)
(0.999855 0.000646786 0)
(0.999843 0.000725866 0)
(0.999864 0.000800309 0)
(0.999866 0.000887613 0)
(0.999908 0.000964302 0)
(0.999998 1.5777e-05 0)
(1 3.90895e-05 0)
(0.999991 7.06782e-05 0)
(0.999991 9.66681e-05 0)
(0.999977 0.000130327 0)
(0.999975 0.00016008 0)
(0.999958 0.00019678 0)
(0.999955 0.000231065 0)
(0.999935 0.000272279 0)
(0.999932 0.0003123 0)
(0.99991 0.000359828 0)
(0.999908 0.00040689 0)
(0.999886 0.000462694 0)