/*--------------------------------*- C++ -*----------------------------------*\
| =========                 |                                                 |
| \\      /  F ield         | OpenFOAM: The Open Source CFD Toolbox           |
|  \\    /   O peration     | Version:  v1912                                 |
|   \\  /    A nd           | Website:  www.openfoam.com                      |
|    \\/     M anipulation  |                                                 |
\*---------------------------------------------------------------------------*/
FoamFile
{
    version     2.0;
    format      ascii;
    class       volScalarField;
    location    "100";
    object      epsilon;
}
// * * * * * * * * * * * * * * * * * * * * * * * * * * * * * * * * * * * * * //

dimensions      [0 2 -3 0 0 0 0];


internalField   nonuniform List<scalar> 
2000
(
0.0135126
0.0111846
0.00819036
0.00480195
0.00122615
0.000126162
0.000101801
0.000119348
0.000124301
0.000101981
6.21065e-05
4.02795e-05
4.45258e-05
5.00868e-05
5.68692e-05
6.7416e-05
8.24282e-05
0.000101399
0.000124326
0.000151776
0.000184696
0.000224403
0.00027256
0.000331013
0.000401543
0.00048558
0.000583983
0.000696934
0.000823937
0.00096393
0.00111544
0.00127675
0.0014461
0.00162184
0.00180265
0.00198776
0.0021772
0.00237218
0.00257557
0.00279313
0.00301678
0.00324362
0.00347458
0.00371049
0.00395164
0.00419786
0.0044487
0.00470344
0.00496126
0.00522121
0.00548232
0.00574361
0.00600407
0.00626231
0.00651585
0.00676419
0.00700727
0.0072457
0.0074827
0.0077318
0.00801889
0.00832863
0.00865065
0.00898102
0.00931937
0.00966694
0.010026
0.0103995
0.0107913
0.0112061
0.0116499
0.0121297
0.0126547
0.0132364
0.0138906
0.0146383
0.0155129
0.0165652
0.017877
0.0198456
0.122256
0.0401408
0.0185258
0.0102231
0.00591014
0.00348321
0.00206628
0.00120253
0.00155777
0.000768802
0.00034227
0.000225871
0.000181205
0.000146881
0.00012308
0.000120524
0.000131021
0.000148337
0.000171572
0.000200901
0.00023673
0.000279869
0.00033157
0.000393385
0.000466966
0.000553851
0.000655257
0.000771945
0.00090415
0.00105154
0.0012132
0.00138772
0.00157328
0.00176782
0.00196931
0.00217604
0.00238673
0.0026002
0.0028153
0.00302586
0.00323417
0.00344138
0.00364834
0.00385569
0.00406357
0.00427169
0.00447946
0.00468612
0.00489079
0.00509261
0.00529076
0.00548482
0.00567558
0.00586295
0.00603665
0.0061999
0.0063534
0.00649745
0.00663276
0.00676096
0.00688366
0.00700055
0.00711169
0.00721738
0.00731835
0.00741575
0.00751112
0.00760631
0.00770354
0.00780532
0.00791451
0.00803432
0.00816832
0.00832024
0.00849422
0.00869166
0.00891871
0.00914154
0.00944389
0.00945356
0.111974
0.0306049
0.0126527
0.00692896
0.00433047
0.00288117
0.00200591
0.00147882
0.00141847
0.0013788
0.00140036
0.00161484
0.00163038
0.00102783
0.0006638
0.000507057
0.000450621
0.000430286
0.000434842
0.000458944
0.000498229
0.000550633
0.000615579
0.000693079
0.000783703
0.000888476
0.00100853
0.00114474
0.00129746
0.00146646
0.0016509
0.00184935
0.00206005
0.00228121
0.00251146
0.00275027
0.00299806
0.00325674
0.0035144
0.00377002
0.00402421
0.00427454
0.00452058
0.00476319
0.00500198
0.00523606
0.00546426
0.0056853
0.00589787
0.00610065
0.00629245
0.00647222
0.00663912
0.00679225
0.00693018
0.00705257
0.00715936
0.00725067
0.00732688
0.00738864
0.00743701
0.00747333
0.00749906
0.00751571
0.00752488
0.00752842
0.0075284
0.0075271
0.00752701
0.0075308
0.00754132
0.00756151
0.00759435
0.00764254
0.00770813
0.00779066
0.00788798
0.00797602
0.00809224
0.0079867
0.109259
0.0267999
0.00926385
0.00444664
0.00268906
0.00184496
0.0013567
0.00105236
0.000927039
0.000907063
0.00098893
0.00125986
0.001732
0.00218615
0.00254904
0.00255561
0.00220663
0.00182294
0.0015717
0.0014427
0.00139192
0.00139174
0.00142751
0.00148968
0.00157236
0.00167277
0.00179018
0.00192483
0.00207721
0.00224783
0.00243692
0.00264433
0.00286935
0.00311129
0.00337083
0.00365019
0.00394703
0.00424374
0.00453894
0.0048311
0.00511726
0.00539504
0.00566304
0.00592034
0.00616593
0.00639867
0.0066173
0.00682052
0.00700707
0.00717576
0.00732558
0.00745572
0.0075656
0.0076549
0.00772351
0.00777165
0.00779989
0.00780905
0.00780023
0.0077748
0.00773441
0.00768101
0.00761672
0.00754374
0.00746433
0.00738083
0.00729566
0.00721131
0.00713031
0.00705523
0.00698865
0.00693313
0.00689108
0.00686454
0.00685476
0.00686093
0.00688069
0.00689629
0.00693691
0.00682772
0.108843
0.026042
0.00822872
0.00339485
0.0017986
0.00115703
0.000843002
0.000662548
0.00056507
0.00052496
0.000538093
0.000632447
0.000856534
0.00123859
0.0018338
0.00263811
0.00344081
0.00401156
0.00425338
0.00421783
0.00403966
0.00384159
0.00368752
0.00359315
0.00355235
0.00355465
0.00359183
0.00365887
0.00375327
0.00387404
0.00402085
0.00419334
0.00439082
0.00461325
0.00487055
0.00514444
0.00542158
0.00569872
0.00597212
0.00623868
0.00649501
0.00673805
0.0069654
0.00717522
0.007366
0.00753644
0.00768543
0.00781201
0.0079154
0.00799506
0.00805071
0.00808236
0.00809036
0.00807537
0.00803837
0.00798066
0.0079038
0.00780962
0.00770014
0.00757756
0.00744419
0.00730249
0.00715493
0.00700396
0.00685199
0.00670133
0.00655423
0.00641285
0.00627929
0.00615558
0.00604368
0.00594548
0.00586277
0.00579704
0.00574929
0.00571913
0.00570554
0.00569612
0.00571693
0.00564029
0.108786
0.0259478
0.00802264
0.00308851
0.00145456
0.000827079
0.000552248
0.000415601
0.000343121
0.0003061
0.000294771
0.000313422
0.000378414
0.000512281
0.000755601
0.00116702
0.00176815
0.00254981
0.00346399
0.00441036
0.00526293
0.00592161
0.00634973
0.00657343
0.00665282
0.00665106
0.00661692
0.00658138
0.00656154
0.00656593
0.00659844
0.00666027
0.0067551
0.00688058
0.00701604
0.00716085
0.00731167
0.00746463
0.00761534
0.00775963
0.00789354
0.00801351
0.00811661
0.00820053
0.0082635
0.00830423
0.00832182
0.00831579
0.00828604
0.00823283
0.00815682
0.00805903
0.00794085
0.00780397
0.00765039
0.00748232
0.00730213
0.00711233
0.00691545
0.00671403
0.00651055
0.00630739
0.00610679
0.00591082
0.00572134
0.00554005
0.00536844
0.00520787
0.00505955
0.00492463
0.00480418
0.00469923
0.00461082
0.0045399
0.00448727
0.00445299
0.00443731
0.00443193
0.00446003
0.00442977
0.108778
0.0259454
0.00799959
0.0030253
0.00135557
0.000706559
0.000424192
0.000289765
0.000221618
0.00018636
0.000169837
0.000167666
0.000181914
0.000218917
0.000291436
0.000421602
0.000628338
0.000932064
0.00135424
0.00191011
0.00260184
0.00341203
0.00430043
0.0052076
0.00606668
0.00681957
0.00743029
0.00788989
0.0082124
0.00842546
0.00856068
0.00864603
0.00868752
0.00869961
0.00869744
0.00868857
0.00867587
0.00865954
0.0086383
0.00861016
0.00857284
0.008524
0.00846149
0.00838349
0.00828863
0.00817602
0.00804527
0.00789651
0.00773035
0.00754786
0.00735052
0.00714015
0.00691886
0.00668894
0.00645285
0.00621307
0.00597208
0.00573226
0.00549588
0.00526499
0.00504142
0.00482679
0.00462245
0.00442949
0.00424882
0.00408109
0.00392681
0.00378636
0.00366003
0.00354806
0.00345073
0.00336833
0.00330129
0.00325011
0.00321541
0.00319759
0.00319783
0.00321092
0.00325682
0.00327294
0.108777
0.0259493
0.00800219
0.0030173
0.00133371
0.000671669
0.000379143
0.000237988
0.000165451
0.000126818
0.000106427
9.72207e-05
9.67223e-05
0.000105166
0.000125204
0.000162427
0.000221685
0.000309019
0.000432364
0.000600822
0.00082413
0.00111173
0.00147143
0.00190761
0.0024193
0.00299827
0.00362803
0.00428469
0.00493974
0.00556434
0.00613374
0.0066306
0.00705446
0.00736289
0.00756189
0.00767054
0.00770901
0.00769491
0.00764172
0.00755883
0.00745223
0.00732549
0.00718066
0.0070191
0.00684187
0.00665015
0.00644528
0.0062289
0.00600288
0.00576928
0.00553033
0.00528831
0.00504552
0.00480422
0.00456655
0.00433446
0.00410974
0.00389391
0.00368826
0.00349379
0.00331128
0.00314126
0.00298404
0.00283978
0.00270845
0.00258994
0.00248407
0.00239059
0.00230928
0.00223995
0.00218247
0.00213684
0.0021032
0.00208187
0.00207347
0.00207863
0.00209908
0.00213206
0.00219394
0.00224589
0.108777
0.0259518
0.00800532
0.00301797
0.00133022
0.000663305
0.000365831
0.000220139
0.000143593
0.000101355
7.7457e-05
6.41673e-05
5.77583e-05
5.66503e-05
6.06493e-05
7.07231e-05
8.76478e-05
0.00011244
0.000146546
0.00019166
0.000249698
0.000322773
0.000413142
0.000523108
0.000654856
0.000810184
0.000990142
0.00119465
0.00142215
0.00166947
0.00193176
0.00220278
0.00247672
0.00278109
0.00308243
0.00336295
0.00360812
0.00380813
0.00395803
0.0040571
0.00410784
0.00411477
0.00408348
0.00401984
0.00392951
0.00381774
0.00368922
0.00354809
0.00339798
0.0032421
0.00308323
0.00292384
0.00276603
0.00261164
0.00246218
0.0023189
0.00218279
0.00205457
0.00193477
0.00182372
0.00172156
0.00162833
0.00154394
0.00146826
0.00140109
0.0013422
0.00129137
0.0012484
0.00121312
0.00118541
0.00116526
0.00115272
0.00114803
0.00115157
0.00116401
0.00118618
0.00121998
0.00126449
0.00133235
0.00140289
0.108777
0.0259526
0.00800682
0.00301901
0.00133011
0.000661652
0.000362362
0.000214699
0.000136111
9.18001e-05
6.57709e-05
5.015e-05
4.08817e-05
3.58558e-05
3.40571e-05
3.51833e-05
3.90948e-05
4.57516e-05
5.52712e-05
6.78134e-05
8.35306e-05
0.000102542
0.000124921
0.000150686
0.000179786
0.000212065
0.000247218
0.000284734
0.000323841
0.000363473
0.000402251
0.000438496
0.000470389
0.000497175
0.000536562
0.000587009
0.000646792
0.000713221
0.000782919
0.000852205
0.000917496
0.000975657
0.00102424
0.00106162
0.00108699
0.00110029
0.0011021
0.00109345
0.00107569
0.00105031
0.00101888
0.000982898
0.000943776
0.00090277
0.000860971
0.000819306
0.000778537
0.000739278
0.000702014
0.000667117
0.000634867
0.00060547
0.000579075
0.000555789
0.000535693
0.000518852
0.000505333
0.000495212
0.000488588
0.000485597
0.000486428
0.000491339
0.000500687
0.000514959
0.000534861
0.000561272
0.000595941
0.000639142
0.000699794
0.000769853
0.108777
0.025952
0.00800678
0.00301932
0.00133028
0.000661407
0.000361539
0.000213168
0.000133756
8.85215e-05
6.14756e-05
4.47204e-05
3.41234e-05
2.74295e-05
2.33865e-05
2.13215e-05
2.08626e-05
2.17093e-05
2.36952e-05
2.67285e-05
3.07426e-05
3.56674e-05
4.14125e-05
4.78582e-05
5.48496e-05
6.21908e-05
6.96385e-05
7.68965e-05
8.3614e-05
8.93901e-05
9.37865e-05
9.63505e-05
9.66554e-05
9.43736e-05
9.17635e-05
8.99481e-05
8.91251e-05
8.94716e-05
9.11156e-05
9.41097e-05
9.84108e-05
0.000103873
0.000110258
0.00011725
0.000124494
0.000131623
0.000138291
0.000144204
0.000149132
0.000152922
0.000155497
0.000156853
0.000157051
0.000156197
0.000154436
0.000151937
0.000148881
0.000145451
0.000141824
0.00013817
0.000134644
0.000131391
0.000128542
0.000126219
0.000124538
0.000123616
0.000123569
0.000124529
0.000126643
0.000130089
0.000135082
0.000141897
0.000150885
0.000162501
0.00017737
0.000196286
0.00022062
0.000251261
0.000293769
0.000347225
0.108777
0.02595
0.00800541
0.00301882
0.00133013
0.000661296
0.000361317
0.000212739
0.000133044
8.74571e-05
5.9993e-05
4.27502e-05
3.1579e-05
2.41888e-05
1.92654e-05
1.6037e-05
1.40865e-05
1.30481e-05
1.26803e-05
1.28317e-05
1.33992e-05
1.43038e-05
1.54758e-05
1.68473e-05
1.83469e-05
1.98971e-05
2.14132e-05
2.28031e-05
2.39696e-05
2.48154e-05
2.52505e-05
2.52021e-05
2.4627e-05
2.35255e-05
2.23274e-05
2.11467e-05
1.99887e-05
1.88606e-05
1.77716e-05
1.67318e-05
1.57526e-05
1.48451e-05
1.40198e-05
1.32856e-05
1.26485e-05
1.21112e-05
1.16726e-05
1.13275e-05
1.10671e-05
1.08804e-05
1.07545e-05
1.06767e-05
1.06353e-05
1.06211e-05
1.06281e-05
1.06544e-05
1.07024e-05
1.07788e-05
1.08945e-05
1.10644e-05
1.13067e-05
1.16423e-05
1.20947e-05
1.26891e-05
1.34524e-05
1.44135e-05
1.5604e-05
1.70597e-05
1.88239e-05
2.09511e-05
2.35146e-05
2.66159e-05
3.04001e-05
3.50769e-05
4.09601e-05
4.85013e-05
5.847e-05
7.16904e-05
9.10505e-05
0.000117881
0.108777
0.0259466
0.00800289
0.00301761
0.00132959
0.00066103
0.000361145
0.000212565
0.000132806
8.71099e-05
5.94965e-05
4.2066e-05
3.06657e-05
2.29966e-05
1.77291e-05
1.40665e-05
1.15906e-05
9.92587e-06
8.81648e-06
8.10039e-06
7.66983e-06
7.44904e-06
7.38131e-06
7.42129e-06
7.53042e-06
7.67419e-06
7.82065e-06
7.93996e-06
8.00472e-06
7.99105e-06
7.88026e-06
7.66085e-06
7.3303e-06
6.89359e-06
6.46488e-06
6.05183e-06
5.65389e-06
5.27092e-06
4.90301e-06
4.55045e-06
4.21364e-06
3.89302e-06
3.58901e-06
3.302e-06
3.03232e-06
2.78027e-06
2.54617e-06
2.33045e-06
2.13387e-06
1.95771e-06
1.80411e-06
1.67648e-06
1.57991e-06
1.52162e-06
1.51142e-06
1.56198e-06
1.68898e-06
1.91109e-06
2.24967e-06
2.72828e-06
3.37192e-06
4.20606e-06
5.25551e-06
6.54315e-06
8.08891e-06
9.90901e-06
1.20158e-05
1.44179e-05
1.71218e-05
2.01332e-05
2.34596e-05
2.71131e-05
3.11139e-05
3.54923e-05
4.02917e-05
4.5557e-05
5.13616e-05
5.75635e-05
6.46885e-05
7.1036e-05
0.108777
0.0259418
0.00799936
0.00301582
0.00132871
0.000660569
0.000360886
0.000212399
0.000132672
8.69667e-05
5.93167e-05
4.18266e-05
3.03452e-05
2.25726e-05
1.71759e-05
1.33526e-05
1.06879e-05
8.8072e-06
7.45349e-06
6.46497e-06
5.73556e-06
5.19306e-06
4.7865e-06
4.47855e-06
4.24094e-06
4.05157e-06
3.89273e-06
3.75005e-06
3.61194e-06
3.4694e-06
3.31606e-06
3.14819e-06
2.9648e-06
2.76789e-06
2.58383e-06
2.41129e-06
2.24925e-06
2.0969e-06
1.95363e-06
1.81892e-06
1.69238e-06
1.57371e-06
1.46273e-06
1.35943e-06
1.26411e-06
1.1776e-06
1.10151e-06
1.03873e-06
9.93975e-07
9.74485e-07
9.9081e-07
1.05765e-06
1.19466e-06
1.42713e-06
1.78657e-06
2.31093e-06
3.04452e-06
4.03722e-06
5.34316e-06
7.0188e-06
9.12072e-06
1.17033e-05
1.48165e-05
1.85047e-05
2.28053e-05
2.77497e-05
3.33636e-05
3.96699e-05
4.66908e-05
5.44512e-05
6.29811e-05
7.23177e-05
8.25043e-05
9.35862e-05
0.000105594
0.000118501
0.000132176
0.000145911
0.000159282
0.000166946
0.108777
0.0259354
0.00799494
0.00301357
0.00132754
0.000659935
0.000360526
0.000212183
0.00013253
8.68608e-05
5.92218e-05
4.17253e-05
3.02239e-05
2.24193e-05
1.6979e-05
1.30998e-05
1.03693e-05
8.41436e-06
6.97877e-06
5.90173e-06
5.0786e-06
4.43903e-06
3.93439e-06
3.53008e-06
3.20095e-06
2.9283e-06
2.69798e-06
2.49917e-06
2.32356e-06
2.16484e-06
2.01834e-06
1.88077e-06
1.75003e-06
1.62603e-06
1.51334e-06
1.41048e-06
1.31626e-06
1.2297e-06
1.15001e-06
1.07662e-06
1.00922e-06
9.47896e-07
8.93404e-07
8.47586e-07
8.13988e-07
7.98712e-07
8.11506e-07
8.67066e-07
9.86515e-07
1.19898e-06
1.54319e-06
2.06907e-06
2.83894e-06
3.92813e-06
5.4247e-06
7.4282e-06
1.00475e-05
1.33976e-05
1.75968e-05
2.27624e-05
2.90079e-05
3.64402e-05
4.51574e-05
5.52472e-05
6.67853e-05
7.9833e-05
9.4435e-05
0.000110615
0.000128373
0.000147678
0.00016847
0.000190653
0.000214091
0.000238611
0.000263982
0.000289868
0.000315817
0.000340483
0.000363302
0.000375767
0.108777
0.0259274
0.00798973
0.00301092
0.00132615
0.000659162
0.000360077
0.00021191
0.000132357
8.67441e-05
5.91369e-05
4.16564e-05
3.01602e-05
2.23525e-05
1.69023e-05
1.30071e-05
1.02563e-05
8.27757e-06
6.81568e-06
5.71047e-06
4.85802e-06
4.1888e-06
3.65501e-06
3.22299e-06
2.86851e-06
2.57382e-06
2.32568e-06
2.11409e-06
1.93144e-06
1.77186e-06
1.63086e-06
1.50502e-06
1.39172e-06
1.28963e-06
1.19832e-06
1.11631e-06
1.04242e-06
9.75845e-07
9.16365e-07
8.64687e-07
8.23088e-07
7.96388e-07
7.93291e-07
8.28144e-07
9.23072e-07
1.11043e-06
1.43554e-06
1.95964e-06
2.76284e-06
3.94672e-06
5.63592e-06
7.97862e-06
1.11457e-05
1.53283e-05
2.0735e-05
2.75864e-05
3.61112e-05
4.65396e-05
5.90967e-05
7.39945e-05
9.14202e-05
0.000111522
0.000134389
0.000160032
0.000188364
0.000219184
0.000252168
0.000286885
0.00032281
0.000359363
0.000395953
0.000432023
0.000467089
0.000500761
0.000532763
0.000562818
0.000590842
0.000615302
0.000637255
0.000645809
0.108777
0.0259177
0.00798387
0.00300795
0.00132457
0.000658276
0.000359556
0.000211589
0.000132151
8.66067e-05
5.90416e-05
4.15872e-05
3.01066e-05
2.23074e-05
1.68607e-05
1.2965e-05
1.02106e-05
8.22632e-06
6.75746e-06
5.64437e-06
4.78355e-06
4.10584e-06
3.56378e-06
3.12403e-06
2.76267e-06
2.46223e-06
2.20972e-06
1.99533e-06
1.8116e-06
1.65274e-06
1.51427e-06
1.39267e-06
1.28516e-06
1.18984e-06
1.10535e-06
1.0309e-06
9.67285e-07
9.18036e-07
8.91228e-07
9.01953e-07
9.75451e-07
1.15075e-06
1.48475e-06
2.05671e-06
2.97303e-06
4.37189e-06
6.42678e-06
9.34866e-06
1.33864e-05
1.88253e-05
2.5984e-05
3.52093e-05
4.68692e-05
6.13437e-05
7.90109e-05
0.000100229
0.000125308
0.000154479
0.000187846
0.00022535
0.000266726
0.00031149
0.000358936
0.000408179
0.000458215
0.000508005
0.000556563
0.000603036
0.000646754
0.000687267
0.000724341
0.000757941
0.0007882
0.000815359
0.000839773
0.000861644
0.000881606
0.000897766
0.000913454
0.000911381
0.108777
0.0259065
0.00797747
0.00300473
0.00132285
0.000657301
0.000358978
0.00021123
0.000131917
8.64498e-05
5.89327e-05
4.15094e-05
3.00493e-05
2.22637e-05
1.68257e-05
1.29354e-05
1.01839e-05
8.2007e-06
6.73175e-06
5.61777e-06
4.75556e-06
4.07618e-06
3.53238e-06
3.09094e-06
2.72809e-06
2.42645e-06
2.1731e-06
1.95832e-06
1.77467e-06
1.61641e-06
1.47902e-06
1.35898e-06
1.25384e-06
1.16533e-06
1.10147e-06
1.0814e-06
1.14086e-06
1.33839e-06
1.76167e-06
2.53397e-06
3.82081e-06
5.83577e-06
8.84447e-06
1.31659e-05
1.9171e-05
2.7279e-05
3.79504e-05
5.16775e-05
6.89712e-05
9.03419e-05
0.000116273
0.000147184
0.000183383
0.000225015
0.000272001
0.000323994
0.000380355
0.000440169
0.00050229
0.000565434
0.000628287
0.000689614
0.000748349
0.000803652
0.000854926
0.000901808
0.000944135
0.000981906
0.00101524
0.00104437
0.0010696
0.00109128
0.00110987
0.00112582
0.0011397
0.0011518
0.0011632
0.00117129
0.00118195
0.00116956
0.108777
0.0258938
0.00797069
0.00300133
0.00132101
0.000656261
0.000358356
0.00021084
0.000131662
8.62771e-05
5.88121e-05
4.1423e-05
2.99859e-05
2.22162e-05
1.67894e-05
1.29069e-05
1.01606e-05
8.18111e-06
6.71465e-06
5.60239e-06
4.74141e-06
4.063e-06
3.52007e-06
3.07962e-06
2.71809e-06
2.41837e-06
2.16794e-06
1.95768e-06
1.7811e-06
1.63403e-06
1.51471e-06
1.42529e-06
1.47421e-06
1.81411e-06
2.63804e-06
4.20851e-06
6.86127e-06
1.10049e-05
1.71147e-05
2.57217e-05
3.7398e-05
5.27386e-05
7.23404e-05
9.67779e-05
0.000126572
0.000162153
0.000203814
0.000251665
0.000305583
0.000365171
0.000429749
0.000498363
0.000569844
0.00064289
0.000716177
0.000788466
0.000858686
0.000925988
0.00098975
0.00104955
0.00110511
0.00115627
0.00120291
0.00124497
0.00128241
0.00131523
0.00134352
0.00136744
0.00138724
0.00140326
0.00141595
0.00142585
0.00143354
0.00143964
0.00144493
0.00144972
0.0014556
0.001459
0.0014687
0.00144856
0.108777
0.0258797
0.00796365
0.0029978
0.00131911
0.00065518
0.000357705
0.000210428
0.00013139
8.60915e-05
5.86824e-05
4.13309e-05
2.99205e-05
2.21711e-05
1.67617e-05
1.28968e-05
1.01708e-05
8.21746e-06
6.78792e-06
5.73028e-06
4.95212e-06
4.40059e-06
4.0521e-06
3.90769e-06
3.99192e-06
4.35433e-06
5.07292e-06
6.25985e-06
8.06933e-06
1.07082e-05
1.44493e-05
2.01413e-05
2.95665e-05
4.3366e-05
6.22423e-05
8.68289e-05
0.000117658
0.000155117
0.000199414
0.000250549
0.000308283
0.000372134
0.000441371
0.000515043
0.00059202
0.000671061
0.000750906
0.00083037
0.000908434
0.000984308
0.00105746
0.00112761
0.00119465
0.00125862
0.00131958
0.00137757
0.00143256
0.0014844
0.00153287
0.0015777
0.00161859
0.00165525
0.00168747
0.00171514
0.00173823
0.00175686
0.00177128
0.00178185
0.00178904
0.00179344
0.00179572
0.00179661
0.00179693
0.00179747
0.00179921
0.00180253
0.00180952
0.00181538
0.00183245
0.00180963
0.108777
0.0258647
0.00795653
0.00299422
0.0013172
0.000654123
0.000357105
0.000210097
0.000131249
8.61232e-05
5.8921e-05
4.18706e-05
3.09436e-05
2.40001e-05
1.99404e-05
1.83023e-05
1.89354e-05
2.17592e-05
2.68626e-05
3.44514e-05
4.48097e-05
5.82775e-05
7.52352e-05
9.60909e-05
0.00012127
0.000151205
0.000186331
0.000227076
0.00027385
0.000327041
0.000386977
0.000454101
0.000529853
0.000612318
0.000699516
0.000789347
0.000879778
0.000968973
0.0010554
0.00113793
0.00121585
0.0012889
0.00135722
0.00142128
0.00148174
0.00153938
0.00159495
0.0016491
0.00170231
0.00175488
0.00180686
0.00185815
0.00190847
0.00195744
0.0020046
0.00204944
0.00209146
0.00213015
0.00216509
0.0021959
0.00222231
0.00224417
0.00226146
0.00227432
0.00228302
0.00228801
0.00228985
0.00228925
0.00228703
0.00228409
0.0022814
0.00228
0.002281
0.00228547
0.00229476
0.00230936
0.00233225
0.00235663
0.00240057
0.00238868
0.10878
0.0258521
0.00795287
0.00299407
0.00131925
0.000658315
0.000364323
0.000222412
0.00015242
0.000122156
0.000118396
0.000135799
0.00017226
0.000226944
0.000299454
0.000389384
0.000490776
0.000599807
0.000714303
0.000832404
0.000952468
0.00107299
0.00119255
0.0013098
0.00142344
0.00153233
0.00163544
0.00173197
0.00182138
0.00190337
0.00197792
0.00204423
0.00210207
0.0021519
0.00219446
0.00223106
0.00226343
0.00229333
0.00232234
0.00235172
0.00238235
0.00241476
0.0024492
0.0024857
0.00252413
0.00256424
0.0026057
0.00264813
0.0026911
0.00273415
0.00277673
0.00281828
0.00285821
0.00289588
0.00293069
0.00296206
0.00298949
0.00301257
0.00303106
0.00304484
0.00305402
0.00305887
0.00305987
0.00305767
0.0030531
0.00304715
0.00304095
0.00303572
0.00303281
0.00303367
0.00303981
0.00305286
0.0030746
0.00310683
0.0031519
0.00321097
0.00328934
0.00337684
0.00350356
0.00355484
0.108954
0.0260547
0.00818187
0.0032587
0.00165092
0.00110538
0.000996743
0.00112633
0.00141283
0.0018023
0.002246
0.00270052
0.00313197
0.00351749
0.00384376
0.0041042
0.00428742
0.00440342
0.00446687
0.00449066
0.00448564
0.00446071
0.00442305
0.00437828
0.00433072
0.00428358
0.00423909
0.00419876
0.00416344
0.00413357
0.00410931
0.00409062
0.00407506
0.00406223
0.00405202
0.00404534
0.00404316
0.00404615
0.00405456
0.00406835
0.00408729
0.00411096
0.00413882
0.00417022
0.00420441
0.00424056
0.00427778
0.00431515
0.00435171
0.00438651
0.00441866
0.00444731
0.00447171
0.00449127
0.00450552
0.00451423
0.00451735
0.00451513
0.00450804
0.00449682
0.0044825
0.00446631
0.00444976
0.00443452
0.00442245
0.00441558
0.00441611
0.00442643
0.00444913
0.004487
0.00454318
0.00462118
0.00472515
0.00485965
0.00503091
0.00524356
0.00551128
0.00582076
0.00623068
0.00660557
0.117482
0.035835
0.017473
0.0123551
0.0112239
0.0116239
0.0127044
0.0139657
0.0150231
0.0156391
0.0157569
0.015458
0.0148845
0.0141746
0.0134309
0.0127158
0.0120628
0.0114898
0.0109946
0.0105659
0.0101915
0.00986158
0.00956869
0.00930743
0.00907394
0.00886537
0.00867948
0.00851443
0.00836856
0.00824026
0.00812835
0.00803025
0.00795114
0.00789638
0.0078654
0.00785514
0.0078618
0.00788169
0.00791147
0.00794832
0.00798999
0.0080344
0.00807961
0.00812381
0.00816533
0.00820262
0.00823424
0.00825892
0.00827551
0.00828312
0.00828107
0.00826902
0.00824695
0.00821525
0.00817473
0.00812664
0.00807268
0.00801499
0.00795613
0.00789907
0.00784715
0.00780402
0.00777366
0.00776039
0.00776884
0.00780387
0.00787115
0.00797707
0.00812883
0.00833478
0.00860487
0.00895113
0.00938852
0.00993497
0.0106149
0.0114513
0.0124974
0.0137537
0.0154114
0.0176535
0.223501
0.161832
0.121107
0.0944837
0.0764514
0.0640412
0.0554236
0.0494297
0.0452049
0.0420788
0.0395618
0.0373532
0.0353093
0.0333861
0.0315857
0.0299202
0.0284348
0.0271436
0.0260248
0.025052
0.0242025
0.0234574
0.0228017
0.0222233
0.0217123
0.0212609
0.0208621
0.0205099
0.0201987
0.0199233
0.0196784
0.0194602
0.0192576
0.0190616
0.0188697
0.0186822
0.0184996
0.018322
0.0181492
0.0179803
0.0178147
0.0176516
0.0174909
0.0173321
0.0171754
0.0170208
0.0168689
0.0167205
0.0165765
0.0164383
0.0163076
0.0161867
0.0160782
0.015985
0.0159109
0.0158599
0.0158371
0.0158478
0.0158983
0.0159959
0.0161487
0.0163663
0.0166596
0.0170416
0.0175273
0.0181351
0.0188866
0.0198087
0.0209342
0.0223042
0.0239699
0.025997
0.028468
0.0314959
0.0352111
0.0398571
0.0455367
0.0532204
0.061544
0.0764952
)
;

boundaryField
{
    inlet
    {
        type            fixedValue;
        value           uniform 0.63;
    }
    outlet
    {
        type            zeroGradient;
    }
    fixedWalls
    {
        lowReCorrection 0;
        type            epsilonWallFunction;
        value           nonuniform List<scalar> 
160
(
0.223501
0.161832
0.121107
0.0944837
0.0764514
0.0640412
0.0554236
0.0494297
0.0452049
0.0420788
0.0395618
0.0373532
0.0353093
0.0333861
0.0315857
0.0299202
0.0284348
0.0271436
0.0260248
0.025052
0.0242025
0.0234574
0.0228017
0.0222233
0.0217123
0.0212609
0.0208621
0.0205099
0.0201987
0.0199233
0.0196784
0.0194602
0.0192576
0.0190616
0.0188697
0.0186822
0.0184996
0.018322
0.0181492
0.0179803
0.0178147
0.0176516
0.0174909
0.0173321
0.0171754
0.0170208
0.0168689
0.0167205
0.0165765
0.0164383
0.0163076
0.0161867
0.0160782
0.015985
0.0159109
0.0158599
0.0158371
0.0158478
0.0158983
0.0159959
0.0161487
0.0163663
0.0166596
0.0170416
0.0175273
0.0181351
0.0188866
0.0198087
0.0209342
0.0223042
0.0239699
0.025997
0.028468
0.0314959
0.0352111
0.0398571
0.0455367
0.0532204
0.061544
0.0764952
0.0135126
0.0111846
0.00819036
0.00480195
0.00122615
0.000126162
0.000101801
0.000119348
0.000124301
0.000101981
6.21065e-05
4.02795e-05
4.45258e-05
5.00868e-05
5.68692e-05
6.7416e-05
8.24282e-05
0.000101399
0.000124326
0.000151776
0.000184696
0.000224403
0.00027256
0.000331013
0.000401543
0.00048558
0.000583983
0.000696934
0.000823937
0.00096393
0.00111544
0.00127675
0.0014461
0.00162184
0.00180265
0.00198776
0.0021772
0.00237218
0.00257557
0.00279313
0.00301678
0.00324362
0.00347458
0.00371049
0.00395164
0.00419786
0.0044487
0.00470344
0.00496126
0.00522121
0.00548232
0.00574361
0.00600407
0.00626231
0.00651585
0.00676419
0.00700727
0.0072457
0.0074827
0.0077318
0.00801889
0.00832863
0.00865065
0.00898102
0.00931937
0.00966694
0.010026
0.0103995
0.0107913
0.0112061
0.0116499
0.0121297
0.0126547
0.0132364
0.0138906
0.0146383
0.0155129
0.0165652
0.017877
0.0198456
)
;
    }
    frontAndBack
    {
        type            empty;
    }
}


// ************************************************************************* //
