/*--------------------------------*- C++ -*----------------------------------*\
| =========                 |                                                 |
| \\      /  F ield         | OpenFOAM: The Open Source CFD Toolbox           |
|  \\    /   O peration     | Version:  v1912                                 |
|   \\  /    A nd           | Website:  www.openfoam.com                      |
|    \\/     M anipulation  |                                                 |
\*---------------------------------------------------------------------------*/
FoamFile
{
    version     2.0;
    format      ascii;
    class       volScalarField;
    location    "100";
    object      k;
}
// * * * * * * * * * * * * * * * * * * * * * * * * * * * * * * * * * * * * * //

dimensions      [0 2 -2 0 0 0 0];


internalField   nonuniform List<scalar> 
2000
(
0.0162095
0.0147777
0.0124077
0.00897661
0.0037289
0.000844351
0.00075425
0.000863781
0.000913399
0.000823339
0.000607983
0.00046794
0.000513497
0.000569607
0.000635245
0.000728437
0.00085144
0.000997286
0.00116334
0.00135083
0.0015628
0.00180359
0.00207827
0.00239156
0.00274666
0.00314433
0.00358252
0.00405675
0.00456069
0.00508698
0.00562802
0.00617651
0.00672594
0.00727091
0.00780753
0.00833379
0.00884997
0.00935918
0.00986847
0.010391
0.0109052
0.0114038
0.0118888
0.012362
0.0128237
0.0132729
0.0137085
0.0141285
0.0145311
0.0149144
0.0152765
0.0156157
0.0159303
0.0162183
0.0164758
0.0167028
0.0168996
0.0170681
0.0172135
0.0173564
0.017533
0.0177175
0.0178928
0.0180523
0.0181947
0.0183207
0.0184319
0.0185307
0.01862
0.0187029
0.0187832
0.0188651
0.0189535
0.0190546
0.0191761
0.0193287
0.0195294
0.0198038
0.0201928
0.0209451
0.00683766
0.00499932
0.00452669
0.00410462
0.00326582
0.00245663
0.00191465
0.00166191
0.00483784
0.00360991
0.00203805
0.00151336
0.00152386
0.00153925
0.00151818
0.00162223
0.00183547
0.00211209
0.00243847
0.00281162
0.0032306
0.00369706
0.00421657
0.0047981
0.00545281
0.00619221
0.00702636
0.00796234
0.0090033
0.0101471
0.0113856
0.0127052
0.0140871
0.0155092
0.0169483
0.0183822
0.0197909
0.0211556
0.0224566
0.0236158
0.0246845
0.0256982
0.0266712
0.0276109
0.0285204
0.0293997
0.0302475
0.0310613
0.0318383
0.0325757
0.033271
0.0339225
0.0345314
0.0350954
0.0355895
0.0360224
0.0363969
0.0367145
0.0369773
0.0371893
0.0373535
0.0374701
0.037541
0.0375685
0.0375559
0.0375075
0.0374283
0.0373242
0.0372016
0.0370675
0.0369294
0.0367951
0.0366727
0.0365699
0.0364945
0.0364456
0.0364337
0.0363682
0.036475
0.0361167
0.0051462
0.00248517
0.0018796
0.00175523
0.00163526
0.00147466
0.00132888
0.00124897
0.00178757
0.00215672
0.00262587
0.0040475
0.00587254
0.0050934
0.00389115
0.00338049
0.0034311
0.00368583
0.00405091
0.00451179
0.00506079
0.00569227
0.00640321
0.00719312
0.00806569
0.00902826
0.0100892
0.0112548
0.0125271
0.0139022
0.0153698
0.016913
0.01851
0.0201359
0.0217657
0.0233781
0.0249576
0.0264964
0.0279429
0.0293021
0.0305898
0.0318073
0.0329609
0.0340591
0.035104
0.0360947
0.0370288
0.0379034
0.0387155
0.039462
0.0401402
0.0407481
0.0412841
0.0417466
0.042133
0.042444
0.0426808
0.0428457
0.042941
0.0429703
0.042938
0.0428498
0.0427117
0.0425297
0.0423099
0.0420593
0.0417853
0.0414958
0.0411992
0.0409041
0.0406196
0.0403544
0.0401169
0.0399138
0.0397489
0.0396172
0.0395072
0.0393433
0.0392471
0.0385583
0.00490121
0.00193921
0.00108625
0.000850978
0.000792441
0.00076982
0.000751758
0.000744321
0.000871126
0.00107514
0.00140277
0.00211205
0.00342104
0.00489409
0.00649109
0.00770889
0.00802334
0.00783585
0.0077014
0.00782294
0.00819626
0.00877091
0.00949847
0.0103407
0.0112752
0.0122939
0.0133975
0.0145889
0.0158705
0.0172425
0.018701
0.0202372
0.0218359
0.0234767
0.0251377
0.0268014
0.0284436
0.0300167
0.0315186
0.0329477
0.0342976
0.0355644
0.0367481
0.0378496
0.0388691
0.0398058
0.0406581
0.041424
0.0421018
0.0426897
0.0431866
0.0435922
0.0439067
0.0441311
0.0442673
0.044318
0.0442871
0.0441791
0.0439993
0.0437537
0.0434492
0.0430936
0.0426949
0.0422614
0.0418016
0.0413239
0.0408371
0.0403499
0.0398711
0.0394096
0.038974
0.0385725
0.0382126
0.0378997
0.037636
0.0374156
0.0372263
0.0370054
0.0368496
0.0362073
0.00486817
0.00184217
0.00088916
0.000553993
0.000439073
0.000406952
0.000404683
0.000413865
0.000456021
0.000535763
0.000671909
0.00094158
0.00147844
0.00236101
0.00374092
0.00571022
0.0079523
0.0100407
0.0116828
0.0128046
0.0135466
0.0141271
0.0147105
0.0153748
0.0161414
0.0170075
0.0179654
0.0190087
0.0201344
0.0213414
0.0226288
0.023992
0.0254184
0.0268894
0.0283924
0.0298875
0.0313469
0.0327579
0.0341075
0.035386
0.0365833
0.0376908
0.0387031
0.0396165
0.0404288
0.0411382
0.0417438
0.0422447
0.0426408
0.0429327
0.0431216
0.0432097
0.0432004
0.0430978
0.0429069
0.0426338
0.0422854
0.0418691
0.0413932
0.0408662
0.040297
0.0396949
0.0390693
0.0384292
0.0377838
0.0371415
0.0365108
0.0358998
0.0353161
0.0347672
0.0342604
0.0338023
0.0333989
0.033055
0.0327727
0.0325484
0.0323753
0.0322059
0.0321293
0.0316978
0.00486377
0.00182804
0.000849448
0.000474218
0.000317487
0.000253133
0.000231572
0.000230721
0.00024627
0.000278364
0.000332346
0.000429635
0.00061546
0.00094566
0.00151404
0.00246035
0.00385326
0.00570895
0.00797384
0.0104889
0.0130239
0.0153596
0.0173645
0.0190194
0.020386
0.0215563
0.022615
0.0236245
0.0246255
0.0256436
0.0266944
0.0277834
0.0288999
0.0300264
0.031138
0.0322318
0.0332984
0.0343263
0.0353027
0.0362154
0.0370526
0.0378043
0.0384624
0.0390209
0.0394759
0.0398248
0.0400667
0.0402017
0.0402314
0.0401583
0.0399863
0.0397204
0.0393667
0.0389322
0.038425
0.0378539
0.037228
0.0365571
0.035851
0.0351196
0.0343726
0.0336194
0.0328691
0.0321299
0.0314098
0.0307159
0.0300547
0.029432
0.0288535
0.0283241
0.0278486
0.0274316
0.0270773
0.0267896
0.0265709
0.0264206
0.0263377
0.0262886
0.0263578
0.026197
0.00486318
0.00182655
0.000843156
0.000456548
0.000283043
0.000199645
0.000159902
0.000143578
0.000142043
0.000151872
0.00017287
0.000209891
0.000275712
0.000390078
0.000585935
0.000917973
0.00143288
0.00218285
0.00322529
0.00460743
0.00635142
0.00843877
0.0108008
0.013323
0.0158663
0.0182979
0.0205202
0.0224852
0.0241923
0.0256734
0.0269751
0.0281413
0.0291657
0.030076
0.0309012
0.0316567
0.032349
0.0329793
0.0335454
0.0340426
0.0344653
0.0348076
0.0350635
0.0352286
0.0352995
0.0352747
0.0351541
0.0349394
0.034634
0.0342426
0.0337713
0.0332275
0.0326193
0.031956
0.0312471
0.0305026
0.0297326
0.0289471
0.0281557
0.0273677
0.0265915
0.0258349
0.0251049
0.0244077
0.0237485
0.023132
0.0225618
0.0220414
0.0215734
0.0211605
0.0208052
0.0205098
0.0202772
0.0201099
0.0200112
0.0199824
0.0200277
0.020125
0.0203534
0.0204595
0.00486311
0.00182659
0.000842593
0.000453361
0.000274734
0.000183897
0.000135034
0.00010873
9.60702e-05
9.28373e-05
9.72937e-05
0.00010984
0.000133634
0.000174729
0.000243304
0.000356063
0.000526665
0.000772108
0.00111464
0.00158006
0.0021967
0.00299331
0.00399568
0.00522217
0.00667811
0.00835029
0.0102036
0.0121821
0.0142154
0.0162292
0.0181558
0.0199436
0.0215969
0.0229925
0.0241303
0.0250439
0.0257711
0.0263448
0.0267896
0.0271222
0.0273524
0.0274855
0.0275246
0.0274719
0.0273296
0.027101
0.0267903
0.026403
0.0259455
0.0254254
0.0248508
0.0242305
0.0235738
0.0228902
0.0221888
0.021479
0.0207693
0.020068
0.0193824
0.0187193
0.0180842
0.0174823
0.0169176
0.0163935
0.0159127
0.0154771
0.0150885
0.0147481
0.014457
0.0142162
0.0140267
0.0138901
0.0138081
0.0137831
0.0138186
0.0139178
0.0140883
0.014318
0.0146782
0.0150019
0.0048631
0.00182671
0.000842736
0.000452989
0.000273017
0.000179807
0.000127472
9.66695e-05
7.84357e-05
6.83445e-05
6.41979e-05
6.51706e-05
7.1657e-05
8.52924e-05
0.000109215
0.000148606
0.000207042
0.000288638
0.000398622
0.000542902
0.000728183
0.000961994
0.00125263
0.00160897
0.00204005
0.00255428
0.00315829
0.00385559
0.00464519
0.00552058
0.00646927
0.00747323
0.00851563
0.00967191
0.0108342
0.0119472
0.0129652
0.0138565
0.0146033
0.0151999
0.0156497
0.0159617
0.0161478
0.0162211
0.0161944
0.0160799
0.0158889
0.0156321
0.0153194
0.0149604
0.0145642
0.0141394
0.0136945
0.0132372
0.0127749
0.0123144
0.0118616
0.0114218
0.0109997
0.0105992
0.0102236
0.00987552
0.00955712
0.00927015
0.00901598
0.00879574
0.00861037
0.00846071
0.00834761
0.00827202
0.0082351
0.00823834
0.00828377
0.00837411
0.00851331
0.00870587
0.00896144
0.00927585
0.00971022
0.0101714
0.00486309
0.00182676
0.000842851
0.000453034
0.000272746
0.000178859
0.000125383
9.28958e-05
7.23555e-05
5.92247e-05
5.11171e-05
4.68049e-05
4.58232e-05
4.83317e-05
5.51258e-05
6.77542e-05
8.72175e-05
0.00011458
0.000151094
0.000197949
0.000256239
0.000326942
0.000410919
0.000508906
0.000621473
0.000748932
0.00089118
0.0010475
0.00121634
0.00139516
0.00158024
0.00176671
0.00194906
0.00212578
0.00235542
0.00263295
0.00295222
0.00330275
0.00367088
0.0040414
0.00439926
0.00473093
0.00502546
0.00527501
0.00547492
0.00562348
0.0057215
0.00577176
0.00577847
0.00574673
0.00568214
0.00559044
0.00547724
0.0053479
0.00520734
0.00506005
0.00491006
0.0047609
0.00461568
0.00447712
0.00434757
0.00422907
0.00412345
0.00403229
0.00395707
0.00389917
0.00385994
0.00384075
0.00384308
0.00386854
0.00391899
0.00399662
0.0041041
0.00424475
0.00442304
0.00464428
0.00491854
0.00524787
0.00568077
0.00618198
0.00486309
0.00182673
0.000842853
0.000453064
0.000272725
0.000178667
0.000124851
9.17998e-05
7.04122e-05
5.60845e-05
4.63428e-05
3.98123e-05
3.57483e-05
3.38218e-05
3.40348e-05
3.67077e-05
4.20511e-05
5.02621e-05
6.16044e-05
7.63122e-05
9.45495e-05
0.00011638
0.000141747
0.000170454
0.000202151
0.00023631
0.000272191
0.000308808
0.00034489
0.000378875
0.000408907
0.000432885
0.000448568
0.000453848
0.000457581
0.000464831
0.000476933
0.000495143
0.000520462
0.00055346
0.000594145
0.000641898
0.000695505
0.000753256
0.000813112
0.000872901
0.000930502
0.000984015
0.00103188
0.00107295
0.00110654
0.00113239
0.00115062
0.00116172
0.00116644
0.00116572
0.00116064
0.00115236
0.00114207
0.00113096
0.00112018
0.00111087
0.00110412
0.001101
0.00110258
0.00110999
0.00112439
0.00114708
0.00117951
0.00122339
0.00128072
0.00135395
0.00144603
0.00156067
0.00170261
0.0018777
0.00209542
0.00236236
0.00271336
0.00315172
0.00486309
0.00182662
0.000842745
0.000453011
0.000272698
0.000178618
0.000124717
9.14959e-05
6.98249e-05
5.50654e-05
4.47018e-05
3.73012e-05
3.2024e-05
2.83836e-05
2.61272e-05
2.51794e-05
2.55211e-05
2.70882e-05
2.98529e-05
3.37983e-05
3.88955e-05
4.50873e-05
5.22777e-05
6.03249e-05
6.9036e-05
7.81628e-05
8.73967e-05
9.63684e-05
0.000104652
0.000111778
0.000117262
0.000120641
0.000121531
0.000119699
0.000117019
0.000114051
0.000110851
0.000107487
0.000104044
0.000100619
9.73169e-05
9.4249e-05
9.15241e-05
8.92411e-05
8.74803e-05
8.62961e-05
8.57112e-05
8.57145e-05
8.62631e-05
8.72877e-05
8.87011e-05
9.04086e-05
9.23184e-05
9.43523e-05
9.64532e-05
9.85922e-05
0.000100772
0.000103029
0.000105434
0.000108087
0.000111123
0.000114702
0.000119012
0.00012427
0.000130722
0.000138653
0.0001484
0.000160366
0.00017506
0.000193136
0.000215468
0.000243238
0.000278089
0.000322324
0.000379253
0.000453549
0.000552615
0.000685351
0.000874825
0.00114323
0.00486309
0.00182642
0.00084254
0.000452876
0.000272618
0.000178562
0.000124658
9.13995e-05
6.96465e-05
5.47455e-05
4.4163e-05
3.6442e-05
3.07087e-05
2.64247e-05
2.32567e-05
2.10076e-05
1.96011e-05
1.89053e-05
1.88156e-05
1.92565e-05
2.01645e-05
2.14781e-05
2.31302e-05
2.50454e-05
2.71373e-05
2.93084e-05
3.14496e-05
3.34426e-05
3.51636e-05
3.64898e-05
3.73095e-05
3.75332e-05
3.71071e-05
3.60105e-05
3.47988e-05
3.3522e-05
3.21884e-05
3.08075e-05
2.93899e-05
2.79472e-05
2.64915e-05
2.50348e-05
2.35891e-05
2.21661e-05
2.07766e-05
1.9431e-05
1.81393e-05
1.69109e-05
1.5756e-05
1.46861e-05
1.3715e-05
1.28612e-05
1.21494e-05
1.16128e-05
1.12951e-05
1.12524e-05
1.15544e-05
1.22845e-05
1.3539e-05
1.54244e-05
1.80543e-05
2.15445e-05
2.60083e-05
3.15515e-05
3.82681e-05
4.62381e-05
5.55265e-05
6.61863e-05
7.82644e-05
9.18108e-05
0.000106893
0.000123618
0.000142157
0.000162787
0.000185957
0.00021236
0.000243247
0.00028005
0.000328615
0.000393031
0.00486309
0.00182615
0.000842249
0.000452673
0.000272484
0.000178472
0.000124591
9.13398e-05
6.95737e-05
5.46356e-05
4.3985e-05
3.61556e-05
3.0261e-05
2.5745e-05
2.22487e-05
1.95376e-05
1.75237e-05
1.60597e-05
1.50234e-05
1.43284e-05
1.39098e-05
1.37146e-05
1.36964e-05
1.38124e-05
1.40209e-05
1.42809e-05
1.45517e-05
1.47931e-05
1.49672e-05
1.50399e-05
1.49833e-05
1.47784e-05
1.44171e-05
1.3906e-05
1.33902e-05
1.28704e-05
1.2348e-05
1.18249e-05
1.13031e-05
1.07851e-05
1.02733e-05
9.77024e-06
9.27878e-06
8.8021e-06
8.34429e-06
7.9111e-06
7.51115e-06
7.15764e-06
6.87072e-06
6.68037e-06
6.62989e-06
6.7796e-06
7.21046e-06
8.02731e-06
9.36086e-06
1.13682e-05
1.42315e-05
1.81538e-05
2.33535e-05
3.00566e-05
3.84874e-05
4.88598e-05
6.13687e-05
7.61841e-05
9.34474e-05
0.000113272
0.000135746
0.00016094
0.000188916
0.000219734
0.000253463
0.000290182
0.000329979
0.000372932
0.000419054
0.000468169
0.000519768
0.000571708
0.000622689
0.000657508
0.00486309
0.00182578
0.000841882
0.000452412
0.000272305
0.000178346
0.000124501
9.12717e-05
6.95162e-05
5.4577e-05
4.39122e-05
3.60524e-05
3.01068e-05
2.5513e-05
2.1904e-05
1.90338e-05
1.68126e-05
1.50905e-05
1.37418e-05
1.26792e-05
1.18397e-05
1.11755e-05
1.06493e-05
1.02306e-05
9.89333e-06
9.6151e-06
9.37602e-06
9.15853e-06
8.9473e-06
8.72953e-06
8.49525e-06
8.23772e-06
7.95361e-06
7.64893e-06
7.35609e-06
7.07385e-06
6.80137e-06
6.53811e-06
6.28384e-06
6.03874e-06
5.80366e-06
5.58064e-06
5.3739e-06
5.19136e-06
5.04702e-06
4.96418e-06
4.97976e-06
5.14954e-06
5.55417e-06
6.30566e-06
7.55349e-06
9.48983e-06
1.23528e-05
1.64271e-05
2.20416e-05
2.95628e-05
3.93854e-05
5.19202e-05
6.75797e-05
8.67641e-05
0.000109849
0.000137173
0.000169034
0.000205679
0.000247299
0.000294025
0.000345919
0.000402959
0.000465028
0.0005319
0.000603227
0.000678531
0.000757198
0.000838475
0.000921434
0.00100488
0.00108731
0.00116514
0.00123671
0.00128088
0.00486309
0.00182532
0.000841448
0.000452104
0.000272087
0.00017819
0.000124387
9.11867e-05
6.94501e-05
5.45224e-05
4.3862e-05
3.59993e-05
3.00423e-05
2.54267e-05
2.1783e-05
1.88616e-05
1.65728e-05
1.47667e-05
1.33172e-05
1.21375e-05
1.11657e-05
1.03568e-05
9.67639e-06
9.0983e-06
8.60167e-06
8.16968e-06
7.7886e-06
7.44706e-06
7.1357e-06
6.84691e-06
6.57468e-06
6.31452e-06
6.06332e-06
5.82269e-06
5.59815e-06
5.38798e-06
5.19092e-06
5.00655e-06
4.83594e-06
4.68297e-06
4.55661e-06
4.47425e-06
4.46663e-06
4.58425e-06
4.90541e-06
5.54556e-06
6.66743e-06
8.49111e-06
1.13029e-05
1.54618e-05
2.14024e-05
2.96332e-05
4.07293e-05
5.53208e-05
7.40757e-05
9.768e-05
0.000126816
0.000162139
0.000204254
0.000253689
0.000310859
0.000376033
0.00044928
0.000530425
0.000619
0.000714215
0.00081496
0.000919838
0.00102723
0.00113541
0.00124265
0.00134735
0.00144813
0.00154388
0.00163381
0.00171718
0.00179373
0.00186023
0.00191913
0.00194709
0.00486309
0.00182477
0.000840956
0.000451756
0.000271839
0.00017801
0.000124254
9.10854e-05
6.93716e-05
5.44599e-05
4.38104e-05
3.59542e-05
2.99995e-05
2.53817e-05
2.17306e-05
1.87957e-05
1.64875e-05
1.46562e-05
1.3176e-05
1.19606e-05
1.09489e-05
1.00964e-05
9.37022e-06
8.74549e-06
8.20293e-06
7.72745e-06
7.30705e-06
6.93208e-06
6.59475e-06
6.28872e-06
6.0089e-06
5.7512e-06
5.5124e-06
5.29164e-06
5.08876e-06
4.90418e-06
4.74269e-06
4.61728e-06
4.55508e-06
4.60566e-06
4.8517e-06
5.42187e-06
6.50533e-06
8.36674e-06
1.13604e-05
1.59418e-05
2.26749e-05
3.22337e-05
4.53963e-05
6.30319e-05
8.60798e-05
0.000115523
0.000152354
0.000197537
0.000251962
0.000316389
0.000391377
0.000477205
0.000573782
0.000680566
0.000796509
0.000920049
0.00104916
0.00118148
0.00131446
0.0014456
0.00157261
0.00169357
0.00180702
0.00191199
0.00200797
0.00209486
0.00217286
0.00224236
0.00230398
0.002358
0.00240564
0.0024434
0.00247832
0.00247753
0.0048631
0.00182412
0.000840417
0.000451376
0.000271566
0.00017781
0.000124104
9.09705e-05
6.92816e-05
5.4388e-05
4.37518e-05
3.59055e-05
2.99577e-05
2.53442e-05
2.16949e-05
1.87594e-05
1.64479e-05
1.4611e-05
1.31233e-05
1.18985e-05
1.08759e-05
1.00114e-05
9.27266e-06
8.6351e-06
8.08002e-06
7.59282e-06
7.16202e-06
6.77846e-06
6.43474e-06
6.12488e-06
5.84401e-06
5.58815e-06
5.35525e-06
5.15528e-06
5.01553e-06
4.99544e-06
5.2036e-06
5.81745e-06
7.10461e-06
9.44379e-06
1.33427e-05
1.94501e-05
2.8561e-05
4.16111e-05
5.96613e-05
8.38712e-05
0.000115462
0.000155669
0.000205691
0.000266616
0.000339355
0.000424543
0.000522445
0.000632855
0.000755008
0.000887537
0.00102849
0.00117543
0.00132557
0.00147605
0.0016241
0.0017673
0.00190366
0.00203173
0.00215052
0.0022595
0.00235842
0.0024473
0.00252632
0.00259578
0.00265607
0.00270771
0.00275127
0.0027874
0.00281695
0.00284027
0.00285933
0.00286983
0.00288323
0.00285732
0.0048631
0.00182338
0.000839842
0.000450972
0.000271274
0.000177594
0.000123941
9.08448e-05
6.91823e-05
5.4308e-05
4.36863e-05
3.58511e-05
2.99119e-05
2.5305e-05
2.16606e-05
1.87285e-05
1.64191e-05
1.45832e-05
1.30955e-05
1.18701e-05
1.08463e-05
9.98059e-06
9.24072e-06
8.60272e-06
8.0485e-06
7.56438e-06
7.14025e-06
6.76906e-06
6.44692e-06
6.17369e-06
5.95454e-06
5.80564e-06
6.03659e-06
7.07174e-06
9.44604e-06
1.38869e-05
2.13191e-05
3.28513e-05
4.97466e-05
7.33755e-05
0.000105156
0.000146484
0.000198655
0.000262789
0.000339742
0.000430026
0.000533721
0.000650407
0.000779111
0.000918297
0.00106591
0.00121949
0.00137633
0.00153369
0.00168902
0.00184014
0.00198532
0.00212333
0.00225341
0.00237512
0.00248823
0.00259264
0.00268826
0.00277502
0.00285284
0.00292168
0.00298156
0.00303259
0.00307501
0.00310917
0.00313555
0.00315472
0.00316738
0.00317424
0.00317626
0.00317375
0.00316925
0.00315777
0.00315431
0.00310974
0.0048631
0.00182257
0.000839241
0.00045055
0.000270968
0.000177368
0.000123769
9.07106e-05
6.90754e-05
5.42216e-05
4.3616e-05
3.57941e-05
2.98668e-05
2.52722e-05
2.16425e-05
1.8731e-05
1.64521e-05
1.4663e-05
1.3249e-05
1.21411e-05
1.13054e-05
1.07401e-05
1.04762e-05
1.05824e-05
1.11739e-05
1.24231e-05
1.45743e-05
1.79622e-05
2.3034e-05
3.03765e-05
4.0747e-05
5.60572e-05
7.99416e-05
0.000113857
0.00015929
0.000217458
0.00028923
0.000375041
0.00047483
0.000588012
0.00071347
0.000849583
0.000994303
0.00114525
0.00129988
0.00145561
0.00161004
0.00176112
0.00190722
0.00204726
0.00218065
0.00230723
0.00242716
0.00254071
0.0026482
0.00274985
0.00284574
0.00293577
0.00301971
0.00309724
0.00316799
0.00323161
0.00328779
0.00333629
0.003377
0.00340991
0.00343513
0.00345289
0.00346356
0.0034676
0.00346559
0.00345815
0.00344602
0.00342991
0.00341083
0.00338898
0.00336721
0.00334016
0.0033248
0.00326808
0.0048631
0.0018217
0.000838632
0.000450121
0.000270664
0.000177153
0.000123624
9.06271e-05
6.90643e-05
5.43166e-05
4.38888e-05
3.63831e-05
3.10308e-05
2.74821e-05
2.57272e-05
2.60899e-05
2.89916e-05
3.48783e-05
4.43431e-05
5.80848e-05
7.68816e-05
0.000101569
0.000133019
0.000172119
0.000219748
0.000276757
0.000343949
0.000422057
0.000511724
0.000613469
0.000727635
0.000854126
0.000992896
0.00114072
0.00129423
0.00144998
0.00160473
0.00175565
0.00190052
0.00203779
0.00216662
0.00228681
0.00239876
0.00250324
0.00260128
0.00269396
0.00278231
0.00286715
0.00294908
0.00302844
0.00310532
0.00317965
0.00325118
0.00331957
0.00338444
0.00344535
0.00350183
0.00355344
0.00359975
0.00364034
0.00367486
0.00370302
0.00372465
0.00373967
0.00374811
0.00375015
0.00374608
0.00373629
0.00372127
0.00370159
0.00367787
0.00365078
0.00362103
0.00358927
0.00355647
0.0035227
0.00349087
0.00345574
0.00343386
0.00337225
0.0048633
0.00182114
0.000838572
0.00045048
0.00027158
0.000178993
0.000127183
9.75201e-05
8.23005e-05
7.89837e-05
8.77239e-05
0.000110052
0.000148093
0.000204111
0.000280227
0.000378194
0.000493133
0.000621554
0.000761256
0.000910039
0.00106572
0.00122613
0.00138914
0.00155267
0.00171474
0.00187355
0.00202751
0.00217535
0.00231613
0.00244924
0.00257444
0.00269059
0.00279516
0.00288873
0.00297215
0.00304681
0.00311438
0.00317658
0.00323486
0.0032904
0.00334401
0.00339622
0.00344733
0.00349746
0.00354666
0.0035949
0.00364211
0.00368818
0.00373297
0.00377626
0.00381779
0.00385722
0.00389416
0.00392816
0.00395874
0.00398545
0.00400781
0.00402544
0.004038
0.00404523
0.00404701
0.00404331
0.00403421
0.00401992
0.00400074
0.00397709
0.00394945
0.00391838
0.00388446
0.00384833
0.00381062
0.00377196
0.00373303
0.00369439
0.00365695
0.00362072
0.00358846
0.0035558
0.00353503
0.00348136
0.00487719
0.00184536
0.000876223
0.000508283
0.000362796
0.000325633
0.000362549
0.000465341
0.000630877
0.000852119
0.00111634
0.00140753
0.00170977
0.00200942
0.00229591
0.00256143
0.00279023
0.00298182
0.0031411
0.00327319
0.00338303
0.00347512
0.00355341
0.00362129
0.00368153
0.00373634
0.00378737
0.00383582
0.00388249
0.00392787
0.00397228
0.00401581
0.00405477
0.00408824
0.00411661
0.00414115
0.00416325
0.00418405
0.00420437
0.00422475
0.00424552
0.00426681
0.00428857
0.00431064
0.00433274
0.00435451
0.00437553
0.00439532
0.0044134
0.00442924
0.00444236
0.00445227
0.00445851
0.00446067
0.00445843
0.00445151
0.00443974
0.00442308
0.00440158
0.00437542
0.00434488
0.00431038
0.0042724
0.00423152
0.00418837
0.00414361
0.00409796
0.00405212
0.0040068
0.00396267
0.00392042
0.00388071
0.00384423
0.0038116
0.00378382
0.0037611
0.00374606
0.00373645
0.00373306
0.00372629
0.00556866
0.00287831
0.00213729
0.00201038
0.00218356
0.00254461
0.00303221
0.00357526
0.00409237
0.00451809
0.00482304
0.00501296
0.00511419
0.00515823
0.00517175
0.00517312
0.00516663
0.00515875
0.00515247
0.00514758
0.00514305
0.00513809
0.0051323
0.00512571
0.00511858
0.00511133
0.0051044
0.00509814
0.00509282
0.00508857
0.00508559
0.00508327
0.00508197
0.00508418
0.00509144
0.00510361
0.00511977
0.00513871
0.00515923
0.00518026
0.00520099
0.00522064
0.00523846
0.00525372
0.00526574
0.00527388
0.00527753
0.00527613
0.00526919
0.0052563
0.00523713
0.00521149
0.0051793
0.00514061
0.00509566
0.0050448
0.00498854
0.00492756
0.00486263
0.00479466
0.00472462
0.00465357
0.00458258
0.00451274
0.00444516
0.00438083
0.00432082
0.00426622
0.00421804
0.00417726
0.0041449
0.00412201
0.00410977
0.00410927
0.00412238
0.00414901
0.00419494
0.00425146
0.00433282
0.00450328
0.0142815
0.0119092
0.0101449
0.00887943
0.00795789
0.00729385
0.00682762
0.00651624
0.00631974
0.00619752
0.00611386
0.00604388
0.00597475
0.00590267
0.0058287
0.00575535
0.00568714
0.00562547
0.00557012
0.0055204
0.00547553
0.00543475
0.00539741
0.00536303
0.00533123
0.00530169
0.00527412
0.00524822
0.00522364
0.00519999
0.0051768
0.00515375
0.00512922
0.00510184
0.00507138
0.00503809
0.00500225
0.00496408
0.00492366
0.00488103
0.0048362
0.00478919
0.00474007
0.00468892
0.00463586
0.00458104
0.00452465
0.00446691
0.00440811
0.00434857
0.00428867
0.00422884
0.00416958
0.00411145
0.00405506
0.00400107
0.00395023
0.00390332
0.00386118
0.0038247
0.00379482
0.00377256
0.00375898
0.00375521
0.00376247
0.00378211
0.00381557
0.00386449
0.0039307
0.00401633
0.0041238
0.00425602
0.00441628
0.0046091
0.00483833
0.00511494
0.00543369
0.00585192
0.00624815
0.00698806
)
;

boundaryField
{
    inlet
    {
        type            fixedValue;
        value           uniform 0.017;
    }
    outlet
    {
        type            zeroGradient;
    }
    fixedWalls
    {
        type            kqRWallFunction;
        value           nonuniform List<scalar> 
160
(
0.0142815
0.0119092
0.0101449
0.00887943
0.00795789
0.00729385
0.00682762
0.00651624
0.00631974
0.00619752
0.00611386
0.00604388
0.00597475
0.00590267
0.0058287
0.00575535
0.00568714
0.00562547
0.00557012
0.0055204
0.00547553
0.00543475
0.00539741
0.00536303
0.00533123
0.00530169
0.00527412
0.00524822
0.00522364
0.00519999
0.0051768
0.00515375
0.00512922
0.00510184
0.00507138
0.00503809
0.00500225
0.00496408
0.00492366
0.00488103
0.0048362
0.00478919
0.00474007
0.00468892
0.00463586
0.00458104
0.00452465
0.00446691
0.00440811
0.00434857
0.00428867
0.00422884
0.00416958
0.00411145
0.00405506
0.00400107
0.00395023
0.00390332
0.00386118
0.0038247
0.00379482
0.00377256
0.00375898
0.00375521
0.00376247
0.00378211
0.00381557
0.00386449
0.0039307
0.00401633
0.0041238
0.00425602
0.00441628
0.0046091
0.00483833
0.00511494
0.00543369
0.00585192
0.00624815
0.00698806
0.0162095
0.0147777
0.0124077
0.00897661
0.0037289
0.000844351
0.00075425
0.000863781
0.000913399
0.000823339
0.000607983
0.00046794
0.000513497
0.000569607
0.000635245
0.000728437
0.00085144
0.000997286
0.00116334
0.00135083
0.0015628
0.00180359
0.00207827
0.00239156
0.00274666
0.00314433
0.00358252
0.00405675
0.00456069
0.00508698
0.00562802
0.00617651
0.00672594
0.00727091
0.00780753
0.00833379
0.00884997
0.00935918
0.00986847
0.010391
0.0109052
0.0114038
0.0118888
0.012362
0.0128237
0.0132729
0.0137085
0.0141285
0.0145311
0.0149144
0.0152765
0.0156157
0.0159303
0.0162183
0.0164758
0.0167028
0.0168996
0.0170681
0.0172135
0.0173564
0.017533
0.0177175
0.0178928
0.0180523
0.0181947
0.0183207
0.0184319
0.0185307
0.01862
0.0187029
0.0187832
0.0188651
0.0189535
0.0190546
0.0191761
0.0193287
0.0195294
0.0198038
0.0201928
0.0209451
)
;
    }
    frontAndBack
    {
        type            empty;
    }
}


// ************************************************************************* //
