/*--------------------------------*- C++ -*----------------------------------*\
| =========                 |                                                 |
| \\      /  F ield         | OpenFOAM: The Open Source CFD Toolbox           |
|  \\    /   O peration     | Version:  v1912                                 |
|   \\  /    A nd           | Website:  www.openfoam.com                      |
|    \\/     M anipulation  |                                                 |
\*---------------------------------------------------------------------------*/
FoamFile
{
    version     2.0;
    format      ascii;
    class       volScalarField;
    location    "100";
    object      nut;
}
// * * * * * * * * * * * * * * * * * * * * * * * * * * * * * * * * * * * * * //

dimensions      [0 2 -1 0 0 0 0];


internalField   nonuniform List<scalar> 
2000
(
0.00175001
0.00175725
0.0016917
0.00151025
0.00102061
0.000508583
0.000502946
0.000562646
0.000604072
0.000598248
0.000535659
0.000489258
0.000532975
0.000583002
0.000638628
0.000708376
0.000791543
0.000882768
0.0009797
0.00108204
0.00119013
0.00130464
0.00142621
0.0015551
0.00169091
0.00183247
0.00197797
0.00212524
0.00227201
0.00241611
0.00255569
0.00268919
0.00281546
0.00293367
0.00304339
0.00314459
0.00323763
0.00332331
0.00340305
0.0034791
0.00354787
0.00360836
0.00366116
0.00370674
0.00374533
0.00377701
0.00380178
0.0038196
0.00383044
0.00383428
0.00383113
0.00382102
0.00380405
0.00378024
0.00374944
0.00371196
0.00366816
0.00361852
0.00356388
0.00350654
0.00345019
0.00339214
0.00333081
0.00326575
0.00319703
0.0031249
0.00304969
0.00297178
0.00289154
0.00280935
0.00272559
0.00264064
0.00255488
0.0024687
0.00238257
0.00229698
0.00221272
0.00213081
0.00205277
0.00198949
3.44182e-05
5.60375e-05
9.95467e-05
0.000148322
0.000162417
0.000155934
0.000159673
0.000206711
0.00135221
0.00152553
0.00109221
0.000912565
0.00115336
0.00145177
0.00168538
0.00196515
0.00231419
0.00270656
0.00311911
0.0035414
0.00396785
0.00439544
0.00482598
0.005267
0.00573056
0.00623076
0.00678097
0.00739158
0.00806873
0.00881254
0.00961667
0.0104689
0.0113521
0.0122457
0.0131275
0.0139756
0.0147698
0.0154912
0.0161215
0.0165882
0.0169562
0.0172708
0.0175482
0.0177952
0.0180155
0.0182108
0.0183821
0.0185297
0.0186536
0.0187539
0.0188303
0.0188824
0.0189087
0.0189072
0.0188838
0.0188366
0.0187657
0.0186713
0.0185532
0.0184107
0.0182425
0.0180501
0.0178354
0.0176
0.0173455
0.0170735
0.0167857
0.0164835
0.0161687
0.0158431
0.0155083
0.0151661
0.0148182
0.0144662
0.0141115
0.013754
0.0133951
0.0130217
0.0126789
0.0124184
2.12863e-05
1.8162e-05
2.51297e-05
4.00168e-05
5.55749e-05
6.79293e-05
7.92326e-05
9.49356e-05
0.000202743
0.000303618
0.00044315
0.000913035
0.00190372
0.00227162
0.00205287
0.00202836
0.00235125
0.00284156
0.00339639
0.00399191
0.00462648
0.00529604
0.00599451
0.00671883
0.00747091
0.00825668
0.00908378
0.00995894
0.0108855
0.0118615
0.0128783
0.0139209
0.0149686
0.0159964
0.016977
0.0178848
0.0186985
0.0194014
0.0199956
0.0204973
0.0209274
0.0213013
0.0216295
0.0219185
0.0221725
0.0223936
0.0225834
0.0227429
0.0228727
0.0229733
0.0230453
0.0230889
0.0231045
0.0230925
0.0230539
0.0229894
0.0228999
0.0227865
0.02265
0.0224913
0.0223115
0.0221119
0.0218942
0.0216599
0.0214105
0.0211477
0.0208731
0.0205884
0.0202954
0.0199957
0.0196909
0.0193828
0.0190724
0.0187608
0.0184478
0.0181316
0.0178086
0.0174661
0.0171312
0.0167537
1.97876e-05
1.26287e-05
1.14633e-05
1.46571e-05
2.10173e-05
2.8909e-05
3.74901e-05
4.73804e-05
7.36727e-05
0.000114693
0.000179081
0.000318662
0.00060815
0.000986068
0.00148765
0.00209282
0.00262557
0.0030314
0.00339634
0.00381774
0.00434368
0.00497477
0.00568817
0.00646025
0.00727674
0.00813185
0.00902385
0.00995162
0.010913
0.0119036
0.012916
0.0139389
0.0149555
0.0159432
0.0168716
0.017711
0.0184476
0.0191082
0.019698
0.020223
0.0206886
0.0210998
0.0214616
0.021778
0.0220523
0.0222867
0.022483
0.0226428
0.0227671
0.0228571
0.0229139
0.0229388
0.022933
0.0228977
0.0228346
0.0227452
0.0226312
0.0224946
0.0223371
0.0221607
0.0219674
0.0217595
0.021539
0.021308
0.0210687
0.0208228
0.0205725
0.0203195
0.0200655
0.0198123
0.0195613
0.0193138
0.0190708
0.0188323
0.0185977
0.0183639
0.0181263
0.0178713
0.0176174
0.0172806
1.95963e-05
1.17281e-05
8.64709e-06
8.13637e-06
9.64673e-06
1.2882e-05
1.74841e-05
2.32672e-05
3.31215e-05
4.92109e-05
7.55104e-05
0.000126163
0.000229669
0.000405054
0.000686829
0.00111239
0.00165412
0.0022618
0.00288804
0.00349854
0.00408844
0.00467563
0.00528154
0.0059209
0.00660098
0.00732366
0.00808725
0.00888794
0.00972095
0.010581
0.0114616
0.0123542
0.0132432
0.0141058
0.0148959
0.0156273
0.0163119
0.0169472
0.0175313
0.018064
0.018545
0.0189749
0.0193548
0.0196861
0.0199706
0.0202101
0.020406
0.0205601
0.0206738
0.020749
0.0207873
0.0207906
0.0207611
0.0207009
0.0206124
0.020498
0.0203604
0.0202023
0.0200264
0.0198354
0.0196323
0.0194197
0.0192003
0.0189768
0.0187515
0.0185268
0.0183048
0.0180873
0.0178763
0.0176732
0.0174794
0.0172961
0.017124
0.0169633
0.0168133
0.0166714
0.0165338
0.0163883
0.0162511
0.0160324
1.95712e-05
1.15908e-05
8.09466e-06
6.55313e-06
6.2368e-06
6.97259e-06
8.73936e-06
1.15276e-05
1.59081e-05
2.27827e-05
3.37239e-05
5.30046e-05
9.00895e-05
0.00015711
0.000273039
0.000466829
0.000755752
0.0011504
0.00165197
0.00224508
0.00290067
0.00358559
0.00427378
0.00495274
0.00562214
0.00628784
0.00695635
0.00763221
0.00831775
0.00901374
0.00971947
0.0104309
0.0111276
0.011793
0.0124375
0.0130571
0.0136481
0.0142065
0.0147289
0.015212
0.0156534
0.016051
0.0164036
0.0167107
0.0169724
0.017189
0.0173617
0.0174915
0.0175803
0.0176297
0.0176419
0.0176192
0.0175644
0.0174801
0.0173695
0.0172356
0.0170818
0.0169112
0.0167273
0.0165333
0.0163324
0.0161277
0.0159222
0.0157186
0.0155194
0.015327
0.0151432
0.01497
0.014809
0.0146615
0.0145288
0.0144118
0.0143112
0.0142275
0.0141603
0.0141084
0.0140695
0.0140341
0.0140192
0.0139433
1.95678e-05
1.1573e-05
7.99816e-06
6.20079e-06
5.31895e-06
5.07703e-06
5.42484e-06
6.40283e-06
8.19366e-06
1.11389e-05
1.58361e-05
2.36475e-05
3.76086e-05
6.25556e-05
0.000106023
0.000179887
0.000294083
0.000460092
0.000691327
0.00100023
0.00139542
0.0018784
0.0024414
0.00306766
0.00373457
0.00441864
0.00510036
0.00576722
0.00641397
0.00704068
0.00764997
0.00824356
0.00881236
0.00935801
0.00988103
0.0103806
0.0108555
0.011304
0.0117241
0.0121137
0.0124705
0.0127922
0.013077
0.0133232
0.01353
0.013697
0.0138246
0.0139136
0.0139653
0.0139815
0.0139644
0.0139165
0.0138407
0.0137401
0.0136179
0.0134775
0.0133224
0.0131561
0.0129819
0.0128033
0.0126233
0.0124451
0.0122712
0.0121044
0.0119467
0.0118003
0.0116668
0.0115477
0.0114445
0.0113581
0.0112895
0.0112396
0.0112091
0.0111987
0.0112086
0.0112387
0.0112888
0.0113523
0.0114479
0.0115105
1.95674e-05
1.15717e-05
7.9849e-06
6.13072e-06
5.09339e-06
4.53144e-06
4.32837e-06
4.47082e-06
5.02053e-06
6.11657e-06
8.00502e-06
1.11688e-05
1.6617e-05
2.61273e-05
4.2552e-05
7.02488e-05
0.000112609
0.000173626
0.000258621
0.000373978
0.000526975
0.000725343
0.000976529
0.00128663
0.00165905
0.00209303
0.00258272
0.0031172
0.00368178
0.00426013
0.00483666
0.0053988
0.0059506
0.00646202
0.00693005
0.00735904
0.00775373
0.00811762
0.00845251
0.00875867
0.00903536
0.0092814
0.00949556
0.00967693
0.00982502
0.00993988
0.010022
0.0100725
0.0100927
0.0100845
0.0100501
0.00999197
0.00991282
0.0098156
0.00970338
0.00957931
0.00944653
0.00930817
0.00916722
0.00902657
0.00888888
0.00875664
0.00863211
0.00851733
0.0084141
0.00832402
0.00824846
0.00818863
0.00814559
0.00812026
0.00811349
0.00812609
0.00815886
0.00821266
0.00828845
0.00838698
0.00851006
0.00865386
0.00883823
0.0090188
1.95673e-05
1.15722e-05
7.98449e-06
6.11932e-06
5.04313e-06
4.38674e-06
3.99754e-06
3.82054e-06
3.85601e-06
4.14766e-06
4.78877e-06
5.95706e-06
8.00102e-06
1.15574e-05
1.77005e-05
2.8103e-05
4.40167e-05
6.66855e-05
9.75864e-05
0.000138406
0.000191121
0.000258041
0.000341813
0.000445396
0.000571975
0.000724761
0.00090667
0.00111991
0.00136553
0.00164298
0.00194984
0.00228186
0.00263511
0.00302728
0.00342721
0.0038199
0.00419296
0.00453772
0.00484914
0.00512518
0.0053659
0.00557256
0.00574699
0.00589109
0.00600667
0.00609539
0.0061588
0.00619845
0.00621595
0.00621305
0.00619168
0.00615393
0.00610205
0.0060384
0.00596541
0.00588552
0.00580115
0.00571466
0.00562828
0.00554415
0.00546424
0.0053904
0.00532433
0.00526758
0.00522159
0.00518764
0.00516695
0.00516062
0.00516969
0.00519513
0.00523792
0.00529903
0.00537954
0.00548063
0.0056038
0.00575065
0.0059244
0.00612398
0.00636917
0.00663713
1.95673e-05
1.15724e-05
7.98518e-06
6.11843e-06
5.03349e-06
4.35147e-06
3.90462e-06
3.61747e-06
3.46172e-06
3.43878e-06
3.57553e-06
3.93147e-06
4.62259e-06
5.86338e-06
8.03053e-06
1.1743e-05
1.75118e-05
2.58257e-05
3.71738e-05
5.20037e-05
7.07434e-05
9.38168e-05
0.000121652
0.000154684
0.000193345
0.000238045
0.00028913
0.000346825
0.000411171
0.000481965
0.000558715
0.00064063
0.000726831
0.000818031
0.000930591
0.00106288
0.00121277
0.00137648
0.00154905
0.0017249
0.00189844
0.00206461
0.00221918
0.00235896
0.00248184
0.00258669
0.00267325
0.00274195
0.00279372
0.00282987
0.00285197
0.00286171
0.00286087
0.00285123
0.00283456
0.00281259
0.002787
0.00275939
0.0027313
0.0027042
0.00267949
0.00265852
0.00264258
0.00263291
0.00263072
0.0026372
0.00265354
0.00268093
0.00272056
0.0027737
0.00284165
0.00292581
0.00302769
0.00314901
0.00329187
0.00345864
0.00365352
0.00387803
0.00415037
0.00446776
1.95673e-05
1.15723e-05
7.98525e-06
6.11861e-06
5.0321e-06
4.34375e-06
3.88036e-06
3.55799e-06
3.336e-06
3.198e-06
3.14415e-06
3.18986e-06
3.37055e-06
3.75334e-06
4.45783e-06
5.68775e-06
7.62831e-06
1.04732e-05
1.44147e-05
1.9609e-05
2.6171e-05
3.41768e-05
4.36656e-05
5.46386e-05
6.70533e-05
8.08129e-05
9.57508e-05
0.000111612
0.000128034
0.000144525
0.000160454
0.000175038
0.000187358
0.000196432
0.000205357
0.000216193
0.000229698
0.000246615
0.000267564
0.000292941
0.000322838
0.000357002
0.000394853
0.000435526
0.000477965
0.000521006
0.000563485
0.00060432
0.000642582
0.000677541
0.000708693
0.000735762
0.000758694
0.000777635
0.000792899
0.00080494
0.00081432
0.000821679
0.000827712
0.000833152
0.000838754
0.00084529
0.000853551
0.000864352
0.000878543
0.000897032
0.000920804
0.000950948
0.000988697
0.00103545
0.00109283
0.00116271
0.00124725
0.00134898
0.00147093
0.00161662
0.00179119
0.00199899
0.00225555
0.0025747
1.95673e-05
1.15718e-05
7.98457e-06
6.11819e-06
5.03167e-06
4.34206e-06
3.87438e-06
3.54159e-06
3.29814e-06
3.12036e-06
2.99772e-06
2.92921e-06
2.92277e-06
2.99753e-06
3.18895e-06
3.55803e-06
4.16138e-06
5.06122e-06
6.32536e-06
8.01213e-06
1.01616e-05
1.27909e-05
1.58936e-05
1.94404e-05
2.33793e-05
2.76345e-05
3.21033e-05
3.66537e-05
4.11221e-05
4.53142e-05
4.90101e-05
5.19748e-05
5.39761e-05
5.4813e-05
5.51968e-05
5.53601e-05
5.53267e-05
5.51315e-05
5.4822e-05
5.44577e-05
5.41087e-05
5.38534e-05
5.37739e-05
5.39501e-05
5.44534e-05
5.53398e-05
5.66435e-05
5.83739e-05
6.05141e-05
6.30236e-05
6.58429e-05
6.89008e-05
7.21222e-05
7.54359e-05
7.87806e-05
8.21102e-05
8.53968e-05
8.86327e-05
9.18316e-05
9.50305e-05
9.82913e-05
0.000101705
0.000105397
0.000109532
0.000114324
0.000120042
0.00012702
0.000135673
0.000146523
0.000160237
0.000177692
0.000200061
0.000228947
0.000266567
0.000316038
0.000381713
0.000470061
0.000589668
0.000756488
0.000997846
1.95673e-05
1.15708e-05
7.9832e-06
6.117e-06
5.03075e-06
4.34111e-06
3.87257e-06
3.53703e-06
3.28717e-06
3.0965e-06
2.95031e-06
2.84129e-06
2.76766e-06
2.73274e-06
2.7457e-06
2.82363e-06
2.98332e-06
3.24074e-06
3.61397e-06
4.11992e-06
4.77127e-06
5.57357e-06
6.52332e-06
7.60708e-06
8.80151e-06
1.00738e-05
1.13823e-05
1.26772e-05
1.39022e-05
1.49963e-05
1.58979e-05
1.65499e-05
1.69057e-05
1.69299e-05
1.68581e-05
1.67116e-05
1.64928e-05
1.62057e-05
1.58553e-05
1.54478e-05
1.49898e-05
1.44892e-05
1.39538e-05
1.33919e-05
1.28119e-05
1.22221e-05
1.16304e-05
1.10443e-05
1.04705e-05
9.91528e-06
9.38361e-06
8.87991e-06
8.4086e-06
7.97646e-06
7.59687e-06
7.29553e-06
7.11399e-06
7.10689e-06
7.33325e-06
7.8482e-06
8.70011e-06
9.93202e-06
1.15838e-05
1.36929e-05
1.6294e-05
1.94183e-05
2.30936e-05
2.73449e-05
3.21974e-05
3.76806e-05
4.38354e-05
5.07256e-05
5.84551e-05
6.71964e-05
7.72419e-05
8.9091e-05
0.000103681
0.000122621
0.000150242
0.000195712
1.95673e-05
1.15695e-05
7.98121e-06
6.11512e-06
5.02915e-06
4.33974e-06
3.87122e-06
3.53516e-06
3.28364e-06
3.08916e-06
2.93544e-06
2.81282e-06
2.71594e-06
2.64269e-06
2.59378e-06
2.57286e-06
2.58582e-06
2.6356e-06
2.72532e-06
2.85807e-06
3.03604e-06
3.25974e-06
3.52728e-06
3.83393e-06
4.17191e-06
4.53036e-06
4.89568e-06
5.25199e-06
5.58194e-06
5.86786e-06
6.0931e-06
6.24362e-06
6.30957e-06
6.28775e-06
6.24525e-06
6.18266e-06
6.10096e-06
6.00146e-06
5.8857e-06
5.75543e-06
5.61258e-06
5.45919e-06
5.29738e-06
5.12931e-06
4.95719e-06
4.78322e-06
4.60966e-06
4.43896e-06
4.27436e-06
4.12162e-06
3.99269e-06
3.91118e-06
3.91675e-06
4.06367e-06
4.41423e-06
5.03318e-06
5.98721e-06
7.34672e-06
9.18646e-06
1.1584e-05
1.46167e-05
1.83585e-05
2.28766e-05
2.82286e-05
3.4462e-05
4.1613e-05
4.97077e-05
5.87641e-05
6.87938e-05
7.9805e-05
9.18037e-05
0.000104795
0.000118779
0.000133749
0.000149673
0.000166466
0.000183954
0.000201606
0.000219088
0.000233061
1.95673e-05
1.15677e-05
7.97867e-06
6.11266e-06
5.02694e-06
4.33778e-06
3.86948e-06
3.5335e-06
3.28171e-06
3.0863e-06
2.93043e-06
2.80357e-06
2.69911e-06
2.61303e-06
2.54318e-06
2.48902e-06
2.45336e-06
2.43571e-06
2.43528e-06
2.45159e-06
2.48415e-06
2.53214e-06
2.59424e-06
2.66844e-06
2.752e-06
2.84141e-06
2.93252e-06
3.02063e-06
3.10079e-06
3.16809e-06
3.21811e-06
3.24728e-06
3.25331e-06
3.23828e-06
3.2181e-06
3.19291e-06
3.16296e-06
3.12859e-06
3.09023e-06
3.0484e-06
3.00373e-06
2.95699e-06
2.9092e-06
2.86168e-06
2.8164e-06
2.77682e-06
2.75022e-06
2.7525e-06
2.81435e-06
2.98465e-06
3.32751e-06
3.91727e-06
4.83745e-06
6.18273e-06
8.06032e-06
1.05889e-05
1.3895e-05
1.81087e-05
2.33583e-05
2.9765e-05
3.74384e-05
4.64731e-05
5.69461e-05
6.89146e-05
8.24148e-05
9.74606e-05
0.00011404
0.000132114
0.00015161
0.000172419
0.000194393
0.00021734
0.000241026
0.000265175
0.000289465
0.000313522
0.000336908
0.000358844
0.000378888
0.000392954
1.95673e-05
1.15655e-05
7.97563e-06
6.1097e-06
5.0242e-06
4.33529e-06
3.86723e-06
3.53145e-06
3.27977e-06
3.08427e-06
2.92793e-06
2.79994e-06
2.69324e-06
2.60315e-06
2.52658e-06
2.46161e-06
2.41017e-06
2.37085e-06
2.34184e-06
2.3218e-06
2.30971e-06
2.30462e-06
2.30558e-06
2.31156e-06
2.32141e-06
2.33386e-06
2.34753e-06
2.36096e-06
2.37266e-06
2.38124e-06
2.38548e-06
2.38441e-06
2.37745e-06
2.36606e-06
2.35374e-06
2.3405e-06
2.32643e-06
2.31174e-06
2.29686e-06
2.28259e-06
2.27028e-06
2.26234e-06
2.26345e-06
2.28388e-06
2.34616e-06
2.49253e-06
2.78704e-06
3.31128e-06
4.16165e-06
5.45163e-06
7.31482e-06
9.90538e-06
1.33952e-05
1.7969e-05
2.38172e-05
3.11285e-05
4.00819e-05
5.08389e-05
6.35364e-05
7.82791e-05
9.51324e-05
0.000114113
0.000135181
0.000158228
0.000183073
0.000209455
0.000237042
0.000265434
0.000294194
0.000322862
0.000350993
0.00037818
0.000404072
0.000428392
0.000450934
0.000471528
0.0004901
0.000506161
0.000520161
0.000528339
1.95673e-05
1.15627e-05
7.97215e-06
6.10632e-06
5.02102e-06
4.33234e-06
3.86451e-06
3.52895e-06
3.27746e-06
3.08208e-06
2.92575e-06
2.79758e-06
2.69035e-06
2.59916e-06
2.52063e-06
2.45238e-06
2.39608e-06
2.35005e-06
2.31221e-06
2.28105e-06
2.25543e-06
2.23445e-06
2.21734e-06
2.20341e-06
2.19206e-06
2.18266e-06
2.17466e-06
2.16748e-06
2.16062e-06
2.15359e-06
2.146e-06
2.13753e-06
2.12798e-06
2.11804e-06
2.10847e-06
2.09971e-06
2.09285e-06
2.09004e-06
2.0953e-06
2.11662e-06
2.17183e-06
2.29911e-06
2.56523e-06
3.06325e-06
3.90687e-06
5.23176e-06
7.20015e-06
1.00026e-05
1.38555e-05
1.89942e-05
2.56649e-05
3.41131e-05
4.45718e-05
5.72491e-05
7.23145e-05
8.9886e-05
0.000110015
0.000132673
0.000157737
0.00018498
0.000214071
0.00024458
0.000276
0.000307781
0.000339365
0.00037023
0.000399918
0.000428061
0.000454389
0.000478726
0.000500973
0.000521096
0.0005391
0.000555017
0.000568902
0.000580767
0.000590786
0.000598504
0.000605159
0.000606152
1.95673e-05
1.15595e-05
7.96832e-06
6.10259e-06
5.01747e-06
4.32901e-06
3.86141e-06
3.52606e-06
3.27474e-06
3.07953e-06
2.92333e-06
2.79523e-06
2.68797e-06
2.59658e-06
2.51759e-06
2.44848e-06
2.39084e-06
2.34289e-06
2.3025e-06
2.26811e-06
2.23857e-06
2.213e-06
2.19071e-06
2.17113e-06
2.15381e-06
2.13835e-06
2.12439e-06
2.11164e-06
2.09984e-06
2.08875e-06
2.07821e-06
2.06807e-06
2.05854e-06
2.05257e-06
2.05543e-06
2.07684e-06
2.13608e-06
2.27575e-06
2.57868e-06
3.16762e-06
4.19345e-06
5.8343e-06
8.30075e-06
1.18361e-05
1.67102e-05
2.32081e-05
3.16157e-05
4.22034e-05
5.52081e-05
7.08151e-05
8.91399e-05
0.000110211
0.000133957
0.000160191
0.000188615
0.000218816
0.000250297
0.000282497
0.000314844
0.000346787
0.000377843
0.00040762
0.00043583
0.00046228
0.000486858
0.000509509
0.000530213
0.000548969
0.000565782
0.00058066
0.000593612
0.000604655
0.000613813
0.000621116
0.000626629
0.000630356
0.000632582
0.000632837
0.000632997
0.000628259
1.95673e-05
1.15559e-05
7.96419e-06
6.09857e-06
5.01361e-06
4.32536e-06
3.85797e-06
3.52281e-06
3.27168e-06
3.07662e-06
2.92057e-06
2.79258e-06
2.68542e-06
2.59409e-06
2.51507e-06
2.44584e-06
2.38793e-06
2.33958e-06
2.29861e-06
2.26348e-06
2.23306e-06
2.20652e-06
2.18325e-06
2.1628e-06
2.14491e-06
2.12945e-06
2.11652e-06
2.10648e-06
2.10019e-06
2.09928e-06
2.10674e-06
2.12834e-06
2.22466e-06
2.48103e-06
3.04411e-06
4.12409e-06
5.96175e-06
8.82595e-06
1.30137e-05
1.88385e-05
2.66112e-05
3.66179e-05
4.90976e-05
6.42214e-05
8.20736e-05
0.000102638
0.000125787
0.000151283
0.000178777
0.000207832
0.000237941
0.000268567
0.000299178
0.000329291
0.000358503
0.00038651
0.000413112
0.000438201
0.000461742
0.00048374
0.000504218
0.0005232
0.000540693
0.000556692
0.000571178
0.000584124
0.000595502
0.000605287
0.000613458
0.000620002
0.000624913
0.000628191
0.000629847
0.000629893
0.000628388
0.00062532
0.000621032
0.000615104
0.000609704
0.000600831
1.95673e-05
1.15519e-05
7.95983e-06
6.09432e-06
5.00952e-06
4.32147e-06
3.85427e-06
3.51929e-06
3.26833e-06
3.07345e-06
2.91761e-06
2.78992e-06
2.68319e-06
2.59263e-06
2.51501e-06
2.44839e-06
2.39514e-06
2.35479e-06
2.32742e-06
2.31516e-06
2.32288e-06
2.35913e-06
2.43763e-06
2.57926e-06
2.81497e-06
3.18992e-06
3.76841e-06
4.6387e-06
5.91758e-06
7.75532e-06
1.03416e-05
1.40417e-05
1.94531e-05
2.69039e-05
3.66889e-05
4.9015e-05
6.39895e-05
8.16095e-05
0.000101757
0.000124201
0.000148609
0.000174564
0.000201593
0.000229193
0.000256869
0.000284164
0.000310694
0.000336161
0.000360372
0.000383228
0.000404716
0.000424883
0.00044381
0.000461591
0.000478308
0.000494022
0.000508769
0.000522559
0.000535386
0.000547227
0.000558053
0.000567829
0.000576519
0.00058408
0.000590471
0.000595649
0.000599571
0.000602197
0.000603489
0.000603414
0.000601946
0.000599066
0.000594767
0.000589042
0.000581943
0.000573453
0.000563921
0.000553108
0.000542928
0.000531178
1.95673e-05
1.15475e-05
7.95539e-06
6.09001e-06
5.00552e-06
4.318e-06
3.85167e-06
3.51834e-06
3.27079e-06
3.0831e-06
2.94225e-06
2.84534e-06
2.80065e-06
2.83223e-06
2.98741e-06
3.34719e-06
3.99496e-06
5.03164e-06
6.58788e-06
8.81373e-06
1.18718e-05
1.59318e-05
2.11666e-05
2.77471e-05
3.58375e-05
4.55902e-05
5.71405e-05
7.06017e-05
8.60599e-05
0.000103568
0.000123136
0.000144589
0.000167454
0.00019126
0.000215512
0.000239718
0.000263434
0.000286291
0.000308015
0.000328434
0.000347479
0.000365162
0.000381561
0.000396796
0.000411002
0.000424307
0.000436825
0.00044864
0.000459808
0.000470363
0.000480321
0.000489689
0.000498469
0.000506662
0.000514267
0.000521281
0.000527696
0.000533496
0.000538656
0.000543143
0.000546914
0.000549921
0.000552109
0.000553422
0.000553805
0.0005532
0.000551556
0.000548819
0.000544945
0.000539892
0.000533624
0.000526113
0.000517347
0.000507317
0.000496071
0.000483619
0.000470256
0.000456073
0.000442073
0.000428473
1.95685e-05
1.15461e-05
7.95791e-06
6.10002e-06
5.03164e-06
4.38007e-06
3.99591e-06
3.84834e-06
3.9995e-06
4.59623e-06
5.84983e-06
8.02677e-06
1.14585e-05
1.65217e-05
2.36012e-05
3.30593e-05
4.45951e-05
5.79681e-05
7.30167e-05
8.95423e-05
0.000107319
0.000126102
0.000145633
0.000165652
0.000185909
0.000206168
0.000226223
0.000245902
0.000265074
0.000283649
0.000301578
0.000318718
0.000334511
0.000349007
0.000362291
0.000374473
0.000385674
0.000395999
0.000405534
0.000414337
0.000422448
0.000429894
0.000436699
0.000442893
0.000448507
0.000453584
0.000458167
0.000462304
0.000466037
0.000469402
0.000472426
0.000475124
0.000477503
0.000479556
0.000481268
0.000482617
0.000483572
0.000484097
0.00048415
0.000483687
0.000482658
0.000481011
0.000478693
0.000475649
0.000471827
0.000467175
0.000461645
0.000455192
0.000447774
0.000439358
0.000429919
0.000419439
0.000407921
0.000395375
0.000381863
0.000367449
0.000352329
0.000336982
0.00032101
0.000306846
1.96489e-05
1.1763e-05
8.44539e-06
7.13524e-06
7.17535e-06
8.63353e-06
1.18684e-05
1.73029e-05
2.53537e-05
3.6259e-05
4.99373e-05
6.60257e-05
8.40043e-05
0.000103312
0.000123423
0.000143872
0.000163427
0.000181725
0.000198794
0.000214722
0.000229631
0.000243656
0.000256928
0.000269566
0.000281669
0.000293311
0.00030454
0.000315383
0.000325845
0.000335917
0.000345583
0.000354812
0.000363113
0.000370297
0.0003764
0.000381531
0.000385821
0.000389397
0.000392374
0.000394845
0.00039689
0.000398571
0.000399937
0.000401021
0.000401849
0.000402438
0.000402796
0.000402929
0.000402836
0.000402515
0.000401957
0.000401151
0.00040008
0.000398726
0.000397064
0.000395069
0.000392712
0.000389962
0.000386788
0.000383156
0.000379034
0.00037439
0.00036919
0.000363403
0.000357
0.000349956
0.000342246
0.000333852
0.00032476
0.000314965
0.000304473
0.0002933
0.000281479
0.000269061
0.000256127
0.000242798
0.000229161
0.000215865
0.000201297
0.000189184
2.3756e-05
2.0807e-05
2.35288e-05
2.94411e-05
3.82319e-05
5.01344e-05
6.51339e-05
8.23749e-05
0.000100331
0.000117473
0.000132866
0.000146311
0.000158147
0.00016894
0.00017923
0.00018941
0.000199163
0.000208457
0.000217316
0.000225706
0.000233586
0.000240935
0.000247751
0.00025405
0.000259864
0.000265225
0.00027017
0.000274732
0.000278938
0.000282809
0.000286366
0.000289601
0.000292332
0.000294616
0.000296621
0.000298431
0.00030007
0.000301531
0.000302799
0.000303858
0.000304697
0.000305307
0.000305674
0.000305785
0.000305624
0.000305176
0.000304424
0.000303354
0.00030195
0.000300199
0.000298087
0.000295606
0.000292746
0.000289502
0.000285871
0.00028185
0.000277442
0.000272649
0.000267475
0.000261928
0.000256015
0.000249745
0.000243129
0.000236178
0.000228908
0.000221333
0.00021347
0.000205346
0.000196986
0.000188422
0.000179691
0.000170837
0.000161913
0.00015297
0.000144086
0.000135294
0.000126728
0.000118277
0.000109633
0.000103388
8.2132e-05
7.88756e-05
7.6484e-05
7.51028e-05
7.4551e-05
7.47647e-05
7.56985e-05
7.73125e-05
7.95162e-05
8.21516e-05
8.50349e-05
8.80128e-05
9.09897e-05
9.39232e-05
9.68047e-05
9.96371e-05
0.000102372
0.000104928
0.000107296
0.000109482
0.00011149
0.000113324
0.000114986
0.000116481
0.000117812
0.000118984
0.000120001
0.000120866
0.000121581
0.000122148
0.000122568
0.000122841
0.000122954
0.000122896
0.000122667
0.000122277
0.000121734
0.000121045
0.000120216
0.000119253
0.000118161
0.000116945
0.000115611
0.000114166
0.000112615
0.000110966
0.000109225
0.000107401
0.000105501
0.000103533
0.000101507
9.94319e-05
9.73176e-05
9.51744e-05
9.30128e-05
9.08435e-05
8.86774e-05
8.65253e-05
8.43979e-05
8.23055e-05
8.02579e-05
7.82645e-05
7.63337e-05
7.44733e-05
7.26898e-05
7.09891e-05
6.93757e-05
6.78532e-05
6.64242e-05
6.50901e-05
6.38517e-05
6.27086e-05
6.16591e-05
6.07044e-05
5.98349e-05
5.90769e-05
5.8354e-05
5.7911e-05
5.70899e-05
5.74541e-05
)
;

boundaryField
{
    inlet
    {
        type            fixedValue;
        value           uniform 0;
    }
    outlet
    {
        type            zeroGradient;
    }
    fixedWalls
    {
        type            nutkWallFunction;
        Cmu             0.09;
        kappa           0.41;
        E               9.8;
        value           nonuniform List<scalar> 
160
(
9.29711e-06
8.85652e-06
8.53143e-06
8.34307e-06
8.26769e-06
8.2969e-06
8.42436e-06
8.64419e-06
8.94337e-06
9.29974e-06
9.68795e-06
1.00871e-05
1.04844e-05
1.08742e-05
1.12557e-05
1.16292e-05
1.19885e-05
1.23234e-05
1.26326e-05
1.29173e-05
1.31782e-05
1.3416e-05
1.36311e-05
1.38242e-05
1.39959e-05
1.41468e-05
1.42776e-05
1.43888e-05
1.44806e-05
1.45534e-05
1.46072e-05
1.46422e-05
1.46567e-05
1.46492e-05
1.46199e-05
1.45699e-05
1.45002e-05
1.44116e-05
1.43051e-05
1.41812e-05
1.40406e-05
1.38838e-05
1.37116e-05
1.35247e-05
1.33239e-05
1.31099e-05
1.28836e-05
1.26459e-05
1.23978e-05
1.21403e-05
1.18746e-05
1.16017e-05
1.13229e-05
1.10395e-05
1.07529e-05
1.04644e-05
1.01755e-05
9.88749e-06
9.6019e-06
9.32011e-06
9.04346e-06
8.77324e-06
8.51066e-06
8.25682e-06
8.0127e-06
7.77917e-06
7.55695e-06
7.34661e-06
7.14861e-06
6.96327e-06
6.79074e-06
6.63112e-06
6.48421e-06
6.35028e-06
6.22804e-06
6.1213e-06
6.01931e-06
5.95675e-06
5.84058e-06
5.89215e-06
0.000184713
0.00018541
0.000179096
0.000161498
0.000112887
5.93491e-05
5.87437e-05
6.52194e-05
6.96866e-05
6.9073e-05
6.23406e-05
5.72802e-05
6.20359e-05
6.74306e-05
7.3371e-05
8.07477e-05
8.94528e-05
9.88998e-05
0.00010883
0.000119202
0.000130041
0.000141407
0.00015336
0.000165922
0.000179054
0.000192641
0.000206513
0.000220463
0.000234281
0.000247773
0.000260773
0.000273147
0.000284799
0.000295665
0.000305714
0.000314952
0.000323421
0.000331199
0.000338421
0.000345295
0.000351496
0.00035694
0.000361684
0.000365774
0.000369233
0.000372069
0.000374284
0.000375875
0.000376841
0.00037718
0.000376893
0.000375985
0.000374461
0.000372323
0.000369558
0.000366191
0.000362254
0.000357788
0.000352866
0.000347695
0.000342607
0.000337356
0.000331801
0.000325898
0.000319651
0.000313081
0.000306218
0.000299092
0.000291735
0.00028418
0.000276461
0.000268609
0.00026066
0.000252648
0.000244613
0.000236604
0.000228691
0.000220973
0.000213594
0.000207591
)
;
    }
    frontAndBack
    {
        type            empty;
    }
}


// ************************************************************************* //
