/*--------------------------------*- C++ -*----------------------------------*\
| =========                 |                                                 |
| \\      /  F ield         | OpenFOAM: The Open Source CFD Toolbox           |
|  \\    /   O peration     | Version:  v1912                                 |
|   \\  /    A nd           | Website:  www.openfoam.com                      |
|    \\/     M anipulation  |                                                 |
\*---------------------------------------------------------------------------*/
FoamFile
{
    version     2.0;
    format      ascii;
    class       volScalarField;
    location    "100";
    object      p;
}
// * * * * * * * * * * * * * * * * * * * * * * * * * * * * * * * * * * * * * //

dimensions      [0 2 -2 0 0 0 0];


internalField   nonuniform List<scalar> 
2000
(
-0.016164
0.100537
0.156863
0.152992
0.139852
0.134844
0.134291
0.134854
0.134818
0.135239
0.135516
0.135455
0.135358
0.135371
0.135444
0.135472
0.13545
0.135399
0.13533
0.135242
0.135132
0.134996
0.13483
0.134626
0.134373
0.134065
0.133697
0.133275
0.13282
0.132372
0.131984
0.131723
0.131659
0.131857
0.132375
0.133247
0.134492
0.136129
0.138172
0.140572
0.143368
0.146553
0.150109
0.154023
0.158287
0.162891
0.167824
0.17307
0.178606
0.184405
0.19043
0.196637
0.202977
0.209392
0.215818
0.222183
0.228408
0.234407
0.240087
0.245357
0.250137
0.254327
0.257829
0.260531
0.262317
0.26307
0.26267
0.260988
0.257883
0.253201
0.246762
0.23836
0.227742
0.214593
0.19848
0.178864
0.154644
0.125175
0.0847309
0.0430235
0.041968
0.126355
0.164413
0.151723
0.135544
0.133561
0.138451
0.139356
0.1352
0.133108
0.134302
0.13524
0.135285
0.135392
0.135598
0.135612
0.135538
0.13545
0.135379
0.135315
0.135245
0.135162
0.135055
0.134903
0.134677
0.134346
0.133888
0.133301
0.132608
0.131859
0.131134
0.130526
0.130134
0.130047
0.130335
0.131046
0.132189
0.133769
0.135892
0.138503
0.141434
0.144659
0.148199
0.152068
0.15627
0.160803
0.165658
0.170818
0.17626
0.181954
0.187861
0.193935
0.200121
0.206356
0.21257
0.218693
0.224642
0.23033
0.235664
0.240539
0.244842
0.248479
0.251361
0.253378
0.254411
0.254343
0.25305
0.250398
0.246244
0.240424
0.232756
0.223021
0.210961
0.196254
0.17849
0.157158
0.131491
0.100993
0.0631786
0.0287794
0.0897563
0.123193
0.145977
0.145494
0.138203
0.136245
0.13757
0.136969
0.135224
0.135045
0.137214
0.137022
0.134976
0.134328
0.135215
0.135685
0.135716
0.135609
0.135516
0.135452
0.135392
0.13532
0.135228
0.135093
0.134874
0.134536
0.134055
0.133437
0.132716
0.131957
0.131245
0.130677
0.130346
0.130331
0.130688
0.131457
0.132661
0.134249
0.136173
0.138514
0.141235
0.144308
0.147727
0.151492
0.155597
0.160035
0.164793
0.169852
0.175187
0.180763
0.18654
0.192469
0.198492
0.204547
0.210562
0.216459
0.222153
0.227554
0.232568
0.237096
0.241038
0.244296
0.24677
0.248351
0.248925
0.248375
0.246579
0.243405
0.238712
0.232338
0.224103
0.213796
0.20117
0.185928
0.167718
0.146145
0.120687
0.0913012
0.0562935
0.0266857
0.111636
0.121847
0.135359
0.141248
0.14075
0.139702
0.139239
0.138209
0.137003
0.136327
0.136637
0.136712
0.136509
0.136022
0.135952
0.135865
0.135561
0.135445
0.135526
0.135611
0.135629
0.135601
0.135538
0.135423
0.135219
0.13489
0.134419
0.133813
0.13311
0.132376
0.131692
0.131149
0.130834
0.130817
0.131148
0.131852
0.132942
0.134472
0.136382
0.138681
0.141356
0.144392
0.147782
0.151523
0.155608
0.160027
0.164764
0.169798
0.1751
0.180635
0.186358
0.192219
0.198157
0.204108
0.209997
0.215744
0.221263
0.226465
0.231254
0.235533
0.239204
0.242168
0.244324
0.245565
0.245782
0.244862
0.242686
0.239127
0.234046
0.227287
0.218676
0.208012
0.195062
0.17956
0.161202
0.139683
0.114622
0.0862003
0.0528862
0.0256291
0.121743
0.126063
0.135224
0.141472
0.142611
0.142114
0.142026
0.141846
0.140977
0.13979
0.138919
0.138456
0.138028
0.137206
0.136839
0.136899
0.136785
0.136487
0.136185
0.135971
0.135887
0.135892
0.135914
0.135885
0.135755
0.13549
0.135078
0.134531
0.13389
0.133221
0.132602
0.132119
0.131848
0.131857
0.132185
0.132877
0.133962
0.135457
0.137349
0.13963
0.14229
0.145317
0.148702
0.152439
0.156518
0.160927
0.165647
0.170655
0.175918
0.1814
0.187054
0.192826
0.198656
0.204475
0.21021
0.21578
0.2211
0.22608
0.230628
0.234649
0.238048
0.240727
0.242589
0.243532
0.243452
0.242241
0.239783
0.235956
0.230625
0.223641
0.214834
0.204011
0.190953
0.175413
0.157116
0.135807
0.111154
0.0834651
0.0510707
0.0248493
0.127901
0.130779
0.137093
0.142217
0.143935
0.144141
0.144516
0.144846
0.144544
0.143801
0.143086
0.14243
0.141486
0.140289
0.139479
0.139106
0.138726
0.138261
0.137864
0.13759
0.137391
0.137208
0.137022
0.136832
0.136623
0.136358
0.136003
0.135552
0.135029
0.134486
0.13399
0.133618
0.133429
0.13349
0.133869
0.134604
0.135724
0.137239
0.139145
0.141436
0.144101
0.147133
0.15052
0.154255
0.158325
0.162716
0.167406
0.172369
0.177571
0.182973
0.188526
0.194176
0.199861
0.205512
0.211056
0.216414
0.221502
0.226234
0.23052
0.23427
0.237392
0.239795
0.241384
0.242063
0.241733
0.24029
0.237623
0.233615
0.228134
0.221033
0.212149
0.201294
0.188253
0.172791
0.154644
0.133578
0.109253
0.0820514
0.0500725
0.0241849
0.132143
0.134349
0.138878
0.143071
0.145153
0.145956
0.146638
0.147226
0.147364
0.147125
0.146778
0.146328
0.145587
0.144608
0.143706
0.142949
0.142192
0.141465
0.140873
0.140436
0.140092
0.139786
0.13949
0.139187
0.138847
0.138441
0.13796
0.137421
0.136864
0.136339
0.135902
0.135604
0.135512
0.135685
0.136167
0.136996
0.138193
0.139767
0.141716
0.144037
0.146723
0.149766
0.153157
0.156884
0.160934
0.165289
0.169928
0.17482
0.179931
0.18522
0.190636
0.196126
0.201627
0.207072
0.212389
0.217502
0.222331
0.226792
0.230802
0.234276
0.237126
0.239265
0.240605
0.241054
0.240517
0.238895
0.236081
0.23196
0.226402
0.219264
0.210384
0.199576
0.186628
0.171307
0.153346
0.132515
0.108433
0.0815235
0.0496425
0.0236605
0.135156
0.137
0.140644
0.14433
0.146596
0.147737
0.148596
0.14934
0.149754
0.149834
0.14975
0.149544
0.149137
0.148525
0.147848
0.147167
0.146446
0.145709
0.145021
0.144417
0.143895
0.143436
0.143023
0.142629
0.14222
0.141764
0.14125
0.140687
0.14011
0.139565
0.13911
0.138804
0.13869
0.138842
0.139319
0.140157
0.141377
0.142984
0.144969
0.14732
0.150027
0.153079
0.156464
0.160169
0.164179
0.168476
0.173034
0.177824
0.18281
0.187948
0.193192
0.198485
0.203768
0.208976
0.21404
0.218887
0.22344
0.227624
0.231358
0.234562
0.237154
0.239054
0.240175
0.240431
0.239731
0.237977
0.235067
0.230885
0.225305
0.218184
0.20936
0.198648
0.185835
0.170686
0.152922
0.132306
0.108401
0.0816388
0.0496557
0.0232944
0.137369
0.139068
0.142337
0.145765
0.148105
0.149451
0.150458
0.151327
0.151909
0.152178
0.152263
0.152234
0.15205
0.151698
0.151261
0.150799
0.150294
0.149743
0.149181
0.148641
0.148131
0.147646
0.147174
0.146705
0.146226
0.145724
0.145197
0.144654
0.144122
0.143639
0.143254
0.143022
0.143003
0.143203
0.143718
0.144542
0.145712
0.147249
0.149159
0.151435
0.154069
0.15705
0.160361
0.163987
0.167908
0.1721
0.176536
0.181184
0.186007
0.190961
0.195999
0.201067
0.206109
0.211061
0.215859
0.220433
0.224714
0.228627
0.2321
0.235056
0.237418
0.239109
0.240046
0.240147
0.239322
0.237476
0.234507
0.230303
0.224735
0.217664
0.208926
0.198335
0.185677
0.17071
0.153143
0.132722
0.10895
0.0822367
0.0500349
0.023093
0.139035
0.140717
0.143872
0.147177
0.149542
0.151033
0.152189
0.15318
0.15389
0.154297
0.154507
0.154594
0.154543
0.154348
0.154074
0.153774
0.15344
0.153061
0.152663
0.15227
0.151886
0.151503
0.151111
0.150702
0.150269
0.149808
0.149322
0.148827
0.14835
0.14793
0.147615
0.147454
0.147501
0.147796
0.148359
0.149246
0.150458
0.152004
0.153892
0.15612
0.158681
0.161566
0.164762
0.168255
0.172027
0.176054
0.180311
0.184764
0.189377
0.194108
0.19891
0.203732
0.208518
0.21321
0.217745
0.222058
0.226082
0.229749
0.232988
0.235726
0.237891
0.239406
0.240192
0.240168
0.239248
0.237336
0.234333
0.230126
0.224589
0.217582
0.20894
0.198479
0.185979
0.171195
0.15382
0.13358
0.109921
0.0832033
0.0507357
0.0230704
0.140297
0.142044
0.145246
0.148517
0.150885
0.152484
0.153773
0.154875
0.155694
0.156218
0.156538
0.15672
0.156766
0.15668
0.156511
0.15631
0.156078
0.155809
0.155522
0.155236
0.154955
0.154668
0.154367
0.154047
0.153702
0.153332
0.152941
0.152546
0.152175
0.151865
0.151657
0.151598
0.15173
0.152089
0.152683
0.153584
0.154799
0.156331
0.158187
0.160368
0.162868
0.165678
0.168784
0.172171
0.175819
0.179707
0.183806
0.188086
0.192511
0.197041
0.201632
0.206233
0.210794
0.215258
0.219566
0.223656
0.227464
0.230924
0.233968
0.236526
0.238528
0.239898
0.240562
0.240437
0.239439
0.237477
0.234449
0.230245
0.224741
0.217795
0.209246
0.198907
0.186558
0.171948
0.154759
0.134696
0.111152
0.0844259
0.0517117
0.0232808
0.141242
0.143125
0.146487
0.149772
0.15213
0.15381
0.155215
0.156411
0.157319
0.157942
0.158359
0.15863
0.158763
0.158768
0.158685
0.158558
0.158397
0.158202
0.157986
0.157766
0.157545
0.157317
0.157075
0.156813
0.156529
0.156223
0.155903
0.155587
0.1553
0.155077
0.154955
0.154977
0.155181
0.155595
0.156236
0.157166
0.158398
0.159934
0.161777
0.163928
0.166383
0.169131
0.172161
0.175458
0.179003
0.182775
0.186747
0.190889
0.195167
0.199541
0.203969
0.208404
0.212794
0.217085
0.22122
0.22514
0.228782
0.232081
0.234973
0.23739
0.239261
0.240516
0.241078
0.24087
0.239808
0.2378
0.234749
0.230544
0.225062
0.218164
0.209688
0.199448
0.187222
0.172758
0.155726
0.135818
0.112375
0.08565
0.0527085
0.0236571
0.141934
0.144023
0.14762
0.150934
0.153268
0.155016
0.15652
0.157794
0.158775
0.15948
0.159982
0.160331
0.160542
0.160627
0.160621
0.160564
0.160467
0.160334
0.160175
0.160006
0.159829
0.159642
0.159438
0.159214
0.158969
0.158705
0.158432
0.158167
0.157936
0.15777
0.157706
0.157782
0.158033
0.158486
0.159175
0.160129
0.16137
0.162905
0.164736
0.166865
0.169286
0.171991
0.174969
0.178205
0.18168
0.185372
0.189255
0.1933
0.197472
0.201733
0.20604
0.210348
0.214607
0.218764
0.222763
0.226547
0.230055
0.233224
0.235991
0.238291
0.240054
0.241211
0.241688
0.241409
0.24029
0.238242
0.235167
0.230957
0.225489
0.218625
0.210202
0.200035
0.187902
0.173546
0.15663
0.136833
0.113449
0.0867032
0.0534712
0.0239889
0.142417
0.144787
0.148666
0.151996
0.154299
0.156106
0.157698
0.159036
0.160077
0.160851
0.161423
0.16184
0.162118
0.162272
0.162335
0.162341
0.162305
0.162229
0.162123
0.162
0.161864
0.161713
0.161543
0.161351
0.161138
0.160907
0.16067
0.160445
0.160255
0.160132
0.160112
0.160229
0.160517
0.161005
0.161723
0.162694
0.163943
0.165477
0.1673
0.169411
0.171806
0.174478
0.177415
0.180601
0.184019
0.187646
0.191456
0.19542
0.199505
0.203671
0.207879
0.212083
0.216233
0.22028
0.224168
0.22784
0.231239
0.234302
0.236968
0.239173
0.240849
0.241928
0.242337
0.242001
0.240838
0.238759
0.235668
0.231456
0.226002
0.219168
0.210792
0.200687
0.188631
0.174364
0.15754
0.13783
0.114478
0.0877052
0.0541188
0.0243378
0.142727
0.145456
0.149635
0.152958
0.155225
0.157091
0.158756
0.160148
0.161239
0.162071
0.162704
0.163177
0.163512
0.163726
0.163848
0.16391
0.163927
0.163902
0.163844
0.163764
0.163666
0.16355
0.163412
0.16325
0.163066
0.162866
0.16266
0.162467
0.162312
0.162225
0.162239
0.162388
0.162706
0.163219
0.163957
0.164941
0.166195
0.167726
0.169539
0.171634
0.174006
0.176648
0.179548
0.182691
0.186059
0.18963
0.193378
0.197275
0.201286
0.205374
0.2095
0.213617
0.21768
0.221636
0.225433
0.229016
0.232326
0.235304
0.237889
0.240018
0.241625
0.242642
0.242998
0.242617
0.24142
0.239318
0.236216
0.232007
0.226569
0.219765
0.211432
0.201386
0.1894
0.175214
0.158475
0.138851
0.115536
0.0887697
0.0548156
0.02488
0.142895
0.146062
0.150534
0.15382
0.156056
0.157978
0.159706
0.161141
0.162274
0.163156
0.163839
0.164362
0.164746
0.165011
0.165183
0.165293
0.165357
0.165377
0.165361
0.165319
0.165256
0.165171
0.165062
0.164927
0.16477
0.164597
0.164418
0.164254
0.164127
0.164069
0.16411
0.164286
0.164627
0.165159
0.165911
0.166904
0.16816
0.169688
0.171492
0.173571
0.175922
0.178537
0.181405
0.184511
0.187836
0.19136
0.195056
0.198895
0.202845
0.206869
0.210926
0.214973
0.218963
0.222847
0.226571
0.230081
0.23332
0.236229
0.238749
0.240815
0.242364
0.243329
0.24364
0.243222
0.241997
0.239877
0.236767
0.232562
0.227141
0.220365
0.212074
0.202082
0.190162
0.176055
0.159401
0.139868
0.116607
0.089895
0.0556005
0.0256413
0.142946
0.146629
0.151365
0.154588
0.1568
0.158776
0.160555
0.162025
0.163195
0.164118
0.164845
0.16541
0.165837
0.166145
0.166361
0.166513
0.166617
0.166677
0.166698
0.166689
0.166656
0.166599
0.166515
0.166405
0.166271
0.166121
0.165966
0.165825
0.165722
0.165687
0.165752
0.165948
0.166308
0.166854
0.167616
0.168616
0.169873
0.171396
0.17319
0.175255
0.177587
0.180179
0.183019
0.186092
0.189382
0.192865
0.196517
0.20031
0.20421
0.208181
0.212184
0.216174
0.220106
0.223929
0.227592
0.231041
0.234219
0.237068
0.239528
0.241538
0.243036
0.243955
0.244226
0.243776
0.242528
0.240395
0.237283
0.233086
0.227685
0.22094
0.212693
0.202756
0.190904
0.176874
0.160305
0.140869
0.117673
0.0910521
0.056461
0.0265448
0.142902
0.147172
0.152128
0.155267
0.157466
0.159492
0.161311
0.162811
0.164012
0.164972
0.165737
0.166338
0.166801
0.167146
0.1674
0.167589
0.167729
0.167823
0.167876
0.167896
0.16789
0.167857
0.167796
0.167707
0.167593
0.167463
0.167327
0.167206
0.167123
0.167107
0.167189
0.167402
0.167776
0.168333
0.169102
0.170107
0.171363
0.172882
0.174667
0.17672
0.179036
0.181608
0.184425
0.187472
0.190732
0.194183
0.1978
0.201554
0.205412
0.209339
0.213293
0.217233
0.22111
0.224877
0.228482
0.231872
0.234991
0.237783
0.24019
0.242152
0.243606
0.244488
0.24473
0.244259
0.242999
0.240862
0.237756
0.233575
0.228198
0.221488
0.213285
0.203403
0.191615
0.177661
0.161175
0.141835
0.118713
0.0922052
0.0573742
0.0275191
0.142782
0.147704
0.152822
0.155865
0.158062
0.160133
0.161985
0.163508
0.164736
0.165727
0.166523
0.167157
0.167652
0.16803
0.168316
0.168538
0.168709
0.168833
0.168914
0.16896
0.168976
0.168965
0.168924
0.168854
0.168758
0.168645
0.168527
0.168422
0.168356
0.168355
0.168452
0.168678
0.169065
0.169629
0.170403
0.171409
0.172664
0.174178
0.175957
0.177999
0.180303
0.182859
0.185657
0.188682
0.191915
0.195335
0.198917
0.202632
0.206447
0.210326
0.214229
0.218116
0.221939
0.225652
0.229204
0.232542
0.235613
0.238361
0.240728
0.242654
0.244079
0.244937
0.245161
0.24468
0.243415
0.241282
0.238187
0.234024
0.228674
0.221999
0.21384
0.204011
0.192286
0.178404
0.161997
0.142753
0.119708
0.0933259
0.0583193
0.0285143
0.142605
0.148231
0.153447
0.156391
0.158593
0.160704
0.162585
0.164131
0.165382
0.166399
0.167222
0.167882
0.168403
0.168809
0.169124
0.169373
0.169572
0.169723
0.169829
0.169897
0.169934
0.169942
0.169918
0.169863
0.169782
0.169683
0.169579
0.169488
0.169435
0.169448
0.169556
0.169793
0.170191
0.170765
0.171546
0.172554
0.173808
0.175318
0.177088
0.179117
0.181403
0.183937
0.186708
0.189702
0.192901
0.196284
0.199826
0.203499
0.207271
0.211106
0.214966
0.218809
0.22259
0.226261
0.229773
0.233074
0.23611
0.238826
0.241164
0.243066
0.24447
0.245313
0.245528
0.245042
0.243779
0.241654
0.238573
0.234431
0.22911
0.222471
0.214355
0.204577
0.192911
0.179098
0.162767
0.143613
0.120649
0.0943953
0.0592793
0.0295004
0.142384
0.148752
0.154003
0.15686
0.159071
0.161208
0.163108
0.164673
0.165948
0.16699
0.167838
0.168522
0.169067
0.169497
0.169836
0.170109
0.170331
0.170505
0.170633
0.170722
0.170778
0.170803
0.170796
0.170757
0.17069
0.170604
0.170512
0.170433
0.17039
0.170412
0.170529
0.170772
0.171165
0.171739
0.172516
0.173516
0.174758
0.176253
0.178005
0.180014
0.182277
0.184786
0.187531
0.190498
0.193667
0.19702
0.200531
0.204171
0.20791
0.211712
0.215539
0.219349
0.223097
0.226737
0.230218
0.233491
0.236501
0.239193
0.241511
0.243397
0.244789
0.245624
0.245835
0.245351
0.244094
0.241981
0.238917
0.234799
0.229506
0.222902
0.214828
0.205099
0.193488
0.17974
0.163481
0.144412
0.121529
0.0954014
0.0602376
0.0304604
0.142136
0.149268
0.154477
0.157276
0.159516
0.161677
0.163588
0.165163
0.166451
0.167511
0.168378
0.169084
0.169652
0.170104
0.170466
0.170761
0.171004
0.171198
0.171342
0.171445
0.171513
0.171547
0.171548
0.171515
0.171453
0.171371
0.171282
0.171204
0.171162
0.171184
0.171299
0.171537
0.171925
0.172495
0.173265
0.174257
0.175488
0.176972
0.178711
0.180705
0.182952
0.185443
0.188168
0.191113
0.19426
0.197589
0.201075
0.20469
0.208402
0.212178
0.215978
0.219761
0.223484
0.2271
0.230559
0.233811
0.236802
0.239479
0.241784
0.24366
0.245045
0.245878
0.24609
0.245611
0.244364
0.242265
0.239221
0.235126
0.229861
0.223292
0.215258
0.205574
0.194016
0.180327
0.164135
0.145146
0.122342
0.0963318
0.0611712
0.0313786
0.141871
0.149809
0.154867
0.157593
0.159871
0.16207
0.164006
0.165602
0.166907
0.167981
0.168861
0.169577
0.170154
0.170616
0.170987
0.171291
0.171543
0.171745
0.171895
0.172003
0.172076
0.172114
0.172117
0.172086
0.172026
0.171945
0.171857
0.171781
0.171739
0.171762
0.17188
0.17212
0.172505
0.173073
0.173838
0.174823
0.176047
0.177522
0.17925
0.181232
0.183466
0.185942
0.18865
0.191578
0.194707
0.198016
0.201482
0.205077
0.208769
0.212524
0.216304
0.220068
0.223772
0.22737
0.230813
0.234051
0.23703
0.239697
0.241994
0.243865
0.245249
0.246082
0.246299
0.245828
0.244592
0.242508
0.239483
0.235411
0.230174
0.223636
0.215638
0.205996
0.194485
0.180851
0.164718
0.1458
0.123071
0.0971683
0.0620425
0.0322344
0.141544
0.150442
0.155342
0.157947
0.160204
0.162397
0.16433
0.165927
0.167237
0.168317
0.169203
0.169924
0.170506
0.170973
0.171349
0.171659
0.171917
0.172124
0.17228
0.172392
0.172469
0.172511
0.172518
0.17249
0.172433
0.172354
0.172268
0.172192
0.172152
0.172174
0.172288
0.172529
0.172914
0.173483
0.174246
0.175228
0.176447
0.177915
0.179636
0.181609
0.183833
0.1863
0.188997
0.191912
0.195028
0.198324
0.201775
0.205355
0.209033
0.212773
0.216539
0.220289
0.223981
0.227567
0.231
0.234228
0.237201
0.239862
0.242157
0.244028
0.245414
0.246252
0.246476
0.246015
0.244792
0.242723
0.239716
0.235667
0.230456
0.223948
0.215983
0.206378
0.194909
0.181321
0.16524
0.146383
0.123718
0.0979145
0.0628396
0.0330525
0.140837
0.150611
0.155619
0.158235
0.160499
0.162682
0.164597
0.166185
0.167492
0.168575
0.169467
0.170196
0.170788
0.171264
0.17165
0.171969
0.172238
0.172455
0.172621
0.172742
0.172826
0.172874
0.172888
0.172866
0.172814
0.17274
0.172658
0.172587
0.172549
0.172574
0.172692
0.172935
0.173322
0.173889
0.174647
0.175622
0.176834
0.178293
0.180004
0.181965
0.184174
0.186626
0.189309
0.192209
0.195309
0.198588
0.202023
0.205587
0.209249
0.212974
0.216725
0.220462
0.224142
0.227718
0.231143
0.234365
0.237333
0.239993
0.242289
0.244163
0.245555
0.246403
0.24664
0.246194
0.244991
0.242944
0.239961
0.235939
0.23076
0.224286
0.216361
0.206801
0.19538
0.181847
0.165828
0.147043
0.124453
0.0987724
0.0637629
0.0341158
)
;

boundaryField
{
    inlet
    {
        type            zeroGradient;
    }
    outlet
    {
        type            fixedValue;
        value           uniform 0;
    }
    fixedWalls
    {
        type            zeroGradient;
    }
    frontAndBack
    {
        type            empty;
    }
}


// ************************************************************************* //
