/*--------------------------------*- C++ -*----------------------------------*\
| =========                 |                                                 |
| \\      /  F ield         | OpenFOAM: The Open Source CFD Toolbox           |
|  \\    /   O peration     | Version:  v1912                                 |
|   \\  /    A nd           | Website:  www.openfoam.com                      |
|    \\/     M anipulation  |                                                 |
\*---------------------------------------------------------------------------*/
FoamFile
{
    version     2.0;
    format      ascii;
    class       surfaceScalarField;
    location    "100";
    object      phi;
}
// * * * * * * * * * * * * * * * * * * * * * * * * * * * * * * * * * * * * * //

dimensions      [0 3 -1 0 0 0 0];
oriented        oriented;


internalField   nonuniform List<scalar> 
3895
(
0.000812968
0.000383208
0.000495784
0.000317184
0.000248445
0.000247339
6.45728e-05
0.000183872
-5.63913e-05
0.000120964
-0.000113114
5.6723e-05
-0.000118905
5.79076e-06
-9.92778e-05
-1.96272e-05
-9.94231e-05
1.45262e-07
-9.24665e-05
-6.95662e-06
-8.03213e-05
-1.21451e-05
-8.43184e-05
3.99709e-06
-9.9736e-05
1.54175e-05
-0.000110052
1.0316e-05
-0.000115329
5.27709e-06
-0.000123147
7.81797e-06
-0.00013501
1.18628e-05
-0.000149029
1.4019e-05
-0.000163996
1.49668e-05
-0.000179812
1.58168e-05
-0.00019687
1.70573e-05
-0.000215785
1.89152e-05
-0.000237273
2.14885e-05
-0.000262012
2.47386e-05
-0.000290471
2.84592e-05
-0.000322766
3.22947e-05
-0.000358578
3.58126e-05
-0.000397175
3.85962e-05
-0.000437418
4.02436e-05
-0.00047793
4.05116e-05
-0.000517277
3.93474e-05
-0.000554125
3.68475e-05
-0.000587343
3.32185e-05
-0.00061607
2.87268e-05
-0.000639718
2.36477e-05
-0.000657953
1.82359e-05
-0.000670678
1.27244e-05
-0.000677908
7.22997e-06
-0.00067917
1.26258e-06
-0.000676367
-2.80308e-06
-0.000669976
-6.39137e-06
-0.000660123
-9.85277e-06
-0.000646921
-1.32025e-05
-0.000630424
-1.64971e-05
-0.000610658
-1.9766e-05
-0.000587642
-2.30153e-05
-0.000561407
-2.62357e-05
-0.000531997
-2.94091e-05
-0.000499486
-3.25119e-05
-0.000463968
-3.55179e-05
-0.000425568
-3.83995e-05
-0.00038444
-4.1128e-05
-0.000340763
-4.36774e-05
-0.00029472
-4.60432e-05
-0.000246518
-4.82017e-05
-0.000196406
-5.01115e-05
-0.000144653
-5.1753e-05
-9.15475e-05
-5.31059e-05
-3.7403e-05
-5.41445e-05
1.74833e-05
-5.48863e-05
7.29307e-05
-5.54474e-05
0.000128728
-5.57972e-05
0.000184539
-5.58112e-05
0.000240061
-5.55225e-05
0.000295018
-5.49565e-05
0.000349155
-5.41368e-05
0.000402242
-5.30877e-05
0.000454078
-5.18357e-05
0.000504488
-5.04102e-05
0.000553332
-4.88437e-05
0.000600507
-4.71745e-05
0.000645956
-4.5449e-05
0.000689686
-4.37301e-05
0.000731792
-4.21066e-05
0.000772531
-4.07385e-05
0.000812397
-3.98659e-05
0.000852493
-4.00964e-05
0.000894948
-4.2455e-05
0.000943282
-4.83335e-05
-7.32864e-05
0.00108704
0.000351975
0.00104377
0.000360453
0.000925105
0.000366007
0.000762394
0.000346583
0.000579168
0.00030419
0.000384438
0.000251452
0.000194293
0.000195936
3.89321e-05
0.000135734
-4.3801e-05
8.28784e-05
-7.99132e-05
2.91556e-05
-9.01993e-05
-1.85903e-06
-8.11553e-05
-5.04689e-06
-8.55077e-05
1.977e-05
-9.36937e-05
1.8502e-05
-9.96853e-05
1.12687e-05
-0.000110683
1.88155e-05
-0.000123256
2.44362e-05
-0.000136002
2.67651e-05
-0.000148613
2.75779e-05
-0.000161596
2.8799e-05
-0.000175262
3.07232e-05
-0.000189637
3.32904e-05
-0.000204638
3.64901e-05
-0.000220166
4.02661e-05
-0.000236067
4.43602e-05
-0.00025206
4.82874e-05
-0.000267692
5.14453e-05
-0.000282362
5.32655e-05
-0.00029545
5.33323e-05
-0.000306408
5.1469e-05
-0.00031482
4.77594e-05
-0.000320451
4.24785e-05
-0.000323253
3.60204e-05
-0.00032335
2.88238e-05
-0.000321016
2.13141e-05
-0.000316628
1.38478e-05
-0.000310637
6.73293e-06
-0.000304085
6.78324e-07
-0.000296747
-6.07566e-06
-0.000287919
-1.16307e-05
-0.000277428
-1.68822e-05
-0.000265152
-2.21292e-05
-0.00025092
-2.74346e-05
-0.000234612
-3.28047e-05
-0.000216157
-3.82212e-05
-0.000195521
-4.36514e-05
-0.000172703
-4.9054e-05
-0.000147729
-5.43827e-05
-0.000120652
-5.9589e-05
-9.15462e-05
-6.46235e-05
-6.05081e-05
-6.94375e-05
-2.76518e-05
-7.39843e-05
6.89086e-06
-7.82201e-05
4.29476e-05
-8.21e-05
8.03302e-05
-8.55842e-05
0.000118857
-8.8638e-05
0.000158333
-9.12295e-05
0.000198562
-9.33345e-05
0.000239356
-9.49384e-05
0.000280515
-9.6046e-05
0.000321743
-9.66746e-05
0.000362764
-9.68182e-05
0.000403418
-9.64652e-05
0.000443528
-9.56331e-05
0.000482924
-9.43517e-05
0.000521443
-9.26567e-05
0.000558944
-9.05887e-05
0.000595302
-8.81938e-05
0.000630416
-8.55233e-05
0.000664207
-8.26348e-05
0.000696626
-7.95936e-05
0.000727655
-7.64778e-05
0.000757312
-7.33874e-05
0.000785665
-7.04593e-05
0.000812832
-6.79063e-05
0.000839018
-6.60514e-05
0.000864438
-6.55164e-05
0.000889135
-6.71518e-05
0.000913006
-7.22048e-05
-8.8708e-05
0.000976118
0.000307771
0.00102675
0.000309824
0.00105928
0.000333473
0.0010521
0.000353766
0.000998541
0.000357749
0.00090332
0.000346673
0.000775471
0.000323785
0.00062175
0.000289455
0.000459287
0.000245341
0.000293118
0.000195325
0.000145293
0.000145966
4.19927e-05
9.82539e-05
-1.48077e-06
6.32434e-05
-1.79394e-05
3.49606e-05
-2.81223e-05
2.14517e-05
-3.53571e-05
2.60503e-05
-4.39181e-05
3.29972e-05
-5.28541e-05
3.57011e-05
-6.10287e-05
3.57526e-05
-6.82056e-05
3.59758e-05
-7.45453e-05
3.70629e-05
-7.99484e-05
3.86934e-05
-8.40599e-05
4.06017e-05
-8.66636e-05
4.28699e-05
-8.77074e-05
4.54039e-05
-8.72566e-05
4.78366e-05
-8.54472e-05
4.96359e-05
-8.24622e-05
5.02805e-05
-7.85239e-05
4.93939e-05
-7.38697e-05
4.68149e-05
-6.87123e-05
4.2602e-05
-6.32156e-05
3.69819e-05
-5.74784e-05
3.02832e-05
-5.1523e-05
2.28684e-05
-4.53077e-05
1.50987e-05
-3.87435e-05
7.28373e-06
-3.13905e-05
-6.20144e-07
-2.29948e-05
-7.71734e-06
-1.4168e-05
-1.49025e-05
-4.00221e-06
-2.17965e-05
7.6564e-06
-2.85408e-05
2.07961e-05
-3.52689e-05
3.53979e-05
-4.20365e-05
5.14428e-05
-4.88496e-05
6.89074e-05
-5.56857e-05
8.77609e-05
-6.2505e-05
0.000107964
-6.92567e-05
0.000129465
-7.5884e-05
0.000152202
-8.23264e-05
0.000176101
-8.85222e-05
0.000201073
-9.44101e-05
0.00022702
-9.99304e-05
0.000253826
-0.000105026
0.000281369
-0.000109643
0.000309516
-0.000113732
0.000338129
-0.000117251
0.000367064
-0.000120164
0.000396176
-0.000122447
0.000425323
-0.000124085
0.000454351
-0.000125074
0.0004831
-0.000125424
0.000511425
-0.000125143
0.000539207
-0.000124247
0.000566338
-0.000122764
0.00059272
-0.000120733
0.000618267
-0.000118204
0.000642909
-0.00011523
0.000666589
-0.000111874
0.000689267
-0.000108201
0.000710917
-0.000104285
0.000731529
-0.000100205
0.000751104
-9.60532e-05
0.000769656
-9.19393e-05
0.000787203
-8.80063e-05
0.000803748
-8.44509e-05
0.000819264
-8.15674e-05
0.000833524
-7.97772e-05
0.000846153
-7.97801e-05
0.000855962
-8.20146e-05
-9.08307e-05
0.000857366
0.000272963
0.000897585
0.000269605
0.00094973
0.000281328
0.0010025
0.000300995
0.0010409
0.000319348
0.00105503
0.000332542
0.00103971
0.000339104
0.000991841
0.000337327
0.000912116
0.000325067
0.000804852
0.000302589
0.00067809
0.000272727
0.000539296
0.000237048
0.000404744
0.000197795
0.000283445
0.000156259
0.000186998
0.000117899
0.000126051
8.69971e-05
9.6343e-05
6.27054e-05
8.30074e-05
4.90367e-05
7.52396e-05
4.35203e-05
6.93907e-05
4.18248e-05
6.51618e-05
4.12918e-05
6.30514e-05
4.08039e-05
6.33233e-05
4.03298e-05
6.60575e-05
4.01356e-05
7.1189e-05
4.02725e-05
7.85113e-05
4.05143e-05
8.76689e-05
4.04782e-05
9.81898e-05
3.97596e-05
0.000109553
3.80309e-05
0.000121267
3.51006e-05
0.000132937
3.09319e-05
0.000144301
2.5618e-05
0.000155235
1.93493e-05
0.000165756
1.23475e-05
0.000175985
4.86909e-06
0.000186153
-2.88398e-06
0.000196278
-1.07452e-05
0.000207095
-1.85345e-05
0.000218487
-2.62944e-05
0.000230671
-3.39802e-05
0.000243736
-4.16057e-05
0.00025768
-4.92127e-05
0.000272464
-5.68203e-05
0.000288035
-6.44213e-05
0.000304338
-7.19884e-05
0.000321312
-7.94791e-05
0.000338896
-8.68407e-05
0.000357025
-9.40128e-05
0.00037563
-0.000100931
0.000394637
-0.00010753
0.000413968
-0.000113741
0.00043354
-0.000119502
0.000453262
-0.000124749
0.000473045
-0.000129426
0.000492794
-0.000133481
0.000512415
-0.000136872
0.000531816
-0.000139565
0.000550905
-0.000141536
0.000569596
-0.000142776
0.000587806
-0.000143284
0.000605457
-0.000143075
0.000622482
-0.000142168
0.000638829
-0.000140595
0.000654461
-0.000138395
0.000669349
-0.000135621
0.000683477
-0.000132332
0.000696839
-0.000128592
0.000709439
-0.000124474
0.000721289
-0.000120051
0.000732406
-0.000115403
0.000742814
-0.000110613
0.000752534
-0.000105773
0.000761579
-0.000100985
0.000769946
-9.63731e-05
0.000777588
-9.20932e-05
0.000784387
-8.83665e-05
0.00079005
-8.54397e-05
0.00079409
-8.38205e-05
0.00079556
-8.34847e-05
-8.65567e-05
0.000759119
0.000239878
0.000789424
0.0002393
0.000826149
0.000244603
0.000871821
0.000255322
0.000922987
0.000268182
0.000973692
0.000281837
0.00101714
0.000295659
0.00104662
0.000307844
0.00105603
0.000315653
0.00104149
0.000317137
0.00100222
0.000311995
0.000938822
0.000300445
0.00085466
0.000281957
0.000754435
0.000256485
0.000645966
0.000226367
0.000538819
0.000194144
0.000446253
0.000155271
0.000374582
0.000120708
0.000324371
9.37313e-05
0.000292268
7.39281e-05
0.000273337
6.02224e-05
0.000263024
5.11166e-05
0.000258275
4.50787e-05
0.000257529
4.08822e-05
0.000260105
3.76962e-05
0.000265628
3.49915e-05
0.000273704
3.24018e-05
0.000283836
2.96285e-05
0.000295453
2.64132e-05
0.000307995
2.25589e-05
0.000320969
1.7958e-05
0.000334001
1.25861e-05
0.000346826
6.52427e-06
0.000359363
-1.89627e-07
0.000371593
-7.36112e-06
0.000383646
-1.49367e-05
0.000395641
-2.27407e-05
0.000407765
-3.06579e-05
0.000420095
-3.86248e-05
0.000432713
-4.65978e-05
0.000445659
-5.45514e-05
0.000458923
-6.24773e-05
0.000472467
-7.0364e-05
0.000486234
-7.8188e-05
0.000500159
-8.59141e-05
0.000514177
-9.3497e-05
0.000528219
-0.000100883
0.000542218
-0.000108011
0.000556105
-0.000114818
0.000569812
-0.000121237
0.000583274
-0.000127203
0.000596422
-0.00013265
0.000609192
-0.000137519
0.000621522
-0.000141755
0.000633352
-0.000145311
0.000644628
-0.000148148
0.000655303
-0.00015024
0.000665336
-0.000151569
0.000674695
-0.000152135
0.000683356
-0.000151946
0.000691305
-0.000151024
0.00069854
-0.000149402
0.000705068
-0.000147123
0.00071091
-0.000144238
0.000716096
-0.000140807
0.000720663
-0.000136899
0.000724654
-0.000132584
0.000728117
-0.000127937
0.000731101
-0.000123035
0.000733654
-0.000117956
0.00073582
-0.000112779
0.000737635
-0.000107587
0.000739116
-0.000102466
0.000740255
-9.75123e-05
0.000740994
-9.2832e-05
0.000741199
-8.85719e-05
0.000740596
-8.48358e-05
0.000738724
-8.19491e-05
0.000734954
-7.97149e-05
-7.85339e-05
0.000671951
0.000208764
0.000700417
0.000210834
0.000729688
0.000215332
0.000762586
0.000222424
0.000800422
0.000230346
0.000843525
0.000238734
0.000890871
0.000248313
0.000939651
0.000259064
0.000985427
0.000269877
0.00102321
0.000279359
0.00104875
0.000286449
0.00105892
0.000290274
0.00105125
0.000289626
0.00102433
0.000283404
0.000979032
0.000271669
0.000918041
0.000255135
0.000848568
0.000224744
0.000777281
0.000191995
0.000709492
0.000161521
0.000649269
0.000134151
0.000599175
0.000110316
0.000560159
9.01331e-05
0.000531761
7.3476e-05
0.000512619
6.00247e-05
0.000501024
4.92912e-05
0.000495346
4.06695e-05
0.000494229
3.35184e-05
0.000496611
2.72468e-05
0.000501653
2.13715e-05
0.00050867
1.55421e-05
0.000517088
9.53912e-06
0.00052647
3.20467e-06
0.000536407
-3.41258e-06
0.000546615
-1.03976e-05
0.000556994
-1.77402e-05
0.000567414
-2.53565e-05
0.000577835
-3.31618e-05
0.000588255
-4.10786e-05
0.000598678
-4.90477e-05
0.000609103
-5.70224e-05
0.000619516
-6.49647e-05
0.000629884
-7.28455e-05
0.000640156
-8.06362e-05
0.000650271
-8.83031e-05
0.000660163
-9.58055e-05
0.000669762
-0.000103096
0.000679
-0.000110121
0.00068781
-0.000116821
0.000696128
-0.000123136
0.000703894
-0.000129004
0.000711053
-0.000134362
0.000717554
-0.000139151
0.000723354
-0.000143318
0.000728415
-0.000146817
0.000732711
-0.000149607
0.000736224
-0.000151661
0.000738946
-0.000152962
0.000740881
-0.000153504
0.000742042
-0.000153296
0.000742456
-0.00015236
0.000742158
-0.000150726
0.000741195
-0.000148439
0.000739621
-0.000145549
0.000737501
-0.000142117
0.000734902
-0.000138209
0.000731896
-0.000133893
0.000728556
-0.000129244
0.000724953
-0.000124334
0.000721154
-0.000119236
0.00071722
-0.000114022
0.000713203
-0.000108762
0.000709142
-0.000103525
0.000705054
-9.83782e-05
0.000700931
-9.33891e-05
0.000696716
-8.86175e-05
0.000692288
-8.41437e-05
0.000687413
-7.9961e-05
0.000681686
-7.62215e-05
0.000674699
-7.27288e-05
-6.83932e-05
0.000593749
0.000180651
0.000620763
0.000183821
0.000647706
0.000188388
0.000675574
0.000194556
0.000704934
0.000200987
0.000736672
0.000206995
0.000771951
0.000213034
0.000811407
0.000219609
0.000854546
0.000226737
0.000899722
0.000234183
0.000944507
0.000241664
0.000986076
0.000248705
0.00102128
0.000254421
0.001047
0.000257689
0.00106087
0.000257796
0.00106157
0.000254436
0.00104933
0.00023698
0.00102629
0.000215041
0.000995112
0.000192695
0.000958682
0.000170581
0.000919793
0.000149205
0.000880986
0.000128941
0.000844404
0.000110058
0.000811694
9.27346e-05
0.000783937
7.70474e-05
0.000761636
6.29709e-05
0.000744766
5.03885e-05
0.0007329
3.91126e-05
0.000725363
2.89084e-05
0.000721383
1.95221e-05
0.000720214
1.07083e-05
0.00072118
2.23891e-06
0.000723754
-5.98697e-06
0.000727478
-1.41214e-05
0.000731981
-2.22435e-05
0.000737009
-3.03839e-05
0.000742376
-3.85294e-05
0.000747947
-4.66495e-05
0.00075361
-5.47108e-05
0.000759271
-6.26832e-05
0.000764846
-7.05394e-05
0.000770254
-7.82534e-05
0.000775415
-8.57975e-05
0.00078025
-9.31382e-05
0.000784681
-0.000100236
0.000788631
-0.000107046
0.000792029
-0.000113518
0.000794806
-0.000119599
0.000796903
-0.000125233
0.000798266
-0.000130367
0.000798853
-0.000134948
0.000798629
-0.000138928
0.000797573
-0.000142263
0.000795675
-0.000144919
0.000792937
-0.000146869
0.000789376
-0.0001481
0.00078502
-0.000148605
0.000779911
-0.000148395
0.000774102
-0.000147488
0.000767657
-0.000145915
0.00076065
-0.000143718
0.000753159
-0.000140948
0.00074527
-0.00013766
0.000737068
-0.000133916
0.000728643
-0.000129783
0.000720077
-0.000125327
0.000711451
-0.000120618
0.000702838
-0.000115722
0.000694306
-0.000110704
0.000685909
-0.000105626
0.000677693
-0.000100546
0.000669689
-9.55208e-05
0.000661907
-9.05968e-05
0.000654336
-8.58181e-05
0.000646925
-8.12061e-05
0.000639567
-7.67857e-05
0.000632077
-7.24717e-05
0.000624098
-6.8242e-05
0.00061538
-6.40109e-05
-5.73353e-05
0.000524266
0.000155647
0.000548875
0.000159212
0.000573649
0.000163614
0.000599091
0.000169114
0.000625152
0.000174926
0.000651814
0.000180333
0.000679548
0.0001853
0.000709127
0.000190031
0.000741268
0.000194596
0.000776401
0.00019905
0.000814513
0.000203553
0.000855016
0.000208202
0.000896658
0.000212779
0.000937588
0.000216759
0.000975725
0.000219659
0.00100909
0.000221074
0.00103486
0.00021121
0.00105234
0.000197554
0.00106185
0.000183189
0.00106407
0.00016836
0.00105995
0.000153325
0.00105058
0.000138309
0.00103713
0.000123505
0.0010208
0.000109063
0.00100277
9.50868e-05
0.000984108
8.16286e-05
0.000965794
6.87021e-05
0.000948611
5.62956e-05
0.000933135
4.43849e-05
0.000919715
3.29413e-05
0.000908496
2.19276e-05
0.000899425
1.13104e-05
0.000892369
1.06839e-06
0.0008872
-8.95211e-06
0.000883581
-1.86242e-05
0.000881113
-2.79167e-05
0.000879459
-3.68751e-05
0.000878342
-4.55321e-05
0.000877542
-5.39114e-05
0.000876886
-6.20275e-05
0.000876231
-6.98838e-05
0.00087545
-7.74726e-05
0.00087443
-8.47775e-05
0.000873066
-9.17741e-05
0.000871261
-9.84313e-05
0.000868928
-0.000104713
0.00086599
-0.00011058
0.000862382
-0.000115991
0.000858052
-0.000120903
0.000852959
-0.000125275
0.00084708
-0.000129069
0.000840403
-0.000132251
0.000832934
-0.000134794
0.000824692
-0.000136677
0.000815712
-0.000137889
0.000806043
-0.00013843
0.000795746
-0.000138308
0.000784894
-0.000137543
0.00077357
-0.000136163
0.000761862
-0.000134207
0.000749863
-0.000131719
0.000737666
-0.000128751
0.000725364
-0.000125358
0.000713045
-0.000121597
0.000700792
-0.000117529
0.00068868
-0.000113215
0.000676775
-0.000108714
0.000665136
-0.000104083
0.00065381
-9.93777e-05
0.000642835
-9.46506e-05
0.000632238
-8.9949e-05
0.000622032
-8.53154e-05
0.000612219
-8.07834e-05
0.000602779
-7.63777e-05
0.000593666
-7.20928e-05
0.000584789
-6.79093e-05
0.000576013
-6.36954e-05
0.00056702
-5.92492e-05
0.000557684
-5.46746e-05
-4.62613e-05
0.000462815
0.000133507
0.000484786
0.000137241
0.000507022
0.000141378
0.000529976
0.00014616
0.000553634
0.000151269
0.000577765
0.000156201
0.000602293
0.000160772
0.000627337
0.000164987
0.000653155
0.000168778
0.000680136
0.000172069
0.000708759
0.000174929
0.000739453
0.000177508
0.000772387
0.000179845
0.000807327
0.000181819
0.00084367
0.000183316
0.000880523
0.000184221
0.000915247
0.000176486
0.000946559
0.000166243
0.0009739
0.000155848
0.000996968
0.000145293
0.00101568
0.000134616
0.00103011
0.000123871
0.0010405
0.000113116
0.00104716
0.000102408
0.00105046
9.17884e-05
0.00105081
8.12723e-05
0.00104866
7.08544e-05
0.00104444
6.05178e-05
0.00103858
5.0245e-05
0.00103149
4.00261e-05
0.00102356
2.98632e-05
0.0010151
1.97691e-05
0.00100637
9.79892e-06
0.000997458
-4.14499e-08
0.000988748
-9.9139e-06
0.000980369
-1.95374e-05
0.000972415
-2.89211e-05
0.000964875
-3.79929e-05
0.000957671
-4.6707e-05
0.000950679
-5.50353e-05
0.000943756
-6.29609e-05
0.000936757
-7.04741e-05
0.000929548
-7.75679e-05
0.000922008
-8.42341e-05
0.000914037
-9.04607e-05
0.000905556
-9.62313e-05
0.0008965
-0.000101525
0.000886828
-0.000106318
0.00087651
-0.000110585
0.000865537
-0.000114301
0.000853913
-0.000117445
0.000841661
-0.000119999
0.000828817
-0.000121949
0.000815432
-0.000123292
0.00080157
-0.000124028
0.000787308
-0.000124167
0.000772728
-0.000123728
0.000757919
-0.000122734
0.000742974
-0.000121218
0.000727984
-0.000119217
0.000713036
-0.000116772
0.000698213
-0.000113929
0.000683591
-0.000110735
0.000669236
-0.000107242
0.000655205
-0.000103499
0.000641546
-9.95564e-05
0.000628298
-9.54654e-05
0.00061549
-9.12746e-05
0.000603143
-8.70308e-05
0.00059127
-8.27779e-05
0.000579877
-7.85558e-05
0.000568961
-7.43989e-05
0.000558509
-7.03316e-05
0.000548497
-6.63661e-05
0.000538886
-6.24814e-05
0.0005296
-5.8624e-05
0.000520551
-5.46456e-05
0.000511464
-5.01628e-05
0.000502314
-4.55241e-05
-3.58288e-05
0.000408523
0.000113947
0.000428001
0.000117763
0.00044776
0.000121619
0.00046817
0.00012575
0.000489286
0.000130153
0.000510993
0.000134494
0.000533191
0.000138574
0.000555798
0.00014238
0.00057873
0.000145846
0.000601964
0.000148835
0.000625609
0.000151285
0.000649901
0.000153216
0.000675124
0.000154622
0.000701506
0.000155437
0.000729183
0.000155639
0.000758147
0.000155257
0.000786901
0.000147732
0.000814721
0.000138423
0.000841234
0.000129335
0.000866097
0.000120429
0.000889037
0.000111677
0.000909854
0.000103054
0.000928428
9.45427e-05
0.000944707
8.61295e-05
0.000958698
7.77976e-05
0.000970449
6.9521e-05
0.000980038
6.1265e-05
0.000987564
5.29925e-05
0.000993137
4.46719e-05
0.00099688
3.62828e-05
0.000998923
2.78202e-05
0.000999396
1.92961e-05
0.000998443
1.07517e-05
0.000996128
2.27332e-06
0.000992397
-6.18279e-06
0.000987345
-1.44846e-05
0.000981067
-2.26431e-05
0.000973692
-3.06179e-05
0.000965348
-3.83633e-05
0.000956153
-4.58403e-05
0.000946206
-5.30142e-05
0.000935586
-5.98536e-05
0.000924347
-6.63298e-05
0.000912529
-7.24156e-05
0.000900154
-7.80855e-05
0.000887237
-8.3315e-05
0.000873794
-8.80811e-05
0.000859839
-9.23631e-05
0.000845397
-9.61425e-05
0.0008305
-9.94045e-05
0.000815192
-0.000102138
0.000799528
-0.000104335
0.000783574
-0.000105995
0.000767402
-0.00010712
0.000751092
-0.000107717
0.000734724
-0.0001078
0.000718383
-0.000107386
0.000702146
-0.000106498
0.00068609
-0.000105162
0.000670281
-0.000103408
0.00065478
-0.00010127
0.000639636
-9.87853e-05
0.000624893
-9.59922e-05
0.000610583
-9.2932e-05
0.000596732
-8.96472e-05
0.000583357
-8.61809e-05
0.000570468
-8.25766e-05
0.000558071
-7.88773e-05
0.000546164
-7.51245e-05
0.000534744
-7.13573e-05
0.000523799
-6.76113e-05
0.000513317
-6.39166e-05
0.000503278
-6.02929e-05
0.000493658
-5.67459e-05
0.000484425
-5.32484e-05
0.000475524
-4.97227e-05
0.000466904
-4.60257e-05
0.000458349
-4.16081e-05
0.000449901
-3.70765e-05
-2.64985e-05
0.000360569
9.66987e-05
0.000377774
0.000100557
0.00039528
0.000104113
0.000413355
0.000107676
0.000432038
0.000111469
0.000451291
0.000115241
0.000471086
0.000118778
0.00049138
0.000122087
0.000512077
0.000125149
0.000533057
0.000127855
0.000554221
0.00013012
0.000575529
0.000131908
0.00059699
0.000133161
0.00061865
0.000133777
0.000640598
0.000133692
0.000662942
0.000132913
0.000684779
0.000125895
0.000705861
0.00011734
0.000726166
0.000109031
0.000745624
0.000100971
0.00076414
9.31605e-05
0.00078161
8.55832e-05
0.000797938
7.82153e-05
0.000813038
7.10291e-05
0.000826845
6.39914e-05
0.000839304
5.70615e-05
0.000850376
5.01932e-05
0.000860028
4.33405e-05
0.000868236
3.64636e-05
0.000874985
2.9534e-05
0.000880267
2.2538e-05
0.000884084
1.54792e-05
0.000886456
8.38017e-06
0.00088744
1.28863e-06
0.000887031
-5.77347e-06
0.000885299
-1.27529e-05
0.000882268
-1.96116e-05
0.000877969
-2.63188e-05
0.000872443
-3.28377e-05
0.000865738
-3.91348e-05
0.000857905
-4.51814e-05
0.000849004
-5.09529e-05
0.000839101
-5.64265e-05
0.000828267
-6.15815e-05
0.000816579
-6.63978e-05
0.00080412
-7.08561e-05
0.000790977
-7.49379e-05
0.00077724
-7.86261e-05
0.000763002
-8.19045e-05
0.000748357
-8.47594e-05
0.000733398
-8.71793e-05
0.000718218
-8.91556e-05
0.000702906
-9.06829e-05
0.000687546
-9.17595e-05
0.000672216
-9.23872e-05
0.000656988
-9.25721e-05
0.000641925
-9.23242e-05
0.000627085
-9.16579e-05
0.000612515
-9.05919e-05
0.000598256
-8.91488e-05
0.000584341
-8.73555e-05
0.000570798
-8.52422e-05
0.000557648
-8.28421e-05
0.000544907
-8.01909e-05
0.000532586
-7.73264e-05
0.000520692
-7.4287e-05
0.000509228
-7.1112e-05
0.000498191
-6.78402e-05
0.000487575
-6.45092e-05
0.000477373
-6.11548e-05
0.000467571
-5.78093e-05
0.000458154
-5.44999e-05
0.000449106
-5.12442e-05
0.000440404
-4.80448e-05
0.000432029
-4.48735e-05
0.000423946
-4.16393e-05
0.000416132
-3.82111e-05
0.000408449
-3.39255e-05
0.000400926
-2.95539e-05
-1.85926e-05
0.000318218
8.15131e-05
0.000333376
8.53996e-05
0.000348863
8.86257e-05
0.000364858
9.16813e-05
0.000381365
9.49624e-05
0.000398371
9.82346e-05
0.000415875
0.000101275
0.000433858
0.000104103
0.000452278
0.000106728
0.000471061
0.000109072
0.000490117
0.000111064
0.000509353
0.000112673
0.000528671
0.000113843
0.000547972
0.000114475
0.000567179
0.000114485
0.000586255
0.000113837
0.000604382
0.000107768
0.000621408
0.000100314
0.00063742
9.30192e-05
0.000652479
8.59123e-05
0.000666625
7.90144e-05
0.000679878
7.23303e-05
0.000692241
6.58519e-05
0.000703707
5.9563e-05
0.00071426
5.34386e-05
0.000723876
4.74451e-05
0.000732527
4.15426e-05
0.000740177
3.56903e-05
0.000746789
2.9852e-05
0.000752322
2.40007e-05
0.000756739
1.81212e-05
0.000760006
1.22124e-05
0.000762097
6.28845e-06
0.000763033
3.52555e-07
0.000762816
-5.55626e-06
0.000761492
-1.14288e-05
0.000759084
-1.72039e-05
0.000755623
-2.28578e-05
0.000751149
-2.8363e-05
0.000745707
-3.36926e-05
0.000739348
-3.88233e-05
0.00073213
-4.37345e-05
0.000724111
-4.84075e-05
0.000715354
-5.28242e-05
0.000705923
-5.69671e-05
0.000695886
-6.08187e-05
0.00068531
-6.4362e-05
0.000674264
-6.75801e-05
0.000662817
-7.04573e-05
0.000651036
-7.29786e-05
0.000638987
-7.5131e-05
0.000626735
-7.69035e-05
0.00061434
-7.82876e-05
0.000601859
-7.92782e-05
0.000589345
-7.98735e-05
0.000576849
-8.0076e-05
0.000564417
-7.98922e-05
0.000552093
-7.93334e-05
0.000539916
-7.84149e-05
0.000527923
-7.71566e-05
0.00051615
-7.55819e-05
0.000504625
-7.37175e-05
0.000493376
-7.15926e-05
0.000482423
-6.92384e-05
0.000471784
-6.66875e-05
0.000461471
-6.39733e-05
0.000451489
-6.113e-05
0.00044184
-5.81916e-05
0.000432523
-5.51918e-05
0.000423531
-5.21629e-05
0.000414856
-4.91349e-05
0.00040649
-4.61334e-05
0.000398421
-4.31752e-05
0.000390638
-4.02625e-05
0.000383134
-3.73687e-05
0.000375897
-3.44024e-05
0.000368919
-3.12333e-05
0.000362176
-2.71821e-05
0.000355546
-2.29241e-05
-1.22698e-05
0.00028082
6.8166e-05
0.000294151
7.20692e-05
0.000307839
7.49377e-05
0.000321981
7.75387e-05
0.000336561
8.03822e-05
0.000351583
8.32134e-05
0.000367041
8.58168e-05
0.000382918
8.82256e-05
0.000399188
9.04587e-05
0.000415811
9.24492e-05
0.000432735
9.41398e-05
0.000449898
9.55092e-05
0.000467223
9.65191e-05
0.000484605
9.70928e-05
0.000501933
9.7157e-05
0.0005191
9.667e-05
0.000535299
9.15698e-05
0.000550341
8.52712e-05
0.000564279
7.90807e-05
0.00057717
7.30218e-05
0.000589067
6.71169e-05
0.000600022
6.1376e-05
0.000610075
5.57986e-05
0.000619261
5.03764e-05
0.000627607
4.50934e-05
0.000635127
3.99251e-05
0.000641828
3.48413e-05
0.000647708
2.98099e-05
0.000652758
2.48022e-05
0.000656963
1.9796e-05
0.000660306
1.47783e-05
0.000662772
9.74604e-06
0.000664355
4.70582e-06
0.000665047
-3.39842e-07
0.000664858
-5.36738e-06
0.000663794
-1.0364e-05
0.000661873
-1.52838e-05
0.000659119
-2.01031e-05
0.000655556
-2.48006e-05
0.000651218
-2.93548e-05
0.000646141
-3.37456e-05
0.000640362
-3.79555e-05
0.000633922
-4.1968e-05
0.000626865
-4.5767e-05
0.000619235
-4.93366e-05
0.000611076
-5.26605e-05
0.000602437
-5.57227e-05
0.000593364
-5.8507e-05
0.000583905
-6.09979e-05
0.000574107
-6.3181e-05
0.000564019
-6.50432e-05
0.000553689
-6.65736e-05
0.000543166
-6.77641e-05
0.000532497
-6.86096e-05
0.000521732
-6.91087e-05
0.00051092
-6.92637e-05
0.000500108
-6.90808e-05
0.000489345
-6.85697e-05
0.000478673
-6.77437e-05
0.000468135
-6.66187e-05
0.000457767
-6.52132e-05
0.000447597
-6.35481e-05
0.000437651
-6.16459e-05
0.000427943
-5.95311e-05
0.000418486
-5.723e-05
0.000409284
-5.47709e-05
0.000400337
-5.21839e-05
0.000391646
-4.95005e-05
0.000383208
-4.67533e-05
0.00037502
-4.39746e-05
0.00036708
-4.11951e-05
0.000359388
-3.84419e-05
0.000351947
-3.57334e-05
0.000344759
-3.30751e-05
0.000337833
-3.04422e-05
0.000331189
-2.77583e-05
0.00032483
-2.48752e-05
0.000318864
-2.12159e-05
0.000313005
-1.70652e-05
-7.32807e-06
0.000247796
5.64557e-05
0.000259509
6.03567e-05
0.000271602
6.28444e-05
0.000284096
6.50451e-05
0.000296967
6.75112e-05
0.000310234
6.99467e-05
0.000323888
7.21623e-05
0.000337907
7.42068e-05
0.000352266
7.60997e-05
0.000366934
7.7781e-05
0.000381873
7.92005e-05
0.000397042
8.03409e-05
0.000412386
8.11748e-05
0.000427835
8.16439e-05
0.000443301
8.16909e-05
0.00045869
8.12809e-05
0.000473262
7.69983e-05
0.000486822
7.17105e-05
0.000499392
6.65112e-05
0.000510997
6.14169e-05
0.000521669
5.64443e-05
0.000531445
5.16007e-05
0.000540358
4.68856e-05
0.000548442
4.22922e-05
0.000555727
3.7808e-05
0.000562239
3.34138e-05
0.000567994
2.90855e-05
0.000573007
2.47978e-05
0.000577281
2.05278e-05
0.000580819
1.62577e-05
0.00058362
1.19775e-05
0.000585681
7.68455e-06
0.000587005
3.38195e-06
0.000587587
-9.21353e-07
0.000587427
-5.2075e-06
0.000586527
-9.46358e-06
0.0005849
-1.36574e-05
0.000582564
-1.77665e-05
0.000579536
-2.1773e-05
0.00057584
-2.56589e-05
0.000571501
-2.94071e-05
0.000566548
-3.3002e-05
0.000561009
-3.64292e-05
0.000554917
-3.96744e-05
0.000548304
-4.27234e-05
0.000541205
-4.55617e-05
0.000533657
-4.8175e-05
0.000525699
-5.05492e-05
0.000517372
-5.26709e-05
0.000508719
-5.4528e-05
0.000499786
-5.61097e-05
0.000490619
-5.74074e-05
0.00048127
-5.84147e-05
0.000471788
-5.91277e-05
0.000462224
-5.95448e-05
0.000452627
-5.96667e-05
0.000443043
-5.9496e-05
0.000433511
-5.90376e-05
0.000424065
-5.82981e-05
0.000414732
-5.7286e-05
0.000405532
-5.60124e-05
0.000396475
-5.44913e-05
0.000387569
-5.27398e-05
0.000378817
-5.07791e-05
0.000370221
-4.86341e-05
0.000361783
-4.63336e-05
0.000353509
-4.391e-05
0.000345407
-4.13979e-05
0.000337487
-3.88332e-05
0.000329763
-3.62513e-05
0.000322253
-3.3685e-05
0.000314975
-3.11631e-05
0.000307945
-2.87043e-05
0.000301187
-2.63167e-05
0.000294718
-2.39735e-05
0.000288581
-2.16213e-05
0.000282781
-1.9075e-05
0.00027751
-1.59447e-05
0.00027238
-1.19354e-05
-3.35367e-06
0.000218637
4.62014e-05
0.000228926
5.00676e-05
0.000239609
5.21614e-05
0.000250636
5.40176e-05
0.000261993
5.61542e-05
0.000273707
5.8233e-05
0.000285765
6.01042e-05
0.000298143
6.1829e-05
0.000310819
6.34234e-05
0.000323766
6.4834e-05
0.000336949
6.60175e-05
0.00035033
6.69598e-05
0.000363866
6.76391e-05
0.000377501
6.80092e-05
0.000391168
6.80237e-05
0.000404794
6.76545e-05
0.000417731
6.4062e-05
0.000429806
5.96348e-05
0.000441035
5.52829e-05
0.000451432
5.10198e-05
0.000461018
4.68585e-05
0.000469814
4.28042e-05
0.000477845
3.88552e-05
0.000485132
3.5005e-05
0.000491698
3.12423e-05
0.000497561
2.75508e-05
0.000502736
2.39101e-05
0.000507234
2.02994e-05
0.000511062
1.66997e-05
0.000514224
1.30965e-05
0.000516719
9.48174e-06
0.000518551
5.85332e-06
0.00051972
2.21251e-06
0.000520227
-1.42797e-06
0.000520073
-5.05362e-06
0.000519262
-8.65244e-06
0.000517805
-1.22005e-05
0.000515716
-1.56777e-05
0.000513012
-1.90687e-05
0.000509711
-2.23586e-05
0.000505837
-2.55326e-05
0.000501412
-2.85772e-05
0.000496463
-3.148e-05
0.000491017
-3.42289e-05
0.000485106
-3.68119e-05
0.000478761
-3.92171e-05
0.000472019
-4.14331e-05
0.000464919
-4.34486e-05
0.000457501
-4.52531e-05
0.00044981
-4.68367e-05
0.00044189
-4.81902e-05
0.000433788
-4.93051e-05
0.000425547
-5.01735e-05
0.000417207
-5.07883e-05
0.000408805
-5.11425e-05
0.000400369
-5.12305e-05
0.00039192
-5.10478e-05
0.000383475
-5.05921e-05
0.000375041
-4.98641e-05
0.000366624
-4.88688e-05
0.000358227
-4.76158e-05
0.000349856
-4.61206e-05
0.000341521
-4.44042e-05
0.000333235
-4.24933e-05
0.00032502
-4.04194e-05
0.000316904
-3.82175e-05
0.000308919
-3.59251e-05
0.000301101
-3.35803e-05
0.000293488
-3.12201e-05
0.000286116
-2.88791e-05
0.000279018
-2.65872e-05
0.000272224
-2.43689e-05
0.000265758
-2.22378e-05
0.000259641
-2.01997e-05
0.000253888
-1.8221e-05
0.000248537
-1.62701e-05
0.000243585
-1.41226e-05
0.000239221
-1.15809e-05