/*--------------------------------*- C++ -*----------------------------------*\
| =========                 |                                                 |
| \\      /  F ield         | OpenFOAM: The Open Source CFD Toolbox           |
|  \\    /   O peration     | Version:  v1912                                 |
|   \\  /    A nd           | Website:  www.openfoam.com                      |
|    \\/     M anipulation  |                                                 |
\*---------------------------------------------------------------------------*/
FoamFile
{
    version     2.0;
    format      ascii;
    class       volVectorField;
    location    "100";
    object      U;
}
// * * * * * * * * * * * * * * * * * * * * * * * * * * * * * * * * * * * * * //

dimensions      [0 1 -1 0 0 0 0];


internalField   nonuniform List<vector> 
2000
(
(0.843125 0.195891 0)
(0.511704 0.132644 0)
(0.222206 0.0718582 0)
(0.0611618 0.0151802 7.27715e-20)
(-0.00464594 -0.0308581 1.62396e-17)
(-0.057659 -0.0464444 1.47028e-17)
(-0.0676581 -0.0363785 0)
(-0.0633091 -0.00443243 0)
(-0.0527924 0.0277824 0)
(-0.0510515 0.0238876 3.24103e-17)
(-0.0437425 0.0122666 -2.00965e-17)
(-0.0384102 0.00770653 -1.87378e-17)
(-0.0436639 0.00610064 0)
(-0.0480421 0.00577278 0)
(-0.0491756 0.0061939 -1.45114e-17)
(-0.0499907 0.0078027 0)
(-0.0526005 0.00898594 1.28617e-17)
(-0.0563823 0.00959916 -2.46597e-21)
(-0.0605781 0.00988655 1.2238e-17)
(-0.0649568 0.0101624 -5.98445e-18)
(-0.0696155 0.0105984 1.17343e-17)
(-0.0747523 0.0112802 0)
(-0.0806138 0.0122485 0)
(-0.0874504 0.0134821 6.08283e-21)
(-0.0954605 0.0148837 0)
(-0.104738 0.0162901 -5.36072e-18)
(-0.115243 0.0175039 0)
(-0.126789 0.0183332 5.15792e-18)
(-0.13906 0.0186239 0)
(-0.151644 0.0182737 0)
(-0.164095 0.0172471 0)
(-0.175989 0.0155748 1.20476e-18)
(-0.186956 0.0133392 0)
(-0.196707 0.0106544 -5.93188e-19)
(-0.205041 0.00764663 1.97757e-14)
(-0.211851 0.00444123 1.9678e-14)
(-0.21709 0.00115062 6.08504e-19)
(-0.220718 -0.0021404 -6.13116e-19)
(-0.222685 -0.00535038 0)
(-0.22309 -0.0083072 2.58758e-18)
(-0.222527 -0.0109166 0)
(-0.220993 -0.0132911 -2.7708e-18)
(-0.218486 -0.0155229 0)
(-0.214998 -0.0176494 -5.9849e-18)
(-0.210508 -0.0196793 3.1425e-18)
(-0.204982 -0.0216067 0)
(-0.198386 -0.0234181 0)
(-0.190682 -0.0250951 -3.67476e-18)
(-0.181838 -0.0266168 0)
(-0.171822 -0.0279606 4.11209e-18)
(-0.160609 -0.0291026 0)
(-0.14818 -0.0300174 9.43641e-18)
(-0.13452 -0.0306783 -1.011e-17)
(-0.119614 -0.0310615 1.08571e-17)
(-0.103451 -0.0311519 -5.79615e-18)
(-0.0860291 -0.0309355 0)
(-0.0673484 -0.0303949 6.75316e-18)
(-0.0474226 -0.0295117 -7.31175e-18)
(-0.0262973 -0.0282596 -1.60218e-17)
(-0.00404989 -0.0265892 1.70504e-17)
(0.0193669 -0.0244239 -1.76664e-17)
(0.0440295 -0.0217452 1.78078e-17)
(0.0698566 -0.0185781 -1.78958e-17)
(0.0968582 -0.0149337 1.81924e-17)
(0.125035 -0.0108134 -2.9115e-19)
(0.154382 -0.0062147 1.78023e-17)
(0.184907 -0.00113331 0)
(0.21663 0.00443617 0)
(0.249595 0.0105002 4.19179e-19)
(0.283866 0.0170662 0)
(0.319532 0.024143 1.66168e-17)
(0.356726 0.0317402 0)
(0.395617 0.0398648 1.52798e-17)
(0.436489 0.0485238 -6.53024e-19)
(0.479589 0.0576847 1.33016e-17)
(0.525939 0.0673455 2.31971e-17)
(0.574712 0.0771514 8.234e-19)
(0.633827 0.0871206 -8.35894e-18)
(0.682539 0.095373 -5.61947e-18)
(0.80194 0.0976443 0)
(1.01525 0.211448 0)
(0.942827 0.196038 0)
(0.79954 0.180964 -4.47552e-18)
(0.646059 0.151759 9.44777e-18)
(0.497108 0.108935 0)
(0.345533 0.0651651 -1.03919e-17)
(0.198302 0.0241567 0)
(0.0583802 -0.00892559 0)
(-0.0248461 -0.0131391 0)
(-0.0323759 -0.0234299 -2.39907e-17)
(-0.0498599 -0.0183437 2.22342e-17)
(-0.0482651 0.00613456 2.06971e-17)
(-0.0441036 0.0217557 0)
(-0.0456829 0.0180519 8.64171e-18)
(-0.0475346 0.011346 0)
(-0.0503584 0.0111084 0)
(-0.0543458 0.012915 0)
(-0.0584563 0.0142921 6.81231e-18)
(-0.0624365 0.0151287 -1.32521e-17)
(-0.0664243 0.0158993 -6.45447e-18)
(-0.0705975 0.0169067 0)
(-0.0750158 0.0182589 0)
(-0.0796673 0.0199919 0)
(-0.0845306 0.0220801 -8.84734e-18)
(-0.0895772 0.0243895 0)
(-0.0947403 0.0266779 5.65915e-18)
(-0.0998886 0.0286439 2.77728e-18)
(-0.104827 0.0299956 0)
(-0.109329 0.0305086 0)
(-0.113182 0.0300588 0)
(-0.116222 0.0286324 0)
(-0.118346 0.0263128 -6.39092e-19)
(-0.11952 0.023253 0)
(-0.119772 0.0196423 3.15085e-19)
(-0.119178 0.0156751 1.56505e-19)
(-0.117863 0.0115291 0)
(-0.116024 0.00736658 0)
(-0.11389 0.00334316 6.42187e-19)
(-0.111455 -0.000479678 0)
(-0.108987 -0.0041256 -1.33449e-18)
(-0.105932 -0.00754675 0)
(-0.102224 -0.0108301 -1.39986e-18)
(-0.0978407 -0.014054 0)
(-0.0927072 -0.017256 1.52417e-18)
(-0.086755 -0.020443 1.56043e-18)
(-0.0799287 -0.0236026 0)
(-0.0721828 -0.0267111 0)
(-0.0634786 -0.0297373 -3.57749e-18)
(-0.0537831 -0.0326462 0)
(-0.0430688 -0.0354 -3.902e-20)
(-0.0313123 -0.03796 0)
(-0.0184946 -0.0402875 0)
(-0.00460167 -0.0423425 0)
(0.010372 -0.0440814 0)
(0.0264228 -0.0454653 1.01674e-17)
(0.0435469 -0.0464603 0)
(0.0617429 -0.0470314 -1.07453e-17)
(0.0810076 -0.0471464 5.55208e-18)
(0.10134 -0.046777 -5.60017e-18)
(0.122738 -0.0458999 -1.16378e-17)
(0.14518 -0.0444903 1.1879e-17)
(0.168625 -0.0425264 -1.20985e-17)
(0.193049 -0.039988 1.2293e-17)
(0.218467 -0.0368684 0)
(0.244894 -0.033167 -1.87173e-17)
(0.272349 -0.0288859 -1.26725e-17)
(0.300858 -0.02403 0)
(0.330462 -0.0186066 6.13085e-18)
(0.361222 -0.012625 1.26107e-17)
(0.393217 -0.0060969 0)
(0.426556 0.000962538 0)
(0.461381 0.00853209 0)
(0.497876 0.0165769 0)
(0.536285 0.0250404 -1.07853e-17)
(0.57691 0.0337952 4.59958e-18)
(0.620234 0.0426654 -9.01085e-18)
(0.666438 0.0510013 7.74904e-18)
(0.717711 0.0584805 -2.63478e-18)
(0.765853 0.0616484 0)
(0.846261 0.0559748 0)
(0.978936 0.202896 0)
(0.979951 0.196476 -3.69733e-18)
(0.969212 0.209663 4.41551e-18)
(0.935915 0.213154 -3.95751e-18)
(0.869985 0.198535 3.84526e-18)
(0.771606 0.17177 3.89742e-18)
(0.649209 0.139708 0)
(0.514452 0.105264 0)
(0.376502 0.0710138 0)
(0.254596 0.0379681 9.9399e-18)
(0.139656 0.00910097 0)
(0.0410933 -0.00702201 0)
(0.00144206 -0.000571683 0)
(-0.00304051 -0.000498145 -9.99376e-18)
(-0.0133812 0.00200683 0)
(-0.0178892 0.0108102 -8.51648e-18)
(-0.0212852 0.0165943 0)
(-0.0249393 0.0177687 7.84339e-18)
(-0.0284169 0.0173848 3.80644e-18)
(-0.0314573 0.0174471 0)
(-0.0340235 0.0181997 -3.60895e-18)
(-0.0361309 0.0193832 0)
(-0.0376964 0.0208878 0)
(-0.0386387 0.0226707 6.73052e-18)
(-0.0389344 0.0246133 0)
(-0.0386122 0.0264808 1.618e-18)
(-0.0377307 0.0279692 -4.75532e-18)
(-0.0363645 0.0287801 0)
(-0.034601 0.0286885 0)
(-0.0325378 0.0275867 -7.51996e-19)
(-0.0302702 0.0254922 0)
(-0.0278764 0.0225262 1.79449e-21)
(-0.0254093 0.0188787 0)
(-0.022891 0.0147712 7.17444e-19)
(-0.0203174 0.010429 8.96234e-20)
(-0.0176419 0.00604494 0)
(-0.0147329 0.00175136 1.81144e-19)
(-0.0115239 -0.00236803 -3.66088e-19)
(-0.00793197 -0.00615322 -3.70926e-19)
(-0.00398494 -0.00970994 -7.55565e-19)
(0.000596304 -0.0132486 7.70825e-19)
(0.00587384 -0.0168616 7.86783e-19)
(0.0118517 -0.0205691 0)
(0.0185439 -0.024365 1.64071e-18)
(0.0259708 -0.0282292 -3.35884e-18)
(0.0341538 -0.0321326 0)
(0.0431136 -0.0360393 -1.76906e-18)
(0.0528695 -0.0399094 3.65079e-18)
(0.0634389 -0.0436997 0)
(0.074837 -0.0473648 -1.94583e-18)
(0.0870758 -0.0508583 1.9928e-18)
(0.100164 -0.0541334 -2.0555e-18)
(0.114108 -0.057144 -2.12005e-18)
(0.128908 -0.0598443 0)
(0.144564 -0.0621881 -4.53168e-18)
(0.161071 -0.0641308 -2.31919e-18)
(0.178426 -0.065632 2.42045e-18)
(0.196623 -0.066656 2.44968e-18)
(0.215657 -0.0671745 5.07031e-18)
(0.235525 -0.0671689 0)
(0.256216 -0.0666288 0)
(0.277722 -0.0655405 0)
(0.300045 -0.0638877 -2.71843e-18)
(0.3232 -0.0616649 0)
(0.347216 -0.0588769 5.65722e-18)
(0.372125 -0.0555347 0)
(0.397974 -0.0516551 -2.80109e-18)
(0.424826 -0.0472593 -5.71008e-18)
(0.45276 -0.0423732 0)
(0.481879 -0.0370279 -2.71796e-18)
(0.512305 -0.0312609 2.6497e-18)
(0.544193 -0.0251199 0)
(0.577725 -0.0186707 0)
(0.613121 -0.0120106 0)
(0.650622 -0.0052974 -4.3573e-18)
(0.690551 0.00120921 0)
(0.732904 0.00703108 -1.52055e-18)
(0.778938 0.0115 2.513e-18)
(0.822107 0.0131201 0)
(0.889017 0.00911378 3.78187e-19)
(0.970709 0.210792 0)
(0.964253 0.19915 2.08373e-18)
(0.966619 0.204768 0)
(0.976239 0.213674 2.19314e-18)
(0.978789 0.216487 -3.985e-18)
(0.961417 0.211899 -1.85219e-18)
(0.919039 0.201035 0)
(0.853308 0.183792 0)
(0.76564 0.159537 0)
(0.661591 0.131083 1.91273e-18)
(0.547885 0.102249 1.98577e-18)
(0.430263 0.0742746 0)
(0.317669 0.0489128 0)
(0.221777 0.027154 0)
(0.143698 0.0127551 0)
(0.0891004 0.00703255 8.67995e-18)
(0.0621546 0.00766003 -4.31245e-18)
(0.0509846 0.0103686 0)
(0.044482 0.0131479 -4.17473e-18)
(0.0395666 0.0156278 2.05442e-18)
(0.0359194 0.017418 4.02365e-18)
(0.0335645 0.0184655 0)
(0.0325414 0.0191709 0)
(0.032826 0.0199238 -3.77927e-18)
(0.0343647 0.0208473 0)
(0.0370594 0.0218245 -1.80259e-18)
(0.0407495 0.0226135 1.75781e-18)
(0.0452156 0.022951 0)
(0.0502068 0.0226245 0)
(0.0554768 0.0215148 8.14207e-19)
(0.0608173 0.0196047 0)
(0.0660825 0.0169613 -7.79071e-19)
(0.0711935 0.0137113 0)
(0.0761422 0.0100029 -1.87756e-19)
(0.080966 0.0059953 -9.36498e-20)
(0.0857589 0.0018242 -2.34367e-20)
(0.0906231 -0.00240003 -2.7972e-19)
(0.095725 -0.00665185 3.72474e-19)
(0.10125 -0.0109261 3.74106e-19)
(0.107227 -0.0151707 1.13345e-18)
(0.113747 -0.0194269 -3.80351e-19)
(0.120856 -0.0237457 3.86219e-19)
(0.128564 -0.0281517 0)
(0.136871 -0.0326465 8.08137e-19)
(0.145776 -0.037216 8.21337e-19)
(0.15528 -0.0418344 0)
(0.165385 -0.0464674 1.73455e-18)
(0.176093 -0.0510746 8.94301e-19)
(0.187406 -0.0556112 0)
(0.199324 -0.0600292 -2.84366e-18)
(0.211848 -0.0642786 -1.95496e-18)
(0.224975 -0.0683084 1.00808e-18)
(0.238704 -0.0720674 2.08422e-18)
(0.253028 -0.075505 0)
(0.267944 -0.0785724 1.11001e-18)
(0.283444 -0.0812241 3.43616e-18)
(0.299526 -0.0834188 2.36227e-18)
(0.316184 -0.0851209 -2.43195e-18)
(0.333419 -0.0863021 -1.24491e-18)
(0.35123 -0.0869419 0)
(0.369624 -0.0870273 0)
(0.38861 -0.0865494 0)
(0.408208 -0.0855043 4.09227e-18)
(0.428451 -0.0838972 1.37641e-18)
(0.449382 -0.0817424 0)
(0.471057 -0.0790615 -2.80366e-18)
(0.493548 -0.0758823 2.8501e-18)
(0.516939 -0.0722382 -2.80309e-18)
(0.541334 -0.0681679 -2.77788e-18)
(0.566855 -0.0637155 5.21952e-20)
(0.593645 -0.058932 -2.71976e-18)
(0.621868 -0.0538779 0)
(0.651709 -0.0486295 0)
(0.683373 -0.0432898 0)
(0.717059 -0.038005 0)
(0.753013 -0.0330007 0)
(0.791103 -0.0286018 3.07934e-18)
(0.832396 -0.0253341 -1.14884e-18)
(0.870686 -0.0237767 0)
(0.930045 -0.025458 -3.91376e-19)
(0.972918 0.217785 0)
(0.965114 0.206365 2.42612e-18)
(0.957343 0.20213 3.15243e-19)
(0.958471 0.203249 2.45726e-18)
(0.968803 0.206039 0)
(0.980897 0.208508 -2.15123e-18)
(0.986563 0.209145 0)
(0.980235 0.206134 -4.90962e-19)
(0.95796 0.198013 0)
(0.917065 0.184675 -2.23392e-18)
(0.858094 0.167507 -1.75253e-18)
(0.783546 0.147167 -4.46545e-19)
(0.695788 0.124007 4.48211e-19)
(0.600518 0.0997611 0)
(0.503375 0.0766529 4.57822e-19)
(0.409731 0.0561073 0)
(0.328265 0.039369 3.77748e-18)
(0.264828 0.0273858 -4.91431e-19)
(0.219538 0.0201136 0)
(0.189637 0.0166029 -2.48891e-18)
(0.170963 0.0154451 0)
(0.159571 0.0154461 0)
(0.152729 0.0158831 0)
(0.14893 0.0163889 0)
(0.147471 0.0167867 -2.3568e-19)
(0.14801 0.0169879 0)
(0.150286 0.0169257 0)
(0.154004 0.0165169 1.1082e-19)
(0.158834 0.0156646 0)
(0.164443 0.0142851 0)
(0.170537 0.0123349 0)
(0.176888 0.00981648 -5.09799e-20)
(0.183327 0.00678218 0)
(0.189771 0.00328696 -2.21068e-19)
(0.196203 -0.000597768 0)
(0.202688 -0.00475765 2.40816e-20)
(0.209311 -0.00911777 1.20017e-19)
(0.216153 -0.0135993 2.41812e-20)
(0.223313 -0.0181923 -4.85071e-20)
(0.230849 -0.0228714 -3.86797e-19)
(0.238809 -0.0276307 -3.90887e-19)
(0.247223 -0.0324774 3.96301e-19)
(0.256098 -0.0374139 -1.01697e-19)
(0.265426 -0.0424324 -8.21873e-19)
(0.275197 -0.0475151 8.40218e-19)
(0.285398 -0.0526351 -1.08542e-19)
(0.296015 -0.057758 0)
(0.307038 -0.0628434 -9.09501e-19)
(0.318452 -0.0678461 0)
(0.330248 -0.0727173 9.66804e-19)
(0.342412 -0.0774059 0)
(0.354934 -0.0818599 1.03183e-18)
(0.367801 -0.0860271 0)
(0.381005 -0.0898566 -2.76731e-19)
(0.394535 -0.0933 -1.14027e-18)
(0.408386 -0.0963129 -1.17819e-18)
(0.422554 -0.0988564 3.0429e-19)
(0.43704 -0.100898 0)
(0.451851 -0.102413 1.29194e-18)
(0.467 -0.103386 -3.31194e-19)
(0.482507 -0.103808 0)
(0.498401 -0.10368 3.47068e-19)
(0.514721 -0.103008 -1.42415e-18)
(0.531521 -0.10181 -1.44937e-18)
(0.548868 -0.100109 0)
(0.566841 -0.0979369 2.96887e-18)
(0.585536 -0.0953318 0)
(0.605062 -0.0923369 2.98341e-18)
(0.625545 -0.0890001 2.96332e-18)
(0.647128 -0.0853736 2.92082e-18)
(0.66997 -0.0815151 3.51218e-19)
(0.694248 -0.0774887 0)
(0.720151 -0.073369 0)
(0.747881 -0.0692479 0)
(0.777617 -0.0652394 -2.72557e-19)
(0.809585 -0.0615104 0)
(0.843571 -0.058236 -1.42537e-18)
(0.880721 -0.0557914 1.38752e-18)
(0.914743 -0.0542311 9.34244e-20)
(0.968979 -0.054173 4.89966e-20)
(0.97403 0.220513 -1.51066e-18)
(0.969587 0.211777 1.46546e-18)
(0.961601 0.205755 -3.57162e-19)
(0.955313 0.202551 0)
(0.954902 0.200677 0)
(0.960599 0.19972 0)
(0.970469 0.1997 0)
(0.981735 0.199881 1.68667e-18)
(0.990746 0.198935 0)
(0.992987 0.195595 -1.52073e-18)
(0.984604 0.189271 -1.91264e-18)
(0.963543 0.17986 4.46063e-19)
(0.928836 0.167328 1.33998e-18)
(0.880544 0.151695 0)
(0.820056 0.133736 -2.10234e-18)
(0.749821 0.114524 0)
(0.675283 0.0953934 -1.69899e-18)
(0.602748 0.0777126 4.27832e-19)
(0.536151 0.0622343 -1.78566e-18)
(0.477927 0.0492708 -1.37496e-18)
(0.429462 0.0388877 0)
(0.391088 0.0309529 0)
(0.362156 0.0251546 -9.37975e-19)
(0.341331 0.0210559 0)
(0.327037 0.0181797 -7.00474e-19)
(0.317815 0.016081 0)
(0.312485 0.0143812 0)
(0.310148 0.0127743 -1.10957e-19)
(0.310129 0.0110262 0)
(0.311902 0.00897613 0)
(0.315043 0.00653551 0)
(0.319221 0.00367182 5.22104e-20)
(0.324159 0.000368232 2.08972e-19)
(0.329644 -0.00334193 1.28795e-19)
(0.335574 -0.00740188 0)
(0.341881 -0.0117631 0)
(0.348522 -0.0163712 -2.48859e-20)
(0.355492 -0.0211676 -1.26031e-19)
(0.362809 -0.0261174 4.99707e-20)
(0.370488 -0.0311937 0)
(0.378537 -0.0363776 0)
(0.386959 -0.0416574 -2.09711e-19)
(0.395741 -0.0470206 1.05064e-19)
(0.404865 -0.0524498 -4.35074e-19)
(0.414305 -0.0579217 4.44878e-19)
(0.424036 -0.0634064 1.12461e-19)
(0.43403 -0.0688682 0)
(0.444261 -0.0742662 4.81939e-19)
(0.454703 -0.079555 0)
(0.465331 -0.084686 0)
(0.476121 -0.0896085 0)
(0.487053 -0.0942713 0)
(0.498107 -0.0986235 0)
(0.50927 -0.102617 2.91068e-19)
(0.520531 -0.106205 0)
(0.531886 -0.109349 1.25297e-18)
(0.543335 -0.112014 -3.22684e-19)
(0.554891 -0.114175 0)
(0.56657 -0.115813 1.37668e-18)
(0.578403 -0.11692 3.54377e-19)
(0.590426 -0.117497 1.45448e-18)
(0.602693 -0.117553 -3.73631e-19)
(0.615265 -0.117107 0)
(0.628219 -0.116184 -1.55058e-18)
(0.641646 -0.114819 0)
(0.655649 -0.113052 0)
(0.670345 -0.110928 -1.59968e-18)
(0.685865 -0.1085 0)
(0.702352 -0.105819 0)
(0.719965 -0.102943 -1.56719e-18)
(0.738876 -0.0999307 -3.86542e-19)
(0.759268 -0.0968461 0)
(0.781336 -0.0937562 0)
(0.805283 -0.090737 0)
(0.831277 -0.087867 3.01074e-19)
(0.859559 -0.0852566 -1.04309e-18)
(0.889852 -0.0829563 -2.18906e-19)
(0.9235 -0.0812111 -1.66536e-19)
(0.953911 -0.0797811 -1.03018e-19)
(1.00442 -0.0785563 -2.62169e-19)
(0.974215 0.221527 5.24305e-18)
(0.971744 0.214816 -5.05621e-18)
(0.966685 0.20966 0)
(0.960957 0.205975 -3.22811e-18)
(0.956617 0.202399 0)
(0.954618 0.198558 -2.95106e-18)
(0.955676 0.195099 0)
(0.960559 0.192457 3.99403e-18)
(0.969209 0.1904 -4.99321e-18)
(0.980093 0.188357 2.29968e-18)
(0.990598 0.185748 2.15855e-18)
(0.997953 0.182059 0)
(0.999651 0.1767 -5.85393e-18)
(0.993385 0.169052 -3.73815e-18)
(0.977493 0.159043 5.30675e-18)
(0.951276 0.146986 0)
(0.916045 0.13347 1.65501e-18)
(0.874514 0.11924 0)
(0.829147 0.104881 1.67352e-18)
(0.782165 0.0909041 1.69208e-18)
(0.735641 0.0777385 0)
(0.691364 0.0656795 0)
(0.650751 0.0548864 -9.14369e-19)
(0.61481 0.045409 0)
(0.58414 0.0372086 8.87369e-19)
(0.558939 0.0301712 0)
(0.539042 0.0241225 0)
(0.524002 0.0188504 0)
(0.51319 0.0141309 0)
(0.505917 0.00975109 0)
(0.501524 0.00553021 0)
(0.499421 0.0013163 0)
(0.499164 -0.00298825 2.21204e-19)
(0.500366 -0.00745336 -1.0534e-19)
(0.502715 -0.0121223 5.3367e-20)
(0.505989 -0.0170117 0)
(0.510031 -0.0221123 0)
(0.514733 -0.027397 1.04501e-19)
(0.520012 -0.0328342 -4.29562e-19)
(0.525803 -0.0383932 4.33812e-19)
(0.532049 -0.0440477 0)
(0.5387 -0.0497762 1.1119e-18)
(0.545707 -0.0555584 -9.09953e-19)
(0.553023 -0.0613716 -4.73545e-19)
(0.560597 -0.067189 -4.67432e-19)
(0.568383 -0.0729787 0)
(0.576333 -0.0787041 0)
(0.584403 -0.0843238 -1.54608e-18)
(0.592549 -0.0897931 0)
(0.600733 -0.0950648 0)
(0.608921 -0.10009 0)
(0.617084 -0.104821 1.18423e-18)
(0.625198 -0.109212 2.45365e-18)
(0.63325 -0.113217 0)
(0.641232 -0.116799 0)
(0.649147 -0.119924 -1.35623e-18)
(0.65701 -0.122567 0)
(0.664845 -0.124711 2.91912e-18)
(0.67269 -0.126347 1.50989e-18)
(0.680595 -0.127476 0)
(0.688622 -0.128111 1.5978e-18)
(0.696847 -0.12827 3.2818e-18)
(0.705358 -0.12798 3.35967e-18)
(0.714253 -0.127277 1.72003e-18)
(0.723645 -0.126203 -3.48625e-18)
(0.733656 -0.124804 3.52997e-18)
(0.744418 -0.123131 5.34473e-18)
(0.756074 -0.121239 0)
(0.768778 -0.119183 0)
(0.782693 -0.117021 1.7616e-18)
(0.797995 -0.114812 0)
(0.814868 -0.112615 3.30648e-18)
(0.833503 -0.11049 3.14674e-18)
(0.854105 -0.108496 0)
(0.876834 -0.106683 2.67113e-18)
(0.90196 -0.105113 -1.16596e-18)
(0.929147 -0.103741 0)
(0.960005 -0.102697 0)
(0.987504 -0.101579 0)
(1.03544 -0.0996446 -2.23414e-19)
(0.974268 0.222142 -4.01085e-18)
(0.972478 0.216641 3.8559e-18)
(0.969034 0.212037 -7.61281e-18)
(0.965127 0.208393 3.65636e-18)
(0.961683 0.204756 0)
(0.958675 0.200533 3.34546e-18)
(0.95611 0.195908 -6.44993e-18)
(0.954771 0.191249 -6.05235e-18)
(0.955764 0.186736 -8.73516e-20)
(0.959775 0.182461 0)
(0.966775 0.17848 0)
(0.976102 0.174684 4.88808e-18)
(0.986564 0.170681 4.50349e-18)
(0.996448 0.165944 -4.43546e-18)
(1.00381 0.160136 -1.21694e-17)
(1.00684 0.153074 0)
(1.00438 0.144783 0)
(0.996249 0.1355 0)
(0.982872 0.125471 0)
(0.964995 0.114959 0)
(0.943532 0.10421 0)
(0.919454 0.0934333 0)
(0.893724 0.0828123 1.77112e-18)
(0.867267 0.0725078 -3.64835e-18)
(0.840947 0.0626447 0)
(0.815547 0.0532994 0)
(0.791742 0.0444975 0)
(0.770068 0.0362226 0)
(0.750902 0.0284281 0)
(0.734454 0.0210492 -9.19949e-19)
(0.720772 0.0140087 0)
(0.709785 0.00723676 0)
(0.701234 0.000636399 1.23172e-20)
(0.695051 -0.00581843 0)
(0.690952 -0.0121811 -5.5392e-20)
(0.688585 -0.0184662 0)
(0.687623 -0.0246939 2.28266e-19)
(0.687804 -0.0308915 0)
(0.688922 -0.0370844 9.15333e-19)
(0.690818 -0.043289 -4.57658e-19)
(0.693361 -0.0495105 -9.53273e-19)
(0.696442 -0.0557441 -9.47951e-19)
(0.699962 -0.0619759 9.6883e-19)
(0.70383 -0.0681841 9.92796e-19)
(0.707963 -0.0743405 2.08369e-18)
(0.71228 -0.0804116 2.14326e-18)
(0.716709 -0.0863599 0)
(0.721184 -0.0921449 -1.16064e-18)
(0.725649 -0.0977244 0)
(0.730053 -0.103055 0)
(0.734358 -0.108093 -2.53127e-18)
(0.738535 -0.112797 -1.29658e-18)
(0.742565 -0.117128 2.9872e-20)
(0.746443 -0.121051 0)
(0.750176 -0.124536 0)
(0.753785 -0.127561 0)
(0.757306 -0.130111 3.15881e-18)
(0.760788 -0.132181 -3.25892e-18)
(0.764292 -0.133774 -3.37564e-18)
(0.767896 -0.1349 0)
(0.771686 -0.135581 -3.60209e-18)
(0.775761 -0.135845 -1.08072e-21)
(0.780228 -0.135727 -3.8064e-18)
(0.785202 -0.135267 3.8873e-18)
(0.790807 -0.134511 9.68518e-21)
(0.797173 -0.133509 -4.02812e-18)
(0.804433 -0.132313 -4.06694e-18)
(0.812731 -0.130978 0)
(0.822215 -0.129559 0)
(0.833042 -0.128112 0)
(0.845376 -0.126693 0)
(0.859393 -0.125357 -3.80575e-18)
(0.875273 -0.124156 -3.62371e-18)
(0.893216 -0.123139 0)
(0.913373 -0.12233 -3.07603e-18)
(0.936054 -0.121759 5.39506e-18)
(0.960856 -0.121311 0)
(0.989702 -0.121011 0)
(1.01502 -0.120379 0)
(1.06151 -0.11811 1.02515e-18)
(0.974307 0.222603 9.43681e-18)
(0.972771 0.217901 0)
(0.969905 0.213534 1.73914e-17)
(0.966835 0.209721 0)
(0.964413 0.206036 8.12605e-18)
(0.96246 0.201995 0)
(0.960445 0.197476 7.30896e-18)
(0.95831 0.192541 0)
(0.956495 0.187238 -6.79555e-18)
(0.955607 0.181663 0)
(0.956243 0.176003 1.20714e-17)
(0.958932 0.17043 -5.62025e-18)
(0.963978 0.164953 0)
(0.97125 0.159439 1.00029e-17)
(0.980136 0.153738 -1.94889e-19)
(0.989698 0.147678 -9.08423e-18)
(0.998683 0.141178 8.79443e-18)
(1.00595 0.134261 0)
(1.01087 0.126923 0)
(1.01314 0.119188 8.29192e-18)
(1.01272 0.111116 0)
(1.00973 0.102782 -4.04911e-18)
(1.00442 0.0942682 0)
(0.997095 0.085654 3.88513e-18)
(0.988102 0.0770024 0)
(0.977799 0.0683569 3.9652e-18)
(0.966542 0.0597449 0)
(0.954678 0.0511847 0)
(0.942537 0.0426912 1.9776e-18)
(0.930428 0.0342778 9.61522e-19)
(0.918629 0.025955 0)
(0.907372 0.0177282 0)
(0.896879 0.00960405 -1.48767e-18)
(0.887128 0.00156287 0)
(0.878333 -0.0063792 0)
(0.87066 -0.0142218 0)
(0.864171 -0.0219475 -2.45346e-19)
(0.858846 -0.0295376 0)
(0.854608 -0.0369829 -1.5338e-18)
(0.851332 -0.0442817 -1.0477e-18)
(0.848873 -0.0514347 1.03645e-18)
(0.847078 -0.0584417 0)
(0.845801 -0.0652998 0)
(0.844908 -0.0720018 2.28323e-18)
(0.844281 -0.0785346 -2.29326e-18)
(0.843818 -0.0848796 -2.36626e-18)
(0.843434 -0.0910129 0)
(0.843057 -0.0969064 -4.90534e-20)
(0.842633 -0.102529 2.67589e-18)
(0.842119 -0.107847 0)
(0.841487 -0.112829 2.83989e-18)
(0.840724 -0.117443 2.99418e-18)
(0.839834 -0.121662 -3.07695e-18)
(0.838833 -0.125463 0)
(0.837756 -0.128828 0)
(0.836652 -0.131748 0)
(0.835583 -0.13422 -3.61081e-18)
(0.834625 -0.136249 0)
(0.833866 -0.13785 0)
(0.833402 -0.139041 0)
(0.833335 -0.139851 8.34317e-18)
(0.833774 -0.140312 -4.29381e-18)
(0.834829 -0.140461 0)
(0.836616 -0.140341 -4.52228e-18)
(0.839249 -0.139997 -4.60667e-18)
(0.842847 -0.139478 9.36779e-18)
(0.847531 -0.138833 -9.46819e-18)
(0.853424 -0.138114 -9.514e-18)
(0.860656 -0.137374 0)
(0.869363 -0.136667 -9.39837e-18)
(0.879691 -0.136045 0)
(0.891796 -0.13556 0)
(0.905842 -0.135258 0)
(0.922021 -0.135181 7.96039e-18)
(0.940469 -0.13534 -7.2547e-18)
(0.961543 -0.135741 -9.54878e-18)
(0.98477 -0.136225 0)
(1.01242 -0.136725 4.04048e-18)
(1.03629 -0.136733 0)
(1.08245 -0.134461 -1.76231e-18)
(0.974319 0.222962 -1.07466e-17)
(0.972878 0.218861 -1.03895e-17)
(0.970241 0.214675 -1.99865e-17)
(0.967468 0.210687 0)
(0.965391 0.206816 -1.85545e-17)
(0.963988 0.202747 -8.90038e-18)
(0.962823 0.198315 0)
(0.96163 0.193506 1.61722e-17)
(0.960372 0.188285 1.52048e-17)
(0.959091 0.18261 0)
(0.957925 0.176528 -1.37109e-17)
(0.957199 0.17015 0)
(0.957375 0.163566 0)
(0.958884 0.156813 1.18733e-17)
(0.961984 0.149921 1.10607e-17)
(0.966748 0.142904 -1.88385e-19)
(0.972879 0.135858 1.92074e-19)
(0.979789 0.128871 0)
(0.98692 0.121892 0)
(0.993806 0.114858 -9.53518e-18)
(1.00009 0.107736 -9.59012e-18)
(1.00552 0.100509 1.40808e-17)
(1.00997 0.0931808 4.67382e-18)
(1.01335 0.0857579 4.62706e-18)
(1.01568 0.0782495 0)
(1.01698 0.0706593 -4.44324e-18)
(1.01734 0.0629856 0)
(1.01682 0.055223 0)
(1.01553 0.0473657 -4.44427e-18)
(1.01355 0.039411 0)
(1.01099 0.031362 0)
(1.00794 0.0232271 0)
(1.0045 0.0150354 1.1052e-18)
(1.00078 0.00678376 -5.74133e-19)
(0.996671 -0.00146809 2.87703e-19)
(0.992157 -0.00970927 0)
(0.987293 -0.0179169 0)
(0.982158 -0.0260526 0)
(0.976835 -0.0340784 1.15657e-18)
(0.971408 -0.041963 1.17625e-18)
(0.965943 -0.0496812 -2.4671e-18)
(0.960491 -0.0572115 0)
(0.95508 -0.0645349 0)
(0.949719 -0.0716333 -5.24552e-18)
(0.944402 -0.0784882 -2.73337e-18)
(0.939111 -0.0850797 0)
(0.933825 -0.0913867 0)
(0.928523 -0.0973872 2.96421e-18)
(0.923192 -0.103059 5.32042e-20)
(0.917826 -0.10838 0)
(0.912433 -0.113331 0)
(0.907036 -0.117895 -3.47297e-18)
(0.901671 -0.122059 0)
(0.896388 -0.125814 0)
(0.89125 -0.129158 0)
(0.886332 -0.132092 0)
(0.881715 -0.134625 0)
(0.877489 -0.13677 -8.90783e-18)
(0.873747 -0.138546 0)
(0.870582 -0.139977 0)
(0.86809 -0.141091 2.32278e-20)
(0.866363 -0.14192 0)
(0.865496 -0.1425 0)
(0.865578 -0.142869 0)
(0.866704 -0.143068 2.19436e-17)
(0.868965 -0.143143 -1.11592e-17)
(0.872456 -0.143138 1.12943e-17)
(0.877278 -0.143104 9.62421e-22)
(0.883535 -0.143089 0)
(0.891341 -0.143145 1.12551e-17)
(0.90082 -0.143323 -1.10539e-17)
(0.912111 -0.143673 0)
(0.925359 -0.144239 0)
(0.940751 -0.145061 3.51239e-20)
(0.958409 -0.146142 8.72472e-18)
(0.978738 -0.147479 7.66837e-18)
(1.0012 -0.148894 0)
(1.02842 -0.15024 -4.85191e-18)
(1.0515 -0.15101 0)
(1.09839 -0.149089 1.3917e-18)
(0.974304 0.223271 0)
(0.972843 0.219654 2.37571e-17)
(0.970292 0.215605 2.29607e-17)
(0.967683 0.211486 0)
(0.96573 0.207438 1.06023e-17)
(0.964434 0.203234 -1.03068e-17)
(0.963518 0.198714 0)
(0.962835 0.193883 -1.83764e-17)
(0.96233 0.188731 0)
(0.961895 0.183192 0)
(0.961387 0.17723 0)
(0.960757 0.170859 0)
(0.960099 0.164098 0)
(0.959607 0.156953 1.90989e-19)
(0.959506 0.149462 -1.3001e-17)
(0.960056 0.141692 -1.86943e-19)
(0.961452 0.133852 1.88756e-19)
(0.963717 0.126148 0)
(0.966745 0.118598 0)
(0.970366 0.111173 0)
(0.974393 0.103846 -2.02931e-19)
(0.978643 0.0965874 2.06204e-19)
(0.982952 0.0893716 -5.40054e-18)
(0.987178 0.082175 -5.34602e-18)
(0.991208 0.0749759 0)
(0.994953 0.0677518 -5.36976e-18)
(0.998345 0.0604788 5.33962e-18)
(1.00133 0.0531332 0)
(1.00385 0.0456947 2.59256e-18)
(1.00587 0.0381494 2.65046e-18)
(1.00735 0.0304918 0)
(1.00828 0.0227273 0)
(1.00863 0.0148732 1.34145e-18)
(1.00841 0.0069594 -1.70436e-20)
(1.00765 -0.000973561 -6.71495e-19)
(1.00634 -0.00888963 0)
(1.00448 -0.0167693 0)
(1.00208 -0.0245908 -1.39432e-18)
(0.999145 -0.0323286 0)
(0.995673 -0.0399577 -1.43906e-18)
(0.991679 -0.0474543 -6.82736e-20)
(0.987184 -0.0547951 0)
(0.982214 -0.0619567 3.08184e-18)
(0.976802 -0.0689155 6.27241e-18)
(0.970987 -0.0756477 3.20176e-18)
(0.964816 -0.0821302 0)
(0.958344 -0.0883403 -6.97716e-18)
(0.951631 -0.0942571 0)
(0.944744 -0.0998617 -3.69512e-18)
(0.937758 -0.105138 0)
(0.930748 -0.110072 0)
(0.923797 -0.114655 0)
(0.916989 -0.11888 0)
(0.91041 -0.122745 0)
(0.904145 -0.126252 -9.50061e-18)
(0.898279 -0.129405 9.88197e-18)
(0.892895 -0.132213 0)
(0.888073 -0.13469 1.06116e-17)
(0.88389 -0.136851 -1.10604e-17)
(0.880421 -0.138718 0)
(0.877739 -0.140313 -1.18021e-17)
(0.875917 -0.141666 0)
(0.875027 -0.142806 0)
(0.875143 -0.143769 0)
(0.876342 -0.144592 -1.31471e-17)
(0.878701 -0.145319 1.34011e-17)
(0.882307 -0.145991 -1.35809e-17)
(0.887247 -0.146657 2.7365e-17)
(0.893617 -0.147364 -1.37094e-17)
(0.901522 -0.148163 0)
(0.911075 -0.149103 1.33902e-17)
(0.922407 -0.150234 -1.30553e-17)
(0.935654 -0.151599 0)
(0.951001 -0.153237 5.35331e-20)
(0.968562 -0.155152 -1.08078e-17)
(0.988793 -0.157338 0)
(1.01108 -0.159609 0)
(1.03845 -0.161788 -6.15045e-18)
(1.06122 -0.163316 0)
(1.10968 -0.162154 -1.73477e-18)
(0.974265 0.223565 0)
(0.97269 0.220347 -1.35902e-17)
(0.970122 0.216362 -1.31327e-17)
(0.967628 0.212125 0)
(0.965787 0.207944 2.45383e-17)
(0.964527 0.203619 2.32524e-17)
(0.963631 0.198979 0)
(0.963034 0.194042 2.13241e-17)
(0.962752 0.18883 -2.02978e-17)
(0.962731 0.183297 0)
(0.962847 0.177407 0)
(0.962977 0.171148 0)
(0.963042 0.164503 0)
(0.963004 0.157439 -1.55281e-17)
(0.96285 0.149946 -1.51348e-17)
(0.962636 0.142055 1.40239e-17)
(0.962492 0.133973 -4.13713e-17)
(0.962549 0.125941 0)
(0.96289 0.118019 0)
(0.963547 0.110219 1.32399e-17)
(0.964524 0.102546 2.597e-17)
(0.965799 0.0949921 -1.27483e-17)
(0.967331 0.0875454 0)
(0.969066 0.080188 0)
(0.97094 0.0728989 -6.32565e-18)
(0.972888 0.0656532 1.24763e-17)
(0.974839 0.0584234 -1.24219e-17)
(0.97672 0.0511818 0)
(0.978453 0.0439043 0)
(0.979959 0.0365728 -3.06309e-18)
(0.98116 0.0291775 0)
(0.981983 0.0217179 3.14509e-18)
(0.982365 0.0142038 -1.55265e-18)
(0.982244 0.00666289 -1.61926e-20)
(0.981646 -0.000910862 -8.21889e-21)
(0.980563 -0.00848085 0)
(0.978991 -0.0160188 0)
(0.976934 -0.0235026 -3.34371e-20)
(0.974402 -0.030908 1.67809e-18)
(0.97141 -0.0382103 5.09284e-18)
(0.96798 -0.0453865 6.91261e-18)
(0.964142 -0.0524159 3.57227e-18)
(0.959927 -0.0592792 -3.60109e-18)
(0.955375 -0.0659585 -3.70679e-18)
(0.950527 -0.072437 3.88649e-18)
(0.945429 -0.0786987 0)
(0.940131 -0.0847284 8.18261e-18)
(0.934684 -0.0905117 -8.59977e-18)
(0.929147 -0.0960353 0)
(0.923577 -0.101287 0)
(0.918034 -0.106255 0)
(0.912581 -0.11093 0)
(0.907279 -0.115304 0)
(0.902192 -0.119373 0)
(0.897383 -0.123134 1.11553e-17)
(0.892914 -0.126587 -2.3277e-17)
(0.888849 -0.129735 -1.21249e-17)
(0.885254 -0.132588 1.25803e-17)
(0.882196 -0.135157 1.2982e-17)
(0.879746 -0.137459 -1.34937e-17)
(0.877975 -0.139515 1.39423e-17)
(0.876962 -0.141351 0)
(0.876785 -0.142997 1.47932e-17)
(0.877526 -0.144489 -1.51803e-17)
(0.879269 -0.145862 0)
(0.882101 -0.147159 -3.16345e-17)
(0.886109 -0.148423 1.6044e-17)
(0.891386 -0.149698 -3.24359e-17)
(0.898027 -0.151033 1.62704e-17)
(0.906136 -0.152476 0)
(0.915828 -0.154077 1.6061e-17)
(0.927231 -0.155885 1.56596e-17)
(0.940486 -0.157944 -1.51449e-17)
(0.955788 -0.160295 -1.42786e-17)
(0.973254 -0.162942 1.31776e-17)
(0.993404 -0.165884 0)
(1.01557 -0.168928 0)
(1.04318 -0.171914 7.66882e-18)
(1.06574 -0.174087 0)
(1.11623 -0.174013 2.18602e-18)
(0.974202 0.223863 1.63916e-17)
(0.972435 0.220974 0)
(0.969779 0.216977 -3.04018e-17)
(0.967363 0.212626 2.93639e-17)
(0.965628 0.208345 -2.79571e-17)
(0.964417 0.203924 2.69024e-17)
(0.963537 0.199183 0)
(0.962952 0.194148 2.02196e-19)
(0.962686 0.18885 2.31092e-17)
(0.96272 0.183253 0)
(0.962989 0.17733 0)
(0.963424 0.171077 0)
(0.963962 0.164479 3.8022e-17)
(0.964537 0.1575 0)
(0.965064 0.150116 3.39427e-17)
(0.965478 0.142324 0)
(0.965755 0.134306 6.32621e-17)
(0.965922 0.126289 0)
(0.96602 0.118334 0)
(0.966094 0.110457 -3.02443e-17)
(0.966185 0.102675 -1.48529e-17)
(0.966332 0.0949938 0)
(0.966559 0.0874131 0)
(0.96688 0.0799277 0)
(0.967294 0.0725265 7.20092e-18)
(0.967789 0.0651931 -7.16804e-18)
(0.968342 0.0579071 -1.0788e-19)
(0.968917 0.0506464 0)
(0.969467 0.043391 7.23766e-18)
(0.969941 0.0361247 0)
(0.970282 0.0288372 0)
(0.970433 0.0215255 -3.59662e-18)
(0.970346 0.0141946 1.8429e-18)
(0.969975 0.00685717 -1.5686e-20)
(0.9693 -0.000500462 4.59339e-19)
(0.968294 -0.00784918 0)
(0.96694 -0.0151606 0)
(0.965234 -0.0224153 1.8899e-18)