# Solver information
# Time        	U_solver      	Ux_initial    	Ux_final      	Ux_iters      	Uy_initial    	Uy_final      	Uy_iters      	U_converged   	p_solver      	p_initial     	p_final       	p_iters       	p_converged   
1             	smoothSolver	1.000000e+00	2.482480e-02	1	1.000000e+00	5.276940e-02	1	false	GAMG	1.000000e+00	9.313480e-02	36	true
2             	smoothSolver	9.642900e-03	8.045720e-04	10	2.300640e-02	1.952700e-03	10	false	GAMG	4.137020e-01	3.475900e-02	10	true
3             	smoothSolver	2.017300e-02	1.577280e-03	3	8.826410e-02	6.550240e-03	4	false	GAMG	6.539870e-02	5.443320e-03	9	true
4             	smoothSolver	1.444240e-02	1.148080e-03	7	9.402310e-02	7.426990e-03	6	false	GAMG	1.065400e-01	8.551000e-03	12	true
5             	smoothSolver	2.064750e-02	1.521860e-03	4	7.784830e-02	7.151780e-03	6	false	GAMG	9.545290e-02	6.575520e-03	7	true
6             	smoothSolver	1.227430e-02	1.179720e-03	6	5.806160e-02	5.476840e-03	7	false	GAMG	7.829470e-02	7.038680e-03	7	true
7             	smoothSolver	1.537160e-02	1.228920e-03	5	4.519030e-02	4.499510e-03	4	false	GAMG	8.429370e-02	7.910940e-03	5	true
8             	smoothSolver	1.046100e-02	8.857680e-04	6	3.375380e-02	2.745700e-03	6	false	GAMG	7.254430e-02	5.521630e-03	6	true
9             	smoothSolver	9.417470e-03	7.992420e-04	6	2.719780e-02	2.477660e-03	6	false	GAMG	6.356260e-02	5.350680e-03	5	true
10            	smoothSolver	8.615070e-03	7.416590e-04	6	2.330550e-02	2.196120e-03	6	false	GAMG	4.945290e-02	4.470300e-03	5	true
11            	smoothSolver	7.799890e-03	6.943920e-04	6	2.103060e-02	1.811520e-03	6	false	GAMG	4.144060e-02	3.601260e-03	5	true
12            	smoothSolver	1.227560e-02	1.054560e-03	4	2.549740e-02	2.084270e-03	5	false	GAMG	3.905980e-02	3.524570e-03	5	true
13            	smoothSolver	6.776990e-03	6.479410e-04	6	1.777860e-02	1.737170e-03	5	false	GAMG	3.637410e-02	3.604230e-03	5	true
14            	smoothSolver	6.485590e-03	6.282430e-04	6	1.651810e-02	1.311270e-03	6	false	GAMG	3.606030e-02	3.396610e-03	5	true
15            	smoothSolver	6.097490e-03	4.932980e-04	7	1.546900e-02	1.313360e-03	6	false	GAMG	3.372250e-02	3.264110e-03	5	true
16            	smoothSolver	5.911630e-03	5.899350e-04	6	1.689700e-02	1.654190e-03	5	false	GAMG	3.404950e-02	3.294290e-03	5	true
17            	smoothSolver	5.262000e-03	4.764250e-04	7	1.366780e-02	1.345190e-03	6	false	GAMG	3.314680e-02	3.218560e-03	5	true
18            	smoothSolver	4.911240e-03	4.675300e-04	7	1.297630e-02	1.064580e-03	7	false	GAMG	3.309790e-02	3.167190e-03	5	true
19            	smoothSolver	4.613890e-03	4.572950e-04	7	1.249600e-02	1.028450e-03	7	false	GAMG	3.201230e-02	3.019380e-03	5	true
20            	smoothSolver	4.390760e-03	3.596980e-04	8	1.181550e-02	9.605730e-04	7	false	GAMG	3.042750e-02	2.849440e-03	5	true
21            	smoothSolver	4.194710e-03	3.484710e-04	8	1.109730e-02	9.099870e-04	7	false	GAMG	2.859260e-02	2.599830e-03	5	true
22            	smoothSolver	4.006420e-03	3.373780e-04	8	1.043510e-02	8.654020e-04	7	false	GAMG	2.694990e-02	2.122280e-03	6	true
23            	smoothSolver	3.866510e-03	3.272200e-04	8	9.743350e-03	8.177270e-04	7	false	GAMG	2.538480e-02	2.227180e-03	6	true
24            	smoothSolver	3.653920e-03	3.173920e-04	8	9.056600e-03	7.815590e-04	7	false	GAMG	2.395450e-02	2.222500e-03	6	true
25            	smoothSolver	3.452350e-03	3.089270e-04	8	8.519370e-03	7.633760e-04	7	false	GAMG	2.229940e-02	2.170330e-03	6	true
26            	smoothSolver	3.306970e-03	3.005210e-04	8	8.021300e-03	7.383810e-04	7	false	GAMG	2.104410e-02	1.849250e-03	7	true
27            	smoothSolver	3.204700e-03	2.932900e-04	8	7.532620e-03	7.006470e-04	7	false	GAMG	1.967840e-02	1.768290e-03	7	true
28            	smoothSolver	3.039160e-03	2.879260e-04	8	7.050840e-03	6.636010e-04	7	false	GAMG	1.850810e-02	1.672710e-03	7	true
29            	smoothSolver	2.892580e-03	2.842310e-04	8	6.608640e-03	6.312480e-04	7	false	GAMG	1.728580e-02	1.552110e-03	7	true
30            	smoothSolver	2.779570e-03	2.271860e-04	9	6.242650e-03	6.025200e-04	7	false	GAMG	1.630420e-02	1.475980e-03	7	true
31            	smoothSolver	2.663850e-03	2.241470e-04	9	5.930320e-03	5.844690e-04	7	false	GAMG	1.516570e-02	1.445990e-03	7	true
32            	smoothSolver	2.556240e-03	2.216480e-04	9	5.656910e-03	4.606090e-04	8	false	GAMG	1.447340e-02	1.419870e-03	7	true
33            	smoothSolver	2.474320e-03	2.196820e-04	9	5.409460e-03	4.511340e-04	8	false	GAMG	1.357670e-02	1.179100e-03	8	true
34            	smoothSolver	2.433320e-03	2.171750e-04	9	5.255730e-03	4.464530e-04	8	false	GAMG	1.325620e-02	1.325110e-03	8	true
35            	smoothSolver	2.359540e-03	2.147770e-04	9	5.067720e-03	4.397640e-04	8	false	GAMG	1.247680e-02	1.244130e-03	8	true
36            	smoothSolver	2.290490e-03	2.124040e-04	9	4.822070e-03	4.255620e-04	8	false	GAMG	1.206450e-02	1.190520e-03	8	true
37            	smoothSolver	2.234590e-03	2.105770e-04	9	4.610700e-03	4.141840e-04	8	false	GAMG	1.127530e-02	1.046840e-03	9	true
38            	smoothSolver	2.203170e-03	2.090090e-04	9	4.422470e-03	4.024810e-04	8	false	GAMG	1.085790e-02	1.070270e-03	9	true
39            	smoothSolver	2.145110e-03	2.075120e-04	9	4.242670e-03	3.906580e-04	8	false	GAMG	1.004390e-02	9.989870e-04	9	true
40            	smoothSolver	2.087080e-03	2.057050e-04	9	4.033420e-03	3.800900e-04	8	false	GAMG	9.573690e-03	9.260810e-04	10	true
41            	smoothSolver	2.053690e-03	2.042320e-04	9	3.872170e-03	3.765750e-04	8	false	GAMG	8.897570e-03	8.230200e-04	11	true
42            	smoothSolver	2.004370e-03	1.646800e-04	10	3.710270e-03	3.029230e-04	9	false	GAMG	8.471370e-03	8.286580e-04	11	true
43            	smoothSolver	1.951540e-03	1.634660e-04	10	3.571040e-03	3.024040e-04	9	false	GAMG	7.834230e-03	7.661270e-04	12	true
44            	smoothSolver	1.901540e-03	1.619450e-04	10	3.476550e-03	3.026730e-04	9	false	GAMG	7.472660e-03	7.395250e-04	13	true
45            	smoothSolver	1.860850e-03	1.605340e-04	10	3.375340e-03	3.018850e-04	9	false	GAMG	7.014190e-03	6.942790e-04	14	true
46            	smoothSolver	1.811610e-03	1.589510e-04	10	3.308440e-03	3.007800e-04	9	false	GAMG	6.744140e-03	6.695850e-04	15	true
47            	smoothSolver	1.770990e-03	1.572760e-04	10	3.235710e-03	3.017680e-04	9	false	GAMG	6.405360e-03	6.167320e-04	16	true
48            	smoothSolver	1.730330e-03	1.555020e-04	10	3.212590e-03	3.082560e-04	9	false	GAMG	6.245520e-03	6.234640e-04	16	true
49            	smoothSolver	1.688550e-03	1.538500e-04	10	3.215050e-03	3.122050e-04	9	false	GAMG	5.964410e-03	5.728760e-04	17	true
50            	smoothSolver	1.662660e-03	1.520150e-04	10	3.217540e-03	3.129490e-04	9	false	GAMG	5.848540e-03	5.644110e-04	17	true
51            	smoothSolver	1.634870e-03	1.502020e-04	10	3.202200e-03	3.111750e-04	9	false	GAMG	5.613800e-03	5.540240e-04	17	true
52            	smoothSolver	1.607690e-03	1.484170e-04	10	3.168210e-03	3.091230e-04	9	false	GAMG	5.507520e-03	5.329220e-04	16	true
53            	smoothSolver	1.588670e-03	1.466510e-04	10	3.121920e-03	3.082720e-04	9	false	GAMG	5.301820e-03	5.164010e-04	17	true
54            	smoothSolver	1.560260e-03	1.450370e-04	10	3.091770e-03	3.054190e-04	9	false	GAMG	5.211330e-03	5.147220e-04	17	true
55            	smoothSolver	1.533520e-03	1.435600e-04	10	3.044660e-03	3.002660e-04	9	false	GAMG	4.962070e-03	4.767570e-04	18	true
56            	smoothSolver	1.513250e-03	1.418220e-04	10	2.970960e-03	2.948040e-04	9	false	GAMG	4.781440e-03	4.596530e-04	19	true
57            	smoothSolver	1.490130e-03	1.399210e-04	10	2.868960e-03	2.378690e-04	10	false	GAMG	4.497630e-03	4.405580e-04	19	true
58            	smoothSolver	1.463070e-03	1.383010e-04	10	2.776290e-03	2.323520e-04	10	false	GAMG	4.263250e-03	4.157850e-04	20	true
59            	smoothSolver	1.437720e-03	1.370840e-04	10	2.726590e-03	2.277690e-04	10	false	GAMG	3.985330e-03	3.833820e-04	21	true
60            	smoothSolver	1.410630e-03	1.357660e-04	10	2.676070e-03	2.242790e-04	10	false	GAMG	3.828770e-03	3.693530e-04	21	true
61            	smoothSolver	1.382100e-03	1.342660e-04	10	2.632280e-03	2.241480e-04	10	false	GAMG	3.670730e-03	3.550790e-04	21	true
62            	smoothSolver	1.359800e-03	1.323700e-04	10	2.585470e-03	2.239340e-04	10	false	GAMG	3.571840e-03	3.552790e-04	20	true
63            	smoothSolver	1.336500e-03	1.302660e-04	10	2.540230e-03	2.235680e-04	10	false	GAMG	3.429980e-03	3.376380e-04	20	true
64            	smoothSolver	1.309460e-03	1.279990e-04	10	2.522760e-03	2.225220e-04	10	false	GAMG	3.363060e-03	3.321260e-04	19	true
65            	smoothSolver	1.286910e-03	1.262160e-04	10	2.523450e-03	2.232540e-04	10	false	GAMG	3.263000e-03	3.203640e-04	18	true
66            	smoothSolver	1.265100e-03	1.245730e-04	10	2.521640e-03	2.238350e-04	10	false	GAMG	3.170940e-03	3.120110e-04	18	true
67            	smoothSolver	1.247850e-03	1.230650e-04	10	2.505150e-03	2.240060e-04	10	false	GAMG	3.054270e-03	2.923830e-04	17	true
68            	smoothSolver	1.228160e-03	1.214090e-04	10	2.482450e-03	2.224620e-04	10	false	GAMG	3.005180e-03	2.945520e-04	18	true
69            	smoothSolver	1.210540e-03	1.197150e-04	10	2.466680e-03	2.209020e-04	10	false	GAMG	2.932920e-03	2.928750e-04	18	true
70            	smoothSolver	1.191200e-03	1.179500e-04	10	2.457870e-03	2.202240e-04	10	false	GAMG	2.873040e-03	2.847120e-04	18	true
71            	smoothSolver	1.174140e-03	1.164070e-04	10	2.435090e-03	2.191510e-04	10	false	GAMG	2.809170e-03	2.770490e-04	18	true
72            	smoothSolver	1.157700e-03	1.148810e-04	10	2.404120e-03	2.164820e-04	10	false	GAMG	2.757900e-03	2.715250e-04	18	true
73            	smoothSolver	1.142120e-03	1.134640e-04	10	2.364670e-03	2.124640e-04	10	false	GAMG	2.683020e-03	2.634860e-04	18	true
74            	smoothSolver	1.124510e-03	1.119140e-04	10	2.314390e-03	2.085570e-04	10	false	GAMG	2.623860e-03	2.567990e-04	18	true
75            	smoothSolver	1.106800e-03	1.105440e-04	10	2.267110e-03	2.052450e-04	10	false	GAMG	2.542240e-03	2.490330e-04	18	true
76            	smoothSolver	1.091070e-03	8.873450e-05	11	2.217860e-03	2.017960e-04	10	false	GAMG	2.463140e-03	2.419520e-04	18	true
77            	smoothSolver	1.073910e-03	8.759270e-05	11	2.176640e-03	1.990550e-04	10	false	GAMG	2.347480e-03	2.343800e-04	18	true
78            	smoothSolver	1.056500e-03	8.636610e-05	11	2.113250e-03	1.937490e-04	10	false	GAMG	2.246790e-03	2.175310e-04	19	true
79            	smoothSolver	1.042960e-03	8.518820e-05	11	2.049630e-03	1.874270e-04	10	false	GAMG	2.126040e-03	2.079770e-04	19	true
80            	smoothSolver	1.022680e-03	8.401870e-05	11	1.991070e-03	1.824340e-04	10	false	GAMG	2.031750e-03	2.012390e-04	19	true
81            	smoothSolver	1.002650e-03	8.303650e-05	11	1.954110e-03	1.787270e-04	10	false	GAMG	1.945610e-03	1.919510e-04	19	true
82            	smoothSolver	9.876200e-04	8.208280e-05	11	1.919810e-03	1.765610e-04	10	false	GAMG	1.876450e-03	1.807500e-04	19	true
83            	smoothSolver	9.732820e-04	8.117170e-05	11	1.883280e-03	1.746070e-04	10	false	GAMG	1.810660e-03	1.761730e-04	18	true
84            	smoothSolver	9.595650e-04	8.016380e-05	11	1.863430e-03	1.739560e-04	10	false	GAMG	1.749860e-03	1.693530e-04	18	true
85            	smoothSolver	9.438570e-04	7.913340e-05	11	1.839500e-03	1.728670e-04	10	false	GAMG	1.681510e-03	1.676840e-04	17	true
86            	smoothSolver	9.327490e-04	7.801240e-05	11	1.814920e-03	1.712320e-04	10	false	GAMG	1.636420e-03	1.573980e-04	17	true
87            	smoothSolver	9.191650e-04	7.685840e-05	11	1.804630e-03	1.700710e-04	10	false	GAMG	1.601670e-03	1.544750e-04	16	true
88            	smoothSolver	9.033480e-04	7.562420e-05	11	1.800640e-03	1.698890e-04	10	false	GAMG	1.576720e-03	1.572580e-04	14	true
89            	smoothSolver	8.900310e-04	7.441660e-05	11	1.786690e-03	1.687300e-04	10	false	GAMG	1.556210e-03	1.475790e-04	15	true
90            	smoothSolver	8.777650e-04	7.322680e-05	11	1.755860e-03	1.667800e-04	10	false	GAMG	1.538650e-03	1.484810e-04	13	true
91            	smoothSolver	8.659960e-04	7.212800e-05	11	1.728790e-03	1.644150e-04	10	false	GAMG	1.519090e-03	1.464390e-04	14	true
92            	smoothSolver	8.537440e-04	7.101700e-05	11	1.701250e-03	1.617520e-04	10	false	GAMG	1.496050e-03	1.488780e-04	13	true
93            	smoothSolver	8.421150e-04	6.995880e-05	11	1.679010e-03	1.593210e-04	10	false	GAMG	1.472150e-03	1.373380e-04	13	true
94            	smoothSolver	8.280750e-04	6.886870e-05	11	1.664510e-03	1.571940e-04	10	false	GAMG	1.446640e-03	1.357400e-04	13	true
95            	smoothSolver	8.155900e-04	6.790370e-05	11	1.629280e-03	1.542820e-04	10	false	GAMG	1.407980e-03	1.388440e-04	12	true
96            	smoothSolver	8.044950e-04	6.696400e-05	11	1.592300e-03	1.517160e-04	10	false	GAMG	1.370030e-03	1.272760e-04	13	true
97            	smoothSolver	7.931780e-04	6.613070e-05	11	1.555550e-03	1.485440e-04	10	false	GAMG	1.326660e-03	1.232730e-04	12	true
98            	smoothSolver	7.808100e-04	6.529820e-05	11	1.518730e-03	1.450880e-04	10	false	GAMG	1.290040e-03	1.218480e-04	11	true
99            	smoothSolver	7.716830e-04	6.452820e-05	11	1.484110e-03	1.416870e-04	10	false	GAMG	1.253560e-03	1.227190e-04	11	true
100           	smoothSolver	7.613330e-04	6.377940e-05	11	1.438170e-03	1.384970e-04	10	false	GAMG	1.203050e-03	1.180050e-04	12	true
101           	smoothSolver	7.506220e-04	6.310790e-05	11	1.403910e-03	1.356860e-04	10	false	GAMG	1.152320e-03	1.097820e-04	13	true
102           	smoothSolver	7.434570e-04	6.240670e-05	11	1.372970e-03	1.326880e-04	10	false	GAMG	1.115430e-03	1.061850e-04	13	true
103           	smoothSolver	7.325750e-04	6.170730e-05	11	1.346630e-03	1.299820e-04	10	false	GAMG	1.087760e-03	1.084850e-04	13	true
104           	smoothSolver	7.222350e-04	6.099750e-05	11	1.314810e-03	1.280160e-04	10	false	GAMG	1.055540e-03	9.922510e-05	14	true
105           	smoothSolver	7.139910e-04	6.030690e-05	11	1.303080e-03	1.274950e-04	10	false	GAMG	1.022880e-03	9.639550e-05	15	true
106           	smoothSolver	7.040280e-04	5.958660e-05	11	1.290200e-03	1.271260e-04	10	false	GAMG	9.970300e-04	9.814770e-05	14	true
107           	smoothSolver	6.945750e-04	5.887330e-05	11	1.275510e-03	1.265790e-04	10	false	GAMG	9.675790e-04	9.014630e-05	14	true
108           	smoothSolver	6.867790e-04	5.812610e-05	11	1.266420e-03	1.256800e-04	10	false	GAMG	9.498080e-04	8.919490e-05	15	true
109           	smoothSolver	6.804530e-04	5.743840e-05	11	1.253970e-03	1.249130e-04	10	false	GAMG	9.378750e-04	9.363130e-05	13	true
110           	smoothSolver	6.715700e-04	5.673980e-05	11	1.250110e-03	1.017520e-04	11	false	GAMG	9.320360e-04	9.133410e-05	14	true
111           	smoothSolver	6.663990e-04	5.611200e-05	11	1.239090e-03	1.006810e-04	11	false	GAMG	9.206480e-04	8.640970e-05	15	true
112           	smoothSolver	6.613000e-04	5.547250e-05	11	1.232970e-03	1.228120e-04	10	false	GAMG	9.105150e-04	8.889370e-05	14	true
113           	smoothSolver	6.553120e-04	5.480200e-05	11	1.237720e-03	1.236510e-04	10	false	GAMG	9.113510e-04	8.854900e-05	15	true
114           	smoothSolver	6.492910e-04	5.414840e-05	11	1.239230e-03	1.239120e-04	10	false	GAMG	9.143460e-04	9.043500e-05	14	true
115           	smoothSolver	6.440830e-04	5.354000e-05	11	1.242190e-03	1.009870e-04	11	false	GAMG	9.289780e-04	9.152800e-05	15	true
116           	smoothSolver	6.397840e-04	5.299870e-05	11	1.232870e-03	1.230370e-04	10	false	GAMG	9.320370e-04	8.617670e-05	15	true
117           	smoothSolver	6.329130e-04	5.240600e-05	11	1.236970e-03	1.235330e-04	10	false	GAMG	9.394980e-04	9.240360e-05	14	true
118           	smoothSolver	6.303660e-04	5.183010e-05	11	1.231950e-03	1.000530e-04	11	false	GAMG	9.543430e-04	9.092340e-05	16	true
119           	smoothSolver	6.242770e-04	5.133870e-05	11	1.212040e-03	9.842440e-05	11	false	GAMG	9.580480e-04	9.448250e-05	15	true
120           	smoothSolver	6.221430e-04	5.086070e-05	11	1.199760e-03	1.193920e-04	10	false	GAMG	9.514160e-04	9.126470e-05	15	true
121           	smoothSolver	6.161450e-04	5.033480e-05	11	1.199540e-03	1.191460e-04	10	false	GAMG	9.383730e-04	8.855520e-05	17	true
122           	smoothSolver	6.118470e-04	4.983640e-05	11	1.193410e-03	1.185330e-04	10	false	GAMG	9.114430e-04	8.676960e-05	15	true
123           	smoothSolver	6.081250e-04	4.938740e-05	11	1.183500e-03	1.174240e-04	10	false	GAMG	9.002830e-04	8.973570e-05	17	true
124           	smoothSolver	6.020750e-04	4.896540e-05	11	1.162710e-03	1.156130e-04	10	false	GAMG	8.836740e-04	8.536240e-05	17	true
125           	smoothSolver	5.971450e-04	4.854570e-05	11	1.154650e-03	1.142730e-04	10	false	GAMG	8.626640e-04	8.310990e-05	17	true
126           	smoothSolver	5.916640e-04	4.809860e-05	11	1.137810e-03	1.122730e-04	10	false	GAMG	8.351710e-04	8.271450e-05	16	true
127           	smoothSolver	5.848290e-04	4.766720e-05	11	1.120840e-03	1.106860e-04	10	false	GAMG	8.188280e-04	8.125970e-05	15	true
128           	smoothSolver	5.815400e-04	4.721440e-05	11	1.098990e-03	1.088510e-04	10	false	GAMG	8.054170e-04	7.752180e-05	15	true
129           	smoothSolver	5.754250e-04	4.684060e-05	11	1.072220e-03	1.069890e-04	10	false	GAMG	7.868340e-04	7.817800e-05	14	true
130           	smoothSolver	5.686050e-04	4.646010e-05	11	1.054840e-03	1.048830e-04	10	false	GAMG	7.621600e-04	7.377980e-05	14	true
131           	smoothSolver	5.630870e-04	4.607780e-05	11	1.042040e-03	1.033350e-04	10	false	GAMG	7.370970e-04	7.035010e-05	15	true
132           	smoothSolver	5.603580e-04	4.566380e-05	11	1.027530e-03	1.014690e-04	10	false	GAMG	7.200820e-04	7.023050e-05	15	true
133           	smoothSolver	5.543130e-04	4.528320e-05	11	1.008070e-03	9.951140e-05	10	false	GAMG	7.108360e-04	6.573810e-05	16	true
134           	smoothSolver	5.509700e-04	4.487100e-05	11	9.859340e-04	9.760110e-05	10	false	GAMG	6.964130e-04	6.729330e-05	16	true
135           	smoothSolver	5.455040e-04	4.447700e-05	11	9.733210e-04	9.609410e-05	10	false	GAMG	6.828500e-04	6.767840e-05	16	true
136           	smoothSolver	5.409860e-04	4.412980e-05	11	9.610610e-04	9.437290e-05	10	false	GAMG	6.667810e-04	6.291930e-05	17	true
137           	smoothSolver	5.391180e-04	4.380280e-05	11	9.467410e-04	9.270160e-05	10	false	GAMG	6.626340e-04	6.480230e-05	16	true
138           	smoothSolver	5.350630e-04	4.344510e-05	11	9.312530e-04	9.163930e-05	10	false	GAMG	6.538550e-04	6.304340e-05	16	true
139           	smoothSolver	5.310080e-04	4.312320e-05	11	9.227490e-04	9.133470e-05	10	false	GAMG	6.469490e-04	6.215280e-05	15	true
140           	smoothSolver	5.298280e-04	5.276770e-05	10	9.211100e-04	9.080170e-05	10	false	GAMG	6.312890e-04	6.153390e-05	14	true
141           	smoothSolver	5.272020e-04	5.246020e-05	10	9.057820e-04	8.923220e-05	10	false	GAMG	6.266940e-04	6.015440e-05	14	true
142           	smoothSolver	5.234320e-04	5.216870e-05	10	8.899250e-04	8.831070e-05	10	false	GAMG	6.176860e-04	5.947010e-05	14	true
143           	smoothSolver	5.203750e-04	5.194200e-05	10	8.853100e-04	8.834370e-05	10	false	GAMG	6.134580e-04	6.075950e-05	15	true
144           	smoothSolver	5.203080e-04	5.165690e-05	10	8.921750e-04	8.819810e-05	10	false	GAMG	6.025950e-04	5.997240e-05	16	true
145           	smoothSolver	5.188880e-04	5.132720e-05	10	8.907830e-04	8.790490e-05	10	false	GAMG	6.061580e-04	5.720740e-05	18	true
146           	smoothSolver	5.162930e-04	5.099580e-05	10	8.840240e-04	8.779030e-05	10	false	GAMG	6.109620e-04	6.004490e-05	18	true
147           	smoothSolver	5.142700e-04	5.074190e-05	10	8.818730e-04	8.774450e-05	10	false	GAMG	6.215480e-04	5.990560e-05	19	true
148           	smoothSolver	5.142910e-04	5.055420e-05	10	8.895340e-04	8.782980e-05	10	false	GAMG	6.213640e-04	5.878700e-05	19	true
149           	smoothSolver	5.105190e-04	5.032110e-05	10	8.934040e-04	8.799040e-05	10	false	GAMG	6.193450e-04	5.979820e-05	19	true
150           	smoothSolver	5.094610e-04	5.003960e-05	10	8.883880e-04	8.779940e-05	10	false	GAMG	6.124480e-04	5.833370e-05	18	true
151           	smoothSolver	5.084650e-04	4.979450e-05	10	8.849180e-04	8.761260e-05	10	false	GAMG	6.202260e-04	5.992300e-05	19	true
152           	smoothSolver	5.062660e-04	4.956870e-05	10	8.883930e-04	8.767510e-05	10	false	GAMG	6.156310e-04	6.155480e-05	17	true
153           	smoothSolver	5.045840e-04	4.936640e-05	10	8.930010e-04	8.753940e-05	10	false	GAMG	6.150450e-04	6.110440e-05	17	true
154           	smoothSolver	5.035290e-04	4.915650e-05	10	8.942210e-04	8.733240e-05	10	false	GAMG	6.080200e-04	6.067470e-05	17	true
155           	smoothSolver	5.029650e-04	4.895260e-05	10	8.851950e-04	8.715790e-05	10	false	GAMG	6.135460e-04	5.778860e-05	16	true
156           	smoothSolver	5.005660e-04	4.873800e-05	10	8.816430e-04	8.688720e-05	10	false	GAMG	6.166160e-04	6.116710e-05	15	true
157           	smoothSolver	4.976150e-04	4.856830e-05	10	8.829800e-04	8.637180e-05	10	false	GAMG	6.165920e-04	5.882430e-05	16	true
158           	smoothSolver	4.962510e-04	4.834840e-05	10	8.874550e-04	8.592820e-05	10	false	GAMG	6.145680e-04	6.069790e-05	17	true
159           	smoothSolver	4.986000e-04	4.817030e-05	10	8.819920e-04	8.536340e-05	10	false	GAMG	6.253640e-04	5.895440e-05	17	true
160           	smoothSolver	4.963100e-04	4.803500e-05	10	8.745400e-04	8.477730e-05	10	false	GAMG	6.346730e-04	5.949200e-05	18	true
161           	smoothSolver	4.952440e-04	4.792640e-05	10	8.732140e-04	8.415100e-05	10	false	GAMG	6.402820e-04	6.239800e-05	18	true
162           	smoothSolver	4.931910e-04	4.773040e-05	10	8.722620e-04	8.331540e-05	10	false	GAMG	6.365670e-04	5.957700e-05	19	true
163           	smoothSolver	4.954420e-04	4.754130e-05	10	8.694120e-04	8.275280e-05	10	false	GAMG	6.380550e-04	6.257190e-05	18	true
164           	smoothSolver	4.948230e-04	4.741000e-05	10	8.585500e-04	8.218880e-05	10	false	GAMG	6.434870e-04	6.399130e-05	18	true
165           	smoothSolver	4.931370e-04	4.732170e-05	10	8.552670e-04	8.177210e-05	10	false	GAMG	6.539180e-04	6.253360e-05	18	true
166           	smoothSolver	4.912700e-04	4.716460e-05	10	8.566470e-04	8.154270e-05	10	false	GAMG	6.491650e-04	6.073760e-05	18	true
167           	smoothSolver	4.902150e-04	4.705570e-05	10	8.581240e-04	8.142490e-05	10	false	GAMG	6.467700e-04	6.344970e-05	17	true
168           	smoothSolver	4.932210e-04	4.690330e-05	10	8.542010e-04	8.122920e-05	10	false	GAMG	6.502120e-04	6.219800e-05	17	true
169           	smoothSolver	4.924560e-04	4.682090e-05	10	8.509770e-04	8.166580e-05	10	false	GAMG	6.528990e-04	6.267680e-05	16	true
170           	smoothSolver	4.930520e-04	4.670880e-05	10	8.528300e-04	8.193230e-05	10	false	GAMG	6.430370e-04	6.009540e-05	17	true
171           	smoothSolver	4.916710e-04	4.660020e-05	10	8.558630e-04	8.235620e-05	10	false	GAMG	6.395860e-04	6.228490e-05	16	true
172           	smoothSolver	4.925880e-04	4.650960e-05	10	8.643670e-04	8.271650e-05	10	false	GAMG	6.455150e-04	6.128950e-05	17	true
173           	smoothSolver	4.939630e-04	4.647410e-05	10	8.682830e-04	8.357470e-05	10	false	GAMG	6.576430e-04	6.145960e-05	17	true
174           	smoothSolver	4.920700e-04	4.639110e-05	10	8.793320e-04	8.459620e-05	10	false	GAMG	6.617970e-04	6.081900e-05	16	true
175           	smoothSolver	4.939760e-04	4.631450e-05	10	8.856190e-04	8.518510e-05	10	false	GAMG	6.703730e-04	6.533230e-05	17	true
176           	smoothSolver	4.941380e-04	4.632300e-05	10	8.928600e-04	8.563040e-05	10	false	GAMG	6.809020e-04	6.446290e-05	17	true
177           	smoothSolver	4.950080e-04	4.632380e-05	10	8.964120e-04	8.673940e-05	10	false	GAMG	6.940400e-04	6.572720e-05	17	true
178           	smoothSolver	4.960080e-04	4.626380e-05	10	9.067430e-04	8.777510e-05	10	false	GAMG	6.970700e-04	6.582320e-05	17	true
179           	smoothSolver	4.965650e-04	4.631830e-05	10	9.184890e-04	8.853950e-05	10	false	GAMG	7.021970e-04	6.939160e-05	16	true
180           	smoothSolver	4.958380e-04	4.631670e-05	10	9.222840e-04	8.943600e-05	10	false	GAMG	7.013630e-04	6.614020e-05	16	true
181           	smoothSolver	4.955750e-04	4.631360e-05	10	9.262120e-04	9.068060e-05	10	false	GAMG	7.010060e-04	6.735110e-05	16	true
182           	smoothSolver	4.965160e-04	4.629410e-05	10	9.384400e-04	9.126210e-05	10	false	GAMG	6.971090e-04	6.857680e-05	16	true
183           	smoothSolver	4.970030e-04	4.634140e-05	10	9.482560e-04	9.193560e-05	10	false	GAMG	7.021340e-04	6.838460e-05	16	true
184           	smoothSolver	4.973890e-04	4.637570e-05	10	9.544830e-04	9.300400e-05	10	false	GAMG	6.975540e-04	6.659430e-05	16	true
185           	smoothSolver	4.975240e-04	4.642920e-05	10	9.568370e-04	9.414190e-05	10	false	GAMG	7.018290e-04	6.776980e-05	15	true
186           	smoothSolver	5.009940e-04	4.638260e-05	10	9.609100e-04	9.460780e-05	10	false	GAMG	7.048210e-04	6.721720e-05	15	true
187           	smoothSolver	4.994140e-04	4.642810e-05	10	9.722660e-04	9.557250e-05	10	false	GAMG	7.048450e-04	6.870580e-05	15	true
188           	smoothSolver	4.989540e-04	4.641170e-05	10	9.867750e-04	9.678560e-05	10	false	GAMG	7.014030e-04	6.656000e-05	16	true
189           	smoothSolver	5.022950e-04	4.650720e-05	10	9.983860e-04	9.807440e-05	10	false	GAMG	7.064520e-04	6.546540e-05	17	true
190           	smoothSolver	5.025470e-04	4.654220e-05	10	1.003640e-03	9.908800e-05	10	false	GAMG	7.149550e-04	6.795000e-05	16	true
191           	smoothSolver	5.015360e-04	4.659890e-05	10	1.010820e-03	1.001020e-04	10	false	GAMG	7.278640e-04	6.791460e-05	17	true
192           	smoothSolver	5.011430e-04	4.663680e-05	10	1.034340e-03	1.015930e-04	10	false	GAMG	7.215510e-04	7.029480e-05	16	true
193           	smoothSolver	5.017060e-04	4.670250e-05	10	1.044790e-03	1.023700e-04	10	false	GAMG	7.223080e-04	7.067470e-05	17	true
194           	smoothSolver	5.053100e-04	4.670990e-05	10	1.049670e-03	1.033180e-04	10	false	GAMG	7.239190e-04	7.070840e-05	16	true
195           	smoothSolver	5.052500e-04	4.678900e-05	10	1.048820e-03	1.044740e-04	10	false	GAMG	7.348450e-04	6.915570e-05	17	true
196           	smoothSolver	5.048200e-04	4.680100e-05	10	1.068350e-03	1.055900e-04	10	false	GAMG	7.332860e-04	6.751440e-05	16	true
197           	smoothSolver	5.039930e-04	4.680670e-05	10	1.087930e-03	1.071500e-04	10	false	GAMG	7.280560e-04	7.211490e-05	15	true
198           	smoothSolver	5.048770e-04	4.683050e-05	10	1.099570e-03	1.083640e-04	10	false	GAMG	7.176760e-04	6.795760e-05	15	true
199           	smoothSolver	5.054630e-04	4.676340e-05	10	1.101470e-03	1.099800e-04	10	false	GAMG	7.300930e-04	7.198840e-05	14	true
200           	smoothSolver	5.046380e-04	4.676780e-05	10	1.113080e-03	1.111180e-04	10	false	GAMG	7.313950e-04	7.211630e-05	14	true
201           	smoothSolver	5.030510e-04	4.675900e-05	10	1.127370e-03	1.123330e-04	10	false	GAMG	7.280190e-04	7.221480e-05	15	true
202           	smoothSolver	5.046210e-04	4.660220e-05	10	1.141980e-03	1.138590e-04	10	false	GAMG	7.151470e-04	6.944610e-05	16	true
203           	smoothSolver	5.063870e-04	4.657860e-05	10	1.158670e-03	9.385200e-05	11	false	GAMG	7.331670e-04	6.842600e-05	17	true
204           	smoothSolver	5.079410e-04	4.665540e-05	10	1.165990e-03	9.442450e-05	11	false	GAMG	7.362490e-04	6.956180e-05	17	true
205           	smoothSolver	5.055230e-04	4.661520e-05	10	1.178550e-03	9.526790e-05	11	false	GAMG	7.439960e-04	6.936030e-05	16	true
206           	smoothSolver	5.054290e-04	4.654680e-05	10	1.189550e-03	9.603360e-05	11	false	GAMG	7.420470e-04	7.399350e-05	17	true
207           	smoothSolver	5.069800e-04	4.657100e-05	10	1.200600e-03	1.197680e-04	10	false	GAMG	7.540280e-04	7.477150e-05	16	true
208           	smoothSolver	5.075750e-04	4.660120e-05	10	1.215210e-03	9.864830e-05	11	false	GAMG	7.716060e-04	7.657180e-05	16	true
209           	smoothSolver	5.073950e-04	4.662050e-05	10	1.217320e-03	9.915610e-05	11	false	GAMG	7.815760e-04	7.605640e-05	16	true
210           	smoothSolver	5.078650e-04	4.664380e-05	10	1.226020e-03	9.921550e-05	11	false	GAMG	7.797070e-04	7.598480e-05	16	true
211           	smoothSolver	5.082330e-04	4.677860e-05	10	1.223520e-03	9.905670e-05	11	false	GAMG	7.876070e-04	7.639080e-05	16	true
212           	smoothSolver	5.090250e-04	4.680440e-05	10	1.221120e-03	9.907430e-05	11	false	GAMG	7.840500e-04	7.600250e-05	16	true
213           	smoothSolver	5.101870e-04	4.684730e-05	10	1.225390e-03	9.902890e-05	11	false	GAMG	7.903730e-04	7.423110e-05	16	true
214           	smoothSolver	5.111320e-04	4.695300e-05	10	1.231950e-03	1.221420e-04	10	false	GAMG	7.886530e-04	7.806410e-05	15	true
215           	smoothSolver	5.145780e-04	4.702850e-05	10	1.231950e-03	1.229650e-04	10	false	GAMG	7.988480e-04	7.730660e-05	15	true
216           	smoothSolver	5.130540e-04	4.712280e-05	10	1.232700e-03	1.003800e-04	11	false	GAMG	8.076800e-04	7.965320e-05	14	true
217           	smoothSolver	5.169650e-04	4.725650e-05	10	1.228890e-03	9.961750e-05	11	false	GAMG	8.107820e-04	7.942720e-05	14	true
218           	smoothSolver	5.159690e-04	4.733620e-05	10	1.228700e-03	1.223790e-04	10	false	GAMG	8.010730e-04	7.636710e-05	15	true
219           	smoothSolver	5.181370e-04	4.735810e-05	10	1.237520e-03	1.236880e-04	10	false	GAMG	8.097440e-04	8.004210e-05	15	true
220           	smoothSolver	5.171590e-04	4.749890e-05	10	1.248120e-03	1.009650e-04	11	false	GAMG	8.155580e-04	7.768680e-05	16	true
221           	smoothSolver	5.201610e-04	4.769260e-05	10	1.236320e-03	1.002210e-04	11	false	GAMG	8.234550e-04	8.116020e-05	16	true
222           	smoothSolver	5.190010e-04	4.778230e-05	10	1.227280e-03	9.923600e-05	11	false	GAMG	8.226150e-04	7.618050e-05	17	true
223           	smoothSolver	5.222130e-04	4.790590e-05	10	1.236030e-03	1.232630e-04	10	false	GAMG	8.192700e-04	8.093210e-05	16	true
224           	smoothSolver	5.227460e-04	4.799830e-05	10	1.260820e-03	1.254100e-04	10	false	GAMG	8.170540e-04	7.764360e-05	17	true
225           	smoothSolver	5.241010e-04	4.818340e-05	10	1.265100e-03	1.029860e-04	11	false	GAMG	8.242110e-04	7.829810e-05	16	true
226           	smoothSolver	5.259760e-04	4.843760e-05	10	1.260430e-03	1.033480e-04	11	false	GAMG	8.243790e-04	7.792390e-05	16	true
227           	smoothSolver	5.257200e-04	4.858690e-05	10	1.275360e-03	1.044390e-04	11	false	GAMG	8.294740e-04	8.160770e-05	15	true
228           	smoothSolver	5.275810e-04	4.871790e-05	10	1.303710e-03	1.059710e-04	11	false	GAMG	8.230380e-04	7.836740e-05	15	true