/*--------------------------------*- C++ -*----------------------------------*\
| =========                 |                                                 |
| \\      /  F ield         | OpenFOAM: The Open Source CFD Toolbox           |
|  \\    /   O peration     | Version:  v1912                                 |
|   \\  /    A nd           | Website:  www.openfoam.com                      |
|    \\/     M anipulation  |                                                 |
\*---------------------------------------------------------------------------*/
FoamFile
{
    version     2.0;
    format      ascii;
    class       volScalarField;
    location    "600";
    object      p;
}
// * * * * * * * * * * * * * * * * * * * * * * * * * * * * * * * * * * * * * //

dimensions      [0 2 -2 0 0 0 0];


internalField   nonuniform List<scalar> 
2000
(
-0.0460125
0.0713988
0.125979
0.119091
0.103263
0.0969573
0.0963522
0.0977008
0.0979182
0.097697
0.0978371
0.097514
0.0972565
0.0972008
0.0972586
0.0972808
0.0972384
0.0972171
0.0972117
0.0972153
0.0972192
0.0972129
0.0971919
0.0971576
0.0971165
0.0970748
0.0970377
0.0970068
0.0969798
0.0969541
0.0969277
0.0969003
0.0968718
0.0968426
0.096813
0.0967835
0.0967547
0.0967266
0.0966992
0.0966723
0.0966458
0.0966201
0.0965954
0.0965723
0.0965517
0.096534
0.0965203
0.0965123
0.0965124
0.0965212
0.0965293
0.0964947
0.096299
0.0957
0.0943361
0.091818
0.0878576
0.0824059
0.0759302
0.0698546
0.0662801
0.0663084
0.0709232
0.0797139
0.0917128
0.105915
0.121479
0.137621
0.153438
0.167854
0.17983
0.188492
0.193001
0.19254
0.186309
0.173636
0.153389
0.125366
0.0838567
0.0415523
0.00723469
0.0924111
0.131229
0.118034
0.100292
0.0960945
0.0996361
0.102076
0.0993219
0.0960779
0.0956404
0.0969406
0.0973886
0.0972566
0.0974816
0.097384
0.0972604
0.097158
0.0971232
0.0971119
0.0971298
0.0971704
0.0971778
0.0971547
0.0971198
0.0970825
0.0970472
0.0970157
0.0969885
0.0969628
0.096934
0.096904
0.0968739
0.0968443
0.0968149
0.096786
0.0967581
0.0967323
0.0967077
0.0966835
0.0966596
0.0966361
0.0966129
0.09659
0.0965671
0.0965447
0.0965242
0.0965104
0.0965177
0.0965706
0.0966736
0.0967404
0.0964913
0.0953695
0.0926053
0.087538
0.0800145
0.0706367
0.0610361
0.0543024
0.0540006
0.0593026
0.0677426
0.0785946
0.0913844
0.105754
0.121146
0.136805
0.15183
0.165223
0.175976
0.183112
0.185724
0.183074
0.174491
0.159428
0.136976
0.107299
0.0664061
0.0294421
0.0583026
0.0921005
0.114792
0.113235
0.104036
0.0998616
0.0998999
0.0992626
0.0973566
0.0966716
0.0982615
0.0998604
0.0988807
0.0964218
0.0955279
0.0964016
0.0972859
0.0974618
0.0973026
0.097198
0.0971398
0.0971036
0.0970851
0.0970973
0.0971053
0.0970946
0.0970644
0.0970196
0.0969835
0.0969482
0.0969208
0.0968953
0.0968701
0.0968467
0.0968249
0.0968032
0.0967804
0.096757
0.0967343
0.0967129
0.0966936
0.0966765
0.0966592
0.0966382
0.0966147
0.0966053
0.0966432
0.0967637
0.0969982
0.0973584
0.0977869
0.0980645
0.0977791
0.0963143
0.0929999
0.0874234
0.0798139
0.0713749
0.06415
0.0597047
0.058722
0.0621949
0.0694737
0.079427
0.0912764
0.104559
0.118712
0.132933
0.146276
0.157759
0.166435
0.171445
0.17207
0.167747
0.157993
0.142463
0.120565
0.0928321
0.0565504
0.0249963
0.0832898
0.0933035
0.105853
0.109933
0.10724
0.104221
0.10256
0.100828
0.099206
0.0983886
0.0982017
0.0981043
0.0977598
0.0970655
0.0965417
0.0974858
0.0987394
0.0980015
0.0968435
0.0964419
0.0963914
0.0965646
0.0968527
0.0970769
0.0972067
0.0972852
0.0973288
0.097305
0.0972195
0.0971194
0.0970225
0.0969393
0.0968777
0.0968444
0.0968264
0.0968112
0.096792
0.0967739
0.0967586
0.0967466
0.0967388
0.096735
0.0967296
0.0967139
0.0966896
0.0966865
0.0967656
0.0969665
0.0973294
0.0978531
0.0985
0.0989235
0.0987407
0.0974173
0.0944497
0.0896127
0.0831846
0.0759683
0.0691306
0.0645565
0.0633394
0.0661599
0.0726104
0.0816688
0.0924987
0.104497
0.117012
0.129236
0.140296
0.149352
0.155643
0.158513
0.157422
0.151946
0.141726
0.126535
0.105979
0.0806692
0.0487191
0.0208019
0.0956304
0.0992309
0.106751
0.110721
0.109592
0.107263
0.105883
0.104843
0.103541
0.10209
0.100739
0.0996513
0.0989248
0.0980877
0.0971255
0.0971549
0.097709
0.0979233
0.0977748
0.0973235
0.0969836
0.0968698
0.0969276
0.0971072
0.0972992
0.097413
0.0973708
0.0971882
0.0970581
0.0969575
0.0968788
0.0968205
0.0967822
0.0967825
0.0968064
0.0968278
0.0968402
0.0968356
0.0968201
0.0968025
0.0967868
0.0967721
0.0967508
0.096707
0.096628
0.096526
0.0964722
0.09661
0.0969568
0.097478
0.0980728
0.0984787
0.0982964
0.0970441
0.0943106
0.0899613
0.084305
0.0781553
0.0727546
0.0695164
0.0692688
0.0722286
0.0780416
0.0859906
0.095351
0.105494
0.11579
0.125555
0.134089
0.140734
0.144905
0.146094
0.143871
0.137882
0.127815
0.11348
0.0945581
0.0716351
0.0432203
0.01818
0.104072
0.105905
0.109859
0.11203
0.111214
0.109607
0.108648
0.107972
0.107013
0.105822
0.104694
0.103704
0.102691
0.10137
0.0999957
0.0992878
0.0991576
0.0990278
0.0984627
0.0975787
0.0969626
0.0967587
0.096847
0.0970537
0.0972237
0.0973174
0.0973575
0.0973508
0.0972705
0.09716
0.0970484
0.0969504
0.096874
0.0968355
0.0967914
0.0967473
0.0967213
0.0967158
0.0967076
0.0967017
0.0967058
0.0967183
0.0967319
0.0967373
0.0967341
0.0967477
0.0968409
0.0970905
0.0975007
0.0980144
0.0985097
0.0987555
0.0984251
0.097183
0.0948042
0.0913057
0.0870384
0.0826861
0.0791326
0.0772401
0.0775603
0.0802362
0.0850505
0.0915174
0.0990555
0.107107
0.115135
0.122593
0.128933
0.133635
0.136223
0.136269
0.13339
0.127251
0.117545
0.104074
0.0865327
0.0654524
0.0394852
0.0165404
0.110882
0.111705
0.112943
0.113281
0.112494
0.111509
0.11085
0.110311
0.109644
0.108888
0.108163
0.107444
0.106584
0.105477
0.10431
0.103456
0.102942
0.102344
0.101375
0.100276
0.0994611
0.0990212
0.0988307
0.0987394
0.098653
0.0985506
0.098431
0.0982673
0.0980493
0.0978329
0.0976502
0.0975029
0.0973838
0.0973214
0.0974681
0.0975451
0.0975569
0.0975846
0.0976376
0.0977091
0.0977994
0.0979078
0.0980296
0.0981608
0.0983047
0.0984809
0.098725
0.0990729
0.0995201
0.100006
0.100414
0.10056
0.100221
0.0991891
0.0973551
0.0947844
0.0917621
0.088775
0.0864231
0.0852842
0.0857569
0.0879605
0.0917466
0.0967688
0.102591
0.108769
0.114874
0.120468
0.12511
0.128366
0.129822
0.129091
0.125809
0.119644
0.110282
0.0975081
0.0810073
0.061255
0.0369425
0.0155007
0.116759
0.116705
0.115789
0.114581
0.113757
0.11324
0.112764
0.112293
0.11185
0.111413
0.110962
0.110465
0.109866
0.109125
0.108319
0.107628
0.107086
0.106459
0.105591
0.104638
0.103838
0.10327
0.102871
0.102558
0.10228
0.102017
0.101757
0.101484
0.101206
0.100957
0.100757
0.100607
0.100515
0.100507
0.100601
0.100665
0.100699
0.100759
0.100856
0.100982
0.101132
0.101303
0.101491
0.101695
0.101916
0.102164
0.102457
0.102805
0.103194
0.103568
0.103829
0.103846
0.103473
0.102585
0.101134
0.0991932
0.0969799
0.0948411
0.0931947
0.0924388
0.0928533
0.0945322
0.0973831
0.101172
0.105585
0.11028
0.114905
0.119095
0.122476
0.124668
0.1253
0.124009
0.120449
0.114289
0.105209
0.0929752
0.0772493
0.0584482
0.0352736
0.014824
0.122163
0.121174
0.11821
0.115667
0.114911
0.114822
0.114488
0.11408
0.113815
0.113597
0.113328
0.113003
0.112614
0.112136
0.111599
0.111108
0.110695
0.110222
0.109588
0.108869
0.108218
0.107712
0.107328
0.107013
0.10673
0.106458
0.106189
0.105919
0.105657
0.10542
0.105222
0.105073
0.104982
0.104954
0.104957
0.105003
0.105063
0.105139
0.105242
0.105369
0.105516
0.105679
0.105856
0.106044
0.106243
0.106456
0.10669
0.106944
0.107199
0.107409
0.107501
0.107383
0.106958
0.106152
0.104944
0.103401
0.101684
0.100046
0.0987832
0.0981822
0.0984506
0.0996718
0.101795
0.104658
0.108024
0.111616
0.115136
0.118273
0.1207
0.122082
0.122081
0.120363
0.116596
0.110457
0.101617
0.0898186
0.0746913
0.0565882
0.0342086
0.0143677
0.127393
0.125206
0.120012
0.116368
0.115904
0.116231
0.116002
0.115679
0.115594
0.115562
0.11544
0.115249
0.115007
0.114696
0.114335
0.113996
0.113705
0.113372
0.11292
0.112395
0.111909
0.111527
0.111238
0.111
0.110782
0.110568
0.110354
0.11014
0.10993
0.109738
0.109577
0.109456
0.109381
0.109353
0.10931
0.109343
0.1094
0.109462
0.109538
0.109632
0.109741
0.10986
0.109987
0.110119
0.110256
0.110397
0.110542
0.110687
0.110812
0.110882
0.110842
0.110624
0.110163
0.109411
0.108362
0.107069
0.105661
0.104324
0.103282
0.102749
0.102888
0.103768
0.105359
0.107538
0.110118
0.112867
0.115533
0.117845
0.119518
0.120255
0.119752
0.117702
0.113787
0.10769
0.0990701
0.0876468
0.0730037
0.0554286
0.0335905
0.0140986
0.132632
0.128782
0.121089
0.116699
0.116791
0.117482
0.117311
0.117097
0.1172
0.117337
0.117348
0.117276
0.117155
0.11697
0.116736
0.116506
0.116301
0.116059
0.115727
0.115337
0.114975
0.114692
0.11448
0.114307
0.114149
0.113993
0.113835
0.113676
0.11352
0.113375
0.113253
0.113159
0.113097
0.113055
0.113023
0.113041
0.113081
0.113124
0.113175
0.11324
0.113315
0.113396
0.11348
0.113564
0.113647
0.113727
0.113801
0.113863
0.113895
0.113868
0.11374
0.113462
0.112985
0.11228
0.111345
0.110229
0.109032
0.1079
0.107005
0.106512
0.106549
0.107172
0.108358
0.11001
0.111973
0.114054
0.116035
0.117681
0.118743
0.118959
0.118055
0.115748
0.111736
0.105703
0.0972989
0.0862129
0.0719758
0.0548115
0.0333073
0.0140163
0.137999
0.13183
0.121415
0.116756
0.117623
0.118586
0.118436
0.11836
0.118646
0.118928
0.119057
0.119099
0.119088
0.119015
0.118887
0.118748
0.118614
0.118443
0.118198
0.117905
0.117629
0.117413
0.117252
0.117124
0.117008
0.116893
0.116776
0.116657
0.11654
0.11643
0.116336
0.116263
0.116213
0.116177
0.116157
0.116167
0.116195
0.116228
0.116267
0.116313
0.116365
0.116419
0.116472
0.116521
0.116564
0.116598
0.116619
0.116621
0.116586
0.116493
0.116307
0.115991
0.115512
0.114847
0.114001
0.113016
0.111973
0.110987
0.110195
0.109725
0.109676
0.110093
0.110957
0.112186
0.113651
0.115187
0.116606
0.117704
0.118264
0.118055
0.116833
0.114334
0.110268
0.104322
0.0961304
0.0853545
0.0714658
0.0546311
0.0332847
0.0141354
0.143571
0.134243
0.121023
0.11666
0.118423
0.11954
0.119407
0.119494
0.11995
0.120351
0.120585
0.120729
0.120819
0.120844
0.120812
0.120755
0.12069
0.120585
0.120413
0.120198
0.119991
0.119828
0.119709
0.119615
0.119531
0.119447
0.11936
0.119271
0.119182
0.119099
0.119027
0.118969
0.118926
0.118906
0.118893
0.118898
0.118919
0.118945
0.118973
0.119005
0.119039
0.119072
0.119101
0.119122
0.119134
0.119132
0.119113
0.119067
0.118983
0.11884
0.118613
0.118272
0.117793
0.117162
0.116386
0.1155
0.114572
0.113694
0.112974
0.112513
0.112389
0.112634
0.113232
0.114112
0.115164
0.116247
0.117199
0.117845
0.117997
0.11745
0.115983
0.113349
0.109269
0.103425
0.0954393
0.0849471
0.0713596
0.0547988
0.0334661
0.0144599
0.14939
0.135905
0.12001
0.116528
0.119189
0.120348
0.120253
0.120522
0.121125
0.121625
0.121951
0.122187
0.122365
0.122476
0.122527
0.122546
0.122545
0.122501
0.122396
0.122249
0.122102
0.121987
0.121905
0.121843
0.121787
0.12173
0.121669
0.121605
0.121541
0.12148
0.121425
0.121381
0.12135
0.121336
0.121327
0.12133
0.121345
0.121364
0.121384
0.121404
0.121423
0.121439
0.121448
0.121447
0.121432
0.1214
0.121346
0.121263
0.121138
0.120956
0.120696
0.120335
0.119856
0.119251
0.118527
0.117716
0.116872
0.116071
0.115397
0.114932
0.114735
0.11483
0.1152
0.115785
0.116491
0.117199
0.11777
0.118052
0.117881
0.117076
0.115431
0.112713
0.108647
0.102912
0.0951183
0.0848801
0.071552
0.0552295
0.0338025
0.0149712
0.155464
0.136708
0.118524
0.11645
0.119903
0.121022
0.121004
0.121457
0.122183
0.122766
0.123175
0.123493
0.123749
0.123934
0.124058
0.124144
0.124201
0.124213
0.124166
0.124078
0.123985
0.123913
0.123866
0.123833
0.123804
0.123772
0.123734
0.123693
0.123651
0.123608
0.123568
0.123537
0.123516
0.123505
0.1235
0.123502
0.123513
0.123527
0.123539
0.123549
0.123556
0.123557
0.123549
0.123527
0.123489
0.123431
0.123347
0.12323
0.123069
0.122852
0.122562
0.122182
0.121699
0.121108
0.120419
0.119658
0.11887
0.118117
0.117466
0.116981
0.116708
0.116667
0.11684
0.117177
0.117599
0.118005
0.118275
0.118278
0.117866
0.116874
0.115111
0.112349
0.108316
0.102689
0.0950666
0.0850495
0.0719424
0.055838
0.0342495
0.015625
0.161771
0.136575
0.116738
0.116474
0.120541
0.121582
0.121683
0.12231
0.123134
0.12379
0.124273
0.124665
0.124988
0.125239
0.125427
0.125571
0.12568
0.125742
0.125747
0.125711
0.125664
0.125631
0.125615
0.125609
0.125604
0.125594
0.125578
0.125557
0.125534
0.125508
0.125482
0.125462
0.125448
0.125442
0.12544
0.125442
0.125449
0.125457
0.125462
0.125462
0.125457
0.125443
0.125417
0.125375
0.125314
0.125228
0.125114
0.124963
0.124767
0.124514
0.124192
0.123787
0.123291
0.122702
0.122028
0.121293
0.120535
0.119802
0.119151
0.118632
0.118284
0.11812
0.118128
0.118265
0.118466
0.118641
0.118688
0.118489
0.117909
0.116794
0.114959
0.112183
0.108193
0.102666
0.0951916
0.0853634
0.0724419
0.0565445
0.0347693
0.0163668
0.168261
0.135497
0.114835
0.116611
0.121083
0.122051
0.122304
0.123085
0.123989
0.124708
0.12526
0.125716
0.126099
0.126408
0.126651
0.126847
0.127004
0.12711
0.12716
0.127168
0.127162
0.127162
0.127174
0.127191
0.127208
0.127218
0.12722
0.127216
0.127209
0.127197
0.127181
0.127169
0.127161
0.127157
0.127154
0.127153
0.127154
0.127153
0.127147
0.127134
0.127112
0.127079
0.127031
0.126964
0.126875
0.126758
0.126609
0.126421
0.126186
0.125894
0.125536
0.125101
0.124584
0.123984
0.123309
0.122581
0.12183
0.121098
0.120432
0.119874
0.119456
0.119192
0.119071
0.119058
0.119096
0.119108
0.119001
0.118667
0.117979
0.116789
0.114918
0.112147
0.108205
0.102767
0.0954173
0.0857481
0.0729821
0.0572831
0.0353282
0.0171462
0.174849
0.133494
0.112974
0.116844
0.121523
0.122454
0.122878
0.123787
0.124755
0.12553
0.126141
0.126653
0.127087
0.127445
0.127736
0.127977
0.128174
0.128318
0.128406
0.128452
0.128479
0.128506
0.12854
0.128576
0.128609
0.128633
0.128648
0.128655
0.128661
0.128654
0.128644
0.128634
0.128625
0.128617
0.128607
0.128596
0.128584
0.128567
0.128543
0.12851
0.128466
0.128408
0.128333
0.128236
0.128115
0.127964
0.127778
0.127552
0.127278
0.126948
0.126554
0.126089
0.125548
0.124931
0.124248
0.123515
0.122761
0.122021
0.121334
0.12074
0.120267
0.119927
0.119714
0.119596
0.119525
0.11943
0.119224
0.118807
0.118056
0.116827
0.114943
0.11219
0.108294
0.102934
0.0956879
0.0861524
0.0735162
0.0580053
0.0358973
0.0179231
0.181443
0.130664
0.111265
0.117129
0.121862
0.122805
0.1234
0.124409
0.125423
0.126245
0.126904
0.127459
0.127933
0.128329
0.128657
0.128932
0.12916
0.129332
0.129449
0.129522
0.129573
0.129619
0.129667
0.129714
0.129756
0.129788
0.129808
0.129822
0.129826
0.129816
0.129804
0.12979
0.129772
0.129753
0.12973
0.129704
0.129673
0.129637
0.129591
0.129535
0.129467
0.129382
0.129279
0.129154
0.129002
0.12882
0.128603
0.128344
0.128038
0.127677
0.127255
0.126765
0.126204
0.125573
0.12488
0.12414
0.123379
0.122629
0.121925
0.121303
0.12079
0.120399
0.120124
0.11994
0.119799
0.119639
0.119375
0.118911
0.118127
0.116882
0.115002
0.112271
0.10842
0.103126
0.0959671
0.0865437
0.0740161
0.0586801
0.0364553
0.0186703
0.187952
0.127138
0.10978
0.117417
0.122108
0.123101
0.123844
0.12492
0.125964
0.126815
0.127506
0.128089
0.128588
0.129009
0.12936
0.129657
0.129904
0.130094
0.130228
0.130318
0.130382
0.130438
0.130492
0.130544
0.130588
0.130621
0.130642
0.130652
0.130646
0.130634
0.130616
0.130592
0.130564
0.130531
0.130494
0.130453
0.130405
0.13035
0.130286
0.130211
0.130121
0.130016
0.129892
0.129744
0.129571
0.129366
0.129126
0.128845
0.128516
0.128135
0.127694
0.127188
0.126614
0.125973
0.125273
0.124527
0.123761
0.123002
0.122286
0.121646
0.121107
0.120683
0.12037
0.120145
0.119965
0.119767
0.119473
0.118985
0.118189
0.116942
0.115073
0.112367
0.108557
0.10332
0.0962336
0.0869043
0.0744684
0.0592911
0.0369879
0.019373
0.194298
0.123075
0.108558
0.11767
0.122269
0.123324
0.124172
0.125282
0.126338
0.127205
0.127912
0.12851
0.129022
0.129455
0.129819
0.130127
0.130384
0.130583
0.130726
0.130823
0.130894
0.130954
0.13101
0.131061
0.131104
0.131136
0.131155
0.131158
0.131148
0.131131
0.131106
0.131075
0.131038
0.130996
0.130948
0.130895
0.130836
0.130769
0.130692
0.130604
0.130501
0.130383
0.130245
0.130084
0.129896
0.129678
0.129425
0.129131
0.12879
0.128397
0.127946
0.127431
0.12685
0.126204
0.1255
0.124751
0.123981
0.123218
0.122493
0.121841
0.121286
0.120843
0.120508
0.12026
0.120058
0.119842
0.119533
0.119037
0.118239
0.116999
0.115145
0.112465
0.10869
0.103502
0.0964769
0.0872269
0.0748691
0.0598328
0.0374868
0.0200265
0.20048
0.118742
0.107626
0.117863
0.122352
0.123456
0.124365
0.125487
0.126547
0.127421
0.128136
0.12874
0.129259
0.129698
0.130068
0.130381
0.130643
0.130846
0.130992
0.131094
0.131167
0.131229
0.131285
0.131335
0.131377
0.131407
0.131423
0.131425
0.131412
0.131391
0.131362
0.131326
0.131283
0.131236
0.131183
0.131123
0.131058
0.130984
0.1309
0.130805
0.130695
0.13057
0.130425
0.130257
0.130063
0.129838
0.129578
0.129277
0.128931
0.128533
0.128077
0.127559
0.126975
0.126327
0.125621
0.124872
0.1241
0.123333
0.122604
0.121944
0.12138
0.120925
0.120579
0.120319
0.120107
0.119882
0.119569
0.119072
0.118279
0.117049
0.115212
0.112555
0.108813
0.103667
0.0966942
0.0875117
0.0752214
0.0603072
0.037949
0.020635
0.206644
0.114653
0.106991
0.11798
0.12237
0.123505
0.124444
0.125573
0.126635
0.127512
0.12823
0.128838
0.129359
0.129802
0.130174
0.13049
0.130754
0.130959
0.131107
0.13121
0.131285
0.131347
0.131403
0.131454
0.131495
0.131523
0.131538
0.13154
0.131527
0.131504
0.131472
0.131434
0.131389
0.131339
0.131284
0.131222
0.131153
0.131076
0.13099
0.130891
0.130779
0.13065
0.130503
0.130332
0.130135
0.129908
0.129645
0.129343
0.128994
0.128595
0.128138
0.127619
0.127034
0.126386
0.125681
0.124931
0.124158
0.12339
0.122658
0.121994
0.121425
0.120964
0.120611
0.120346
0.120129
0.119902
0.119589
0.119097
0.118311
0.117093
0.115272
0.112639
0.108926
0.103818
0.0968901
0.0877662
0.0755363
0.0607274
0.0383804
0.0212177
0.212741
0.111447
0.106595
0.118029
0.12235
0.123498
0.124452
0.125587
0.126653
0.127532
0.128253
0.128863
0.129386
0.129829
0.130203
0.13052
0.130785
0.130991
0.13114
0.131244
0.131319
0.131382
0.131438
0.131488
0.131529
0.131557
0.131572
0.131574
0.13156
0.131537
0.131506
0.131467
0.131422
0.131371
0.131315
0.131252
0.131183
0.131105
0.131018
0.130919
0.130806
0.130676
0.130528
0.130357
0.130159
0.129931
0.129669
0.129366
0.129018
0.128618
0.128162
0.127643
0.12706
0.126413
0.125708
0.124959
0.124186
0.123416
0.122683
0.122016
0.121443
0.120979
0.120623
0.120355
0.120138
0.119912
0.119602
0.119116
0.118338
0.117133
0.115329
0.112717
0.109032
0.103959
0.0970737
0.0880036
0.0758302
0.0611158
0.0387928
0.0218076
0.217468
0.109505
0.10637
0.118056
0.122328
0.123474
0.124436
0.125577
0.126645
0.127527
0.128249
0.128859
0.129383
0.129827
0.130201
0.130519
0.130784
0.13099
0.13114
0.131244
0.131319
0.131382
0.131439
0.13149
0.131531
0.13156
0.131575
0.131577
0.131563
0.131539
0.131508
0.131469
0.131424
0.131373
0.131317
0.131254
0.131185
0.131108
0.131021
0.130922
0.130809
0.13068
0.130531
0.13036
0.130163
0.129936
0.129674
0.129372
0.129024
0.128626
0.12817
0.127653
0.127071
0.126425
0.125721
0.124972
0.124199
0.123429
0.122694
0.122026
0.121451
0.120985
0.120627
0.120358
0.12014
0.119916
0.11961
0.119129
0.118361
0.117167
0.115379
0.112787
0.109127
0.104084
0.0972362
0.0882132
0.0760885
0.0614586
0.0391516
0.0223694
)
;

boundaryField
{
    inlet
    {
        type            zeroGradient;
    }
    outlet
    {
        type            fixedValue;
        value           uniform 0;
    }
    fixedWalls
    {
        type            zeroGradient;
    }
    frontAndBack
    {
        type            empty;
    }
}


// ************************************************************************* //
