/*--------------------------------*- C++ -*----------------------------------*\
| =========                 |                                                 |
| \\      /  F ield         | OpenFOAM: The Open Source CFD Toolbox           |
|  \\    /   O peration     | Version:  v1912                                 |
|   \\  /    A nd           | Website:  www.openfoam.com                      |
|    \\/     M anipulation  |                                                 |
\*---------------------------------------------------------------------------*/
FoamFile
{
    version     2.0;
    format      ascii;
    class       surfaceScalarField;
    location    "600";
    object      phi;
}
// * * * * * * * * * * * * * * * * * * * * * * * * * * * * * * * * * * * * * //

dimensions      [0 3 -1 0 0 0 0];
oriented        oriented;


internalField   nonuniform List<scalar> 
3895
(
0.000814746
0.00038143
0.000499361
0.000315385
0.000251565
0.000247796
6.4863e-05
0.000186702
-6.21962e-05
0.000127059
-0.000127326
6.51302e-05
-0.000137638
1.03117e-05
-0.000113631
-2.40067e-05
-9.03518e-05
-2.32796e-05
-8.49496e-05
-5.4022e-06
-6.61314e-05
-1.88182e-05
-4.47466e-05
-2.13848e-05
-4.04687e-05
-4.27787e-06
-4.86864e-05
8.21776e-06
-4.57612e-05
-2.9253e-06
-3.2141e-05
-1.36201e-05
-2.52569e-05
-6.88413e-06
-2.60578e-05
8.00938e-07
-2.90833e-05
3.02544e-06
-3.06316e-05
1.54829e-06
-2.93367e-05
-1.29486e-06
-2.50676e-05
-4.26913e-06
-1.87578e-05
-6.30976e-06
-1.21578e-05
-6.6e-06
-6.3787e-06
-5.77912e-06
-2.06145e-06
-4.31725e-06
7.02233e-07
-2.76368e-06
2.33339e-06
-1.63116e-06
3.41188e-06
-1.07849e-06
4.34293e-06
-9.31046e-07
5.25173e-06
-9.08802e-07
6.11262e-06
-8.60891e-07
6.90795e-06
-7.95334e-07
7.60165e-06
-6.93701e-07
8.12625e-06
-5.24602e-07
8.41362e-06
-2.87366e-07
8.41369e-06
-7.2539e-11
8.03375e-06
3.79941e-07
7.28386e-06
7.49893e-07
6.12039e-06
1.16346e-06
4.46056e-06
1.65983e-06
2.19188e-06
2.26869e-06
-8.1342e-07
3.0053e-06
-4.68222e-06
3.8688e-06
-9.5301e-06
4.84789e-06
-1.55027e-05
5.97262e-06
-2.29217e-05
7.41899e-06
-3.24785e-05
9.55682e-06
-4.54842e-05
1.30057e-05
-6.40774e-05
1.85932e-05
-9.11524e-05
2.7075e-05
-0.00012974
3.85878e-05
-0.000182166
5.24259e-05
-0.000249355
6.71894e-05
-0.000329972
8.06163e-05
-0.000419593
8.96215e-05
-0.000510904
9.13111e-05
-0.000595016
8.41119e-05
-0.000663059
6.80427e-05
-0.00070629
4.32314e-05
-0.000713749
7.45891e-06
-0.000695939
-1.781e-05
-0.000657174
-3.8765e-05
-0.000601043
-5.6131e-05
-0.000531458
-6.95856e-05
-0.000451462
-7.9996e-05
-0.000363036
-8.84257e-05
-0.000267711
-9.53253e-05
-0.000167076
-0.000100635
-6.28137e-05
-0.000104262
4.31193e-05
-0.000105933
0.000148757
-0.000105637
0.000252519
-0.000103762
0.000353037
-0.000100519
0.000449413
-9.63756e-05
0.000541557
-9.21437e-05
0.000629709
-8.81526e-05
0.000716994
-8.72843e-05
0.000803758
-8.67649e-05
-0.000107516
0.00108795
0.000349294
0.00104738
0.000355946
0.000933278
0.000361903
0.000775747
0.000344233
0.000598431
0.000304375
0.000410383
0.000253178
0.000221248
0.000199447
5.38767e-05
0.000143365
-6.04243e-05
9.10213e-05
-0.000110187
4.4361e-05
-0.000131881
2.87548e-06
-0.000123964
-2.93023e-05
-0.000105654
-2.25874e-05
-0.000107752
1.03157e-05
-0.000103322
-7.35542e-06
-9.06746e-05
-2.62673e-05
-7.66709e-05
-2.08879e-05
-7.87839e-05
2.91396e-06
-8.70582e-05
1.12998e-05
-9.25653e-05
7.0554e-06
-9.45261e-05
6.65949e-07
-9.0905e-05
-7.89031e-06
-8.4758e-05
-1.24568e-05
-7.80282e-05
-1.33297e-05
-7.14738e-05
-1.23335e-05
-6.58255e-05
-9.96564e-06
-6.17005e-05
-6.88858e-06
-5.95587e-05
-3.77305e-06
-5.92792e-05
-1.35795e-06
-6.03533e-05
1.43088e-07
-6.25927e-05
1.33058e-06
-6.53081e-05
1.85446e-06
-6.81912e-05
2.08777e-06
-7.11593e-05
2.27439e-06
-7.43449e-05
2.661e-06
-7.78939e-05
3.26163e-06
-8.19258e-05
4.03185e-06
-8.64794e-05
4.93351e-06
-9.16694e-05
5.93995e-06
-9.75433e-05
7.0374e-06
-0.000104111
8.22776e-06
-0.000111368
9.52535e-06
-0.0001193
1.09378e-05
-0.000127875
1.2443e-05
-0.000137013
1.39861e-05
-0.000146589
1.55483e-05
-0.00015649
1.73206e-05
-0.000166714
1.97808e-05
-0.00017738
2.36718e-05
-0.000188628
2.98412e-05
-0.000200674
3.91208e-05
-0.000213841
5.17543e-05
-0.000228161
6.6746e-05
-0.000242792
8.1821e-05
-0.000255562
9.3386e-05
-0.000262613
9.66723e-05
-0.000259143
8.78407e-05
-0.000241031
6.60004e-05
-0.000207023
3.40349e-05
-0.000166036
2.2444e-06
-0.000119411
-3.91661e-05
-6.74188e-05
-6.98025e-05
-1.28581e-05
-9.33257e-05
4.33169e-05
-0.000112306
0.000102703
-0.000128971
0.000166525
-0.000143818
0.000234703
-0.000156604
0.000306224
-0.000166846
0.000379573
-0.000173985
0.000452985
-0.000177673
0.000524923
-0.000177871
0.000594144
-0.000174859
0.000659567
-0.000169185
0.000720612
-0.000161564
0.00077711
-0.000152873
0.00082916
-0.000144193
0.00087762
-0.000136613
0.000922519
-0.000132183
0.000966573
-0.000130819
-0.00014211
0.000975282
0.000305926
0.00102604
0.000305187
0.00106097
0.000326974
0.00105862
0.000346584
0.00101217
0.00035082
0.000925048
0.000340304
0.000805752
0.000318742
0.000661765
0.000287352
0.000504929
0.000247857
0.000345845
0.000203445
0.000190169
0.000158552
4.70545e-05
0.000113812
-4.98471e-05
7.43141e-05
-8.59929e-05
4.64615e-05
-0.000105865
1.25166e-05
-0.000113851
-1.82808e-05
-0.000101828
-3.29112e-05
-9.14834e-05
-7.43075e-06
-9.89236e-05
1.87399e-05
-0.000108371
1.65032e-05
-0.000114874
7.16834e-06
-0.000119501
-3.26285e-06
-0.000121581
-1.03773e-05
-0.000120495
-1.44156e-05
-0.000118885
-1.39432e-05
-0.000118639
-1.02117e-05
-0.000120353
-5.17496e-06
-0.000124191
6.47773e-08
-0.000128283
2.73486e-06
-0.000132809
4.66899e-06
-0.000137349
5.87017e-06
-0.000141947
6.45259e-06
-0.000146483
6.62347e-06
-0.000150863
6.65447e-06
-0.000155146
6.94464e-06
-0.000159493
7.60856e-06
-0.000164001
8.53984e-06
-0.000168654
9.58648e-06
-0.00017338
1.06656e-05
-0.000178096
1.17531e-05
-0.000182709
1.28415e-05
-0.000187123
1.39389e-05
-0.000191225
1.50396e-05
-0.000194828
1.60462e-05
-0.000197575
1.67339e-05
-0.000198808
1.67804e-05
-0.000197498
1.6011e-05
-0.000192642
1.49246e-05
-0.000183251
1.42805e-05
-0.000168253
1.48433e-05
-0.000146262
1.71302e-05
-0.000116547
2.20391e-05
-7.82651e-05
2.84644e-05
-3.08177e-05
3.43736e-05
2.54887e-05
3.70795e-05
8.80838e-05
3.40773e-05
0.000152434
2.34905e-05
0.000212278
6.1562e-06
0.000267013
-2.07002e-05
0.000319065
-4.98076e-05
0.000361534
-8.16349e-05
0.00040269
-0.000110958
0.000445996
-0.000136632
0.000493035
-0.000159344
0.000543331
-0.000179268
0.000595533
-0.000196019
0.000647941
-0.000209012
0.000698853
-0.000217759
0.000746859
-0.00022199
0.000790927
-0.000221741
0.000830423
-0.000217367
0.000865073
-0.000209509
0.000894904
-0.000199016
0.000920209
-0.00018687
0.000941464
-0.000174128
0.000959174
-0.000161903
0.000973938
-0.000151378
0.000985636
-0.00014388
0.00099533
-0.000140513
-0.000144937
0.000857109
0.000271374
0.000897355
0.000264941
0.000950164
0.000274165
0.00100471
0.000292042
0.00104637
0.000309153
0.00106531
0.000321372
0.00105664
0.000327411
0.00101794
0.000326054
0.000949553
0.00031624
0.000855081
0.000297916
0.000740896
0.000272737
0.000611934
0.000242775
0.000476495
0.000209753
0.000348326
0.00017463
0.000223533
0.000137309
0.000102247
0.000103005
-1.43381e-07
6.94791e-05
-5.16344e-05
4.40602e-05
-6.28814e-05
2.99869e-05
-6.47407e-05
1.83625e-05
-6.708e-05
9.50767e-06
-7.29733e-05
2.63045e-06
-8.04189e-05
-2.93172e-06
-8.89224e-05
-5.91214e-06
-9.62549e-05
-6.61066e-06
-0.000101744
-4.72226e-06
-0.0001067
-2.19228e-07
-0.00011207
5.43502e-06
-0.000117665
8.32905e-06
-0.000122819
9.82382e-06
-0.000127203
1.02534e-05
-0.000130744
9.99434e-06
-0.000133513
9.39257e-06
-0.000135342
8.48272e-06
-0.000136555
8.15837e-06
-0.00013725
8.30303e-06
-0.000137476
8.76637e-06
-0.000136943
9.05292e-06
-0.000135492
9.2151e-06
-0.000133005
9.26542e-06
-0.000129338
9.17453e-06
-0.000124327
8.92785e-06
-0.000117831
8.5438e-06
-0.000109675
7.89021e-06
-9.96142e-05
6.67314e-06
-8.74345e-05
4.60072e-06
-7.2214e-05
7.90488e-07
-5.40581e-05
-3.23132e-06
-3.1852e-05
-7.92558e-06
-4.07949e-06
-1.29292e-05
3.05452e-05
-1.74946e-05
7.4013e-05
-2.14287e-05
0.000127116
-2.46388e-05
0.000189211
-2.77207e-05
0.000258204
-3.19137e-05
0.000331094
-3.88132e-05
0.00040451
-4.99257e-05
0.000476846
-6.61798e-05
0.000543773
-8.76265e-05
0.000605999
-0.000112033
0.000662031
-0.000137667
0.000713567
-0.000162494
0.000761924
-0.00018499
0.00080703
-0.000204449
0.000848136
-0.000220375
0.00088438
-0.000232263
0.000915067
-0.0002397
0.000939809
-0.0002425
0.000958579
-0.000240761
0.000971695
-0.000234857
0.000979737
-0.000225409
0.000983451
-0.000213223
0.000983649
-0.000199214
0.000981123
-0.000184343
0.000976564
-0.00016957
0.000970488
-0.000155827
0.000963192
-0.000144082
0.000954512
-0.0001352
0.000944305
-0.000130306
-0.000130377
0.000759397
0.000238011
0.000790536
0.000233802
0.000828351
0.000236349
0.000874985
0.000245408
0.000927002
0.000257136
0.000978871
0.000269503
0.00102441
0.000281869
0.00105755
0.000292917
0.00107319
0.000300601
0.00106786
0.000303244
0.00104042
0.000300178
0.000991566
0.000291628
0.000923241
0.000278078
0.000838862
0.00025901
0.000741527
0.000234644
0.000636637
0.000207895
0.000532152
0.000173964
0.000433901
0.000142311
0.000348944
0.000114944
0.000276028
9.12786e-05
0.000213743
7.17924e-05
0.000160423
5.59504e-05
0.000114125
4.33663e-05
7.45207e-05
3.36924e-05
4.17006e-05
2.62094e-05
1.65789e-05
2.03995e-05
3.3496e-07
1.60247e-05
-7.27397e-06
1.30439e-05
-9.49826e-06
1.05533e-05
-8.26906e-06
8.59461e-06
-4.95467e-06
6.93901e-06
-4.03163e-07
5.44282e-06
4.9756e-06
4.0138e-06
1.0853e-05
2.60528e-06
1.72337e-05
1.77774e-06
2.47633e-05
7.73401e-07
3.39774e-05
-4.47684e-07
4.48155e-05
-1.78523e-06
5.75737e-05
-3.54316e-06
7.25238e-05
-5.68462e-06
8.99412e-05
-8.24284e-06
0.000110116
-1.12475e-05
0.000133377
-1.47162e-05
0.000159967
-1.86998e-05
0.00018994
-2.33e-05
0.000223183
-2.86424e-05
0.000258759
-3.47858e-05
0.000296973
-4.14448e-05
0.000337512
-4.84655e-05
0.0003802
-5.56163e-05
0.000425257
-6.25518e-05
0.000472887
-6.90589e-05
0.000523449
-7.5201e-05
0.000577095
-8.13661e-05
0.000633474
-8.82933e-05
0.000691576
-9.69149e-05
0.000749732
-0.000108081
0.000805769
-0.000122217
0.000857271
-0.000139129
0.000903073
-0.000157835
0.000942403
-0.000176997
0.000975118
-0.000195209
0.00100132
-0.00021119
0.00102095
-0.000224077
0.00103392
-0.000233353
0.00104036
-0.000238703
0.00104065
-0.00023999
0.00103545
-0.000237297
0.00102562
-0.000230933
0.00101217
-0.000221404
0.000996124
-0.000209362
0.000978451
-0.000195549
0.000959982
-0.000180746
0.000941363
-0.000165724
0.000923024
-0.000151231
0.000905159
-0.000137962
0.000887704
-0.000126627
0.000870284
-0.00011778
0.000852259
-0.000112281
-0.000110261
0.000672433
0.000206414
0.000702275
0.000203961
0.000733372
0.000205252
0.000767839
0.00021094
0.000806614
0.000218362
0.000850036
0.000226081
0.000897301
0.000234604
0.000946031
0.000244187
0.000992641
0.000253991
0.00103305
0.000262833
0.00106349
0.000269742
0.00108117
0.000273947
0.00108444
0.000274804
0.00107207
0.00027138
0.0010437
0.000263016
0.00100103
0.000250563
0.000949035
0.000225963
0.00089166
0.000199687
0.000831904
0.0001747
0.000772159
0.000151023
0.000714626
0.000129326
0.000660589
0.000109987
0.000610853
9.31022e-05
0.000566007
7.8538e-05
0.000526255
6.59617e-05
0.000491576
5.50787e-05
0.000461942
4.56582e-05
0.00043757
3.74165e-05
0.000418114
3.00087e-05
0.000403351
2.33574e-05
0.000392962
1.73283e-05
0.000386603
1.18018e-05
0.000383999
6.6181e-06
0.000385339
1.26537e-06
0.000390313
-3.1961e-06
0.000398967
-7.88143e-06
0.00041115
-1.26307e-05
0.000426766
-1.74005e-05
0.000445548
-2.23253e-05
0.000467305
-2.74415e-05
0.000491826
-3.27636e-05
0.000518888
-3.83102e-05
0.000548272
-4.40995e-05
0.000579727
-5.01556e-05
0.000612938
-5.65112e-05
0.000647484
-6.31877e-05
0.000682856
-7.01578e-05
0.000718696
-7.72851e-05
0.000754624
-8.43936e-05
0.000790309
-9.13018e-05
0.000825589
-9.78311e-05
0.000860425
-0.000103896
0.00089482
-0.000109595
0.000928697
-0.000115244
0.000961756
-0.000121352
0.000993363
-0.000128521
0.00102254
-0.000137262
0.00104812
-0.000147798
0.00106894
-0.000159943
0.00108414
-0.000173036
0.00109323
-0.00018609
0.00109607
-0.000198051
0.00109286
-0.000207981
0.001084
-0.000215213
0.00107002
-0.000219377
0.00105164
-0.000220322
0.00102972
-0.000218064
0.0010052
-0.000212783
0.000979079
-0.000204809
0.000952268
-0.000194592
0.000925571
-0.000182666
0.000899628
-0.000169606
0.000874883
-0.000156001
0.000851591
-0.000142432
0.000829816
-0.000129456
0.000809442
-0.000117587
0.000790172
-0.000107357
0.000771492
-9.90993e-05
0.000752762
-9.35522e-05
-9.02631e-05
0.000594386
0.000177665
0.00062317
0.000175177
0.000652323
0.000176099
0.000682115
0.000181149
0.000712924
0.000187552
0.000745613
0.000193392
0.000781181
0.000199036
0.000820193
0.000205175
0.000862411
0.000211774
0.000906707
0.000218537
0.000951215
0.000225233
0.000993659
0.000231503
0.00103171
0.000236752
0.00106298
0.000240112
0.0010853
0.000240696
0.00109753
0.000238334
0.00109977
0.000223723
0.00109369
0.000205766
0.00108083
0.000187561
0.00106268
0.000169172
0.00104092
0.00015108
0.00101711
0.000133796
0.00099259
0.000117627
0.00096844
0.000102688
0.000945451
8.89509e-05
0.000924201
7.63286e-05
0.000905141
6.47181e-05
0.000888591
5.39662e-05
0.000874688
4.3912e-05
0.00086357
3.4475e-05
0.000855314
2.55844e-05
0.000849962
1.71541e-05
0.000847501
9.07897e-06
0.00084736
1.40606e-06
0.000850271
-6.10695e-06
0.0008557
-1.33097e-05
0.000863472
-2.04037e-05
0.000873445
-2.73728e-05
0.000885361
-3.42418e-05
0.00089896
-4.10401e-05
0.000913976
-4.778e-05
0.000930134
-5.44678e-05
0.000947144
-6.11098e-05
0.000964702
-6.77137e-05
0.000982477
-7.4286e-05
0.00100011
-8.08196e-05
0.00101723
-8.72755e-05
0.0010335
-9.35618e-05
0.00104867
-9.95561e-05
0.00106251
-0.000105146
0.00107493
-0.000110253
0.00108591
-0.000114876
0.00109546
-0.000119143
0.00110354
-0.00012332
0.00110998
-0.000127792
0.00111443
-0.000132973
0.00111636
-0.000139195
0.00111515
-0.000146583
0.00111017
-0.000154967
0.001101
-0.000163868
0.0010875
-0.000172586
0.00106981
-0.00018037
0.00104838
-0.00018655
0.00102381
-0.000190641
0.000996803
-0.000192368
0.000968111
-0.000191629
0.000938505
-0.000188458
0.000908723
-0.000183001
0.00087942
-0.000175505
0.000851128
-0.000166301
0.000824242
-0.000155779
0.000799005
-0.000144369
0.000775525
-0.000132521
0.000753782
-0.000120689
0.000733649
-0.000109324
0.000714892
-9.88295e-05
0.000697177
-8.96427e-05
0.000680004
-8.19264e-05
0.000662904
-7.64515e-05
-7.20455e-05
0.000525111
0.000151816
0.000551936
0.000148352
0.000579146
0.000148889
0.000606467
0.000153827
0.000634006
0.000160013
0.000661953
0.000165445
0.000690628
0.000170361
0.000720605
0.000175198
0.000752534
0.000179844
0.000786873
0.000184199
0.000823722
0.000188385
0.000862729
0.000192495
0.00090308
0.000196402
0.000943486
0.000199706
0.000982308
0.000201873
0.00101803
0.000202615
0.00104832
0.000193429
0.00107278
0.000181311
0.00109162
0.000168721
0.00110524
0.000155553
0.00111427
0.000142043
0.00111951
0.000128558
0.00112176
0.000115377
0.00112179
0.000102655
0.00112029
9.04539e-05
0.00111784
7.87822e-05
0.00111493
6.76225e-05
0.00111197
5.6932e-05
0.00110922
4.66544e-05
0.00110694
3.67576e-05
0.0011053
2.72257e-05
0.00110442
1.80349e-05
0.00110433
9.17277e-06
0.00110495
7.84722e-07
0.00110639
-7.54912e-06
0.00110847
-1.5387e-05
0.00111106
-2.29959e-05
0.00111406
-3.03774e-05
0.00111735
-3.75255e-05
0.00112076
-4.44511e-05
0.00112414
-5.11606e-05
0.00112733
-5.76546e-05
0.00113015
-6.39336e-05
0.00113244
-6.99994e-05
0.001134
-7.58523e-05
0.00113466
-8.14826e-05
0.00113425
-8.68613e-05
0.00113262
-9.19331e-05
0.00112969
-9.66286e-05
0.00112544
-0.000100892
0.00111989
-0.000104704
0.00111312
-0.000108108
0.00110522
-0.000111235
0.0010962
-0.000114309
0.00108603
-0.00011762
0.00107453
-0.000121466
0.0010614
-0.000126074
0.00104634
-0.000131516
0.00102903
-0.000137662
0.00100933
-0.000144168
0.000987281
-0.000150534
0.000963121
-0.00015621
0.000937262
-0.000160691
0.00091021
-0.000163589
0.000882501
-0.000164659
0.000854656
-0.000163784
0.000827149
-0.000160952
0.000800389
-0.00015624
0.000774692
-0.000149808
0.00075028
-0.000141889
0.000727279
-0.000132779
0.000705731
-0.000122821
0.000685608
-0.000112398
0.000666822
-0.000101903
0.000649236
-9.17371e-05
0.000632653
-8.22475e-05
0.000616821
-7.38106e-05
0.000601346
-6.64511e-05
0.0005859
-6.10053e-05
-5.55547e-05
0.00046394
0.000128551
0.000488639
0.000123652
0.00051348
0.000124049
0.000538159
0.000129148
0.000563122
0.00013505
0.000588445
0.000140122
0.00061397
0.000144836
0.000639764
0.000149404
0.000666083
0.000153525
0.000693245
0.000157036
0.00072161
0.00016002
0.000751519
0.000162586
0.00078317
0.000164752
0.000816473
0.000166402
0.000850998
0.000167348
0.000886111
0.000167503
0.000919681
0.000159859
0.000950824
0.000150168
0.000979169
0.000140376
0.00100445
0.000130272
0.00102659
0.000119901
0.0010457
0.000109452
0.00106199
9.90863e-05
0.00107574
8.8899e-05
0.00108727
7.89318e-05
0.00109685
6.91977e-05
0.00110477
5.96983e-05
0.00111128
5.04244e-05
0.00111658
4.13605e-05
0.00112083
3.25042e-05
0.00112419
2.38685e-05
0.00112675
1.54683e-05
0.0011286
7.32187e-06
0.00112981
-4.17286e-07
0.00113031
-8.05327e-06
0.00113017
-1.52498e-05
0.00112937
-2.21884e-05
0.00112787
-2.88787e-05
0.00112565
-3.53127e-05
0.00112269
-4.14901e-05
0.00111895
-4.74132e-05
0.00111437
-5.30822e-05
0.00110894
-5.84976e-05
0.0011026
-6.3661e-05
0.00109532
-6.8573e-05
0.00108707
-7.32281e-05
0.00107781
-7.76093e-05
0.00106757
-8.16863e-05
0.00105636
-8.54238e-05
0.00104427
-8.87992e-05
0.00103139
-9.18217e-05
0.00101783
-9.45483e-05
0.00100369
-9.70975e-05
0.00098903
-9.96486e-05
0.000973832
-0.000102422
0.000958001
-0.000105635
0.000941378
-0.00010945
0.000923776
-0.000113915
0.000905039
-0.000118926
0.000885099
-0.000124227
0.000864006
-0.000129441
0.000841936
-0.00013414
0.000819156
-0.00013791
0.000795981
-0.000140415
0.000772732
-0.00014141
0.000749703
-0.000140755
0.000727144
-0.000138392
0.000705251
-0.000134348
0.000684166
-0.000128723
0.000663976
-0.000121699
0.000644721
-0.000113524
0.000626405
-0.000104506
0.000609007
-9.4999e-05
0.00059248
-8.53758e-05
0.000576754
-7.60117e-05
0.000561727
-6.72201e-05
0.000547239
-5.93229e-05
0.000533027
-5.2239e-05
0.000518808
-4.67859e-05
-4.04836e-05
0.000410014
0.000107501
0.000432754
0.000100912
0.000455183
0.00010162
0.000477152
0.000107179
0.000499455
0.000112747
0.000522203
0.000117374
0.000545203
0.000121836
0.00056844
0.000126167
0.00059194
0.000130026
0.000615686
0.00013329
0.000639722
0.000135984
0.000664189
0.000138119
0.00068928
0.000139661
0.000715152
0.000140531
0.000741864
0.000140636
0.000769387
0.000139979
0.000796433
0.000132813
0.000822521
0.00012408
0.000847427
0.00011547
0.000870885
0.000106814
0.000892679
9.81069e-05
0.000912685
8.94466e-05
0.00093085
8.09207e-05
0.00094718
7.25697e-05
0.000961711
6.44002e-05
0.000974505
5.64045e-05
0.000985631
4.85715e-05
0.000995167
4.08887e-05
0.00100318
3.33449e-05
0.00100975
2.59402e-05
0.00101493
1.869e-05
0.00101878
1.16162e-05
0.00102135
4.74685e-06
0.00102279
-1.85211e-06
0.00102302
-8.28941e-06
0.00102221
-1.44397e-05
0.00102037
-2.03462e-05
0.00101752
-2.60319e-05
0.00101371
-3.14941e-05
0.00100894
-3.67291e-05
0.00100327
-4.17374e-05
0.000996707
-4.65204e-05
0.000989288
-5.10792e-05
0.000981043
-5.54153e-05
0.000971999
-5.95294e-05
0.000962189
-6.34179e-05
0.00095165
-6.70699e-05
0.000940431
-7.04678e-05
0.0009286
-7.35928e-05
0.000916239
-7.64376e-05
0.000903437
-7.90204e-05
0.000890286
-8.13967e-05
0.000876855
-8.36668e-05
0.00086318
-8.59739e-05
0.000849246
-8.84877e-05
0.000834984
-9.13734e-05
0.000820284
-9.475e-05
0.000805019
-9.86497e-05
0.000789082
-0.000102989
0.00077242
-0.000107565
0.000755052
-0.000112073
0.000737073
-0.000116161
0.000718636
-0.000119473
0.000699922
-0.0001217
0.000681114
-0.000122602
0.000662377
-0.000122018
0.00064385
-0.000119865
0.000625642
-0.00011614
0.000607835
-0.000110917
0.000590489
-0.000104353
0.000573647
-9.66812e-05
0.000557342
-8.82014e-05
0.000541603
-7.92596e-05
0.000526448
-7.02217e-05
0.000511884
-6.14468e-05
0.000497886
-5.3223e-05
0.000484372
-4.58086e-05
0.000471189
-3.9056e-05
0.00045802
-3.36171e-05
-2.67807e-05
0.000362528
8.82933e-05
0.000383496
7.99438e-05
0.000403597
8.15192e-05
0.000423064
8.77117e-05
0.00044288
9.2931e-05
0.000463078
9.71767e-05
0.000483524
0.00010139
0.000504297
0.000105394
0.000525419
0.000108903
0.000546805
0.000111904
0.000568366
0.000114423
0.000590058
0.000116427
0.000611865
0.000117854
0.000633784
0.000118612
0.000655814
0.000118607
0.000677971
0.000117823
0.000699347
0.000111437
0.000719749
0.000103678
0.000739188
9.60311e-05
0.000757601
8.84014e-05
0.000774908
8.07994e-05
0.000791049
7.33058e-05
0.00080598
6.59897e-05
0.000819672
5.88776e-05
0.000832107
5.19655e-05
0.000843274
4.52371e-05
0.000853172
3.86734e-05
0.000861805
3.22565e-05
0.000869179
2.59709e-05
0.000875307
1.98118e-05
0.00088021
1.37874e-05
0.000883913
7.91257e-06
0.000886462
2.19859e-06
0.000887925
-3.3157e-06
0.000888322
-8.68653e-06
0.000887741
-1.38579e-05
0.000886219
-1.88246e-05
0.000883792
-2.36049e-05
0.0008805
-2.82019e-05
0.000876383
-3.26125e-05
0.000871482
-3.68365e-05
0.000865837
-4.08749e-05
0.000859486
-4.47288e-05
0.00085247
-4.83986e-05
0.000844824
-5.18836e-05
0.000836586
-5.51798e-05
0.000827795
-5.82789e-05
0.000818495
-6.11684e-05
0.00080874
-6.38373e-05
0.000798587
-6.62847e-05
0.000788098
-6.85311e-05
0.000777328
-7.06272e-05
0.000766319
-7.26582e-05
0.000755087
-7.47416e-05
0.000743613
-7.70139e-05
0.000731845
-7.96055e-05
0.000719704
-8.26086e-05
0.0007071
-8.60454e-05
0.000693954
-8.98439e-05
0.000680223
-9.38327e-05
0.000665905
-9.77558e-05
0.000651049
-0.000101305
0.00063574
-0.000104164
0.00062008
-0.000106041
0.000604179
-0.0001067
0.000588135
-0.000105974
0.000572039
-0.00010377
0.000555973
-0.000100073
0.000540011
-9.4955e-05
0.00052423
-8.8572e-05
0.00050871
-8.11604e-05
0.000493531
-7.30229e-05
0.000478778
-6.45063e-05
0.000464527
-5.59705e-05
0.000450835
-4.7755e-05
0.000437735
-4.01229e-05
0.000425184
-3.32576e-05
0.000413115
-2.69873e-05
0.000401136
-2.1638e-05
-1.4645e-05
0.000320758
7.05686e-05
0.000340087
6.06147e-05
0.000357962
6.3644e-05
0.000375206
7.04678e-05
0.000392819
7.53175e-05
0.00041069
7.93064e-05
0.000428757
8.33229e-05
0.000447162
8.6989e-05
0.000465939
9.01261e-05
0.000485023
9.28201e-05
0.000504346
9.50993e-05
0.000523846
9.69275e-05
0.000543446
9.82538e-05
0.000563056
9.90013e-05
0.000582581
9.90819e-05
0.000601944
9.84591e-05
0.0006203
9.30813e-05
0.000637491
8.64861e-05
0.000653583
7.99394e-05
0.000668601
7.33837e-05
0.000682558
6.6842e-05
0.000695472
6.0392e-05
0.000707361
5.41006e-05
0.000718242
4.79968e-05
0.000728127
4.20806e-05
0.000737025
3.63387e-05
0.000744944
3.07544e-05
0.00075189
2.53107e-05
0.000757869
1.99923e-05
0.000762888
1.47925e-05
0.000766959
9.71581e-06
0.000770099
4.77279e-06
0.000772343
-4.51195e-08
0.000773722
-4.69444e-06
0.000774258
-9.22285e-06
0.000773992
-1.35923e-05
0.00077296
-1.77925e-05
0.000771189
-2.18338e-05
0.000768709
-2.57217e-05
0.000765551
-2.94546e-05
0.000761746
-3.30318e-05
0.000757325
-3.64539e-05
0.000752318
-3.97213e-05
0.000746753
-4.28334e-05
0.000740658
-4.57887e-05
0.000734061
-4.85828e-05
0.00072699
-5.12083e-05
0.000719478
-5.36561e-05
0.00071156
-5.59189e-05
0.000703274
-5.79995e-05
0.000694662
-5.99187e-05
0.000685757
-6.17224e-05
0.000676584
-6.3485e-05
0.000667149
-6.53062e-05
0.000657434
-6.72995e-05
0.000647401
-6.95719e-05
0.000636989
-7.21971e-05
0.000626132
-7.51885e-05
0.000614769
-7.84801e-05
0.000602855
-8.19192e-05
0.000590377
-8.52776e-05
0.000577349
-8.82778e-05
0.000563813
-9.06273e-05
0.000549825
-9.20531e-05
0.000535454
-9.2329e-05
0.000520773
-9.12934e-05
0.000505864
-8.88606e-05
0.000490818
-8.50276e-05
0.000475741
-7.98783e-05
0.000460752
-7.35823e-05
0.000445978
-6.63864e-05
0.000431552
-5.85968e-05
0.000417599
-5.05538e-05
0.00040423
-4.26011e-05
0.000391522
-3.50477e-05
0.000379527
-2.81281e-05
0.000368212
-2.19421e-05
0.000357565
-1.634e-05
0.000347111
-1.11847e-05
-4.40242e-06
0.000284047
5.3995e-05
0.000301804
4.28575e-05
0.000317587
4.78611e-05
0.000332893
5.51619e-05
0.000348559
5.96514e-05
0.000364356
6.35096e-05
0.00038032
6.73582e-05
0.000396611
7.06986e-05
0.000413236
7.35006e-05
0.000430146
7.59104e-05
0.000447302
7.79433e-05
0.000464664
7.95658e-05
0.000482171
8.07466e-05
0.00049974
8.14317e-05
0.000517271
8.15512e-05
0.000534661
8.10689e-05
0.000551104
7.66384e-05
0.000566421
7.11694e-05
0.000580651
6.57089e-05
0.00059382
6.02148e-05
0.000605952
5.47102e-05
0.000617079
4.92645e-05
0.00062724
4.394e-05
0.000636471
3.87664e-05
0.000644803
3.37476e-05
0.000652267
2.88748e-05
0.000658886
2.41357e-05
0.00066468
1.95172e-05
0.000669666
1.50059e-05
0.000673862
1.05966e-05
0.000677283
6.29422e-06
0.000679952
2.10451e-06
0.00068188
-1.97353e-06
0.000683101
-5.91546e-06
0.000683623
-9.74423e-06
0.000683472
-1.34422e-05
0.000682678
-1.69982e-05
0.000681262
-2.04176e-05
0.000679246
-2.37057e-05
0.000676654
-2.68624e-05
0.000673509
-2.98868e-05
0.000669834
-3.27788e-05
0.000665651
-3.55384e-05
0.000660982
-3.81645e-05
0.000655848
-4.06546e-05
0.000650269
-4.3004e-05
0.000644267
-4.52057e-05
0.000637862
-4.72518e-05
0.00063108
-4.91369e-05
0.000623946
-5.08649e-05
0.000616483
-5.24555e-05
0.00060871
-5.39502e-05
0.00060064
-5.54144e-05
0.000592268
-5.69345e-05
0.000583576
-5.86073e-05
0.000574526
-6.05223e-05
0.000565068
-6.2739e-05
0.000555143
-6.52631e-05
0.000544693
-6.80302e-05
0.000533673
-7.08989e-05
0.000522055
-7.36604e-05
0.000509838
-7.60602e-05
0.00049704
-7.78297e-05
0.000483706
-7.87189e-05
0.0004699
-7.8523e-05
0.000455709
-7.71024e-05
0.000441243
-7.43945e-05
0.000426635
-7.04196e-05
0.000412039
-6.52819e-05
0.000397621
-5.91644e-05
0.000383551
-5.23169e-05
0.000369991
-4.50364e-05
0.000357078
-3.76414e-05
0.000344921
-3.04438e-05
0.000333584
-2.37105e-05
0.000323102
-1.76458e-05
0.000313423
-1.22635e-05
0.000304572
-7.48896e-06
0.000296017
-2.62992e-06
3.66318e-06
0.000251798
3.82832e-05
0.000267991
2.66645e-05
0.000281861
3.39914e-05
0.000295501
4.15218e-05
0.000309433
4.57197e-05
0.00032339
4.95521e-05
0.000337519
5.32296e-05
0.00035196
5.62577e-05
0.000366692
5.87687e-05
0.00038167
6.09324e-05
0.000396868
6.27452e-05
0.000412255
6.4178e-05
0.000427786
6.52156e-05
0.000443398
6.58203e-05
0.000459011
6.59382e-05
0.000474539
6.55405e-05
0.000489254
6.19238e-05
0.000502979
5.74442e-05
0.000515737
5.29507e-05
0.000527542
4.84105e-05
0.000538407
4.38447e-05
0.000548358
3.9314e-05
0.000557424
3.48739e-05
0.000565638
3.05523e-05
0.000573032
2.63538e-05
0.000579634
2.22721e-05
0.000585472
1.8298e-05
0.000590568
1.44214e-05
0.000594944
1.06297e-05
0.00059862
6.9205e-06
0.000601614
3.29987e-06
0.000603946
-2.27309e-07
0.000605632
-3.65916e-06
0.000606697
-6.98066e-06
0.000607154
-1.0201e-05
0.000607024
-1.33124e-05
0.000606331
-1.63048e-05
0.000605093
-1.91799e-05
0.000603329
-2.19421e-05
0.000601058
-2.45916e-05
0.000598299
-2.71271e-05
0.000595067
-2.95476e-05
0.000591381
-3.18519e-05
0.000587254
-3.4038e-05
0.000582701
-3.61018e-05
0.000577735
-3.80376e-05
0.000572367
-3.98378e-05
0.00056661
-4.14943e-05
0.000560475
-4.30023e-05
0.000553975
-4.43655e-05
0.000547122
-4.5602e-05
0.000539921
-4.67495e-05
0.000532374
-4.78669e-05
0.00052447
-4.90305e-05
0.000516187
-5.03248e-05
0.000507491
-5.18261e-05
0.000498335
-5.35828e-05
0.000488666
-5.55945e-05
0.000478434
-5.77977e-05
0.000467596
-6.0061e-05
0.000456129
-6.21934e-05
0.000444034
-6.39652e-05
0.000431341
-6.51368e-05
0.000418111
-6.54891e-05
0.000404438
-6.48496e-05
0.000390445
-6.31101e-05
0.000376288
-6.02371e-05
0.000362142
-5.62742e-05
0.0003482
-5.13398e-05
0.000334654
-4.56186e-05
0.000321686
-3.93481e-05
0.000309448
-3.2799e-05
0.00029806
-2.62528e-05
0.000287595
-1.99787e-05
0.000278079
-1.41949e-05
0.000269513
-9.07989e-06
0.000261814
-4.56407e-06
0.00025503
-7.05438e-07
0.000248624
3.77613e-06
9.44533e-06
0.000223468
2.31975e-05
0.000238065
1.2068e-05
0.000250245
2.18104e-05
0.00026246
2.93075e-05
0.000274839
3.33406e-05
0.000287177
3.72143e-05
0.000299706
4.07e-05
0.00031253
4.34337e-05
0.000325606
4.56931e-05
0.000338896
4.76421e-05
0.00035238
4.9261e-05
0.000366029
5.0529e-05
0.000379802
5.14431e-05
0.000393646
5.19765e-05
0.000407497
5.20866e-05
0.000421286
5.17519e-05
0.000434366
4.8844e-05
0.000446579
4.52305e-05
0.000457946
4.15841e-05
0.000468476
3.78801e-05
0.000478182
3.41394e-05
0.000487079
3.04163e-05
0.000495192
2.67612e-05
0.000502545
2.31997e-05
0.000509162
1.97364e-05
0.000515068
1.63659e-05
0.000520285
1.30813e-05
0.000524832
9.8744e-06
0.00052873
6.73196e-06
0.000531996
3.65475e-06
0.000534647
6.48316e-07
0.000536704
-2.28418e-06
0.000538183
-5.13804e-06
0.000539104
-7.90164e-06
0.00053948
-1.05771e-05
0.000539327
-1.31598e-05
0.000538663
-1.56406e-05
0.000537502
-1.80186e-05
0.000535856
-2.02962e-05
0.000533737
-2.24731e-05
0.000531158
-2.45472e-05
0.000528126
-2.65161e-05
0.000524651
-2.83772e-05
0.000520741
-3.01272e-05
0.0005164
-3.17609e-05
0.000511634
-3.32719e-05
0.000506449
-3.46523e-05
0.000500849
-3.58943e-05
0.00049484
-3.69942e-05
0.000488431
-3.79562e-05
0.000481628
-3.87984e-05
0.000474434
-3.95564e-05
0.000466852
-4.02845e-05
0.000458873
-4.10518e-05
0.000450482
-4.1933e-05
0.00044165
-4.29942e-05
0.000432341
-4.42746e-05
0.000422516
-4.57696e-05
0.000412137
-4.74183e-05
0.000401177
-4.91008e-05
0.00038963
-5.06463e-05
0.000377518
-5.18535e-05
0.000364898
-5.25162e-05
0.00035186
-5.24511e-05
0.000338531
-5.15208e-05
0.000325069
-4.96484e-05
0.000311657
-4.68246e-05
0.00029849
-4.31075e-05
0.000285767
-3.86169e-05
0.000273674
-3.3525e-05
0.000262368
-2.80427e-05
0.000251972
-2.24033e-05
0.000242563
-1.6843e-05
0.000234169
-1.15855e-05
0.000226775
-6.80032e-06
0.000220345
-2.64983e-06
0.000214764
1.01633e-06
0.000210096
3.96252e-06
0.000205878
7.99477e-06
1.30273e-05
0.00019856
8.56661e-06
0.000211521
-8.92938e-07
0.000222268
1.1064e-05
0.00023325
1.8325e-05