/*--------------------------------*- C++ -*----------------------------------*\
| =========                 |                                                 |
| \\      /  F ield         | OpenFOAM: The Open Source CFD Toolbox           |
|  \\    /   O peration     | Version:  v1912                                 |
|   \\  /    A nd           | Website:  www.openfoam.com                      |
|    \\/     M anipulation  |                                                 |
\*---------------------------------------------------------------------------*/
FoamFile
{
    version     2.0;
    format      ascii;
    class       volScalarField;
    location    "100";
    object      epsilon;
}
// * * * * * * * * * * * * * * * * * * * * * * * * * * * * * * * * * * * * * //

dimensions      [0 2 -3 0 0 0 0];


internalField   nonuniform List<scalar> 
12441
(
0.0102959
0.00908509
0.00831255
0.00768954
0.00717165
0.0067377
0.00636655
0.00605123
0.00578653
0.00555883
0.00536105
0.00519068
0.0050312
0.0049014
0.00478394
0.00468106
0.00451484
0.0163144
0.226203
2.79203
21.0153
39.25
0.0101181
0.00892021
0.00816394
0.00755834
0.0070547
0.0066325
0.00626958
0.0059615
0.0057037
0.00548191
0.0052891
0.0051234
0.00496738
0.00484138
0.0047275
0.00462936
0.00455256
0.0160819
0.213837
2.78783
21.3098
40.2318
0.00989611
0.00871735
0.00798193
0.00739194
0.0069013
0.0064901
0.00613738
0.00583771
0.00558698
0.00537151
0.00518462
0.00502435
0.00487261
0.00475174
0.00464266
0.00454931
0.00451664
0.0147481
0.183532
2.76447
21.695
41.3784
0.00967253
0.00851363
0.00779545
0.0072205
0.00674244
0.00634192
0.00599806
0.00570676
0.00546289
0.00525353
0.00507222
0.00491722
0.00477173
0.00465537
0.00455136
0.00446324
0.0044416
0.0131227
0.152564
2.74998
22.1669
42.5504
0.00942835
0.00828891
0.00759196
0.00703247
0.0065673
0.00617774
0.00584432
0.00556161
0.00532496
0.00512213
0.00494705
0.00479782
0.00465679
0.0045462
0.00444767
0.00436605
0.00432068
0.0116682
0.137866
2.76482
22.6848
43.6698
0.00922236
0.00809926
0.0074158
0.00686894
0.0064144
0.00603387
0.00570763
0.00543192
0.00520104
0.00500332
0.00483281
0.00468789
0.0045527
0.00444583
0.00435178
0.0042743
0.0042475
0.0121989
0.159645
2.87427
23.3056
44.7472
0.00900175
0.00789557
0.00723127
0.00669796
0.00625466
0.0058837
0.00556672
0.00529843
0.0050738
0.00488169
0.00471653
0.00457647
0.00444463
0.00434351
0.00425214
0.00418172
0.00600982
0.0216579
0.263904
3.16382
24.1168
45.7945
0.00882328
0.00773094
0.00707733
0.00655468
0.00612038
0.00575702
0.0054458
0.00518329
0.0049634
0.00477544
0.00461387
0.00447717
0.00435067
0.00425324
0.00417075
0.00516678
0.0352338
0.0802248
0.570009
3.75735
25.2221
46.8732
0.00862919
0.00755166
0.00691563
0.00640489
0.00598044
0.00562546
0.00532254
0.00506646
0.00485198
0.00466885
0.00451185
0.00437923
0.00425531
0.00412518
0.00540241
0.0278214
0.188539
0.317345
1.24916
4.78741
26.7306
48.0153
0.00847448
0.00740881
0.00678127
0.0062797
0.00586301
0.00551456
0.00521635
0.0049652
0.00475476
0.00457514
0.00442113
0.00429149
0.00417226
0.004262
0.0260597
0.162775
0.608714
0.898649
2.3693
6.31146
28.7208
49.2846
0.0083051
0.00725228
0.00664077
0.00614961
0.00574148
0.00540031
0.0051095
0.00486385
0.00465804
0.00448254
0.00433241
0.00420714
0.00405717
0.00966959
0.124764
0.519105
1.34269
1.85713
3.78839
8.25657
31.218
50.6975
0.00817005
0.00712763
0.00652296
0.00603979
0.00563845
0.00530299
0.0050161
0.00477475
0.00457246
0.00439999
0.00425244
0.00413116
0.0041419
0.0515881
0.386332
1.09937
2.23022
2.99448
5.25938
10.4509
34.1831
52.295
0.00802097
0.00698991
0.00640022
0.00592627
0.00553249
0.00520343
0.00492325
0.00468665
0.00448836
0.00431943
0.00417519
0.00402
0.00848076
0.191066
0.810544
1.7616
3.07021
4.06795
6.6044
12.7095
37.5316
54.0597
0.00790005
0.00687832
0.00629422
0.00582747
0.00543983
0.00511595
0.00483921
0.00460659
0.00441154
0.00424542
0.00410359
0.00386541
0.0393163
0.44353
1.28207
2.36275
3.76221
4.95679
7.76029
14.8935
41.154
56.0037
0.00776872
0.00675692
0.00618664
0.00572799
0.00534695
0.00502864
0.00475789
0.00452929
0.00433765
0.00417451
0.00403545
0.00425886
0.129999
0.752432
1.71436
2.85789
4.30172
5.65335
8.73397
16.924
44.9417
58.0812
0.00765962
0.00665629
0.0060906
0.00563847
0.00526304
0.00494947
0.00468177
0.00445689
0.00426826
0.00410774
0.00397101
0.00966603
0.283399
1.05535
2.07718
3.2528
4.71728
6.19438
9.5564
18.7678
48.7973
60.2902
0.00754375
0.0065492
0.00599648
0.0055515
0.00518184
0.0048731
0.00461076
0.00438921
0.00420343
0.00404537
0.00391136
0.0347126
0.46999
1.32416
2.37438
3.5669
5.03958
6.62059
10.2598
20.4203
52.645
62.571
0.00744219
0.00645564
0.00590688
0.00546811
0.00510381
0.00479965
0.00454025
0.00432243
0.00413963
0.00398422
0.00385531
0.0945682
0.657827
1.55355
2.61809
3.81891
5.29315
6.9642
10.8703
21.8897
56.4289
64.9213
0.00733964
0.00636074
0.00582394
0.00539139
0.00503209
0.00473205
0.00447736
0.00426225
0.00408182
0.00392841
0.00379436
0.184646
0.830213
1.74849
2.82014
4.02374
5.49588
7.24796
11.4067
23.1903
60.1155
67.2818
0.00724497
0.00627361
0.00574021
0.00531353
0.00495931
0.00466367
0.0044118
0.00420036
0.00402286
0.00387209
0.00428192
0.28849
0.982699
1.91572
2.98998
4.19254
5.66046
7.48699
11.8815
24.3368
63.687
69.6617
0.00715482
0.00619011
0.00566787
0.00524657
0.00489662
0.00460444
0.00435664
0.00414725
0.00397159
0.0038224
0.0102635
0.393494
1.117
2.06117
3.13478
4.33356
5.7958
7.6908
12.3027
25.3435
67.1432
72.0102
0.00706399
0.00610668
0.00558762
0.00517214
0.00482726
0.00453951
0.00429464
0.00408911
0.00391649
0.00377056
0.0312289
0.493233
1.23647
2.18943
3.25996
4.45282
5.90809
7.86487
12.6752
26.2231
70.4963
74.3523
0.00698478
0.00603311
0.00552419
0.00511326
0.00477195
0.004487
0.00424556
0.0040415
0.00387028
0.00372765
0.0710605
0.585946
1.34428
2.30398
3.36961
4.55475
6.00147
8.01199
13.0019
26.9874
73.7724
76.6493
0.00689823
0.00595369
0.0054477
0.00504241
0.00470604
0.00442549
0.00418702
0.00398684
0.0038187
0.00368697
0.123371
0.671847
1.44297
2.40745
3.46681
4.64257
6.0786
8.1336
13.2848
27.6466
77.0078
78.9445
0.00683004
0.00589026
0.00539354
0.00499201
0.00465851
0.00438008
0.00414436
0.00394499
0.00377773
0.00367124
0.180167
0.752004
1.53443
2.50189
3.55389
4.71856
6.14111
8.23066
13.5254
28.2101
80.2514
81.212
0.00674429
0.00581183
0.00531825
0.00492258
0.00459423
0.00432046
0.00408804
0.00389289
0.00372894
0.00363446
0.237085
0.827676
1.62009
2.5889
3.63255
4.78427
6.19
8.30421
13.7256
28.6861
83.5598
83.5114
0.00668522
0.00575659
0.00527126
0.00487858
0.00455244
0.00428017
0.00404988
0.00385501
0.0036916
0.00386122
0.292926
0.900014
1.701
2.66968
3.70399
4.84076
6.22609
8.35552
13.8874
29.0822
86.999
85.8273
0.00660144
0.00568009
0.00519791
0.0048111
0.00449014
0.00422264
0.00399581
0.00380531
0.00364538
0.00599894
0.347995
0.969971
1.77803
2.74515
3.76904
4.88876
6.25016
8.38612
14.0129
29.4049
90.6373
88.2307
0.00655186
0.00563347
0.00515863
0.00477405
0.00445464
0.00418797
0.00396259
0.00377173
0.00361226
0.0121966
0.403064
1.0383
1.8518
2.816
3.82825
4.92884
6.26306
8.39768
14.1049
29.66
94.5447
90.7106
0.00646771
0.00555694
0.00508565
0.00470725
0.00439331
0.00413173
0.00391019
0.00372407
0.00356925
0.0245513
0.45893
1.1056
1.92286
2.8827
3.88201
4.96149
6.26568
8.39198
14.1662
29.8526
98.7843
93.3406
0.00642556
0.00551691
0.00505197
0.00467511
0.00436213
0.00410085
0.0038802
0.00369328
0.00354056
0.0449119
0.516269
1.17236
1.99164
2.94564
3.93062
4.98718
6.25889
8.37086
14.1998
29.988
103.411
96.1058
0.00634303
0.00544199
0.00498065
0.00460998
0.0043025
0.0040464
0.00382972
0.00364767
0.00350332
0.0743916
0.575628
1.23899
2.05851
3.00509
3.97435
5.00639
6.24358
8.33619
14.2091
30.0711
108.467
99.0732
0.00630943
0.00540975
0.00495388
0.00458405
0.00427691
0.00402045
0.003804
0.00362055
0.00348493
0.113546
0.637438
1.30584
2.12375
3.06131
4.01347
5.01961
6.22056
8.28983
14.1973
30.1078
113.98
102.217
0.00622489
0.00533337
0.00488173
0.00451856
0.00421732
0.00396651
0.00375453
0.0035764
0.00346302
0.162533
0.702032
1.37321
2.18765
3.11456
4.04831
5.02731
6.19063
8.23362
14.1677
30.1039
119.965
105.592
0.00619814
0.0053072
0.0048601
0.00449709
0.00419562
0.00394389
0.00373158
0.00355166
0.00347132
0.221407
0.769634
1.44135
2.25045
3.16511
4.07921
5.02998
6.15458
8.16936
14.1237
30.0662
126.432
109.157
0.00611108
0.00522893
0.00478671
0.00443085
0.00413572
0.00389007
0.00368267
0.00350842
0.00355039
0.290058
0.840341
1.51047
2.3124
3.21327
4.10657
5.02814
6.11316
8.09881
14.0687
30.0017
133.379
112.957
0.00608761
0.0052057
0.00476746
0.00441142
0.00411574
0.00386886
0.0036608
0.00348451
0.00673737
0.368021
0.914079
1.58074
2.37371
3.25941
4.13087
5.02231
6.06712
8.0237
14.0062
29.9176
140.8
116.938
0.00599555
0.00512348
0.00469112
0.00434294
0.00405419
0.00381395
0.00361135
0.00344124
0.0387317
0.453967
0.990572
1.65228
2.43463
3.30393
4.15259
5.01309
6.01723
7.94571
13.9398
29.8213
148.665
121.137
0.00596733
0.00509616
0.00466839
0.00432044
0.00403145
0.00379026
0.00358729
0.00341622
0.113871
0.54433
1.06934
1.72516
2.49541
3.34728
4.17234
5.00112
5.9643
7.86651
13.8732
29.7209
156.904
125.495
0.00586257
0.00500295
0.0045829
0.00424412
0.00396316
0.00372965
0.0035332
0.00337492
0.194833
0.634088
1.14972
1.79939
2.5563
3.38994
4.19076
4.98711
5.90919
7.78777
13.8105
29.6248
165.356
130.045
0.00582106
0.00496366
0.00454908
0.00421147
0.00393113
0.00369747
0.00350148
0.00339817
0.263887
0.719715
1.23102
1.87494
2.61755
3.43243
4.20855
4.97188
5.85286
7.71117
13.7564
29.5428
173.72
134.727
0.00569937
0.00485585
0.00445155
0.00412422
0.00385268
0.00362734
0.00343875
0.0049301
0.320053
0.799519
1.31257
1.95174
2.67942
3.47527
4.2265
4.95635
5.79634
7.63847
13.7158
29.4862
181.486
139.588
0.00561714
0.00478954
0.00440076
0.00408203
0.00381648
0.00359452
0.00340794
0.00973628
0.365451
0.872917
1.39378
2.02967
2.74219
3.51901
4.24546
4.94154
5.74081
7.57149
13.6949
29.4681
187.955
144.654
0.00525459
0.00446023
0.00410736
0.00381666
0.00357592
0.00337783
0.00321474
0.0141179
0.402007
0.93973
1.47417
2.10853
2.80615
3.56414
4.2663
4.92858
5.68754
7.51217
13.7006
29.5038
192.368
150.447
95.0235
154.582
92.5662
66.9433
62.6348
51.071
46.4593
43.4717
41.6666
40.9493
41.3893
41.2136
43.8172
48.4979
61.4242
63.6431
28.9575
19.7406
19.1928
19.4374
19.2432
18.8959
18.8765
16.3512
8.95238
6.24152
5.59151
5.31841
5.22338
5.49129
5.95576
6.22595
6.17247
5.47663
4.63525
94.6475
154.79
94.4719
73.1327
69.5026
55.2958
49.8848
46.5064
44.6655
43.85
42.6753
41.9261
44.5867
49.3879
62.1326
68.0751
30.4456
20.1303
19.3816
19.5657
19.3143
18.8933
18.7791
16.302
8.94011
6.22931
5.58185
5.30986
5.21565
5.4841
5.94796
6.21665
6.16258
5.46726
4.6278
93.9266
154.673
98.3282
83.1632
78.8488
61.7773
56.3269
52.7327
51.0144
50.0627
45.6328
43.271
45.1021
49.3113
59.3101
66.4115
32.5763
20.9269
19.7843
19.8469
19.4797
18.9065
18.5713
15.9915
8.86623
6.2036
5.56274
5.29292
5.20034
5.4698
5.93242
6.19811
6.14287
5.44858
4.61291
92.8104
154.84
103.742
95.5737
91.2448
71.6219
66.1254
62.2618
60.8982
59.8037
51.353
46.852
47.6442
51.0888
58.3196
62.5828
35.4904
22.2964
20.4917
20.3468
19.788
18.9683
18.2947
15.5092
8.74309
6.16501
5.53446
5.26781
5.17762
5.44853
5.90925
6.17043
6.11343
5.42065
4.59067
91.3035
155.382
110.389
109.26
105.726
84.1533
78.6113
74.595
73.8224
72.766
60.949
54.3286
54.141
56.8173
62.2123
61.0171
39.2444
24.4863
21.6579
21.1702
20.3093
19.1219
17.9916
14.9316
8.5824
6.11428
5.49737
5.23483
5.14775
5.42044
5.87856
6.13371
6.07437
5.38356
4.56112
89.3553
156.181
117.807
122.714
120.705
98.0887
92.5027
88.3087
88.0792
87.3713
74.7019
66.9094
66.1363
68.1332
72.8094
65.438
44.1799
27.8311
23.5194
22.472
21.1402
19.4228
17.7041
14.317
8.39469
6.05233
5.45189
5.19429
5.111
5.38571
5.84048
6.08805
6.02582
5.33742
4.52436
87.0012
157.054
125.446
134.731
134.682
111.908
106.2
101.302
101.103
100.841
90.465
83.4377
83.3057
85.4881
90.7351
78.4995
51.598
32.8016
26.4189
24.4721
22.412
19.9424
17.4751
13.7072
8.18905
5.9802
5.39851
5.14658
5.06771
5.34454
5.79517
6.0336
5.96794
5.28236
4.4805
84.2135
157.811
132.792
145.006
146.966
124.46
118.506
111.919
110.957
110.777
103.651
98.7755
101.062
105.846
113.251
100.808
63.9881
40.1721
30.841
27.4739
24.3009
20.772
17.3493
13.1314
7.97312
5.89902
5.33778
5.09211
5.01824
5.29718
5.74281
5.97051
5.90092
5.21854
4.42967
81.0699
158.285
139.422
153.965
157.759
135.305
129.143
119.929
117.576
116.855
111.209
107.964
112.958
122.235
132.779
126.495
83.5299
51.1938
37.4567
31.8803
27.0377
22.0284
17.3758
12.6102
7.75328
5.80997
5.27032
5.03135
4.96298
5.24388
5.68357
5.89897
5.82496
5.14615
4.37203
77.574
158.333
145.065
162.317
167.81
144.552
138.531
126.206
122.152
120.442
114.362
111.484
117.617
129.984
142.727
143.484
107.499
67.0219
47.0689
38.1764
30.9079
23.8582
17.6102
12.1588
7.53478
5.71429
5.19677
4.9648
4.90238
5.18492
5.6177
5.81916
5.74033
5.0654
4.30777
73.8369
157.836
149.561
170.517
177.921
152.549
147.247
131.851
126.104
123.24
116.007
112.822
118.464
130.914
143.758
146.624
125.553
86.1363
60.0413
46.7671
36.2098
26.4351
18.117
11.7896
7.32195
5.61324
5.11783
4.89296
4.83687
5.1206
5.54541
5.73133
5.64732
4.97659
4.23712
69.8857
156.699
152.92
178.776
188.737
159.741
155.662
137.598
130.415
126.391
118.126
114.386
118.615
129.063
140.232
141.329
130.098
101.921
74.7301
57.4516
43.103
29.9359
18.9718
11.5142
7.11843
5.50808
5.03421
4.81638
4.76693
5.05124
5.46697
5.63574
5.54627
4.88001
4.16035
65.8489
154.851
155.298
187.117
200.594
166.67
163.933
143.835
135.685
130.516
121.52
117.048
119.313
126.804
135.211
133.53
124.596
107.754
86.4911
68.5464
51.2703
34.4685
20.2586
11.3445
6.92727
5.40001
4.9466
4.73559
4.69302
4.97716
5.38264
5.53268
5.43754
4.77603
4.07776
61.7626
152.25
157.067
195.663
213.553
173.96
172.137
150.795
142.136
135.915
126.468
120.981
120.774
124.841
129.863
125.544
115.575
104.288
90.9341
76.8303
59.5089
39.9267
22.0608
11.2935
6.75107
5.29017
4.85569
4.6511
4.61561
4.89869
5.29273
5.42247
5.32157
4.66507
3.98968
57.7502
148.879
158.734
204.62
227.372
182.258
180.42
158.801
149.926
142.833
133.117
126.263
123
123.228
124.502
117.773
106.357
96.4551
88.2345
79.7056
65.8365
45.807
24.4381
11.3751
6.59208
5.17961
4.76213
4.56342
4.53514
4.81617
5.19752
5.30547
5.19881
4.54758
3.89651
53.8399
144.765
160.963
214.328
241.616
192.175
189.102
168.029
159.168
151.483
141.659
132.999
126.026
121.929
119.236
110.235
97.8119
87.8618
81.7397
77.3893
68.6023
51.1616
27.3888
11.6038
6.45227
5.06923
4.66649
4.473
4.45202
4.72991
5.09732
5.18205
5.06976
4.42407
3.79865
50.1273
139.971
164.58
225.073
255.677
204.132
198.61
178.634
170.09
162.115
152.284
141.345
129.952
120.97
114.179
103.039
90.0505
79.9372
74.3605
72.0859
67.6537
54.9059
30.803
11.9928
6.33332
4.95983
4.5693
4.38025
4.36665
4.64021
4.99244
5.05263
4.93497
4.29508
3.69655
46.6135
134.63
170.845
237.04
269.138
217.942
209.312
190.773
182.823
174.907
165.159
151.41
134.872
120.436
109.469
96.3645
83.0987
73.0337
67.5121
65.9141
64.1668
56.3858
34.4313
12.5519
6.23661
4.85201
4.47097
4.28552
4.27937
4.54738
4.88321
4.91765
4.79498
4.16122
3.59069
43.349
128.926
181.624
250.101
281.729
232.976
221.456
204.596
197.521
189.987
180.337
163.235
140.863
120.436
105.261
90.3976
77.0129
67.1628
61.6298
60.0627
59.5841
55.7035
37.8978
13.2844
6.1632
4.74623
4.37184
4.18913
4.19049
4.45168
4.76993
4.77757
4.6504
4.02309
3.48156
40.3033
123.05
199.232
263.444
293.438
248.691
235.033
220.087
214.136
207.306
197.709
176.683
147.898
121.079
101.705
85.2786
71.847
62.2649
56.746
54.9835
54.92
53.5137
40.7806
14.1852
6.11368
4.64277
4.27217
4.0913
4.10025
4.35337
4.65292
4.63286
4.50184
3.88135
3.36967
37.4893
117.101
224.884
276.062
304.256
264.615
249.843
237.112
232.57
226.667
216.885
191.39
155.804
122.42
98.9252
81.1016
67.6277
58.2706
52.7639
50.7517
50.6808
50.5788
42.7427
15.2391
6.08806
4.54177
4.17211
3.99221
4.00889
4.25267
4.5325
4.48405
4.34993
3.73666
3.25554
34.8769
111.187
255.578
287.294
314.148
280.328
265.521
255.336
252.469
247.605
237.142
206.625
164.147
124.421
97.0017
77.9068
64.3467
55.1139
49.571
47.2992
47.0412
47.4789
43.6467
16.4218
6.08561
4.44317
4.07175
3.89201
3.91656
4.14979
4.40898
4.33165
4.19531
3.58972
3.13971
32.4767
105.888
283.345
296.513
323.051
295.449
281.657
274.375
273.471
269.515
257.429
221.325
172.223
126.896
95.9436
75.6904
61.9672
52.728
47.0634
44.5198
44.0088
44.5508
43.5773
17.7006
6.10466
4.34677
3.97109
3.79077
3.82341
4.04492
4.28267
4.17622
4.03863
3.44119
3.0227
30.2708
101.725
300.496
303.363
330.947
309.669
297.827
293.794
295.086
291.663
276.574
234.217
179.105
129.498
95.6787
74.3973
60.4264
51.047
45.1578
42.3114
41.5255
41.9467
42.768
19.0344
6.14231
4.25223
3.87008
3.68855
3.72955
3.93825
4.1539
4.01832
3.88053
3.29178
2.90502
28.2673
98.8143
304.718
308.061
337.845
322.756
313.7
313.291
317.024
313.459
293.584
244.241
183.962
131.759
96.0447
73.9257
59.6368
49.9982
43.782
40.5862
39.5145
39.7079
41.4919
20.3715
6.1941
4.15906
3.76864
3.58538
3.63505
3.82994
4.02299
3.85853
3.72166
3.14215
2.78717
26.4614
97.2507
299.63
311.263
343.785
334.569
329.037
332.696
339.105
334.532
307.94
250.879
186.374
133.239
96.8018
74.1185
59.4825
49.4999
42.8744
39.2734
37.9019
37.8203
39.9842
21.648
6.25375
4.06666
3.66665
3.48129
3.53999
3.72016
3.89027
3.69746
3.56264
2.99297
2.66965
24.8623
97.0947
290.669
313.641
348.803
345.066
343.771
352.114
361.548
354.94
319.673
254.301
186.504
133.711
97.6606
74.773
59.8191
49.4538
42.371
38.3138
36.6219
36.2451
38.4095
22.7876
6.31294
3.97433
3.56397
3.3763
3.44441
3.60908
3.75608
3.5357
3.40409
2.84485
2.55291
23.4808
98.3359
281.612
315.62
352.939
354.316
357.995
371.882
384.83
375.083
329.274
255.135
184.866
133.224
98.3506
75.6533
60.4792
49.7473
42.2044
37.6572
35.6185
34.9362
36.8654
23.706
6.3615
3.88132
3.4605
3.27044
3.34837
3.49687
3.62078
3.37386
3.24659
2.69842
2.43737
22.3333
100.767
274.114
317.338
356.231
362.492
372.009
392.649
409.837
395.702
337.476
254.181
182.055
131.975
98.6862
76.5297
61.2876
50.2571
42.2961
37.256
34.8433
33.847
35.397
24.3207
6.38792
3.78688
3.35612
3.16376
3.25192
3.38372
3.48472
3.21256
3.09072
2.55423
2.32345
21.4546
103.886
268.576
318.755
358.737
369.862
386.274
415.285
437.613
417.606
345.029
252.157
178.54
130.171
98.5912
77.2157
62.0824
50.8617
42.5632
37.0628
34.2545
32.9336
34.0153
24.5634
6.38057
3.6903
3.25078
3.05635
3.15513
3.26981
3.34828
3.05239
2.93701
2.4128
2.21152
20.8892
106.953
264.842
319.754
360.533
376.752
401.394
440.844
469.266
441.42
352.472
249.585
174.628
127.947
98.0555
77.5938
62.7345
51.4516
42.9194
37.0266
33.8133
32.1549
32.7085
24.3931
6.32921
3.591
3.14447
2.94832
3.05807
3.15537
3.21184
2.89395
2.78595
2.27461
2.10189
20.7351
109.452
262.576
320.22
361.719
383.522
418.029
470.333
505.358
466.984
359.876
246.727
170.475
125.373
97.0904
77.6039
63.1555
51.9401
43.2872
37.094
33.4835
31.4738
31.4534
23.8036
6.22667
3.48856
3.03721
2.83984
2.96083
3.04061
3.07577
2.73782
2.63801
2.14009
1.99487
21.1259
111.578
261.396
320.062
362.406
390.52
436.82
504.44
545.243
492.677
366.531
243.554
166.114
122.465
95.7015
77.2213
63.2921
52.2634
43.5997
37.2098
33.2296
30.8555
30.2204
22.8244
6.07017
3.3828
2.92912
2.73108
2.86352
2.92576
2.94048
2.58452
2.49361
2.00962
1.89072
22.2957
114.218
260.931
319.226
362.708
398.053
458.247
542.966
585.852
514.621
370.668
239.694
161.473
119.202
93.8834
76.433
63.114
52.3796
43.8073
37.3223
33.017
30.2684
28.9788
21.5148
5.86187
3.27375
2.82035
2.62229
2.76628
2.81109
2.80634
2.43458
2.35313
1.88353
1.78966
24.5223
118.319
260.847
317.679
362.721
406.341
482.503
584.176
621.017
526.803
369.479
234.426
156.38
115.532
91.6181
75.2277
62.6022
52.2602
43.8723
37.3858
32.8121
29.6837
27.7002
19.9534
5.60845
3.16167
2.71111
2.51372
2.66924
2.69686
2.67376
2.28848
2.21691
1.76209
1.69189
28.1637
124.385
260.872
315.397
362.51
415.49
509.313
624.04
641.914
522.729
359.845
226.766
150.571
111.379
88.8796
73.5912
61.7419
51.8855
43.769
37.3646
32.5843
29.0765
26.3616
18.2269
5.3198
3.04702
2.60166
2.40566
2.57259
2.58334
2.54312
2.14666
2.08525
1.64555
1.59756
33.4954
132.354
260.789
312.354
362.1
425.47
537.784
656.056
640.185
498.737
339.78
215.747
143.725
106.646
85.6368
71.5087
60.5198
51.2399
43.4774
37.2312
32.3071
28.4256
24.9475
16.42
5.00737
2.93037
2.49232
2.29843
2.47649
2.47082
2.4148
2.00952
1.95841
1.5341
1.50682
40.701
141.762
260.431
308.516
361.472
436.114
566.198
672.094
611.954
456.35
309.785
200.825
135.53
101.232
81.8604
68.9676
58.9252
50.3115
42.9833
36.966
31.9599
27.7147
23.4519
14.6071
4.68247
2.81237
2.3834
2.19236
2.38116
2.35959
2.28918
1.87743
1.83662
1.42787
1.41977
49.6321
151.944
259.662
303.835
360.567
447.156
591.714
664.919
560.161
401.68
272.899
182.251
125.809
95.0538
77.5315
65.9638
56.953
49.0921
42.2751
36.5551
31.5278
26.9324
21.8778
12.8486
4.355
2.6937
2.27527
2.08778
2.28681
2.24997
2.16664
1.75072
1.72006
1.327
1.3365
59.8743
162.231
258.361
298.25
359.321
458.28
609.721
631.125
492.513
342.2
233.315
161.096
114.625
88.0917
72.6556
62.5081
54.6078
47.5802
41.347
35.9896
31.0021
26.072
20.2378
11.1888
4.03276
2.57499
2.16831
1.98504
2.19366
2.14225
2.04752
1.62967
1.6089
1.23156
1.25707
70.5911
172.073
256.409
291.677
357.718
469.081
613.13
572.714
417.861
284.008
194.753
138.923
102.343
80.4253
67.2779
58.6354
51.9091
45.7832
40.1985
35.2657
30.3784
25.1308
18.551
9.6567
3.72127
2.45684
2.06288
1.8845
2.10197
2.03676
1.93217
1.51452
1.50325
1.14158
1.18153
80.9187
181.079
253.664
283.991
355.884
478.541
592.721
495.837
343.325
230.78
159.62
117.283
89.5626
72.255
61.4967
54.4106
48.8964
43.7217
38.8388
34.3862
29.6576
24.1099
16.8423
8.26843
3.42397
2.3398
1.9594
1.78649
2.01197
1.93382
1.82092
1.40546
1.40319
1.05708
1.10991
89.3733
189.006
249.945
275.015
354.195
483.083
540.841
408.738
273.839
184.258
129.04
97.3502
76.97
63.8808
55.4664
49.9344
45.6331
41.4312
37.2877
33.3621
28.8447
23.0128
15.1395
7.03009
3.14257
2.22435
1.85825
1.69137
1.92392
1.83374
1.71405
1.30263
1.30879
0.978027
1.04222
95.1437
195.815
245.014
264.483
353.157
472.534
457.9
320.204
212.37
144.898
103.244
79.789
65.1565
55.6406
49.3852
45.3388
42.2053
38.9644
35.5803
32.2158
27.95
21.8461
13.4718
5.94047
2.87758
2.11093
1.75984
1.59945
1.83807
1.73683
1.61185
1.20613
1.22005
0.904356
0.978435
0.00337754
0.00250758
0.00236348
0.0021908
0.0020845
0.00206913
0.00214958
0.0158412
0.423935
0.984822
1.53331
2.16751
2.85391
3.59752
4.28178
4.91895
5.64882
7.47329
13.7287
29.5844
193.698
159.377
0.00334406
0.0022424
0.00187447
0.00162192
0.00146523
0.00140573
0.00146781
0.0165927
0.435123
1.00965
1.5679
2.20144
2.87983
3.61342
4.28639
4.90888
5.62329
7.44824
13.7499
29.6543
194.009
168.853
0.00354017
0.00237486
0.00188365
0.00154725
0.00131537
0.00117279
0.00115654
0.0170432
0.442699
1.02795
1.59531
2.22766
2.89812
3.62215
4.28543
4.89657
5.60072
7.42681
13.7721
29.7343
193.616
177.879
0.00367049
0.00251592
0.0019909
0.00162256
0.0013527
0.0011584
0.00103116
0.017289
0.447051
1.03992
1.61528
2.24599
2.90887
3.62408
4.27957
4.88289
5.582
7.40995
13.7949
29.8239
192.58
186.274
0.00392233
0.00276213
0.00220933
0.00181322
0.00151276
0.00127986
0.00100255
0.0173773
0.448434
1.04574
1.62762
2.25628
2.91212
3.61958
4.26942
4.86865
5.56786
7.39851
13.818
29.9234
190.943
194.513
0.00405993
0.00292771
0.00237852
0.00197951
0.00167128
0.00142525
0.000992203
0.017334
0.447043
1.04556
1.63222
2.25849
2.908
3.60895
4.25547
4.85447
5.55889
7.39334
13.8409
30.033
188.738
202.782
0.00434028
0.00320565
0.00263909
0.00222228
0.00189532
0.00162847
0.00106334
0.0171726
0.443048
1.0396
1.62912
2.25263
2.89659
3.59246
4.2381
4.8408
5.5555
7.3952
13.8632
30.1533
185.998
211.091
0.00447833
0.00337688
0.00282209
0.00240938
0.00208229
0.0018127
0.0011895
0.0168988
0.43662
1.02812
1.61846
2.23881
2.87803
3.5703
4.21753
4.82792
5.55795
7.40483
13.8844
30.2848
182.767
219.39
0.00478389
0.00368182
0.00311265
0.00268492
0.00234167
0.00205413
0.00131607
0.0165146
0.427943
1.01147
1.60057
2.21722
2.85245
3.54261
4.19387
4.8159
5.56632
7.42286
13.9042
30.428
179.094
227.619
0.00490848
0.00384621
0.0032971
0.00287985
0.00254233
0.00225795
0.0014052
0.0160211
0.417212
0.990053
1.57586
2.18815
2.82003
3.50942
4.16705
4.80461
5.5805
7.44988
13.9224
30.5828
175.03
235.711
0.00522928
0.00416809
0.00360753
0.0031782
0.00282706
0.00252686
0.00152031
0.0154205
0.404634
0.964334
1.54487
2.15198
2.78094
3.47076
4.13688
4.79367
5.60017
7.48632
13.9392
30.7488
170.63
243.571
0.00533911
0.00432191
0.0037876
0.003374
0.00303368
0.00274196
0.00163805
0.0147144
0.390419
0.93482
1.5082
2.10916
2.73542
3.42659
4.10303
4.78251
5.62476
7.53247
13.9546
30.9247
165.952
251.086
0.00567202
0.0046575
0.00411434
0.0036912
0.00333946
0.00303361
0.00184355
0.0139043
0.374768
0.902039
1.46653
2.06022
2.6837
3.37684
4.06506
4.77032
5.65341
7.58837
13.9692
31.1087
161.053
258.124
0.00575611
0.00479011
0.00427991
0.00387813
0.00354271
0.00325118
0.00211819
0.0129892
0.35786
0.866515
1.42055
2.00577
2.62609
3.32143
4.02244
4.75608
5.68493
7.6538
13.9833
31.2978
155.99
264.557
0.00609204
0.0051298
0.00461289
0.00420394
0.00385932
0.00355561
0.00252275
0.0119696
0.339843
0.828746
1.37096
1.94645
2.56294
3.26032
3.97463
4.7386
5.71776
7.72811
13.9975
31.4882
150.816
270.256
0.00615205
0.00524025
0.00476043
0.00437686
0.00405275
0.00376806
0.00298254
0.0108448
0.32082
0.78918
1.31841
1.88294
2.49465
3.19346
3.92103
4.71655
5.75
7.81017
14.0123
31.6751
145.582
275.107
0.00648673
0.00557956
0.00509487
0.00470555
0.00437408
0.00407867
0.00349589
0.00962127
0.300835
0.748193
1.26352
1.81594
2.42167
3.12089
3.86111
4.68854
5.77936
7.89825
14.0281
31.8528
140.333
279.017
0.00651827
0.00566292
0.00521875
0.00485871
0.00455139
0.00427914
0.00388709
0.00831123
0.279872
0.706072
1.20684
1.74615
2.34453
3.04272
3.79439
4.65314
5.80326
7.98992
14.0449
32.0148
135.108
281.913
0.00683901
0.00598914
0.00554209
0.00517769
0.004865
0.00458395
0.00426864
0.0069685
0.257852
0.662992
1.14882
1.67426
2.26378
2.95915
3.7205
4.60898
5.8189
8.08197
14.0623
32.1536
129.941
283.743
0.00685343
0.00605339
0.00564645
0.00531278
0.00502561
0.00476959
0.00451922
0.00569048
0.234635
0.618999
1.08981
1.60088
2.18005
2.87047
3.63922
4.55485
5.82333
8.17037
14.0791
32.2614
124.861
284.474
0.00716013
0.00636632
0.00595782
0.00562075
0.00532961
0.00506603
0.00481956
0.00468564
0.210053
0.574006
1.03
1.52658
2.09396
2.77708
3.55049
4.48974
5.81367
8.25032
14.0935
32.3295
119.889
284.084
0.0071566
0.00641036
0.00604161
0.00573612
0.00547137
0.00523414
0.00501509
0.00420909
0.183956
0.527784
0.969433
1.4518
2.00618
2.67948
3.45442
4.4129
5.78721
8.31635
14.1025
32.3488
115.042
282.564
0.00744663
0.00670688
0.0063373
0.00602889
0.00576118
0.0055174
0.00528918
0.00432018
0.15631
0.479983
0.907963
1.37683
1.91732
2.57828
3.35134
4.32392
5.74163
8.36254
14.1021
32.3101
110.333
279.907
0.00743054
0.00673506
0.00640355
0.00612649
0.00588498
0.00566774
0.00546345
0.00473891
0.127373
0.430186
0.845229
1.3018
1.82796
2.47415
3.24175
4.22276
5.67512
8.38276
14.087
32.2033
105.769
276.113
0.00770426
0.00701529
0.00668343
0.00640365
0.00615981
0.00593665
0.00572428
0.00526014
0.0979382
0.378005
0.780648
1.22657
1.73854
2.36783
3.12634
4.10973
5.58653
8.37114
14.0509
32.0184
101.354
271.181
0.00767673
0.00702864
0.00673289
0.0064838
0.00626561
0.00606874
0.00588161
0.00561348
0.069604
0.323275
0.713439
1.1507
1.64934
2.26005
3.00592
3.98552
5.4755
8.32242
13.9865
31.745
97.0869
265.118
0.00793341
0.00729161
0.00699568
0.00674379
0.00652359
0.00632126
0.00612742
0.0059183
0.0447144
0.266354
0.642688
1.07341
1.56039
2.15152
2.88145
3.85114
5.34241
8.2324
13.8858
31.3728
92.9632
257.937
0.00789953
0.00729477
0.00703226
0.00680973
0.00661399
0.00643696
0.00626818
0.00610204
0.0256872
0.208539
0.567504
0.993551
1.47133
2.04278
2.75395
3.70788
5.18846
8.09835
13.7407
30.8915
88.9727
249.663
0.00814131
0.00754245
0.00727977
0.00705419
0.00685652
0.00667421
0.00649907
0.00633126
0.0138274
0.152397
0.487322
0.909579
1.38135
1.93417
2.62443
3.55727
5.01558
7.91928
13.5433
30.2916
85.1007
240.339
0.00810337
0.00753792
0.00730596
0.00710821
0.00693366
0.00677545
0.0066245
0.00648039
0.00834282
0.101789
0.402421
0.81971
1.28909
1.82558
2.49378
3.40094
4.8263
7.69613
13.287
29.565
81.3253
230.026
0.00833038
0.0077704
0.00753824
0.00733719
0.00716068
0.00699739
0.00684024
0.00669065
0.006785
0.0609271
0.314667
0.722161
1.19256
1.71639
2.36263
3.24056
4.62366
7.43181
12.9666
28.7056
77.6192
218.811
0.00829267
0.00776243
0.00755801
0.00738294
0.0072279
0.00708711
0.00695271
0.00682463
0.0066451
0.0325515
0.228258
0.615737
1.08923
1.60521
2.23118
3.07763
4.41099
7.13106
12.5795
27.7104
73.9472
206.809
0.00850617
0.00798099
0.0077764
0.0075978
0.00744072
0.00729501
0.00715455
0.0070208
0.00685115
0.0165358
0.149826
0.500888
0.976135
1.48985
2.09893
2.91336
4.19169
6.80024
12.126
26.5808
70.2701
194.155
0.00847104
0.00797219
0.00779246
0.00763791
0.00750065
0.00737574
0.00725643
0.00714259
0.00701753
0.00959328
0.0868741
0.381226
0.850478
1.36723
1.96451
2.74835
3.96894
6.44689
11.61
25.3231
66.5452
181.012
0.00867182
0.00817769
0.00799782
0.00783961
0.00770022
0.00757062
0.00744545
0.00732602
0.00720692
0.00744116
0.044283
0.26481
0.710774
1.23357
1.82553
2.58242
3.74539
6.07919
11.0385
23.95
62.7329
167.554
0.00864162
0.0081706
0.00801279
0.00787662
0.00775536
0.00764476
0.00753901
0.00743791
0.00733809
0.00707305
0.0211638
0.1634
0.559053
1.08482
1.67845
2.41431
3.52276
5.70529
10.4223
22.4802
58.8012
153.966
0.00883178
0.0083651
0.00820714
0.00806717
0.00794364
0.00782853
0.0077171
0.00761046
0.00750743
0.00724211
0.0114982
0.0880059
0.403656
0.917996
1.51876
2.24157
3.30156
5.33253
9.77471
20.9392
54.7349
140.429
0.0088092
0.00836269
0.00822415
0.00810423
0.00799716
0.00789923
0.00780541
0.00771543
0.00762748
0.00745889
0.00840802
0.0422749
0.26014
0.73382
1.34139
2.06053
3.0808
4.96659
9.11057
19.3572
50.54
127.114
0.0089898
0.00854738
0.00840876
0.00828507
0.00817571
0.00807353
0.00797434
0.00787904
0.00778701
0.00766504
0.00772196