/*--------------------------------*- C++ -*----------------------------------*\
| =========                 |                                                 |
| \\      /  F ield         | OpenFOAM: The Open Source CFD Toolbox           |
|  \\    /   O peration     | Version:  v1912                                 |
|   \\  /    A nd           | Website:  www.openfoam.com                      |
|    \\/     M anipulation  |                                                 |
\*---------------------------------------------------------------------------*/
FoamFile
{
    version     2.0;
    format      ascii;
    class       volScalarField;
    location    "100";
    object      nut;
}
// * * * * * * * * * * * * * * * * * * * * * * * * * * * * * * * * * * * * * //

dimensions      [0 2 -1 0 0 0 0];


internalField   nonuniform List<scalar> 
12441
(
5.82216e-24
1.79045e-20
8.11888e-20
3.33098e-19
1.07007e-18
3.89477e-18
1.01305e-17
2.50862e-17
6.15792e-17
1.27935e-16
3.06688e-16
7.74033e-16
2.18706e-15
7.42598e-15
1.0396e-13
1.89949e-11
0.00020966
0.00116801
0.00367814
0.00285154
0.00363609
0.00775321
6.34231e-24
3.03334e-20
1.12001e-19
4.2497e-19
1.30523e-18
4.81887e-18
1.22406e-17
3.01424e-17
7.39298e-17
1.55124e-16
3.81541e-16
1.03384e-15
2.83909e-15
9.41544e-15
1.13541e-13
3.91414e-11
6.09209e-05
0.00141824
0.00419622
0.00310143
0.00399693
0.00781733
6.36507e-24
3.5894e-20
1.21051e-19
4.4915e-19
1.38091e-18
4.91822e-18
1.29719e-17
3.21782e-17
8.08569e-17
1.7251e-16
4.19781e-16
1.12246e-15
2.79559e-15
7.69823e-15
5.3749e-14
6.59763e-12
1.14201e-05
0.00102895
0.00165154
0.00292079
0.0041487
0.0078909
6.31954e-24
3.76904e-20
1.18824e-19
4.30379e-19
1.32872e-18
4.72579e-18
1.25591e-17
3.14699e-17
7.8852e-17
1.74475e-16
4.25814e-16
1.1595e-15
2.62112e-15
8.5137e-15
3.86805e-14
1.54935e-12
1.64768e-06
0.000706814
0.00122038
0.00283127
0.00431031
0.0079647
6.28549e-24
4.38821e-20
1.30065e-19
4.59341e-19
1.40593e-18
4.79076e-18
1.31344e-17
3.29331e-17
8.46553e-17
1.88336e-16
4.56234e-16
1.29042e-15
3.03074e-15
4.09013e-14
2.48312e-13
2.30685e-12
1.40702e-07
0.00049017
0.00118077
0.00280901
0.00445044
0.00803394
6.23532e-24
4.12872e-20
1.20839e-19
4.30282e-19
1.34625e-18
4.63457e-18
1.27982e-17
3.25419e-17
8.32766e-17
1.93592e-16
4.79292e-16
1.45249e-15
4.55119e-15
1.33522e-12
1.1953e-11
5.1252e-11
4.61973e-07
0.000435931
0.0012203
0.00285971
0.00457854
0.00809948
6.2004e-24
5.02635e-20
1.38098e-19
4.76837e-19
1.46358e-18
4.80424e-18
1.3639e-17
3.45988e-17
9.10902e-17
2.12052e-16
5.23247e-16
2.00911e-15
2.51215e-14
4.1643e-11
6.60889e-10
9.41522e-09
1.88247e-05
0.000427567
0.00137568
0.00304764
0.00472966
0.00816218
6.15064e-24
4.34517e-20
1.23484e-19
4.41306e-19
1.41198e-18
4.73606e-18
1.35644e-17
3.50068e-17
9.17477e-17
2.2492e-16
5.75372e-16
5.46235e-15
6.12266e-13
2.26363e-09
8.45392e-08
4.97835e-06
0.000191281
0.000460876
0.00181224
0.00344686
0.00493324
0.00822577
6.11783e-24
5.57043e-20
1.46447e-19
5.00794e-19
1.5578e-18
4.97104e-18
1.46614e-17
3.77283e-17
1.02512e-16
2.52059e-16
6.48352e-16
6.16291e-14
2.60087e-11
7.45519e-08
1.04224e-05
0.000150249
0.000751381
0.000782865
0.00273808
0.00414128
0.00522551
0.00829204
6.07098e-24
4.43494e-20
1.25758e-19
4.57843e-19
1.51173e-18
4.9679e-18
1.48053e-17
3.89062e-17
1.05374e-16
2.76452e-16
7.52389e-16
1.69016e-12
1.0878e-09
4.44707e-06
0.000186123
0.000570687
0.00148452
0.00139887
0.00438903
0.00520966
0.00562255
0.00836448
6.0418e-24
6.02606e-20
1.53763e-19
5.27076e-19
1.6767e-18
5.21908e-18
1.60796e-17
4.22101e-17
1.19806e-16
3.18785e-16
8.96244e-16
5.25471e-11
5.52974e-08
8.08938e-05
0.000666111
0.00144976
0.00294066
0.00259336
0.00707891
0.00674185
0.00613773
0.00844366
5.99639e-24
4.4629e-20
1.28067e-19
4.78221e-19
1.6383e-18
5.29645e-18
1.64673e-17
4.42709e-17
1.26095e-16
3.66402e-16
1.16444e-15
1.46375e-09
3.25711e-06
0.000328853
0.00134169
0.00290781
0.00553884
0.00481852
0.0111052
0.00876402
0.00675718
0.00853143
5.97076e-24
6.41502e-20
1.60785e-19
5.55012e-19
1.81922e-18
5.5558e-18
1.79684e-17
4.84197e-17
1.47326e-16
4.46695e-16
1.7024e-15
3.5374e-08
7.17649e-05
0.000954241
0.00295488
0.00577116
0.0101171
0.00866858
0.0165197
0.0112392
0.00746748
0.00862633
5.9268e-24
4.43255e-20
1.30005e-19
5.00652e-19
1.78825e-18
5.70871e-18
1.86058e-17
5.16215e-17
1.60604e-16
5.61853e-16
3.6193e-15
8.00047e-07
0.000329533
0.00223185
0.00590164
0.0105774
0.0173142
0.0146023
0.0230147
0.0140238
0.00823134
0.00872852
5.9044e-24
6.75167e-20
1.66992e-19
5.83856e-19
1.98256e-18
5.95483e-18
2.03357e-17
5.70109e-17
1.96875e-16
7.82118e-16
1.65926e-14
1.52185e-05
0.00100055
0.00475912
0.0107801
0.0177447
0.0273155
0.0225848
0.0299335
0.0169495
0.00902461
0.00883515
5.86072e-24
4.39592e-20
1.32336e-19
5.26206e-19
1.96334e-18
6.20382e-18
2.12855e-17
6.19606e-17
2.29229e-16
1.22208e-15
3.0364e-13
0.000135541
0.0022769
0.00898794
0.0179554
0.0272984
0.0396371
0.031866
0.0365239
0.0198131
0.00980681
0.00894576
5.84161e-24
7.05414e-20
1.7384e-19
6.16375e-19
2.17546e-18
6.45508e-18
2.33849e-17
6.96492e-17
3.0949e-16
2.31483e-15
1.26586e-11
0.000495241
0.00475447
0.0152448
0.0272467
0.0388228
0.0530382
0.0411449
0.042161
0.0224809
0.0105613
0.00905718
5.79766e-24
4.35026e-20
1.34833e-19
5.54596e-19
2.16674e-18
6.79147e-18
2.47137e-17
7.75748e-17
4.1033e-16
5.47112e-15
5.50585e-10
0.00118663
0.00882197
0.0235772
0.0383114
0.0513798
0.0657332
0.0490335
0.0465694
0.0248397
0.011259
0.00916919
5.78128e-24
7.32652e-20
1.80624e-19
6.5041e-19
2.39321e-18
7.02818e-18
2.72665e-17
8.94087e-17
6.6436e-16
1.6994e-14
4.42662e-08
0.00266438
0.0148213
0.0334666
0.050199
0.0636937
0.0758879
0.0546452
0.0497754
0.0268698
0.0118997
0.00927899
5.73676e-24
4.30538e-20
1.37211e-19
5.8392e-19
2.39353e-18
7.45983e-18
2.91179e-17
1.02763e-16
1.08525e-15
7.56166e-14
8.55718e-06
0.00524286
0.0226382
0.0443509
0.0620052
0.07435
0.0821872
0.0578603
0.0520535
0.0285538
0.0124695
0.00938714
5.72367e-24
7.5731e-20
1.87132e-19
6.84462e-19
2.63477e-18
7.69052e-18
3.24e-17
1.22693e-16
2.20221e-15
7.83372e-13
0.000163491
0.00939563
0.0318032
0.0553217
0.0724898
0.08223
0.0842734
0.059251
0.053719
0.02994
0.012983
0.00949146
5.67833e-24
4.2435e-20
1.38908e-19
6.12485e-19
2.64236e-18
8.21683e-18
3.50698e-17
1.47085e-16
4.35899e-15
1.34655e-11
0.000608503
0.0152712
0.0416325
0.0657256
0.0808641
0.0867288
0.0827957
0.0596585
0.0550711
0.0310504
0.0134385
0.00959327
5.66792e-24
7.80242e-20
1.92795e-19
7.16769e-19
2.89571e-18
8.43687e-18
3.95457e-17
1.8423e-16
1.0314e-14
1.66754e-10
0.00149747
0.0226481
0.0514189
0.0747671
0.086435
0.0879559
0.0790845
0.0598165
0.0562952
0.0319541
0.013863
0.00969106
5.62204e-24
4.19652e-20
1.40123e-19
6.39597e-19
2.91045e-18
9.0632e-18
4.36589e-17
2.32444e-16
2.25149e-14
1.5646e-09
0.00320065
0.0310696
0.0605648
0.0820491
0.0892354
0.0865659
0.0745869
0.0601304
0.0575116
0.0326871
0.0142648
0.00978684
5.61516e-24
8.02768e-20
1.97893e-19
7.47086e-19
3.17729e-18
9.28691e-18
5.04007e-17
3.07464e-16
5.66431e-14
1.38283e-08
0.00601428
0.0398594
0.0686367
0.0872219
0.0895346
0.0835506
0.0704029
0.0607247
0.0587589
0.0333293
0.0146795
0.00987966
5.56749e-24
4.17931e-20
1.41086e-19
6.65483e-19
3.20048e-18
1.00202e-17
5.7353e-17
4.10081e-16
1.31013e-13
3.19901e-07
0.010117
0.0484639
0.0753605
0.0903866
0.0880725
0.0798706
0.0670933
0.0615534
0.0600552
0.0339287
0.0151222
0.00997203
5.56312e-24
8.24854e-20
2.02402e-19
7.75271e-19
3.47929e-18
1.02531e-17
6.86375e-17
5.75222e-16
3.939e-13
1.86464e-05
0.0153356
0.0563757
0.080611
0.0917116
0.0855031
0.0762721
0.0647748
0.0625258
0.0613838
0.034569
0.015632
0.0100634
5.51431e-24
4.18607e-20
1.41536e-19
6.89154e-19
3.51063e-18
1.10991e-17
8.1606e-17
8.13505e-16
1.83717e-12
0.000206088
0.021356
0.0633218
0.0843883
0.0916506
0.0825276
0.0731743
0.0633178
0.0635558
0.0627316
0.0352939
0.0162223
0.0101564
5.5133e-24
8.46769e-20
2.0609e-19
8.00442e-19
3.80289e-18
1.13662e-17
1.02765e-16
1.20814e-15
1.2844e-11
0.000664767
0.0276873
0.0691117
0.0868008
0.0905754
0.0795532
0.0707419
0.0625193
0.0645904
0.0640683
0.0361682
0.0169251
0.0102507
5.46224e-24
4.20357e-20
1.4127e-19
7.10047e-19
3.84336e-18
1.23376e-17
1.29253e-16
1.80239e-15
7.43724e-11
0.00127957
0.0339586
0.0737057
0.0880288
0.0889309
0.0768942
0.0689616
0.0621914
0.0655992
0.0653731
0.0372061
0.0177408
0.0103488
5.46326e-24
8.68078e-20
2.09261e-19
8.23003e-19
4.15014e-18
1.26768e-17
1.72881e-16
2.81802e-15
3.57528e-10
0.00210441
0.0398093
0.077103
0.0882945
0.0869886
0.0746338
0.0677477
0.0621927
0.066574
0.0666131
0.0384326
0.0186836
0.01045
5.41114e-24
4.22478e-20
1.40192e-19
7.2824e-19
4.2013e-18
1.37776e-17
2.30869e-16
4.40533e-15
1.39181e-09
0.00317289
0.045038
0.0793941
0.087824
0.0850093
0.072823
0.0669883
0.0624275
0.0675136
0.0677654
0.0398221
0.0197322
0.0105565
5.41527e-24
8.89193e-20
2.11685e-19
8.43548e-19
4.52983e-18
1.42184e-17
3.27123e-16
7.10393e-15
4.75989e-09
0.00452911
0.0494718
0.0806817
0.086829
0.0830998
0.0714032
0.0665847
0.0628359
0.0684252
0.0687968
0.0413644
0.0208791
0.010667
5.35967e-24
4.22802e-20
1.38087e-19
7.44499e-19
4.59615e-18
1.54936e-17
4.59677e-16
1.13347e-14
1.44966e-08
0.00617901
0.0530736
0.0811182
0.0854869
0.0813656
0.0703421
0.0664531
0.0633829
0.0693143
0.0696838
0.0430107
0.0220827
0.0107831
5.36574e-24
8.84585e-20
2.10594e-19
8.5836e-19
4.94405e-18
1.60752e-17
6.7941e-16
1.85579e-14
4.28956e-08
0.0081098
0.055838
0.0808444
0.0839405
0.0798122
0.0695608
0.0665324
0.06405
0.0701899
0.070394
0.044742
0.0233221
0.0109032
5.30611e-24
4.14877e-20
1.32836e-19
7.53231e-19
5.02225e-18
1.75074e-17
9.83448e-16
3.00183e-14
2.19698e-07
0.0103346
0.0578631
0.0800206
0.0822947
0.07847
0.069023
0.0667754
0.064829
0.0710576
0.070905
0.0465169
0.0245485
0.0110282
5.31256e-24
8.52651e-20
2.04064e-19
8.63163e-19
5.38901e-18
1.82169e-17
1.47773e-15
5.7612e-14
1.0754e-05
0.0128961
0.0592558
0.0787788
0.0806255
0.0773064
0.0686655
0.0671509
0.0657189
0.0719257
0.071188
0.0483392
0.0257437
0.0111563
5.24617e-24
4.16174e-20
1.2757e-19
7.59307e-19
5.49598e-18
1.99082e-17
2.14879e-15
4.66542e-13
0.000160651
0.0159146
0.0601731
0.0772526
0.0789813
0.0763287
0.0684666
0.0676353
0.0667229
0.0727995
0.0712265
0.0501994
0.0268707
0.0112883
5.24951e-24
5.37919e-20
1.54893e-19
8.00462e-19
5.77724e-18
2.06735e-17
3.20797e-15
2.31872e-11
0.000867325
0.0195492
0.0607387
0.0755421
0.0773929
0.0754995
0.068381
0.0682152
0.067847
0.0736867
0.071001
0.0521343
0.0279361
0.011422
5.17276e-24
4.32845e-20
1.14683e-19
7.25775e-19
5.95481e-18
2.36062e-17
4.67644e-15
1.03581e-09
0.00278605
0.023893
0.0610723
0.0737432
0.0758729
0.0748271
0.068402
0.0688799
0.0690988
0.0745906
0.0705091
0.0541538
0.028936
0.0115584
5.16609e-24
1.93964e-21
1.12209e-20
4.01137e-19
5.45737e-18
2.44812e-17
7.22182e-15
1.81755e-07
0.00655368
0.0288837
0.0612279
0.0719208
0.0744234
0.0742805
0.0684959
0.0696257
0.0704853
0.0755143
0.0697491
0.0562773
0.029917
0.0116955
5.07798e-24
1.71185e-20
4.48455e-20
4.18181e-19
5.47532e-18
3.63027e-17
1.80573e-14
3.85484e-05
0.0125737
0.0343765
0.0612383
0.0701387
0.0730333
0.0738787
0.0686702
0.0704485
0.0720111
0.0764517
0.0687417
0.0584194
0.0309017
0.0118345
5.03914e-24
6.72072e-22
8.46602e-23
2.35476e-19
5.07292e-18
8.29464e-17
3.71439e-13
0.000558413
0.0210455
0.0401803
0.0610797
0.0684356
0.0716842
0.0735921
0.0688959
0.0713515
0.0736773
0.0773909
0.0675104
0.0603687
0.0318969
0.011976
4.83848e-24
2.10341e-19
4.58687e-19
1.03225e-18
7.28806e-18
9.17106e-16
7.20225e-12
0.00266372
0.0319715
0.0462206
0.0608184
0.0668828
0.0703576
0.0734389
0.0691781
0.0723268
0.0754698
0.0782659
0.0660886
0.0616292
0.0325803
0.0121338
0.00987657
0.00957131
0.0113763
0.00470454
0.00375277
0.00387313
0.00415347
0.00413768
0.00404886
0.00421444
0.00582409
0.00535604
0.00497708
0.00512598
0.0050655
0.00625081
0.0169798
0.028784
0.0303958
0.025986
0.0231724
0.0234277
0.024136
0.0287403
0.0544961
0.080686
0.0921775
0.0986299
0.101313
0.0961339
0.0887318
0.0848449
0.0857547
0.0965427
0.114271
0.00986353
0.00973431
0.0108619
0.0042379
0.00341516
0.00359773
0.00397396
0.00397366
0.0038466
0.00399786
0.00557034
0.00516305
0.00480176
0.00493479
0.00491467
0.00575636
0.0160902
0.0285396
0.0307002
0.0261652
0.0231379
0.0233967
0.0242148
0.0287595
0.0544385
0.0806438
0.092119
0.0985752
0.101287
0.0960735
0.0886892
0.0848108
0.085747
0.0965361
0.114276
0.00983842
0.00990493
0.00995978
0.00362914
0.00311201
0.00329245
0.00372755
0.00369927
0.0035046
0.00362071
0.00489506
0.00463086
0.00445211
0.00461528
0.0046851
0.00521878
0.0132071
0.0245191
0.0278395
0.0247503
0.0225441
0.0231486
0.0243119
0.0291309
0.0545616
0.0804974
0.0919243
0.0983954
0.101181
0.0959029
0.0885611
0.0847025
0.0856954
0.0964843
0.114246
0.00979929
0.0100393
0.00886797
0.00311175
0.00285525
0.00297654
0.00344315
0.00335009
0.00310957
0.00319
0.00406883
0.00391544
0.00390915
0.00415522
0.00433655
0.00480065
0.010139
0.0192633
0.0234296
0.022346
0.021494
0.0226778
0.0243839
0.0297248
0.0547996
0.0802436
0.0915933
0.0980906
0.100994
0.0956214
0.0883469
0.0845189
0.0855988
0.0963869
0.114183
0.00974597
0.0100894
0.00772084
0.00270909
0.00264898
0.00269227
0.00316355
0.00299271
0.00273355
0.00277658
0.00326099
0.00314224
0.00325263
0.00359301
0.00384602
0.0044028
0.00770829
0.0143826
0.0187425
0.0194714
0.0200818
0.0219774
0.0243887
0.0304383
0.0551049
0.0798947
0.0911421
0.0976759
0.100737
0.09524
0.0880559
0.0842687
0.0854651
0.096253
0.114095
0.00967615
0.010027
0.00661714
0.0024069
0.00249725
0.00246289
0.00292334
0.00268993
0.00243389
0.00243654
0.00257629
0.00242864
0.00257795
0.0029593
0.003229
0.00384876
0.00598217
0.0105351
0.0145346
0.0165154
0.0183967
0.0210422
0.0242862
0.0311909
0.0554443
0.079473
0.0905976
0.097176
0.100429
0.0947772
0.0877036
0.0839672
0.085308
0.0960981
0.113998
0.00959042
0.00984132
0.00562135
0.00218544
0.0024026
0.00230007
0.00274392
0.00247588
0.00223655
0.00220063
0.00208239
0.00188402
0.00200536
0.00234386
0.00258575
0.00311608
0.00469102
0.00773168
0.0110944
0.0137186
0.0165193
0.0198702
0.0240368
0.0319192
0.0557965
0.0790069
0.0899931
0.0966217
0.100095
0.0942562
0.0873093
0.0836332
0.0851445
0.0959415
0.113913
0.00948687
0.00952788
0.00476515
0.00202507
0.00236054
0.00220324
0.00262777
0.00235078
0.00213453
0.00206494
0.0017873
0.00155289
0.00162038
0.00186357
0.00205837
0.00239169
0.00359405
0.00570653
0.00840523
0.0111952
0.0145245
0.0184669
0.0236009
0.0325723
0.0561492
0.0785278
0.0893652
0.0960468
0.0997602
0.0937033
0.0868949
0.0832882
0.0849941
0.0958053
0.113861
0.00936733
0.0090941
0.00405557
0.00191101
0.00236204
0.00216503
0.00256343
0.00229258
0.00209953
0.00200037
0.00164232
0.00139311
0.00141528
0.00156685
0.00172252
0.00187975
0.0026722
0.00420004
0.00633156
0.008986
0.0124899
0.0168524
0.0229406
0.0331071
0.0564965
0.0780669
0.08875
0.095485
0.0994528
0.0931453
0.0864833
0.0829554
0.0848777
0.0957134
0.113869
0.0092307
0.00854944
0.0034852
0.00183442
0.00239751
0.00217815
0.00253746
0.00227612
0.00210279
0.00197389
0.00158011
0.00132909
0.00132268
0.00141537
0.0015527
0.00162558
0.0020341
0.00308566
0.00474594
0.00710544
0.0105035
0.0150702
0.0220238
0.0334842
0.0568351
0.0776526
0.0881814
0.0949688
0.0991986
0.0926093
0.0860976
0.0826583
0.084817
0.0956905
0.113961
0.00908003
0.00791296
0.00304106
0.00179359
0.00246052
0.0022388
0.00254239
0.00228414
0.00212336
0.00196148
0.00155105
0.00130191
0.00127803
0.00134359
0.00148162
0.00155154
0.00171111
0.00234399
0.00358085
0.00557109
0.00866329
0.0131938
0.0208324
0.0336654
0.0571626
0.077309
0.0876887
0.0945269
0.0990212
0.0921203
0.0857604
0.0824203
0.0848336
0.0957619
0.114163
0.00891508
0.00720396
0.00270934
0.00179028
0.00254851
0.00234608
0.00257896
0.00231138
0.00215213
0.00195325
0.00153172
0.00128364
0.00124662
0.00130433
0.00145544
0.00156402
0.00162283
0.0019495
0.00280892
0.00440456
0.00706727
0.0113252
0.0193729
0.0336119
0.0574741
0.0770547
0.0872957
0.0941838
0.0989409
0.0917016
0.0854926
0.082264
0.0849486
0.0959522
0.114501
0.00874002
0.00645001
0.00247829
0.00182811
0.00266385
0.00250026
0.0026533
0.00236036
0.00218788
0.00194901
0.00151746
0.0012675
0.00121832
0.00127714
0.0014486
0.00160658
0.00166506
0.00182217
0.00239074
0.00361484
0.00579522
0.00958332
0.017687
0.0332859
0.0577615
0.0769019
0.0870206
0.0939591
0.098974
0.0913732
0.0853136
0.0822107
0.0851821
0.0962859
0.114997
0.00855535
0.00567819
0.0023388
0.00190992
0.00281328
0.00270176
0.00277402
0.00243681
0.00223639
0.00195389
0.00151102
0.00125542
0.00119376
0.00125734
0.00145378
0.0016601
0.00176432
0.00186439
0.00225174
0.00317592
0.0048885
0.0080799
0.0158566
0.0326555
0.0580122
0.0768575
0.0868757
0.0938677
0.0991334
0.0911521
0.0852405
0.0822801
0.0855534
0.0967862
0.115677
0.00836592
0.00492122
0.00228448
0.0020385
0.00300857
0.00295158
0.00294969
0.00254516
0.00230434
0.00197353
0.00151678
0.00125081
0.00117556
0.00124539
0.00147048
0.00172394
0.00188642
0.00199871
0.0023049
0.00302632
0.00433978
0.00689395
0.0139957
0.0317013
0.0582092
0.076923
0.0868684
0.0939201
0.099428
0.0910525
0.0852885
0.0824907
0.0860801
0.0974755
0.116562
0.00817267
0.00420965
0.00230952
0.00221645
0.00326608
0.0032527
0.003188
0.00269264
0.00239909
0.00201344
0.00153857
0.00125724
0.00116627
0.00124214
0.00149888
0.00180095
0.00202161
0.00217767
0.00247516
0.00308893
0.00410071
0.00605484
0.0122295
0.0304259
0.0583317
0.0770956
0.0870022
0.0941233
0.099864
0.0910856
0.0854706
0.0828592
0.086779
0.0983754
0.117673
0.00798033
0.00357477
0.00240707
0.00244851
0.00360829
0.00361405
0.00349734
0.00288811
0.00252651
0.0020784
0.00158059
0.00127844
0.00116857
0.00124833
0.00153869
0.00189238
0.00216913
0.00237782
0.00270893
0.00329167
0.00410221
0.00554489
0.0106654
0.0288615
0.0583565
0.0773698
0.0872773
0.0944814
0.100445
0.0912604
0.0857981
0.0834013
0.0876657
0.0995066
0.11903
0.00778933
0.00304413
0.00256616
0.00274261
0.00406098
0.00405989
0.00389042
0.00314322
0.00269515
0.00217465
0.00164826
0.00131948
0.00118638
0.00126522
0.00158927
0.00199731
0.00232855
0.00258826
0.0029716
0.00357644
0.00427327
0.00531515
0.00937227
0.027071
0.0582606
0.0777381
0.0876923
0.094997
0.101173
0.0915841
0.0862812
0.0841316
0.0887552
0.100889
0.12065
0.00760307
0.00263748
0.00277008
0.00311313
0.00465518
0.00462914
0.00438569
0.00347361
0.00291528
0.00231052
0.00175012
0.00138754
0.00122554
0.0012956
0.0016504
0.00211384
0.00249801
0.00280324
0.00324218
0.00390096
0.00455181
0.00530373
0.00837529
0.0251419
0.0580234
0.0781924
0.0882448
0.0956712
0.102049
0.0920622
0.0869284
0.0850643
0.0900618
0.102544
0.122553
0.00742066
0.00236221
0.00300178
0.00358723
0.00542538
0.00536599
0.00500959
0.00390157
0.00320275
0.0024987
0.0018991
0.00149373
0.0012953
0.00134482
0.0017231
0.00224024
0.00267456
0.00301828
0.00350719
0.00423544
0.00488851
0.00544858
0.00766493
0.0231717
0.0576298
0.0787249
0.0889327
0.0965056
0.103072
0.0926997
0.0877483
0.0862132
0.0915995
0.104489
0.124756
0.00724378
0.00221546
0.00326887
0.00420288
0.00641236
0.00631795
0.00579384
0.00445392
0.00357606
0.00275563
0.00211409
0.00165502
0.00141037
0.00142249
0.00181116
0.00237651
0.00285647
0.00323079
0.00375843
0.00455982
0.00524683
0.00569496
0.00720991
0.0212506
0.0570734
0.0793295
0.0897547
0.0975018
0.104244
0.0935008
0.0887483
0.0875922
0.0933825
0.106747
0.127275
0.00707145
0.00218948
0.00364109
0.00500611
0.00766445
0.00753493
0.00677391
0.00516101
0.0040582
0.00310198
0.00242013
0.00189707
0.00159463
0.00154517
0.00192297
0.00252617
0.00304483
0.00344076
0.00399139
0.00486028
0.00560087
0.00599828
0.00696796
0.0194489
0.0563587
0.0800023
0.0907109
0.0986627
0.105565
0.0944701
0.0899364
0.0892158
0.095425
0.109338
0.130127
0.00690537
0.00226924
0.00424935
0.00606289
0.00924149
0.00907119
0.00798695
0.00605219
0.00467117
0.00355942
0.00284702
0.00225566
0.00188521
0.00174114
0.0020745
0.00269844
0.00324612
0.00365328
0.00420688
0.00512853
0.00593337
0.00632494
0.00689391
0.0178129
0.0555031
0.0807427
0.0918038
0.0999928
0.107037
0.0956121
0.0913203
0.0910989
0.0977416
0.112283
0.13333
0.00674534
0.00244416
0.00524564
0.00746641
0.0112195
0.0109897
0.00947366
0.00715496
0.00543623
0.00414834
0.00342482
0.00277592
0.00233574
0.00205727
0.00229332
0.00291047
0.00347308
0.00387886
0.00441109
0.0053606
0.00623346
0.00665102
0.00694477
0.0163678
0.0545379
0.0815539
0.0930381
0.101498
0.108662
0.0969319
0.0929085
0.0932576
0.100348
0.115606
0.1369
0.00659312
0.00271379
0.00678141
0.00933754
0.0136947
0.0133637
0.0112755
0.00848901
0.00636535
0.00488135
0.00417696
0.00350567
0.00301242
0.0025656
0.00262509
0.00319002
0.00374606
0.00413447
0.00461729
0.00555807
0.00649566
0.00696116
0.00708345
0.0151254
0.0535088
0.0824435
0.0944214
0.103188
0.110444
0.0984351
0.0947094
0.0957088
0.103259
0.119331
0.140854
0.00644962
0.00308071
0.00897265
0.0118197
0.0167772
0.0162644
0.013425
0.0100585
0.00745656
0.0057572
0.00511081
0.00448334
0.00397962
0.00335884
0.00314017
0.00357829
0.00409243
0.00444148
0.00484417
0.00572775
0.00671875
0.00724663
0.00728028
0.0140901
0.0524749
0.0834242
0.0959641
0.105072
0.112387
0.100128
0.0967325
0.0984708
0.106492
0.123482
0.145208
0.00631698
0.00354803
0.0118659
0.0150681
0.0205725
0.0197325
0.0159206
0.011833
0.00867772
0.00675026
0.00620821
0.0057217
0.00527537
0.00452295
0.00393245
0.0041323
0.00454702
0.0048249
0.00511523
0.0058833
0.00690568
0.00750447
0.00751387
0.0132635
0.0515073
0.0845134
0.0976792
0.107163
0.114498
0.102017
0.0989872
0.101563
0.110065
0.128087
0.149979
0.00619775
0.0041229
0.0154456
0.0192312
0.0251493
0.0237358
0.0186965
0.0137293
0.00995833
0.00780412
0.00741759
0.00719364
0.00688929
0.00609134
0.0050925
0.00492005
0.0051491
0.00530976
0.00545446
0.00604378
0.00706324
0.00773601
0.00777044
0.0126467
0.0506853
0.0857337
0.0995826
0.109475
0.116783
0.10411
0.101484
0.105006
0.113994
0.133173
0.155184
0.00609509
0.00482319
0.0196758
0.0244314
0.030505
0.0281334
0.0215956
0.015598
0.0111811
0.00882859
0.00865266
0.00882416
0.0087509
0.00801404
0.00665443
0.00600019
0.00593597
0.00591839
0.00588405
0.00623372
0.00720237
0.00794653
0.00804337
0.0122418
0.0500925
0.0871117
0.101692
0.112025
0.11925
0.106414
0.104234
0.108821
0.1183
0.13877
0.160839
0.00601408
0.00569491
0.0245459
0.0307379
0.0365286
0.0326573
0.024367
0.0172335
0.0121979
0.00971133
0.00979975
0.0104934
0.0107338
0.0101579
0.00855035
0.00738333
0.0069256
0.00666162
0.00641809
0.00647908
0.00733779
0.00814424
0.00833196
0.0120524
0.0498124
0.0886769
0.104028
0.11483
0.121906
0.108937
0.107248
0.113031
0.123002
0.144909
0.16696
0.00596079
0.00682111
0.0300817
0.0381109
0.0429598
0.0369172
0.0266879
0.0184034
0.0128568
0.0103402
0.0107368
0.0120507
0.0126715
0.0123341
0.0106158
0.00899987
0.00809655
0.0075298
0.00705786
0.00680482
0.00748797
0.00834021
0.00864089
0.0120847
0.0499238
0.0904606
0.106609
0.117909
0.124759
0.111687
0.110538
0.117662
0.128121
0.151623
0.173563
0.00594609
0.00831441
0.0363131
0.0463048
0.04935
0.0404344
0.0282191
0.0189057
0.0130515
0.0106384
0.0113618
0.0133405
0.0143839
0.0143315
0.0126321
0.0106998
0.00937242
0.0084808
0.00778279
0.00722751
0.00767378
0.00854732
0.00897901
0.0123491
0.0504973
0.0924931
0.109457
0.121279
0.127819
0.114671
0.114118
0.12274
0.133681
0.158948
0.180667
0.00598322
0.0102699
0.0431869
0.0547721
0.0550664
0.0427164
0.0286808
0.018629
0.0127603
0.0105948
0.0116244
0.0142349
0.0157079
0.0159573
0.0143832
0.0122946
0.0106328
0.00944126
0.00854811
0.00775001
0.00791703
0.00878014
0.00935899
0.0128613
0.0515932
0.0948019
0.11259
0.12496
0.131093
0.117897
0.118001
0.128293
0.139706
0.166924
0.188289
0.00609167
0.0127209
0.0504741
0.0626642
0.0593792
0.0433697
0.0279373
0.0176023
0.0120673
0.0102754
0.0115469
0.014666
0.0165291
0.0170672
0.0156972
0.013607
0.0117405
0.0103168
0.0092861
0.00835216
0.00823664
0.0090533
0.00979618
0.0136441
0.0532601
0.0974091
0.116025
0.128968
0.13459
0.121374
0.122204
0.134355
0.146224
0.175597
0.196452
0.00628805
0.0156161
0.0577132
0.0689955
0.0616368
0.042218
0.0260486
0.0159943
0.0111323
0.0098002
0.0112197
0.0146453
0.0168052
0.0175948
0.0164794
0.0145163
0.0125819
0.011018
0.00992229
0.00899091
0.00864411
0.0093807
0.0103082
0.014728
0.0555338
0.10033
0.119776
0.133321
0.138318
0.125111
0.126747
0.140965
0.153271
0.18502
0.205181
0.00658505
0.0188657
0.0642915
0.0729334
0.0614597
0.0393697
0.0232663
0.0140659
0.0101346
0.00929619
0.0107673
0.014259
0.0165741
0.017554
0.0167152
0.0149712
0.0130878
0.0114792
0.0103912
0.00960343
0.00913662
0.00977241
0.0109139
0.0161521
0.0584371
0.103571
0.123854
0.138035
0.142287
0.12912
0.131653
0.148166
0.160885
0.195255
0.214509
0.00697682
0.0223577
0.0695917
0.0740422
0.0588523
0.0351922
0.0199604
0.0120847
0.00920776
0.00885078
0.0103014
0.013637
0.0159416
0.0170347
0.0164656
0.0149915
0.0132458
0.0116747
0.0106556
0.0101255
0.00969253
0.0102326
0.0116323
0.0179639
0.0619798
0.107133
0.128268
0.14313
0.146509
0.133416
0.136952
0.156014
0.169114
0.206376
0.224474
0.00744499
0.0259643
0.0731347
0.0723472
0.0541749
0.0302032
0.0165193
0.0102551
0.00841436
0.00849357
0.00988712
0.0129095
0.0150504
0.01617
0.0158363
0.0146439
0.0130863
0.0116139
0.0107083
0.0105044
0.0102701
0.0107554
0.0124818
0.0202198
0.0661602
0.111007
0.133026
0.148625
0.150997
0.13802
0.14268
0.164575
0.178016
0.218472
0.235125
0.00795396
0.0294121
0.0745847
0.0682068
0.048001
0.0249305
0.0132621
0.00868209
0.00775054
0.00820408
0.00953543
0.0121726
0.0140429
0.0151086
0.0149555
0.014024
0.0126723
0.0113378
0.0105736
0.0107155
0.0108151
0.0113242
0.01348
0.0229848
0.0709678
0.115184
0.13814
0.154547
0.155772
0.142959
0.148881
0.173928
0.187658
0.231648
0.246523
0.00846726
0.0322399
0.0737145
0.0621264
0.0409465
0.0198052
0.0103995
0.00738303
0.00717826
0.00793644
0.00921791
0.0114732
0.013029
0.0139776
0.0139406
0.013228
0.0120758
0.0108999
0.0102931
0.0107595
0.0112722
0.0119117
0.0146432
0.0263343
0.0763885
0.119655
0.143626
0.16093
0.160859
0.148269
0.155612
0.18417
0.198121
0.246027
0.258739
0.00894498
0.0337586
0.0703559
0.0546157
0.033544
0.0151155
0.00803082
0.00631788
0.00664766
0.00763745
0.00888642
0.0108136
0.0120701
0.0128678
0.0128872
0.0123425
0.0113692
0.01036
0.00991881
0.0106626
0.0115989
0.0124854
0.0159891
0.0303571
0.0824119
0.12442
0.149512
0.167819
0.166289
0.153998
0.162936
0.195412
0.209498
0.261749
0.271855
0.0093615
0.0333054
0.0644315
0.0461504
0.0262049
0.0110286
0.00616305
0.00542538
0.00611257
0.00725676
0.00848711
0.010164
0.0111781
0.0118206
0.0118547
0.0114302
0.0106097
0.00976941
0.00949989
0.0104619
0.0117735
0.0130145
0.0175395
0.0351605
0.089042
0.129491
0.155839
0.175268
0.172105
0.160201
0.170927
0.207779
0.221893
0.278971
0.285966
0.0096768
0.0303298
0.0559662
0.0371924
0.0192644
0.00764765
0.0047323
0.00464269
0.00552893
0.00674759
0.00797036
0.00948122
0.0103286
0.0108427
0.0108766
0.0105334
0.00984105
0.00917159
0.00908132
0.0102031
0.0117995
0.0134799
0.0193252
0.0408772
0.0963079
0.134898
0.162661
0.183344
0.178355
0.166945
0.17967
0.221411
0.235418
0.297862
0.301171
0.00988074
0.0248508
0.0452418
0.0281801
0.0130243
0.0050186
0.00361122
0.00389412
0.00483649
0.0060499
0.00727289
0.00869464
0.00945237
0.00989407
0.00994569
0.00965743
0.00907797
0.0085881
0.0086942
0.00992757
0.0117004
0.0138763
0.0213899
0.0476741
0.104275
0.140692
0.170046
0.192123
0.185094
0.174303
0.18925
0.236453
0.250191
0.3186
0.317574
4.88279e-24
3.14859e-19
1.09969e-18
4.26038e-18
2.5472e-17
3.2432e-14
9.07976e-11
0.00904479
0.0419605
0.0507792
0.0605118
0.0658401
0.0693906
0.0734472
0.0694549
0.0731595
0.0769524
0.0787692
0.0648979
0.0617808
0.0323129
0.0122
4.99655e-24
7.39392e-20
8.20737e-20
6.18242e-18
6.32387e-17
2.52926e-13
9.30522e-10
0.0165336
0.0486724
0.0535083
0.0601922
0.0652247
0.0688433
0.0735781
0.0697611
0.0737998
0.0780521
0.0790897
0.0643105
0.0614848
0.0319494
0.0122926
5.1026e-24
2.76722e-19
8.77045e-19
8.88133e-18
1.22841e-16
9.42562e-13
9.35183e-09
0.0253462
0.0546852
0.0557661
0.0598649
0.0647292
0.0684304
0.0737992
0.07015
0.0744655
0.0791632
0.0793834
0.0640214
0.0607815
0.0314602
0.0124916
5.06236e-24
5.72911e-20
2.16153e-20
6.87888e-18
1.92937e-16
2.29294e-12
1.69686e-07
0.0346428
0.0599595
0.0576633
0.0596496
0.0643838
0.0681697
0.0741208
0.0706277
0.0751305
0.0802433
0.0796436
0.0640146
0.0597086
0.0308825
0.0127913
5.16614e-24
2.21447e-19
6.37051e-19
7.26446e-18
2.88348e-16
3.6079e-12
6.5272e-06
0.0430996
0.0645423
0.0593029
0.059628
0.064211
0.0680794
0.0745276
0.0711727
0.0757737
0.0812476
0.0798591
0.0642537
0.0583436
0.0302661
0.0131825
5.11435e-24
4.59538e-20
1.21676e-20
4.64366e-18
4.10533e-16
4.86798e-12
1.85579e-05
0.0492358
0.0685057
0.0607892
0.059867
0.0642377
0.0681748
0.0750368
0.0717952
0.0763753
0.0821313
0.0800142
0.0646993
0.0567492
0.0296226
0.0136827
5.22958e-24
1.78816e-19
4.76991e-19
4.65917e-18
5.80349e-16
5.0462e-12
3.42604e-05
0.0523236
0.0719368
0.0622048
0.0604042
0.0644822
0.0684708
0.0756372
0.0724765
0.0769254
0.0828537
0.0800941
0.0652941
0.0550124
0.0289808
0.014306
5.17048e-24
3.80665e-20
7.94087e-21
2.79566e-18
7.73449e-16
4.37023e-12
2.56555e-05
0.0525466
0.0748969
0.0636247
0.0612717
0.0649678
0.0689787
0.0763522
0.0732339
0.0774172
0.0833818
0.0800793
0.0659861
0.0531915
0.0283389
0.0150709
5.29821e-24
1.46768e-19
3.72135e-19
2.87363e-18
9.85689e-16
2.87155e-12
2.72378e-05
0.0506282
0.0774272
0.0650965
0.0624805
0.0657088
0.0697097
0.0771741
0.0740539
0.0778563
0.083695
0.079953
0.0667125
0.0513619
0.0277187
0.0159814
5.22375e-24
3.24631e-20
5.92716e-21
1.69522e-18
1.1495e-15
1.68685e-12
3.51068e-05
0.0472248
0.0795159
0.0666558
0.0640428
0.0667254
0.0706722
0.0781294
0.0749599
0.0782511
0.0837868
0.0796965
0.0674245
0.0495647
0.0271113
0.0170409
5.35794e-24
1.22022e-19
2.99226e-19
1.84901e-18
1.25182e-15
8.50027e-13
3.99073e-05
0.0427101
0.0811124
0.0683066
0.0659529
0.0680295
0.0718755
0.0792117
0.0759432
0.0786213
0.0836672
0.0792975
0.068067
0.0478569
0.0265337
0.0182343
5.27134e-24
2.84455e-20
4.71918e-21
1.08519e-18
1.24039e-15
4.16053e-13
4.09225e-05
0.0374236
0.0821013
0.0700365
0.0682084
0.0696402
0.0733281
0.0804486
0.077032
0.0789865