/*--------------------------------*- C++ -*----------------------------------*\
| =========                 |                                                 |
| \\      /  F ield         | OpenFOAM: The Open Source CFD Toolbox           |
|  \\    /   O peration     | Version:  v1912                                 |
|   \\  /    A nd           | Website:  www.openfoam.com                      |
|    \\/     M anipulation  |                                                 |
\*---------------------------------------------------------------------------*/
FoamFile
{
    version     2.0;
    format      ascii;
    class       volScalarField;
    location    "100";
    object      p;
}
// * * * * * * * * * * * * * * * * * * * * * * * * * * * * * * * * * * * * * //

dimensions      [0 2 -2 0 0 0 0];


internalField   nonuniform List<scalar> 
12441
(
8.2175
8.611
9.42678
9.70862
12.1149
15.0897
17.6365
19.9013
24.0134
29.8208
36.3093
43.9095
53.5661
65.1817
80.4981
99.2827
125.28
157.142
209.436
270.276
364.556
437.083
8.2175
8.61099
9.42676
9.70865
12.1148
15.0897
17.6364
19.9012
24.0133
29.8206
36.3089
43.9089
53.5653
65.1802
80.4953
99.2767
125.265
157.12
209.348
270.195
364.495
436.858
8.21749
8.61095
9.42668
9.70879
12.1147
15.0896
17.6361
19.9012
24.0131
29.8201
36.3079
43.9076
53.5635
65.1772
80.4898
99.2646
125.243
157.067
209.165
270.004
364.337
436.448
8.21748
8.61089
9.42655
9.70905
12.1144
15.0894
17.6357
19.9011
24.0129
29.8194
36.3065
43.9057
53.5608
65.1728
80.4816
99.2465
125.213
156.986
208.978
269.711
364.058
435.816
8.21747
8.6108
9.42636
9.70942
12.1141
15.0891
17.6352
19.901
24.0126
29.8185
36.3045
43.9031
53.5573
65.1669
80.4707
99.2227
125.176
156.886
208.808
269.344
363.669
434.96
8.21746
8.61069
9.42614
9.7099
12.1138
15.0887
17.6345
19.901
24.0122
29.8173
36.3021
43.8998
53.5529
65.1597
80.4571
99.1932
125.13
156.77
208.616
268.9
363.175
433.88
8.21745
8.61055
9.42586
9.71047
12.1133
15.0882
17.6337
19.901
24.0118
29.8159
36.2991
43.8959
53.5477
65.1509
80.4407
99.1581
125.075
156.633
208.39
268.382
362.582
432.576
8.21743
8.61039
9.42554
9.71115
12.1128
15.0876
17.6328
19.9009
24.0112
29.8141
36.2957
43.8914
53.5416
65.1407
80.4217
99.1178
125.015
156.477
208.143
267.805
361.895
431.047
8.21741
8.61021
9.42517
9.71192
12.1122
15.0869
17.6317
19.9009
24.0106
29.8121
36.2918
43.8862
53.5347
65.1291
80.4003
99.0738
124.952
156.309
207.894
267.18
361.12
429.287
8.21739
8.61
9.42476
9.71279
12.1115
15.0861
17.6306
19.9009
24.01
29.8099
36.2873
43.8804
53.5269
65.1163
80.3775
99.0286
124.89
156.133
207.661
266.521
360.258
427.294
8.21736
8.60976
9.4243
9.71377
12.1108
15.0852
17.6292
19.901
24.0092
29.8073
36.2824
43.8739
53.5183
65.1022
80.354
98.9851
124.835
155.96
207.463
265.837
359.309
425.059
8.21733
8.60949
9.42381
9.71483
12.11
15.0842
17.6278
19.901
24.0084
29.8045
36.277
43.8669
53.509
65.0879
80.3317
98.9481
124.803
155.81
207.318
265.131
358.268
422.576
8.2173
8.60921
9.42327
9.71599
12.1091
15.0831
17.6262
19.9011
24.0075
29.8014
36.2711
43.8592
53.4992
65.0743
80.3153
98.9274
124.81
155.706
207.229
264.396
357.127
419.834
8.21727
8.60889
9.42269
9.71723
12.1082
15.0819
17.6245
19.9012
24.0065
29.798
36.2647
43.851
53.4896
65.0641
80.3122
98.9339
124.875
155.666
207.171
263.61
355.876
416.824
8.21723
8.60855
9.42207
9.71857
12.1072
15.0806
17.6227
19.9013
24.0054
29.7943
36.2578
43.8422
53.4813
65.0611
80.3289
98.9746
125.002
155.69
207.099
262.748
354.506
413.533
8.21718
8.60818
9.42142
9.71999
12.1062
15.0792
17.6208
19.9014
24.0043
29.7903
36.2505
43.8332
53.4758
65.07
80.3699
99.0497
125.178
155.747
206.96
261.785
353.008
409.95
8.21714
8.60779
9.42073
9.7215
12.1051
15.0777
17.6187
19.9015
24.0031
29.786
36.2426
43.8243
53.4757
65.0936
80.434
99.1519
125.373
155.784
206.713
260.703
351.375
406.062
8.21708
8.60737
9.42
9.72309
12.104
15.0761
17.6165
19.9016
24.0018
29.7814
36.2342
43.8164
53.4835
65.1327
80.516
99.2661
125.539
155.747
206.339
259.492
349.602
401.855
8.21703
8.60692
9.41924
9.72476
12.1028
15.0743
17.6143
19.9017
24.0004
29.7765
36.2253
43.8108
53.501
65.1834
80.6055
99.3713
125.631
155.602
205.844
258.152
347.684
397.317
8.21697
8.60645
9.41845
9.7265
12.1015
15.0725
17.6119
19.9018
23.9989
29.7713
36.2158
43.8092
53.5272
65.2412
80.6909
99.4446
125.615
155.343
205.248
256.688
345.621
392.434
8.2169
8.60596
9.41762
9.72833
12.1002
15.0705
17.6094
19.9019
23.9974
29.7658
36.2061
43.8134
53.5603
65.2981
80.7584
99.4677
125.482
154.994
204.573
255.106
343.414
387.191
8.21683
8.60544
9.41676
9.73022
12.0989
15.0685
17.6068
19.902
23.9958
29.7599
36.1963
43.8241
53.5952
65.3492
80.7983
99.4309
125.248
154.588
203.842
253.417
341.062
381.573
8.21675
8.6049
9.41587
9.73218
12.0975
15.0663
17.6041
19.9021
23.9941
29.7538
36.1873
43.8404
53.6291
65.3872
80.8028
99.3359
124.948
154.154
203.067
251.628
338.569
375.564
8.21667
8.60433
9.41496
9.7342
12.096
15.0641
17.6013
19.9021
23.9922
29.7472
36.1799
43.8601
53.6569
65.4099
80.7723
99.1933
124.616
153.71
202.257
249.75
335.937
369.148
8.21658
8.60374
9.414
9.7363
12.0945
15.0617
17.5984
19.9022
23.9903
29.7402
36.1755
43.8803
53.6778
65.4133
80.7096
99.0193
124.283
153.263
201.416
247.792
333.17
362.306
8.21649
8.60312
9.41304
9.73845
12.093
15.0592
17.5954
19.9022
23.9883
29.7329
36.1745
43.8987
53.6884
65.3997
80.6236
98.8293
123.962
152.81
200.544
245.764
330.272
355.019
8.21639
8.60249
9.41203
9.74067
12.0914
15.0567
17.5923
19.9022
23.9862
29.7252
36.1771
43.9132
53.6902
65.3686
80.5215
98.636
123.658
152.349
199.641
243.675
327.246
347.265
8.21628
8.60183
9.41102
9.74293
12.0898
15.054
17.5892
19.9021
23.984
29.7172
36.1822
43.9228
53.6811
65.3255
80.412
98.4462
123.368
151.876
198.708
241.533
324.094
339.023
8.21617
8.60114
9.40997
9.74526
12.0882
15.0512
17.5859
19.9021
23.9817
29.7089
36.1888
43.9267
53.664
65.2717
80.2994
98.2632
123.087
151.39
197.742
239.345
320.816
330.267
8.21605
8.60044
9.40891
9.74763
12.0865
15.0483
17.5825
19.902
23.9793
29.7004
36.1951
43.9248
53.6378
65.2125
80.1881
98.0866
122.809
150.889
196.743
237.115
317.411
320.971
8.21592
8.59972
9.40781
9.75006
12.0848
15.0453
17.5791
19.9018
23.9768
29.6921
36.2001
43.9173
53.6062
65.1485
80.0785
97.9154
122.531
150.375
195.712
234.846
313.876
311.105
8.21578
8.59897
9.40671
9.75253
12.083
15.0423
17.5756
19.9016
23.9741
29.6841
36.2029
43.9044
53.5682
65.0835
79.9719
97.7474
122.252
149.846
194.648
232.537
310.203
300.638
8.21564
8.5982
9.40557
9.75505
12.0812
15.0391
17.572
19.9013
23.9713
29.6765
36.2028
43.8868
53.5273
65.0166
79.867
97.5814
121.968
149.303
193.55
230.189
306.385
289.536
8.21549
8.59741
9.40443
9.75761
12.0794
15.0358
17.5683
19.901
23.9683
29.6694
36.1998
43.8651
53.4824
64.9506
79.7643
97.4156
121.68
148.748
192.418
227.8
302.41
277.765
8.21533
8.5966
9.40325
9.76022
12.0775
15.0324
17.5645
19.9006
23.9652
29.6628
36.1938
43.8398
53.4365
64.8837
79.6618
97.2494
121.386
148.181
191.253
225.371
298.267
265.286
8.21516
8.59578
9.40208
9.76285
12.0756
15.0289
17.5607
19.9001
23.9619
29.6566
36.185
43.8118
53.3882
64.818
79.5602
97.0817
121.088
147.601
190.055
222.902
293.946
252.06
8.21499
8.59493
9.40087
9.76554
12.0737
15.0253
17.5567
19.8996
23.9584
29.6512
36.1739
43.7815
53.3398
64.7513
79.4577
96.9123
120.785
147.011
188.822
220.395
289.435
238.045
8.2148
8.59406
9.39967
9.76825
12.0717
15.0217
17.5527
19.899
23.955
29.6468
36.161
43.7494
53.2897
64.6857
79.3551
96.7407
120.477
146.41
187.557
217.854
284.725
223.197
8.21461
8.59317
9.39843
9.77101
12.0697
15.0179
17.5486
19.8983
23.9521
29.644
36.1466
43.7161
53.2401
64.6189
79.2509
96.5668
120.165
145.798
186.26
215.283
279.81
207.469
8.21441
8.59226
9.39719
9.77379
12.0677
15.014
17.5445
19.8975
23.9506
29.6427
36.1312
43.6819
53.1891
64.5529
79.1459
96.3903
119.848
145.177
184.933
212.686
274.688
190.811
8.2142
8.59134
9.39593
9.77662
12.0656
15.0101
17.5403
19.8966
23.9517
29.6429
36.115
43.6472
53.1386
64.4854
79.0387
96.2115
119.528
144.545
183.578
210.067
269.357
173.172
8.21398
8.59039
9.39467
9.77947
12.0635
15.006
17.536
19.8956
23.9568
29.6444
36.0982
43.6122
53.0864
64.4186
78.9306
96.0302
119.205
143.905
182.197
207.429
263.82
154.507
8.21375
8.58942
9.39337
9.78239
12.0614
15.0017
17.5316
19.8949
23.9668
29.6469
36.0808
43.577
53.0343
64.3502
78.8202
95.8471
118.88
143.255
180.795
204.77
258.054
134.732
8.21351
8.58845
9.39204
9.78525
12.0595
14.9974
17.5271
19.8954
23.9811
29.6502
36.063
43.5417
52.9803
64.2836
78.7098
95.6622
118.552
142.592
179.374
202.083
251.978
113.147
-23.2116
-40.514
-74.3434
-62.5877
-37.3661
-28.7026
-20.58
-8.88692
6.01508
18.3844
27.6316
34.3634
36.6774
35.3846
32.5851
28.9299
26.3777
22.7777
17.8787
13.7496
9.96335
6.23969
1.12364
-1.29466
3.19885
9.08843
8.90045
7.61359
5.44156
4.39451
3.27036
2.68866
1.94564
1.05061
0.712797
-23.2249
-40.566
-74.5002
-62.6263
-37.3555
-28.6822
-20.5696
-8.87944
6.02097
18.3934
27.6506
34.3767
36.6858
35.3911
32.5846
28.9259
26.3764
22.7797
17.8823
13.7517
9.96443
6.24191
1.12781
-1.29788
3.18084
9.07528
8.89825
7.61375
5.44168
4.39454
3.27032
2.68862
1.94563
1.05061
0.712777
-23.2521
-40.6675
-74.7639
-62.6946
-37.3399
-28.6588
-20.5599
-8.87265
6.02889
18.4045
27.6729
34.3907
36.6932
35.3965
32.5866
28.9388
26.4106
22.807
17.8997
13.7596
9.96739
6.24501
1.1311
-1.30626
3.16082
9.0624
8.89626
7.614
5.44183
4.3946
3.27029
2.68859
1.94562
1.05061
0.712759
-23.3101
-40.8485
-75.1063
-62.7894
-37.3256
-28.6362
-20.5526
-8.86763
6.03649
18.4173
27.6997
34.4094
36.7048
35.4044
32.5919
28.9599
26.4716
22.8558
17.931
13.7742
9.97289
6.24888
1.13448
-1.31737
3.14287
9.05105
8.89459
7.61439
5.44203
4.39471
3.27029
2.68858
1.94563
1.05063
0.71275
-23.4006
-41.1133
-75.5006
-62.909
-37.3144
-28.6158
-20.5491
-8.86654
6.04103
18.4287
27.7258
34.4305
36.7207
35.4152
32.6002
28.9775
26.5325
22.9081
17.9665
13.7924
9.98063
6.25383
1.13841
-1.32996
3.12691
9.04165
8.89332
7.61491
5.44227
4.39485
3.27031
2.68859
1.94565
1.05066
0.712748
-23.5219
-41.4589
-75.927
-63.0487
-37.3059
-28.5986
-20.5506
-8.87138
6.03996
18.4344
27.7441
34.4483
36.7366
35.4274
32.6121
28.992
26.5793
22.9524
17.9994
13.8115
9.99019
6.26002
1.14329
-1.3426
3.11262
9.03407
8.89244
7.61552
5.44253
4.39502
3.27035
2.68861
1.94568
1.05069
0.71275
-23.6722
-41.8788
-76.3739
-63.2027
-37.2993
-28.5845
-20.5573
-8.88247
6.03275
18.4329
27.7509
34.4572
36.7467
35.4366
32.625
29.0067
26.611
22.9851
18.0268
13.8299
10.0013
6.26763
1.14958
-1.35416
3.09988
9.02801
8.8919
7.61621
5.44279
4.3952
3.27039
2.68864
1.94571
1.05073
0.712755
-23.8491
-42.3631
-76.8335
-63.3656
-37.294
-28.5734
-20.5682
-8.89879
6.02054
18.4249
27.7465
34.4552
36.7474
35.4383
32.6332
29.0201
26.6303
23.0068
18.0484
13.847
10.0137
6.27675
1.15769
-1.36376
3.08864
9.02322
8.89164
7.61694
5.44305
4.39538
3.27043
2.68867
1.94573
1.05077
0.712763
-24.0499
-42.8985
-77.299
-63.5327
-37.2896
-28.5648
-20.5824
-8.91903
6.00461
18.4121
27.7339
34.4442
36.7388
35.4308
32.6329
29.027
26.639
23.0188
18.0648
13.8628
10.0271
6.28745
1.16812
-1.37076
3.07882
9.01939
8.89158
7.61771
5.44327
4.39554
3.27046
2.68869
1.94576
1.0508
0.71277
-24.2715
-43.4697
-77.7629
-63.7004
-37.2868
-28.5589
-20.5991
-8.94189
5.98623
18.3965
27.7162
34.4272
36.7232
35.4154
32.6239
29.0245
26.6367
23.022
18.0764
13.8769
10.041
6.29965
1.18128
-1.37454
3.07032
9.01627
8.89167
7.61847
5.44345
4.39566
3.27047
2.6887
1.94577
1.05083
0.712777
-24.5102
-44.0604
-78.2168
-63.8652
-37.2862
-28.5562
-20.6176
-8.96648
5.96602
18.3787
27.6952
34.4063
36.7029
35.3943
32.6084
29.0131
26.6241
23.0169
18.0831
13.8889
10.0548
6.31307
1.19755
-1.37454
3.06304
9.01362
8.89184
7.61922
5.44357
4.39574
3.27045
2.6887
1.94577
1.05084
0.712781
-24.7618
-44.6542
-78.6513
-64.0244
-37.2884
-28.5576
-20.6379
-8.99234
5.94458
18.3592
27.6719
34.3821
36.6791
35.3691
32.5885
28.9955
26.6028
23.0041
18.0849
13.8982
10.0676
6.32723
1.21709
-1.37005
3.05699
9.01124
8.89206
7.61992
5.44362
4.39576
3.27039
2.68866
1.94575
1.05084
0.712781
-25.022
-45.2353
-79.0572
-64.1748
-37.2939
-28.5643
-20.6603
-9.01954
5.92199
18.3378
27.6461
34.3548
36.6519
35.3403
32.5655
28.9737
26.5752
22.9851
18.082
13.9046
10.0787
6.34142
1.23984
-1.36044
3.0522
9.00898
8.89229
7.62056
5.44357
4.39571
3.27028
2.68859
1.94571
1.05082
0.712776
-25.2862
-45.7891
-79.4261
-64.3143
-37.3033
-28.5768
-20.6854
-9.048
5.89828
18.3144
27.6176
34.3239
36.6209
35.3078
32.5395
28.9492
26.5436
22.9614
18.0751
13.9077
10.0873
6.35483
1.26528
-1.34499
3.04888
9.00678
8.8925
7.62114
5.44344
4.39558
3.27012
2.68849
1.94565
1.05077
0.712766
-25.5497
-46.3032
-79.7508
-64.4407
-37.3174
-28.5953
-20.7144
-9.07766
5.87304
18.2886
27.586
34.2889
36.5858
35.2715
32.5102
28.9222
26.5092
22.9345
18.0653
13.908
10.0933
6.36676
1.2926
-1.32326
3.04727
9.0046
8.89268
7.62166
5.44321
4.39536
3.2699
2.68834
1.94556
1.0507
0.712749
-25.8079
-46.7676
-80.0261
-64.553
-37.337
-28.6203
-20.748
-9.10846
5.84614
18.26
27.551
34.2496
36.5462
35.2313
32.4777
28.8929
26.4728
22.9055
18.0533
13.9062
10.0969
6.37674
1.32067
-1.29499
3.04777
9.00246
8.89284
7.62209
5.44287
4.39505
3.26962
2.68815
1.94544
1.05061
0.712725
-26.0564
-47.1754
-80.2484
-64.6497
-37.3615
-28.6535
-20.7866
-9.1409
5.817
18.2281
27.5119
34.2052
36.5016
35.1871
32.4417
28.8611
26.4346
22.8751
18.0402
13.9029
10.0985
6.38475
1.34841
-1.26055
3.0508
9.00042
8.89297
7.62245
5.44243
4.39463
3.26927
2.68791
1.94528
1.05048
0.712693
-26.2907
-47.5219
-80.4152
-64.7296
-37.3889
-28.6981
-20.8312
-9.1756
5.7853
18.1927
27.4686
34.1554
36.4516
35.1388
32.4025
28.8271
26.3948
22.8435
18.0262
13.8987
10.0987
6.39104
1.375
-1.22075
3.05687
8.99859
8.89311
7.62273
5.44189
4.39412
3.26885
2.68761
1.9451
1.05031
0.712655
-26.507
-47.8048
-80.5246
-64.789
-37.4194
-28.7566
-20.8832
-9.21389
5.75009
18.1528
27.42
34.0993
36.3956
35.0861
32.36
28.7908
26.3535
22.8111
18.0118
13.8939
10.0979
6.39601
1.4002
-1.17705
3.06641
8.99709
8.89327
7.62294
5.44124
4.39351
3.26836
2.68726
1.94488
1.05012
0.71261
-26.7017
-48.0226
-80.5754
-64.8219
-37.4556
-28.8301
-20.9445
-9.25731
5.71057
18.108
27.3653
34.0363
36.333
35.0287
32.3142
28.7524
26.3108
22.7778
17.997
13.8888
10.0965
6.39994
1.42417
-1.13115
3.07983
8.99607
8.89347
7.62307
5.44048
4.39279
3.2678
2.68685
1.94462
1.04988
0.712558
-26.8722
-48.1735
-80.5694
-64.8192
-37.4983
-28.9195
-21.0176
-9.30821
5.66506
18.0568
27.303
33.9648
36.2626
34.9661
32.2652
28.7119
26.2668
22.7438
17.982
13.8835
10.0947
6.40305
1.44739
-1.08482
3.09732
8.99567
8.89374
7.62314
5.43962
4.39196
3.26716
2.68638
1.94433
1.04961
0.7125
-27.0176
-48.2543
-80.5117
-64.7709
-37.5457
-29.0255
-21.1055
-9.36908
5.61218
17.9982
27.2314
33.8832
36.1833
34.8977
32.2126
28.6695
26.2216
22.7091
17.9667
13.8781
10.0926
6.4054
1.47032
-1.03937
3.11893
8.99609
8.89411
7.62313
5.43866
4.39103
3.26645
2.68585
1.944
1.04931
0.712437
-27.1401
-48.2655
-80.4015
-64.67
-37.5948
-29.1492
-21.2119
-9.44327
5.54959
17.9302
27.1481
33.7892
36.0931
34.8224
32.1561
28.625
26.1754
22.6737
17.9511
13.8727
10.0905
6.40712
1.49331
-0.995694
3.1444
8.99748
8.89462
7.62305
5.43759
4.39
3.26566
2.68526
1.94363
1.04896
0.712368
-27.2418
-48.2129
-80.2341
-64.5155
-37.6427
-29.2925
-21.341
-9.53403
5.47568
17.8519
27.0516
33.6807
35.9904
34.7388
32.0953
28.5783
26.128
22.6377
17.9351
13.8671
10.0883
6.40833
1.51646
-0.953967
3.17322
9.00003
8.89528
7.62289
5.43642
4.38886
3.2648
2.6846
1.94323
1.04857
0.712297
-27.3237
-48.101
-80.0113
-64.3085
-37.686
-29.4579
-21.4983
-9.6454
5.38799
17.7615
26.9398
33.5552
35.8733
34.6454
32.0294
28.5292
26.0795
22.6011
17.9188
13.8613
10.0862
6.40923
1.53973
-0.914011
3.20459
9.00388
8.89613
7.62267
5.43514
4.38761
3.26386
2.68388
1.94279
1.04814
0.712222
-27.3864
-47.9349
-79.7383
-64.0508
-37.7217
-29.6487
-21.6891
-9.78046
5.28577
17.6591
26.8131
33.4123
35.7412
34.5411
31.9577
28.4777
26.03
22.5638
17.9021
13.8554
10.0841
6.40993
1.56293
-0.875301
3.23756
9.00924
8.89719
7.62235
5.43375
4.38626
3.26285
2.6831
1.94232
1.04766
0.712147
-27.4307
-47.723
-79.4151
-63.7422
-37.7464
-29.8685
-21.9191
-9.94192
5.16833
17.5449
26.6719
33.252
35.5942
34.4254
31.8797
28.4236
25.9796
22.5261
17.8849
13.8492
10.0819
6.41062
1.58595
-0.837342
3.27099
9.01618
8.8985
7.62196
5.43224
4.3848
3.26177
2.68224
1.94181
1.04714
0.71207
-27.4577
-47.477
-79.0341
-63.3799
-37.7571
-30.1206
-22.1911
-10.129
5.03861
17.4224
26.5206
33.0775
35.4347
34.2991
31.7952
28.3669
25.9285
22.4879
17.8672
13.8426
10.0797
6.41133
1.60861
-0.799643
3.30376
9.0249
8.90008
7.62146
5.43062
4.38323
3.2606
2.68132
1.94126
1.04658
0.711995
-27.4691
-47.211
-78.5815
-62.9571
-37.7516
-30.4066
-22.5052
-10.3379
4.90083
17.2954
26.3635
32.8929
35.2661
34.1647
31.7049
28.308
25.8768
22.4494
17.8491
13.8357
10.0775
6.41217
1.6309
-0.761963
3.33476
9.03543
8.90198
7.62087
5.42887
4.38157
3.25937
2.68033
1.94067
1.04597
0.711922
-27.4666
-46.9405
-78.0437
-62.4662
-37.7301
-30.7262
-22.855
-10.559
4.76388
17.1714
26.2087
32.7055
35.0936
34.0257
31.6104
28.2476
25.8251
22.4107
17.8306
13.8283
10.0751
6.41308
1.65276
-0.724164
3.36313
9.04789
8.90421
7.62017
5.42699
4.37979
3.25806
2.67927
1.94005
1.04531
0.711853
-27.4524
-46.6834
-77.4131
-61.8999
-37.6949
-31.0753
-23.2287
-10.7794
4.63647
17.0565
26.0624
32.5217
34.9219
33.8862
31.5142
28.187
25.7739
22.3723
17.8118
13.8206
10.0725
6.41412
1.67431
-0.68637
3.38813
9.06225
8.90684
7.61935
5.42499
4.37791
3.25668
2.67815
1.9394
1.04461
0.711788
-27.4296
-46.4602
-76.6939
-61.2577
-37.653
-31.4457
-23.6078
-10.9821
4.529
16.9576
25.932
32.3491
34.7564
33.7499
31.4188
28.1273
25.7239
22.3343
17.7928
13.8124
10.0697
6.41522
1.69555
-0.648776
3.4094
9.07859
8.90989
7.6184
5.42284
4.37593
3.25524
2.67695
1.93871
1.04385
0.71173
-27.403
-46.2922
-75.9006
-60.5477
-37.6136
-31.8254
-23.9709
-11.152
4.44641
16.8763
25.8195
32.1915
34.6
33.6196
31.3264
28.07
25.676
22.2972
17.7739
13.8039
10.0668
6.41641
1.71663
-0.611801
3.42676
9.09685
8.91344
7.61731
5.42055
4.37384
3.25372
2.67569
1.93798
1.04305
0.711679
-27.3796
-46.1987
-75.0543
-59.7911
-37.5889
-32.1995
-24.2955
-11.2773
4.3902
16.812
25.7253
32.0518
34.4553
33.4967
31.2382
28.0158
25.6304
22.2611
17.7552
13.7951
10.0636
6.41762
1.73752
-0.575881
3.44036
9.1171
8.91754
7.61607
5.4181
4.37165
3.25213
2.67435
1.93722
1.04219
0.711637
-27.3677
-46.1953
-74.1734
-59.0178
-37.5898
-32.5531
-24.5645
-11.3558
4.35328
16.7572
25.6432
31.927
34.3211
33.3814
31.1547
27.9648
25.5874
22.2264
17.7371
13.7862
10.0602
6.41892
1.75828
-0.541669
3.45045
9.13928
8.92227
7.61469
5.41549
4.36936
3.25047
2.67295
1.93642
1.04127
0.711604
-27.3734
-46.2952
-73.2717
-58.2629
-37.6249
-32.8742
-24.7668
-11.3927
4.32639
16.7046
25.5665
31.8128
34.196
33.2723
31.0752
27.9165
25.5465
22.1929
17.7195
13.7773
10.0566
6.42024
1.77881
-0.509809
3.45751
9.16354
8.92769
7.61314
5.41272
4.36696
3.24874
2.67147
1.93558
1.04029
0.711584
-27.3991
-46.5098
-72.355
-57.5564
-37.6974
-33.1548
-24.9012
-11.4016
4.2976
16.6449
25.4856
31.7016
34.0754
33.1674
30.9987
27.8702
25.5071
22.1604
17.7026
13.7688
10.0531
6.42167
1.7991
-0.481187
3.46195
9.18991
8.93391
7.61144
5.40977
4.36447
3.24693
2.66991
1.93469
1.03924
0.711574
-27.4423
-46.8448
-71.4246
-56.9216
-37.8071
-33.3894
-24.9736
-11.3969
4.26017
16.5736
25.3951
31.5876
33.9565
33.0644
30.9237
27.8248
25.4682
22.1283
17.6861
13.7606
10.0496
6.42318
1.81891
-0.456697
3.46433
9.21866
8.94102
7.60955
5.40664
4.36186
3.24505
2.66827
1.93377
1.03812
0.711579
-27.497
-47.2875
-70.476
-56.3715
-37.9502
-33.5733
-24.9978
-11.3918
4.20993
16.4876
25.2905
31.4654
33.8351
32.9612
30.8492
27.7793
25.4292
22.0963
17.6699
13.7529
10.0463
6.42493
1.8381
-0.437529
3.46516
9.25001
8.94912
7.60748
5.4033
4.35914
3.24308
2.66653
1.93279
1.03692
0.711595
-27.5548
-47.7903
-69.5043
-55.9144
-38.1214
-33.7005
-24.9918
-11.392
4.14842
16.389
25.1735
31.3342
33.7101
32.8563
30.7739
27.7328
25.3889
22.0638
17.6538
13.7456
10.0433
6.4268
1.85626
-0.424696
3.46523
9.28433
8.95829
7.6052
5.39975
4.35629
3.24102
2.6647
1.93176
1.03563
0.71163
-27.6039
-48.2576
-68.5054
-55.5529
-38.3093
-33.7686
-24.9746
-11.3981
4.07832
16.2815
25.047
31.1944
33.5798
32.7488
30.6969
27.6843
25.3468
22.0304
17.6374
13.7387
10.0406
6.42888
1.87339
-0.419159
3.46487
9.32131
8.96849
7.6027
5.39598
4.35331
3.23885
2.66275
1.93067
1.03423
0.711678
-27.6248
-48.5509
-67.4811
-55.2801
-38.4887
-33.7829
-24.9565
-11.4058
4.00595
16.1723
24.9166
31.0481
33.4441
32.6375
30.6169
27.6324
25.3018
21.9957
17.6206
13.7317
10.0381
6.4313
1.88997
-0.421528
3.4626
9.35945
8.9794
7.59995
5.39197
4.35018
3.23656
2.66067
1.92951
1.03273
0.711741
-27.5978
-48.518
-66.4278
-55.0636
-38.6177
-33.761
-24.9406
-11.4141
3.9342
16.0634
24.7815
30.8938
33.3002
32.5215
30.5331
27.5766
25.2547
21.9607
17.6038
13.725
10.0361
6.43525
1.90735
-0.434268
3.45491
9.39766
8.99119
7.59699
5.38773
4.3469
3.23412
2.65843
1.92826
1.03111
0.711809
-27.5898
-48.0584
-65.3047
-54.8583
-38.6768
-33.734
-24.9339
-11.4286
3.86187
15.9534
24.6402
30.7316
33.15
32.4028
30.4476
27.5201
25.2089
21.9277
17.5882
13.719
10.0351
6.4411
1.92126
-0.467808
3.44906
9.4514
9.00855
7.59378
5.38295
4.34337
3.23157
2.65608
1.92696
1.02934
0.711938
8.21332
8.58769
9.39111
9.78719
12.058
14.9942
17.5237
19.899
23.995
29.6551
36.0502
43.5135
52.9384
64.2327
78.6236
95.5149
118.29
142.057
178.255
199.944
246.955
91.5313
8.21317
8.58713
9.39049
9.78852
12.057
14.9919
17.5212
19.9049
24.0055
29.6605
36.042
43.4925
52.9062
64.1997
78.5629
95.4049
118.092
141.654
177.433
198.377
243.109
88.7339
8.21302
8.58654
9.38976
9.78999
12.0559
14.9894
17.5185
19.9123
24.0146
29.6651
36.0334
43.471
52.8753
64.1649
78.5
95.2905
117.884
141.232
176.59
196.759
239.112
90.5527
8.21286
8.58591
9.389
9.79162
12.0548
14.9867
17.5156
19.9202
24.0219
29.6684
36.0246
43.4494
52.8422
64.1299
78.4354
95.1701
117.664
140.791
175.727
195.086
235.008
90.5999
8.21269
8.58523
9.3882
9.79342
12.0536
14.9838
17.5127
19.9275
24.0279
29.6704
36.0155
43.4277
52.81
64.091
78.3663
95.0429
117.431
140.329
174.837
193.356
230.787
88.9583
8.2125
8.58451
9.38737
9.79535
12.0522
14.9806
17.5098
19.9328
24.0328
29.6714
36.0064
43.406
52.7761
64.0515
78.2943
94.9076
117.182
139.844
173.916
191.57
226.444
87.0457
8.2123
8.58374
9.38648
9.79744
12.0507
14.9773
17.5069
19.9347
24.0366
29.6717
35.9972
43.3843
52.7431
64.0083
78.2172
94.7638
116.915
139.334
172.957
189.729
221.986
85.2669
8.21209
8.58292
9.38556
9.79967
12.0492
14.9737
17.5039
19.9338
24.0393
29.6713
35.9882
43.3626
52.7084
63.9642
78.1365
94.6105
116.629
138.799
171.954
187.835
217.42
83.4679
8.21187
8.58205
9.38458
9.80208
12.0475
14.97
17.5007
19.9303
24.0411
29.6704
35.9793
43.3407
52.6743
63.9162
78.0501
94.4475
116.321
138.237
170.903
185.886
212.749
81.5523
8.21163
8.58114
9.38357
9.80464
12.0457
14.9659
17.4974
19.9254
24.0419
29.669
35.9705
43.3188
52.6383
63.867
77.9595
94.2741
115.992
137.645
169.797
183.884
207.98
79.5433
8.21137
8.58016
9.38248
9.80739
12.0438
14.9617
17.4939
19.9189
24.0415
29.6671
35.9618
43.2967
52.6026
63.8135
77.8625
94.09
115.639
137.024
168.632
181.826
203.118
77.4748
8.2111
8.57913
9.38136
9.81029
12.0418
14.9571
17.4904
19.9116
24.0398
29.6646
35.9532
43.2744
52.5648
63.7585
77.7606
93.8947
115.263
136.37
167.404
179.711
198.167
75.357
8.2108
8.57804
9.38015
9.8134
12.0396
14.9523
17.4866
19.9033
24.0364
29.6614
35.9445
43.2519
52.5271
63.699
77.6516
93.6881
114.863
135.682
166.107
177.538
193.136
73.1943
8.21049
8.5769
9.37891
9.81667
12.0373
14.9472
17.4826
19.8949
24.031
29.6573
35.9356
43.2291
52.4871
63.6375
77.537
93.4695
114.44
134.96
164.74
175.306
188.027
70.9968
8.21015
8.57568
9.37758
9.82014
12.0349
14.9417
17.4783
19.8862
24.0231
29.652
35.9262
43.2059
52.4469
63.5711
77.4147
93.2388
113.993
134.202
163.299
173.012
182.847
68.7788
8.2098
8.57441
9.37621
9.82379
12.0323
14.936
17.4736
19.8782
24.0124
29.6451
35.9161
43.1824
52.4042
63.5022
77.2859
92.9951
113.521
133.407
161.783
170.657
177.601
66.5548
8.20941
8.57306
9.37474
9.82765
12.0295
14.9299
17.4685
19.8708
23.9986
29.636
35.905
43.1583
52.361
63.4281
77.1488
92.7383
113.025
132.574
160.191
168.237
172.292
64.3392
8.209
8.57165
9.37322
9.83167
12.0266
14.9235
17.4631
19.8642
23.9816
29.624
35.8922
43.1335
52.3152
63.3511
77.0044
92.4676
112.504
131.702
158.523
165.752
166.925
62.1468
8.20856
8.57016
9.37159
9.83592
12.0236
14.9167
17.4573
19.8584
23.9616
29.6084
35.877
43.1077
52.2688
63.2684
76.8508
92.1825
111.958
130.791
156.777
163.2
161.503
59.9913
8.20809
8.5686
9.36991
9.84035
12.0203
14.9095
17.4512
19.8534
23.9391
29.5885
35.8586
43.0805
52.2194
63.1822
76.6892
91.8822
111.384
129.838
154.954
160.579
156.029
57.8838
8.20759
8.56696
9.36811
9.845
12.0169
14.9019
17.4447
19.8491
23.9151
29.5636
35.8356
43.0513
52.1691
63.09
76.5174
91.5661
110.784
128.843
153.054
157.89
150.509
55.8317
8.20705
8.56525
9.36626
9.84981
12.0133
14.8939
17.4379
19.8452
23.8906
29.5334
35.8066
43.0189
52.1155
62.9939
76.3366
91.2333
110.154
127.804
151.077
155.129
144.947
53.8368
8.20648
8.56344
9.36427
9.85486
12.0096
14.8854
17.4307
19.8416
23.8666
29.498
35.7701
42.9819
52.0601
62.8913
76.1448
90.8833
109.494
126.72
149.022
152.296
139.348
51.896
8.20586
8.56156
9.36221
9.86007
12.0056
14.8766
17.4231
19.8379
23.8439
29.4583
35.7247
42.9381
51.9997
62.7843
75.9429
90.5149
108.802
125.589
146.889
149.388
133.719
49.9997
8.2052
8.55957
9.36002
9.86551
12.0015
14.8672
17.415
19.834
23.8226
29.4154
35.6697
42.8846
51.9351
62.67
75.729
90.1277
108.077
124.409
144.678
146.404
128.068
48.1329
8.2045
8.55751
9.35774
9.87111
11.9971
14.8574
17.4065
19.8298
23.8024
29.3709
35.6055
42.8181
51.8611
62.5501
75.5041
89.7205
107.317
123.177
142.387
143.343
122.405
46.2754
8.20374
8.55534
9.35531
9.87693
11.9926
14.847
17.3975
19.8252
23.7827
29.326
35.5335
42.7355
51.7757
62.4208
75.2658
89.2926
106.52
121.892
140.017
140.2
116.74
44.4029
8.20293
8.55307
9.3528
9.8829
11.9878
14.8362
17.388
19.8201
23.7632
29.2812
35.4562
42.6352
51.6709
62.2817
75.0147
88.8431
105.686
120.55
137.564
136.976
111.084
42.4881
8.20206
8.5507
9.35011
9.88909
11.9828
14.8248
17.3779
19.8146
23.7436
29.2367
35.3766
42.518
51.5417
62.1259
74.7475
88.3711
104.811
119.15
135.03
133.666
105.452
40.503
8.20113
8.54822
9.34733
9.89541
11.9776
14.8128
17.3673
19.8085
23.7234
29.1922
35.2971
42.3874
51.3805
61.9486
74.4626
87.8751
103.896
117.688
132.411
130.269
99.8562
38.4196
8.20014
8.54563
9.34437
9.90193
11.9721
14.8002
17.356
19.8018
23.7026
29.1471
35.2193
42.2489
51.1864
61.7378
74.1532
87.3532
102.939
116.163
129.708
126.784
94.311
36.2121
8.19907
8.54293
9.34129
9.90857
11.9664
14.787
17.3441
19.7945
23.6807
29.1008
35.1435
42.1082
50.9618
61.4853
73.8119
86.802
101.938
114.572
126.918
123.208
88.83
33.8586
8.19793
8.5401
9.33801
9.91539
11.9605
14.7731
17.3314
19.7864
23.6576
29.0527
35.0689
41.9698
50.7164
61.1825
73.4255
86.2161
100.891
112.913
124.042
119.541
83.4268
31.3419
8.19671
8.53715
9.33461
9.9223
11.9542
14.7586
17.318
19.7777
23.633
29.0025
34.9939
41.8357
50.4609
60.8313
72.9815
85.5869
99.7943
111.184
121.078
115.782
78.1139
28.6514
8.1954
8.53406
9.33098
9.92937
11.9478
14.7433
17.3038
19.768
23.607
28.9499
34.9168
41.7054
50.2057
60.4401
72.4686
84.9029
98.6442
109.383
118.027
111.932
72.9025
25.7836
8.194
8.53084
9.32722
9.9365
11.941
14.7273
17.2889
19.7575
23.5793
28.8946
34.8365
41.5769
49.9562
60.0255
71.8865
84.151
97.4334
107.509
114.89
107.993
67.8023
22.7426
8.1925
8.52748
9.32322
9.94375
11.9339
14.7106
17.2729
19.746
23.5499
28.8363
34.7519
41.4469
49.7137
59.6026
71.245
83.3209
96.1535
105.559
111.669
103.967
62.8214
19.541
8.19089
8.52397
9.31906
9.95102
11.9265
14.693
17.2561
19.7334
23.5186
28.7746
34.6625
41.3125
49.4748
59.1825
70.5648
82.4099
94.7959
103.532
108.368
99.8582
57.9666
16.1984
8.18917
8.5203
9.31463
9.95838
11.9188
14.6746
17.2382
19.7196
23.4854
28.7096
34.568
41.1715
49.2344
58.7677
69.8671
81.4265
93.3547
101.43
104.995
95.6731
53.2443
12.7414
8.18732
8.51648
9.31003
9.96572
11.9108
14.6554
17.2192
19.7046
23.4502
28.6409
34.4679
41.0227
48.9874
58.3545
69.1672
80.3878
91.8301
99.2533
101.562
91.4212
48.6605
9.20182
8.18534
8.51247
9.30514
9.97308
11.9024
14.6352
17.199
19.6881
23.4127
28.5683
34.3618
40.8652
48.7299
57.9355
68.4692
79.3137
90.2295
97.0096
98.0861
87.1171
44.2231
5.61535
8.18322
8.5083
9.30005
9.98036
11.8936
14.614
17.1776
19.6702
23.3728
28.4915
34.2493
40.6984
48.4591
57.5029
67.7671
78.2186
88.5655
94.7071
94.5902
82.7813
39.942
2.02008
8.18095
8.50393
9.29464
9.98762
11.8846
14.5919
17.1549
19.6506
23.3304
28.4104
34.13
40.5215
48.1739
57.0508
67.0496
77.1066
86.8515
92.3548
91.1015
78.4419
35.8309
-1.54448
8.17851
8.49938
9.28902
9.99472
11.875
14.5687
17.1308
19.6293
23.2853
28.3246
34.0034
40.3338
47.8729
56.5759
66.3057
75.972
85.0971
89.9564
87.6453
74.1331
31.9069
-5.03839
8.1759
8.4946
9.28304
10.0017
11.8651
14.5444
17.1052
19.606
23.2373
28.234
33.8693
40.1346
47.5553
56.0763
65.5275
74.8035
83.3055
87.5091
84.2374
69.893
28.1905
-8.42158
8.17311
8.48963
9.27682
10.0085
11.8547
14.5188
17.078
19.5807
23.1862
28.1381
33.727
39.9234
47.2198
55.5508
64.7109
73.5897
81.4725
85.0055
80.8751
65.7558
24.7023
-11.6548
8.17011
8.4844
9.27021
10.0151
11.844
14.4921
17.0491
19.5532
23.1318
28.0367
33.5762
39.6994
46.8656
54.9981
63.8547
72.3227
79.5885
82.4395
77.5368
61.7428
21.4595
-14.7002
8.1669
8.47895
9.26332
10.0213
11.8326
14.4641
17.0184
19.5233
23.0738
27.9294
33.4162
39.4619
46.4916
54.4171
62.9586
70.9994
77.6433
79.808
74.1901
57.8527
18.4686
-17.5237
8.16346
8.47323
9.25601
10.0273
11.8209
14.4348
16.9857
19.4907
23.0121
27.816
33.2467
39.2102
46.0969
53.8063
62.0217
69.62
75.6306
77.11
70.809
54.0605
15.7185
-20.0978
8.15977
8.46725
9.24838
10.0328
11.8085
14.404
16.9511
19.4555
22.9463
27.696
33.067
38.9434
45.6806
53.1647
61.043
68.1857
73.5505
74.3448
67.3829
50.3281
13.1758
-22.4055
8.15582
8.46097
9.24029
10.0379
11.7956
14.3717
16.9142
19.4172
22.8763
27.5691
32.8765
38.6609
45.2418
52.4911
60.0215
66.6974
71.4073
71.5147
63.9158
46.623
10.7882
-24.4441
8.15158
8.4544
9.23184
10.0425
11.782