/*--------------------------------*- C++ -*----------------------------------*\
| =========                 |                                                 |
| \\      /  F ield         | OpenFOAM: The Open Source CFD Toolbox           |
|  \\    /   O peration     | Version:  v1912                                 |
|   \\  /    A nd           | Website:  www.openfoam.com                      |
|    \\/     M anipulation  |                                                 |
\*---------------------------------------------------------------------------*/
FoamFile
{
    version     2.0;
    format      ascii;
    class       surfaceScalarField;
    location    "100";
    object      phi;
}
// * * * * * * * * * * * * * * * * * * * * * * * * * * * * * * * * * * * * * //

dimensions      [0 3 -1 0 0 0 0];
oriented        oriented;


internalField   nonuniform List<scalar> 
24588
(
6.81724e-05
8.57025e-09
6.81084e-05
3.80768e-08
6.80743e-05
1.01724e-07
6.79181e-05
1.1849e-07
6.77745e-05
1.30021e-07
6.75984e-05
1.48225e-07
6.73811e-05
2.48196e-07
6.70691e-05
3.42503e-07
6.67011e-05
3.41296e-07
6.62674e-05
4.24453e-07
6.56969e-05
5.78756e-07
6.49383e-05
7.4149e-07
6.41307e-05
8.7748e-07
6.29601e-05
1.10341e-06
6.15683e-05
1.40224e-06
5.9418e-05
2.15491e-06
5.6794e-05
2.62586e-06
5.25384e-05
4.2536e-06
4.63596e-05
6.17854e-06
3.5425e-05
1.0935e-05
2.13311e-05
1.40939e-05
2.1331e-05
6.81783e-05
8.56875e-09
6.8111e-05
7.0603e-08
6.80499e-05
2.57047e-07
6.79126e-05
2.03542e-07
6.77946e-05
2.29766e-07
6.76128e-05
2.95969e-07
6.73692e-05
5.32049e-07
6.70582e-05
6.90153e-07
6.67035e-05
6.63238e-07
6.62778e-05
8.39276e-07
6.57008e-05
1.1657e-06
6.49282e-05
1.49476e-06
6.41327e-05
1.74823e-06
6.29473e-05
2.22403e-06
6.15608e-05
2.79988e-06
5.94599e-05
4.2605e-06
5.67845e-05
5.30482e-06
5.24811e-05
8.55355e-06
4.63683e-05
1.2291e-05
3.52964e-05
2.20074e-05
2.12558e-05
2.81344e-05
4.25868e-05
6.81775e-05
9.63267e-09
6.81126e-05
1.01758e-07
6.8052e-05
4.05799e-07
6.79115e-05
2.97042e-07
6.77925e-05
3.31496e-07
6.76122e-05
4.41482e-07
6.73701e-05
8.11681e-07
6.70591e-05
1.03772e-06
6.67038e-05
9.8645e-07
6.62777e-05
1.25473e-06
6.57014e-05
1.75147e-06
6.49281e-05
2.24771e-06
6.4134e-05
2.62467e-06
6.29533e-05
3.32486e-06
6.15628e-05
4.20255e-06
5.94911e-05
6.33714e-06
5.67789e-05
8.02099e-06
5.24889e-05
1.28397e-05
4.63149e-05
1.84644e-05
3.52764e-05
3.30466e-05
2.12434e-05
4.21673e-05
6.383e-05
6.81781e-05
9.85051e-09
6.81097e-05
1.36653e-07
6.80474e-05
5.6381e-07
6.791e-05
3.82138e-07
6.77916e-05
4.31211e-07
6.76091e-05
5.91307e-07
6.73657e-05
1.09595e-06
6.70556e-05
1.38315e-06
6.6701e-05
1.30795e-06
6.62745e-05
1.67063e-06
6.56977e-05
2.33843e-06
6.49267e-05
2.99913e-06
6.41283e-05
3.49684e-06
6.29444e-05
4.44672e-06
6.15532e-05
5.60456e-06
5.95066e-05
8.38807e-06
5.68e-05
1.07315e-05
5.24955e-05
1.71403e-05
4.62783e-05
2.46812e-05
3.52721e-05
4.40534e-05
2.12485e-05
5.61909e-05
8.50785e-05
6.81769e-05
1.19353e-08
6.81115e-05
1.7015e-07
6.805e-05
7.1266e-07
6.79087e-05
4.78406e-07
6.77889e-05
5.33601e-07
6.76079e-05
7.38692e-07
6.73661e-05
1.37498e-06
6.70563e-05
1.72835e-06
6.6701e-05
1.63041e-06
6.62741e-05
2.08732e-06
6.56976e-05
2.92449e-06
6.49249e-05
3.75161e-06
6.41284e-05
4.37748e-06
6.29506e-05
5.54403e-06
6.15556e-05
7.01186e-06
5.95166e-05
1.0432e-05
5.68261e-05
1.34258e-05
5.24905e-05
2.14716e-05
4.62824e-05
3.08886e-05
3.52918e-05
5.50446e-05
2.12721e-05
7.02104e-05
0.000106351
6.81779e-05
1.25216e-08
6.81077e-05
2.08168e-07
6.80438e-05
8.74878e-07
6.79068e-05
5.6282e-07
6.77882e-05
6.32789e-07
6.76045e-05
8.90995e-07
6.73607e-05
1.66064e-06
6.70517e-05
2.07163e-06
6.66974e-05
1.95077e-06
6.62703e-05
2.50425e-06
6.56933e-05
3.51178e-06
6.49242e-05
4.50116e-06
6.41231e-05
5.24944e-06
6.29407e-05
6.66854e-06
6.15456e-05
8.41755e-06
5.95132e-05
1.24686e-05
5.68449e-05
1.60976e-05
5.24937e-05
2.58191e-05
4.63039e-05
3.70781e-05
3.53354e-05
6.60138e-05
2.1315e-05
8.42307e-05
0.000127666
6.81764e-05
1.53734e-08
6.811e-05
2.44386e-07
6.80467e-05
1.02632e-06
6.79044e-05
6.62281e-07
6.77842e-05
7.35067e-07
6.76026e-05
1.03972e-06
6.73608e-05
1.93993e-06
6.70519e-05
2.4149e-06
6.6697e-05
2.27214e-06
6.62694e-05
2.9219e-06
6.56927e-05
4.09806e-06
6.49213e-05
5.25298e-06
6.41234e-05
6.13126e-06
6.29485e-05
7.76063e-06
6.15485e-05
9.83047e-06
5.951e-05
1.45118e-05
5.68652e-05
1.87454e-05
5.25022e-05
3.01781e-05
4.6337e-05
4.32427e-05
3.54041e-05
7.69472e-05
2.13782e-05
9.82565e-05
0.000149044
6.81776e-05
1.63127e-08
6.81057e-05
2.85672e-07
6.80401e-05
1.19299e-06
6.79036e-05
7.45709e-07
6.77848e-05
8.33531e-07
6.76001e-05
1.19428e-06
6.73558e-05
2.22703e-06
6.70478e-05
2.75628e-06
6.66938e-05
2.59137e-06
6.6266e-05
3.33972e-06
6.56891e-05
4.68555e-06
6.49221e-05
6.00043e-06
6.41182e-05
7.00146e-06
6.29365e-05
8.88923e-06
6.15315e-05
1.12467e-05
5.9496e-05
1.65516e-05
5.68838e-05
2.136e-05
5.25212e-05
3.45378e-05
4.63805e-05
4.93832e-05
3.54996e-05
8.78285e-05
2.14631e-05
0.000112293
0.000170507
6.81759e-05
2.00327e-08
6.81086e-05
3.24478e-07
6.80442e-05
1.34557e-06
6.79016e-05
8.46785e-07
6.77809e-05
9.35877e-07
6.75989e-05
1.34436e-06
6.7357e-05
2.50611e-06
6.70491e-05
3.09776e-06
6.66945e-05
2.91166e-06
6.62662e-05
3.75832e-06
6.56892e-05
5.27228e-06
6.4918e-05
6.75275e-06
6.41168e-05
7.88866e-06
6.29426e-05
9.98152e-06
6.15206e-05
1.26794e-05
5.94932e-05
1.85823e-05
5.68692e-05
2.39854e-05
5.25506e-05
3.88537e-05
4.64295e-05
5.55039e-05
3.56222e-05
9.86361e-05
2.15712e-05
0.000126344
0.000192078
6.81773e-05
2.14578e-08
6.81037e-05
3.68998e-07
6.80369e-05
1.51559e-06
6.79012e-05
9.28688e-07
6.77822e-05
1.0337e-06
6.75967e-05
1.50104e-06
6.7352e-05
2.7941e-06
6.70449e-05
3.43735e-06
6.66912e-05
3.23003e-06
6.62631e-05
4.17676e-06
6.56865e-05
5.8595e-06
6.49222e-05
7.49776e-06
6.41097e-05
8.75979e-06
6.29252e-05
1.11195e-05
6.14906e-05
1.41239e-05
5.94789e-05
2.05969e-05
5.68037e-05
2.66618e-05
5.25699e-05
4.3086e-05
4.64806e-05
6.15931e-05
3.5771e-05
0.000109346
2.17037e-05
0.000140411
0.000213781
6.81753e-05
2.60935e-08
6.81073e-05
4.10393e-07
6.80417e-05
1.66916e-06
6.78986e-05
1.03192e-06
6.77775e-05
1.13602e-06
6.75952e-05
1.65214e-06
6.73535e-05
3.07265e-06
6.70465e-05
3.77721e-06
6.6692e-05
3.54973e-06
6.62634e-05
4.59594e-06
6.56862e-05
6.44617e-06
6.49146e-05
8.25168e-06
6.4095e-05
9.66228e-06
6.29192e-05
1.22256e-05
6.14523e-05
1.5596e-05
5.94334e-05
2.26169e-05
5.6707e-05
2.93887e-05
5.25781e-05
4.72135e-05
4.65372e-05
6.76337e-05
3.59433e-05
0.00011994
2.1861e-05
0.000154493
0.000235642
6.81769e-05
2.81586e-08
6.81019e-05
4.58103e-07
6.80341e-05
1.84146e-06
6.78994e-05
1.11223e-06
6.778e-05
1.23335e-06
6.75938e-05
1.81081e-06
6.73491e-05
3.36095e-06
6.70428e-05
4.11514e-06
6.66891e-05
3.8678e-06
6.62608e-05
5.01483e-06
6.56842e-05
7.03315e-06
6.49195e-05
8.99857e-06
6.40795e-05
1.05473e-05
6.29008e-05
1.33772e-05
6.13902e-05
1.71128e-05
5.93667e-05
2.4642e-05
5.6615e-05
3.21409e-05
5.25857e-05
5.12423e-05
4.66001e-05
7.36193e-05
3.61336e-05
0.000130407
2.2042e-05
0.000168585
0.000257684
6.81746e-05
3.39423e-08
6.81062e-05
5.01813e-07
6.80404e-05
1.99356e-06
6.78974e-05
1.21641e-06
6.77756e-05
1.33613e-06
6.75932e-05
1.96301e-06
6.73519e-05
3.63805e-06
6.70457e-05
4.45348e-06
6.66912e-05
4.18747e-06
6.62627e-05
5.43402e-06
6.5684e-05
7.62097e-06
6.49149e-05
9.75225e-06
6.40553e-05
1.14757e-05
6.28755e-05
1.45199e-05
6.13194e-05
1.86695e-05
5.93016e-05
2.66599e-05
5.65464e-05
3.48962e-05
5.25954e-05
5.51926e-05
4.66658e-05
7.95487e-05
3.6335e-05
0.000140738
2.22446e-05
0.000182675
0.000279929
6.81764e-05
3.6826e-08
6.81002e-05
5.52614e-07
6.8032e-05
2.16675e-06
6.78983e-05
1.29484e-06
6.77786e-05
1.43316e-06
6.75918e-05
2.12358e-06
6.73473e-05
3.92599e-06
6.70418e-05
4.78975e-06
6.66881e-05
4.50572e-06
6.62604e-05
5.8526e-06
6.56786e-05
8.21261e-06
6.49209e-05
1.0496e-05
6.40402e-05
1.2375e-05
6.28347e-05
1.57201e-05
6.1254e-05
2.02535e-05
5.92491e-05
2.86656e-05
5.64997e-05
3.76459e-05
5.26047e-05
5.90876e-05
4.673e-05
8.54234e-05
3.65416e-05
0.000150926
2.24663e-05
0.00019675
0.000302395
6.81738e-05
4.37954e-08
6.81052e-05
5.98642e-07
6.8039e-05
2.31745e-06
6.78958e-05
1.40085e-06
6.77734e-05
1.53633e-06
6.75909e-05
2.27664e-06
6.73503e-05
4.20136e-06
6.70447e-05
5.12665e-06
6.66901e-05
4.82577e-06
6.62621e-05
6.27151e-06
6.5676e-05
8.80731e-06
6.49162e-05
1.1245e-05
6.40141e-05
1.33135e-05
6.27908e-05
1.69247e-05
6.1201e-05
2.18425e-05
5.92086e-05
3.06578e-05
5.64669e-05
4.03875e-05
5.26117e-05
6.29424e-05
4.67898e-05
9.12451e-05
3.6749e-05
0.000160967
2.27042e-05
0.000210795
0.000325099
6.81758e-05
4.76229e-08
6.80986e-05
6.52484e-07
6.80302e-05
2.49069e-06
6.78976e-05
1.47751e-06
6.77775e-05
1.63321e-06
6.75902e-05
2.43902e-06
6.7346e-05
4.48851e-06
6.70411e-05
5.4615e-06
6.66873e-05
5.1445e-06
6.62584e-05
6.69155e-06
6.56671e-05
9.40786e-06
6.49127e-05
1.19908e-05
6.39858e-05
1.42393e-05
6.27495e-05
1.81637e-05
6.11595e-05
2.34347e-05
5.91769e-05
3.26409e-05
5.64419e-05
4.31227e-05
5.26158e-05
6.67685e-05
4.68442e-05
9.70168e-05
3.69547e-05
0.000170856
2.29558e-05
0.000224794
0.000348055
6.8173e-05
5.59787e-08
6.81044e-05
7.00556e-07
6.80388e-05
2.63776e-06
6.78957e-05
1.58428e-06
6.77725e-05
1.73727e-06
6.75901e-05
2.59302e-06
6.73503e-05
4.7614e-06
6.70452e-05
5.79722e-06
6.66903e-05
5.46535e-06
6.62607e-05
7.1124e-06
6.56589e-05
1.00174e-05
6.49081e-05
1.27367e-05
6.3955e-05
1.52133e-05
6.27149e-05
1.93928e-05
6.11269e-05
2.50217e-05
5.91512e-05
3.46163e-05
5.64209e-05
4.58529e-05
5.26175e-05
7.05716e-05
4.68935e-05
0.000102741
3.71578e-05
0.000180592
2.32191e-05
0.000238732
0.000371274
6.81752e-05
6.08761e-08
6.8097e-05
7.5735e-07
6.80289e-05
2.81005e-06
6.78976e-05
1.65894e-06
6.7777e-05
1.83414e-06
6.75894e-05
2.75707e-06
6.73457e-05
5.04724e-06
6.70415e-05
6.1306e-06
6.66874e-05
5.78491e-06
6.62578e-05
7.53351e-06
6.56445e-05
1.0639e-05
6.48998e-05
1.34781e-05
6.39272e-05
1.61794e-05
6.26859e-05
2.06388e-05
6.11005e-05
2.66087e-05
5.91293e-05
3.65879e-05
5.64018e-05
4.85804e-05
5.26171e-05
7.43564e-05
4.69387e-05
0.000108419
3.73581e-05
0.000190173
2.34926e-05
0.000252598
0.000394766
6.81721e-05
7.05739e-08
6.81037e-05
8.07469e-07
6.80382e-05
2.95406e-06
6.78951e-05
1.76731e-06
6.77711e-05
1.9389e-06
6.75889e-05
2.91177e-06
6.735e-05
5.3176e-06
6.70456e-05
6.46485e-06
6.669e-05
6.10727e-06
6.6261e-05
7.95399e-06
6.56356e-05
1.12705e-05
6.48869e-05
1.42255e-05
6.39025e-05
1.71772e-05
6.26618e-05
2.18713e-05
6.10785e-05
2.81909e-05
5.91098e-05
3.85562e-05
5.63835e-05
5.13067e-05
5.26156e-05
7.8124e-05
4.6981e-05
0.000114053
3.75564e-05
0.000199597
2.37756e-05
0.000266378
0.000418542
6.81745e-05
7.66024e-08
6.80956e-05
8.67192e-07
6.80277e-05
3.12502e-06
6.78977e-05
1.8401e-06
6.77765e-05
2.03584e-06
6.75887e-05
3.07741e-06
6.73455e-05
5.60201e-06
6.70421e-05
6.79664e-06
6.66871e-05
6.42846e-06
6.62558e-05
8.37697e-06
6.56279e-05
1.19042e-05
6.4872e-05
1.49802e-05
6.38815e-05
1.81601e-05
6.26411e-05
2.31166e-05
6.10594e-05
2.9774e-05
5.90918e-05
4.05242e-05
5.63653e-05
5.40333e-05
5.26135e-05
8.18759e-05
4.70218e-05
0.000119645
3.77539e-05
0.000208865
2.40677e-05
0.000280064
0.000442609
6.81712e-05
8.77782e-08
6.81031e-05
9.19178e-07
6.80384e-05
3.26437e-06
6.78957e-05
1.94907e-06
6.77708e-05
2.14172e-06
6.75888e-05
3.23287e-06
6.73509e-05
5.86949e-06
6.70471e-05
7.1295e-06
6.66909e-05
6.75213e-06
6.62514e-05
8.8082e-06
6.56267e-05
1.25314e-05
6.48569e-05
1.57497e-05
6.38633e-05
1.91643e-05
6.26232e-05
2.435e-05
6.10425e-05
3.13535e-05
5.90747e-05
4.24917e-05
5.63469e-05
5.6761e-05
5.26113e-05
8.56112e-05
4.70623e-05
0.000125194
3.79519e-05
0.000217976
2.43691e-05
0.000293647
0.000466978
6.81737e-05
9.50136e-08
6.80942e-05
9.81766e-07
6.80269e-05
3.43333e-06
6.78982e-05
2.01976e-06
6.77765e-05
2.23881e-06
6.75885e-05
3.39997e-06
6.73461e-05
6.15203e-06
6.70433e-05
7.45992e-06
6.66889e-05
7.07347e-06
6.62392e-05
9.24985e-06
6.56222e-05
1.31507e-05
6.48427e-05
1.65285e-05
6.38473e-05
2.01523e-05
6.26071e-05
2.5595e-05
6.1027e-05
3.29349e-05
5.90579e-05
4.44611e-05
5.6328e-05
5.94911e-05
5.26095e-05
8.93298e-05
4.71035e-05
0.0001307
3.81523e-05
0.000226927
2.46803e-05
0.000307119
0.000491658
6.81704e-05
1.07565e-07
6.81024e-05
1.03562e-06
6.80382e-05
3.56894e-06
6.78956e-05
2.13013e-06
6.77699e-05
2.34555e-06
6.75882e-05
3.55604e-06
6.73513e-05
6.41656e-06
6.70478e-05
7.7918e-06
6.66935e-05
7.39614e-06
6.62312e-05
9.70444e-06
6.56156e-05
1.37666e-05
6.48296e-05
1.73145e-05
6.38331e-05
2.11578e-05
6.25925e-05
2.68296e-05
6.10123e-05
3.45141e-05
5.90411e-05
4.6432e-05
5.63085e-05
6.22236e-05
5.26082e-05
9.30299e-05
4.71462e-05
0.000136162
3.83568e-05
0.000235716
2.50021e-05
0.000320474
0.00051666
6.8173e-05
1.16026e-07
6.80929e-05
1.10104e-06
6.80261e-05
3.73574e-06
6.78988e-05
2.19885e-06
6.77765e-05
2.44284e-06
6.75883e-05
3.72457e-06
6.73467e-05
6.69705e-06
6.70439e-05
8.1216e-06
6.66919e-05
7.71586e-06
6.62214e-05
1.01673e-05
6.56065e-05
1.43821e-05
6.48177e-05
1.81029e-05
6.38201e-05
2.21483e-05
6.25789e-05
2.80754e-05
6.0998e-05
3.60961e-05
5.9024e-05
4.84064e-05
5.62883e-05
6.49594e-05
5.26074e-05
9.67108e-05
4.71908e-05
0.000141578
3.85673e-05
0.00024434
2.53355e-05
0.000333705
0.000541996
6.81695e-05
1.30069e-07
6.8102e-05
1.15656e-06
6.80388e-05
3.86609e-06
6.78966e-05
2.30967e-06
6.77699e-05
2.5509e-06
6.75885e-05
3.88127e-06
6.73529e-05
6.95817e-06
6.70493e-05
8.4529e-06
6.66975e-05
8.03675e-06
6.62169e-05
1.0641e-05
6.5597e-05
1.50018e-05
6.48067e-05
1.88933e-05
6.38082e-05
2.31548e-05
6.25661e-05
2.9312e-05
6.09838e-05
3.76774e-05
5.90062e-05
5.03837e-05
5.62672e-05
6.76982e-05
5.2607e-05
0.000100371
4.72376e-05
0.000146947
3.87856e-05
0.000252792
2.56819e-05
0.000346809
0.000567677
6.81722e-05
1.39789e-07
6.80916e-05
1.22474e-06
6.80255e-05
4.03032e-06
6.78997e-05
2.37618e-06
6.77768e-05
2.64842e-06
6.75887e-05
4.05106e-06
6.73479e-05
7.23637e-06
6.70452e-05
8.78216e-06
6.66942e-05
8.35652e-06
6.62102e-05
1.11186e-05
6.55876e-05
1.56245e-05
6.47965e-05
1.9684e-05
6.3797e-05
2.41477e-05
6.25536e-05
3.05598e-05
6.09694e-05
3.92627e-05
5.89875e-05
5.2366e-05
5.62454e-05
7.04405e-05
5.26067e-05
0.00010401
4.72868e-05
0.000152267
3.90136e-05
0.000261065
2.60427e-05
0.000359779
0.00059372
6.81687e-05
1.55166e-07
6.81015e-05
1.28193e-06
6.80389e-05
4.1566e-06
6.78969e-05
2.48816e-06
6.77693e-05
2.75743e-06
6.75884e-05
4.20815e-06
6.73536e-05
7.49457e-06
6.70507e-05
9.1124e-06
6.66934e-05
8.68399e-06
6.62074e-05
1.16004e-05
6.55787e-05
1.62531e-05
6.4787e-05
2.04758e-05
6.37863e-05
2.51558e-05
6.25415e-05
3.17993e-05
6.09546e-05
4.08485e-05
5.89679e-05
5.43524e-05
5.62227e-05
7.31857e-05
5.26064e-05
0.000107626
4.73383e-05
0.000157535
3.92529e-05
0.000269151
2.64194e-05
0.000372613
0.000620139
6.81715e-05
1.66104e-07
6.80903e-05
1.35285e-06
6.80249e-05
4.31846e-06
6.79004e-05
2.55262e-06
6.7777e-05
2.85516e-06
6.75889e-05
4.37905e-06
6.73486e-05
7.77096e-06
6.70471e-05
9.44007e-06
6.66842e-05
9.01704e-06
6.6203e-05
1.20783e-05
6.55702e-05
1.6886e-05
6.4778e-05
2.12676e-05
6.37761e-05
2.61513e-05
6.25294e-05
3.30505e-05
6.09393e-05
4.24398e-05
5.89472e-05
5.63449e-05
5.6199e-05
7.59339e-05
5.26058e-05
0.000111219
4.73918e-05
0.000162749
3.95049e-05
0.000277037
2.68135e-05
0.000385304
0.000646952
6.81678e-05
1.82875e-07
6.81011e-05
1.41156e-06
6.80395e-05
4.43961e-06
6.7898e-05
2.6649e-06
6.77695e-05
2.96549e-06
6.7589e-05
4.53644e-06
6.7355e-05
8.02633e-06
6.70539e-05
9.76798e-06
6.66823e-05
9.36047e-06
6.61999e-05
1.25591e-05
6.55621e-05
1.75236e-05
6.47693e-05
2.20604e-05
6.37662e-05
2.71614e-05
6.25174e-05
3.4294e-05
6.09232e-05
4.40329e-05
5.89252e-05
5.83426e-05
5.61744e-05
7.86846e-05
5.26047e-05
0.000114788
4.7447e-05
0.000167907
3.97706e-05
0.000284714
2.72263e-05
0.000397848
0.000674179
6.81707e-05
1.95019e-07
6.80891e-05
1.48514e-06
6.80243e-05
4.59897e-06
6.79014e-05
2.7272e-06
6.77775e-05
3.06337e-06
6.75895e-05
4.70824e-06
6.73496e-05
8.30089e-06
6.70498e-05
1.00936e-05
6.66764e-05
9.70575e-06
6.61955e-05
1.30384e-05
6.55543e-05
1.81648e-05
6.4761e-05
2.28535e-05
6.37565e-05
2.81597e-05
6.25051e-05
3.55499e-05
6.09063e-05
4.5633e-05
5.89019e-05
6.03473e-05
5.61488e-05
8.14377e-05
5.2603e-05
0.000118334
4.75035e-05
0.000173006
4.00506e-05
0.000292167
2.7659e-05
0.000410239
0.000701837
6.81671e-05
2.12975e-07
6.81007e-05
1.54534e-06
6.80394e-05
4.71658e-06
6.78981e-05
2.8407e-06
6.77688e-05
3.17457e-06
6.75889e-05
4.86587e-06
6.73554e-05
8.5538e-06
6.70558e-05
1.04198e-05
6.66759e-05
1.0059e-05
6.61909e-05
1.35228e-05
6.55467e-05
1.88089e-05
6.47528e-05
2.36474e-05
6.3747e-05
2.91723e-05
6.24927e-05
3.67988e-05
6.08885e-05
4.7236e-05
5.88773e-05
6.23582e-05
5.61222e-05
8.41927e-05
5.26006e-05
0.000121856
4.75609e-05
0.000178046
4.03449e-05
0.000299383
2.81124e-05
0.000422472
0.00072995
6.817e-05
2.2627e-07
6.8088e-05
1.62152e-06
6.80237e-05
4.87365e-06
6.79022e-05
2.90089e-06
6.77778e-05
3.27255e-06
6.759e-05
5.03853e-06
6.73505e-05
8.82662e-06
6.7052e-05
1.07436e-05
6.66711e-05
1.04135e-05
6.61855e-05
1.40076e-05
6.55393e-05
1.94551e-05
6.47448e-05
2.44416e-05
6.37376e-05
3.01736e-05
6.248e-05
3.80609e-05
6.08698e-05
4.88474e-05
5.88513e-05
6.43771e-05
5.60946e-05
8.69496e-05
5.25975e-05
0.000125353
4.76187e-05
0.000183025
4.06531e-05
0.000306348
2.85869e-05
0.000434538
0.000758536
6.81663e-05
2.4547e-07
6.81004e-05
1.68301e-06
6.804e-05
4.98659e-06
6.78991e-05
3.01492e-06
6.7769e-05
3.38495e-06
6.75895e-05
5.19627e-06
6.73568e-05
9.07685e-06
6.70589e-05
1.10674e-05
6.66712e-05
1.0776e-05
6.61797e-05
1.44989e-05
6.55318e-05
2.01029e-05
6.47369e-05
2.52365e-05
6.37281e-05
3.1189e-05
6.2467e-05
3.93166e-05
6.08503e-05
5.04629e-05
5.8824e-05
6.64031e-05
5.60658e-05
8.97077e-05
5.25936e-05
0.000128825
4.76765e-05
0.000187941
4.09746e-05
0.00031305
2.90828e-05
0.00044643
0.000787619
6.81694e-05
2.59866e-07
6.80868e-05
1.76177e-06
6.80231e-05
5.14156e-06
6.79032e-05
3.07278e-06
6.77784e-05
3.48281e-06
6.75909e-05
5.36946e-06
6.73519e-05
9.34799e-06
6.7055e-05
1.13887e-05
6.66661e-05
1.11409e-05
6.61731e-05
1.49914e-05
6.55244e-05
2.07516e-05
6.47291e-05
2.60316e-05
6.37187e-05
3.21935e-05
6.24537e-05
4.05863e-05
6.08298e-05
5.2088e-05
5.87952e-05
6.84381e-05
5.6036e-05
9.2467e-05
5.25891e-05
0.000132272
4.77341e-05
0.000192796
4.13084e-05
0.000319476
2.96e-05
0.000458138
0.000817219
6.81657e-05
2.80168e-07
6.81001e-05
1.82446e-06
6.80405e-05
5.25038e-06
6.79001e-05
3.18691e-06
6.77692e-05
3.59615e-06
6.75903e-05
5.52719e-06
6.73585e-05
9.59555e-06
6.70626e-05
1.17093e-05
6.6666e-05
1.15148e-05
6.6166e-05
1.54914e-05
6.5517e-05
2.14006e-05
6.47213e-05
2.68273e-05
6.37093e-05
3.32118e-05
6.244e-05
4.18498e-05
6.08084e-05
5.37183e-05
5.87651e-05
7.04811e-05
5.60051e-05
9.52269e-05
5.2584e-05
0.000135693
4.77915e-05
0.000197589
4.16538e-05
0.000325614
3.01384e-05
0.000469653
0.000847357
6.81688e-05
2.95515e-07
6.80856e-05
1.90577e-06
6.8022e-05
5.40431e-06
6.79035e-05
3.24292e-06
6.77786e-05
3.69353e-06
6.75914e-05
5.70069e-06
6.73529e-05
9.8653e-06
6.70578e-05
1.2028e-05
6.66601e-05
1.18915e-05
6.61583e-05
1.59927e-05
6.55095e-05
2.20495e-05
6.47135e-05
2.7623e-05
6.36998e-05
3.42198e-05
6.24259e-05
4.31285e-05
6.07862e-05
5.53593e-05
5.87336e-05
7.25341e-05
5.59732e-05
9.79875e-05
5.25784e-05
0.000139087
4.78486e-05
0.000202319
4.20101e-05
0.000331452
3.06981e-05
0.000480965
0.000878055
6.81651e-05
3.16731e-07
6.80996e-05
1.96988e-06
6.80399e-05
5.51095e-06
6.78997e-05
3.35809e-06
6.77685e-05
3.80722e-06
6.75901e-05
5.85815e-06
6.73592e-05
1.01107e-05
6.70596e-05
1.23519e-05
6.66584e-05
1.22776e-05
6.61502e-05
1.65011e-05
6.55019e-05
2.26977e-05
6.47057e-05
2.84192e-05
6.36902e-05
3.52416e-05
6.24115e-05
4.44014e-05
6.07631e-05
5.70063e-05
5.87008e-05
7.45959e-05
5.59402e-05
0.000100748
5.25723e-05
0.000142455
4.79053e-05
0.000206985
4.23771e-05
0.00033698
3.12791e-05
0.000492063
0.000909334
6.81683e-05
3.32866e-07
6.80842e-05
2.05385e-06
6.80204e-05
5.66496e-06
6.79031e-05
3.41234e-06
6.77783e-05
3.90374e-06
6.75909e-05
6.03229e-06
6.73541e-05
1.03781e-05
6.70452e-05
1.26831e-05
6.66567e-05
1.26572e-05
6.61417e-05
1.70158e-05
6.54943e-05
2.33451e-05
6.46979e-05
2.92154e-05
6.36805e-05
3.62531e-05
6.23966e-05
4.56904e-05
6.07391e-05
5.86653e-05
5.86668e-05
7.66687e-05
5.59063e-05
0.000103509
5.25661e-05
0.000145795
4.79616e-05
0.00021159
4.27546e-05
0.000342187
3.18819e-05
0.000502935
0.000941216
6.81647e-05
3.54814e-07
6.80995e-05
2.11888e-06
6.80391e-05
5.76994e-06
6.78985e-05
3.53014e-06
6.77669e-05
4.01793e-06
6.75883e-05
6.1904e-06
6.73604e-05
1.06194e-05
6.70392e-05
1.30267e-05
6.6657e-05
1.30363e-05
6.61332e-05
1.75397e-05
6.54866e-05
2.39917e-05
6.46899e-05
3.0012e-05
6.36707e-05
3.72787e-05
6.23814e-05
4.69739e-05
6.07144e-05
6.03308e-05
5.86317e-05
7.8751e-05
5.58715e-05
0.000106269
5.25597e-05
0.000149107
4.80172e-05
0.000216132
4.31424e-05
0.000347062
3.25068e-05
0.000513571
0.000973723
6.81678e-05
3.71734e-07
6.80832e-05
2.20506e-06
6.80192e-05
5.9234e-06
6.79029e-05
3.58334e-06
6.7778e-05
4.11393e-06
6.75902e-05
6.36536e-06
6.73556e-05
1.08836e-05
6.70314e-05
1.33713e-05
6.66534e-05
1.34126e-05
6.61248e-05
1.80679e-05
6.54788e-05
2.46377e-05
6.4682e-05
3.08086e-05
6.36608e-05
3.82938e-05
6.23657e-05
4.82743e-05
6.06889e-05
6.20092e-05
5.85955e-05
8.08449e-05
5.58359e-05
0.000109028
5.25534e-05
0.00015239
4.80719e-05
0.000220614
4.35398e-05
0.000351594
3.31539e-05
0.000523957
0.00100688
6.81644e-05
3.94192e-07
6.80982e-05
2.2724e-06
6.80376e-05
6.02877e-06
6.78987e-05
3.698e-06
6.77675e-05
4.22688e-06
6.75883e-05
6.52429e-06
6.7363e-05
1.11216e-05
6.70357e-05
1.37151e-05
6.66487e-05
1.37993e-05
6.61167e-05
1.86001e-05
6.54709e-05
2.52834e-05
6.46738e-05
3.16058e-05
6.36507e-05
3.93246e-05
6.23498e-05
4.95685e-05
6.06628e-05
6.36942e-05
5.85585e-05
8.29487e-05
5.57996e-05
0.000111787
5.25473e-05
0.000155642
4.81248e-05
0.000225036
4.39447e-05
0.000355774
3.38221e-05
0.000534079
0.0010407
6.8167e-05
4.12427e-07
6.80837e-05
2.35874e-06
6.80202e-05
6.17693e-06
6.79028e-05
3.7556e-06
6.77777e-05
4.32369e-06
6.75886e-05
6.70001e-06
6.73576e-05
1.13794e-05
6.70464e-05
1.40362e-05
6.66435e-05
1.42016e-05
6.61088e-05
1.91345e-05
6.5463e-05
2.59292e-05
6.46657e-05
3.24028e-05
6.36404e-05
4.03432e-05
6.23334e-05
5.08814e-05
6.06362e-05
6.53932e-05
5.85209e-05
8.50646e-05
5.57626e-05
0.000114546
5.25415e-05
0.000158863
4.81753e-05
0.000229402
4.43516e-05
0.000359598
3.45075e-05
0.000543923
0.00107521
6.81639e-05
4.35704e-07
6.8099e-05
2.42558e-06
6.80387e-05
6.27789e-06
6.78986e-05
3.87462e-06
6.77669e-05
4.43801e-06
6.75839e-05
6.86369e-06
6.73574e-05
1.16171e-05
6.7063e-05
1.43334e-05
6.66384e-05
1.46262e-05
6.61013e-05
1.96718e-05
6.54551e-05
2.65754e-05
6.46574e-05
3.32007e-05
6.363e-05
4.13784e-05
6.23168e-05
5.2188e-05
6.06091e-05
6.70988e-05
5.84828e-05
8.71904e-05
5.57251e-05
0.000117303
5.25363e-05
0.000162052
4.82227e-05
0.000233716
4.47497e-05
0.000363071
3.52004e-05
0.000553473
0.00111041
6.81667e-05
4.53748e-07
6.80786e-05
2.51847e-06
6.80128e-05
6.43652e-06
6.79002e-05
3.92013e-06
6.77795e-05
4.52642e-06
6.75875e-05
7.04026e-06
6.73531e-05
1.18804e-05
6.70696e-05
1.46181e-05
6.66335e-05
1.50619e-05
6.60941e-05
2.02109e-05
6.54472e-05
2.72224e-05
6.4649e-05
3.39986e-05
6.36194e-05
4.24013e-05
6.22998e-05
5.35133e-05
6.05817e-05
6.88188e-05
5.84446e-05
8.93281e-05
5.5687e-05
0.000120061
5.25325e-05
0.000165206
4.82658e-05
0.000237983
4.51335e-05
0.000366203
3.59774e-05
0.000562628
0.00114638
-7.8357e-06
7.83551e-06
-1.92125e-05
1.13766e-05
-2.56308e-05
6.41938e-06
-2.39387e-05
-1.69825e-06
-1.9408e-05
-4.54711e-06
-1.62655e-05
-3.13794e-06
-1.36281e-05
-2.63746e-06
-1.054e-05
-3.08284e-06
-6.81745e-06
-3.6905e-06
-2.08677e-06
-4.71274e-06
3.35664e-06
-5.46563e-06
9.11037e-06
-5.74876e-06
1.51398e-05
-6.02189e-06
2.11269e-05
-5.99466e-06
2.78992e-05
-6.77581e-06
3.47341e-05
-6.83405e-06
3.92647e-05
-4.53076e-06
4.17583e-05
-2.49378e-06
4.36199e-05
-1.86244e-06
4.53481e-05
-1.72854e-06
4.70626e-05
-1.71495e-06
4.89329e-05
-1.87093e-06
5.25171e-05
-3.58637e-06
5.83742e-05
-5.85504e-06
6.31206e-05
-4.74626e-06
6.49857e-05
-1.86481e-06
6.56138e-05
-6.28209e-07
6.60127e-05
-3.98957e-07
6.63729e-05
-3.60232e-07
6.66806e-05
-3.07746e-07
6.69248e-05
-2.44161e-07
6.71145e-05
-1.89672e-07
6.72713e-05
-1.56758e-07
6.74058e-05
-1.34496e-07
-5.72389e-08
-7.98127e-06
1.58162e-05
-1.93067e-05
2.27013e-05
-2.54624e-05
1.25766e-05
-2.3354e-05
-3.82004e-06
-1.86465e-05
-9.28622e-06
-1.57267e-05
-6.04936e-06
-1.34251e-05
-4.93907e-06
-1.06498e-05
-5.84737e-06
-6.93857e-06
-7.33925e-06
-2.18911e-06
-9.42732e-06
3.09235e-06
-1.07875e-05
8.63528e-06
-1.12832e-05
1.44941e-05
-1.18662e-05
2.03069e-05
-1.18219e-05
2.68036e-05
-1.32788e-05
3.38179e-05
-1.38466e-05
3.89095e-05
-9.62245e-06
4.16523e-05
-5.23718e-06
4.35668e-05
-3.77854e-06
4.53009e-05
-3.46332e-06
4.70203e-05
-3.43521e-06
4.88488e-05
-3.70077e-06
5.22733e-05
-7.01502e-06
5.8071e-05
-1.16489e-05
6.29789e-05
-9.65379e-06
6.49621e-05
-3.84752e-06
6.56144e-05
-1.28066e-06
6.60127e-05
-7.97336e-07
6.63716e-05
-7.19274e-07
6.66793e-05
-6.15364e-07
6.69242e-05
-4.89095e-07
6.71147e-05
-3.80152e-07
6.72717e-05
-3.13716e-07
6.74063e-05
-2.69083e-07
-1.14764e-07
-8.12567e-06
2.39416e-05
-1.92326e-05
3.38078e-05
-2.4929e-05
1.82752e-05
-2.25683e-05
-6.19311e-06
-1.7972e-05
-1.39129e-05
-1.53153e-05
-8.69692e-06
-1.32077e-05
-7.04687e-06
-1.05025e-05
-8.54218e-06
-6.76246e-06
-1.10166e-05
-2.0993e-06
-1.4054e-05
2.96973e-06
-1.58987e-05
8.34049e-06
-1.66476e-05
1.40745e-05
-1.75856e-05
1.97436e-05
-1.75058e-05
2.59549e-05
-1.94966e-05
3.3013e-05
-2.09032e-05
3.85547e-05
-1.51644e-05
4.15475e-05
-8.23052e-06
4.35234e-05
-5.75602e-06
4.5269e-05
-5.20959e-06
4.69956e-05
-5.1626e-06
4.87871e-05
-5.49347e-06
5.20631e-05
-1.02948e-05
5.78028e-05
-1.73851e-05
6.28491e-05
-1.46997e-05
6.49406e-05
-5.93856e-06
6.56157e-05
-1.95594e-06
6.60133e-05
-1.19504e-06
6.63709e-05
-1.07702e-06
6.66784e-05
-9.22773e-07
6.69241e-05
-7.34751e-07
6.71153e-05
-5.71394e-07
6.72724e-05
-4.70797e-07
6.7407e-05
-4.03683e-07
-1.72461e-07
-8.18081e-06
3.21218e-05
-1.90025e-05
4.46288e-05
-2.42351e-05
2.35091e-05
-2.16322e-05
-8.81235e-06
-1.71736e-05
-1.84046e-05
-1.47522e-05
-1.11087e-05
-1.2795e-05
-9.00386e-06
-1.01333e-05
-1.11913e-05
-6.3713e-06
-1.47069e-05
-1.82567e-06
-1.8558e-05
3.02333e-06
-2.07935e-05
8.24582e-06
-2.18639e-05
1.38756e-05
-2.31985e-05
1.94411e-05
-2.30879e-05
2.53819e-05
-2.54442e-05
3.23228e-05
-2.78421e-05
3.81713e-05
-2.10131e-05
4.14329e-05
-1.14928e-05
4.34878e-05
-7.81319e-06
4.52523e-05
-6.97487e-06
4.69887e-05
-6.89999e-06
4.87472e-05
-7.25336e-06
5.18887e-05
-1.34404e-05
5.75686e-05
-2.30612e-05
6.27312e-05
-1.9862e-05
6.49209e-05
-8.12773e-06
6.56177e-05
-2.65285e-06
6.60146e-05
-1.59205e-06
6.63709e-05
-1.43338e-06
6.6678e-05
-1.22986e-06
6.69243e-05
-9.81054e-07
6.71163e-05
-7.63325e-07
6.72734e-05
-6.2791e-07
6.74079e-05
-5.38182e-07
-2.30223e-07
-8.15418e-06
4.02758e-05
-1.86298e-05
5.51042e-05
-2.33815e-05
2.82634e-05
-2.05307e-05
-1.16768e-05
-1.6215e-05
-2.27505e-05
-1.40016e-05
-1.33116e-05
-1.21611e-05
-1.08445e-05
-9.5155e-06
-1.38252e-05
-5.7317e-06
-1.84202e-05
-1.3189e-06
-2.29271e-05
3.31264e-06
-2.54733e-05
8.40038e-06
-2.69495e-05
1.39319e-05
-2.87119e-05
1.94155e-05
-2.85898e-05
2.51162e-05
-3.11524e-05
3.17917e-05
-3.45159e-05
3.77687e-05
-2.69905e-05
4.1305e-05
-1.50299e-05
4.34616e-05
-9.97209e-06
4.52532e-05
-8.76726e-06
4.70011e-05
-8.64879e-06
4.87294e-05
-8.98294e-06
5.17488e-05
-1.64634e-05
5.7367e-05
-2.86761e-05
6.26253e-05
-2.512e-05
6.49033e-05
-1.04053e-05
6.56205e-05
-3.37015e-06
6.60167e-05
-1.98833e-06
6.63714e-05
-1.78827e-06
6.66781e-05
-1.53652e-06
6.6925e-05
-1.22794e-06
6.71176e-05
-9.55887e-07
6.72747e-05
-7.84968e-07
6.7409e-05
-6.72475e-07
-2.87949e-07
-8.05293e-06
4.8328e-05
-1.81252e-05
6.51756e-05
-2.2377e-05
3.25168e-05
-1.92695e-05
-1.4803e-05
-1.50862e-05
-2.69667e-05
-1.3051e-05
-1.53361e-05
-1.12989e-05
-1.25961e-05
-8.63882e-06
-1.64706e-05
-4.82636e-06
-2.21519e-05
-5.2905e-07
-2.71748e-05
3.92177e-06
-2.99798e-05
8.88828e-06
-3.19127e-05
1.43114e-05
-3.41128e-05
1.97128e-05
-3.4013e-05
2.51953e-05
-3.66434e-05
3.14806e-05
-4.07986e-05
3.73939e-05
-3.29042e-05
4.11709e-05
-1.88082e-05
4.34496e-05
-1.22541e-05
4.52761e-05
-1.05948e-05
4.70353e-05
-1.04092e-05
4.87344e-05
-1.06836e-05
5.16414e-05
-1.93745e-05
5.71958e-05
-3.42267e-05
6.2531e-05
-3.04549e-05
6.48877e-05
-1.27614e-05
6.5624e-05
-4.10655e-06
6.60194e-05
-2.38386e-06
6.63726e-05
-2.14162e-06
6.66788e-05
-1.84263e-06
6.69262e-05
-1.47533e-06
6.71193e-05
-1.14899e-06
6.72763e-05
-9.41868e-07
6.74102e-05
-8.06441e-07
-3.45529e-07
-7.88324e-06
5.62112e-05
-1.74984e-05
7.47907e-05
-2.12364e-05
3.62583e-05
-1.78733e-05
-1.81801e-05
-1.38059e-05
-3.10626e-05
-1.19174e-05
-1.72131e-05
-1.02337e-05
-1.428e-05
-7.53371e-06
-1.91578e-05
-3.68206e-06
-2.59313e-05
5.59017e-07
-3.13669e-05
4.91967e-06
-3.43948e-05
9.80098e-06
-3.67969e-05
1.51053e-05
-3.93937e-05
2.04135e-05
-3.93459e-05
2.56833e-05
-4.19228e-05
3.14756e-05
-4.65888e-05
3.7128e-05
-3.85572e-05
4.10555e-05
-2.27372e-05
4.3463e-05
-1.46652e-05
4.53285e-05
-1.24615e-05
4.70954e-05
-1.21771e-05
4.87633e-05
-1.23529e-05
5.15646e-05
-2.21794e-05
5.70527e-05
-3.97116e-05
6.24482e-05
-3.58501e-05
6.48743e-05
-1.51871e-05
6.56283e-05
-4.86067e-06
6.6023e-05
-2.7786e-06
6.63745e-05
-2.49332e-06
6.668e-05
-2.14807e-06
6.69278e-05
-1.72315e-06
6.71215e-05
-1.34258e-06
6.72781e-05
-1.09852e-06
6.74117e-05
-9.39972e-07
-4.02862e-07
-7.65065e-06
6.38612e-05
-1.67603e-05
8.38995e-05
-1.99791e-05
3.94791e-05
-1.63789e-05
-2.17999e-05
-1.24131e-05
-3.50594e-05
-1.06399e-05
-1.89752e-05
-9.01685e-06
-1.59021e-05
-6.2668e-06
-2.18921e-05
-2.37012e-06
-2.97466e-05
1.88928e-06
-3.55735e-05
6.27786e-06
-3.88425e-05
1.11456e-05
-4.1665e-05
1.63596e-05
-4.45802e-05
2.15871e-05
-4.46019e-05
2.66654e-05
-4.70121e-05
3.18935e-05
-5.18135e-05
3.70769e-05
-4.37412e-05
4.10076e-05
-2.66702e-05
4.35214e-05
-1.71843e-05
4.54216e-05
-1.43633e-05
4.71871e-05
-1.3944e-05
4.88182e-05
-1.39859e-05
5.15167e-05
-2.48821e-05
5.69352e-05