/*--------------------------------*- C++ -*----------------------------------*\
| =========                 |                                                 |
| \\      /  F ield         | OpenFOAM: The Open Source CFD Toolbox           |
|  \\    /   O peration     | Version:  v1912                                 |
|   \\  /    A nd           | Website:  www.openfoam.com                      |
|    \\/     M anipulation  |                                                 |
\*---------------------------------------------------------------------------*/
FoamFile
{
    version     2.0;
    format      ascii;
    class       volVectorField;
    location    "100";
    object      U;
}
// * * * * * * * * * * * * * * * * * * * * * * * * * * * * * * * * * * * * * //

dimensions      [0 1 -1 0 0 0 0];


internalField   nonuniform List<vector> 
12441
(
(29.9944 5.88659e-06 0)
(29.9957 4.47551e-05 0)
(29.9502 0.000122662 0)
(29.9269 7.81156e-05 0)
(29.8611 0.000197626 0)
(29.7907 0.000263656 0)
(29.6968 0.000437817 0)
(29.5805 0.000611848 0)
(29.4454 0.000719153 0)
(29.2688 0.00102218 0)
(29.0443 0.00157661 0)
(28.7623 0.00225847 0)
(28.4088 0.00301089 0)
(27.9922 0.00424157 0)
(27.4431 0.00600541 0)
(26.6908 0.0104151 0)
(25.74 0.0133715 0)
(24.2603 0.0279278 0)
(22.1691 0.0487523 0)
(18.7251 0.0890886 0)
(12.9423 0.126571 0)
(6.30095 0.211138 0)
(29.9929 1.42113e-05 0)
(30.0023 0.000105829 0)
(29.942 0.00036468 0)
(29.9204 0.000366635 0)
(29.8632 0.000506081 0)
(29.8002 0.000698366 0)
(29.6981 0.00130482 0)
(29.574 0.00192729 0)
(29.443 0.00213328 0)
(29.2719 0.00305243 0)
(29.0478 0.00473923 0)
(28.7616 0.00679843 0)
(28.4061 0.00894847 0)
(27.9902 0.0127614 0)
(27.4387 0.0181183 0)
(26.6897 0.031285 0)
(25.7317 0.0429462 0)
(24.2483 0.0798442 0)
(22.1538 0.126793 0)
(18.705 0.257734 0)
(12.9302 0.371288 0)
(6.2938 0.629169 0)
(29.9929 1.55195e-05 0)
(30.0016 0.000161594 0)
(29.9439 0.000693013 0)
(29.9204 0.00060445 0)
(29.8623 0.000757243 0)
(29.7993 0.00109933 0)
(29.6984 0.00224778 0)
(29.5746 0.0032743 0)
(29.4433 0.00353302 0)
(29.2719 0.00504343 0)
(29.0479 0.00787316 0)
(28.7623 0.0113455 0)
(28.4054 0.0149098 0)
(27.993 0.0212857 0)
(27.4416 0.030215 0)
(26.6921 0.0512874 0)
(25.7317 0.0733044 0)
(24.2507 0.130029 0)
(22.1471 0.202591 0)
(18.6904 0.424188 0)
(12.917 0.612755 0)
(6.28798 1.04491 0)
(29.9929 1.65023e-05 0)
(30.0021 0.000222579 0)
(29.9411 0.00102324 0)
(29.9192 0.000811665 0)
(29.8621 0.00101158 0)
(29.7987 0.00154284 0)
(29.6964 0.00321727 0)
(29.5728 0.00460409 0)
(29.442 0.00490875 0)
(29.2707 0.0070256 0)
(29.0465 0.0110294 0)
(28.7607 0.015916 0)
(28.4056 0.0208891 0)
(27.9892 0.0298296 0)
(27.438 0.0423234 0)
(26.6904 0.0714148 0)
(25.7319 0.102938 0)
(24.2542 0.183423 0)
(22.1471 0.303197 0)
(18.6841 0.598664 0)
(12.9132 0.858169 0)
(6.28815 1.46168 0)
(29.9931 1.82744e-05 0)
(30.0009 0.000287728 0)
(29.9436 0.00134656 0)
(29.9192 0.0010208 0)
(29.861 0.00128324 0)
(29.7974 0.00199821 0)
(29.6965 0.00417386 0)
(29.5732 0.0059101 0)
(29.4422 0.00627371 0)
(29.2706 0.0090164 0)
(29.0464 0.0141966 0)
(28.761 0.0204861 0)
(28.4039 0.02688 0)
(27.9918 0.0383567 0)
(27.4412 0.054453 0)
(26.6922 0.091297 0)
(25.7341 0.132025 0)
(24.2578 0.237591 0)
(22.1547 0.386557 0)
(18.6869 0.769462 0)
(12.9198 1.10328 0)
(6.29461 1.8792 0)
(29.9929 2.05745e-05 0)
(30.0018 0.000354637 0)
(29.9397 0.00167475 0)
(29.9176 0.00123601 0)
(29.8609 0.00155525 0)
(29.797 0.00244814 0)
(29.6941 0.0051227 0)
(29.5709 0.00721221 0)
(29.4405 0.00764402 0)
(29.269 0.0110202 0)
(29.0447 0.0173703 0)
(28.7593 0.025052 0)
(28.4049 0.0328635 0)
(27.9876 0.0468791 0)
(27.4371 0.0665769 0)
(26.6901 0.111074 0)
(25.7355 0.160824 0)
(24.2613 0.291092 0)
(22.166 0.468424 0)
(18.6976 0.93917 0)
(12.9375 1.34806 0)
(6.30752 2.29737 0)
(29.9932 2.33902e-05 0)
(30.0004 0.000424682 0)
(29.9428 0.00200471 0)
(29.9172 0.00145379 0)
(29.8592 0.00182479 0)
(29.7953 0.00289943 0)
(29.6941 0.00607551 0)
(29.5711 0.00851604 0)
(29.4405 0.0090158 0)
(29.2687 0.0130262 0)
(29.0445 0.0205394 0)
(28.7593 0.0296077 0)
(28.4024 0.0388498 0)
(27.991 0.0553732 0)
(27.441 0.0787111 0)
(26.6922 0.1307 0)
(25.7389 0.189 0)
(24.265 0.342526 0)
(22.1796 0.552647 0)
(18.7158 1.10917 0)
(12.9668 1.59294 0)
(6.32715 2.71652 0)
(29.993 2.66363e-05 0)
(30.0016 0.00049679 0)
(29.9382 0.00234208 0)
(29.9159 0.00167245 0)
(29.8596 0.00209283 0)
(29.7953 0.00335331 0)
(29.692 0.00703154 0)
(29.5689 0.00981683 0)
(29.4389 0.0103838 0)
(29.2674 0.0150318 0)
(29.043 0.0237078 0)
(28.7579 0.0341589 0)
(28.4045 0.0448285 0)
(27.9861 0.0638535 0)
(27.4365 0.0907001 0)
(26.6902 0.15003 0)
(25.743 0.218553 0)
(24.2693 0.39632 0)
(22.1945 0.638187 0)
(18.7413 1.27881 0)
(13.0089 1.83804 0)
(6.35383 3.1371 0)
(29.9933 3.04253e-05 0)
(29.9998 0.000572589 0)
(29.9422 0.00267731 0)
(29.9158 0.00189022 0)
(29.8579 0.00236065 0)
(29.7936 0.00381141 0)
(29.6924 0.00798802 0)
(29.5697 0.0111136 0)
(29.4394 0.0117487 0)
(29.2675 0.0170387 0)
(29.0432 0.0268766 0)
(28.7581 0.03871 0)
(28.4009 0.0508157 0)
(27.991 0.072433 0)
(27.4409 0.102824 0)
(26.6939 0.169793 0)
(25.7437 0.246828 0)
(24.2671 0.4499 0)
(22.207 0.723481 0)
(18.774 1.44746 0)
(13.0648 2.08338 0)
(6.38797 3.55958 0)
(29.9931 3.48308e-05 0)
(30.0013 0.00065007 0)
(29.9368 0.0030201 0)
(29.9145 0.00210854 0)
(29.8587 0.00262769 0)
(29.794 0.00427075 0)
(29.6903 0.00894506 0)
(29.5675 0.0124063 0)
(29.4378 0.0131113 0)
(29.2662 0.0190478 0)
(29.0419 0.0300465 0)
(28.7572 0.0432575 0)
(28.4052 0.0568025 0)
(27.9869 0.0808137 0)
(27.4384 0.115497 0)
(26.6893 0.189945 0)
(25.7302 0.275542 0)
(24.2491 0.501985 0)
(22.2155 0.808293 0)
(18.8142 1.61489 0)
(13.1352 2.32901 0)
(6.42991 3.98441 0)
(29.9935 3.9755e-05 0)
(29.9992 0.000731455 0)
(29.9416 0.00335918 0)
(29.9144 0.00232728 0)
(29.8566 0.00289486 0)
(29.792 0.00473378 0)
(29.6909 0.00990189 0)
(29.5684 0.0136966 0)
(29.4384 0.0144733 0)
(29.2664 0.0210584 0)
(29.0421 0.0332159 0)
(28.7571 0.0478 0)
(28.3997 0.0628301 0)
(27.9889 0.0892338 0)
(27.4375 0.127613 0)
(26.6706 0.209266 0)
(25.7019 0.305517 0)
(24.22 0.553895 0)
(22.2236 0.892683 0)
(18.8613 1.78072 0)
(13.2199 2.57489 0)
(6.47995 4.41209 0)
(29.9932 4.54983e-05 0)
(30.0008 0.000814035 0)
(29.9357 0.00370645 0)
(29.9134 0.00254702 0)
(29.8581 0.00316156 0)
(29.7929 0.00519733 0)
(29.689 0.0108588 0)
(29.5665 0.0149833 0)
(29.437 0.0158342 0)
(29.2652 0.0230698 0)
(29.0412 0.0363853 0)
(28.7567 0.052337 0)
(28.4062 0.0688547 0)
(27.9849 0.0979118 0)
(27.4234 0.140707 0)
(26.6381 0.229257 0)
(25.6702 0.335957 0)
(24.1935 0.604758 0)
(22.2335 0.976122 0)
(18.9129 1.94454 0)
(13.3178 2.82097 0)
(6.53823 4.84309 0)
(29.9936 5.18737e-05 0)
(29.9985 0.000900898 0)
(29.9413 0.00404532 0)
(29.9137 0.00276455 0)
(29.8561 0.00342835 0)
(29.791 0.00566525 0)
(29.6901 0.0118134 0)
(29.568 0.0162675 0)
(29.4381 0.0171958 0)
(29.2659 0.025082 0)
(29.0423 0.0395521 0)
(28.7567 0.0568982 0)
(28.4055 0.0748979 0)
(27.9799 0.106766 0)
(27.3997 0.154476 0)
(26.6034 0.249323 0)
(25.6434 0.366408 0)
(24.1753 0.654237 0)
(22.2443 1.05844 0)
(18.9654 2.10611 0)
(13.4269 3.06709 0)
(6.60475 5.27785 0)
(29.9934 5.92973e-05 0)
(30.0003 0.000988443 0)
(29.9347 0.00439281 0)
(29.9126 0.00298257 0)
(29.8578 0.00369484 0)
(29.792 0.00613316 0)
(29.6881 0.0127672 0)
(29.566 0.0175477 0)
(29.4366 0.0185567 0)
(29.2646 0.0270946 0)
(29.0416 0.0427401 0)
(28.7558 0.0614456 0)
(28.4156 0.0812575 0)
(27.9651 0.116043 0)
(27.3725 0.16822 0)
(26.5746 0.268935 0)
(25.6233 0.396546 0)
(24.1635 0.702521 0)
(22.2544 1.13977 0)
(19.016 2.26539 0)
(13.5447 3.31307 0)
(6.67935 5.71679 0)
(29.9938 6.73034e-05 0)
(29.9977 0.00108054 0)
(29.9412 0.00473022 0)
(29.9128 0.00320025 0)
(29.8554 0.00396212 0)
(29.7898 0.00660557 0)
(29.6893 0.0137184 0)
(29.5676 0.0188261 0)
(29.4377 0.0199202 0)
(29.2653 0.0291031 0)
(29.0425 0.0459501 0)
(28.7572 0.0658554 0)
(28.4135 0.0875697 0)
(27.9466 0.125432 0)
(27.3487 0.181976 0)
(26.5526 0.288304 0)
(25.6081 0.42647 0)
(24.1552 0.749976 0)
(22.2631 1.22029 0)
(19.063 2.42236 0)
(13.6687 3.55864 0)
(6.76176 6.16026 0)
(29.9935 7.65527e-05 0)
(29.9996 0.00117275 0)
(29.9339 0.00507747 0)
(29.9119 0.00341912 0)
(29.8576 0.00422933 0)
(29.7913 0.00707704 0)
(29.6874 0.0146681 0)
(29.5658 0.0201009 0)
(29.4363 0.0212823 0)
(29.2642 0.0311199 0)
(29.0405 0.0491582 0)
(28.7584 0.0703794 0)
(28.4079 0.0940087 0)
(27.9277 0.134869 0)
(27.3292 0.195669 0)
(26.5359 0.307545 0)
(25.5961 0.456278 0)
(24.1482 0.796912 0)
(22.2702 1.30011 0)
(19.1057 2.57702 0)
(13.7971 3.80355 0)
(6.85159 6.60854 0)
(29.994 8.64548e-05 0)
(29.9968 0.00126999 0)
(29.9413 0.00540984 0)
(29.9126 0.00363515 0)
(29.8554 0.00449734 0)
(29.7892 0.00755389 0)
(29.6892 0.0156134 0)
(29.5679 0.0213747 0)
(29.4378 0.0226486 0)
(29.2654 0.0331382 0)
(29.0415 0.0524358 0)
(28.76 0.0749242 0)
(28.3969 0.100613 0)
(27.9116 0.144321 0)
(27.3138 0.209342 0)
(26.5228 0.326706 0)
(25.586 0.486015 0)
(24.1416 0.843518 0)
(22.276 1.37933 0)
(19.1444 2.72934 0)
(13.9284 4.04753 0)
(6.94844 7.06188 0)
(29.9937 9.77981e-05 0)
(29.9989 0.00136676 0)
(29.9333 0.00575325 0)
(29.9116 0.00385183 0)
(29.8578 0.0047653 0)
(29.7908 0.00802911 0)
(29.6872 0.0165567 0)
(29.5661 0.0226439 0)
(29.4364 0.0240146 0)
(29.2641 0.0351542 0)
(29.0403 0.0557372 0)
(28.7575 0.0795269 0)
(28.386 0.107251 0)
(27.898 0.153794 0)
(27.3013 0.223005 0)
(26.5122 0.34582 0)
(25.577 0.515715 0)
(24.1348 0.889907 0)
(22.2811 1.45797 0)
(19.1796 2.87929 0)
(14.0616 4.29034 0)
(7.05192 7.5205 0)
(29.9942 0.00010967 0)
(29.9959 0.00146887 0)
(29.9414 0.0060803 0)
(29.9122 0.00406762 0)
(29.8551 0.00503468 0)
(29.7884 0.00850995 0)
(29.6889 0.0174956 0)
(29.5682 0.0239124 0)
(29.438 0.0253855 0)
(29.2648 0.0371791 0)
(29.0431 0.0590386 0)
(28.7525 0.0841145 0)
(28.3755 0.113971 0)
(27.8868 0.163264 0)
(27.2909 0.236656 0)
(26.5033 0.364902 0)
(25.5686 0.5454 0)
(24.1276 0.93614 0)
(22.2858 1.53606 0)
(19.2121 3.02685 0)
(14.1965 4.53178 0)
(7.16167 7.98459 0)
(29.9939 0.000123131 0)
(29.9981 0.00156994 0)
(29.9327 0.00642036 0)
(29.9113 0.00428473 0)
(29.8579 0.00530398 0)
(29.7903 0.00898805 0)
(29.687 0.0184324 0)
(29.5663 0.0251756 0)
(29.4367 0.0267594 0)
(29.2635 0.0392063 0)
(29.0433 0.062407 0)
(28.746 0.0887072 0)
(28.3666 0.120697 0)
(27.8773 0.172757 0)
(27.2821 0.250297 0)
(26.4955 0.383972 0)
(25.5605 0.575091 0)
(24.12 0.982246 0)
(22.2907 1.61359 0)
(19.2427 3.172 0)
(14.333 4.77164 0)
(7.27739 8.45432 0)
(29.9945 0.000137127 0)
(29.9949 0.00167691 0)
(29.9417 0.00673977 0)
(29.9123 0.00449869 0)
(29.8553 0.00557474 0)
(29.788 0.00947274 0)
(29.6892 0.0193637 0)
(29.5689 0.0264384 0)
(29.4386 0.0281394 0)
(29.2649 0.0412483 0)
(29.0449 0.0658184 0)
(28.7393 0.0933542 0)
(28.3588 0.127466 0)
(27.8692 0.182252 0)
(27.2743 0.263928 0)
(26.4884 0.403042 0)
(25.5524 0.604811 0)
(24.112 1.02822 0)
(22.2961 1.69055 0)
(19.2724 3.31471 0)
(14.4715 5.00978 0)
(7.39887 8.92989 0)
(29.9941 0.000152872 0)
(29.9973 0.00178229 0)
(29.9323 0.00707388 0)
(29.9111 0.00471323 0)
(29.8583 0.00584523 0)
(29.7901 0.00995401 0)
(29.6871 0.0202925 0)
(29.5669 0.0276956 0)
(29.4373 0.0295148 0)
(29.2644 0.0433445 0)
(29.042 0.0692271 0)
(28.7329 0.098043 0)
(28.352 0.134241 0)
(27.862 0.19176 0)
(27.2673 0.277556 0)
(26.4817 0.422127 0)
(25.5443 0.634579 0)
(24.1036 1.07404 0)
(22.3022 1.76692 0)
(19.3018 3.45497 0)
(14.6126 5.24603 0)
(7.52597 9.41147 0)
(29.9947 0.000168979 0)
(29.994 0.00189387 0)
(29.942 0.00738615 0)
(29.9121 0.00492663 0)
(29.8552 0.00611776 0)
(29.7873 0.0104422 0)
(29.6892 0.0212159 0)
(29.5695 0.0289545 0)
(29.4387 0.030891 0)
(29.2669 0.0454984 0)
(29.038 0.0726618 0)
(28.727 0.102778 0)
(28.3459 0.14104 0)
(27.8555 0.201268 0)
(27.2608 0.291185 0)
(26.4752 0.441237 0)
(25.5361 0.664408 0)
(24.0949 1.11966 0)
(22.309 1.84267 0)
(19.3316 3.59274 0)
(14.7572 5.4803 0)
(7.65866 9.89925 0)
(29.9944 0.000186951 0)
(29.9965 0.00200327 0)
(29.9319 0.00771532 0)
(29.911 0.00514132 0)
(29.8586 0.00639001 0)
(29.7898 0.010926 0)
(29.6872 0.0221363 0)
(29.5676 0.0302086 0)
(29.4372 0.0322596 0)
(29.2668 0.047696 0)
(29.0329 0.076044 0)
(28.7218 0.107542 0)
(28.3405 0.147843 0)
(27.8496 0.210786 0)
(27.2548 0.304822 0)
(26.4687 0.460384 0)
(25.5275 0.694298 0)
(24.0859 1.16502 0)
(22.3165 1.91781 0)
(19.3622 3.72796 0)
(14.9063 5.71247 0)
(7.79697 10.3935 0)
(29.9949 0.000205271 0)
(29.9931 0.00211945 0)
(29.9425 0.00801842 0)
(29.9124 0.00535257 0)
(29.8556 0.00666436 0)
(29.7871 0.0114177 0)
(29.6897 0.0230502 0)
(29.5706 0.0314661 0)
(29.4391 0.0336237 0)
(29.2697 0.0499116 0)
(29.028 0.0793872 0)
(28.717 0.112324 0)
(28.3355 0.15466 0)
(27.8441 0.220309 0)
(27.2489 0.318472 0)
(26.4621 0.479573 0)
(25.5185 0.724232 0)
(24.0765 1.21011 0)
(22.3246 1.99229 0)
(19.3941 3.86057 0)
(15.0609 5.94244 0)
(7.94102 10.8944 0)
(29.9946 0.000225581 0)
(29.9956 0.00223288 0)
(29.9315 0.00834042 0)
(29.9111 0.00556434 0)
(29.8592 0.00693819 0)
(29.7897 0.0119041 0)
(29.6876 0.0239608 0)
(29.5685 0.0327175 0)
(29.4375 0.0349952 0)
(29.2689 0.0521103 0)
(29.0234 0.082726 0)
(28.7127 0.117118 0)
(28.3309 0.161482 0)
(27.8389 0.229844 0)
(27.2432 0.332143 0)
(26.4552 0.498809 0)
(25.5092 0.754194 0)
(24.0669 1.25493 0)
(22.333 2.0661 0)
(19.4276 3.99048 0)
(15.2222 6.17014 0)
(8.09099 11.4022 0)
(29.9952 0.000246022 0)
(29.9922 0.00235338 0)
(29.9428 0.00863539 0)
(29.9123 0.00577456 0)
(29.8556 0.00721453 0)
(29.7866 0.0123988 0)
(29.69 0.0248661 0)
(29.5712 0.0339726 0)
(29.4397 0.0363855 0)
(29.2688 0.054433 0)
(29.0192 0.0860871 0)
(28.7086 0.121918 0)
(28.3265 0.168313 0)
(27.834 0.239391 0)
(27.2374 0.345837 0)
(26.448 0.518091 0)
(25.4993 0.784173 0)
(24.0569 1.29947 0)
(22.3417 2.13922 0)
(19.4629 4.11754 0)
(15.3914 6.39548 0)
(8.24715 11.9172 0)
(29.9948 0.00026852 0)
(29.9948 0.00247056 0)
(29.9312 0.00895186 0)
(29.911 0.00598607 0)
(29.8596 0.00749017 0)
(29.7895 0.0128869 0)
(29.6879 0.0257685 0)
(29.569 0.0352205 0)
(29.4388 0.0377762 0)
(29.2656 0.0568109 0)
(29.0153 0.0894777 0)
(28.7049 0.126723 0)
(28.3223 0.175151 0)
(27.8292 0.248952 0)
(27.2316 0.359558 0)
(26.4403 0.53742 0)
(25.4889 0.81417 0)
(24.0467 1.34373 0)
(22.3504 2.2116 0)
(19.4999 4.24162 0)
(15.5695 6.61839 0)
(8.40982 12.4399 0)
(29.9954 0.000291086 0)
(29.9912 0.00259542 0)
(29.9433 0.00923764 0)
(29.9126 0.00619399 0)
(29.856 0.00776839 0)
(29.7865 0.013384 0)
(29.6907 0.026666 0)
(29.572 0.0364667 0)
(29.4418 0.039226 0)
(29.264 0.0591348 0)
(29.0117 0.0928973 0)
(28.7013 0.131533 0)
(28.3183 0.181998 0)
(27.8246 0.258531 0)
(27.2257 0.373311 0)
(26.4321 0.5568 0)
(25.4779 0.844189 0)
(24.0362 1.38771 0)
(22.3589 2.28321 0)
(19.5385 4.36252 0)
(15.7574 6.83878 0)
(8.57933 12.9704 0)
(29.995 0.000315788 0)
(29.994 0.00271644 0)
(29.9309 0.00954711 0)
(29.9111 0.00640235 0)
(29.8601 0.00804544 0)
(29.7895 0.0138737 0)
(29.6885 0.0275607 0)
(29.5697 0.0377036 0)
(29.4405 0.0406952 0)
(29.262 0.0614537 0)
(29.0083 0.0963437 0)
(28.6978 0.136347 0)
(28.3144 0.188854 0)
(27.8199 0.268127 0)
(27.2197 0.387101 0)
(26.4235 0.576234 0)
(25.4664 0.874234 0)
(24.0253 1.43139 0)
(22.3672 2.35404 0)
(19.5785 4.48006 0)
(15.9558 7.05655 0)
(8.75607 13.5092 0)
(29.9956 0.000340316 0)
(29.9905 0.0028453 0)
(29.9436 0.00982553 0)
(29.9125 0.00660952 0)
(29.856 0.00832545 0)
(29.786 0.0143729 0)
(29.691 0.0284512 0)
(29.5724 0.0389441 0)
(29.4431 0.0421924 0)
(29.2604 0.063775 0)
(29.0049 0.0998111 0)
(28.6944 0.141164 0)
(28.3106 0.195719 0)
(27.8154 0.277745 0)
(27.2134 0.400931 0)
(26.4143 0.595729 0)
(25.4541 0.904303 0)
(24.0142 1.47478 0)
(22.3751 2.42404 0)
(19.6196 4.59401 0)
(16.165 7.2716 0)
(8.9404 14.0568 0)
(29.9953 0.000367018 0)
(29.9932 0.00296981 0)
(29.9306 0.01013 0)
(29.9111 0.00681773 0)
(29.8606 0.00860406 0)
(29.7895 0.0148636 0)
(29.6889 0.0293385 0)
(29.5703 0.0401748 0)
(29.4418 0.0437006 0)
(29.2583 0.0660961 0)
(29.0017 0.103294 0)
(28.6911 0.145985 0)
(28.3069 0.202595 0)
(27.8108 0.287386 0)
(27.2069 0.414809 0)
(26.4045 0.615292 0)
(25.4412 0.934393 0)
(24.0028 1.51788 0)
(22.3828 2.49322 0)
(19.6614 4.70418 0)
(16.3849 7.48381 0)
(9.1327 14.6134 0)
(29.9958 0.000393489 0)
(29.9896 0.00310268 0)
(29.944 0.0103999 0)
(29.9128 0.00702266 0)
(29.8564 0.00888553 0)
(29.7859 0.0153643 0)
(29.6916 0.0302214 0)
(29.5732 0.0414077 0)
(29.445 0.0452367 0)
(29.256 0.0684348 0)
(28.9984 0.106787 0)
(28.6878 0.15081 0)
(28.3033 0.209481 0)
(27.8062 0.297053 0)
(27.2002 0.42874 0)
(26.3943 0.634927 0)
(25.4277 0.964502 0)
(23.991 1.56067 0)
(22.3901 2.56155 0)
(19.7036 4.81035 0)
(16.6154 7.69304 0)
(9.33329 15.1796 0)
(29.9955 0.000422201 0)
(29.9925 0.00323062 0)
(29.9302 0.0106981 0)
(29.9111 0.00722842 0)
(29.8611 0.00916616 0)
(29.7896 0.0158561 0)
(29.6895 0.0311006 0)
(29.5712 0.0426287 0)
(29.4436 0.0467856 0)
(29.2532 0.0707923 0)
(28.9951 0.110287 0)
(28.6845 0.155637 0)
(28.2997 0.216377 0)
(27.8016 0.306749 0)
(27.1932 0.442729 0)
(26.3835 0.654641 0)
(25.4134 0.994625 0)
(23.979 1.60315 0)
(22.397 2.62902 0)
(19.746 4.91232 0)
(16.8561 7.89915 0)
(9.54246 15.7557 0)
(29.996 0.000450464 0)
(29.9889 0.00336728 0)
(29.9444 0.0109602 0)
(29.913 0.00743012 0)
(29.8567 0.00944917 0)
(29.7859 0.0163592 0)
(29.6923 0.0319762 0)
(29.5743 0.0438472 0)
(29.4472 0.0483652 0)
(29.25 0.0731721 0)
(28.9918 0.11379 0)
(28.6812 0.160466 0)
(28.2961 0.223283 0)
(27.7969 0.316475 0)
(27.186 0.456783 0)
(26.3722 0.674438 0)
(25.3985 1.02476 0)
(23.9667 1.64532 0)
(22.4038 2.69563 0)
(19.7884 5.00991 0)
(17.1064 8.10196 0)
(9.76049 16.3422 0)
(29.9956 0.000480938 0)
(29.9918 0.00349865 0)
(29.9297 0.0112544 0)
(29.9109 0.0076326 0)
(29.8613 0.00972892 0)
(29.7896 0.0168517 0)
(29.6899 0.032852 0)
(29.5718 0.0450525 0)
(29.4456 0.0499074 0)
(29.2464 0.0755699 0)
(28.9885 0.117294 0)
(28.678 0.165298 0)
(28.2926 0.230202 0)
(27.7922 0.326234 0)
(27.1785 0.470904 0)
(26.3603 0.694322 0)
(25.3828 1.0549 0)
(23.9541 1.68717 0)
(22.4103 2.76137 0)
(19.8307 5.10294 0)
(17.3661 8.30132 0)
(9.98759 16.9394 0)
(29.9962 0.000510717 0)
(29.9883 0.00363901 0)
(29.9445 0.0115127 0)
(29.9127 0.00783446 0)
(29.8565 0.0100099 0)
(29.7856 0.0173535 0)
(29.6924 0.0337228 0)
(29.575 0.046293 0)
(29.4464 0.0513937 0)
(29.2424 0.0779895 0)
(28.9851 0.120796 0)
(28.6746 0.170131 0)
(28.289 0.237131 0)
(27.7874 0.336029 0)
(27.1708 0.485099 0)
(26.348 0.714298 0)
(25.3666 1.08504 0)
(23.9413 1.72869 0)
(22.4167 2.82625 0)
(19.8728 5.19123 0)
(17.635 8.49703 0)
(10.224 17.5479 0)
(29.9958 0.000542643 0)
(29.9912 0.003774 0)
(29.9291 0.0118052 0)
(29.9103 0.00803963 0)
(29.8613 0.010289 0)
(29.7895 0.0178408 0)
(29.6896 0.0345879 0)
(29.5733 0.0475258 0)
(29.4428 0.0531029 0)
(29.2382 0.0804487 0)
(28.9818 0.124294 0)
(28.6713 0.174965 0)
(28.2855 0.244073 0)
(27.7825 0.345863 0)
(27.1628 0.49937 0)
(26.3352 0.734371 0)
(25.3497 1.11519 0)
(23.9282 1.76988 0)
(22.4232 2.89027 0)
(19.9145 5.27463 0)
(17.9132 8.6889 0)
(10.4699 18.168 0)
(29.9963 0.000573677 0)
(29.9878 0.00391788 0)
(29.9448 0.0120582 0)
(29.912 0.00824403 0)
(29.8558 0.0105768 0)
(29.7849 0.0183437 0)
(29.6915 0.0354423 0)
(29.5771 0.0488042 0)
(29.4411 0.0548819 0)
(29.234 0.08295 0)
(28.9783 0.127788 0)
(28.6679 0.179801 0)
(28.2819 0.251027 0)
(27.7775 0.355739 0)
(27.1545 0.513722 0)
(26.322 0.754543 0)
(25.3323 1.14533 0)
(23.9149 1.81072 0)
(22.4298 2.95342 0)
(19.9556 5.35295 0)
(18.2007 8.87673 0)
(10.7255 18.8001 0)
(29.996 0.000606911 0)
(29.9907 0.00405656 0)
(29.9287 0.0123484 0)
(29.9099 0.00844162 0)
(29.8612 0.010864 0)
(29.7894 0.0188476 0)
(29.6892 0.036279 0)
(29.5752 0.0500957 0)
(29.4392 0.0565186 0)
(29.2299 0.0854792 0)
(28.9749 0.131278 0)
(28.6645 0.184637 0)
(28.2783 0.257994 0)
(27.7724 0.365658 0)
(27.146 0.528157 0)
(26.3084 0.774817 0)
(25.3143 1.17547 0)
(23.9013 1.85121 0)
(22.4366 3.01571 0)
(19.9957 5.42604 0)
(18.4975 9.06032 0)
(10.9911 19.4447 0)
(29.9964 0.00063866 0)
(29.9874 0.00420517 0)
(29.944 0.0126096 0)
(29.9117 0.00862529 0)
(29.856 0.011137 0)
(29.7853 0.0193893 0)
(29.6912 0.0371489 0)
(29.5809 0.0513363 0)
(29.4379 0.0581237 0)
(29.2261 0.088026 0)
(28.9715 0.134765 0)
(28.661 0.189475 0)
(28.2746 0.264979 0)
(27.7673 0.37562 0)
(27.1374 0.542678 0)
(26.2945 0.795196 0)
(25.296 1.2056 0)
(23.8875 1.89134 0)
(22.4439 3.07718 0)
(20.034 5.49372 0)
(18.8022 9.23947 0)
(11.2668 20.1021 0)
(29.9962 0.000672873 0)
(29.9898 0.00434365 0)
(29.9298 0.0129167 0)
(29.91 0.00883051 0)
(29.8608 0.0113261 0)
(29.7896 0.0198722 0)
(29.6876 0.0380402 0)
(29.5862 0.0525401 0)
(29.4366 0.0597977 0)
(29.2226 0.0905849 0)
(28.9681 0.13825 0)
(28.6575 0.194315 0)
(28.271 0.271977 0)
(27.762 0.385628 0)
(27.1285 0.557285 0)
(26.2803 0.81568 0)
(25.2774 1.23572 0)
(23.8734 1.93109 0)
(22.4517 3.13785 0)
(20.0697 5.55589 0)
(19.111 9.41413 0)
(11.5528 20.7737 0)
(29.9966 0.000708651 0)
(29.9868 0.00447434 0)
(29.9451 0.0131498 0)
(29.9119 0.00921848 0)
(29.8556 0.0115689 0)
(29.7853 0.0202317 0)
(29.6875 0.0388744 0)
(29.5948 0.0537955 0)
(29.4353 0.0615621 0)
(29.2193 0.0931524 0)
(28.9647 0.141732 0)
(28.6539 0.199158 0)
(28.2673 0.278989 0)
(27.7567 0.395678 0)
(27.1194 0.57198 0)
(26.2659 0.836276 0)
(25.2585 1.26584 0)
(23.8591 1.97046 0)
(22.4601 3.19776 0)
(20.1023 5.61255 0)
(19.4156 9.58398 0)
(11.8483 21.466 0)
(29.996 0.000746118 0)
(29.9897 0.00461165 0)
(29.9257 0.0131656 0)
(29.9079 0.00955385 0)
(29.8601 0.0121293 0)
(29.7917 0.020675 0)
(29.6849 0.0393978 0)
(29.5981 0.0550576 0)
(29.434 0.0634076 0)
(29.2164 0.0957303 0)
(28.9613 0.145193 0)
(28.6503 0.203988 0)
(28.2635 0.286023 0)
(27.7512 0.405781 0)
(27.1102 0.586775 0)
(26.2514 0.856993 0)
(25.2396 1.29598 0)
(23.8446 2.00944 0)
(22.4694 3.25701 0)
(20.1318 5.66386 0)
(19.7032 9.74702 0)
(12.2382 22.202 0)
(-0.959131 0.0787496 0)
(-6.14949 0.107894 0)
(-11.0133 0.0582933 0)
(-11.538 -0.0110795 0)
(-9.37386 -0.0335288 0)
(-7.68118 -0.0228983 0)
(-6.59817 -0.0174868 0)
(-5.34338 -0.0182935 0)
(-3.86208 -0.0200148 0)
(-2.06586 -0.0239918 0)
(0.321226 -0.0258697 0)
(2.72967 -0.0244546 0)
(5.39179 -0.0235398 0)
(8.03383 -0.0215536 0)
(10.6616 -0.0220346 0)
(14.0221 -0.0209 0)
(16.6494 -0.0127963 0)
(17.9555 -0.00666915 0)
(18.8262 -0.00462469 0)
(19.5897 -0.00393267 0)
(20.3468 -0.00357106 0)
(21.0984 -0.00363724 0)
(21.998 -0.00645464 0)
(24.3088 -0.00956326 0)
(27.1751 -0.00705913 0)
(28.4208 -0.00255309 0)
(28.7808 -0.000801507 0)
(28.9668 -0.00047488 0)
(29.1309 -0.000395952 0)
(29.2833 -0.00031209 0)
(29.4004 -0.000228361 0)
(29.4973 -0.000163757 0)
(29.5662 -0.000125115 0)
(29.6353 -9.91267e-05 0)
(29.6837 -3.88887e-05 0)
(-1.00209 0.241749 0)
(-6.29235 0.323221 0)
(-10.9789 0.166434 0)
(-11.3276 -0.0437357 0)
(-9.03464 -0.102564 0)
(-7.40236 -0.0632143 0)
(-6.45179 -0.0484424 0)
(-5.34253 -0.0525394 0)
(-3.92022 -0.0593224 0)
(-2.08686 -0.0702178 0)
(0.242601 -0.0751071 0)
(2.56157 -0.0731853 0)
(5.13469 -0.0708347 0)
(7.72674 -0.0651346 0)
(10.2393 -0.0683992 0)
(13.4697 -0.0634774 0)
(16.4111 -0.0400803 0)
(17.8892 -0.0202373 0)
(18.8003 -0.0137585 0)
(19.5689 -0.0117219 0)
(20.3263 -0.0107169 0)
(21.0817 -0.0107208 0)
(21.9396 -0.0189166 0)
(24.147 -0.028697 0)
(27.0735 -0.021676 0)
(28.4008 -0.00789703 0)
(28.7809 -0.00244304 0)
(28.9671 -0.00142317 0)
(29.1305 -0.00118634 0)
(29.2825 -0.000936334 0)
(29.3999 -0.000686434 0)
(29.4973 -0.000492521 0)
(29.5664 -0.000375686 0)
(29.6354 -0.000297632 0)
(29.6841 -0.000117087 0)
(-1.05377 0.405726 0)
(-6.36793 0.534339 0)
(-10.8365 0.270202 0)
(-10.9829 -0.079082 0)
(-8.68265 -0.172759 0)
(-7.17143 -0.102216 0)
(-6.32861 -0.0765665 0)
(-5.27856 -0.0843548 0)
(-3.85094 -0.0989351 0)
(-1.99829 -0.117161 0)
(0.228574 -0.122902 0)
(2.46314 -0.118763 0)
(4.97053 -0.115783 0)
(7.52016 -0.106485 0)
(9.94651 -0.11006 0)
(13.0084 -0.107539 0)
(16.1735 -0.0696835 0)
(17.8215 -0.0350265 0)
(18.7774 -0.0230694 0)
(19.5538 -0.0194615 0)
(20.3133 -0.017845 0)
(21.0731 -0.0176722 0)
(21.8923 -0.0307842 0)
(24.0056 -0.0475455 0)
(26.981 -0.036682 0)
(28.3821 -0.0135792 0)
(28.7814 -0.00415472 0)
(28.9677 -0.00236986 0)
(29.1304 -0.00197338 0)
(29.2821 -0.00155998 0)
(29.3996 -0.00114578 0)
(29.4975 -0.000822567 0)
(29.5668 -0.000626462 0)
(29.6357 -0.000496139 0)
(29.6845 -0.000195551 0)
(-1.09103 0.572547 0)
(-6.37768 0.741252 0)
(-10.6259 0.365712 0)
(-10.5603 -0.11962 0)
(-8.27803 -0.240544 0)
(-6.88307 -0.136654 0)
(-6.12958 -0.10218 0)
(-5.11869 -0.115491 0)
(-3.68053 -0.138733 0)
(-1.82117 -0.162726 0)
(0.28739 -0.168964 0)
(2.44649 -0.163671 0)
(4.90079 -0.160126 0)
(7.41366 -0.147304 0)
(9.78421 -0.15085 0)
(12.6582 -0.151672 0)
(15.9207 -0.102407 0)
(17.7441 -0.0513882 0)
(18.7559 -0.032836 0)
(19.5445 -0.027338 0)
(20.3081 -0.0250336 0)
(21.0725 -0.0244792 0)
(21.8565 -0.0421514 0)
(23.8846 -0.0662107 0)
(26.8973 -0.0521146 0)
(28.3647 -0.0195516 0)
(28.7823 -0.00592191 0)
(28.9687 -0.00331492 0)
(29.1306 -0.00275765 0)
(29.2818 -0.00218319 0)
(29.3995 -0.00160651 0)
(29.4978 -0.00115394 0)
(29.5673 -0.000877397 0)
(29.636 -0.000694615 0)
(29.6849 -0.00027421 0)
(-1.11176 0.739783 0)
(-6.33082 0.942355 0)
(-10.3491 0.452892 0)
(-10.0593 -0.163931 0)
(-7.80787 -0.306033 0)
(-6.51778 -0.168087 0)
(-5.84242 -0.126096 0)
(-4.85227 -0.146302 0)
(-3.39658 -0.178751 0)
(-1.53867 -0.207064 0)
(0.446384 -0.213198 0)
(2.53663 -0.207492 0)
(4.94331 -0.203782 0)
(7.41965 -0.187463 0)
(9.75366 -0.189786 0)
(12.4468 -0.193935 0)
(15.6635 -0.136867 0)
(17.6541 -0.0693631 0)
(18.7358 -0.0430956 0)
(19.5422 -0.035339 0)
(20.3115 -0.0322733 0)
(21.0802 -0.031168 0)
(21.8319 -0.0530672 0)
(23.7831 -0.0846749 0)
(26.8223 -0.0678694 0)
(28.3487 -0.0257871 0)
(28.7834 -0.0077438 0)
(28.97 -0.00425834 0)
(29.131 -0.0035388 0)
(29.2818 -0.00280566 0)
(29.3996 -0.00206841 0)
(29.4984 -0.00148648 0)
(29.5679 -0.00112832 0)
(29.6365 -0.000892875 0)
(29.6853 -0.000352893 0)
(-1.11517 0.905695 0)
(-6.23475 1.13636 0)
(-10.0076 0.531397 0)
(-9.48663 -0.212215 0)
(-7.27067 -0.369493 0)
(-6.06755 -0.196864 0)
(-5.46368 -0.148727 0)
(-4.47582 -0.177145 0)
(-2.99472 -0.219016 0)
(-1.14033 -0.250043 0)
(0.740385 -0.255538 0)
(2.77321 -0.25027 0)
(5.13225 -0.246635 0)
(7.56353 -0.226944 0)
(9.86946 -0.227197 0)
(12.3924 -0.233512 0)
(15.438 -0.171468 0)
(17.5554 -0.08881 0)
(18.7192 -0.0539155 0)
(19.5492 -0.0434824 0)
(20.325 -0.0395633 0)
(21.097 -0.037746 0)
(21.8182 -0.06357 0)
(23.6995 -0.102934 0)
(26.756 -0.0838813 0)
(28.3342 -0.0322559 0)
(28.7848 -0.00961673 0)
(28.9716 -0.00520001 0)
(29.1318 -0.00431664 0)
(29.2821 -0.00342714 0)
(29.3999 -0.00253132 0)
(29.4991 -0.00182003 0)
(29.5687 -0.00137908 0)
(29.6371 -0.00109074 0)
(29.6858 -0.000431451 0)
(-1.10114 1.0688 0)
(-6.09529 1.32222 0)
(-9.60403 0.601017 0)
(-8.85339 -0.264604 0)
(-6.677 -0.431198 0)
(-5.53792 -0.223462 0)
(-5.0021 -0.170407 0)
(-4.00204 -0.208339 0)
(-2.49035 -0.259648 0)
(-0.634883 -0.292081 0)
(1.19263 -0.296596 0)
(3.19501 -0.29228 0)
(5.50976 -0.288698 0)
(7.88316 -0.265881 0)
(10.1643 -0.263287 0)
(12.5184 -0.270442 0)
(15.2982 -0.204757 0)
(17.464 -0.109363 0)
(18.7116 -0.0653666 0)
(19.5696 -0.0517951 0)
(20.351 -0.0468957 0)
(21.1239 -0.0442112 0)
(21.8156 -0.0736891 0)
(23.632 -0.120983 0)
(26.6979 -0.100098 0)
(28.3212 -0.038931 0)
(28.7867 -0.0115372 0)
(28.9736 -0.00613986 0)
(29.1329 -0.00509096 0)
(29.2827 -0.00404738 0)
(29.4004 -0.00299511 0)
(29.5001 -0.00215446 0)
(29.5696 -0.00162952 0)
(29.6379 -0.00128805 0)
(29.6864 -0.000509741 0)
(-1.06996 1.22776 0)
(-5.91717 1.49899 0)
(-9.1424 0.661634 0)
(-8.17381 -0.32098 0)
(-6.04532 -0.491354 0)
(-4.94494 -0.24833 0)
(-4.47585 -0.191315 0)
(-3.45798 -0.240073 0)
(-1.91588 -0.300718 0)
(-0.0531348 -0.333901 0)
(1.78415 -0.337362 0)
(3.79726 -0.333877 0)
(6.08816 -0.329999 0)
(8.40754 -0.30441 0)
(10.6708 -0.298124 0)
(12.8675 -0.304657 0)
(15.3047 -0.235682 0)
(17.4113 -0.130337 0)
(18.7238 -0.0774214 0)
(19.6097 -0.0602819 0)
(20.393 -0.0542463 0)
(21.1625 -0.0505496 0)
(21.8241 -0.0834417 0)
(23.5788 -0.138811 0)
(26.6478 -0.116472 0)
(28.3097 -0.0457872 0)
(28.7889 -0.0135015 0)
(28.976 -0.00707779 0)
(29.1343 -0.00586158 0)
(29.2835 -0.00466615 0)
(29.4012 -0.00345964 0)
(29.5013 -0.00248964 0)
(29.5706 -0.00187946 0)
(29.6387 -0.00148462 0)
(29.6869 -0.000587616 0)
(-1.02221 1.38135 0)
(-5.70439 1.66582 0)
(-8.62769 0.713209 0)
(-7.45809 -0.380881 0)
(-5.39337 -0.550034 0)
(-4.30822 -0.27187 0)
(-3.90464 -0.211478 0)
(-2.8728 -0.272353 0)
(-1.30576 -0.34226 0)
(0.567875 -0.376148 0)
(2.45508 -0.378702 0)
(4.5121 -0.37554 0)
(6.81274 -0.370738 0)
(9.11328 -0.342604 0)
(11.3741 -0.331859 0)
(13.4692 -0.33567 0)
(15.5221 -0.263505 0)
(17.4447 -0.150801 0)
(18.775 -0.0898745 0)
(19.6791 -0.0688946 0)
(20.456 -0.0615644 0)
(21.2151 -0.0567307 0)
(21.8442 -0.0928307 0)
(23.5386 -0.156407 0)
(26.6052 -0.132965 0)
(28.3 -0.0528007 0)
(28.7915 -0.015506 0)
(28.9788 -0.00801365 0)
(29.1361 -0.00662828 0)
(29.2847 -0.00528318 0)
(29.4021 -0.00392473 0)
(29.5027 -0.00282541 0)
(29.5719 -0.00212873 0)
(29.6397 -0.00168027 0)
(29.6875 -0.000664926 0)
(-0.958613 1.52844 0)
(-5.46049 1.82196 0)
(-8.06577 0.75577 0)
(-6.71365 -0.443713 0)
(-4.7347 -0.607224 0)
(-3.64602 -0.29443 0)
(-3.30337 -0.230831 0)
(-2.26656 -0.305021 0)
(-0.681974 -0.384212 0)
(1.20263 -0.419122 0)
(3.15002 -0.42113 0)
(5.26338 -0.417798 0)
(7.59877 -0.411505 0)
(9.92304 -0.380731 0)
(12.1969 -0.365038 0)
(14.2666 -0.363435 0)
(15.9966 -0.287576 0)
(17.6244 -0.169706 0)
(18.8946 -0.102291 0)
(19.7915 -0.0774958 0)
(20.5474 -0.0687583 0)
(21.285 -0.0627008 0)
(21.8765 -0.101842 0)
(23.5099 -0.173754 0)
(26.5698 -0.14954 0)
(28.2919 -0.0599487 0)
(28.7946 -0.0175466 0)
(28.9819 -0.00894727 0)
(29.1382 -0.00739084 0)
(29.2862 -0.00589822 0)
(29.4034 -0.00439023 0)
(29.5044 -0.00316159 0)
(29.5732 -0.00237713 0)
(29.6409 -0.00187483 0)
(29.6882 -0.000741519 0)
(-0.879998 1.668 0)
(-5.18859 1.96679 0)
(-7.46225 0.789323 0)
(-5.94425 -0.508693 0)
(-4.07692 -0.662703 0)
(-2.97405 -0.316325 0)
(-2.6816 -0.24935 0)
(-1.64919 -0.337879 0)
(-0.0556858 -0.426531 0)
(1.84057 -0.46288 0)
(3.84461 -0.464736 0)
(6.01639 -0.461051 0)
(8.39686 -0.452937 0)
(10.766 -0.419198 0)
(13.058 -0.398274 0)