/*--------------------------------*- C++ -*----------------------------------*\
| =========                 |                                                 |
| \\      /  F ield         | OpenFOAM: The Open Source CFD Toolbox           |
|  \\    /   O peration     | Version:  v1912                                 |
|   \\  /    A nd           | Website:  www.openfoam.com                      |
|    \\/     M anipulation  |                                                 |
\*---------------------------------------------------------------------------*/
FoamFile
{
    version     2.0;
    format      ascii;
    class       volScalarField;
    location    "100";
    object      yPlus;
}
// * * * * * * * * * * * * * * * * * * * * * * * * * * * * * * * * * * * * * //

dimensions      [0 0 0 0 0 0 0];


internalField   uniform 0;

boundaryField
{
    inlet
    {
        type            calculated;
        value           uniform 0;
    }
    outlet
    {
        type            calculated;
        value           uniform 0;
    }
    lowerSymmetry
    {
        type            symmetryPlane;
    }
    obstical
    {
        type            calculated;
        value           nonuniform List<scalar> 
88
(
515.198
516.707
520.286
526.233
534.483
544.927
557.454
571.949
588.297
606.385
626.099
647.326
669.957
693.882
718.997
745.206
772.42
800.559
829.558
859.359
889.919
921.202
953.183
985.845
1019.18
1053.19
1087.88
1123.25
1159.33
1196.13
1233.67
1271.97
1311.06
1350.96
1391.69
1433.26
1475.7
1519.04
1563.29
1608.47
1654.6
1701.76
1750.3
1804.12
95.3606
101.172
109.446
118.027
126.556
134.849
142.813
150.409
157.628
164.479
170.976
177.141
182.992
188.553
193.847
198.901
203.746
208.418
212.956
217.398
221.777
226.095
230.209
234.065
237.59
240.71
243.343
245.404
246.792
247.401
247.113
245.799
243.263
239.168
232.949
223.845
211.03
193.796
171.613
144.066
110.672
70.6502
23.585
51.5967
)
;
    }
    obsticalTop
    {
        type            calculated;
        value           nonuniform List<scalar> 
20
(
52.5238
36.6697
45.64
52.1174
55.1633
56.9511
57.6762
57.5154
56.7076
55.3942
53.5632
51.1264
48.0079
44.0548
39.2416
32.9612
26.9625
17.8533
16.1621
10.353
)
;
    }
    top
    {
        type            calculated;
        value           uniform 0;
    }
    defaultFaces
    {
        type            empty;
    }
}


// ************************************************************************* //
