/*--------------------------------*- C++ -*----------------------------------*\
| =========                 |                                                 |
| \\      /  F ield         | OpenFOAM: The Open Source CFD Toolbox           |
|  \\    /   O peration     | Version:  v1912                                 |
|   \\  /    A nd           | Website:  www.openfoam.com                      |
|    \\/     M anipulation  |                                                 |
\*---------------------------------------------------------------------------*/
FoamFile
{
    version     2.0;
    format      ascii;
    class       volScalarField;
    location    "125";
    object      epsilon;
}
// * * * * * * * * * * * * * * * * * * * * * * * * * * * * * * * * * * * * * //

dimensions      [0 2 -3 0 0 0 0];


internalField   nonuniform List<scalar> 
2000
(
0.0135126
0.0111846
0.00819028
0.00480162
0.00122349
0.000123568
9.88475e-05
0.000115574
0.000118755
9.37673e-05
5.6328e-05
3.70057e-05
4.12665e-05
4.65604e-05
5.29826e-05
6.27584e-05
7.64407e-05
9.36559e-05
0.000114685
0.000140426
0.000172084
0.00021108
0.00025898
0.000317378
0.000387734
0.000471185
0.000568396
0.000679479
0.000803985
0.000940983
0.00108918
0.00124707
0.00141306
0.00158567
0.00176368
0.00194639
0.0021338
0.00232698
0.00252858
0.00274381
0.00296748
0.0031947
0.00342618
0.0036628
0.00390489
0.00415234
0.00440469
0.00466126
0.0049212
0.00518359
0.00544743
0.00571171
0.00597545
0.00623741
0.00649477
0.00674701
0.00699401
0.00723624
0.0074765
0.00772635
0.00801445
0.00832646
0.00865152
0.00898513
0.0093267
0.0096774
0.0100394
0.0104156
0.0108099
0.011227
0.0116727
0.0121542
0.0126807
0.0132635
0.0139185
0.0146668
0.0155416
0.0165938
0.017905
0.0198727
0.122256
0.040141
0.018526
0.0102232
0.00590951
0.0034821
0.0020655
0.00119501
0.00150625
0.00072387
0.000320405
0.000215022
0.00017221
0.000138236
0.000115385
0.000113466
0.000123758
0.000139979
0.00016145
0.00018873
0.000222603
0.000264151
0.000314721
0.000375775
0.000448757
0.000534951
0.000635351
0.000750571
0.000880791
0.00102569
0.00118447
0.00135586
0.00153821
0.00172966
0.00192836
0.0021327
0.00234151
0.00255371
0.00276818
0.00297976
0.00318907
0.00339765
0.00360611
0.00381515
0.00402496
0.00423527
0.00444549
0.00465485
0.00486248
0.00506746
0.00526896
0.00546644
0.00566041
0.00585256
0.00603047
0.00619777
0.00635524
0.00650311
0.00664205
0.00677361
0.0068995
0.00701936
0.00713331
0.00724163
0.00734498
0.00744449
0.00754167
0.00763839
0.00773684
0.00783956
0.0079494
0.00806958
0.0082037
0.00835548
0.00852906
0.00872583
0.00895191
0.00917325
0.0094739
0.00948079
0.111974
0.0306051
0.012653
0.00692925
0.00433054
0.00288096
0.00200555
0.00147689
0.00140356
0.00135008
0.00135708
0.00156494
0.00159975
0.000996104
0.000635088
0.000483526
0.000431793
0.000413814
0.000418245
0.000440281
0.000476324
0.000525069
0.000586602
0.000661347
0.000750001
0.00085348
0.000972668
0.00110814
0.00126003
0.00142794
0.00161091
0.00180755
0.00201616
0.00223507
0.002463
0.00269938
0.00294445
0.00320145
0.00345902
0.00371499
0.0039702
0.00422271
0.00447099
0.00471614
0.00495784
0.00519518
0.00542698
0.00565193
0.00586867
0.00607586
0.00627222
0.00645666
0.00662828
0.00678625
0.00692895
0.00705597
0.00716721
0.00726276
0.00734295
0.00740837
0.00746004
0.00749925
0.00752752
0.00754632
0.00755729
0.00756225
0.00756329
0.0075627
0.00756299
0.00756684
0.00757712
0.00759681
0.0076289
0.00767611
0.00774048
0.00782157
0.00791721
0.00800322
0.00811731
0.00800924
0.109259
0.0268
0.00926401
0.00444685
0.00268922
0.00184502
0.00135666
0.00105191
0.000923112
0.000896999
0.000969477
0.00122704
0.00168774
0.0021297
0.0024849
0.00249564
0.00215735
0.00178278
0.00153755
0.00141148
0.00136036
0.00135689
0.00138761
0.00144433
0.0015222
0.00161902
0.00173422
0.00186783
0.00202001
0.00219086
0.00238025
0.00258775
0.00281249
0.00305369
0.00331197
0.00358906
0.00388529
0.00418204
0.00447789
0.00477122
0.00505933
0.00533981
0.00561105
0.00587203
0.0061217
0.00635887
0.00658222
0.00679041
0.0069821
0.00715605
0.00731116
0.00744654
0.00756158
0.00765587
0.00772924
0.00778186
0.00781422
0.00782714
0.00782168
0.00779916
0.00776123
0.00770982
0.00764708
0.00757521
0.00749651
0.00741334
0.00732816
0.00724348
0.00716185
0.00708589
0.0070182
0.00696138
0.00691784
0.00688965
0.00687807
0.00688229
0.00689998
0.00691332
0.00695172
0.00684043
0.108843
0.0260421
0.00822879
0.00339495
0.00179872
0.00115712
0.000843051
0.00066247
0.000564065
0.000521985
0.000531734
0.000620474
0.000836687
0.0012067
0.00178468
0.00256987
0.0033601
0.00393123
0.00418542
0.00416559
0.00399804
0.00380309
0.00364634
0.003546
0.00349804
0.00349356
0.00352536
0.00358891
0.00368165
0.00380228
0.00394994
0.0041238
0.00432273
0.00454611
0.00480409
0.00508003
0.00535917
0.00563855
0.00591445
0.00618383
0.00644346
0.0066903
0.00692188
0.00713626
0.00733187
0.00750734
0.00766148
0.00779326
0.00790182
0.00798656
0.00804711
0.00808342
0.00809577
0.00808478
0.00805137
0.0079968
0.00792263
0.00783066
0.00772292
0.00760162
0.00746909
0.0073278
0.00718027
0.007029
0.00687642
0.0067249
0.00657672
0.00643409
0.00629913
0.00617391
0.0060604
0.00596052
0.00587606
0.00580851
0.0057589
0.00572682
0.00571126
0.00569983
0.0057187
0.0056406
0.108786
0.0259478
0.00802267
0.00308855
0.00145461
0.000827134
0.000552296
0.000415613
0.000342875
0.000305235
0.000292792
0.000309558
0.000371644
0.000500795
0.000736343
0.00113567
0.00172084
0.00248498
0.00338479
0.00432508
0.0051818
0.0058519
0.0062928
0.00652556
0.00660839
0.00660528
0.00656714
0.00652701
0.00650336
0.00650537
0.006537
0.00659922
0.00669503
0.0068229
0.00696167
0.00710984
0.00726406
0.00742051
0.0075748
0.00772279
0.00786057
0.0079846
0.00809191
0.00818012
0.00824743
0.00829245
0.00831424
0.00831225
0.0082863
0.0082366
0.00816375
0.00806872
0.00795288
0.00781788
0.00766572
0.0074986
0.00731892
0.00712922
0.00693207
0.00673005
0.00652567
0.00632137
0.00611945
0.00592202
0.00573099
0.00554809
0.00537486
0.00521267
0.00506276
0.00492627
0.00480429
0.00469786
0.00460799
0.00453563
0.00448156
0.00444583
0.00442869
0.00442185
0.00444849
0.00441744
0.108778
0.0259454
0.00799961
0.00302532
0.0013556
0.000706586
0.00042422
0.000289787
0.00022157
0.000186121
0.000169228
0.000166421
0.000179675
0.000215106
0.00028506
0.000411034
0.00061151
0.000906602
0.00131787
0.00186134
0.00254066
0.00334041
0.0042222
0.00512763
0.00598964
0.00674875
0.00736712
0.00783419
0.00816303
0.00838105
0.00852
0.0086083
0.00865313
0.00866795
0.00866841
0.00866222
0.00865231
0.00863884
0.00862048
0.0085952
0.00856069
0.00851461
0.00845479
0.00837939
0.00828699
0.00817666
0.00804797
0.00790098
0.00773629
0.00755491
0.0073583
0.00714829
0.00692697
0.00669666
0.00645984
0.00621904
0.00597678
0.0057355
0.00549749
0.00526488
0.00503955
0.00482314
0.00461705
0.00442243
0.00424016
0.00407094
0.0039153
0.00377359
0.00364613
0.00353313
0.00343486
0.00335161
0.00328375
0.00323179
0.00319631
0.00317769
0.00317708
0.00318932
0.00323422
0.00325006
0.108777
0.0259493
0.0080022
0.00301731
0.00133372
0.000671683
0.000379158
0.000238003
0.000165449
0.00012676
0.000106251
9.68317e-05
9.59876e-05
0.000103892
0.000123083
0.000158968
0.000216259
0.000300835
0.000420471
0.000584163
0.000801622
0.00108236
0.00143437
0.00186234
0.00236575
0.00293692
0.00356007
0.00421198
0.00486468
0.00548964
0.00606206
0.00656418
0.00699456
0.00731232
0.00752018
0.00763648
0.00768114
0.00767184
0.00762234
0.0075423
0.00743798
0.00731311
0.00716986
0.00700961
0.00683346
0.00664255
0.00643822
0.00622209
0.00599601
0.00576209
0.00552254
0.0052797
0.00503589
0.00479342
0.00455446
0.00432102
0.00409491
0.00387771
0.00367071
0.00347497
0.00329127
0.00312016
0.00296197
0.00281684
0.00268476
0.00256562
0.0024592
0.00236528
0.0022836
0.00221396
0.00215622
0.00211036
0.00207649
0.00205493
0.00204624
0.00205105
0.00207105
0.00210351
0.0021646
0.00221637
0.108777
0.0259518
0.00800533
0.00301798
0.00133023
0.000663314
0.00036584
0.000220148
0.000143598
0.000101346
7.74123e-05
6.40545e-05
5.75294e-05
5.62366e-05
5.99479e-05
6.95767e-05
8.58645e-05
0.000109789
0.000142759
0.000186435
0.000242711
0.000313683
0.000401586
0.000508694
0.000637158
0.000788736
0.000964454
0.00116424
0.00138662
0.00162854
0.00188535
0.00215106
0.00241999
0.00271847
0.00301657
0.00329596
0.00354198
0.00374444
0.00389787
0.00400107
0.00405607
0.0040671
0.00403951
0.00397906
0.00389141
0.0037818
0.00365498
0.00351517
0.00336606
0.00321093
0.00305262
0.00289363
0.00273613
0.00258196
0.00243268
0.00228955
0.00215357
0.00202548
0.00190581
0.00179489
0.00169287
0.00159978
0.00151554
0.00144001
0.00137298
0.00131422
0.00126351
0.00122063
0.00118542
0.00115776
0.0011376
0.00112503
0.00112024
0.00112361
0.0011358
0.00115761
0.00119092
0.00123481
0.00130168
0.00137165
0.108777
0.0259526
0.00800683
0.00301902
0.00133012
0.00066166
0.000362369
0.000214705
0.000136116
9.18013e-05
6.57624e-05
5.01209e-05
4.08155e-05
3.57287e-05
3.38345e-05
3.48141e-05
3.85178e-05
4.48949e-05
5.40525e-05
6.61447e-05
8.13243e-05
9.97151e-05
0.000121397
0.000146395
0.000174657
0.000206026
0.000240192
0.000276634
0.000314578
0.000352958
0.000390406
0.000425259
0.000455705
0.00048083
0.000517503
0.000564935
0.000621574
0.000684922
0.000751789
0.000818646
0.000882016
0.000938817
0.000986603
0.00102371
0.00104926
0.00106311
0.00106576
0.00105816
0.00104156
0.00101742
0.000987252
0.000952518
0.0009146
0.000874738
0.000834014
0.000793345
0.00075349
0.000715065
0.000678551
0.000644323
0.000612661
0.000583772
0.000557806
0.000534871
0.000515047
0.000498401
0.000484997
0.000474911
0.000468241
0.000465121
0.000465737
0.000470343
0.000479291
0.000493061
0.000512348
0.000538012
0.000571765
0.000613903
0.00067307
0.00074178
0.108777
0.025952
0.00800679
0.00301933
0.00133029
0.000661414
0.000361545
0.000213173
0.00013376
8.85247e-05
6.1476e-05
4.47149e-05
3.41066e-05
2.73934e-05
2.33195e-05
2.12069e-05
2.06819e-05
2.14406e-05
2.3314e-05
2.62085e-05
3.00581e-05
3.47949e-05
4.03327e-05
4.65567e-05
5.33175e-05
6.04244e-05
6.76394e-05
7.46719e-05
8.1178e-05
8.67652e-05
9.10058e-05
9.34595e-05
9.37125e-05
9.14468e-05
8.87524e-05
8.67866e-05
8.57333e-05
8.57601e-05
8.6992e-05
8.94865e-05
9.32136e-05
9.80488e-05
0.000103778
0.000110117
0.000116735
0.000123291
0.00012946
0.000134957
0.00013956
0.000143117
0.000145547
0.000146838
0.000147037
0.000146241
0.000144581
0.000142214
0.000139308
0.000136036
0.000132566
0.000129058
0.000125661
0.000122513
0.000119738
0.000117453
0.000115768
0.000114792
0.000114637
0.000115426
0.000117298
0.000120421
0.000125001
0.000131299
0.000139653
0.000150504
0.000164456
0.000182283
0.000205314
0.000234446
0.000275
0.000326319
0.108777
0.02595
0.00800542
0.00301883
0.00133014
0.000661303
0.000361323
0.000212744
0.000133048
8.74604e-05
5.99953e-05
4.27507e-05
3.15761e-05
2.41801e-05
1.9247e-05
1.60034e-05
1.40319e-05
1.2966e-05
1.25638e-05
1.26736e-05
1.31927e-05
1.40427e-05
1.51557e-05
1.64653e-05
1.79022e-05
1.93911e-05
2.08492e-05
2.21869e-05
2.33097e-05
2.41228e-05
2.45388e-05
2.44874e-05
2.39269e-05
2.2858e-05
2.16839e-05
2.05271e-05
1.93921e-05
1.82852e-05
1.72147e-05
1.61897e-05
1.52202e-05
1.43166e-05
1.34882e-05
1.27432e-05
1.20874e-05
1.15238e-05
1.10517e-05
1.0667e-05
1.03625e-05
1.01285e-05
9.95402e-06
9.82768e-06
9.73918e-06
9.68022e-06
9.64548e-06
9.63321e-06
9.64562e-06
9.68896e-06
9.7734e-06
9.91273e-06
1.01239e-05
1.04265e-05
1.08421e-05
1.13942e-05
1.21072e-05
1.30072e-05
1.41222e-05
1.54836e-05
1.71287e-05
1.91047e-05
2.14746e-05
2.43264e-05
2.77869e-05
3.2041e-05
3.73674e-05
4.41711e-05
5.3148e-05
6.50533e-05
8.25398e-05
0.000106877
0.108777
0.0259466
0.0080029
0.00301762
0.0013296
0.000661037
0.00036115
0.000212569
0.00013281
8.71131e-05
5.94991e-05
4.20679e-05
3.06665e-05
2.29956e-05
1.77251e-05
1.40579e-05
1.15753e-05
9.90202e-06
8.782e-06
8.05331e-06
7.60842e-06
7.37194e-06
7.28763e-06
7.31072e-06
7.40327e-06
7.53144e-06
7.66395e-06
7.77162e-06
7.82769e-06
7.80886e-06
7.69693e-06
7.48064e-06
7.15744e-06
6.73282e-06
6.31285e-06
5.90856e-06
5.51935e-06
5.14501e-06
4.78558e-06
4.44129e-06
4.11249e-06
3.79956e-06
3.5029e-06
3.22284e-06
2.95969e-06
2.71371e-06
2.48518e-06
2.27454e-06
2.0825e-06
1.91031e-06
1.7601e-06
1.63524e-06
1.54078e-06
1.48393e-06
1.47447e-06
1.52505e-06
1.6514e-06
1.87222e-06
2.20898e-06
2.68537e-06
3.32659e-06
4.15834e-06
5.20563e-06
6.49155e-06
8.03615e-06
9.85565e-06
1.19622e-05
1.43642e-05
1.70675e-05
2.00768e-05
2.33985e-05
2.7043e-05
3.10275e-05
3.53784e-05
4.01319e-05
4.53208e-05
5.09949e-05
5.69739e-05
6.36718e-05
6.92392e-05
0.108777
0.0259418
0.00799937
0.00301583
0.00132872
0.000660576
0.000360892
0.000212404
0.000132675
8.69698e-05
5.93193e-05
4.18287e-05
3.03469e-05
2.25736e-05
1.7176e-05
1.33513e-05
1.06845e-05
8.80111e-06
7.44413e-06
6.45177e-06
5.71806e-06
5.17094e-06
4.75961e-06
4.44693e-06
4.20482e-06
4.01136e-06
3.84903e-06
3.70361e-06
3.56368e-06
3.42034e-06
3.26726e-06
3.10075e-06
2.91971e-06
2.72537e-06
2.54388e-06
2.37388e-06
2.21434e-06
2.06445e-06
1.92357e-06
1.79116e-06
1.66684e-06
1.55028e-06
1.4413e-06
1.33988e-06
1.24631e-06
1.16137e-06
1.08666e-06
1.02502e-06
9.81093e-07
9.62035e-07
9.78299e-07
1.04448e-06
1.18011e-06
1.41042e-06
1.76685e-06
2.28737e-06
3.01637e-06
4.00391e-06
5.30438e-06
6.9746e-06
9.07153e-06
1.165e-05
1.47603e-05
1.84471e-05
2.2748e-05
2.7694e-05
3.33109e-05
3.96208e-05
4.66454e-05
5.44086e-05
6.29395e-05
7.22743e-05
8.2456e-05
9.35294e-05
0.000105526
0.00011842
0.000132084
0.000145821
0.000159206
0.000166963
0.108777
0.0259354
0.00799495
0.00301358
0.00132755
0.000659942
0.000360532
0.000212188
0.000132534
8.68639e-05
5.92244e-05
4.17275e-05
3.02258e-05
2.24208e-05
1.69801e-05
1.31004e-05
1.03692e-05
8.41341e-06
6.97679e-06
5.89858e-06
5.07414e-06
4.43321e-06
3.92717e-06
3.52151e-06
3.19112e-06
2.91735e-06
2.68611e-06
2.48661e-06
2.31058e-06
2.15173e-06
2.00538e-06
1.86826e-06
1.73821e-06
1.61491e-06
1.50292e-06
1.40076e-06
1.30721e-06
1.22131e-06
1.14226e-06
1.06949e-06
1.00266e-06
9.41854e-07
8.87799e-07
8.42294e-07
8.08815e-07
7.93368e-07
8.05562e-07
8.59918e-07
9.77343e-07
1.18672e-06
1.52652e-06
2.04641e-06
2.80848e-06
3.88794e-06
5.37283e-06
7.36283e-06
9.96704e-06
1.33011e-05
1.74837e-05
2.26328e-05
2.88626e-05
3.62804e-05
4.49847e-05
5.50632e-05
6.65914e-05
7.96302e-05
9.42235e-05
0.000110395
0.000128142
0.000147435
0.000168213
0.000190378
0.000213799
0.000238302
0.000263658
0.000289536
0.000315487
0.000340175
0.000363035
0.000375584
0.108777
0.0259274
0.00798974
0.00301093
0.00132616
0.000659169
0.000360083
0.000211915
0.00013236
8.67472e-05
5.91395e-05
4.16586e-05
3.0162e-05
2.2354e-05
1.69036e-05
1.30082e-05
1.0257e-05
8.27799e-06
6.81574e-06
5.71013e-06
4.85726e-06
4.18761e-06
3.6534e-06
3.22097e-06
2.86612e-06
2.57112e-06
2.32272e-06
2.11096e-06
1.9282e-06
1.76859e-06
1.62765e-06
1.50194e-06
1.38884e-06
1.28692e-06
1.1958e-06
1.11397e-06
1.04025e-06
9.73833e-07
9.14476e-07
8.62853e-07
8.21183e-07
7.94187e-07
7.9042e-07
8.24019e-07
9.16818e-07
1.10081e-06
1.42085e-06
1.93766e-06
2.73079e-06
3.90119e-06
5.57298e-06
7.89389e-06
1.10345e-05
1.51861e-05
2.05571e-05
2.7369e-05
3.58508e-05
4.62336e-05
5.87434e-05
7.3593e-05
9.09707e-05
0.000111025
0.000133848
0.000159451
0.000187748
0.000218538
0.000251503
0.00028621
0.000322136
0.000358703
0.000395319
0.000431428
0.000466545
0.000500278
0.000532352
0.000562486
0.000590599
0.000615158
0.000637209
0.000645785
0.108777
0.0259177
0.00798388
0.00300796
0.00132458
0.000658283
0.000359562
0.000211594
0.000132154
8.66098e-05
5.90442e-05
4.15894e-05
3.01085e-05
2.2309e-05
1.68621e-05
1.29661e-05
1.02115e-05
8.22707e-06
6.75803e-06
5.64476e-06
4.78376e-06
4.10588e-06
3.56366e-06
3.12377e-06
2.76229e-06
2.46175e-06
2.20915e-06
1.99471e-06
1.81094e-06
1.65208e-06
1.51362e-06
1.39206e-06
1.28459e-06
1.18932e-06
1.10485e-06
1.03041e-06
9.6671e-07
9.17197e-07
8.89781e-07
8.99303e-07
9.70636e-07
1.14232e-06
1.47061e-06
2.03398e-06
2.93789e-06
4.31943e-06
6.35096e-06
9.24228e-06
1.32412e-05
1.86321e-05
2.57329e-05
3.489e-05
4.64716e-05
6.08578e-05
7.84278e-05
9.95408e-05
0.00012451
0.000153568
0.000186826
0.000224227
0.000265516
0.000310211
0.000357616
0.000406848
0.000456907
0.000506754
0.000555402
0.000601991
0.000645848
0.000686515
0.000723753
0.00075752
0.000787944
0.000815263
0.00083983
0.000861844
0.00088194
0.000898227
0.000914022
0.000912059
0.108777
0.0259065
0.00797748
0.00300474
0.00132286
0.000657308
0.000358983
0.000211234
0.000131921
8.64529e-05
5.89353e-05
4.15116e-05
3.00512e-05
2.22653e-05
1.68271e-05
1.29366e-05
1.01848e-05
8.20153e-06
6.73243e-06
5.61832e-06
4.756e-06
4.07652e-06
3.53263e-06
3.09112e-06
2.72821e-06
2.42652e-06
2.17314e-06
1.95833e-06
1.77466e-06
1.61639e-06
1.479e-06
1.35897e-06
1.2538e-06
1.16511e-06
1.10074e-06
1.07945e-06
1.13644e-06
1.32953e-06
1.74543e-06
2.50624e-06
3.77606e-06
5.76686e-06
8.74251e-06
1.30201e-05
1.8969e-05
2.70063e-05
3.75913e-05
5.1215e-05
6.83876e-05
8.96193e-05
0.000115394
0.000146135
0.000182153
0.0002236
0.000270404
0.000322229
0.000378449
0.000438156
0.000500215
0.00056335
0.000626247
0.000687671
0.000746551
0.000802041
0.000853535
0.000900661
0.000943247
0.000981283
0.00101489
0.00104428
0.00106975
0.00109166
0.00111046
0.0011266
0.00114065
0.0011529
0.00116443
0.00117262
0.00118336
0.00117103
0.108777
0.0258938
0.00797069
0.00300134
0.00132102
0.000656267
0.000358361
0.000210844
0.000131666
8.62801e-05
5.88147e-05
4.14252e-05
2.99878e-05
2.22178e-05
1.67907e-05
1.2908e-05
1.01616e-05
8.18195e-06
6.71535e-06
5.60298e-06
4.7419e-06
4.06341e-06
3.5204e-06
3.0799e-06
2.71832e-06
2.41856e-06
2.16811e-06
1.95782e-06
1.78122e-06
1.63414e-06
1.51478e-06
1.4252e-06
1.46981e-06
1.80199e-06
2.61309e-06
4.16356e-06
6.78693e-06
1.08895e-05
1.69442e-05
2.54802e-05
3.70676e-05
5.22997e-05
7.17725e-05
9.60597e-05
0.000125682
0.000161071
0.000202524
0.000250155
0.000303845
0.000363211
0.00042758
0.000496011
0.000567344
0.000640289
0.000713527
0.000785821
0.000856102
0.000923518
0.000987443
0.00104745
0.00110326
0.0011547
0.00120166
0.00124405
0.00128184
0.00131502
0.00134367
0.00136793
0.00138805
0.00140438
0.00141735
0.00142748
0.00143537
0.00144164
0.00144706
0.00145196
0.00145791
0.00146136
0.00147108
0.00145092
0.108777
0.0258797
0.00796363
0.0029978
0.00131911
0.000655182
0.000357709
0.000210431
0.000131394
8.60945e-05
5.86849e-05
4.1333e-05
2.99223e-05
2.21727e-05
1.6763e-05
1.28979e-05
1.01717e-05
8.21824e-06
6.78855e-06
5.73078e-06
4.95252e-06
4.40093e-06
4.05243e-06
3.90806e-06
3.99239e-06
4.35489e-06
5.07343e-06
6.2599e-06
8.06806e-06
1.0704e-05
1.44393e-05
2.00757e-05
2.94354e-05
4.31518e-05
6.19258e-05
8.63899e-05
0.000117076
0.000154373
0.000198491
0.000249432
0.000306963
0.000370605
0.000439634
0.000513105
0.000589894
0.000668767
0.000748468
0.000827817
0.000905797
0.000981619
0.00105475
0.00112491
0.00119199
0.00125604
0.00131712
0.00137527
0.00143046
0.00148256
0.00153134
0.00157652
0.00161779
0.00165488
0.00168755
0.00171567
0.00173922
0.00175829
0.00177312
0.00178406
0.00179158
0.00179626
0.00179877
0.00179984
0.00180029
0.00180092
0.00180271
0.00180604
0.00181302
0.00181884
0.00183585
0.00181293
0.108777
0.0258646
0.00795648
0.00299419
0.00131719
0.000654118
0.000357105
0.000210099
0.000131252
8.61257e-05
5.89232e-05
4.18723e-05
3.09444e-05
2.39999e-05
1.99383e-05
1.82977e-05
1.89279e-05
2.17491e-05
2.68513e-05
3.44412e-05
4.48037e-05
5.82789e-05
7.52464e-05
9.61127e-05
0.000121301
0.00015124
0.000186361
0.000227086
0.000273822
0.00032695
0.000386795
0.000453723
0.000529276
0.00061154
0.000698541
0.000788185
0.000878445
0.000967487
0.00105378
0.00113619
0.00121402
0.00128699
0.00135524
0.00141923
0.00147962
0.0015372
0.00159272
0.00164683
0.00170002
0.00175259
0.00180461
0.00185598
0.00190645
0.00195562
0.00200305
0.00204823
0.00209064
0.00212979
0.00216523
0.00219658
0.00222356
0.00224599
0.00226384
0.00227723
0.00228643
0.00229186
0.00229408
0.00229379
0.00229181
0.00228904
0.00228646
0.00228511
0.00228611
0.00229053
0.00229973
0.00231422
0.00233698
0.00236123
0.00240502
0.00239298
0.108779
0.025852
0.00795277
0.00299401
0.00131922
0.000658299
0.000364316
0.000222408
0.000152414
0.000122143
0.000118367
0.000135746
0.000172172
0.000226813
0.000299277
0.000389172
0.000490555
0.000599614
0.000714179
0.000832381
0.000952566
0.00107321
0.00119287
0.00131017
0.00142383
0.00153268
0.0016357
0.00173211
0.00182135
0.00190315
0.00197749
0.00204373
0.00210137
0.00215106
0.0021935
0.00223001
0.00226229
0.0022921
0.00232102
0.0023503
0.00238084
0.00241316
0.00244752
0.00248396
0.00252234
0.00256243
0.00260392
0.00264642
0.00268953
0.00273276
0.00277561
0.0028175
0.00285784
0.00289601
0.00293138
0.00296338
0.00299148
0.00301528
0.00303448
0.00304899
0.00305885
0.00306434
0.00306591
0.0030642
0.00306004
0.0030544
0.00304841
0.0030433
0.00304043
0.00304124
0.00304726
0.00306014
0.00308166
0.00311363
0.00315841
0.00321718
0.00329525
0.00338248
0.00350893
0.00356007
0.108954
0.0260546
0.00818176
0.00325863
0.00165086
0.00110532
0.000996653
0.00112617
0.00141256
0.00180189
0.00224544
0.0026998
0.00313113
0.00351662
0.00384297
0.00410364
0.00428718
0.00440356
0.0044674
0.00449151
0.00448671
0.00446189
0.00442423
0.00437937
0.00433166
0.00428432
0.00423962
0.00419907
0.00416354
0.00413346
0.00410901
0.00409013
0.00407448
0.00406161
0.00405135
0.0040446
0.00404234
0.00404523
0.00405356
0.0040673
0.00408621
0.00410989
0.00413781
0.00416933
0.00420371
0.00424014
0.00427772
0.00431554
0.00435265
0.00438811
0.00442101
0.0044505
0.00447582
0.00449635
0.00451161
0.00452133
0.00452545
0.00452417
0.00451794
0.00450749
0.0044938
0.00447812
0.00446193
0.00444689
0.00443489
0.00442794
0.00442827
0.00443828
0.00446057
0.00449795
0.00455357
0.00463096
0.00473427
0.0048681
0.00503866
0.00525061
0.00551761
0.00582641
0.0062357
0.0066105
0.117482
0.0358348
0.0174728
0.0123549
0.0112237
0.0116234
0.0127037
0.0139649
0.0150222
0.0156384
0.0157565
0.015458
0.0148849
0.0141755
0.0134322
0.0127174
0.0120647
0.011492
0.0109969
0.0105681
0.0101936
0.00986351
0.00957037
0.00930883
0.00907506
0.00886621
0.0086801
0.00851486
0.00836886
0.00824049
0.00812855
0.00803054
0.00795116
0.00789607
0.00786482
0.00785439
0.00786103
0.00788103
0.00791107
0.0079483
0.0079905
0.00803559
0.00808164
0.00812682
0.00816948
0.00820807
0.00824114
0.00826739
0.00828568
0.00829507
0.00829486
0.00828466
0.00826442
0.00823447
0.00819557
0.00814892
0.00809617
0.00803944
0.00798127
0.0079246
0.00787276
0.00782942
0.00779858
0.00778456
0.00779202
0.00782588
0.0078918
0.00799621
0.00814634
0.00835056
0.00861884
0.00896321
0.00939864
0.00994308
0.010621
0.0114552
0.0124991
0.0137531
0.0154083
0.0176483
0.223501
0.161832
0.121108
0.0944856
0.0764536
0.0640439
0.0554267
0.0494331
0.0452087
0.0420829
0.0395664
0.0373584
0.0353151
0.0333923
0.031592
0.0299264
0.0284405
0.0271486
0.0260289
0.0250551
0.0242046
0.0234589
0.0228027
0.0222241
0.0217133
0.0212622
0.020864
0.0205125
0.0202022
0.0199278
0.0196841
0.0194671
0.0192663
0.0190722
0.0188824
0.0186969
0.0185164
0.018341
0.0181702
0.0180035
0.01784
0.0176791
0.0175204
0.0173636
0.0172088
0.017056
0.0169059
0.0167589
0.0166163
0.0164793
0.0163497
0.0162295
0.0161214
0.0160285
0.0159543
0.015903
0.0158794
0.0158891
0.0159382
0.0160341
0.016185
0.0164002
0.016691
0.01707
0.0175526
0.018157
0.0189049
0.019823
0.0209444
0.0223098
0.0239707
0.0259926
0.028458
0.0314797
0.0351879
0.0398259
0.0454963
0.0531672
0.0614776
0.0764005
)
;

boundaryField
{
    inlet
    {
        type            fixedValue;
        value           uniform 0.63;
    }
    outlet
    {
        type            zeroGradient;
    }
    fixedWalls
    {
        lowReCorrection 0;
        type            epsilonWallFunction;
        value           nonuniform List<scalar> 
160
(
0.223501
0.161832
0.121108
0.0944856
0.0764536
0.0640439
0.0554267
0.0494331
0.0452087
0.0420829
0.0395664
0.0373584
0.0353151
0.0333923
0.031592
0.0299264
0.0284405
0.0271486
0.0260289
0.0250551
0.0242046
0.0234589
0.0228027
0.0222241
0.0217133
0.0212622
0.020864
0.0205125
0.0202022
0.0199278
0.0196841
0.0194671
0.0192663
0.0190722
0.0188824
0.0186969
0.0185164
0.018341
0.0181702
0.0180035
0.01784
0.0176791
0.0175204
0.0173636
0.0172088
0.017056
0.0169059
0.0167589
0.0166163
0.0164793
0.0163497
0.0162295
0.0161214
0.0160285
0.0159543
0.015903
0.0158794
0.0158891
0.0159382
0.0160341
0.016185
0.0164002
0.016691
0.01707
0.0175526
0.018157
0.0189049
0.019823
0.0209444
0.0223098
0.0239707
0.0259926
0.028458
0.0314797
0.0351879
0.0398259
0.0454963
0.0531672
0.0614776
0.0764005
0.0135126
0.0111846
0.00819028
0.00480162
0.00122349
0.000123568
9.88475e-05
0.000115574
0.000118755
9.37673e-05
5.6328e-05
3.70057e-05
4.12665e-05
4.65604e-05
5.29826e-05
6.27584e-05
7.64407e-05
9.36559e-05
0.000114685
0.000140426
0.000172084
0.00021108
0.00025898
0.000317378
0.000387734
0.000471185
0.000568396
0.000679479
0.000803985
0.000940983
0.00108918
0.00124707
0.00141306
0.00158567
0.00176368
0.00194639
0.0021338
0.00232698
0.00252858
0.00274381
0.00296748
0.0031947
0.00342618
0.0036628
0.00390489
0.00415234
0.00440469
0.00466126
0.0049212
0.00518359
0.00544743
0.00571171
0.00597545
0.00623741
0.00649477
0.00674701
0.00699401
0.00723624
0.0074765
0.00772635
0.00801445
0.00832646
0.00865152
0.00898513
0.0093267
0.0096774
0.0100394
0.0104156
0.0108099
0.011227
0.0116727
0.0121542
0.0126807
0.0132635
0.0139185
0.0146668
0.0155416
0.0165938
0.017905
0.0198727
)
;
    }
    frontAndBack
    {
        type            empty;
    }
}


// ************************************************************************* //
