/*--------------------------------*- C++ -*----------------------------------*\
| =========                 |                                                 |
| \\      /  F ield         | OpenFOAM: The Open Source CFD Toolbox           |
|  \\    /   O peration     | Version:  v1912                                 |
|   \\  /    A nd           | Website:  www.openfoam.com                      |
|    \\/     M anipulation  |                                                 |
\*---------------------------------------------------------------------------*/
FoamFile
{
    version     2.0;
    format      ascii;
    class       volScalarField;
    location    "125";
    object      k;
}
// * * * * * * * * * * * * * * * * * * * * * * * * * * * * * * * * * * * * * //

dimensions      [0 2 -2 0 0 0 0];


internalField   nonuniform List<scalar> 
2000
(
0.0162095
0.0147777
0.0124076
0.00897619
0.00372355
0.000832862
0.000739749
0.000845677
0.000886355
0.000778666
0.00056982
0.000442356
0.000488243
0.000542658
0.00060605
0.000694566
0.0008098
0.000946032
0.00110269
0.001283
0.00149123
0.00173181
0.00200881
0.00232535
0.002683
0.00308132
0.00351778
0.00398795
0.00448599
0.00500523
0.00553878
0.00607999
0.00662287
0.00716235
0.00769474
0.00821804
0.00873236
0.00924044
0.00974865
0.010269
0.0107868
0.0112895
0.0117789
0.0122566
0.012723
0.0131774
0.0136185
0.0140444
0.0144533
0.0148431
0.015212
0.0155581
0.0158799
0.0161755
0.0164404
0.0166745
0.0168782
0.0170531
0.0172038
0.017348
0.0175263
0.0177141
0.0178936
0.0180574
0.0182038
0.0183334
0.0184478
0.0185493
0.0186408
0.0187255
0.0188071
0.0188898
0.0189787
0.0190798
0.0192011
0.019353
0.0195527
0.0198259
0.0202131
0.0209634
0.00683768
0.00499939
0.0045268
0.00410476
0.00326525
0.00245507
0.00191319
0.00164637
0.00467794
0.00340679
0.00190321
0.00143079
0.00145271
0.00146281
0.00144457
0.00155219
0.00176195
0.00202565
0.00233096
0.00267945
0.00307539
0.00352476
0.00403507
0.00461466
0.00527224
0.00601622
0.00685371
0.0077896
0.00882573
0.00995953
0.0111834
0.012485
0.0138472
0.01525
0.0166719
0.0180921
0.0194918
0.0208528
0.0221564
0.0233372
0.0244181
0.0254425
0.0264257
0.0273758
0.0282962
0.029187
0.030047
0.0308736
0.0316642
0.0324156
0.0331251
0.033791
0.0344137
0.0349952
0.035505
0.035953
0.0363418
0.036673
0.0369488
0.0371727
0.0373482
0.0374751
0.0375553
0.0375913
0.0375861
0.037544
0.03747
0.03737
0.0372504
0.0371182
0.0369809
0.0368464
0.0367229
0.0366181
0.0365397
0.036487
0.0364703
0.0363989
0.0364987
0.036132
0.00514621
0.0024852
0.00187967
0.00175535
0.00163527
0.00147439
0.00132843
0.00124608
0.00175621
0.00209225
0.00252664
0.00391439
0.00578339
0.00495473
0.00374213
0.00324164
0.00330642
0.00356354
0.00391491
0.00434907
0.00486492
0.00546369
0.00614785
0.00691984
0.00778359
0.0087446
0.00980821
0.0109775
0.0122519
0.0136257
0.0150877
0.0166217
0.018207
0.0198202
0.0214378
0.0230396
0.0246097
0.0261455
0.0275978
0.0289649
0.0302621
0.0314927
0.0326589
0.0337703
0.0348293
0.035835
0.0367851
0.0376764
0.0385058
0.0392701
0.0399663
0.0405922
0.0411461
0.0416267
0.0420305
0.0423582
0.042611
0.0427908
0.0429001
0.0429423
0.0429215
0.0428434
0.0427141
0.0425396
0.0423261
0.0420805
0.0418102
0.0415231
0.0412278
0.0409329
0.0406474
0.0403803
0.0401398
0.0399329
0.0397633
0.039626
0.0395096
0.0393384
0.0392344
0.0385382
0.00490121
0.00193922
0.00108628
0.000851042
0.000792502
0.000769814
0.000751675
0.000743681
0.000864229
0.00105642
0.00136558
0.00204575
0.00332724
0.00475803
0.00631406
0.00751815
0.00784565
0.00767249
0.00754144
0.00765378
0.0080052
0.00854721
0.00923709
0.0100433
0.0109487
0.0119479
0.0130412
0.0142298
0.0155133
0.0168888
0.0183503
0.0198877
0.0214853
0.023123
0.0247795
0.0264376
0.0280785
0.0296528
0.031159
0.0325946
0.033954
0.035233
0.0364304
0.037547
0.0385828
0.0395366
0.0404068
0.0411912
0.0418878
0.0424947
0.0430105
0.0434346
0.043767
0.0440088
0.0441614
0.0442275
0.0442108
0.0441158
0.0439476
0.0437123
0.0434166
0.0430683
0.0426754
0.0422465
0.04179
0.0413144
0.0408285
0.0403412
0.0398613
0.0393978
0.0389594
0.0385543
0.0381901
0.0378723
0.0376029
0.0373762
0.0371801
0.036952
0.0367889
0.0361411
0.00486817
0.00184217
0.00088917
0.000554018
0.00043911
0.000406983
0.000404693
0.000413734
0.000454395
0.000530557
0.000660162
0.000918287
0.00143835
0.0022934
0.00363166
0.00554953
0.00774716
0.00981412
0.0114633
0.0126066
0.0133632
0.0139395
0.0145002
0.0151299
0.0158576
0.0166873
0.0176159
0.0186392
0.0197539
0.0209574
0.022246
0.0236131
0.0250445
0.0265202
0.0280277
0.0295287
0.0309935
0.0324108
0.0337678
0.0350549
0.0362627
0.0373826
0.0384088
0.0393374
0.0401658
0.040892
0.0415148
0.0420331
0.0424465
0.0427553
0.0429607
0.0430645
0.04307
0.0429809
0.0428024
0.0425404
0.0422016
0.0417936
0.0413245
0.0408029
0.0402377
0.0396384
0.0390144
0.0383749
0.0377291
0.0370856
0.0364531
0.0358396
0.0352529
0.0347006
0.0341899
0.0337275
0.0333195
0.0329706
0.032683
0.032453
0.0322739
0.0320985
0.0320159
0.0315811
0.00486377
0.00182805
0.000849451
0.000474226
0.000317503
0.000253154
0.000231592
0.000230709
0.000245888
0.000276923
0.00032875
0.000422069
0.000601449
0.00092078
0.00147088
0.00238818
0.00374159
0.0055512
0.00777231
0.0102569
0.0127805
0.0151208
0.017136
0.0187958
0.0201564
0.0213104
0.0223468
0.0233332
0.0243145
0.0253182
0.0263604
0.0274461
0.0285642
0.029696
0.030815
0.0319165
0.0329911
0.0340275
0.0350129
0.035935
0.0367826
0.0375456
0.0382159
0.0387872
0.0392554
0.0396178
0.0398731
0.0400214
0.0400638
0.0400028
0.0398421
0.0395863
0.0392415
0.0388148
0.0383139
0.0377477
0.0371255
0.0364569
0.035752
0.0350208
0.0342729
0.0335181
0.0327654
0.0320235
0.0313003
0.030603
0.0299382
0.0293119
0.0287297
0.0281967
0.0277175
0.0272969
0.026939
0.0266474
0.0264248
0.0262703
0.0261831
0.0261296
0.0261942
0.0260323
0.00486318
0.00182655
0.000843157
0.000456551
0.00028305
0.000199654
0.000159915
0.000143586
0.000141964
0.000151493
0.000171802
0.000207478
0.000270995
0.000381499
0.000570873
0.000892174
0.00139091
0.00211832
0.00313161
0.00447931
0.00618648
0.00823878
0.0105717
0.0130736
0.0156056
0.018033
0.0202551
0.0222209
0.0239282
0.0254085
0.0267088
0.0278742
0.0289005
0.0298135
0.0306425
0.0314029
0.0321011
0.032738
0.033311
0.0338154
0.0342458
0.0345958
0.0348599
0.0350332
0.0351125
0.0350959
0.0349832
0.034776
0.0344773
0.0340918
0.0336255
0.0330855
0.0324801
0.0318185
0.0311101
0.0303652
0.0295939
0.0288063
0.0280122
0.0272209
0.0264411
0.0256806
0.0249467
0.0242455
0.0235826
0.0229624
0.0223888
0.0218653
0.0213945
0.0209791
0.0206214
0.0203239
0.0200891
0.0199197
0.0198188
0.0197875
0.0198301
0.0199247
0.0201496
0.0202556
0.00486311
0.00182659
0.000842594
0.000453362
0.000274737
0.000183901
0.00013504
0.000108737
9.6059e-05
9.27485e-05
9.70005e-05
0.000109111
0.000132104
0.000171822
0.000238107
0.000347128
0.000512131
0.000749636
0.00108137
0.0015327
0.0021317
0.00290711
0.003885
0.00508434
0.00651147
0.00815461
0.00998042
0.0119349
0.0139493
0.0159505
0.0178711
0.019659
0.0213152
0.0227229
0.0238733
0.0247983
0.0255351
0.0261165
0.0265678
0.026906
0.0271413
0.0272794
0.0273234
0.0272754
0.0271377
0.0269132
0.0266062
0.0262219
0.0257668
0.0252483
0.0246746
0.0240545
0.0233973
0.0227125
0.0220095
0.0212975
0.0205854
0.0198814
0.019193
0.0185269
0.017889
0.0172842
0.0167169
0.0161903
0.0157072
0.0152697
0.0148793
0.0145374
0.0142449
0.014003
0.0138125
0.0136749
0.0135919
0.0135659
0.0136002
0.0136977
0.0138663
0.0140937
0.0144504
0.0147736
0.0048631
0.00182671
0.000842737
0.00045299
0.000273019
0.000179809
0.000127475
9.66735e-05
7.84366e-05
6.83272e-05
6.41253e-05
6.49681e-05
7.11955e-05
8.43621e-05
0.000107484
0.000145556
0.00020203
0.000280885
0.000387194
0.000526727
0.000706064
0.000932611
0.00121453
0.00156055
0.0019795
0.0024796
0.00306735
0.00374621
0.00451537
0.00536877
0.00629463
0.00727583
0.00829596
0.00942727
0.0105726
0.0116752
0.0126889
0.0135808
0.0143319
0.014935
0.0153923
0.0157119
0.0159051
0.0159848
0.0159636
0.0158537
0.0156666
0.015413
0.015103
0.0147462
0.0143518
0.0139286
0.013485
0.0130287
0.0125673
0.0121075
0.0116552
0.0112159
0.0107942
0.0103939
0.0100184
0.00967036
0.0093519
0.00906478
0.00881036
0.00858975
0.0084039
0.00825363
0.00813979
0.00806332
0.00802534
0.00802734
0.0080713
0.00815989
0.00829698
0.00848698
0.0087394
0.00905023
0.00947933
0.00993746
0.00486309
0.00182676
0.000842852
0.000453036
0.000272747
0.000178861
0.000125385
9.28982e-05
7.23576e-05
5.92229e-05
5.11015e-05
4.67537e-05
4.56949e-05
4.80554e-05
5.45861e-05
6.67698e-05
8.55611e-05
0.000111978
0.000147227
0.000192462
0.000248754
0.000317076
0.000398286
0.000493114
0.000602114
0.000725565
0.000863318
0.0010146
0.00117782
0.00135039
0.0015286
0.0017076
0.00188184
0.00204919
0.00226543
0.00252809
0.00283178
0.00316682
0.00352038
0.00387793
0.00422486
0.0045479
0.00483615
0.0050816
0.00527936
0.00542741
0.00552623
0.00557828
0.00558748
0.0055587
0.00549734
0.00540898
0.00529914
0.00517305
0.0050356
0.00489122
0.00474389
0.00459712
0.00445399
0.00431719
0.00418906
0.00407163
0.00396668
0.00387582
0.00380049
0.00374205
0.00370184
0.00368122
0.00368166
0.00370476
0.00375237
0.00382668
0.00393035
0.00406668
0.00424009
0.00445586
0.00472387
0.00504635
0.00547041
0.00596375
0.00486309
0.00182673
0.000842854
0.000453065
0.000272726
0.000178669
0.000124853
9.18015e-05
7.0414e-05
5.60855e-05
4.63407e-05
3.98011e-05
3.57156e-05
3.37454e-05
3.38774e-05
3.64092e-05
4.15356e-05
4.94377e-05
6.03639e-05
7.45368e-05
9.21155e-05
0.000113166
0.000137638
0.000165347
0.000195959
0.000228961
0.000263631
0.000299002
0.000333832
0.000366592
0.000395477
0.000418443
0.000433318
0.000438052
0.000440758
0.000446588
0.000456788
0.000472543
0.000494824
0.000524218
0.000560801
0.000604072
0.000652967
0.000705945
0.000761138
0.000816524
0.000870108
0.000920079
0.000964929
0.00100353
0.00103518
0.00105957
0.00107679
0.00108724
0.00109159
0.00109072
0.00108563
0.00107741
0.00106719
0.00105608
0.0010452
0.00103561
0.00102835
0.00102444
0.00102492
0.00103082
0.00104327
0.00106349
0.00109289
0.00113307
0.00118598
0.00125399
0.00133998
0.00144759
0.00158151
0.00174753
0.00195497
0.00221059
0.00254798
0.00297196
0.00486309
0.00182662
0.000842746
0.000453012
0.0002727
0.000178619
0.000124718
9.14974e-05
6.98265e-05
5.50668e-05
4.47025e-05
3.72997e-05
3.20169e-05
2.83644e-05
2.60844e-05
2.50942e-05
2.53692e-05
2.68404e-05
2.94751e-05
3.32534e-05
3.81452e-05
4.4095e-05
5.10107e-05
5.87561e-05
6.71459e-05
7.59402e-05
8.48407e-05
9.34891e-05
0.000101473
0.000108338
0.000113616
0.000116862
0.000117707
0.000115932
0.000113278
0.000110342
0.000107173
0.000103834
0.000100401
9.69606e-05
9.36099e-05
9.0449e-05
8.75773e-05
8.50862e-05
8.30512e-05
8.15256e-05
8.05353e-05
8.00762e-05
8.01156e-05
8.05968e-05
8.14459e-05
8.25812e-05
8.39225e-05
8.54003e-05
8.69638e-05
8.85864e-05
9.027e-05
9.20466e-05
9.39787e-05
9.61583e-05
9.87048e-05
0.000101763
0.000105503
0.000110117
0.000115826
0.00012288
0.000131572
0.000142257
0.000155375
0.000171497
0.000191381
0.000216068
0.000247011
0.000286267
0.000336824
0.000402956
0.000491495
0.000610872
0.000782673
0.00102868
0.00486309
0.00182643
0.000842541
0.000452877
0.000272619
0.000178564
0.000124659
9.14009e-05
6.96479e-05
5.47468e-05
4.41642e-05
3.64427e-05
3.07081e-05
2.64209e-05
2.32464e-05
2.09851e-05
1.95591e-05
1.88348e-05
1.87061e-05
1.90967e-05
1.99433e-05
2.11847e-05
2.27558e-05
2.45833e-05
2.65837e-05
2.86626e-05
3.07147e-05
3.26255e-05
3.42753e-05
3.55456e-05
3.63285e-05
3.65379e-05
3.61219e-05
3.50646e-05
3.3879e-05
3.26315e-05
3.13299e-05
2.99834e-05
2.86021e-05
2.71971e-05
2.578e-05
2.43622e-05
2.29553e-05
2.15702e-05
2.02177e-05
1.89074e-05
1.76488e-05
1.64512e-05
1.53242e-05
1.42788e-05
1.33288e-05
1.24921e-05
1.17933e-05
1.12653e-05
1.09515e-05
1.09081e-05
1.12047e-05
1.19249e-05
1.31651e-05
1.50323e-05
1.76404e-05
2.11057e-05
2.55417e-05
3.1054e-05
3.77359e-05
4.56657e-05
5.49058e-05
6.55047e-05
7.75023e-05
9.09384e-05
0.000105866
0.000122366
0.000140575
0.000160711
0.000183124
0.000208339
0.000237303
0.00027093
0.000313915
0.000368183
0.00486309
0.00182615
0.00084225
0.000452674
0.000272485
0.000178473
0.000124593
9.13412e-05
6.95751e-05
5.46369e-05
4.39862e-05
3.61568e-05
3.02619e-05
2.57451e-05
2.22471e-05
1.95326e-05
1.75133e-05
1.60412e-05
1.49937e-05
1.42842e-05
1.38478e-05
1.36317e-05
1.35904e-05
1.36815e-05
1.38645e-05
1.40993e-05
1.43462e-05
1.45664e-05
1.4723e-05
1.4783e-05
1.47194e-05
1.45135e-05
1.41575e-05
1.36542e-05
1.31471e-05
1.26367e-05
1.21244e-05
1.16118e-05
1.1101e-05
1.05942e-05
1.00936e-05
9.60185e-06
9.12155e-06
8.6558e-06
8.20856e-06
7.78543e-06
7.39481e-06
7.04969e-06
6.7699e-06
6.58504e-06
6.53795e-06
6.68844e-06
7.11697e-06
7.9279e-06
9.2516e-06
1.12451e-05
1.40905e-05
1.79916e-05
2.31674e-05
2.98451e-05
3.82503e-05
4.8598e-05
6.10845e-05
7.58802e-05
9.31269e-05
0.000112937
0.000135398
0.000160579
0.000188536
0.000219329
0.000253022
0.000289692
0.000329424
0.000372291
0.000418308
0.000467298
0.000518753
0.000570543
0.000621305
0.00065586
0.00486309
0.00182578
0.000841883
0.000452413
0.000272306
0.000178347
0.000124503
9.12731e-05
6.95175e-05
5.45783e-05
4.39134e-05
3.60536e-05
3.01079e-05
2.5514e-05
2.19045e-05
1.90334e-05
1.68108e-05
1.50864e-05
1.37347e-05
1.26681e-05
1.18235e-05
1.11536e-05
1.0621e-05
1.01955e-05
9.85128e-06
9.56629e-06
9.32095e-06
9.09802e-06
8.88247e-06
8.66174e-06
8.42606e-06
8.16878e-06
7.88655e-06
7.58411e-06
7.29372e-06
7.0141e-06
6.74438e-06
6.48397e-06
6.23263e-06
5.99048e-06
5.75832e-06
5.53812e-06
5.33396e-06
5.15362e-06
5.01081e-06
4.92847e-06
4.94297e-06
5.10938e-06
5.50752e-06
6.24836e-06
7.4803e-06
9.39441e-06
1.22279e-05
1.62648e-05
2.18337e-05
2.93014e-05
3.90635e-05
5.15319e-05
6.71207e-05
8.62322e-05
0.000109243
0.000136494
0.000168282
0.000204854
0.000246401
0.000293052
0.000344865
0.000401816
0.000463788
0.000530552
0.00060176
0.000676938
0.000755475
0.000836623
0.000919464
0.00100281
0.00108518
0.00116301
0.00123462
0.00127895
0.00486309
0.00182532
0.000841449
0.000452105
0.000272089
0.000178192
0.000124389
9.1188e-05
6.94515e-05
5.45237e-05
4.38632e-05
3.60005e-05
3.00435e-05
2.54279e-05
2.1784e-05
1.88624e-05
1.65732e-05
1.47664e-05
1.33161e-05
1.21353e-05
1.11622e-05
1.03517e-05
9.6696e-06
9.08971e-06
8.59126e-06
8.15753e-06
7.77485e-06
7.43196e-06
7.11957e-06
6.83011e-06
6.55763e-06
6.29765e-06
6.04705e-06
5.80701e-06
5.58313e-06
5.37364e-06
5.17728e-06
4.9936e-06
4.82359e-06
4.67105e-06
4.5447e-06
4.46163e-06
4.45204e-06
4.56569e-06
4.87984e-06
5.50858e-06
6.61299e-06
8.41122e-06
1.11875e-05
1.52987e-05
2.11775e-05
2.93309e-05
4.0333e-05
5.48138e-05
7.34418e-05
9.69043e-05
0.000125885
0.000161043
0.000202983
0.000252236
0.00030922
0.000374205
0.000447264
0.000528223
0.000616619
0.000711669
0.000812266
0.000917019
0.00102432
0.00113243
0.00123965
0.00134435
0.00144517
0.001541
0.00163103
0.00171454
0.00179124
0.00185793
0.00191702
0.00194506
0.00486309
0.00182477
0.000840957
0.000451757
0.000271841
0.000178011
0.000124255
9.10868e-05
6.9373e-05
5.44612e-05
4.38116e-05
3.59554e-05
3.00007e-05
2.53828e-05
2.17317e-05
1.87967e-05
1.64884e-05
1.46568e-05
1.31765e-05
1.19607e-05
1.09486e-05
1.00957e-05
9.36906e-06
8.74385e-06
8.20082e-06
7.7249e-06
7.3041e-06
6.92881e-06
6.59123e-06
6.28507e-06
6.00521e-06
5.74759e-06
5.50896e-06
5.28834e-06
5.08559e-06
4.90105e-06
4.73934e-06
4.61317e-06
4.54915e-06
4.59604e-06
4.83533e-06
5.39407e-06
6.45929e-06
8.29301e-06
1.12465e-05
1.57717e-05
2.24292e-05
3.18894e-05
4.49273e-05
6.24097e-05
8.52745e-05
0.000114504
0.000151091
0.000196003
0.000250131
0.00031424
0.000388895
0.000474382
0.000570622
0.000677085
0.000792736
0.000916026
0.00104494
0.00117713
0.00131006
0.00144122
0.00156831
0.00168942
0.00180306
0.00190826
0.00200451
0.00209167
0.00216995
0.00223974
0.00230163
0.00235591
0.00240381
0.00244181
0.00247694
0.00247642
0.0048631
0.00182412
0.000840418
0.000451378
0.000271568
0.000177811
0.000124105
9.09719e-05
6.9283e-05
5.43893e-05
4.37531e-05
3.59067e-05
2.99589e-05
2.53454e-05
2.16961e-05
1.87604e-05
1.64489e-05
1.46119e-05
1.31241e-05
1.18992e-05
1.08764e-05
1.00118e-05
9.27287e-06
8.63517e-06
8.07994e-06
7.59262e-06
7.16171e-06
6.77806e-06
6.43428e-06
6.1244e-06
5.84352e-06
5.58769e-06
5.35471e-06
5.15425e-06
5.01299e-06
4.98936e-06
5.19039e-06
5.79135e-06
7.05699e-06
9.36246e-06
1.32113e-05
1.92478e-05
2.8262e-05
4.11848e-05
5.90728e-05
8.30815e-05
0.000114429
0.000154351
0.000204043
0.000264598
0.00033693
0.000421681
0.000519129
0.000629079
0.000750785
0.000882902
0.0010235
0.00117014
0.00132009
0.00147045
0.00161849
0.00176176
0.00189828
0.00202658
0.00214565
0.00225495
0.00235423
0.00244349
0.0025229
0.00259275
0.00265343
0.00270544
0.00274936
0.00278583
0.0028157
0.0028393
0.00285861
0.00286934
0.00288289
0.00285716
0.0048631
0.00182339
0.000839843
0.000450974
0.000271275
0.000177596
0.000123943
9.08462e-05
6.91836e-05
5.43093e-05
4.36876e-05
3.58523e-05
2.99131e-05
2.53061e-05
2.16618e-05
1.87296e-05
1.64201e-05
1.45842e-05
1.30964e-05
1.18709e-05
1.0847e-05
9.98119e-06
9.24123e-06
8.60316e-06
8.04888e-06
7.56471e-06
7.14053e-06
6.7693e-06
6.44712e-06
6.17384e-06
5.95459e-06
5.80522e-06
6.02447e-06
7.03904e-06
9.37942e-06
1.37678e-05
2.11233e-05
3.25492e-05
4.93035e-05
7.27527e-05
0.000104312
0.000145373
0.000197234
0.000261015
0.000337575
0.000427432
0.000530675
0.000646895
0.000775134
0.000913872
0.00106107
0.00121429
0.00137083
0.00152797
0.00168317
0.00183422
0.0019794
0.00211749
0.00224771
0.0023696
0.00248295
0.00258765
0.0026836
0.00277073
0.00284896
0.00291824
0.00297857
0.00303006
0.00307293
0.00310753
0.00313432
0.00315388
0.0031669
0.00317407
0.00317636
0.00317409
0.00316978
0.00315845
0.00315507
0.00311053
0.0048631
0.00182257
0.000839243
0.000450552
0.00027097
0.00017737
0.000123771
9.07121e-05
6.90768e-05
5.4223e-05
4.36174e-05
3.57954e-05
2.9868e-05
2.52733e-05
2.16436e-05
1.8732e-05
1.6453e-05
1.46639e-05
1.32497e-05
1.21417e-05
1.13059e-05
1.07405e-05
1.04766e-05
1.0583e-05
1.11747e-05
1.24239e-05
1.45748e-05
1.79614e-05
2.30295e-05
3.03641e-05
4.07195e-05
5.59158e-05
7.96657e-05
0.000113411
0.000158635
0.000216557
0.000288048
0.000373547
0.000473
0.00058583
0.000710928
0.000846683
0.000991056
0.00114168
0.00129601
0.00145148
0.00160569
0.00175657
0.00190252
0.00204244
0.00217573
0.00230224
0.00242211
0.00253564
0.00264313
0.00274483
0.00284081
0.00293099
0.00301514
0.00309295
0.00316403
0.00322803
0.00328464
0.0033336
0.00337479
0.00340819
0.00343389
0.00345213
0.00346324
0.00346769
0.00346603
0.00345892
0.00344707
0.00343119
0.00341229
0.00339058
0.00336891
0.00334191
0.00332654
0.00326974
0.0048631
0.0018217
0.000838636
0.000450125
0.000270667
0.000177156
0.000123626
9.06289e-05
6.90658e-05
5.43179e-05
4.38899e-05
3.63839e-05
3.10309e-05
2.74809e-05
2.57237e-05
2.60828e-05
2.89799e-05
3.48619e-05
4.43236e-05
5.80653e-05
7.68668e-05
0.000101564
0.000133028
0.000172143
0.000219784
0.000276797
0.000343978
0.000422052
0.000511652
0.00061329
0.000727302
0.00085354
0.00099205
0.00113961
0.00129288
0.00144839
0.00160292
0.00175366
0.00189836
0.00203549
0.00216418
0.00228425
0.00239607
0.00250043
0.00259833
0.00269087
0.00277906
0.00286374
0.00294552
0.00302474
0.00310152
0.00317577
0.00324726
0.00331569
0.00338063
0.00344168
0.00349838
0.00355027
0.00359691
0.00363788
0.00367284
0.00370147
0.00372358
0.00373909
0.00374801
0.00375052
0.00374688
0.00373748
0.00372281
0.00370343
0.00367997
0.00365308
0.00362349
0.00359183
0.0035591
0.00352537
0.00349353
0.00345836
0.00343638
0.0033746
0.0048633
0.00182115
0.000838577
0.000450485
0.000271584
0.000178996
0.000127185
9.75204e-05
8.22974e-05
7.89739e-05
8.77016e-05
0.000110008
0.000148017
0.000203992
0.000280061
0.000377984
0.000492901
0.000621334
0.000761089
0.000909961
0.00106575
0.00122628
0.00138939
0.00155299
0.00171508
0.00187385
0.00202773
0.00217544
0.00231604
0.00244894
0.00257392
0.00268998
0.00279441
0.00288786
0.00297119
0.00304576
0.00311325
0.00317535
0.00323352
0.00328894
0.00334243
0.0033945
0.00344546
0.00349545
0.00354451
0.00359262
0.00363971
0.00368569
0.00373041
0.00377368
0.00381522
0.00385472
0.00389178
0.00392597
0.0039568
0.00398381
0.00400654
0.00402457
0.00403756
0.00404526
0.00404752
0.00404428
0.00403564
0.00402177
0.00400298
0.00397967
0.00395232
0.00392149
0.00388777
0.00385177
0.00381415
0.00377553
0.00373661
0.00369794
0.00366044
0.00362413
0.00359175
0.00355896
0.00353802
0.00348414
0.00487719
0.00184536
0.000876227
0.000508285
0.000362794
0.000325622
0.000362517
0.000465274
0.000630754
0.00085192
0.00111605
0.00140714
0.00170929
0.00200889
0.00229537
0.00256098
0.00278993
0.00298174
0.00314125
0.00327356
0.00338356
0.00347576
0.0035541
0.00362196
0.00368214
0.00373685
0.00378775
0.00383605
0.00388255
0.00392776
0.00397198
0.00401534
0.00405428
0.00408775
0.00411611
0.00414061
0.00416264
0.00418335
0.00420357
0.00422385
0.00424452
0.0042657
0.00428738
0.00430938
0.00433145
0.00435322
0.00437427
0.00439415
0.00441236
0.00442841
0.00444178
0.004452
0.0044586
0.00446117
0.00445937
0.00445292
0.00444164
0.00442546
0.00440443
0.0043787
0.00434857
0.00431441
0.00427673
0.00423608
0.00419309
0.00414845
0.00410285
0.00405701
0.00401164
0.00396742
0.00392504
0.00388517
0.00384852
0.00381568
0.00378768
0.00376473
0.00374945
0.0037396
0.00373594
0.00372897
0.00556866
0.00287829
0.00213726
0.00201034
0.00218349
0.0025445
0.00303202
0.003575
0.00409207
0.00451778
0.00482276
0.00501275
0.00511407
0.00515821
0.00517185
0.00517335
0.005167
0.00515925
0.00515309
0.00514828
0.00514381
0.00513886
0.00513304
0.00512638
0.00511915
0.0051118
0.00510474
0.00509836
0.00509293
0.00508858
0.0050855
0.00508315
0.00508176
0.00508381
0.00509088
0.0051029
0.00511894
0.0051378
0.0051583
0.00517936
0.00520016
0.00521995
0.00523796
0.00525348
0.00526582
0.00527435
0.00527845
0.00527757
0.00527121
0.00525894
0.00524043
0.00521547
0.00518395
0.00514594
0.00510162
0.00505134
0.0049956
0.00493505
0.00487047
0.00480273
0.00473283
0.0046618
0.00459074
0.00452075
0.00445293
0.00438829
0.00432791
0.00427289
0.00422425
0.00418299
0.00415013
0.00412673
0.00411399
0.00411298
0.00412559
0.00415173
0.0041972
0.00425327
0.0043342
0.00450437
0.0142815
0.0119092
0.010145
0.00887955
0.00795805
0.00729405
0.00682788
0.00651655
0.00632009
0.00619793
0.00611434
0.00604444
0.0059754
0.0059034
0.00582949
0.00575615
0.00568791
0.00562617
0.0055707
0.00552086
0.00547587
0.00543499
0.00539758
0.00536318
0.0053314
0.00530192
0.00527445
0.00524868
0.00522425
0.00520077
0.00517779
0.00515497
0.00513076
0.00510374
0.00507366
0.00504075
0.0050053
0.00496752
0.00492749
0.00488526
0.00484081
0.00479418
0.00474542
0.00469462
0.00464188
0.00458736
0.00453124
0.00447374
0.00441514
0.00435577
0.00429599
0.00423624
0.00417701
0.00411885
0.00406237
0.00400825
0.00395721
0.00391004
0.00386758
0.00383073
0.00380044
0.00377772
0.00376364
0.00375934
0.00376605
0.00378511
0.00381799
0.00386632
0.00393194
0.00401698
0.00412387
0.00425552
0.00441522
0.0046075
0.00483619
0.00511225
0.00543046
0.00584801
0.00624364
0.00698229
)
;

boundaryField
{
    inlet
    {
        type            fixedValue;
        value           uniform 0.017;
    }
    outlet
    {
        type            zeroGradient;
    }
    fixedWalls
    {
        type            kqRWallFunction;
        value           nonuniform List<scalar> 
160
(
0.0142815
0.0119092
0.010145
0.00887955
0.00795805
0.00729405
0.00682788
0.00651655
0.00632009
0.00619793
0.00611434
0.00604444
0.0059754
0.0059034
0.00582949
0.00575615
0.00568791
0.00562617
0.0055707
0.00552086
0.00547587
0.00543499
0.00539758
0.00536318
0.0053314
0.00530192
0.00527445
0.00524868
0.00522425
0.00520077
0.00517779
0.00515497
0.00513076
0.00510374
0.00507366
0.00504075
0.0050053
0.00496752
0.00492749
0.00488526
0.00484081
0.00479418
0.00474542
0.00469462
0.00464188
0.00458736
0.00453124
0.00447374
0.00441514
0.00435577
0.00429599
0.00423624
0.00417701
0.00411885
0.00406237
0.00400825
0.00395721
0.00391004
0.00386758
0.00383073
0.00380044
0.00377772
0.00376364
0.00375934
0.00376605
0.00378511
0.00381799
0.00386632
0.00393194
0.00401698
0.00412387
0.00425552
0.00441522
0.0046075
0.00483619
0.00511225
0.00543046
0.00584801
0.00624364
0.00698229
0.0162095
0.0147777
0.0124076
0.00897619
0.00372355
0.000832862
0.000739749
0.000845677
0.000886355
0.000778666
0.00056982
0.000442356
0.000488243
0.000542658
0.00060605
0.000694566
0.0008098
0.000946032
0.00110269
0.001283
0.00149123
0.00173181
0.00200881
0.00232535
0.002683
0.00308132
0.00351778
0.00398795
0.00448599
0.00500523
0.00553878
0.00607999
0.00662287
0.00716235
0.00769474
0.00821804
0.00873236
0.00924044
0.00974865
0.010269
0.0107868
0.0112895
0.0117789
0.0122566
0.012723
0.0131774
0.0136185
0.0140444
0.0144533
0.0148431
0.015212
0.0155581
0.0158799
0.0161755
0.0164404
0.0166745
0.0168782
0.0170531
0.0172038
0.017348
0.0175263
0.0177141
0.0178936
0.0180574
0.0182038
0.0183334
0.0184478
0.0185493
0.0186408
0.0187255
0.0188071
0.0188898
0.0189787
0.0190798
0.0192011
0.019353
0.0195527
0.0198259
0.0202131
0.0209634
)
;
    }
    frontAndBack
    {
        type            empty;
    }
}


// ************************************************************************* //
