/*--------------------------------*- C++ -*----------------------------------*\
| =========                 |                                                 |
| \\      /  F ield         | OpenFOAM: The Open Source CFD Toolbox           |
|  \\    /   O peration     | Version:  v1912                                 |
|   \\  /    A nd           | Website:  www.openfoam.com                      |
|    \\/     M anipulation  |                                                 |
\*---------------------------------------------------------------------------*/
FoamFile
{
    version     2.0;
    format      ascii;
    class       volScalarField;
    location    "125";
    object      nut;
}
// * * * * * * * * * * * * * * * * * * * * * * * * * * * * * * * * * * * * * //

dimensions      [0 2 -1 0 0 0 0];


internalField   nonuniform List<scalar> 
2000
(
0.00175001
0.00175725
0.00169169
0.00151022
0.0010199
0.000505221
0.000498248
0.000556919
0.000595396
0.000581961
0.000518791
0.000475902
0.000519897
0.000569217
0.000623917
0.000691827
0.0007721
0.00086004
0.000954202
0.00105499
0.00116303
0.00127879
0.00140235
0.00153336
0.0016709
0.00181353
0.00195942
0.00210652
0.00225273
0.00239612
0.00253495
0.00266783
0.00279366
0.00291166
0.00302141
0.00312284
0.00321627
0.00330244
0.00338264
0.00345895
0.00352889
0.00359057
0.0036445
0.00369119
0.00373087
0.00376365
0.00378951
0.00380843
0.00382035
0.00382526
0.00382315
0.00381408
0.0037981
0.00377529
0.00374543
0.00370882
0.00366582
0.00361689
0.00356282
0.00350562
0.00344944
0.00339171
0.00333078
0.0032661
0.0031977
0.00312585
0.00305087
0.00297313
0.00289302
0.00281091
0.00272718
0.00264223
0.00255644
0.0024702
0.00238398
0.00229829
0.00221391
0.00213188
0.00205368
0.00199025
3.44184e-05
5.60387e-05
9.95506e-05
0.000148331
0.000162376
0.000155786
0.000159489
0.00020414
0.00130754
0.00144302
0.00101746
0.000856865
0.00110291
0.00139315
0.00162769
0.00191102
0.00225766
0.00263822
0.00302882
0.00342368
0.00382394
0.00423302
0.00465607
0.00510026
0.00557469
0.00608942
0.00665396
0.00727579
0.00795924
0.00870368
0.00950318
0.0103468
0.0112189
0.012101
0.0129725
0.0138131
0.0146032
0.015325
0.0159605
0.0164498
0.0168268
0.0171468
0.0174284
0.0176793
0.0179034
0.0181026
0.0182778
0.0184294
0.0185575
0.018662
0.0187427
0.0187992
0.0188303
0.0188328
0.0188136
0.0187705
0.0187036
0.018613
0.0184987
0.01836
0.0181955
0.0180065
0.0177949
0.0175623
0.0173104
0.0170408
0.016755
0.0164546
0.0161414
0.015817
0.0154833
0.015142
0.0147947
0.0144432
0.0140887
0.0137313
0.0133723
0.0129986
0.0126552
0.0123931
2.12863e-05
1.81623e-05
2.51311e-05
4.00208e-05
5.55746e-05
6.79093e-05
7.91928e-05
9.46205e-05
0.000197771
0.000291817
0.000423374
0.000881195
0.00188172
0.00221808
0.00198447
0.00195592
0.00227868
0.00276186
0.00329803
0.00386638
0.0044719
0.0051168
0.0057989
0.00651636
0.0072701
0.00806359
0.00890138
0.00978712
0.0107217
0.0117017
0.012718
0.0137564
0.0147977
0.0158186
0.0167935
0.0176982
0.0185119
0.0192171
0.019817
0.0203249
0.02076
0.0211383
0.0214704
0.0217633
0.0220211
0.0222462
0.0224402
0.022604
0.0227382
0.0228433
0.0229197
0.0229678
0.0229879
0.0229803
0.0229459
0.0228855
0.0228
0.0226903
0.0225574
0.0224022
0.0222255
0.0220289
0.0218139
0.0215821
0.021335
0.0210743
0.0208016
0.0205185
0.0202269
0.0199284
0.0196247
0.0193174
0.0190078
0.0186966
0.018384
0.0180679
0.017745
0.0174025
0.0170673
0.0166892
1.97876e-05
1.26288e-05
1.14638e-05
1.46586e-05
2.10192e-05
2.89078e-05
3.74828e-05
4.73195e-05
7.28191e-05
0.000111975
0.000173117
0.000306964
0.000590342
0.000956708
0.00144394
0.00203836
0.00256791
0.00297178
0.00332905
0.00373525
0.00423967
0.00484561
0.0055341
0.00628535
0.00708755
0.00793548
0.00882625
0.00975674
0.0107225
0.0117172
0.0127323
0.0137559
0.0147718
0.0157582
0.0166856
0.0175269
0.0182627
0.0189228
0.0195135
0.0200403
0.0205084
0.0209226
0.0212876
0.0216075
0.0218855
0.0221239
0.0223243
0.0224883
0.0226168
0.0227111
0.0227722
0.0228012
0.0227994
0.0227681
0.0227087
0.0226227
0.022512
0.0223783
0.0222236
0.0220497
0.0218587
0.0216527
0.021434
0.0212046
0.0209666
0.020722
0.0204727
0.0202205
0.0199674
0.0197148
0.0194644
0.0192174
0.0189747
0.0187365
0.018502
0.0182684
0.0180308
0.0177759
0.017522
0.0171855
1.95963e-05
1.17281e-05
8.64723e-06
8.13685e-06
9.64776e-06
1.2883e-05
1.7484e-05
2.32551e-05
3.29444e-05
4.85344e-05
7.37647e-05
0.000122314
0.00022254
0.000392286
0.000665107
0.00107856
0.00160759
0.00220504
0.00282567
0.00343373
0.00401989
0.00459831
0.00518957
0.00581002
0.00646981
0.00717375
0.00792224
0.00871236
0.00953908
0.0103961
0.011276
0.0121689
0.013059
0.0139238
0.0147165
0.0154477
0.016132
0.016767
0.0173513
0.0178847
0.0183672
0.0187991
0.0191814
0.0195157
0.0198034
0.0200463
0.0202458
0.0204035
0.020521
0.0205998
0.0206417
0.0206484
0.0206221
0.0205649
0.0204791
0.0203671
0.0202317
0.0200754
0.019901
0.0197114
0.0195093
0.0192975
0.0190788
0.0188557
0.0186308
0.0184064
0.0181845
0.0179672
0.0177562
0.0175532
0.0173595
0.0171762
0.0170041
0.0168435
0.0166934
0.0165516
0.016414
0.0162686
0.0161316
0.0159138
1.95712e-05
1.15909e-05
8.0947e-06
6.55328e-06
6.2372e-06
6.97327e-06
8.74015e-06
1.15261e-05
1.58702e-05
2.26113e-05
3.32213e-05
5.17926e-05
8.76017e-05
0.000152368
0.000264433
0.000451987
0.000732174
0.00111607
0.00160624
0.00218916
0.00283698
0.00351637
0.00419968
0.00487244
0.00553315
0.00618775
0.00684379
0.00750721
0.00818152
0.00886821
0.00956681
0.0102733
0.0109681
0.0116324
0.0122759
0.0128948
0.0134852
0.0140433
0.0145655
0.0150489
0.0154908
0.0158894
0.0162435
0.0165523
0.016816
0.0170349
0.01721
0.0173424
0.0174336
0.0174854
0.0174999
0.0174794
0.0174265
0.0173439
0.0172347
0.0171019
0.0169488
0.0167788
0.0165951
0.0164012
0.0162002
0.0159952
0.0157893
0.0155852
0.0153854
0.0151924
0.0150081
0.0148344
0.014673
0.0145251
0.0143921
0.0142748
0.014174
0.0140901
0.0140229
0.0139708
0.0139319
0.0138965
0.0138817
0.0138069
1.95678e-05
1.1573e-05
7.99818e-06
6.20084e-06
5.31909e-06
5.07732e-06
5.42534e-06
6.40309e-06
8.18636e-06
1.10977e-05
1.56974e-05
2.32797e-05
3.67856e-05
6.08945e-05
0.000102893
0.000174286
0.000284734
0.000445461
0.000669742
0.000970153
0.00135576
0.00182881
0.00238228
0.00299994
0.00365933
0.00433667
0.00501202
0.00567248
0.00631263
0.00693267
0.00753551
0.00812323
0.00868723
0.00922892
0.00974881
0.010246
0.0107189
0.0111658
0.0115847
0.0119734
0.0123295
0.012651
0.0129357
0.0131823
0.0133897
0.0135575
0.013686
0.0137759
0.0138286
0.0138457
0.0138293
0.0137821
0.0137068
0.0136064
0.0134842
0.0133436
0.0131881
0.0130211
0.0128462
0.0126666
0.0124856
0.0123062
0.0121312
0.0119632
0.0118044
0.0116568
0.0115224
0.0114024
0.0112984
0.0112113
0.0111422
0.0110918
0.0110609
0.0110501
0.0110598
0.0110896
0.0111395
0.0112028
0.0112981
0.0113617
1.95674e-05
1.15717e-05
7.98491e-06
6.13074e-06
5.09344e-06
4.53156e-06
4.32859e-06
4.47111e-06
5.01943e-06
6.10762e-06
7.96997e-06
1.10653e-05
1.63627e-05
2.55752e-05
4.14561e-05
6.82199e-05
0.000109152
0.000168118
0.000250295
0.000361927
0.000510184
0.000702735
0.00094703
0.00124926
0.00161299
0.00203778
0.00251815
0.00304363
0.00359994
0.00417106
0.00474158
0.00529887
0.00584605
0.00635501
0.00682084
0.0072476
0.00763996
0.00800154
0.00833424
0.00863845
0.00891351
0.00915822
0.00937135
0.00955194
0.00969944
0.00981384
0.0098956
0.00994571
0.00996557
0.00995697
0.0099221
0.0098634
0.0097836
0.00968562
0.00957253
0.00944748
0.00931361
0.00917407
0.00903186
0.00888988
0.00875082
0.00861719
0.00849127
0.00837512
0.00827055
0.00817917
0.00810239
0.00804141
0.0079973
0.00797099
0.00796332
0.0079751
0.00800712
0.0080602
0.0081353
0.00823313
0.00835548
0.0084986
0.00868207
0.00886281
1.95673e-05
1.15722e-05
7.9845e-06
6.11933e-06
5.04315e-06
4.38679e-06
3.99764e-06
3.8207e-06
3.85596e-06
4.14595e-06
4.7807e-06
5.93053e-06
7.92971e-06
1.13899e-05
1.73442e-05
2.74055e-05
4.2782e-05
6.46755e-05
9.45139e-05
0.000133933
0.000184859
0.000249548
0.000330585
0.000430864
0.000553486
0.000701578
0.000877985
0.00108488
0.00132334
0.00159292
0.00189143
0.0022149
0.00255954
0.00294232
0.00333501
0.0037221
0.00409112
0.00443311
0.00474266
0.00501739
0.00525707
0.00546278
0.00563623
0.0057793
0.0058938
0.00598141
0.00604373
0.00608233
0.00609883
0.006095
0.00607274
0.00603414
0.00598143
0.00591695
0.00584312
0.00576237
0.0056771
0.00558965
0.00550226
0.00541706
0.00533602
0.00526099
0.00519366
0.0051356
0.00508822
0.00505285
0.00503068
0.00502283
0.00503034
0.0050542
0.0050954
0.00515491
0.00523381
0.00533328
0.00545481
0.00559998
0.00577198
0.00596981
0.00621288
0.00647961
1.95673e-05
1.15724e-05
7.98518e-06
6.11844e-06
5.03351e-06
4.3515e-06
3.90467e-06
3.61755e-06
3.46179e-06
3.43853e-06
3.57382e-06
3.92514e-06
4.60418e-06
5.81713e-06
7.92586e-06
1.15252e-05
1.71054e-05
2.5137e-05
3.60913e-05
5.04006e-05
6.84797e-05
9.07418e-05
0.000117605
0.00014949
0.000186816
0.000229971
0.000279271
0.00033491
0.000396893
0.000464984
0.000538661
0.000617106
0.000699395
0.000785987
0.000892547
0.00101819
0.00116109
0.0013178
0.00148363
0.00165328
0.00182134
0.00198282
0.00213353
0.00227022
0.0023907
0.00249372
0.00257893
0.00264663
0.00269767
0.00273329
0.00275498
0.00276439
0.00276326
0.00275333
0.00273635
0.00271404
0.00268803
0.00265992
0.00263122
0.0026034
0.00257783
0.00255585
0.00253872
0.00252767
0.00252391
0.00252861
0.00254295
0.00256811
0.00260531
0.0026558
0.0027209
0.00280202
0.00290071
0.0030187
0.00315811
0.00332134
0.00351254
0.00373335
0.00400149
0.00431525
1.95673e-05
1.15723e-05
7.98526e-06
6.11862e-06
5.03211e-06
4.34377e-06
3.88039e-06
3.55804e-06
3.33606e-06
3.19801e-06
3.14385e-06
3.18845e-06
3.36605e-06
3.74134e-06
4.42938e-06
5.62584e-06
7.50746e-06
1.02594e-05
1.40663e-05
1.90784e-05
2.54066e-05
3.31251e-05
4.22726e-05
5.2851e-05
6.48192e-05
7.80825e-05
9.24775e-05
0.000107754
0.000123555
0.0001394
0.000154673
0.000168613
0.000180326
0.000188853
0.000196998
0.000206826
0.00021904
0.000234337
0.000253317
0.000276381
0.000303655
0.000334948
0.000369759
0.000407316
0.00044665
0.000486685
0.000526326
0.000564544
0.000600442
0.000633306
0.000662629
0.000688121
0.000709702
0.000727481
0.000741735
0.000752878
0.000761428
0.000767985
0.000773203
0.000777775
0.000782416
0.000787859
0.000794856
0.000804181
0.000816641
0.000833101
0.0008545
0.000881882
0.000916434
0.000959518
0.00101271
0.00107787
0.00115716
0.00125311
0.00136879
0.00150781
0.00167534
0.00187592
0.00212472
0.00243606
1.95673e-05
1.15718e-05
7.98458e-06
6.1182e-06
5.03169e-06
4.34208e-06
3.87441e-06
3.54163e-06
3.29818e-06
3.1204e-06
2.99771e-06
2.92894e-06
2.92175e-06
2.99456e-06
3.18156e-06
3.5414e-06
4.12801e-06
5.00051e-06
6.22348e-06
7.85261e-06
9.92636e-06
1.24615e-05
1.54521e-05
1.88702e-05
2.2666e-05
2.67661e-05
3.10714e-05
3.54541e-05
3.97561e-05
4.379e-05
4.73441e-05
5.01931e-05
5.2115e-05
5.29188e-05
5.32593e-05
5.3382e-05
5.33074e-05
5.30663e-05
5.27006e-05
5.22631e-05
5.18161e-05
5.14294e-05
5.11768e-05
5.11308e-05
5.1357e-05
5.19081e-05
5.28187e-05
5.41013e-05
5.57459e-05
5.77207e-05
5.99766e-05
6.2453e-05
6.50844e-05
6.78073e-05
7.05661e-05
7.33172e-05
7.60325e-05
7.87011e-05
8.1331e-05
8.39504e-05
8.66106e-05
8.93895e-05
9.23968e-05
9.57791e-05
9.97263e-05
0.000104476
0.000110324
0.00011763
0.000126848
0.000138553
0.000153503
0.000172721
0.000197622
0.000230187
0.000273248
0.000330841
0.000409066
0.000516266
0.000667944
0.000891096
1.95673e-05
1.15708e-05
7.98321e-06
6.11701e-06
5.03077e-06
4.34113e-06
3.8726e-06
3.53707e-06
3.28721e-06
3.09654e-06
2.95035e-06
2.84128e-06
2.76748e-06
2.73207e-06
2.74387e-06
2.81933e-06
2.97447e-06
3.22435e-06
3.58606e-06
4.07556e-06
4.7048e-06
5.47906e-06
6.39501e-06
7.43982e-06
8.59112e-06
9.8174e-06
1.10786e-05
1.23267e-05
1.35074e-05
1.45622e-05
1.54319e-05
1.60617e-05
1.64068e-05
1.64356e-05
1.63636e-05
1.62194e-05
1.60056e-05
1.5726e-05
1.53853e-05
1.49893e-05
1.45446e-05
1.40586e-05
1.35388e-05
1.29931e-05
1.24296e-05
1.18561e-05
1.12802e-05
1.07089e-05
1.01488e-05
9.60556e-06
9.08417e-06
8.58886e-06
8.1241e-06
7.69682e-06
7.32073e-06
7.0219e-06
6.84213e-06
6.83589e-06
7.06155e-06
7.57339e-06
8.41903e-06
9.64105e-06
1.1279e-05
1.33699e-05
1.59479e-05
1.90431e-05
2.26813e-05
2.68847e-05
3.16739e-05
3.70717e-05
4.31085e-05
4.98322e-05
5.73207e-05
6.57045e-05
7.52046e-05
8.61958e-05
9.93855e-05
0.000115953
0.00013929
0.000176205
1.95673e-05
1.15695e-05
7.98122e-06
6.11513e-06
5.02917e-06
4.33976e-06
3.87124e-06
3.53519e-06
3.28367e-06
3.0892e-06
2.93549e-06
2.81285e-06
2.71594e-06
2.64258e-06
2.59338e-06
2.57183e-06
2.58358e-06
2.63134e-06
2.71796e-06
2.84626e-06
3.01823e-06
3.23426e-06
3.4925e-06
3.78837e-06
4.11437e-06
4.46008e-06
4.81241e-06
5.15608e-06
5.47442e-06
5.75043e-06
5.9681e-06
6.11392e-06
6.1784e-06
6.15674e-06
6.11514e-06
6.05416e-06
5.97474e-06
5.87813e-06
5.76582e-06
5.63949e-06
5.501e-06
5.35231e-06
5.19547e-06
5.03259e-06
4.86577e-06
4.69718e-06
4.52901e-06
4.36366e-06
4.20433e-06
4.05665e-06
3.93237e-06
3.85472e-06
3.86287e-06
4.0106e-06
4.35991e-06
4.97543e-06
5.92395e-06
7.27604e-06
9.10674e-06
1.14939e-05
1.45155e-05
1.82455e-05
2.27514e-05
2.80913e-05
3.43124e-05
4.14506e-05
4.95316e-05
5.85725e-05
6.85842e-05
7.95736e-05
9.15456e-05
0.000104504
0.000118448
0.00013337
0.000149237
0.000165961
0.000183364
0.000200908
0.000218219
0.00023187
1.95673e-05
1.15677e-05
7.97867e-06
6.11267e-06
5.02695e-06
4.3378e-06
3.8695e-06
3.53352e-06
3.28174e-06
3.08633e-06
2.93047e-06
2.80361e-06
2.69915e-06
2.61305e-06
2.54314e-06
2.48882e-06
2.45285e-06
2.43469e-06
2.43345e-06
2.44859e-06
2.47957e-06
2.52555e-06
2.58522e-06
2.65661e-06
2.73706e-06
2.8232e-06
2.91098e-06
2.99591e-06
3.07318e-06
3.13809e-06
3.18636e-06
3.21455e-06
3.22044e-06
3.20555e-06
3.1857e-06
3.161e-06
3.1317e-06
3.09812e-06
3.06069e-06
3.01989e-06
2.97633e-06
2.93078e-06
2.88421e-06
2.83794e-06
2.79389e-06
2.75544e-06
2.72973e-06
2.73226e-06
2.79324e-06
2.96093e-06
3.29897e-06
3.88142e-06
4.79153e-06
6.12381e-06
7.98537e-06
1.04948e-05
1.3779e-05
1.79683e-05
2.31912e-05
2.95694e-05
3.7213e-05
4.62166e-05
5.66571e-05
6.85916e-05
8.20559e-05
9.7063e-05
0.000113601
0.000131629
0.000151074
0.000171829
0.000193745
0.000216632
0.000240258
0.000264347
0.000288582
0.000312591
0.000335939
0.000357852
0.000377883
0.000391959
1.95673e-05
1.15655e-05
7.97563e-06
6.10971e-06
5.02422e-06
4.33531e-06
3.86725e-06
3.53148e-06
3.2798e-06
3.0843e-06
2.92797e-06
2.79998e-06
2.69329e-06
2.60319e-06
2.52661e-06
2.46161e-06
2.4101e-06
2.37066e-06
2.34144e-06
2.32111e-06
2.30862e-06
2.30302e-06
2.30337e-06
2.30864e-06
2.31772e-06
2.32937e-06
2.34223e-06
2.35489e-06
2.36591e-06
2.37395e-06
2.3778e-06
2.37655e-06
2.36962e-06
2.35828e-06
2.34605e-06
2.33295e-06
2.31904e-06
2.30455e-06
2.28987e-06
2.2758e-06
2.26367e-06
2.25583e-06
2.25685e-06
2.27677e-06
2.3376e-06
2.48091e-06
2.77006e-06
3.28611e-06
4.12496e-06
5.39951e-06
7.24279e-06
9.80846e-06
1.32682e-05
1.78064e-05
2.36138e-05
3.08794e-05
3.97826e-05
5.04854e-05
6.31252e-05
7.78071e-05
9.45967e-05
0.000113511
0.000134511
0.000157489
0.000182265
0.000208579
0.0002361
0.000264433
0.000293138
0.000321761
0.000349856
0.000377016
0.000402892
0.000427205
0.000449749
0.000470353
0.000488942
0.000505028
0.000519056
0.000527255
1.95673e-05
1.15627e-05
7.97216e-06
6.10633e-06
5.02104e-06
4.33236e-06
3.86454e-06
3.52898e-06
3.27749e-06
3.08212e-06
2.92579e-06
2.79762e-06
2.6904e-06
2.59922e-06
2.52068e-06
2.45243e-06
2.39611e-06
2.35006e-06
2.31217e-06
2.28094e-06
2.25523e-06
2.23412e-06
2.21686e-06
2.20277e-06
2.19123e-06
2.18164e-06
2.17345e-06
2.1661e-06
2.15909e-06
2.15194e-06
2.14428e-06
2.13578e-06
2.12626e-06
2.11633e-06
2.10678e-06
2.09803e-06
2.09114e-06
2.08823e-06
2.09324e-06
2.11399e-06
2.1679e-06
2.29239e-06
2.55337e-06
3.04314e-06
3.87471e-06
5.18291e-06
7.12904e-06
9.90274e-06
1.37195e-05
1.88142e-05
2.54327e-05
3.38206e-05
4.42113e-05
5.68133e-05
7.17971e-05
8.92818e-05
0.00010932
0.000131886
0.000156857
0.00018401
0.000213015
0.000243445
0.000274797
0.000306521
0.000338062
0.000368896
0.000398567
0.000426704
0.000453036
0.000477385
0.000499652
0.000519799
0.000537833
0.000553782
0.000567703
0.000579605
0.000589663
0.000597422
0.000604112
0.00060516
1.95673e-05
1.15595e-05
7.96833e-06
6.10261e-06
5.01749e-06
4.32904e-06
3.86144e-06
3.52609e-06
3.27478e-06
3.07957e-06
2.92337e-06
2.79527e-06
2.68801e-06
2.59664e-06
2.51765e-06
2.44854e-06
2.39089e-06
2.34294e-06
2.30254e-06
2.26814e-06
2.23857e-06
2.21297e-06
2.19065e-06
2.17104e-06
2.15368e-06
2.13817e-06
2.12417e-06
2.11138e-06
2.09955e-06
2.08845e-06
2.07789e-06
2.06775e-06
2.0582e-06
2.05213e-06
2.05471e-06
2.07555e-06
2.13352e-06
2.27041e-06
2.5679e-06
3.14774e-06
4.16001e-06
5.78183e-06
8.22266e-06
1.17247e-05
1.65567e-05
2.3003e-05
3.13494e-05
4.18662e-05
5.47909e-05
7.03096e-05
8.85394e-05
0.000109511
0.000133154
0.000159287
0.000187612
0.000217722
0.00024912
0.00028125
0.000313538
0.000345436
0.00037646
0.000406217
0.000434416
0.000460863
0.000485446
0.000508108
0.000528829
0.000547608
0.000564448
0.000579358
0.000592348
0.000603432
0.000612635
0.000619985
0.000625547
0.000629324
0.000631598
0.000631899
0.000632095
0.000627399
1.95673e-05
1.15559e-05
7.96421e-06
6.0986e-06
5.01365e-06
4.3254e-06
3.85801e-06
3.52285e-06
3.27172e-06
3.07666e-06
2.92061e-06
2.79263e-06
2.68547e-06
2.59414e-06
2.51513e-06
2.4459e-06
2.38799e-06
2.33964e-06
2.29867e-06
2.26353e-06
2.23311e-06
2.20656e-06
2.18328e-06
2.16283e-06
2.14493e-06
2.12946e-06
2.11652e-06
2.10648e-06
2.10018e-06
2.09925e-06
2.10667e-06
2.12816e-06
2.22238e-06
2.47467e-06
3.02999e-06
4.0974e-06
5.91686e-06
8.75622e-06
1.29115e-05
1.86956e-05
2.64188e-05
3.63674e-05
4.87809e-05
6.38311e-05
8.16037e-05
0.000102084
0.000125148
0.000150557
0.000177968
0.000206945
0.000236983
0.000267545
0.000298102
0.00032817
0.000357344
0.000385319
0.000411893
0.000436959
0.000460479
0.000482459
0.000502923
0.000521894
0.000539383
0.000555385
0.00056988
0.000582842
0.000594244
0.00060406
0.000612268
0.000618855
0.000623813
0.000627141
0.000628851
0.000628951
0.000627503
0.00062449
0.000620255
0.000614374
0.00060901
0.000600162
1.95673e-05
1.15519e-05
7.95989e-06
6.09439e-06
5.0096e-06
4.32155e-06
3.85434e-06
3.51935e-06
3.26838e-06
3.0735e-06
2.91766e-06
2.78996e-06
2.68325e-06
2.59268e-06
2.51506e-06
2.44845e-06
2.39519e-06
2.35483e-06
2.32745e-06
2.31518e-06
2.32288e-06
2.35912e-06
2.43762e-06
2.57926e-06
2.815e-06
3.18994e-06
3.76832e-06
4.63824e-06
5.91622e-06
7.75207e-06
1.03348e-05
1.40166e-05
1.94051e-05
2.68257e-05
3.65738e-05
4.88568e-05
6.37831e-05
8.13509e-05
0.000101444
0.000123832
0.000148186
0.00017409
0.00020107
0.000228626
0.000256262
0.000283523
0.000310021
0.000335459
0.000359642
0.00038247
0.000403927
0.00042406
0.000442951
0.000460693
0.00047737
0.000493044
0.000507752
0.000521507
0.000534304
0.000546121
0.00055693
0.000566698
0.000575387
0.000582956
0.000589363
0.000594566
0.00059852
0.000601184
0.00060252
0.000602495
0.000601081
0.000598257
0.000594017
0.000588352
0.000581313
0.000572881
0.000563403
0.000552635
0.000542489
0.000530748
1.95674e-05
1.15476e-05
7.95551e-06
6.09017e-06
5.00569e-06
4.31815e-06
3.8518e-06
3.51845e-06
3.27087e-06
3.08316e-06
2.94229e-06
2.84534e-06
2.80059e-06
2.83202e-06
2.98692e-06
3.34621e-06
3.99332e-06
5.02926e-06
6.58486e-06
8.81045e-06
1.18688e-05
1.59298e-05
2.11662e-05
2.77485e-05
3.58403e-05
4.5593e-05
5.71411e-05
7.05967e-05
8.60445e-05
0.000103536
0.000123081
0.00014451
0.000167351
0.000191132
0.00021536
0.000239545
0.000263241
0.00028608
0.000307787
0.000328191
0.00034722
0.000364885
0.000381266
0.000396478
0.000410656
0.000423932
0.000436415
0.000448191
0.000459318
0.000469829
0.000479742
0.000489064
0.000497798
0.000505945
0.000513507
0.000520482
0.000526862
0.000532632
0.00053777
0.000542241
0.000546005
0.000549013
0.000551211
0.000552542
0.00055295
0.000552379
0.000550774
0.000548083
0.000544259
0.00053926
0.000533049
0.000525597
0.000516891
0.00050692
0.000495733
0.000483334
0.00047002
0.000455874
0.000441904
0.000428299
1.95685e-05
1.15462e-05
7.95811e-06
6.10029e-06
5.03193e-06
4.38034e-06
3.99611e-06
3.84842e-06
3.99935e-06
4.5956e-06
5.84827e-06
8.02357e-06
1.14526e-05
1.65121e-05
2.3587e-05
3.30406e-05
4.45732e-05
5.79457e-05
7.29974e-05
8.95294e-05
0.000107315
0.000126107
0.000145647
0.000165672
0.000185931
0.000206187
0.000226234
0.000245902
0.000265057
0.000283613
0.00030152
0.000318653
0.000334441
0.000348934
0.000362214
0.000374393
0.000385588
0.000395905
0.00040543
0.00041422
0.000422315
0.000429743
0.000436527
0.000442696
0.000448282
0.000453328
0.000457877
0.000461978
0.000465672
0.000468997
0.000471981
0.000474641
0.000476982
0.000479001
0.000480683
0.000482006
0.000482941
0.000483452
0.000483499
0.000483037
0.000482016
0.000480384
0.000478087
0.000475072
0.000471283
0.000466671
0.000461185
0.000454779
0.000447412
0.000439048
0.000429662
0.000419235
0.000407769
0.000395272
0.000381805
0.000367431
0.000352344
0.000337018
0.000321061
0.000306885
1.96489e-05
1.17631e-05
8.44558e-06
7.13547e-06
7.17551e-06
8.63335e-06
1.18674e-05
1.73003e-05
2.53487e-05
3.62503e-05
4.99238e-05
6.60066e-05
8.39793e-05
0.000103283
0.000123391
0.000143842
0.000163402
0.00018171
0.000198789
0.000214729
0.000229648
0.000243682
0.000256959
0.0002696
0.000281702
0.00029334
0.000304563
0.000315397
0.000325848
0.000335907
0.000345558
0.000354772
0.000363077
0.000370266
0.000376372
0.000381502
0.000385788
0.000389357
0.000392322
0.000394779
0.000396807
0.000398469
0.000399812
0.000400873
0.000401676
0.000402238
0.000402571
0.000402678
0.000402561
0.000402217
0.000401638
0.000400814
0.000399729
0.000398364
0.000396696
0.000394699
0.000392345
0.000389602
0.000386439
0.000382824
0.000378722
0.000374102
0.000368929
0.000363173
0.000356803
0.000349794
0.000342121
0.000333764
0.00032471
0.000314952
0.000304495
0.000293354
0.000281563
0.00026917
0.000256256
0.000242941
0.000229312
0.000216018
0.000201446
0.000189315
2.3756e-05
2.08069e-05
2.35285e-05
2.94405e-05
3.82305e-05
5.01316e-05
6.51292e-05
8.23679e-05
0.000100322
0.000117463
0.000132854
0.000146299
0.000158136
0.000168929
0.000179221
0.000189404
0.00019916
0.00020846
0.000217325
0.00022572
0.000233607
0.00024096
0.000247778
0.000254079
0.00025989
0.000265248
0.000270187
0.000274742
0.00027894
0.000282802
0.00028635
0.000289577
0.000292308
0.000294585
0.000296579
0.000298376
0.000300002
0.00030145
0.000302706
0.000303753
0.000304581
0.000305181
0.00030554
0.000305644
0.000305478
0.000305027
0.000304276
0.000303209
0.000301811
0.000300067
0.000297966
0.000295498
0.000292653
0.000289425
0.000285811
0.00028181
0.000277421
0.000272647
0.000267492
0.000261964
0.000256069
0.000249816
0.000243217
0.000236282
0.000229025
0.000221463
0.000213611
0.000205495
0.000197142
0.000188582
0.000179853
0.000170998
0.00016207
0.000153121
0.000144229
0.000135425
0.000126847
0.000118382
0.000109726
0.000103469
8.2132e-05
7.88757e-05
7.64843e-05
7.51033e-05
7.45517e-05
7.47657e-05
7.56999e-05
7.73143e-05
7.95184e-05
8.21542e-05
8.50382e-05
8.80169e-05
9.09946e-05
9.3929e-05
9.68112e-05
9.96441e-05
0.000102379
0.000104935
0.000107302
0.000109487
0.000111494
0.000113327
0.000114988
0.000116483
0.000117815
0.000118987
0.000120005
0.000120871
0.000121588
0.000122157
0.000122579
0.000122855
0.000122973
0.000122919
0.000122695
0.00012231
0.000121772
0.000121087
0.000120263
0.000119305
0.000118218
0.000117007
0.000115677
0.000114236
0.000112689
0.000111043
0.000109305
0.000107482
0.000105584
0.000103617
0.000101592
9.95171e-05
9.74023e-05
9.5258e-05
9.30945e-05
9.09227e-05
8.87535e-05
8.65976e-05
8.44657e-05
8.23684e-05
8.03154e-05
7.83162e-05
7.63794e-05
7.45128e-05
7.27231e-05
7.10162e-05
6.93967e-05
6.78684e-05
6.64338e-05
6.50947e-05
6.38516e-05
6.27044e-05
6.16514e-05
6.06935e-05
5.98214e-05
5.90612e-05
5.83364e-05
5.78916e-05
5.70692e-05
5.74304e-05
)
;

boundaryField
{
    inlet
    {
        type            fixedValue;
        value           uniform 0;
    }
    outlet
    {
        type            zeroGradient;
    }
    fixedWalls
    {
        type            nutkWallFunction;
        Cmu             0.09;
        kappa           0.41;
        E               9.8;
        value           nonuniform List<scalar> 
160
(
9.29711e-06
8.85653e-06
8.53147e-06
8.34314e-06
8.26779e-06
8.29704e-06
8.42455e-06
8.64443e-06
8.94367e-06
9.3001e-06
9.68839e-06
1.00876e-05
1.0485e-05
1.0875e-05
1.12565e-05
1.16301e-05
1.19895e-05
1.23242e-05
1.26333e-05
1.29179e-05
1.31787e-05
1.34163e-05
1.36313e-05
1.38244e-05
1.39961e-05
1.41472e-05
1.42781e-05
1.43894e-05
1.44815e-05
1.45546e-05
1.46087e-05
1.46441e-05
1.46591e-05
1.46521e-05
1.46235e-05
1.4574e-05
1.45049e-05
1.4417e-05
1.43111e-05
1.41879e-05
1.40478e-05
1.38917e-05
1.37201e-05
1.35337e-05
1.33334e-05
1.31198e-05
1.28939e-05
1.26566e-05
1.24088e-05
1.21516e-05
1.18859e-05
1.16131e-05
1.13344e-05
1.10509e-05
1.07641e-05
1.04753e-05
1.01859e-05
9.89746e-06
9.6113e-06
9.32886e-06
9.05149e-06
8.7805e-06
8.5171e-06
8.26241e-06
8.01743e-06
7.78305e-06
7.55998e-06
7.34883e-06
7.15006e-06
6.964e-06
6.79082e-06
6.6306e-06
6.48318e-06
6.34879e-06
6.22618e-06
6.11911e-06
6.01686e-06
5.95401e-06
5.83766e-06
5.88879e-06
0.000184713
0.000185409
0.000179096
0.000161494
0.000112813
5.89708e-05
5.82136e-05
6.45802e-05
6.87218e-05
6.73076e-05
6.04854e-05
5.57937e-05
6.05949e-05
6.59294e-05
7.17896e-05
7.89917e-05
8.74111e-05
9.65314e-05
0.000106191
0.000116423
0.000127284
0.000138809
0.000151
0.000163812
0.000177151
0.000190874
0.000204805
0.000218753
0.000232527
0.000245953
0.000258883
0.000271197
0.000282806
0.000293649
0.000303697
0.000312955
0.000321458
0.000329281
0.000336546
0.000343445
0.000349754
0.000355308
0.000360158
0.000364351
0.000367911
0.000370848
0.000373164
0.000374856
0.000375921
0.000376358
0.000376168
0.000375353
0.000373921
0.000371875
0.000369196
0.000365909
0.000362045
0.000357645
0.000352776
0.000347619
0.000342547
0.000337327
0.000331808
0.00032594
0.000319723
0.00031318
0.000306338
0.000299228
0.000291883
0.000284336
0.000276621
0.00026877
0.000260818
0.0002528
0.000244758
0.000236739
0.000228815
0.000221085
0.000213691
0.000207674
)
;
    }
    frontAndBack
    {
        type            empty;
    }
}


// ************************************************************************* //
