/*--------------------------------*- C++ -*----------------------------------*\
| =========                 |                                                 |
| \\      /  F ield         | OpenFOAM: The Open Source CFD Toolbox           |
|  \\    /   O peration     | Version:  v1912                                 |
|   \\  /    A nd           | Website:  www.openfoam.com                      |
|    \\/     M anipulation  |                                                 |
\*---------------------------------------------------------------------------*/
FoamFile
{
    version     2.0;
    format      ascii;
    class       volScalarField;
    location    "125";
    object      p;
}
// * * * * * * * * * * * * * * * * * * * * * * * * * * * * * * * * * * * * * //

dimensions      [0 2 -2 0 0 0 0];


internalField   nonuniform List<scalar> 
2000
(
-0.0164419
0.100259
0.156584
0.152711
0.139566
0.134551
0.134002
0.134578
0.13454
0.134921
0.13517
0.1351
0.135
0.135009
0.135078
0.135104
0.135085
0.135044
0.134993
0.134926
0.134837
0.13472
0.134565
0.134363
0.134106
0.133786
0.133403
0.132965
0.132495
0.132033
0.131631
0.131353
0.131267
0.131435
0.131914
0.13274
0.133933
0.135508
0.137479
0.139819
0.142545
0.145665
0.149158
0.153014
0.157222
0.161775
0.166661
0.171866
0.177367
0.183138
0.189143
0.195338
0.201675
0.208096
0.214538
0.220928
0.227187
0.23323
0.238961
0.244289
0.249134
0.25339
0.256963
0.25974
0.261603
0.262432
0.262107
0.260498
0.257462
0.252843
0.246464
0.238115
0.227545
0.214437
0.198359
0.178772
0.154575
0.125124
0.0846955
0.0430089
0.0416823
0.126071
0.164128
0.151434
0.13524
0.133233
0.138122
0.139058
0.134924
0.132828
0.133963
0.134883
0.134923
0.135026
0.135217
0.135219
0.135146
0.135076
0.135038
0.135009
0.13497
0.134906
0.134806
0.134647
0.134405
0.134054
0.133577
0.132976
0.132275
0.131525
0.1308
0.130188
0.129783
0.12967
0.129918
0.130575
0.131659
0.133179
0.135218
0.137736
0.140611
0.14378
0.147263
0.151076
0.155225
0.159707
0.164516
0.169635
0.175042
0.180708
0.186596
0.192659
0.198844
0.205086
0.211317
0.217465
0.223449
0.229182
0.234567
0.239502
0.243872
0.247577
0.250531
0.252621
0.25373
0.253736
0.252516
0.249934
0.245845
0.240087
0.232474
0.22279
0.210774
0.196105
0.178374
0.157067
0.131421
0.100939
0.0631364
0.0287588
0.0894622
0.122899
0.145681
0.145193
0.137891
0.13592
0.137243
0.136625
0.134849
0.134712
0.136927
0.136718
0.134632
0.133959
0.134822
0.135281
0.135311
0.135221
0.135163
0.135142
0.13512
0.135073
0.13499
0.134847
0.13461
0.134248
0.133745
0.13311
0.132378
0.131614
0.130898
0.130323
0.129974
0.12993
0.130247
0.130965
0.132112
0.13363
0.1355
0.137775
0.140433
0.143445
0.146806
0.150514
0.154565
0.158953
0.163666
0.168686
0.173986
0.179536
0.185295
0.191213
0.197236
0.203299
0.209332
0.215256
0.220986
0.226432
0.231498
0.236085
0.24009
0.243416
0.24596
0.247613
0.24826
0.247782
0.246055
0.242948
0.238318
0.232003
0.223821
0.213562
0.200978
0.185774
0.167596
0.146048
0.120611
0.0912426
0.0562455
0.0266567
0.111336
0.121547
0.135056
0.140941
0.140437
0.139382
0.138911
0.137862
0.136641
0.135998
0.136322
0.136365
0.13614
0.135632
0.135564
0.135467
0.135145
0.135034
0.13515
0.135283
0.135345
0.135348
0.135299
0.135182
0.134963
0.134613
0.134119
0.133493
0.132776
0.132032
0.131339
0.130784
0.130448
0.130402
0.130694
0.13135
0.132381
0.133856
0.135706
0.137941
0.140554
0.143529
0.146862
0.150547
0.154579
0.158949
0.163641
0.168636
0.173906
0.179416
0.185123
0.190975
0.196914
0.202874
0.208782
0.214558
0.220114
0.225361
0.230202
0.23454
0.238274
0.241305
0.243529
0.244841
0.245128
0.244278
0.242169
0.238675
0.233654
0.226951
0.218391
0.207773
0.194864
0.179399
0.161073
0.13958
0.114541
0.0861378
0.0528349
0.0255896
0.121439
0.125758
0.134917
0.141161
0.142295
0.141792
0.141696
0.141508
0.140639
0.139463
0.138582
0.138093
0.137642
0.136796
0.13642
0.136472
0.136357
0.136075
0.135806
0.135632
0.135584
0.135617
0.135654
0.135628
0.135489
0.135208
0.134776
0.134211
0.133556
0.132875
0.132243
0.131743
0.13145
0.131427
0.131717
0.132361
0.133393
0.134832
0.136663
0.138883
0.141483
0.144451
0.147779
0.151461
0.15549
0.159851
0.164529
0.1695
0.174734
0.180193
0.185831
0.191597
0.197429
0.20326
0.209015
0.214614
0.219971
0.224996
0.229596
0.233674
0.237134
0.239878
0.241806
0.242817
0.242804
0.241659
0.239265
0.235499
0.230225
0.223295
0.214537
0.203759
0.190742
0.175238
0.156973
0.135693
0.111063
0.0833945
0.0510146
0.0247982
0.127593
0.130471
0.136782
0.141903
0.143617
0.143817
0.144185
0.14451
0.144205
0.143461
0.142738
0.142067
0.141102
0.139882
0.139054
0.138669
0.138288
0.137837
0.137471
0.137237
0.137077
0.136921
0.136746
0.136555
0.136334
0.136051
0.13568
0.135213
0.134678
0.134123
0.133615
0.133227
0.133017
0.133047
0.133386
0.134073
0.135141
0.1366
0.138448
0.14068
0.143287
0.146262
0.149595
0.153278
0.157299
0.161646
0.166296
0.171225
0.176401
0.181782
0.187323
0.192968
0.198657
0.20432
0.209885
0.215272
0.220397
0.225172
0.229508
0.233312
0.236493
0.238957
0.240609
0.241352
0.241085
0.239704
0.237098
0.233147
0.22772
0.220672
0.211835
0.201023
0.188024
0.172599
0.154485
0.133449
0.10915
0.0819719
0.0500127
0.0241238
0.131834
0.134039
0.138565
0.142755
0.144833
0.14563
0.146307
0.146889
0.147022
0.146779
0.146426
0.145964
0.145205
0.144208
0.143291
0.142524
0.141765
0.141046
0.140477
0.140072
0.139761
0.139479
0.139196
0.138892
0.138543
0.138123
0.137625
0.137069
0.136497
0.135958
0.135507
0.135191
0.135075
0.135218
0.135662
0.136446
0.137594
0.139115
0.141009
0.143274
0.145905
0.148894
0.152233
0.155911
0.159915
0.16423
0.168832
0.173693
0.17878
0.18405
0.189456
0.194943
0.200449
0.205907
0.211245
0.216386
0.22125
0.225753
0.22981
0.233334
0.236239
0.238435
0.239834
0.240342
0.239865
0.238301
0.235544
0.231477
0.225972
0.218883
0.21005
0.199285
0.186379
0.171096
0.15317
0.132371
0.108318
0.0814351
0.0495803
0.0235917
0.134845
0.136688
0.14033
0.144012
0.146275
0.14741
0.148264
0.149003
0.149411
0.149487
0.149395
0.149179
0.148757
0.14813
0.147441
0.146754
0.146033
0.145304
0.144634
0.144055
0.143558
0.143117
0.142713
0.142319
0.141902
0.141434
0.140905
0.140328
0.139736
0.139178
0.138709
0.138384
0.138249
0.138369
0.138805
0.139597
0.140768
0.142323
0.144254
0.146553
0.149207
0.152209
0.155546
0.159205
0.163174
0.167432
0.171957
0.176719
0.181682
0.186805
0.19204
0.197331
0.20262
0.207841
0.212924
0.217797
0.222384
0.226606
0.230383
0.233634
0.236277
0.238229
0.239405
0.239716
0.239071
0.237372
0.234516
0.230386
0.224856
0.217783
0.209005
0.198337
0.185566
0.170456
0.152729
0.132148
0.108275
0.081542
0.049592
0.0232204
0.137056
0.138754
0.142021
0.145446
0.147782
0.149123
0.150125
0.15099
0.151566
0.151829
0.151908
0.151868
0.151672
0.151307
0.150861
0.150393
0.149889
0.149347
0.148801
0.148282
0.147793
0.147323
0.146859
0.14639
0.145903
0.14539
0.144848
0.144291
0.143744
0.143247
0.142845
0.142594
0.142549
0.142727
0.143205
0.143987
0.145112
0.146601
0.14846
0.150685
0.153268
0.156199
0.159464
0.163046
0.166926
0.171082
0.175486
0.180108
0.18491
0.18985
0.194879
0.199946
0.204992
0.209956
0.214772
0.21937
0.22368
0.227629
0.231141
0.23414
0.236549
0.238288
0.239276
0.239427
0.238654
0.23686
0.233942
0.229788
0.224269
0.217245
0.208552
0.198005
0.185389
0.170462
0.152934
0.13255
0.108813
0.082132
0.0499705
0.023017
0.138721
0.140402
0.143555
0.146857
0.149218
0.150705
0.151856
0.152842
0.153546
0.153947
0.15415
0.154227
0.154165
0.15396
0.153677
0.153373
0.153041
0.15267
0.152286
0.151911
0.151545
0.151175
0.150789
0.150381
0.149943
0.149472
0.148974
0.148465
0.147974
0.147539
0.147207
0.147026
0.147047
0.147312
0.147846
0.148693
0.149861
0.151362
0.153204
0.155385
0.157899
0.160739
0.163892
0.167344
0.171077
0.17507
0.179296
0.183723
0.188316
0.193032
0.197825
0.202644
0.207434
0.212135
0.216686
0.22102
0.225071
0.22877
0.232044
0.234822
0.237029
0.238588
0.239422
0.239446
0.238574
0.236711
0.233756
0.229597
0.224108
0.217146
0.208549
0.198131
0.185674
0.17093
0.153595
0.133394
0.109773
0.0830911
0.0506716
0.0229973
0.139982
0.141728
0.144928
0.148196
0.150561
0.152155
0.153439
0.154536
0.155349
0.155867
0.15618
0.156354
0.15639
0.156293
0.156118
0.155913
0.155683
0.155422
0.155147
0.154877
0.154611
0.154335
0.15404
0.15372
0.153371
0.152991
0.152589
0.152182
0.151797
0.151472
0.151247
0.151166
0.151275
0.151605
0.15217
0.153033
0.154206
0.155695
0.157507
0.159643
0.162099
0.164865
0.167929
0.171276
0.174888
0.178743
0.182813
0.187069
0.191474
0.19599
0.200571
0.20517
0.209733
0.214206
0.218527
0.222637
0.226469
0.229958
0.233036
0.235631
0.237672
0.239085
0.239792
0.239713
0.238761
0.236845
0.233863
0.229705
0.224245
0.217343
0.208837
0.19854
0.186232
0.171662
0.154512
0.134489
0.110985
0.0842986
0.0516408
0.0232139
0.140927
0.142808
0.146168
0.14945
0.151805
0.153481
0.15488
0.156071
0.156973
0.15759
0.158001
0.158263
0.158387
0.158383
0.158293
0.158164
0.158006
0.157817
0.157613
0.157407
0.1572
0.156982
0.156744
0.156482
0.156193
0.155879
0.155548
0.155219
0.154919
0.154679
0.15454
0.15454
0.15472
0.155106
0.155718
0.156611
0.157803
0.159297
0.161098
0.163206
0.165617
0.168324
0.171314
0.174573
0.178083
0.181823
0.185767
0.189886
0.194145
0.198505
0.202924
0.207356
0.211748
0.216047
0.220196
0.224134
0.227799
0.231127
0.23405
0.236502
0.238411
0.239706
0.24031
0.240145
0.239126
0.237163
0.234155
0.229994
0.224555
0.217698
0.209263
0.199062
0.186875
0.172448
0.155454
0.135583
0.112179
0.0854933
0.0526091
0.0235793
0.141617
0.143706
0.147301
0.150612
0.152943
0.154686
0.156185
0.157454
0.158429
0.159128
0.159623
0.159964
0.160166
0.160243
0.160232
0.160172
0.160078
0.159952
0.159804
0.159647
0.159483
0.159304
0.159105
0.15888
0.15863
0.158359
0.158075
0.157797
0.157552
0.15737
0.157288
0.157343
0.157569
0.157995
0.158652
0.159571
0.160774
0.162268
0.164058
0.166144
0.168524
0.171188
0.174127
0.177326
0.180766
0.184428
0.188284
0.192306
0.196459
0.200707
0.205006
0.209311
0.213572
0.217737
0.221749
0.225551
0.229081
0.232277
0.235075
0.237408
0.239208
0.240404
0.240921
0.240684
0.239607
0.237602
0.234569
0.230401
0.224975
0.218151
0.209767
0.199639
0.187543
0.173222
0.156342
0.13658
0.113232
0.0865232
0.0533461
0.0238936
0.1421
0.144469
0.148346
0.151674
0.153973
0.155776
0.157362
0.158696
0.159731
0.160499
0.161064
0.161473
0.161742
0.161889
0.161947
0.161951
0.161917
0.161848
0.161753
0.161641
0.161517
0.161374
0.161208
0.161015
0.160798
0.160559
0.160312
0.160073
0.159869
0.15973
0.159691
0.159787
0.16005
0.160511
0.161197
0.162135
0.163346
0.164841
0.166622
0.168692
0.171047
0.173679
0.176577
0.179727
0.183111
0.186708
0.190492
0.194433
0.1985
0.202654
0.206853
0.211054
0.215207
0.219261
0.223162
0.226851
0.230272
0.233361
0.236057
0.238294
0.240006
0.241122
0.241571
0.241276
0.240154
0.238117
0.235067
0.230897
0.225484
0.218689
0.210352
0.200285
0.188266
0.174034
0.157245
0.137571
0.114255
0.0875192
0.0539887
0.024242
0.14241
0.145138
0.149315
0.152635
0.154899
0.15676
0.158421
0.159808
0.160893
0.161719
0.162344
0.16281
0.163137
0.163344
0.16346
0.163521
0.16354
0.163522
0.163475
0.163406
0.163318
0.16321
0.163075
0.162913
0.162724
0.162516
0.1623
0.162095
0.161925
0.161821
0.161817
0.161945
0.162238
0.162724
0.16343
0.164381
0.165597
0.16709
0.168863
0.170917
0.173249
0.175851
0.178713
0.181821
0.185156
0.188697
0.19242
0.196294
0.200288
0.204363
0.208481
0.212595
0.21666
0.220624
0.224433
0.228032
0.231364
0.234368
0.236982
0.239143
0.240784
0.241838
0.242233
0.241892
0.240735
0.238675
0.235614
0.231445
0.226048
0.219283
0.210989
0.20098
0.189031
0.174881
0.158177
0.138589
0.115311
0.0885841
0.0546889
0.0247926
0.142578
0.145744
0.150214
0.153497
0.15573
0.157647
0.15937
0.1608
0.161928
0.162803
0.163479
0.163995
0.164371
0.164629
0.164796
0.164905
0.164972
0.164999
0.164992
0.164961
0.164907
0.16483
0.164724
0.164589
0.164427
0.164246
0.164057
0.16388
0.163739
0.163664
0.163687
0.163841
0.164158
0.164663
0.165383
0.166343
0.167562
0.169051
0.170816
0.172855
0.175166
0.177743
0.180574
0.183644
0.186937
0.190431
0.194101
0.197919
0.201852
0.205863
0.209912
0.213957
0.217949
0.22184
0.225576
0.229102
0.232363
0.235297
0.237844
0.239942
0.241526
0.242527
0.242876
0.242497
0.241312
0.239232
0.236163
0.231998
0.226617
0.21988
0.211627
0.201673
0.18979
0.175719
0.1591
0.139604
0.116381
0.0897089
0.0554753
0.0255585
0.142629
0.14631
0.151045
0.154264
0.156473
0.158445
0.160219
0.161684
0.162848
0.163766
0.164485
0.165043
0.165462
0.165763
0.165975
0.166126
0.166233
0.166299
0.16633
0.166331
0.166307
0.166257
0.166177
0.166066
0.165927
0.165769
0.165604
0.165451
0.165334
0.165282
0.165328
0.165502
0.165838
0.166357
0.167088
0.168055
0.169275
0.17076
0.172515
0.17454
0.176833
0.179387
0.18219
0.185229
0.188486
0.19194
0.195567
0.199338
0.203221
0.20718
0.211174
0.215162
0.219096
0.222926
0.226601
0.230066
0.233265
0.236138
0.238627
0.240668
0.242199
0.243154
0.243462
0.243051
0.241842
0.239749
0.236678
0.232521
0.227159
0.220453
0.212244
0.202345
0.190529
0.176536
0.160002
0.140602
0.117445
0.090865
0.0563363
0.026464
0.142584
0.146854
0.151808
0.154943
0.157139
0.15916
0.160975
0.16247
0.163665
0.164619
0.165377
0.165971
0.166427
0.166765
0.167014
0.167203
0.167345
0.167446
0.167508
0.167538
0.167541
0.167515
0.167457
0.167367
0.167249
0.167111
0.166965
0.166831
0.166734
0.166701
0.166764
0.166955
0.167306
0.167835
0.168574
0.169545
0.170765
0.172246
0.173993
0.176007
0.178284
0.180818
0.183598
0.186611
0.189839
0.193261
0.196852
0.200585
0.204427
0.208341
0.212288
0.216224
0.220104
0.223878
0.227495
0.230901
0.23404
0.236857
0.239291
0.241283
0.242771
0.243688
0.243967
0.243535
0.242313
0.240216
0.23715
0.233008
0.22767
0.220999
0.212834
0.202989
0.191238
0.17732
0.16087
0.141567
0.118483
0.0920169
0.0572492
0.027439
0.142465
0.147386
0.152501
0.155541
0.157735
0.159802
0.161649
0.163167
0.164389
0.165374
0.166163
0.166789
0.167277
0.167649
0.167931
0.168151
0.168325
0.168456
0.168546
0.168602
0.168627
0.168622
0.168584
0.168513
0.168413
0.168292
0.168164
0.168047
0.167966
0.167949
0.168027
0.168231
0.168594
0.169131
0.169875
0.170847
0.172066
0.173543
0.175283
0.177287
0.179551
0.18207
0.184831
0.187822
0.191024
0.194416
0.197973
0.201666
0.205464
0.209331
0.213227
0.217111
0.220936
0.224656
0.228219
0.231574
0.234665
0.237437
0.239831
0.241788
0.243245
0.244138
0.244399
0.243955
0.242729
0.240635
0.237579
0.233456
0.228144
0.221509
0.213388
0.203596
0.191907
0.178062
0.161691
0.142482
0.119477
0.0931362
0.0581935
0.0284341
0.142287
0.147912
0.153126
0.156067
0.158266
0.160373
0.162248
0.163789
0.165035
0.166046
0.166862
0.167514
0.168029
0.168428
0.168739
0.168987
0.169189
0.169347
0.169462
0.16954
0.169586
0.169599
0.169578
0.169522
0.169437
0.16933
0.169216
0.169113
0.169045
0.169042
0.169131
0.169346
0.16972
0.170267
0.171017
0.171992
0.173211
0.174683
0.176415
0.178406
0.180653
0.183149
0.185884
0.188845
0.192012
0.195367
0.198884
0.202536
0.206291
0.210114
0.213966
0.217806
0.221589
0.225267
0.228791
0.232108
0.235164
0.237903
0.240268
0.2422
0.243637
0.244514
0.244765
0.244317
0.243092
0.241006
0.237964
0.233862
0.228579
0.221979
0.213901
0.20416
0.19253
0.178754
0.162459
0.143341
0.120416
0.0942041
0.0591524
0.0294196
0.142066
0.148433
0.153682
0.156536
0.158744
0.160877
0.162771
0.164331
0.1656
0.166636
0.167477
0.168154
0.168693
0.169116
0.169451
0.169723
0.169949
0.170129
0.170266
0.170364
0.170429
0.17046
0.170456
0.170416
0.170345
0.170251
0.170149
0.170057
0.17
0.170005
0.170104
0.170325
0.170693
0.17124
0.171987
0.172954
0.174161
0.175619
0.177333
0.179304
0.181528
0.184
0.186709
0.189642
0.19278
0.196105
0.199591
0.20321
0.206933
0.210723
0.214542
0.218349
0.222099
0.225745
0.229238
0.232526
0.235556
0.238272
0.240616
0.242532
0.243956
0.244825
0.245072
0.244625
0.243407
0.241332
0.238308
0.234228
0.228974
0.222409
0.214373
0.20468
0.193107
0.179394
0.163171
0.144139
0.121295
0.0952087
0.0601093
0.0303786
0.141818
0.148949
0.154156
0.156952
0.159188
0.161346
0.163252
0.164821
0.166104
0.167157
0.168018
0.168716
0.169277
0.169724
0.170081
0.170376
0.170622
0.170822
0.170975
0.171087
0.171164
0.171204
0.171208
0.171174
0.171108
0.171018
0.170918
0.170828
0.170772
0.170777
0.170874
0.17109
0.171453
0.171996
0.172736
0.173695
0.174892
0.176338
0.178039
0.179995
0.182204
0.184658
0.187347
0.190259
0.193375
0.196675
0.200137
0.203731
0.207427
0.21119
0.214982
0.218763
0.222488
0.22611
0.22958
0.232847
0.235858
0.238558
0.24089
0.242795
0.244213
0.245079
0.245327
0.244885
0.243676
0.241616
0.23861
0.234554
0.229329
0.222797
0.214801
0.205154
0.193633
0.17998
0.163824
0.144871
0.122107
0.0961377
0.0610415
0.0312956
0.141553
0.14949
0.154547
0.157269
0.159543
0.161738
0.16367
0.16526
0.16656
0.167627
0.1685
0.169209
0.169779
0.170235
0.170602
0.170905
0.171161
0.171369
0.171529
0.171646
0.171727
0.171771
0.171777
0.171745
0.17168
0.171592
0.171494
0.171405
0.171349
0.171355
0.171454
0.171673
0.172033
0.172574
0.173309
0.174262
0.175451
0.176889
0.178579
0.180523
0.182719
0.185157
0.187831
0.190725
0.193822
0.197104
0.200545
0.204119
0.207795
0.211537
0.21531
0.219071
0.222777
0.226382
0.229836
0.233088
0.236087
0.238776
0.241101
0.243001
0.244416
0.245284
0.245536
0.245102
0.243904
0.241858
0.238871
0.234838
0.22964
0.22314
0.21518
0.205575
0.194101
0.180502
0.164406
0.145524
0.122834
0.096973
0.0619115
0.0321502
0.141226
0.150123
0.155021
0.157623
0.159877
0.162065
0.163994
0.165586
0.16689
0.167964
0.168842
0.169556
0.170132
0.170592
0.170965
0.171274
0.171535
0.171749
0.171913
0.172035
0.17212
0.172168
0.172177
0.172149
0.172087
0.172001
0.171904
0.171817
0.171762
0.171767
0.171863
0.172082
0.172443
0.172985
0.173718
0.174667
0.175851
0.177282
0.178965
0.180901
0.183087
0.185516
0.188178
0.19106
0.194145
0.197412
0.200839
0.204399
0.208059
0.211787
0.215546
0.219293
0.222986
0.226579
0.230023
0.233266
0.236258
0.238942
0.241264
0.243163
0.244581
0.245453
0.245712
0.245288
0.244103
0.242072
0.239104
0.235093
0.229921
0.223451
0.215524
0.205957
0.194524
0.180972
0.164927
0.146106
0.123481
0.0977182
0.0627076
0.032967
0.140519
0.150293
0.155298
0.157911
0.160171
0.16235
0.16426
0.165843
0.167145
0.168221
0.169107
0.169829
0.170413
0.170883
0.171265
0.171584
0.171856
0.17208
0.172254
0.172385
0.172477
0.172532
0.172547
0.172524
0.172468
0.172387
0.172295
0.172211
0.172159
0.172168
0.172266
0.172488
0.17285
0.173391
0.174119
0.175062
0.176239
0.177661
0.179334
0.181258
0.183429
0.185844
0.188491
0.191358
0.194427
0.197678
0.201089
0.204632
0.208276
0.211989
0.215733
0.219467
0.223148
0.226731
0.230166
0.233403
0.23639
0.239073
0.241395
0.243298
0.244722
0.245603
0.245875
0.245467
0.244301
0.242292
0.239348
0.235365
0.230224
0.223789
0.215901
0.206378
0.194994
0.181497
0.165514
0.146765
0.124215
0.0985748
0.0636296
0.0340283
)
;

boundaryField
{
    inlet
    {
        type            zeroGradient;
    }
    outlet
    {
        type            fixedValue;
        value           uniform 0;
    }
    fixedWalls
    {
        type            zeroGradient;
    }
    frontAndBack
    {
        type            empty;
    }
}


// ************************************************************************* //
