/*--------------------------------*- C++ -*----------------------------------*\
| =========                 |                                                 |
| \\      /  F ield         | OpenFOAM: The Open Source CFD Toolbox           |
|  \\    /   O peration     | Version:  v1912                                 |
|   \\  /    A nd           | Website:  www.openfoam.com                      |
|    \\/     M anipulation  |                                                 |
\*---------------------------------------------------------------------------*/
FoamFile
{
    version     2.0;
    format      ascii;
    class       volVectorField;
    location    "125";
    object      U;
}
// * * * * * * * * * * * * * * * * * * * * * * * * * * * * * * * * * * * * * //

dimensions      [0 1 -1 0 0 0 0];


internalField   nonuniform List<vector> 
2000
(
(0.843125 0.195892 0)
(0.511699 0.132648 0)
(0.222191 0.0718633 0)
(0.0611447 0.0151888 7.32729e-20)
(-0.00468948 -0.030837 1.6206e-17)
(-0.0577558 -0.0465562 1.46685e-17)
(-0.0676837 -0.0367234 0)
(-0.06317 -0.00491828 0)
(-0.052304 0.0274726 0)
(-0.0501578 0.024001 3.2391e-17)
(-0.0428532 0.0125061 -2.00818e-17)
(-0.037664 0.00777956 -1.87111e-17)
(-0.043242 0.00617686 0)
(-0.0478487 0.00584882 0)
(-0.0490967 0.00616503 -1.44794e-17)
(-0.049834 0.00752221 0)
(-0.0520798 0.00842994 1.2843e-17)
(-0.0552842 0.00887515 -1.55068e-21)
(-0.0588335 0.00915322 1.22402e-17)
(-0.0626756 0.00956846 -5.98959e-18)
(-0.067012 0.0102141 1.17499e-17)
(-0.0720686 0.0111069 0)
(-0.0780445 0.0122362 0)
(-0.0851095 0.0135576 6.24638e-21)
(-0.0933826 0.0149768 0)
(-0.102897 0.016351 -5.36188e-18)
(-0.113574 0.0175095 0)
(-0.125217 0.0182859 5.15643e-18)
(-0.13752 0.018544 0)
(-0.150093 0.0181904 0)
(-0.162521 0.0171912 0)
(-0.174408 0.0155708 1.20396e-18)
(-0.185404 0.0134008 0)
(-0.195231 0.0107838 -5.92509e-19)
(-0.203689 0.00783569 1.97417e-14)
(-0.210661 0.0046737 1.96343e-14)
(-0.216094 0.00140684 6.06808e-19)
(-0.219953 -0.00187391 -6.11063e-19)
(-0.222192 -0.00507793 0)
(-0.222867 -0.00804858 2.57561e-18)
(-0.222451 -0.0107008 0)
(-0.221092 -0.0131015 -2.75506e-18)
(-0.21875 -0.0153515 0)
(-0.215425 -0.0174936 -5.94571e-18)
(-0.211094 -0.019539 3.12075e-18)
(-0.205726 -0.0214832 0)
(-0.199284 -0.023313 0)
(-0.191731 -0.0250105 -3.64631e-18)
(-0.183032 -0.0265548 0)
(-0.173155 -0.0279232 4.07898e-18)
(-0.162074 -0.0290918 0)
(-0.149768 -0.0300351 9.35888e-18)
(-0.136223 -0.0307261 -1.00268e-17)
(-0.121421 -0.03114 1.07679e-17)
(-0.10535 -0.0312606 -5.74891e-18)
(-0.0880078 -0.0310745 0)
(-0.0693928 -0.0305642 6.69929e-18)
(-0.0495165 -0.0297115 -7.25428e-18)
(-0.0284231 -0.0284917 -1.58977e-17)
(-0.00619815 -0.0268563 1.6978e-17)
(0.0171973 -0.0247231 -1.76565e-17)
(0.0418785 -0.0220736 1.78015e-17)
(0.0677261 -0.0189309 -1.78927e-17)
(0.0947573 -0.015306 1.81917e-17)
(0.122977 -0.0112008 -2.90769e-19)
(0.15238 -0.00661329 1.78065e-17)
(0.18297 -0.00153929 0)
(0.214769 0.00402646 0)
(0.247817 0.0100902 4.19234e-19)
(0.282175 0.0166593 0)
(0.317935 0.0237422 1.66257e-17)
(0.355225 0.0313482 0)
(0.394215 0.0394839 1.52882e-17)
(0.435186 0.0481561 -6.53594e-19)
(0.478385 0.0573318 1.33086e-17)
(0.524834 0.0670088 2.32081e-17)
(0.573704 0.0768315 8.24158e-19)
(0.63292 0.086818 -8.36201e-18)
(0.681706 0.0950853 -5.62085e-18)
(0.801254 0.0973767 0)
(1.01525 0.211452 0)
(0.942826 0.196049 0)
(0.799531 0.180981 -4.4671e-18)
(0.646041 0.151781 9.43006e-18)
(0.497076 0.108967 0)
(0.345505 0.0651961 -1.0368e-17)
(0.198275 0.0242085 0)
(0.0582531 -0.00895911 0)
(-0.025597 -0.0137353 0)
(-0.0335346 -0.0238797 -2.39519e-17)
(-0.0506949 -0.0183445 2.21939e-17)
(-0.0486353 0.00630725 2.06541e-17)
(-0.0440771 0.0220832 0)
(-0.0455341 0.0183053 8.62983e-18)
(-0.0472031 0.011353 0)
(-0.0500134 0.0107142 0)
(-0.054013 0.0121511 0)
(-0.0580826 0.0133229 6.8111e-18)
(-0.0619839 0.014178 -1.3256e-17)
(-0.0658746 0.0151684 -6.4599e-18)
(-0.0699652 0.0165055 0)
(-0.0743284 0.0181917 0)
(-0.0789599 0.0201809 0)
(-0.0838359 0.0224081 -8.85784e-18)
(-0.0889155 0.0247398 0)
(-0.094117 0.0269627 5.66196e-18)
(-0.0992987 0.0288182 2.77759e-18)
(-0.104265 0.0300578 0)
(-0.108795 0.0304908 0)
(-0.112689 0.0300115 0)
(-0.115788 0.0286085 0)
(-0.117991 0.0263556 -6.387e-19)
(-0.119262 0.023389 0)
(-0.119623 0.0198802 3.14776e-19)
(-0.119145 0.0160089 1.56311e-19)
(-0.11794 0.011942 0)
(-0.116184 0.00783412 0)
(-0.114088 0.00383719 6.40595e-19)
(-0.111682 5.36279e-06 0)
(-0.109186 -0.00365921 -1.33008e-18)
(-0.106247 -0.00711514 0)
(-0.102635 -0.010419 -1.3939e-18)
(-0.0983482 -0.0136573 0)
(-0.0933162 -0.0168719 1.51639e-18)
(-0.0874684 -0.0200727 1.55213e-18)
(-0.0807474 -0.0232492 0)
(-0.0731058 -0.0263784 0)
(-0.0645036 -0.0294298 -3.55604e-18)
(-0.0549065 -0.0323683 0)
(-0.0442857 -0.0351559 -3.86059e-20)
(-0.032617 -0.0377538 0)
(-0.0198802 -0.0401227 0)
(-0.00606022 -0.0422229 0)
(0.00885044 -0.0440096 0)
(0.0248487 -0.0454432 1.01385e-17)
(0.0419299 -0.0464892 0)
(0.0600935 -0.0471119 -1.0719e-17)
(0.0793364 -0.0472781 5.53957e-18)
(0.0996567 -0.0469585 -5.58903e-18)
(0.121054 -0.0461291 -1.16167e-17)
(0.14351 -0.044764 1.186e-17)
(0.166983 -0.0428432 -1.20815e-17)
(0.191444 -0.0403433 1.22781e-17)
(0.216905 -0.0372566 0)
(0.243384 -0.0335823 -1.87016e-17)
(0.270898 -0.0293225 -1.26639e-17)
(0.299471 -0.0244819 0)
(0.329145 -0.0190678 6.12853e-18)
(0.359978 -0.0130899 1.26076e-17)
(0.392049 -0.00656 0)
(0.425466 0.000506095 0)
(0.46037 0.00808671 0)
(0.496943 0.0161464 0)
(0.535429 0.024628 -1.07875e-17)
(0.57613 0.0334035 4.60048e-18)
(0.619528 0.0422965 -9.01349e-18)
(0.665803 0.0506566 7.75141e-18)
(0.717148 0.0581605 -2.63522e-18)
(0.765342 0.0613552 0)
(0.84584 0.0557115 0)
(0.978937 0.2029 0)
(0.979954 0.196489 -3.68832e-18)
(0.969215 0.209686 4.40715e-18)
(0.935918 0.213185 -3.94902e-18)
(0.869982 0.198571 3.83656e-18)
(0.771597 0.171804 3.88828e-18)
(0.64919 0.139752 0)
(0.514397 0.105335 0)
(0.376457 0.0710646 0)
(0.254461 0.0380423 9.92518e-18)
(0.139277 0.0090301 0)
(0.0402651 -0.00731829 0)
(0.000734399 -0.000667218 0)
(-0.00361205 -0.000755906 -9.97381e-18)
(-0.0138503 0.0018324 0)
(-0.018203 0.0106494 -8.5044e-18)
(-0.0217045 0.0162735 0)
(-0.0256407 0.0171847 7.83431e-18)
(-0.0294028 0.0166459 3.80291e-18)
(-0.0326058 0.016777 0)
(-0.0351705 0.0177763 -3.60943e-18)
(-0.0371524 0.0192612 0)
(-0.0385314 0.0210245 0)
(-0.0392829 0.0229718 6.73679e-18)
(-0.0394229 0.024973 0)
(-0.0389982 0.0268118 1.61908e-18)
(-0.0380688 0.0282195 -4.75702e-18)
(-0.0367 0.028939 0)
(-0.0349651 0.0287806 0)
(-0.032946 0.0276579 -7.51757e-19)
(-0.0307241 0.0255922 0)
(-0.0283677 0.0226948 1.72142e-21)
(-0.0259248 0.0191378 0)
(-0.0234176 0.015124 7.1683e-19)
(-0.0208463 0.0108636 8.95174e-20)
(-0.0181675 0.00654143 0)
(-0.0152453 0.00228817 1.80845e-19)
(-0.0120529 -0.00182505 -3.65357e-19)
(-0.00849757 -0.00563691 -3.70142e-19)
(-0.0045661 -0.00922418 -7.53562e-19)
(-3.66818e-05 -0.0127669 7.68902e-19)
(0.00518473 -0.0163792 7.8494e-19)
(0.0111065 -0.0200875 0)
(0.0177429 -0.0238878 1.63609e-18)
(0.0251147 -0.0277614 -3.34873e-18)
(0.0332441 -0.0316795 0)
(0.0421524 -0.0356069 -1.76324e-18)
(0.0518596 -0.0395034 3.63831e-18)
(0.0623841 -0.043326 0)
(0.0737414 -0.047029 -1.93896e-18)
(0.0859445 -0.0505656 1.98602e-18)
(0.0990027 -0.0538886 -2.04864e-18)
(0.112922 -0.0569511 -2.11318e-18)
(0.127705 -0.0597069 0)
(0.143351 -0.0621091 -4.51801e-18)
(0.159856 -0.0641122 -2.31273e-18)
(0.177216 -0.0656745 2.41388e-18)
(0.195426 -0.0667592 2.44381e-18)
(0.21448 -0.0673364 5.05898e-18)
(0.234375 -0.0673859 0)
(0.255101 -0.0668969 0)
(0.276649 -0.0658567 0)
(0.299018 -0.0642474 -2.71482e-18)
(0.322225 -0.0620622 0)
(0.346294 -0.0593051 5.65191e-18)
(0.371259 -0.0559871 0)
(0.397167 -0.0521247 -2.79952e-18)
(0.424077 -0.0477393 -5.70794e-18)
(0.452071 -0.0428571 0)
(0.481247 -0.0375097 -2.71771e-18)
(0.51173 -0.0317352 2.6498e-18)
(0.543672 -0.025582 0)
(0.577256 -0.0191167 0)
(0.612702 -0.0124374 0)
(0.650251 -0.00570259 -4.35954e-18)
(0.690226 0.000827139 0)
(0.732621 0.00667325 -1.52135e-18)
(0.7787 0.0111662 2.51453e-18)
(0.821893 0.0128131 0)
(0.888874 0.00884045 3.78069e-19)
(0.970709 0.210795 0)
(0.964255 0.19916 2.07868e-18)
(0.966626 0.204788 0)
(0.976251 0.213702 2.18855e-18)
(0.978805 0.216522 -3.97594e-18)
(0.961432 0.211934 -1.8477e-18)
(0.919052 0.201071 0)
(0.85331 0.183833 0)
(0.765659 0.159586 0)
(0.661606 0.131155 1.90828e-18)
(0.547858 0.102334 1.98129e-18)
(0.430185 0.0743479 0)
(0.317435 0.0489608 0)
(0.221442 0.0271389 0)
(0.14307 0.0126286 0)
(0.0880245 0.00680019 8.67571e-18)
(0.0608323 0.00738776 -4.31179e-18)
(0.0495598 0.0100047 0)
(0.042859 0.0126527 -4.18014e-18)
(0.0377036 0.0150947 2.05862e-18)
(0.0339117 0.016978 4.03509e-18)
(0.0315576 0.0181947 0)
(0.0306639 0.0190861 0)
(0.031151 0.0199983 -3.79202e-18)
(0.0329037 0.021027 0)
(0.0357772 0.022047 -1.80763e-18)
(0.0395865 0.0228281 1.76212e-18)
(0.0441103 0.0231309 0)
(0.0491114 0.0227697 0)
(0.0543648 0.0216455 8.1562e-19)
(0.0596832 0.0197506 0)
(0.0649359 0.0171502 -7.80147e-19)
(0.070052 0.0139619 0)
(0.0750234 0.0103233 -1.87928e-19)
(0.0798835 0.00638172 -9.36894e-20)
(0.0847222 0.00226536 -2.3441e-20)
(0.0896212 -0.00191938 -2.79733e-19)
(0.094738 -0.00615102 3.72359e-19)
(0.100279 -0.0104078 3.73834e-19)
(0.106271 -0.0146479 1.1321e-18)
(0.112793 -0.0189018 -3.79739e-19)
(0.119901 -0.0232196 3.8545e-19)
(0.127608 -0.0276274 0)
(0.135914 -0.0321283 8.06034e-19)
(0.144821 -0.036709 8.1894e-19)
(0.15433 -0.0413443 0)
(0.164442 -0.0460004 1.72884e-18)
(0.17516 -0.050637 8.91284e-19)
(0.186486 -0.0552093 0)
(0.198421 -0.0596689 -2.83358e-18)
(0.210965 -0.0639657 -1.94797e-18)
(0.224117 -0.0680481 1.00444e-18)
(0.237874 -0.0718643 2.077e-18)
(0.252232 -0.0753629 0)
(0.267184 -0.0784942 1.10652e-18)
(0.282726 -0.0812114 3.42574e-18)
(0.298852 -0.0834722 2.35548e-18)
(0.315558 -0.0852397 -2.42546e-18)
(0.332843 -0.086484 -1.24194e-18)
(0.350708 -0.0871834 0)
(0.369157 -0.0873241 0)
(0.388199 -0.0868965 0)
(0.407853 -0.0858958 4.08618e-18)
(0.428149 -0.0843263 1.3747e-18)
(0.449132 -0.0822015 0)
(0.470857 -0.079543 -2.80142e-18)
(0.493393 -0.0763786 2.84848e-18)
(0.516827 -0.072742 -2.802e-18)
(0.54126 -0.0686723 -2.77733e-18)
(0.566815 -0.0642144 5.23437e-20)
(0.593634 -0.0594199 -2.72037e-18)
(0.621882 -0.0543502 0)
(0.651743 -0.0490826 0)
(0.683424 -0.043721 0)
(0.717124 -0.0384126 0)
(0.753089 -0.0333839 0)
(0.791188 -0.0289603 3.08223e-18)
(0.832495 -0.0256688 -1.14989e-18)
(0.87078 -0.0240873 0)
(0.93018 -0.025732 -3.91447e-19)
(0.972919 0.217788 0)
(0.965115 0.206373 2.42018e-18)
(0.957347 0.202144 3.14524e-19)
(0.958482 0.20327 2.45183e-18)
(0.968822 0.206068 0)
(0.980923 0.208541 -2.14624e-18)
(0.986595 0.209182 0)
(0.980267 0.206169 -4.8979e-19)
(0.957986 0.198035 0)
(0.917088 0.184705 -2.22856e-18)
(0.858125 0.167571 -1.74832e-18)
(0.783612 0.147264 -4.45387e-19)
(0.695851 0.124116 4.46998e-19)
(0.600569 0.0998683 0)
(0.503377 0.0767508 4.56618e-19)
(0.409599 0.0561749 0)
(0.32789 0.0393712 3.77074e-18)
(0.264088 0.0272865 -4.90898e-19)
(0.218342 0.019902 0)
(0.188 0.016305 -2.49077e-18)
(0.169011 0.0151069 0)
(0.15746 0.0151206 0)
(0.150592 0.0156204 0)
(0.146859 0.0162238 0)
(0.145514 0.016727 -2.36259e-19)
(0.146181 0.0170163 0)
(0.148568 0.0170122 0)
(0.152367 0.0166335 1.11067e-19)
(0.157244 0.0157946 0)
(0.162877 0.0144256 0)
(0.168982 0.0124934 0)
(0.175344 0.0100055 -5.10597e-20)
(0.181807 0.00701277 0)
(0.188288 0.00356783 -2.21298e-19)
(0.194768 -0.000264367 0)
(0.20131 -0.00437765 2.40965e-20)
(0.207992 -0.00870239 1.20034e-19)
(0.214892 -0.0131529 2.41733e-20)
(0.222111 -0.0177217 -4.84695e-20)
(0.229704 -0.0223867 -3.86328e-19)
(0.237717 -0.0271389 -3.90244e-19)
(0.246183 -0.0319834 3.95492e-19)
(0.255109 -0.0369226 -1.01457e-19)
(0.264491 -0.0419491 -8.19628e-19)
(0.274318 -0.0470454 8.3768e-19)
(0.284577 -0.0521849 -1.08197e-19)
(0.295256 -0.0573337 0)
(0.306342 -0.0624511 -9.06207e-19)
(0.317823 -0.0674921 0)
(0.329688 -0.0724076 9.63138e-19)
(0.341923 -0.0771461 0)
(0.354518 -0.081655 1.02793e-18)
(0.367461 -0.0858814 0)
(0.38074 -0.0897734 -2.75767e-19)
(0.394348 -0.0932818 -1.13632e-18)
(0.408275 -0.0963608 -1.17431e-18)
(0.42252 -0.0989702 3.03377e-19)
(0.437081 -0.101076 0)
(0.451965 -0.102653 1.28852e-18)
(0.467183 -0.103683 -3.30421e-19)
(0.482755 -0.104157 0)
(0.498709 -0.104074 3.4643e-19)
(0.515084 -0.103442 -1.42187e-18)
(0.531932 -0.102275 -1.44744e-18)
(0.54932 -0.100597 0)
(0.567326 -0.098441 2.9665e-18)
(0.586047 -0.0958438 0)
(0.60559 -0.0928497 2.98256e-18)
(0.626084 -0.089507 2.9632e-18)
(0.64767 -0.0858691 2.92139e-18)
(0.670509 -0.0819942 3.51334e-19)
(0.694778 -0.0779478 0)
(0.720667 -0.0738054 0)
(0.748379 -0.0696599 0)
(0.778094 -0.0656263 -2.72848e-19)
(0.810038 -0.0618725 0)
(0.843999 -0.0585743 -1.42744e-18)
(0.881131 -0.0561078 1.38958e-18)
(0.915117 -0.0545292 9.35381e-20)
(0.969361 -0.0544373 4.89874e-20)
(0.974031 0.220515 -1.50708e-18)
(0.969588 0.211784 1.46203e-18)
(0.961604 0.205767 -3.56348e-19)
(0.95532 0.202568 0)
(0.954916 0.2007 0)
(0.960622 0.199748 0)
(0.970502 0.199733 0)
(0.981775 0.199915 1.68268e-18)
(0.990788 0.198967 0)
(0.993027 0.195632 -1.51707e-18)
(0.984648 0.189321 -1.90792e-18)
(0.963606 0.179924 4.44885e-19)
(0.92893 0.167403 1.33637e-18)
(0.880671 0.151777 0)
(0.820225 0.13383 -2.09614e-18)
(0.750039 0.114629 0)
(0.675532 0.0954973 -1.69426e-18)
(0.602969 0.0778009 4.26758e-19)
(0.536253 0.0622966 -1.78212e-18)
(0.477796 0.0492991 -1.37309e-18)
(0.429009 0.0388768 0)
(0.390281 0.0309048 0)
(0.361031 0.0250805 -9.38345e-19)
(0.339974 0.0209727 0)
(0.325546 0.0181044 -7.01082e-19)
(0.316273 0.0160267 0)
(0.310942 0.0143561 0)
(0.308629 0.0127823 -1.11089e-19)
(0.308637 0.0110689 0)
(0.310431 0.00905433 0)
(0.313589 0.00665051 0)
(0.317784 0.00382619 5.22616e-20)
(0.322746 0.000565476 2.09142e-19)
(0.328268 -0.00310327 1.28877e-19)
(0.334246 -0.00712167 0)
(0.340612 -0.0114448 0)
(0.34732 -0.0160212 -2.48779e-20)
(0.354365 -0.0207912 -1.25932e-19)
(0.361761 -0.025721 4.99102e-20)
(0.369522 -0.0307845 0)
(0.377656 -0.0359621 0)
(0.386164 -0.0412412 -2.09213e-19)
(0.395035 -0.0466093 1.04771e-19)
(0.40425 -0.0520491 -4.33769e-19)
(0.413785 -0.0575374 4.43428e-19)
(0.423614 -0.0630446 1.12055e-19)
(0.433708 -0.0685349 0)
(0.444042 -0.0739673 4.80115e-19)
(0.454588 -0.0792964 0)
(0.465322 -0.0844732 0)
(0.476218 -0.0894466 0)
(0.487256 -0.0941647 0)
(0.498415 -0.0985757 0)
(0.509681 -0.10263 2.89948e-19)
(0.521042 -0.106281 0)
(0.532492 -0.109488 1.24875e-18)
(0.544033 -0.112215 -3.21623e-19)
(0.555672 -0.114435 0)
(0.567428 -0.116128 1.37296e-18)
(0.579328 -0.117285 3.53486e-19)
(0.591411 -0.117906 1.45131e-18)
(0.603726 -0.117999 -3.72911e-19)
(0.616336 -0.117583 0)
(0.629318 -0.116682 -1.54853e-18)
(0.642761 -0.11533 0)
(0.65677 -0.113569 0)
(0.671461 -0.111445 -1.59895e-18)
(0.686966 -0.109009 0)
(0.70343 -0.106315 0)
(0.721013 -0.103421 -1.56777e-18)
(0.739885 -0.100387 -3.86826e-19)
(0.760234 -0.0972779 0)
(0.782255 -0.0941621 0)
(0.806151 -0.0911164 0)
(0.832092 -0.0882205 3.0158e-19)
(0.86032 -0.0855856 -1.04491e-18)
(0.890557 -0.0832633 -2.19349e-19)
(0.92416 -0.0814985 -1.6689e-19)
(0.954509 -0.080057 -1.03225e-19)
(1.005 -0.0788047 -2.6224e-19)
(0.974215 0.221529 5.23077e-18)
(0.971745 0.214822 -5.04451e-18)
(0.966688 0.20967 0)
(0.960963 0.20599 -3.22093e-18)
(0.956627 0.202417 0)
(0.954635 0.198581 -2.94441e-18)
(0.955702 0.195125 0)
(0.960593 0.192486 3.98481e-18)
(0.969252 0.190433 -4.98145e-18)
(0.980142 0.188397 2.29412e-18)
(0.990654 0.185796 2.1532e-18)
(0.998021 0.182112 0)
(0.999739 0.176756 -5.83824e-18)
(0.993498 0.169106 -3.72779e-18)
(0.977641 0.159093 5.29135e-18)
(0.951475 0.147034 0)
(0.916317 0.133518 1.64999e-18)
(0.874875 0.119295 0)
(0.829597 0.104949 1.6691e-18)
(0.782684 0.0909923 1.68822e-18)
(0.736183 0.0778485 0)
(0.691871 0.0658081 0)
(0.65116 0.0550268 -9.13088e-19)
(0.615071 0.0455523 0)
(0.584221 0.037347 8.86629e-19)
(0.558834 0.0302989 0)
(0.538766 0.0242375 0)
(0.523581 0.0189542 0)
(0.512658 0.0142283 0)
(0.505305 0.00984954 0)
(0.50086 0.00563827 0)
(0.498729 0.00144251 0)
(0.498464 -0.00283722 2.21165e-19)
(0.499677 -0.00727158 -1.05311e-19)
(0.502054 -0.0119065 5.33359e-20)
(0.50537 -0.0167628 0)
(0.509466 -0.021835 0)
(0.514232 -0.0270972 1.04334e-19)
(0.519585 -0.0325187 -4.28727e-19)
(0.525459 -0.038069 4.32816e-19)
(0.531795 -0.0437214 0)
(0.538542 -0.0494537 1.10861e-18)
(0.545651 -0.0552453 -9.07024e-19)
(0.553073 -0.0610734 -4.71976e-19)
(0.560758 -0.0669112 -4.65626e-19)
(0.568658 -0.0727269 0)
(0.576725 -0.0784837 0)
(0.584913 -0.0841403 -1.53964e-18)
(0.593179 -0.0896515 0)
(0.601483 -0.0949697 0)
(0.609788 -0.100046 0)
(0.618065 -0.104831 1.1794e-18)
(0.62629 -0.109277 2.44389e-18)
(0.634446 -0.11334 0)
(0.642525 -0.11698 0)
(0.650528 -0.120161 -1.35132e-18)
(0.65847 -0.122858 0)
(0.666372 -0.125052 2.91038e-18)
(0.674273 -0.126733 1.50591e-18)
(0.68222 -0.127903 0)
(0.690277 -0.12857 1.59446e-18)
(0.698519 -0.128754 3.27583e-18)
(0.707033 -0.128483 3.35465e-18)
(0.715919 -0.127791 1.71805e-18)
(0.725289 -0.12672 -3.48334e-18)
(0.735268 -0.125317 3.52821e-18)
(0.745987 -0.123634 5.34398e-18)
(0.757593 -0.121726 0)
(0.770239 -0.11965 0)
(0.784091 -0.117465 1.76321e-18)
(0.799324 -0.11523 0)
(0.816124 -0.113007 3.3112e-18)
(0.834685 -0.110853 3.15214e-18)
(0.855211 -0.108833 0)
(0.877864 -0.106993 2.67716e-18)
(0.902915 -0.105401 -1.16874e-18)
(0.930027 -0.104009 0)
(0.96082 -0.102948 0)
(0.988241 -0.101826 0)
(1.03614 -0.0998737 -2.2354e-19)
(0.974268 0.222144 -4.00153e-18)
(0.972479 0.216646 3.84702e-18)
(0.969037 0.212046 -7.59576e-18)
(0.965133 0.208406 3.64823e-18)
(0.961693 0.204772 0)
(0.95869 0.200552 3.33793e-18)
(0.95613 0.195929 -6.43537e-18)
(0.954798 0.191273 -6.03836e-18)
(0.955799 0.186764 -8.7317e-20)
(0.959818 0.182493 0)
(0.96683 0.178519 0)
(0.976171 0.17473 4.87586e-18)
(0.98665 0.170729 4.4915e-18)
(0.996552 0.165988 -4.42392e-18)
(1.00393 0.16017 -1.21354e-17)
(1.00698 0.153095 0)
(1.00455 0.144789 0)
(0.996464 0.135495 0)
(0.983151 0.125466 0)
(0.96536 0.114968 0)
(0.944002 0.104248 0)
(0.920044 0.0935102 0)
(0.894435 0.0829318 1.76767e-18)
(0.868085 0.0726659 -3.64136e-18)
(0.841848 0.0628329 0)
(0.8165 0.0535076 0)
(0.792712 0.0447163 0)
(0.771021 0.0364449 0)
(0.75181 0.0286498 0)
(0.735296 0.0212691 -9.18417e-19)
(0.721536 0.0142285 0)
(0.710467 0.0074588 0)
(0.701846 0.000865743 1.23099e-20)
(0.695601 -0.00558601 0)
(0.691464 -0.0119451 -5.53026e-20)
(0.689085 -0.0182268 0)
(0.688135 -0.0244519 2.27802e-19)
(0.688349 -0.030648 0)
(0.689518 -0.0368409 9.1286e-19)
(0.691477 -0.0430479 -4.56241e-19)
(0.694094 -0.049275 -9.50225e-19)
(0.697257 -0.0555182 -9.44475e-19)
(0.700866 -0.0617641 9.65041e-19)
(0.70483 -0.0679913 9.88702e-19)
(0.709063 -0.0741717 2.07523e-18)
(0.713483 -0.0802719 2.13428e-18)
(0.718018 -0.086254 0)
(0.7226 -0.0920774 -1.15589e-18)
(0.727169 -0.097699 0)
(0.731675 -0.103075 0)
(0.736076 -0.108161 -2.52046e-18)
(0.740342 -0.112915 -1.29088e-18)
(0.744453 -0.117296 3.03251e-20)
(0.748403 -0.121269 0)
(0.752196 -0.124803 0)
(0.755854 -0.127875 0)
(0.759409 -0.130469 3.14879e-18)
(0.762911 -0.132577 -3.24915e-18)
(0.766422 -0.134202 -3.36664e-18)
(0.770019 -0.135356 0)
(0.773788 -0.136057 -3.59504e-18)
(0.77783 -0.136335 -1.01863e-21)
(0.782252 -0.136223 -3.80185e-18)
(0.787171 -0.135763 3.88409e-18)
(0.792712 -0.135002 9.83662e-21)
(0.799007 -0.133989 -4.02809e-18)
(0.806191 -0.132777 -4.06852e-18)
(0.814408 -0.131421 0)
(0.823808 -0.129978 0)
(0.834549 -0.128505 0)
(0.846797 -0.127059 0)
(0.860727 -0.125696 -3.81446e-18)
(0.876522 -0.124468 -3.63329e-18)
(0.894381 -0.123424 0)
(0.914455 -0.122591 -3.0862e-18)
(0.937055 -0.122 5.41427e-18)
(0.961777 -0.121535 0)
(0.990554 -0.121223 0)
(1.01579 -0.120593 0)
(1.06223 -0.118319 1.02736e-18)
(0.974307 0.222604 9.41539e-18)
(0.972772 0.217906 0)
(0.969908 0.213542 1.73526e-17)
(0.966841 0.209733 0)
(0.964422 0.20605 8.1082e-18)
(0.962474 0.202012 0)
(0.960464 0.197495 7.29248e-18)
(0.958334 0.192562 0)
(0.956525 0.187262 -6.78015e-18)
(0.955644 0.18169 0)
(0.95629 0.176036 1.20426e-17)
(0.958992 0.170467 -5.60623e-18)
(0.964055 0.164993 0)
(0.971344 0.159476 9.97598e-18)
(0.980243 0.153767 -1.95183e-19)
(0.989814 0.147694 -9.05983e-18)
(0.998803 0.141177 8.77112e-18)
(1.00608 0.134242 0)
(1.011 0.126891 0)
(1.01328 0.119153 8.27301e-18)
(1.01289 0.111089 0)
(1.00996 0.102775 -4.04083e-18)
(1.00473 0.0942897 0)
(0.997518 0.0857073 3.87723e-18)
(0.988652 0.0770881 0)
(0.978487 0.068473 3.95675e-18)
(0.967373 0.0598878 0)
(0.955651 0.0513506 0)
(0.943647 0.0428765 1.97298e-18)
(0.931664 0.03448 9.5916e-19)
(0.919979 0.0261725 0)
(0.908822 0.0179602 0)
(0.898414 0.00985053 -1.48381e-18)
(0.888738 0.00182395 0)
(0.879998 -0.00611205 0)
(0.872361 -0.0139536 0)
(0.865893 -0.021682 -2.44636e-19)
(0.860586 -0.0292796 0)
(0.856366 -0.0367375 -1.52884e-18)
(0.853115 -0.0440534 -1.04415e-18)
(0.850689 -0.0512276 1.03244e-18)
(0.848938 -0.0582592 0)
(0.847712 -0.065145 0)
(0.846877 -0.0718771 2.2738e-18)
(0.846311 -0.0784424 -2.28281e-18)
(0.845911 -0.084822 -2.35528e-18)
(0.845589 -0.0909918 0)
(0.845271 -0.0969236 -4.95825e-20)
(0.8449 -0.102586 2.66419e-18)
(0.844431 -0.107945 0)
(0.843837 -0.112969 2.8272e-18)
(0.843101 -0.117625 2.98197e-18)
(0.842227 -0.121885 -3.06425e-18)
(0.841231 -0.125725 0)
(0.840146 -0.129127 0)
(0.839021 -0.132082 0)
(0.837919 -0.134584 -3.59979e-18)
(0.836916 -0.13664 0)
(0.836101 -0.138261 0)
(0.835571 -0.139468 0)
(0.835429 -0.140288 8.33025e-18)
(0.835787 -0.140753 -4.28874e-18)
(0.836756 -0.140902 0)
(0.838452 -0.140776 -4.52075e-18)
(0.840994 -0.140422 -4.60681e-18)
(0.844501 -0.139888 9.37234e-18)
(0.849094 -0.139225 -9.47683e-18)
(0.854899 -0.138486 -9.52678e-18)
(0.862045 -0.137723 0)
(0.87067 -0.136992 -9.41911e-18)
(0.880919 -0.136344 0)
(0.892948 -0.135834 0)
(0.906921 -0.135508 0)
(0.923031 -0.135409 7.99154e-18)
(0.941411 -0.135546 -7.2861e-18)
(0.962421 -0.13593 -9.59429e-18)
(0.985583 -0.136403 0)
(1.01318 -0.136895 4.06253e-18)
(1.03697 -0.136912 0)
(1.08311 -0.134654 -1.76896e-18)
(0.974319 0.222964 -1.07222e-17)
(0.972878 0.218865 -1.03662e-17)
(0.970244 0.214682 -1.99422e-17)
(0.967474 0.210696 0)
(0.9654 0.206828 -1.85139e-17)
(0.964001 0.202762 -8.88086e-18)
(0.962842 0.198332 0)
(0.961654 0.193525 1.6136e-17)
(0.960401 0.188306 1.517e-17)
(0.959125 0.182635 0)
(0.957968 0.176556 -1.36782e-17)
(0.957252 0.170181 0)
(0.957441 0.163598 0)
(0.958965 0.156843 1.18429e-17)
(0.962077 0.149944 1.10311e-17)
(0.966848 0.142918 -1.8868e-19)
(0.972979 0.135858 1.92401e-19)
(0.979881 0.128857 0)
(0.986996 0.121865 0)
(0.993862 0.114825 -9.5132e-18)
(1.00013 0.107702 -9.56969e-18)
(1.00556 0.100483 1.4052e-17)
(1.01001 0.0931673 4.6645e-18)
(1.01343 0.08576 4.61783e-18)
(1.0158 0.0782681 0)
(1.01716 0.0706941 -4.43375e-18)
(1.01758 0.0630356 0)
(1.01715 0.0552873 0)
(1.01596 0.0474444 -4.43362e-18)
(1.01408 0.0395049 0)
(1.01163 0.0314722 0)
(1.0087 0.023355 0)
(1.00538 0.0151791 1.10197e-18)
(1.00179 0.00694822 -5.72428e-19)
(0.997828 -0.00128896 2.86899e-19)
(0.993465 -0.00951972 0)
(0.988752 -0.0177206 0)
(0.983761 -0.0258545 0)
(0.978572 -0.0338844 1.15223e-18)
(0.973263 -0.0417786 1.17159e-18)
(0.967901 -0.0495114 -2.45746e-18)
(0.962533 -0.0570604 0)
(0.95719 -0.0644062 0)
(0.951882 -0.0715299 -5.22242e-18)
(0.946602 -0.0784124 -2.72151e-18)
(0.941336 -0.0850336 0)
(0.936063 -0.0913719 0)
(0.930764 -0.0974049 2.95055e-18)
(0.925426 -0.10311 5.37491e-20)
(0.920043 -0.108465 0)
(0.914624 -0.113449 0)
(0.909191 -0.118046 -3.4587e-18)
(0.90378 -0.122242 0)
(0.898441 -0.126027 0)
(0.89324 -0.129399 0)
(0.88825 -0.132358 0)
(0.883555 -0.134912 0)
(0.879245 -0.137076 -8.88693e-18)
(0.875414 -0.138866 0)
(0.872159 -0.140307 0)
(0.869575 -0.141428 2.35764e-20)
(0.867757 -0.142259 0)
(0.866801 -0.142838 0)
(0.866799 -0.143202 0)
(0.867844 -0.143393 2.19515e-17)
(0.87003 -0.143456 -1.11683e-17)
(0.873452 -0.143438 1.13088e-17)
(0.87821 -0.143388 1.59858e-21)
(0.884409 -0.143355 0)
(0.892164 -0.143392 1.12859e-17)
(0.901597 -0.14355 -1.10889e-17)
(0.912846 -0.143879 0)
(0.926057 -0.144425 0)
(0.941415 -0.145228 3.42369e-20)
(0.959041 -0.146293 8.77232e-18)
(0.97934 -0.147615 7.71463e-18)
(1.00177 -0.149022 0)
(1.02897 -0.150365 -4.88657e-18)
(1.05201 -0.151148 0)
(1.09892 -0.149268 1.39984e-18)
(0.974304 0.223273 0)
(0.972844 0.219657 2.37041e-17)
(0.970295 0.215611 2.29102e-17)
(0.967689 0.211494 0)
(0.965739 0.207449 1.05792e-17)
(0.964447 0.203247 -1.02845e-17)
(0.963536 0.198729 0)
(0.962858 0.193901 -1.83353e-17)
(0.962359 0.188751 0)
(0.96193 0.183215 0)
(0.961429 0.177255 0)
(0.960807 0.170886 0)
(0.96016 0.164126 0)
(0.959679 0.156979 1.91121e-19)
(0.959587 0.149482 -1.29679e-17)
(0.960143 0.141703 -1.8719e-19)
(0.96154 0.133853 1.89025e-19)
(0.963798 0.126138 0)
(0.966812 0.118579 0)
(0.970413 0.111149 0)
(0.974419 0.103822 -2.02799e-19)
(0.978651 0.0965684 2.05958e-19)
(0.982946 0.089361 -5.38951e-18)
(0.987166 0.0821746 -5.33511e-18)
(0.991198 0.0749861 0)
(0.994952 0.0677719 -5.35836e-18)
(0.998359 0.0605079 5.32789e-18)
(1.00136 0.0531707 0)
(1.00391 0.0457407 2.5863e-18)
(1.00596 0.0382046 2.64387e-18)
(1.00748 0.0305573 0)
(1.00845 0.0228037 0)
(1.00884 0.0149603 1.33756e-18)
(1.00867 0.00705594 -1.70323e-20)
(1.00796 -0.000867343 -6.69475e-19)
(1.0067 -0.00877572 0)
(1.00491 -0.0166502 0)
(1.00257 -0.0244689 -1.38937e-18)
(0.999699 -0.0322064 0)
(0.996294 -0.0398378 -1.43344e-18)
(0.992368 -0.0473393 -6.84561e-20)
(0.987939 -0.0546873 0)
(0.983033 -0.0618586 3.06854e-18)
(0.97768 -0.0688294 6.24423e-18)
(0.971918 -0.0755761 3.18688e-18)
(0.965794 -0.0820752 0)
(0.959359 -0.088304 -6.94587e-18)
(0.952674 -0.0942412 0)
(0.945805 -0.0998676 -3.67825e-18)
(0.938825 -0.105167 0)
(0.931812 -0.110124 0)
(0.924847 -0.114731 0)
(0.918017 -0.118979 0)
(0.911407 -0.122867 0)
(0.905104 -0.126395 -9.46809e-18)
(0.899194 -0.129568 9.85053e-18)
(0.893762 -0.132395 0)
(0.888888 -0.134888 1.05828e-17)
(0.884653 -0.137064 -1.10344e-17)
(0.881131 -0.138942 0)
(0.878397 -0.140546 -1.17813e-17)
(0.876524 -0.141904 0)
(0.875585 -0.143047 0)
(0.875654 -0.14401 0)
(0.876809 -0.14483 -1.31432e-17)
(0.879129 -0.145551 1.34023e-17)
(0.882698 -0.146215 -1.35879e-17)
(0.887606 -0.146871 2.73918e-17)
(0.893949 -0.147565 -1.3729e-17)
(0.901831 -0.14835 0)
(0.911366 -0.149275 1.34245e-17)
(0.922685 -0.15039 -1.30954e-17)
(0.935923 -0.15174 0)
(0.951265 -0.153364 5.23295e-20)
(0.968824 -0.155265 -1.08637e-17)
(0.989058 -0.157439 0)
(1.01135 -0.159703 0)
(1.03873 -0.16188 -6.19849e-18)
(1.06148 -0.163415 0)
(1.11002 -0.162316 -1.7488e-18)
(0.974265 0.223566 0)
(0.972691 0.22035 -1.356e-17)
(0.970124 0.216367 -1.31039e-17)
(0.967633 0.212132 0)
(0.965796 0.207954 2.44855e-17)
(0.96454 0.203631 2.32018e-17)
(0.963648 0.198992 0)
(0.963057 0.194058 2.12773e-17)
(0.962781 0.188848 -2.02526e-17)
(0.962766 0.183317 0)
(0.962889 0.177429 0)
(0.963027 0.171173 0)
(0.963102 0.164528 0)
(0.963073 0.157462 -1.54892e-17)
(0.962926 0.149964 -1.50976e-17)
(0.962716 0.142065 1.39881e-17)
(0.962571 0.133974 -4.12682e-17)
(0.962623 0.125933 0)
(0.962952 0.118004 0)
(0.963595 0.110201 1.32104e-17)
(0.964557 0.102528 2.59139e-17)
(0.965818 0.0949792 -1.27214e-17)
(0.96734 0.0875399 0)
(0.969068 0.0801913 0)
(0.97094 0.0729112 -6.31229e-18)
(0.97289 0.065674 1.2449e-17)
(0.974847 0.0584518 -1.23938e-17)
(0.976736 0.0512175 0)
(0.97848 0.0439474 0)
(0.98 0.036624 -3.05517e-18)
(0.981218 0.0292377 0)
(0.982062 0.021788 3.13615e-18)
(0.982471 0.0142841 -1.54791e-18)
(0.98238 0.0067514 -1.61737e-20)
(0.981814 -0.000810467 -8.20715e-21)
(0.980768 -0.00837031 0)
(0.979235 -0.0159016 0)
(0.977219 -0.0233816 -3.34349e-20)
(0.974728 -0.030786 1.67134e-18)
(0.971775 -0.0380901 5.07111e-18)
(0.968383 -0.045271 6.88164e-18)
(0.96458 -0.0523076 3.55585e-18)
(0.960399 -0.0591804 -3.58356e-18)
(0.955876 -0.0658711 -3.68828e-18)
(0.951054 -0.0723629 3.86724e-18)
(0.945978 -0.0786393 0)
(0.940698 -0.0846852 8.14021e-18)
(0.935266 -0.0904858 -8.55635e-18)
(0.929739 -0.0960277 0)
(0.924176 -0.101298 0)
(0.918636 -0.106286 0)
(0.913183 -0.110981 0)
(0.907877 -0.115377 0)
(0.902782 -0.119466 0)
(0.897962 -0.123247 1.11058e-17)
(0.893478 -0.126719 -2.31791e-17)
(0.889396 -0.129886 -1.20768e-17)
(0.88578 -0.132755 1.2533e-17)
(0.882698 -0.135338 1.29354e-17)
(0.880221 -0.137652 -1.34492e-17)
(0.878421 -0.139718 1.38997e-17)
(0.877376 -0.14156 0)
(0.877165 -0.143211 1.47556e-17)
(0.877871 -0.144703 -1.51459e-17)
(0.879578 -0.146074 0)
(0.882374 -0.147365 -3.15816e-17)
(0.886347 -0.148621 1.60224e-17)
(0.891589 -0.149886 -3.24029e-17)
(0.898197 -0.151209 1.626e-17)
(0.906276 -0.152638 0)
(0.915939 -0.154225 1.60633e-17)
(0.927317 -0.156018 1.56705e-17)
(0.94055 -0.158064 -1.51627e-17)
(0.955835 -0.160401 -1.43058e-17)
(0.973287 -0.163038 1.32128e-17)
(0.993429 -0.165973 0)
(1.01559 -0.169017 0)
(1.04321 -0.172011 7.71421e-18)
(1.06576 -0.174198 0)
(1.11633 -0.174222 2.20254e-18)
(0.974202 0.223864 1.63551e-17)
(0.972435 0.220977 0)
(0.969782 0.216981 -3.03359e-17)
(0.967368 0.212632 2.9301e-17)
(0.965636 0.208354 -2.7897e-17)
(0.96443 0.203935 2.68446e-17)
(0.963554 0.199195 0)
(0.962975 0.194162 2.02134e-19)
(0.962714 0.188866 2.30578e-17)
(0.962755 0.183271 0)
(0.963032 0.177351 0)
(0.963474 0.171099 0)
(0.964022 0.164501 3.79311e-17)
(0.964605 0.157521 0)
(0.965139 0.150133 3.38578e-17)
(0.965555 0.142334 0)
(0.965831 0.134308 6.31069e-17)
(0.965991 0.126283 0)
(0.96608 0.118322 0)
(0.966141 0.110443 -3.0177e-17)
(0.96622 0.102661 -1.48208e-17)
(0.966356 0.0949838 0)
(0.966577 0.0874097 0)
(0.966895 0.0799319 0)
(0.967311 0.0725386 7.18545e-18)
(0.967811 0.0652126 -7.15216e-18)
(0.968372 0.0579334 -1.0779e-19)
(0.968957 0.0506791 0)
(0.96952 0.0434301 7.21971e-18)
(0.970008 0.0361706 0)
(0.970366 0.0288906 0)
(0.970537 0.0215869 -3.58612e-18)
(0.970474 0.0142639 1.83725e-18)
(0.970131 0.00693313 -1.56717e-20)
(0.969488 -0.000415688 4.57847e-19)
(0.968517 -0.00775705 0)
(0.967202 -0.015064 0)
(0.965535 -0.0223166 1.88247e-18)
(0.963519 -0.0294964 -1.911e-18)