/*--------------------------------*- C++ -*----------------------------------*\
| =========                 |                                                 |
| \\      /  F ield         | OpenFOAM: The Open Source CFD Toolbox           |
|  \\    /   O peration     | Version:  v1912                                 |
|   \\  /    A nd           | Website:  www.openfoam.com                      |
|    \\/     M anipulation  |                                                 |
\*---------------------------------------------------------------------------*/
FoamFile
{
    version     2.0;
    format      ascii;
    class       volScalarField;
    location    "470";
    object      epsilon;
}
// * * * * * * * * * * * * * * * * * * * * * * * * * * * * * * * * * * * * * //

dimensions      [0 2 -3 0 0 0 0];


internalField   nonuniform List<scalar> 
12441
(
0.0102964
0.00908496
0.00832706
0.0077026
0.00718363
0.00674895
0.00638221
0.00607087
0.00580482
0.00557613
0.00537875
0.00520304
0.00505895
0.0049108
0.00479233
0.00469229
0.0048795
0.0203949
0.276575
3.04447
20.9519
39.25
0.0101189
0.0089201
0.00818396
0.00757684
0.00707189
0.00664864
0.00629133
0.00598786
0.00572845
0.00550542
0.00531297
0.00514113
0.0050015
0.00485748
0.0047423
0.00464663
0.00480331
0.0201267
0.260428
3.03671
21.2421
40.2318
0.00989686
0.00871734
0.00800027
0.00740905
0.00691744
0.00650551
0.00615789
0.00586282
0.00561079
0.00539434
0.00520783
0.00504137
0.00490707
0.00476557
0.00465569
0.00456579
0.00464595
0.0182248
0.220339
3.00548
21.6211
41.3784
0.00967328
0.00851369
0.0078149
0.00723881
0.00675986
0.00635863
0.00602015
0.00573298
0.00548786
0.00527757
0.00509662
0.00493561
0.00480574
0.00467285
0.00456772
0.00448218
0.00450236
0.0159497
0.181315
2.98232
22.0882
42.5504
0.00942905
0.00828907
0.00760901
0.00704855
0.00658278
0.00619279
0.00586399
0.00558529
0.00534768
0.00514417
0.00496944
0.00481429
0.00469017
0.00456012
0.00446125
0.0043836
0.00435217
0.0139044
0.161302
2.9887
22.6058
43.6698
0.00922308
0.00809945
0.00743461
0.00688676
0.00643156
0.00605049
0.00572928
0.00545712
0.00522519
0.0050267
0.00485645
0.00470567
0.00458486
0.00446321
0.00436821
0.00429353
0.00427841
0.0140067
0.1807
3.09534
23.2371
44.7472
0.00900241
0.00789584
0.00724745
0.00671333
0.0062697
0.00589849
0.00558579
0.00532105
0.00509568
0.00490308
0.00473822
0.00459254
0.0044767
0.00435706
0.0042658
0.00419949
0.00603091
0.0230484
0.28647
3.39729
24.0834
45.7945
0.00882396
0.0077312
0.00709564
0.00657212
0.00613732
0.00577352
0.00546708
0.00520766
0.00498687
0.00479824
0.00463686
0.00449447
0.00438095
0.00427094
0.00418713
0.00516401
0.0342812
0.0792241
0.600745
4.03581
25.2706
46.8732
0.00862981
0.00755198
0.00693094
0.00641954
0.00599496
0.00563986
0.00534092
0.00508803
0.004873
0.00468954
0.00453282
0.00439496
0.00428646
0.00413991
0.00538666
0.0268344
0.172995
0.294739
1.28888
5.16442
26.9324
48.0153
0.00847513
0.0074091
0.00679905
0.0062967
0.00587963
0.0055308
0.00523712
0.0049887
0.00477745
0.00459724
0.00444335
0.00430825
0.00420029
0.00426975
0.0250105
0.145734
0.504795
0.773054
2.37105
6.84272
29.1659
49.2846
0.00830568
0.00725263
0.00665531
0.00616359
0.00575548
0.00541429
0.00512718
0.00488447
0.00467826
0.00450253
0.00435265
0.00422256
0.00408581
0.00944663
0.110534
0.407585
0.966529
1.44824
3.62626
8.96347
31.998
50.6975
0.00817067
0.00712794
0.00654018
0.00605631
0.00565468
0.00531889
0.00503629
0.00479737
0.00459437
0.00442137
0.00427385
0.00414766
0.00416078
0.0474755
0.300174
0.733234
1.39099
2.11156
4.79491
11.3045
35.3726
52.295
0.00802152
0.00699027
0.00641386
0.00593945
0.00554581
0.00521681
0.00494006
0.0047062
0.00450764
0.00433858
0.00419456
0.00403527
0.00834598
0.156502
0.533104
1.00711
1.70242
2.63469
5.76342
13.6469
39.1767
54.0597
0.00790064
0.00687864
0.00631078
0.0058434
0.00545557
0.00513139
0.00485867
0.00462822
0.00443253
0.00426593
0.00412405
0.00388028
0.0362844
0.312049
0.725155
1.19785
1.91312
3.01097
6.53422
15.8434
43.2701
56.0037
0.00776924
0.00675727
0.00619945
0.00574042
0.00535962
0.00504143
0.00477385
0.00454784
0.00435603
0.00419284
0.00405396
0.00425871
0.106957
0.456687
0.860939
1.32629
2.05614
3.27846
7.14828
17.823
47.5177
58.0812
0.00766018
0.00665661
0.0061065
0.00565382
0.00527826
0.00496442
0.00470049
0.00447755
0.00428835
0.0041274
0.00399051
0.00940604
0.202855
0.566935
0.954081
1.415
2.15677
3.47396
7.64734
19.5665
51.8022
60.2902
0.00754422
0.00654953
0.00600835
0.00556308
0.00519374
0.00488518
0.00462574
0.00440667
0.00422082
0.00406278
0.00392887
0.0314866
0.294538
0.646335
1.01982
1.47895
2.23089
3.62333
8.06401
21.0833
56.036
62.571
0.00744271
0.00645595
0.00592206
0.00548279
0.00511844
0.00481404
0.00455811
0.00434203
0.00415874
0.00400293
0.00387364
0.0767654
0.36854
0.703902
1.06828
1.5272
2.28815
3.74319
8.42164
22.394
60.1565
64.9213
0.00734008
0.00636104
0.00583499
0.00540222
0.0050433
0.00474348
0.00449146
0.00427869
0.00409827
0.00394495
0.00380974
0.132114
0.424755
0.74714
1.10565
1.56524
2.33452
3.84415
8.73637
23.5228
64.1286
67.2818
0.00724546
0.0062739
0.00575469
0.00532758
0.00497338
0.00467753
0.00442886
0.00421897
0.00404103
0.0038899
0.00427538
0.18392
0.467342
0.781001
1.1357
1.59652
2.37385
3.93295
9.01908
24.4929
67.936
69.6617
0.00715522
0.00619038
0.00567805
0.0052566
0.00490708
0.00461515
0.00436978
0.00416267
0.00398709
0.00383805
0.00983874
0.22748
0.500501
0.808597
1.16082
1.62326
2.4087
4.0139
9.27697
25.3255
71.5825
72.0102
0.00706446
0.00610697
0.00560137
0.00518552
0.00484072
0.00455279
0.00431084
0.00410669
0.00393369
0.00378742
0.0274897
0.262848
0.527275
0.831901
1.18256
1.64701
2.44086
4.08961
9.51467
26.039
75.0849
74.3523
0.00698515
0.00603335
0.00553364
0.0051226
0.00478175
0.00449709
0.00425786
0.00405598
0.0038849
0.00374235
0.0558165
0.29157
0.549688
0.852198
1.20201
1.66883
2.47162
4.16152
9.73513
26.6498
78.4759
76.6493
0.00689867
0.00595397
0.00546076
0.00505517
0.00471895
0.00443823
0.0042024
0.00400349
0.00383501
0.00370257
0.0863188
0.315242
0.569057
0.870368
1.21994
1.68952
2.50181
4.23034
9.94022
27.1725
81.7983
78.9445
0.00683038
0.00589046
0.00540223
0.00500063
0.0046676
0.00438948
0.00415575
0.00395853
0.00379146
0.00368401
0.113745
0.33522
0.586253
0.887033
1.2369
1.70965
2.53193
4.29636
10.1312
27.6197
85.1082
81.212
0.0067447
0.00581209
0.00533059
0.00493469
0.00460655
0.00433265
0.00410259
0.00390858
0.00374435
0.00364482
0.137032
0.352529
0.601867
0.902647
1.25331
1.72959
2.56216
4.35973
10.309
28.0028
88.4693
83.5114
0.00668553
0.00575675
0.0052793
0.00488657
0.00456093
0.00428899
0.0040605
0.00386773
0.00370454
0.00383725
0.156831
0.367902
0.616314
0.917543
1.26945
1.74959
2.59249
4.42057
10.4743
28.3315
91.955
85.8273
0.00660182
0.00568033
0.0052096
0.00482263
0.00450196
0.00423434
0.00400961
0.00382015
0.00365998
0.00575964
0.174046
0.381849
0.629892
0.931969
1.28552
1.76974
2.62279
4.47902
10.6279
28.6142
95.6408
88.2307
0.00655214
0.0056336
0.00516603
0.00478142
0.0044625
0.00419617
0.00397241
0.00378364
0.0036244
0.0110171
0.189406
0.394728
0.642819
0.946097
1.30163
1.79005
2.65293
4.53523
10.7705
28.8579
99.6036
90.7106
0.00646806
0.00555717
0.00509669
0.00471821
0.00440461
0.00414294
0.00392324
0.00373807
0.00358297
0.0204126
0.203407
0.406791
0.65526
0.96005
1.31783
1.81049
2.68277
4.58936
10.9029
29.0684
103.913
93.3406
0.00642582
0.00551701
0.00505884
0.00468198
0.00436949
0.00410856
0.00388937
0.00370449
0.00355186
0.0337108
0.216369
0.418221
0.667332
0.973901
1.33412
1.83098
2.71224
4.64155
11.0256
29.2508
108.631
96.1058
0.00634337
0.0054422
0.00499112
0.00462043
0.00431336
0.00405717
0.00384213
0.00366092
0.00351594
0.0497329
0.228496
0.429152
0.679123
0.987691
1.35047
1.85144
2.74127
4.69189
11.1395
29.4094
113.804
99.0732
0.00630966
0.00540982
0.00496024
0.00459041
0.00428373
0.00402763
0.0038125
0.00363106
0.00349486
0.0670809
0.239924
0.439682
0.690691
1.00143
1.36683
1.87181
2.76982
4.74047
11.2453
29.5487
119.466
102.217
0.00622521
0.00533356
0.00489162
0.00452851
0.00422775
0.00397688
0.00376632
0.00358891
0.00347374
0.0845874
0.250748
0.449883
0.702074
1.01513
1.38317
1.89202
2.79785
4.78735
11.3437
29.6726
125.637
105.592
0.00619835
0.00530725
0.004866
0.004503
0.00420197
0.00395062
0.00373948
0.00356147
0.00347845
0.101495
0.261034
0.459807
0.71329
1.02875
1.39943
1.91203
2.82534
4.83253
11.4353
29.7853
132.331
109.157
0.00611138
0.00522915
0.00479614
0.00444042
0.00414583
0.00390014
0.00369396
0.00352028
0.00354794
0.117347
0.270827
0.469488
0.724346
1.04228
1.41556
1.93179
2.85225
4.87602
11.521
29.8904
139.554
112.957
0.00608781
0.00520578
0.00477303
0.00441702
0.0041218
0.00387532
0.00366832
0.00349387
0.00620322
0.131879
0.280155
0.478947
0.735236
1.05568
1.43151
1.95125
2.87857
4.91776
11.6014
29.9907
147.307
116.938
0.00599584
0.00512378
0.00470019
0.00435225
0.00406414
0.00382389
0.00362231
0.00345258
0.0256566
0.144859
0.289027
0.488193
0.745944
1.06892
1.44723
1.97037
2.90424
4.95771
11.6772
30.0881
155.573
121.137
0.00596751
0.00509631
0.00467351
0.0043257
0.00403732
0.00379661
0.00359454
0.00342487
0.0478497
0.155924
0.297447
0.497226
0.756451
1.08195
1.46267
1.98911
2.92922
4.99577
11.7493
30.1831
164.301
125.495
0.00586285
0.0050034
0.00459136
0.004253
0.00397293
0.00373951
0.00354379
0.00338453
0.0601703
0.16503
0.30541
0.506035
0.766727
1.09473
1.4778
2.00743
2.95345
5.03185
11.8183
30.2749
173.356
130.045
0.00582124
0.00496394
0.00455383
0.00421658
0.00393712
0.00370407
0.00350867
0.00334334
0.0669245
0.17245
0.312914
0.514606
0.776746
1.10722
1.49255
2.02527
2.97688
5.06587
11.8849
30.3622
182.47
134.727
0.00569962
0.0048564
0.00445876
0.00413221
0.00386203
0.00363708
0.00344876
0.00341862
0.0709786
0.178507
0.31996
0.522914
0.786473
1.11936
1.50688
2.04258
2.9994
5.09773
11.9493
30.4437
191.164
139.588
0.00561731
0.00478987
0.00440428
0.00408606
0.0038215
0.00360021
0.00341406
0.00376656
0.0736079
0.183482
0.326555
0.530934
0.795879
1.13109
1.52072
2.05929
3.02094
5.1274
12.0115
30.5198
198.745
144.654
0.0052549
0.00446058
0.00411231
0.00382677
0.00358955
0.00339105
0.00322375
0.00392207
0.0754022
0.187586
0.332706
0.538632
0.804932
1.14235
1.53402
2.07533
3.04139
5.15487
12.0705
30.5919
204.405
150.447
95.0235
44.481
29.2161
23.2525
23.4767
20.2497
19.6109
17.52
16.431
15.8272
15.1089
14.2684
15.0302
17.4049
20.9937
24.1139
26.1924
28.0638
30.324
32.6398
34.7939
36.9066
38.4305
39.0009
38.9235
38.256
37.3406
36.3993
35.3146
33.5992
33.9707
38.0918
10.977
3.60848
2.95531
94.6475
44.4914
29.249
23.4692
23.9144
20.5873
19.9483
17.7797
16.6659
16.0337
15.2218
14.3762
15.1339
17.5022
21.1486
24.3475
26.4637
28.3708
30.6066
32.9321
35.1749
37.3986
39.0461
39.7063
39.6651
38.9546
37.9408
36.8927
35.7344
33.944
34.3344
38.254
11.1098
3.60803
2.9522
93.9266
44.5002
29.3115
23.9069
24.7856
21.2656
20.6096
18.2885
17.1337
16.446
15.4588
14.5896
15.3193
17.6939
21.4493
24.7693
27.0051
29.0378
31.2459
33.5767
35.9792
38.3925
40.2737
41.1256
41.1834
40.41
39.2053
37.9301
36.6045
34.6518
35.0676
38.3282
11.254
3.60718
2.94596
92.8104
44.5
29.4088
24.5859
26.0799
22.2863
21.5701
19.0301
17.8263
17.057
15.8473
14.9364
15.6152
18.0102
21.9268
25.4491
27.9249
30.2343
32.4606
34.7564
37.3263
39.9684
42.1785
43.3302
43.5751
42.7457
41.2611
39.614
37.9965
35.7666
36.1944
38.5277
11.44
3.60624
2.93662
91.3035
44.484
29.5483
25.5211
27.778
23.6433
22.805
19.9938
18.7355
17.8601
16.4204
15.4569
16.0561
18.4748
22.6163
26.4623
29.3645
32.2303
34.6444
36.8129
39.44
42.2738
44.8752
46.4359
46.988
46.148
44.3052
42.1062
40.0215
37.3562
37.7564
39.0395
11.6971
3.60565
2.92421
89.3553
44.4465
29.7405
26.7308
29.8746
25.3395
24.3065
21.1829
19.8631
18.8586
17.2109
16.1937
16.6763
19.1017
23.5315
27.8615
31.4679
35.3736
38.4261
40.3331
42.7104
45.5648
48.5571
50.624
51.6363
50.8838
48.6272
45.6514
42.8466
39.5207
39.8154
40.0386
12.0547
3.60591
2.90876
87.0012
44.3831
30.0003
28.2436
32.3829
27.3947
26.0877
22.6157
21.2257
20.0717
18.2557
17.196
17.5172
19.9086
24.6789
29.6758
34.3481
40.0207
44.7064
46.2897
47.8036
50.2766
53.544
56.1747
57.8257
57.3232
54.6416
50.6118
46.7191
42.4053
42.4585
41.7087
12.5442
3.60763
2.89029
84.2135
44.2843
30.3481
30.0985
35.3263
29.8407
28.1788
24.3241
22.8536
21.5341
19.6041
18.5294
18.6426
20.9379
26.0866
31.9413
38.0925
46.4311
54.5486
56.2136
55.8462
57.1426
60.3586
63.5206
65.9906
65.971
62.9271
57.5138
51.9999
46.2169
45.8037
44.2669
13.2006
3.61142
2.86883
81.0699
44.1406
30.8114
32.3374
38.726
32.7144
30.6219
26.3514
24.7897
23.2954
21.3225
20.2816
20.1509
22.2711
27.8273
34.746
42.8203
54.6827
68.6522
72.1637
68.659
67.3715
69.8365
73.3174
76.7398
77.4953
74.2618
67.0999
59.2053
51.2463
50.0075
47.9908
14.0639
3.61787
2.84445
77.574
43.942
31.4257
34.9939
42.5893
36.0491
33.4647
28.7496
27.0864
25.4172
23.493
22.5633
22.1841
24.0416
30.0338
38.266
48.7558
64.6572
86.1879
95.5846
88.7297
82.8128
83.2389
86.5041
90.8774
92.7155
89.606
80.3509
69.0403
57.8905
55.2715
53.245
15.1803
3.62745
2.81717
73.8369
43.6785
32.2365
38.0803
46.9032
39.8681
36.7551
31.5759
29.8027
27.971
26.2087
25.4975
24.9333
26.4485
32.9177
42.8024
56.2876
76.1021
103.939
123.819
117.681
105.671
102.182
104.23
109.291
112.433
109.896
98.3562
82.3683
66.658
61.8409
60.4972
16.6017
3.64042
2.78707
69.8857
43.3388
33.299
41.5785
51.6318
44.1795
40.5339
34.8876
32.9984
31.032
29.5618
29.202
28.6294
29.7764
36.7886
48.7999
65.9457
88.7244
118.165
147.898
151.681
136.504
127.794
127.319
132.46
136.869
135.359
121.737
99.9564
78.107
69.9817
70.2885
18.3827
3.65664
2.7542
65.8489
42.9109
34.6774
45.4378
56.7194
48.9765
44.8288
38.7354
36.7277
34.6711
33.6276
33.7452
33.5014
34.3946
42.0559
56.8306
78.1985
102.206
128.058
160.312
179.067
169.986
158.3
154.791
159.313
164.522
164.123
149.23
121.703
92.6067
79.9058
83.0776
20.5712
3.67539
2.71864
61.7626
42.3817
36.4392
49.5867
62.0987
54.2404
49.6489
43.157
41.0285
38.9416
38.4302
39.0969
39.6825
40.7141
49.2044
67.4151
92.9007
115.986
135.679
163.291
190.844
194.781
186.629
182.052
185.942
191.116
190.989
175.928
145.245
109.775
91.6005
98.8288
23.1873
3.69509
2.68046
57.7502
41.7379
38.6453
53.9541
67.6992
59.9486
54.9867
48.1682
45.9168
43.8626
43.9248
45.0703
47.0308
49.01
58.6363
80.5559
108.618
128.943
142.972
163.52
190.289
203.888
203.893
201.943
206.321
210.642
208.967
194.099
165.187
127.676
104.542
116.306
26.1879
3.71307
2.63975
53.8399
40.9674
41.3347
58.4892
73.4602
66.0727
60.8165
53.7627
51.3815
49.4087
49.9841
51.3444
54.9668
59.0469
70.2482
95.0273
122.735
139.533
150.057
164.806
185.634
200.921
207.41
210.015
216.071
218.969
213.866
198.453
175.524
142.638
117.41
132.562
29.4159
3.72544
2.59659
50.1273
40.0637
44.5117
63.1693
79.3322
72.5696
67.0989
59.9177
57.3933
55.5194
56.4451
57.5607
62.5179
69.6328
82.8373
108.343
133.09
146.721
155.72
167.163
181.433
193.148
201.614
207.703
215.363
216.286
206.844
190.187
174.256
150.877
128.153
143.719
32.5603
3.72717
2.55111
46.6135
39.0328
48.1373
67.958
85.289
79.3801
73.7807
66.5972
63.913
62.1195
63.167
63.5287
68.7817
78.7694
94.0384
118.213
139.504
150.796
158.92
168.86
178.067
184.803
192.119
199.532
207.553
205.794
192.246
174.644
164.413
151.034
134.723
147.181
35.1651
3.71258
2.5034
43.349
37.906
52.1299
72.8229
91.296
86.4189
80.7914
73.7521
70.905
69.1535
70.1201
69.3248
73.481
84.7988
101.66
124.276
143.495
153.083
159.747
168.424
174.235
176.837
182.103
189.272
196.149
191.047
174.359
156.877
150.689
144.768
136.097
143.108
36.7205
3.67636
2.45363
40.3033
36.7523
56.3299
77.7563
97.3031
93.5694
88.0373
81.3126
78.3353
76.6002
77.3865
75.3117
77.1961
87.6579
105.347
127.893
146.794
154.898
159.101
165.61
168.924
168.898
172.565
178.789
183.334
174.574
156.035
139.83
136.506
134.993
132.685
133.653
36.829
3.61482
2.40195
37.4893
35.6752
60.5721
82.7243
103.244
100.691
95.4014
89.1827
86.1674
84.4729
85.1404
81.9574
80.9765
88.7808
106.647
130.913
150.546
156.921
157.803
161.058
162.041
160.67
163.572
168.624
170.085
157.852
138.788
124.688
123.484
124.101
125.819
121.282
35.376
3.52703
2.34857
34.8769
34.7747
64.721
87.6686
109.04
107.634
102.75
97.2367
94.3448
92.7869
93.5417
89.72
85.9539
90.1443
107.725
134.768
155.232
159.226
156.161
155.519
154.149
152.24
155.017
158.758
156.752
141.695
123.272
111.678
112.067
113.421
116.953
107.823
32.5931
3.41523
2.29369
32.4767
34.1515
68.6663
92.5113
114.613
114.263
109.947
105.33
102.786
101.535
102.685
98.8724
92.9663
93.4354
110.442
140.473
161.083
161.691
154.111
149.416
145.884
143.922
146.851
149.036
143.492
126.575
109.671
100.616
102.154
103.466
107.186
94.3747
28.9575
3.28431
2.23757
30.2708
33.9022
72.3316
97.1624
119.884
120.467
116.867
113.314
111.381
110.662
112.544
109.498
102.471
99.8767
116.138
148.714
168.257
164.272
151.583
142.947
137.707
136.017
139.062
139.336
130.47
112.766
97.9209
91.1891
93.4628
94.3062
97.1866
81.5384
24.9987
3.14053
2.18046
28.2673
34.1176
75.677
101.529
124.786
126.165
123.405
121.056
120.011
120.081
123.015
121.453
114.464
110.201
125.852
160.117
176.979
167.085
148.694
136.272
129.876
128.7
131.615
129.601
117.898
100.406
87.844
83.0796
85.6996
85.84
87.3103
69.6442
21.1426
2.99025
2.12263
26.4614
34.879
78.6955
105.528
129.268
131.311
129.485
128.451
128.56
129.687
133.955
134.507
128.651
124.641
140.358
175.19
187.377
170.256
145.735
129.666
122.571
122.024
124.433
119.843
106
89.5215
79.2153
76.0061
78.6167
77.9303
77.7455
58.8772
17.6516
2.83889
2.06431
24.8623
36.2547
81.4032
109.099
133.298
135.894
135.068
135.437
136.942
139.395
145.25
148.398
144.562
142.736
160.124
194.362
199.461
173.816
143.01
123.455
115.922
115.963
117.411
110.133
94.9735
80.0498
71.8053
69.7395
72.0318
70.4673
68.611
49.3309
14.6412
2.69056
2.00577
23.4808
38.2952
83.828
112.219
136.875
139.937
140.152
141.998
145.113
149.16
156.838
162.958
161.802
163.769
185.027
217.61
212.881
177.594
140.722
117.953
110.043
110.444
110.447
100.592
84.9548
71.8715
65.4008
64.1003
65.8237
63.388
60.0052
41.0278
12.1266
2.54799
1.9472
22.3333
41.0287
85.9985
114.896
140.02
143.491
144.775
148.164
153.086
159.001
168.752
178.125
180.105
187.086
214.47
244.369
226.942
181.236
138.901
113.354
104.985
105.365
103.466
91.3705
76.0066
64.8353
59.8159
58.9546
59.9238
56.6735
52.0177
33.9302
10.0681
2.41277
1.88883
21.4546
44.4536
87.9381
117.162
142.774
146.624
149
154.007
160.931
169.015
181.134
194.019
199.458
212.373
247.63
273.228
240.447
184.209
137.42
109.726
100.749
100.607
96.4377
82.6256
68.1248
58.7803
54.8954
54.2054
54.3028
50.3373
44.723
27.9538
8.40259
2.2856
1.83082
20.8892
48.5282
89.6628
119.066
145.19
149.412
152.914
159.633
168.784
179.404
194.288
210.976
220.11
239.715
283.929
302.309
251.979
185.929
136.023
106.979
97.2502
96.0382
89.386
74.4925
61.2524
53.5521
50.5139
49.7864
48.9597
44.4103
38.1699
22.984
7.06292
2.16659
1.77334
20.7351
53.1601
91.1842
120.662
147.325
151.935
156.614
165.185
176.856
190.516
208.765
229.699
242.749
269.757
322.991
329.304
260.032
185.841
134.406
104.918
94.353
91.5285
82.3829
67.0692
55.2986
49.0106
46.5729
45.6538
43.9091
38.9268
32.3753
18.8914
5.98688
2.05548
1.71652
21.1259
58.2021
92.5143
122.006
149.243
154.272
160.216
170.85
185.468
202.916
225.515
251.449
268.672
303.802
364.522
351.904
263.467
183.575
132.258
103.252
91.8525
86.9628
75.5358
60.4052
50.155
45.0351
42.9968
41.7811
39.1727
33.914
27.3243
15.5452
5.12113
1.95179
1.66048
22.2957
63.4631
93.6682
123.154
151.006
156.506
163.855
176.875
195.089
217.51
246.144
278.467
300.222
344.065
407.584
367.638
261.545
178.964
129.339
101.666
89.5184
82.2599
68.9642
54.505
45.7094
41.5241
39.7286
38.1522
34.7707
29.3861
22.9759
12.8225
4.42177
1.85492
1.60532
24.5223
68.7334
94.6653
124.156
152.68
158.729
167.696
183.6
206.429
235.744
273.347
314.559
341.276
393.594
449.705
374.311
254.175
172.096
125.488
99.8385
87.0945
77.3856
62.7803
49.3345
41.854
38.3951
36.7256
34.7582
30.7183
25.3422
19.2708
10.613
3.85357
1.76426
1.55114
28.1637
73.8166
95.5276
125.058
154.337
161.046
171.959
191.51
220.565
259.93
311.538
365.908
397.725
455.239
485.545
370.13
241.755
163.237
120.652
97.5145
84.3564
72.3588
57.0692
44.8338
38.4918
35.5822
33.9556
31.5927
27.0221
21.7675
16.14
8.82141
3.38871
1.67924
1.498
33.4954
78.5576
96.2772
125.903
156.054
163.595
176.947
201.316
239.176
293.754
367.499
440.89
475.959
527.219
506.791
354.534
225.228
152.811
114.865
94.5016
81.1241
67.2431
51.8805
40.928
35.5386
33.0336
31.3945
28.6507
23.6803
18.6359
13.5114
7.36771
3.00537
1.59929
1.44598
40.701
82.8589
96.9343
126.734
157.931
166.562
183.103
214.106
264.915
342.9
449.474
544.533
574.278
594.404
504.431
328.462
205.806
141.316
108.253
90.7026
77.3085
62.1295
47.2257
37.5371
32.9243
30.7095
29.0233
25.9262
20.683
15.9141
11.3152
6.18585
2.68653
1.52394
1.39514
49.6321
86.6862
97.517
127.594
160.099
170.22
191.104
231.609
302.048
415.052
559.133
658.774
663.14
625.374
474.157
294.672
184.893
129.288
101.009
86.0959
72.8949
57.1108
43.0839
34.583
30.5918
28.5795
26.8267
23.4123
18.014
13.5642
9.48642
5.22212
2.41892
1.45276
1.34554
59.8743
90.063
98.042
128.542
162.75
174.999
202.05
256.705
357.252
515.562
669.471
724.897
686.143
595.638
420.569
256.935
163.773
117.231
93.3816
80.7493
67.9478
52.2618
39.4101
31.9942
28.4962
26.6215
24.7924
21.1006
15.6525
11.547
7.96711
4.43327
2.19215
1.3854
1.29724
70.5911
93.0586
98.5271
129.655
166.185
181.617
217.843
294.381
439.199
629.545
717.943
692.627
621.261
516.096
355.718
219.137
143.535
105.593
85.6503
74.8009
62.5728
47.6271
36.1445
29.7074
26.6027
24.8194
22.9101
18.9822
13.5748
9.82368
6.70652
3.78472
1.99811
1.32154
1.25029
80.9187
95.76
98.9934
131.055
170.922
191.38
242.018
353.142
548.905
699.391
669.546
587.317
511.11
420.838
291.655
184.051
124.899
94.7263
78.1034
68.4642
56.9106
43.2215
33.2204
27.6683
24.8848
23.162
21.1719
17.0474
11.7561
8.3575
5.66115
3.24893
1.83041
1.26095
1.20474
89.3733
98.2639
99.471
132.951
177.934
206.88
281.533
443.368
645.56
668.135
559.407
468.825
405.205
334.757
235.031
153.082
108.28
84.8888
71.0061
62.0017
51.1162
39.037
30.5703
25.8299
23.3216
21.6418
19.5716
15.2872
10.1709
7.1143
4.79412
2.804
1.684
1.2034
1.16064
95.1437
100.686
100.011
135.734
189.262
233.752
349.046
550.636
642.64
554.223
439.949
369.962
322.222
265.127
187.386
126.489
93.7697
76.2031
64.5698
55.7074
45.3658
35.0566
28.1292
24.1507
21.8962
20.2534
18.1048
13.6925
8.79496
6.06306
4.0745
2.43253
1.55485
1.14872
1.11805
0.0033779
0.00250552
0.0022791
0.00216848
0.00212861
0.00213252
0.00216437
0.00397084
0.0763531
0.190134
0.336984
0.544075
0.811296
1.15017
1.54324
2.08642
3.05541
5.17353
12.1112
30.6467
206.658
160.173
0.00334448
0.00224261
0.00184292
0.0016077
0.00148742
0.00145036
0.00148275
0.00399777
0.0768215
0.191514
0.339439
0.547083
0.814605
1.15407
1.54772
2.09177
3.06228
5.1832
12.1354
30.6878
207.583
170.312
0.00354053
0.00237582
0.0018822
0.00154483
0.00132353
0.00119346
0.00116313
0.00401703
0.0771287
0.192525
0.341354
0.549268
0.816735
1.15634
1.55015
2.0946
3.06602
5.18912
12.153
30.73
207.658
179.991
0.00367089
0.00251741
0.00200375
0.00162962
0.00135801
0.00116703
0.00103228
0.00403032
0.0772977
0.193192
0.342726
0.550616
0.817661
1.15697
1.55051
2.09488
3.06655
5.19111
12.1625
30.7741
206.947
189.079
0.00392264
0.00276389
0.00222615
0.00182169
0.00151371
0.00127957
0.000997866
0.00403881
0.0773417
0.193529
0.343549
0.551113
0.817366
1.15594
1.54877
2.09255
3.06378
5.18902
12.1623
30.8203
205.494
198.035
0.0040603
0.00292971
0.00239826
0.0019916
0.00167454
0.00142445
0.000986488
0.00404326
0.0772687
0.193547
0.34382
0.550754
0.815842
1.15324
1.54492
2.08761
3.05765
5.18267
12.1509
30.8687
203.333
207.029
0.00434054
0.00320794
0.00265921
0.00223287
0.00189522
0.00162366
0.00105531
0.00404409
0.0770831
0.193251
0.343537
0.549536
0.81309
1.14888
1.53897
2.08002
3.0481
5.17194
12.127
30.919
200.503
216.059
0.00447867
0.00337927
0.00284366
0.00242295
0.00208573
0.00181041
0.00118183
0.00404141
0.0767875
0.192646
0.342705
0.547465
0.80912
1.14288
1.53094
2.06981
3.03509
5.15669
12.0894
30.9704
197.052
225.064
0.0047841
0.00368459
0.0031343
0.0026963
0.00234114
0.00204791
0.00130641
0.00403499
0.0763832
0.191737
0.341331
0.544553
0.803955
1.13526
1.52085
2.05697
3.01858
5.13681
12.0372
31.0214
193.038
233.973
0.00490879
0.00384887
0.00331928
0.00289415
0.00254613
0.00225542
0.00139685
0.00402444
0.0758708
0.19053
0.339431
0.540821
0.797627
1.12607
1.50876
2.04154
2.99853
5.11219
11.9694
31.0697
188.521
242.702
0.00522945
0.00417119
0.00362972
0.00318985
0.0028262
0.00251984
0.00151085
0.0040093
0.0752499
0.189031
0.33702
0.536295
0.790177
1.11535
1.49473
2.02357
2.97493
5.08272
11.8856
31.1122
183.566
251.14
0.00533939
0.00432473
0.00380966
0.00338858
0.00303786
0.00273956
0.0016305
0.00398888
0.0745193
0.187247
0.334122
0.53101
0.781658
1.10317
1.47883
2.00311
2.94775
5.04828
11.7853
31.1445
178.24
259.154
0.00567213
0.00466086
0.00413642
0.00370274
0.00333822
0.00302595
0.00183484
0.00396243
0.0736761
0.185186
0.330761
0.525005
0.772127
1.08959
1.46115
1.98026
2.91701
5.00876
11.6682
31.1615
172.613
266.594
0.00575636
0.00479294
0.00430096
0.00389247
0.00354717
0.00324909
0.00211253
0.00392873
0.0727151
0.182854
0.326961
0.518327
0.761649
1.07471
1.44179
1.95509
2.88272
4.96403
11.5342
31.157
166.75
273.307
0.00609211
0.00513325
0.004634
0.00421495
0.00385779
0.00354768
0.00251689
0.00388642
0.0716275
0.180256
0.322749
0.511026
0.750296
1.0586
1.42086
1.92774
2.84493
4.91395
11.3832
31.1236
160.718
279.147
0.00615227
0.005243
0.00477999
0.0043906
0.00405745
0.00376647
0.00298297
0.00383303
0.0703991
0.177394
0.318148
0.503155
0.738143
1.04136
1.39846
1.89832
2.80372
4.85837
11.2154
31.0535
154.575
283.98
0.00648675
0.00558301
0.0051145
0.00471615
0.00437256
0.00407093
0.00349521
0.00376582
0.0690081
0.174263
0.313179
0.494769
0.72527
1.02308
1.37472
1.86699
2.75917
4.79713
11.0311
30.9378
148.377
287.697
0.00651845
0.0056655
0.00523636
0.00487154
0.00455626
0.00427823
0.00389177
0.00367928
0.0674217
0.170851
0.307857
0.485922
0.711758
1.00387
1.34976
1.83389
2.71143
4.73009
10.8305
30.7676
142.171
290.215
0.006839
0.00599238
0.00555953
0.00518759
0.00486369
0.00457685
0.00426848
0.00357292
0.0655908
0.167132
0.302187
0.476666
0.697691
0.983821
1.32371
1.7992
2.66067
4.65709
10.6143
30.5336
136
291.476
0.00685359
0.00605579
0.00566219
0.00532463
0.00503056
0.00476938
0.00452393
0.00345551
0.0634442
0.163062
0.296165
0.467048
0.683152
0.963048
1.2967
1.76307
2.60706
4.57801
10.3832
30.227
129.895
291.449
0.00716008
0.00636934
0.00597351
0.00563024
0.00532878
0.00505983
0.00481909
0.00339176
0.0608791
0.158572
0.289767
0.457104
0.668224
0.941649
1.26885
1.72568
2.55084
4.49275
10.1379
29.8396
123.886
290.122
0.00715672
0.00641256
0.00605544
0.00574693
0.00547638
0.00523466
0.00501973
0.00355528
0.0577511
0.153556
0.282944
0.446854
0.652985
0.919731
1.24028
1.6872
2.49223
4.40124
9.87928
29.3643
117.992
287.501
0.00744654
0.0067096
0.00635119
0.00603794
0.0057609
0.00551224
0.00528888
0.00403517
0.0538653
0.147856
0.275613
0.436298
0.637504
0.897395
1.21112
1.6478
2.4315
4.30349
9.60837
28.7956
112.229
283.6
0.00743063
0.00673706
0.00641564
0.00613628
0.00588998
0.00566888
0.00546813
0.00463629
0.0489735
0.141249
0.267639
0.4254
0.621833
0.874744
1.18149
1.60766
2.36893
4.19956
9.3262
28.1298
106.606
278.448
0.00770414
0.00701772
0.00669563
0.00641219
0.00616
0.00593244
0.00572425
0.00523233
0.0428137
0.133419
0.25882
0.414077
0.606004
0.851874
1.1515
1.56693
2.30482
4.0896
9.03385
27.3657
101.127
272.078
0.00767679
0.00703045
0.00674334
0.00649257
0.0062705
0.00607038
0.00588627
0.00561384
0.0352462
0.123948
0.248857
0.402178
0.590004
0.828871
1.12127
1.52577
2.23946
3.97385
8.73239
26.5047
95.7927
264.532
0.00793327
0.0072937
0.00700621
0.00675175
0.00652417
0.00631791
0.00612766
0.00592172
0.0265717
0.112321
0.237323
0.389455
0.573764
0.805798
1.09089
1.48435
2.17317
3.85266
8.42288
25.551
90.6008
255.862
0.00789957
0.00729641
0.0070413
0.00681755
0.00661869
0.00643893
0.00627275
0.0061089
0.0178837
0.09803
0.223622
0.375527
0.557128
0.782681
1.06047
1.44281
2.1063
3.72651
8.10634
24.5115
85.5442
246.132
0.00814115
0.00754426
0.00728884
0.00706159
0.0068574
0.00667158
0.00649951
0.00633544
0.01108
0.080855
0.206962
0.359832
0.53981
0.759476
1.03008
1.40129
2.03919
3.59601
7.78374
23.3962
80.6145
235.42
0.00810338
0.00753941
0.00731377
0.00711516
0.00693811
0.00677763
0.00662888
0.00648685
0.00748904
0.0614253
0.186379
0.341563
0.52135
0.736037
0.999756
1.35993
1.9722
3.46191
7.45605
22.2171
75.7997
223.822
0.0083302
0.00777192
0.00754595
0.00734399
0.00716177
0.00699535
0.0068408
0.00669439
0.00653851
0.0417579
0.160945
0.319596
0.50105
0.712054
0.969441
1.31883
1.9057
3.32516
7.12426
20.9884
71.0876
211.453
0.00829267
0.0077638
0.00756482
0.00738912
0.00723205
0.00708935
0.00695682
0.00683048
0.00658671
0.024984
0.130347
0.292453
0.477877
0.686988
0.938973
1.27803
1.84005
3.18684
6.78946
19.7255
66.4639
198.448
0.00850597
0.00798227
0.00778295
0.00760405
0.00744202
0.00729353
0.00715524
0.00702417
0.00684159
0.0139204
0.0959857
0.25844
0.450352
0.659987
0.907983
1.23748
1.77558
3.04822
6.45299
18.4447
61.9168
184.957
0.00847102
0.00797347
0.00779842
0.0076434
0.00750448
0.00737796
0.00726023
0.00714789
0.00702003
0.00872014
0.062022
0.216255
0.416436
0.629771
0.875826
1.19699
1.71254
2.91068
6.11649
17.1624
57.4364
171.148
0.00867162
0.00817873
0.00800332
0.00784529
0.00770163
0.00756955
0.00744619
0.00732902
0.00720986
0.00713448
0.0345397
0.16647
0.373566
0.594477
0.841464
1.15613
1.65106
2.77568
5.78204
15.8948
53.0203
157.199
0.00864159
0.00817179
0.00801803
0.0078815
0.00775884
0.00764688
0.00754246
0.00744264
0.00734252
0.00695859
0.017668
0.113606
0.319228
0.551492
0.803331
1.11414
1.59101
2.64458
5.45219
14.657
48.6736
143.289
0.00883157
0.00836595
0.00821177
0.00807234
0.00794514
0.0078278
0.00771787
0.00761316
0.00751051
0.00720424
0.0102697
0.0665783
0.252802
0.497418
0.759133
1.06982
1.53196
2.51855
5.12985
13.4634
44.4132
129.597
0.00880915
0.00836382
0.00822881
0.0081086
0.0080003
0.00790118