/*--------------------------------*- C++ -*----------------------------------*\
| =========                 |                                                 |
| \\      /  F ield         | OpenFOAM: The Open Source CFD Toolbox           |
|  \\    /   O peration     | Version:  v1912                                 |
|   \\  /    A nd           | Website:  www.openfoam.com                      |
|    \\/     M anipulation  |                                                 |
\*---------------------------------------------------------------------------*/
FoamFile
{
    version     2.0;
    format      ascii;
    class       volScalarField;
    location    "470";
    object      nut;
}
// * * * * * * * * * * * * * * * * * * * * * * * * * * * * * * * * * * * * * //

dimensions      [0 2 -1 0 0 0 0];


internalField   nonuniform List<scalar> 
12441
(
5.82187e-24
1.79048e-20
8.10473e-20
3.32534e-19
1.06828e-18
3.88828e-18
1.01056e-17
2.50051e-17
6.13852e-17
1.27539e-16
3.05678e-16
7.72195e-16
2.17506e-15
7.41177e-15
1.03778e-13
1.89495e-11
0.000193992
0.000934321
0.00300824
0.0026151
0.00364709
0.00775321
6.34183e-24
3.03338e-20
1.11727e-19
4.23932e-19
1.30205e-18
4.80718e-18
1.21983e-17
3.00097e-17
7.36103e-17
1.54462e-16
3.79826e-16
1.03028e-15
2.81972e-15
9.38423e-15
1.13187e-13
3.8996e-11
5.77407e-05
0.00113322
0.00344552
0.00284725
0.00400966
0.00781733
6.36459e-24
3.5894e-20
1.20773e-19
4.48113e-19
1.37768e-18
4.90657e-18
1.29286e-17
3.20404e-17
8.05138e-17
1.7178e-16
4.17909e-16
1.11866e-15
2.77595e-15
7.67588e-15
5.35985e-14
6.57382e-12
1.11023e-05
0.000832662
0.00137566
0.00268657
0.00416287
0.0078909
6.31905e-24
3.76901e-20
1.18529e-19
4.29291e-19
1.32529e-18
4.71337e-18
1.2513e-17
3.13259e-17
7.84932e-17
1.7368e-16
4.23775e-16
1.15518e-15
2.60257e-15
8.48185e-15
3.8542e-14
1.5428e-12
1.62544e-06
0.000581539
0.00102687
0.00261069
0.00432566
0.0079647
6.28503e-24
4.38813e-20
1.29773e-19
4.58293e-19
1.40263e-18
4.77911e-18
1.30904e-17
3.27934e-17
8.42957e-17
1.87529e-16
4.54178e-16
1.286e-15
3.00917e-15
4.07765e-14
2.47556e-13
2.29761e-12
1.39684e-07
0.000411338
0.00100921
0.00259858
0.00446599
0.00803394
6.23484e-24
4.12862e-20
1.20534e-19
4.29168e-19
1.34265e-18
4.62184e-18
1.27498e-17
3.23916e-17
8.28917e-17
1.92691e-16
4.76959e-16
1.447e-15
4.51927e-15
1.33002e-12
1.19081e-11
5.10224e-11
4.58636e-07
0.000379667
0.00107812
0.00265547
0.00459205
0.00809948
6.19995e-24
5.02618e-20
1.37789e-19
4.75745e-19
1.46007e-18
4.79219e-18
1.35924e-17
3.44518e-17
9.06991e-17
2.11127e-16
5.20852e-16
2.00208e-15
2.49415e-14
4.15134e-11
6.58773e-10
9.37539e-09
1.87589e-05
0.000401773
0.00126731
0.0028382
0.0047362
0.00816218
6.15016e-24
4.34503e-20
1.23166e-19
4.40135e-19
1.40808e-18
4.72252e-18
1.35116e-17
3.4843e-17
9.1316e-17
2.23851e-16
5.7252e-16
5.44133e-15
6.08034e-13
2.25424e-09
8.42085e-08
4.98103e-06
0.000196596
0.000466698
0.00171952
0.00320904
0.00492378
0.00822577
6.11739e-24
5.57019e-20
1.46124e-19
4.99651e-19
1.55403e-18
4.95835e-18
1.46109e-17
3.75683e-17
1.02069e-16
2.50947e-16
6.45353e-16
6.14086e-14
2.58197e-11
7.42867e-08
1.04529e-05
0.000155775
0.000818894
0.000842909
0.00265371
0.00383896
0.00518636
0.00829204
6.07052e-24
4.43477e-20
1.2543e-19
4.56607e-19
1.50745e-18
4.95332e-18
1.47466e-17
3.8723e-17
1.04873e-16
2.75123e-16
7.48626e-16
1.68358e-12
1.08054e-09
4.439e-06
0.000193931
0.000637417
0.00179013
0.00162613
0.00438579
0.00480519
0.00553675
0.00836448
6.04137e-24
6.02577e-20
1.53427e-19
5.2588e-19
1.67262e-18
5.20561e-18
1.60241e-17
4.20318e-17
1.19288e-16
3.17369e-16
8.92076e-16
5.23552e-11
5.49099e-08
8.2803e-05
0.000751867
0.00184644
0.00408512
0.00332555
0.0073954
0.00621016
0.00598811
0.00844366
5.99594e-24
4.4627e-20
1.2773e-19
4.76917e-19
1.63359e-18
5.28061e-18
1.64012e-17
4.40621e-17
1.25493e-16
3.6463e-16
1.15861e-15
1.45793e-09
3.24233e-06
0.000357341
0.0017268
0.00435981
0.00888061
0.00683332
0.0121809
0.00810231
0.00652995
0.00853143
5.97035e-24
6.41469e-20
1.60443e-19
5.5378e-19
1.81485e-18
5.54155e-18
1.79073e-17
4.82185e-17
1.46696e-16
4.44724e-16
1.69454e-15
3.52402e-08
7.29238e-05
0.00116499
0.00449266
0.0100947
0.0182457
0.0133843
0.0189302
0.0104673
0.00715389
0.00862633
5.92636e-24
4.43235e-20
1.29664e-19
4.99286e-19
1.78309e-18
5.69154e-18
1.85313e-17
5.13803e-17
1.59843e-16
5.59151e-16
3.60134e-15
7.96981e-07
0.000357068
0.00317224
0.0104341
0.0208639
0.034049
0.0240389
0.0273332
0.013183
0.00782879
0.00872852
5.90401e-24
6.75132e-20
1.66647e-19
5.82591e-19
1.97788e-18
5.93972e-18
2.02677e-17
5.67784e-17
1.96044e-16
7.78699e-16
1.65168e-14
1.52191e-05
0.00121609
0.00784107
0.021466
0.0382362
0.0571475
0.038945
0.0365736
0.0160946
0.00853539
0.00883515
5.8603e-24
4.39571e-20
1.31991e-19
5.24778e-19
1.95768e-18
6.18513e-18
2.12008e-17
6.16747e-17
2.28155e-16
1.21626e-15
3.02156e-13
0.000139287
0.00318095
0.0167311
0.0390915
0.0627538
0.086694
0.0568199
0.0456417
0.0190044
0.00923794
0.00894576
5.84124e-24
7.05379e-20
1.73497e-19
6.15092e-19
2.17048e-18
6.43912e-18
2.33091e-17
6.93732e-17
3.08215e-16
2.30491e-15
1.26022e-11
0.000545982
0.00758664
0.0312324
0.0634369
0.0936322
0.119814
0.0751805
0.0536415
0.021774
0.00992219
0.00905718
5.79726e-24
4.35006e-20
1.34487e-19
5.53111e-19
2.16055e-18
6.77116e-18
2.46168e-17
7.72246e-17
4.08445e-16
5.44555e-15
5.4798e-10
0.00146182
0.0157468
0.0520361
0.0938918
0.12848
0.15206
0.0912267
0.0601099
0.0242804
0.0105613
0.00916919
5.78094e-24
7.32616e-20
1.80282e-19
6.49106e-19
2.38789e-18
7.01124e-18
2.7181e-17
8.90651e-17
6.61692e-16
1.69228e-14
4.40875e-08
0.0037238
0.0289693
0.0783201
0.128041
0.163736
0.178654
0.103031
0.0649894
0.02649
0.011155
0.00927899
5.73637e-24
4.30518e-20
1.36866e-19
5.8238e-19
2.38676e-18
7.43774e-18
2.90057e-17
1.0231e-16
1.08037e-15
7.52702e-14
8.57028e-06
0.00822377
0.0476022
0.108788
0.163242
0.195247
0.195976
0.110146
0.0685737
0.0283718
0.0116895
0.00938714
5.72335e-24
7.57277e-20
1.86797e-19
6.83156e-19
2.62916e-18
7.67266e-18
3.23025e-17
1.22239e-16
2.19365e-15
7.80178e-13
0.000170549
0.0162525
0.0709769
0.141019
0.195758
0.219526
0.202779
0.113528
0.0712398
0.0299613
0.0121778
0.00949146
5.67795e-24
4.2433e-20
1.38567e-19
6.10904e-19
2.63501e-18
8.19287e-18
3.4938e-17
1.46455e-16
4.33993e-15
1.34056e-11
0.000691273
0.0286564
0.0976289
0.172979
0.222917
0.234479
0.200406
0.114731
0.0733643
0.0312701
0.0126173
0.00959327
5.66762e-24
7.80212e-20
1.92465e-19
7.15463e-19
2.88977e-18
8.41794e-18
3.94314e-17
1.83572e-16
1.02752e-14
1.66098e-10
0.00190644
0.0455142
0.125747
0.202138
0.242304
0.240059
0.192029
0.115162
0.075186
0.0323589
0.0130321
0.00969106
5.62168e-24
4.19633e-20
1.39788e-19
6.37982e-19
2.90249e-18
9.03718e-18
4.3499e-17
2.31478e-16
2.24191e-14
1.55801e-09
0.00457451
0.0662158
0.153575
0.226949
0.253588
0.237871
0.181222
0.115612
0.0768623
0.0332575
0.0134294
0.00978684
5.61488e-24
8.02741e-20
1.97574e-19
7.45799e-19
3.1711e-18
9.26703e-18
5.02625e-17
3.06412e-16
5.64379e-14
1.37804e-08
0.00952638
0.0894173
0.179646
0.246011
0.257253
0.230596
0.17076
0.116332
0.0784448
0.0340417
0.0138418
0.00987966
5.56715e-24
4.17912e-20
1.4076e-19
6.6385e-19
3.19191e-18
9.99203e-18
5.71496e-17
4.08435e-16
1.30474e-13
3.18992e-07
0.0175038
0.113785
0.202853
0.259239
0.255267
0.220932
0.162093
0.117244
0.0799593
0.0347567
0.0142831
0.00997203
5.56286e-24
8.2483e-20
2.02094e-19
7.74002e-19
3.47281e-18
1.0232e-17
6.84581e-17
5.73331e-16
3.92524e-13
1.87629e-05
0.0286435
0.137914
0.222483
0.266844
0.24948
0.21103
0.155562
0.118183
0.0813859
0.035485
0.0147895
0.0100634
5.51399e-24
4.18589e-20
1.41219e-19
6.87505e-19
3.50141e-18
1.10684e-17
8.13251e-17
8.10343e-16
1.82984e-12
0.00021465
0.0427001
0.16085
0.238207
0.269961
0.241964
0.202138
0.150887
0.118996
0.0827116
0.0362693
0.0153736
0.0101564
5.51307e-24
8.4675e-20
2.05795e-19
7.99207e-19
3.79619e-18
1.1344e-17
1.0251e-16
1.20434e-15
1.28009e-11
0.00073594
0.0589197
0.181793
0.250051
0.269592
0.233975
0.194785
0.147596
0.119599
0.0839026
0.0371736
0.0160655
0.0102507
5.46194e-24
4.2034e-20
1.40964e-19
7.08398e-19
3.8335e-18
1.23042e-17
1.28822e-16
1.79564e-15
7.40877e-11
0.00153901
0.0766179
0.200322
0.258321
0.267029
0.226512
0.188983
0.145249
0.119953
0.0849397
0.0382099
0.0168652
0.0103488
5.46304e-24
8.68062e-20
2.08977e-19
8.21795e-19
4.14315e-18
1.26529e-17
1.72474e-16
2.80948e-15
3.5639e-10
0.00280364
0.0949874
0.216136
0.263514
0.263104
0.219889
0.18453
0.143519
0.120064
0.0857906
0.0394012
0.0177859
0.01045
5.41085e-24
4.22462e-20
1.39898e-19
7.26593e-19
4.19073e-18
1.3741e-17
2.30124e-16
4.38938e-15
1.38681e-09
0.00474608
0.11346
0.229217
0.266206
0.258644
0.214314
0.18114
0.142186
0.119953
0.0864385
0.040718
0.0188069
0.0105565
5.41507e-24
8.89181e-20
2.11413e-19
8.42379e-19
4.52262e-18
1.41931e-17
3.26394e-16
7.08336e-15
4.74636e-09
0.00766628
0.131438
0.239622
0.266984
0.25403
0.209663
0.178559
0.141119
0.119657
0.0868563
0.042147
0.0199203
0.010667
5.3594e-24
4.22787e-20
1.37808e-19
7.42863e-19
4.58481e-18
1.54531e-17
4.58239e-16
1.12952e-14
1.44519e-08
0.0118729
0.148593
0.247602
0.266376
0.249642
0.205879
0.176573
0.140244
0.119212
0.0870315
0.0436358
0.0210858
0.0107831
5.36556e-24
8.84577e-20
2.10339e-19
8.57235e-19
4.93658e-18
1.60478e-17
6.77974e-16
1.85067e-14
4.28077e-08
0.0176912
0.164633
0.253421
0.264835
0.245555
0.202763
0.175027
0.139523
0.118655
0.086943
0.0451639
0.0222824
0.0109032
5.30585e-24
4.1486e-20
1.32574e-19
7.51608e-19
5.01e-18
1.74621e-17
9.80443e-16
2.99171e-14
2.19849e-07
0.0255449
0.179541
0.257448
0.262717
0.241918
0.200237
0.173806
0.138946
0.118023
0.0865848
0.0466901
0.0234623
0.0110282
5.31239e-24
8.52637e-20
2.03826e-19
8.62068e-19
5.38108e-18
1.81866e-17
1.4747e-15
5.74577e-14
1.168e-05
0.0359877
0.193338
0.260006
0.260299
0.238684
0.198147
0.17284
0.138515
0.117352
0.0859446
0.0482213
0.0246065
0.0111563
5.24591e-24
4.1615e-20
1.27324e-19
7.57683e-19
5.48252e-18
1.98564e-17
2.14229e-15
4.65011e-13
0.000242522
0.0498741
0.206229
0.26146
0.257782
0.235926
0.196454
0.17208
0.138242
0.116676
0.0850272
0.0497543
0.0256775
0.0112883
5.24935e-24
5.37904e-20
1.54723e-19
7.99489e-19
5.76885e-18
2.0639e-17
3.20151e-15
2.31286e-11
0.00206403
0.0682463
0.218358
0.262098
0.255307
0.233577
0.19506
0.17151
0.138146
0.11603
0.0838357
0.0513359
0.0266784
0.011422
5.17251e-24
4.32806e-20
1.14472e-19
7.24259e-19
5.94017e-18
2.35439e-17
4.66247e-15
1.03287e-09
0.00902131
0.091803
0.229908
0.26222
0.252964
0.231709
0.193975
0.17112
0.138251
0.115443
0.0823947
0.0529909
0.0276007
0.0115584
5.16593e-24
1.93953e-21
1.12092e-20
4.0065e-19
5.44907e-18
2.44376e-17
7.20701e-15
1.84736e-07
0.0258415
0.120546
0.240874
0.26204
0.250799
0.230273
0.193139
0.170925
0.138582
0.114947
0.0807323
0.0547586
0.0284823
0.0116955
5.07775e-24
1.71166e-20
4.47729e-20
4.17372e-19
5.46205e-18
3.62055e-17
1.80049e-14
5.55919e-05
0.0566968
0.15397
0.251216
0.261788
0.248816
0.229371
0.192607
0.170944
0.139161
0.114556
0.078904
0.056582
0.0293371
0.0118345
5.03899e-24
6.72026e-22
8.45926e-23
2.35243e-19
5.06625e-18
8.28154e-17
3.70773e-13
0.00144346
0.104488
0.191158
0.260696
0.261617
0.246987
0.228958
0.19234
0.171217
0.140012
0.114281
0.0769721
0.0582884
0.0301653
0.011976
4.8382e-24
2.10325e-19
4.58135e-19
1.02952e-18
7.26037e-18
9.13528e-16
7.18211e-12
0.00958836
0.170456
0.231547
0.269477
0.26182
0.245281
0.229131
0.192393
0.171765
0.141132
0.114056
0.0750141
0.0594372
0.0306617
0.0121338
0.00987657
0.0332625
0.0360438
0.0135442
0.0100122
0.0097683
0.00983979
0.0102667
0.0102673
0.010904
0.0159545
0.0154707
0.0145096
0.0142833
0.0148208
0.0164975
0.0187723
0.0202472
0.0192382
0.015475
0.0128158
0.0119948
0.0118553
0.0120494
0.0125341
0.013164
0.013803
0.0144111
0.0149851
0.0157117
0.0155565
0.0138676
0.0482208
0.146524
0.179229
0.00986353
0.0338667
0.0350832
0.0132058
0.0099255
0.00966323
0.00993769
0.0103939
0.0103091
0.0109336
0.0156168
0.0150573
0.0141467
0.013925
0.0144389
0.0160946
0.0185112
0.0202501
0.0194409
0.0155453
0.0127049
0.0118197
0.0116461
0.0118077
0.0122699
0.0128959
0.0135526
0.0141876
0.0147835
0.0155219
0.0153641
0.0137826
0.0475639
0.146282
0.179136
0.00983842
0.0344273
0.033411
0.0126244
0.00990002
0.00956469
0.0101876
0.0106664
0.0104347
0.0110217
0.0144498
0.0137346
0.0131076
0.0128624
0.0129549
0.0139926
0.0159317
0.0176704
0.0176274
0.0146297
0.0122057
0.0113996
0.0112109
0.0113274
0.0117464
0.0123577
0.0130429
0.0137305
0.0143747
0.0151383
0.0149819
0.0136974
0.0467759
0.145738
0.178892
0.00979929
0.0349323
0.0312825
0.0120964
0.00998957
0.00956575
0.0105553
0.0109607
0.0106229
0.0111845
0.013185
0.0122819
0.0119274
0.011787
0.0115341
0.0118055
0.0128859
0.0142058
0.0147906
0.0130816
0.0113947
0.0107625
0.0105764
0.0106394
0.0109952
0.0115732
0.0122856
0.0130439
0.0137621
0.0145665
0.0144239
0.0135362
0.0457431
0.144882
0.178496
0.00974597
0.0352421
0.0288442
0.011598
0.0100823
0.00958258
0.0109051
0.0111655
0.0107709
0.0113124
0.0121041
0.0110445
0.0109678
0.0110499
0.0105795
0.010152
0.0103018
0.0109269
0.0117169
0.0111975
0.0103409
0.00994114
0.00977804
0.00978752
0.010065
0.0105855
0.0113089
0.0121435
0.0129573
0.0138195
0.0137101
0.0132399
0.0443826
0.143715
0.177962
0.00967615
0.035234
0.0262115
0.0110495
0.0100899
0.00953377
0.0111253
0.011214
0.0107926
0.0112884
0.0111821
0.0100347
0.0102238
0.0105554
0.00999091
0.00903954
0.00839875
0.00828873
0.00889615
0.0092017
0.00910576
0.00896961
0.00885484
0.00882112
0.00901377
0.00945285
0.0101574
0.0110568
0.0119798
0.0129158
0.0128651
0.0127676
0.0426433
0.142243
0.177316
0.00959042
0.0348244
0.0235057
0.0104252
0.00999254
0.00939581
0.0111702
0.0110901
0.0106533
0.0110561
0.0103192
0.00914157
0.00953679
0.0100646
0.00950682
0.00824276
0.00704689
0.00633699
0.00655611
0.00725263
0.00774482
0.00788159
0.00784486
0.00778863
0.00790168
0.00824235
0.00889119
0.0098252
0.0108575
0.0118796
0.0119169
0.0120984
0.0405077
0.140479
0.176587
0.00948687
0.0339534
0.0208505
0.00975619
0.00982041
0.00918934
0.0110511
0.0108163
0.0103634
0.0106226
0.00944979
0.00827805
0.00878408
0.0094208
0.0089361
0.00754825
0.00603731
0.00493727
0.0047522
0.00547155
0.00632018
0.00671293
0.0067838
0.00673359
0.00678407
0.00702183
0.00758038
0.00850372
0.00962732
0.0107399
0.0108948
0.0112335
0.0379939
0.13844
0.17581
0.00936733
0.0326108
0.0183516
0.0090987
0.00962232
0.00895448
0.0108108
0.0104339
0.00995795
0.0100343
0.0085656
0.00741586
0.00793346
0.00859967
0.00821907
0.00684339
0.00521269
0.00393207
0.00345451
0.00396981
0.0049185
0.00551023
0.0057078
0.00569425
0.00570803
0.00585282
0.00629853
0.00715976
0.0083368
0.00953129
0.00982921
0.0101968
0.0351544
0.136145
0.175022
0.0092307
0.0308055
0.0160881
0.00850887
0.00944662
0.0087341
0.0105041
0.00999183
0.00948303
0.0093535
0.00769189
0.00656699
0.00701266
0.00765235
0.00737881
0.00609535
0.00448488
0.00319851
0.00259185
0.00283791
0.00365878
0.0043417
0.0046594
0.00470645
0.00471228
0.00478592
0.00511415
0.00586803
0.00704384
0.00829448
0.00875081
0.00903375
0.032073
0.133623
0.174259
0.00908003
0.0285941
0.014109
0.0080314
0.00933365
0.0085664
0.0101852
0.00953787
0.00898456
0.00864229
0.00686536
0.00576072
0.0060722
0.00665047
0.00647054
0.00531497
0.00381674
0.00265305
0.00206851
0.00210422
0.00266565
0.00330062
0.00369363
0.00380792
0.00382961
0.00385967
0.00408364
0.00470246
0.00581477
0.0070766
0.00769032
0.00780827
0.0288574
0.13091
0.17356
0.00891508
0.0260472
0.0124421
0.0076977
0.00931594
0.00848279
0.00990391
0.00911619
0.00850555
0.00795544
0.0061206
0.00502809
0.00516491
0.00565346
0.00554792
0.00452956
0.00320152
0.00223947
0.00177642
0.00171097
0.00200829
0.00248366
0.00287602
0.00303973
0.00308868
0.00310094
0.00324666
0.00372626
0.0047185
0.00593041
0.00667868
0.00659594
0.0256299
0.128054
0.172958
0.00874002
0.023276
0.0110986
0.0075283
0.00942099
0.00850855
0.00970278
0.00876463
0.00808283
0.00733688
0.00548366
0.00439643
0.00433897
0.00470847
0.00465729
0.00377484
0.00265298
0.00192108
0.00161472
0.00154564
0.00165928
0.00194324
0.00226352
0.00243951
0.00251159
0.0025241
0.00262277
0.00298165
0.00381656
0.00491086
0.00574692
0.00547495
0.0225161
0.12512
0.172488
0.00855535
0.020398
0.0100811
0.0075363
0.00967467
0.00866513
0.00961774
0.00851447
0.00774756
0.00681956
0.00497253
0.00388474
0.00363321
0.00385536
0.00383692
0.00309155
0.00219494
0.00167634
0.00150914
0.00149431
0.00152433
0.00165624
0.00187435
0.00202577
0.00210627
0.00212745
0.00220872
0.00248163
0.00315026
0.00406766
0.00492524
0.00451449
0.0196348
0.122193
0.172178
0.00836592
0.017554
0.00938343
0.00773096
0.0101044
0.00897353
0.00967838
0.00839088
0.00752406
0.00642657
0.00459669
0.00350409
0.00307446
0.00313134
0.00312224
0.00252041
0.00184715
0.00149513
0.00142245
0.00147514
0.00150148
0.00154885
0.00167749
0.00178568
0.00185982
0.0018915
0.00197964
0.00220813
0.00272975
0.00343467
0.00424028
0.00376292
0.0170886
0.119383
0.172057
0.00817267
0.0148754
0.00899355
0.00812197
0.0107424
0.00946063
0.00991269
0.00841551
0.00743186
0.00617306
0.00436045
0.00325667
0.00267399
0.00256496
0.00254412
0.00208917
0.00161109
0.00137125
0.00134828
0.00145049
0.00151545
0.00154177
0.00161492
0.0016811
0.00174189
0.0017848
0.00189836
0.00212148
0.00253296
0.00302042
0.00371069
0.0032391
0.0149562
0.116823
0.172149
0.00798033
0.0124892
0.00890006
0.00872406
0.011629
0.010166
0.010352
0.00861036
0.00748755
0.00606886
0.0042643
0.00313932
0.00242902
0.00216867
0.00212085
0.00179973
0.00146766
0.00129549
0.00129359
0.00141947
0.00152965
0.00157624
0.00162949
0.00166646
0.00171613
0.00177423
0.001928
0.00217603
0.00251704
0.00280671
0.00334244
0.00293208
0.0132869
0.114669
0.172474
0.00778933
0.0104997
0.00910759
0.00956636
0.0128148
0.0111466
0.0110369
0.009004
0.00770945
0.00612304
0.00430961
0.00314476
0.00232634
0.00193448
0.00185005
0.00162815
0.00138705
0.00125354
0.00126239
0.00139606
0.00153988
0.00162173
0.00167969
0.00170294
0.00175064
0.00183283
0.00203942
0.0023311
0.00263336
0.00275745
0.00312738
0.00281103
0.0121023
0.113081
0.173052
0.00760307
0.00897061
0.00965116
0.0106916
0.0143653
0.0124797
0.0120216
0.00963615
0.00812114
0.00634776
0.00450102
0.00326714
0.00234936
0.00184009
0.00170886
0.00153759
0.00134067
0.00122987
0.00125082
0.00139115
0.00155661
0.00167067
0.001743
0.00176464
0.00182316
0.00194255
0.00221263
0.00255473
0.00283785
0.00283095
0.00304668
0.00283982
0.0114057
0.112215
0.173896
0.00742066
0.00790889
0.0106169
0.0121538
0.0163614
0.0142618
0.0133741
0.0105603
0.00875499
0.00676234
0.00485187
0.00350432
0.00248164
0.00185755
0.00166353
0.00149378
0.00130904
0.00121327
0.0012509
0.00140619
0.00158934
0.00172633
0.00181138
0.00183846
0.00192179
0.00209368
0.00243494
0.00282367
0.003096
0.00298945
0.00307711
0.00298845
0.0111968
0.112194
0.175018
0.00724378
0.00727206
0.0121362
0.0140256
0.018897
0.0166036
0.0151733
0.0118417
0.00965194
0.00739419
0.00538539
0.00386486
0.00271365
0.00196147
0.00168003
0.00147227
0.00128317
0.00119971
0.00125669
0.00143686
0.00164103
0.00179276
0.00188401
0.00192048
0.00204289
0.0022825
0.00269813
0.00312177
0.00338426
0.00320407
0.00319706
0.00323847
0.0114826
0.113092
0.176426
0.00707145
0.00700055
0.0143784
0.0164052
0.0220814
0.0196244
0.0175048
0.0135524
0.0108598
0.00827772
0.00613539
0.00436895
0.00304528
0.0021327
0.00173156
0.00146033
0.00126214
0.00119097
0.00126701
0.00147819
0.0017092
0.00187068
0.00196191
0.00201178
0.00218803
0.00250865
0.00299623
0.00343843
0.00368933
0.00345642
0.00339048
0.00358412
0.0122829
0.114924
0.178125
0.00690537
0.00703588
0.0175345
0.0194325
0.0260483
0.0234553
0.0204605
0.0157654
0.0124281
0.00944819
0.00713742
0.00504926
0.00349241
0.00236467
0.00180217
0.00145398
0.00124875
0.00119135
0.00128472
0.00152809
0.00178992
0.00195788
0.00204573
0.00211559
0.00236131
0.00277283
0.00332414
0.0037673
0.00400618
0.00373789
0.00364874
0.00403126
0.0136318
0.117647
0.180114
0.00674534
0.00733384
0.0217926
0.0233119
0.0309721
0.0282499
0.0241429
0.018551
0.0144024
0.0109335
0.00841643
0.00593775
0.00408256
0.00266742
0.00188931
0.00145603
0.00124729
0.00120534
0.0013141
0.0015867
0.00187969
0.00205113
0.00213584
0.00223597
0.00256755
0.00307527
0.0036771
0.00410555
0.00433605
0.0040479
0.00397105
0.00459586
0.0155769
0.121174
0.182391
0.00659312
0.00785992
0.0273057
0.0283321
0.0370767
0.0341869
0.0286626
0.0219694
0.0168148
0.0127423
0.0099686
0.0070499
0.00484146
0.00306748
0.00200336
0.00147283
0.00126231
0.00123719
0.00135953
0.00165537
0.0019763
0.00214774
0.00223307
0.0023775
0.00281124
0.003415
0.00405082
0.00445318
0.00468461
0.00439189
0.00436391
0.00530261
0.0181763
0.125393
0.184952
0.00644962
0.00858974
0.034163
0.0348633
0.0446187
0.0414403
0.0341145
0.0260523
0.0196683
0.0148509
0.0117489
0.00836219
0.00576522
0.00359054
0.00216571
0.00151388
0.00129913
0.00129131
0.00142513
0.00173482
0.0020776
0.00224602
0.00233939
0.00254518
0.0030959
0.00378968
0.0044419
0.00481258
0.00506062
0.00477981
0.00484035
0.00618392
0.0214934
0.130184
0.187789
0.00631698
0.00950209
0.0423698
0.043318
0.0538323
0.0501052
0.0405208
0.0307637
0.0229106
0.0171881
0.0136633
0.00980495
0.00680593
0.00423696
0.00239842
0.00158974
0.00136367
0.00137277
0.00151554
0.00182586
0.00218164
0.00234557
0.00245806
0.00274434
0.00342372
0.00419594
0.00484819
0.00518807
0.00547505
0.00522495
0.00541902
0.00727932
0.0255901
0.135433
0.190891
0.00619775
0.0105869
0.051888
0.0540883
0.0648486
0.0600981
0.0477572
0.0359558
0.0264088
0.0196245
0.0155729
0.0112627
0.00787132
0.00495522
0.0027069
0.00171048
0.00146285
0.00148736
0.00163586
0.00192952
0.00228621
0.0024471
0.00259363
0.00298039
0.00379536
0.00462993
0.00526913
0.00558548
0.0059406
0.00574335
0.00612366
0.00863497
0.0305191
0.141036
0.194249
0.00609509
0.0118459
0.0627152
0.0674785
0.0776089
0.0710716
0.0554916
0.0413362
0.0299336
0.0219715
0.0173038
0.012592
0.00884563
0.00565333
0.00306197
0.00187909
0.00160306
0.00164118
0.00179173
0.00204883
0.00239037
0.00255272
0.00275173
0.00325848
0.00420999
0.00508799
0.00570569
0.00601175
0.00647138
0.0063535
0.00698274
0.0103033
0.0363161
0.146906
0.197848
0.00601408
0.0133087
0.0749668
0.0836265
0.0917824
0.0823786
0.06317
0.0464709
0.0331693
0.023995
0.0186669
0.0136376
0.00960805
0.00622613
0.00340423
0.00208657
0.00178816
0.00183934
0.00198789
0.00218847
0.00249483
0.00266601
0.00293883
0.00358299
0.00466543
0.00556724
0.00616027
0.00647466
0.00708302
0.00707634
0.00802935
0.0123424
0.0429937
0.152974
0.201676
0.00596079
0.0150333
0.0888538
0.102348
0.106677
0.0930888
0.070055
0.0508231
0.0357456
0.0254418
0.0194785
0.014256
0.0100532
0.00658328
0.00366619
0.00231
0.00201578
0.0020837
0.00222697
0.00235523
0.00260352
0.00279242
0.00316191
0.00395721
0.00515862
0.00606594
0.00663636
0.00698251
0.00779258
0.00793539
0.00930133
0.0148151
0.0505372
0.159182
0.205719
0.00594609
0.0171186
0.104568
0.122887
0.121166
0.102066
0.0753214
0.0538304
0.0372941
0.0260765
0.0195859
0.0143295
0.0101014
0.00666078
0.00379717
0.00252152
0.00227633
0.00237026
0.00250655
0.00255531
0.00272323
0.00293916
0.00342814
0.00438281
0.00568603
0.00658363
0.00713813
0.00754403
0.00861895
0.00895705
0.0108416
0.017788
0.058904
0.16549
0.209963
0.00598322
0.0196883
0.122023
0.143685
0.133718
0.108131
0.0781964
0.0550029
0.0375131
0.0257239
0.0188933
0.013788
0.00971189
0.00643254
0.00377615
0.0026979
0.00255429
0.00268791
0.00281795
0.00279293
0.00286415
0.0031153
0.00374435
0.00485971
0.00624423
0.00712103
0.00767008
0.00816818
0.00958293
0.010171
0.0126985
0.0213298
0.0680262
0.17187
0.214397
0.00609167
0.0228945
0.140605
0.162431
0.142626
0.110305
0.0781312
0.054035
0.0362381
0.0243113
0.0173885
0.0126239
0.00889011
0.00591301
0.00361572
0.00282894
0.00283313
0.00301953
0.00314522
0.00306615
0.00303791
0.00333126
0.00411636
0.00538575
0.0068302
0.00767971
0.00823664
0.00886425
0.0107077
0.0116107
0.0149264
0.0255097
0.0778163
0.178306
0.21901
0.00628805
0.0268818
0.159027
0.17654
0.14643
0.108077
0.0749484
0.0508903
0.0334903
0.0219
0.0151655
0.0109144
0.0077005
0.00516463
0.00335735
0.00291743
0.00309886
0.00334582
0.00346896
0.00336677
0.00325659
0.00359827
0.00454824
0.00595677
0.00744155
0.00826173
0.00884194
0.00964177
0.012019
0.0133141
0.0175857
0.0303962
0.088175
0.184793
0.2238
0.00658505
0.0317897
0.17557
0.183938
0.144358
0.101572
0.0689107
0.045834
0.0294948
0.018695
0.0124368
0.00883681
0.00627464
0.00429478
0.00305974
0.00297665
0.0033425
0.00364872
0.00376964
0.00367975
0.0035292
0.00392693
0.00504137
0.00656654
0.00807637
0.00886914
0.00948963
0.0105108
0.0135462
0.0153239
0.0207441
0.0360556
0.0990012
0.191339
0.228766
0.00697682
0.0376684
0.188505
0.183692
0.136558
0.0915261
0.0606643
0.0393822
0.0246458
0.0150269
0.00952443
0.00667318
0.00481386
0.0034458
0.00278233
0.00302375
0.00355921
0.0039147
0.00403323
0.00398918
0.00385998
0.0043256
0.00559356
0.00720698
0.00873293
0.0095036
0.0101828
0.0114822
0.0153219
0.0176888
0.0244765
0.0425523
0.110201
0.197963
0.233919
0.00744499
0.0444221
0.196489
0.176119
0.123995
0.0790821
0.0510818
0.0321915
0.0194372
0.0113037
0.00681437
0.00476107
0.00355192
0.00275388
0.00256996
0.0030748
0.00374679
0.00413481
0.00425186
0.00428108
0.00424574
0.00479776
0.00619837
0.00786829
0.00940927
0.010166
0.0109241
0.0125679
0.0173838
0.0204644
0.0288657
0.0499492
0.121699
0.2047
0.239276
0.00795396
0.0515537
0.198599
0.162418
0.108105
0.0654908
0.0410635
0.0249251
0.0143737
0.00793976
0.004654
0.00336758
0.00266417
0.00229644
0.00244544
0.00313934
0.00390349
0.00430507
0.00442537
0.00454967
0.00467766
0.0053403
0.00684507
0.00853954
0.0101029
0.0108564
0.0117161
0.0137817
0.0197747
0.0237134
0.0340035
0.0583097
0.133441
0.211595
0.244866
0.00846726
0.0580741
0.194253
0.144149
0.0904021
0.0518649
0.0313822
0.0181516
0.00989605
0.00526775
0.0032125
0.00254974
0.00217659
0.00206721
0.00240832
0.00321816
0.00402652
0.00442393
0.00455751
0.00479548
0.00514307
0.00594243
0.00751952
0.00920947
0.0108104
0.0115737
0.0125613
0.0151396
0.022544
0.0275077
0.0399917
0.067701
0.145408
0.218707
0.250727
0.00894498
0.0624226
0.183096
0.122866
0.0722045
0.0390402
0.0226032
0.0122913
0.00632469
0.0034455
0.00241058
0.00216893
0.00198836
0.00200524
0.00243739
0.00330255
0.00411165
0.00449193
0.00465522
0.00502697
0.00563112
0.00658801
0.00820635
0.0098679
0.011528
0.0123162
0.0134624
0.0166606
0.0257487
0.0319286
0.0469423
0.0781972
0.157612
0.226105
0.256906
0.0093615
0.0629792
0.165102
0.100006
0.0545624
0.0275767
0.0150938
0.00761762
0.00382324
0.00239454
0.00202333
0.00202968
0.00195876
0.00202952
0.00249962
0.0033791
0.00415355
0.00450915
0.00472405
0.00525448
0.0061355
0.00725979
0.0088923
0.0105074
0.0122516
0.013081
0.0144225
0.0183673
0.0294546
0.0370684
0.0549791
0.0898835
0.170103
0.233867
0.263458
0.0096768
0.0583378
0.140628
0.0769342
0.0383475
0.0178579
0.00909103
0.00428007
0.00234531
0.00186085
0.00183855
0.00196875
0.00196196
0.00206909
0.00256683
0.00343592
0.00414736
0.00447633
0.00476891
0.0054901
0.00665844
0.00794653
0.00957049
0.0111255
0.0129774
0.0138649
0.0154441
0.0202852
0.0337373
0.0430307
0.0642378
0.102859
0.182965
0.242079
0.270441
0.00988074
0.0483298
0.110837
0.05491
0.0243029
0.0101452
0.00473742
0.0022645
0.00159829
0.00158171
0.00170675
0.00187516
0.00191136
0.00207641
0.00262117
0.00346161
0.00408595
0.00439129
0.00479082
0.00574115
0.00720864
0.00864726
0.0102441
0.0117266
0.0137037
0.0146637
0.016529
0.0224423
0.0386831
0.049931
0.074866
0.117242
0.196318
0.250826
0.277916
4.88227e-24
3.15118e-19
1.1404e-18
4.30423e-18
2.49442e-17
3.1468e-14
9.0177e-11
0.036083
0.232977
0.263017
0.275335
0.262296
0.244097
0.22973
0.192706
0.172481
0.142269
0.113784
0.0735654
0.0596394
0.0302864
0.0121394
4.99592e-24
7.39321e-20
8.34786e-20
6.23711e-18
6.22954e-17
2.45144e-13
9.21147e-10
0.0686225
0.275684
0.282092
0.278034
0.262461
0.243378
0.230376
0.193203
0.173191
0.143328
0.113652
0.0728665
0.0594143
0.0298602
0.0121873
5.1021e-24
2.7661e-19
8.77718e-19
8.89526e-18
1.22084e-16
9.26235e-13
9.29881e-09
0.107537
0.31388
0.297751
0.279778
0.262522
0.24282
0.23117
0.193931
0.174078
0.144608
0.113616
0.0725505
0.058812
0.0293328
0.012345
5.06181e-24
5.72572e-20
2.14767e-20
6.84911e-18
1.92183e-16
2.27598e-12
1.69502e-07
0.148609
0.346776
0.310393
0.281131
0.262625
0.242517
0.232175
0.19494
0.17512
0.146066
0.113686
0.0726062
0.0578651
0.0287385
0.0126015
5.16574e-24
2.21306e-19
6.32237e-19
7.2307e-18
2.88167e-16
3.60873e-12
6.55784e-06
0.185439
0.374222
0.320444
0.282498
0.262883
0.242554
0.233367
0.196198
0.176299
0.147653
0.113863
0.0730008
0.0566458
0.028123
0.0129481
5.11388e-24
4.59225e-20
1.20674e-20
4.61546e-18
4.09733e-16
4.87073e-12
1.86654e-05
0.211081
0.396344
0.328389
0.284208
0.263421
0.243003
0.23482
0.197759
0.177601
0.149317
0.114144
0.0736979
0.0552129
0.0274963
0.013402
5.22927e-24
1.78689e-19
4.73383e-19
4.63707e-18
5.80379e-16
5.06115e-12
3.45213e-05
0.222184
0.413469
0.334633
0.286448
0.264322
0.243924
0.236511
0.199589
0.179027
0.15101
0.114524
0.0746418
0.0536501
0.0268842
0.0139771
5.17008e-24
3.80396e-20
7.88066e-21
2.78e-18
7.72173e-16
4.37576e-12
2.58221e-05
0.21972
0.425871
0.339556
0.289363
0.26568
0.245357
0.23852
0.20175
0.180579
0.152692
0.114991
0.0757831
0.052014
0.0262845
0.0146909
5.29797e-24
1.46658e-19
3.69565e-19
2.8615e-18
9.85913e-16
2.88028e-12
2.74393e-05
0.207213
0.433792
0.343404
0.292983
0.267542
0.247332
0.240823
0.20421
0.182282
0.154335
0.115535
0.0770597
0.0503793
0.0257165
0.0155474
5.22342e-24
3.24407e-20
5.88755e-21
1.68685e-18
1.14779e-15
1.68874e-12
3.53165e-05
0.187999
0.437256
0.346364
0.297329
0.26997
0.249863
0.243492
0.207032
0.184158
0.155934
0.11614
0.0784258
0.0487878
0.0251711
0.0165501
5.35777e-24
1.21931e-19
2.97397e-19
1.84226e-18
1.2522e-15
8.52396e-13
4.0157e-05
0.164271
0.436158
0.348463
0.302321
0.27298
0.252958
0.246493
0.210184
0.186247
0.1575
0.116797
0.0798273
0.0472979
0.0246639
0.0176847
5.27106e-24
2.8427e-20
4.69185e-21
1.08052e-18
1.23869e-15
4.16418e-13
4.11119e-05
0.13805
0.430142
0.349653
0.307887
0.276609
0.256612
0.249884
0.213726
0.188583
0.159065
0.117495
0.0812337
0.0459337
0.0241818