/*--------------------------------*- C++ -*----------------------------------*\
| =========                 |                                                 |
| \\      /  F ield         | OpenFOAM: The Open Source CFD Toolbox           |
|  \\    /   O peration     | Version:  v1912                                 |
|   \\  /    A nd           | Website:  www.openfoam.com                      |
|    \\/     M anipulation  |                                                 |
\*---------------------------------------------------------------------------*/
FoamFile
{
    version     2.0;
    format      ascii;
    class       surfaceScalarField;
    location    "470";
    object      phi;
}
// * * * * * * * * * * * * * * * * * * * * * * * * * * * * * * * * * * * * * //

dimensions      [0 3 -1 0 0 0 0];
oriented        oriented;


internalField   nonuniform List<scalar> 
24588
(
6.81683e-05
1.98798e-08
6.81142e-05
5.46248e-08
6.8029e-05
8.47141e-08
6.79131e-05
1.158e-07
6.77625e-05
1.50272e-07
6.75725e-05
1.89946e-07
6.73377e-05
2.34856e-07
6.70421e-05
2.95519e-07
6.66762e-05
3.66382e-07
6.62214e-05
4.55741e-07
6.56603e-05
5.60975e-07
6.49659e-05
7.11923e-07
6.40391e-05
8.54489e-07
6.2943e-05
1.16626e-06
6.15119e-05
1.44919e-06
5.91677e-05
2.31181e-06
5.62482e-05
2.92059e-06
5.14233e-05
4.8247e-06
4.47011e-05
6.72232e-06
3.34948e-05
1.12062e-05
1.98762e-05
1.36185e-05
1.98763e-05
6.81686e-05
4.02365e-08
6.81141e-05
1.09817e-07
6.8029e-05
1.69221e-07
6.79132e-05
2.31379e-07
6.77627e-05
3.00396e-07
6.75727e-05
3.7988e-07
6.7338e-05
4.69649e-07
6.70424e-05
5.91067e-07
6.66768e-05
7.32546e-07
6.62223e-05
9.11377e-07
6.56589e-05
1.12426e-06
6.49734e-05
1.4171e-06
6.40234e-05
1.72389e-06
6.29368e-05
2.32131e-06
6.15113e-05
2.89385e-06
5.92279e-05
4.56402e-06
5.62606e-05
5.88967e-06
5.13931e-05
9.692e-06
4.47483e-05
1.33673e-05
3.33983e-05
2.25561e-05
1.98397e-05
2.71771e-05
3.9716e-05
6.81686e-05
6.05906e-08
6.81141e-05
1.64999e-07
6.8029e-05
2.53758e-07
6.79132e-05
3.46992e-07
6.77626e-05
4.50543e-07
6.75726e-05
5.69791e-07
6.73379e-05
7.04435e-07
6.70424e-05
8.86585e-07
6.66768e-05
1.09871e-06
6.62223e-05
1.36695e-06
6.56594e-05
1.68705e-06
6.49723e-05
2.12477e-06
6.4028e-05
2.58449e-06
6.29427e-05
3.4889e-06
6.15096e-05
4.34687e-06
5.9262e-05
6.77512e-06
5.62568e-05
8.89694e-06
5.14132e-05
1.45352e-05
4.4725e-05
2.00559e-05
3.34199e-05
3.38609e-05
1.98601e-05
4.07368e-05
5.95762e-05
6.81686e-05
8.095e-08
6.81141e-05
2.20157e-07
6.8029e-05
3.38254e-07
6.79132e-05
4.62574e-07
6.77627e-05
6.00656e-07
6.75727e-05
7.59727e-07
6.7338e-05
9.3926e-07
6.70424e-05
1.18215e-06
6.66767e-05
1.46494e-06
6.62221e-05
1.82262e-06
6.56588e-05
2.25025e-06
6.49724e-05
2.83087e-06
6.40229e-05
3.45426e-06
6.2935e-05
4.64234e-06
6.15028e-05
5.79729e-06
5.92798e-05
8.96884e-06
5.62793e-05
1.18995e-05
5.14275e-05
1.93867e-05
4.47149e-05
2.6769e-05
3.34492e-05
4.51264e-05
1.98942e-05
5.42918e-05
7.94704e-05
6.81686e-05
1.01302e-07
6.81141e-05
2.75295e-07
6.8029e-05
4.22784e-07
6.79132e-05
5.782e-07
6.77626e-05
7.50797e-07
6.75727e-05
9.49628e-07
6.73379e-05
1.17406e-06
6.70424e-05
1.47769e-06
6.66767e-05
1.83117e-06
6.62221e-05
2.27821e-06
6.56592e-05
2.81309e-06
6.49711e-05
3.5393e-06
6.40281e-05
4.31361e-06
6.29415e-05
5.81174e-06
6.15013e-05
7.2572e-06
5.92892e-05
1.11443e-05
5.63045e-05
1.48862e-05
5.14295e-05
2.42612e-05
4.4733e-05
3.3466e-05
3.34953e-05
5.63638e-05
1.99428e-05
6.78442e-05
9.94133e-05
6.81686e-05
1.21663e-07
6.81141e-05
3.30416e-07
6.8029e-05
5.07258e-07
6.79133e-05
6.93778e-07
6.77627e-05
9.00887e-07
6.75727e-05
1.13956e-06
6.7338e-05
1.4089e-06
6.70424e-05
1.77328e-06
6.66767e-05
2.19744e-06
6.6222e-05
2.73389e-06
6.56588e-05
3.37621e-06
6.49723e-05
4.24533e-06
6.40229e-05
5.18543e-06
6.29336e-05
6.96238e-06
6.14964e-05
8.71127e-06
5.92883e-05
1.33245e-05
5.63193e-05
1.78572e-05
5.14403e-05
2.91399e-05
4.47641e-05
4.01426e-05
3.35613e-05
6.75664e-05
2.00083e-05
8.13971e-05
0.000119422
6.81686e-05
1.42014e-07
6.81141e-05
3.85513e-07
6.8029e-05
5.91773e-07
6.79132e-05
8.09413e-07
6.77627e-05
1.05101e-06
6.75727e-05
1.32944e-06
6.7338e-05
1.6437e-06
6.70424e-05
2.06883e-06
6.66767e-05
2.56372e-06
6.62221e-05
3.18947e-06
6.5659e-05
3.93919e-06
6.49703e-05
4.9538e-06
6.40292e-05
6.0436e-06
6.29416e-05
8.13474e-06
6.14948e-05
1.01762e-05
5.92832e-05
1.55008e-05
5.63346e-05
2.08075e-05
5.14621e-05
3.4012e-05
4.48125e-05
4.67926e-05
3.36548e-05
7.87239e-05
2.00936e-05
9.49582e-05
0.000139515
6.81686e-05
1.62377e-07
6.81141e-05
4.40599e-07
6.8029e-05
6.76226e-07
6.79133e-05
9.24982e-07
6.77627e-05
1.20106e-06
6.75728e-05
1.51936e-06
6.7338e-05
1.87855e-06
6.70424e-05
2.36443e-06
6.66767e-05
2.93001e-06
6.62221e-05
3.64512e-06
6.5659e-05
4.50212e-06
6.4973e-05
5.65913e-06
6.40237e-05
6.91892e-06
6.29316e-05
9.28362e-06
6.1481e-05
1.16406e-05
5.92687e-05
1.76875e-05
5.63519e-05
2.3726e-05
5.15111e-05
3.88526e-05
4.48957e-05
5.34083e-05
3.37879e-05
8.98316e-05
2.02028e-05
0.000108543
0.000159718
6.81686e-05
1.82728e-07
6.81141e-05
4.95657e-07
6.8029e-05
7.60728e-07
6.79133e-05
1.04062e-06
6.77627e-05
1.35116e-06
6.75728e-05
1.70922e-06
6.7338e-05
2.11334e-06
6.70424e-05
2.65998e-06
6.66767e-05
3.29631e-06
6.62221e-05
4.10068e-06
6.56589e-05
5.06521e-06
6.49694e-05
6.3676e-06
6.40281e-05
7.77769e-06
6.29383e-05
1.04577e-05
6.14598e-05
1.31341e-05
5.92724e-05
1.98505e-05
5.63622e-05
2.66368e-05
5.16199e-05
4.35946e-05
4.50369e-05
5.99916e-05
3.39731e-05
0.000100895
2.03405e-05
0.000122176
0.000180059
6.81686e-05
2.03092e-07
6.81141e-05
5.5071e-07
6.80291e-05
8.45165e-07
6.79133e-05
1.15618e-06
6.77628e-05
1.50119e-06
6.75728e-05
1.89912e-06
6.73381e-05
2.34819e-06
6.70425e-05
2.95557e-06
6.66769e-05
3.66256e-06
6.62223e-05
4.55621e-06
6.56596e-05
5.62772e-06
6.49752e-05
7.07102e-06
6.40215e-05
8.66416e-06
6.29187e-05
1.16124e-05
6.14264e-05
1.46315e-05
5.92983e-05
2.19654e-05
5.63786e-05
2.95574e-05
5.17914e-05
4.81819e-05
4.52403e-05
6.65428e-05
3.42151e-05
0.00011192
2.05103e-05
0.00013588
0.000200569
6.81686e-05
2.2344e-07
6.81141e-05
6.05732e-07
6.80291e-05
9.29661e-07
6.79133e-05
1.27182e-06
6.77627e-05
1.65126e-06
6.75728e-05
2.08896e-06
6.73381e-05
2.58296e-06
6.70425e-05
3.2511e-06
6.66769e-05
4.02881e-06
6.62222e-05
5.0118e-06
6.56589e-05
6.19093e-06
6.49678e-05
7.77987e-06
6.40108e-05
9.54373e-06
6.2906e-05
1.27865e-05
6.14021e-05
1.6143e-05
5.93333e-05
2.40249e-05
5.64183e-05
3.24724e-05
5.19945e-05
5.26054e-05
4.54809e-05
7.30565e-05
3.45058e-05
0.000122895
2.07135e-05
0.000149673
0.000221283
6.81686e-05
2.43803e-07
6.81141e-05
6.60751e-07
6.80291e-05
1.01409e-06
6.79133e-05
1.38736e-06
6.77628e-05
1.80126e-06
6.75729e-05
2.27884e-06
6.73382e-05
2.8178e-06
6.70426e-05
3.54666e-06
6.66771e-05
4.39496e-06
6.62226e-05
5.46726e-06
6.56598e-05
6.75353e-06
6.49729e-05
8.48419e-06
6.40008e-05
1.04616e-05
6.28937e-05
1.3925e-05
6.13888e-05
1.76466e-05
5.93649e-05
2.60452e-05
5.6469e-05
3.53688e-05
5.21825e-05
5.6892e-05
4.57241e-05
7.9515e-05
3.48284e-05
0.000133791
2.09489e-05
0.000163552
0.000242232
6.81686e-05
2.64148e-07
6.81141e-05
7.15738e-07
6.80291e-05
1.09859e-06
6.79133e-05
1.503e-06
6.77628e-05
1.95131e-06
6.75729e-05
2.46865e-06
6.73382e-05
3.05254e-06
6.70427e-05
3.84216e-06
6.66772e-05
4.761e-06
6.62228e-05
5.92262e-06
6.56588e-05
7.31736e-06
6.49645e-05
9.194e-06
6.39924e-05
1.13763e-05
6.28944e-05
1.50536e-05
6.1385e-05
1.91606e-05
5.93887e-05
2.80387e-05
5.65157e-05
3.82416e-05
5.23319e-05
6.10756e-05
4.59489e-05
8.5898e-05
3.51657e-05
0.000144574
2.12131e-05
0.000177505
0.000263445
6.81686e-05
2.84508e-07
6.81141e-05
7.70724e-07
6.80291e-05
1.18301e-06
6.79134e-05
1.61853e-06
6.77629e-05
2.10127e-06
6.75729e-05
2.65851e-06
6.73383e-05
3.28735e-06
6.70427e-05
4.1377e-06
6.66774e-05
5.12692e-06
6.62232e-05
6.37774e-06
6.56579e-05
7.88256e-06
6.49592e-05
9.90619e-06
6.40051e-05
1.23044e-05
6.28951e-05
1.61704e-05
6.13843e-05
2.06689e-05
5.94045e-05
3.00179e-05
5.65523e-05
4.10941e-05
5.24441e-05
6.51838e-05
4.61485e-05
9.21937e-05
3.55054e-05
0.000155217
2.15013e-05
0.000191509
0.000284946
6.81686e-05
3.04847e-07
6.81142e-05
8.25674e-07
6.80291e-05
1.26752e-06
6.79133e-05
1.73417e-06
6.77628e-05
2.2513e-06
6.75729e-05
2.84829e-06
6.73383e-05
3.52206e-06
6.70428e-05
4.43319e-06
6.66776e-05
5.4927e-06
6.62233e-05
6.83294e-06
6.56541e-05
8.45164e-06
6.49438e-05
1.06274e-05
6.40154e-05
1.32101e-05
6.28948e-05
1.73027e-05
6.13848e-05
2.21819e-05
5.94144e-05
3.19871e-05
5.6579e-05
4.39293e-05
5.25287e-05
6.9234e-05
4.63234e-05
9.83991e-05
3.58399e-05
0.000165701
2.18091e-05
0.000205539
0.000306755
6.81686e-05
3.25205e-07
6.81142e-05
8.80627e-07
6.80291e-05
1.35195e-06
6.79134e-05
1.84969e-06
6.77629e-05
2.40123e-06
6.7573e-05
3.03813e-06
6.73384e-05
3.75684e-06
6.70428e-05
4.72877e-06
6.66776e-05
5.85847e-06
6.62229e-05
7.28858e-06
6.56464e-05
9.02796e-06
6.49349e-05
1.13467e-05
6.40212e-05
1.41188e-05
6.28937e-05
1.84296e-05
6.13854e-05
2.36879e-05
5.94206e-05
3.39519e-05
5.6598e-05
4.67521e-05
5.25942e-05
7.3238e-05
4.6477e-05
0.000104516
3.61656e-05
0.000176012
2.21324e-05
0.000219572
0.000328888
6.81686e-05
3.45537e-07
6.81142e-05
9.35541e-07
6.80291e-05
1.43647e-06
6.79133e-05
1.96533e-06
6.77629e-05
2.55124e-06
6.7573e-05
3.22787e-06
6.73384e-05
3.99152e-06
6.70428e-05
5.02429e-06
6.66777e-05
6.22422e-06
6.62227e-05
7.74446e-06
6.56345e-05
9.61607e-06
6.493e-05
1.20557e-05
6.40223e-05
1.50177e-05
6.28929e-05
1.95647e-05
6.1386e-05
2.51973e-05
5.94243e-05
3.59129e-05
5.66115e-05
4.95647e-05
5.2647e-05
7.72024e-05
4.66134e-05
0.00011055
3.64811e-05
0.000186144
2.2468e-05
0.000233585
0.000351356
6.81686e-05
3.65889e-07
6.81142e-05
9.9046e-07
6.80291e-05
1.52091e-06
6.79134e-05
2.08083e-06
6.7763e-05
2.70114e-06
6.75731e-05
3.41767e-06
6.73385e-05
4.22628e-06
6.70429e-05
5.31987e-06
6.66776e-05
6.59012e-06
6.62228e-05
8.20018e-06
6.56234e-05
1.02152e-05
6.49274e-05
1.2754e-05
6.40222e-05
1.59232e-05
6.28924e-05
2.06923e-05
6.13866e-05
2.67011e-05
5.94265e-05
3.78732e-05
5.66213e-05
5.23701e-05
5.26918e-05
8.11319e-05
4.67364e-05
0.000116505
3.67869e-05
0.000196094
2.28138e-05
0.000247559
0.00037417
6.81686e-05
3.86213e-07
6.81142e-05
1.04534e-06
6.80291e-05
1.60545e-06
6.79134e-05
2.19647e-06
6.77629e-05
2.85113e-06
6.75731e-05
3.60736e-06
6.73385e-05
4.46092e-06
6.7043e-05
5.61531e-06
6.66777e-05
6.95604e-06
6.62225e-05
8.65621e-06
6.5617e-05
1.08207e-05
6.49251e-05
1.34469e-05
6.40219e-05
1.6822e-05
6.28921e-05
2.18262e-05
6.13873e-05
2.8208e-05
5.94278e-05
3.98321e-05
5.66287e-05
5.51691e-05
5.27316e-05
8.5029e-05
4.68497e-05
0.000122387
3.70842e-05
0.000205859
2.31681e-05
0.000261475
0.000397338
6.81685e-05
4.06559e-07
6.81142e-05
1.10022e-06
6.80291e-05
1.68989e-06
6.79134e-05
2.31195e-06
6.7763e-05
3.001e-06
6.75732e-05
3.79712e-06
6.73386e-05
4.69564e-06
6.70432e-05
5.9108e-06
6.66778e-05
7.32197e-06
6.62187e-05
9.11612e-06
6.56165e-05
1.14228e-05
6.49232e-05
1.41408e-05
6.40217e-05
1.7725e-05
6.2892e-05
2.29535e-05
6.1388e-05
2.97102e-05
5.94288e-05
4.17915e-05
5.66351e-05
5.7963e-05
5.27691e-05
8.8895e-05
4.69562e-05
0.0001282
3.73748e-05
0.000215441
2.35305e-05
0.000275319
0.000420868
6.81686e-05
4.26875e-07
6.81142e-05
1.15506e-06
6.80291e-05
1.77445e-06
6.79134e-05
2.42758e-06
6.7763e-05
3.15097e-06
6.75732e-05
3.98677e-06
6.73387e-05
4.93019e-06
6.70433e-05
6.2062e-06
6.66782e-05
7.68758e-06
6.62099e-05
9.58518e-06
6.5621e-05
1.20118e-05
6.49219e-05
1.48402e-05
6.40218e-05
1.86221e-05
6.28922e-05
2.40863e-05
6.1389e-05
3.12152e-05
5.94299e-05
4.37502e-05
5.66413e-05
6.07514e-05
5.28059e-05
9.27303e-05
4.70586e-05
0.000133948
3.76607e-05
0.000224839
2.39006e-05
0.000289079
0.000444769
6.81685e-05
4.47215e-07
6.81142e-05
1.20991e-06
6.80292e-05
1.85891e-06
6.79135e-05
2.54305e-06
6.77631e-05
3.3008e-06
6.75733e-05
4.1765e-06
6.73389e-05
5.16479e-06
6.70433e-05
6.50174e-06
6.66788e-05
8.0527e-06
6.61998e-05
1.00649e-05
6.56262e-05
1.25854e-05
6.49211e-05
1.55455e-05
6.4022e-05
1.95229e-05
6.28926e-05
2.52133e-05
6.13903e-05
3.27159e-05
5.94315e-05
4.57092e-05
5.66482e-05
6.35348e-05
5.28434e-05
9.65351e-05
4.71589e-05
0.000139632
3.79442e-05
0.000234053
2.42789e-05
0.000302744
0.000469048
6.81686e-05
4.67522e-07
6.81142e-05
1.26472e-06
6.80292e-05
1.94348e-06
6.79134e-05
2.65867e-06
6.7763e-05
3.45074e-06
6.75733e-05
4.3661e-06
6.73389e-05
5.3992e-06
6.70434e-05
6.79726e-06
6.66794e-05
8.41724e-06
6.61924e-05
1.05526e-05
6.56292e-05
1.31487e-05
6.49206e-05
1.62541e-05
6.40223e-05
2.04187e-05
6.28932e-05
2.63454e-05
6.1392e-05
3.42187e-05
5.9434e-05
4.76669e-05
5.66564e-05
6.63123e-05
5.28824e-05
0.000100309
4.72586e-05
0.000145256
3.82277e-05
0.000243084
2.4666e-05
0.000316306
0.000493714
6.81685e-05
4.87854e-07
6.81142e-05
1.31954e-06
6.80292e-05
2.02795e-06
6.79135e-05
2.77411e-06
6.77632e-05
3.60053e-06
6.75734e-05
4.55579e-06
6.73391e-05
5.63367e-06
6.70435e-05
7.09287e-06
6.66799e-05
8.78146e-06
6.61882e-05
1.10449e-05
6.56304e-05
1.37066e-05
6.49205e-05
1.69641e-05
6.40228e-05
2.13181e-05
6.2894e-05
2.74719e-05
6.13942e-05
3.5717e-05
5.94378e-05
4.96235e-05
5.66663e-05
6.90839e-05
5.29234e-05
0.000104052
4.7359e-05
0.00015082
3.85135e-05
0.00025193
2.5063e-05
0.000329757
0.000518777
6.81686e-05
5.08151e-07
6.81142e-05
1.3743e-06
6.80292e-05
2.11254e-06
6.79134e-05
2.88973e-06
6.77631e-05
3.75045e-06
6.75734e-05
4.74535e-06
6.73392e-05
5.86797e-06
6.70437e-05
7.38829e-06
6.66801e-05
9.14562e-06
6.6186e-05
1.15397e-05
6.56307e-05
1.42618e-05
6.49206e-05
1.76743e-05
6.40235e-05
2.2213e-05
6.28952e-05
2.86029e-05
6.13971e-05
3.72167e-05
5.94431e-05
5.15772e-05
5.66785e-05
7.18484e-05
5.29665e-05
0.000107764
4.74609e-05
0.000156326
3.88039e-05
0.000260587
2.54711e-05
0.000343089
0.000544248
6.81685e-05
5.28475e-07
6.81142e-05
1.42909e-06
6.80292e-05
2.19702e-06
6.79136e-05
3.00515e-06
6.77632e-05
3.90021e-06
6.75736e-05
4.93497e-06
6.73393e-05
6.10239e-06
6.7044e-05
7.68361e-06
6.66788e-05
9.51134e-06
6.61855e-05
1.20336e-05
6.56309e-05
1.48165e-05
6.49208e-05
1.83845e-05
6.40243e-05
2.31112e-05
6.28967e-05
2.97283e-05
6.14007e-05
3.87111e-05
5.94501e-05
5.3528e-05
5.66929e-05
7.46058e-05
5.30118e-05
0.000111445
4.7565e-05
0.000161773
3.91011e-05
0.000269051
2.58918e-05
0.000356299
0.00057014
6.81686e-05
5.48763e-07
6.81142e-05
1.48382e-06
6.80292e-05
2.28163e-06
6.79135e-05
3.12075e-06
6.77631e-05
4.05011e-06
6.75736e-05
5.12444e-06
6.73393e-05
6.33668e-06
6.70444e-05
7.97851e-06
6.66734e-05
9.88283e-06
6.61884e-05
1.2519e-05
6.5631e-05
1.5374e-05
6.49211e-05
1.90943e-05
6.40252e-05
2.40052e-05
6.28985e-05
3.08575e-05
6.14052e-05
4.0206e-05
5.9459e-05
5.54739e-05
5.67098e-05
7.73548e-05
5.30594e-05
0.000115095
4.76716e-05
0.000167161
3.94072e-05
0.000277315
2.63267e-05
0.000369379
0.000596467
6.81685e-05
5.6908e-07
6.81142e-05
1.53856e-06
6.80292e-05
2.36612e-06
6.79136e-05
3.23614e-06
6.77633e-05
4.19984e-06
6.75737e-05
5.31396e-06
6.73394e-05
6.57116e-06
6.70449e-05
8.273e-06
6.66655e-05
1.02627e-05
6.61933e-05
1.29915e-05
6.56312e-05
1.5936e-05
6.49216e-05
1.9804e-05
6.40262e-05
2.49021e-05
6.29007e-05
3.19808e-05
6.14105e-05
4.16947e-05
5.94695e-05
5.74149e-05
5.67292e-05
8.00952e-05
5.31092e-05
0.000118716
4.77809e-05
0.000172489
3.9724e-05
0.000285372
2.67772e-05
0.000382326
0.000623244
6.81686e-05
5.89358e-07
6.81142e-05
1.59326e-06
6.80292e-05
2.45075e-06
6.79135e-05
3.35173e-06
6.77632e-05
4.34973e-06
6.75738e-05
5.50331e-06
6.73394e-05
6.80551e-06
6.70455e-05
8.56691e-06
6.66592e-05
1.06495e-05
6.61969e-05
1.34539e-05
6.56315e-05
1.65014e-05
6.49221e-05
2.05134e-05
6.40274e-05
2.5795e-05
6.29033e-05
3.31075e-05
6.14165e-05
4.31831e-05
5.94817e-05
5.93494e-05
5.67511e-05
8.28258e-05
5.31612e-05
0.000122305
4.7893e-05
0.000177757
4.00529e-05
0.000293212
2.72449e-05
0.000395134
0.000650489
6.81685e-05
6.09666e-07
6.81142e-05
1.64797e-06
6.80293e-05
2.53525e-06
6.79137e-05
3.46709e-06
6.77634e-05
4.49942e-06
6.75739e-05
5.69272e-06
6.73395e-05
7.04004e-06
6.7046e-05
8.86051e-06
6.66551e-05
1.10409e-05
6.61993e-05
1.39098e-05
6.5632e-05
1.70687e-05
6.49228e-05
2.12227e-05
6.40287e-05
2.66906e-05
6.29062e-05
3.42278e-05
6.14234e-05
4.46644e-05
5.94955e-05
6.12774e-05
5.67755e-05
8.55459e-05
5.32155e-05
0.000125866
4.80076e-05
0.000182965
4.03946e-05
0.000300825
2.77308e-05
0.000407798
0.00067822
6.81686e-05
6.29935e-07
6.81142e-05
1.70263e-06
6.80292e-05
2.61989e-06
6.79136e-05
3.58265e-06
6.77633e-05
4.64929e-06
6.75739e-05
5.88196e-06
6.73396e-05
7.27437e-06
6.70463e-05
9.15376e-06
6.66525e-05
1.14352e-05
6.62009e-05
1.43615e-05
6.56325e-05
1.76372e-05
6.49235e-05
2.19316e-05
6.40302e-05
2.75822e-05
6.29095e-05
3.5351e-05
6.14309e-05
4.61446e-05
5.95107e-05
6.31973e-05
5.68024e-05
8.82541e-05
5.32721e-05
0.000129396
4.81248e-05
0.000188112
4.07497e-05
0.0003082
2.82361e-05
0.000420311
0.000706456
6.81685e-05
6.50235e-07
6.81142e-05
1.75731e-06
6.80293e-05
2.70439e-06
6.79137e-05
3.69798e-06
6.77635e-05
4.79894e-06
6.75741e-05
6.0713e-06
6.73398e-05
7.5088e-06
6.70466e-05
9.44697e-06
6.66511e-05
1.18311e-05
6.62023e-05
1.48104e-05
6.5633e-05
1.82064e-05
6.49243e-05
2.26405e-05
6.40317e-05
2.84762e-05
6.29131e-05
3.64675e-05
6.14391e-05
4.7617e-05
5.95272e-05
6.51094e-05
5.68317e-05
9.09497e-05
5.33313e-05
0.000132896
4.82443e-05
0.000193199
4.11181e-05
0.000315326
2.87612e-05
0.000432668
0.000735217
6.81685e-05
6.70495e-07
6.81143e-05
1.81194e-06
6.80293e-05
2.78904e-06
6.79136e-05
3.81353e-06
6.77634e-05
4.94877e-06
6.75741e-05
6.26048e-06
6.734e-05
7.74293e-06
6.70468e-05
9.74008e-06
6.66504e-05
1.22279e-05
6.62035e-05
1.52573e-05
6.56337e-05
1.87763e-05
6.49251e-05
2.33491e-05
6.40335e-05
2.93661e-05
6.2917e-05
3.75865e-05
6.14479e-05
4.90877e-05
5.95451e-05
6.7012e-05
5.68636e-05
9.36311e-05
5.33931e-05
0.000136367
4.83661e-05
0.000198226
4.14994e-05
0.000322193
2.93065e-05
0.000444861
0.000764523
6.81685e-05
6.90788e-07
6.81143e-05
1.86659e-06
6.80293e-05
2.87355e-06
6.79138e-05
3.92883e-06
6.77636e-05
5.09836e-06
6.75743e-05
6.44976e-06
6.73402e-05
7.97711e-06
6.70469e-05
1.00334e-05
6.66501e-05
1.26251e-05
6.62047e-05
1.57028e-05
6.56344e-05
1.93466e-05
6.4926e-05
2.40575e-05
6.40353e-05
3.02583e-05
6.29212e-05
3.86983e-05
6.14573e-05
5.05501e-05
5.95641e-05
6.89053e-05
5.6898e-05
9.62973e-05
5.34576e-05
0.000139807
4.84904e-05
0.000203194
4.18933e-05
0.00032879
2.98723e-05
0.000456882
0.000794396
6.81685e-05
7.11038e-07
6.81143e-05
1.92118e-06
6.80293e-05
2.95821e-06
6.79137e-05
4.04436e-06
6.77635e-05
5.24814e-06
6.75742e-05
6.63891e-06
6.73404e-05
8.21089e-06
6.7047e-05
1.03268e-05
6.66501e-05
1.30224e-05
6.62058e-05
1.6147e-05
6.56351e-05
1.99173e-05
6.4927e-05
2.47656e-05
6.40372e-05
3.11463e-05
6.29256e-05
3.98127e-05
6.14671e-05
5.20103e-05
5.95843e-05
7.07878e-05
5.69348e-05
9.89467e-05
5.35252e-05
0.000143217
4.86173e-05
0.000208101
4.22995e-05
0.000335108
3.04586e-05
0.000468723
0.000824854
6.81685e-05
7.31324e-07
6.81143e-05
1.97579e-06
6.80294e-05
3.04272e-06
6.79138e-05
4.15962e-06
6.77637e-05
5.39766e-06
6.75744e-05
6.82818e-06
6.73408e-05
8.44465e-06
6.70467e-05
1.0621e-05
6.66502e-05
1.34192e-05
6.62069e-05
1.65903e-05
6.56359e-05
2.04883e-05
6.4928e-05
2.54736e-05
6.40392e-05
3.20365e-05
6.29302e-05
4.09193e-05
6.14774e-05
5.34616e-05
5.96056e-05
7.26597e-05
5.69742e-05
0.000101578
5.35959e-05
0.000146595
4.87473e-05
0.00021295
4.27178e-05
0.000341137
3.10655e-05
0.000480375
0.00085592
6.81685e-05
7.51566e-07
6.81143e-05
2.03035e-06
6.80293e-05
3.12738e-06
6.79137e-05
4.27514e-06
6.77636e-05
5.54737e-06
6.75744e-05
7.01734e-06
6.73411e-05
8.67785e-06
6.70432e-05
1.09188e-05
6.66526e-05
1.38101e-05
6.6208e-05
1.70349e-05
6.56367e-05
2.10596e-05
6.4929e-05
2.61813e-05
6.40414e-05
3.29225e-05
6.29351e-05
4.20284e-05
6.14881e-05
5.49104e-05
5.96279e-05
7.45195e-05
5.70159e-05
0.00010419
5.367e-05
0.000149941
4.88808e-05
0.000217739
4.31484e-05
0.00034687
3.16935e-05
0.00049183
0.000887613
6.81685e-05
7.71846e-07
6.81143e-05
2.08494e-06
6.80294e-05
3.21188e-06
6.79139e-05
4.39037e-06
6.77639e-05
5.69679e-06
6.75745e-05
7.20667e-06
6.73417e-05
8.91077e-06
6.70318e-05
1.12287e-05
6.66609e-05
1.41811e-05
6.6209e-05
1.74868e-05
6.56376e-05
2.1631e-05
6.49301e-05
2.68888e-05
6.40436e-05
3.38106e-05
6.29401e-05
4.31294e-05
6.14991e-05
5.63497e-05
5.96513e-05
7.63674e-05
5.706e-05
0.000106782
5.37477e-05
0.000153253
4.90183e-05
0.000222469
4.35917e-05
0.000352296
3.23431e-05
0.000503079
0.000919957
6.81685e-05
7.9208e-07
6.81143e-05
2.13946e-06
6.80294e-05
3.29654e-06
6.79138e-05
4.50587e-06
6.77638e-05
5.84641e-06
6.75745e-05
7.39588e-06
6.73421e-05
9.14308e-06
6.70248e-05
1.1546e-05
6.66661e-05
1.45397e-05
6.621e-05
1.79429e-05
6.56384e-05
2.22026e-05
6.49313e-05
2.7596e-05
6.40458e-05
3.46943e-05
6.29453e-05
4.42327e-05
6.15106e-05
5.77862e-05
5.96756e-05
7.82021e-05
5.71063e-05
0.000109351
5.38293e-05
0.00015653
4.91601e-05
0.000227138
4.40482e-05
0.000357408
3.30149e-05
0.000514112
0.000952971
6.81685e-05
8.12353e-07
6.81143e-05
2.19401e-06
6.80294e-05
3.38103e-06
6.7914e-05
4.62107e-06
6.7764e-05
5.99575e-06
6.75747e-05
7.58516e-06
6.73423e-05
9.37557e-06
6.70226e-05
1.18658e-05
6.66676e-05
1.48947e-05
6.62109e-05
1.83997e-05
6.56393e-05
2.27741e-05
6.49324e-05
2.83029e-05
6.40482e-05
3.55801e-05
6.29506e-05
4.53275e-05
6.15224e-05
5.92127e-05
5.97009e-05
8.00238e-05
5.71548e-05
0.000111897
5.39152e-05
0.00015977
4.93062e-05
0.000231747
4.45178e-05
0.000362197
3.37095e-05
0.00052492
0.000986681
6.81685e-05
8.32584e-07
6.81143e-05
2.2485e-06
6.80294e-05
3.46567e-06
6.79139e-05
4.73652e-06
6.77639e-05
6.14535e-06
6.75749e-05
7.77407e-06
6.73407e-05
9.60969e-06
6.7022e-05
1.21844e-05
6.66681e-05
1.52486e-05
6.62116e-05
1.88562e-05
6.56401e-05
2.33456e-05
6.49336e-05
2.90094e-05
6.40505e-05
3.64611e-05
6.29561e-05
4.64252e-05
6.15346e-05
6.06365e-05
5.97269e-05
8.18312e-05
5.72052e-05
0.000114419
5.40055e-05
0.000162969
4.94564e-05
0.000236296
4.4999e-05
0.000366654
3.44261e-05
0.000535493
0.00102111
6.81685e-05
8.52848e-07
6.81143e-05
2.30301e-06
6.80295e-05
3.55018e-06
6.79141e-05
4.85163e-06
6.77639e-05
6.29495e-06
6.75759e-05
7.96201e-06
6.73281e-05
9.85766e-06
6.70257e-05
1.24867e-05
6.66683e-05
1.5606e-05
6.62123e-05
1.93122e-05
6.5641e-05
2.3917e-05
6.49348e-05
2.97157e-05
6.40529e-05
3.73447e-05
6.29617e-05
4.75134e-05
6.1547e-05
6.20492e-05
5.97537e-05
8.36246e-05
5.72574e-05
0.000116915
5.41008e-05
0.000166126
4.96104e-05
0.000240787
4.54875e-05
0.000370777
3.51618e-05
0.000545819
0.00105627
6.81685e-05
8.73069e-07
6.81143e-05
2.35745e-06
6.80294e-05
3.63485e-06
6.7914e-05
4.96695e-06
6.77636e-05
6.44498e-06
6.75766e-05
8.14889e-06
6.73191e-05
1.01151e-05
6.70284e-05
1.27774e-05
6.66685e-05
1.59659e-05
6.62129e-05
1.97678e-05
6.56418e-05
2.44881e-05
6.49359e-05
3.04215e-05
6.40553e-05
3.82233e-05
6.29673e-05
4.86047e-05
6.15597e-05
6.3459e-05
5.97812e-05
8.54029e-05
5.73111e-05
0.000119385
5.42014e-05
0.000169236
4.97677e-05
0.00024522
4.59737e-05
0.000374571
3.59087e-05
0.000555884
0.00109218
6.81684e-05
8.93275e-07
6.81143e-05
2.4119e-06
6.80295e-05
3.7193e-06
6.79143e-05
5.0819e-06
6.77639e-05
6.59468e-06
6.75771e-05
8.33562e-06
6.73166e-05
1.03757e-05
6.70287e-05
1.30654e-05
6.66685e-05
1.63261e-05
6.62133e-05
2.0223e-05
6.56425e-05
2.50589e-05
6.49371e-05
3.1127e-05
6.40577e-05
3.91044e-05
6.2973e-05
4.96866e-05
6.15726e-05
6.48574e-05
5.98092e-05
8.71665e-05
5.7366e-05
0.000121828
5.43083e-05
0.000172293
4.99277e-05
0.000249601
4.64547e-05
0.000378044
3.67464e-05
0.000565592
0.00112892
-3.09624e-07
3.09656e-07
-2.75081e-06
2.44119e-06
-3.72976e-06
9.78959e-07
-3.55349e-06
-1.76221e-07
-2.79692e-06
-7.56647e-07
-2.08838e-06
-7.08252e-07
-1.73462e-06
-3.53479e-07
-1.64294e-06
-9.11417e-08
-1.589e-06
-5.10009e-08
-1.57904e-06
-5.85348e-09
-1.67114e-06
1.24885e-07
-1.67881e-06
-3.01777e-08
-1.56148e-06
-1.24572e-07
-1.07277e-06
-4.91052e-07
9.24584e-08
-1.16142e-06
1.9365e-06
-1.83821e-06
4.21483e-06
-2.27535e-06
6.83236e-06
-2.61719e-06
9.76818e-06
-2.93461e-06
1.29716e-05
-3.20769e-06
1.63876e-05
-3.42132e-06
1.99055e-05
-3.51499e-06
2.33597e-05
-3.45388e-06
2.66431e-05
-3.28383e-06
2.97546e-05
-3.11254e-06
3.2718e-05
-2.96325e-06
3.55427e-05
-2.82466e-06
3.83461e-05
-2.80203e-06
4.11786e-05
-2.8262e-06
4.33653e-05
-2.18998e-06
4.57712e-05
-2.40645e-06
5.52082e-05
-9.44123e-06
6.55795e-05
-1.03718e-05
6.77678e-05
-2.18762e-06
2.86535e-08
-2.61057e-07
5.70774e-07
-2.70358e-06
4.88373e-06
-3.67147e-06
1.94687e-06
-3.50197e-06
-3.45616e-07
-2.74781e-06
-1.51094e-06
-2.05477e-06
-1.40075e-06
-1.7089e-06
-6.98796e-07
-1.63301e-06
-1.65963e-07
-1.587e-06
-9.14776e-08
-1.56779e-06
-1.71035e-08
-1.62582e-06
2.36082e-07
-1.58884e-06
-1.30054e-07
-1.45866e-06
-2.68915e-07
-1.04733e-06
-9.07267e-07
-9.97061e-10
-2.20021e-06
1.80923e-06
-3.63645e-06
4.15758e-06
-4.61756e-06
6.85268e-06
-5.3116e-06
9.81923e-06
-5.89907e-06
1.2995e-05
-6.39164e-06
1.63606e-05
-6.79728e-06
1.98457e-05
-6.99458e-06
2.32954e-05
-6.90286e-06
2.65919e-05
-6.58115e-06
2.97163e-05
-6.23876e-06
3.26884e-05
-5.9352e-06
3.55168e-05
-5.6528e-06
3.83135e-05
-5.59626e-06
4.11434e-05
-5.64426e-06
4.33684e-05
-4.42114e-06
4.56476e-05
-4.6868e-06
5.48875e-05
-1.86891e-05
6.53945e-05
-2.08796e-05
6.77642e-05
-4.55596e-06
4.54454e-08
-2.0666e-07
7.77489e-07
-2.64996e-06
7.32705e-06
-3.60501e-06
2.90192e-06
-3.42765e-06
-5.22871e-07
-2.67945e-06
-2.25927e-06
-2.0007e-06
-2.07898e-06
-1.66859e-06
-1.03044e-06
-1.60446e-06
-2.29174e-07
-1.55827e-06
-1.32653e-07
-1.52374e-06
-4.44621e-08
-1.54643e-06
3.12986e-07
-1.47023e-06
-2.71985e-07
-1.36415e-06
-3.89202e-07
-1.05805e-06
-1.21793e-06
-1.09887e-07
-3.14068e-06
1.70215e-06
-5.4359e-06
4.13154e-06
-7.04041e-06
6.90086e-06
-8.08018e-06
9.89384e-06
-8.88945e-06
1.30463e-05
-9.55245e-06
1.63638e-05
-1.0125e-05
1.98191e-05
-1.04444e-05
2.32677e-05
-1.03508e-05
2.65754e-05
-9.88971e-06
2.97115e-05
-9.3768e-06
3.26912e-05
-8.91476e-06
3.55218e-05
-8.48315e-06
3.83109e-05
-8.38291e-06
4.11353e-05
-8.45658e-06
4.33936e-05
-6.68565e-06
4.55622e-05
-6.85642e-06
5.46078e-05
-2.77426e-05
6.52208e-05
-3.14935e-05
6.776e-05
-7.09393e-06
5.03948e-08
-1.44751e-07
9.22301e-07
-2.59033e-06
9.77264e-06
-3.52529e-06
3.8369e-06
-3.33119e-06
-7.16857e-07
-2.58671e-06
-3.00386e-06
-1.92492e-06
-2.74022e-06
-1.60816e-06
-1.34668e-06
-1.55425e-06
-2.82034e-07
-1.50611e-06
-1.75526e-07
-1.45801e-06
-8.47075e-08
-1.44703e-06
3.48955e-07
-1.33583e-06
-4.43268e-07
-1.26219e-06
-4.79082e-07
-1.06426e-06
-1.42163e-06
-2.12134e-07
-3.98377e-06
1.60368e-06
-7.23571e-06
4.12138e-06
-9.54952e-06
6.97423e-06
-1.0932e-05
9.99998e-06
-1.19125e-05
1.3134e-05
-1.26963e-05
1.64063e-05
-1.34088e-05
1.98317e-05
-1.38637e-05
2.3278e-05
-1.37963e-05
2.65962e-05
-1.32088e-05
2.9743e-05
-1.25257e-05
3.27292e-05
-1.19007e-05
3.55606e-05
-1.13143e-05
3.83403e-05
-1.11599e-05
4.11551e-05
-1.12588e-05
4.3442e-05
-8.97924e-06
4.55149e-05
-8.93041e-06
5.4367e-05
-3.66031e-05
6.50572e-05
-4.21846e-05
6.77552e-05
-9.79057e-06
4.32038e-08
-7.5275e-08
9.97629e-07
-2.52418e-06
1.22216e-05
-3.43091e-06
4.74364e-06
-3.21206e-06
-9.356e-07
-2.46998e-06
-3.74605e-06
-1.8282e-06
-3.3815e-06
-1.52868e-06
-1.64578e-06
-1.48366e-06
-3.26207e-07
-1.43273e-06
-2.21843e-07
-1.37131e-06
-1.39206e-07
-1.32524e-06
3.46021e-07
-1.18188e-06
-6.44833e-07
-1.14854e-06
-5.28196e-07
-1.06129e-06
-1.51393e-06
-3.02e-07
-4.7344e-06
1.52013e-06
-9.04147e-06
4.13514e-06
-1.21551e-05
7.08522e-06
-1.38809e-05
1.01514e-05
-1.49749e-05
1.32694e-05
-1.58252e-05
1.64966e-05
-1.66478e-05
1.989e-05
-1.72506e-05
2.33321e-05
-1.72376e-05
2.66598e-05
-1.65376e-05
2.98165e-05
-1.56846e-05
3.28075e-05
-1.48914e-05
3.56377e-05
-1.41443e-05
3.84056e-05
-1.39249e-05
4.12058e-05
-1.40459e-05
4.35159e-05
-1.12965e-05
4.55059e-05
-1.09215e-05
5.41628e-05
-4.52685e-05
6.49024e-05
-5.2925e-05
6.77496e-05
-1.26366e-05
2.36508e-08
1.75676e-09
9.95935e-07
-2.45085e-06
1.46742e-05
-3.32004e-06
5.61285e-06
-3.06901e-06
-1.18651e-06
-2.32884e-06
-4.48631e-06
-1.71053e-06
-3.99924e-06
-1.43036e-06
-1.92544e-06
-1.39317e-06
-3.623e-07
-1.33937e-06
-2.7048e-07
-1.26415e-06
-2.06377e-07
-1.18014e-06
3.00032e-07
-1.00683e-06
-8.72798e-07
-1.01998e-06
-5.33543e-07
-1.04292e-06
-1.49765e-06
-3.69726e-07
-5.39733e-06
1.46435e-06
-1.08549e-05
4.18812e-06
-1.48665e-05
7.25349e-06
-1.69447e-05
1.03689e-05
-1.80861e-05
1.34695e-05
-1.89396e-05
1.66475e-05
-1.98401e-05
2.00044e-05
-2.05999e-05
2.3439e-05
-2.06713e-05
2.67752e-05
-1.9875e-05
2.99409e-05
-1.88529e-05
3.29349e-05
-1.78852e-05
3.57609e-05
-1.697e-05
3.85128e-05
-1.66735e-05
4.1292e-05
-1.68108e-05
4.36192e-05
-1.36315e-05
4.55366e-05
-1.28402e-05
5.3994e-05
-5.37351e-05
6.47556e-05
-6.36875e-05
6.77435e-05
-1.5623e-05
-8.48137e-09
8.61902e-08
9.09796e-07
-2.36945e-06
1.71298e-05
-3.19025e-06
6.43367e-06
-2.89974e-06
-1.4769e-06
-2.1619e-06
-5.22427e-06
-1.57087e-06
-4.58975e-06
-1.31233e-06
-2.1836e-06
-1.28216e-06
-3.91591e-07
-1.22584e-06
-3.22321e-07
-1.13607e-06
-2.88924e-07
-1.01086e-06
2.0715e-07
-8.08987e-07
-1.12514e-06
-8.72127e-07
-4.87992e-07
-1.0021e-06
-1.37333e-06
-4.05928e-07
-5.98411e-06
1.45082e-06
-1.26917e-05
4.30142e-06
-1.77044e-05
7.50808e-06
-2.01494e-05
1.06842e-05
-2.12557e-05
1.37598e-05
-2.20322e-05
1.68783e-05
-2.29741e-05
2.01903e-05
-2.39034e-05
2.36127e-05
-2.40929e-05
2.69562e-05
-2.32198e-05
3.01305e-05
-2.203e-05
3.31252e-05
-2.08795e-05
3.59421e-05
-1.97866e-05
3.86716e-05
-1.93993e-05
4.1421e-05
-1.95445e-05
4.37569e-05
-1.59759e-05
4.56097e-05
-1.46943e-05
5.38604e-05
-6.19954e-05
6.46161e-05
-7.44441e-05
6.77367e-05
-1.87423e-05
-5.32931e-08
1.77926e-07
7.31935e-07
-2.27888e-06
1.95867e-05
-3.0385e-06
7.19331e-06
-2.70122e-06
-1.81404e-06
-1.96728e-06
-5.9583e-06
-1.40746e-06
-5.14897e-06
-1.17288e-06
-2.41764e-06
-1.14898e-06
-4.14294e-07
-1.0905e-06
-3.75462e-07
-9.85082e-07
-3.8554e-07
-8.15069e-07
6.70294e-08
-5.84633e-07
-1.40558e-06
-6.98386e-07
-3.95629e-07
-9.31333e-07
-1.1483e-06
-4.02799e-07
-6.501e-06
1.49284e-06
-1.45621e-05
4.49981e-06
-2.06949e-05
7.8892e-06
-2.35362e-05
1.11453e-05
-2.45046e-05
1.418e-05
-2.50892e-05
1.7218e-05
-2.6032e-05
2.04708e-05
-2.7146e-05
2.38736e-05