/*--------------------------------*- C++ -*----------------------------------*\
| =========                 |                                                 |
| \\      /  F ield         | OpenFOAM: The Open Source CFD Toolbox           |
|  \\    /   O peration     | Version:  v1912                                 |
|   \\  /    A nd           | Website:  www.openfoam.com                      |
|    \\/     M anipulation  |                                                 |
\*---------------------------------------------------------------------------*/
FoamFile
{
    version     2.0;
    format      ascii;
    class       volVectorField;
    location    "470";
    object      U;
}
// * * * * * * * * * * * * * * * * * * * * * * * * * * * * * * * * * * * * * //

dimensions      [0 1 -1 0 0 0 0];


internalField   nonuniform List<vector> 
12441
(
(29.9988 1.70642e-05 0)
(29.9854 5.18507e-05 0)
(29.956 9.00734e-05 0)
(29.9115 0.00013847 0)
(29.8531 0.000201959 0)
(29.7788 0.000286887 0)
(29.6866 0.000398292 0)
(29.5714 0.000563709 0)
(29.4279 0.000785212 0)
(29.2493 0.00109736 0)
(29.029 0.00151959 0)
(28.7627 0.002158 0)
(28.3876 0.00293804 0)
(27.9791 0.00447582 0)
(27.4214 0.00622179 0)
(26.6348 0.0112188 0)
(25.5913 0.0150692 0)
(23.923 0.0315104 0)
(21.572 0.0528806 0)
(17.8832 0.0912936 0)
(12.1018 0.122118 0)
(5.80497 0.196408 0)
(29.9988 5.07071e-05 0)
(29.9853 0.000154857 0)
(29.956 0.000268583 0)
(29.9115 0.000412958 0)
(29.8531 0.000602625 0)
(29.7788 0.000856298 0)
(29.6866 0.00119054 0)
(29.5715 0.00168451 0)
(29.428 0.00234754 0)
(29.2495 0.00328433 0)
(29.0292 0.00455073 0)
(28.7651 0.00646577 0)
(28.3832 0.00879461 0)
(27.9758 0.0133995 0)
(27.4209 0.0187149 0)
(26.6358 0.0334623 0)
(25.5907 0.0477889 0)
(23.9228 0.0904322 0)
(21.5728 0.138145 0)
(17.8819 0.264154 0)
(12.1028 0.358795 0)
(5.80881 0.586602 0)
(29.9988 8.41997e-05 0)
(29.9853 0.000257789 0)
(29.956 0.000446277 0)
(29.9115 0.000686276 0)
(29.8531 0.001002 0)
(29.7788 0.00142497 0)
(29.6866 0.0019812 0)
(29.5715 0.00280405 0)
(29.428 0.00390781 0)
(29.2495 0.00546712 0)
(29.0293 0.00758612 0)
(28.7655 0.0107487 0)
(28.3827 0.0147 0)
(27.9805 0.022292 0)
(27.4224 0.0312336 0)
(26.6377 0.0548744 0)
(25.5923 0.0812892 0)
(23.927 0.147487 0)
(21.5763 0.220889 0)
(17.8815 0.43471 0)
(12.1088 0.59199 0)
(5.81707 0.974857 0)
(29.9988 0.00011812 0)
(29.9853 0.000361464 0)
(29.956 0.000624869 0)
(29.9115 0.000960907 0)
(29.8532 0.0014031 0)
(29.7789 0.00199562 0)
(29.6866 0.00277448 0)
(29.5715 0.00392674 0)
(29.428 0.00547215 0)
(29.2496 0.00765594 0)
(29.0293 0.0106273 0)
(28.7651 0.015042 0)
(28.3838 0.0206089 0)
(27.9756 0.0312039 0)
(27.4212 0.0437669 0)
(26.6372 0.0763388 0)
(25.5936 0.114041 0)
(23.9315 0.207531 0)
(21.5849 0.328366 0)
(17.8858 0.6133 0)
(12.121 0.829143 0)
(5.83004 1.36476 0)
(29.9988 0.000152104 0)
(29.9853 0.000465018 0)
(29.956 0.000803266 0)
(29.9115 0.00123531 0)
(29.8531 0.00180384 0)
(29.7789 0.00256571 0)
(29.6866 0.00356709 0)
(29.5715 0.00504867 0)
(29.4281 0.00703553 0)
(29.2496 0.00984322 0)
(29.0294 0.0136669 0)
(28.7654 0.0193359 0)
(28.3831 0.0265134 0)
(27.9809 0.0401287 0)
(27.4227 0.0563318 0)
(26.6383 0.097562 0)
(25.5966 0.146306 0)
(23.9362 0.268337 0)
(21.5958 0.418668 0)
(17.896 0.788078 0)
(12.141 1.06608 0)
(5.84803 1.75595 0)
(29.9988 0.000186086 0)
(29.9853 0.000568504 0)
(29.956 0.000981637 0)
(29.9115 0.00150973 0)
(29.8532 0.00220458 0)
(29.7789 0.00313584 0)
(29.6867 0.00435985 0)
(29.5715 0.0061708 0)
(29.4281 0.00859921 0)
(29.2496 0.0120309 0)
(29.0294 0.0167067 0)
(28.7651 0.0236297 0)
(28.3849 0.0324213 0)
(27.9752 0.0490234 0)
(27.4219 0.0688972 0)
(26.6386 0.118666 0)
(25.5987 0.178298 0)
(23.9404 0.328606 0)
(21.6082 0.507421 0)
(17.913 0.961539 0)
(12.1705 1.30271 0)
(5.87144 2.14824 0)
(29.9988 0.000220066 0)
(29.9854 0.000671949 0)
(29.956 0.00116 0)
(29.9115 0.00178417 0)
(29.8532 0.0026053 0)
(29.7789 0.00370597 0)
(29.6867 0.00515262 0)
(29.5716 0.00729295 0)
(29.4281 0.010163 0)
(29.2497 0.0142184 0)
(29.0295 0.0197466 0)
(28.7653 0.0279242 0)
(28.3838 0.0383298 0)
(27.9818 0.0579351 0)
(27.4236 0.0814566 0)
(26.6398 0.139622 0)
(25.6024 0.209588 0)
(23.945 0.386348 0)
(21.6256 0.598315 0)
(17.94 1.13509 0)
(12.2119 1.53943 0)
(5.90078 2.54193 0)
(29.9988 0.000254047 0)
(29.9853 0.000775364 0)
(29.9561 0.00133834 0)
(29.9115 0.0020586 0)
(29.8532 0.00300597 0)
(29.7789 0.00427606 0)
(29.6867 0.00594539 0)
(29.5716 0.00841507 0)
(29.4282 0.0117268 0)
(29.2497 0.0164059 0)
(29.0296 0.0227866 0)
(28.7653 0.032215 0)
(28.3867 0.0442435 0)
(27.9751 0.0667916 0)
(27.4228 0.0938521 0)
(26.6393 0.160173 0)
(25.6073 0.242438 0)
(23.9506 0.446009 0)
(21.6564 0.690258 0)
(17.9842 1.30814 0)
(12.2685 1.77648 0)
(5.93666 2.93751 0)
(29.9988 0.000288028 0)
(29.9854 0.000878744 0)
(29.9561 0.00151667 0)
(29.9115 0.00233303 0)
(29.8532 0.00340662 0)
(29.7789 0.00484613 0)
(29.6867 0.00673815 0)
(29.5716 0.00953724 0)
(29.4282 0.0132907 0)
(29.2498 0.0185933 0)
(29.0297 0.025826 0)
(28.7652 0.0365077 0)
(28.3844 0.0501504 0)
(27.9825 0.0757802 0)
(27.4266 0.106359 0)
(26.6407 0.181138 0)
(25.6166 0.273739 0)
(23.9629 0.505054 0)
(21.7138 0.78188 0)
(18.0539 1.48037 0)
(12.344 2.01413 0)
(5.97974 3.33551 0)
(29.9988 0.000322009 0)
(29.9854 0.000982093 0)
(29.9561 0.00169498 0)
(29.9116 0.00260745 0)
(29.8532 0.00380722 0)
(29.779 0.00541616 0)
(29.6868 0.00753089 0)
(29.5717 0.0106593 0)
(29.4283 0.0148544 0)
(29.2499 0.0207804 0)
(29.0298 0.0288647 0)
(28.7657 0.0407946 0)
(28.3895 0.0560891 0)
(27.9764 0.0844888 0)
(27.4266 0.119494 0)
(26.6395 0.202477 0)
(25.6306 0.305608 0)
(23.9905 0.562183 0)
(21.7997 0.873241 0)
(18.152 1.65212 0)
(12.441 2.25283 0)
(6.0307 3.73651 0)
(29.9988 0.000355989 0)
(29.9854 0.00108541 0)
(29.9561 0.00187329 0)
(29.9116 0.00288187 0)
(29.8532 0.00420779 0)
(29.779 0.00598617 0)
(29.6868 0.00832361 0)
(29.5717 0.0117815 0)
(29.4283 0.016418 0)
(29.25 0.0229678 0)
(29.0298 0.031904 0)
(28.7652 0.0450746 0)
(28.386 0.0620916 0)
(27.977 0.0931681 0)
(27.4254 0.131974 0)
(26.6389 0.222738 0)
(25.6491 0.338416 0)
(24.0353 0.618508 0)
(21.8983 0.964415 0)
(18.2716 1.82338 0)
(12.5599 2.49294 0)
(6.09022 4.14116 0)
(29.9988 0.000389968 0)
(29.9854 0.00118869 0)
(29.9561 0.00205159 0)
(29.9116 0.00315627 0)
(29.8533 0.00460832 0)
(29.779 0.00655613 0)
(29.6868 0.00911631 0)
(29.5718 0.0129035 0)
(29.4284 0.0179817 0)
(29.2501 0.0251543 0)
(29.0301 0.0349456 0)
(28.7658 0.0493424 0)
(28.3942 0.0681122 0)
(27.9713 0.102008 0)
(27.4216 0.145446 0)
(26.6397 0.243202 0)
(25.6669 0.370867 0)
(24.0835 0.673006 0)
(21.9899 1.05457 0)
(18.4005 1.9936 0)
(12.6988 2.73461 0)
(6.15882 4.55012 0)
(29.9988 0.000423943 0)
(29.9854 0.00129194 0)
(29.9561 0.00222988 0)
(29.9116 0.00343067 0)
(29.8532 0.00500882 0)
(29.779 0.00712608 0)
(29.6868 0.00990896 0)
(29.5718 0.0140255 0)
(29.4284 0.0195446 0)
(29.2503 0.0273413 0)
(29.0302 0.0379812 0)
(28.7655 0.0536482 0)
(28.3963 0.0740823 0)
(27.9695 0.110953 0)
(27.4189 0.159134 0)
(26.6419 0.263119 0)
(25.6806 0.402665 0)
(24.1237 0.725481 0)
(22.0657 1.1433 0)
(18.5277 2.16213 0)
(12.8541 2.9777 0)
(6.23679 4.964 0)
(29.9988 0.000457917 0)
(29.9854 0.00139516 0)
(29.9561 0.00240818 0)
(29.9116 0.00370506 0)
(29.8533 0.00540927 0)
(29.779 0.00769597 0)
(29.6869 0.0107016 0)
(29.5718 0.0151474 0)
(29.4285 0.021107 0)
(29.2504 0.0295284 0)
(29.0305 0.0410323 0)
(28.7661 0.0579525 0)
(28.4061 0.080546 0)
(27.9669 0.119956 0)
(27.4173 0.172326 0)
(26.644 0.282385 0)
(25.6898 0.433871 0)
(24.1535 0.776386 0)
(22.1259 1.23061 0)
(18.6466 2.32853 0)
(13.0213 3.2219 0)
(6.32413 5.38331 0)
(29.9988 0.000491886 0)
(29.9854 0.00149834 0)
(29.9561 0.00258649 0)
(29.9116 0.00397945 0)
(29.8533 0.0058097 0)
(29.779 0.00826584 0)
(29.6869 0.0114941 0)
(29.5719 0.0162692 0)
(29.4285 0.0226692 0)
(29.2506 0.031713 0)
(29.0305 0.0441011 0)
(28.7655 0.0621393 0)
(28.4074 0.0869763 0)
(27.965 0.128768 0)
(27.4164 0.185361 0)
(26.6459 0.301429 0)
(25.6957 0.46477 0)
(24.1747 0.826239 0)
(22.1739 1.31663 0)
(18.7544 2.49251 0)
(13.1963 3.46677 0)
(6.42059 5.8085 0)
(29.9988 0.000525852 0)
(29.9854 0.0016015 0)
(29.9561 0.0027648 0)
(29.9116 0.00425382 0)
(29.8533 0.00621008 0)
(29.7791 0.00883564 0)
(29.687 0.0122866 0)
(29.5719 0.0173913 0)
(29.4286 0.0242302 0)
(29.2507 0.0339026 0)
(29.0302 0.0471769 0)
(28.7637 0.0664658 0)
(28.4073 0.0933885 0)
(27.9635 0.137416 0)
(27.4159 0.19829 0)
(26.6472 0.320418 0)
(25.6992 0.49551 0)
(24.1896 0.875392 0)
(22.2133 1.40144 0)
(18.8511 2.6539 0)
(13.3757 3.71189 0)
(6.52573 6.2399 0)
(29.9988 0.000559812 0)
(29.9854 0.00170461 0)
(29.9561 0.00294312 0)
(29.9116 0.00452819 0)
(29.8533 0.00661044 0)
(29.7791 0.00940542 0)
(29.687 0.013079 0)
(29.572 0.0185134 0)
(29.4286 0.0257919 0)
(29.2508 0.03609 0)
(29.0301 0.0503249 0)
(28.7599 0.0708489 0)
(28.4057 0.0996382 0)
(27.9627 0.146058 0)
(27.4155 0.211232 0)
(26.6483 0.339394 0)
(25.7011 0.526145 0)
(24.2004 0.924037 0)
(22.2467 1.48516 0)
(18.9378 2.81258 0)
(13.5573 3.95685 0)
(6.63901 6.67778 0)
(29.9988 0.000593768 0)
(29.9854 0.0018077 0)
(29.9561 0.00312145 0)
(29.9116 0.00480254 0)
(29.8533 0.00701076 0)
(29.7791 0.00997511 0)
(29.687 0.0138715 0)
(29.572 0.0196354 0)
(29.4287 0.0273541 0)
(29.2507 0.0382728 0)
(29.0303 0.0535002 0)
(28.7557 0.0752958 0)
(28.4045 0.1058 0)
(27.9623 0.154678 0)
(27.4153 0.224179 0)
(26.6492 0.35837 0)
(25.702 0.556704 0)
(24.2084 0.972283 0)
(22.2762 1.56783 0)
(19.0161 2.96848 0)
(13.7394 4.20128 0)
(6.7599 7.12236 0)
(29.9988 0.000627718 0)
(29.9854 0.00191076 0)
(29.9561 0.0032998 0)
(29.9116 0.00507689 0)
(29.8533 0.00741104 0)
(29.7791 0.0105448 0)
(29.687 0.0146638 0)
(29.5721 0.0207574 0)
(29.4288 0.0289162 0)
(29.2507 0.0404655 0)
(29.0307 0.0566676 0)
(28.7524 0.0796172 0)
(28.4037 0.111918 0)
(27.9621 0.163319 0)
(27.4151 0.23714 0)
(26.65 0.377346 0)
(25.7023 0.587204 0)
(24.2147 1.02019 0)
(22.3035 1.64953 0)
(19.0876 3.12155 0)
(13.9214 4.44486 0)
(6.88786 7.57383 0)
(29.9988 0.000661663 0)
(29.9854 0.00201378 0)
(29.9561 0.00347816 0)
(29.9116 0.00535122 0)
(29.8534 0.00781129 0)
(29.7792 0.0111143 0)
(29.6871 0.0154561 0)
(29.5721 0.0218791 0)
(29.4289 0.0304798 0)
(29.2508 0.0426671 0)
(29.0309 0.0598875 0)
(28.7502 0.0838502 0)
(28.4032 0.118031 0)
(27.9621 0.171964 0)
(27.415 0.2501 0)
(26.6508 0.396326 0)
(25.7024 0.617657 0)
(24.2201 1.06778 0)
(22.3298 1.73028 0)
(19.154 3.27178 0)
(14.1031 4.68731 0)
(7.02245 8.03233 0)
(29.9988 0.0006956 0)
(29.9854 0.00211676 0)
(29.9561 0.00365654 0)
(29.9116 0.00562554 0)
(29.8533 0.0082115 0)
(29.7792 0.0116838 0)
(29.6871 0.0162483 0)
(29.5722 0.0230005 0)
(29.429 0.0320432 0)
(29.2512 0.044885 0)
(29.0304 0.0631205 0)
(28.7488 0.0880761 0)
(28.403 0.12414 0)
(27.9622 0.180624 0)
(27.415 0.263062 0)
(26.6517 0.415313 0)
(25.7024 0.648074 0)
(24.2253 1.11507 0)
(22.3558 1.81013 0)
(19.2169 3.41915 0)
(14.2848 4.92838 0)
(7.16329 8.49803 0)
(29.9988 0.000729532 0)
(29.9854 0.00221972 0)
(29.9561 0.00383493 0)
(29.9116 0.00589983 0)
(29.8534 0.00861168 0)
(29.7792 0.0122533 0)
(29.6872 0.0170402 0)
(29.5723 0.0241223 0)
(29.429 0.0336026 0)
(29.2517 0.0471622 0)
(29.029 0.066327 0)
(28.7479 0.0923168 0)
(28.4029 0.130257 0)
(27.9624 0.189285 0)
(27.4152 0.276019 0)
(26.6526 0.434306 0)
(25.7028 0.678466 0)
(24.2308 1.16203 0)
(22.3823 1.88909 0)
(19.2773 3.56368 0)
(14.4671 5.16789 0)
(7.31014 8.97107 0)
(29.9988 0.000763457 0)
(29.9854 0.00232264 0)
(29.9561 0.00401334 0)
(29.9116 0.00617412 0)
(29.8533 0.0090118 0)
(29.7792 0.0128227 0)
(29.6872 0.0178319 0)
(29.5724 0.0252443 0)
(29.429 0.0351598 0)
(29.2522 0.0494836 0)
(29.0274 0.0695061 0)
(28.7474 0.096586 0)
(28.4029 0.136375 0)
(27.9626 0.197951 0)
(27.4154 0.288971 0)
(26.6538 0.453304 0)
(25.7038 0.708833 0)
(24.2368 1.20863 0)
(22.4094 1.96719 0)
(19.3365 3.70536 0)
(14.6509 5.40566 0)
(7.46281 9.45163 0)
(29.9988 0.000797375 0)
(29.9854 0.00242553 0)
(29.9561 0.00419176 0)
(29.9117 0.00644839 0)
(29.8534 0.00941189 0)
(29.7793 0.013392 0)
(29.6873 0.0186234 0)
(29.5725 0.0263665 0)
(29.429 0.0367134 0)
(29.2525 0.0518354 0)
(29.0263 0.0725811 0)
(28.7472 0.100874 0)
(28.403 0.142496 0)
(27.9629 0.206614 0)
(27.4158 0.301918 0)
(26.6553 0.472303 0)
(25.7056 0.739165 0)
(24.2436 1.25482 0)
(22.4375 2.04445 0)
(19.3952 3.84417 0)
(14.8373 5.64155 0)
(7.62126 9.93988 0)
(29.9988 0.000831285 0)
(29.9854 0.00252838 0)
(29.9561 0.0043702 0)
(29.9116 0.00672265 0)
(29.8534 0.00981194 0)
(29.7793 0.0139613 0)
(29.6873 0.0194145 0)
(29.5726 0.0274889 0)
(29.4292 0.0382637 0)
(29.2526 0.0541683 0)
(29.0255 0.0755838 0)
(28.747 0.105172 0)
(28.4031 0.148616 0)
(27.9633 0.215276 0)
(27.4164 0.314857 0)
(26.6571 0.491294 0)
(25.7083 0.769436 0)
(24.2514 1.30061 0)
(22.4666 2.12089 0)
(19.4543 3.98009 0)
(15.0274 5.87544 0)
(7.78551 10.436 0)
(29.9988 0.000865189 0)
(29.9854 0.0026312 0)
(29.9561 0.00454866 0)
(29.9117 0.00699687 0)
(29.8535 0.010212 0)
(29.7794 0.0145304 0)
(29.6874 0.0202058 0)
(29.5726 0.0286098 0)
(29.4294 0.0398294 0)
(29.2523 0.0564806 0)
(29.0251 0.0785568 0)
(28.747 0.109476 0)
(28.4033 0.154735 0)
(27.9638 0.223935 0)
(27.4173 0.327785 0)
(26.6594 0.510265 0)
(25.7121 0.799622 0)
(24.2601 1.346 0)
(22.4966 2.19652 0)
(19.5144 4.11306 0)
(15.2225 6.10723 0)
(7.95568 10.9403 0)
(29.9988 0.000899085 0)
(29.9854 0.00273399 0)
(29.9561 0.00472713 0)
(29.9117 0.00727108 0)
(29.8534 0.0106119 0)
(29.7794 0.0150995 0)
(29.6874 0.0209971 0)
(29.5726 0.0297315 0)
(29.4298 0.0414044 0)
(29.2515 0.0588875 0)
(29.0249 0.0815374 0)
(28.7471 0.113782 0)
(28.4036 0.160851 0)
(27.9643 0.232589 0)
(27.4183 0.340695 0)
(26.6621 0.529201 0)
(25.717 0.829706 0)
(24.2699 1.39101 0)
(22.5275 2.27133 0)
(19.5757 4.24298 0)
(15.4239 6.33682 0)
(8.13198 11.453 0)
(29.9988 0.000932975 0)
(29.9854 0.00283674 0)
(29.9561 0.00490561 0)
(29.9117 0.00754526 0)
(29.8535 0.0110119 0)
(29.7794 0.0156684 0)
(29.6875 0.021788 0)
(29.5726 0.030852 0)
(29.4303 0.0429902 0)
(29.2503 0.0612561 0)
(29.0248 0.0845435 0)
(28.7472 0.118089 0)
(28.4039 0.166964 0)
(27.9649 0.241238 0)
(27.4196 0.353583 0)
(26.6654 0.548087 0)
(25.723 0.859684 0)
(24.2809 1.43564 0)
(22.5592 2.34532 0)
(19.6386 4.36976 0)
(15.6327 6.56412 0)
(8.31466 11.9744 0)
(29.9988 0.000966856 0)
(29.9854 0.00293947 0)
(29.9561 0.00508411 0)
(29.9117 0.00781942 0)
(29.8534 0.0114118 0)
(29.7794 0.0162371 0)
(29.6875 0.0225796 0)
(29.5726 0.0319675 0)
(29.4308 0.0446321 0)
(29.2492 0.0634819 0)
(29.0248 0.0875766 0)
(28.7474 0.122396 0)
(28.4042 0.173074 0)
(27.9656 0.249877 0)
(27.4211 0.366443 0)
(26.6691 0.566913 0)
(25.7298 0.889553 0)
(24.293 1.47991 0)
(22.5917 2.41848 0)
(19.7031 4.49324 0)
(15.8499 6.78904 0)
(8.50405 12.5047 0)
(29.9988 0.00100073 0)
(29.9854 0.00304216 0)
(29.9562 0.00526262 0)
(29.9117 0.00809354 0)
(29.8535 0.0118117 0)
(29.7795 0.0168056 0)
(29.6876 0.0233711 0)
(29.5727 0.0330819 0)
(29.4312 0.0462985 0)
(29.2483 0.0656822 0)
(29.0249 0.0906293 0)
(28.7475 0.126702 0)
(28.4045 0.179179 0)
(27.9664 0.258506 0)
(27.4228 0.379269 0)
(26.6732 0.58567 0)
(25.7376 0.919309 0)
(24.3064 1.5238 0)
(22.625 2.49081 0)
(19.7691 4.61328 0)
(16.0763 7.01149 0)
(8.70049 13.0445 0)
(29.9988 0.0010346 0)
(29.9855 0.00314481 0)
(29.9562 0.00544114 0)
(29.9117 0.00836764 0)
(29.8535 0.0122115 0)
(29.7795 0.017374 0)
(29.6877 0.0241625 0)
(29.5727 0.0341958 0)
(29.4314 0.0479754 0)
(29.2478 0.0678719 0)
(29.0251 0.0936931 0)
(28.7478 0.131007 0)
(28.4049 0.18528 0)
(27.9673 0.267121 0)
(27.4248 0.392058 0)
(26.6777 0.604355 0)
(25.7462 0.948945 0)
(24.3211 1.56733 0)
(22.6592 2.56231 0)
(19.8366 4.72971 0)
(16.3124 7.23138 0)
(8.90432 13.5939 0)
(29.9988 0.00106846 0)
(29.9854 0.00324743 0)
(29.9562 0.00561968 0)
(29.9117 0.0086417 0)
(29.8536 0.0126113 0)
(29.7795 0.0179422 0)
(29.6878 0.0249538 0)
(29.5728 0.0353088 0)
(29.4316 0.0496623 0)
(29.2476 0.0700398 0)
(29.0253 0.0967631 0)
(28.748 0.135311 0)
(28.4053 0.191377 0)
(27.9682 0.275721 0)
(27.4269 0.404808 0)
(26.6826 0.62296 0)
(25.7556 0.978449 0)
(24.3372 1.6105 0)
(22.6941 2.63297 0)
(19.9053 4.84234 0)
(16.5583 7.44858 0)
(9.11591 14.1535 0)
(29.9988 0.00110231 0)
(29.9855 0.00335003 0)
(29.9562 0.00579822 0)
(29.9117 0.00891574 0)
(29.8535 0.0130111 0)
(29.7795 0.0185104 0)
(29.6878 0.0257448 0)
(29.573 0.0364217 0)
(29.4316 0.0513547 0)
(29.2478 0.0721927 0)
(29.0256 0.0998371 0)
(28.7483 0.139613 0)
(28.4058 0.197467 0)
(27.9692 0.284305 0)
(27.4293 0.417516 0)
(26.6878 0.641481 0)
(25.7658 1.00781 0)
(24.3546 1.6533 0)
(22.7301 2.7028 0)
(19.9752 4.95103 0)
(16.814 7.66297 0)
(9.33556 14.7236 0)
(29.9988 0.00113616 0)
(29.9855 0.00345259 0)
(29.9562 0.00597677 0)
(29.9118 0.00918974 0)
(29.8536 0.0134107 0)
(29.7796 0.0190785 0)
(29.6879 0.0265351 0)
(29.5732 0.037535 0)
(29.4315 0.0530502 0)
(29.2481 0.0743331 0)
(29.0259 0.102914 0)
(28.7486 0.143915 0)
(28.4062 0.203552 0)
(27.9703 0.292871 0)
(27.4318 0.43018 0)
(26.6934 0.65991 0)
(25.7767 1.03701 0)
(24.3735 1.69573 0)
(22.7671 2.77181 0)
(20.0462 5.0556 0)
(17.0791 7.87444 0)
(9.56357 15.3046 0)
(29.9988 0.00116999 0)
(29.9855 0.00355512 0)
(29.9562 0.00615532 0)
(29.9117 0.00946373 0)
(29.8535 0.0138103 0)
(29.7796 0.0196467 0)
(29.6879 0.0273249 0)
(29.5734 0.0386442 0)
(29.4313 0.0547462 0)
(29.2485 0.0764644 0)
(29.0262 0.105994 0)
(28.7489 0.148216 0)
(28.4068 0.20963 0)
(27.9715 0.301418 0)
(27.4344 0.442797 0)
(26.6992 0.678243 0)
(25.7884 1.06603 0)
(24.3938 1.73779 0)
(22.8052 2.83999 0)
(20.1183 5.15591 0)
(17.3535 8.08282 0)
(9.80021 15.8969 0)
(29.9988 0.00120383 0)
(29.9855 0.00365762 0)
(29.9562 0.00633388 0)
(29.9118 0.00973765 0)
(29.8537 0.0142099 0)
(29.7797 0.020214 0)
(29.6879 0.0281177 0)
(29.5736 0.0397491 0)
(29.431 0.0563609 0)
(29.2489 0.0785878 0)
(29.0266 0.109076 0)
(28.7493 0.152515 0)
(28.4073 0.215701 0)
(27.9727 0.309945 0)
(27.4372 0.455367 0)
(26.7052 0.696471 0)
(25.8007 1.09487 0)
(24.4156 1.77947 0)
(22.8448 2.90735 0)
(20.1918 5.25181 0)
(17.637 8.28798 0)
(10.0457 16.5009 0)
(29.9988 0.00123765 0)
(29.9855 0.00376009 0)
(29.9562 0.00651242 0)
(29.9118 0.0100116 0)
(29.8536 0.0146091 0)
(29.7797 0.0207831 0)
(29.6879 0.0289004 0)
(29.5739 0.0409144 0)
(29.4303 0.057732 0)
(29.2494 0.0807143 0)
(29.0269 0.11216 0)
(28.7497 0.156813 0)
(28.4078 0.221765 0)
(27.974 0.318452 0)
(27.4401 0.467888 0)
(26.7116 0.71459 0)
(25.8137 1.1235 0)
(24.4387 1.82076 0)
(22.8859 2.9739 0)
(20.2669 5.34316 0)
(17.9295 8.48977 0)
(10.3003 17.117 0)
(29.9988 0.00127147 0)
(29.9855 0.00386253 0)
(29.9562 0.00669097 0)
(29.9118 0.0102855 0)
(29.8537 0.0150085 0)
(29.7798 0.0213503 0)
(29.688 0.0296926 0)
(29.5744 0.042035 0)
(29.429 0.0596557 0)
(29.2499 0.0828721 0)
(29.0273 0.115245 0)
(28.75 0.161109 0)
(28.4084 0.227822 0)
(27.9753 0.326937 0)
(27.4431 0.480357 0)
(26.7181 0.732592 0)
(25.8273 1.15191 0)
(24.4633 1.86165 0)
(22.9287 3.03962 0)
(20.3436 5.42984 0)
(18.2313 8.68803 0)
(10.5641 17.7457 0)
(29.9988 0.00130529 0)
(29.9855 0.00396493 0)
(29.9562 0.00686953 0)
(29.9118 0.0105593 0)
(29.8536 0.015408 0)
(29.7798 0.0219177 0)
(29.6879 0.0304773 0)
(29.5748 0.0432134 0)
(29.4281 0.0614671 0)
(29.2503 0.0850575 0)
(29.0276 0.118331 0)
(28.7504 0.165404 0)
(28.409 0.233871 0)
(27.9766 0.335399 0)
(27.4463 0.492773 0)
(26.7249 0.750472 0)
(25.8415 1.18009 0)
(24.4892 1.90211 0)
(22.9737 3.10451 0)
(20.4222 5.5117 0)
(18.5428 8.88261 0)
(10.8375 18.3874 0)
(29.9988 0.0013391 0)
(29.9855 0.0040673 0)
(29.9562 0.00704802 0)
(29.9118 0.0108333 0)
(29.8538 0.0158062 0)
(29.7799 0.0224906 0)
(29.6881 0.0312395 0)
(29.5748 0.0444132 0)
(29.4277 0.0629793 0)
(29.2507 0.087251 0)
(29.028 0.121417 0)
(28.7508 0.169697 0)
(28.4096 0.239912 0)
(27.978 0.343838 0)
(27.4495 0.505134 0)
(26.7318 0.768225 0)
(25.8563 1.20802 0)
(24.5164 1.94213 0)
(23.0209 3.16857 0)
(20.5023 5.58861 0)
(18.8641 9.07334 0)
(11.1207 19.0424 0)
(29.9988 0.00137291 0)
(29.9855 0.00416965 0)
(29.9562 0.00722655 0)
(29.9118 0.0111069 0)
(29.8537 0.016206 0)
(29.7799 0.0230531 0)
(29.6883 0.0320698 0)
(29.5741 0.0452849 0)
(29.4275 0.0644309 0)
(29.251 0.0894428 0)
(29.0283 0.124503 0)
(28.7512 0.173988 0)
(28.4102 0.245944 0)
(27.9794 0.352256 0)
(27.4527 0.517439 0)
(26.739 0.785845 0)
(25.8716 1.23569 0)
(24.5447 1.98167 0)
(23.071 3.2318 0)
(20.5834 5.66044 0)
(19.1944 9.26011 0)
(11.4138 19.7112 0)
(29.9988 0.00140669 0)
(29.9855 0.00427202 0)
(29.9562 0.00740511 0)
(29.9119 0.0113806 0)
(29.8539 0.0166049 0)
(29.7798 0.0236217 0)
(29.6893 0.0328703 0)
(29.5703 0.0466615 0)
(29.4273 0.0659143 0)
(29.2512 0.0916317 0)
(29.0287 0.127588 0)
(28.7516 0.178277 0)
(28.4109 0.251969 0)
(27.9809 0.360648 0)
(27.4561 0.529686 0)
(26.7464 0.803328 0)
(25.8873 1.26309 0)
(24.5741 2.02071 0)
(23.1241 3.29421 0)
(20.6648 5.72709 0)
(19.5306 9.44291 0)
(11.7171 20.3951 0)
(29.9988 0.00144031 0)
(29.9855 0.0043743 0)
(29.9562 0.00758384 0)
(29.9118 0.0116544 0)
(29.8538 0.017005 0)
(29.7796 0.024186 0)
(29.69 0.0336934 0)
(29.5676 0.0480889 0)
(29.4271 0.0674327 0)
(29.2514 0.0938212 0)
(29.029 0.130673 0)
(28.752 0.182565 0)
(28.4115 0.257983 0)
(27.9823 0.369017 0)
(27.4595 0.541872 0)
(26.7539 0.820669 0)
(25.9035 1.29021 0)
(24.6045 2.0592 0)
(23.1808 3.3558 0)
(20.7459 5.78855 0)
(19.8657 9.62143 0)
(12.0303 21.1015 0)
(29.9988 0.00147347 0)
(29.9855 0.00447559 0)
(29.9562 0.00776139 0)
(29.9119 0.0119265 0)
(29.854 0.0174039 0)
(29.7797 0.024739 0)
(29.6903 0.034574 0)
(29.5667 0.0492224 0)
(29.427 0.0689583 0)
(29.2515 0.096007 0)
(29.0292 0.133757 0)
(28.7524 0.186852 0)
(28.4121 0.263982 0)
(27.9837 0.377358 0)
(27.4629 0.553999 0)
(26.7616 0.837866 0)
(25.9199 1.31703 0)
(24.6357 2.09707 0)
(23.2415 3.41662 0)
(20.8268 5.84491 0)
(20.1884 9.79365 0)
(12.4394 21.8516 0)
(0.515333 0.0033582 0)
(-0.844475 0.0230984 0)
(-1.60556 0.00854585 0)
(-1.68234 -0.00146866 0)
(-1.43046 -0.00564121 0)
(-1.01697 -0.00488007 0)
(-0.810946 -0.00225418 0)
(-0.713254 -0.000534349 0)
(-0.732651 -0.000241173 0)
(-0.662833 2.32713e-05 0)
(-0.72883 0.000666506 0)
(-0.741717 -0.000135223 0)
(-0.735157 -0.000607404 0)
(-0.637405 -0.0019792 0)
(-0.294492 -0.00402223 0)
(0.405454 -0.0057344 0)
(1.33764 -0.00657562 0)
(2.41445 -0.00704171 0)
(3.64647 -0.00730814 0)
(5.00292 -0.00734864 0)
(6.47026 -0.00718643 0)
(8.01266 -0.00676954 0)
(9.5657 -0.00613166 0)
(11.05 -0.00538555 0)
(12.4516 -0.00471233 0)
(13.7855 -0.00413939 0)
(15.057 -0.00364257 0)
(16.2688 -0.00333919 0)
(17.5259 -0.00310443 0)
(18.7602 -0.00220778 0)
(19.4281 -0.00232308 0)
(20.909 -0.00822737 0)
(27.955 -0.0081963 0)
(29.8296 -0.00157809 0)
(29.8052 2.09515e-05 0)
(0.537273 0.00924945 0)
(-0.82538 0.0691842 0)
(-1.58221 0.0255385 0)
(-1.65653 -0.00418838 0)
(-1.40757 -0.016831 0)
(-0.99893 -0.0144949 0)
(-0.797975 -0.00670622 0)
(-0.705522 -0.00156008 0)
(-0.732656 -0.00080625 0)
(-0.661865 -9.92539e-05 0)
(-0.718523 0.00168646 0)
(-0.709106 -0.000548257 0)
(-0.681877 -0.00149391 0)
(-0.602588 -0.00516869 0)
(-0.318874 -0.0114201 0)
(0.343101 -0.0170072 0)
(1.29485 -0.0196957 0)
(2.41192 -0.0209736 0)
(3.66806 -0.021648 0)
(5.02437 -0.0217159 0)
(6.46848 -0.0213055 0)
(7.98891 -0.0202066 0)
(9.53632 -0.0183496 0)
(11.0241 -0.0161204 0)
(12.4326 -0.014113 0)
(13.7709 -0.0124108 0)
(15.0457 -0.0109258 0)
(16.2572 -0.0100011 0)
(17.5086 -0.00931541 0)
(18.747 -0.00669392 0)
(19.4452 -0.00667116 0)
(20.777 -0.0244609 0)
(27.8041 -0.0249509 0)
(29.8233 -0.00491988 0)
(29.8087 5.49292e-05 0)
(0.563987 0.0140767 0)
(-0.804347 0.115203 0)
(-1.55595 0.0422877 0)
(-1.62417 -0.00694919 0)
(-1.37434 -0.0280267 0)
(-0.972268 -0.0239259 0)
(-0.777346 -0.0110035 0)
(-0.690832 -0.00233862 0)
(-0.72242 -0.00119977 0)
(-0.646616 -0.000265558 0)
(-0.694758 0.00260253 0)
(-0.661862 -0.0016334 0)
(-0.623924 -0.00265089 0)
(-0.579009 -0.00789209 0)
(-0.355183 -0.0179665 0)
(0.282264 -0.027867 0)
(1.26358 -0.0329516 0)
(2.42238 -0.0350255 0)
(3.70073 -0.035872 0)
(5.05712 -0.0358446 0)
(6.48001 -0.0351886 0)
(7.9793 -0.0334721 0)
(9.52236 -0.0305555 0)
(11.0138 -0.0269245 0)
(12.4285 -0.0235707 0)
(13.7709 -0.0207021 0)
(15.0483 -0.0182033 0)
(16.259 -0.0166308 0)
(17.5043 -0.0154909 0)
(18.7443 -0.011248 0)
(19.4713 -0.0108614 0)
(20.6704 -0.0402516 0)
(27.6633 -0.0417838 0)
(29.8167 -0.0085343 0)
(29.8121 6.90589e-05 0)
(0.595383 0.0177014 0)
(-0.781535 0.161317 0)
(-1.52608 0.0587822 0)
(-1.58357 -0.00990075 0)
(-1.32975 -0.0391338 0)
(-0.935534 -0.0331386 0)
(-0.747743 -0.0151174 0)
(-0.667403 -0.00301377 0)
(-0.701782 -0.00165482 0)
(-0.621156 -0.000607665 0)
(-0.662234 0.00313813 0)
(-0.605678 -0.00296905 0)
(-0.56102 -0.00349302 0)
(-0.554117 -0.00978216 0)
(-0.389088 -0.0240015 0)
(0.224558 -0.0390783 0)
(1.23738 -0.0470456 0)
(2.44239 -0.0497945 0)
(3.74603 -0.050457 0)
(5.10481 -0.0499952 0)
(6.50866 -0.0489147 0)
(7.98718 -0.0466498 0)
(9.52533 -0.0427653 0)
(11.0201 -0.0377618 0)
(12.4407 -0.0330612 0)
(13.7867 -0.0290166 0)
(15.066 -0.0254906 0)
(16.2753 -0.0232459 0)
(17.5136 -0.0216578 0)
(18.7524 -0.0158718 0)
(19.5069 -0.0148284 0)
(20.5884 -0.0557317 0)
(27.5313 -0.0588113 0)
(29.8096 -0.0123945 0)
(29.8153 6.78115e-05 0)
(0.63156 0.0199869 0)
(-0.757022 0.207481 0)
(-1.49207 0.0748629 0)
(-1.53402 -0.0131895 0)
(-1.27408 -0.0501636 0)
(-0.888811 -0.0420767 0)
(-0.709759 -0.0190161 0)
(-0.635615 -0.00357867 0)
(-0.671523 -0.00213648 0)
(-0.586671 -0.00108121 0)
(-0.620255 0.00330254 0)
(-0.539173 -0.00456614 0)
(-0.491365 -0.00405228 0)
(-0.525893 -0.0108607 0)
(-0.418077 -0.0293775 0)
(0.172618 -0.0503408 0)
(1.21872 -0.0617653 0)
(2.47664 -0.0651447 0)
(3.81028 -0.0652832 0)
(5.17315 -0.0641025 0)
(6.55867 -0.0624641 0)
(8.01572 -0.0597091 0)
(9.5478 -0.0549672 0)
(11.0454 -0.0486368 0)
(12.4715 -0.0425885 0)
(13.8205 -0.0373513 0)
(15.1011 -0.0327802 0)
(16.308 -0.0298367 0)
(17.538 -0.0277985 0)
(18.7724 -0.0205505 0)
(19.553 -0.0186269 0)
(20.5302 -0.0708826 0)
(27.4072 -0.0759416 0)
(29.8022 -0.0164849 0)
(29.8183 4.97562e-05 0)
(0.672486 0.0207741 0)
(-0.730805 0.25371 0)
(-1.45329 0.0903737 0)
(-1.47456 -0.0169347 0)
(-1.20718 -0.0611582 0)
(-0.831909 -0.0507117 0)
(-0.66357 -0.0226827 0)
(-0.59548 -0.00404682 0)
(-0.632063 -0.0026507 0)
(-0.543853 -0.00168743 0)
(-0.568521 0.00308102 0)
(-0.461866 -0.00640308 0)
(-0.414118 -0.00426634 0)
(-0.492257 -0.0111127 0)
(-0.438575 -0.0340925 0)
(0.131719 -0.0615748 0)
(1.2134 -0.0770368 0)
(2.5329 -0.081056 0)
(3.90314 -0.0803175 0)
(5.27063 -0.0781306 0)
(6.63639 -0.075817 0)
(8.06984 -0.0726327 0)
(9.59392 -0.0671482 0)
(11.0936 -0.059542 0)
(12.5251 -0.052146 0)
(13.8766 -0.0456983 0)
(15.1572 -0.0400635 0)
(16.3601 -0.0363941 0)
(17.5798 -0.0338986 0)
(18.8061 -0.0252717 0)
(19.6111 -0.0222831 0)
(20.4954 -0.0856996 0)
(27.2902 -0.093122 0)
(29.7944 -0.0207893 0)
(29.8211 1.46329e-05 0)
(0.717932 0.0199184 0)
(-0.702799 0.300005 0)
(-1.409 0.105143 0)
(-1.40379 -0.021256 0)
(-1.12842 -0.072133 0)
(-0.764246 -0.0590048 0)
(-0.60884 -0.0260933 0)
(-0.546584 -0.00442819 0)
(-0.583276 -0.00319503 0)
(-0.492661 -0.00243167 0)
(-0.506643 0.00244533 0)
(-0.373351 -0.00844847 0)
(-0.328089 -0.00410397 0)
(-0.450482 -0.010582 0)
(-0.447298 -0.0382402 0)
(0.107054 -0.072839 0)
(1.22904 -0.0929054 0)
(2.62225 -0.0976107 0)
(4.03938 -0.0955991 0)
(5.41012 -0.0920605 0)
(6.75128 -0.088943 0)
(8.15688 -0.0853934 0)
(9.66998 -0.0792929 0)
(11.1707 -0.0704726 0)
(12.6075 -0.0617309 0)
(13.9611 -0.0540514 0)
(15.24 -0.0473309 0)
(16.4365 -0.0429055 0)
(17.6427 -0.0399408 0)
(18.8562 -0.0300212 0)
(19.6831 -0.0258131 0)
(20.4844 -0.100167 0)
(27.1796 -0.110314 0)
(29.7862 -0.025295 0)
(29.8237 -3.77358e-05 0)
(0.767696 0.0172629 0)
(-0.672894 0.346346 0)
(-1.35829 0.118968 0)
(-1.31991 -0.0262719 0)
(-1.03696 -0.0830734 0)
(-0.685009 -0.0669019 0)
(-0.54484 -0.0292169 0)
(-0.488149 -0.00473079 0)
(-0.524505 -0.00376321 0)
(-0.432324 -0.00332134 0)
(-0.433651 0.00138002 0)
(-0.272509 -0.0107066 0)
(-0.230955 -0.00355541 0)
(-0.397096 -0.00930906 0)
(-0.441391 -0.0419125 0)
(0.102688 -0.0842558 0)
(1.27363 -0.109511 0)
(2.75868 -0.114969 0)
(4.24095 -0.11121 0)
(5.61172 -0.105859 0)
(6.9178 -0.101783 0)
(8.28774 -0.0979459 0)
(9.78518 -0.0913788 0)
(11.2853 -0.0814229 0)
(12.7277 -0.0713411 0)
(14.0832 -0.0624029 0)
(15.3584 -0.054568 0)
(16.5443 -0.0493517 0)
(17.7321 -0.0459013 0)
(18.9264 -0.0347803 0)
(19.7718 -0.0292287 0)
(20.4989 -0.11427 0)
(27.0754 -0.127474 0)
(29.7778 -0.0299906 0)
(29.8261 -0.00010746 0)
(0.821399 0.0126572 0)
(-0.64092 0.392686 0)
(-1.30012 0.131608 0)
(-1.22105 -0.0320993 0)
(-0.932084 -0.0939422 0)
(-0.593414 -0.0743468 0)
(-0.470627 -0.0320233 0)
(-0.419129 -0.00496384 0)
(-0.454652 -0.00435194 0)
(-0.36145 -0.00436947 0)
(-0.347784 -0.00015491 0)
(-0.157211 -0.0131854 0)
(-0.1192 -0.00262732 0)
(-0.327888 -0.00731617 0)
(-0.417723 -0.0451712 0)
(0.122464 -0.0959661 0)
(1.35534 -0.127078 0)
(2.95784 -0.133408 0)
(4.53757 -0.127296 0)
(5.90668 -0.119481 0)
(7.15856 -0.114236 0)
(8.47882 -0.110214 0)
(9.95291 -0.10337 0)
(11.4498 -0.0923843 0)
(12.8983 -0.0809758 0)
(14.2561 -0.0707436 0)
(15.5252 -0.0617532 0)
(16.6943 -0.0557026 0)
(17.8556 -0.0517447 0)
(19.0217 -0.0395227 0)
(19.8806 -0.0325381 0)
(20.5421 -0.127987 0)
(26.978 -0.144554 0)
(29.7692 -0.0348646 0)
(29.8282 -0.000194538 0)
(0.878381 0.00596115 0)
(-0.606621 0.438941 0)
(-1.23326 0.14279 0)
(-1.1056 -0.0388472 0)
(-0.813484 -0.104683 0)
(-0.488976 -0.0812911 0)
(-0.385229 -0.0344886 0)
(-0.338327 -0.0051399 0)
(-0.372292 -0.00496352 0)
(-0.27812 -0.00559834 0)
(-0.246458 -0.00219506 0)
(-0.0243536 -0.0159273 0)
(0.0116881 -0.00134576 0)
(-0.237838 -0.00462161 0)
(-0.37212 -0.0480613 0)
(0.1714 -0.108116 0)
(1.48345 -0.145898 0)
(3.23476 -0.153352 0)
(4.96012 -0.144124 0)
(6.33854 -0.132868 0)
(7.50817 -0.126141 0)
(8.75488 -0.122078 0)
(10.1926 -0.115209 0)
(11.6815 -0.103344 0)
(13.1365 -0.0906375 0)
(14.4982 -0.0790667 0)
(15.7589 -0.0688575 0)
(16.9025 -0.0619121 0)
(18.0245 -0.0574189 0)
(19.1495 -0.0442099 0)
(20.0141 -0.0357458 0)
(20.6197 -0.141294 0)
(26.8885 -0.161495 0)
(29.7604 -0.0399043 0)
(29.8301 -0.000298823 0)
(0.937661 -0.00295164 0)
(-0.569649 0.484982 0)