/*--------------------------------*- C++ -*----------------------------------*\
| =========                 |                                                 |
| \\      /  F ield         | OpenFOAM: The Open Source CFD Toolbox           |
|  \\    /   O peration     | Version:  v1912                                 |
|   \\  /    A nd           | Website:  www.openfoam.com                      |
|    \\/     M anipulation  |                                                 |
\*---------------------------------------------------------------------------*/
FoamFile
{
    version     2.0;
    format      ascii;
    class       volScalarField;
    location    "700";
    object      p;
}
// * * * * * * * * * * * * * * * * * * * * * * * * * * * * * * * * * * * * * //

dimensions      [0 2 -2 0 0 0 0];


internalField   nonuniform List<scalar> 
2000
(
-0.0459746
0.0714367
0.126017
0.119128
0.1033
0.0969951
0.0963899
0.0977386
0.097956
0.0977347
0.0978748
0.0975517
0.0972942
0.0972385
0.0972962
0.097318
0.0972749
0.0972534
0.0972478
0.0972513
0.0972551
0.0972486
0.0972272
0.0971926
0.0971513
0.0971096
0.0970727
0.0970421
0.0970154
0.0969899
0.0969637
0.0969362
0.0969076
0.096878
0.0968477
0.0968174
0.0967877
0.096759
0.0967311
0.0967043
0.0966787
0.0966547
0.0966329
0.0966138
0.0965981
0.0965861
0.0965784
0.096576
0.0965808
0.0965926
0.0966013
0.096564
0.096362
0.0957525
0.0943735
0.0918351
0.0878502
0.0823719
0.0758722
0.0697809
0.0662029
0.0662414
0.0708797
0.0797054
0.0917492
0.106002
0.121616
0.137799
0.153642
0.168065
0.180029
0.188663
0.193134
0.192629
0.186356
0.173647
0.153374
0.125337
0.0838291
0.0415322
0.00727249
0.0924489
0.131267
0.118071
0.10033
0.0961323
0.0996738
0.102114
0.0993595
0.0961157
0.0956783
0.0969784
0.0974265
0.0972944
0.0975189
0.0974208
0.0972969
0.0971943
0.0971594
0.097148
0.0971658
0.0972061
0.0972131
0.0971897
0.0971545
0.0971172
0.0970821
0.0970509
0.0970241
0.0969989
0.0969704
0.0969405
0.0969103
0.0968803
0.0968502
0.0968203
0.0967913
0.0967641
0.0967383
0.0967134
0.0966896
0.0966673
0.0966468
0.0966281
0.0966111
0.096596
0.0965835
0.0965778
0.0965925
0.0966509
0.0967562
0.0968206
0.0965632
0.0954257
0.0926366
0.0875357
0.079974
0.0705598
0.0609341
0.054197
0.0539059
0.0592229
0.0676855
0.078573
0.0914104
0.105836
0.121282
0.136985
0.152038
0.165438
0.176178
0.183284
0.185858
0.183166
0.174542
0.159447
0.136972
0.107284
0.0663901
0.0294325
0.0583404
0.0921383
0.11483
0.113273
0.104074
0.0998994
0.0999376
0.0993003
0.0973943
0.0967096
0.0982997
0.0998984
0.0989182
0.0964588
0.0955647
0.0964385
0.097323
0.0974986
0.097339
0.0972338
0.0971753
0.0971387
0.0971199
0.0971321
0.09714
0.0971294
0.0970993
0.0970548
0.0970191
0.0969843
0.0969575
0.0969325
0.0969076
0.0968839
0.0968615
0.0968383
0.0968134
0.0967875
0.0967621
0.0967383
0.0967174
0.0967
0.0966846
0.096668
0.0966519
0.096653
0.0967044
0.0968394
0.0970871
0.0974577
0.0978915
0.0981668
0.0978692
0.0963811
0.093032
0.087412
0.0797567
0.071279
0.0640274
0.0595722
0.0585928
0.0620813
0.0693878
0.0793809
0.0912824
0.104624
0.118836
0.133102
0.146473
0.157964
0.166628
0.171612
0.172204
0.167844
0.158056
0.142498
0.12058
0.0928351
0.0565479
0.024995
0.0833276
0.0933413
0.105891
0.109971
0.107278
0.104259
0.102598
0.100866
0.0992438
0.0984266
0.0982397
0.0981422
0.0977976
0.097103
0.0965789
0.0975229
0.0987766
0.0980383
0.0968796
0.0964773
0.0964264
0.0965994
0.0968876
0.0971118
0.0972416
0.0973201
0.0973637
0.0973402
0.0972555
0.0971561
0.09706
0.0969778
0.0969169
0.096884
0.0968656
0.0968486
0.0968259
0.0968032
0.0967829
0.0967658
0.0967537
0.0967473
0.0967423
0.0967314
0.0967169
0.0967296
0.0968315
0.097054
0.0974374
0.097978
0.0986356
0.099057
0.0988589
0.0975061
0.0944966
0.0896095
0.0831301
0.0758701
0.0690051
0.0644139
0.0631955
0.0660329
0.0725153
0.0816175
0.0925006
0.104556
0.117123
0.129387
0.14047
0.149532
0.155813
0.158663
0.157546
0.152042
0.141796
0.126582
0.106008
0.0806851
0.0487255
0.0208055
0.0956682
0.0992687
0.106788
0.110759
0.10963
0.107301
0.10592
0.104881
0.103579
0.102128
0.100777
0.0996891
0.0989624
0.0981251
0.0971626
0.0971919
0.097746
0.0979602
0.0978112
0.0973592
0.0970186
0.0969045
0.0969622
0.0971417
0.0973336
0.0974474
0.0974056
0.0972235
0.0970941
0.0969944
0.096917
0.0968602
0.0968234
0.0968247
0.0968487
0.0968681
0.0968756
0.0968649
0.0968417
0.096816
0.0967929
0.0967728
0.0967502
0.0967106
0.0966428
0.0965587
0.0965322
0.0967083
0.0970822
0.0976236
0.0982312
0.0986365
0.0984373
0.0971522
0.0943733
0.0899713
0.0842621
0.0780674
0.0726359
0.0693821
0.0691364
0.0721148
0.0779598
0.0859502
0.0953575
0.105548
0.115886
0.125683
0.134235
0.140886
0.145052
0.146227
0.143986
0.137976
0.127889
0.113535
0.0945971
0.0716605
0.0432335
0.0181867
0.104109
0.105943
0.109897
0.112067
0.111252
0.109644
0.108686
0.10801
0.107051
0.10586
0.104731
0.103741
0.102729
0.101407
0.100033
0.0993247
0.0991945
0.0990645
0.0984989
0.0976143
0.0969976
0.0967934
0.0968816
0.0970882
0.0972582
0.0973518
0.097392
0.0973857
0.0973062
0.097197
0.0970871
0.0969911
0.0969169
0.0968801
0.0968367
0.0967902
0.0967568
0.0967415
0.0967244
0.0967094
0.0967049
0.0967114
0.0967238
0.0967349
0.0967456
0.0967816
0.0969055
0.0971902
0.0976282
0.0981614
0.0986668
0.0989088
0.098559
0.0972835
0.0948613
0.0913149
0.0870016
0.0826113
0.0790326
0.0771294
0.0774531
0.0801457
0.0849872
0.0914883
0.0990641
0.107153
0.115213
0.122697
0.129054
0.133763
0.13635
0.136389
0.133498
0.127345
0.117622
0.104135
0.0865781
0.0654836
0.0395025
0.0165486
0.11092
0.111743
0.112981
0.113318
0.112532
0.111547
0.110888
0.110349
0.109681
0.108925
0.108201
0.107481
0.106622
0.105514
0.104347
0.103493
0.102979
0.102381
0.101411
0.100312
0.0994961
0.0990559
0.0988653
0.098774
0.0986876
0.0985852
0.0984657
0.0983026
0.0980856
0.0978704
0.0976894
0.0975439
0.0974265
0.097365
0.0975109
0.0975851
0.0975906
0.09761
0.0976545
0.0977175
0.0978003
0.0979042
0.0980268
0.0981655
0.0983244
0.0985224
0.0987934
0.0991696
0.0996404
0.100142
0.100555
0.100695
0.100338
0.0992768
0.0974069
0.0947977
0.091739
0.088722
0.08635
0.0852022
0.0856771
0.0878932
0.0916999
0.0967484
0.102599
0.108807
0.114939
0.120555
0.125213
0.128478
0.129937
0.129203
0.125913
0.119737
0.110361
0.097573
0.0810571
0.0612901
0.0369623
0.0155099
0.116797
0.116742
0.115827
0.114618
0.113795
0.113278
0.112802
0.112331
0.111888
0.111451
0.110999
0.110502
0.109903
0.109162
0.108356
0.107664
0.107123
0.106495
0.105628
0.104674
0.103874
0.103305
0.102906
0.102592
0.102315
0.102052
0.101792
0.10152
0.101243
0.100995
0.100796
0.100647
0.100556
0.100549
0.100642
0.100703
0.100732
0.100784
0.100873
0.100993
0.101137
0.101306
0.101497
0.101709
0.101943
0.10221
0.102524
0.102894
0.103301
0.103686
0.10395
0.103962
0.103574
0.102663
0.101185
0.099214
0.096972
0.0948091
0.0931456
0.092381
0.0927954
0.0944822
0.0973478
0.101157
0.105593
0.110312
0.11496
0.119171
0.122567
0.12477
0.125406
0.124116
0.12055
0.114382
0.10529
0.093043
0.0773023
0.058486
0.035295
0.0148339
0.122201
0.121212
0.118248
0.115704
0.114949
0.11486
0.114526
0.114118
0.113853
0.113635
0.113366
0.11304
0.112652
0.112173
0.111636
0.111145
0.110732
0.110259
0.109624
0.108905
0.108254
0.107748
0.107363
0.107048
0.106765
0.106493
0.106224
0.105955
0.105694
0.105457
0.105261
0.105113
0.105022
0.104993
0.104995
0.105039
0.105095
0.105165
0.105262
0.105384
0.105527
0.10569
0.10587
0.106064
0.106274
0.106503
0.106753
0.107024
0.107293
0.107512
0.107607
0.107484
0.107049
0.106225
0.104996
0.103428
0.101688
0.100029
0.0987508
0.0981407
0.098407
0.0996328
0.101767
0.104646
0.108031
0.111643
0.115185
0.118341
0.120783
0.122176
0.122182
0.120466
0.116697
0.110551
0.1017
0.0898889
0.0747468
0.056628
0.0342312
0.014378
0.127431
0.125244
0.120049
0.116406
0.115942
0.116269
0.11604
0.115717
0.115632
0.1156
0.115478
0.115286
0.115044
0.114733
0.114372
0.114033
0.113742
0.113408
0.112956
0.112431
0.111944
0.111562
0.111273
0.111035
0.110817
0.110604
0.11039
0.110176
0.109967
0.109775
0.109615
0.109494
0.10942
0.109391
0.109347
0.109377
0.109431
0.109489
0.10956
0.10965
0.109756
0.109876
0.110005
0.110144
0.11029
0.110443
0.110602
0.11076
0.110898
0.110975
0.110937
0.110717
0.110248
0.109481
0.108414
0.107101
0.105672
0.104317
0.103261
0.102719
0.102854
0.103736
0.105335
0.107527
0.110123
0.11289
0.115575
0.117906
0.119594
0.120344
0.11985
0.117803
0.113887
0.107784
0.0991553
0.0877194
0.0730614
0.0554701
0.033614
0.0141089
0.13267
0.12882
0.121127
0.116737
0.116828
0.11752
0.117348
0.117134
0.117237
0.117374
0.117385
0.117314
0.117192
0.117007
0.116773
0.116542
0.116337
0.116095
0.115763
0.115373
0.115011
0.114727
0.114515
0.114343
0.114184
0.114028
0.113871
0.113712
0.113556
0.113412
0.11329
0.113197
0.113135
0.113093
0.113059
0.113075
0.113112
0.113151
0.113199
0.113261
0.113334
0.113415
0.113502
0.113591
0.113682
0.113772
0.113858
0.113931
0.113974
0.113954
0.113829
0.113549
0.113065
0.112348
0.111398
0.110265
0.10905
0.107901
0.106992
0.10649
0.106522
0.107145
0.108337
0.109999
0.111977
0.114074
0.116073
0.117737
0.118815
0.119044
0.11815
0.115848
0.111836
0.105799
0.0973862
0.0862877
0.0720354
0.0548544
0.0333316
0.0140266
0.138036
0.131867
0.121453
0.116794
0.117661
0.118624
0.118474
0.118397
0.118684
0.118965
0.119095
0.119136
0.119126
0.119052
0.118924
0.118785
0.118651
0.11848
0.118234
0.117941
0.117665
0.117448
0.117288
0.117159
0.117043
0.116928
0.116811
0.116693
0.116576
0.116467
0.116374
0.116301
0.116251
0.116214
0.116193
0.116201
0.116227
0.116257
0.116292
0.116335
0.116386
0.11644
0.116495
0.116549
0.116599
0.116643
0.116675
0.116686
0.116661
0.116574
0.116391
0.116074
0.115589
0.114914
0.114055
0.113055
0.111995
0.110994
0.110188
0.109708
0.109654
0.11007
0.110938
0.112176
0.113653
0.115204
0.11664
0.117755
0.118332
0.118137
0.116926
0.114433
0.11037
0.10442
0.0962198
0.0854314
0.0715271
0.054675
0.0333098
0.0141452
0.143609
0.134281
0.121061
0.116698
0.118461
0.119578
0.119444
0.119532
0.119988
0.120389
0.120622
0.120766
0.120856
0.120881
0.120849
0.120792
0.120726
0.120621
0.120449
0.120234
0.120027
0.119864
0.119744
0.119651
0.119566
0.119482
0.119395
0.119307
0.119219
0.119136
0.119064
0.119006
0.118964
0.118943
0.118929
0.118932
0.118951
0.118974
0.118999
0.119029
0.119062
0.119095
0.119126
0.119152
0.11917
0.119176
0.119166
0.11913
0.119054
0.118918
0.118694
0.118352
0.117868
0.117229
0.116441
0.115541
0.114598
0.113705
0.112971
0.112501
0.11237
0.112614
0.113214
0.114101
0.115164
0.116261
0.11723
0.117893
0.118061
0.11753
0.116075
0.113449
0.109371
0.103524
0.0955305
0.0850257
0.0714222
0.0548436
0.0334919
0.0144692
0.149428
0.135943
0.120048
0.116566
0.119227
0.120386
0.120291
0.12056
0.121162
0.121663
0.121988
0.122224
0.122403
0.122513
0.122564
0.122583
0.122582
0.122538
0.122432
0.122285
0.122138
0.122022
0.121941
0.121879
0.121823
0.121766
0.121705
0.121641
0.121578
0.121517
0.121462
0.121418
0.121387
0.121372
0.121362
0.121364
0.121377
0.121393
0.121411
0.121429
0.121447
0.121463
0.121474
0.121477
0.121468
0.121443
0.121398
0.121323
0.121207
0.121031
0.120774
0.120413
0.119931
0.119318
0.118583
0.117759
0.116901
0.116086
0.115399
0.114924
0.114719
0.114812
0.115183
0.115774
0.11649
0.11721
0.117797
0.118097
0.117943
0.117153
0.115522
0.112813
0.108749
0.103013
0.0952111
0.0849601
0.0716157
0.055275
0.0338289
0.0149799
0.155502
0.136746
0.118561
0.116487
0.119941
0.12106
0.121042
0.121495
0.12222
0.122804
0.123212
0.123531
0.123786
0.123971
0.124095
0.12418
0.124237
0.124249
0.124202
0.124114
0.12402
0.123948
0.123901
0.123868
0.123839
0.123807
0.12377
0.123729
0.123687
0.123645
0.123605
0.123574
0.123553
0.123542
0.123535
0.123536
0.123545
0.123557
0.123566
0.123575
0.123581
0.123582
0.123575
0.123557
0.123525
0.123473
0.123397
0.123288
0.123136
0.122925
0.122638
0.122259
0.121773
0.121176
0.120477
0.119704
0.118903
0.118135
0.117471
0.116975
0.116695
0.11665
0.116823
0.117165
0.117596
0.118014
0.1183
0.11832
0.117926
0.11695
0.1152
0.112448
0.108419
0.102791
0.0951604
0.0851306
0.0720069
0.055884
0.0342766
0.0156333
0.161809
0.136613
0.116776
0.116512
0.120579
0.12162
0.12172
0.122347
0.123172
0.123827
0.124311
0.124702
0.125025
0.125276
0.125463
0.125608
0.125717
0.125778
0.125783
0.125747
0.1257
0.125666
0.12565
0.125644
0.125639
0.12563
0.125614
0.125593
0.125571
0.125545
0.125519
0.125499
0.125485
0.125479
0.125475
0.125476
0.125481
0.125487
0.12549
0.125489
0.125482
0.125468
0.125444
0.125405
0.125349
0.12527
0.125163
0.12502
0.124831
0.124585
0.124267
0.123863
0.123365
0.12277
0.122088
0.121341
0.120569
0.119823
0.119159
0.118629
0.118272
0.118104
0.118111
0.118253
0.118461
0.118649
0.118711
0.118529
0.117967
0.116869
0.115048
0.112282
0.108297
0.102769
0.0952862
0.0854451
0.0725069
0.0565908
0.0347969
0.0163749
0.168299
0.135534
0.114873
0.116649
0.121121
0.122089
0.122342
0.123123
0.124027
0.124746
0.125297
0.125753
0.126136
0.126445
0.126688
0.126884
0.12704
0.127146
0.127196
0.127204
0.127198
0.127198
0.127209
0.127227
0.127243
0.127253
0.127256
0.127252
0.127245
0.127233
0.127218
0.127206
0.127198
0.127193
0.12719
0.127188
0.127187
0.127183
0.127175
0.127161
0.127138
0.127105
0.127058
0.126994
0.126909
0.126799
0.126657
0.126476
0.126249
0.125963
0.12561
0.125177
0.124658
0.124052
0.12337
0.12263
0.121867
0.121121
0.120442
0.119872
0.119446
0.119176
0.119054
0.119045
0.119091
0.119115
0.119023
0.118705
0.118036
0.116863
0.115007
0.112246
0.108309
0.10287
0.0955123
0.0858303
0.0730475
0.0573297
0.0353564
0.0171542
0.174887
0.133531
0.113011
0.116882
0.121561
0.122492
0.122916
0.123825
0.124792
0.125567
0.126179
0.12669
0.127124
0.127482
0.127773
0.128014
0.12821
0.128354
0.128442
0.128488
0.128515
0.128542
0.128576
0.128612
0.128644
0.128669
0.128684
0.128691
0.128697
0.128691
0.128681
0.128671
0.128662
0.128653
0.128643
0.128631
0.128617
0.128598
0.128572
0.128538
0.128493
0.128434
0.12836
0.128266
0.128149
0.128004
0.127825
0.127606
0.12734
0.127016
0.126627
0.126164
0.125622
0.125001
0.124309
0.123566
0.122799
0.122045
0.121346
0.12074
0.120257
0.119912
0.119697
0.119583
0.119519
0.119435
0.119245
0.118844
0.118111
0.116899
0.115031
0.112288
0.108398
0.103036
0.095783
0.0862348
0.0735819
0.0580521
0.035926
0.0179312
0.181481
0.130702
0.111303
0.117166
0.1219
0.122843
0.123437
0.124446
0.125461
0.126282
0.126941
0.127496
0.12797
0.128366
0.128694
0.128969
0.129196
0.129369
0.129485
0.129558
0.129608
0.129655
0.129702
0.12975
0.129791
0.129823
0.129844
0.129858
0.129862
0.129853
0.129841
0.129827
0.129809
0.129789
0.129766
0.129738
0.129706
0.129668
0.129621
0.129563
0.129493
0.129409
0.129307
0.129184
0.129036
0.12886
0.128649
0.128398
0.128099
0.127745
0.127328
0.12684
0.126278
0.125643
0.124942
0.124191
0.123418
0.122654
0.121937
0.121303
0.120781
0.120384
0.120108
0.119927
0.119794
0.119644
0.119395
0.118948
0.118182
0.116954
0.115089
0.112369
0.108523
0.103228
0.0960623
0.0866262
0.0740821
0.0587271
0.0364844
0.0186786
0.18799
0.127176
0.109818
0.117455
0.122145
0.123139
0.123882
0.124958
0.126001
0.126853
0.127543
0.128127
0.128626
0.129046
0.129397
0.129694
0.129941
0.130131
0.130264
0.130354
0.130418
0.130474
0.130528
0.130579
0.130623
0.130656
0.130678
0.130688
0.130683
0.13067
0.130652
0.130629
0.1306
0.130568
0.13053
0.130487
0.130438
0.130382
0.130316
0.130238
0.130148
0.130043
0.129919
0.129774
0.129604
0.129405
0.129172
0.128898
0.128577
0.128202
0.127766
0.127263
0.126688
0.126043
0.125335
0.124579
0.1238
0.123028
0.122299
0.121647
0.121098
0.120669
0.120355
0.120133
0.119959
0.119772
0.119492
0.119022
0.118243
0.117014
0.11516
0.112465
0.10866
0.103422
0.0963286
0.0869868
0.0745345
0.0593385
0.0370175
0.0193816
0.194335
0.123113
0.108596
0.117708
0.122307
0.123362
0.12421
0.125319
0.126375
0.127242
0.127949
0.128547
0.129059
0.129492
0.129856
0.130164
0.130421
0.130619
0.130762
0.130859
0.13093
0.13099
0.131046
0.131097
0.13114
0.131171
0.131191
0.131194
0.131185
0.131168
0.131143
0.131112
0.131074
0.131032
0.130984
0.13093
0.130869
0.130801
0.130722
0.130632
0.130528
0.130409
0.130272
0.130114
0.12993
0.129717
0.12947
0.129184
0.128851
0.128464
0.128018
0.127505
0.126924
0.126273
0.125562
0.124803
0.124021
0.123244
0.122507
0.121842
0.121278
0.120829
0.120493
0.120248
0.120053
0.119847
0.119552
0.119073
0.118293
0.11707
0.115231
0.112561
0.108793
0.103604
0.0965718
0.0873095
0.0749354
0.0598804
0.0375169
0.0200355
0.200518
0.118779
0.107664
0.117901
0.12239
0.123494
0.124403
0.125525
0.126585
0.127458
0.128173
0.128778
0.129296
0.129735
0.130104
0.130418
0.130679
0.130882
0.131028
0.13113
0.131203
0.131264
0.13132
0.131371
0.131413
0.131443
0.131458
0.131461
0.131449
0.131428
0.131399
0.131363
0.13132
0.131272
0.131218
0.131158
0.131091
0.131015
0.13093
0.130833
0.130722
0.130596
0.130452
0.130287
0.130096
0.129877
0.129623
0.12933
0.128991
0.1286
0.128149
0.127633
0.127048
0.126396
0.125683
0.124924
0.124139
0.123359
0.122617
0.121946
0.121373
0.120912
0.120564
0.120307
0.120101
0.119887
0.119588
0.119108
0.118332
0.11712
0.115297
0.112652
0.108915
0.103769
0.096789
0.0875942
0.0752878
0.0603551
0.0379795
0.0206443
0.206682
0.114691
0.107029
0.118018
0.122408
0.123542
0.124482
0.12561
0.126672
0.12755
0.128268
0.128876
0.129397
0.129839
0.130211
0.130527
0.13079
0.130995
0.131143
0.131246
0.131321
0.131383
0.131439
0.131489
0.13153
0.131559
0.131574
0.131576
0.131563
0.13154
0.131509
0.131471
0.131426
0.131376
0.131319
0.131256
0.131186
0.131108
0.131019
0.130919
0.130806
0.130677
0.13053
0.130362
0.130169
0.129947
0.129691
0.129396
0.129055
0.128662
0.128209
0.127693
0.127108
0.126456
0.125743
0.124983
0.124198
0.123417
0.122672
0.121996
0.121417
0.120951
0.120596
0.120334
0.120124
0.119908
0.119609
0.119133
0.118364
0.117163
0.115357
0.112735
0.109028
0.103919
0.0969847
0.0878488
0.0756029
0.0607756
0.0384114
0.0212273
0.212779
0.111485
0.106633
0.118067
0.122388
0.123536
0.124489
0.125625
0.12669
0.12757
0.12829
0.1289
0.129423
0.129866
0.13024
0.130557
0.130822
0.131027
0.131176
0.13128
0.131355
0.131417
0.131473
0.131524
0.131564
0.131593
0.131608
0.13161
0.131597
0.131574
0.131543
0.131504
0.131459
0.131408
0.13135
0.131287
0.131216
0.131137
0.131047
0.130947
0.130832
0.130703
0.130555
0.130386
0.130193
0.12997
0.129714
0.129419
0.129078
0.128685
0.128233
0.127717
0.127133
0.126482
0.12577
0.125011
0.124226
0.123443
0.122697
0.122019
0.121437
0.120967
0.120609
0.120344
0.120132
0.119917
0.119621
0.119151
0.118391
0.117203
0.115414
0.112813
0.109134
0.10406
0.0971683
0.0880862
0.075897
0.0611643
0.0388242
0.0218175
0.217506
0.109543
0.106407
0.118094
0.122365
0.123511
0.124474
0.125615
0.126683
0.127565
0.128286
0.128897
0.12942
0.129864
0.130238
0.130556
0.130821
0.131027
0.131176
0.13128
0.131355
0.131418
0.131475
0.131525
0.131566
0.131595
0.131611
0.131613
0.131599
0.131576
0.131545
0.131506
0.131461
0.13141
0.131353
0.131289
0.131218
0.131139
0.13105
0.13095
0.130836
0.130706
0.130559
0.13039
0.130197
0.129975
0.129719
0.129425
0.129084
0.128692
0.128242
0.127727
0.127144
0.126494
0.125783
0.125024
0.124239
0.123456
0.122708
0.122029
0.121445
0.120973
0.120613
0.120347
0.120136
0.119922
0.119629
0.119165
0.118414
0.117237
0.115463
0.112882
0.109228
0.104185
0.0973307
0.0882959
0.0761554
0.0615074
0.0391834
0.0223796
)
;

boundaryField
{
    inlet
    {
        type            zeroGradient;
    }
    outlet
    {
        type            fixedValue;
        value           uniform 0;
    }
    fixedWalls
    {
        type            zeroGradient;
    }
    frontAndBack
    {
        type            empty;
    }
}


// ************************************************************************* //
