/*--------------------------------*- C++ -*----------------------------------*\
| =========                 |                                                 |
| \\      /  F ield         | OpenFOAM: The Open Source CFD Toolbox           |
|  \\    /   O peration     | Version:  v1912                                 |
|   \\  /    A nd           | Website:  www.openfoam.com                      |
|    \\/     M anipulation  |                                                 |
\*---------------------------------------------------------------------------*/
FoamFile
{
    version     2.0;
    format      ascii;
    class       surfaceScalarField;
    location    "700";
    object      phi;
}
// * * * * * * * * * * * * * * * * * * * * * * * * * * * * * * * * * * * * * //

dimensions      [0 3 -1 0 0 0 0];
oriented        oriented;


internalField   nonuniform List<scalar> 
3895
(
0.000814746
0.00038143
0.000499361
0.000315385
0.000251565
0.000247796
6.4863e-05
0.000186702
-6.21962e-05
0.000127059
-0.000127327
6.51303e-05
-0.000137638
1.03119e-05
-0.000113632
-2.40063e-05
-9.03516e-05
-2.32805e-05
-8.49481e-05
-5.40355e-06
-6.61308e-05
-1.88173e-05
-4.47481e-05
-2.13827e-05
-4.04694e-05
-4.27872e-06
-4.86787e-05
8.20923e-06
-4.57265e-05
-2.95217e-06
-3.2072e-05
-1.36545e-05
-2.51603e-05
-6.91166e-06
-2.59431e-05
7.8282e-07
-2.89653e-05
3.02216e-06
-3.05096e-05
1.54429e-06
-2.92076e-05
-1.30202e-06
-2.49195e-05
-4.28803e-06
-1.85949e-05
-6.32462e-06
-1.19852e-05
-6.6097e-06
-6.20488e-06
-5.78034e-06
-1.89685e-06
-4.30803e-06
8.50587e-07
-2.74744e-06
2.46282e-06
-1.61223e-06
3.51976e-06
-1.05695e-06
4.4294e-06
-9.09644e-07
5.3191e-06
-8.89697e-07
6.16406e-06
-8.44956e-07
6.94561e-06
-7.81558e-07
7.62851e-06
-6.82895e-07
8.14033e-06
-5.11829e-07
8.41521e-06
-2.74877e-07
8.39925e-06
1.59587e-08
8.00655e-06
3.92703e-07
7.24512e-06
7.61423e-07
6.07239e-06
1.17273e-06
4.40789e-06
1.6645e-06
2.14196e-06
2.26594e-06
-8.50796e-07
2.99275e-06
-4.69556e-06
3.84476e-06
-9.50715e-06
4.81159e-06
-1.54315e-05
5.92434e-06
-2.27936e-05
7.36208e-06
-3.22914e-05
9.49781e-06
-4.52446e-05
1.29532e-05
-6.38e-05
1.85554e-05
-9.08584e-05
2.70584e-05
-0.000129458
3.85999e-05
-0.000181938
5.248e-05
-0.000249234
6.72958e-05
-0.000329996
8.07615e-05
-0.000419767
8.97717e-05
-0.000511204
9.14367e-05
-0.000595403
8.41995e-05
-0.00066349
6.80867e-05
-0.00070671
4.32201e-05
-0.000714126
7.41606e-06
-0.000696269
-1.78576e-05
-0.000657436
-3.8833e-05
-0.000601213
-5.62224e-05
-0.00053151
-6.97031e-05
-0.000451376
-8.01343e-05
-0.000362801
-8.85745e-05
-0.000267335
-9.54668e-05
-0.000166584
-0.000100751
-6.22435e-05
-0.00010434
4.3719e-05
-0.000105962
0.00014934
-0.000105621
0.000253042
-0.000103702
0.00035347
-0.000100428
0.000449739
-9.62682e-05
0.000541769
-9.20305e-05
0.000629811
-8.80418e-05
0.000716993
-8.71825e-05
0.000803661
-8.6668e-05
-0.000107435
0.00108795
0.000349294
0.00104738
0.000355946
0.000933278
0.000361903
0.000775747
0.000344233
0.000598431
0.000304375
0.000410383
0.000253178
0.000221248
0.000199447
5.3877e-05
0.000143365
-6.04244e-05
9.10209e-05
-0.000110188
4.43597e-05
-0.000131881
2.87592e-06
-0.000123965
-2.92988e-05
-0.000105665
-2.25786e-05
-0.000107776
1.03203e-05
-0.000103365
-7.363e-06
-9.07394e-05
-2.62803e-05
-7.67508e-05
-2.09002e-05
-7.88673e-05
2.8993e-06
-8.71375e-05
1.12924e-05
-9.26411e-05
7.0479e-06
-9.45985e-05
6.55374e-07
-9.09743e-05
-7.91217e-06
-8.4822e-05
-1.2477e-05
-7.80838e-05
-1.33478e-05
-7.15191e-05
-1.23451e-05
-6.58582e-05
-9.96893e-06
-6.17199e-05
-6.8857e-06
-5.95645e-05
-3.76768e-06
-5.92688e-05
-1.35256e-06
-6.03308e-05
1.5227e-07
-6.25575e-05
1.33701e-06
-6.52639e-05
1.86148e-06
-6.81425e-05
2.09705e-06
-7.11133e-05
2.28785e-06
-7.43052e-05
2.68011e-06
-7.78672e-05
3.2871e-06
-8.1914e-05
4.06279e-06
-8.64881e-05
4.9668e-06
-9.16987e-05
5.972e-06
-9.75896e-05
7.06363e-06
-0.000104168
8.24268e-06
-0.000111425
9.52351e-06
-0.000119348
1.09149e-05
-0.000127899
1.2396e-05
-0.000136999
1.39123e-05
-0.000146522
1.54465e-05
-0.000156359
1.71992e-05
-0.000166517
1.96563e-05
-0.000177127
2.35626e-05
-0.000188336
2.97644e-05
-0.000200368
3.90913e-05
-0.000213556
5.17876e-05
-0.000227932
6.68558e-05
-0.000242646
8.20101e-05
-0.000255516
9.36314e-05
-0.000262673
9.69286e-05
-0.0002593
8.80632e-05
-0.000241261
6.61611e-05
-0.000207311
3.41365e-05
-0.000166384
2.2931e-06
-0.000119802
-3.9166e-05
-6.78315e-05
-6.98281e-05
-1.32675e-05
-9.33969e-05
4.29574e-05
-0.000112447
0.000102441
-0.000129187
0.000166392
-0.000144085
0.000234703
-0.000156886
0.00030634
-0.000167103
0.000379771
-0.000174182
0.000453223
-0.000177792
0.000525167
-0.000177906
0.000594362
-0.000174816
0.00065974
-0.000169081
0.00072073
-0.000161418
0.000777169
-0.000152707
0.000829163
-0.000144025
0.000877575
-0.000136454
0.000922435
-0.000132042
0.000966459
-0.000130692
-0.000142014
0.000975282
0.000305926
0.00102604
0.000305187
0.00106097
0.000326974
0.00105862
0.000346584
0.00101217
0.00035082
0.000925048
0.000340304
0.000805752
0.000318743
0.000661765
0.000287352
0.000504929
0.000247857
0.000345844
0.000203445
0.000190168
0.000158552
4.70569e-05
0.000113812
-4.98374e-05
7.43157e-05
-8.59817e-05
4.64646e-05
-0.000105862
1.25177e-05
-0.000113862
-1.82806e-05
-0.000101855
-3.29077e-05
-9.15328e-05
-7.42244e-06
-9.89872e-05
1.87467e-05
-0.000108446
1.65066e-05
-0.000114956
7.165e-06
-0.000119596
-3.27163e-06
-0.000121681
-1.03924e-05
-0.000120593
-1.44356e-05
-0.000118977
-1.39614e-05
-0.000118717
-1.0228e-05
-0.000120413
-5.19021e-06
-0.000124233
5.27094e-08
-0.000128312
2.72622e-06
-0.000132821
4.66157e-06
-0.000137349
5.86426e-06
-0.000141937
6.44949e-06
-0.000146465
6.62515e-06
-0.000150841
6.66404e-06
-0.000155127
6.96614e-06
-0.000159484
7.64369e-06
-0.000164008
8.58728e-06
-0.000168682
9.64079e-06
-0.00017343
1.07203e-05
-0.000178168
1.18016e-05
-0.000182802
1.28759e-05
-0.000187228
1.39499e-05
-0.00019133
1.50171e-05
-0.000194916
1.5982e-05
-0.000197629
1.66248e-05
-0.000198808
1.66263e-05
-0.000197421
1.58114e-05
-0.000192487
1.47229e-05
-0.000183024
1.40991e-05
-0.000167966
1.47066e-05
-0.000145935
1.70604e-05
-0.000116214
2.20661e-05
-7.79563e-05
2.85986e-05
-3.05565e-05
3.46103e-05
2.56828e-05
3.73921e-05
8.81893e-05
3.44221e-05
0.000152436
2.38161e-05
0.000212195
6.40288e-06
0.000266821
-2.04898e-05
0.000318792
-4.96774e-05
0.000361219
-8.1593e-05
0.000402398
-0.000111007
0.000445782
-0.000136781
0.000492925
-0.00015959
0.000543324
-0.000179586
0.000595607
-0.000196369
0.000648068
-0.000209346
0.000699
-0.000218036
0.000746999
-0.000222182
0.000791041
-0.000221834
0.000830502
-0.000217366
0.000865113
-0.000209428
0.000894909
-0.000198877
0.000920188
-0.000186697
0.000941426
-0.000173944
0.000959126
-0.000161724
0.000973888
-0.000151217
0.000985589
-0.000143743
0.000995293
-0.000140396
-0.000144853
0.000857109
0.000271374
0.000897355
0.000264941
0.000950164
0.000274165
0.00100471
0.000292042
0.00104637
0.000309153
0.00106531
0.000321372
0.00105664
0.000327411
0.00101794
0.000326054
0.000949553
0.000316241
0.000855081
0.000297916
0.000740895
0.000272737
0.000611932
0.000242776
0.000476494
0.000209754
0.000348327
0.000174631
0.000223535
0.00013731
0.000102249
0.000103006
-1.3929e-07
6.94802e-05
-5.16245e-05
4.40628e-05
-6.28694e-05
2.99915e-05
-6.47308e-05
1.8368e-05
-6.70788e-05
9.51303e-06
-7.29841e-05
2.63363e-06
-8.04473e-05
-2.9291e-06
-8.89738e-05
-5.90914e-06
-9.63262e-05
-6.60905e-06
-0.000101828
-4.72645e-06
-0.000106789
-2.29061e-07
-0.000112151
5.41524e-06
-0.000117735
8.31012e-06
-0.000122879
9.8052e-06
-0.00012725
1.02357e-05
-0.00013078
9.97948e-06
-0.000133538
9.38286e-06
-0.000135357
8.48307e-06
-0.000136565
8.17389e-06
-0.000137262
8.34045e-06
-0.000137502
8.82733e-06
-0.000136986
9.12543e-06
-0.000135557
9.29111e-06
-0.000133093
9.33792e-06
-0.000129451
9.23347e-06
-0.000124461
8.95978e-06
-0.000117976
8.53223e-06
-0.000109818
7.82392e-06
-9.97413e-05
6.54805e-06
-8.75373e-05
4.42227e-06
-7.21911e-05
4.6523e-07
-5.40208e-05
-3.44733e-06
-3.17759e-05
-8.14593e-06
-3.96605e-06
-1.31032e-05
3.06795e-05
-1.75852e-05
7.41608e-05
-2.14151e-05
0.000127266
-2.4507e-05
0.000189355
-2.74779e-05
0.000258334
-3.15872e-05
0.000331201
-3.84455e-05
0.000404584
-4.95664e-05
0.000476861
-6.58739e-05
0.000543773
-8.74021e-05
0.000606013
-0.000111917
0.00066209
-0.00013767
0.000713694
-0.000162612
0.000762123
-0.00018521
0.000807278
-0.000204745
0.000848402
-0.00022071
0.000884628
-0.000232595
0.000915271
-0.000239989
0.000939952
-0.000242716
0.000958657
-0.000240887
0.000971714
-0.000234892
0.000979711
-0.000225363
0.000983398
-0.000213114
0.000983587
-0.000199065
0.000981064
-0.000184175
0.00097652
-0.0001694
0.000970464
-0.000155668
0.000963189
-0.000143943
0.00095453
-0.000135084
0.000944343
-0.000130209
-0.000130308
0.000759397
0.000238011
0.000790536
0.000233802
0.000828351
0.000236349
0.000874985
0.000245408
0.000927002
0.000257137
0.000978871
0.000269503
0.00102441
0.000281869
0.00105755
0.000292917
0.00107319
0.000300602
0.00106786
0.000303244
0.00104042
0.000300179
0.000991565
0.000291629
0.00092324
0.000278079
0.00083886
0.000259011
0.000741525
0.000234645
0.000636635
0.000207896
0.00053215
0.000173965
0.0004339
0.000142313
0.000348945
0.000114946
0.000276032
9.12811e-05
0.000213751
7.17947e-05
0.000160432
5.59521e-05
0.000114135
4.33679e-05
7.45322e-05
3.36938e-05
4.17127e-05
2.62105e-05
1.65863e-05
2.04e-05
3.33741e-07
1.60235e-05
-7.29012e-06
1.30391e-05
-9.52547e-06
1.05455e-05
-8.30292e-06
8.58265e-06
-4.99082e-06
6.92359e-06
-4.37245e-07
5.4259e-06
4.94658e-06
3.99903e-06
1.08339e-05
2.5958e-06
1.72273e-05
1.78045e-06
2.47542e-05
8.13523e-07
3.39715e-05
-3.89993e-07
4.48157e-05
-1.71872e-06
5.75722e-05
-3.46544e-06
7.25193e-05
-5.60918e-06
8.99343e-05
-8.18148e-06
0.000110109
-1.12151e-05
0.00013337
-1.47284e-05
0.000159962
-1.87681e-05
0.000189939
-2.34287e-05
0.000223188
-2.88276e-05
0.000258663
-3.50093e-05
0.000296866
-4.16503e-05
0.000337361
-4.86406e-05
0.000379989
-5.57315e-05
0.000424983
-6.25793e-05
0.000472554
-6.89857e-05
0.000523077
-7.50299e-05
0.000576713
-8.11148e-05
0.000633119
-8.79926e-05
0.000691277
-9.6604e-05
0.000749512
-0.000107801
0.000805642
-0.000122003
0.000857245
-0.000139006
0.000903144
-0.000157816
0.000942556
-0.000177083
0.000975331
-0.000195386
0.00100156
-0.000211438
0.00102118
-0.000224364
0.00103411
-0.000233646
0.00104049
-0.00023897
0.0010407
-0.000240204
0.00103543
-0.00023744
0.00102554
-0.000231
0.00101205
-0.000221401
0.000995988
-0.0002093
0.000978318
-0.000195445
0.000959868
-0.000180615
0.000941278
-0.000165584
0.000922972
-0.000151094
0.00090514
-0.000137836
0.000887715
-0.000126518
0.000870321
-0.000117689
0.000852317
-0.000112206
-0.000110205
0.000672433
0.000206414
0.000702275
0.000203961
0.000733372
0.000205252
0.000767839
0.00021094
0.000806614
0.000218362
0.000850036
0.000226081
0.000897301
0.000234604
0.000946031
0.000244187
0.000992641
0.000253992
0.00103305
0.000262834
0.00106349
0.000269742
0.00108117
0.000273948
0.00108444
0.000274805
0.00107207
0.000271381
0.0010437
0.000263017
0.00100103
0.000250564
0.000949033
0.000225965
0.000891656
0.000199689
0.000831901
0.000174702
0.000772157
0.000151025
0.000714624
0.000129327
0.000660588
0.000109988
0.000610854
9.31023e-05
0.00056601
7.85378e-05
0.00052626
6.59609e-05
0.000491582
5.50771e-05
0.000461951
4.56553e-05
0.000437578
3.74121e-05
0.00041812
3.00029e-05
0.000403352
2.33503e-05
0.000392956
1.73205e-05
0.000386587
1.17946e-05
0.000383972
6.614e-06
0.000385299
1.26869e-06
0.000390264
-3.18411e-06
0.000398929
-7.85194e-06
0.00041113
-1.25905e-05
0.000426766
-1.73554e-05
0.00044558
-2.22789e-05
0.000467374
-2.74029e-05
0.000491935
-3.27434e-05
0.000519039
-3.83191e-05
0.000548457
-4.41456e-05
0.000579931
-5.02423e-05
0.000613137
-5.66349e-05
0.000647646
-6.33366e-05
0.000682949
-7.03121e-05
0.000718714
-7.74157e-05
0.000754551
-8.44774e-05
0.000790141
-9.13219e-05
0.000825337
-9.77755e-05
0.000860114
-0.000103763
0.00089448
-0.000109396
0.000928366
-0.000115
0.000961467
-0.000121093
0.000993141
-0.000128279
0.00102241
-0.000137066
0.00104808
-0.000147674
0.00106897
-0.000159902
0.00108424
-0.000173083
0.00109337
-0.000186216
0.00109623
-0.00019824
0.001093
-0.000208209
0.00108409
-0.000215456
0.00107005
-0.000219609
0.0010516
-0.000220521
0.00102962
-0.000218215
0.00100505
-0.000212877
0.000978899
-0.000204846
0.000952077
-0.000194579
0.000925388
-0.000182611
0.000899465
-0.000169522
0.000874751
-0.000155901
0.000851493
-0.000142326
0.000829753
-0.000129354
0.000809411
-0.000117494
0.000790169
-0.000107276
0.000771511
-9.90317e-05
0.000752801
-9.34952e-05
-9.02206e-05
0.000594386
0.000177665
0.00062317
0.000175177
0.000652323
0.000176099
0.000682115
0.000181149
0.000712924
0.000187552
0.000745613
0.000193392
0.000781181
0.000199036
0.000820193
0.000205175
0.000862411
0.000211774
0.000906707
0.000218538
0.000951215
0.000225234
0.000993659
0.000231504
0.00103171
0.000236754
0.00106298
0.000240113
0.0010853
0.000240697
0.00109753
0.000238336
0.00109977
0.000223725
0.00109369
0.000205769
0.00108083
0.000187563
0.00106268
0.000169175
0.00104092
0.000151082
0.00101711
0.000133796
0.000992589
0.000117627
0.000968439
0.000102688
0.00094545
8.89494e-05
0.000924201
7.63263e-05
0.000905142
6.4715e-05
0.000888591
5.39622e-05
0.000874687
4.39075e-05
0.000863567
3.44706e-05
0.000855306
2.55811e-05
0.000849947
1.71534e-05
0.000847478
9.08309e-06
0.000847331
1.4158e-06
0.000850235
-6.08789e-06
0.000855665
-1.32818e-05
0.000863444
-2.03703e-05
0.000873429
-2.73405e-05
0.000885367
-3.42167e-05
0.000898994
-4.10293e-05
0.000914041
-4.77905e-05
0.000930227
-5.45052e-05
0.000947258
-6.11763e-05
0.000964822
-6.78071e-05
0.000982586
-7.43985e-05
0.00100019
-8.0938e-05
0.00101726
-8.73823e-05
0.00103348
-9.36371e-05
0.00104859
-9.95834e-05
0.00106238
-0.000105116
0.00107477
-0.000110162
0.00108573
-0.000114731
0.00109529
-0.000118955
0.00110341
-0.000123112
0.0011099
-0.000127586
0.00111441
-0.000132794
0.00111641
-0.000139064
0.00111525
-0.000146514
0.00111031
-0.000154966
0.00110116
-0.000163932
0.00108766
-0.000172707
0.00106995
-0.000180531
0.00104847
-0.000186733
0.00102384
-0.000190828
0.000996773
-0.00019254
0.000968025
-0.000191774
0.000938375
-0.000188565
0.000908563
-0.000183066
0.000879245
-0.000175528
0.000850954
-0.000166287
0.000824078
-0.000155736
0.000798861
-0.000144305
0.000775405
-0.000132445
0.000753689
-0.00012061
0.000733582
-0.000109247
0.000714849
-9.87607e-05
0.000697157
-8.95835e-05
0.000680003
-8.18777e-05
0.000662918
-7.64109e-05
-7.20159e-05
0.000525111
0.000151816
0.000551936
0.000148352
0.000579146
0.000148889
0.000606467
0.000153827
0.000634006
0.000160013
0.000661953
0.000165445
0.000690628
0.000170361
0.000720605
0.000175198
0.000752535
0.000179845
0.000786873
0.000184199
0.000823722
0.000188385
0.00086273
0.000192496
0.00090308
0.000196403
0.000943486
0.000199707
0.000982309
0.000201875
0.00101803
0.000202617
0.00104832
0.000193431
0.00107278
0.000181313
0.00109162
0.000168723
0.00110524
0.000155555
0.00111427
0.000142044
0.00111951
0.000128559
0.00112176
0.000115377
0.00112179
0.000102654
0.00112029
9.04526e-05
0.00111784
7.87802e-05
0.00111493
6.762e-05
0.00111197
5.6929e-05
0.00110922
4.66515e-05
0.00110694
3.67555e-05
0.00110529
2.72254e-05
0.00110441
1.80377e-05
0.00110431
9.18031e-06
0.00110493
7.96676e-07
0.00110637
-7.53037e-06
0.00110845
-1.53637e-05
0.00111105
-2.29711e-05
0.00111407
-3.03567e-05
0.00111737
-3.75145e-05
0.00112079
-4.44548e-05
0.00112419
-5.11833e-05
0.00112738
-5.76989e-05
0.0011302
-6.39989e-05
0.00113248
-7.00815e-05
0.00113402
-7.5943e-05
0.00113465
-8.15706e-05
0.00113421
-8.69329e-05
0.00113254
-9.19748e-05
0.00112959
-9.66298e-05
0.00112532
-0.000100848
0.00111977
-0.000104615
0.00111302
-0.000107981
0.00110515
-0.000111083
0.00109619
-0.000114148
0.00108607
-0.000117467
0.00107461
-0.000121339
0.00106154
-0.000125986
0.0010465
-0.000131477
0.00102921
-0.000137674
0.0010095
-0.000144227
0.000987427
-0.000150632
0.000963232
-0.000156335
0.000937329
-0.00016083
0.00091023
-0.000163729
0.000882476
-0.000164786
0.000854591
-0.000163889
0.000827054
-0.000161028
0.000800273
-0.000156284
0.000774565
-0.000149821
0.000750151
-0.000141873
0.000727155
-0.00013274
0.000705618
-0.000122767
0.000685508
-0.000112336
0.000666738
-0.00010184
0.000649169
-9.16779e-05
0.000632604
-8.2196e-05
0.000616789
-7.37685e-05
0.00060133
-6.64184e-05
0.000585898
-6.09797e-05
-5.55378e-05
0.00046394
0.000128551
0.000488639
0.000123652
0.00051348
0.000124049
0.000538159
0.000129148
0.000563122
0.00013505
0.000588445
0.000140122
0.00061397
0.000144836
0.000639764
0.000149404
0.000666083
0.000153526
0.000693245
0.000157037
0.00072161
0.00016002
0.00075152
0.000162587
0.00078317
0.000164753
0.000816474
0.000166403
0.000850999
0.000167349
0.000886112
0.000167504
0.000919682
0.000159861
0.000950825
0.00015017
0.000979171
0.000140378
0.00100445
0.000130274
0.00102659
0.000119903
0.0010457
0.000109453
0.00106199
9.90865e-05
0.00107575
8.88986e-05
0.00108727
7.89308e-05
0.00109685
6.91963e-05
0.00110478
5.96964e-05
0.00111128
5.04224e-05
0.00111657
4.13588e-05
0.00112083
3.25034e-05
0.00112418
2.38696e-05
0.00112675
1.54721e-05
0.0011286
7.32887e-06
0.0011298
-4.05069e-07
0.00113031
-8.03829e-06
0.00113018
-1.52319e-05
0.00112938
-2.2171e-05
0.00112789
-2.8866e-05
0.00112568
-3.5309e-05
0.00112273
-4.14989e-05
0.00111898
-4.74371e-05
0.0011144
-5.31222e-05
0.00110896
-5.85522e-05
0.0011026
-6.3726e-05
0.0010953
-6.86416e-05
0.00108702
-7.32913e-05
0.00107774
-7.76572e-05
0.00106748
-8.17096e-05
0.00105627
-8.54158e-05
0.00104418
-8.87574e-05
0.00103131
-9.17479e-05
0.00101778
-9.44485e-05
0.00100367
-9.69812e-05
0.000989054
-9.95282e-05
0.000973897
-0.00010231
0.000958103
-0.000105545
0.000941507
-0.000109391
0.000923922
-0.000113892
0.000905189
-0.000118941
0.00088524
-0.000124277
0.000864128
-0.000129521
0.000842031
-0.000134239
0.00081922
-0.000138019
0.000796012
-0.000140521
0.000772732
-0.000141506
0.000749675
-0.000140832
0.000727092
-0.000138445
0.000705181
-0.000134373
0.000684084
-0.000128723
0.000663886
-0.000121675
0.000644628
-0.000113482
0.000626315
-0.000104454
0.000608921
-9.49425e-05
0.000592403
-8.53214e-05
0.000576689
-7.5964e-05
0.000561675
-6.71818e-05
0.000547201
-5.92949e-05
0.000533004
-5.22205e-05
0.000518798
-4.67745e-05
-4.0479e-05
0.000410014
0.000107501
0.000432754
0.000100912
0.000455183
0.00010162
0.000477152
0.000107179
0.000499455
0.000112747
0.000522203
0.000117374
0.000545203
0.000121836
0.00056844
0.000126167
0.00059194
0.000130026
0.000615686
0.00013329
0.000639722
0.000135984
0.000664189
0.000138119
0.000689281
0.000139662
0.000715152
0.000140532
0.000741864
0.000140638
0.000769388
0.00013998
0.000796434
0.000132815
0.000822522
0.000124082
0.000847429
0.000115472
0.000870887
0.000106816
0.000892682
9.8108e-05
0.000912687
8.94472e-05
0.000930853
8.09209e-05
0.000947182
7.25694e-05
0.000961713
6.43995e-05
0.000974506
5.64034e-05
0.000985633
4.85701e-05
0.000995168
4.08873e-05
0.00100318
3.33438e-05
0.00100975
2.59401e-05
0.00101492
1.86914e-05
0.00101878
1.16197e-05
0.00102135
4.75314e-06
0.00102279
-1.84242e-06
0.00102303
-8.27777e-06
0.00102222
-1.44267e-05
0.00102039
-2.03343e-05
0.00101755
-2.60242e-05
0.00101373
-3.14939e-05
0.00100897
-3.67389e-05
0.00100329
-4.17587e-05
0.000996723
-4.65534e-05
0.000989293
-5.11223e-05
0.000981032
-5.5465e-05
0.000971971
-5.95801e-05
0.000962142
-6.34628e-05
0.000951587
-6.71018e-05
0.000940357
-7.04803e-05
0.000928523
-7.35813e-05
0.000916166
-7.64007e-05
0.000903378
-7.89601e-05
0.000890248
-8.13181e-05
0.000876844
-8.35774e-05
0.000863199
-8.58832e-05
0.000849295
-8.84057e-05
0.000835059
-9.13092e-05
0.000820379
-9.47108e-05
0.000805127
-9.86396e-05
0.000789195
-0.000103009
0.000772529
-0.000107612
0.000755151
-0.000112142
0.000737157
-0.000116244
0.0007187
-0.000119562
0.000699965
-0.000121786
0.000681134
-0.000122676
0.000662376
-0.000122073
0.000643829
-0.000119898
0.000625603
-0.000116148
0.000607781
-0.000110901
0.000590423
-0.000104318
0.000573574
-9.66325e-05
0.000557266
-8.8146e-05
0.000541528
-7.92044e-05
0.000526379
-7.01726e-05
0.000511823
-6.14079e-05
0.000497837
-5.31959e-05
0.000484335
-4.57934e-05
0.000471165
-3.90505e-05
0.00045801
-3.36192e-05
-2.67873e-05
0.000362528
8.82933e-05
0.000383496
7.99438e-05
0.000403597
8.15192e-05
0.000423064
8.77118e-05
0.00044288
9.2931e-05
0.000463078
9.71768e-05
0.000483524
0.00010139
0.000504297
0.000105394
0.00052542
0.000108903
0.000546805
0.000111905
0.000568366
0.000114423
0.000590058
0.000116428
0.000611865
0.000117854
0.000633784
0.000118612
0.000655814
0.000118608
0.000677971
0.000117824
0.000699347
0.000111438
0.00071975
0.000103679
0.00073919
9.60324e-05
0.000757603
8.84026e-05
0.00077491
8.08003e-05
0.000791051
7.33064e-05
0.000805982
6.59898e-05
0.000819674
5.88773e-05
0.000832109
5.19649e-05
0.000843276
4.52362e-05
0.000853174
3.86724e-05
0.000861806
3.22555e-05
0.000869179
2.59702e-05
0.000875307
1.98119e-05
0.00088021
1.37888e-05
0.000883914
7.91573e-06
0.000886463
2.20382e-06
0.000887929
-3.30816e-06
0.000888329
-8.67758e-06
0.000887751
-1.38485e-05
0.000886233
-1.88165e-05
0.000883809
-2.36007e-05
0.000880519
-2.82038e-05
0.000876403
-3.26223e-05
0.000871499
-3.68551e-05
0.000865848
-4.09022e-05
0.000859489
-4.47631e-05
0.00085246
-4.84367e-05
0.000844801
-5.19211e-05
0.00083655
-5.52115e-05
0.000827747
-5.82992e-05
0.00081844
-6.11728e-05
0.000808681
-6.38226e-05
0.000798531
-6.62504e-05
0.00078805
-6.84794e-05
0.000777295
-7.05625e-05
0.000766304
-7.2587e-05
0.000755093
-7.46717e-05
0.00074364
-7.69532e-05
0.000731892
-7.95612e-05
0.000719768
-8.25863e-05
0.000707176
-8.60477e-05
0.000694038
-8.9871e-05
0.000680308
-9.38819e-05
0.000665987
-9.78216e-05
0.000651124
-0.000101381
0.000635803
-0.000104241
0.000620128
-0.000106112
0.00060421
-0.000106757
0.000588148
-0.000106011
0.000572033
-0.000103784
0.000555949
-0.000100063
0.000539972
-9.49238e-05
0.000524178
-8.85242e-05
0.000508649
-8.11029e-05
0.000493466
-7.29633e-05
0.000478713
-6.44516e-05
0.000464467
-5.59261e-05
0.000450783
-4.7724e-05
0.000437693
-4.01061e-05
0.000425154
-3.32539e-05
0.000413096
-2.69934e-05
0.000401129
-2.16519e-05
-1.46609e-05
0.000320758
7.05686e-05
0.000340087
6.06147e-05
0.000357962
6.3644e-05
0.000375206
7.04678e-05
0.000392819
7.53175e-05
0.00041069
7.93064e-05
0.000428757
8.3323e-05
0.000447162
8.69891e-05
0.000465939
9.01263e-05
0.000485023
9.28204e-05
0.000504347
9.50997e-05
0.000523846
9.6928e-05
0.000543446
9.82544e-05
0.000563056
9.90021e-05
0.000582581
9.90828e-05
0.000601945
9.84602e-05
0.000620301
9.30824e-05
0.000637492
8.64873e-05
0.000653584
7.99405e-05
0.000668602
7.33847e-05
0.00068256
6.68428e-05
0.000695474
6.03924e-05
0.000707363
5.41007e-05
0.000718243
4.79966e-05
0.000728128
4.20801e-05
0.000737026
3.6338e-05
0.000744945
3.07536e-05
0.000751891
2.531e-05
0.000757869
1.9992e-05
0.000762888
1.47929e-05
0.00076696
9.71724e-06
0.0007701
4.77563e-06
0.000772344
-4.07266e-08
0.000773724
-4.68842e-06
0.000774263
-9.21595e-06
0.000774
-1.35856e-05
0.000772971
-1.77873e-05
0.000771202
-2.18321e-05
0.000768723
-2.57252e-05
0.000765566
-2.94646e-05
0.000761759
-3.30487e-05
0.000757334
-3.64772e-05
0.000752321
-3.97492e-05
0.000746747
-4.28633e-05
0.000740643
-4.58166e-05
0.000734035
-4.86045e-05
0.000726956
-5.12196e-05
0.000719437
-5.36535e-05
0.000711514
-5.59006e-05
0.00070323
-5.79656e-05
0.000694622
-5.98716e-05
0.000685726
-6.16665e-05
0.000676565
-6.34262e-05
0.000667145
-6.52513e-05
0.000657447
-6.72552e-05
0.00064743
-6.9544e-05
0.000637033
-7.21895e-05
0.000626188
-7.52032e-05
0.000614833
-7.85161e-05
0.000602925
-8.19731e-05
0.000590447
-8.5344e-05
0.000577416
-8.83496e-05
0.000563871
-9.06966e-05
0.000549872
-9.21122e-05
0.000535486
-9.23713e-05
0.000520789
-9.1314e-05
0.000505862
-8.88574e-05
0.0004908
-8.50013e-05
0.000475709
-7.98327e-05
0.000460709
-7.35236e-05
0.000445928
-6.63221e-05
0.000431499
-5.85347e-05
0.000417548
-5.05007e-05
0.000404184
-4.25617e-05
0.000391484
-3.50242e-05
0.000379499
-2.81203e-05
0.000368193
-2.1948e-05
0.000357555
-1.63553e-05
0.000347111
-1.12078e-05
-4.425e-06
0.000284047
5.3995e-05
0.000301804
4.28575e-05
0.000317587
4.78611e-05
0.000332893
5.51619e-05
0.000348559
5.96515e-05
0.000364356
6.35097e-05
0.00038032
6.73583e-05
0.000396611
7.06987e-05
0.000413236
7.35008e-05
0.000430146
7.59106e-05
0.000447302
7.79437e-05
0.000464664
7.95662e-05
0.000482171
8.07471e-05
0.000499741
8.14324e-05
0.000517271
8.1552e-05
0.000534662
8.10698e-05
0.000551105
7.66394e-05
0.000566422
7.11704e-05
0.000580652
6.57099e-05
0.000593821
6.02156e-05
0.000605953
5.47108e-05
0.000617081
4.92648e-05
0.000627241
4.394e-05
0.000636472
3.87663e-05
0.000644805
3.37472e-05
0.000652268
2.88743e-05
0.000658887
2.41351e-05
0.00066468
1.95168e-05
0.000669666
1.50058e-05
0.000673862
1.05972e-05
0.000677284
6.29567e-06
0.000679952
2.10709e-06
0.000681881
-1.96976e-06
0.000683103
-5.91059e-06
0.000683626
-9.73892e-06
0.000683478
-1.34375e-05
0.000682686
-1.69953e-05
0.000681272
-2.04179e-05
0.000679257
-2.37106e-05
0.000676666
-2.68728e-05
0.000673519
-2.99026e-05
0.000669841
-3.27993e-05
0.000665654
-3.55618e-05
0.000660979
-3.81881e-05
0.000655837
-4.06751e-05
0.000650251
-4.30178e-05
0.000644241
-4.52095e-05
0.00063783
-4.7243e-05
0.000631044
-4.91147e-05
0.000623909
-5.08301e-05
0.000616448
-5.24109e-05
0.000608682
-5.39002e-05
0.00060062
-5.53646e-05
0.00059226
-5.68911e-05
0.000583581
-5.85762e-05
0.000574545
-6.05082e-05
0.0005651
-6.27447e-05
0.000555187
-6.52894e-05
0.000544746
-6.8075e-05
0.000533731
-7.09582e-05
0.000522115
-7.3728e-05
0.000509894
-7.61289e-05
0.000497089
-7.78919e-05
0.000483744
-7.87673e-05
0.000469925
-7.8552e-05
0.000455719
-7.71084e-05
0.000441239
-7.43768e-05
0.000426618
-7.03805e-05
0.000412012
-6.52262e-05
0.000397587
-5.9099e-05
0.000383515
-5.22497e-05
0.000369955
-4.49749e-05
0.000357046
-3.75917e-05
0.000344894
-3.041e-05
0.000333564
-2.36938e-05
0.000323088
-1.76451e-05
0.000313417
-1.22762e-05
0.000304572
-7.51031e-06
0.000296023
-2.65881e-06
3.63681e-06
0.000251798
3.82832e-05
0.000267991
2.66645e-05
0.000281861
3.39914e-05
0.000295501
4.15218e-05
0.000309433
4.57198e-05
0.00032339
4.95521e-05
0.000337519
5.32297e-05
0.00035196
5.62578e-05
0.000366692
5.87688e-05
0.00038167
6.09326e-05
0.000396868
6.27455e-05
0.000412256
6.41784e-05
0.000427787
6.52161e-05
0.000443398
6.5821e-05
0.000459011
6.59389e-05
0.00047454
6.55414e-05
0.000489254
6.19247e-05
0.00050298
5.74451e-05
0.000515738
5.29515e-05
0.000527543
4.84112e-05
0.000538408
4.38453e-05
0.000548359
3.93143e-05
0.000557425
3.4874e-05
0.000565639
3.05522e-05
0.000573033
2.63535e-05
0.000579635
2.22717e-05
0.000585473
1.82976e-05
0.000590568
1.44211e-05
0.000594944
1.06298e-05
0.00059862
6.92116e-06
0.000601615
3.30131e-06
0.000603947
-2.24941e-07
0.000605633
-3.65589e-06
0.000606699
-6.9767e-06
0.000607157
-1.0197e-05
0.000607029
-1.33092e-05
0.000606337
-1.63035e-05
0.000605101
-1.91818e-05
0.000603338
-2.19481e-05
0.000601068
-2.46022e-05
0.000598307
-2.71421e-05
0.000595074
-2.9566e-05
0.000591384
-3.18718e-05
0.000587253
-3.40567e-05
0.000582694
-3.61164e-05
0.000577721
-3.80449e-05
0.000572347
-3.98352e-05
0.000566584
-4.14802e-05
0.000560445
-4.29764e-05
0.000553945
-4.43293e-05
0.000547092
-4.55587e-05
0.000539896
-4.67039e-05
0.000532356
-4.78244e-05
0.000524462
-4.89969e-05
0.000516191
-5.0305e-05
0.000507506
-5.18239e-05
0.000498361
-5.35999e-05
0.000488702
-5.56303e-05
0.000478477
-5.78494e-05
0.000467642
-6.01236e-05
0.000456175
-6.22605e-05
0.000444075
-6.40295e-05
0.000431374
-6.51911e-05
0.000418134
-6.55272e-05
0.000404449
-6.48669e-05
0.000390445
-6.31046e-05
0.000376278
-6.02093e-05
0.000362125
-5.62275e-05
0.000348178
-5.12796e-05
0.000334631
-4.55519e-05
0.000321664
-3.92823e-05
0.00030943
-3.27411e-05
0.000298046
-2.6208e-05
0.000287587
-1.99502e-05
0.000278076
-1.41835e-05
0.000269515
-9.08388e-06
0.000261819
-4.5806e-06
0.000255039
-7.29592e-07
0.000248635
3.74487e-06
9.4178e-06
0.000223468
2.31975e-05
0.000238065
1.2068e-05
0.000250245
2.18105e-05
0.00026246
2.93075e-05
0.000274839
3.33406e-05
0.000287177
3.72144e-05
0.000299706
4.07001e-05
0.00031253
4.34338e-05
0.000325606
4.56933e-05
0.000338896
4.76423e-05
0.00035238
4.92613e-05
0.000366029
5.05294e-05
0.000379802
5.14435e-05
0.000393646
5.1977e-05
0.000407498
5.20872e-05
0.000421286
5.17527e-05
0.000434366
4.88447e-05
0.00044658
4.52313e-05
0.000457947
4.15848e-05
0.000468477
3.78808e-05
0.000478183
3.41398e-05
0.00048708
3.04166e-05
0.000495193
2.67613e-05
0.000502546
2.31996e-05
0.000509163
1.97361e-05
0.000515069
1.63656e-05
0.000520286
1.30811e-05
0.000524833
9.87429e-06
0.00052873
6.73219e-06
0.000531996
3.6555e-06
0.000534647
6.49738e-07
0.000536704
-2.282e-06
0.000538184
-5.13519e-06
0.000539105
-7.89841e-06
0.000539483
-1.05741e-05
0.000539331
-1.31578e-05
0.000538668
-1.56407e-05
0.000537508
-1.80217e-05
0.000535863
-2.03031e-05
0.000533745
-2.24841e-05
0.000531165
-2.45617e-05
0.000528132
-2.65328e-05
0.000524654
-2.83942e-05
0.000520739
-3.01419e-05
0.000516394
-3.17707e-05
0.000511623
-3.32739e-05
0.000506432
-3.46445e-05
0.000500828
-3.58759e-05
0.000494817
-3.69655e-05
0.000488407
-3.79193e-05
0.000481605
-3.87569e-05
0.000474416
-3.95152e-05
0.00046684
-4.02488e-05
0.00045887
-4.10267e-05
0.000450488
-4.19227e-05
0.000441665
-4.30013e-05
0.000432365
-4.42998e-05
0.000422546
-4.58114e-05
0.00041217
-4.74731e-05
0.000401209
-4.91631e-05
0.000389659
-5.07097e-05
0.00037754
-5.19112e-05
0.000364911
-5.25619e-05
0.000351864
-5.24798e-05
0.000338526
-5.15293e-05
0.000325057
-4.96358e-05
0.00031164
-4.67924e-05
0.000298472
-4.30592e-05
0.000285751
-3.8558e-05
0.000273661
-3.34619e-05
0.00026236
-2.79821e-05
0.00025197
-2.23511e-05
0.000242566
-1.68038e-05
0.000234178
-1.15617e-05
0.000226787
-6.79241e-06
0.000220359
-2.65609e-06
0.00021478
9.98638e-07
0.000210112
3.93829e-06
0.000205892
7.96408e-06
1.30008e-05
0.00019856
8.56662e-06
0.000211521
-8.92929e-07
0.000222268
1.1064e-05