/*--------------------------------*- C++ -*----------------------------------*\
| =========                 |                                                 |
| \\      /  F ield         | OpenFOAM: The Open Source CFD Toolbox           |
|  \\    /   O peration     | Version:  v1912                                 |
|   \\  /    A nd           | Website:  www.openfoam.com                      |
|    \\/     M anipulation  |                                                 |
\*---------------------------------------------------------------------------*/
FoamFile
{
    version     2.0;
    format      ascii;
    class       volVectorField;
    location    "700";
    object      U;
}
// * * * * * * * * * * * * * * * * * * * * * * * * * * * * * * * * * * * * * //

dimensions      [0 1 -1 0 0 0 0];


internalField   nonuniform List<vector> 
2000
(
(0.84616 0.187394 0)
(0.515133 0.124089 0)
(0.223448 0.0684415 0)
(0.0598068 0.0174443 6.19505e-20)
(-0.00455617 -0.0232232 1.20706e-17)
(-0.0642033 -0.0384873 1.04256e-17)
(-0.0776008 -0.0372471 0)
(-0.0715948 -0.0166588 0)
(-0.0590606 0.0117125 0)
(-0.0421585 0.0254675 2.36743e-17)
(-0.0415848 0.0109789 -1.45043e-17)
(-0.0273675 -0.00061982 -1.36223e-17)
(-0.016319 -0.00266582 0)
(-0.0200748 -0.00264041 0)
(-0.0219109 -0.00227126 -1.08218e-17)
(-0.0168796 0.000848744 0)
(-0.0105826 0.00349427 9.7416e-18)
(-0.00963048 0.00623715 3.09394e-21)
(-0.0106383 0.00612822 9.41716e-18)
(-0.0114046 0.00488902 -4.64799e-18)
(-0.0112659 0.00278256 9.18928e-18)
(-0.0100731 0.000804558 0)
(-0.00792034 -0.000199823 0)
(-0.0054 -0.000630815 -7.29845e-23)
(-0.00310374 -0.000796181 0)
(-0.00127502 -0.000815095 -4.51804e-18)
(-5.07465e-05 -0.000751822 0)
(0.000647213 -0.000670802 4.52727e-18)
(0.0010457 -0.000655919 0)
(0.00133514 -0.000661347 0)
(0.00160975 -0.000586344 0)
(0.00188491 -0.000474586 1.14974e-18)
(0.00214489 -0.000384305 0)
(0.00237916 -0.000344889 -5.83542e-19)
(0.00257496 -0.000344305 1.94754e-14)
(0.00270792 -0.000360982 1.94618e-14)
(0.00277127 -0.000397319 6.01814e-19)
(0.00270991 -0.000491833 -6.09314e-19)
(0.00252568 -0.00063474 0)
(0.00221735 -0.000793467 2.50652e-18)
(0.00176436 -0.000944443 0)
(0.0011318 -0.00107492 -2.58914e-18)
(0.000276928 -0.00117189 0)
(-0.000858119 -0.00121862 -5.35986e-18)
(-0.00232497 -0.00123495 2.72319e-18)
(-0.00416272 -0.00131027 0)
(-0.00645807 -0.00149242 0)
(-0.00936897 -0.00169257 -2.8573e-18)
(-0.0132168 -0.00160184 0)
(-0.0186149 -0.000629007 2.9343e-18)
(-0.0265412 0.0019235 0)
(-0.0382792 0.00634868 5.914e-18)
(-0.0552158 0.0120997 -5.86264e-18)
(-0.078492 0.0177788 5.74065e-18)
(-0.108453 0.0214919 -2.74123e-18)
(-0.144191 0.0213893 0)
(-0.183606 0.0162666 2.32981e-18)
(-0.223774 0.00597531 -2.07335e-18)
(-0.260952 -0.00844811 -4.07942e-18)
(-0.290307 -0.0247827 3.3035e-18)
(-0.306967 -0.0397931 -3.25941e-18)
(-0.309406 -0.050274 3.48649e-18)
(-0.302982 -0.0562907 -3.97828e-18)
(-0.287947 -0.0591921 4.78455e-18)
(-0.265415 -0.0600129 -1.14093e-20)
(-0.236232 -0.0594876 7.17621e-18)
(-0.20082 -0.0578199 0)
(-0.159352 -0.0549996 0)
(-0.112092 -0.0510165 7.58557e-20)
(-0.059781 -0.0459109 0)
(-0.00368521 -0.0396181 1.99043e-17)
(0.0560034 -0.0318008 0)
(0.119554 -0.0223124 1.98841e-17)
(0.186483 -0.0113104 -4.87943e-19)
(0.256048 0.000962839 1.7165e-17)
(0.329559 0.0142052 2.98622e-17)
(0.403526 0.0280419 7.34244e-19)
(0.491137 0.0420179 -1.01473e-17)
(0.557034 0.0544823 -6.52976e-18)
(0.713567 0.0651977 0)
(1.0153 0.210384 0)
(0.944633 0.194211 0)
(0.804475 0.179983 -3.52943e-18)
(0.654422 0.152313 7.28932e-18)
(0.509224 0.111169 0)
(0.360042 0.0683704 -7.29046e-18)
(0.216493 0.0293252 0)
(0.0821323 -0.00530903 0)
(-0.028288 -0.01804 0)
(-0.056203 -0.0189158 -1.73133e-17)
(-0.0667318 -0.0249888 1.57505e-17)
(-0.0718824 -0.0159768 1.44473e-17)
(-0.0637595 0.00640478 0)
(-0.0508803 0.0207235 6.32447e-18)
(-0.0545052 0.0099942 0)
(-0.0482994 -0.00293536 0)
(-0.0376316 -0.00402427 0)
(-0.0329318 -0.00109535 5.27127e-18)
(-0.0367045 0.000900982 -1.03388e-17)
(-0.0388926 0.000902509 -5.09262e-18)
(-0.0395877 7.14923e-05 0)
(-0.0384965 -0.00112739 0)
(-0.0357789 -0.00235387 0)
(-0.0325342 -0.00294471 -7.41502e-18)
(-0.0293719 -0.00274527 0)
(-0.0265578 -0.00194634 4.95216e-18)
(-0.0243364 -0.000883712 2.48357e-18)
(-0.0228755 -2.5703e-06 0)
(-0.0222407 0.000370637 0)
(-0.0222982 0.00040379 0)
(-0.0228691 0.000229818 0)
(-0.0237245 4.18184e-05 -6.32867e-19)
(-0.0246934 -0.000113007 0)
(-0.0257163 -0.000203576 3.20329e-19)
(-0.0268118 -0.000192808 1.61378e-19)
(-0.0280482 -6.35556e-05 0)
(-0.0294676 0.00016663 0)
(-0.0310944 0.00046678 6.62928e-19)
(-0.032991 0.000818187 0)
(-0.0351745 0.0012188 -1.35293e-18)
(-0.0376608 0.001676 0)
(-0.0404569 0.00220298 -1.38287e-18)
(-0.0435714 0.00280919 0)
(-0.0470112 0.00348777 1.41392e-18)
(-0.0507693 0.0042246 1.43144e-18)
(-0.0548187 0.00505608 0)
(-0.0591328 0.00616599 0)
(-0.0637084 0.0079289 -2.97248e-18)
(-0.0685376 0.0108603 0)
(-0.0735871 0.0155574 1.43234e-20)
(-0.0788776 0.022549 0)
(-0.0846074 0.0319642 0)
(-0.0911331 0.0430969 0)
(-0.0987699 0.0542933 0)
(-0.10725 0.0632171 6.02854e-18)
(-0.115043 0.0674169 0)
(-0.11972 0.0649193 -5.48275e-18)
(-0.119349 0.0548405 2.65273e-18)
(-0.112487 0.0381602 -2.30988e-18)
(-0.095234 0.0176841 -4.87991e-18)
(-0.0634242 -0.00483079 5.02691e-18)
(-0.0453765 -0.0307796 -5.54572e-18)
(-0.0201144 -0.0513939 6.49296e-18)
(0.00777886 -0.0660525 0)
(0.0387112 -0.0763539 -1.29445e-17)
(0.0731622 -0.0837602 -9.66068e-18)
(0.111904 -0.0889908 0)
(0.155125 -0.092044 5.73945e-18)
(0.202457 -0.0926235 1.25611e-17)
(0.253317 -0.0905175 0)
(0.307046 -0.0856324 0)
(0.363065 -0.0779476 0)
(0.420899 -0.0676021 0)
(0.480286 -0.0549327 -1.36176e-17)
(0.540979 -0.0404768 5.93601e-18)
(0.603833 -0.0248988 -1.17682e-17)
(0.66727 -0.00913583 1.01599e-17)
(0.739072 0.00577655 -3.46759e-18)
(0.796002 0.0174002 0)
(0.911701 0.0228986 0)
(0.978489 0.201538 0)
(0.978854 0.193006 -2.78623e-18)
(0.969154 0.205111 3.48189e-18)
(0.939083 0.208532 -3.0609e-18)
(0.878034 0.194606 2.88549e-18)
(0.785605 0.168719 2.84355e-18)
(0.669349 0.138081 0)
(0.541012 0.106021 0)
(0.40822 0.0750633 0)
(0.285943 0.0459344 6.86763e-18)
(0.17388 0.018021 0)
(0.0721776 -0.00640569 0)
(-0.0214753 -0.0141547 0)
(-0.0469102 -0.00385692 -7.18555e-18)
(-0.0508297 -0.0116809 0)
(-0.0586893 -0.0181532 -6.05209e-18)
(-0.0592884 -0.0112537 0)
(-0.0481037 0.00906533 5.87711e-18)
(-0.0464755 0.0164859 2.87323e-18)
(-0.0508998 0.0125903 0)
(-0.0532593 0.00615142 -2.79019e-18)
(-0.0550492 -0.000291332 0)
(-0.0556683 -0.00469856 0)
(-0.0547702 -0.00653442 5.43671e-18)
(-0.0532214 -0.00661275 0)
(-0.0520435 -0.00573313 1.35835e-18)
(-0.0518425 -0.0042266 -4.07778e-18)
(-0.0526351 -0.00223634 0)
(-0.0539921 -0.000222216 0)
(-0.055465 0.00124421 -6.81677e-19)
(-0.0570658 0.00219558 0)
(-0.0587757 0.00272035 1.43152e-22)
(-0.0605184 0.00296255 0)
(-0.0622488 0.00308527 6.90869e-19)
(-0.0639731 0.00325039 8.69022e-20)
(-0.0657638 0.00351239 0)
(-0.067679 0.00385824 1.76365e-19)
(-0.0697325 0.00425181 -3.55657e-19)
(-0.0719072 0.00468777 -3.58854e-19)
(-0.0741721 0.00516883 -7.24672e-19)
(-0.07649 0.00570116 7.32248e-19)
(-0.078823 0.00629414 7.39857e-19)
(-0.0811423 0.00695096 0)
(-0.0834118 0.00765196 1.5172e-18)
(-0.0855258 0.0083645 -3.07752e-18)
(-0.0872274 0.00910514 0)
(-0.0881017 0.010047 -1.59227e-18)
(-0.0876754 0.0115813 3.24675e-18)
(-0.0854185 0.0141859 0)
(-0.0806768 0.0184409 -1.69812e-18)
(-0.0727456 0.0248346 1.78174e-18)
(-0.0611141 0.0336241 -1.8481e-18)
(-0.0454186 0.0439167 -1.91625e-18)
(-0.0256218 0.0541634 0)
(-0.00193678 0.0621399 -3.9425e-18)
(0.0256843 0.0653185 -1.88529e-18)
(0.057144 0.0614173 1.63612e-18)
(0.0906196 0.0495962 1.53093e-18)
(0.124549 0.0288849 2.56749e-18)
(0.156351 0.00208395 0)
(0.186469 -0.0242924 0)
(0.214148 -0.0462792 0)
(0.242332 -0.0645614 -1.31366e-18)
(0.273969 -0.0802547 0)
(0.309995 -0.0939041 3.22278e-18)
(0.349861 -0.105474 0)
(0.392628 -0.114618 -1.98903e-18)
(0.437417 -0.120873 -4.46633e-18)
(0.483431 -0.123821 0)
(0.529999 -0.123219 -2.47606e-18)
(0.576639 -0.11907 2.5801e-18)
(0.623091 -0.111638 0)
(0.669303 -0.10144 0)
(0.715464 -0.0891673 0)
(0.761815 -0.0756572 -5.41043e-18)
(0.809231 -0.0618275 0)
(0.857009 -0.048862 -1.88535e-18)
(0.910095 -0.0378652 3.36927e-18)
(0.952984 -0.0312136 0)
(1.03532 -0.0302869 3.9331e-19)
(0.970611 0.209117 0)
(0.963917 0.194765 1.52537e-18)
(0.96643 0.198514 0)
(0.977152 0.206407 1.6946e-18)
(0.982034 0.208884 -3.00439e-18)
(0.968293 0.204266 -1.34112e-18)
(0.930748 0.193726 0)
(0.870757 0.177878 0)
(0.79113 0.156581 0)
(0.695412 0.131331 1.3511e-18)
(0.589481 0.10541 1.38289e-18)
(0.48005 0.0806999 0)
(0.369265 0.0579963 0)
(0.266647 0.0376061 0)
(0.17965 0.018539 0)
(0.100392 0.00267206 6.40114e-18)
(0.0300575 -0.00993298 -3.38749e-18)
(-0.0310533 -0.00937903 0)
(-0.0328133 0.00101351 -3.28297e-18)
(-0.0346948 0.00246317 1.61853e-18)
(-0.0346334 0.00136648 3.2112e-18)
(-0.0358895 -0.00129384 0)
(-0.0390985 -0.00397529 0)
(-0.0434827 -0.00523482 -3.12025e-18)
(-0.0471981 -0.00435834 0)
(-0.0494951 -0.00166561 -1.54395e-18)
(-0.0511755 0.00172146 1.54351e-18)
(-0.0536802 0.0042357 0)
(-0.0558178 0.00541123 0)
(-0.0580684 0.00596246 7.67016e-19)
(-0.0600193 0.00603745 0)
(-0.0616539 0.00577584 -7.70038e-19)
(-0.0629235 0.00534205 0)
(-0.0638117 0.00490601 -1.94775e-19)
(-0.0644469 0.0047042 -9.81193e-20)
(-0.0649179 0.00481968 -2.47505e-20)
(-0.0652367 0.00519827 -2.99901e-19)
(-0.0653008 0.00577177 4.04238e-19)
(-0.065029 0.00643561 4.09268e-19)
(-0.0643504 0.00712846 1.2451e-18)
(-0.0631798 0.00783198 -4.21278e-19)
(-0.0614284 0.00853696 4.28596e-19)
(-0.0590366 0.00921895 0)
(-0.055958 0.00980505 8.92784e-19)
(-0.0520858 0.0101191 9.13943e-19)
(-0.0471211 0.00985795 0)
(-0.0405982 0.00864705 1.93729e-18)
(-0.0326126 0.00642408 1.00091e-18)
(-0.022435 0.0039177 0)
(-0.00984472 0.00174255 -3.26547e-18)
(0.00662289 0.000467797 -2.23418e-18)
(0.0280156 0.000681817 1.10801e-18)
(0.0542501 0.0022106 2.16962e-18)
(0.0859235 0.00417514 0)
(0.123052 0.00504608 9.81497e-19)
(0.164784 0.00302641 2.6831e-18)
(0.209828 -0.00343948 1.58628e-18)
(0.25609 -0.0148564 -1.39017e-18)
(0.303047 -0.0300825 -6.42447e-19)
(0.348956 -0.0475083 0)
(0.393306 -0.0663453 0)
(0.436096 -0.0852939 0)
(0.478192 -0.103283 1.71543e-18)
(0.520393 -0.119681 6.46742e-19)
(0.562636 -0.134007 0)
(0.604263 -0.145721 -1.56703e-18)
(0.644564 -0.154263 1.74278e-18)
(0.683045 -0.159199 -1.8765e-18)
(0.719451 -0.160311 -2.02412e-18)
(0.753771 -0.157645 1.27059e-19)
(0.786219 -0.151502 -2.42204e-18)
(0.817211 -0.142406 0)
(0.847305 -0.13105 0)
(0.877173 -0.118221 0)
(0.907423 -0.104777 0)
(0.938965 -0.0915965 0)
(0.971465 -0.0797302 3.67801e-18)
(1.00826 -0.0700209 -1.34594e-18)
(1.0385 -0.0643935 0)
(1.09572 -0.0626752 -4.24053e-19)
(0.972988 0.216082 0)
(0.965831 0.201808 1.87116e-18)
(0.959206 0.1956 2.49279e-19)
(0.961489 0.195546 1.90757e-18)
(0.972668 0.197536 0)
(0.985519 0.199235 -1.60777e-18)
(0.992497 0.199295 0)
(0.988452 0.196253 -3.62603e-19)
(0.970218 0.189032 0)
(0.935631 0.177562 -1.6061e-18)
(0.884731 0.162749 -1.24321e-18)
(0.819618 0.145667 -3.15498e-19)
(0.743324 0.126729 3.13186e-19)
(0.658088 0.106111 0)
(0.569157 0.0852833 3.13243e-19)
(0.47934 0.0662428 0)
(0.393491 0.0502677 2.65486e-18)
(0.314099 0.0363413 -3.5139e-19)
(0.247073 0.0242763 0)
(0.192399 0.0147282 -1.89983e-18)
(0.14778 0.00792758 0)
(0.110718 0.00341352 0)
(0.079886 0.0008257 0)
(0.0539959 -0.000615601 0)
(0.0324817 -0.00158658 -2.21722e-19)
(0.0157073 -0.00203513 0)
(0.00281816 -0.00140046 0)
(-0.00263582 0.000669115 1.15622e-19)
(-0.00511571 0.00209074 0)
(-0.00516139 0.00308547 0)
(-0.00382958 0.00365735 0)
(-0.00157253 0.00392434 -5.87624e-20)
(0.00101523 0.00400336 0)
(0.00447195 0.00381431 -2.67945e-19)
(0.00749549 0.00430478 0)
(0.0111532 0.00515775 3.01139e-20)
(0.0155532 0.00568262 1.51346e-19)
(0.0208697 0.00562499 3.03855e-20)
(0.0272854 0.00526421 -6.0979e-20)
(0.0348707 0.00472278 -4.89204e-19)
(0.0437962 0.00397976 -4.89826e-19)
(0.0542784 0.00300826 4.89739e-19)
(0.0665119 0.00179338 -1.22181e-19)
(0.0806864 0.000308283 -9.73553e-19)
(0.0970117 -0.00150264 9.67403e-19)
(0.115466 -0.00370258 -1.19975e-19)
(0.136268 -0.00639133 0)
(0.158895 -0.0096459 -9.40542e-19)
(0.183476 -0.0134247 0)
(0.210102 -0.0175778 9.19812e-19)
(0.238797 -0.0217668 0)
(0.269775 -0.025864 8.9721e-19)
(0.303353 -0.0298387 0)
(0.339885 -0.0338992 -2.12025e-19)
(0.379591 -0.0385565 -8.05316e-19)
(0.422346 -0.0445452 -7.47032e-19)
(0.467555 -0.0526182 1.73544e-19)
(0.514152 -0.0633113 0)
(0.560721 -0.0769194 5.43449e-19)
(0.605842 -0.0929054 -1.37247e-19)
(0.648653 -0.110275 0)
(0.688755 -0.127672 1.37102e-19)
(0.726027 -0.143844 -5.34579e-19)
(0.760403 -0.15794 -5.90401e-19)
(0.791705 -0.169391 0)
(0.819717 -0.177752 1.47964e-18)
(0.844366 -0.182695 0)
(0.865826 -0.184074 1.8348e-18)
(0.884516 -0.181965 2.01271e-18)
(0.901049 -0.176654 2.17729e-18)
(0.916173 -0.168606 2.7099e-19)
(0.930712 -0.158417 0)
(0.945484 -0.146767 0)
(0.961284 -0.134377 0)
(0.978723 -0.121984 -2.69777e-19)
(0.998547 -0.110314 0)
(1.02039 -0.10017 -1.67539e-18)
(1.04673 -0.0922025 1.64988e-18)
(1.06873 -0.0876314 1.04004e-19)
(1.11236 -0.0863902 4.50975e-20)
(0.974194 0.218514 -1.2326e-18)
(0.970935 0.206364 1.19301e-18)
(0.965119 0.198172 -2.8208e-19)
(0.961139 0.194112 0)
(0.962197 0.191942 0)
(0.96826 0.190544 0)
(0.977772 0.189885 0)
(0.988502 0.189481 1.25264e-18)
(0.997432 0.188308 0)
(1.00093 0.185358 -1.11991e-18)
(0.995773 0.179955 -1.39605e-18)
(0.979839 0.171905 3.20089e-19)
(0.952674 0.161434 9.67032e-19)
(0.914336 0.148646 0)
(0.865647 0.133742 -1.47587e-18)
(0.80825 0.117845 0)
(0.746068 0.102471 -1.17986e-18)
(0.683644 0.0879753 2.95101e-19)
(0.622835 0.074387 -1.2344e-18)
(0.565747 0.0621138 -9.5056e-19)
(0.513197 0.0513549 0)
(0.465537 0.0420966 0)
(0.422942 0.0342202 -6.83268e-19)
(0.385368 0.0276179 0)
(0.352677 0.0221549 -5.42515e-19)
(0.324658 0.0176528 0)
(0.300908 0.0138448 0)
(0.281198 0.0104658 -9.56188e-20)
(0.265385 0.00755239 0)
(0.253131 0.00511014 0)
(0.244089 0.00307105 0)
(0.237982 0.00135471 5.05438e-20)
(0.234497 -0.000117358 2.04869e-19)
(0.233666 -0.00133912 1.29072e-19)
(0.235262 -0.00275839 0)
(0.23939 -0.00435904 0)
(0.245996 -0.00601748 -2.59602e-20)
(0.254923 -0.00776502 -1.30031e-19)
(0.266139 -0.00969028 5.16664e-20)
(0.279564 -0.011853 0)
(0.295104 -0.0142914 0)
(0.312676 -0.0170354 -2.04025e-19)
(0.332205 -0.0201109 1.00471e-19)
(0.35361 -0.0235509 -4.00963e-19)
(0.376796 -0.0274015 3.96894e-19)
(0.40162 -0.0317149 9.71342e-20)
(0.427887 -0.0365163 0)
(0.455365 -0.0416953 3.85013e-19)
(0.483884 -0.0471242 0)
(0.513303 -0.0526562 0)
(0.543521 -0.0581292 0)
(0.574529 -0.0634425 0)
(0.606405 -0.0686254 0)
(0.639232 -0.0739016 1.78129e-19)
(0.673004 -0.0797016 0)
(0.70751 -0.086587 6.69679e-19)
(0.742263 -0.0950994 -1.52551e-19)
(0.776496 -0.105569 0)
(0.809276 -0.117933 5.80056e-19)
(0.839681 -0.131599 1.27742e-19)
(0.866989 -0.145661 5.66968e-19)
(0.890748 -0.159127 -1.32365e-19)
(0.910763 -0.17112 0)
(0.927063 -0.180997 -6.62544e-19)
(0.93983 -0.188332 0)
(0.949375 -0.192853 0)
(0.956162 -0.194437 -8.54013e-19)
(0.960822 -0.193118 0)
(0.964123 -0.189097 0)
(0.966901 -0.182715 -1.06431e-18)
(0.969995 -0.174423 -2.958e-19)
(0.974197 -0.164743 0)
(0.980199 -0.154233 0)
(0.988595 -0.143465 0)
(0.999767 -0.133009 3.01429e-19)
(1.0142 -0.123414 -1.03049e-18)
(1.03134 -0.115261 -2.4015e-19)
(1.05326 -0.109022 -1.88551e-19)
(1.07181 -0.105416 -1.17792e-19)
(1.11023 -0.104553 -2.40694e-19)
(0.974501 0.21901 4.35552e-18)
(0.973757 0.208036 -4.1822e-18)
(0.971714 0.200425 0)
(0.969159 0.196211 -2.53738e-18)
(0.967053 0.192937 0)
(0.966166 0.189312 -2.23735e-18)
(0.967419 0.185818 0)
(0.971669 0.183008 2.97945e-18)
(0.978977 0.18073 -3.69939e-18)
(0.988283 0.178484 1.68916e-18)
(0.99769 0.175773 1.5792e-18)
(1.00497 0.172151 0)
(1.00811 0.167265 -4.27173e-18)
(1.00544 0.160699 -2.72081e-18)
(0.995587 0.15211 3.82429e-18)
(0.977794 0.141797 0)
(0.953044 0.130626 1.1714e-18)
(0.923753 0.119347 0)
(0.891693 0.108147 1.16788e-18)
(0.858158 0.0970059 1.16758e-18)
(0.824183 0.0861323 0)
(0.790762 0.0758047 0)
(0.758773 0.0662278 -6.39428e-19)
(0.72889 0.057507 0)
(0.701556 0.0496254 6.20994e-19)
(0.677006 0.0424979 0)
(0.655358 0.0360297 0)
(0.636645 0.0301339 0)
(0.620896 0.0247212 0)
(0.608048 0.0197084 0)
(0.598025 0.0150169 0)
(0.59076 0.0105766 0)
(0.586175 0.00631641 1.77043e-19)
(0.58415 0.00217237 -8.59073e-20)
(0.584467 -0.00199903 4.39846e-20)
(0.587219 -0.00623463 0)
(0.592314 -0.0105192 0)
(0.59955 -0.0148582 8.61819e-20)
(0.608775 -0.0192932 -3.51824e-19)
(0.619851 -0.0238624 3.51368e-19)
(0.632626 -0.0285888 0)
(0.64694 -0.0334875 8.7134e-19)
(0.662629 -0.0385712 -6.99118e-19)
(0.679524 -0.043853 -3.57835e-19)
(0.69744 -0.0493455 -3.39121e-19)
(0.716175 -0.055051 0)
(0.735508 -0.0609423 0)
(0.755215 -0.0669418 -1.03487e-18)
(0.775101 -0.0729554 0)
(0.795014 -0.0788865 0)
(0.814859 -0.0846492 0)
(0.834604 -0.0902123 7.04214e-19)
(0.854269 -0.0956488 1.40617e-18)
(0.873872 -0.10116 0)
(0.893362 -0.107059 0)
(0.912553 -0.11371 -6.485e-19)
(0.931077 -0.121415 0)
(0.948398 -0.130302 1.29262e-18)
(0.963883 -0.140229 6.86102e-19)
(0.97692 -0.150775 0)
(0.987056 -0.161323 6.99606e-19)
(0.994084 -0.171195 1.33476e-18)
(0.998072 -0.179762 1.40631e-18)
(0.99932 -0.186537 7.14315e-19)
(0.998294 -0.191205 -1.61656e-18)
(0.995563 -0.193609 1.74723e-18)
(0.991777 -0.193719 2.83383e-18)
(0.987642 -0.191628 0)
(0.983879 -0.187538 0)
(0.981182 -0.181744 1.19596e-18)
(0.980172 -0.174603 0)
(0.981378 -0.166519 2.50025e-18)
(0.985218 -0.157921 2.53291e-18)
(0.992025 -0.14925 0)
(1.00196 -0.14095 2.40282e-18)
(1.01532 -0.133449 -1.04122e-18)
(1.03146 -0.127184 0)
(1.05229 -0.1225 0)
(1.06994 -0.119841 0)
(1.10683 -0.119398 -1.9307e-19)
(0.974733 0.218938 -3.35519e-18)
(0.975458 0.208201 3.21189e-18)
(0.976056 0.201058 -6.23793e-18)
(0.975936 0.197366 2.86979e-18)
(0.974875 0.19446 0)
(0.9732 0.190785 2.53037e-18)
(0.971487 0.186584 -4.84383e-18)
(0.970472 0.182339 -4.49093e-18)
(0.970994 0.17813 -7.92483e-20)
(0.973704 0.17395 0)
(0.978806 0.169868 0)
(0.985964 0.165856 3.59716e-18)
(0.994363 0.161685 3.29234e-18)
(1.00283 0.15694 -3.27812e-18)
(1.00995 0.151228 -8.89953e-18)
(1.01427 0.144451 0)
(1.01489 0.136908 0)
(1.01186 0.128902 0)
(1.00564 0.120422 0)
(0.996717 0.111451 0)
(0.985584 0.102194 0)
(0.972871 0.0929287 0)
(0.959261 0.083867 1.24031e-18)
(0.945387 0.075123 -2.58699e-18)
(0.93177 0.0667311 0)
(0.918817 0.0586916 0)
(0.906847 0.0509971 0)
(0.896102 0.0436186 0)
(0.886746 0.0364974 0)
(0.878881 0.0295907 -6.62411e-19)
(0.872572 0.0228709 0)
(0.867857 0.0163081 0)
(0.864741 0.00986628 1.25944e-20)
(0.86317 0.00348182 0)
(0.86305 -0.00272128 -4.10307e-20)
(0.864329 -0.00880044 0)
(0.866916 -0.0148398 1.70688e-19)
(0.870683 -0.0208672 0)
(0.875509 -0.0268946 6.72218e-19)
(0.881283 -0.032934 -3.3046e-19)
(0.887883 -0.0389925 -6.88661e-19)
(0.895181 -0.0450726 -6.64944e-19)
(0.903043 -0.0511739 6.676e-19)
(0.911332 -0.0572954 6.70729e-19)
(0.919907 -0.0634335 1.40259e-18)
(0.928621 -0.0695758 1.41175e-18)
(0.937325 -0.0756924 0)
(0.945884 -0.08173 -7.44433e-19)
(0.954191 -0.0876225 0)
(0.962185 -0.0933085 0)
(0.969852 -0.0987489 -1.48021e-18)
(0.977221 -0.103954 -7.23006e-19)
(0.984345 -0.109009 4.79895e-20)
(0.991266 -0.114084 0)
(0.997964 -0.119413 0)
(1.00431 -0.125249 0)
(1.01006 -0.131791 1.49189e-18)
(1.01487 -0.139111 -1.39826e-18)
(1.01832 -0.147102 -1.38818e-18)
(1.02007 -0.155465 0)
(1.01991 -0.163756 -1.42778e-18)
(1.01784 -0.171473 9.48316e-20)
(1.01408 -0.178149 -1.57638e-18)
(1.00899 -0.183423 1.75767e-18)
(1.00307 -0.187068 -4.73126e-20)
(0.996843 -0.188972 -1.97979e-18)
(0.990863 -0.189122 -2.14364e-18)
(0.985659 -0.187583 0)
(0.981728 -0.184498 0)
(0.979506 -0.180074 0)
(0.979359 -0.174573 0)
(0.981582 -0.168304 -2.83741e-18)
(0.986399 -0.161608 -2.87264e-18)
(0.994001 -0.154851 0)
(1.00446 -0.148411 -2.7229e-18)
(1.01803 -0.142651 4.90809e-18)
(1.0341 -0.137926 0)
(1.05453 -0.13448 0)
(1.07181 -0.132629 0)
(1.10767 -0.132399 9.13433e-19)
(0.975035 0.218502 8.34162e-18)
(0.977127 0.207476 0)
(0.979623 0.200809 1.42776e-17)
(0.980942 0.19772 0)
(0.980747 0.195178 6.21474e-18)
(0.979837 0.19182 0)
(0.978655 0.187904 5.47381e-18)
(0.977181 0.183662 0)
(0.975604 0.178993 -5.0374e-18)
(0.974439 0.173897 0)
(0.97427 0.168549 8.88231e-18)
(0.975577 0.163112 -4.11176e-18)
(0.978659 0.157621 0)
(0.983536 0.151978 7.30875e-18)
(0.989866 0.146033 -1.87027e-19)
(0.996991 0.139703 -6.68296e-18)
(1.00405 0.133126 6.47708e-18)
(1.01036 0.126391 0)
(1.01555 0.119355 0)
(1.01936 0.111922 6.08731e-18)
(1.02167 0.104163 0)
(1.02251 0.0962144 -2.96139e-18)
(1.02211 0.0881954 0)
(1.02073 0.0801812 2.80491e-18)
(1.01865 0.0722158 0)
(1.01612 0.0643277 2.89688e-18)
(1.01338 0.0565334 0)
(1.01062 0.0488324 0)
(1.00799 0.0412145 1.44754e-18)
(1.00561 0.0336803 6.95762e-19)
(1.00357 0.0262365 0)
(1.00193 0.0188854 0)
(1.00072 0.0116268 -1.08748e-18)
(0.999984 0.0044594 0)
(0.999663 -0.00252519 0)
(0.99973 -0.00938244 0)
(1.00017 -0.0161739 -1.77967e-19)
(1.00093 -0.0229087 0)
(1.00197 -0.0295774 -1.10509e-18)
(1.00322 -0.0361753 -7.50319e-19)
(1.00464 -0.0427 7.24466e-19)
(1.00616 -0.0491471 0)
(1.00773 -0.0555113 0)
(1.00928 -0.0617868 1.54391e-18)
(1.01075 -0.0679666 -1.49873e-18)
(1.01209 -0.0740383 -1.5154e-18)
(1.01325 -0.0799798 0)
(1.01418 -0.0857574 -5.80235e-20)
(1.01489 -0.0913327 1.63479e-18)
(1.01538 -0.0966768 0)
(1.01572 -0.101785 1.62676e-18)
(1.01597 -0.106693 1.70175e-18)
(1.01623 -0.111488 -1.66772e-18)
(1.01655 -0.116314 0)
(1.01694 -0.121353 0)
(1.01732 -0.126789 0)
(1.01752 -0.132762 -1.67931e-18)
(1.01732 -0.139316 0)
(1.01645 -0.146363 0)
(1.01472 -0.153681 0)
(1.01201 -0.160939 3.66024e-18)
(1.00838 -0.167766 -1.80353e-18)
(1.004 -0.173809 0)
(0.999187 -0.178783 -2.0047e-18)
(0.994291 -0.182486 -2.2269e-18)
(0.989694 -0.184799 4.62145e-18)
(0.985763 -0.185671 -4.89665e-18)
(0.982836 -0.185118 -5.17788e-18)
(0.981215 -0.183222 0)
(0.981159 -0.180128 -5.69971e-18)
(0.982887 -0.17604 0)
(0.98659 -0.17122 0)
(0.992432 -0.165973 0)
(1.00059 -0.160637 5.98966e-18)
(1.01115 -0.155563 -5.73596e-18)
(1.02442 -0.151086 -7.99783e-18)
(1.0399 -0.147507 0)
(1.05946 -0.144992 3.60703e-18)
(1.07599 -0.143752 0)
(1.11029 -0.143595 -1.50381e-18)
(0.975434 0.21769 -9.46195e-18)
(0.979143 0.20609 -9.21039e-18)
(0.983423 0.200245 -1.6444e-17)
(0.98558 0.197996 0)
(0.985486 0.195678 -1.41308e-17)
(0.984786 0.192413 -6.73175e-18)
(0.9842 0.188726 0)
(0.983452 0.184719 1.19977e-17)
(0.982353 0.180193 1.11999e-17)
(0.981033 0.175095 0)
(0.979702 0.169516 -1.00453e-17)
(0.978603 0.163553 0)
(0.97805 0.15727 0)
(0.978376 0.150691 8.71017e-18)
(0.979803 0.14382 8.07295e-18)
(0.982396 0.13669 -1.82316e-19)
(0.986006 0.129512 1.84342e-19)
(0.990362 0.12244 0)
(0.995174 0.115376 0)
(1.0001 0.108199 -6.97517e-18)
(1.00479 0.100887 -7.06598e-18)
(1.00904 0.0934778 1.0356e-17)
(1.01274 0.0860168 3.4517e-18)
(1.01588 0.0785342 3.42346e-18)
(1.01848 0.0710479 0)
(1.02058 0.0635676 -3.27236e-18)
(1.02224 0.0560985 0)
(1.02353 0.0486413 0)
(1.02447 0.0411969 -3.30626e-18)
(1.02513 0.0337721 0)
(1.02555 0.0263795 0)
(1.02574 0.0190325 0)
(1.02574 0.0117458 8.20308e-19)
(1.02557 0.00455028 -4.27706e-19)
(1.0253 -0.00253608 2.13699e-19)
(1.02492 -0.00951594 0)
(1.02445 -0.0164038 0)
(1.02391 -0.0232008 0)
(1.02329 -0.0298992 8.33796e-19)
(1.02257 -0.0364934 8.38726e-19)
(1.02177 -0.0429806 -1.75013e-18)
(1.02086 -0.0493572 0)
(1.01985 -0.0556193 0)
(1.01874 -0.0617628 -3.53233e-18)
(1.01753 -0.0677831 -1.81522e-18)
(1.01621 -0.0736726 0)
(1.0148 -0.0794184 0)
(1.01331 -0.085002 1.82584e-18)
(1.01177 -0.0904048 5.63997e-20)
(1.01024 -0.0956177 0)
(1.00878 -0.100652 0)
(1.00748 -0.105549 -1.93565e-18)
(1.00641 -0.110388 0)
(1.00561 -0.115284 0)
(1.00509 -0.120377 0)
(1.00478 -0.125806 0)
(1.00455 -0.131671 0)
(1.00425 -0.138 -4.16184e-18)
(1.00367 -0.144726 0)
(1.00266 -0.151678 0)
(1.00115 -0.158603 1.6698e-19)
(0.999147 -0.165207 0)
(0.996773 -0.171194 0)
(0.994221 -0.176307 0)
(0.991727 -0.180343 9.99064e-18)
(0.989537 -0.183164 -5.23547e-18)
(0.987885 -0.184691 5.53948e-18)
(0.986987 -0.184907 1.45374e-20)
(0.987038 -0.183859 0)
(0.988217 -0.181661 6.42989e-18)
(0.990697 -0.178495 -6.5482e-18)
(0.994658 -0.174607 0)
(1.00028 -0.170293 0)
(1.0078 -0.16589 -1.45832e-19)
(1.01739 -0.161743 6.48495e-18)
(1.02944 -0.158174 5.97628e-18)
(1.04356 -0.155439 0)
(1.06168 -0.153661 -4.09439e-18)
(1.07707 -0.152866 0)
(1.10954 -0.15279 1.13345e-18)
(0.975986 0.216474 0)
(0.981692 0.204215 2.12171e-17)
(0.987769 0.199647 1.8824e-17)
(0.990441 0.198411 0)
(0.990122 0.196236 8.03051e-18)
(0.989271 0.192974 -7.77108e-18)
(0.988772 0.189389 0)
(0.988281 0.185462 -1.35663e-17)
(0.987611 0.180998 0)
(0.986852 0.175995 0)
(0.98604 0.170512 0)
(0.985145 0.164577 0)
(0.984206 0.1582 0)
(0.983343 0.151386 1.82804e-19)
(0.982702 0.144142 -9.52968e-18)
(0.982426 0.13652 -1.82175e-19)
(0.98266 0.128777 1.83588e-19)
(0.9835 0.121146 0)
(0.984945 0.113609 0)
(0.986875 0.106092 0)
(0.989103 0.098572 -2.02555e-19)
(0.991463 0.0910728 2.06478e-19)
(0.993841 0.0836194 -3.95266e-18)
(0.996165 0.0762221 -3.92151e-18)
(0.998379 0.0688777 0)
(1.00044 0.0615776 -3.98602e-18)
(1.00231 0.0543124 3.97353e-18)
(1.00396 0.0470741 0)
(1.00538 0.0398574 1.92546e-18)
(1.00654 0.0326628 1.9836e-18)
(1.00744 0.0254983 0)
(1.00808 0.0183773 0)
(1.00846 0.0113128 1.00229e-18)
(1.00861 0.00434215 -1.4859e-20)
(1.00857 -0.00256894 -4.94786e-19)
(1.00837 -0.00939151 0)
(1.00802 -0.0161178 0)
(1.00755 -0.0227531 -1.01119e-18)
(1.00697 -0.0292973 0)
(1.00629 -0.0357471 -1.02129e-18)
(1.00552 -0.0420996 -5.89915e-20)
(1.00467 -0.0483524 0)
(1.00377 -0.0545026 2.08893e-18)
(1.00281 -0.0605474 4.15843e-18)
(1.00183 -0.0664834 2.07176e-18)
(1.00083 -0.0723052 0)
(0.999839 -0.0780043 -4.35651e-18)
(0.998875 -0.0835695 0)
(0.997973 -0.088991 -2.17788e-18)
(0.99718 -0.0942674 0)
(0.996548 -0.0994139 0)
(0.996136 -0.104469 0)
(0.995991 -0.1095 0)
(0.996139 -0.114602 0)
(0.99657 -0.119884 -4.77476e-18)
(0.997226 -0.125454 4.80715e-18)
(0.998003 -0.131389 0)
(0.998762 -0.137709 4.72284e-18)
(0.999352 -0.144358 -4.91531e-18)
(0.999642 -0.151195 0)
(0.999554 -0.158011 -4.91283e-18)
(0.999074 -0.164552 0)
(0.99826 -0.170554 0)
(0.997221 -0.175775 0)
(0.996097 -0.180011 -5.68619e-18)
(0.995039 -0.183111 6.02757e-18)
(0.994194 -0.184979 -6.29655e-18)
(0.993709 -0.18558 1.31503e-17)
(0.993735 -0.184944 -6.8448e-18)
(0.994439 -0.183178 0)
(0.996014 -0.180462 7.39429e-18)
(0.998691 -0.17705 -7.44615e-18)
(1.00273 -0.173249 0)
(1.00846 -0.169406 -1.17011e-19)
(1.01615 -0.165871 -7.10581e-18)
(1.02629 -0.162967 0)
(1.03862 -0.160897 0)
(1.05513 -0.159787 -4.56946e-18)
(1.06932 -0.159347 0)
(1.10041 -0.159538 -1.28574e-18)
(0.976761 0.214804 0)
(0.984936 0.20201 -1.22238e-17)
(0.992771 0.199204 -1.07049e-17)
(0.995649 0.198991 0)
(0.994983 0.196871 1.84285e-17)
(0.993957 0.193635 1.74023e-17)
(0.993389 0.19014 0)
(0.992829 0.186205 1.56669e-17)
(0.992161 0.181685 -1.48775e-17)
(0.99156 0.176662 0)
(0.991075 0.171202 0)
(0.990636 0.165313 0)
(0.990183 0.158988 0)
(0.989695 0.15221 -1.13235e-17)
(0.989165 0.144966 -1.11277e-17)
(0.988597 0.137281 1.02284e-17)
(0.988069 0.12939 -3.0278e-17)
(0.9877 0.121541 0)
(0.987572 0.113753 0)
(0.987691 0.10599 9.7028e-18)
(0.988004 0.0982516 1.89766e-17)
(0.988459 0.0905688 -9.29148e-18)
(0.989025 0.0829712 0)
(0.989681 0.0754695 0)
(0.990406 0.0680599 -4.65942e-18)
(0.991173 0.0607321 9.17943e-18)
(0.99195 0.0534744 -9.15676e-18)
(0.99271 0.0462762 0)
(0.993423 0.0391282 0)
(0.994067 0.0320267 -2.26054e-18)
(0.994618 0.0249747 0)
(0.995064 0.0179792 2.3308e-18)
(0.995396 0.0110531 -1.14217e-18)
(0.995637 0.00419351 -1.44966e-20)
(0.995794 -0.0026105 -7.27125e-21)
(0.995868 -0.00933422 0)
(0.995873 -0.0159697 0)
(0.995825 -0.0225233 -2.9024e-20)
(0.995729 -0.0289971 1.18335e-18)
(0.995593 -0.035388 3.53957e-18)
(0.995425 -0.0416931 4.72948e-18)
(0.995237 -0.0479103 2.4106e-18)
(0.995039 -0.0540375 -2.37192e-18)
(0.994842 -0.0600725 -2.39323e-18)
(0.994659 -0.0660122 2.47395e-18)
(0.994501 -0.0718521 0)
(0.99438 -0.0775858 4.93916e-18)
(0.994316 -0.0832056 -5.10997e-18)
(0.994332 -0.0887059 0)
(0.994461 -0.0940884 0)
(0.994738 -0.0993691 0)
(0.995201 -0.104583 0)
(0.995879 -0.109789 0)
(0.996783 -0.115065 0)
(0.997894 -0.120501 5.3917e-18)
(0.999155 -0.126184 -1.09795e-17)
(1.00048 -0.132174 -5.59405e-18)
(1.00173 -0.138483 5.63855e-18)
(1.00279 -0.14506 5.54238e-18)
(1.00352 -0.15178 -5.76872e-18)
(1.00383 -0.158455 5.86937e-18)
(1.00367 -0.164857 0)
(1.00303 -0.170737 6.16822e-18)
(1.00196 -0.17586 -6.3694e-18)
(1.0005 -0.180022 0)
(0.998758 -0.183062 -1.36613e-17)
(0.996825 -0.18488 7.10829e-18)
(0.99484 -0.185437 -1.48655e-17)
(0.992977 -0.184773 7.7498e-18)
(0.991463 -0.183009 0)
(0.990582 -0.180347 8.23145e-18)
(0.990675 -0.177063 8.48451e-18)
(0.992123 -0.173489 -8.4583e-18)
(0.995359 -0.169986 -8.45946e-18)
(1.00075 -0.166905 8.14843e-18)
(1.00889 -0.164573 0)
(1.01955 -0.163131 0)
(1.03485 -0.162756 5.25953e-18)
(1.04825 -0.162684 0)
(1.07924 -0.163507 1.48357e-18)
(0.977833 0.212617 1.62086e-17)
(0.988995 0.19965 0)
(0.998472 0.199058 -2.4099e-17)
(1.00125 0.199733 2.1833e-17)
(1.00018 0.19759 -2.08203e-17)
(0.99903 0.194434 1.99693e-17)
(0.998399 0.191033 0)
(0.997724 0.187058 1.60213e-19)
(0.996946 0.182455 1.67966e-17)
(0.996278 0.177367 0)
(0.995792 0.171857 0)
(0.995442 0.165931 0)
(0.995188 0.159586 2.77123e-17)
(0.995003 0.152813 0)
(0.994848 0.145595 2.4695e-17)
(0.994671 0.13794 0)
(0.994464 0.130056 4.6189e-17)
(0.994268 0.122182 0)
(0.994123 0.114345 0)
(0.994033 0.10652 -2.20853e-17)
(0.993975 0.0987121 -1.08165e-17)
(0.993935 0.0909546 0)
(0.993916 0.0832776 0)
(0.993934 0.0756956 0)
(0.994 0.0682095 5.26115e-18)
(0.994116 0.0608134 -5.24405e-18)
(0.99428 0.0534992 -1.0797e-19)
(0.994481 0.046258 0)
(0.99471 0.0390811 5.33999e-18)
(0.994953 0.0319642 0)
(0.995199 0.0249086 0)
(0.995437 0.0179177 -2.63455e-18)