/*--------------------------------*- C++ -*----------------------------------*\
| =========                 |                                                 |
| \\      /  F ield         | OpenFOAM: The Open Source CFD Toolbox           |
|  \\    /   O peration     | Version:  v1912                                 |
|   \\  /    A nd           | Website:  www.openfoam.com                      |
|    \\/     M anipulation  |                                                 |
\*---------------------------------------------------------------------------*/
FoamFile
{
    version     2.0;
    format      ascii;
    class       volScalarField;
    location    "120";
    object      nut;
}
// * * * * * * * * * * * * * * * * * * * * * * * * * * * * * * * * * * * * * //

dimensions      [0 2 -1 0 0 0 0];


internalField   nonuniform List<scalar> 
12441
(
5.82203e-24
1.79098e-20
8.10731e-20
3.32639e-19
1.06877e-18
3.89014e-18
1.01101e-17
2.50151e-17
6.14112e-17
1.276e-16
3.05812e-16
7.72262e-16
2.17686e-15
7.40293e-15
1.03988e-13
1.89612e-11
0.000204811
0.00110094
0.0034855
0.00278419
0.00363732
0.00775321
6.34214e-24
3.03456e-20
1.11779e-19
4.24137e-19
1.30293e-18
4.81062e-18
1.22065e-17
3.00288e-17
7.36597e-17
1.54575e-16
3.80088e-16
1.03059e-15
2.82285e-15
9.3753e-15
1.13449e-13
3.90345e-11
5.99007e-05
0.00133737
0.00398287
0.00302985
0.00399838
0.00781733
6.3649e-24
3.59078e-20
1.20827e-19
4.48326e-19
1.3786e-18
4.91e-18
1.29372e-17
3.20607e-17
8.05679e-17
1.71907e-16
4.18204e-16
1.11901e-15
2.77925e-15
7.6674e-15
5.3737e-14
6.58032e-12
1.13166e-05
0.000973802
0.00157373
0.00285511
0.00415033
0.0078909
6.31938e-24
3.77046e-20
1.18585e-19
4.29512e-19
1.32625e-18
4.71703e-18
1.25223e-17
3.13483e-17
7.85525e-17
1.73823e-16
4.24106e-16
1.15565e-15
2.60577e-15
8.47523e-15
3.86326e-14
1.54456e-12
1.63943e-06
0.000672199
0.00116633
0.00276972
0.004312
0.0079647
6.28532e-24
4.38971e-20
1.29828e-19
4.58511e-19
1.40357e-18
4.78251e-18
1.30992e-17
3.28148e-17
8.43543e-17
1.87673e-16
4.54511e-16
1.28646e-15
3.01299e-15
4.07357e-14
2.48238e-13
2.30041e-12
1.40287e-07
0.000468864
0.00113385
0.00275097
0.00445224
0.00803394
6.23517e-24
4.13016e-20
1.20591e-19
4.29394e-19
1.34366e-18
4.62556e-18
1.27596e-17
3.24157e-17
8.2957e-17
1.92855e-16
4.77344e-16
1.44764e-15
4.52497e-15
1.32912e-12
1.19352e-11
5.10845e-11
4.60466e-07
0.000421225
0.00118326
0.00280493
0.00458046
0.00809948
6.20025e-24
5.02791e-20
1.37846e-19
4.75971e-19
1.46107e-18
4.79564e-18
1.36018e-17
3.44747e-17
9.07638e-17
2.11293e-16
5.21244e-16
2.00288e-15
2.49745e-14
4.14748e-11
6.60615e-10
9.38753e-09
1.87812e-05
0.000421112
0.00135086
0.00299489
0.00473134
0.00816218
6.1505e-24
4.34661e-20
1.23224e-19
4.40372e-19
1.40918e-18
4.72644e-18
1.35223e-17
3.48699e-17
9.13906e-17
2.24048e-16
5.72996e-16
5.44392e-15
6.08807e-13
2.25277e-09
8.43784e-08
4.9674e-06
0.000192099
0.000461841
0.00179838
0.00339403
0.00493377
0.00822577
6.11768e-24
5.57204e-20
1.46182e-19
4.99887e-19
1.5551e-18
4.96193e-18
1.46211e-17
3.75936e-17
1.02144e-16
2.51148e-16
6.45849e-16
6.14355e-14
2.58554e-11
7.42038e-08
1.04372e-05
0.000150909
0.000761268
0.000793977
0.00274026
0.00408536
0.00522329
0.00829204
6.07085e-24
4.43636e-20
1.2549e-19
4.56858e-19
1.50865e-18
4.95754e-18
1.47587e-17
3.87538e-17
1.04962e-16
2.7537e-16
7.49263e-16
1.68443e-12
1.0819e-09
4.43047e-06
0.000187812
0.000578861
0.00152447
0.00143741
0.00443101
0.00514771
0.00561542
0.00836448
6.04166e-24
6.0277e-20
1.53487e-19
5.26127e-19
1.67378e-18
5.20938e-18
1.60353e-17
4.20605e-17
1.19376e-16
3.17627e-16
8.92775e-16
5.23799e-11
5.49772e-08
8.13205e-05
0.000678133
0.00149305
0.00307656
0.0027071
0.00721455
0.00667196
0.0061232
0.00844366
5.99628e-24
4.46429e-20
1.27791e-19
4.77185e-19
1.63493e-18
5.28521e-18
1.6415e-17
4.40979e-17
1.25601e-16
3.64962e-16
1.15961e-15
1.45865e-09
3.24079e-06
0.000333009
0.00138357
0.00305508
0.00591231
0.00511252
0.0114247
0.00868673
0.00673285
0.00853143
5.97064e-24
6.41669e-20
1.60504e-19
5.54038e-19
1.81611e-18
5.54554e-18
1.79198e-17
4.82515e-17
1.46804e-16
4.45087e-16
1.69588e-15
3.52487e-08
7.14472e-05
0.000977885
0.0031054
0.00618687
0.0109941
0.00933219
0.0171384
0.0111579
0.00743126
0.00862633
5.9267e-24
4.4339e-20
1.29727e-19
4.99571e-19
1.78457e-18
5.69657e-18
1.8547e-17
5.14227e-17
1.59982e-16
5.59664e-16
3.60448e-15
7.9667e-07
0.000331013
0.00232383
0.00631795
0.0115343
0.0190836
0.0159051
0.0240447
0.0139444
0.00818176
0.00872852
5.90429e-24
6.75335e-20
1.66709e-19
5.82859e-19
1.97924e-18
5.94397e-18
2.02818e-17
5.68171e-17
1.9619e-16
7.79337e-16
1.65301e-14
1.51519e-05
0.00101896
0.00504239
0.0117257
0.0196087
0.0304283
0.0248182
0.0314503
0.0168794
0.00896073
0.00883515
5.86064e-24
4.39723e-20
1.32056e-19
5.25082e-19
1.95933e-18
6.19067e-18
2.1219e-17
6.17262e-17
2.28355e-16
1.21738e-15
3.02422e-13
0.00013511
0.00235789
0.00967124
0.0197777
0.0304729
0.0444984
0.0352447
0.0385458
0.0197599
0.00972833
0.00894576
5.84151e-24
7.05585e-20
1.73559e-19
6.1537e-19
2.17195e-18
6.44364e-18
2.33251e-17
6.94201e-17
3.08442e-16
2.30678e-15
1.26123e-11
0.000497215
0.00500445
0.0166173
0.0303095
0.0436677
0.0598756
0.0457183
0.044648
0.0224507
0.0104683
0.00905718
5.79759e-24
4.35154e-20
1.34553e-19
5.53435e-19
2.16238e-18
6.77728e-18
2.46382e-17
7.72895e-17
4.08804e-16
5.45053e-15
5.48448e-10
0.00120672
0.0094218
0.0259686
0.0429446
0.0581197
0.0744959
0.0546579
0.0494426
0.0248363
0.011152
0.00916919
5.7812e-24
7.32824e-20
1.80344e-19
6.49394e-19
2.38949e-18
7.01609e-18
2.71993e-17
8.91247e-17
6.62176e-16
1.69364e-14
4.411e-08
0.00275052
0.0160227
0.0371712
0.0566048
0.0723472
0.0862241
0.0610365
0.0529403
0.0268945
0.0117795
0.00927899
5.7367e-24
4.30662e-20
1.36933e-19
5.82726e-19
2.38881e-18
7.4445e-18
2.9031e-17
1.02396e-16
1.08132e-15
7.53385e-14
8.52425e-06
0.00548884
0.0247201
0.0495926
0.0702372
0.0846987
0.0935183
0.0646942
0.0554218
0.0286051
0.0123367
0.00938714
5.7236e-24
7.57486e-20
1.8686e-19
6.83452e-19
2.63087e-18
7.67784e-18
3.23239e-17
1.22319e-16
2.19524e-15
7.80798e-13
0.000163291
0.00995579
0.0350148
0.0621959
0.0823994
0.0938563
0.095943
0.0662581
0.057217
0.0300141
0.0128383
0.00949146
5.67828e-24
4.2447e-20
1.38636e-19
6.11271e-19
2.63729e-18
8.20035e-18
3.49686e-17
1.46579e-16
4.34374e-15
1.34176e-11
0.000612482
0.0163454
0.0461489
0.0742133
0.0921534
0.0990991
0.0942316
0.066667
0.0586425
0.0311418
0.0132825
0.00959327
5.66786e-24
7.80421e-20
1.92529e-19
7.15766e-19
2.89162e-18
8.42349e-18
3.9457e-17
1.83691e-16
1.02825e-14
1.66225e-10
0.00152313
0.0244462
0.057317
0.0847127
0.0986781
0.100536
0.0899093
0.0667438
0.0598958
0.0320556
0.0136958
0.00969106
5.62201e-24
4.19769e-20
1.39857e-19
6.38369e-19
2.90501e-18
9.04545e-18
4.35371e-17
2.31674e-16
2.24387e-14
1.55926e-09
0.00329077
0.0337749
0.0678248
0.0932094
0.101987
0.0989146
0.0846399
0.0669446
0.0611057
0.0327908
0.0140863
0.00978684
5.61511e-24
8.02951e-20
1.97637e-19
7.46105e-19
3.17307e-18
9.27294e-18
5.02943e-17
3.06606e-16
5.64774e-14
1.3788e-08
0.00624447
0.0435914
0.0771545
0.0992799
0.102379
0.0953781
0.0796883
0.0674098
0.0623147
0.0334267
0.014489
0.00987966
5.56747e-24
4.18045e-20
1.4083e-19
6.64257e-19
3.19471e-18
1.00012e-17
5.71997e-17
4.08779e-16
1.30587e-13
3.19013e-07
0.0105944
0.0532737
0.0849696
0.103018
0.100698
0.0910373
0.0756998
0.0680898
0.0635441
0.0340109
0.0149186
0.00997203
5.56308e-24
8.2504e-20
2.02156e-19
7.74312e-19
3.47491e-18
1.02384e-17
6.85005e-17
5.73689e-16
3.92795e-13
1.86473e-05
0.0161794
0.0622419
0.0911031
0.104606
0.0977003
0.0867548
0.0728089
0.0688856
0.0647782
0.0346274
0.0154132
0.0100634
5.5143e-24
4.1872e-20
1.41289e-19
6.87932e-19
3.50449e-18
1.10786e-17
8.13965e-17
8.11026e-16
1.83142e-12
0.000207289
0.0226809
0.0701708
0.0955367
0.104555
0.0941935
0.083017
0.0708693
0.0697049
0.0660062
0.0353198
0.0159862
0.0101564
5.51328e-24
8.46962e-20
2.05857e-19
7.99517e-19
3.79841e-18
1.13508e-17
1.02572e-16
1.20508e-15
1.28096e-11
0.000672022
0.0295826
0.0768278
0.0983797
0.103292
0.0906524
0.0800147
0.0696503
0.0704928
0.0671996
0.0361529
0.0166685
0.0102507
5.46225e-24
4.20469e-20
1.41034e-19
7.08843e-19
3.83689e-18
1.23156e-17
1.28936e-16
1.79715e-15
7.41502e-11
0.00129998
0.036487
0.0821505
0.0998306
0.101329
0.0874404
0.0777345
0.0689401
0.0712206
0.0683404
0.0371413
0.0174602
0.0103488
5.46325e-24
8.68274e-20
2.09038e-19
8.22105e-19
4.14551e-18
1.26604e-17
1.72576e-16
2.81118e-15
3.56618e-10
0.00215175
0.0430015
0.0861241
0.100139
0.0989817
0.0846574
0.0760779
0.0685793
0.0718838
0.0693987
0.0383104
0.0183751
0.01045
5.41116e-24
4.2259e-20
1.39968e-19
7.27055e-19
4.19446e-18
1.37538e-17
2.30326e-16
4.39306e-15
1.38788e-09
0.00327056
0.0489004
0.0888405
0.0995636
0.0965517
0.0823621
0.0749177
0.0684605
0.0724866
0.0703556
0.0396353
0.0193919
0.0105565
5.41526e-24
8.89395e-20
2.11473e-19
8.42686e-19
4.5251e-18
1.42012e-17
3.26583e-16
7.08757e-15
4.74871e-09
0.00471334
0.0539865
0.090409
0.0983492
0.0941671
0.0804898
0.0741398
0.0685163
0.0730411
0.0711819
0.0411071
0.0205031
0.010667
5.35971e-24
4.22913e-20
1.37877e-19
7.43343e-19
4.58894e-18
1.54675e-17
4.58643e-16
1.13046e-14
1.44595e-08
0.00649997
0.0582084
0.0909985
0.0967039
0.0919511
0.079002
0.0736485
0.0687067
0.0735582
0.0718586
0.0426789
0.0216677
0.0107831
5.36574e-24
8.84788e-20
2.10397e-19
8.57539e-19
4.93921e-18
1.60568e-17
6.78362e-16
1.85176e-14
4.28102e-08
0.00863207
0.0615492
0.0907675
0.0947953
0.089915
0.0778104
0.0733719
0.0690094
0.0740512
0.0723579
0.0443343
0.0228655
0.0109032
5.30616e-24
4.14981e-20
1.32641e-19
7.52104e-19
5.01457e-18
1.74785e-17
9.81314e-16
2.99423e-14
2.19413e-07
0.0111395
0.0641053
0.0898988
0.0927505
0.0880951
0.0768716
0.0732556
0.0694132
0.0745299
0.0726626
0.0460357
0.0240487
0.0110282
5.31257e-24
8.52837e-20
2.03882e-19
8.62371e-19
5.38393e-18
1.81967e-17
1.47554e-15
5.74917e-14
1.09001e-05
0.0140854
0.0659842
0.0885441
0.0906613
0.0864592
0.0761156
0.0732614
0.0699137
0.0750059
0.0727488
0.0477913
0.0251994
0.0111563
5.24622e-24
4.16269e-20
1.27389e-19
7.58198e-19
5.48764e-18
1.98755e-17
2.14423e-15
4.65409e-13
0.000167324
0.0176207
0.0673499
0.0868578
0.0885899
0.0850173
0.0755165
0.0733613
0.0705108
0.0754874
0.0726054
0.0495975
0.0262815
0.0112883
5.24953e-24
5.38021e-20
1.54764e-19
7.99772e-19
5.77194e-18
2.06508e-17
3.20339e-15
2.31417e-11
0.000938569
0.0219416
0.0683311
0.0849567
0.0865764
0.0837323
0.0750257
0.0735375
0.0712066
0.0759841
0.0722181
0.0514981
0.0273005
0.011422
5.17282e-24
4.32922e-20
1.1453e-19
7.24768e-19
5.94591e-18
2.35671e-17
4.66682e-15
1.03348e-09
0.00312317
0.0271667
0.0690534
0.0829527
0.0846419
0.0826159
0.0746354
0.0737772
0.0720048
0.0765012
0.0715904
0.0535123
0.0282516
0.0115584
5.16612e-24
1.93994e-21
1.12123e-20
4.00808e-19
5.45229e-18
2.4453e-17
7.2117e-15
1.81707e-07
0.00755008
0.0332319
0.0695706
0.0809225
0.0827933
0.081639
0.0743125
0.0740747
0.0729085
0.0770428
0.070727
0.0556713
0.0291781
0.0116955
5.07804e-24
1.71206e-20
4.47942e-20
4.17673e-19
5.46752e-18
3.62426e-17
1.80224e-14
3.98869e-05
0.0147925
0.0399714
0.0699148
0.0789411
0.0810244
0.0808253
0.0740666
0.0744263
0.0739187
0.0776042
0.069656
0.0579053
0.0301003
0.0118345
5.03917e-24
6.72132e-22
8.46109e-23
2.35328e-19
5.06906e-18
8.28654e-17
3.70998e-13
0.000629517
0.0251681
0.0471587
0.070055
0.0770548
0.0793188
0.0801489
0.0738721
0.0748362
0.0750336
0.0781747
0.0684099
0.0600215
0.031025
0.011976
4.83856e-24
2.10365e-19
4.58447e-19
1.03072e-18
7.26985e-18
9.14537e-16
7.18694e-12
0.00320445
0.0387305
0.0546975
0.0700648
0.0753467
0.0776614
0.0796333
0.0737387
0.0752999
0.0762375
0.0786902
0.0670334
0.061546
0.0316438
0.0121338
0.00987657
0.0111692
0.0129657
0.0048997
0.00426784
0.00447336
0.00474238
0.00490995
0.00503678
0.00531359
0.00643222
0.00544929
0.00545236
0.00632541
0.0077868
0.00917639
0.00903538
0.00902422
0.0157832
0.0204609
0.0208119
0.0225907
0.0257359
0.0293489
0.0457825
0.0777183
0.09425
0.101664
0.104549
0.0995377
0.0922235
0.0883219
0.0891073
0.0997091
0.117481
0.00986353
0.011323
0.0122443
0.00445434
0.00396223
0.00419129
0.00454116
0.00471646
0.00483753
0.00520603
0.0062491
0.00520514
0.00516823
0.00599164
0.00744382
0.00891778
0.00901876
0.0089142
0.0155279
0.0203348
0.0205888
0.0223379
0.0255666
0.0293556
0.0456821
0.0776228
0.0941652
0.101584
0.104504
0.0994644
0.0921726
0.088281
0.0890945
0.0996979
0.117481
0.00983842
0.0114034
0.0110924
0.00389508
0.00362283
0.00380392
0.00426503
0.00445102
0.00457739
0.00502431
0.00575116
0.00479794
0.00476018
0.00538647
0.00649866
0.00770228
0.00804174
0.00809766
0.0137934
0.0188653
0.0197249
0.021678
0.0251257
0.0293921
0.0458214
0.0774566
0.0939187
0.101355
0.104358
0.0992667
0.0920266
0.0881576
0.0890312
0.0996357
0.117444
0.00979929
0.0114163
0.00975061
0.00338562
0.00330829
0.00341651
0.00397264
0.00412779
0.00425706
0.00475604
0.00516196
0.00430157
0.00421625
0.0046699
0.005474
0.00633809
0.00675909
0.00704251
0.0114779
0.0166222
0.0183672
0.0206439
0.0243968
0.0293834
0.0461003
0.077205
0.0935123
0.100976
0.104112
0.0989447
0.0917854
0.0879508
0.0889167
0.0995222
0.117368
0.00974597
0.0113337
0.008389
0.00298358
0.00304974
0.0030615
0.00365788
0.00373888
0.00385667
0.00436959
0.00452669
0.00372668
0.00358934
0.00394374
0.00454341
0.00512774
0.00550019
0.00597969
0.00923635
0.0141058
0.0166674
0.0192847
0.0233724
0.0292614
0.0464397
0.0768699
0.0929646
0.100467
0.103778
0.0985107
0.0914593
0.0876706
0.0887597
0.0993674
0.117264
0.00967615
0.0111381
0.00712615
0.00269227
0.00286408
0.00276112
0.00332872
0.00330698
0.00338862
0.00386261
0.00383436
0.00307717
0.00291177
0.00321005
0.00368869
0.00409112
0.0043617
0.00494543
0.00736008
0.0116696
0.0147708
0.017665
0.0220584
0.0289649
0.0467764
0.0764636
0.0923057
0.0998547
0.103378
0.0979853
0.0910649
0.0873329
0.0885745
0.0991874
0.117148
0.00959042
0.0108257
0.00602768
0.00249277
0.0027603
0.00254104
0.00301748
0.00288021
0.00290182
0.00328818
0.00311605
0.0024228
0.0022663
0.00251243
0.00290242
0.00319441
0.00336138
0.0039148
0.00583953
0.00948833
0.0128
0.0158602
0.0204773
0.0284396
0.0470595
0.0760057
0.0915723
0.0991744
0.10294
0.0973938
0.0906232
0.0869583
0.0883793
0.0990025
0.117041
0.00948687
0.0103959
0.00511282
0.00235738
0.00273389
0.00242013
0.00276683
0.00251485
0.00246164
0.00273328
0.00246332
0.00188419
0.00176808
0.00195318
0.00225351
0.00246224
0.00254212
0.00293888
0.00453718
0.00758934
0.0108476
0.0139517
0.0186704
0.0276406
0.0472465
0.0755192
0.0908044
0.0984636
0.102494
0.0967645
0.0901577
0.0865697
0.0881949
0.098836
0.116966
0.00936733
0.00985736
0.00437068
0.0022616
0.00276764
0.00240272
0.00261203
0.00225751
0.00212667
0.00228113
0.00196976
0.00153604
0.00146562
0.00159462
0.00181102
0.00194692
0.00196381
0.00216195
0.00338808
0.00593661
0.00898167
0.0120229
0.0166997
0.0265364
0.0473004
0.0750278
0.0900418
0.09776
0.102069
0.0961269
0.0896929
0.0861916
0.0880433
0.0987127
0.11695
0.0092307
0.00921854
0.00377897
0.00219207
0.00283975
0.00247765
0.00256959
0.00213319
0.00193168
0.00197803
0.00166726
0.00135867
0.00131681
0.00140768
0.0015671
0.00165078
0.0016327
0.00168641
0.00247615
0.00452079
0.00726092
0.0101558
0.0146465
0.0251148
0.0471867
0.074553
0.0893214
0.0970999
0.101695
0.0955103
0.0892539
0.0858494
0.0879474
0.0986586
0.117018
0.00908003
0.00849634
0.00331505
0.00214757
0.00293408
0.00262344
0.00263572
0.00214273
0.00188378
0.0018266
0.00152278
0.0012842
0.00124959
0.00132053
0.00145624
0.00151757
0.00148928
0.00148133
0.00190464
0.00339904
0.00575094
0.00843006
0.0126072
0.0233913
0.0468722
0.0741122
0.0886757
0.0965156
0.101399
0.0949419
0.0888645
0.0855676
0.08793
0.0986997
0.117197
0.00891508
0.00770764
0.00296085
0.00213357
0.003046
0.00281666
0.00279281
0.00226714
0.00196509
0.00179969
0.00147928
0.00125647
0.00121273
0.00127462
0.00141045
0.00147602
0.00145569
0.00144416
0.00165476
0.00263966
0.00452729
0.0069207
0.0106846
0.021416
0.0463261
0.0737178
0.0881314
0.0960349
0.101203
0.0944469
0.0885474
0.0853704
0.0880133
0.098862
0.117513
0.00874002
0.00687844
0.00270241
0.00215685
0.00318205
0.00304095
0.00302107
0.00247817
0.00214164
0.00186257
0.0014917
0.00124559
0.00118359
0.00124164
0.00138875
0.00147435
0.00147378
0.00148494
0.00162072
0.00223963
0.0036513
0.00569378
0.00897545
0.0192757
0.045522
0.0733762
0.0877089
0.0956804
0.101126
0.0940472
0.0883232
0.08528
0.0882183
0.0991704
0.117991
0.00855535
0.00603518
0.0025284
0.00222297
0.0033557
0.00329155
0.00330572
0.00274779
0.00237895
0.00198493
0.00153208
0.00124194
0.00115763
0.00121402
0.00137575
0.00148714
0.00151282
0.00155409
0.00169872
0.00212191
0.00313402
0.00479404
0.00755789
0.0170884
0.0444438
0.0730887
0.0874228
0.0954698
0.101183
0.0937615
0.0882102
0.0853174
0.0885651
0.0996491
0.118655
0.00836592
0.00521105
0.00242679
0.00233697
0.00358407
0.00357556
0.0036383
0.00305662
0.0026532
0.00214309
0.00158705
0.00124327
0.00113552
0.00119161
0.00136921
0.00150743
0.00156235
0.00163511
0.00182456
0.00219049
0.00292963
0.00423038
0.00647863
0.0149855
0.0430914
0.0728521
0.0872827
0.0954158
0.101386
0.0936051
0.0882243
0.0855017
0.0890721
0.100321
0.119527
0.00817267
0.0044378
0.00238218
0.0025051
0.00388677
0.0039091
0.00401782
0.00339604
0.00294984
0.00232054
0.00165162
0.00125172
0.0011195
0.00117518
0.00136999
0.00153564
0.00162143
0.00172703
0.00197191
0.00236855
0.0029639
0.00397218
0.00574628
0.0130873
0.0414874
0.0726599
0.0872935
0.0955275
0.101743
0.0935904
0.0883796
0.0858503
0.0897565
0.101208
0.120629
0.00798033
0.00374863
0.00237685
0.00273709
0.00428727
0.00431467
0.00445381
0.00376847
0.00326484
0.00251
0.00172594
0.00126935
0.00111142
0.00116508
0.00137858
0.00157359
0.00169213
0.00183306
0.00213576
0.00260868
0.00316367
0.00396318
0.00533427
0.0114784
0.0396791
0.0725045
0.0874573
0.0958107
0.102258
0.0937271
0.0886879
0.0863792
0.0906342
0.10233
0.121979
0.00778933
0.00317404
0.00240131
0.00304788
0.00480959
0.0048282
0.00496552
0.00418518
0.00360089
0.00271074
0.00181348
0.00130068
0.00111449
0.00116212
0.00139479
0.00162226
0.00177621
0.00195558
0.00231771
0.00288645
0.00347051
0.0041399
0.00519272
0.0101969
0.0377356
0.0723781
0.0877738
0.0962693
0.102935
0.0940231
0.0891594
0.0871033
0.0917205
0.103709
0.123598
0.00760307
0.00273722
0.00247332
0.00345926
0.00548747
0.00549054
0.00558105
0.0046667
0.00396901
0.00292944
0.0019214
0.00135047
0.00113262
0.00116804
0.00141865
0.00168219
0.00187501
0.00209582
0.00251894
0.00319005
0.0038424
0.0044442
0.00526257
0.00923966
0.0357387
0.0722754
0.0882421
0.0969057
0.103776
0.0944842
0.0898032
0.0880366
0.0930294
0.105364
0.125501
0.00742066
0.00244838
0.00265405
0.00400392
0.00636053
0.0063475
0.00633403
0.00523987
0.00438475
0.0031774
0.00206068
0.00142739
0.00117257
0.00118667
0.00145117
0.001754
0.00198955
0.00225399
0.00273815
0.00351155
0.00425004
0.00482816
0.00548614
0.00857643
0.0337706
0.0721945
0.088861
0.0977218
0.104781
0.0951154
0.0906274
0.0891927
0.094575
0.107314
0.127706
0.00724378
0.00230317
0.00304357
0.00472491
0.0074756
0.00744881
0.00726096
0.00593608
0.00486918
0.00347114
0.00224637
0.0015424
0.00124394
0.00122468
0.00149547
0.00183967
0.00212182
0.00243069
0.00297218
0.00384327
0.00467242
0.00525488
0.00581306
0.00816451
0.0319024
0.0721381
0.08963
0.0987197
0.105952
0.0959211
0.0916394
0.0905849
0.0963708
0.109579
0.13023
0.00707145
0.00228208
0.00375637
0.00567592
0.0088869
0.00884571
0.00839731
0.00678545
0.00544316
0.00382825
0.00249644
0.00171267
0.00136269
0.00129382
0.00155817
0.00194351
0.00227553
0.00262768
0.00321738
0.00417612
0.00509344
0.00569683
0.00620245
0.00795824
0.0301878
0.072115
0.09055
0.0999023
0.107289
0.0969052
0.0928466
0.0922268
0.0984305
0.112179
0.133087
0.00690537
0.00235665
0.00489004
0.00692529
0.0106598
0.0105931
0.00977824
0.00781516
0.00612741
0.00426633
0.00282914
0.00195864
0.00155168
0.0014136
0.00165173
0.00207421
0.00245794
0.00284976
0.00347187
0.00450103
0.00550035
0.00613437
0.00662319
0.00791463
0.0286629
0.07214
0.0916239
0.101273
0.108793
0.0980716
0.0942561
0.0941325
0.100768
0.115135
0.136295
0.00674534
0.00252285
0.0065097
0.00856195
0.0128767
0.012754
0.0114403
0.00904668
0.00693701
0.00479777
0.00325924
0.00230502
0.00184302
0.00161634
0.00179767
0.00224666
0.0026809
0.00310562
0.00373743
0.00480999
0.00588313
0.00655393
0.00705289
0.00799639
0.02735
0.0722347
0.0928568
0.102838
0.110468
0.0994247
0.0958752
0.0963165
0.103397
0.118467
0.139867
0.00659312
0.0027762
0.00868534
0.0107072
0.0156419
0.0154023
0.0134226
0.0104964
0.00788215
0.00542867
0.00379346
0.00277253
0.00227253
0.00195056
0.00203192
0.00248517
0.00296279
0.00340928
0.00402167
0.00509895
0.00623468
0.0069471
0.00747675
0.00817352
0.0262636
0.0724271
0.0942562
0.104604
0.112315
0.100969
0.0977115
0.098794
0.106333
0.122197
0.143819
0.00644962
0.00311514
0.0114737
0.0135178
0.019075
0.0186098
0.015757
0.0121677
0.00896
0.00615351
0.00442768
0.00337535
0.00287296
0.00247845
0.0024106
0.00282657
0.00332909
0.00377958
0.00433848
0.00536902
0.00655117
0.00730955
0.00788614
0.00842387
0.025416
0.0727515
0.0958324
0.106579
0.114338
0.102709
0.0997728
0.101581
0.10959
0.126349
0.148165
0.00631698
0.00353892
0.0149018
0.0171745
0.0232898
0.0224159
0.0184454
0.0140392
0.0101503
0.0069534
0.00514421
0.00411158
0.00365976
0.00325758
0.00301054
0.00332375
0.00381369
0.00424
0.00470765
0.00562896
0.00683269
0.0076407
0.00827764
0.0087331
0.0248201
0.0732471
0.097598
0.108774
0.116541
0.10465
0.102067
0.104695
0.113183
0.130946
0.15292
0.00619775
0.00405262
0.0189727
0.0218565
0.0283592
0.0267849
0.0214302
0.0160473
0.0114036
0.00779068
0.00591188
0.00496439
0.0046254
0.00431356
0.00391019
0.00404235
0.00445685
0.00481593
0.0051521
0.00589465
0.0070836
0.00794305
0.00865198
0.00909416
0.0244924
0.0739573
0.099568
0.111201
0.118929
0.106798
0.104603
0.108153
0.117129
0.136012
0.158097
0.00609509
0.00467516
0.0236925
0.0277154
0.0342779
0.0315724
0.0245734
0.0180785
0.0126405
0.00861005
0.00668588
0.00589688
0.00573312
0.00561948
0.00514839
0.00504395
0.00529914
0.00553154
0.00569465
0.0061893
0.00731305
0.00822214
0.00901339
0.00950673
0.0244532
0.0749271
0.101759
0.113872
0.121508
0.109157
0.107388
0.111974
0.121444
0.141573
0.16371
0.00601408
0.00545921
0.0291056
0.0348413
0.0409241
0.0365104
0.0276523
0.01997
0.0137518
0.00933921
0.00741123
0.00685897
0.00692333
0.00709573
0.00668417
0.00634936
0.00636403
0.00640068
0.00635192
0.00653955
0.00753491
0.00848589
0.00936889
0.00997649
0.0247279
0.0762012
0.104188
0.116801
0.124282
0.111734
0.110433
0.116176
0.126144
0.147656
0.16977
0.00596079
0.00650405
0.0352929
0.0431981
0.0480169
0.0412134
0.0303776
0.0215268
0.0146119
0.00989755
0.0080263
0.00778663
0.0081168
0.00862403
0.00839376
0.00790422
0.00763559
0.00741598
0.00712754
0.00697248
0.00776759
0.00874471
0.00972779
0.0105147
0.0253459
0.077821
0.106874
0.120003
0.127257
0.114532
0.113745
0.120781
0.131248
0.154288
0.176292
0.00594609
0.00795431
0.0423307
0.0525135
0.0550757
0.0452071
0.0324276
0.0225444
0.015092
0.0102049
0.0084713
0.00861353
0.00922878
0.010069
0.0100997
0.00957141
0.00903916
0.008535
0.00800226
0.00750748
0.00803267
0.00901052
0.010101
0.0111374
0.026342
0.0798224
0.109834
0.123492
0.130439
0.117558
0.117336
0.12581
0.136774
0.1615
0.183287
0.00598322
0.00995631
0.0501872
0.0621696
0.061423
0.0479899
0.0334981
0.022842
0.015084
0.0101982
0.00869787
0.0092754
0.0101775
0.0113035
0.0116182
0.0111668
0.0104485
0.00967888
0.00892899
0.00814955
0.00835303
0.00929662
0.0105006
0.0118657
0.0277552
0.0822336
0.113081
0.12728
0.133832
0.120815
0.121215
0.131286
0.142744
0.169327
0.190772
0.00609167
0.0126079
0.0586151
0.0712032
0.0662745
0.0491292
0.033362
0.022297
0.0145217
0.00984777
0.00868278
0.00972599
0.0109006
0.0122306
0.0127976
0.0125085
0.0117132
0.0107422
0.00983382
0.00887854
0.00874867
0.00961593
0.0109387
0.0127247
0.0296288
0.0850728
0.116629
0.13138
0.137441
0.124308
0.125396
0.137237
0.149182
0.177806
0.198762
0.00628805
0.0159178
0.0670861
0.0784922
0.0689196
0.0483691
0.0319237
0.0208775
0.0134069
0.00917466
0.00843737
0.00994336
0.0113622
0.0128017
0.0135514
0.0134659
0.0127022
0.0116208
0.010632
0.0096481
0.00923136
0.00997988
0.0114273
0.0137437
0.0320098
0.0883475
0.120485
0.135803
0.14127
0.128043
0.129895
0.143694
0.156117
0.186983
0.20728
0.00658505
0.019834
0.0748847
0.0830841
0.068923
0.0457048
0.0292492
0.0186625
0.0118233
0.00825703
0.00801155
0.0099404
0.0115618
0.0130194
0.0138635
0.0139791
0.0133308
0.0122346
0.0112467
0.0103885
0.00979704
0.0103952
0.0119762
0.014956
0.0349477
0.0920545
0.124653
0.140562
0.145327
0.132029
0.13473
0.150696
0.163583
0.196911
0.216351
0.00697682
0.0242468
0.0812787
0.0844726
0.0662424
0.0413851
0.0255606
0.015845
0.00994256
0.00722282
0.00748388
0.00975849
0.0115287
0.0129321
0.013784
0.0140632
0.0135773
0.0125473
0.0116307
0.0110266
0.0104206
0.0108611
0.0125929
0.0163982
0.0384931
0.096181
0.129137
0.145667
0.149619
0.136276
0.139928
0.158288
0.171623
0.207658
0.22601
0.00744499
0.0289907
0.0856858
0.0826708
0.0612037
0.0358453
0.0212033
0.0127199
0.00800429
0.00621879
0.00694286
0.00945979
0.0113155
0.0126142
0.0134015
0.0137854
0.0134712
0.0125641
0.0117712
0.0115011
0.0110547
0.0113656
0.0132806
0.0181104
0.0426965
0.100707
0.133937
0.151133
0.154156
0.140801
0.145521
0.166531
0.180289
0.2193
0.236301
0.00795396
0.0336962
0.0876814
0.0780663
0.0543641
0.0296085
0.0166046
0.00965583
0.00626708
0.00536912
0.00646265
0.00910594
0.01098
0.0121476
0.0128209
0.0132444
0.0130816
0.0123283
0.0116916
0.0117815
0.0116384
0.0118849
0.0140384
0.0201368
0.0476079
0.10561
0.139057
0.15698
0.158953
0.145628
0.151548
0.175494
0.189642
0.231934
0.247278
0.00846726
0.0377345
0.0869592
0.0712101
0.0463491
0.0232032
0.012231
0.00702665
0.0049214
0.00473874
0.00608563
0.00874406
0.0105727
0.0115993
0.0121338
0.0125401
0.0124912
0.0119009
0.0114372
0.0118661
0.0121103
0.012384
0.0148618
0.022527
0.0532773
0.110871
0.144508
0.163236
0.164033
0.15079
0.15806
0.185264
0.199756
0.245671
0.259007
0.00894498
0.0401703
0.0832745
0.0626577
0.0377404
0.0171162
0.00852087
0.00508251
0.00401698
0.00432531
0.00581333
0.00839163
0.0101226
0.0110135
0.0114096
0.0117606
0.0117845
0.0113514
0.0110665
0.0117829
0.0124244
0.0128241
0.015745
0.0253387
0.0597583
0.116479
0.150311
0.16994
0.169426
0.156328
0.165117
0.195942
0.210717
0.260639
0.271567
0.0093615
0.0400815
0.0764848
0.0529324
0.0290531
0.0117772
0.0057628
0.00383187
0.00346765
0.00407153
0.00560995
0.00803741
0.00963419
0.0104035
0.0106847
0.0109664
0.011029
0.0107414
0.010636
0.0115736
0.0125591
0.0131706
0.0166843
0.0286415
0.0671124
0.122443
0.1565
0.177139
0.175168
0.162296
0.172788
0.207642
0.222622
0.276981
0.285043
0.0096768
0.0367097
0.0665741
0.0425572
0.020791
0.00753848
0.00396405
0.00307522
0.00312145
0.00388764
0.00541446
0.00764697
0.00908965
0.00976257
0.00997386
0.0101951
0.0102757
0.0101227
0.0101974
0.0112897
0.0125211
0.0134031
0.0176829
0.0325224
0.075416
0.128792
0.163125
0.184896
0.181305
0.168755
0.18115
0.22049
0.235574
0.294852
0.299532
0.00988074
0.0300666
0.0538589
0.032054
0.0134688
0.00455962
0.00284444
0.00254699
0.0028089
0.00365842
0.00513918
0.00715614
0.00843792
0.00905325
0.00925949
0.00944646
0.00954164
0.00952085
0.00978612
0.0109788
0.0123402
0.0135184
0.0187541
0.0370908
0.0847676
0.135585
0.17025
0.193279
0.18789
0.175775
0.190284
0.23462
0.249683
0.314415
0.315131
4.88281e-24
3.13238e-19
1.13854e-18
4.35863e-18
2.53146e-17
3.18385e-14
9.08902e-11
0.0111349
0.0512255
0.0604252
0.0699368
0.0742073
0.0764613
0.079388
0.0737056
0.0757329
0.0772495
0.0789265
0.0659234
0.061974
0.0313608
0.0121764
4.99664e-24
7.38245e-20
8.34402e-20
6.291e-18
6.31842e-17
2.48833e-13
9.3217e-10
0.0205382
0.0596481
0.063864
0.0696974
0.0735311
0.0757728
0.0793638
0.0738153
0.0761103
0.0780352
0.079061
0.0653839
0.061866
0.0309982
0.0122509
5.10262e-24
2.76787e-19
8.78069e-19
8.91783e-18
1.22839e-16
9.34733e-13
9.37366e-09
0.0316456
0.0671931
0.0667089
0.0694238
0.0729851
0.0752434
0.0794551
0.0740343
0.0765388
0.0788595
0.0791755
0.0651341
0.0613298
0.0305227
0.0124331
5.06246e-24
5.73217e-20
2.15031e-20
6.85404e-18
1.92564e-16
2.28458e-12
1.69692e-07
0.043364
0.0737904
0.0690865
0.0692561
0.0726058
0.0748962
0.0796776
0.0743743
0.0769995
0.0796867
0.0792657
0.0651583
0.0603999
0.0299693
0.0127154
5.16616e-24
2.21585e-19
6.32848e-19
7.22409e-18
2.87875e-16
3.60737e-12
6.52498e-06
0.0539879
0.0794823
0.0711166
0.0692909
0.0724203
0.0747534
0.08002
0.0748197
0.0774781
0.0804791
0.0793227
0.06542
0.0591525
0.0293852
0.0130888
5.11446e-24
4.59761e-20
1.2083e-20
4.61389e-18
4.09448e-16
4.86692e-12
1.85262e-05
0.0616243
0.084346
0.0729218
0.0696071
0.0724601
0.0748342
0.080504
0.0753858
0.0779623
0.0811995
0.0793346
0.065879
0.0576503
0.0287809
0.0135708
5.22961e-24
1.78903e-19
4.73813e-19
4.63162e-18
5.79361e-16
5.05135e-12
3.4206e-05
0.0653472
0.0884816
0.0745998
0.070249
0.0727467
0.0751558
0.0811225
0.0760597
0.0784491
0.0818149
0.0792903
0.0664768
0.0559818
0.0281832
0.0141754
5.17059e-24
3.80796e-20
7.88987e-21
2.77896e-18
7.71545e-16
4.37065e-12
2.55905e-05
0.0653993
0.0919608
0.0762392
0.071254
0.0733063
0.0757322
0.0819023
0.0768629
0.0789385
0.0823
0.0791752
0.0671609
0.0542072
0.0275898
0.0149208
5.29824e-24
1.46819e-19
3.69865e-19
2.85823e-18
9.8424e-16
2.87469e-12
2.71931e-05
0.0627139
0.0948331
0.0778963
0.0726339
0.0741548
0.0765755
0.0828384
0.0777861
0.0794413
0.0826409
0.0789783
0.0678677
0.052405
0.0270212
0.0158111
5.22386e-24
3.24703e-20
5.89363e-21
1.68632e-18
1.14699e-15
1.68697e-12
3.50443e-05
0.0581473
0.0970862
0.0796122
0.0744013
0.0753137
0.077695
0.0839593
0.0788558
0.0799708
0.0828369
0.0786872
0.0685492
0.0506188
0.0264679
0.0168499
5.35798e-24
1.2205e-19
2.97606e-19
1.84032e-18
1.25028e-15
8.50898e-13
3.98703e-05
0.0522055
0.0986627
0.0813908
0.0765472
0.0767951
0.0790999
0.0852596
0.0800657
0.0805495
0.0829022
0.0782967
0.0691516
0.0489091
0.0259461
0.0180224
5.27145e-24
2.84492e-20
4.69606e-21
1.08026e-18
1.23799e-15
4.16052e-13
4.08776e-05
0.0453504
0.0994306
0.0832157
0.0790656
0.0786182
0.0807986
0.0867671