/*--------------------------------*- C++ -*----------------------------------*\
| =========                 |                                                 |
| \\      /  F ield         | OpenFOAM: The Open Source CFD Toolbox           |
|  \\    /   O peration     | Version:  v1912                                 |
|   \\  /    A nd           | Website:  www.openfoam.com                      |
|    \\/     M anipulation  |                                                 |
\*---------------------------------------------------------------------------*/
FoamFile
{
    version     2.0;
    format      ascii;
    class       volScalarField;
    location    "120";
    object      p;
}
// * * * * * * * * * * * * * * * * * * * * * * * * * * * * * * * * * * * * * //

dimensions      [0 2 -2 0 0 0 0];


internalField   nonuniform List<scalar> 
12441
(
8.21242
8.50041
9.20839
10.3042
12.4177
14.5646
16.9881
20.061
24.409
29.7761
35.9375
43.4653
53.0979
65.0592
80.5537
99.584
126.514
159.314
212.777
274.005
367.401
436.882
8.21241
8.5004
9.20839
10.3042
12.4177
14.5646
16.988
20.0609
24.4088
29.7759
35.9371
43.4648
53.097
65.0575
80.5508
99.5778
126.499
159.291
212.69
273.926
367.344
436.666
8.21239
8.50038
9.20837
10.3042
12.4176
14.5645
16.9879
20.0608
24.4086
29.7754
35.9363
43.4636
53.0952
65.054
80.545
99.5654
126.476
159.238
212.512
273.737
367.194
436.274
8.21237
8.50034
9.20834
10.3042
12.4174
14.5644
16.9877
20.0606
24.4082
29.7746
35.9351
43.462
53.0925
65.0488
80.5362
99.5469
126.446
159.155
212.327
273.449
366.927
435.668
8.21233
8.50029
9.20831
10.3043
12.4171
14.5642
16.9874
20.0603
24.4077
29.7735
35.9334
43.4597
53.0889
65.0418
80.5247
99.5225
126.408
159.053
212.159
273.087
366.554
434.845
8.21228
8.50023
9.20827
10.3044
12.4168
14.564
16.987
20.06
24.407
29.7722
35.9314
43.4569
53.0844
65.033
80.5102
99.4923
126.36
158.934
211.967
272.65
366.081
433.805
8.21223
8.50015
9.20822
10.3045
12.4164
14.5637
16.9866
20.0596
24.4062
29.7706
35.9289
43.4536
53.079
65.0225
80.4929
99.4565
126.304
158.794
211.743
272.141
365.511
432.549
8.21216
8.50007
9.20816
10.3046
12.416
14.5634
16.9862
20.0591
24.4053
29.7687
35.9261
43.4498
53.0727
65.0103
80.4727
99.4155
126.243
158.635
211.499
271.573
364.851
431.073
8.21209
8.49997
9.20809
10.3047
12.4154
14.5631
16.9856
20.0586
24.4042
29.7665
35.9228
43.4454
53.0655
64.9963
80.4503
99.3708
126.179
158.462
211.254
270.959
364.105
429.373
8.212
8.49985
9.20801
10.3048
12.4148
14.5626
16.9851
20.0581
24.403
29.7641
35.9192
43.4404
53.0573
64.9807
80.4264
99.3253
126.116
158.283
211.027
270.312
363.275
427.446
8.21191
8.49972
9.20793
10.305
12.4142
14.5622
16.9844
20.0575
24.4017
29.7614
35.9151
43.4349
53.0483
64.9636
80.4023
99.2824
126.062
158.11
210.842
269.641
362.36
425.284
8.21181
8.49958
9.20784
10.3052
12.4135
14.5617
16.9837
20.0568
24.4002
29.7584
35.9107
43.4289
53.0385
64.9459
80.3801
99.2472
126.034
157.965
210.717
268.949
361.356
422.879
8.2117
8.49943
9.20774
10.3054
12.4127
14.5611
16.9829
20.056
24.3985
29.7551
35.9059
43.4223
53.028
64.929
80.3654
99.231
126.054
157.876
210.658
268.229
360.253
420.221
8.21158
8.49926
9.20764
10.3056
12.4119
14.5605
16.9821
20.0552
24.3968
29.7516
35.9006
43.4152
53.0173
64.9159
80.366
99.2472
126.143
157.864
210.638
267.459
359.043
417.3
8.21145
8.49908
9.20753
10.3058
12.411
14.5598
16.9812
20.0543
24.3949
29.7478
35.8951
43.4076
53.0076
64.9115
80.3897
99.3043
126.309
157.928
210.608
266.614
357.715
414.103
8.21131
8.49888
9.20741
10.306
12.41
14.5591
16.9803
20.0534
24.3928
29.7437
35.8891
43.3997
53.0005
64.9211
80.4413
99.404
126.537
158.035
210.51
265.668
356.26
410.619
8.21116
8.49867
9.20728
10.3063
12.409
14.5583
16.9793
20.0524
24.3906
29.7393
35.8826
43.3921
52.9993
64.9483
80.5206
99.5377
126.789
158.123
210.297
264.603
354.673
406.833
8.211
8.49845
9.20715
10.3066
12.4079
14.5575
16.9783
20.0513
24.3882
29.7346
35.8758
43.3854
53.0073
64.9932
80.6207
99.6882
127.011
158.129
209.95
263.41
352.946
402.733
8.21084
8.49822
9.20701
10.3068
12.4067
14.5566
16.9771
20.0501
24.3858
29.7297
35.8685
43.3811
53.0268
65.0525
80.7313
99.8295
127.147
158.011
209.472
262.086
351.076
398.305
8.21066
8.49797
9.20687
10.3071
12.4055
14.5557
16.976
20.0489
24.3831
29.7245
35.8608
43.3811
53.0576
65.1199
80.8371
99.9351
127.157
157.765
208.885
260.637
349.063
393.534
8.21048
8.49771
9.20672
10.3074
12.4043
14.5547
16.9748
20.0476
24.3804
29.7189
35.8532
43.3874
53.0969
65.1883
80.924
99.9816
127.029
157.415
208.214
259.07
346.905
388.406
8.21029
8.49743
9.20656
10.3077
12.403
14.5537
16.9735
20.0463
24.3775
29.7131
35.8459
43.401
53.1402
65.25
80.9778
99.9581
126.782
157.001
207.481
257.392
344.605
382.905
8.21008
8.49715
9.2064
10.308
12.4016
14.5526
16.9722
20.0448
24.3744
29.707
35.8396
43.421
53.1831
65.2989
80.9922
99.8651
126.457
156.555
206.701
255.615
342.163
377.016
8.20987
8.49685
9.20623
10.3083
12.4002
14.5515
16.9708
20.0433
24.3712
29.7005
35.8354
43.4452
53.2213
65.3296
80.9641
99.7161
126.096
156.098
205.884
253.745
339.583
370.72
8.20965
8.49654
9.20605
10.3087
12.3987
14.5503
16.9694
20.0417
24.3679
29.6937
35.8342
43.4707
53.252
65.3401
80.9
99.529
125.732
155.637
205.032
251.795
336.867
363.999
8.20942
8.49621
9.20587
10.309
12.3972
14.549
16.9679
20.04
24.3644
29.6866
35.8365
43.495
53.2732
65.3297
80.807
99.3236
125.385
155.17
204.147
249.772
334.02
356.834
8.20918
8.49587
9.20568
10.3093
12.3956
14.5477
16.9663
20.0383
24.3607
29.6792
35.8421
43.5158
53.2838
65.3009
80.6968
99.1134
125.057
154.693
203.228
247.686
331.044
349.202
8.20893
8.49552
9.20549
10.3097
12.3939
14.5464
16.9648
20.0364
24.3569
29.6718
35.8502
43.5317
53.2838
65.2567
80.5763
98.908
124.746
154.204
202.276
245.545
327.94
341.082
8.20868
8.49516
9.20529
10.31
12.3923
14.545
16.9631
20.0345
24.353
29.6644
35.8592
43.5419
53.2738
65.2016
80.4537
98.7098
124.445
153.699
201.29
243.356
324.71
332.446
8.20841
8.49479
9.20509
10.3104
12.3905
14.5435
16.9614
20.0325
24.3488
29.6571
35.8678
43.546
53.2548
65.1386
80.3311
98.5199
124.15
153.179
200.268
241.124
321.351
323.269
8.20814
8.4944
9.20488
10.3107
12.3887
14.542
16.9597
20.0304
24.3446
29.65
35.8748
43.544
53.2282
65.0713
80.2118
98.3356
123.855
152.643
199.212
238.85
317.859
313.52
8.20785
8.49401
9.20467
10.3111
12.3869
14.5405
16.9579
20.0282
24.3401
29.6431
35.8794
43.5363
53.1956
65.0013
80.0947
98.1558
123.558
152.092
198.12
236.535
314.227
303.168
8.20756
8.49359
9.20445
10.3114
12.385
14.5389
16.956
20.0259
24.3355
29.6365
35.8811
43.5234
53.1583
64.9303
79.9809
97.9775
123.256
151.526
196.993
234.18
310.447
292.178
8.20726
8.49317
9.20422
10.3118
12.3831
14.5372
16.9541
20.0235
24.3307
29.6303
35.8796
43.5058
53.1174
64.8587
79.868
97.8002
122.95
150.947
195.832
231.782
306.508
280.514
8.20695
8.49274
9.20399
10.3121
12.3811
14.5355
16.9521
20.021
24.3257
29.6246
35.8751
43.4844
53.0741
64.7874
79.7569
97.6216
122.638
150.355
194.635
229.342
302.399
268.139
8.20663
8.49229
9.20376
10.3125
12.3791
14.5338
16.9501
20.0184
24.3205
29.6192
35.8678
43.4597
53.0289
64.7157
79.6453
97.4419
122.32
149.75
193.404
226.861
298.107
255.011
8.2063
8.49184
9.20352
10.3128
12.377
14.532
16.948
20.0157
24.3152
29.6147
35.8579
43.4325
52.9825
64.6444
79.534
97.2595
121.997
149.133
192.138
224.34
293.623
241.087
8.20596
8.49137
9.20328
10.3132
12.3749
14.5301
16.9459
20.013
24.3098
29.6113
35.8461
43.4033
52.9351
64.5727
79.4212
97.0749
121.668
148.505
190.839
221.785
288.936
226.323
8.20561
8.49089
9.20302
10.3135
12.3727
14.5282
16.9437
20.0101
24.3048
29.6097
35.8327
43.3726
52.887
64.501
79.3078
96.8869
121.334
147.866
189.507
219.199
284.04
210.671
8.20526
8.4904
9.20277
10.3139
12.3705
14.5262
16.9415
20.0071
24.301
29.6099
35.8182
43.3409
52.8384
64.4288
79.1923
96.6963
120.994
147.217
188.145
216.587
278.93
194.079
8.20489
8.48989
9.20251
10.3142
12.3683
14.5242
16.9392
20.0039
24.2999
29.6115
35.8028
43.3085
52.7892
64.3565
79.0757
96.502
120.649
146.556
186.756
213.952
273.605
176.497
8.20452
8.48938
9.20225
10.3146
12.366
14.5222
16.9369
20.0008
24.3031
29.6142
35.7865
43.2756
52.7394
64.2835
78.9564
96.3051
120.3
145.886
185.342
211.296
268.067
157.876
8.20414
8.48885
9.20198
10.3149
12.3636
14.52
16.9345
19.9979
24.3117
29.6175
35.7692
43.2424
52.6887
64.2104
78.8362
96.1051
119.947
145.205
183.908
208.618
262.291
138.131
8.20375
8.48831
9.20169
10.3152
12.3613
14.5178
16.932
19.9967
24.3251
29.6207
35.7509
43.2094
52.6378
64.1374
78.7139
95.9036
119.59
144.511
182.457
205.905
256.198
116.546
-17.6599
-43.1908
-66.9076
-46.7975
-28.2218
-18.8386
-11.7621
-7.36909
-5.70435
-5.22682
1.78725
15.67
28.6355
33.9219
34.1885
29.9306
24.8154
21.3319
19.5169
16.8519
13.375
9.51031
6.10108
0.161216
1.59289
6.07003
9.68749
7.98913
6.05773
4.65001
3.48689
2.80195
2.00938
1.09705
0.672037
-17.709
-43.2618
-67.0251
-46.81
-28.2012
-18.8235
-11.7571
-7.36749
-5.70181
-5.22055
1.8023
15.6785
28.643
33.9308
34.2003
29.9459
24.8251
21.3313
19.5108
16.8477
13.375
9.5113
6.10491
0.163959
1.58697
6.05318
9.68128
7.98879
6.05801
4.65011
3.48688
2.80192
2.00938
1.09706
0.672027
-17.7873
-43.4008
-67.2179
-46.8343
-28.1773
-18.8043
-11.7491
-7.36269
-5.69706
-5.2151
1.81805
15.6912
28.6567
33.9473
34.2208
29.9701
24.8449
21.3472
19.5253
16.8524
13.3782
9.51419
6.11028
0.165549
1.57765
6.03609
9.67533
7.98861
6.05834
4.65024
3.48688
2.8019
2.00938
1.09708
0.67202
-17.9137
-43.6245
-67.4621
-46.8747
-28.1544
-18.7836
-11.739
-7.35646
-5.69235
-5.21056
1.83297
15.706
28.6755
33.9688
34.246
29.9995
24.8728
21.3761
19.5613
16.8669
13.3851
9.51942
6.11726
0.167877
1.56814
6.02195
9.67001
7.9886
6.05875
4.65042
3.48691
2.8019
2.0094
1.09711
0.672021
-18.0872
-43.9307
-67.7432
-46.9337
-28.1345
-18.7626
-11.7269
-7.34887
-5.6876
-5.20673
1.84518
15.7209
28.6963
33.9907
34.2692
30.0254
24.8992
21.4037
19.6036
16.8871
13.3951
9.52702
6.12615
0.172019
1.55863
6.01084
9.66555
7.98878
6.0592
4.65065
3.48696
2.80193
2.00943
1.09716
0.672028
-18.3035
-44.3126
-68.0499
-47.0093
-28.1187
-18.7428
-11.7133
-7.34061
-5.68317
-5.20397
1.85423
15.7342
28.7157
34.01
34.2882
30.0457
24.9214
21.4256
19.641
16.9087
13.4072
9.53674
6.13703
0.178804
1.54973
6.00231
9.66186
7.98915
6.05968
4.65091
3.48703
2.80197
2.00946
1.09721
0.67204
-18.5585
-44.7615
-68.3739
-47.0972
-28.1079
-18.7257
-11.6998
-7.33265
-5.67951
-5.20322
1.85942
15.7429
28.7296
34.0236
34.3017
30.0605
24.9397
21.444
19.6699
16.9294
13.4206
9.5482
6.14993
0.188906
1.54227
5.99589
9.65884
7.98967
6.06019
4.65119
3.48711
2.80202
2.0095
1.09727
0.672054
-18.8483
-45.2657
-68.7091
-47.193
-28.103
-18.7129
-11.6882
-7.32594
-5.67705
-5.20511
1.85986
15.744
28.7344
34.0283
34.3074
30.0687
24.9534
21.4602
19.6912
16.948
13.4348
9.56096
6.16469
0.202895
1.537
5.9912
9.65634
7.99032
6.06069
4.65146
3.48719
2.80207
2.00954
1.09732
0.67207
-19.1679
-45.8113
-69.0513
-47.2932
-28.1037
-18.7054
-11.6801
-7.32118
-5.67583
-5.20968
1.85511
15.7367
28.7291
34.022
34.3033
30.0691
24.9608
21.4729
19.7063
16.964
13.4491
9.57451
6.18109
0.221221
1.53451
5.98786
9.65423
7.99105
6.06117
4.65172
3.48726
2.80212
2.00958
1.09738
0.672085
-19.5118
-46.3835
-69.3966
-47.3957
-28.1094
-18.7041
-11.6768
-7.31878
-5.6756
-5.21593
1.84632
15.7226
28.7154
34.0055
34.2894
30.0615
24.9613
21.4798
19.715
16.9763
13.4628
9.58825
6.19872
0.244176
1.5354
5.98554
9.65236
7.99184
6.06162
4.65195
3.4873
2.80215
2.0096
1.09742
0.672098
-19.874
-46.9676
-69.7399
-47.4994
-28.1191
-18.7088
-11.6784
-7.31879
-5.67598
-5.2229
1.83488
15.7045
28.6956
33.9809
34.2671
30.0472
24.9563
21.4803
19.7164
16.9837
13.4748
9.60152
6.21707
0.271777
1.54026
5.98392
9.65062
7.99266
6.06202
4.65214
3.48731
2.80216
2.00961
1.09745
0.672108
-20.248
-47.5488
-70.0751
-47.6038
-28.1326
-18.7193
-11.6848
-7.32102
-5.67683
-5.22984
1.82271
15.6843
28.6719
33.9503
34.2383
30.0279
24.9474
21.4757
19.7106
16.9848
13.4839
9.61358
6.23549
0.30371
1.54971
5.98281
9.64889
7.99347
6.06235
4.65227
3.48728
2.80214
2.0096
1.09747
0.672112
-20.627
-48.1131
-70.3955
-47.7081
-28.1504
-18.7351
-11.6952
-7.32501
-5.67821
-5.23675
1.81075
15.663
28.6449
33.9146
34.2042
30.0048
24.9362
21.4679
19.6992
16.9794
13.489
9.62375
6.25334
0.339229
1.56434
5.98207
9.6471
7.99426
6.06261
4.65233
3.48721
2.80209
2.00957
1.09747
0.67211
-21.0042
-48.6475
-70.6943
-47.8111
-28.1739
-18.7557
-11.7089
-7.33029
-5.68039
-5.24359
1.79992
15.6412
28.6149
33.8741
34.1652
29.9784
24.9233
21.4584
19.6841
16.9686
13.4898
9.6314
6.26997
0.377202
1.58466
5.9817
9.64518
7.99502
6.06278
4.65231
3.48707
2.802
2.00951
1.09744
0.672101
-21.3726
-49.1403
-70.9651
-47.9113
-28.2042
-18.7814
-11.7252
-7.33636
-5.68339
-5.25071
1.79008
15.6188
28.5813
33.8287
34.1213
29.9487
24.9089
21.4477
19.6668
16.954
13.4867
9.63628
6.28493
0.416186
1.61094
5.98176
9.64311
7.99573
6.06286
4.6522
3.48688
2.80186
2.00942
1.09739
0.672083
-21.7258
-49.5819
-71.2023
-48.0069
-28.2421
-18.8131
-11.7437
-7.34295
-5.6873
-5.25811
1.78162
15.5959
28.544
33.7779
34.0723
29.9157
24.893
21.4362
19.6481
16.9369
13.4804
9.63852
6.29802
0.454698
1.64306
5.98242
9.64087
7.99639
6.06285
4.65201
3.48662
2.80168
2.0093
1.0973
0.672057
-22.0569
-49.9647
-71.4008
-48.0961
-28.2871
-18.8527
-11.7643
-7.34988
-5.6921
-5.26613
1.77403
15.5722
28.5025
33.7217
34.018
29.8794
24.8754
21.4236
19.6284
16.9184
13.4722
9.63861
6.30935
0.491508
1.68036
5.98389
9.63849
7.997
6.06275
4.65172
3.48629
2.80144
2.00915
1.09719
0.672021
-22.3601
-50.2826
-71.5564
-48.176
-28.3388
-18.9021
-11.7878
-7.35737
-5.698
-5.27468
1.76756
15.5475
28.4563
33.6597
33.9585
29.8397
24.8562
21.4101
19.6079
16.8989
13.4627
9.63714
6.31923
0.525969
1.72165
5.98644
9.63598
7.99756
6.06254
4.65132
3.48588
2.80114
2.00896
1.09704
0.671977
-22.6294
-50.5301
-71.6655
-48.2405
-28.4
-18.9624
-11.8149
-7.36571
-5.70518
-5.28428
1.76123
15.521
28.4046
33.5915
33.8937
29.7967
24.8354
21.3955
19.5867
16.8789
13.4524
9.63463
6.32802
0.558088
1.76525
5.99031
9.63342
7.99808
6.06224
4.65083
3.4854
2.80079
2.00873
1.09686
0.671923
-22.8598
-50.7019
-71.7267
-48.2825
-28.4742
-19.0344
-11.8466
-7.37544
-5.71412
-5.29516
1.75471
15.4922
28.3467
33.5167
33.8233
29.7503
24.813
21.38
19.5647
16.8584
13.4417
9.63146
6.33596
0.588401
1.80931
5.99578
9.63086
7.99856
6.06184
4.65024
3.48485
2.80038
2.00847
1.09664
0.67186
-23.0465
-50.7928
-71.7426
-48.2964
-28.5619
-19.1189
-11.8838
-7.38706
-5.72533
-5.30839
1.74615
15.4593
28.2815
33.4348
33.7476
29.7007
24.789
21.3636
19.5421
16.8376
13.4308
9.62792
6.34318
0.617649
1.85208
6.003
9.62839
7.99901
6.06133
4.64955
3.48422
2.7999
2.00817
1.09638
0.671789
-23.1867
-50.8001
-71.7192
-48.2792
-28.6622
-19.2167
-11.9278
-7.40117
-5.73963
-5.32474
1.73445
15.421
28.2077
33.3451
33.6662
29.6479
24.7635
21.3462
19.5189
16.8165
13.4197
9.62419
6.34971
0.64652
1.89223
6.01212
9.62606
7.99944
6.06073
4.64875
3.48351
2.79937
2.00783
1.09609
0.67171
-23.2827
-50.7286
-71.6569
-48.233
-28.7742
-19.3288
-11.9793
-7.41811
-5.75777
-5.34599
1.71681
15.3746
28.1236
33.2469
33.5792
29.592
24.7365
21.3279
19.495
16.7951
13.4085
9.62042
6.35565
0.675483
1.92893
6.02309
9.62399
7.99987
6.06002
4.64785
3.48272
2.79876
2.00746
1.09575
0.671624
-23.3433
-50.5875
-71.5513
-48.1635
-28.8975
-19.4568
-12.0394
-7.43834
-5.78079
-5.37329
1.69191
15.3184
28.0277
33.1392
33.4864
29.533
24.7078
21.3086
19.4705
16.7735
13.3973
9.61666
6.36107
0.704781
1.96191
6.03588
9.62225
8.0003
6.0592
4.64684
3.48185
2.7981
2.00704
1.09538
0.671531
-23.3745
-50.3837
-71.4009
-48.0759
-29.032
-19.6026
-12.1091
-7.46198
-5.80954
-5.40879
1.65696
15.2499
27.9186
33.0208
33.3874
29.4708
24.6776
21.2882
19.4453
16.7516
13.386
9.61298
6.36615
0.734467
1.99125
6.05027
9.62095
8.00074
6.05828
4.64574
3.48091
2.79736
2.00659
1.09496
0.671433
-23.3779
-50.1236
-71.2028
-47.9727
-29.178
-19.7686
-12.1896
-7.48922
-5.845
-5.4533
1.61179
15.1686
27.796
32.8909
33.2815
29.4054
24.6456
21.2667
19.4193
16.7293
13.3746
9.60936
6.37099
0.764494
2.01733
6.06603
9.62016
8.0012
6.05725
4.64453
3.47989
2.79656
2.0061
1.0945
0.67133
-23.3535
-49.8131
-70.9472
-47.8531
-29.3361
-19.9568
-12.2814
-7.51951
-5.88754
-5.50835
1.55492
15.0739
27.6605
32.7496
33.1683
29.3365
24.6118
21.2439
19.3925
16.7067
13.3632
9.60584
6.37574
0.794764
2.04053
6.08281
9.61998
8.00169
6.05611
4.64321
3.47879
2.79569
2.00557
1.094
0.671223
-23.3024
-49.4577
-70.6189
-47.7138
-29.508
-20.1692
-12.3839
-7.55179
-5.93702
-5.57301
1.48858
14.9678
27.515
32.5985
33.0474
29.2636
24.5758
21.2198
19.3648
16.6836
13.3516
9.60238
6.38046
0.825178
2.06127
6.10032
9.62048
8.00222
6.05484
4.64179
3.47761
2.79475
2.005
1.09346
0.671114
-23.2264
-49.0637
-70.1995
-47.5497
-29.6953
-20.4051
-12.4946
-7.58348
-5.99195
-5.64655
1.41345
14.8522
27.3626
32.4412
32.9201
29.1866
24.5375
21.1943
19.3364
16.66
13.3399
9.59901
6.38525
0.855643
2.07983
6.11817
9.62177
8.00281
6.05345
4.64027
3.47636
2.79375
2.0044
1.09287
0.671003
-23.1285
-48.6406
-69.6729
-47.3563
-29.9016
-20.6631
-12.6091
-7.6112
-6.04979
-5.72477
1.33475
14.7316
27.2083
32.2825
32.7889
29.106
24.4968
21.1675
19.3071
16.6359
13.328
9.59567
6.39011
0.886081
2.09638
6.13612
9.6239
8.00345
6.05193
4.63864
3.47503
2.79268
2.00376
1.09223
0.670893
-23.012
-48.2026
-69.0283
-47.1317
-30.1298
-20.9378
-12.7204
-7.63019
-6.10638
-5.80371
1.25529
14.6095
27.0555
32.1272
32.6577
29.0233
24.4539
21.1394
19.2773
16.6113
13.3159
9.5924
6.39513
0.916423
2.11095
6.15385
9.62697
8.00418
6.05028
4.6369
3.47363
2.79154
2.00308
1.09156
0.670782
-22.8816
-47.7692
-68.2676
-46.8813
-30.3848
-21.2224
-12.8207
-7.6358
-6.15673
-5.87604
1.1824
14.4916
26.9086
31.979
32.5301
28.9404
24.4095
21.1102
19.247
16.5862
13.3034
9.58912
6.40026
0.946596
2.12347
6.17125
9.63104
8.005
6.04849
4.63506
3.47215
2.79033
2.00237
1.09083
0.670675
-22.7435
-47.3616
-67.4084
-46.6189
-30.669
-21.5062
-12.9012
-7.62342
-6.1951
-5.93625
1.11932
14.3805
26.769
31.8402
32.4094
28.8596
24.3645
21.0803
19.2165
16.5608
13.2908
9.58586
6.40558
0.976513
2.13373
6.18817
9.63624
8.00593
6.04656
4.63312
3.47061
2.78906
2.00162
1.09006
0.67057
-22.6078
-46.9999
-66.4837
-46.3703
-30.985
-21.7784
-12.9544
-7.59035
-6.21634
-5.97755
1.07245
14.2809
26.6383
31.711
32.2965
28.7825
24.3197
21.0502
19.1861
16.5351
13.2778
9.58257
6.41106
1.00606
2.14147
6.20467
9.64264
8.00698
6.04446
4.63107
3.46899
2.78771
2.00084
1.08924
0.67047
-22.4862
-46.6986
-65.5317
-46.1657
-31.3305
-22.0274
-12.9751
-7.53583
-6.21683
-5.99803
1.04199
14.1926
26.5148
31.5898
32.1913
28.7099
24.2762
21.0201
19.1561
16.5096
13.2646
9.57927
6.41677
1.0351
2.14633
6.22079
9.65037
8.00819
6.04222
4.62891
3.46729
2.7863
2.00002
1.08836
0.670374
-22.3897
-46.4693
-64.5901
-46.0348
-31.7015
-22.2449
-12.9626
-7.4624
-6.19638
-5.99721
1.02999
14.1167
26.3977
31.474
32.0915
28.6415
24.2341
20.9904
19.1266
16.4842
13.2512
9.57592
6.42267
1.06344
2.14789
6.23674
9.65954
8.00957
6.03981
4.62665
3.46552
2.78482
1.99916
1.08743
0.670286
-22.3245
-46.3226
-63.6874
-45.9954
-32.0885
-22.4248
-12.9198
-7.37517
-6.15946
-5.98052
1.0319
14.0496
26.2831
31.3604
31.9951
28.5764
24.1936
20.9613
19.0976
16.4594
13.2377
9.57259
6.42886
1.09086
2.14564
6.25268
9.67031
8.01115
6.03724
4.62428
3.46368
2.78326
1.99826
1.08644
0.670202
-22.2912
-46.2691
-62.8434
-46.0533
-32.4811
-22.5657
-12.8538
-7.28254
-6.11525
-5.9532
1.04604
13.9898
26.1694
31.2458
31.8989
28.5128
24.1542
20.9326
19.0693
16.4352
13.2244
9.56926
6.43532
1.11706
2.13902
6.26896
9.68283
8.01295
6.03447
4.62179
3.46174
2.78163
1.99732
1.08539
0.670127
-22.2849
-46.3102
-62.0661
-46.1998
-32.8663
-22.6682
-12.7737
-7.19586
-6.07572
-5.92223
1.06635
13.9323
26.0529
31.128
31.801
28.4493
24.1155
20.9043
19.0413
16.4117
13.2113
9.56607
6.44219
1.14166
2.12735
6.28588
9.69732
8.01501
6.03152
4.61918
3.45972
2.7799
1.99633
1.08426
0.670059
-22.2992
-46.4258
-61.3572
-46.4209
-33.233
-22.7361
-12.6918
-7.12884
-6.05044
-5.88976
1.09168
13.8756
25.9327
31.0051
31.6993
28.3845
24.077
20.8764
19.0136
16.3888
13.1986
9.56303
6.44938
1.16417
2.11009
6.30402
9.71394
8.01733
6.02835
4.61644
3.4576
2.77808
1.99529
1.08306
0.670001
-22.3278
-46.5564
-60.7114
-46.6971
-33.5701
-22.7735
-12.6219
-7.09259
-6.04183
-5.85611
1.11829
13.8158
25.8059
30.8762
31.5932
28.3178
24.0385
20.8486
18.9858
16.3662
13.1863
9.56022
6.45691
1.18422
2.08692
6.32341
9.73259
8.01988
6.02497
4.61356
3.45537
2.77615
1.99419
1.08176
0.66995
-22.3551
-46.5947
-60.1178
-47.006
-33.8662
-22.7867
-12.5765
-7.08795
-6.0432
-5.81775
1.14533
13.7507
25.6718
30.7408
31.4823
28.2489
23.9996
20.8204
18.9573
16.3435
13.1742
9.55753
6.46488
1.20211
2.05758
6.34254
9.75234
8.02254
6.02138
4.61053
3.453
2.77408
1.99301
1.08036
0.669904
-22.3342
-46.3902
-59.5459
-47.3147
-34.1032
-22.7852
-12.5603
-7.10295
-6.04495
-5.77768
1.16197
13.6723
25.5278
30.6005
31.3691
28.1787
23.9598
20.7909
18.9278
16.3209
13.1626
9.55527
6.47435
1.21833
2.02053
6.35877
9.77283
8.02543
6.0176
4.60732
3.45049
2.77186
1.99176
1.07885
0.669858
-22.1866
-45.8068
-58.9523
-47.605
-34.2736
-22.7866
-12.5697
-7.12716
-6.04772
-5.74704
1.15867
13.5791
25.3801
30.4617
31.258
28.1092
23.919
20.76
18.8983
16.2992
13.1522
9.55418
6.48561
1.22725
1.9687
6.38314
9.80354
8.0301
6.01325
4.6038
3.44783
2.76954
1.99045
1.07723
0.669857
8.20344
8.4879
9.20149
10.3154
12.3596
14.5161
16.9301
20.0004
24.3378
29.6218
35.7357
43.1851
52.6001
64.0835
78.6195
95.7434
119.305
143.949
181.315
203.749
251.168
94.9088
8.2032
8.4876
9.20136
10.3154
12.3583
14.5149
16.9286
20.008
24.3466
29.6203
35.7238
43.1687
52.575
64.0468
78.5505
95.6259
119.091
143.525
180.474
202.173
247.324
92.0835
8.20296
8.48728
9.20122
10.3155
12.357
14.5136
16.9271
20.0187
24.3536
29.6166
35.711
43.1524
52.5501
64.0102
78.4811
95.5034
118.866
143.081
179.611
200.539
243.324
93.8571
8.2027
8.48694
9.20107
10.3156
12.3555
14.5122
16.9255
20.0302
24.3588
29.6115
35.6979
43.1356
52.5244
63.9715
78.408
95.376
118.631
142.618
178.727
198.844
239.212
93.8385
8.20243
8.48657
9.20092
10.3157
12.354
14.5108
16.9238
20.0414
24.3625
29.6054
35.6848
43.1184
52.4981
63.9312
78.3329
95.2412
118.382
142.134
177.814
197.087
234.978
92.1301
8.20214
8.48619
9.20076
10.3159
12.3523
14.5092
16.9222
20.05
24.3647
29.5986
35.672
43.101
52.4711
63.8887
78.2534
95.0995
118.119
141.627
176.868
195.27
230.618
90.1598
8.20184
8.48577
9.2006
10.316
12.3505
14.5076
16.9206
20.0549
24.3654
29.5911
35.6596
43.0835
52.4437
63.8446
78.1712
94.9492
117.838
141.096
175.883
193.394
226.139
88.3291
8.20152
8.48534
9.20044
10.3162
12.3486
14.5059
16.9188
20.0559
24.3649
29.583
35.6477
43.0659
52.4157
63.7981
78.0843
94.791
117.539
140.539
174.853
191.462
221.546
86.4783
8.20118
8.48487
9.20027
10.3165
12.3466
14.504
16.9169
20.0539
24.3631
29.5747
35.6361
43.0482
52.3871
63.7498
77.9942
94.6232
117.22
139.954
173.771
189.472
216.844
84.5085
8.20082
8.48438
9.20009
10.3167
12.3444
14.5021
16.915
20.0494
24.36
29.5659
35.6248
43.0304
52.3579
63.699
77.8987
94.4467
116.881
139.341
172.634
187.425
212.037
82.4428
8.20044
8.48386
9.19991
10.317
12.3421
14.5001
16.913
20.0429
24.3555
29.5568
35.6139
43.0126
52.328
63.6462
77.7995
94.26
116.52
138.698
171.435
185.321
207.133
80.3166
8.20004
8.48331
9.19971
10.3173
12.3397
14.4979
16.9109
20.0347
24.3494
29.5473
35.6031
42.9946
52.2972
63.5905
77.6944
94.0638
116.137
138.024
170.17
183.157
202.135
78.1412
8.19962
8.48272
9.1995
10.3177
12.337
14.4956
16.9087
20.0252
24.3414
29.5372
35.5924
42.9764
52.2656
63.5326
77.5848
93.8568
115.732
137.316
168.836
180.934
197.051
75.9215
8.19917
8.48211
9.19929
10.318
12.3343
14.4931
16.9063
20.0149
24.3312
29.5263
35.5815
42.958
52.233
63.4715
77.4688
93.6395
115.305
136.575
167.43
178.649
191.885
73.6666
8.19869
8.48145
9.19906
10.3184
12.3314
14.4905
16.9038
20.0044
24.3182
29.5143
35.5703
42.9394
52.1993
63.4077
77.3477
93.4105
114.855
135.798
165.949
176.301
186.643
71.3897
8.19819
8.48076
9.19881
10.3188
12.3283
14.4878
16.901
19.994
24.3022
29.5008
35.5584
42.9204
52.1643
63.3403
77.2195
93.1703
114.382
134.985
164.392
173.889
181.331
69.1046
8.19766
8.48003
9.19854
10.3192
12.325
14.4849
16.8981
19.9841
24.2829
29.4851
35.5453
42.901
52.1282
63.2698
77.0853
92.9174
113.886
134.134
162.757
171.412
175.952
66.8258
8.1971
8.47926
9.19826
10.3197
12.3215
14.4818
16.895
19.9749
24.2603
29.4668
35.5305
42.8809
52.0906
63.1952
76.9431
92.6519
113.365
133.246
161.046
168.867
170.512
64.5681
8.19651
8.47844
9.19795
10.3202
12.3179
14.4785
16.8916
19.9664
24.2349
29.4451
35.5133
42.8598
52.0517
63.117
76.7941
92.3724
112.819
132.317
159.256
166.254
165.014
62.3453
8.19589
8.47758
9.19762
10.3206
12.3141
14.475
16.8881
19.9585
24.2073
29.4193
35.4925
42.8374
52.0111
63.0343
76.6362
92.079
112.246
131.347
157.389
163.572
159.462
60.1684
8.19522
8.47667
9.19726
10.3211
12.31
14.4713
16.8843
19.9509
24.1785
29.389
35.467
42.8127
51.9688
62.9475
76.4705
91.7701
111.646
130.335
155.443
160.818
153.861
58.0448
8.19452
8.47571
9.19688
10.3216
12.3058
14.4674
16.8803
19.9436
24.1496
29.3541
35.4353
42.7847
51.9244
62.8556
76.2949
91.4456
111.017
129.278
153.419
157.991
148.216
55.9769
8.19378
8.47469
9.19645
10.3221
12.3013
14.4632
16.876
19.9363
24.1217
29.3149
35.3958
42.7516
51.8774
62.7592
76.1104
91.1039
110.357
128.176
151.317
155.09
142.533
53.9623
8.19299
8.47363
9.196
10.3226
12.2966
14.4588
16.8715
19.9288
24.0955
29.2723
35.3473
42.7111
51.8265
62.657
75.9149
90.745
109.665
127.025
149.135
152.113
136.818
51.9922
8.19216
8.4725
9.19549
10.3231
12.2917
14.4541
16.8666
19.9209
24.0709
29.2277
35.2893
42.6599
51.77
62.5495
75.7094
90.3671
108.939
125.824
146.873
149.058
131.081
50.0527
8.19128
8.47132
9.19495
10.3236
12.2866
14.4491
16.8614
19.9126
24.0478
29.1827
35.2224
42.5944
51.7048
62.435
75.4917
89.9703
108.178
124.57
144.529
145.923
125.329
48.1245
8.19035
8.47006
9.19435
10.3241
12.2812
14.4439
16.8559
19.9037
24.0255
29.1382
35.1484
42.5115
51.6262
62.3126
75.2626
89.5528
107.38
123.262
142.103
142.707
119.575
46.1845
8.18936
8.46874
9.19371
10.3245
12.2755
14.4382
16.85
19.8943
24.0036
29.0951
35.07
42.4093
51.5275
62.1786
75.0193
89.1145
106.544
121.896
139.594
139.406
113.829
44.2065
8.18831
8.46735
9.19299
10.325
12.2695
14.4323
16.8436
19.8842
23.9815
29.0534
34.9902
42.2891
51.4013
62.0287
74.7616
88.6536
105.668
120.471
136.999
136.019
108.105
42.1635
8.1872
8.46588
9.19223
10.3253
12.2633
14.426
16.8369
19.8734
23.959
29.0126
34.9116
42.155
51.241
61.8544
74.4844
88.1694
104.751
118.984
134.319
132.544
102.416
40.0283
8.18602
8.46433
9.19137
10.3257
12.2568
14.4192
16.8297
19.8618
23.9357
28.972
34.8354
42.013
51.0446
61.6456
74.1833
87.659
103.792
117.433
131.552
128.978
96.776
37.7764
8.18477
8.4627
9.19046
10.3259
12.25
14.4121
16.822
19.8495
23.9112
28.9306
34.7619
41.8695
50.8161
61.3907
73.8472
87.1194
102.79
115.817
128.698
125.322
91.1984
35.3862
8.18345
8.46098
9.18944
10.3262
12.2428
14.4045
16.8137
19.8363
23.8854
28.8878
34.6904
41.7289
50.5659
61.083
73.4641
86.5439
101.742
114.133
125.756
121.574
85.6969
32.8415
8.18204
8.45917
9.18835
10.3263
12.2354
14.3965
16.8049
19.8223
23.858
28.843
34.6194
41.5931
50.3068
60.7234
73.0179
85.9236
100.645
112.38
122.727
117.734
80.2843
30.1319
8.18055
8.45725
9.18714
10.3263
12.2276
14.3879
16.7954
19.8073
23.829
28.7958
34.5471
41.4617
50.0499
60.3236
72.4989
85.2447
99.4939
110.557
119.611
113.803
74.9722
27.2539
8.17896
8.45523
9.18583
10.3263
12.2194
14.3788
16.7853
19.7913
23.7982
28.7459
34.4721
41.3324
49.8012
59.9016
71.9052
84.4934
98.2809
108.661
116.411
109.784
69.771
24.2114
8.17727
8.45309
9.18439
10.3261
12.2109
14.3691
16.7745
19.7742
23.7656
28.6931
34.3933
41.2022
49.5612
59.4754
71.2507
83.6577
96.9962
106.691
113.129
105.679
64.6898
21.016
8.17548
8.45085
9.18284
10.3258
12.2019
14.3588
16.7629
19.756
23.731
28.6372
34.3102
41.0682
49.326
59.0565
70.558
82.7357
95.63
104.646
109.77
101.493
59.7369
17.6858
8.17358
8.44846
9.18113
10.3253
12.1926
14.3479
16.7504
19.7365
23.6944
28.5779
34.2221
40.9283
49.0899
58.6476
69.8525
81.7372
94.1755
102.526
106.343
97.2345
54.9198
14.2456
8.17156
8.44595
9.17928
10.3247
12.1829
14.3363
16.7371
19.7156
23.6555
28.515
34.1287
40.781
48.8475
58.2436
69.1509
80.6832
92.6329
100.334
102.862
92.9137
50.2467
10.7249
8.16941
8.44329
9.17725
10.3239
12.1727
14.324
16.7228
19.6933
23.6143
28.4483
34.0295
40.6253
48.5947
57.8358
68.4578
79.5968
91.0111
98.0759
99.3439
88.5468
45.727
7.1571
8.16712
8.44049
9.17506
10.3228
12.162
14.3108
16.7074
19.6695
23.5705
28.3777
33.9242
40.4606
48.3288
57.4155
67.7657
78.4948
89.3253
95.7602
95.8149
84.156
41.3728
3.57811
8.16468
8.43752
9.17265
10.3215
12.1509
14.2968
16.691
19.644
23.5241
28.3027
33.8122
40.2861
48.0485
56.9762
67.0618
77.3819
87.5914
93.396
92.303
79.7707
37.1993
0.0258229
8.16209
8.43438
9.17005
10.32
12.1392
14.282
16.6733
19.6167
23.4748
28.2232
33.6933
40.1011
47.7526
56.5142
66.3332
76.2517
85.8213
90.9876
88.8343
75.4269
33.2254
-3.46079
8.15933
8.43105
9.16721
10.3181
12.127
14.2662
16.6544
19.5875
23.4225
28.1388
33.567
39.9049
47.4402
56.0276
65.571
75.0909
84.0185
88.5316
85.4238
71.1637
29.4723
-6.84189
8.15639
8.42754
9.16414
10.3159
12.1142
14.2494
16.6341
19.5562
23.367
28.0493
33.4329
39.697
47.1101
55.5151
64.7705
73.8864
82.1785
86.0203
82.0664
67.0156
25.9608
-10.0778
8.15326
8.4238
9.16078
10.3134
12.1008
14.2315
16.6123
19.5228
23.308
27.9544
33.2904
39.4766
46.7614
54.9755
63.9304
72.6289
80.2903
83.447
78.7359
63.0031
22.7074
-13.13
8.14992
8.41986
9.15716
10.3105
12.0868
14.2124
16.5889
19.487
23.2454
27.8537
33.139
39.243
46.3932
54.4074
63.0501
71.315
78.3418
80.8088
75.3953
59.1219
19.7167
-15.9635
8.14636
8.41566
9.15321
10.3072
12.0721
14.1922
16.5638
19.4487
23.1788
27.7468
32.9783
38.9955
46.0044
53.8095
62.129
69.9447
76.3255
78.1043
72.0152
55.342
16.9751
-18.55
8.14257
8.41122
9.14894
10.3033
12.0567
14.1706
16.5369
19.4077
23.1081
27.6334
32.8077
38.7333
45.5942
53.1806
61.1659
68.5194
74.241
75.3322
68.5846
51.62
14.4454
-20.8719
8.13852
8.40649
9.14429
10.299
12.0406
14.1477
16.508
19.3638
23.0329
27.513
32.6265
38.4557
45.1615
52.5195
60.1599
67.04
72.0927
72.4939
65.1086
47.9192
12.0714