/*--------------------------------*- C++ -*----------------------------------*\
| =========                 |                                                 |
| \\      /  F ield         | OpenFOAM: The Open Source CFD Toolbox           |
|  \\    /   O peration     | Version:  v1912                                 |
|   \\  /    A nd           | Website:  www.openfoam.com                      |
|    \\/     M anipulation  |                                                 |
\*---------------------------------------------------------------------------*/
FoamFile
{
    version     2.0;
    format      ascii;
    class       surfaceScalarField;
    location    "120";
    object      phi;
}
// * * * * * * * * * * * * * * * * * * * * * * * * * * * * * * * * * * * * * //

dimensions      [0 3 -1 0 0 0 0];
oriented        oriented;


internalField   nonuniform List<scalar> 
24588
(
6.81657e-05
2.30509e-08
6.81143e-05
6.16383e-08
6.80455e-05
7.05302e-08
6.79161e-05
1.09842e-07
6.77807e-05
1.40936e-07
6.75995e-05
1.82955e-07
6.73731e-05
2.25944e-07
6.70723e-05
2.98603e-07
6.67048e-05
3.69807e-07
6.6259e-05
4.49599e-07
6.56966e-05
5.599e-07
6.49931e-05
7.02462e-07
6.41348e-05
8.36382e-07
6.29702e-05
1.15711e-06
6.16276e-05
1.46711e-06
5.93211e-05
2.18791e-06
5.66278e-05
2.70565e-06
5.22291e-05
4.39641e-06
4.59079e-05
6.32163e-06
3.4894e-05
1.10144e-05
2.09269e-05
1.39669e-05
2.0927e-05
6.81659e-05
4.66655e-08
6.81114e-05
1.29961e-07
6.80358e-05
1.48975e-07
6.79195e-05
1.99605e-07
6.77879e-05
2.79972e-07
6.76015e-05
3.71855e-07
6.73672e-05
4.59793e-07
6.7072e-05
5.91143e-07
6.67102e-05
7.34329e-07
6.62588e-05
9.05483e-07
6.56921e-05
1.1235e-06
6.49979e-05
1.39499e-06
6.41274e-05
1.68164e-06
6.29512e-05
2.32164e-06
6.16423e-05
2.90359e-06
5.93608e-05
4.35684e-06
5.66274e-05
5.4617e-06
5.21816e-05
8.83932e-06
4.59319e-05
1.25723e-05
3.47823e-05
2.21648e-05
2.08649e-05
2.78839e-05
4.17921e-05
6.81659e-05
7.02621e-08
6.8112e-05
1.97369e-07
6.80359e-05
2.27219e-07
6.79187e-05
2.922e-07
6.77872e-05
4.1844e-07
6.76013e-05
5.59857e-07
6.73672e-05
6.9329e-07
6.70719e-05
8.83824e-07
6.67101e-05
1.09891e-06
6.62589e-05
1.36117e-06
6.56913e-05
1.68828e-06
6.49939e-05
2.09121e-06
6.41324e-05
2.5184e-06
6.29613e-05
3.48615e-06
6.16394e-05
4.3676e-06
5.93895e-05
6.4691e-06
5.6623e-05
8.25581e-06
5.21951e-05
1.3262e-05
4.58905e-05
1.88782e-05
3.47797e-05
3.32766e-05
2.08671e-05
4.1796e-05
6.26594e-05
6.8166e-05
9.37609e-08
6.81115e-05
2.65357e-07
6.80356e-05
3.06082e-07
6.79191e-05
3.82461e-07
6.77872e-05
5.57868e-07
6.76009e-05
7.48741e-07
6.73666e-05
9.27095e-07
6.70713e-05
1.17651e-06
6.67094e-05
1.46364e-06
6.62581e-05
1.81674e-06
6.56919e-05
2.25125e-06
6.49971e-05
2.78446e-06
6.41251e-05
3.36528e-06
6.29509e-05
4.648e-06
6.16311e-05
5.8084e-06
5.94075e-05
8.5852e-06
5.66461e-05
1.10428e-05
5.2206e-05
1.76987e-05
4.58646e-05
2.52214e-05
3.47896e-05
4.43526e-05
2.08851e-05
5.57002e-05
8.35447e-05
6.8166e-05
1.17244e-07
6.81125e-05
3.31902e-07
6.80361e-05
3.84346e-07
6.79184e-05
4.76495e-07
6.77867e-05
6.96548e-07
6.76009e-05
9.36489e-07
6.73669e-05
1.16045e-06
6.70715e-05
1.46937e-06
6.67095e-05
1.82847e-06
6.62583e-05
2.27235e-06
6.56904e-05
2.81637e-06
6.4991e-05
3.48283e-06
6.41293e-05
4.20275e-06
6.29613e-05
5.81093e-06
6.16289e-05
7.28568e-06
5.94169e-05
1.06588e-05
5.66727e-05
1.38151e-05
5.22045e-05
2.21608e-05
4.58754e-05
3.1552e-05
3.48206e-05
5.54083e-05
2.09197e-05
6.96006e-05
0.000104465
6.81661e-05
1.40652e-07
6.81116e-05
3.99638e-07
6.80355e-05
4.6356e-07
6.79189e-05
5.66958e-07
6.77867e-05
8.3653e-07
6.76003e-05
1.12543e-06
6.73661e-05
1.39426e-06
6.70708e-05
1.76217e-06
6.67086e-05
2.19345e-06
6.62574e-05
2.72779e-06
6.56918e-05
3.37865e-06
6.49974e-05
4.17567e-06
6.41233e-05
5.05209e-06
6.29506e-05
6.97039e-06
6.16223e-05
8.72606e-06
5.94184e-05
1.27605e-05
5.66921e-05
1.65669e-05
5.22109e-05
2.66388e-05
4.59012e-05
3.78638e-05
3.4873e-05
6.64377e-05
2.09721e-05
8.35013e-05
0.000125437
6.81661e-05
1.64029e-07
6.81128e-05
4.65533e-07
6.80361e-05
5.42145e-07
6.79179e-05
6.62489e-07
6.77859e-05
9.75582e-07
6.76003e-05
1.31283e-06
6.73663e-05
1.6275e-06
6.70709e-05
2.05516e-06
6.67087e-05
2.55853e-06
6.62573e-05
3.18346e-06
6.56892e-05
3.94398e-06
6.49898e-05
4.87432e-06
6.41296e-05
5.88877e-06
6.29633e-05
8.13479e-06
6.16196e-05
1.0213e-05
5.94159e-05
1.48281e-05
5.6712e-05
1.92941e-05
5.22236e-05
3.11207e-05
4.59385e-05
4.41501e-05
3.49495e-05
7.74274e-05
2.10437e-05
9.74067e-05
0.000146481
6.81661e-05
1.87364e-07
6.81116e-05
5.3317e-07
6.80354e-05
6.21776e-07
6.79186e-05
7.52981e-07
6.77861e-05
1.11616e-06
6.75998e-05
1.5018e-06
6.73655e-05
1.86133e-06
6.70702e-05
2.34806e-06
6.67079e-05
2.92376e-06
6.62565e-05
3.63882e-06
6.56919e-05
4.50525e-06
6.4999e-05
5.56566e-06
6.41224e-05
6.74141e-06
6.29491e-05
9.29492e-06
6.16032e-05
1.16595e-05
5.94078e-05
1.69342e-05
5.673e-05
2.19916e-05
5.22475e-05
3.56015e-05
4.59882e-05
5.04114e-05
3.50534e-05
8.83632e-05
2.11363e-05
0.000111324
0.000167617
6.81661e-05
2.10686e-07
6.8113e-05
5.98602e-07
6.80362e-05
7.00414e-07
6.79176e-05
8.49357e-07
6.77854e-05
1.25551e-06
6.75999e-05
1.68893e-06
6.7366e-05
2.09443e-06
6.70706e-05
2.64117e-06
6.67083e-05
3.28907e-06
6.62567e-05
4.09454e-06
6.5688e-05
5.07132e-06
6.49865e-05
6.26642e-06
6.41262e-05
7.57932e-06
6.29643e-05
1.04589e-05
6.158e-05
1.31696e-05
5.94099e-05
1.90055e-05
5.67169e-05
2.4696e-05
5.22866e-05
4.00266e-05
4.60494e-05
5.66488e-05
3.5187e-05
9.92261e-05
2.12523e-05
0.000125258
0.00018887
6.81661e-05
2.33966e-07
6.81115e-05
6.66219e-07
6.80352e-05
7.80417e-07
6.79185e-05
9.39653e-07
6.77857e-05
1.39661e-06
6.75994e-05
1.87792e-06
6.73651e-05
2.32826e-06
6.70698e-05
2.93412e-06
6.67074e-05
3.65449e-06
6.62559e-05
4.54987e-06
6.56925e-05
5.63135e-06
6.50028e-05
6.95459e-06
6.41198e-05
8.44007e-06
6.29468e-05
1.1622e-05
6.15353e-05
1.46385e-05
5.94049e-05
2.10911e-05
5.66572e-05
2.74548e-05
5.23231e-05
4.43609e-05
4.61209e-05
6.28525e-05
3.53508e-05
0.000109997
2.13932e-05
0.000139215
0.000210263
6.81661e-05
2.5721e-07
6.81132e-05
7.31183e-07
6.80361e-05
8.59323e-07
6.79172e-05
1.03708e-06
6.77848e-05
1.53623e-06
6.75995e-05
2.0647e-06
6.73657e-05
2.56125e-06
6.70703e-05
3.2273e-06
6.67078e-05
4.01998e-06
6.62561e-05
5.00567e-06
6.5688e-05
6.19689e-06
6.49833e-05
7.65888e-06
6.41017e-05
9.30183e-06
6.29453e-05
1.27864e-05
6.14818e-05
1.61745e-05
5.93731e-05
2.31495e-05
5.65752e-05
3.0256e-05
5.23561e-05
4.85761e-05
4.62038e-05
6.90045e-05
3.5542e-05
0.000120659
2.15598e-05
0.000153197
0.000231823
6.81662e-05
2.80434e-07
6.81114e-05
7.98787e-07
6.8035e-05
9.39719e-07
6.79184e-05
1.12715e-06
6.77854e-05
1.67777e-06
6.7599e-05
2.25368e-06
6.73648e-05
2.79509e-06
6.70695e-05
3.52026e-06
6.6707e-05
4.38555e-06
6.62553e-05
5.46112e-06
6.56933e-05
6.75554e-06
6.50008e-05
8.34989e-06
6.40899e-05
1.01946e-05
6.29258e-05
1.39449e-05
6.14135e-05
1.76997e-05
5.93234e-05
2.52288e-05
5.65027e-05
3.30823e-05
5.23901e-05
5.26901e-05
4.62949e-05
7.51007e-05
3.57538e-05
0.0001312
2.17512e-05
0.0001672
0.000253574
6.81662e-05
3.03631e-07
6.81134e-05
8.63342e-07
6.80362e-05
1.01863e-06
6.79171e-05
1.22514e-06
6.77846e-05
1.81751e-06
6.75994e-05
2.44017e-06
6.73657e-05
3.02796e-06
6.70704e-05
3.81346e-06
6.67076e-05
4.75135e-06
6.62555e-05
5.91732e-06
6.56903e-05
7.31829e-06
6.49866e-05
9.05346e-06
6.40644e-05
1.11041e-05
6.29043e-05
1.5113e-05
6.13444e-05
1.92985e-05
5.92759e-05
2.72743e-05
5.64533e-05
3.59046e-05
5.24234e-05
5.67174e-05
4.63878e-05
8.11357e-05
3.59782e-05
0.00014161
2.19653e-05
0.000181212
0.00027554
6.81662e-05
3.26805e-07
6.81113e-05
9.30927e-07
6.80349e-05
1.09936e-06
6.79184e-05
1.31489e-06
6.77852e-05
1.95939e-06
6.75989e-05
2.62911e-06
6.73647e-05
3.26179e-06
6.70695e-05
4.10636e-06
6.67068e-05
5.11713e-06
6.62543e-05
6.37345e-06
6.56918e-05
7.87759e-06
6.49995e-05
9.7445e-06
6.40625e-05
1.20314e-05
6.28703e-05
1.63006e-05
6.12867e-05
2.08757e-05
5.92385e-05
2.93244e-05
5.64224e-05
3.87239e-05
5.24522e-05
6.06892e-05
4.64771e-05
8.71115e-05
3.62082e-05
0.000151879
2.21992e-05
0.000195221
0.000297739
6.81662e-05
3.49918e-07
6.81136e-05
9.94979e-07
6.80363e-05
1.17849e-06
6.79169e-05
1.41381e-06
6.77842e-05
2.09921e-06
6.75993e-05
2.81522e-06
6.73656e-05
3.49454e-06
6.70704e-05
4.39951e-06
6.67074e-05
5.48314e-06
6.62535e-05
6.83147e-06
6.56877e-05
8.44114e-06
6.49853e-05
1.04473e-05
6.4044e-05
1.29685e-05
6.28352e-05
1.75163e-05
6.12431e-05
2.24899e-05
5.92102e-05
3.13437e-05
5.64024e-05
4.15306e-05
5.24755e-05
6.46139e-05
4.65599e-05
9.30266e-05
3.64389e-05
0.000162
2.245e-05
0.00020921
0.000320189
6.81662e-05
3.73039e-07
6.81113e-05
1.06252e-06
6.80348e-05
1.25956e-06
6.79184e-05
1.50327e-06
6.7785e-05
2.24136e-06
6.75987e-05
3.0041e-06
6.73646e-05
3.72835e-06
6.70696e-05
4.69234e-06
6.6707e-05
5.84879e-06
6.6251e-05
7.29093e-06
6.5681e-05
9.00817e-06
6.49773e-05
1.115e-05
6.40253e-05
1.39171e-05
6.28028e-05
1.87344e-05
6.12107e-05
2.40714e-05
5.91884e-05
3.33707e-05
5.63877e-05
4.43336e-05
5.24939e-05
6.85092e-05
4.66357e-05
9.88854e-05
3.66678e-05
0.000171968
2.2715e-05
0.000223162
0.000342904
6.81662e-05
3.96102e-07
6.81138e-05
1.12612e-06
6.80364e-05
1.33864e-06
6.7917e-05
1.6027e-06
6.77842e-05
2.38113e-06
6.75994e-05
3.18989e-06
6.73659e-05
3.96094e-06
6.70708e-05
4.9854e-06
6.67079e-05
6.21466e-06
6.62496e-05
7.75327e-06
6.56706e-05
9.58532e-06
6.49648e-05
1.18565e-05
6.40014e-05
1.48799e-05
6.27766e-05
1.99641e-05
6.11864e-05
2.56781e-05
5.9171e-05
3.53765e-05
5.63757e-05
4.71277e-05
5.25085e-05
7.23747e-05
4.67051e-05
0.000104688
3.68935e-05
0.00018178
2.29921e-05
0.000237063
0.000365897
6.81663e-05
4.1918e-07
6.81112e-05
1.19362e-06
6.80348e-05
1.41998e-06
6.79185e-05
1.69179e-06
6.77849e-05
2.52347e-06
6.75988e-05
3.37867e-06
6.73647e-05
4.1947e-06
6.707e-05
5.27805e-06
6.67073e-05
6.58035e-06
6.62485e-05
8.21539e-06
6.56592e-05
1.01719e-05
6.49531e-05
1.2562e-05
6.39802e-05
1.58512e-05
6.27552e-05
2.11852e-05
6.11674e-05
2.72554e-05
5.91563e-05
3.73927e-05
5.63649e-05
4.99208e-05
5.25207e-05
7.62201e-05
4.67696e-05
0.00011044
3.71161e-05
0.000191434
2.32797e-05
0.0002509
0.000389176
6.81663e-05
4.42157e-07
6.81141e-05
1.25669e-06
6.80365e-05
1.49923e-06
6.79169e-05
1.79207e-06
6.7784e-05
2.66319e-06
6.75994e-05
3.56406e-06
6.7366e-05
4.42718e-06
6.70712e-05
5.57089e-06
6.67079e-05
6.9466e-06
6.62487e-05
8.6785e-06
6.56504e-05
1.07688e-05
6.49389e-05
1.32743e-05
6.39612e-05
1.6829e-05
6.27379e-05
2.24126e-05
6.11522e-05
2.88545e-05
5.91436e-05
3.93936e-05
5.63547e-05
5.27086e-05
5.25317e-05
8.00415e-05
4.68309e-05
0.00011614
3.73363e-05
0.000200928
2.35769e-05
0.000264659
0.000412753
6.81663e-05
4.65192e-07
6.81112e-05
1.32414e-06
6.80347e-05
1.58085e-06
6.79186e-05
1.88083e-06
6.77849e-05
2.8057e-06
6.75988e-05
3.75271e-06
6.73648e-05
4.66095e-06
6.70704e-05
5.86325e-06
6.67071e-05
7.31284e-06
6.62461e-05
9.14265e-06
6.56471e-05
1.13657e-05
6.49252e-05
1.39957e-05
6.39454e-05
1.78078e-05
6.27235e-05
2.36309e-05
6.11396e-05
3.04287e-05
5.91322e-05
4.14059e-05
5.6345e-05
5.54973e-05
5.25426e-05
8.38452e-05
4.68905e-05
0.000121793
3.75554e-05
0.000210264
2.38834e-05
0.000278331
0.000436637
6.81663e-05
4.8812e-07
6.81143e-05
1.38676e-06
6.80367e-05
1.66001e-06
6.7917e-05
1.98154e-06
6.77841e-05
2.94527e-06
6.75997e-05
3.93774e-06
6.73664e-05
4.89335e-06
6.70719e-05
6.15581e-06
6.67081e-05
7.67953e-06
6.62407e-05
9.61388e-06
6.56496e-05
1.19566e-05
6.49122e-05
1.47337e-05
6.39318e-05
1.87886e-05
6.27114e-05
2.4855e-05
6.11288e-05
3.20228e-05
5.91218e-05
4.34061e-05
5.63357e-05
5.82824e-05
5.25542e-05
8.76252e-05
4.69501e-05
0.000127396
3.77749e-05
0.000219439
2.41993e-05
0.000291906
0.000460836
6.81663e-05
5.11122e-07
6.81111e-05
1.45416e-06
6.80347e-05
1.74183e-06
6.79188e-05
2.06988e-06
6.7785e-05
3.08788e-06
6.7599e-05
4.12624e-06
6.73651e-05
5.12712e-06
6.7071e-05
6.44793e-06
6.67077e-05
8.04563e-06
6.62329e-05
1.00917e-05
6.56521e-05
1.25364e-05
6.49007e-05
1.54847e-05
6.39202e-05
1.97683e-05
6.27008e-05
2.6071e-05
6.11194e-05
3.35951e-05
5.91122e-05
4.54179e-05
5.6327e-05
6.1069e-05
5.25672e-05
9.13863e-05
4.70107e-05
0.000132953
3.79966e-05
0.000228453
2.4525e-05
0.000305378
0.000485361
6.81664e-05
5.33965e-07
6.81146e-05
1.51624e-06
6.80368e-05
1.82111e-06
6.7917e-05
2.17137e-06
6.7784e-05
3.22734e-06
6.75999e-05
4.31084e-06
6.73666e-05
5.35938e-06
6.70723e-05
6.74041e-06
6.67094e-05
8.41135e-06
6.62267e-05
1.05782e-05
6.56513e-05
1.31121e-05
6.48902e-05
1.62463e-05
6.39099e-05
2.07489e-05
6.26914e-05
2.72928e-05
6.11109e-05
3.51863e-05
5.91034e-05
4.74192e-05
5.6319e-05
6.38525e-05
5.2582e-05
9.51219e-05
4.70733e-05
0.000138462
3.82225e-05
0.000237304
2.48613e-05
0.000318739
0.000510223
6.81663e-05
5.56933e-07
6.81111e-05
1.5836e-06
6.80346e-05
1.90314e-06
6.79191e-05
2.25931e-06
6.7785e-05
3.37002e-06
6.75992e-05
4.4992e-06
6.73654e-05
5.59305e-06
6.70713e-05
7.03259e-06
6.67095e-05
8.77595e-06
6.62212e-05
1.10691e-05
6.56475e-05
1.36853e-05
6.48809e-05
1.70124e-05
6.39008e-05
2.17283e-05
6.2683e-05
2.85074e-05
6.11033e-05
3.67574e-05
5.90952e-05
4.94317e-05
5.63119e-05
6.66372e-05
5.25986e-05
9.88364e-05
4.71385e-05
0.000143922
3.84544e-05
0.000245988
2.52094e-05
0.000331984
0.000535432
6.81664e-05
5.79727e-07
6.81148e-05
1.64524e-06
6.8037e-05
1.98229e-06
6.79172e-05
2.36117e-06
6.77842e-05
3.50926e-06
6.76003e-05
4.68347e-06
6.73672e-05
5.82509e-06
6.70729e-05
7.32523e-06
6.67114e-05
9.14017e-06
6.62179e-05
1.15661e-05
6.56422e-05
1.42614e-05
6.48725e-05
1.77826e-05
6.38926e-05
2.27085e-05
6.26754e-05
2.97278e-05
6.10962e-05
3.83466e-05
5.90877e-05
5.14341e-05
5.63057e-05
6.94183e-05
5.26171e-05
0.000102524
4.72068e-05
0.000149332
3.86942e-05
0.0002545
2.55705e-05
0.000345107
0.000561003
6.81664e-05
6.02674e-07
6.8111e-05
1.71257e-06
6.80346e-05
2.06447e-06
6.79193e-05
2.44863e-06
6.77852e-05
3.65196e-06
6.75995e-05
4.87168e-06
6.73659e-05
6.0586e-06
6.70718e-05
7.61747e-06
6.67101e-05
9.50459e-06
6.62156e-05
1.20627e-05
6.56365e-05
1.48402e-05
6.48648e-05
1.85539e-05
6.38851e-05
2.36876e-05
6.26683e-05
3.09414e-05
6.10895e-05
3.99169e-05
5.90807e-05
5.34474e-05
5.63004e-05
7.22e-05
5.26373e-05
0.000106188
4.72784e-05
0.000154691
3.8944e-05
0.000262835
2.59461e-05
0.000358105
0.000586949
6.81664e-05
6.25383e-07
6.8115e-05
1.77369e-06
6.80371e-05
2.14372e-06
6.79173e-05
2.55117e-06
6.77842e-05
3.79103e-06
6.76005e-05
5.05555e-06
6.73677e-05
6.29042e-06
6.70734e-05
7.91002e-06
6.67069e-05
9.87378e-06
6.62174e-05
1.25549e-05
6.56307e-05
1.54272e-05
6.48576e-05
1.93274e-05
6.3878e-05
2.46675e-05
6.26616e-05
3.2161e-05
6.10832e-05
4.15052e-05
5.90743e-05
5.54501e-05
5.62962e-05
7.49772e-05
5.26589e-05
0.000109824
4.73532e-05
0.000159997
3.92055e-05
0.000270983
2.63376e-05
0.000370973
0.000613286
6.81664e-05
6.48303e-07
6.8111e-05
1.841e-06
6.80346e-05
2.22609e-06
6.79196e-05
2.63821e-06
6.77853e-05
3.93377e-06
6.75998e-05
5.24357e-06
6.73663e-05
6.52384e-06
6.70724e-05
8.20209e-06
6.67e-05
1.02489e-05
6.62205e-05
1.30352e-05
6.56251e-05
1.60223e-05
6.48509e-05
2.01013e-05
6.38715e-05
2.56463e-05
6.26553e-05
3.33741e-05
6.10772e-05
4.30749e-05
5.90682e-05
5.74636e-05
5.62928e-05
7.7754e-05
5.26816e-05
0.000113436
4.74311e-05
0.000165248
3.94801e-05
0.000278934
2.67466e-05
0.000383706
0.000640033
6.81665e-05
6.70962e-07
6.81152e-05
1.90172e-06
6.80373e-05
2.30522e-06
6.79175e-05
2.74106e-06
6.77844e-05
4.0726e-06
6.7601e-05
5.42708e-06
6.73682e-05
6.75555e-06
6.70745e-05
8.49417e-06
6.6696e-05
1.06299e-05
6.62224e-05
1.35103e-05
6.56196e-05
1.66253e-05
6.48445e-05
2.08767e-05
6.38652e-05
2.66259e-05
6.26492e-05
3.45933e-05
6.10713e-05
4.46626e-05
5.90625e-05
5.94661e-05
5.62902e-05
8.05254e-05
5.27054e-05
0.000117019
4.75119e-05
0.000170441
3.9769e-05
0.000286677
2.71745e-05
0.0003963
0.000667208
6.81664e-05
6.93864e-07
6.81109e-05
1.96903e-06
6.80346e-05
2.38775e-06
6.79198e-05
2.82763e-06
6.77855e-05
4.21534e-06
6.76001e-05
5.61488e-06
6.73667e-05
6.98892e-06
6.70734e-05
8.78573e-06
6.66921e-05
1.10138e-05
6.62223e-05
1.39802e-05
6.56143e-05
1.72331e-05
6.48385e-05
2.16522e-05
6.38593e-05
2.76045e-05
6.26433e-05
3.58061e-05
6.10654e-05
4.62322e-05
5.90569e-05
6.14792e-05
5.62884e-05
8.32954e-05
5.27299e-05
0.000120579
4.7595e-05
0.000175576
4.00727e-05
0.000294199
2.76224e-05
0.000408751
0.00069483
6.81665e-05
7.16426e-07
6.81155e-05
2.02923e-06
6.80374e-05
2.46704e-06
6.79175e-05
2.93123e-06
6.77843e-05
4.35404e-06
6.76012e-05
5.79796e-06
6.73685e-05
7.2205e-06
6.70755e-05
9.07715e-06
6.66906e-05
1.14011e-05
6.62212e-05
1.44506e-05
6.5609e-05
1.78456e-05
6.48326e-05
2.24289e-05
6.38535e-05
2.85839e-05
6.26376e-05
3.70253e-05
6.10597e-05
4.782e-05
5.90515e-05
6.3481e-05
5.62872e-05
8.60589e-05
5.27552e-05
0.00012411
4.76801e-05
0.00018065
4.03913e-05
0.000301488
2.80912e-05
0.000421051
0.000722921
6.81664e-05
7.39315e-07
6.81108e-05
2.09657e-06
6.80346e-05
2.54974e-06
6.79201e-05
3.01732e-06
6.77856e-05
4.49681e-06
6.76004e-05
5.98555e-06
6.7367e-05
7.45387e-06
6.70745e-05
9.36807e-06
6.66881e-05
1.17899e-05
6.62192e-05
1.49195e-05
6.56039e-05
1.84606e-05
6.4827e-05
2.32055e-05
6.3848e-05
2.95624e-05
6.2632e-05
3.8238e-05
6.10539e-05
4.93898e-05
5.90462e-05
6.54934e-05
5.62866e-05
8.88198e-05
5.2781e-05
0.000127616
4.77668e-05
0.000185665
4.07246e-05
0.00030853
2.85814e-05
0.000433194
0.000751503
6.81666e-05
7.61818e-07
6.81157e-05
2.15637e-06
6.80375e-05
2.62896e-06
6.79177e-05
3.12131e-06
6.77845e-05
4.63528e-06
6.76016e-05
6.16822e-06
6.7369e-05
7.68539e-06
6.70768e-05
9.65874e-06
6.66874e-05
1.21815e-05
6.62166e-05
1.5391e-05
6.55988e-05
1.90786e-05
6.48215e-05
2.39831e-05
6.38426e-05
3.05417e-05
6.26265e-05
3.94576e-05
6.1048e-05
5.09781e-05
5.90408e-05
6.74942e-05
5.62865e-05
9.15732e-05
5.28074e-05
0.000131094
4.78545e-05
0.000190618
4.10719e-05
0.000315313
2.90931e-05
0.000445172
0.000780596
6.81664e-05
7.84711e-07
6.81107e-05
2.22381e-06
6.80345e-05
2.71181e-06
6.79204e-05
3.20681e-06
6.77858e-05
4.77806e-06
6.76008e-05
6.35553e-06
6.73675e-05
7.91877e-06
6.70759e-05
9.94879e-06
6.66852e-05
1.25744e-05
6.62134e-05
1.58627e-05
6.55938e-05
1.9698e-05
6.48162e-05
2.47603e-05
6.38373e-05
3.15201e-05
6.2621e-05
4.06704e-05
6.10421e-05
5.25487e-05
5.90353e-05
6.95057e-05
5.62869e-05
9.4323e-05
5.28343e-05
0.000134548
4.79432e-05
0.000195509
4.14324e-05
0.000321824
2.96266e-05
0.000456978
0.000810222
6.81666e-05
8.07167e-07
6.81158e-05
2.2833e-06
6.80377e-05
2.79096e-06
6.7918e-05
3.31098e-06
6.77846e-05
4.91635e-06
6.76021e-05
6.53781e-06
6.73696e-05
8.15025e-06
6.70783e-05
1.02385e-05
6.66846e-05
1.297e-05
6.62099e-05
1.63381e-05
6.55888e-05
2.03194e-05
6.4811e-05
2.55384e-05
6.38321e-05
3.24993e-05
6.26156e-05
4.18908e-05
6.10361e-05
5.41377e-05
5.90298e-05
7.15054e-05
5.62876e-05
9.70643e-05
5.28618e-05
0.000137972
4.80326e-05
0.000200338
4.18053e-05
0.000328051
3.01816e-05
0.000468602
0.000840404
6.81664e-05
8.30047e-07
6.81106e-05
2.35083e-06
6.80344e-05
2.8741e-06
6.79205e-05
3.3961e-06
6.77858e-05
5.05921e-06
6.76011e-05
6.72479e-06
6.73678e-05
8.38366e-06
6.7077e-05
1.05277e-05
6.66825e-05
1.33665e-05
6.6206e-05
1.68145e-05
6.55838e-05
2.09414e-05
6.48059e-05
2.6316e-05
6.3827e-05
3.34776e-05
6.26101e-05
4.31041e-05
6.103e-05
5.57095e-05
5.9024e-05
7.35162e-05
5.62886e-05
9.98011e-05
5.28897e-05
0.000141372
4.81228e-05
0.000205105
4.21902e-05
0.000333984
3.07583e-05
0.000480034
0.000871162
6.81666e-05
8.52436e-07
6.8116e-05
2.40999e-06
6.80377e-05
2.95342e-06
6.79179e-05
3.50084e-06
6.77845e-05
5.19745e-06
6.76022e-05
6.90662e-06
6.73698e-05
8.61503e-06
6.70772e-05
1.08188e-05
6.66832e-05
1.37617e-05
6.62019e-05
1.72963e-05
6.55788e-05
2.15647e-05
6.48008e-05
2.70942e-05
6.3822e-05
3.44568e-05
6.26047e-05
4.43253e-05
6.10238e-05
5.73e-05
5.90181e-05
7.55153e-05
5.62898e-05
0.000102529
5.29182e-05
0.000144743
4.82136e-05
0.000209809
4.25866e-05
0.000339611
3.13568e-05
0.000491263
0.000902519
6.81664e-05
8.75301e-07
6.81105e-05
2.47765e-06
6.80342e-05
3.03698e-06
6.79205e-05
3.58562e-06
6.77856e-05
5.34051e-06
6.76011e-05
7.09338e-06
6.7368e-05
8.84823e-06
6.70685e-05
1.11169e-05
6.66853e-05
1.41457e-05
6.61975e-05
1.77839e-05
6.55737e-05
2.21883e-05
6.47958e-05
2.78718e-05
6.3817e-05
3.5435e-05
6.25993e-05
4.55391e-05
6.10176e-05
5.88734e-05
5.9012e-05
7.75257e-05
5.62912e-05
0.000105251
5.29474e-05
0.000148088
4.83051e-05
0.000214452
4.29946e-05
0.000344921
3.19774e-05
0.000502281
0.000934497
6.81667e-05
8.97542e-07
6.81163e-05
2.53621e-06
6.80376e-05
3.11671e-06
6.79176e-05
3.69166e-06
6.7784e-05
5.47871e-06
6.76019e-05
7.2749e-06
6.73702e-05
9.07887e-06
6.70624e-05
1.14233e-05
6.66874e-05
1.45209e-05
6.6193e-05
1.82788e-05
6.55687e-05
2.28128e-05
6.47908e-05
2.865e-05
6.38121e-05
3.64141e-05
6.2594e-05
4.67613e-05
6.10112e-05
6.04661e-05
5.90058e-05
7.95248e-05
5.62926e-05
0.000107963
5.29772e-05
0.000151402
4.83971e-05
0.000219032
4.34139e-05
0.000349904
3.26208e-05
0.000513073
0.000967118
6.81664e-05
9.20376e-07
6.81104e-05
2.60386e-06
6.8034e-05
3.2006e-06
6.79205e-05
3.77636e-06
6.77854e-05
5.62192e-06
6.76009e-05
7.46149e-06
6.73684e-05
9.31152e-06
6.70578e-05
1.17327e-05
6.66866e-05
1.48923e-05
6.61885e-05
1.87766e-05
6.55637e-05
2.34373e-05
6.47859e-05
2.94275e-05
6.38072e-05
3.73921e-05
6.25886e-05
4.79757e-05
6.10048e-05
6.2041e-05
5.89993e-05
8.15354e-05
5.62939e-05
0.00011067
5.30079e-05
0.000154689
4.8489e-05
0.000223551
4.38441e-05
0.00035455
3.32871e-05
0.00052363
0.0010004
6.81667e-05
9.42658e-07
6.8116e-05
2.66278e-06
6.80374e-05
3.28049e-06
6.79178e-05
3.8814e-06
6.77841e-05
5.76039e-06
6.76021e-05
7.64293e-06
6.73697e-05
9.54288e-06
6.70583e-05
1.2043e-05
6.66847e-05
1.52659e-05
6.61839e-05
1.92777e-05
6.55586e-05
2.40628e-05
6.4781e-05
3.02054e-05
6.38024e-05
3.83712e-05
6.25833e-05
4.91996e-05
6.09983e-05
6.36379e-05
5.89927e-05
8.3534e-05
5.62952e-05
0.000113366
5.30395e-05
0.000157943
4.85802e-05
0.00022801
4.4283e-05
0.000358847
3.39754e-05
0.000533938
0.00103438
6.81665e-05
9.65434e-07
6.81109e-05
2.72964e-06
6.80344e-05
3.36409e-06
6.79205e-05
3.96773e-06
6.77855e-05
5.90315e-06
6.7601e-05
7.82917e-06
6.7363e-05
9.78089e-06
6.70642e-05
1.23414e-05
6.66824e-05
1.56478e-05
6.61794e-05
1.97804e-05
6.55536e-05
2.46884e-05
6.47761e-05
3.09825e-05
6.37977e-05
3.93489e-05
6.2578e-05
5.04145e-05
6.09919e-05
6.52142e-05
5.8986e-05
8.55455e-05
5.62963e-05
0.000116057
5.30722e-05
0.000161169
4.86698e-05
0.000232413
4.47255e-05
0.000362791
3.4682e-05
0.000543981
0.00106906
6.81669e-05
9.87477e-07
6.81167e-05
2.78738e-06
6.80377e-05
3.44417e-06
6.79175e-05
4.07489e-06
6.77839e-05
6.04112e-06
6.76011e-05
8.01125e-06
6.73583e-05
1.00227e-05
6.70737e-05
1.26257e-05
6.66801e-05
1.60413e-05
6.6175e-05
2.02859e-05
6.55485e-05
2.53151e-05
6.47713e-05
3.17601e-05
6.37929e-05
4.03278e-05
6.25728e-05
5.16396e-05
6.09854e-05
6.68136e-05
5.89792e-05
8.75449e-05
5.62971e-05
0.000118738
5.31061e-05
0.000164358
4.87573e-05
0.000236761
4.51614e-05
0.000366387
3.53983e-05
0.000553744
0.00110446
6.81661e-05
1.01077e-06
6.81086e-05
2.85739e-06
6.80325e-05
3.52833e-06
6.79202e-05
4.1563e-06
6.77852e-05
6.18481e-06
6.75995e-05
8.19876e-06
6.7355e-05
1.02672e-05
6.70781e-05
1.29026e-05
6.66779e-05
1.64416e-05
6.61707e-05
2.07928e-05
6.55435e-05
2.59421e-05
6.47664e-05
3.25368e-05
6.37882e-05
4.13053e-05
6.25676e-05
5.28556e-05
6.09789e-05
6.83921e-05
5.89725e-05
8.95569e-05
5.62974e-05
0.000121414
5.31423e-05
0.000167514
4.88412e-05
0.000241063
4.55859e-05
0.000369642
3.62018e-05
0.000563128
0.00114066
-9.97167e-06
9.97148e-06
-1.99964e-05
1.00245e-05
-2.30109e-05
3.01423e-06
-1.95744e-05
-3.43756e-06
-1.52452e-05
-4.33024e-06
-1.26881e-05
-2.55881e-06
-1.11347e-05
-1.55548e-06
-1.00333e-05
-1.1051e-06
-8.63526e-06
-1.42388e-06
-6.01775e-06
-2.64122e-06
-2.00415e-06
-4.11626e-06
3.21991e-06
-5.06592e-06
9.35245e-06
-6.09916e-06
1.53818e-05
-6.03515e-06
2.07842e-05
-5.40756e-06
2.57782e-05
-4.99496e-06
3.13581e-05
-5.58023e-06
3.73194e-05
-5.96128e-06
4.17621e-05
-4.44145e-06
4.44198e-05
-2.65894e-06
4.64264e-05
-2.00673e-06
4.82647e-05
-1.83855e-06
5.06696e-05
-2.40485e-06
5.54716e-05
-4.80233e-06
6.12797e-05
-5.80832e-06
6.45639e-05
-3.28397e-06
6.56072e-05
-1.04327e-06
6.60241e-05
-4.16881e-07
6.63653e-05
-3.41349e-07
6.66694e-05
-3.04033e-07
6.69197e-05
-2.50283e-07
6.71168e-05
-1.97145e-07
6.7276e-05
-1.59149e-07
6.74118e-05
-1.35862e-07
-6.01047e-08
-9.9735e-06
1.99446e-05
-1.98393e-05
1.98897e-05
-2.26068e-05
5.78126e-06
-1.8959e-05
-7.08751e-06
-1.47819e-05
-8.50952e-06
-1.24e-05
-4.94417e-06
-1.0891e-05
-3.06841e-06
-9.73796e-06
-2.26562e-06
-8.32955e-06
-2.88132e-06
-6.00364e-06
-5.0129e-06
-2.46695e-06
-7.80485e-06
2.53537e-06
-9.80974e-06
8.69841e-06
-1.21978e-05
1.49016e-05
-1.22493e-05
2.04414e-05
-1.09574e-05
2.54011e-05
-9.95659e-06
3.07248e-05
-1.09046e-05
3.66255e-05
-1.18619e-05
4.1361e-05
-9.17453e-06
4.42471e-05
-5.5474e-06
4.63458e-05
-4.10566e-06
4.82175e-05
-3.71087e-06
5.0561e-05
-4.74835e-06
5.52349e-05
-9.47684e-06
6.10747e-05
-1.16485e-05
6.45021e-05
-6.71091e-06
6.56052e-05
-2.14625e-06
6.60274e-05
-8.39157e-07
6.6366e-05
-6.80135e-07
6.66692e-05
-6.07128e-07
6.69199e-05
-5.00964e-07
6.71177e-05
-3.94923e-07
6.7277e-05
-3.18438e-07
6.74128e-05
-2.71683e-07
-1.20372e-07
-9.94915e-06
2.98934e-05
-1.95405e-05
2.94806e-05
-2.20531e-05
8.29343e-06
-1.83294e-05
-1.08134e-05
-1.42868e-05
-1.25541e-05
-1.19896e-05
-7.245e-06
-1.04671e-05
-4.59475e-06
-9.3111e-06
-3.42895e-06
-8.04399e-06
-4.19687e-06
-6.05863e-06
-7.04237e-06
-2.85752e-06
-1.11647e-05
2.03156e-06
-1.44312e-05
8.25468e-06
-1.83549e-05
1.45683e-05
-1.8575e-05
2.01942e-05
-1.6594e-05
2.51192e-05
-1.48836e-05
3.02057e-05
-1.59917e-05
3.60076e-05
-1.76639e-05
4.09764e-05
-1.41407e-05
4.40833e-05
-8.65675e-06
4.62795e-05
-6.30202e-06
4.81882e-05
-5.62009e-06
5.04762e-05
-7.03636e-06
5.50264e-05
-1.40276e-05
6.08878e-05
-1.75102e-05
6.44448e-05
-1.02675e-05
6.56041e-05
-3.30543e-06
6.60315e-05
-1.26665e-06
6.63674e-05
-1.01618e-06
6.66696e-05
-9.09236e-07
6.69206e-05
-7.51962e-07
6.71189e-05
-5.93259e-07
6.72782e-05
-4.77768e-07
6.74139e-05
-4.07367e-07
-1.80688e-07
-9.85432e-06
3.97473e-05
-1.91404e-05
3.87661e-05
-2.13761e-05
1.05286e-05
-1.75515e-05
-1.46406e-05
-1.36475e-05
-1.64605e-05
-1.14491e-05
-9.44744e-06
-9.9412e-06
-6.10709e-06
-8.81121e-06
-4.56755e-06
-7.69671e-06
-5.36469e-06
-6.02819e-06
-8.7606e-06
-3.11121e-06
-1.42008e-05
1.70212e-06
-1.90022e-05
7.97707e-06
-2.45542e-05
1.43691e-05
-2.49804e-05
2.00506e-05
-2.22882e-05
2.49358e-05
-1.97715e-05
2.97954e-05
-2.0852e-05
3.54458e-05
-2.33143e-05
4.05876e-05
-1.92793e-05
4.39216e-05
-1.19937e-05
4.62265e-05
-8.6071e-06
4.81759e-05
-7.57017e-06
5.04149e-05
-9.27532e-06
5.48466e-05
-1.846e-05
6.07185e-05
-2.33824e-05
6.43916e-05
-1.39401e-05
6.56039e-05
-4.51758e-06
6.60363e-05
-1.69915e-06
6.63694e-05
-1.34946e-06
6.66705e-05
-1.21025e-06
6.69217e-05
-1.00321e-06
6.71206e-05
-7.92073e-07
6.72798e-05
-6.37041e-07
6.74153e-05
-5.42799e-07
-2.40952e-07
-9.69523e-06
4.94422e-05
-1.86386e-05
4.77089e-05
-2.0564e-05
1.24535e-05
-1.66125e-05
-1.85945e-05
-1.28458e-05
-2.02293e-05
-1.0764e-05
-1.15334e-05
-9.30123e-06
-7.57414e-06
-8.21612e-06
-5.66097e-06
-7.25638e-06
-6.37885e-06
-5.87943e-06
-1.01877e-05
-3.19566e-06
-1.70006e-05
1.58154e-06
-2.35313e-05
7.90681e-06
-3.07973e-05
1.4351e-05
-3.14407e-05
2.00558e-05
-2.80071e-05
2.48878e-05
-2.46064e-05
2.95255e-05
-2.54905e-05
3.49598e-05
-2.87487e-05
4.01967e-05
-2.45124e-05
4.37613e-05
-1.55616e-05
4.61875e-05
-1.10335e-05
4.81815e-05
-9.56479e-06
5.03767e-05
-1.14705e-05
5.46945e-05
-2.27784e-05
6.05666e-05
-2.92549e-05
6.43425e-05
-1.77156e-05
6.56045e-05
-5.77953e-06
6.60418e-05
-2.13643e-06
6.63721e-05
-1.67995e-06
6.6672e-05
-1.51007e-06
6.69234e-05
-1.25462e-06
6.71226e-05
-9.91284e-07
6.72817e-05
-7.96154e-07
6.74168e-05
-6.77863e-07
-3.01064e-07
-9.4765e-06
5.89183e-05
-1.80357e-05
5.62675e-05
-1.96224e-05
1.40395e-05
-1.55262e-05
-2.26937e-05
-1.18784e-05
-2.38796e-05
-9.91871e-06
-1.34981e-05
-8.52614e-06
-8.97191e-06
-7.49339e-06
-6.70441e-06
-6.68322e-06
-7.2526e-06
-5.5689e-06
-1.13626e-05
-3.06094e-06
-1.95963e-05
1.73151e-06
-2.80737e-05
8.11389e-06
-3.70799e-05
1.45847e-05
-3.79296e-05
2.02766e-05
-3.37161e-05
2.50354e-05
-2.93689e-05
2.94519e-05
-2.9908e-05
3.45987e-05
-3.38955e-05
3.98296e-05
-2.97387e-05
4.36087e-05
-1.93448e-05
4.61659e-05
-1.35911e-05
4.82072e-05
-1.16069e-05
5.03621e-05
-1.36253e-05
5.4569e-05
-2.6986e-05
6.04315e-05
-3.51177e-05
6.42976e-05
-2.15812e-05
6.56062e-05
-7.08803e-06
6.6048e-05
-2.57825e-06
6.63755e-05
-2.00763e-06
6.66741e-05
-1.80858e-06
6.69256e-05
-1.50614e-06
6.71251e-05
-1.1908e-06
6.72839e-05
-9.55002e-07
6.74185e-05
-8.12437e-07
-3.60923e-07
-9.20189e-06
6.81199e-05
-1.73355e-05
6.44006e-05
-1.85717e-05
1.52751e-05
-1.43303e-05
-2.69376e-05
-1.07634e-05
-2.74484e-05
-8.90409e-06
-1.5362e-05
-7.58886e-06
-1.02919e-05
-6.60162e-06
-7.70217e-06
-5.92718e-06
-7.99394e-06
-5.03892e-06
-1.23162e-05
-2.63339e-06
-2.20875e-05
2.24615e-06
-3.26891e-05
8.69846e-06
-4.34234e-05
1.51647e-05
-4.44184e-05
2.08008e-05
-3.93715e-05
2.54609e-05
-3.40332e-05
2.96514e-05
-3.40997e-05
3.44368e-05
-3.86809e-05
3.95372e-05
-3.48338e-05
4.34797e-05
-2.3292e-05
4.61679e-05
-1.62795e-05
4.82566e-05
-1.36964e-05
5.0372e-05
-1.57407e-05
5.44692e-05
-3.10837e-05
6.03125e-05
-4.09614e-05
6.42569e-05
-2.55252e-05
6.56088e-05
-8.43985e-06
6.60549e-05
-3.02436e-06
6.63795e-05
-2.33246e-06
6.66767e-05
-2.1057e-06
6.69282e-05
-1.75767e-06
6.7128e-05
-1.39054e-06
6.72865e-05
-1.11348e-06
6.74204e-05
-9.46404e-07
-4.20428e-07
-8.87482e-06
7.69943e-05
-1.6545e-05
7.20701e-05
-1.74366e-05
1.61657e-05
-1.3072e-05
-3.13053e-05
-9.54239e-06
-3.09805e-05
-7.73075e-06
-1.71791e-05
-6.4681e-06
-1.15606e-05
-5.49975e-06
-8.6842e-06
-4.93459e-06
-8.63923e-06
-4.22138e-06
-1.31092e-05
-1.82826e-06
-2.45448e-05
3.21814e-06
-3.74571e-05
9.75459e-06
-4.98301e-05
1.61897e-05
-5.08776e-05
2.17284e-05
-4.49333e-05
2.62661e-05
-3.85763e-05
3.02276e-05
-3.80628e-05
3.45763e-05
-4.30295e-05
3.93925e-05
-3.9643e-05
4.34031e-05
-2.73087e-05
4.62043e-05
-1.90811e-05
4.83354e-05
-1.58285e-05
5.04085e-05