/*--------------------------------*- C++ -*----------------------------------*\
| =========                 |                                                 |
| \\      /  F ield         | OpenFOAM: The Open Source CFD Toolbox           |
|  \\    /   O peration     | Version:  v1912                                 |
|   \\  /    A nd           | Website:  www.openfoam.com                      |
|    \\/     M anipulation  |                                                 |
\*---------------------------------------------------------------------------*/
FoamFile
{
    version     2.0;
    format      ascii;
    class       volScalarField;
    location    "120";
    object      yPlus;
}
// * * * * * * * * * * * * * * * * * * * * * * * * * * * * * * * * * * * * * //

dimensions      [0 0 0 0 0 0 0];


internalField   uniform 0;

boundaryField
{
    inlet
    {
        type            calculated;
        value           uniform 0;
    }
    outlet
    {
        type            calculated;
        value           uniform 0;
    }
    lowerSymmetry
    {
        type            symmetryPlane;
    }
    obstical
    {
        type            calculated;
        value           nonuniform List<scalar> 
88
(
504.97
506.773
510.718
516.964
525.444
536.054
548.689
563.243
579.608
597.679
617.351
638.521
661.085
684.942
709.992
736.141
763.301
791.397
820.361
850.139
880.686
911.968
943.961
976.649
1010.02
1044.08
1078.83
1114.29
1150.46
1187.37
1225.04
1263.49
1302.74
1342.82
1383.74
1425.53
1468.22
1511.81
1556.34
1601.83
1648.29
1695.81
1744.74
1799
158.884
164.987
171.245
177.298
183.164
188.863
194.41
199.808
205.055
210.143
215.061
219.798
224.342
228.679
232.801
236.702
240.379
243.835
247.081
250.136
253.034
255.825
258.499
260.981
263.264
265.302
267.043
268.442
269.455
270.053
270.235
270.06
269.628
269.006
268.049
266.216
262.491
255.517
243.838
226.127
201.277
168.397
126.65
74.9615
)
;
    }
    obsticalTop
    {
        type            calculated;
        value           nonuniform List<scalar> 
20
(
52.7719
37.3273
46.1171
52.4932
55.4967
57.2551
57.9582
57.7694
56.9335
55.5899
53.7258
51.2462
48.0718
44.0418
39.1278
32.7258
26.5918
17.5803
15.5023
10.081
)
;
    }
    top
    {
        type            calculated;
        value           uniform 0;
    }
    defaultFaces
    {
        type            empty;
    }
}


// ************************************************************************* //
