/*--------------------------------*- C++ -*----------------------------------*\
| =========                 |                                                 |
| \\      /  F ield         | OpenFOAM: The Open Source CFD Toolbox           |
|  \\    /   O peration     | Version:  v1912                                 |
|   \\  /    A nd           | Website:  www.openfoam.com                      |
|    \\/     M anipulation  |                                                 |
\*---------------------------------------------------------------------------*/
FoamFile
{
    version     2.0;
    format      ascii;
    class       volScalarField;
    location    "200";
    object      k;
}
// * * * * * * * * * * * * * * * * * * * * * * * * * * * * * * * * * * * * * //

dimensions      [0 2 -2 0 0 0 0];


internalField   nonuniform List<scalar> 
10000
(
1e-15
1e-15
1e-15
1.01047e-15
1.16592e-15
1.34873e-15
2.13093e-15
3.06244e-15
8.80906e-15
1.48853e-14
9.02399e-14
1.45798e-13
6.86657e-13
1.10801e-12
3.4565e-12
5.15731e-12
1.22238e-11
3.08745e-12
1.80982e-11
1.614e-07
1e-15
1e-15
1.03505e-15
1.1468e-15
2.01488e-15
3.17286e-15
1.02329e-14
2.43917e-14
6.86545e-14
1.40801e-13
4.3922e-13
7.77066e-13
1.51888e-12
3.13418e-12
5.07969e-12
9.55145e-12
7.67751e-12
2.63155e-11
1.99416e-09
1.8156e-08
1e-15
1e-15
1e-15
1e-15
1e-15
1e-15
1e-15
2.08445e-15
3.23171e-15
1.1069e-14
2.02502e-14
5.28007e-14
7.61714e-14
1.73972e-13
2.48167e-13
4.9564e-13
5.89445e-13
3.79818e-09
7.92942e-09
2.21803e-07
1e-15
1e-15
1e-15
1e-15
1e-15
1e-15
1e-15
1.01831e-15
1e-15
1.23795e-15
1.39684e-15
3.46244e-15
4.42244e-15
1.13086e-14
1.48734e-14
3.60773e-14
4.2282e-14
2.66663e-10
7.24688e-10
4.77232e-12
1e-15
1e-15
1e-15
1e-15
1e-15
1e-15
1e-15
1e-15
1e-15
1e-15
1e-15
1e-15
1e-15
1.18888e-15
1.28363e-15
2.71727e-15
3.10874e-15
1.34117e-11
4.02119e-11
2.80341e-13
1e-15
1e-15
1e-15
1e-15
1e-15
1e-15
1e-15
1.00324e-15
1e-15
1e-15
1e-15
1e-15
1e-15
1e-15
1e-15
1e-15
1e-15
5.22787e-13
1.28205e-12
1.03891e-14
1e-15
1e-15
1e-15
1e-15
1e-15
1e-15
1e-15
1e-15
1e-15
1e-15
1e-15
1e-15
1e-15
1e-15
1e-15
1.00236e-15
1e-15
4.14911e-14
1.01971e-13
1.7807e-15
1e-15
1e-15
1e-15
1e-15
1e-15
1e-15
1e-15
1e-15
1e-15
1e-15
1e-15
1e-15
1e-15
1e-15
1e-15
1e-15
1e-15
2.00848e-15
3.76654e-15
1.02256e-15
1e-15
1e-15
1e-15
1e-15
1e-15
1e-15
1e-15
1e-15
1e-15
1e-15
1e-15
1e-15
1e-15
1e-15
1e-15
1e-15
1e-15
1e-15
1e-15
1e-15
1e-15
1e-15
1e-15
1e-15
1e-15
1e-15
1.00405e-15
1e-15
1e-15
1e-15
1e-15
1e-15
1.00221e-15
1e-15
1e-15
1e-15
1e-15
1e-15
1e-15
1e-15
1e-15
1e-15
1e-15
1e-15
1e-15
1e-15
1e-15
1.00968e-15
1e-15
1e-15
1e-15
1e-15
1e-15
1.00385e-15
1e-15
1e-15
1e-15
1e-15
1e-15
1e-15
1e-15
1e-15
1e-15
1e-15
1e-15
1e-15
1e-15
1e-15
1.01152e-15
1e-15
1e-15
1e-15
1e-15
1e-15
1.00466e-15
1e-15
1e-15
1e-15
1e-15
1e-15
1e-15
1e-15
1e-15
1e-15
1e-15
1e-15
1e-15
1e-15
1e-15
1e-15
1e-15
1e-15
1e-15
1e-15
1e-15
1e-15
1e-15
1e-15
1e-15
1e-15
1e-15
1e-15
1e-15
1e-15
1e-15
1e-15
1e-15
1e-15
1e-15
1.00852e-15
1e-15
1e-15
1e-15
1e-15
1e-15
1e-15
1e-15
1e-15
1e-15
1e-15
1e-15
1e-15
1e-15
1e-15
1e-15
1e-15
1e-15
1e-15
1e-15
1e-15
1.01476e-15
1e-15
1e-15
1e-15
1.01246e-15
1e-15
1e-15
1e-15
1e-15
1e-15
1e-15
1e-15
1e-15
1e-15
1e-15
1e-15
1e-15
1.01122e-15
1e-15
1e-15
1e-15
1e-15
1e-15
1e-15
1e-15
1.01481e-15
1e-15
1e-15
1e-15
1e-15
1e-15
1e-15
1e-15
1e-15
1e-15
1e-15
1.0073e-15
1e-15
1e-15
1e-15
1e-15
1e-15
1e-15
1e-15
1.01514e-15
1e-15
1e-15
1e-15
1e-15
1e-15
1e-15
1e-15
1e-15
1e-15
1e-15
1e-15
1e-15
1.01249e-15
1e-15
1e-15
1e-15
1e-15
1e-15
1e-15
1e-15
1.01529e-15
1e-15
1e-15
1e-15
1e-15
1e-15
1e-15
1e-15
1e-15
1e-15
1e-15
1e-15
1e-15
1.015e-15
1e-15
1e-15
1e-15
1e-15
1e-15
1e-15
1e-15
1.0152e-15
1e-15
1e-15
1e-15
1e-15
1e-15
1e-15
1e-15
1e-15
1e-15
1e-15
1e-15
1e-15
1.01589e-15
1e-15
1e-15
1e-15
1e-15
1e-15
1.0075e-15
1e-15
1e-15
1e-15
1e-15
1e-15
1e-15
1e-15
1e-15
1e-15
1e-15
1e-15
1e-15
1e-15
1e-15
1.00188e-15
1e-15
1e-15
1e-15
1e-15
1e-15
1.00846e-15
1e-15
1e-15
1e-15
1e-15
1e-15
1e-15
1e-15
1e-15
1e-15
1e-15
1e-15
1e-15
1e-15
1e-15
1.01291e-15
1e-15
1e-15
1e-15
1e-15
1e-15
1e-15
1e-15
1e-15
1e-15
1e-15
1e-15
1e-15
1e-15
1e-15
1e-15
1e-15
1e-15
1e-15
1.01692e-15
1e-15
1e-15
1e-15
1e-15
1e-15
1e-15
1.01308e-15
1e-15
1e-15
1e-15
1e-15
1e-15
1e-15
1e-15
1e-15
1e-15
1e-15
1e-15
1e-15
1e-15
1.01708e-15
1e-15
1e-15
1e-15
1e-15
1e-15
1e-15
1e-15
1e-15
1e-15
1e-15
1e-15
1e-15
1e-15
1e-15
1e-15
1e-15
1e-15
1e-15
1e-15
1e-15
1.01681e-15
1e-15
1e-15
1e-15
1e-15
1e-15
1e-15
1e-15
1e-15
1e-15
1e-15
1e-15
1e-15
1e-15
1e-15
1e-15
1e-15
1.01528e-15
1e-15
1e-15
1e-15
1e-15
1e-15
1e-15
1e-15
1e-15
1e-15
1.01478e-15
1e-15
1e-15
1e-15
1e-15
1e-15
1e-15
1e-15
1e-15
1e-15
1e-15
1.01211e-15
1e-15
1e-15
1e-15
1e-15
1e-15
1e-15
1e-15
1.01483e-15
1e-15
1e-15
1e-15
1e-15
1e-15
1e-15
1e-15
1e-15
1e-15
1e-15
1e-15
1e-15
1e-15
1e-15
1e-15
1e-15
1e-15
1e-15
1.01525e-15
1e-15
1e-15
1e-15
1e-15
1e-15
1e-15
1e-15
1.00089e-15
1e-15
1e-15
1e-15
1e-15
1e-15
1e-15
1e-15
1e-15
1e-15
1e-15
1.01603e-15
1e-15
1e-15
1e-15
1e-15
1e-15
1e-15
1e-15
1e-15
1e-15
1.00984e-15
1e-15
1e-15
1e-15
1e-15
1e-15
1e-15
1e-15
1e-15
1.01653e-15
1e-15
1e-15
1e-15
1e-15
1e-15
1e-15
1e-15
1e-15
1e-15
1e-15
1e-15
1.01432e-15
1e-15
1e-15
1e-15
1e-15
1e-15
1e-15
1.0145e-15
1e-15
1e-15
1e-15
1e-15
1e-15
1e-15
1e-15
1e-15
1e-15
1e-15
1e-15
1.01001e-15
1e-15
1e-15
1e-15
1e-15
1e-15
1e-15
1e-15
1e-15
1.01678e-15
1e-15
1e-15
1e-15
1e-15
1e-15
1e-15
1e-15
1e-15
1e-15
1e-15
1e-15
1e-15
1e-15
1e-15
1e-15
1e-15
1e-15
1e-15
1e-15
1e-15
1.01578e-15
1e-15
1e-15
1e-15
1e-15
1e-15
1e-15
1e-15
1e-15
1e-15
1.01011e-15
1e-15
1e-15
1e-15
1e-15
1e-15
1e-15
1e-15
1e-15
1e-15
1.01643e-15
1e-15
1e-15
1e-15
1e-15
1e-15
1e-15
1e-15
1e-15
1e-15
1e-15
1.0146e-15
1e-15
1e-15
1e-15
1e-15
1e-15
1e-15
1e-15
1.01631e-15
1e-15
1e-15
1e-15
1e-15
1e-15
1e-15
1e-15
1e-15
1e-15
1e-15
1e-15
1e-15
1.01668e-15
1e-15
1e-15
1e-15
1e-15
1e-15
1.00832e-15
1e-15
1e-15
1e-15
1e-15
1e-15
1e-15
1e-15
1e-15
1e-15
1e-15
1e-15
1e-15
1e-15
1.01683e-15
1e-15
1e-15
1e-15
1e-15
1e-15
1e-15
1.01466e-15
1e-15
1e-15
1e-15
1e-15
1e-15
1e-15
1e-15
1e-15
1e-15
1e-15
1e-15
1e-15
1e-15
1e-15
1e-15
1e-15
1e-15
1e-15
1e-15
1e-15
1.01589e-15
1e-15
1e-15
1e-15
1e-15
1e-15
1e-15
1e-15
1e-15
1e-15
1e-15
1e-15
1.0168e-15
1e-15
1e-15
1e-15
1e-15
1e-15
1e-15
1e-15
1e-15
1e-15
1.01533e-15
1e-15
1e-15
1e-15
1e-15
1e-15
1e-15
1e-15
1e-15
1e-15
1e-15
1.01765e-15
1e-15
1e-15
1e-15
1e-15
1e-15
1e-15
1e-15
1e-15
1e-15
1.01523e-15
1e-15
1e-15
1e-15
1e-15
1e-15
1e-15
1e-15
1e-15
1e-15
1e-15
1.01781e-15
1e-15
1e-15
1e-15
1e-15
1e-15
1e-15
1e-15
1.01529e-15
1e-15
1e-15
1e-15
1e-15
1e-15
1e-15
1e-15
1e-15
1e-15
1e-15
1e-15
1.01796e-15
1e-15
1e-15
1e-15
1e-15
1e-15
1e-15
1.01417e-15
1e-15
1e-15
1e-15
1e-15
1e-15
1e-15
1e-15
1e-15
1e-15
1e-15
1e-15
1e-15
1.01792e-15
1e-15
1e-15
1e-15
1e-15
1e-15
1.00882e-15
1e-15
1e-15
1e-15
1e-15
1e-15
1e-15
1e-15
1e-15
1e-15
1e-15
1e-15
1e-15
1.01763e-15
1e-15
1e-15
1e-15
1e-15
1e-15
1.0086e-15
1e-15
1e-15
1e-15
1e-15
1e-15
1e-15
1e-15
1e-15
1e-15
1e-15
1e-15
1e-15
1.01689e-15
1e-15
1e-15
1e-15
1e-15
1e-15
1.00829e-15
1e-15
1e-15
1e-15
1e-15
1e-15
1e-15
1e-15
1e-15
1e-15
1e-15
1e-15
1e-15
1e-15
1e-15
1.01769e-15
1e-15
1e-15
1e-15
1e-15
1e-15
1e-15
1e-15
1e-15
1e-15
1.01512e-15
1e-15
1e-15
1e-15
1e-15
1e-15
1e-15
1e-15
1e-15
1e-15
1e-15
1.01788e-15
1e-15
1e-15
1e-15
1e-15
1e-15
1e-15
1e-15
1e-15
1e-15
1e-15
1e-15
1e-15
1e-15
1e-15
1e-15
1e-15
1.01482e-15
1e-15
1e-15
1e-15
1e-15
1e-15
1e-15
1.01739e-15
1e-15
1e-15
1e-15
1e-15
1e-15
1e-15
1e-15
1e-15
1e-15
1e-15
1e-15
1.01045e-15
1e-15
1e-15
1e-15
1e-15
1e-15
1e-15
1e-15
1e-15
1.01689e-15
1e-15
1e-15
1e-15
1e-15
1e-15
1e-15
1e-15
1e-15
1e-15
1e-15
1e-15
1.01485e-15
1e-15
1e-15
1e-15
1e-15
1e-15
1e-15
1.01736e-15
1e-15
1e-15
1e-15
1e-15
1e-15
1e-15
1e-15
1e-15
1e-15
1e-15
1e-15
1.01046e-15
1e-15
1e-15
1e-15
1e-15
1e-15
1e-15
1.01492e-15
1e-15
1e-15
1e-15
1e-15
1e-15
1e-15
1e-15
1e-15
1e-15
1e-15
1e-15
1e-15
1e-15
1.01484e-15
1e-15
1e-15
1e-15
1e-15
1e-15
1e-15
1.01486e-15
1e-15
1e-15
1e-15
1e-15
1e-15
1e-15
1e-15
1e-15
1e-15
1e-15
1e-15
1e-15
1e-15
1.01686e-15
1e-15
1e-15
1e-15
1e-15
1e-15
1e-15
1e-15
1.01621e-15
1e-15
1e-15
1e-15
1e-15
1e-15
1e-15
1e-15
1e-15
1e-15
1e-15
1e-15
1e-15
1.01769e-15
1e-15
1e-15
1e-15
1e-15
1e-15
1e-15
1e-15
1.01582e-15
1e-15
1e-15
1e-15
1e-15
1e-15
1e-15
1e-15
1e-15
1e-15
1e-15
1e-15
1e-15
1.01807e-15
1e-15
1e-15
1e-15
1e-15
1e-15
1e-15
1e-15
1.01549e-15
1e-15
1e-15
1e-15
1e-15
1e-15
1e-15
1e-15
1e-15
1e-15
1e-15
1e-15
1.01281e-15
1e-15
1e-15
1e-15
1e-15
1e-15
1e-15
1.01453e-15
1e-15
1e-15
1e-15
1e-15
1e-15
1e-15
1e-15
1e-15
1e-15
1e-15
1e-15
1e-15
1e-15
1e-15
1e-15
1e-15
1e-15
1e-15
1e-15
1e-15
1.01584e-15
1e-15
1e-15
1e-15
1e-15
1e-15
1e-15
1e-15
1e-15
1e-15
1e-15
1e-15
1.00261e-15
1e-15
1e-15
1e-15
1e-15
1e-15
1e-15
1e-15
1e-15
1.01538e-15
1e-15
1e-15
1e-15
1e-15
1e-15
1.00171e-15
1e-15
1e-15
1e-15
1e-15
1e-15
1.00562e-15
1e-15
1e-15
1e-15
1e-15
1e-15
1e-15
1e-15
1e-15
1e-15
1e-15
1e-15
1e-15
1e-15
1e-15
1.00791e-15
1e-15
1e-15
1e-15
1e-15
1e-15
1.00677e-15
1e-15
1e-15
1e-15
1e-15
1e-15
1.00966e-15
1e-15
1e-15
1e-15
1e-15
1e-15
1e-15
1e-15
1.01053e-15
1e-15
1e-15
1e-15
1e-15
1e-15
1e-15
1.01484e-15
1e-15
1e-15
1e-15
1e-15
1e-15
1e-15
1e-15
1e-15
1e-15
1e-15
1e-15
1.00177e-15
1e-15
1e-15
1e-15
1e-15
1e-15
1e-15
1e-15
1e-15
1e-15
1e-15
1.01628e-15
1e-15
1e-15
1e-15
1e-15
1e-15
1e-15
1e-15
1e-15
1e-15
1.01051e-15
1e-15
1e-15
1e-15
1e-15
1e-15
1e-15
1e-15
1e-15
1.01687e-15
1e-15
1e-15
1e-15
1e-15
1e-15
1e-15
1e-15
1e-15
1e-15
1e-15
1e-15
1.01352e-15
1e-15
1e-15
1e-15
1e-15
1e-15
1e-15
1e-15
1e-15
1.01447e-15
1e-15
1e-15
1e-15
1e-15
1e-15
1e-15
1e-15
1e-15
1e-15
1e-15
1e-15
1.01687e-15
1e-15
1e-15
1e-15
1e-15
1e-15
1e-15
1e-15
1.01622e-15
1e-15
1e-15
1e-15
1e-15
1e-15
1e-15
1e-15
1e-15
1e-15
1e-15
1e-15
1e-15
1.01736e-15
1e-15
1e-15
1e-15
1e-15
1e-15
1.00871e-15
1e-15
1e-15
1e-15
1e-15
1e-15
1e-15
1e-15
1e-15
1e-15
1e-15
1e-15
1e-15
1e-15
1.01774e-15
1e-15
1e-15
1e-15
1e-15
1e-15
1e-15
1.0145e-15
1e-15
1e-15
1e-15
1e-15
1e-15
1e-15
1e-15
1e-15
1e-15
1e-15
1e-15
1.01693e-15
1e-15
1e-15
1e-15
1e-15
1e-15
1e-15
1e-15
1e-15
1.01609e-15
1e-15
1e-15
1e-15
1e-15
1e-15
1e-15
1e-15
1e-15
1e-15
1e-15
1e-15
1.01774e-15
1e-15
1e-15
1e-15
1e-15
1e-15
1.0087e-15
1e-15
1e-15
1e-15
1e-15
1e-15
1e-15
1e-15
1e-15
1e-15
1e-15
1e-15
1e-15
1.01693e-15
1e-15
1e-15
1e-15
1e-15
1e-15
1.00832e-15
1e-15
1e-15
1e-15
1e-15
1e-15
1e-15
1e-15
1e-15
1e-15
1e-15
1e-15
1e-15
1e-15
1e-15
1e-15
1e-15
1e-15
1e-15
1.01722e-15
1e-15
1e-15
1e-15
1e-15
1e-15
1e-15
1e-15
1e-15
1e-15
1e-15
1e-15
1e-15
1e-15
1.01487e-15
1e-15
1e-15
1e-15
1e-15
1e-15
1e-15
1e-15
1e-15
1.01648e-15
1e-15
1e-15
1e-15
1e-15
1e-15
1e-15
1e-15
1e-15
1e-15
1e-15
1e-15
1.0169e-15
1e-15
1e-15
1e-15
1e-15
1e-15
1e-15
1e-15
1e-15
1e-15
1e-15
1e-15
1e-15
1e-15
1e-15
1e-15
1e-15
1e-15
1e-15
1e-15
1e-15
1.01772e-15
1e-15
1e-15
1e-15
1e-15
1e-15
1e-15
1e-15
1e-15
1e-15
1e-15
1e-15
1e-15
1e-15
1e-15
1e-15
1e-15
1e-15
1e-15
1e-15
1e-15
1.01276e-15
1e-15
1e-15
1e-15
1e-15
1e-15
1e-15
1e-15
1e-15
1e-15
1e-15
1e-15
1e-15
1e-15
1e-15
1e-15
1e-15
1e-15
1e-15
1.0174e-15
1e-15
1e-15
1e-15
1e-15
1e-15
1.00868e-15
1e-15
1e-15
1e-15
1e-15
1e-15
1e-15
1e-15
1e-15
1e-15
1e-15
1e-15
1e-15
1e-15
1e-15
1e-15
1e-15
1e-15
1e-15
1e-15
1.00898e-15
1e-15
1e-15
1e-15
1e-15
1e-15
1e-15
1e-15
1e-15
1e-15
1e-15
1e-15
1e-15
1e-15
1e-15
1.0181e-15
1e-15
1e-15
1e-15
1e-15
1e-15
1e-15
1e-15
1e-15
1e-15
1e-15
1e-15
1e-15
1e-15
1e-15
1e-15
1e-15
1e-15
1e-15
1e-15
1e-15
1.0178e-15
1e-15
1e-15
1e-15
1e-15
1e-15
1e-15
1e-15
1e-15
1e-15
1e-15
1e-15
1e-15
1e-15
1e-15
1e-15
1e-15
1e-15
1e-15
1e-15
1e-15
1.01753e-15
1e-15
1e-15
1e-15
1e-15
1e-15
1e-15
1e-15
1e-15
1e-15
1e-15
1e-15
1e-15
1e-15
1e-15
1e-15
1e-15
1e-15
1e-15
1e-15
1e-15
1.01718e-15
1e-15
1e-15
1e-15
1e-15
1e-15
1e-15
1e-15
1e-15
1e-15
1e-15
1e-15
1e-15
1e-15
1e-15
1e-15
1e-15
1e-15
1e-15
1e-15
1.01753e-15
1e-15
1e-15
1e-15
1e-15
1e-15
1e-15
1e-15
1e-15
1e-15
1e-15
1e-15
1e-15
1e-15
1e-15
1e-15
1e-15
1e-15
1e-15
1e-15
1e-15
1.0168e-15
1e-15
1e-15
1e-15
1e-15
1e-15
1e-15
1e-15
1e-15
1e-15
1e-15
1e-15
1e-15
1e-15
1e-15
1e-15
1e-15
1e-15
1e-15
1e-15
1.01709e-15
1e-15
1e-15
1e-15
1e-15
1e-15
1e-15
1e-15
1e-15
1e-15
1e-15
1e-15
1e-15
1e-15
1e-15
1e-15
1e-15
1e-15
1e-15
1e-15
1e-15
1.01641e-15
1e-15
1e-15
1e-15
1e-15
1e-15
1e-15
1e-15
1e-15
1e-15
1e-15
1e-15
1e-15
1e-15
1e-15
1e-15
1e-15
1e-15
1e-15
1.01707e-15
1e-15
1e-15
1e-15
1e-15
1e-15
1e-15
1e-15
1e-15
1e-15
1e-15
1e-15
1e-15
1e-15
1e-15
1e-15
1e-15
1e-15
1e-15
1.01743e-15
1e-15
1e-15
1e-15
1e-15
1e-15
1.00914e-15
1e-15
1e-15
1e-15
1e-15
1e-15
1e-15
1e-15
1e-15
1e-15
1e-15
1e-15
1e-15
1e-15
1.01719e-15
1e-15
1e-15
1e-15
1e-15
1e-15
1e-15
1e-15
1e-15
1e-15
1e-15
1e-15
1e-15
1e-15
1e-15
1e-15
1e-15
1e-15
1e-15
1e-15
1.01753e-15
1e-15
1e-15
1e-15
1e-15
1e-15
1.00919e-15
1e-15
1e-15
1e-15
1e-15
1e-15
1e-15
1e-15
1e-15
1e-15
1e-15
1e-15
1e-15
1.01711e-15
1e-15
1e-15
1e-15
1e-15
1e-15
1.00935e-15
1e-15
1e-15
1e-15
1e-15
1e-15
1e-15
1e-15
1e-15
1e-15
1e-15
1e-15
1e-15
1.01407e-15
1e-15
1e-15
1e-15
1e-15
1e-15
1.00941e-15
1e-15
1e-15
1e-15
1e-15
1e-15
1e-15
1e-15
1e-15
1e-15
1e-15
1e-15
1e-15
1.01277e-15
1e-15
1e-15
1e-15
1e-15
1e-15
1.00922e-15
1e-15
1e-15
1e-15
1e-15
1e-15
1e-15
1e-15
1e-15
1e-15
1e-15
1e-15
1e-15
1e-15
1e-15
1e-15
1e-15
1e-15
1e-15
1e-15
1.01619e-15
1e-15
1e-15
1e-15
1e-15
1e-15
1e-15
1e-15
1e-15
1e-15
1e-15
1e-15
1e-15
1e-15
1.01775e-15
1e-15
1e-15
1e-15
1e-15
1e-15
1.00889e-15
1e-15
1e-15
1e-15
1e-15
1e-15
1e-15
1e-15
1e-15
1e-15
1e-15
1e-15
1e-15
1e-15
1e-15
1.01781e-15
1e-15
1e-15
1e-15
1e-15
1e-15
1.00904e-15
1e-15
1e-15
1e-15
1e-15
1e-15
1e-15
1e-15
1e-15
1e-15
1e-15
1e-15
1e-15
1e-15
1e-15
1.01769e-15
1e-15
1e-15
1e-15
1e-15
1e-15
1.00924e-15
1e-15
1e-15
1e-15
1e-15
1e-15
1e-15
1e-15
1e-15
1e-15
1e-15
1e-15
1e-15
1e-15
1.01754e-15
1e-15
1e-15
1e-15
1e-15
1e-15
1.0091e-15
1e-15
1e-15
1e-15
1e-15
1e-15
1e-15
1e-15
1e-15
1e-15
1e-15
1e-15
1e-15
1.01683e-15
1e-15
1e-15
1e-15
1e-15
1e-15
1.00928e-15
1e-15
1e-15
1e-15
1e-15
1e-15
1e-15
1e-15
1e-15
1e-15
1e-15
1e-15
1e-15
1e-15
1e-15
1.01754e-15
1e-15
1e-15
1e-15
1e-15
1e-15
1.0091e-15
1e-15
1e-15
1e-15
1e-15
1e-15
1e-15
1e-15
1e-15
1e-15
1e-15
1e-15
1e-15
1e-15
1e-15
1.01753e-15
1e-15
1e-15
1e-15
1e-15
1e-15
1.00919e-15
0.00790921
0.00792222
0.0068946
0.00615081
0.00588482
0.00575523
0.00570636
0.00565189
0.00560611
0.00553432
0.00546936
0.00539479
0.00533046
0.00526011
0.00520337
0.00514147
0.00509382
0.00503924
0.00499807
0.00494915
0.00491303
0.00486938
0.00483786
0.00479874
0.00477075
0.00473496
0.00470979
0.00467696
0.00465438
0.00462414
0.0046039
0.00457595
0.00455757
0.00453136
0.00451449
0.00448993
0.00447454
0.00445147
0.00443742
0.00441567
0.00440282
0.00438213
0.00437027
0.0043505
0.00433958
0.00432069
0.00431064
0.00429254
0.00428333
0.00426589
0.00425739
0.00424055
0.00423266
0.00421645
0.00420908
0.00419348
0.00418663
0.00417158
0.0041652
0.00415061
0.00414464
0.00413048
0.00412491
0.00411114
0.00410597
0.00409256
0.00408778
0.0040747
0.00407028
0.0040575
0.00405342
0.00404088
0.00403713
0.00402479
0.00402136
0.00400924
0.00400616
0.00399416
0.00399154
0.00397897
0.00073811
0.00161464
0.00338471
0.00520217
0.00605591
0.00639519
0.00654075
0.00652199
0.00646957
0.00636493
0.00628459
0.00619567
0.00612351
0.00605021
0.00599561
0.00593665
0.00589214
0.00583786
0.00579851
0.00574869
0.00571438
0.00567017
0.00564042
0.00559987
0.00557219
0.00553434
0.00550925
0.00547437
0.0054518
0.00541965
0.00539939
0.00536911
0.00535016
0.00532138
0.00530397
0.00527697
0.00526109
0.00523568
0.00522121
0.00519711
0.00518361
0.00516044
0.00514792
0.00512572
0.00511419
0.00509293
0.00508235
0.00506201
0.00505219
0.00503249
0.0050232
0.00500436
0.00499552
0.00497756
0.00496914
0.00495201
0.00494398
0.00492758
0.00491988
0.00490403
0.00489668
0.00488136
0.00487438
0.00485957
0.00485297
0.00483864
0.0048324
0.00481847
0.00481257
0.00479892
0.00479357
0.00477989
0.0047752
0.00476146
0.00475733
0.00474377
0.00474002
0.00472684
0.00472305
0.00470982
3.48112e-05
0.000218726
0.000471654
0.00121824
0.00233879
0.00343494
0.00417372
0.00456312
0.00477905
0.00485925
0.00491153
0.00492318
0.00492656
0.00492061
0.004917
0.00490535
0.00489801
0.0048802
0.00487044
0.00484976
0.00483977
0.00481986
0.00480968
0.00478939
0.00477775
0.00475738
0.00474589
0.00472624
0.00471537
0.00469665
0.00468641
0.00466782
0.00465749
0.00463908
0.00462926
0.00461163
0.00460245
0.00458559
0.00457704
0.0045607
0.0045524
0.00453634
0.00452842
0.00451281
0.00450536
0.00449032
0.00448332
0.00446891
0.00446216
0.00444808
0.00444154
0.0044279
0.0044216
0.00440848
0.00440244
0.00438986
0.00438404
0.0043719
0.00436622
0.00435438
0.00434888
0.00433737
0.00433209
0.00432093
0.00431589
0.00430508
0.00430025
0.00428972
0.00428508
0.00427472
0.00427035
0.00426006
0.00425604
0.00424579
0.00424211
0.00423204
0.00422859
0.00421881
0.00421536
0.00420534
8.87321e-06
2.52171e-05
3.82181e-05
0.000192816
0.000421035
0.000971554
0.00193622
0.00274023
0.00327931
0.00362562
0.00385811
0.0039875
0.00407998
0.00414212
0.00419332
0.00422498
0.00425753
0.00427324
0.00429321
0.00429925
0.00431219
0.00431427
0.00432117
0.00431933
0.00432151
0.0043171
0.00431706
0.00431122
0.00430999
0.00430315
0.00430088
0.00429259
0.00428908
0.00427972
0.00427589
0.00426633
0.00426236
0.00425278
0.00424872
0.00423896
0.00423453
0.00422444
0.00421994
0.00420983
0.0042054
0.00419543
0.00419112
0.00418136
0.00417699
0.00416719
0.00416281
0.00415312
0.00414881
0.00413934
0.00413515
0.00412596
0.00412184
0.00411282
0.00410871
0.00409977
0.00409572
0.00408693
0.00408299
0.00407441
0.0040706
0.00406224
0.00405854
0.00405033
0.00404671
0.00403857
0.00403507
0.00402699
0.00402367
0.00401564
0.00401253
0.00400462
0.00400167
0.00399395
0.00399104
0.00398302
3.51671e-09
5.06228e-07
4.51325e-06
1.62174e-05
2.72446e-05
0.000160674
0.000374185
0.000882754
0.0016107
0.00222656
0.0026715
0.00298629
0.00322253
0.003387
0.00351718
0.00361189
0.00369287
0.00374718
0.00380045
0.00383581
0.00387417
0.00389789
0.00392515
0.00394063
0.00396051
0.0039699
0.00398456
0.00399002
0.00400125
0.00400426
0.00401195
0.00401254
0.0040171
0.00401613
0.00401901
0.004017
0.0040187
0.00401595
0.00401667
0.00401304
0.00401269
0.00400833
0.00400735
0.00400246
0.00400113
0.00399593
0.00399438
0.00398894
0.003987
0.00398118
0.003979
0.00397299
0.00397068
0.00396462
0.00396225
0.0039562
0.00395375
0.0039476
0.00394503
0.00393874
0.00393612
0.00392982
0.0039272
0.00392095
0.00391837
0.0039122
0.00390962
0.00390346
0.00390087
0.00389467
0.0038921
0.00388588
0.00388338
0.00387716
0.00387479
0.00386862
0.00386636
0.00386025
0.00385803
0.00385171
1.12636e-10
1.53679e-08
2.35671e-08
1.06214e-06
6.90848e-06
1.45939e-05
2.221e-05
0.000135467
0.000323737
0.000730265
0.00129449
0.00178901
0.00217598
0.00247233
0.0027195
0.00290669
0.00306126
0.00317527
0.0032781
0.00335472
0.00342694
0.00347973
0.00353233
0.003569
0.00360834
0.00363403
0.00366459
0.0036833
0.00370788
0.00372146
0.00374073
0.00375027
0.00376548
0.00377195
0.0037841
0.00378847
0.00379804
0.00380101
0.00380846
0.00380995
0.00381537
0.00381587
0.00381983
0.0038196
0.00382243
0.00382159
0.00382365
0.00382217
0.00382339
0.00382134
0.00382191
0.00381947
0.00381956
0.0038169
0.00381666
0.00381375
0.00381319
0.00380992
0.00380907
0.00380549
0.00380445
0.00380069
0.00379952
0.00379565
0.00379439
0.00379046
0.00378908
0.00378502
0.00378351
0.0037793
0.00377772
0.0037734
0.00377182
0.0037674
0.00376587
0.0037614
0.00375993
0.00375541
0.00375394
0.00374936
1e-15
3.84938e-09
3.05175e-09
4.92161e-08
4.12907e-09
4.84814e-07
1.90816e-06
9.02942e-06
1.92165e-05
0.000109607
0.000251415
0.000561365
0.000978201
0.00139205
0.0017491
0.00202923
0.00227721
0.00247767
0.0026501
0.00278457
0.00290528
0.00300022
0.00308917
0.00315666
0.00322234
0.00327098
0.00332231
0.00335885
0.00339975
0.00342721
0.00345975
0.00348017
0.00350691
0.00352232
0.00354431
0.0035561
0.00357442
0.00358358
0.00359888
0.00360565
0.00361834
0.00362341
0.00363394
0.00363778
0.0036464
0.00364922
0.00365633
0.00365824
0.0036639
0.0036651
0.00366958
0.00367023
0.00367376
0.00367401
0.00367681
0.00367667
0.00367875
0.00367812
0.00367961
0.00367859
0.00367963
0.00367833
0.00367902
0.0036775
0.0036779
0.00367619
0.00367627
0.00367436
0.00367415
0.00367197
0.00367159
0.00366921
0.00366872
0.00366616
0.00366562
0.00366292
0.00366235
0.0036595
0.00365882
0.00365614
1e-15
1e-15
7.76169e-10
2.17956e-09
6.61582e-11
1.20482e-07
4.77944e-07
4.59102e-07
1.48708e-06
7.04939e-06
1.43509e-05
7.586e-05
0.000170252
0.000383682
0.000684428
0.00103315
0.00136094
0.00163429
0.00187103
0.00207422
0.00225965
0.00241186
0.00254927
0.00265952
0.00276269
0.00284445
0.00292448
0.00298586
0.00304858
0.00309539
0.00314607
0.0031817
0.00322296
0.0032504
0.00328454
0.00330627
0.00333498
0.0033523
0.00337632
0.00338961
0.00341012
0.00342075
0.00343841
0.00344689
0.00346199
0.00346873
0.00348178
0.00348719
0.00349832
0.00350267
0.0035121
0.00351561
0.00352362
0.00352648
0.00353332
0.00353557
0.0035413
0.00354295
0.00354769
0.0035489
0.00355286
0.0035537
0.003557
0.00355753
0.00356028
0.00356051
0.00356269
0.00356264
0.00356429
0.00356398
0.00356528
0.00356471
0.00356573
0.00356493
0.00356575
0.00356473
0.00356536
0.00356417
0.00356443
0.00356383
1e-15
1e-15
7.49028e-13
8.6956e-11
2.05721e-10
1.7707e-12
1.454e-10
1.69021e-08
6.99329e-08
2.89788e-07
1.04562e-06
4.58424e-06
9.35657e-06
4.60021e-05
9.78472e-05
0.000225331
0.000444617
0.000703975
0.000998276
0.00126171
0.00149708
0.00169567
0.00188223
0.00204325
0.00219537
0.00231911
0.00243649
0.00253163
0.00262473
0.00269885
0.00277439
0.00283133
0.00289217
0.00293649
0.00298687
0.00302223
0.00306429
0.00309261
0.0031279
0.00315031
0.00318048
0.00319866
0.00322472
0.00323945
0.00326204
0.00327411
0.00329382
0.00330356
0.00332071
0.00332872
0.00334374
0.00335037
0.00336356
0.00336918
0.00338071
0.00338544
0.00339547
0.00339946
0.00340816
0.00341155
0.00341914
0.003422
0.0034286
0.00343101
0.00343677
0.00343876
0.00344371
0.00344532
0.00344954
0.00345082
0.00345445
0.00345545
0.00345856
0.00345931
0.003462
0.00346252
0.00346474
0.0034652
0.00346652
0.0034683
1e-15
1e-15
3.52128e-14
3.77205e-12
1.26405e-11
3.11326e-13
1e-15
4.18443e-09
1.7426e-08
1.2429e-08
4.737e-08
1.0479e-07
6.79662e-07
2.52194e-06
4.46411e-06
2.20471e-05
4.88047e-05
0.000120099
0.000244706
0.000434395
0.000665211
0.000902746
0.00113919
0.00133748
0.0015241
0.00168247
0.00183917
0.00197342
0.00210415
0.00221099
0.00231726
0.00240226
0.00248943
0.00255721
0.00262953
0.00268372
0.00274375
0.00278735
0.00283788
0.00287312
0.00291598
0.00294455
0.00298129
0.0030046
0.00303655
0.00305587
0.00308384
0.00309964
0.003124
0.00313708
0.00315859
0.00316958
0.00318867
0.00319799
0.00321492
0.00322275
0.00323771
0.00324431
0.0032576
0.00326334
0.00327512
0.0032801
0.00329054
0.00329488
0.00330416
0.00330798
0.0033162
0.00331953
0.0033268
0.00332969
0.00333612
0.00333865
0.00334434
0.00334657
0.00335156
0.0033536
0.00335774
0.0033601
0.00336247
0.00336703
1e-15
1e-15
1e-15
9.39357e-13
6.99174e-13
8.36109e-13
2.13476e-13
1.07771e-12
7.35563e-12
4.46529e-10
1.85922e-09
2.62095e-08
2.97169e-08
1.2114e-07
1.62717e-07
1.07043e-06
2.24711e-06
9.2963e-06
1.94338e-05
5.45258e-05
0.000114116
0.000220603
0.000388906
0.000579459
0.000786458
0.000988388
0.00117746
0.00133753
0.00149442
0.00162744
0.00176435
0.00188032
0.00199809
0.00209311
0.00219142
0.00226916
0.00235231
0.00241624
0.0024868
0.00253939
0.00259907
0.00264199
0.002693
0.00272838
0.00277273
0.00280208
0.00284072
0.00286495
0.0028985
0.0029187
0.00294833
0.00296535
0.00299162
0.00300601
0.00302939
0.00304158
0.0030624
0.00307274
0.00309136
0.00310028
0.00311695
0.00312467
0.00313965
0.00314639
0.00315989
0.00316579
0.00317781
0.00318301
0.00319378
0.0031984
0.00320808
0.00321222
0.00322088
0.00322467
0.00323227
0.00323611
0.00324218
0.00324685
0.0032504
0.00325802
1e-15
1e-15
1e-15
1e-15
1.73118e-13
2.15699e-13
8.75604e-13
4.60614e-12
1.31856e-11
3.23574e-11
1.29169e-10
7.67886e-11
8.66022e-10
3.81458e-09
4.06428e-08
4.86234e-08
9.54025e-08
2.88937e-07
3.41834e-07
3.35101e-06
6.05818e-06
2.03999e-05
4.25139e-05
9.13863e-05
0.000181242
0.00030994
0.000477911
0.000648857
0.000830929
0.000998689
0.00115851
0.00129375
0.00143119
0.00154696
0.00166903
0.00177134
0.00187981
0.00196663
0.0020594
0.00213228
0.00221243
0.00227366
0.00234296
0.00239427
0.00245455
0.00249728
0.00254974
0.00258553
0.00263125
0.00266142
0.00270162
0.00272701
0.00276251
0.00278395
0.00281551
0.00283382
0.00286199
0.00287758
0.00290273
0.0029161
0.00293864
0.00295022
0.00297055
0.00298066
0.00299909
0.00300791
0.00302446
0.00303217
0.00304711
0.00305396
0.00306746
0.00307368
0.00308576
0.00309165
0.00310209
0.00310816
0.00311644
0.00312364
0.00312866
0.00313967
1e-15
1e-15
1e-15
1e-15
1e-15
2.83315e-15
1.73364e-13
5.24841e-13
1.74609e-12
3.20508e-12
5.87967e-12
2.51773e-12
2.96739e-11
1.15813e-10
2.3035e-11
1.98141e-09
6.1527e-09
9.1976e-09
8.56059e-08
1.21804e-07
2.77367e-07
8.04659e-07
1.4316e-06
5.94547e-06
1.2113e-05
3.24626e-05
6.69486e-05
0.00012815
0.000228232
0.000355523
0.000510881
0.000660955
0.000820235
0.000962797
0.00110397
0.00122199
0.00134504
0.00144837
0.00155859
0.00165068
0.0017517
0.00183256
0.00192152
0.00199031
0.00206864
0.00212752
0.00219674
0.00224714
0.00230809
0.00235114
0.00240472
0.00244123
0.00248859
0.00251967
0.00256184
0.00258856
0.00262614
0.002649
0.00268248
0.00270208
0.00273206
0.00274907
0.00277611
0.00279094
0.00281539
0.00282836
0.00285035
0.0028617
0.00288154
0.00289166
0.00290956
0.00291882
0.00293474
0.00294358
0.00295723
0.00296636
0.00297711
0.00298766
0.00299439
0.00300952
1e-15
1e-15
1e-15
1e-15
1e-15
1.18612e-15
1.76012e-14
3.73351e-14
1.457e-13
2.82993e-13
3.83744e-13
1.99288e-13
1.25576e-12
3.66639e-12
3.13441e-12
4.59533e-11
1.69466e-10
7.06714e-10
5.76196e-10
3.07426e-09
5.93032e-09
1.98218e-07
6.34364e-08
1.92357e-07
2.78146e-07
1.61919e-06
2.92725e-06
9.05222e-06
1.83857e-05
4.12824e-05
8.34926e-05
0.000145393
0.00024393
0.000358768
0.000498893
0.000631325
0.000772455
0.000896109
0.00102516
0.00113039
0.00124285
0.00133597
0.00143838
0.00152118
0.00161595
0.00169129
0.00177762
0.00184341
0.00192032
0.00197753
0.00204638
0.00209623
0.00215788
0.00220107
0.00225626
0.00229365
0.00234289
0.00237526
0.00241926
0.00244729
0.00248681
0.00251125
0.00254678
0.00256812
0.00260009
0.00261883
0.00264757
0.00266415
0.00269
0.00270488
0.00272801
0.00274169
0.00276206
0.00277516
0.00279248
0.00280592
0.00281953
0.00283453
0.00284339
0.00286365
1e-15
1e-15
1e-15
1e-15
1e-15
1e-15
2.0347e-15
3.42531e-15
7.88573e-15
2.01041e-14
3.4798e-14
3.87618e-14
8.24065e-14
1.59743e-13
2.78696e-13
1.16763e-12
4.56767e-12
1.82646e-11
1.99791e-11
1.24587e-10
2.60519e-10
7.79529e-12
1.10336e-10
5.47379e-09
8.71561e-09
2.40613e-08
1.68068e-08
3.34585e-07
5.36444e-07
2.07151e-06
3.96856e-06
1.0194e-05
2.11307e-05
4.28646e-05
8.6099e-05
0.000140057
0.000231513
0.00032826
0.000454692
0.00057145
0.00069956
0.000808781
0.000927306
0.00102424
0.00112874
0.00121347
0.00130964
0.00138611
0.00147463
0.00154434
0.00162761
0.0016909
0.00176695
0.00182258
0.00189137
0.00194049
0.00200291
0.0020465
0.00210292
0.00214131
0.00219228
0.00222606
0.00227189
0.00230172
0.00234292
0.00236945
0.00240649
0.00243031
0.00246346
0.00248504
0.00251441
0.00253442
0.00255999
0.00257923
0.00260081
0.00262032
0.00263729
0.00265822
0.00266983
0.00269668
1e-15
1.00816e-15
1e-15
1e-15
1e-15
1.00306e-15
1e-15
1e-15
1.19189e-15
1.76822e-15
3.34041e-15
4.29274e-15
8.01102e-15
1.42975e-14
6.53721e-15
4.63384e-14
1.61057e-13
4.98389e-13
5.71663e-13
5.00662e-12
1.5534e-11
1.47321e-11
2.67743e-11
1.30373e-10
1.86346e-10
4.35564e-10
4.1464e-09
1.39503e-09
1.65311e-08
5.37034e-08
7.81878e-08
3.82566e-07
6.34322e-07
2.0739e-06
4.09707e-06
9.70575e-06
2.00829e-05
3.87321e-05
7.58757e-05
0.000119133
0.000197553
0.000277711
0.000386577
0.000490043
0.000607465
0.000706343
0.000815882
0.000904815
0.00100496
0.00108323
0.00117397
0.00124501
0.00132981
0.00139403
0.0014733
0.00153308
0.00160785
0.00166258
0.0017311
0.00178005
0.00184254
0.0018866
0.00194362
0.00198356
0.00203519
0.00207137
0.00211787
0.00215089
0.00219235
0.00222277
0.00225931
0.00228792
0.0023195
0.0023472
0.00237371
0.00240142
0.00242245
0.00245106
0.00246623
0.00250155
1.00986e-15
1e-15
1e-15
1e-15
1e-15
1e-15
1.01272e-15
1e-15
1e-15
1e-15
1e-15
1.04396e-15
1.18785e-15
1.5766e-15
1.35212e-15
3.32343e-15
8.19839e-15
1.96252e-14
1.89105e-14
1.98931e-13
4.45815e-13
8.28224e-13
1.16762e-12
7.92077e-12
2.19662e-11
3.42892e-11
9.15303e-11
1.21047e-10
4.04491e-09
1.48866e-09
6.83105e-09
1.31402e-08
7.29706e-09
6.51827e-08
9.19026e-08
2.96066e-07
6.26999e-07
1.20863e-06
3.678e-06
6.77749e-06
1.62264e-05
2.78442e-05
5.88266e-05
8.92179e-05
0.00015279
0.000214004
0.00030657
0.000391786
0.000499908
0.000590526
0.000694062
0.000776193
0.000871092
0.000945613
0.00103249
0.00109925
0.00117976
0.00124144
0.00131683
0.00137338
0.00144417
0.00149786
0.0015646
0.00161489
0.00167588
0.0017223
0.00177745
0.0018208
0.00187039
0.00191148
0.00195537
0.00199471
0.00203263
0.00207097
0.00210282
0.00214075
0.00216647
0.00220466
0.00222425
0.00227011
1e-15
1.00979e-15
1e-15
1e-15
1e-15
1e-15
1e-15
1.00947e-15
1e-15
1e-15
1e-15
1e-15
1.00637e-15
1e-15
1e-15
1.05778e-15
1.206e-15
1.54404e-15
1.25608e-15
7.89984e-15
1.4311e-14
2.57698e-14
1.17311e-13
2.78999e-13
6.80014e-13
8.36521e-12
2.43119e-12
3.12774e-12
3.77339e-13
2.40952e-11
1.27373e-10
1.91288e-10
2.81284e-10
2.04094e-09
3.64188e-09
2.78856e-09
2.06414e-08
2.5469e-08
1.08394e-07
1.67686e-07
5.60048e-07
9.199e-07
2.62521e-06
4.50567e-06
1.07699e-05
1.85156e-05
3.86022e-05
5.86208e-05
0.000105477
0.000147746
0.0002219
0.000289794
0.000381793
0.000463382
0.000560763
0.00063966
0.000729911
0.000800924
0.000883704
0.000949406
0.00102534
0.00108597
0.00115615
0.00121361
0.00127858
0.00133311
0.00139295
0.00144626
0.00150174
0.00155403
0.00160358
0.00165432
0.0016973
0.00174706
0.0017837
0.00183309
0.00186366
0.00191278
0.00193736
0.0019955
1e-15
1e-15