/*--------------------------------*- C++ -*----------------------------------*\
| =========                 |                                                 |
| \\      /  F ield         | OpenFOAM: The Open Source CFD Toolbox           |
|  \\    /   O peration     | Version:  v1912                                 |
|   \\  /    A nd           | Website:  www.openfoam.com                      |
|    \\/     M anipulation  |                                                 |
\*---------------------------------------------------------------------------*/
FoamFile
{
    version     2.0;
    format      ascii;
    class       volScalarField;
    location    "200";
    object      nut;
}
// * * * * * * * * * * * * * * * * * * * * * * * * * * * * * * * * * * * * * //

dimensions      [0 2 -1 0 0 0 0];


internalField   nonuniform List<scalar> 
10000
(
1.62444e-18
2.28026e-18
2.64899e-18
3.19737e-18
3.84881e-18
4.77301e-18
7.49012e-18
1.10067e-17
3.07786e-17
5.24019e-17
3.05776e-16
4.94159e-16
2.22551e-15
3.58852e-15
1.06579e-14
1.57224e-14
3.56435e-14
8.88845e-15
4.99495e-14
4.35015e-10
1.58893e-18
2.14907e-18
2.5297e-18
3.23478e-18
5.79439e-18
9.74679e-18
3.11741e-17
7.54544e-17
2.07911e-16
4.29384e-16
1.30365e-15
2.31357e-15
4.39002e-15
9.06999e-15
1.42542e-14
2.68074e-14
2.08827e-14
7.15428e-14
5.25325e-12
4.77837e-11
1.67339e-18
2.38815e-18
3.14625e-18
3.84555e-18
4.6156e-18
5.23781e-18
5.99348e-18
1.35996e-17
2.33978e-17
8.52004e-17
1.69046e-16
4.62844e-16
7.10193e-16
1.69495e-15
2.52638e-15
5.26933e-15
6.43967e-15
4.33756e-11
9.17501e-11
2.66403e-09
1.67554e-18
2.41735e-18
3.19169e-18
3.98224e-18
4.7836e-18
5.5908e-18
6.39726e-18
7.34675e-18
8.01212e-18
1.09464e-17
1.3433e-17
3.62425e-17
4.95428e-17
1.36658e-16
1.89822e-16
4.93979e-16
6.04723e-16
4.06777e-12
1.14668e-11
8.0724e-14
1.6756e-18
2.41792e-18
3.19207e-18
3.98489e-18
4.78647e-18
5.59843e-18
6.40782e-18
7.23224e-18
8.03913e-18
8.87804e-18
9.67285e-18
1.05318e-17
1.13054e-17
1.44928e-17
1.65954e-17
3.76819e-17
4.51882e-17
2.085e-13
6.46709e-13
4.90544e-15
1.67562e-18
2.41789e-18
3.19214e-18
3.98469e-18
4.78698e-18
5.59767e-18
6.40968e-18
7.25354e-18
8.04417e-18
8.87321e-18
9.68357e-18
1.05238e-17
1.13237e-17
1.21804e-17
1.29629e-17
1.38388e-17
1.46027e-17
8.10274e-15
2.08188e-14
1.78755e-16
1.67562e-18
2.41785e-18
3.19214e-18
3.98449e-18
4.78713e-18
5.59705e-18
6.41042e-18
7.22842e-18
8.04649e-18
8.86904e-18
9.68944e-18
1.05148e-17
1.13363e-17
1.2164e-17
1.29857e-17
1.38466e-17
1.46381e-17
6.41612e-16
1.66126e-15
3.04904e-17
1.6756e-18
2.41777e-18
3.19211e-18
3.98423e-18
4.7873e-18
5.59629e-18
6.41121e-18
7.22653e-18
8.04865e-18
8.86505e-18
9.69408e-18
1.05073e-17
1.13452e-17
1.21509e-17
1.30012e-17
1.3794e-17
1.46624e-17
3.10002e-17
6.15072e-17
1.74574e-17
1.67555e-18
2.41769e-18
3.19202e-18
3.98414e-18
4.78715e-18
5.59624e-18
6.41095e-18
7.22662e-18
8.04817e-18
8.86548e-18
9.69324e-18
1.05083e-17
1.13438e-17
1.21528e-17
1.29989e-17
1.37975e-17
1.46586e-17
1.5441e-17
1.63234e-17
1.70841e-17
1.67556e-18
2.41767e-18
3.19196e-18
3.98415e-18
4.78695e-18
5.59641e-18
6.43633e-18
7.22732e-18
8.04682e-18
8.86725e-18
9.69041e-18
1.0512e-17
1.13636e-17
1.21598e-17
1.29896e-17
1.38097e-17
1.46431e-17
1.54609e-17
1.62997e-17
1.71134e-17
1.67557e-18
2.41765e-18
3.19191e-18
3.9841e-18
4.78681e-18
5.59639e-18
6.41009e-18
7.29735e-18
8.04618e-18
8.86779e-18
9.68907e-18
1.05134e-17
1.1336e-17
1.22094e-17
1.29853e-17
1.38146e-17
1.4636e-17
1.54693e-17
1.62881e-17
1.71269e-17
1.67556e-18
2.41761e-18
3.19185e-18
3.98402e-18
4.78671e-18
5.59625e-18
6.40995e-18
7.22724e-18
8.13869e-18
8.86754e-18
9.68878e-18
1.05132e-17
1.13355e-17
1.21623e-17
1.30454e-17
1.3814e-17
1.4636e-17
1.54681e-17
1.62887e-17
1.71246e-17
1.67555e-18
2.41756e-18
3.19179e-18
3.98392e-18
4.78662e-18
5.59608e-18
6.40987e-18
7.22695e-18
8.04595e-18
8.86714e-18
9.68883e-18
1.05126e-17
1.13357e-17
1.21614e-17
1.29854e-17
1.38126e-17
1.46372e-17
1.54655e-17
1.62911e-17
1.71207e-17
1.67554e-18
2.41752e-18
3.19173e-18
3.98384e-18
4.78652e-18
5.59596e-18
6.40972e-18
7.22681e-18
8.04576e-18
8.94246e-18
9.68858e-18
1.05124e-17
1.13354e-17
1.21612e-17
1.29849e-17
1.38126e-17
1.46364e-17
1.54659e-17
1.62898e-17
1.71217e-17
1.67554e-18
2.41748e-18
3.19168e-18
3.98376e-18
4.78642e-18
5.59584e-18
6.40959e-18
7.22663e-18
8.04559e-18
8.86676e-18
9.83136e-18
1.05122e-17
1.13352e-17
1.2161e-17
1.31463e-17
1.38124e-17
1.46359e-17
1.5466e-17
1.6289e-17
1.71219e-17
1.67554e-18
2.41745e-18
3.19163e-18
3.98369e-18
4.78634e-18
5.59571e-18
6.40949e-18
7.30751e-18
8.0455e-18
8.86642e-18
9.68834e-18
1.05117e-17
1.13352e-17
1.21603e-17
1.29848e-17
1.40159e-17
1.46364e-17
1.54645e-17
1.62899e-17
1.71198e-17
1.67554e-18
2.41741e-18
3.19158e-18
3.98361e-18
4.78625e-18
5.59558e-18
6.45619e-18
7.22622e-18
8.04539e-18
8.86613e-18
9.68828e-18
1.05112e-17
1.13353e-17
1.21597e-17
1.31817e-17
1.38104e-17
1.4637e-17
1.5463e-17
1.62909e-17
1.71177e-17
1.67554e-18
2.41738e-18
3.19153e-18
3.98353e-18
4.78616e-18
5.59547e-18
6.40924e-18
7.31634e-18
8.04521e-18
8.86594e-18
9.68804e-18
1.0511e-17
1.1335e-17
1.21594e-17
1.29847e-17
1.40213e-17
1.46366e-17
1.54628e-17
1.62905e-17
1.71174e-17
1.67553e-18
2.41734e-18
3.19147e-18
3.98346e-18
4.78605e-18
5.59536e-18
6.40908e-18
7.22596e-18
8.16564e-18
8.86585e-18
9.68771e-18
1.0511e-17
1.13345e-17
1.21595e-17
1.2984e-17
1.38104e-17
1.48581e-17
1.54633e-17
1.6289e-17
1.71183e-17
1.67552e-18
2.41729e-18
3.19141e-18
3.98338e-18
4.78595e-18
5.59525e-18
6.40894e-18
7.22584e-18
8.0448e-18
9.00657e-18
9.68747e-18
1.05108e-17
1.13342e-17
1.21593e-17
1.29837e-17
1.39138e-17
1.46352e-17
1.54631e-17
1.62886e-17
1.71181e-17
1.67549e-18
2.41724e-18
3.19134e-18
3.98329e-18
4.78585e-18
5.59512e-18
6.40881e-18
7.22565e-18
8.04462e-18
8.86547e-18
9.70553e-18
1.05105e-17
1.1334e-17
1.21589e-17
1.29834e-17
1.38097e-17
1.47587e-17
1.54625e-17
1.62884e-17
1.71172e-17
1.67547e-18
2.41719e-18
3.19127e-18
3.98321e-18
4.78576e-18
5.59501e-18
6.40871e-18
7.22552e-18
8.04453e-18
8.86528e-18
9.68718e-18
1.0646e-17
1.13339e-17
1.21587e-17
1.29834e-17
1.38094e-17
1.46348e-17
1.54621e-17
1.62882e-17
1.71168e-17
1.67556e-18
2.41727e-18
3.19133e-18
3.98324e-18
4.78578e-18
5.59497e-18
6.40869e-18
7.22537e-18
8.04445e-18
8.86501e-18
9.85099e-18
1.05098e-17
1.13337e-17
1.2158e-17
1.29831e-17
1.38085e-17
1.46345e-17
1.56632e-17
1.62877e-17
1.71153e-17
1.67571e-18
2.41742e-18
3.19148e-18
3.98338e-18
4.78591e-18
5.59509e-18
6.40879e-18
7.22547e-18
8.04454e-18
8.86503e-18
9.68711e-18
1.06892e-17
1.13338e-17
1.21577e-17
1.29831e-17
1.3808e-17
1.46346e-17
1.54601e-17
1.62877e-17
1.7114e-17
1.67581e-18
2.41751e-18
3.19156e-18
3.98347e-18
4.78599e-18
5.5952e-18
6.40889e-18
7.2256e-18
8.04467e-18
8.86526e-18
9.68732e-18
1.05101e-17
1.15247e-17
1.21582e-17
1.29836e-17
1.38086e-17
1.46352e-17
1.54609e-17
1.62886e-17
1.7115e-17
1.67584e-18
2.41754e-18
3.19158e-18
3.98349e-18
4.786e-18
5.59521e-18
6.40888e-18
7.22564e-18
8.04465e-18
9.00073e-18
9.68728e-18
1.05102e-17
1.1334e-17
1.21584e-17
1.29836e-17
1.3809e-17
1.46352e-17
1.54615e-17
1.62886e-17
1.73687e-17
1.67585e-18
2.41753e-18
3.19157e-18
3.98347e-18
4.78596e-18
5.59517e-18
6.40883e-18
7.22558e-18
8.04457e-18
8.86526e-18
9.80451e-18
1.05102e-17
1.13339e-17
1.21584e-17
1.29834e-17
1.3809e-17
1.46349e-17
1.54615e-17
1.65299e-17
1.71158e-17
1.67585e-18
2.41752e-18
3.19155e-18
3.98344e-18
4.78593e-18
5.59513e-18
6.40877e-18
7.22553e-18
8.04449e-18
8.86518e-18
9.68707e-18
1.05101e-17
1.13338e-17
1.21583e-17
1.29832e-17
1.38089e-17
1.46347e-17
1.56972e-17
1.6288e-17
1.71157e-17
1.67585e-18
2.41751e-18
3.19153e-18
3.98341e-18
4.78589e-18
5.60005e-18
6.40871e-18
7.22545e-18
8.04442e-18
8.8651e-18
9.68698e-18
1.051e-17
1.13337e-17
1.21582e-17
1.29831e-17
1.38088e-17
1.48691e-17
1.54612e-17
1.62878e-17
1.71154e-17
1.67584e-18
2.4175e-18
3.19151e-18
3.98338e-18
4.78585e-18
5.59503e-18
6.47174e-18
7.2254e-18
8.04435e-18
8.86501e-18
9.68688e-18
1.05099e-17
1.13335e-17
1.21581e-17
1.29829e-17
1.40369e-17
1.46344e-17
1.54611e-17
1.62876e-17
1.71152e-17
1.67584e-18
2.41749e-18
3.19149e-18
3.98335e-18
4.78581e-18
5.59499e-18
6.4086e-18
7.32882e-18
8.04428e-18
8.86494e-18
9.68681e-18
1.05098e-17
1.13334e-17
1.2158e-17
1.31711e-17
1.38085e-17
1.46342e-17
1.54609e-17
1.62874e-17
1.71149e-17
1.67584e-18
2.41749e-18
3.19147e-18
3.98333e-18
4.78578e-18
5.59495e-18
6.47272e-18
7.22528e-18
8.04421e-18
8.86486e-18
9.68672e-18
1.05097e-17
1.13333e-17
1.21578e-17
1.29827e-17
1.40401e-17
1.46341e-17
1.54607e-17
1.62872e-17
1.71147e-17
1.67584e-18
2.41748e-18
3.19145e-18
3.9833e-18
4.78575e-18
5.5949e-18
6.40851e-18
7.22521e-18
8.04415e-18
8.86479e-18
9.68664e-18
1.05096e-17
1.13332e-17
1.21577e-17
1.29826e-17
1.38082e-17
1.48648e-17
1.54605e-17
1.62869e-17
1.71144e-17
1.67584e-18
2.41747e-18
3.19144e-18
3.98328e-18
4.78572e-18
5.59487e-18
6.47326e-18
7.22517e-18
8.04409e-18
8.86472e-18
9.68656e-18
1.05095e-17
1.13331e-17
1.21576e-17
1.29825e-17
1.38081e-17
1.48743e-17
1.54604e-17
1.62868e-17
1.71141e-17
1.67584e-18
2.41747e-18
3.19142e-18
3.98326e-18
4.78569e-18
5.59483e-18
6.40842e-18
7.33059e-18
8.04403e-18
8.86466e-18
9.6865e-18
1.05094e-17
1.13331e-17
1.21575e-17
1.29823e-17
1.40332e-17
1.46336e-17
1.54602e-17
1.62865e-17
1.71139e-17
1.67584e-18
2.41746e-18
3.19141e-18
3.98324e-18
4.78567e-18
5.5948e-18
6.40838e-18
7.22508e-18
8.17813e-18
8.8646e-18
9.68642e-18
1.05094e-17
1.1333e-17
1.21574e-17
1.30902e-17
1.38078e-17
1.46335e-17
1.546e-17
1.62863e-17
1.71137e-17
1.67584e-18
2.41746e-18
3.1914e-18
3.98322e-18
4.78564e-18
5.59477e-18
6.40834e-18
7.22503e-18
8.17929e-18
8.86454e-18
9.68637e-18
1.05093e-17
1.13329e-17
1.21574e-17
1.29821e-17
1.40101e-17
1.46334e-17
1.54599e-17
1.62861e-17
1.71134e-17
1.67584e-18
2.41746e-18
3.19139e-18
3.98321e-18
4.78562e-18
5.59474e-18
6.40831e-18
7.22499e-18
8.04388e-18
8.86449e-18
9.6863e-18
1.05092e-17
1.13328e-17
1.21573e-17
1.2982e-17
1.38076e-17
1.48657e-17
1.54597e-17
1.62859e-17
1.71132e-17
1.67584e-18
2.41745e-18
3.19138e-18
3.98319e-18
4.7856e-18
5.59472e-18
6.40828e-18
7.22495e-18
8.179e-18
8.86444e-18
9.68625e-18
1.05092e-17
1.13327e-17
1.21572e-17
1.29819e-17
1.38075e-17
1.46331e-17
1.54595e-17
1.65354e-17
1.71129e-17
1.67584e-18
2.41745e-18
3.19138e-18
3.98318e-18
4.78558e-18
5.59469e-18
6.40825e-18
7.22492e-18
8.0438e-18
9.02088e-18
9.68619e-18
1.05091e-17
1.13327e-17
1.21571e-17
1.29818e-17
1.38074e-17
1.4633e-17
1.54594e-17
1.62855e-17
1.73732e-17
1.67584e-18
2.41745e-18
3.19137e-18
3.98317e-18
4.78557e-18
5.59467e-18
6.40822e-18
7.22489e-18
8.04376e-18
8.86435e-18
9.85863e-18
1.0509e-17
1.13326e-17
1.2157e-17
1.29818e-17
1.38073e-17
1.46328e-17
1.54592e-17
1.65343e-17
1.71124e-17
1.67584e-18
2.41745e-18
3.19136e-18
3.98316e-18
4.78555e-18
5.59465e-18
6.4082e-18
7.22486e-18
8.04373e-18
8.86431e-18
9.86003e-18
1.0509e-17
1.13325e-17
1.21569e-17
1.29817e-17
1.38072e-17
1.46327e-17
1.56782e-17
1.62851e-17
1.71122e-17
1.67584e-18
2.41745e-18
3.19136e-18
3.98315e-18
4.78554e-18
5.59464e-18
6.40818e-18
7.22483e-18
8.0437e-18
8.86427e-18
9.85961e-18
1.05089e-17
1.13325e-17
1.21569e-17
1.29816e-17
1.38071e-17
1.47616e-17
1.54589e-17
1.62849e-17
1.7112e-17
1.67584e-18
2.41744e-18
3.19135e-18
3.98314e-18
4.78553e-18
5.59462e-18
6.40816e-18
7.22481e-18
8.04367e-18
9.02053e-18
9.68601e-18
1.05089e-17
1.13324e-17
1.21568e-17
1.29815e-17
1.39257e-17
1.46324e-17
1.54588e-17
1.62847e-17
1.71117e-17
1.67584e-18
2.41744e-18
3.19135e-18
3.98313e-18
4.78552e-18
5.59461e-18
6.40814e-18
7.22478e-18
8.17948e-18
8.8642e-18
9.68597e-18
1.05088e-17
1.13324e-17
1.21567e-17
1.3089e-17
1.38069e-17
1.46323e-17
1.54586e-17
1.62846e-17
1.71115e-17
1.67584e-18
2.41744e-18
3.19135e-18
3.98313e-18
4.78551e-18
5.59459e-18
6.40812e-18
7.22477e-18
8.04361e-18
9.02099e-18
9.68593e-18
1.05088e-17
1.13323e-17
1.21567e-17
1.29813e-17
1.38068e-17
1.46322e-17
1.54585e-17
1.62844e-17
1.73699e-17
1.67584e-18
2.41744e-18
3.19134e-18
3.98312e-18
4.7855e-18
5.59458e-18
6.40811e-18
7.22474e-18
8.04359e-18
8.86414e-18
9.85903e-18
1.05087e-17
1.13322e-17
1.21566e-17
1.29812e-17
1.38067e-17
1.46321e-17
1.54583e-17
1.62842e-17
1.71111e-17
1.67584e-18
2.41744e-18
3.19134e-18
3.98312e-18
4.78549e-18
5.59457e-18
6.40809e-18
7.33182e-18
8.04356e-18
8.86411e-18
9.68585e-18
1.05087e-17
1.13322e-17
1.21565e-17
1.32069e-17
1.38066e-17
1.46319e-17
1.54582e-17
1.6284e-17
1.71108e-17
1.67584e-18
2.41744e-18
3.19134e-18
3.98311e-18
4.78549e-18
5.59456e-18
6.47503e-18
7.22471e-18
8.04354e-18
8.86408e-18
9.68582e-18
1.05087e-17
1.13321e-17
1.21565e-17
1.29811e-17
1.40397e-17
1.46318e-17
1.5458e-17
1.62838e-17
1.71106e-17
1.67584e-18
2.41744e-18
3.19134e-18
3.98311e-18
4.78548e-18
5.59455e-18
6.40807e-18
7.33201e-18
8.04352e-18
8.86405e-18
9.68578e-18
1.05086e-17
1.13321e-17
1.21564e-17
1.32063e-17
1.38064e-17
1.46317e-17
1.54578e-17
1.62836e-17
1.71104e-17
1.67584e-18
2.41744e-18
3.19134e-18
3.9831e-18
4.78548e-18
5.59454e-18
6.47507e-18
7.22468e-18
8.0435e-18
8.86403e-18
9.68575e-18
1.05086e-17
1.1332e-17
1.23378e-17
1.29809e-17
1.38063e-17
1.46315e-17
1.54577e-17
1.62834e-17
1.71101e-17
1.67584e-18
2.41744e-18
3.19134e-18
3.9831e-18
4.78547e-18
5.59454e-18
6.40804e-18
7.33186e-18
8.04348e-18
8.864e-18
9.68571e-18
1.05085e-17
1.1332e-17
1.21563e-17
1.31737e-17
1.38061e-17
1.46314e-17
1.54575e-17
1.62832e-17
1.71099e-17
1.67584e-18
2.41744e-18
3.19134e-18
3.9831e-18
4.78547e-18
5.59453e-18
6.40803e-18
7.22465e-18
8.17911e-18
8.86397e-18
9.68568e-18
1.05085e-17
1.13319e-17
1.21562e-17
1.29807e-17
1.3806e-17
1.48685e-17
1.54574e-17
1.6283e-17
1.71097e-17
1.67584e-18
2.41744e-18
3.19133e-18
3.9831e-18
4.78546e-18
5.59452e-18
6.40802e-18
7.22464e-18
8.04344e-18
9.02073e-18
9.68565e-18
1.05084e-17
1.13319e-17
1.21561e-17
1.29806e-17
1.38059e-17
1.46311e-17
1.57016e-17
1.62828e-17
1.71095e-17
1.67584e-18
2.41744e-18
3.19133e-18
3.9831e-18
4.78546e-18
5.59452e-18
6.40802e-18
7.22462e-18
8.04342e-18
8.86392e-18
9.86063e-18
1.05084e-17
1.13318e-17
1.2156e-17
1.29806e-17
1.38058e-17
1.4631e-17
1.5457e-17
1.65349e-17
1.71092e-17
1.67584e-18
2.41744e-18
3.19133e-18
3.98309e-18
4.78545e-18
5.59451e-18
6.40801e-18
7.22461e-18
8.0434e-18
8.8639e-18
9.80967e-18
1.05083e-17
1.13318e-17
1.2156e-17
1.29805e-17
1.38057e-17
1.46309e-17
1.56815e-17
1.62825e-17
1.7109e-17
1.67584e-18
2.41744e-18
3.19133e-18
3.98309e-18
4.78545e-18
5.59451e-18
6.408e-18
7.2246e-18
8.04339e-18
8.86388e-18
9.68555e-18
1.05083e-17
1.13317e-17
1.21559e-17
1.29804e-17
1.38056e-17
1.46308e-17
1.54567e-17
1.65402e-17
1.71088e-17
1.67584e-18
2.41744e-18
3.19133e-18
3.98309e-18
4.78545e-18
5.5945e-18
6.40799e-18
7.22458e-18
8.04337e-18
8.86385e-18
9.71077e-18
1.05083e-17
1.13316e-17
1.21558e-17
1.29803e-17
1.38055e-17
1.46306e-17
1.54566e-17
1.62821e-17
1.73717e-17
1.67584e-18
2.41744e-18
3.19133e-18
3.98309e-18
4.78545e-18
5.60407e-18
6.40798e-18
7.22457e-18
8.04335e-18
8.86383e-18
9.68549e-18
1.05673e-17
1.13316e-17
1.21558e-17
1.29802e-17
1.38054e-17
1.46305e-17
1.54564e-17
1.62819e-17
1.71084e-17
1.67584e-18
2.41744e-18
3.19133e-18
3.98309e-18
4.78544e-18
5.59449e-18
6.45868e-18
7.22456e-18
8.04334e-18
8.8638e-18
9.68546e-18
1.05082e-17
1.14082e-17
1.21557e-17
1.29801e-17
1.38053e-17
1.46304e-17
1.54563e-17
1.64391e-17
1.71082e-17
1.67584e-18
2.41744e-18
3.19133e-18
3.98309e-18
4.78544e-18
5.59449e-18
6.47542e-18
7.22455e-18
8.04332e-18
8.86378e-18
9.68542e-18
1.05081e-17
1.13315e-17
1.2336e-17
1.298e-17
1.38052e-17
1.46303e-17
1.54561e-17
1.62816e-17
1.71081e-17
1.67584e-18
2.41744e-18
3.19133e-18
3.98309e-18
4.78544e-18
5.60439e-18
6.40796e-18
7.22454e-18
8.0433e-18
8.86376e-18
9.68539e-18
1.05081e-17
1.13314e-17
1.21556e-17
1.298e-17
1.38051e-17
1.48683e-17
1.5456e-17
1.62815e-17
1.71079e-17
1.67584e-18
2.41744e-18
3.19133e-18
3.98308e-18
4.78544e-18
5.59448e-18
6.47531e-18
7.22453e-18
8.04329e-18
8.86373e-18
9.68536e-18
1.05081e-17
1.13314e-17
1.21555e-17
1.29799e-17
1.40379e-17
1.463e-17
1.54559e-17
1.62813e-17
1.71077e-17
1.67584e-18
2.41744e-18
3.19133e-18
3.98308e-18
4.78543e-18
5.59447e-18
6.40794e-18
7.32219e-18
8.04327e-18
8.86371e-18
9.68534e-18
1.0508e-17
1.13313e-17
1.21554e-17
1.29798e-17
1.38049e-17
1.48416e-17
1.54558e-17
1.62812e-17
1.71076e-17
1.67584e-18
2.41744e-18
3.19133e-18
3.98308e-18
4.78543e-18
5.59447e-18
6.40794e-18
7.2245e-18
8.17894e-18
8.86369e-18
9.68531e-18
1.0508e-17
1.13313e-17
1.21554e-17
1.29798e-17
1.38048e-17
1.48671e-17
1.54556e-17
1.62811e-17
1.71074e-17
1.67584e-18
2.41744e-18
3.19133e-18
3.98308e-18
4.78543e-18
5.59447e-18
6.40793e-18
7.2245e-18
8.04324e-18
9.01753e-18
9.68528e-18
1.0508e-17
1.13312e-17
1.21554e-17
1.29797e-17
1.39251e-17
1.46297e-17
1.54556e-17
1.62809e-17
1.71073e-17
1.67584e-18
2.41744e-18
3.19133e-18
3.98308e-18
4.78543e-18
5.59446e-18
6.40793e-18
7.22449e-18
8.04323e-18
9.0209e-18
9.68526e-18
1.05079e-17
1.13312e-17
1.21553e-17
1.29796e-17
1.38047e-17
1.48419e-17
1.54555e-17
1.62808e-17
1.71072e-17
1.67584e-18
2.41744e-18
3.19133e-18
3.98308e-18
4.78542e-18
5.59446e-18
6.40792e-18
7.22448e-18
8.17937e-18
8.86364e-18
9.68523e-18
1.05079e-17
1.13312e-17
1.21552e-17
1.29796e-17
1.38046e-17
1.46296e-17
1.5704e-17
1.62808e-17
1.71071e-17
1.67584e-18
2.41744e-18
3.19133e-18
3.98308e-18
4.78542e-18
5.59446e-18
6.40792e-18
7.22447e-18
8.04321e-18
9.02086e-18
9.68521e-18
1.05079e-17
1.13311e-17
1.21552e-17
1.29795e-17
1.39246e-17
1.46295e-17
1.54553e-17
1.62807e-17
1.7107e-17
1.67584e-18
2.41744e-18
3.19133e-18
3.98308e-18
4.78542e-18
5.59445e-18
6.40791e-18
7.22446e-18
8.17933e-18
8.86361e-18
9.68519e-18
1.05078e-17
1.13311e-17
1.21552e-17
1.30875e-17
1.38045e-17
1.46295e-17
1.54553e-17
1.62806e-17
1.71069e-17
1.67584e-18
2.41744e-18
3.19133e-18
3.98308e-18
4.78542e-18
5.59445e-18
6.40791e-18
7.22446e-18
8.04319e-18
8.8636e-18
9.68518e-18
1.05078e-17
1.13311e-17
1.23644e-17
1.29795e-17
1.38045e-17
1.46294e-17
1.54552e-17
1.62805e-17
1.71069e-17
1.67584e-18
2.41744e-18
3.19133e-18
3.98308e-18
4.78542e-18
5.59445e-18
6.4079e-18
7.33187e-18
8.04318e-18
8.86359e-18
9.68517e-18
1.05078e-17
1.13311e-17
1.21551e-17
1.29794e-17
1.38044e-17
1.48705e-17
1.54551e-17
1.62805e-17
1.71068e-17
1.67584e-18
2.41744e-18
3.19133e-18
3.98308e-18
4.78542e-18
5.59445e-18
6.4079e-18
7.22445e-18
8.17908e-18
8.86358e-18
9.68516e-18
1.05078e-17
1.13311e-17
1.21551e-17
1.29794e-17
1.38044e-17
1.46294e-17
1.54551e-17
1.62805e-17
1.71068e-17
1.67584e-18
2.41744e-18
3.19133e-18
3.98308e-18
4.78542e-18
5.59444e-18
6.4079e-18
7.22444e-18
8.04317e-18
9.02065e-18
9.68515e-18
1.05078e-17
1.1331e-17
1.21551e-17
1.29794e-17
1.38044e-17
1.46294e-17
1.54551e-17
1.62804e-17
1.71067e-17
1.67584e-18
2.41744e-18
3.19133e-18
3.98308e-18
4.78542e-18
5.59444e-18
6.4079e-18
7.22444e-18
8.04317e-18
8.86357e-18
9.80873e-18
1.05078e-17
1.1331e-17
1.21551e-17
1.29794e-17
1.38044e-17
1.46293e-17
1.54551e-17
1.62804e-17
1.71067e-17
1.67584e-18
2.41744e-18
3.19133e-18
3.98308e-18
4.78542e-18
5.59444e-18
6.40789e-18
7.22444e-18
8.04316e-18
9.01777e-18
9.68513e-18
1.05078e-17
1.1331e-17
1.21551e-17
1.29794e-17
1.39242e-17
1.46293e-17
1.54551e-17
1.62804e-17
1.71067e-17
1.67584e-18
2.41744e-18
3.19133e-18
3.98308e-18
4.78542e-18
5.59444e-18
6.40789e-18
7.22444e-18
8.04316e-18
8.86356e-18
9.68514e-18
1.05078e-17
1.1331e-17
1.21551e-17
1.29794e-17
1.39283e-17
1.46293e-17
1.5455e-17
1.62804e-17
1.71067e-17
1.67584e-18
2.41744e-18
3.19133e-18
3.98307e-18
4.78542e-18
5.59444e-18
6.40789e-18
7.22444e-18
8.04316e-18
8.86356e-18
9.86039e-18
1.05078e-17
1.1331e-17
1.21551e-17
1.29794e-17
1.38044e-17
1.46293e-17
1.5455e-17
1.62804e-17
1.71067e-17
1.67584e-18
2.41744e-18
3.19133e-18
3.98307e-18
4.78541e-18
5.59444e-18
6.40789e-18
7.22444e-18
8.04316e-18
8.86356e-18
9.68513e-18
1.06948e-17
1.1331e-17
1.21551e-17
1.29794e-17
1.38044e-17
1.46293e-17
1.5455e-17
1.62804e-17
1.71067e-17
1.67584e-18
2.41744e-18
3.19132e-18
3.98307e-18
4.78541e-18
5.59444e-18
6.40789e-18
7.22443e-18
8.04316e-18
8.86356e-18
9.68514e-18
1.05078e-17
1.15297e-17
1.21551e-17
1.29794e-17
1.38044e-17
1.46293e-17
1.54551e-17
1.62804e-17
1.71067e-17
1.67584e-18
2.41744e-18
3.19132e-18
3.98307e-18
4.78541e-18
5.59444e-18
6.40789e-18
7.22444e-18
8.04316e-18
8.86356e-18
9.68513e-18
1.05078e-17
1.1331e-17
1.23639e-17
1.29794e-17
1.38044e-17
1.46293e-17
1.54551e-17
1.62804e-17
1.71068e-17
1.67584e-18
2.41744e-18
3.19132e-18
3.98307e-18
4.78541e-18
5.59444e-18
6.40789e-18
7.22444e-18
8.04316e-18
8.86356e-18
9.68513e-18
1.05078e-17
1.1331e-17
1.23681e-17
1.29794e-17
1.38044e-17
1.46293e-17
1.54551e-17
1.62804e-17
1.71068e-17
1.67584e-18
2.41744e-18
3.19132e-18
3.98307e-18
4.78541e-18
5.59444e-18
6.40789e-18
7.22444e-18
8.04316e-18
8.86356e-18
9.68514e-18
1.05078e-17
1.1331e-17
1.21551e-17
1.31974e-17
1.38044e-17
1.46294e-17
1.54551e-17
1.62805e-17
1.71068e-17
1.67584e-18
2.41744e-18
3.19132e-18
3.98307e-18
4.78541e-18
5.59444e-18
6.40789e-18
7.22444e-18
8.04316e-18
8.86356e-18
9.68514e-18
1.05078e-17
1.1331e-17
1.21551e-17
1.32012e-17
1.38044e-17
1.46294e-17
1.54551e-17
1.62805e-17
1.71068e-17
1.67584e-18
2.41744e-18
3.19132e-18
3.98307e-18
4.78541e-18
5.59444e-18
6.40789e-18
7.22444e-18
8.04316e-18
8.86357e-18
9.68515e-18
1.05078e-17
1.1331e-17
1.21551e-17
1.29794e-17
1.40309e-17
1.46294e-17
1.54551e-17
1.62805e-17
1.71069e-17
1.67584e-18
2.41744e-18
3.19132e-18
3.98307e-18
4.78541e-18
5.59444e-18
6.40789e-18
7.22444e-18
8.04317e-18
8.86357e-18
9.68515e-18
1.05078e-17
1.13311e-17
1.21551e-17
1.3201e-17
1.38044e-17
1.46294e-17
1.54552e-17
1.62806e-17
1.71069e-17
1.67584e-18
2.41744e-18
3.19132e-18
3.98307e-18
4.78541e-18
5.59444e-18
6.40789e-18
7.22444e-18
8.04317e-18
8.86357e-18
9.68515e-18
1.05078e-17
1.13311e-17
1.2367e-17
1.29794e-17
1.38045e-17
1.46294e-17
1.54552e-17
1.62806e-17
1.72633e-17
1.67584e-18
2.41744e-18
3.19132e-18
3.98307e-18
4.78541e-18
5.59444e-18
6.40789e-18
7.22444e-18
8.04317e-18
8.86358e-18
9.68515e-18
1.05078e-17
1.13311e-17
1.23641e-17
1.29794e-17
1.38045e-17
1.46294e-17
1.54552e-17
1.62806e-17
1.7107e-17
1.67584e-18
2.41744e-18
3.19132e-18
3.98307e-18
4.78541e-18
5.59444e-18
6.40789e-18
7.22445e-18
8.04317e-18
8.86358e-18
9.68516e-18
1.05078e-17
1.13311e-17
1.23683e-17
1.29794e-17
1.38045e-17
1.46294e-17
1.54553e-17
1.62806e-17
1.72643e-17
1.67584e-18
2.41744e-18
3.19132e-18
3.98307e-18
4.78541e-18
5.59444e-18
6.40789e-18
7.22445e-18
8.04317e-18
8.86359e-18
9.68516e-18
1.05078e-17
1.1525e-17
1.21552e-17
1.29794e-17
1.38045e-17
1.46295e-17
1.54553e-17
1.64329e-17
1.71071e-17
1.67584e-18
2.41744e-18
3.19132e-18
3.98307e-18
4.78541e-18
5.59444e-18
6.4079e-18
7.22445e-18
8.04317e-18
8.86359e-18
9.68516e-18
1.06556e-17
1.13311e-17
1.21552e-17
1.29795e-17
1.38045e-17
1.46295e-17
1.56008e-17
1.62806e-17
1.71071e-17
1.67584e-18
2.41744e-18
3.19132e-18
3.98307e-18
4.78541e-18
5.59444e-18
6.4079e-18
7.22445e-18
8.04318e-18
8.86358e-18
9.80889e-18
1.05078e-17
1.13311e-17
1.21552e-17
1.29795e-17
1.38045e-17
1.47645e-17
1.54553e-17
1.62807e-17
1.71071e-17
1.67584e-18
2.41744e-18
3.19132e-18
3.98307e-18
4.78541e-18
5.59444e-18
6.4079e-18
7.22445e-18
8.04317e-18
8.86359e-18
9.68517e-18
1.05078e-17
1.13311e-17
1.21552e-17
1.29795e-17
1.38046e-17
1.48664e-17
1.54553e-17
1.62807e-17
1.71071e-17
1.67584e-18
2.41744e-18
3.19132e-18
3.98307e-18
4.78541e-18
5.59444e-18
6.4079e-18
7.22445e-18
8.04317e-18
8.86359e-18
9.8571e-18
1.05078e-17
1.13311e-17
1.21552e-17
1.29795e-17
1.38046e-17
1.47596e-17
1.54554e-17
1.62807e-17
1.71072e-17
1.67584e-18
2.41744e-18
3.19132e-18
3.98307e-18
4.78541e-18
5.59444e-18
6.4079e-18
7.22445e-18
8.04318e-18
8.8636e-18
9.68517e-18
1.0695e-17
1.13311e-17
1.21552e-17
1.29795e-17
1.38046e-17
1.46295e-17
1.55951e-17
1.62807e-17
1.71072e-17
1.67584e-18
2.41744e-18
3.19132e-18
3.98307e-18
4.78541e-18
5.59444e-18
6.4079e-18
7.22445e-18
8.04318e-18
8.8636e-18
9.68518e-18
1.05078e-17
1.15316e-17
1.21552e-17
1.29795e-17
1.38046e-17
1.46296e-17
1.54554e-17
1.64312e-17
1.71072e-17
1.67584e-18
2.41744e-18
3.19132e-18
3.98307e-18
4.78541e-18
5.59444e-18
6.4079e-18
7.22445e-18
8.04318e-18
8.8636e-18
9.68518e-18
1.05078e-17
1.15298e-17
1.21552e-17
1.29795e-17
1.38046e-17
1.46296e-17
1.54554e-17
1.64289e-17
1.71072e-17
1.67584e-18
2.41744e-18
3.19132e-18
3.98307e-18
4.78541e-18
5.59444e-18
6.4079e-18
7.22445e-18
8.04318e-18
8.8636e-18
9.68518e-18
1.06846e-17
1.13311e-17
1.21552e-17
1.29795e-17
1.38046e-17
1.46296e-17
1.55988e-17
1.62808e-17
1.71072e-17
1.67584e-18
2.41744e-18
3.19132e-18
3.98307e-18
4.78541e-18
5.59444e-18
6.4079e-18
7.22445e-18
8.04318e-18
8.8636e-18
9.68518e-18
1.05078e-17
1.15298e-17
1.21552e-17
1.29795e-17
1.38046e-17
1.46296e-17
1.54554e-17
1.64289e-17
1.71073e-17
1.67584e-18
2.41743e-18
3.19132e-18
3.98307e-18
4.78541e-18
5.59444e-18
6.4079e-18
7.22445e-18
8.04318e-18
8.86359e-18
9.68519e-18
1.05078e-17
1.13311e-17
1.23682e-17
1.29795e-17
1.38046e-17
1.46296e-17
1.54554e-17
1.62809e-17
1.72645e-17
5.89519e-07
6.44624e-07
6.06364e-07
5.72712e-07
5.67967e-07
5.69675e-07
5.73295e-07
5.75191e-07
5.76256e-07
5.74924e-07
5.73234e-07
5.70775e-07
5.68505e-07
5.65852e-07
5.63693e-07
5.6125e-07
5.59397e-07
5.5718e-07
5.55538e-07
5.53494e-07
5.52017e-07
5.50161e-07
5.48853e-07
5.47166e-07
5.45981e-07
5.44409e-07
5.43322e-07
5.4186e-07
5.40874e-07
5.39512e-07
5.3862e-07
5.37348e-07
5.36527e-07
5.35318e-07
5.34554e-07
5.3341e-07
5.32707e-07
5.31624e-07
5.30978e-07
5.2995e-07
5.29354e-07
5.28367e-07
5.27811e-07
5.26862e-07
5.26345e-07
5.25433e-07
5.24953e-07
5.24077e-07
5.23633e-07
5.22786e-07
5.22368e-07
5.21551e-07
5.2115e-07
5.20374e-07
5.19983e-07
5.19247e-07
5.18866e-07
5.18169e-07
5.17796e-07
5.1713e-07
5.16764e-07
5.16128e-07
5.15767e-07
5.15162e-07
5.14807e-07
5.14231e-07
5.13881e-07
5.13333e-07
5.12988e-07
5.12464e-07
5.12125e-07
5.11621e-07
5.11288e-07
5.10801e-07
5.10474e-07
5.10007e-07
5.09688e-07
5.09235e-07
5.08931e-07
5.08432e-07
6.28375e-07
1.02891e-06
1.72324e-06
2.52265e-06
3.07772e-06
3.52063e-06
3.86517e-06
4.10663e-06
4.27569e-06
4.3614e-06
4.41924e-06
4.45414e-06
4.47684e-06
4.49117e-06
4.50309e-06
4.51066e-06
4.51958e-06
4.5227e-06
4.52821e-06
4.5277e-06
4.53082e-06
4.52917e-06
4.53109e-06
4.52873e-06
4.52908e-06
4.52544e-06
4.52476e-06
4.52062e-06
4.51952e-06
4.51515e-06
4.51394e-06
4.50931e-06
4.5076e-06
4.50241e-06
4.50035e-06
4.49508e-06
4.49297e-06
4.48774e-06
4.48566e-06
4.48051e-06
4.47836e-06
4.47304e-06
4.47075e-06
4.46541e-06
4.46308e-06
4.45787e-06
4.45551e-06
4.45053e-06
4.44813e-06
4.44327e-06
4.44058e-06
4.43608e-06
4.43305e-06
4.42902e-06
4.42564e-06
4.42214e-06
4.41844e-06
4.41542e-06
4.41139e-06
4.40875e-06
4.40438e-06
4.40213e-06
4.39746e-06
4.39565e-06
4.39068e-06
4.38933e-06
4.38407e-06
4.38318e-06
4.37761e-06
4.37709e-06
4.37136e-06
4.37098e-06
4.36518e-06
4.36493e-06
4.35907e-06
4.35907e-06
4.35321e-06
4.3533e-06
4.34781e-06
4.34605e-06
1.35892e-07
4.04344e-07
6.18497e-07
1.26253e-06
2.27621e-06
3.43157e-06
4.54922e-06
5.27363e-06
5.79026e-06
6.14621e-06
6.42348e-06
6.62393e-06
6.77811e-06
6.9036e-06
7.00681e-06
7.09381e-06
7.16978e-06
7.22993e-06
7.28631e-06
7.32876e-06
7.37232e-06
7.40529e-06
7.43905e-06
7.46451e-06
7.48973e-06
7.50884e-06
7.52849e-06
7.54343e-06
7.55933e-06
7.5711e-06
7.58395e-06
7.59262e-06
7.60239e-06
7.60818e-06
7.61583e-06
7.62005e-06
7.62616e-06
7.62923e-06
7.63409e-06
7.63607e-06
7.6396e-06
7.64032e-06
7.6428e-06
7.6427e-06
7.64433e-06
7.6438e-06
7.64468e-06
7.64397e-06
7.64411e-06
7.64293e-06
7.64233e-06
7.64091e-06
7.63968e-06
7.63827e-06
7.63648e-06
7.63521e-06
7.63289e-06
7.63169e-06
7.62882e-06
7.62756e-06
7.62423e-06
7.623e-06
7.61929e-06
7.61821e-06
7.61416e-06
7.61328e-06
7.6089e-06
7.60818e-06
7.60346e-06
7.60272e-06
7.5982e-06
7.59679e-06
7.59277e-06
7.59071e-06
7.58702e-06
7.58476e-06
7.58128e-06
7.57893e-06
7.57531e-06
7.57266e-06
1.09308e-07
2.14038e-07
1.59914e-07
5.16119e-07
7.76601e-07
1.47045e-06
2.85901e-06
4.00505e-06
5.06272e-06
6.00985e-06
6.72717e-06
7.21907e-06
7.61827e-06
7.94619e-06
8.23001e-06
8.4709e-06
8.68553e-06
8.86155e-06
9.02477e-06
9.15993e-06
9.28819e-06
9.39841e-06
9.49957e-06
9.59055e-06
9.67022e-06
9.74495e-06
9.80992e-06
9.87296e-06
9.92715e-06
9.98048e-06
1.00256e-05
1.00706e-05
1.01077e-05
1.01451e-05
1.01763e-05
1.02086e-05
1.02351e-05
1.02635e-05
1.02857e-05
1.03106e-05
1.03291e-05
1.03504e-05
1.03658e-05
1.03844e-05
1.03972e-05
1.04137e-05
1.04244e-05
1.04393e-05
1.0448e-05
1.0461e-05
1.0468e-05
1.04794e-05
1.0485e-05
1.04952e-05
1.04997e-05
1.05089e-05
1.05124e-05
1.05207e-05
1.05231e-05
1.05303e-05
1.05319e-05
1.05383e-05
1.05392e-05
1.0545e-05
1.05453e-05
1.05507e-05
1.05504e-05
1.05553e-05
1.05544e-05
1.05587e-05
1.05575e-05
1.0561e-05
1.05598e-05
1.05625e-05
1.05612e-05
1.05635e-05
1.05622e-05
1.05642e-05
1.0562e-05
1.05653e-05
6.31319e-11
9.65911e-09
5.38116e-08
1.60803e-07
1.49591e-07
5.86479e-07
9.21094e-07
1.81882e-06
3.10139e-06
4.15003e-06
5.19134e-06
6.14925e-06
6.97761e-06
7.68129e-06
8.33284e-06
8.8884e-06
9.30316e-06
9.6535e-06
9.97807e-06
1.0256e-05
1.05171e-05
1.07457e-05
1.09605e-05
1.1149e-05
1.13243e-05
1.14802e-05
1.16269e-05
1.17596e-05
1.18842e-05
1.19994e-05
1.21043e-05
1.22047e-05
1.22916e-05
1.23794e-05
1.24532e-05
1.25311e-05
1.25945e-05
1.26644e-05
1.27187e-05
1.27815e-05
1.28275e-05
1.28838e-05
1.29232e-05
1.29737e-05
1.30076e-05
1.30534e-05
1.30829e-05
1.31247e-05
1.315e-05
1.31877e-05
1.32096e-05
1.32437e-05
1.32628e-05
1.3294e-05
1.33106e-05
1.33393e-05
1.33538e-05
1.33799e-05
1.33924e-05
1.34159e-05
1.34269e-05
1.34483e-05
1.34579e-05
1.34775e-05
1.3486e-05
1.35041e-05
1.35114e-05
1.3528e-05
1.35342e-05
1.35493e-05
1.35547e-05
1.35683e-05
1.3573e-05
1.35853e-05
1.35895e-05
1.36009e-05
1.36045e-05
1.36152e-05
1.36171e-05
1.36315e-05
2.01574e-12
2.97815e-10
4.58457e-10
2.0383e-08
1.08702e-07
1.97484e-07
1.5879e-07
6.27718e-07
1.02466e-06
1.92792e-06
3.2072e-06
4.12518e-06
5.08414e-06
6.01928e-06
6.92889e-06
7.71856e-06
8.45912e-06
9.13738e-06
9.74986e-06
1.02847e-05
1.07864e-05
1.12447e-05
1.16436e-05
1.19648e-05
1.22691e-05
1.25394e-05
1.27989e-05
1.30311e-05
1.32546e-05
1.34572e-05
1.36502e-05
1.38256e-05
1.39911e-05
1.41445e-05
1.42882e-05
1.44252e-05
1.45501e-05
1.4674e-05
1.47828e-05
1.48946e-05
1.49883e-05
1.50902e-05
1.51713e-05
1.52646e-05
1.5335e-05