/*--------------------------------*- C++ -*----------------------------------*\
| =========                 |                                                 |
| \\      /  F ield         | OpenFOAM: The Open Source CFD Toolbox           |
|  \\    /   O peration     | Version:  v1912                                 |
|   \\  /    A nd           | Website:  www.openfoam.com                      |
|    \\/     M anipulation  |                                                 |
\*---------------------------------------------------------------------------*/
FoamFile
{
    version     2.0;
    format      ascii;
    class       volScalarField;
    location    "200";
    object      omega;
}
// * * * * * * * * * * * * * * * * * * * * * * * * * * * * * * * * * * * * * //

dimensions      [0 0 -1 0 0 0 0];


internalField   nonuniform List<scalar> 
10000
(
615.597
438.546
377.502
316.033
302.93
282.574
284.499
278.235
286.208
284.06
295.117
295.042
308.539
308.765
324.313
328.022
342.946
347.356
362.33
371.021
629.353
465.318
409.159
354.523
347.73
325.529
328.251
323.263
330.211
327.914
336.915
335.874
345.984
345.555
356.364
356.299
367.649
367.829
379.605
379.962
597.591
418.734
317.839
260.041
216.657
190.919
166.848
153.272
138.12
129.918
119.791
114.079
107.254
102.642
98.2302
94.0612
91.5334
87.565
86.424
83.2584
596.822
413.677
313.314
251.115
209.048
178.865
156.317
138.607
124.811
113.092
103.986
95.5353
89.2651
82.7507
78.3543
73.034
69.9196
65.5551
63.1985
59.1191
596.801
413.578
313.276
250.948
208.922
178.622
156.059
138.27
124.392
112.637
103.382
94.9508
88.4533
82.0326
77.3484
72.1107
68.7956
64.3249
62.1792
57.1489
596.794
413.583
313.27
250.961
208.9
178.646
156.014
138.31
124.314
112.699
103.268
95.0225
88.3105
82.0992
77.1432
72.2609
68.4804
64.5197
61.5814
58.1192
596.795
413.591
313.27
250.973
208.893
178.665
155.996
138.343
124.278
112.752
103.205
95.1036
88.2125
82.21
77.0078
72.3907
68.3148
64.6669
61.3819
58.402
596.802
413.605
313.273
250.989
208.886
178.69
155.977
138.379
124.244
112.802
103.156
95.1716
88.1429
82.2981
76.9159
72.4952
68.2016
64.7894
61.2374
58.5746
596.818
413.618
313.282
250.995
208.893
178.692
155.983
138.377
124.252
112.797
103.165
95.1629
88.1537
82.2854
76.9296
72.4767
68.2191
64.7626
61.2616
58.5338
596.815
413.621
313.287
250.995
208.901
178.686
155.997
138.364
124.273
112.775
103.195
95.1292
88.195
82.2384
76.9847
72.4127
68.2918
64.6792
61.351
58.4339
596.813
413.625
313.293
250.998
208.908
178.687
156.004
138.362
124.283
112.768
103.209
95.1165
88.2148
82.2196
77.0104
72.3872
68.3246
64.6444
61.3947
58.3876
596.816
413.632
313.298
251.003
208.912
178.691
156.007
138.365
124.285
112.771
103.212
95.1186
88.2181
82.2213
77.0128
72.3901
68.3249
64.6494
61.3921
58.3956
596.82
413.641
313.304
251.009
208.916
178.696
156.009
138.371
124.286
112.776
103.212
95.124
88.2165
82.2273
77.0097
72.3978
68.3191
64.6599
61.3833
58.4088
596.822
413.648
313.31
251.014
208.92
178.7
156.013
138.374
124.289
112.778
103.214
95.1259
88.2191
82.2284
77.0124
72.3978
68.3227
64.6582
61.388
58.4054
596.822
413.654
313.315
251.019
208.924
178.704
156.016
138.377
124.292
112.781
103.216
95.1278
88.221
82.2298
77.0146
72.3985
68.3253
64.6581
61.3913
58.4047
596.821
413.659
313.319
251.024
208.928
178.708
156.019
138.381
124.293
112.785
103.217
95.1323
88.2205
82.2348
77.013
72.404
68.3227
64.6642
61.3876
58.4119
596.822
413.665
313.324
251.029
208.932
178.713
156.021
138.385
124.295
112.789
103.218
95.1362
88.2201
82.2392
77.0117
72.4091
68.3202
64.6703
61.3839
58.419
596.823
413.671
313.33
251.033
208.936
178.716
156.025
138.387
124.298
112.791
103.22
95.1383
88.2223
82.241
77.0135
72.4107
68.3219
64.6715
61.3855
58.42
596.827
413.679
313.336
251.038
208.941
178.719
156.029
138.39
124.301
112.792
103.224
95.1386
88.2261
82.2404
77.0178
72.4093
68.3266
64.6694
61.391
58.4169
596.831
413.686
313.341
251.043
208.945
178.723
156.032
138.392
124.304
112.795
103.226
95.1404
88.2284
82.2419
77.0197
72.4105
68.3285
64.6702
61.3927
58.4178
596.841
413.695
313.348
251.048
208.95
178.727
156.035
138.396
124.307
112.797
103.228
95.1428
88.23
82.2441
77.0211
72.4127
68.3295
64.6727
61.3935
58.4207
596.849
413.703
313.355
251.054
208.953
178.731
156.038
138.398
124.308
112.8
103.229
95.1448
88.2308
82.2459
77.0217
72.4143
68.3302
64.6741
61.3943
58.4221
596.814
413.689
313.349
251.052
208.952
178.732
156.038
138.401
124.309
112.803
103.231
95.1489
88.2322
82.2505
77.0232
72.4192
68.3316
64.6792
61.396
58.4271
596.76
413.664
313.335
251.043
208.947
178.728
156.036
138.399
124.308
112.803
103.23
95.1496
88.2319
82.2521
77.0229
72.4219
68.3314
64.6828
61.396
58.4315
596.727
413.649
313.326
251.037
208.943
178.725
156.033
138.397
124.306
112.8
103.228
95.1465
88.2294
82.2489
77.0203
72.4184
68.3284
64.6794
61.3926
58.4284
596.715
413.644
313.324
251.036
208.943
178.724
156.033
138.396
124.306
112.799
103.228
95.1456
88.2298
82.2474
77.0205
72.4165
68.3286
64.6769
61.3925
58.4256
596.713
413.645
313.326
251.038
208.944
178.726
156.035
138.397
124.307
112.8
103.229
95.1459
88.2309
82.2475
77.0217
72.4163
68.3297
64.6767
61.3938
58.4255
596.713
413.646
313.327
251.039
208.946
178.727
156.036
138.398
124.309
112.801
103.23
95.1468
88.232
82.2482
77.0226
72.4169
68.3308
64.6771
61.3949
58.4259
596.714
413.648
313.33
251.041
208.948
178.729
156.038
138.4
124.31
112.802
103.231
95.1476
88.2328
82.249
77.0235
72.4176
68.3315
64.6778
61.3957
58.4268
596.714
413.65
313.332
251.043
208.949
178.73
156.039
138.401
124.311
112.803
103.232
95.1486
88.2337
82.2498
77.0242
72.4184
68.3322
64.6786
61.3965
58.4277
596.715
413.651
313.334
251.045
208.951
178.731
156.04
138.402
124.312
112.804
103.233
95.1494
88.2345
82.2506
77.0249
72.4191
68.3329
64.6794
61.3973
58.4286
596.715
413.653
313.335
251.046
208.952
178.733
156.041
138.403
124.313
112.805
103.234
95.1503
88.2353
82.2514
77.0256
72.4199
68.3336
64.6801
61.398
58.4295
596.715
413.654
313.337
251.048
208.954
178.734
156.043
138.404
124.314
112.806
103.235
95.151
88.236
82.2521
77.0264
72.4206
68.3343
64.6808
61.3989
58.4304
596.715
413.655
313.338
251.049
208.955
178.735
156.044
138.405
124.315
112.807
103.236
95.1519
88.2368
82.2528
77.027
72.4213
68.335
64.6815
61.3996
58.4312
596.715
413.656
313.34
251.051
208.956
178.736
156.045
138.406
124.316
112.807
103.237
95.1525
88.2374
82.2535
77.0277
72.4219
68.3357
64.6822
61.4004
58.4321
596.716
413.657
313.341
251.052
208.957
178.737
156.046
138.407
124.317
112.808
103.237
95.1533
88.2381
82.2542
77.0283
72.4226
68.3364
64.6829
61.4012
58.4329
596.716
413.657
313.342
251.053
208.958
178.738
156.047
138.408
124.317
112.809
103.238
95.1539
88.2387
82.2548
77.0289
72.4232
68.337
64.6836
61.4019
58.4338
596.716
413.658
313.343
251.054
208.959
178.739
156.047
138.408
124.318
112.81
103.239
95.1546
88.2393
82.2554
77.0295
72.4238
68.3376
64.6843
61.4027
58.4346
596.716
413.659
313.344
251.055
208.96
178.74
156.048
138.409
124.319
112.81
103.239
95.1551
88.2399
82.2559
77.0301
72.4244
68.3383
64.685
61.4035
58.4354
596.716
413.659
313.345
251.056
208.961
178.741
156.049
138.41
124.319
112.811
103.24
95.1557
88.2405
82.2565
77.0307
72.425
68.3389
64.6856
61.4042
58.4362
596.716
413.659
313.345
251.057
208.962
178.742
156.049
138.411
124.32
112.811
103.24
95.1562
88.2409
82.257
77.0312
72.4255
68.3395
64.6863
61.4049
58.437
596.716
413.66
313.346
251.057
208.962
178.742
156.05
138.411
124.32
112.812
103.241
95.1567
88.2415
82.2575
77.0317
72.4261
68.3401
64.6869
61.4056
58.4378
596.716
413.66
313.346
251.058
208.963
178.743
156.051
138.412
124.321
112.812
103.241
95.1572
88.2419
82.258
77.0322
72.4266
68.3407
64.6876
61.4064
58.4386
596.716
413.66
313.347
251.058
208.963
178.743
156.051
138.412
124.321
112.813
103.242
95.1576
88.2424
82.2585
77.0327
72.4272
68.3413
64.6882
61.4072
58.4394
596.716
413.66
313.347
251.059
208.964
178.744
156.052
138.412
124.322
112.813
103.242
95.158
88.2428
82.2589
77.0332
72.4277
68.3419
64.6888
61.4079
58.4402
596.716
413.66
313.347
251.059
208.964
178.744
156.052
138.413
124.322
112.814
103.243
95.1585
88.2433
82.2594
77.0338
72.4282
68.3425
64.6895
61.4086
58.4409
596.716
413.66
313.348
251.059
208.965
178.744
156.052
138.413
124.323
112.814
103.243
95.1589
88.2437
82.2598
77.0343
72.4287
68.3431
64.6901
61.4094
58.4417
596.716
413.66
313.348
251.06
208.965
178.745
156.053
138.414
124.323
112.815
103.243
95.1593
88.2442
82.2603
77.0348
72.4293
68.3437
64.6908
61.4101
58.4425
596.716
413.661
313.348
251.06
208.965
178.745
156.053
138.414
124.323
112.815
103.244
95.1597
88.2446
82.2608
77.0352
72.4299
68.3443
64.6915
61.4108
58.4433
596.716
413.661
313.348
251.06
208.965
178.745
156.053
138.414
124.324
112.815
103.244
95.1601
88.245
82.2612
77.0358
72.4304
68.3449
64.6921
61.4116
58.4441
596.716
413.661
313.348
251.06
208.966
178.746
156.054
138.414
124.324
112.816
103.244
95.1605
88.2455
82.2617
77.0363
72.431
68.3455
64.6928
61.4123
58.4449
596.716
413.661
313.348
251.061
208.966
178.746
156.054
138.415
124.324
112.816
103.245
95.1609
88.2459
82.2621
77.0368
72.4315
68.3462
64.6935
61.413
58.4457
596.716
413.661
313.348
251.061
208.966
178.746
156.054
138.415
124.325
112.816
103.245
95.1613
88.2463
82.2626
77.0373
72.4321
68.3468
64.6941
61.4137
58.4464
596.716
413.661
313.349
251.061
208.966
178.746
156.054
138.415
124.325
112.817
103.246
95.1617
88.2467
82.2631
77.0378
72.4327
68.3473
64.6948
61.4144
58.4472
596.716
413.661
313.349
251.061
208.966
178.746
156.055
138.416
124.325
112.817
103.246
95.162
88.2472
82.2636
77.0383
72.4333
68.348
64.6955
61.4151
58.448
596.716
413.661
313.349
251.061
208.967
178.747
156.055
138.416
124.325
112.817
103.246
95.1624
88.2476
82.264
77.0388
72.4338
68.3486
64.6962
61.4158
58.4487
596.716
413.661
313.349
251.061
208.967
178.747
156.055
138.416
124.326
112.817
103.247
95.1628
88.248
82.2645
77.0393
72.4344
68.3492
64.6968
61.4165
58.4494
596.716
413.661
313.349
251.061
208.967
178.747
156.055
138.416
124.326
112.818
103.247
95.1632
88.2484
82.265
77.0398
72.435
68.3497
64.6975
61.4171
58.4501
596.716
413.661
313.349
251.061
208.967
178.747
156.055
138.417
124.326
112.818
103.247
95.1636
88.2489
82.2655
77.0403
72.4355
68.3503
64.6981
61.4178
58.4508
596.716
413.661
313.349
251.061
208.967
178.747
156.056
138.417
124.327
112.818
103.248
95.164
88.2493
82.2659
77.0408
72.4361
68.3509
64.6987
61.4183
58.4514
596.716
413.661
313.349
251.062
208.967
178.747
156.056
138.417
124.327
112.819
103.248
95.1644
88.2497
82.2664
77.0413
72.4366
68.3514
64.6992
61.419
58.452
596.716
413.661
313.349
251.062
208.967
178.748
156.056
138.417
124.327
112.819
103.248
95.1647
88.2501
82.2668
77.0418
72.4371
68.352
64.6998
61.4195
58.4526
596.716
413.661
313.349
251.062
208.967
178.748
156.056
138.417
124.327
112.819
103.249
95.1651
88.2505
82.2672
77.0422
72.4375
68.3525
64.7003
61.4201
58.4531
596.716
413.661
313.349
251.062
208.967
178.748
156.056
138.418
124.328
112.82
103.249
95.1654
88.2508
82.2676
77.0426
72.438
68.3529
64.7008
61.4206
58.4537
596.716
413.661
313.349
251.062
208.968
178.748
156.056
138.418
124.328
112.82
103.249
95.1657
88.2512
82.268
77.0431
72.4384
68.3534
64.7013
61.421
58.4541
596.716
413.661
313.349
251.062
208.968
178.748
156.057
138.418
124.328
112.82
103.25
95.166
88.2516
82.2683
77.0435
72.4387
68.3539
64.7016
61.4216
58.4544
596.716
413.661
313.349
251.062
208.968
178.748
156.057
138.418
124.328
112.82
103.25
95.1663
88.2518
82.2687
77.0438
72.4391
68.3542
64.702
61.4219
58.4549
596.716
413.661
313.349
251.062
208.968
178.748
156.057
138.418
124.328
112.82
103.25
95.1666
88.2521
82.269
77.0441
72.4395
68.3545
64.7024
61.4222
58.4553
596.716
413.661
313.349
251.062
208.968
178.748
156.057
138.418
124.329
112.821
103.25
95.1668
88.2524
82.2692
77.0444
72.4398
68.3548
64.7027
61.4225
58.4556
596.716
413.661
313.349
251.062
208.968
178.748
156.057
138.419
124.329
112.821
103.25
95.167
88.2526
82.2694
77.0447
72.44
68.3551
64.7029
61.4228
58.4558
596.716
413.661
313.349
251.062
208.968
178.749
156.057
138.419
124.329
112.821
103.251
95.1672
88.2528
82.2697
77.0449
72.4402
68.3553
64.7032
61.423
58.456
596.716
413.661
313.349
251.062
208.968
178.749
156.057
138.419
124.329
112.821
103.251
95.1674
88.2529
82.2699
77.045
72.4404
68.3555
64.7034
61.4232
58.4563
596.716
413.661
313.349
251.062
208.968
178.749
156.057
138.419
124.329
112.821
103.251
95.1675
88.2531
82.27
77.0451
72.4406
68.3556
64.7035
61.4233
58.4564
596.716
413.661
313.349
251.062
208.968
178.749
156.057
138.419
124.329
112.821
103.251
95.1676
88.2532
82.2701
77.0453
72.4407
68.3557
64.7037
61.4234
58.4565
596.716
413.661
313.349
251.062
208.968
178.749
156.057
138.419
124.329
112.821
103.251
95.1677
88.2532
82.2702
77.0453
72.4408
68.3558
64.7037
61.4235
58.4566
596.716
413.661
313.349
251.062
208.968
178.749
156.058
138.419
124.329
112.821
103.251
95.1677
88.2533
82.2702
77.0454
72.4408
68.3559
64.7037
61.4236
58.4565
596.716
413.661
313.349
251.062
208.968
178.749
156.058
138.419
124.329
112.821
103.251
95.1678
88.2533
82.2703
77.0454
72.4409
68.3559
64.7038
61.4235
58.4566
596.716
413.661
313.349
251.062
208.968
178.749
156.058
138.419
124.329
112.822
103.251
95.1678
88.2533
82.2703
77.0454
72.4409
68.3559
64.7038
61.4235
58.4566
596.716
413.661
313.349
251.062
208.968
178.749
156.058
138.419
124.329
112.822
103.251
95.1678
88.2533
82.2703
77.0454
72.4409
68.3558
64.7038
61.4235
58.4566
596.716
413.661
313.349
251.062
208.968
178.749
156.058
138.419
124.329
112.822
103.251
95.1678
88.2533
82.2703
77.0454
72.4409
68.3558
64.7038
61.4234
58.4565
596.716
413.661
313.349
251.062
208.968
178.749
156.058
138.419
124.329
112.821
103.251
95.1677
88.2533
82.2702
77.0454
72.4408
68.3558
64.7036
61.4234
58.4564
596.716
413.661
313.35
251.062
208.968
178.749
156.058
138.419
124.329
112.821
103.251
95.1677
88.2533
82.2702
77.0454
72.4407
68.3558
64.7035
61.4234
58.4563
596.716
413.661
313.35
251.062
208.968
178.749
156.058
138.419
124.329
112.821
103.251
95.1677
88.2532
82.2702
77.0452
72.4407
68.3556
64.7035
61.4232
58.4563
596.716
413.661
313.35
251.062
208.968
178.749
156.058
138.419
124.329
112.821
103.251
95.1676
88.2532
82.2701
77.0452
72.4406
68.3555
64.7035
61.4231
58.4562
596.716
413.661
313.35
251.062
208.968
178.749
156.058
138.419
124.329
112.821
103.251
95.1676
88.2531
82.2701
77.0451
72.4406
68.3555
64.7034
61.423
58.4561
596.716
413.661
313.35
251.062
208.968
178.749
156.058
138.419
124.329
112.821
103.251
95.1675
88.2531
82.27
77.0451
72.4404
68.3554
64.7032
61.423
58.4559
596.716
413.661
313.35
251.062
208.968
178.749
156.057
138.419
124.329
112.821
103.251
95.1675
88.253
82.2699
77.045
72.4404
68.3553
64.7032
61.4229
58.4558
596.716
413.661
313.35
251.062
208.968
178.749
156.058
138.419
124.329
112.821
103.251
95.1674
88.253
82.2698
77.045
72.4402
68.3554
64.7029
61.4229
58.4556
596.716
413.661
313.35
251.062
208.968
178.749
156.057
138.419
124.329
112.821
103.251
95.1673
88.253
82.2697
77.045
72.4401
68.3553
64.7029
61.4228
58.4555
596.716
413.661
313.35
251.062
208.968
178.749
156.057
138.419
124.329
112.821
103.251
95.1673
88.2529
82.2696
77.0449
72.44
68.3552
64.7028
61.4227
58.4554
596.716
413.661
313.35
251.062
208.968
178.749
156.057
138.419
124.329
112.821
103.251
95.1672
88.2529
82.2696
77.0449
72.4399
68.3552
64.7027
61.4226
58.4553
596.716
413.661
313.35
251.062
208.968
178.749
156.057
138.419
124.329
112.821
103.251
95.1673
88.2527
82.2696
77.0447
72.44
68.3549
64.7028
61.4224
58.4554
596.716
413.661
313.35
251.062
208.968
178.749
156.057
138.419
124.329
112.821
103.251
95.1671
88.2528
82.2695
77.0447
72.4398
68.355
64.7025
61.4225
58.4551
596.716
413.661
313.35
251.062
208.968
178.749
156.057
138.419
124.329
112.821
103.251
95.1671
88.2528
82.2694
77.0447
72.4398
68.3549
64.7025
61.4224
58.4551
596.716
413.661
313.35
251.062
208.968
178.749
156.057
138.419
124.329
112.821
103.251
95.1671
88.2527
82.2694
77.0446
72.4397
68.3549
64.7024
61.4223
58.455
596.716
413.661
313.35
251.063
208.968
178.749
156.057
138.419
124.329
112.821
103.251
95.1671
88.2527
82.2694
77.0446
72.4397
68.3548
64.7024
61.4222
58.4549
596.717
413.661
313.35
251.063
208.968
178.749
156.057
138.419
124.329
112.821
103.251
95.167
88.2526
82.2693
77.0445
72.4396
68.3547
64.7023
61.4222
58.4549
596.717
413.662
313.35
251.063
208.968
178.749
156.057
138.419
124.329
112.821
103.251
95.167
88.2526
82.2693
77.0445
72.4396
68.3547
64.7022
61.4221
58.4548
596.717
413.662
313.35
251.063
208.968
178.749
156.057
138.419
124.329
112.821
103.251
95.167
88.2526
82.2692
77.0444
72.4396
68.3546
64.7022
61.422
58.4547
596.717
413.662
313.35
251.063
208.968
178.749
156.057
138.419
124.329
112.821
103.25
95.1671
88.2525
82.2693
77.0443
72.4397
68.3545
64.7023
61.4218
58.4548
3488.32
3491.56
3262.13
3085.58
3020
2987.15
2974.8
2961
2949.35
2930.95
2914.19
2894.8
2878
2859.48
2844.48
2828
2815.27
2800.58
2789.47
2776.2
2766.37
2754.43
2745.79
2735
2727.28
2717.34
2710.35
2701.19
2694.88
2686.39
2680.71
2672.82
2667.63
2660.2
2655.42
2648.43
2644.05
2637.45
2633.43
2627.19
2623.5
2617.54
2614.12
2608.41
2605.25
2599.77
2596.85
2591.59
2588.9
2583.81
2581.33
2576.4
2574.09
2569.33
2567.18
2562.57
2560.57
2556.11
2554.25
2549.91
2548.17
2543.94
2542.32
2538.2
2536.7
2532.67
2531.28
2527.34
2526.06
2522.2
2521.01
2517.22
2516.12
2512.4
2511.39
2507.73
2506.82
2503.19
2502.41
2498.61
1174.63
1569.28
1692.26
1761.07
1717.83
1599.81
1503.98
1422.45
1363.03
1318.63
1287
1260.69
1240.67
1222.69
1208.8
1195.38
1184.56
1173.44
1164.58
1155.21
1147.88
1139.84
1133.7
1126.59
1121.26
1114.93
1110.3
1104.62
1100.56
1095.43
1091.84
1087.14
1083.91
1079.59
1076.71
1072.72
1070.14
1066.42
1064.1
1060.61
1058.49
1055.21
1053.29
1050.18
1048.46
1045.49
1043.94
1041.1
1039.7
1036.96
1035.71
1033.05
1031.95
1029.35
1028.4
1025.84
1025.03
1022.51
1021.83
1019.33
1018.78
1016.31
1015.87
1013.41
1013.1
1010.64
1010.44
1007.98
1007.9
1005.45
1005.37
1003.07
1002.93
1000.78
1000.63
998.564
998.412
996.432
996.237
994.415
256.167
540.941
762.582
964.921
1027.49
1000.98
917.458
865.271
825.361
790.61
764.621
743.242
726.833
712.761
701.746
691.497
683.146
674.999
668.437
661.744
656.478
650.866
646.546
641.621
637.907
633.571
630.39
626.537
623.782
620.339
617.938
614.784
612.635
609.749
607.848
605.197
603.508
601.055
599.553
597.258
595.895
593.736
592.509
590.474
589.373
587.446
586.462
584.631
583.738
581.986
581.176
579.498
578.768
577.157
576.501
574.95
574.361
572.861
572.332
570.875
570.403
568.985
568.569
567.185
566.824
565.47
565.161
563.829
563.57
562.262
562.021
560.77
560.539
559.341
559.128
557.966
557.767
556.65
556.46
555.332
81.1765
117.816
238.991
373.589
542.151
660.719
677.234
659.41
625.79
596.719
573.512
552.356
535.552
521.272
509.515
498.764
490.187
482.223
475.714
469.354
464.266
459.042
454.881
450.374
446.888
443.009
440.071
436.67
434.162
431.156
428.99
426.248
424.338
421.85
420.182
417.914
416.447
414.362
413.07
411.126
409.963
408.143
407.103
405.4
404.474
402.874
402.049
400.539
399.788
398.356
397.671
396.314
395.691
394.404
393.835
392.614
392.093
390.928
390.446
389.331
388.887
387.817
387.41
386.383
386.01
385.023
384.682
383.726
383.415
382.488
382.198
381.307
381.037
380.178
379.93
379.098
378.868
378.064
377.867
376.99
55.7042
52.4093
83.8713
100.852
182.127
273.963
406.24
485.345
502.874
496.761
479.188
460.365
445.077
430.642
417.874
406.36
396.948
388.169
380.88
374.007
368.368
362.741
358.116
353.451
349.735
345.803
342.701
339.299
336.686
333.705
331.448
328.769
326.816
324.421
322.729
320.562
319.083
317.105
315.808
313.973
312.818
311.114
310.09
308.507
307.599
306.122
305.314
303.927
303.193
301.886
301.221
299.99
299.385
298.226
297.675
296.582
296.077
295.041
294.572
293.587
293.153
292.217
291.814
290.925
290.552
289.705
289.358
288.547
288.222
287.444
287.14
286.393
286.11
285.393
285.131
284.439
284.197
283.526
283.323
282.559
55.8782
51.6022
51.4052
52.1093
63.5545
73.8995
139.87
215.809
315.946
378.784
398.39
396.727
388.391
376.462
365.499
355.229
345.697
336.349
328.495
321.115
314.8
308.596
303.371
298.291
294.1
289.809
286.322
282.654
279.743
276.54
274.042
271.254
269.134
266.673
264.841
262.63
261.032
259.03
257.628
255.793
254.557
252.871
251.781
250.226
249.261
247.819
246.96
245.611
244.836
243.574
242.875
241.693
241.061
239.952
239.38
238.337
237.815
236.829
236.347
235.414
234.97
234.086
233.677
232.84
232.461
231.669
231.316
230.561
230.23
229.509
229.199
228.512
228.222
227.565
227.296
226.664
226.415
225.804
225.59
224.891
55.7204
53.1053
50.4388
48.5367
46.5647
46.2926
52.5906
60.7262
110.502
167.83
247.601
301.35
324.636
327.582
324.573
317.829
310.064
302.465
295.559
288.475
281.984
275.655
270.175
264.811
260.153
255.478
251.589
247.598
244.323
240.814
237.995
234.971
232.594
229.934
227.874
225.499
223.708
221.576
220.012
218.096
216.73
214.989
213.789
212.196
211.131
209.661
208.71
207.345
206.495
205.228
204.467
203.287
202.6
201.497
200.878
199.844
199.279
198.304
197.788
196.868
196.396
195.528
195.096
194.275
193.878
193.101
192.732
191.994
191.65
190.948
190.627
189.96
189.661
189.025
188.747
188.138
187.881
187.294
187.066
186.397
55.5333
53.4476
50.702
49.0426
46.5199
45.1268
42.8743
42.1971
46.0286
51.4938
85.2315
127.203
189.225
238.175
265.748
275.929
275.552
273.107
268.07
262.544
257.385
252.237
247.324
242.273
237.591
232.938
228.922
224.796
221.252
217.544
214.476
211.219
208.578
205.677
203.37
200.79
198.784
196.478
194.713
192.643
191.107
189.241
187.894
186.194
184.995
183.435
182.363
180.937
179.991
178.678
177.832
176.615
175.854
174.721
174.035
172.976
172.353
171.359
170.794
169.861
169.348
168.471
168.003
167.174
166.746
165.961
165.566
164.822
164.457
163.751
163.414
162.743
162.43
161.793
161.503
160.895
160.625
160.041
159.798
159.135
55.5756
53.3827
50.8524
49.0585
46.8352
45.3845
43.2206
41.935
40.3259
38.136
40.9703
43.3921
64.9824
91.1961
136.668
182.71
214.18
231.345
236.681
236.267
234.243
230.807
226.954
223.111
219.446
215.605
212.004
208.19
204.736
201.169
198.127
194.831
192.059
189.023
186.567
183.85
181.68
179.225
177.28
175.049
173.342
171.328
169.824
167.988
166.644
164.965
163.765
162.234
161.174
159.768
158.82
157.522
156.671
155.469
154.701
153.582
152.889
151.85
151.226
150.255
149.69
148.779
148.265
147.406
146.937
146.124
145.696
144.927
144.535
143.808
143.447
142.758
142.425
141.77
141.463
140.839
140.554
139.956
139.697
139.021
55.6831
53.2668
51.01
48.928
47.0582
45.253
43.6339
42.0494
40.5926
39.0291
37.8693
35.9993
36.8317
37.3199
49.2698
62.7405
93.7635
130.489
165.149
188.776
200.968
205.575
205.325
204.064
201.805
198.895
196.128
193.204
190.493
187.562
184.936
181.953
179.366
176.492
174.135
171.461
169.273
166.774
164.765
162.465
160.661
158.548
156.923
154.974
153.514
151.732
150.423
148.781
147.607
146.092
145.039
143.643
142.698
141.408
140.553
139.353
138.581
137.467
136.775
135.738
135.113
134.14
133.572
132.657
132.139
131.278
130.81
129.999
129.575
128.808
128.421
127.694
127.339
126.65
126.322
125.667
125.363
124.739
124.461
123.757
55.7349
53.2251
51.0448
48.9007
47.0889
45.2257
43.6964
42.0632
40.741
39.286
38.1162
36.7443
35.764
34.3354
33.6734
33.0872
38.4673
44.0299
60.429
86.377
116.832
144.646
164.413
175.201
180.017
180.342
179.676
178.06
176.256
173.967
171.976
169.662
167.682
165.341
163.381
161.006
159.05
156.73
154.879
152.696
150.946
148.857
147.216
145.247
143.754
141.928
140.567
138.856
137.605
136.01
134.879
133.402
132.379
131.007
130.078
128.796
127.953
126.756
125.997
124.88
124.193
123.145
122.522
121.537
120.971
120.043
119.534
118.658
118.199
117.37
116.954
116.169
115.789
115.046
114.695
113.993
113.667
113.004
112.705
111.961
55.7284
53.2434
51.0239
48.9325
47.052
45.2722
43.6518
42.1218
40.7089
39.3709
38.1356
36.9556
35.8401
34.7981
33.6474
32.6646
31.8867
30.6855
32.2878
33.623
41.6139
52.4916
74.2637
99.1389
122.843
141.179
152.376
157.769
159.624
159.351
158.549
157.026
155.701
153.917
152.448
150.579
149.128
147.244
145.768
143.892
142.384
140.502
139.027
137.207
135.828
134.071
132.76
131.07
129.83
128.233
127.09
125.584
124.529
123.107
122.135
120.798
119.911
118.652
117.843
116.659
115.921
114.804
114.134
113.081
112.477
111.478
110.932
109.984
109.491
108.591
108.146
107.293
106.888
106.081
105.706
104.947
104.598
103.881
103.561
102.762
55.7173
53.2576
51.014
48.9446
47.0459
45.2788
43.6502
42.1233
40.7129
39.3746
38.1476
36.9623
35.882
34.8289
33.8547
32.8939
32.0079
31.1088
30.3541
29.502
29.001
28.7234
31.6489
34.9545
44.5373
59.7517
80.3462
100.735
118.306
130.804
137.937
141.175
142.047
141.76
141.068
139.804
138.808
137.413
136.289
134.802
133.69
132.197
131.065
129.543
128.412
126.858
125.73
124.195
123.101
121.622
120.571
119.125
118.118
116.717
115.773
114.439
113.562
112.287
111.469
110.249
109.492
108.33
107.64
106.534
105.909
104.853
104.284
103.272
102.755
101.792
101.324
100.409
99.9804
99.1161
98.7172
97.9007
97.5303
96.7587
96.4153
95.5568
55.7237
53.2512
51.023
48.9356
47.0572
45.2669
43.6646
42.1081
40.7301
39.3594
38.1667
36.9464
35.9071
34.8107
33.9002
32.9026
32.1033
31.1894
30.4781
29.6217
28.9575
28.1448
27.6746
26.8581
27.0993
27.4259
31.1163
35.8499
46.574
61.3665
78.9639
95.5323
109.108
118.615
123.944
126.484
127.116
126.936
126.414
125.41
124.637
123.518
122.703
121.472
120.638
119.408
118.581
117.32
116.481
115.214
114.352
113.066
112.211
110.936
110.117
108.874
108.083
106.862
106.1
104.905
104.187
103.032
102.368
101.251
100.636
99.5543
98.9862
97.9407
97.4201
96.4172
95.9396
94.9828
94.5371
93.6302
93.2132
92.3527
91.9635
91.1501
90.785
89.8741
55.7275
53.2507
51.0255
48.9364
47.0579
45.2692
43.6631
42.1125
40.7253
39.3666
38.1584
36.9564
35.8957
34.8242
33.8866
32.9241
32.0897
31.2189
30.4743
29.6793
29.0066
28.2826
27.6557
27.004
26.4061
25.8028
25.4126
24.7528
25.5748
26.2147
29.7665
34.9333
45.0652
58.0361
72.7852
86.6783
98.0151
106.134
110.982
113.435
114.299
114.198
113.948
113.152
112.582
111.653
111.053
110.076
109.449
108.419
107.804
106.77
106.151
105.086
104.466
103.383
102.748
101.656
101.026
99.938
99.3338
98.2596
97.6779
96.6112
96.053
95.0021
94.4744
93.4504
92.9556
91.9635
91.4934
90.5383
90.0907
89.1728
88.7502
87.8742
87.4758
86.6428
86.2644
85.3212
55.7226
53.2602
51.0174
48.9487
47.0464
45.2844
43.6483
42.1311
40.7071
39.3885
38.1368
36.9812
35.8719
34.8511
33.8603
32.954
32.0611
31.2541
30.4428
29.7215
28.9779
28.334
27.6442
27.0693
26.4261
25.9026
25.3007
24.8299
24.2671
23.8764
23.4268
23.2682
23.6907
24.405
27.4999
32.0349
40.854
51.4308
63.9049
75.7974
86.0931
93.7629
98.775
101.647
102.973
103.183
103.067
102.65
102.222
101.436
100.978
100.172
99.737
98.8629
98.4181
97.5305
97.0928
96.2055
95.7544
94.8448
94.3913
93.4662
93.003
92.063
91.601
90.6622
90.2115
89.2894
88.8478
87.936
87.502
86.6031
86.1813
85.3053
84.9008
84.0553
83.6666
82.85
82.4734
81.5351
55.7181
53.2677
51.013
48.9559
47.0424
45.291
43.6448
42.1368
40.7043
39.3936
38.1346
36.9857
35.8697
34.8555
33.8584
32.9578
32.06
31.2564
30.4428
29.7221
28.9805
28.3315
27.6517
27.0648
26.4396
25.9055
25.3283
24.8408
24.3045
23.8574
23.3626
22.9542
22.502
22.1484
21.7918
21.6256
21.7125
22.8444
24.6807
28.1559
34.929
43.2516
53.5114
63.8756
73.3884
81.2986
86.8248
90.497
92.5024
93.401
93.5307
93.376
93.1261
92.5436
92.21
91.5144
91.1765
90.4807
90.1416
89.4134
89.069
88.3331
87.9959
87.2576
86.9103
86.1499
85.8007
85.0302
84.6733
83.8882
83.5284
82.7403
82.3827
81.6067
81.2531
80.4886
80.137
79.3814
79.0323
78.1464
55.72
53.268
51.0154
48.9551
47.0455
45.289
43.6489
42.1335
40.7097
39.3886
38.1415
36.9791
35.8783
34.8469
33.8691
32.9466
32.0736
31.2422
30.4594
29.705
29.0003
28.3118
27.6748
27.0433
26.4657
25.8829
25.3589
24.817
24.3417
23.835
23.4022
22.9263
22.5345
22.082
21.7324
21.3024
20.9966
20.62
20.3463
20.0796
20.0667
20.8697
21.8938
24.3618
28.7932
34.5337
42.8417
51.3684
60.2304
68.0938
74.5579
79.1878
82.2579
83.9822
84.8987
85.027
84.9666
84.6862
84.4528
83.9163
83.6421
83.0491
82.7911
82.188
81.9353
81.3139
81.0586
80.4301
80.1799
79.5548
79.2971
78.6593
78.3927
77.7534
77.474
76.8268
76.537
75.8854
75.5967
74.8054
55.7265
53.2639
51.0232
48.9496
47.0545
45.2821
43.6592
42.1253
40.7211
39.3793
38.1539
36.9687
35.8918
34.8355
33.8834
32.9344
32.0885
31.2294
30.4748
29.6917
29.0161
28.2979
27.6911
27.0285
26.4826
25.8674
25.3759
24.8013
24.3588
23.819
23.4207
22.911
22.5531
22.0687
21.7482
21.2852
20.9994
20.5552
20.3001
19.8711
19.6447
19.2458
19.0736
18.7492
18.7193
18.816
19.4913
20.447
23.461
26.7555
32.7531
39.2099
46.914
54.2612
61.1832
66.9387
71.3003
74.2187
76.1664
77.0787
77.567
77.5141
77.4533
77.0864
76.9234
76.4514
76.2474
75.7374
75.5291
75.0275
74.8252
74.3183
74.1062
73.5952
73.3807
72.8797
72.6562
72.1485
71.9383
71.2685
55.7284
53.2652
51.0243
48.9512
47.0548
45.2843
43.6586
42.1282
40.7196
39.383
38.1512
36.9736
35.8877
34.8418
33.8777
32.9425
32.0808
31.2395
30.4649
29.7041
29.0039
28.3128
27.6764
27.0463
26.4648
25.8885
25.3547
24.8262
24.3337
23.8482
23.3912
22.945
22.5185
22.1084
21.7078
21.3315
20.9529
20.6079
20.2477
19.9323
19.5866
19.2995
18.9669
18.708
18.3897
18.1579
17.8659
17.681
17.4533
17.43
17.6223
17.9382
19.303
20.9223
24.6613
28.4955
34.5527
40.4552
47.2395
53.1127
58.8408
62.985
66.4883
68.4219
70.0054
70.5487
70.9431
70.8763
70.798
70.5226
70.3706
69.9889
69.8104
69.3903
69.1995
68.7905
68.5969
68.198
68.0428
67.4667
55.729
53.2687
51.0245
48.9549
47.0547
45.2881
43.6583
42.1322
40.719
39.3873
38.1506
36.978
35.887
34.8464
33.8771
32.947
32.0806
31.2439
30.4651
29.7081
29.0048
28.316
27.6782
27.0484
26.468
25.8893
25.3594
24.8252
24.3403
23.845
23.4003
22.9391
22.5306
22.0991
21.7237
21.3182
20.9733
20.5899
20.2737
19.9092
19.6199
19.2713
19.0077
18.6723
18.4326
18.109
17.892
17.5792
17.3842
17.082
16.9111
16.6273
16.4946
16.2713
16.2308
16.2859
16.6593
17.189
18.9125
20.7361
24.4277
28.3411
33.7681
38.9392
44.7687
49.6628
54.494
57.9606
60.957
62.6347
64.0708
64.5633
65.0076
64.966
64.945
64.712
64.5845
64.2849
64.1686
63.6754
55.7301
53.2703
51.0257
48.9562
47.056
45.2892
43.6598
42.133
40.7208
39.3878
38.1528
36.9782