/*--------------------------------*- C++ -*----------------------------------*\
| =========                 |                                                 |
| \\      /  F ield         | OpenFOAM: The Open Source CFD Toolbox           |
|  \\    /   O peration     | Version:  v1912                                 |
|   \\  /    A nd           | Website:  www.openfoam.com                      |
|    \\/     M anipulation  |                                                 |
\*---------------------------------------------------------------------------*/
FoamFile
{
    version     2.0;
    format      ascii;
    class       volScalarField;
    location    "200";
    object      p;
}
// * * * * * * * * * * * * * * * * * * * * * * * * * * * * * * * * * * * * * //

dimensions      [0 2 -2 0 0 0 0];


internalField   nonuniform List<scalar> 
10000
(
0.00139402
0.00256353
0.0023078
0.00217476
0.00216653
0.00220388
0.00221671
0.00225506
0.00227685
0.00233509
0.00236934
0.00245259
0.00250369
0.0026267
0.00270514
0.0029032
0.00303632
0.00342921
0.00373721
0.00505933
0.00140997
0.00254716
0.00230555
0.00217415
0.00216618
0.00220373
0.00221656
0.00225504
0.00227673
0.00233514
0.00236919
0.00245271
0.00250347
0.00262693
0.00270478
0.00290362
0.00303568
0.00342972
0.00373693
0.00503696
0.00143109
0.00252499
0.00230463
0.00217438
0.00216646
0.00220378
0.00221679
0.00225498
0.00227696
0.00233498
0.00236948
0.00245241
0.00250387
0.00262643
0.00270538
0.00290275
0.00303672
0.00342763
0.00373994
0.00499218
0.00145369
0.00250297
0.00230432
0.00217484
0.00216634
0.00220387
0.00221658
0.0022551
0.00227669
0.00233516
0.00236914
0.00245269
0.00250343
0.00262679
0.00270481
0.00290316
0.00303601
0.00342741
0.00373919
0.0049442
0.00147717
0.00248041
0.00230364
0.00217476
0.0021663
0.00220361
0.0022167
0.00225488
0.00227689
0.00233491
0.00236939
0.00245238
0.00250371
0.00262641
0.00270508
0.00290267
0.00303615
0.00342621
0.00373745
0.00489724
0.00150123
0.0024575
0.00230245
0.00217507
0.00216613
0.00220373
0.00221659
0.00225502
0.00227674
0.00233502
0.00236923
0.00245244
0.00250356
0.00262635
0.002705
0.00290227
0.00303628
0.00342417
0.003736
0.00484908
0.00152601
0.002434
0.00230123
0.00217525
0.00216613
0.00220355
0.00221664
0.00225486
0.00227678
0.00233486
0.00236925
0.00245228
0.00250355
0.00262616
0.00270492
0.00290186
0.00303622
0.00342183
0.00373421
0.00479926
0.00155134
0.00241029
0.00229956
0.00217561
0.00216596
0.00220349
0.00221656
0.00225484
0.00227673
0.00233481
0.00236922
0.00245215
0.00250353
0.0026259
0.00270489
0.00290125
0.00303618
0.003419
0.0037318
0.0047482
0.00157726
0.00238625
0.00229765
0.00217592
0.00216585
0.00220335
0.00221654
0.00225476
0.0022767
0.0023347
0.00236918
0.00245199
0.00250347
0.00262559
0.00270483
0.00290048
0.00303614
0.00341553
0.00372885
0.00469599
0.00160355
0.00236217
0.00229536
0.00217632
0.00216569
0.00220321
0.00221649
0.00225466
0.00227666
0.00233456
0.00236913
0.00245179
0.00250342
0.00262523
0.00270474
0.00289958
0.00303605
0.00341143
0.0037253
0.00464267
0.00163017
0.00233806
0.00229273
0.00217676
0.00216552
0.00220303
0.00221644
0.00225455
0.00227661
0.00233441
0.00236908
0.00245154
0.00250335
0.00262477
0.00270464
0.00289849
0.00303589
0.00340664
0.00372106
0.00458829
0.00165704
0.00231406
0.00228972
0.00217722
0.00216533
0.00220281
0.00221637
0.00225441
0.00227655
0.00233422
0.00236901
0.00245125
0.00250326
0.00262423
0.00270452
0.0028972
0.00303567
0.00340113
0.00371604
0.00453294
0.00168405
0.00229029
0.00228631
0.00217772
0.00216512
0.00220256
0.00221629
0.00225425
0.00227648
0.00233399
0.00236893
0.0024509
0.00250316
0.00262359
0.00270437
0.00289568
0.00303536
0.00339484
0.00371017
0.00447671
0.00171104
0.00226692
0.0022825
0.00217824
0.0021649
0.00220227
0.00221619
0.00225406
0.00227639
0.00233373
0.00236884
0.00245049
0.00250304
0.00262284
0.00270418
0.00289391
0.00303493
0.00338772
0.00370335
0.00441969
0.00173785
0.00224412
0.00227829
0.00217877
0.00216467
0.00220193
0.00221608
0.00225383
0.00227629
0.00233342
0.00236873
0.00245002
0.00250289
0.00262197
0.00270395
0.00289186
0.00303435
0.00337973
0.00369549
0.00436199
0.0017643
0.00222208
0.00227367
0.00217929
0.00216443
0.00220154
0.00221594
0.00225357
0.00227617
0.00233306
0.0023686
0.00244946
0.00250272
0.00262096
0.00270366
0.0028895
0.00303359
0.00337083
0.00368649
0.00430371
0.00179023
0.00220097
0.00226864
0.0021798
0.00216418
0.0022011
0.00221579
0.00225327
0.00227604
0.00233265
0.00236844
0.00244882
0.00250251
0.00261979
0.00270332
0.00288681
0.00303261
0.00336097
0.00367625
0.00424498
0.00181541
0.002181
0.00226322
0.00218026
0.00216392
0.0022006
0.0022156
0.00225293
0.00227588
0.00233217
0.00236826
0.00244808
0.00250226
0.00261845
0.00270289
0.00288374
0.00303136
0.00335013
0.00366465
0.0041859
0.0018396
0.00216243
0.00225743
0.00218066
0.00216366
0.00220003
0.00221539
0.00225252
0.0022757
0.00233161
0.00236805
0.00244723
0.00250197
0.00261692
0.00270238
0.00288028
0.00302979
0.00333827
0.00365161
0.00412658
0.00186245
0.00214557
0.00225129
0.00218097
0.0021634
0.0021994
0.00221514
0.00225207
0.00227549
0.00233098
0.00236781
0.00244626
0.00250162
0.00261518
0.00270175
0.00287639
0.00302784
0.00332536
0.00363699
0.00406716
0.00188359
0.00213083
0.00224482
0.00218116
0.00216314
0.00219869
0.00221485
0.00225154
0.00227524
0.00233026
0.00236752
0.00244516
0.0025012
0.00261321
0.00270099
0.00287204
0.00302545
0.00331139
0.00362071
0.00400774
0.00190237
0.00211881
0.00223811
0.0021812
0.00216288
0.0021979
0.00221452
0.00225094
0.00227496
0.00232944
0.00236718
0.00244391
0.00250071
0.00261099
0.00270006
0.00286719
0.00302255
0.00329634
0.00360267
0.00394843
0.00191806
0.00210993
0.00223134
0.0021811
0.00216263
0.00219704
0.00221414
0.00225026
0.00227464
0.00232851
0.00236678
0.00244249
0.00250013
0.0026085
0.00269895
0.0028618
0.00301905
0.00328019
0.00358277
0.00388931
0.00193109
0.00210375
0.00222448
0.00218082
0.00216238
0.00219608
0.0022137
0.00224949
0.00227426
0.00232746
0.00236632
0.0024409
0.00249943
0.0026057
0.00269759
0.00285587
0.00301487
0.00326296
0.00356091
0.00383052
0.00194268
0.00209922
0.00221745
0.00218029
0.00216212
0.00219502
0.00221319
0.00224861
0.00227382
0.00232628
0.00236578
0.0024391
0.00249861
0.00260259
0.00269597
0.00284934
0.00300991
0.00324466
0.00353702
0.00377214
0.00195367
0.00209551
0.00221026
0.00217953
0.00216184
0.00219386
0.00221262
0.00224763
0.00227332
0.00232494
0.00236514
0.0024371
0.00249764
0.00259914
0.00269403
0.0028422
0.00300407
0.00322528
0.00351103
0.00371425
0.00196431
0.00209227
0.00220299
0.00217851
0.00216155
0.0021926
0.00221195
0.00224651
0.00227274
0.00232345
0.0023644
0.00243486
0.00249649
0.00259532
0.00269171
0.00283442
0.00299725
0.00320484
0.00348293
0.00365686
0.00197463
0.00208943
0.0021957
0.00217723
0.00216122
0.00219123
0.0022112
0.00224526
0.00227206
0.00232178
0.00236353
0.00243238
0.00249512
0.0025911
0.00268895
0.00282597
0.00298934
0.00318336
0.00345267
0.00360002
0.00198458
0.00208698
0.00218844
0.00217567
0.00216085
0.00218973
0.00221035
0.00224386
0.00227129
0.00231992
0.00236251
0.00242962
0.00249351
0.00258647
0.0026857
0.00281682
0.00298025
0.00316085
0.00342028
0.00354373
0.00199411
0.00208492
0.00218125
0.00217381
0.00216041
0.00218811
0.00220938
0.0022423
0.00227039
0.00231784
0.00236132
0.00242657
0.00249161
0.00258139
0.00268186
0.00280696
0.00296986
0.00313733
0.00338576
0.003488
0.00200317
0.00208324
0.00217417
0.00217164
0.00215988
0.00218635
0.00220828
0.00224054
0.00226936
0.00231555
0.00235994
0.0024232
0.00248938
0.00257585
0.00267738
0.00279635
0.00295808
0.00311282
0.00334919
0.00343281
0.0020117
0.0020819
0.00216724
0.00216916
0.00215926
0.00218445
0.00220705
0.0022386
0.00226816
0.002313
0.00235831
0.00241951
0.00248675
0.00256982
0.00267215
0.00278499
0.00294481
0.00308733
0.00331064
0.00337812
0.00201966
0.0020809
0.0021605
0.00216636
0.0021585
0.0021824
0.00220564
0.00223643
0.00226678
0.0023102
0.00235642
0.00241545
0.00248369
0.00256328
0.0026661
0.00277284
0.00292997
0.00306087
0.00327022
0.00332388
0.00202701
0.00208017
0.00215398
0.00216326
0.00215758
0.00218019
0.00220407
0.00223404
0.00226518
0.00230711
0.00235422
0.00241102
0.00248013
0.00255619
0.00265914
0.00275987
0.00291348
0.00303345
0.00322807
0.00327004
0.00203372
0.00207968
0.00214772
0.00215985
0.00215649
0.00217779
0.00220229
0.00223139
0.00226334
0.00230372
0.00235167
0.0024062
0.00247599
0.00254854
0.00265118
0.00274608
0.00289531
0.00300506
0.00318435
0.00321654
0.00203976
0.00207936
0.00214173
0.00215614
0.00215517
0.00217521
0.00220029
0.00222848
0.00226121
0.00230001
0.0023487
0.00240094
0.00247121
0.00254029
0.00264213
0.00273141
0.00287541
0.0029757
0.00313924
0.00316331
0.0020451
0.00207915
0.00213602
0.00215214
0.00215361
0.00217242
0.00219803
0.00222527
0.00225876
0.00229596
0.00234528
0.00239524
0.00246572
0.00253142
0.00263192
0.00271584
0.00285377
0.00294535
0.00309294
0.0031103
0.00204974
0.00207898
0.0021306
0.00214788
0.00215177
0.00216942
0.0021955
0.00222176
0.00225594
0.00229154
0.00234134
0.00238906
0.00245943
0.00252187
0.00262047
0.00269932
0.00283041
0.00291401
0.00304565
0.00305747
0.00205366
0.00207877
0.00212543
0.00214336
0.00214961
0.00216616
0.00219266
0.00221792
0.0022527
0.00228672
0.00233682
0.00238236
0.00245229
0.00251162
0.00260772
0.00268181
0.00280536
0.00288164
0.00299759
0.00300477
0.00205686
0.00207844
0.0021205
0.0021386
0.00214711
0.00216264
0.00218947
0.00221372
0.002249
0.00228149
0.00233166
0.00237512
0.00244422
0.00250061
0.00259362
0.00266325
0.00277868
0.00284823
0.00294896
0.00295219
0.00205932
0.00207792
0.00211577
0.00213361
0.00214421
0.00215883
0.00218589
0.00220914
0.00224478
0.00227581
0.00232579
0.00236729
0.00243515
0.00248879
0.00257813
0.0026436
0.00275043
0.00281377
0.00289996
0.00289974
0.00206106
0.00207714
0.00211117
0.00212841
0.00214089
0.0021547
0.00218188
0.00220417
0.00223997
0.00226963
0.00231915
0.00235883
0.00242501
0.0024761
0.00256123
0.00262278
0.00272072
0.00277826
0.00285078
0.00284744
0.00206206
0.00207601
0.00210665
0.002123
0.00213711
0.00215021
0.0021774
0.00219875
0.00223453
0.00226293
0.00231168
0.00234968
0.00241377
0.00246247
0.00254292
0.00260076
0.00268965
0.0027417
0.00280156
0.00279534
0.00206232
0.00207447
0.00210211
0.00211738
0.00213283
0.00214535
0.00217239
0.00219287
0.00222839
0.00225565
0.00230332
0.00233977
0.00240136
0.00244783
0.0025232
0.00257748
0.00265733
0.00270413
0.00275245
0.00274348
0.00206183
0.00207247
0.00209747
0.00211153
0.00212802
0.00214005
0.0021668
0.00218647
0.00222151
0.00224774
0.00229401
0.00232904
0.00238777
0.0024321
0.0025021
0.00255289
0.00262387
0.00266559
0.00270356
0.00269196
0.00206057
0.00206993
0.00209264
0.00210544
0.00212263
0.00213428
0.00216058
0.00217952
0.00221382
0.00223913
0.00228371
0.00231742
0.00237296
0.00241522
0.00247964
0.00252697
0.00258939
0.00262614
0.00265496
0.00264084
0.00205853
0.00206681
0.00208751
0.00209907
0.00211664
0.002128
0.00215367
0.00217196
0.00220527
0.00222977
0.00227237
0.00230483
0.00235691
0.00239711
0.00245588
0.00249972
0.00255399
0.00258586
0.0026067
0.0025902
0.00205568
0.00206306
0.00208198
0.00209236
0.00211
0.00212114
0.00214603
0.00216374
0.00219582
0.00221957
0.00225996
0.00229119
0.00233962
0.00237772
0.00243084
0.00247112
0.00251777
0.00254486
0.00255883
0.00254012
0.00205199
0.00205862
0.00207595
0.00208526
0.00210267
0.00211365
0.00213759
0.00215478
0.00218542
0.00220846
0.00224644
0.00227642
0.00232109
0.00235699
0.00240458
0.00244123
0.00248081
0.00250323
0.00251136
0.00249066
0.00204742
0.00205344
0.00206933
0.0020777
0.00209461
0.00210546
0.00212831
0.00214501
0.00217402
0.00219635
0.00223177
0.00226045
0.00230131
0.00233489
0.00237714
0.00241007
0.00244319
0.00246111
0.00246429
0.00244187
0.00204192
0.00204747
0.00206201
0.00206958
0.00208577
0.0020965
0.00211812
0.00213435
0.00216159
0.00218318
0.00221595
0.00224321
0.00228028
0.00231141
0.00234856
0.00237771
0.00240498
0.00241858
0.00241762
0.00239376
0.00203546
0.00204063
0.00205391
0.00206083
0.0020761
0.00208669
0.00210699
0.00212273
0.00214808
0.00216885
0.00219893
0.00222465
0.002258
0.00228654
0.00231888
0.00234424
0.00236623
0.00237578
0.00237134
0.00234635
0.00202797
0.00203287
0.00204494
0.00205132
0.00206554
0.00207596
0.00209486
0.00211006
0.00213346
0.00215329
0.00218069
0.00220473
0.00223449
0.0022603
0.00228815
0.00230975
0.00232698
0.00233279
0.00232546
0.00229964
0.00201941
0.00202411
0.00203503
0.00204096
0.00205405
0.00206423
0.00208167
0.00209625
0.00211768
0.00213646
0.00216122
0.00218342
0.00220973
0.00223273
0.00225639
0.00227431
0.00228731
0.00228969
0.00227996
0.00225359
0.0020097
0.00201428
0.00202409
0.00202963
0.00204154
0.0020514
0.00206736
0.00208124
0.00210071
0.00211828
0.00214047
0.00216071
0.00218374
0.00220388
0.00222365
0.00223804
0.00224724
0.00224657
0.00223484
0.00220818
0.00199879
0.00200328
0.00201205
0.00201723
0.00202796
0.00203739
0.00205189
0.00206496
0.00208249
0.00209873
0.00211843
0.0021366
0.00215651
0.00217379
0.00218997
0.00220101
0.00220683
0.00220346
0.00219009
0.00216337
0.00198662
0.00199104
0.00199884
0.00200366
0.00201322
0.00202214
0.00203519
0.00204733
0.00206298
0.00207776
0.00209508
0.00211111
0.00212807
0.00214252
0.00215539
0.00216332
0.00216613
0.00216041
0.00214569
0.00211909
0.0019731
0.00197748
0.00198436
0.00198882
0.00199725
0.00200556
0.0020172
0.0020283
0.00204214
0.00205537
0.00207039
0.00208424
0.00209843
0.00211014
0.00211996
0.00212502
0.00212516
0.00211744
0.00210165
0.00207532
0.00195818
0.0019625
0.00196855
0.00197261
0.00197997
0.00198757
0.00199785
0.00200784
0.00201991
0.00203153
0.00204435
0.00205604
0.0020676
0.00207672
0.00208374
0.00208619
0.00208398
0.00207457
0.00205792
0.00203199
0.00194177
0.00194602
0.00195133
0.00195494
0.0019613
0.00196813
0.00197708
0.00198589
0.00199627
0.00200623
0.00201696
0.00202652
0.00203563
0.0020423
0.00204676
0.00204688
0.00204262
0.0020318
0.00201451
0.00198905
0.00192381
0.00192798
0.00193261
0.00193575
0.00194116
0.00194716
0.00195484
0.00196243
0.00197117
0.00197949
0.00198821
0.00199573
0.00200254
0.00200694
0.00200908
0.00200714
0.00200109
0.00198912
0.00197136
0.00194645
0.00190422
0.00190829
0.00191232
0.00191495
0.00191947
0.00192461
0.00193107
0.00193743
0.0019446
0.00195131
0.00195813
0.0019637
0.00196838
0.00197069
0.00197075
0.00196699
0.00195941
0.00194653
0.00192846
0.00190415
0.00188294
0.0018869
0.00189038
0.0018925
0.00189617
0.00190045
0.00190573
0.00191087
0.00191654
0.00192168
0.00192671
0.00193046
0.00193318
0.0019336
0.0019318
0.00192647
0.0019176
0.001904
0.00188576
0.00186208
0.00185991
0.00186375
0.00186673
0.00186833
0.00187121
0.00187462
0.00187879
0.00188273
0.00188698
0.00189064
0.00189399
0.00189605
0.00189698
0.00189571
0.00189227
0.0018856
0.00187566
0.00186151
0.00184323
0.00182021
0.00183508
0.00183878
0.00184131
0.00184239
0.00184453
0.00184711
0.00185021
0.00185301
0.00185593
0.00185818
0.00185999
0.0018605
0.00185982
0.00185705
0.00185219
0.00184438
0.00183357
0.00181903
0.00180081
0.00177847
0.00180839
0.00181197
0.00181407
0.00181467
0.0018161
0.00181788
0.00181998
0.00182171
0.00182338
0.00182434
0.00182473
0.00182385
0.00182173
0.00181765
0.00181158
0.00180283
0.00179133
0.00177654
0.00175846
0.00173682
0.00177982
0.00178326
0.00178499
0.00178511
0.0017859
0.00178692
0.0017881
0.00178882
0.00178935
0.00178913
0.00178825
0.00178613
0.00178274
0.00177755
0.00177044
0.00176093
0.00174891
0.001734
0.00171614
0.00169521
0.00174935
0.00175266
0.00175404
0.00175373
0.00175391
0.00175424
0.00175456
0.00175438
0.00175386
0.00175259
0.00175058
0.00174736
0.00174289
0.00173674
0.0017288
0.00171869
0.00170629
0.00169136
0.0016738
0.00165358
0.00171696
0.00172016
0.00172121
0.0017205
0.00172014
0.00171984
0.00171939
0.00171838
0.00171695
0.00171474
0.00171173
0.00170758
0.00170219
0.00169526
0.00168664
0.00167608
0.00166344
0.00164859
0.00163138
0.00161187
0.00168267
0.00168575
0.00168652
0.00168545
0.0016846
0.00168374
0.00168261
0.00168087
0.00167863
0.0016756
0.00167176
0.00166681
0.00166067
0.0016531
0.00164396
0.0016331
0.00162034
0.00160564
0.00158885
0.00157005
0.00164649
0.00164947
0.00164999
0.0016486
0.00164732
0.00164596
0.00164424
0.00164187
0.00163894
0.00163523
0.00163068
0.00162508
0.00161833
0.00161028
0.00160077
0.00158971
0.00157694
0.00156247
0.00154613
0.00152806
0.00160847
0.00161134
0.00161164
0.00160999
0.00160834
0.00160655
0.00160433
0.00160143
0.00159792
0.00159364
0.00158852
0.00158241
0.0015752
0.00156679
0.00155704
0.00154591
0.00153322
0.00151904
0.0015032
0.00148585
0.00156864
0.00157143
0.00157154
0.00156965
0.0015677
0.00156556
0.00156292
0.00155959
0.00155561
0.00155088
0.00154531
0.00153882
0.00153127
0.00152264
0.00151276
0.00150165
0.00148913
0.00147531
0.00145999
0.00144336
0.00152707
0.00152978
0.00152973
0.00152766
0.00152546
0.00152304
0.00152006
0.00151639
0.00151205
0.00150698
0.00150109
0.00149433
0.00148657
0.00147782
0.00146792
0.00145692
0.00144464
0.00143122
0.00141646
0.00140056
0.00148384
0.00148647
0.00148629
0.00148409
0.00148169
0.00147905
0.00147583
0.0014719
0.0014673
0.00146199
0.00145588
0.00144896
0.0014411
0.00143233
0.0014225
0.00141168
0.00139972
0.00138674
0.00137256
0.00135739
0.00143903
0.00144158
0.0014413
0.001439
0.00143647
0.00143367
0.00143027
0.00142617
0.00142139
0.00141594
0.00140972
0.00140273
0.00139486
0.00138616
0.00137648
0.00136593
0.00135433
0.00134183
0.00132826
0.00131381
0.00139272
0.0013952
0.00139484
0.00139249
0.00138986
0.00138697
0.00138346
0.00137926
0.0013744
0.00136889
0.00136263
0.00135567
0.00134787
0.00133932
0.00132987
0.00131963
0.00130844
0.00129646
0.0012835
0.00126978
0.00134501
0.00134743
0.00134702
0.00134464
0.00134197
0.00133904
0.00133547
0.00133124
0.00132636
0.00132087
0.00131466
0.00130779
0.00130014
0.0012918
0.00128264
0.00127277
0.00126203
0.00125059
0.00123827
0.00122527
0.00129601
0.00129837
0.00129793
0.00129555
0.00129288
0.00128994
0.00128637
0.00128218
0.00127734
0.00127193
0.00126583
0.00125912
0.00125168
0.00124362
0.00123479
0.00122532
0.00121507
0.00120419
0.00119251
0.00118023
0.00124582
0.00124812
0.00124767
0.00124532
0.00124267
0.00123977
0.00123625
0.00123213
0.00122739
0.00122211
0.00121619
0.00120969
0.00120252
0.00119477
0.00118632
0.00117729
0.00116754
0.00115724
0.00114621
0.00113465
0.00119453
0.00119677
0.00119632
0.00119403
0.00119143
0.0011886
0.00118518
0.00118117
0.00117658
0.00117148
0.00116576
0.00115953
0.00115266
0.00114527
0.00113722
0.00112866
0.00111944
0.00110972
0.00109934
0.00108849
0.00114226
0.00114444
0.001144
0.00114178
0.00113926
0.00113653
0.00113322
0.00112937
0.00112495
0.00112007
0.0011146
0.00110866
0.00110213
0.00109512
0.0010875
0.00107943
0.00107075
0.00106162
0.00105189
0.00104174
0.00108909
0.00109121
0.00109079
0.00108865
0.00108623
0.00108362
0.00108045
0.00107678
0.00107257
0.00106793
0.00106274
0.00105712
0.00105094
0.00104434
0.00103718
0.00102959
0.00102146
0.00101292
0.00100384
0.000994374
0.0010351
0.00103716
0.00103677
0.00103473
0.00103242
0.00102994
0.00102694
0.00102346
0.00101948
0.0010151
0.00101022
0.00100493
0.00099913
0.000992941
0.000986239
0.00097916
0.000971571
0.000963622
0.000955172
0.000946384
0.000980383
0.000982377
0.000982023
0.000980087
0.0009779
0.000975566
0.000972737
0.000969472
0.000965733
0.000961632
0.000957058
0.00095212
0.000946707
0.000940942
0.000934704
0.000928126
0.000921082
0.000913713
0.000905888
0.000897758
0.000925002
0.000926926
0.000926607
0.000924783
0.000922727
0.000920545
0.000917901
0.000914856
0.000911369
0.000907552
0.000903299
0.000898714
0.000893692
0.000888352
0.000882578
0.000876498
0.000869991
0.000863192
0.000855977
0.000848488
0.000869006
0.000870856
0.000870576
0.000868869
0.000866948
0.000864924
0.000862469
0.000859648
0.000856418
0.00085289
0.000848959
0.000844729
0.000840098
0.00083518
0.000829866
0.000824275
0.000818296
0.000812054
0.000805433
0.000798565
0.000812449
0.000814216
0.000813971
0.000812382
0.000810601
0.000808735
0.000806473
0.000803877
0.000800905
0.000797665
0.000794057
0.000790179
0.000785934
0.000781432
0.000776568
0.000771457
0.000765991
0.000760291
0.000754246
0.000747979
0.000755326
0.000757012
0.000756807
0.000755341
0.000753701
0.000751994
0.000749924
0.000747552
0.000744837
0.000741882
0.000738591
0.00073506
0.000731195
0.000727099
0.000722675
0.000718031
0.000713065
0.000707889
0.0007024
0.000696714
0.000697696
0.000699279
0.000699103
0.000697756
0.000696256
0.000694707
0.000692827
0.000690676
0.000688215
0.000685539
0.00068256
0.000679367
0.000675872
0.000672171
0.000668175
0.000663982
0.0006595
0.000654829
0.000649878
0.000644749
0.00063945
0.000640947
0.000640812
0.000639593
0.000638237
0.000636844
0.000635153
0.000633219
0.000631006
0.000628604
0.000625929
0.000623065
0.00061993
0.000616613
0.000613031
0.000609275
0.000605259
0.000601077
0.000596643
0.000592051
0.00058069
0.00058206
0.000581944
0.000580839
0.00057962
0.000578378
0.000576871
0.00057515
0.000573179
0.000571043
0.000568665
0.000566119
0.000563332
0.000560386
0.000557203
0.000553867
0.000550301
0.000546587
0.000542649
0.000538572
0.000521136
0.000522417
0.000522346
0.000521377
0.000520305
0.000519217
0.000517893
0.00051638
0.000514646
0.000512769
0.000510678
0.000508442
0.000505993
0.000503406
0.000500611
0.000497681
0.000494548
0.000491288
0.000487829
0.000484249
0.000460967
0.000462096
0.000462029
0.00046117
0.000460228
0.000459282
0.000458133
0.00045682
0.000455317
0.00045369
0.000451877
0.000449938
0.000447816
0.000445573
0.000443149
0.000440609
0.000437893
0.000435065
0.000432066
0.000428961
0.000399685
0.000400707
0.000400677
0.000399953
0.000399156
0.000398358
0.000397383
0.00039627
0.000394993
0.000393612
0.000392071
0.000390425
0.000388621
0.000386716
0.000384656
0.000382498
0.000380188
0.000377785
0.000375235
0.000372594
0.000337379
0.000338236
0.000338207
0.000337592
0.000336922
0.000336256
0.000335444
0.000334518
0.000333456
0.000332308
0.000331028
0.00032966
0.000328161
0.000326577
0.000324865
0.000323071
0.000321151
0.000319154
0.000317033
0.000314838
0.000273667
0.000274389
0.000274384
0.000273897
0.000273366
0.00027284
0.000272196
0.000271461
0.000270616
0.000269704
0.000268685
0.000267597
0.000266404
0.000265144
0.00026378
0.000262352
0.000260823
0.000259231
0.000257541
0.000255791
0.000208326
0.000208857
0.000208835
0.000208449
0.000208035
0.000207626
0.000207131
0.000206567
0.000205922
0.000205226
0.00020445
0.000203623
0.000202716
0.000201759
0.000200724
0.000199642
0.000198483
0.000197277
0.000195998
0.000194673
0.000140905
0.000141306
0.000141325
0.000141087
0.000140824
0.000140563
0.000140241
0.000139872
0.000139446
0.000138987
0.000138474
0.000137927
0.000137326
0.000136693
0.000136006
0.000135288
0.000134518
0.000133718
0.000132867
0.000131986
7.09034e-05
7.10369e-05
7.09807e-05
7.08083e-05
7.06327e-05
7.04637e-05
7.02701e-05
7.00576e-05
6.98212e-05
6.95702e-05
6.92945e-05
6.90029e-05
6.86861e-05
6.83535e-05
6.79958e-05
6.76226e-05
6.72247e-05
6.68119e-05
6.63748e-05
6.59234e-05
0.00550275
0.00313954
0.00201853
0.0017802
0.00175591
0.00170752
0.00166697
0.00162782
0.00156859
0.00149555
0.00142339
0.00135562
0.00128946
0.00122759
0.00117184
0.00112052
0.00107601
0.00103096
0.000990191
0.000951303
0.000914542
0.000879076
0.000847731
0.000816625
0.000786373
0.000757605
0.000731003
0.000703924
0.000678229
0.000654223
0.000631716
0.000608586
0.000586268
0.000565059
0.000544812
0.000524556
0.000504846
0.000486055
0.000468295
0.000450787
0.000433173
0.000416086
0.000399597
0.000383742
0.000367949
0.000352324
0.000337268
0.000322573
0.000308328
0.000294322
0.000280378
0.000266659
0.000253268
0.000240266
0.000227782
0.000215283
0.000203059
0.000190925
0.00017912
0.000167637
0.000156449
0.000145228
0.000134287
0.000123384
0.000112923
0.000102558
9.2827e-05
8.28576e-05
7.34653e-05
6.3669e-05
5.48749e-05
4.53838e-05
3.75762e-05
2.85962e-05
2.18955e-05
1.29551e-05
7.87453e-06
-7.97094e-07
-2.72792e-06
-1.05017e-05
0.00548007
0.00315917
0.00204734
0.00180733
0.00177603
0.00172203
0.00167725
0.00163565
0.00157478
0.00150072
0.00142801
0.00135985
0.00129337
0.00123122
0.0011752
0.00112363
0.0010789
0.00103366
0.000992712
0.000953669
0.000916764
0.000881167
0.000849698
0.000818483
0.000788131
0.000759277
0.000732592
0.000705438
0.000679672
0.000655602
0.000633031
0.000609844
0.000587473
0.000566218
0.000545926
0.000525628
0.000505878
0.00048705
0.000469255
0.000451712
0.000434067
0.00041695
0.000400436
0.000384554
0.000368739
0.000353088
0.000338013
0.000323293
0.000309031
0.000295002
0.000281045
0.000267304
0.000253902
0.000240879
0.000228386
0.000215867
0.000203634
0.000191481
0.000179669
0.000168168
0.000156975
0.000145736
0.000134791
0.000123871
0.000113408
0.000103026
9.32925e-05
8.33066e-05
7.39129e-05
6.41006e-05
5.53062e-05
4.58e-05
3.79924e-05
2.89987e-05
2.22972e-05
1.3344e-05
8.26302e-06
-4.1975e-07
-2.36595e-06
-1.01281e-05
0.00542902
0.00316713
0.00206842
0.00182977
0.00179675
0.00174006
0.00169146
0.00164607
0.00158293
0.00150765
0.00143421
0.00136548
0.00129859
0.00123606
0.0011797
0.00112785
0.00108284
0.00103734
0.000996162
0.000956919
0.000919825
0.000884054
0.000852426
0.000821065
0.000790577
0.000761609
0.000734812
0.000707558
0.000681695
0.00065754
0.000634881
0.000611617
0.000589172
0.000567854
0.0005475
0.000527144
0.000507339
0.00048846
0.000470616
0.000453025
0.000435337
0.000418178
0.000401629
0.000385708
0.000369862
0.000354175
0.000339072
0.000324319
0.000310033
0.000295973
0.000281995
0.000268224
0.000254805
0.000241755
0.000229246
0.0002167
0.000204455
0.000192276
0.000180453
0.000168928
0.000157726
0.000146463
0.000135511
0.000124568
0.000114099
0.000103694
9.39577e-05
8.39489e-05
7.45528e-05
6.47174e-05
5.59225e-05
4.63946e-05
3.85872e-05
2.95742e-05
2.28716e-05
1.39002e-05
8.8183e-06
1.19133e-07
-1.84753e-06
-9.59173e-06
0.00538397
0.00317605
0.00207895
0.00183645
0.00180332
0.00174976
0.00170225
0.00165398
0.00158987
0.0015137
0.00143932
0.00136996
0.00130282
0.0012401
0.00118357
0.00113153
0.00108629
0.00104059
0.000999235
0.000959831
0.00092259
0.000886674
0.000854927
0.000823443
0.000792838
0.000763772
0.00073688
0.000709539
0.000683589
0.00065936
0.000636625
0.000613293
0.000590778
0.000569406
0.000548994
0.000528587
0.00050873
0.000489806
0.000471917
0.000454284
0.000436553
0.000419357
0.000402773
0.000386818
0.000370942
0.000355222
0.000340093
0.000325308
0.000311
0.000296911
0.000282911
0.000269116
0.000255677
0.000242605
0.000230079
0.00021751
0.000205249
0.000193047
0.000181211
0.000169666
0.000158453
0.00014717
0.000136209
0.000125246
0.00011477
0.000104346
9.46034e-05
8.45749e-05
7.51744e-05
6.53181e-05
5.65211e-05
4.69736e-05
3.9165e-05
3.01349e-05
2.34298e-05
1.44421e-05
9.35711e-06
6.44049e-07
-1.34467e-06
-9.08619e-06
0.00533821
0.00318348
0.00209044
0.00184525
0.00180708
0.00175187
0.00170487
0.0016587
0.00159613
0.00151888
0.00144397
0.00137395
0.00130654
0.00124378
0.00118724
0.0011349
0.00108934
0.00104353
0.00100208
0.000962568
0.000925235
0.000889218
0.000857376
0.000825775
0.000795068
0.000765913
0.000738942
0.00071152
0.000685492
0.000661195
0.000638397
0.000614995
0.000592415
0.000570988
0.000550522
0.000530065
0.000510158
0.000491189
0.000473258
0.000455583
0.00043781
0.000420578
0.000403958
0.00038797
0.000372063
0.000356311
0.000341154
0.00032634
0.000312006
0.000297892
0.000283866
0.000270047
0.000256588
0.000243494
0.000230948
0.000218358
0.000206079
0.000193857
0.000182005
0.000170441
0.000159215
0.000147913
0.00013694
0.000125959
0.000115474
0.000105031
9.52806e-05
8.52339e-05
7.58267e-05
6.59509e-05
5.71494e-05
4.75835e-05
3.97714e-05
3.07257e-05
2.40158e-05
1.50131e-05
9.9221e-06
1.19778e-06
-8.19621e-07
-8.57584e-06
0.00528929
0.00319029
0.00210307
0.00185468
0.00181245
0.00175507
0.00170489
0.00165832
0.00159725
0.00152251
0.00144888
0.00137778
0.0013103
0.00124751
0.00119075
0.00113802
0.00109228
0.00104643
0.00100487
0.000965304
0.000927948
0.000891846
0.000859834
0.000828092
0.000797312
0.000768101
0.000741073
0.000713585
0.000687498
0.00066314
0.000640279
0.000616805
0.000594163
0.00057268
0.000552165
0.000531654
0.000511701
0.000492685
0.000474717
0.000456996
0.000439182
0.000421907
0.000405251
0.000389228
0.000373288
0.000357503
0.000342317
0.000327472
0.000313112
0.00029897
0.000284918
0.000271072
0.000257591
0.000244474
0.000231908
0.000219294
0.000206995
0.000194752
0.000182882
0.000171298
0.000160057
0.000148736
0.00013775
0.000126749
0.000116252
0.000105792
9.60307e-05
8.5966e-05
7.65493e-05
6.66546e-05
5.78456e-05
4.82618e-05
4.04437e-05
3.13825e-05
2.46657e-05
1.56481e-05
1.05484e-05
1.8138e-06
-2.39267e-07
-8.02291e-06
0.00523831
0.00319735
0.00211624
0.0018644
0.00181825
0.00175818
0.00170631
0.00165873
0.00159647
0.00152235
0.00144966
0.00138028
0.0013143
0.00125108
0.00119371
0.00114102
0.0010953
0.00104928
0.00100753
0.000967984
0.000930644
0.000894418
0.000862216
0.000830371
0.000799567
0.000770317
0.000743243
0.000715702
0.000689582
0.000665144
0.000642169
0.000618635
0.000595949
0.000574424
0.000553876
0.000533319
0.000513329
0.000494268
0.000476261
0.000458491
0.000440641
0.000423322
0.000406634
0.000390571
0.000374603
0.000358781
0.00034357
0.000328691
0.000314307
0.000300133
0.000286056
0.000272179
0.000258677
0.000245535
0.000232948
0.00022031
0.000207991
0.000195725
0.000183835
0.000172231
0.000160974
0.000149633
0.000138631
0.000127611
0.0001171
0.000106621
9.6849e-05
8.67661e-05
7.73376e-05
6.74247e-05
5.86055e-05
4.90044e-05
4.11779e-05
3.21019e-05
2.53758e-05
1.63436e-05
1.12325e-05
2.48822e-06
3.93737e-07
-7.42942e-06
0.00518551
0.00320415
0.00212968
0.00187445
0.00182409
0.00176158
0.00170804
0.00165926
0.00159687
0.00152266
0.00144914
0.00138014
0.00131494
0.00125269
0.00119679
0.00114453
0.00109801
0.00105164
0.00101
0.00097054
0.000933131
0.000896736
0.000864497
0.000832686
0.000801854
0.0007725
0.000745386
0.000717802
0.000691669
0.000667142
0.000644046
0.000620462
0.000597752
0.000576209
0.00055564
0.000535045
0.000515022
0.000495897
0.000477817
0.000460009