/*--------------------------------*- C++ -*----------------------------------*\
| =========                 |                                                 |
| \\      /  F ield         | OpenFOAM: The Open Source CFD Toolbox           |
|  \\    /   O peration     | Version:  v1912                                 |
|   \\  /    A nd           | Website:  www.openfoam.com                      |
|    \\/     M anipulation  |                                                 |
\*---------------------------------------------------------------------------*/
FoamFile
{
    version     2.0;
    format      ascii;
    class       surfaceScalarField;
    location    "200";
    object      phi;
}
// * * * * * * * * * * * * * * * * * * * * * * * * * * * * * * * * * * * * * //

dimensions      [0 3 -1 0 0 0 0];
oriented        oriented;


internalField   nonuniform List<scalar> 
19800
(
2.28536e-07
-1.39915e-08
2.28536e-07
-2.03075e-13
2.2868e-07
-1.44334e-10
2.28522e-07
1.58377e-10
2.28703e-07
-1.81683e-10
2.28523e-07
1.80524e-10
2.28706e-07
-1.83096e-10
2.28512e-07
1.93417e-10
2.28701e-07
-1.88162e-10
2.28494e-07
2.06624e-10
2.28686e-07
-1.92179e-10
2.28466e-07
2.20744e-10
2.28659e-07
-1.93607e-10
2.28423e-07
2.36391e-10
2.2861e-07
-1.8741e-10
2.28356e-07
2.54206e-10
2.28513e-07
-1.57352e-10
2.2825e-07
2.63534e-10
2.28188e-07
6.18529e-11
5.01125e-10
2.27687e-07
2.4222e-07
-1.71142e-08
2.4248e-07
-2.61028e-10
2.42314e-07
2.17444e-11
2.42449e-07
2.4086e-11
2.42302e-07
-3.56298e-11
2.42438e-07
4.45728e-11
2.42273e-07
-1.74727e-11
2.4242e-07
4.58854e-11
2.42237e-07
-5.33511e-12
2.42398e-07
4.60055e-11
2.42195e-07
1.1242e-11
2.42369e-07
4.63494e-11
2.4214e-07
3.5324e-11
2.42329e-07
4.74028e-11
2.42064e-07
7.78658e-11
2.42268e-07
4.98537e-11
2.41936e-07
1.75227e-10
2.42164e-07
3.49519e-11
2.41549e-07
6.76844e-10
4.1871e-10
2.41632e-07
2.55731e-07
-1.6807e-08
2.55924e-07
-4.54613e-10
2.55854e-07
9.14634e-11
2.55908e-07
-2.89084e-11
2.55868e-07
3.73933e-12
2.55908e-07
4.54895e-12
2.55862e-07
2.85988e-11
2.55897e-07
1.07358e-11
2.55848e-07
4.36716e-11
2.55878e-07
1.60921e-11
2.55825e-07
6.44213e-11
2.55849e-07
2.23229e-11
2.55788e-07
9.60496e-11
2.55805e-07
3.04327e-11
2.55728e-07
1.54972e-10
2.55737e-07
4.14516e-11
2.55615e-07
2.97102e-10
2.55618e-07
3.14077e-11
2.55248e-07
1.04696e-09
6.10688e-10
2.55056e-07
2.70154e-07
-1.61294e-08
2.70312e-07
-6.12017e-10
2.70278e-07
1.24579e-10
2.70294e-07
-4.47512e-11
2.70289e-07
9.14169e-12
2.70294e-07
-1.19573e-13
2.7028e-07
4.21067e-11
2.70281e-07
9.48144e-12
2.70263e-07
6.15746e-11
2.70262e-07
1.7639e-11
2.70237e-07
8.91773e-11
2.70232e-07
2.70946e-11
2.70197e-07
1.31714e-10
2.70188e-07
3.89773e-11
2.70132e-07
2.11651e-10
2.70118e-07
5.47158e-11
2.7001e-07
4.05301e-10
2.69994e-07
4.74216e-11
2.69634e-07
1.40679e-09
8.29379e-10
2.69416e-07
2.85482e-07
-1.55249e-08
2.85631e-07
-7.61068e-10
2.85604e-07
1.51111e-10
2.85613e-07
-5.3468e-11
2.85611e-07
1.04535e-11
2.8561e-07
1.03708e-12
2.856e-07
5.25148e-11
2.85595e-07
1.34067e-11
2.8558e-07
7.76611e-11
2.85573e-07
2.41617e-11
2.85549e-07
1.12896e-10
2.8554e-07
3.63207e-11
2.85504e-07
1.67534e-10
2.85492e-07
5.16365e-11
2.85433e-07
2.70149e-10
2.85416e-07
7.18951e-11
2.85303e-07
5.18468e-10
2.85281e-07
6.91789e-11
2.84916e-07
1.77206e-09
1.06425e-09
2.84681e-07
3.01686e-07
-1.49215e-08
3.01833e-07
-9.07927e-10
3.01807e-07
1.76457e-10
3.01816e-07
-6.19978e-11
3.01813e-07
1.31604e-11
3.01813e-07
1.43794e-12
3.018e-07
6.49975e-11
3.01797e-07
1.67538e-11
3.01779e-07
9.59274e-11
3.01773e-07
2.97271e-11
3.01746e-07
1.39624e-10
3.01738e-07
4.47142e-11
3.01698e-07
2.07123e-10
3.01686e-07
6.36813e-11
3.01623e-07
3.33613e-10
3.01606e-07
8.89003e-11
3.01485e-07
6.39381e-10
3.0146e-07
9.42083e-11
3.01088e-07
2.14426e-09
1.31069e-09
3.00841e-07
3.18809e-07
-1.4306e-08
3.18952e-07
-1.05036e-09
3.18929e-07
1.99162e-10
3.18936e-07
-6.94513e-11
3.18934e-07
1.57417e-11
3.18933e-07
1.99186e-12
3.1892e-07
7.77202e-11
3.18916e-07
2.02353e-11
3.18897e-07
1.1527e-10
3.18891e-07
3.60121e-11
3.18863e-07
1.67618e-10
3.18854e-07
5.39169e-11
3.18812e-07
2.48731e-10
3.18799e-07
7.67572e-11
3.18733e-07
4.00386e-10
3.18714e-07
1.07519e-10
3.18587e-07
7.65919e-10
3.18557e-07
1.24501e-10
3.18182e-07
2.51949e-09
1.57076e-09
3.17922e-07
3.36905e-07
-1.36554e-08
3.37042e-07
-1.18738e-09
3.37022e-07
2.18968e-10
3.37028e-07
-7.56279e-11
3.37025e-07
1.86173e-11
3.37024e-07
2.88264e-12
3.37011e-07
9.12145e-11
3.37007e-07
2.44802e-11
3.36987e-07
1.35204e-10
3.3698e-07
4.27256e-11
3.36951e-07
1.9697e-10
3.36941e-07
6.38099e-11
3.36897e-07
2.92426e-10
3.36883e-07
9.08067e-11
3.36813e-07
4.70517e-10
3.36793e-07
1.27614e-10
3.3666e-07
8.98628e-10
3.36624e-07
1.6066e-10
3.36246e-07
2.89718e-09
1.84453e-09
3.35972e-07
3.56026e-07
-1.29421e-08
3.56156e-07
-1.31805e-09
3.56139e-07
2.36047e-10
3.56145e-07
-8.11596e-11
3.56141e-07
2.20846e-11
3.56141e-07
3.2789e-12
3.56126e-07
1.05661e-10
3.56122e-07
2.81412e-11
3.561e-07
1.57097e-10
3.56094e-07
4.94815e-11
3.56062e-07
2.28514e-10
3.56052e-07
7.38236e-11
3.56006e-07
3.39114e-10
3.55991e-07
1.05279e-10
3.55917e-07
5.44948e-10
3.55896e-07
1.48953e-10
3.55756e-07
1.03782e-09
3.55714e-07
2.02347e-10
3.55335e-07
3.27637e-09
2.13144e-09
3.55048e-07
3.76233e-07
-1.22233e-08
3.76355e-07
-1.44056e-09
3.76342e-07
2.49217e-10
3.76346e-07
-8.49068e-11
3.76342e-07
2.56198e-11
3.76341e-07
4.41306e-12
3.76326e-07
1.2059e-10
3.76321e-07
3.30591e-11
3.76299e-07
1.79218e-10
3.76292e-07
5.71137e-11
3.76259e-07
2.61108e-10
3.76248e-07
8.505e-11
3.76199e-07
3.87596e-10
3.76183e-07
1.21359e-10
3.76106e-07
6.224e-10
3.76082e-07
1.72729e-10
3.75937e-07
1.18248e-09
3.75888e-07
2.51893e-10
3.7551e-07
3.65433e-09
2.43327e-09
3.75208e-07
3.97588e-07
-1.15029e-08
3.97701e-07
-1.55339e-09
3.97692e-07
2.58535e-10
3.97694e-07
-8.72651e-11
3.9769e-07
2.92495e-11
3.97689e-07
5.71191e-12
3.97673e-07
1.35837e-10
3.97668e-07
3.80879e-11
3.97645e-07
2.02775e-10
3.97636e-07
6.57051e-11
3.97602e-07
2.95308e-10
3.9759e-07
9.73855e-11
3.97539e-07
4.38493e-10
3.97522e-07
1.38965e-10
3.9744e-07
7.03591e-10
3.97414e-07
1.9919e-10
3.97264e-07
1.3327e-09
3.97206e-07
3.09345e-10
3.9683e-07
4.03031e-09
2.74917e-09
3.96514e-07
4.20156e-07
-1.07629e-08
4.20258e-07
-1.65551e-09
4.20253e-07
2.63889e-10
4.20254e-07
-8.81373e-11
4.20249e-07
3.35786e-11
4.20248e-07
7.36035e-12
4.20231e-07
1.52164e-10
4.20225e-07
4.40711e-11
4.20201e-07
2.27088e-10
4.20192e-07
7.47496e-11
4.20156e-07
3.31206e-10
4.20143e-07
1.1057e-10
4.20089e-07
4.9191e-10
4.2007e-07
1.57919e-10
4.19985e-07
7.88568e-10
4.19957e-07
2.28126e-10
4.198e-07
1.48892e-09
4.19734e-07
3.75725e-10
4.19361e-07
4.40306e-09
3.07906e-09
4.19031e-07
4.44004e-07
-9.99936e-09
4.44094e-07
-1.7453e-09
4.44093e-07
2.6505e-10
4.44093e-07
-8.76718e-11
4.44088e-07
3.82773e-11
4.44086e-07
9.05967e-12
4.44069e-07
1.68967e-10
4.44062e-07
5.0056e-11
4.44037e-07
2.53113e-10
4.44027e-07
8.47781e-11
4.43989e-07
3.68987e-10
4.43975e-07
1.24944e-10
4.43919e-07
5.48038e-10
4.43898e-07
1.78623e-10
4.43809e-07
8.77534e-10
4.43777e-07
2.60407e-10
4.43615e-07
1.6504e-09
4.43539e-07
4.51639e-10
4.43172e-07
4.77063e-09
3.42271e-09
4.42828e-07
4.69206e-07
-9.21615e-09
4.69283e-07
-1.82166e-09
4.69286e-07
2.6182e-10
4.69284e-07
-8.56044e-11
4.69278e-07
4.38215e-11
4.69276e-07
1.12349e-11
4.69258e-07
1.86888e-10
4.69251e-07
5.72201e-11
4.69224e-07
2.79858e-10
4.69214e-07
9.54379e-11
4.69174e-07
4.08483e-10
4.69159e-07
1.40449e-10
4.691e-07
6.06708e-10
4.69077e-07
2.0113e-10
4.68985e-07
9.70212e-10
4.68949e-07
2.96067e-10
4.68782e-07
1.81723e-09
4.68695e-07
5.38334e-10
4.68335e-07
5.13147e-09
3.77999e-09
4.67977e-07
4.95838e-07
-8.42471e-09
4.959e-07
-1.88317e-09
4.95907e-07
2.54147e-10
4.95904e-07
-8.2193e-11
4.95898e-07
4.9899e-11
4.95895e-07
1.35101e-11
4.95877e-07
2.05283e-10
4.95869e-07
6.44325e-11
4.95841e-07
3.08456e-10
4.95829e-07
1.07338e-10
4.95788e-07
4.49957e-10
4.95771e-07
1.57483e-10
4.95709e-07
6.68154e-10
4.95685e-07
2.25911e-10
4.95588e-07
1.06682e-09
4.95548e-07
3.36125e-10
4.95377e-07
1.98848e-09
4.95279e-07
6.36391e-10
4.94926e-07
5.48361e-09
4.15024e-09
4.94556e-07
5.23981e-07
-7.63048e-09
5.24027e-07
-1.92888e-09
5.24039e-07
2.42025e-10
5.24034e-07
-7.72016e-11
5.24027e-07
5.70382e-11
5.24024e-07
1.63891e-11
5.24005e-07
2.24865e-10
5.23996e-07
7.30885e-11
5.23967e-07
3.37723e-10
5.23954e-07
1.20067e-10
5.23911e-07
4.93138e-10
5.23892e-07
1.75977e-10
5.23828e-07
7.32114e-10
5.23801e-07
2.53053e-10
5.23701e-07
1.16695e-09
5.23657e-07
3.80636e-10
5.23481e-07
2.16418e-09
5.2337e-07
7.47112e-10
5.23028e-07
5.82566e-09
4.53278e-09
5.22646e-07
5.53721e-07
-6.82671e-09
5.5375e-07
-1.95766e-09
5.53766e-07
2.25507e-10
5.5376e-07
-7.09119e-11
5.53752e-07
6.4847e-11
5.53749e-07
1.95063e-11
5.53729e-07
2.44865e-10
5.53719e-07
8.19549e-11
5.53688e-07
3.68868e-10
5.53674e-07
1.34367e-10
5.53629e-07
5.38287e-10
5.53609e-07
1.96429e-10
5.53542e-07
7.98798e-10
5.53512e-07
2.83111e-10
5.53409e-07
1.27078e-09
5.53359e-07
4.30762e-10
5.53179e-07
2.34319e-09
5.53055e-07
8.7097e-10
5.52725e-07
6.15575e-09
4.92635e-09
5.52332e-07
5.85147e-07
-6.0087e-09
5.85158e-07
-1.96887e-09
5.85179e-07
2.04717e-10
5.85171e-07
-6.305e-11
5.85163e-07
7.38141e-11
5.85159e-07
2.34825e-11
5.85138e-07
2.65992e-10
5.85127e-07
9.26091e-11
5.85095e-07
4.00541e-10
5.8508e-07
1.49807e-10
5.85033e-07
5.85022e-10
5.85011e-07
2.18785e-10
5.84941e-07
8.67826e-10
5.84908e-07
3.16233e-10
5.84801e-07
1.37773e-09
5.84745e-07
4.86625e-10
5.84563e-07
2.52537e-09
5.84425e-07
1.00928e-09
5.84108e-07
6.47239e-09
5.32993e-09
5.83705e-07
6.18355e-07
-5.16441e-09
6.18348e-07
-1.96212e-09
6.18373e-07
1.79862e-10
6.18364e-07
-5.39462e-11
6.18354e-07
8.34141e-11
6.1835e-07
2.79638e-11
6.18328e-07
2.87324e-10
6.18316e-07
1.03696e-10
6.18283e-07
4.34031e-10
6.18266e-07
1.67214e-10
6.18218e-07
6.33646e-10
6.18193e-07
2.43593e-10
6.18121e-07
9.39449e-10
6.18085e-07
3.53028e-10
6.17974e-07
1.48801e-09
6.17912e-07
5.49536e-10
6.17728e-07
2.70941e-09
6.17574e-07
1.16239e-09
6.17273e-07
6.77393e-09
5.74182e-09
6.16861e-07
6.53445e-07
-4.28441e-09
6.53421e-07
-1.93851e-09
6.53449e-07
1.52459e-10
6.53439e-07
-4.43087e-11
6.53428e-07
9.51016e-11
6.53423e-07
3.28843e-11
6.534e-07
3.10414e-10
6.53387e-07
1.16422e-10
6.53353e-07
4.68417e-10
6.53334e-07
1.85759e-10
6.53284e-07
6.84054e-10
6.53257e-07
2.70652e-10
6.53182e-07
1.01334e-09
6.53142e-07
3.93738e-10
6.53029e-07
1.6008e-09
6.52959e-07
6.19829e-10
6.52773e-07
2.89479e-09
6.52604e-07
1.33184e-09
6.52319e-07
7.05864e-09
6.16095e-09
6.519e-07
6.90523e-07
-3.33614e-09
6.90482e-07
-1.89742e-09
6.90513e-07
1.21006e-10
6.90501e-07
-3.26453e-11
6.9049e-07
1.05969e-10
6.90483e-07
3.98714e-11
6.90461e-07
3.3196e-10
6.90446e-07
1.3114e-10
6.90412e-07
5.02992e-10
6.9039e-07
2.07838e-10
6.90339e-07
7.34879e-10
6.90308e-07
3.0161e-10
6.90233e-07
1.08857e-09
6.90188e-07
4.39542e-10
6.90073e-07
1.71574e-09
6.89994e-07
6.9887e-10
6.89808e-07
3.08019e-09
6.89623e-07
1.51712e-09
6.89355e-07
7.32601e-09
6.58386e-09
6.88932e-07
7.29698e-07
-2.31187e-09
7.29655e-07
-1.85414e-09
7.29677e-07
9.8765e-11
7.29675e-07
-3.03735e-11
7.29654e-07
1.27248e-10
7.29653e-07
4.01488e-11
7.29624e-07
3.61541e-10
7.29613e-07
1.42527e-10
7.29573e-07
5.42673e-10
7.29552e-07
2.28213e-10
7.29497e-07
7.89726e-10
7.29465e-07
3.34121e-10
7.29387e-07
1.16644e-09
7.29336e-07
4.90627e-10
7.2922e-07
1.83177e-09
7.2913e-07
7.88574e-10
7.28946e-07
3.26348e-09
7.28741e-07
1.72234e-09
7.28495e-07
7.572e-09
7.01256e-09
7.28067e-07
7.71091e-07
-1.49471e-09
7.7105e-07
-1.81336e-09
7.71057e-07
9.15515e-11
7.7107e-07
-4.3216e-11
7.71031e-07
1.66525e-10
7.71046e-07
2.45135e-11
7.70998e-07
4.09791e-10
7.71003e-07
1.36717e-10
7.70942e-07
6.03686e-10
7.70938e-07
2.32534e-10
7.70862e-07
8.66291e-10
7.70845e-07
3.51144e-10
7.70745e-07
1.26636e-09
7.70708e-07
5.28333e-10
7.7057e-07
1.96912e-09
7.70489e-07
8.70184e-10
7.70289e-07
3.46302e-09
7.70084e-07
1.92719e-09
7.69842e-07
7.81386e-09
7.42645e-09
7.69428e-07
8.14829e-07
-1.02792e-09
8.14777e-07
-1.76163e-09
8.14784e-07
8.44897e-11
8.14796e-07
-5.51599e-11
8.14755e-07
2.07848e-10
8.1477e-07
9.60863e-12
8.14718e-07
4.61403e-10
8.14724e-07
1.31041e-10
8.14659e-07
6.68891e-10
8.14657e-07
2.34744e-10
8.14573e-07
9.49585e-10
8.14558e-07
3.6588e-10
8.1445e-07
1.37471e-09
8.14413e-07
5.6471e-10
8.14267e-07
2.11544e-09
8.14183e-07
9.53838e-10
8.13977e-07
3.66891e-09
8.13764e-07
2.14064e-09
8.13535e-07
8.04319e-09
7.83026e-09
8.13131e-07
8.61043e-07
-7.96043e-10
8.60977e-07
-1.69594e-09
8.6099e-07
7.15454e-11
8.60995e-07
-5.98537e-11
8.6096e-07
2.42321e-10
8.60966e-07
3.44307e-12
8.60921e-07
5.05685e-10
8.60918e-07
1.33814e-10
8.60859e-07
7.28755e-10
8.60847e-07
2.47242e-10
8.60769e-07
1.02774e-09
8.60743e-07
3.91657e-10
8.60639e-07
1.47854e-09
8.6059e-07
6.13961e-10
8.60448e-07
2.25721e-09
8.60348e-07
1.05477e-09
8.6015e-07
3.86617e-09
8.59915e-07
2.37538e-09
8.5971e-07
8.24786e-09
8.232e-09
8.59309e-07
9.09876e-07
-6.58873e-10
9.09801e-07
-1.62068e-09
9.09816e-07
5.67417e-11
9.09816e-07
-6.00578e-11
9.09785e-07
2.73232e-10
9.09785e-07
4.23191e-12
9.09745e-07
5.45809e-10
9.09734e-07
1.44991e-10
9.09679e-07
7.83348e-10
9.09658e-07
2.67979e-10
9.09584e-07
1.10131e-09
9.09549e-07
4.27493e-10
9.09449e-07
1.57783e-09
9.09387e-07
6.76051e-10
9.09251e-07
2.39352e-09
9.09132e-07
1.17309e-09
9.08944e-07
4.05437e-09
9.08687e-07
2.63193e-09
9.08507e-07
8.42791e-09
8.62898e-09
9.08111e-07
9.61478e-07
-5.50778e-10
9.61397e-07
-1.54014e-09
9.6141e-07
4.36134e-11
9.61409e-07
-5.93596e-11
9.61379e-07
3.03465e-10
9.61375e-07
8.04243e-12
9.61336e-07
5.84456e-10
9.61321e-07
1.59314e-10
9.61267e-07
8.3794e-10
9.61241e-07
2.94407e-10
9.61168e-07
1.17439e-09
9.61125e-07
4.70657e-10
9.61026e-07
1.6763e-09
9.60954e-07
7.48358e-10
9.6082e-07
2.52776e-09
9.60687e-07
1.30681e-09
9.60506e-07
4.23508e-09
9.60232e-07
2.90579e-09
9.60073e-07
8.58611e-09
9.01513e-09
9.59687e-07
1.016e-06
-4.52527e-10
1.01592e-06
-1.45579e-09
1.01593e-06
3.41365e-11
1.01593e-06
-5.86158e-11
1.0159e-06
3.34955e-10
1.01589e-06
1.42699e-11
1.01585e-06
6.24065e-10
1.01583e-06
1.77253e-10
1.01578e-06
8.92496e-10
1.01575e-06
3.24301e-10
1.01568e-06
1.24802e-09
1.01563e-06
5.193e-10
1.01553e-06
1.77507e-09
1.01545e-06
8.29292e-10
1.01531e-06
2.66071e-09
1.01517e-06
1.45368e-09
1.01499e-06
4.41003e-09
1.0147e-06
3.19442e-09
1.01457e-06
8.72472e-09
9.38614e-09
1.01419e-06
1.07362e-06
-3.60983e-10
1.07354e-06
-1.3689e-09
1.07354e-06
2.86287e-11
1.07354e-06
-5.82866e-11
1.07351e-06
3.67352e-10
1.0735e-06
2.21554e-11
1.07346e-06
6.64023e-10
1.07344e-06
1.96844e-10
1.07338e-06
9.48891e-10
1.07335e-06
3.58433e-10
1.07328e-06
1.32297e-09
1.07322e-06
5.73982e-10
1.07312e-06
1.87457e-09
1.07303e-06
9.19346e-10
1.0729e-06
2.79273e-09
1.07274e-06
1.61442e-09
1.07257e-06
4.57825e-09
1.07227e-06
3.49537e-09
1.07215e-06
8.84483e-09
9.73825e-09
1.0718e-06
1.13451e-06
-2.75766e-10
1.13442e-06
-1.27982e-09
1.13442e-06
2.77045e-11
1.13442e-06
-5.78186e-11
1.13439e-06
4.01132e-10
1.13437e-06
3.25574e-11
1.13433e-06
7.05229e-10
1.13431e-06
2.20103e-10
1.13425e-06
1.00549e-09
1.13422e-06
3.96273e-10
1.13414e-06
1.39851e-09
1.13408e-06
6.3461e-10
1.13398e-06
1.97414e-09
1.13388e-06
1.01865e-09
1.13375e-06
2.92287e-09
1.13358e-06
1.7882e-09
1.13341e-06
4.7401e-09
1.1331e-06
3.80706e-09
1.133e-06
8.94801e-09
1.00685e-08
1.13267e-06
1.19884e-06
-1.97544e-10
1.19875e-06
-1.18964e-09
1.19875e-06
3.1199e-11
1.19875e-06
-5.7236e-11
1.19871e-06
4.3551e-10
1.1987e-06
4.51365e-11
1.19866e-06
7.46606e-10
1.19863e-06
2.45626e-10
1.19858e-06
1.06354e-09
1.19853e-06
4.3912e-10
1.19846e-06
1.47486e-09
1.19839e-06
7.02255e-10
1.19829e-06
2.07368e-09
1.19818e-06
1.12808e-09
1.19805e-06
3.05109e-09
1.19787e-06
1.97578e-09
1.19771e-06
4.89452e-09
1.19739e-06
4.1268e-09
1.1973e-06
9.03556e-09
1.03738e-08
1.197e-06
1.26683e-06
-1.26334e-10
1.26674e-06
-1.09876e-09
1.26673e-06
3.95219e-11
1.26673e-06
-5.58132e-11
1.26669e-06
4.70832e-10
1.26668e-06
6.08367e-11
1.26663e-06
7.88958e-10
1.2666e-06
2.7542e-10
1.26655e-06
1.12143e-09
1.2665e-06
4.86554e-10
1.26642e-06
1.55118e-09
1.26635e-06
7.76912e-10
1.26625e-06
2.17245e-09
1.26613e-06
1.24773e-09
1.266e-06
3.17644e-09
1.2658e-06
2.17598e-09
1.26565e-06
5.04212e-09
1.26533e-06
4.45242e-09
1.26526e-06
9.10947e-09
1.06517e-08
1.26498e-06
1.33866e-06
-6.26201e-11
1.33857e-06
-1.0083e-09
1.33856e-06
5.23051e-11
1.33856e-06
-5.34516e-11
1.33852e-06
5.06259e-10
1.3385e-06
7.93746e-11
1.33846e-06
8.31156e-10
1.33843e-06
3.0827e-10
1.33837e-06
1.18021e-09
1.33832e-06
5.39899e-10
1.33824e-06
1.62763e-09
1.33816e-06
8.59593e-10
1.33806e-06
2.27034e-09
1.33793e-06
1.37824e-09
1.33781e-06
3.29907e-09
1.33759e-06
2.38893e-09
1.33745e-06
5.18233e-09
1.33712e-06
4.78059e-09
1.33706e-06
9.17136e-09
1.08997e-08
1.33681e-06
1.41457e-06
-6.12163e-12
1.41448e-06
-9.18669e-10
1.41446e-06
6.97457e-11
1.41446e-06
-4.93224e-11
1.41443e-06
5.4208e-10
1.4144e-06
1.01701e-10
1.41436e-06
8.73976e-10
1.41432e-06
3.46081e-10
1.41426e-06
1.23837e-09
1.41421e-06
5.98738e-10
1.41413e-06
1.70339e-09
1.41404e-06
9.50216e-10
1.41394e-06
2.36671e-09
1.4138e-06
1.51939e-09
1.41368e-06
3.41828e-09
1.41346e-06
2.61287e-09
1.41332e-06
5.31614e-09
1.413e-06
5.1086e-09
1.41294e-06
9.22347e-09
1.11163e-08
1.41273e-06
1.49478e-06
4.29617e-11
1.4947e-06
-8.30894e-10
1.49467e-06
9.12484e-11
1.49467e-06
-4.32262e-11
1.49463e-06
5.77444e-10
1.49461e-06
1.27561e-10
1.49456e-06
9.16253e-10
1.49452e-06
3.87837e-10
1.49446e-06
1.29675e-09
1.4944e-06
6.64366e-10
1.49432e-06
1.77862e-09
1.49422e-06
1.04962e-09
1.49413e-06
2.46157e-09
1.49398e-06
1.67141e-09
1.49386e-06
3.5345e-09
1.49363e-06
2.84714e-09
1.4935e-06
5.44353e-09
1.49318e-06
5.43272e-09
1.49313e-06
9.26746e-09
1.13001e-08
1.49295e-06
1.57954e-06
8.51593e-11
1.57946e-06
-7.45304e-10
1.57943e-06
1.16741e-10
1.57942e-06
-3.42854e-11
1.57939e-06
6.12591e-10
1.57936e-06
1.57859e-10
1.57931e-06
9.58754e-10
1.57927e-06
4.3521e-10
1.57921e-06
1.35407e-09
1.57914e-06
7.36277e-10
1.57906e-06
1.85257e-09
1.57896e-06
1.15753e-09
1.57886e-06
2.55445e-09
1.5787e-06
1.83366e-09
1.57859e-06
3.64735e-09
1.57835e-06
3.08941e-09
1.57822e-06
5.56575e-09
1.57791e-06
5.75003e-09
1.57787e-06
9.30538e-09
1.14506e-08
1.57772e-06
1.6691e-06
1.20486e-10
1.66902e-06
-6.62732e-10
1.66899e-06
1.45402e-10
1.66898e-06
-2.22643e-11
1.66895e-06
6.46692e-10
1.66891e-06
1.92305e-10
1.66887e-06
1.00031e-09
1.66882e-06
4.87296e-10
1.66876e-06
1.41107e-09
1.66868e-06
8.15673e-10
1.66861e-06
1.92556e-09
1.66849e-06
1.27451e-09
1.6684e-06
2.64561e-09
1.66823e-06
2.00588e-09
1.66812e-06
3.75765e-09
1.66787e-06
3.33829e-09
1.66775e-06
5.6832e-09
1.66745e-06
6.05675e-09
1.66741e-06
9.33858e-09
1.15676e-08
1.6673e-06
1.76374e-06
1.49671e-10
1.76367e-06
-5.83285e-10
1.76363e-06
1.7693e-10
1.76362e-06
-6.27901e-12
1.76358e-06
6.80028e-10
1.76355e-06
2.31788e-10
1.7635e-06
1.04172e-09
1.76345e-06
5.45619e-10
1.76339e-06
1.46661e-09
1.7633e-06
9.01824e-10
1.76323e-06
1.99691e-09
1.76311e-06
1.39991e-09
1.76302e-06
2.7348e-09
1.76284e-06
2.18681e-09
1.76273e-06
3.86533e-09
1.76248e-06
3.59086e-09
1.76236e-06
5.79727e-09
1.76207e-06
6.35016e-09
1.76204e-06
9.36859e-09
1.16519e-08
1.76195e-06
1.86375e-06
1.72873e-10
1.86367e-06
-5.07519e-10
1.86364e-06
2.10308e-10
1.86362e-06
1.38525e-11
1.86359e-06
7.11831e-10
1.86354e-06
2.75907e-10
1.8635e-06
1.0819e-09
1.86344e-06
6.09257e-10
1.86338e-06
1.52144e-09
1.86329e-06
9.95713e-10
1.86322e-06
2.06722e-09
1.86309e-06
1.53395e-09
1.863e-06
2.82264e-09
1.86281e-06
2.37565e-09
1.8627e-06
3.97153e-09
1.86245e-06
3.84521e-09
1.86234e-06
5.9085e-09
1.86206e-06
6.62696e-09
1.86203e-06
9.39606e-09
1.17047e-08
1.86198e-06
1.96942e-06
1.90932e-10
1.96935e-06
-4.35252e-10
1.96932e-06
2.45069e-10
1.96929e-06
3.8922e-11
1.96926e-06
7.42448e-10
1.96921e-06
3.25468e-10
1.96917e-06
1.12163e-09
1.9691e-06
6.79481e-10
1.96905e-06
1.57466e-09
1.96895e-06
1.09636e-09
1.96888e-06
2.13595e-09
1.96874e-06
1.67548e-09
1.96865e-06
2.9091e-09
1.96846e-06
2.57053e-09
1.96835e-06
4.07644e-09
1.9681e-06
4.09808e-09
1.96799e-06
6.01811e-09
1.96773e-06
6.88503e-09
1.9677e-06
9.42174e-09
1.17279e-08
1.96768e-06
2.08109e-06
2.04029e-10
2.08102e-06
-3.66735e-10
2.08098e-06
2.80106e-10
2.08095e-06
6.89419e-11
2.08092e-06
7.71239e-10
2.08087e-06
3.79898e-10
2.08083e-06
1.16e-09
2.08076e-06
7.55253e-10
2.0807e-06
1.62712e-09
2.0806e-06
1.20439e-09
2.08053e-06
2.20402e-09
2.08038e-06
1.82429e-09
2.08029e-06
2.99516e-09
2.08009e-06
2.77017e-09
2.07999e-06
4.18136e-09
2.07974e-06
4.34737e-09
2.07963e-06
6.12645e-09
2.07939e-06
7.122e-09
2.07937e-06
9.44541e-09
1.17237e-08
2.07937e-06
2.19908e-06
2.12977e-10
2.19902e-06
-3.01501e-10
2.19898e-06
3.1493e-10
2.19895e-06
1.04504e-10
2.19892e-06
7.98685e-10
2.19886e-06
4.39844e-10
2.19882e-06
1.19784e-09
2.19874e-06
8.37507e-10
2.19869e-06
1.67821e-09
2.19857e-06
1.31847e-09
2.19851e-06
2.27112e-09
2.19835e-06
1.9787e-09
2.19827e-06
3.08099e-09
2.19806e-06
2.97218e-09
2.19796e-06
4.2865e-09
2.19772e-06
4.58986e-09
2.19761e-06
6.23421e-09
2.19739e-06
7.33673e-09
2.19737e-06
9.46695e-09
1.1695e-08
2.1974e-06
2.32377e-06
2.17904e-10
2.3237e-06
-2.39543e-10
2.32367e-06
3.48506e-10
2.32363e-06
1.45348e-10
2.3236e-06
8.2434e-10
2.32354e-06
5.04523e-10
2.3235e-06
1.23452e-09
2.32341e-06
9.25007e-10
2.32336e-06
1.72894e-09
2.32324e-06
1.43874e-09
2.32318e-06
2.33845e-09
2.32302e-06
2.13806e-09
2.32293e-06
3.16775e-09
2.32273e-06
3.175e-09
2.32262e-06
4.39301e-09
2.32239e-06
4.82366e-09
2.32228e-06
6.34125e-09
2.32209e-06
7.52807e-09
2.32207e-06
9.48532e-09
1.16444e-08
2.32212e-06
2.45552e-06
2.19566e-10
2.45546e-06
-1.80216e-10
2.45543e-06
3.80479e-10
2.45538e-06
1.91748e-10
2.45536e-06
8.48825e-10
2.45529e-06
5.74316e-10
2.45525e-06
1.2709e-09
2.45516e-06
1.01824e-09
2.45511e-06
1.77901e-09
2.45498e-06
1.56361e-09
2.45491e-06
2.40591e-09
2.45475e-06
2.3003e-09
2.45466e-06
3.25568e-09
2.45446e-06
3.37603e-09
2.45436e-06
4.50087e-09
2.45413e-06
5.04604e-09
2.45403e-06
6.44749e-09
2.45386e-06
7.69597e-09
2.45384e-06
9.4997e-09
1.15752e-08
2.45391e-06
2.59474e-06
2.18016e-10
2.59468e-06
-1.23389e-10
2.59465e-06
4.10067e-10
2.5946e-06
2.43106e-10
2.59458e-06
8.71947e-10
2.59451e-06
6.48228e-10
2.59447e-06
1.30669e-09
2.59437e-06
1.11576e-09
2.59432e-06
1.82955e-09
2.59419e-06
1.69266e-09
2.59412e-06
2.47482e-09
2.59396e-06
2.46441e-09
2.59387e-06
3.34587e-09
2.59367e-06
3.57369e-09
2.59356e-06
4.61071e-09
2.59335e-06
5.2557e-09
2.59325e-06
6.55212e-09
2.5931e-06
7.8405e-09
2.59309e-06
9.50861e-09
1.14901e-08
2.59318e-06
2.74186e-06
2.13913e-10
2.7418e-06
-6.84199e-11
2.74177e-06
4.37203e-10
2.74172e-06
2.99297e-10
2.74169e-06
8.94452e-10
2.74162e-06
7.26268e-10
2.74158e-06
1.34278e-09
2.74148e-06
1.21751e-09
2.74143e-06
1.88059e-09
2.7413e-06
1.82413e-09
2.74123e-06
2.54521e-09
2.74106e-06
2.62818e-09
2.74097e-06
3.43835e-09
2.74078e-06
3.76559e-09
2.74067e-06
4.72201e-09
2.74047e-06
5.45074e-09
2.74037e-06
6.65425e-09
2.74025e-06
7.96254e-09
2.74024e-06
9.5109e-09
1.13919e-08
2.74034e-06
2.89731e-06
2.07304e-10
2.89726e-06
-1.52275e-11
2.89723e-06
4.61505e-10
2.89717e-06
3.59382e-10
2.89715e-06
9.16403e-10
2.89707e-06
8.07259e-10
2.89703e-06
1.37919e-09
2.89693e-06
1.32193e-09
2.89688e-06
1.93323e-09
2.89674e-06
1.9572e-09
2.89667e-06
2.61824e-09
2.89651e-06
2.79047e-09
2.89641e-06
3.5338e-09
2.89623e-06
3.95044e-09
2.89612e-06
4.83465e-09
2.89594e-06
5.63064e-09
2.89584e-06
6.75249e-09
2.89574e-06
8.06308e-09
2.89574e-06
9.50509e-09
1.1283e-08
2.89585e-06
3.06158e-06
1.98839e-10
3.06153e-06
3.66376e-11
3.06151e-06
4.83272e-10
3.06144e-06
4.22848e-10
3.06142e-06
9.38615e-10
3.06134e-06
8.90843e-10
3.0613e-06
1.41683e-09
3.06119e-06
1.42849e-09
3.06114e-06
1.98767e-09
3.06101e-06
2.09009e-09
3.06093e-06
2.69384e-09
3.06077e-06
2.94924e-09
3.06067e-06
3.63181e-09
3.0605e-06
4.12639e-09
3.06038e-06
4.94745e-09
3.06022e-06
5.79445e-09
3.06013e-06
6.8454e-09
3.06005e-06
8.14354e-09
3.06006e-06
9.49019e-09
1.11654e-08
3.06018e-06
3.23516e-06
1.88622e-10
3.23511e-06
8.70666e-11
3.23509e-06
5.02547e-10
3.23503e-06
4.8851e-10
3.235e-06
9.61319e-10
3.23492e-06
9.75743e-10
3.23488e-06
1.45586e-09
3.23477e-06
1.5356e-09
3.23471e-06
2.04473e-09
3.23458e-06
2.22181e-09
3.2345e-06
2.77271e-09
3.23435e-06
3.10349e-09
3.23425e-06
3.73239e-09
3.23408e-06
4.29266e-09
3.23397e-06
5.05953e-09
3.23382e-06
5.94235e-09
3.23374e-06
6.93134e-09
3.23368e-06
8.2053e-09
3.2337e-06
9.46519e-09
1.10408e-08
3.23383e-06
3.41858e-06
1.77319e-10
3.41854e-06
1.3621e-10
3.41852e-06
5.19953e-10
3.41845e-06
5.55588e-10
3.41843e-06
9.85286e-10
3.41834e-06
1.06133e-09
3.4183e-06
1.49705e-09
3.41819e-06
1.64249e-09
3.41813e-06
2.10457e-09
3.418e-06
2.35081e-09
3.41792e-06
2.85444e-09
3.41777e-06
3.25165e-09
3.41767e-06
3.83451e-09
3.41752e-06
4.4481e-09
3.41741e-06
5.16918e-09
3.41728e-06
6.07416e-09
3.4172e-06
7.00875e-09
3.41715e-06
8.24982e-09
3.41719e-06
9.42958e-09
1.09103e-08
3.41732e-06
3.61241e-06
1.65187e-10
3.61236e-06
1.83721e-10
3.61234e-06
5.35855e-10
3.61228e-06
6.22822e-10
3.61225e-06
1.01076e-09
3.61216e-06
1.14638e-09
3.61212e-06
1.54052e-09
3.61202e-06
1.74775e-09
3.61195e-06
2.1675e-09
3.61183e-06
2.47622e-09
3.61174e-06
2.93902e-09
3.6116e-06
3.39305e-09
3.6115e-06
3.93745e-09
3.61135e-06
4.59244e-09
3.61125e-06
5.27502e-09
3.61113e-06
6.19045e-09
3.61107e-06
7.07619e-09
3.61104e-06
8.27843e-09
3.61108e-06
9.38301e-09
1.07748e-08
3.61122e-06
3.81722e-06
1.52968e-10
3.81717e-06
2.29475e-10
3.81716e-06
5.51015e-10
3.81709e-06
6.89368e-10
3.81706e-06
1.0383e-09
3.81698e-06
1.23017e-09
3.81693e-06
1.58669e-09
3.81683e-06
1.85061e-09
3.81676e-06
2.23333e-09
3.81664e-06
2.59691e-09
3.81656e-06
3.02556e-09
3.81642e-06
3.52667e-09
3.81632e-06
4.03967e-09
3.81619e-06
4.72514e-09
3.81609e-06
5.37517e-09
3.81599e-06
6.29147e-09
3.81593e-06
7.13241e-09
3.81592e-06
8.29228e-09
3.81597e-06
9.32555e-09
1.06348e-08
3.81611e-06
4.03364e-06
1.40963e-10
4.0336e-06
2.72991e-10
4.03358e-06
5.65889e-10
4.03352e-06
7.54125e-10
4.03349e-06
1.06796e-09
4.0334e-06
1.31167e-09
4.03336e-06
1.6354e-09
4.03326e-06
1.95e-09
4.03319e-06
2.30173e-09
4.03307e-06
2.71225e-09
4.03298e-06
3.11333e-09
4.03286e-06
3.65219e-09
4.03276e-06
4.1399e-09
4.03264e-06
4.84624e-09
4.03255e-06
5.46815e-09
4.03246e-06
6.37782e-09
4.03241e-06
7.17652e-09
4.03241e-06
8.29236e-09
4.03248e-06
9.25742e-09
1.04907e-08
4.03263e-06
4.26233e-06
1.29853e-10
4.26229e-06
3.14025e-10
4.26228e-06
5.81118e-10
4.26221e-06
8.16408e-10
4.26218e-06
1.09993e-09
4.2621e-06
1.3903e-09
4.26205e-06
1.68656e-09
4.26196e-06
2.04535e-09
4.26189e-06
2.37204e-09
4.26178e-06
2.82157e-09
4.26169e-06
3.20102e-09
4.26157e-06
3.76905e-09
4.26148e-06
4.23639e-09
4.26137e-06
4.95551e-09
4.26128e-06
5.55232e-09
4.26121e-06
6.44978e-09
4.26118e-06
7.20785e-09
4.26119e-06
8.27942e-09
4.26127e-06
9.17911e-09
1.03426e-08
4.26142e-06
4.50399e-06
1.19882e-10
4.50395e-06
3.52144e-10
4.50394e-06
5.96985e-10
4.50388e-06
8.75461e-10
4.50384e-06
1.13393e-09
4.50377e-06
1.46536e-09
4.50371e-06
1.73961e-09
4.50362e-06
2.136e-09
4.50355e-06
2.44335e-09
4.50345e-06
2.9245e-09
4.50336e-06
3.28739e-09
4.50325e-06
3.87711e-09
4.50316e-06
4.3277e-09
4.50307e-06
5.05304e-09
4.50299e-06
5.6265e-09
4.50293e-06
6.50779e-09
4.50292e-06
7.2261e-09
4.50294e-06
8.25409e-09
4.50303e-06
9.09116e-09
1.01906e-08
4.50318e-06
4.75935e-06
1.11531e-10
4.75931e-06
3.87181e-10
4.7593e-06
6.13795e-10
4.75924e-06
9.30904e-10
4.75921e-06
1.16971e-09
4.75913e-06
1.53649e-09
4.75908e-06
1.79394e-09
4.75899e-06
2.22161e-09
4.75892e-06
2.51457e-09
4.75883e-06
3.02067e-09
4.75874e-06
3.37094e-09
4.75864e-06
3.97599e-09
4.75856e-06
4.41225e-09
4.75847e-06
5.13864e-09
4.75841e-06
5.68958e-09
4.75837e-06
6.552e-09
4.75836e-06
7.23116e-09
4.7584e-06
8.21683e-09
4.7585e-06
8.9942e-09
1.00347e-08
4.75865e-06
5.02918e-06
1.04839e-10
5.02915e-06
4.18919e-10
5.02914e-06
6.31498e-10
5.02908e-06
9.82378e-10
5.02905e-06
1.20665e-09
5.02898e-06
1.60328e-09
5.02893e-06
1.84863e-09
5.02884e-06
2.30181e-09
5.02878e-06
2.58448e-09
5.02869e-06
3.10978e-09
5.02861e-06
3.45032e-09
5.02852e-06
4.06553e-09
5.02844e-06
4.48877e-09
5.02837e-06
5.21227e-09
5.02832e-06
5.74086e-09
5.02829e-06
6.58266e-09
5.02829e-06
7.22322e-09
5.02834e-06
8.16809e-09
5.02845e-06
8.88883e-09
9.87498e-09
5.02861e-06
5.31432e-06
9.99793e-11
5.31429e-06
4.47393e-10
5.31427e-06
6.49986e-10
5.31423e-06
1.0298e-09
5.31419e-06
1.24411e-09
5.31413e-06
1.66557e-09
5.31407e-06
1.90273e-09
5.314e-06
2.37636e-09
5.31393e-06
2.65183e-09
5.31385e-06
3.19154e-09
5.31377e-06
3.52413e-09
5.31369e-06
4.14534e-09
5.31363e-06
4.5561e-09
5.31357e-06
5.27369e-09
5.31353e-06
5.77977e-09
5.31351e-06
6.59983e-09
5.31353e-06
7.20252e-09
5.31359e-06
8.10821e-09
5.3137e-06
8.77561e-09
9.71145e-09
5.31387e-06
5.61562e-06
9.67487e-11
5.6156e-06
4.72639e-10
5.61558e-06
6.6889e-10
5.61553e-06
1.07312e-09
5.6155e-06
1.28127e-09
5.61544e-06
1.72314e-09
5.61539e-06
1.95515e-09
5.61532e-06
2.44498e-09
5.61525e-06
2.71536e-09
5.61518e-06
3.26558e-09
5.61511e-06
3.59118e-09
5.61504e-06
4.2151e-09
5.61499e-06
4.61335e-09
5.61494e-06
5.32271e-09
5.61491e-06
5.80606e-09
5.61491e-06
6.60368e-09
5.61494e-06
7.16948e-09
5.61501e-06
8.03759e-09
5.61513e-06
8.65506e-09
9.54416e-09
5.6153e-06
5.93401e-06
9.50127e-11
5.93398e-06
4.94861e-10
5.93396e-06
6.87807e-10
5.93393e-06
1.11239e-09
5.93389e-06
1.31733e-09
5.93384e-06
1.77586e-09
5.93379e-06
2.0049e-09
5.93372e-06
2.50737e-09
5.93367e-06
2.77396e-09
5.9336e-06
3.3315e-09
5.93354e-06
3.65043e-09
5.93348e-06
4.27439e-09
5.93344e-06
4.6598e-09
5.9334e-06
5.35911e-09
5.93339e-06
5.81959e-09
5.93339e-06
6.59432e-09
5.93344e-06
7.12451e-09
5.93352e-06
7.95657e-09
5.93365e-06
8.52762e-09
9.37314e-09
5.93382e-06
6.27044e-06
9.44149e-11
6.27042e-06
5.14241e-10
6.2704e-06
7.06219e-10
6.27037e-06
1.14765e-09
6.27033e-06
1.35148e-09
6.27029e-06
1.82351e-09
6.27024e-06
2.05096e-09
6.27018e-06
2.56318e-09
6.27013e-06
2.82658e-09
6.27007e-06
3.38885e-09
6.27002e-06
3.70099e-09
6.26998e-06
4.32279e-09
6.26994e-06
4.69496e-09
6.26992e-06
5.38271e-09
6.26992e-06
5.8204e-09
6.26994e-06
6.57196e-09
6.27e-06
7.06811e-09
6.27009e-06
7.86557e-09
6.27022e-06