/*--------------------------------*- C++ -*----------------------------------*\
| =========                 |                                                 |
| \\      /  F ield         | OpenFOAM: The Open Source CFD Toolbox           |
|  \\    /   O peration     | Version:  v1912                                 |
|   \\  /    A nd           | Website:  www.openfoam.com                      |
|    \\/     M anipulation  |                                                 |
\*---------------------------------------------------------------------------*/
FoamFile
{
    version     2.0;
    format      ascii;
    class       volVectorField;
    location    "200";
    object      U;
}
// * * * * * * * * * * * * * * * * * * * * * * * * * * * * * * * * * * * * * //

dimensions      [0 1 -1 0 0 0 0];


internalField   nonuniform List<vector> 
10000
(
(0.934944 -0.000808401 0)
(1.0605 -8.44507e-05 0)
(0.93268 -0.000107136 0)
(1.06244 2.3548e-05 0)
(0.931335 -8.4038e-05 0)
(1.06402 4.86982e-05 0)
(0.929707 -8.36863e-05 0)
(1.06566 6.55582e-05 0)
(0.927976 -9.08739e-05 0)
(1.06735 8.21606e-05 0)
(0.926115 -0.000103103 0)
(1.0691 0.000101422 0)
(0.924108 -0.000120892 0)
(1.07088 0.000126094 0)
(0.921922 -0.000146471 0)
(1.07267 0.000160513 0)
(0.919482 -0.000184466 0)
(1.07434 0.000211878 0)
(0.916545 -0.000233215 0)
(1.07512 0.000256386 0)
(0.986131 -0.00157763 0)
(1.01524 -0.000148712 0)
(0.98612 1.32983e-05 0)
(1.01452 -1.99162e-05 0)
(0.987269 3.30786e-05 0)
(1.01331 -2.08353e-05 0)
(0.988339 4.07657e-05 0)
(1.01198 -2.91712e-05 0)
(0.989514 4.84715e-05 0)
(1.01052 -3.95168e-05 0)
(0.990781 5.87463e-05 0)
(1.00891 -5.1946e-05 0)
(0.99214 7.25611e-05 0)
(1.00712 -6.71858e-05 0)
(0.993575 9.1528e-05 0)
(1.00508 -8.62205e-05 0)
(0.995037 0.000119532 0)
(1.00263 -0.000113402 0)
(0.996297 0.000195401 0)
(0.998842 -0.000239045 0)
(0.999395 -0.00171648 0)
(1.00018 -1.04376e-05 0)
(0.998841 6.733e-06 0)
(1.00024 3.8636e-05 0)
(0.999303 -2.33097e-05 0)
(0.999929 3.44388e-05 0)
(0.999563 -3.1501e-05 0)
(0.999609 3.64171e-05 0)
(0.999795 -3.68552e-05 0)
(0.999277 4.10998e-05 0)
(0.999971 -4.0849e-05 0)
(0.998928 4.68034e-05 0)
(1.00008 -4.34194e-05 0)
(0.998549 5.22545e-05 0)
(1.00009 -4.20256e-05 0)
(0.998098 5.49397e-05 0)
(0.999937 -2.80115e-05 0)
(0.997432 4.51229e-05 0)
(0.999368 6.01598e-05 0)
(0.995762 -4.34614e-05 0)
(1.00045 -0.00162225 0)
(0.998518 -6.89635e-05 0)
(0.999636 2.87316e-05 0)
(0.99883 -3.38897e-05 0)
(0.99981 1.66872e-05 0)
(0.998788 -2.93152e-05 0)
(0.999791 2.53098e-05 0)
(0.99873 -2.74958e-05 0)
(0.999757 3.10412e-05 0)
(0.998648 -2.66132e-05 0)
(0.999686 3.55037e-05 0)
(0.998534 -2.5141e-05 0)
(0.999569 3.87847e-05 0)
(0.998369 -2.11521e-05 0)
(0.99938 4.10753e-05 0)
(0.998105 -1.13861e-05 0)
(0.999059 4.47325e-05 0)
(0.997595 8.8287e-06 0)
(0.998361 9.71027e-05 0)
(0.996097 9.99029e-05 0)
(1.00012 -0.00159499 0)
(0.998857 -5.49361e-05 0)
(0.999289 -3.45459e-06 0)
(0.999181 1.11953e-05 0)
(0.999415 -1.24362e-05 0)
(0.999169 1.92341e-05 0)
(0.999354 -8.45147e-06 0)
(0.999136 1.96644e-05 0)
(0.999283 -6.63956e-06 0)
(0.999075 1.85946e-05 0)
(0.99918 -2.64168e-06 0)
(0.998976 1.63456e-05 0)
(0.999035 5.2245e-06 0)
(0.998822 1.23255e-05 0)
(0.998824 2.02778e-05 0)
(0.998566 5.95201e-06 0)
(0.998482 5.12742e-05 0)
(0.998062 -3.70551e-06 0)
(0.997771 0.000164962 0)
(0.99661 0.000106207 0)
(1.0001 -0.00151221 0)
(0.998945 -9.38728e-05 0)
(0.999291 2.68221e-05 0)
(0.99924 -1.46368e-05 0)
(0.99942 1.08962e-05 0)
(0.999222 -9.7085e-06 0)
(0.999364 1.34572e-05 0)
(0.999181 -7.94387e-06 0)
(0.999299 1.45309e-05 0)
(0.99911 -4.83498e-06 0)
(0.999203 1.64186e-05 0)
(0.999002 -4.51096e-07 0)
(0.999066 1.97459e-05 0)
(0.998836 4.97147e-06 0)
(0.998863 2.81168e-05 0)
(0.998569 1.03455e-05 0)
(0.99853 5.48636e-05 0)
(0.998054 8.2162e-06 0)
(0.997829 0.00020028 0)
(0.996632 0.000114347 0)
(1.00012 -0.00146744 0)
(0.998975 -9.21578e-05 0)
(0.99934 1.33799e-05 0)
(0.999248 -1.42458e-06 0)
(0.999466 -3.81449e-06 0)
(0.999231 4.35523e-06 0)
(0.999409 3.36457e-06 0)
(0.999191 5.37464e-06 0)
(0.999343 8.61853e-06 0)
(0.999122 5.63354e-06 0)
(0.999246 1.51582e-05 0)
(0.999014 5.76303e-06 0)
(0.999107 2.39888e-05 0)
(0.99885 6.66583e-06 0)
(0.998903 3.82961e-05 0)
(0.998584 9.72628e-06 0)
(0.998568 7.02169e-05 0)
(0.998072 1.28043e-05 0)
(0.997867 0.000232278 0)
(0.9967 0.000143621 0)
(1.00022 -0.00139431 0)
(0.998934 -0.00011552 0)
(0.999459 2.34231e-05 0)
(0.999185 -9.80632e-06 0)
(0.999583 3.77212e-06 0)
(0.999169 -1.29152e-06 0)
(0.999524 9.84665e-06 0)
(0.99913 1.44659e-06 0)
(0.999457 1.29255e-05 0)
(0.999062 3.68283e-06 0)
(0.999358 1.7786e-05 0)
(0.998956 5.94558e-06 0)
(0.999218 2.63001e-05 0)
(0.998792 8.26203e-06 0)
(0.999013 4.32441e-05 0)
(0.998527 1.08878e-05 0)
(0.998678 8.37146e-05 0)
(0.998018 1.31338e-05 0)
(0.997978 0.000270651 0)
(0.996694 0.000171358 0)
(1.00038 -0.00133091 0)
(0.998812 -0.000124355 0)
(0.999654 2.15311e-05 0)
(0.999036 -6.92366e-06 0)
(0.999778 1.38358e-06 0)
(0.999019 7.35949e-07 0)
(0.999721 9.54724e-06 0)
(0.998977 2.6147e-06 0)
(0.999657 1.46159e-05 0)
(0.998906 4.43495e-06 0)
(0.999561 2.14567e-05 0)
(0.998797 6.84256e-06 0)
(0.999424 3.16889e-05 0)
(0.99863 1.01041e-05 0)
(0.999222 5.06872e-05 0)
(0.998362 1.42919e-05 0)
(0.99889 9.69846e-05 0)
(0.997853 1.79011e-05 0)
(0.998197 0.000309519 0)
(0.996574 0.000199652 0)
(1.00038 -0.00125717 0)
(0.998856 -0.000138343 0)
(0.999682 2.47435e-05 0)
(0.999059 -8.44628e-06 0)
(0.999801 2.54358e-06 0)
(0.999045 3.43111e-07 0)
(0.999741 1.1322e-05 0)
(0.999007 3.14096e-06 0)
(0.999673 1.6809e-05 0)
(0.998939 5.41028e-06 0)
(0.999574 2.45308e-05 0)
(0.998833 7.89669e-06 0)
(0.999434 3.64517e-05 0)
(0.99867 1.11652e-05 0)
(0.999228 5.84335e-05 0)
(0.998406 1.59645e-05 0)
(0.998893 0.000110942 0)
(0.997903 2.23461e-05 0)
(0.998199 0.000346942 0)
(0.996679 0.000228554 0)
(1.00039 -0.00118602 0)
(0.998906 -0.000149713 0)
(0.999713 2.52365e-05 0)
(0.999085 -8.63004e-06 0)
(0.999828 2.68575e-06 0)
(0.999073 4.3185e-07 0)
(0.999767 1.28414e-05 0)
(0.999035 3.49956e-06 0)
(0.999698 1.90967e-05 0)
(0.998969 6.10949e-06 0)
(0.999597 2.77755e-05 0)
(0.998864 9.10928e-06 0)
(0.999456 4.12733e-05 0)
(0.998702 1.297e-05 0)
(0.999249 6.63732e-05 0)
(0.99844 1.84716e-05 0)
(0.998912 0.000125964 0)
(0.997941 2.76935e-05 0)
(0.998221 0.000384798 0)
(0.996767 0.00025964 0)
(1.00044 -0.00111272 0)
(0.998908 -0.000160762 0)
(0.999792 2.60128e-05 0)
(0.999062 -8.72827e-06 0)
(0.999904 3.10664e-06 0)
(0.999052 6.99013e-07 0)
(0.999842 1.43962e-05 0)
(0.999014 4.14225e-06 0)
(0.999772 2.14926e-05 0)
(0.998948 7.05102e-06 0)
(0.999672 3.13211e-05 0)
(0.998843 1.04494e-05 0)
(0.99953 4.649e-05 0)
(0.998681 1.49265e-05 0)
(0.999322 7.45639e-05 0)
(0.99842 2.14102e-05 0)
(0.998985 0.000141131 0)
(0.997926 3.39624e-05 0)
(0.998299 0.00042205 0)
(0.996801 0.000292178 0)
(1.0005 -0.00103755 0)
(0.998897 -0.000170363 0)
(0.999883 2.6385e-05 0)
(0.999028 -8.79421e-06 0)
(0.999991 3.59857e-06 0)
(0.999018 7.79718e-07 0)
(0.999928 1.60843e-05 0)
(0.998981 4.65545e-06 0)
(0.999858 2.4048e-05 0)
(0.998915 7.90886e-06 0)
(0.999757 3.50741e-05 0)
(0.99881 1.16789e-05 0)
(0.999614 5.20883e-05 0)
(0.998649 1.67012e-05 0)
(0.999406 8.34225e-05 0)
(0.998389 2.42527e-05 0)
(0.999069 0.000157196 0)
(0.9979 4.08439e-05 0)
(0.998387 0.00045933 0)
(0.996825 0.000325671 0)
(1.00055 -0.000960212 0)
(0.998896 -0.000178516 0)
(0.999963 2.62445e-05 0)
(0.999003 -8.62838e-06 0)
(1.00007 4.04937e-06 0)
(0.998995 1.03357e-06 0)
(1 1.77553e-05 0)
(0.998958 5.40873e-06 0)
(0.999933 2.65979e-05 0)
(0.998892 9.07364e-06 0)
(0.999831 3.88067e-05 0)
(0.998788 1.33451e-05 0)
(0.999688 5.76673e-05 0)
(0.998628 1.90604e-05 0)
(0.999479 9.23393e-05 0)
(0.998369 2.78535e-05 0)
(0.999141 0.000173435 0)
(0.997886 4.92024e-05 0)
(0.998465 0.000495551 0)
(0.996862 0.000361022 0)
(1.00058 -0.000881465 0)
(0.998916 -0.000185311 0)
(1.00002 2.57428e-05 0)
(0.999001 -8.38239e-06 0)
(1.00012 4.69469e-06 0)
(0.998993 1.19266e-06 0)
(1.00006 1.96651e-05 0)
(0.998957 6.02103e-06 0)
(0.999987 2.94915e-05 0)
(0.998891 1.00552e-05 0)
(0.999884 4.3019e-05 0)
(0.998788 1.47913e-05 0)
(0.99974 6.38612e-05 0)
(0.998629 2.12183e-05 0)
(0.99953 0.000102009 0)
(0.998371 3.14045e-05 0)
(0.999191 0.00019057 0)
(0.997895 5.81909e-05 0)
(0.998521 0.000531419 0)
(0.996922 0.000397255 0)
(1.0006 -0.000802182 0)
(0.998947 -0.000190691 0)
(1.00007 2.4701e-05 0)
(0.999008 -7.93802e-06 0)
(1.00017 5.29615e-06 0)
(0.999002 1.50937e-06 0)
(1.0001 2.14614e-05 0)
(0.998966 6.91532e-06 0)
(1.00003 3.22461e-05 0)
(0.998901 1.14273e-05 0)
(0.999926 4.70803e-05 0)
(0.998799 1.67428e-05 0)
(0.999781 6.9937e-05 0)
(0.998641 2.40159e-05 0)
(0.99957 0.000111638 0)
(0.998385 3.58478e-05 0)
(0.99923 0.000207707 0)
(0.997916 6.88569e-05 0)
(0.998568 0.000565911 0)
(0.996993 0.000435217 0)
(1.00063 -0.000722307 0)
(0.99896 -0.000194464 0)
(1.00014 2.32514e-05 0)
(0.999 -7.3897e-06 0)
(1.00022 6.10339e-06 0)
(0.998996 1.76163e-06 0)
(1.00016 2.35494e-05 0)
(0.99896 7.69372e-06 0)
(1.00009 3.54153e-05 0)
(0.998896 1.26322e-05 0)
(0.999982 5.16858e-05 0)
(0.998794 1.84979e-05 0)
(0.999836 7.66927e-05 0)
(0.998637 2.66451e-05 0)
(0.999624 0.000122088 0)
(0.998385 4.03195e-05 0)
(0.999284 0.000225714 0)
(0.997923 8.0324e-05 0)
(0.99863 0.000599774 0)
(0.99705 0.000473854 0)
(1.00067 -0.000641206 0)
(0.998966 -0.000196555 0)
(1.0002 2.13872e-05 0)
(0.998986 -6.72329e-06 0)
(1.00029 6.88349e-06 0)
(0.998983 2.13701e-06 0)
(1.00022 2.55102e-05 0)
(0.998948 8.76405e-06 0)
(1.00015 3.8418e-05 0)
(0.998885 1.42724e-05 0)
(1.00004 5.60921e-05 0)
(0.998784 2.08435e-05 0)
(0.999895 8.32502e-05 0)
(0.99863 3.00478e-05 0)
(0.999682 0.000132373 0)
(0.998379 4.58817e-05 0)
(0.999342 0.000243507 0)
(0.997927 9.37232e-05 0)
(0.998697 0.000631822 0)
(0.997103 0.000514081 0)
(1.00072 -0.000558299 0)
(0.998952 -0.000196729 0)
(1.00029 1.91605e-05 0)
(0.998954 -5.79097e-06 0)
(1.00037 7.84423e-06 0)
(0.998953 2.51482e-06 0)
(1.0003 2.77028e-05 0)
(0.998918 9.72718e-06 0)
(1.00022 4.18099e-05 0)
(0.998856 1.57264e-05 0)
(1.00012 6.10629e-05 0)
(0.998757 2.29539e-05 0)
(0.99997 9.05436e-05 0)
(0.998604 3.32459e-05 0)
(0.999756 0.000143541 0)
(0.998357 5.14839e-05 0)
(0.999416 0.000262157 0)
(0.997913 0.000107957 0)
(0.998781 0.000663059 0)
(0.997138 0.0005546 0)
(1.00079 -0.000471997 0)
(0.998929 -0.000195668 0)
(1.00038 1.65198e-05 0)
(0.99891 -4.77562e-06 0)
(1.00046 8.96043e-06 0)
(0.998908 3.12525e-06 0)
(1.00039 2.98694e-05 0)
(0.998872 1.11066e-05 0)
(1.00032 4.50575e-05 0)
(0.99881 1.77658e-05 0)
(1.00021 6.57891e-05 0)
(0.998712 2.58408e-05 0)
(1.00006 9.75356e-05 0)
(0.99856 3.74538e-05 0)
(0.999846 0.000154377 0)
(0.998316 5.84961e-05 0)
(0.999506 0.000280294 0)
(0.997884 0.000124473 0)
(0.998882 0.000692001 0)
(0.997157 0.000596626 0)
(1.00089 -0.000380081 0)
(0.998863 -0.000192721 0)
(1.00051 1.31102e-05 0)
(0.998834 -4.08925e-06 0)
(1.00057 1.0078e-05 0)
(0.998838 3.42985e-06 0)
(1.0005 3.22682e-05 0)
(0.998808 1.21574e-05 0)
(1.00042 4.87827e-05 0)
(0.998752 1.94283e-05 0)
(1.00031 7.1208e-05 0)
(0.998659 2.83294e-05 0)
(1.00016 0.0001054 0)
(0.998512 4.13373e-05 0)
(0.999942 0.000166196 0)
(0.998273 6.55126e-05 0)
(0.999602 0.000299255 0)
(0.997851 0.000141815 0)
(0.998992 0.000719947 0)
(0.997169 0.000638456 0)
(1.00098 -0.000282131 0)
(0.998798 -0.000185661 0)
(1.00066 1.01072e-05 0)
(0.998727 -2.63131e-06 0)
(1.00074 1.10555e-05 0)
(0.998707 4.50733e-06 0)
(1.00069 3.41533e-05 0)
(0.998658 1.41535e-05 0)
(1.00063 5.18341e-05 0)
(0.99859 2.21987e-05 0)
(1.00053 7.58642e-05 0)
(0.998491 3.20929e-05 0)
(1.00038 0.000112486 0)
(0.998344 4.67023e-05 0)
(1.00016 0.000177251 0)
(0.99811 7.43948e-05 0)
(0.999816 0.000317278 0)
(0.997705 0.000161741 0)
(0.999212 0.000745283 0)
(0.997074 0.000681381 0)
(1.00069 -0.000190037 0)
(0.999114 -0.000179184 0)
(1.00042 9.84052e-06 0)
(0.998996 -3.35904e-06 0)
(1.00054 1.45822e-05 0)
(0.998935 3.49711e-06 0)
(1.00053 3.82923e-05 0)
(0.998839 1.43143e-05 0)
(1.00051 5.69234e-05 0)
(0.998722 2.34754e-05 0)
(1.00046 8.23195e-05 0)
(0.998572 3.47668e-05 0)
(1.00036 0.000121115 0)
(0.998375 5.14685e-05 0)
(1.00019 0.000189554 0)
(0.998095 8.33753e-05 0)
(0.999893 0.000335994 0)
(0.997653 0.000182724 0)
(0.999351 0.000769234 0)
(0.997025 0.000723971 0)
(1.00024 -0.000125479 0)
(0.999583 -0.00017516 0)
(0.999987 9.12688e-06 0)
(0.999465 -5.19292e-06 0)
(1.00009 1.89448e-05 0)
(0.999406 1.36274e-06 0)
(1.00008 4.38316e-05 0)
(0.999309 1.30421e-05 0)
(1.00006 6.39487e-05 0)
(0.999186 2.29987e-05 0)
(1.00002 9.1153e-05 0)
(0.999027 3.54626e-05 0)
(0.999928 0.000132454 0)
(0.998817 5.42257e-05 0)
(0.999774 0.000204698 0)
(0.998523 9.06899e-05 0)
(0.9995 0.00035719 0)
(0.998075 0.000202805 0)
(0.998993 0.000793563 0)
(0.997472 0.000764217 0)
(0.999971 -9.04114e-05 0)
(0.999871 -0.000171324 0)
(0.999713 7.72612e-06 0)
(0.99977 -6.04316e-06 0)
(0.999788 2.26881e-05 0)
(0.999733 4.5155e-07 0)
(0.999758 4.85414e-05 0)
(0.999657 1.30904e-05 0)
(0.99972 7.00546e-05 0)
(0.999554 2.39631e-05 0)
(0.999653 9.90269e-05 0)
(0.999416 3.7741e-05 0)
(0.999546 0.000142833 0)
(0.999226 5.87685e-05 0)
(0.999375 0.00021886 0)
(0.998952 0.000100184 0)
(0.999088 0.000377087 0)
(0.99853 0.000225543 0)
(0.998587 0.000814918 0)
(0.997979 0.000804917 0)
(0.999882 -7.23965e-05 0)
(0.999975 -0.0001653 0)
(0.999631 6.25554e-06 0)
(0.999884 -6.08143e-06 0)
(0.999686 2.59167e-05 0)
(0.999861 2.45872e-07 0)
(0.999643 5.2739e-05 0)
(0.999798 1.37525e-05 0)
(0.999591 7.58166e-05 0)
(0.99971 2.55151e-05 0)
(0.999509 0.00010672 0)
(0.999587 4.06517e-05 0)
(0.999387 0.000153158 0)
(0.999414 6.41202e-05 0)
(0.999202 0.000232979 0)
(0.999158 0.000110907 0)
(0.998904 0.000396597 0)
(0.998763 0.000249906 0)
(0.998409 0.000834378 0)
(0.998262 0.00084464 0)
(0.999872 -6.03494e-05 0)
(1 -0.000157836 0)
(0.999635 4.92416e-06 0)
(0.99991 -6.01148e-06 0)
(0.999679 2.88631e-05 0)
(0.999891 5.76783e-07 0)
(0.999632 5.65087e-05 0)
(0.999833 1.52165e-05 0)
(0.999575 8.10552e-05 0)
(0.999752 2.8136e-05 0)
(0.999487 0.00011378 0)
(0.999635 4.49202e-05 0)
(0.99936 0.000162731 0)
(0.999469 7.11957e-05 0)
(0.99917 0.000246163 0)
(0.999223 0.000123892 0)
(0.99887 0.000414675 0)
(0.998846 0.000276865 0)
(0.99839 0.000850914 0)
(0.998386 0.000884151 0)
(0.999882 -5.01872e-05 0)
(1 -0.000149549 0)
(0.999662 3.78477e-06 0)
(0.999912 -5.94613e-06 0)
(0.999698 3.19678e-05 0)
(0.999895 1.03897e-06 0)
(0.99965 6.05026e-05 0)
(0.999838 1.67306e-05 0)
(0.999592 8.66449e-05 0)
(0.999758 3.07939e-05 0)
(0.999503 0.000121293 0)
(0.999643 4.93038e-05 0)
(0.999374 0.000172807 0)
(0.999481 7.86217e-05 0)
(0.999184 0.000259754 0)
(0.999241 0.000137691 0)
(0.998887 0.000432673 0)
(0.998879 0.000304839 0)
(0.998428 0.000865915 0)
(0.998456 0.000921848 0)
(0.999896 -4.06787e-05 0)
(1 -0.000141015 0)
(0.999692 3.05253e-06 0)
(0.999911 -5.8994e-06 0)
(0.999721 3.51352e-05 0)
(0.999894 1.79873e-06 0)
(0.999673 6.44003e-05 0)
(0.999837 1.87087e-05 0)
(0.999614 9.20672e-05 0)
(0.999758 3.41421e-05 0)
(0.999525 0.000128561 0)
(0.999645 5.46552e-05 0)
(0.999397 0.000182533 0)
(0.999484 8.73821e-05 0)
(0.999207 0.0002728 0)
(0.99925 0.000153307 0)
(0.998916 0.000449611 0)
(0.998901 0.000334613 0)
(0.998479 0.000878614 0)
(0.998513 0.000958218 0)
(0.999908 -3.18979e-05 0)
(1 -0.000132161 0)
(0.999721 2.73809e-06 0)
(0.99991 -5.87001e-06 0)
(0.999743 3.84798e-05 0)
(0.999893 2.66124e-06 0)
(0.999696 6.85334e-05 0)
(0.999836 2.07542e-05 0)
(0.999637 9.78322e-05 0)
(0.999758 3.76073e-05 0)
(0.999547 0.000136234 0)
(0.999646 6.02576e-05 0)
(0.999419 0.000192657 0)
(0.999487 9.66751e-05 0)
(0.999232 0.000286079 0)
(0.999258 0.00016988 0)
(0.998946 0.000466256 0)
(0.998923 0.000365174 0)
(0.998533 0.000889877 0)
(0.998568 0.000992208 0)
(0.99992 -2.37151e-05 0)
(1 -0.000123207 0)
(0.999749 2.88695e-06 0)
(0.99991 -5.82318e-06 0)
(0.999764 4.18633e-05 0)
(0.999892 3.8492e-06 0)
(0.999717 7.26044e-05 0)
(0.999836 2.32673e-05 0)
(0.999657 0.00010348 0)
(0.999758 4.17429e-05 0)
(0.999568 0.000143721 0)
(0.999648 6.67957e-05 0)
(0.999441 0.000202489 0)
(0.999492 0.000107254 0)
(0.999255 0.000298861 0)
(0.999268 0.000188118 0)
(0.998977 0.000481913 0)
(0.998947 0.000396975 0)
(0.998588 0.000899252 0)
(0.998623 0.00102409 0)
(0.99993 -1.62846e-05 0)
(1 -0.000114118 0)
(0.999774 3.4958e-06 0)
(0.999911 -5.73894e-06 0)
(0.999783 4.53789e-05 0)
(0.999893 5.22337e-06 0)
(0.999736 7.68492e-05 0)
(0.999837 2.59615e-05 0)
(0.999676 0.00010936 0)
(0.99976 4.61637e-05 0)
(0.999588 0.000151457 0)
(0.999651 7.38028e-05 0)
(0.999461 0.000212517 0)
(0.999497 0.000118603 0)
(0.999277 0.000311641 0)
(0.999279 0.000207436 0)
(0.999007 0.000497085 0)
(0.998973 0.000429243 0)
(0.998643 0.00090737 0)
(0.998678 0.00105315 0)
(0.999938 -9.53905e-06 0)
(1 -0.000105055 0)
(0.999798 4.57157e-06 0)
(0.999913 -5.5529e-06 0)
(0.9998 4.88985e-05 0)
(0.999895 6.96353e-06 0)
(0.999754 8.10366e-05 0)
(0.999838 2.91429e-05 0)
(0.999694 0.000115139 0)
(0.999762 5.12685e-05 0)
(0.999606 0.000159027 0)
(0.999654 8.17519e-05 0)
(0.99948 0.00022227 0)
(0.999504 0.00013121 0)
(0.999299 0.000323948 0)
(0.999291 0.000228224 0)
(0.999037 0.000511364 0)
(0.999 0.00046211 0)
(0.998698 0.000914063 0)
(0.998733 0.00107946 0)
(0.999946 -3.55724e-06 0)
(1 -9.60321e-05 0)
(0.999819 6.10853e-06 0)
(0.999916 -5.24348e-06 0)
(0.999816 5.24845e-05 0)
(0.999897 8.97756e-06 0)
(0.99977 8.53304e-05 0)
(0.999841 3.26264e-05 0)
(0.99971 0.000121041 0)
(0.999766 5.68195e-05 0)
(0.999622 0.000166703 0)
(0.999659 9.03548e-05 0)
(0.999498 0.000232048 0)
(0.999511 0.000144744 0)
(0.99932 0.000336087 0)
(0.999305 0.00025006 0)
(0.999067 0.000525084 0)
(0.999028 0.000494963 0)
(0.998754 0.000919785 0)
(0.998788 0.00110259 0)
(0.999953 1.71648e-06 0)
(1 -8.71684e-05 0)
(0.999839 8.07836e-06 0)
(0.999919 -4.73417e-06 0)
(0.99983 5.60314e-05 0)
(0.999899 1.14062e-05 0)
(0.999785 8.95597e-05 0)
(0.999844 3.66362e-05 0)
(0.999725 0.000126836 0)
(0.99977 6.30838e-05 0)
(0.999638 0.000174209 0)
(0.999665 9.9911e-05 0)
(0.999514 0.000241557 0)
(0.99952 0.000159476 0)
(0.999341 0.000347793 0)
(0.99932 0.000273076 0)
(0.999098 0.000538066 0)
(0.999058 0.000527703 0)
(0.99881 0.000924545 0)
(0.998843 0.00112256 0)
(0.999958 6.26188e-06 0)
(1 -7.84976e-05 0)
(0.999856 1.04572e-05 0)
(0.999923 -3.99282e-06 0)
(0.999843 5.9573e-05 0)
(0.999903 1.41965e-05 0)
(0.999799 9.38271e-05 0)
(0.999847 4.10634e-05 0)
(0.999739 0.000132655 0)
(0.999774 6.993e-05 0)
(0.999652 0.000181704 0)
(0.999671 0.00011025 0)
(0.99953 0.000250972 0)
(0.999529 0.000175183 0)
(0.99936 0.000359255 0)
(0.999336 0.000296937 0)
(0.999128 0.000550539 0)
(0.999089 0.000559832 0)
(0.998865 0.000928661 0)
(0.998898 0.00113916 0)
(0.999963 1.01342e-05 0)
(1 -7.01028e-05 0)
(0.999872 1.31888e-05 0)
(0.999928 -2.94495e-06 0)
(0.999855 6.30273e-05 0)
(0.999906 1.74455e-05 0)
(0.999811 9.80155e-05 0)
(0.999851 4.60551e-05 0)
(0.999751 0.000138351 0)
(0.999779 7.75231e-05 0)
(0.999665 0.000189024 0)
(0.999678 0.000121537 0)
(0.999546 0.000260137 0)
(0.999539 0.00019197 0)
(0.99938 0.000370363 0)
(0.999352 0.000321588 0)
(0.999159 0.000562472 0)
(0.99912 0.000591124 0)
(0.998921 0.000932216 0)
(0.998952 0.00115243 0)
(0.999967 1.33505e-05 0)
(1 -6.20128e-05 0)
(0.999886 1.62261e-05 0)
(0.999933 -1.54823e-06 0)
(0.999866 6.6408e-05 0)
(0.99991 2.11341e-05 0)
(0.999822 0.000102181 0)
(0.999856 5.15614e-05 0)
(0.999762 0.000143993 0)
(0.999784 8.57921e-05 0)
(0.999678 0.000196255 0)
(0.999685 0.000133658 0)
(0.99956 0.000269157 0)
(0.99955 0.000209652 0)
(0.9994 0.000381247 0)
(0.99937 0.000346717 0)
(0.999191 0.000574036 0)
(0.999153 0.000621178 0)
(0.998976 0.000935409 0)
(0.999007 0.00116236 0)
(0.999971 1.59714e-05 0)
(1 -5.42741e-05 0)
(0.999899 1.94937e-05 0)
(0.999938 2.60932e-07 0)
(0.999875 6.9659e-05 0)
(0.999914 2.53225e-05 0)
(0.999832 0.000106252 0)
(0.99986 5.7674e-05 0)
(0.999773 0.000149499 0)
(0.99979 9.48172e-05 0)
(0.999689 0.000203316 0)
(0.999692 0.000146669 0)
(0.999574 0.000277976 0)
(0.999561 0.000228202 0)
(0.999419 0.000391901 0)
(0.999389 0.000372143 0)
(0.999222 0.000585277 0)
(0.999187 0.000649738 0)
(0.999031 0.000938316 0)
(0.999061 0.00116908 0)
(0.999974 1.80336e-05 0)
(1 -4.6893e-05 0)
(0.99991 2.29231e-05 0)
(0.999943 2.52553e-06 0)
(0.999884 7.27827e-05 0)
(0.999918 3.00068e-05 0)
(0.999841 0.000110255 0)
(0.999865 6.43662e-05 0)
(0.999782 0.000154904 0)
(0.999796 0.000104553 0)
(0.9997 0.000210264 0)
(0.9997 0.00016047 0)
(0.999588 0.000286677 0)
(0.999573 0.000247431 0)
(0.999439 0.000402434 0)
(0.999408 0.000397564 0)
(0.999255 0.000596318 0)
(0.999221 0.000676501 0)
(0.999085 0.000941023 0)
(0.999115 0.00117274 0)
(0.999976 1.9599e-05 0)
(1.00001 -3.98815e-05 0)
(0.99992 2.64296e-05 0)
(0.999948 5.28908e-06 0)
(0.999891 7.57471e-05 0)
(0.999922 3.52154e-05 0)
(0.99985 0.000114152 0)
(0.99987 7.16824e-05 0)
(0.999791 0.000160175 0)
(0.999802 0.000115012 0)
(0.999711 0.000217082 0)
(0.999709 0.000175028 0)
(0.999602 0.000295273 0)
(0.999585 0.000267216 0)
(0.999459 0.000412898 0)
(0.999428 0.000422736 0)
(0.999287 0.000607218 0)
(0.999256 0.000701262 0)
(0.999138 0.000943544 0)
(0.999168 0.00117356 0)
(0.999978 2.0707e-05 0)
(1.00001 -3.3219e-05 0)
(0.999928 2.99353e-05 0)
(0.999953 8.58131e-06 0)
(0.999898 7.85558e-05 0)
(0.999926 4.09419e-05 0)
(0.999858 0.000117962 0)
(0.999875 7.95936e-05 0)
(0.9998 0.000165343 0)
(0.999808 0.000126141 0)
(0.999721 0.000223827 0)
(0.999717 0.000190226 0)
(0.999615 0.000303847 0)
(0.999598 0.000287349 0)
(0.99948 0.000423386 0)
(0.999449 0.000447374 0)
(0.999321 0.000618044 0)
(0.999292 0.000723835 0)
(0.999191 0.000945862 0)
(0.999221 0.00117177 0)
(0.99998 2.14127e-05 0)
(1.00001 -2.68883e-05 0)
(0.999935 3.33622e-05 0)
(0.999958 1.24175e-05 0)
(0.999905 8.12034e-05 0)
(0.999929 4.71859e-05 0)
(0.999865 0.000121678 0)
(0.999879 8.81038e-05 0)
(0.999808 0.000170419 0)
(0.999814 0.00013789 0)
(0.999731 0.000230524 0)
(0.999726 0.000205958 0)
(0.999629 0.000312451 0)
(0.999611 0.000307644 0)
(0.9995 0.000433958 0)
(0.999471 0.000471228 0)
(0.999354 0.000628813 0)
(0.999328 0.000744114 0)
(0.999243 0.000947917 0)
(0.999273 0.00116768 0)
(0.999982 2.17512e-05 0)
(1.00001 -2.08479e-05 0)
(0.999942 3.66396e-05 0)
(0.999962 1.68005e-05 0)
(0.999911 8.37028e-05 0)
(0.999933 5.39235e-05 0)
(0.999871 0.000125324 0)
(0.999884 9.71591e-05 0)
(0.999816 0.000175442 0)
(0.99982 0.000150178 0)
(0.999741 0.000237247 0)
(0.999735 0.000222081 0)
(0.999643 0.00032117 0)
(0.999625 0.000327881 0)
(0.999522 0.000444679 0)
(0.999494 0.000494065 0)
(0.999388 0.00063952 0)
(0.999365 0.000762035 0)
(0.999293 0.000949608 0)
(0.999324 0.00116158 0)
(0.999983 2.17689e-05 0)
(1.00001 -1.50641e-05 0)
(0.999947 3.97126e-05 0)
(0.999966 2.17112e-05 0)
(0.999917 8.60729e-05 0)
(0.999937 6.11276e-05 0)
(0.999878 0.000128919 0)
(0.999889 0.000106726 0)
(0.999823 0.000180455 0)
(0.999826 0.00016291 0)
(0.999751 0.000244042 0)
(0.999744 0.000238439 0)
(0.999657 0.00033006 0)
(0.999639 0.000347856 0)
(0.999543 0.000455575 0)
(0.999517 0.000515681 0)
(0.999422 0.000650111 0)
(0.999402 0.00077761 0)
(0.999343 0.00095082 0)
(0.999374 0.00115376 0)
(0.999984 2.14941e-05 0)
(1.00001 -9.49087e-06 0)
(0.999952 4.25357e-05 0)
(0.99997 2.71151e-05 0)
(0.999922 8.83434e-05 0)
(0.99994 6.87447e-05 0)
(0.999884 0.0001325 0)
(0.999894 0.000116716 0)
(0.999831 0.000185516 0)
(0.999833 0.000175971 0)
(0.999761 0.000250995 0)
(0.999753 0.000254873 0)
(0.999672 0.000339193 0)
(0.999654 0.000367365 0)
(0.999566 0.000466656 0)
(0.999541 0.000535919 0)
(0.999456 0.000660506 0)
(0.99944 0.000790883 0)
(0.999391 0.000951415 0)
(0.999423 0.00114451 0)
(0.999985 2.09667e-05 0)
(1.00001 -4.09712e-06 0)
(0.999956 4.50906e-05 0)
(0.999973 3.29562e-05 0)
(0.999927 9.05541e-05 0)
(0.999943 7.67205e-05 0)
(0.99989 0.00013611 0)
(0.999898 0.000127058 0)
(0.999838 0.000190683 0)
(0.999839 0.000189232 0)
(0.999771 0.00025815 0)
(0.999763 0.000271208 0)
(0.999687 0.00034859 0)
(0.999669 0.000386224 0)
(0.999588 0.000477885 0)
(0.999565 0.000554657 0)
(0.99949 0.00067058 0)
(0.999477 0.000801958 0)
(0.999438 0.000951264 0)
(0.999471 0.00113409 0)
(0.999986 2.02162e-05 0)
(1.00001 1.1491e-06 0)
(0.99996 4.73706e-05 0)
(0.999976 3.9162e-05 0)
(0.999931 9.27506e-05 0)
(0.999947 8.49719e-05 0)
(0.999895 0.0001398 0)
(0.999903 0.000137634 0)
(0.999846 0.000196024 0)
(0.999846 0.00020256 0)
(0.999782 0.000265581 0)
(0.999773 0.000287288 0)
(0.999702 0.000358282 0)
(0.999685 0.000404277 0)
(0.999611 0.0004892 0)
(0.99959 0.000571826 0)
(0.999524 0.000680193 0)
(0.999515 0.000810952 0)
(0.999483 0.000950238 0)
(0.999518 0.00112271 0)
(0.999987 1.92836e-05 0)
(1.00001 6.26068e-06 0)
(0.999963 4.93979e-05 0)
(0.999979 4.56463e-05 0)
(0.999936 9.49849e-05 0)
(0.99995 9.34223e-05 0)
(0.999901 0.000143619 0)
(0.999907 0.000148349 0)
(0.999853 0.00020159 0)
(0.999853 0.000215818 0)
(0.999792 0.000273304 0)
(0.999783 0.000302959 0)
(0.999718 0.000368231 0)
(0.999702 0.000421391 0)
(0.999634 0.000500489 0)
(0.999616 0.00058739 0)
(0.999558 0.000689183 0)
(0.999552 0.000818014 0)
(0.999528 0.000948241 0)
(0.999563 0.00111056 0)
(0.999988 1.82047e-05 0)
(1.00001 1.1242e-05 0)
(0.999966 5.1204e-05 0)
(0.999981 5.23089e-05 0)
(0.99994 9.73091e-05 0)
(0.999953 0.000101969 0)
(0.999906 0.000147622 0)
(0.999912 0.000159072 0)
(0.999861 0.000207434 0)
(0.99986 0.000228874 0)
(0.999803 0.000281349 0)
(0.999794 0.000318092 0)
(0.999734 0.000378401 0)
(0.999719 0.000437473 0)
(0.999658 0.000511627 0)
(0.999642 0.000601351 0)
(0.999592 0.000697392 0)
(0.99959 0.000823282 0)
(0.999571 0.000945194 0)
(0.999607 0.00109776 0)
(0.999988 1.70285e-05 0)
(1.00001 1.60794e-05 0)
(0.999968 5.28429e-05 0)
(0.999983 5.90477e-05 0)
(0.999944 9.97737e-05 0)
(0.999955 0.000110524 0)
(0.999912 0.000151849 0)
(0.999917 0.000169704 0)
(0.999868 0.000213577 0)
(0.999867 0.000241611 0)
(0.999814 0.000289681 0)
(0.999806 0.000332574 0)
(0.99975 0.000388689 0)
(0.999736 0.000452454 0)
(0.999681 0.000522448 0)
(0.999668 0.000613733 0)
(0.999625 0.000704662 0)
(0.999626 0.000826901 0)
(0.999613 0.00094106 0)
(0.99965 0.00108444 0)
(0.999989 1.58043e-05 0)
(1.00001 2.075e-05 0)
(0.99997 5.43711e-05 0)
(0.999985 6.57547e-05 0)
(0.999948 0.000102421 0)
(0.999958 0.000118982 0)
(0.999917 0.000156333 0)
(0.999921 0.000180123 0)
(0.999876 0.000220028 0)
(0.999874 0.000253923 0)
(0.999825 0.000298268 0)
(0.999817 0.000346325 0)
(0.999766 0.000398992 0)
(0.999754 0.000466296 0)
(0.999705 0.000532793 0)
(0.999695 0.000624576 0)
(0.999658 0.000710865 0)
(0.999662 0.000828991 0)
(0.999653 0.000935826 0)
(0.99969 0.00107064 0)
(0.999989 1.45862e-05 0)
(1.00001 2.52205e-05 0)
(0.999972 5.58525e-05 0)
(0.999986 7.23337e-05 0)
(0.999952 0.000105282 0)
(0.999961 0.000127261 0)
(0.999922 0.000161083 0)
(0.999926 0.000190247 0)
(0.999883 0.000226758 0)
(0.999882 0.000265729 0)
(0.999836 0.000307013 0)
(0.999829 0.000359279 0)
(0.999782 0.000409153 0)
(0.999772 0.000478975 0)
(0.999729 0.000542485 0)
(0.999722 0.000633926 0)
(0.99969 0.000715886 0)
(0.999698 0.00082966 0)
(0.999692 0.000929509 0)
(0.999729 0.00105641 0)
(0.99999 1.34245e-05 0)
(1.00001 2.94538e-05 0)
(0.999974 5.73423e-05 0)
(0.999988 7.86929e-05 0)
(0.999955 0.000108369 0)
(0.999964 0.000135276 0)
(0.999927 0.000166091 0)
(0.999931 0.000199988 0)
(0.999891 0.00023372 0)
(0.99989 0.000276961 0)
(0.999848 0.000315824 0)
(0.999842 0.000371393 0)
(0.999799 0.000419032 0)
(0.999791 0.000490483 0)
(0.999752 0.000551373 0)
(0.999748 0.000641825 0)
(0.999722 0.000719656 0)
(0.999732 0.000828991 0)
(0.999729 0.000922148 0)
(0.999767 0.00104178 0)
(0.99999 1.23665e-05 0)
(1.00001 3.34143e-05 0)
(0.999976 5.8888e-05 0)
(0.999989 8.47624e-05 0)
(0.999958 0.000111678 0)
(0.999966 0.000142966 0)
(0.999932 0.000171319 0)
(0.999936 0.000209291 0)
(0.999899 0.000240829 0)
(0.999898 0.000287572 0)
(0.999859 0.00032456 0)
(0.999854 0.000382634 0)
(0.999816 0.000428455 0)
(0.99981 0.000500816 0)
(0.999776 0.00055931 0)
(0.999775 0.000648311 0)
(0.999752 0.000722122 0)
(0.999765 0.000827054 0)
(0.999765 0.000913796 0)
(0.999802 0.00102675 0)
(0.999991 1.14493e-05 0)
(1 3.70717e-05 0)
(0.999977 6.05187e-05 0)
(0.99999 9.04839e-05 0)
(0.999961 0.000115181 0)
(0.999969 0.000150275 0)
(0.999937 0.000176711 0)
(0.999941 0.000218101 0)
(0.999906 0.000247987 0)
(0.999906 0.000297523 0)
(0.99987 0.000333093 0)
(0.999867 0.000392977 0)
(0.999832 0.00043728 0)
(0.999829 0.000509968 0)
(0.999799 0.000566186 0)
(0.999801 0.00065341 0)
(0.999782 0.000723272 0)
(0.999797 0.0008239 0)
(0.999799 0.000904513 0)
(0.999836 0.00101134 0)
(0.999991 1.06993e-05 0)
(1 4.04062e-05 0)
(0.999979 6.22469e-05 0)
(0.999991 9.58234e-05 0)
(0.999964 0.000118833 0)
(0.999972 0.000157169 0)
(0.999942 0.000182186 0)
(0.999946 0.00022639 0)
(0.999914 0.000255073 0)
(0.999915 0.000306786 0)
(0.999882 0.000341268 0)
(0.99988 0.000402397 0)
(0.999849 0.000445354 0)
(0.999848 0.000517926 0)
(0.999821 0.000571906 0)
(0.999826 0.000657142 0)
(0.999811 0.000723104 0)
(0.999828 0.000819576 0)
(0.999831 0.000894361 0)
(0.999868 0.000995538 0)
(0.999991 1.01271e-05 0)
(1 4.34092e-05 0)
(0.99998 6.40632e-05 0)
(0.999992 0.000100759 0)
(0.999967 0.000122572 0)
(0.999975 0.000163619 0)
(0.999947 0.000187651 0)
(0.999951 0.000234124 0)
(0.999922 0.000261965 0)
(0.999923 0.000315328 0)
(0.999893 0.000348955 0)
(0.999893 0.000410864 0)
(0.999865 0.000452564 0)
(0.999867 0.000524676 0)
(0.999844 0.000576415 0)
(0.999851 0.00065952 0)
(0.999838 0.000721648 0)
(0.999857 0.000814119 0)
(0.999862 0.000883399 0)
(0.999898 0.000979354 0)
(0.999992 9.7302e-06 0)
(1 4.60856e-05 0)
(0.999981 6.59426e-05 0)
(0.999993 0.000105286 0)
(0.999969 0.000126321 0)
(0.999978 0.000169608 0)
(0.999951 0.000193 0)
(0.999956 0.000241281 0)
(0.999929 0.000268533 0)
(0.999932 0.00032312 0)
(0.999905 0.000356017 0)
(0.999907 0.000418345 0)
(0.999881 0.0004588 0)
(0.999885 0.000530195 0)
(0.999865 0.000579665 0)
(0.999875 0.000660556 0)
(0.999865 0.000718934 0)
(0.999885 0.000807568 0)
(0.999891 0.00087168 0)
(0.999927 0.000962794 0)
(0.999992 9.4911e-06 0)