/*--------------------------------*- C++ -*----------------------------------*\
| =========                 |                                                 |
| \\      /  F ield         | OpenFOAM: The Open Source CFD Toolbox           |
|  \\    /   O peration     | Version:  v1912                                 |
|   \\  /    A nd           | Website:  www.openfoam.com                      |
|    \\/     M anipulation  |                                                 |
\*---------------------------------------------------------------------------*/
FoamFile
{
    version     2.0;
    format      ascii;
    class       volScalarField;
    location    "300";
    object      k;
}
// * * * * * * * * * * * * * * * * * * * * * * * * * * * * * * * * * * * * * //

dimensions      [0 2 -2 0 0 0 0];


internalField   nonuniform List<scalar> 
10000
(
1e-15
1e-15
1e-15
1.0102e-15
1.14832e-15
1.18854e-15
1.70899e-15
2.07767e-15
2.83264e-15
3.04807e-15
4.28409e-15
4.30581e-15
1.00885e-14
1.18936e-14
1.92978e-14
5.01938e-14
1.89142e-13
2.74667e-13
1.5243e-12
1.61361e-07
1e-15
1e-15
1.03505e-15
1.09467e-15
1.53316e-15
1.86455e-15
3.05977e-15
4.15872e-15
7.9978e-15
1.24094e-14
2.92048e-14
5.72294e-14
1.23649e-13
3.23608e-13
6.49921e-13
1.53736e-12
3.08541e-12
6.80055e-12
9.55517e-12
1.62306e-08
1e-15
1e-15
1e-15
1e-15
1e-15
1e-15
1e-15
1e-15
1e-15
1.06309e-15
1.51599e-15
2.80336e-15
1.31209e-14
1.86812e-14
7.99329e-14
1.17296e-13
1.05544e-12
2.52653e-12
7.10605e-12
2.21468e-07
1e-15
1e-15
1e-15
1e-15
1e-15
1e-15
1e-15
1.00216e-15
1e-15
1e-15
1e-15
1e-15
1.11274e-15
1.28137e-15
5.14288e-15
6.29015e-15
6.48738e-14
1.34546e-13
1.7528e-12
1.25338e-14
1e-15
1e-15
1e-15
1e-15
1e-15
1e-15
1e-15
1e-15
1.00774e-15
1e-15
1e-15
1e-15
1e-15
1e-15
1e-15
1e-15
3.07285e-15
5.90876e-15
1.07828e-13
2.21168e-12
1e-15
1e-15
1e-15
1e-15
1e-15
1e-15
1e-15
1e-15
1e-15
1e-15
1e-15
1.01136e-15
1e-15
1e-15
1e-15
1e-15
1e-15
1e-15
3.72646e-15
9.35117e-12
1e-15
1e-15
1e-15
1e-15
1e-15
1e-15
1e-15
1e-15
1e-15
1e-15
1e-15
1e-15
1.01171e-15
1e-15
1e-15
1e-15
1e-15
1e-15
1e-15
2.50147e-12
1e-15
1e-15
1e-15
1e-15
1e-15
1e-15
1e-15
1e-15
1e-15
1e-15
1e-15
1e-15
1e-15
1.013e-15
1e-15
1e-15
1e-15
1e-15
8.39902e-14
1.05367e-13
1e-15
1e-15
1e-15
1e-15
1e-15
1e-15
1e-15
1e-15
1e-15
1e-15
1e-15
1e-15
1e-15
1e-15
1e-15
1e-15
1e-15
1e-15
2.63523e-15
7.14135e-14
1e-15
1e-15
1e-15
1e-15
1e-15
1e-15
1e-15
1e-15
1e-15
1.01245e-15
1e-15
1e-15
1e-15
1e-15
1e-15
1e-15
1e-15
1e-15
1.00339e-15
1.00003e-15
1e-15
1e-15
1e-15
1e-15
1e-15
1e-15
1e-15
1e-15
1e-15
1e-15
1.01355e-15
1e-15
1e-15
1e-15
1e-15
1e-15
1e-15
1e-15
1e-15
1e-15
1e-15
1e-15
1e-15
1e-15
1e-15
1e-15
1e-15
1e-15
1e-15
1e-15
1e-15
1e-15
1e-15
1e-15
1e-15
1e-15
1e-15
1e-15
1e-15
1e-15
1e-15
1e-15
1e-15
1e-15
1e-15
1e-15
1e-15
1e-15
1e-15
1e-15
1e-15
1e-15
1e-15
1e-15
1e-15
1e-15
1e-15
1e-15
1e-15
1e-15
1e-15
1e-15
1e-15
1e-15
1e-15
1e-15
1.00633e-15
1e-15
1e-15
1e-15
1e-15
1e-15
1e-15
1e-15
1e-15
1e-15
1e-15
1e-15
1e-15
1e-15
1e-15
1e-15
1e-15
1e-15
1e-15
1e-15
1e-15
1e-15
1.01327e-15
1e-15
1e-15
1e-15
1e-15
1e-15
1.00572e-15
1e-15
1e-15
1e-15
1e-15
1e-15
1e-15
1e-15
1e-15
1e-15
1e-15
1e-15
1e-15
1.01118e-15
1e-15
1e-15
1e-15
1e-15
1e-15
1.0055e-15
1e-15
1e-15
1e-15
1e-15
1e-15
1.00652e-15
1e-15
1e-15
1e-15
1e-15
1e-15
1e-15
1.00731e-15
1e-15
1e-15
1e-15
1e-15
1e-15
1e-15
1e-15
1.01527e-15
1e-15
1e-15
1e-15
1e-15
1e-15
1e-15
1e-15
1e-15
1e-15
1e-15
1e-15
1e-15
1.01249e-15
1e-15
1e-15
1e-15
1e-15
1e-15
1.00596e-15
1e-15
1e-15
1e-15
1e-15
1e-15
1e-15
1e-15
1e-15
1e-15
1e-15
1e-15
1e-15
1e-15
1e-15
1.015e-15
1e-15
1e-15
1e-15
1e-15
1e-15
1.00713e-15
1e-15
1e-15
1e-15
1e-15
1e-15
1e-15
1e-15
1e-15
1e-15
1e-15
1e-15
1e-15
1e-15
1e-15
1.01568e-15
1e-15
1e-15
1e-15
1e-15
1e-15
1e-15
1.0154e-15
1e-15
1e-15
1e-15
1e-15
1e-15
1e-15
1e-15
1e-15
1e-15
1e-15
1e-15
1e-15
1e-15
1e-15
1e-15
1e-15
1e-15
1e-15
1e-15
1e-15
1.01525e-15
1e-15
1e-15
1e-15
1e-15
1e-15
1e-15
1e-15
1e-15
1.00836e-15
1e-15
1e-15
1e-15
1e-15
1e-15
1.00567e-15
1e-15
1e-15
1e-15
1e-15
1e-15
1.00851e-15
1e-15
1e-15
1e-15
1e-15
1e-15
1e-15
1e-15
1e-15
1e-15
1e-15
1e-15
1e-15
1.00419e-15
1e-15
1e-15
1e-15
1e-15
1e-15
1e-15
1e-15
1.01508e-15
1e-15
1e-15
1e-15
1e-15
1e-15
1e-15
1e-15
1e-15
1e-15
1e-15
1.00209e-15
1e-15
1e-15
1e-15
1e-15
1e-15
1e-15
1e-15
1e-15
1e-15
1e-15
1e-15
1e-15
1e-15
1e-15
1.00021e-15
1e-15
1e-15
1e-15
1e-15
1e-15
1e-15
1e-15
1e-15
1e-15
1e-15
1e-15
1e-15
1e-15
1e-15
1e-15
1e-15
1e-15
1e-15
1e-15
1e-15
1e-15
1e-15
1e-15
1e-15
1.00267e-15
1e-15
1e-15
1e-15
1e-15
1e-15
1e-15
1e-15
1e-15
1e-15
1e-15
1e-15
1e-15
1e-15
1e-15
1e-15
1e-15
1e-15
1e-15
1e-15
1e-15
1.01734e-15
1e-15
1e-15
1e-15
1e-15
1e-15
1e-15
1e-15
1e-15
1e-15
1e-15
1e-15
1e-15
1e-15
1e-15
1e-15
1e-15
1e-15
1e-15
1e-15
1e-15
1.01667e-15
1e-15
1e-15
1e-15
1e-15
1e-15
1e-15
1e-15
1e-15
1e-15
1e-15
1e-15
1e-15
1e-15
1e-15
1e-15
1e-15
1e-15
1e-15
1e-15
1e-15
1.01693e-15
1e-15
1e-15
1e-15
1e-15
1e-15
1e-15
1e-15
1e-15
1e-15
1e-15
1e-15
1e-15
1.00983e-15
1e-15
1e-15
1e-15
1e-15
1e-15
1e-15
1e-15
1.01656e-15
1e-15
1e-15
1e-15
1e-15
1e-15
1e-15
1e-15
1e-15
1e-15
1e-15
1e-15
1e-15
1e-15
1e-15
1.01711e-15
1e-15
1e-15
1e-15
1.01449e-15
1e-15
1e-15
1e-15
1e-15
1e-15
1.0093e-15
1e-15
1e-15
1e-15
1e-15
1e-15
1e-15
1e-15
1e-15
1.01649e-15
1e-15
1e-15
1e-15
1e-15
1e-15
1.00811e-15
1e-15
1e-15
1e-15
1e-15
1e-15
1e-15
1e-15
1e-15
1e-15
1e-15
1e-15
1e-15
1e-15
1e-15
1.01743e-15
1e-15
1e-15
1e-15
1e-15
1e-15
1.00844e-15
1e-15
1e-15
1e-15
1e-15
1e-15
1e-15
1e-15
1e-15
1e-15
1e-15
1e-15
1e-15
1.01661e-15
1e-15
1e-15
1e-15
1e-15
1e-15
1.00827e-15
1e-15
1e-15
1e-15
1e-15
1e-15
1e-15
1e-15
1e-15
1e-15
1e-15
1e-15
1e-15
1e-15
1.01673e-15
1e-15
1e-15
1e-15
1e-15
1e-15
1e-15
1.00611e-15
1e-15
1e-15
1e-15
1.01429e-15
1e-15
1e-15
1e-15
1e-15
1e-15
1e-15
1e-15
1.01454e-15
1e-15
1e-15
1e-15
1e-15
1e-15
1.00756e-15
1e-15
1e-15
1e-15
1e-15
1e-15
1.01604e-15
1e-15
1e-15
1e-15
1e-15
1e-15
1e-15
1.01025e-15
1e-15
1e-15
1e-15
1e-15
1e-15
1.0069e-15
1e-15
1e-15
1e-15
1e-15
1e-15
1.00935e-15
1e-15
1e-15
1e-15
1e-15
1e-15
1e-15
1e-15
1.01038e-15
1e-15
1e-15
1e-15
1e-15
1e-15
1.00704e-15
1e-15
1e-15
1e-15
1e-15
1e-15
1.01009e-15
1e-15
1e-15
1e-15
1e-15
1e-15
1e-15
1e-15
1.01037e-15
1e-15
1e-15
1e-15
1e-15
1e-15
1.0069e-15
1e-15
1e-15
1e-15
1e-15
1e-15
1.00961e-15
1e-15
1e-15
1e-15
1e-15
1e-15
1e-15
1e-15
1e-15
1e-15
1e-15
1e-15
1e-15
1e-15
1e-15
1e-15
1e-15
1.01621e-15
1e-15
1e-15
1e-15
1.01379e-15
1e-15
1e-15
1e-15
1e-15
1e-15
1e-15
1e-15
1e-15
1.01684e-15
1e-15
1e-15
1e-15
1e-15
1e-15
1.00818e-15
1e-15
1e-15
1e-15
1e-15
1e-15
1e-15
1e-15
1e-15
1e-15
1e-15
1e-15
1e-15
1.01474e-15
1e-15
1e-15
1e-15
1e-15
1e-15
1.01774e-15
1e-15
1e-15
1e-15
1e-15
1e-15
1.00917e-15
1e-15
1e-15
1e-15
1e-15
1e-15
1e-15
1.01044e-15
1e-15
1e-15
1e-15
1e-15
1e-15
1.00693e-15
1e-15
1e-15
1e-15
1e-15
1e-15
1.00947e-15
1e-15
1e-15
1e-15
1e-15
1e-15
1e-15
1e-15
1e-15
1.01484e-15
1e-15
1e-15
1e-15
1.01453e-15
1e-15
1e-15
1e-15
1e-15
1e-15
1.00946e-15
1e-15
1e-15
1e-15
1e-15
1e-15
1e-15
1e-15
1e-15
1e-15
1e-15
1e-15
1e-15
1e-15
1e-15
1.01789e-15
1e-15
1e-15
1e-15
1e-15
1e-15
1.00911e-15
1e-15
1e-15
1e-15
1e-15
1e-15
1e-15
1e-15
1e-15
1e-15
1e-15
1e-15
1e-15
1e-15
1e-15
1.01752e-15
1e-15
1e-15
1e-15
1e-15
1e-15
1.00917e-15
1e-15
1e-15
1e-15
1e-15
1e-15
1e-15
1e-15
1e-15
1.01688e-15
1e-15
1e-15
1e-15
1e-15
1e-15
1.0083e-15
1e-15
1e-15
1e-15
1e-15
1e-15
1e-15
1e-15
1e-15
1e-15
1e-15
1e-15
1e-15
1e-15
1e-15
1.01773e-15
1e-15
1e-15
1e-15
1e-15
1e-15
1.00872e-15
1e-15
1e-15
1e-15
1e-15
1e-15
1e-15
1e-15
1e-15
1e-15
1e-15
1e-15
1e-15
1.01691e-15
1e-15
1e-15
1e-15
1e-15
1e-15
1.00843e-15
1e-15
1e-15
1e-15
1e-15
1e-15
1e-15
1e-15
1e-15
1e-15
1e-15
1e-15
1e-15
1e-15
1e-15
1.01773e-15
1e-15
1e-15
1e-15
1e-15
1e-15
1.00878e-15
1e-15
1e-15
1e-15
1e-15
1e-15
1e-15
1e-15
1e-15
1e-15
1e-15
1e-15
1e-15
1.01692e-15
1e-15
1e-15
1e-15
1e-15
1e-15
1.00841e-15
1e-15
1e-15
1e-15
1e-15
1e-15
1e-15
1e-15
1e-15
1e-15
1e-15
1e-15
1e-15
1e-15
1.01697e-15
1e-15
1e-15
1e-15
1e-15
1e-15
1.00839e-15
1e-15
1e-15
1e-15
1e-15
1e-15
1e-15
1e-15
1e-15
1e-15
1e-15
1e-15
1e-15
1e-15
1e-15
1.01775e-15
1e-15
1e-15
1e-15
1.01486e-15
1e-15
1e-15
1e-15
1e-15
1e-15
1.00955e-15
1e-15
1e-15
1e-15
1e-15
1e-15
1e-15
1e-15
1e-15
1.00974e-15
1e-15
1e-15
1e-15
1e-15
1e-15
1.00874e-15
1e-15
1e-15
1e-15
1e-15
1e-15
1e-15
1e-15
1e-15
1e-15
1e-15
1e-15
1e-15
1e-15
1e-15
1e-15
1e-15
1e-15
1e-15
1e-15
1e-15
1.00896e-15
1e-15
1e-15
1e-15
1e-15
1e-15
1e-15
1e-15
1e-15
1e-15
1e-15
1e-15
1e-15
1.0169e-15
1e-15
1e-15
1e-15
1e-15
1e-15
1.00839e-15
1e-15
1e-15
1e-15
1e-15
1e-15
1e-15
1e-15
1e-15
1e-15
1e-15
1e-15
1.0105e-15
1e-15
1e-15
1e-15
1e-15
1e-15
1e-15
1e-15
1.01688e-15
1e-15
1e-15
1e-15
1e-15
1e-15
1e-15
1e-15
1e-15
1e-15
1e-15
1e-15
1e-15
1e-15
1e-15
1e-15
1e-15
1.00518e-15
1e-15
1e-15
1.00791e-15
1e-15
1e-15
1e-15
1e-15
1e-15
1e-15
1e-15
1e-15
1e-15
1e-15
1e-15
1e-15
1e-15
1e-15
1e-15
1.00336e-15
1e-15
1e-15
1e-15
1e-15
1e-15
1e-15
1e-15
1e-15
1e-15
1e-15
1e-15
1e-15
1e-15
1e-15
1e-15
1e-15
1e-15
1e-15
1.01174e-15
1e-15
1e-15
1e-15
1e-15
1e-15
1e-15
1e-15
1e-15
1e-15
1.01537e-15
1e-15
1e-15
1e-15
1e-15
1e-15
1e-15
1e-15
1e-15
1.01696e-15
1e-15
1e-15
1e-15
1e-15
1e-15
1.00833e-15
1e-15
1e-15
1e-15
1e-15
1e-15
1e-15
1e-15
1e-15
1e-15
1e-15
1e-15
1e-15
1.01487e-15
1e-15
1e-15
1e-15
1e-15
1e-15
1.01351e-15
1e-15
1e-15
1e-15
1e-15
1e-15
1.00983e-15
1e-15
1e-15
1e-15
1e-15
1e-15
1e-15
1.01054e-15
1e-15
1e-15
1e-15
1e-15
1e-15
1.00705e-15
1e-15
1e-15
1e-15
1e-15
1e-15
1.00969e-15
1e-15
1e-15
1e-15
1e-15
1e-15
1e-15
1e-15
1e-15
1.01354e-15
1e-15
1e-15
1e-15
1e-15
1e-15
1.00775e-15
1e-15
1e-15
1e-15
1e-15
1e-15
1.00965e-15
1e-15
1e-15
1e-15
1e-15
1e-15
1e-15
1e-15
1e-15
1.01689e-15
1e-15
1e-15
1e-15
1e-15
1e-15
1.00833e-15
1e-15
1e-15
1e-15
1e-15
1e-15
1e-15
1e-15
1e-15
1e-15
1e-15
1e-15
1e-15
1e-15
1e-15
1.01739e-15
1e-15
1e-15
1e-15
1e-15
1e-15
1.00865e-15
1e-15
1e-15
1e-15
1e-15
1e-15
1e-15
1e-15
1e-15
1e-15
1e-15
1e-15
1e-15
1e-15
1e-15
1.00337e-15
1e-15
1e-15
1e-15
1e-15
1e-15
1.00931e-15
1e-15
1e-15
1e-15
1e-15
1e-15
1e-15
1e-15
1e-15
1e-15
1e-15
1e-15
1e-15
1e-15
1e-15
1.01783e-15
1e-15
1e-15
1e-15
1e-15
1e-15
1e-15
1e-15
1e-15
1e-15
1e-15
1e-15
1e-15
1e-15
1e-15
1.01049e-15
1e-15
1e-15
1e-15
1e-15
1e-15
1.00698e-15
1e-15
1e-15
1e-15
1e-15
1e-15
1.00957e-15
1e-15
1e-15
1e-15
1e-15
1e-15
1e-15
1e-15
1e-15
1.01489e-15
1e-15
1e-15
1e-15
1.01454e-15
1e-15
1e-15
1e-15
1e-15
1e-15
1e-15
1.01434e-15
1e-15
1e-15
1e-15
1e-15
1e-15
1e-15
1e-15
1e-15
1e-15
1e-15
1e-15
1.00339e-15
1e-15
1e-15
1e-15
1e-15
1e-15
1.00931e-15
1e-15
1e-15
1.00948e-15
1e-15
1e-15
1e-15
1e-15
1e-15
1.00175e-15
1e-15
1e-15
1e-15
1.01242e-15
1e-15
1e-15
1e-15
1e-15
1e-15
1.00918e-15
1e-15
1e-15
1e-15
1e-15
1e-15
1e-15
1e-15
1e-15
1e-15
1e-15
1e-15
1e-15
1.01691e-15
1e-15
1e-15
1e-15
1e-15
1e-15
1.00837e-15
1e-15
1e-15
1e-15
1e-15
1e-15
1e-15
1e-15
1e-15
1e-15
1e-15
1e-15
1e-15
1e-15
1e-15
1e-15
1e-15
1e-15
1e-15
1.01077e-15
1e-15
1e-15
1e-15
1e-15
1e-15
1.00987e-15
1e-15
1e-15
1e-15
1e-15
1e-15
1e-15
1e-15
1e-15
1e-15
1e-15
1e-15
1e-15
1e-15
1.00817e-15
1e-15
1e-15
1e-15
1e-15
1e-15
1.00979e-15
1e-15
1e-15
1e-15
1e-15
1e-15
1e-15
1.00795e-15
1e-15
1e-15
1e-15
1e-15
1e-15
1.00679e-15
1e-15
1e-15
1e-15
1e-15
1e-15
1.00961e-15
1e-15
1e-15
1e-15
1e-15
1e-15
1e-15
1e-15
1.01054e-15
1e-15
1e-15
1e-15
1e-15
1e-15
1.007e-15
1e-15
1e-15
1e-15
1e-15
1e-15
1.00962e-15
1e-15
1e-15
1e-15
1e-15
1e-15
1e-15
1e-15
1e-15
1e-15
1e-15
1e-15
1e-15
1e-15
1e-15
1.0172e-15
1e-15
1e-15
1e-15
1e-15
1e-15
1.00909e-15
1e-15
1e-15
1e-15
1e-15
1e-15
1e-15
1e-15
1e-15
1.01692e-15
1e-15
1e-15
1e-15
1e-15
1e-15
1.00832e-15
1e-15
1e-15
1e-15
1e-15
1e-15
1e-15
1e-15
1e-15
1e-15
1e-15
1e-15
1e-15
1e-15
1e-15
1e-15
1e-15
1e-15
1e-15
1e-15
1.01712e-15
1e-15
1e-15
1e-15
1e-15
1e-15
1e-15
1e-15
1e-15
1e-15
1e-15
1e-15
1e-15
1e-15
1e-15
1e-15
1.00337e-15
1e-15
1e-15
1e-15
1e-15
1e-15
1.0093e-15
1e-15
1e-15
1e-15
1e-15
1e-15
1e-15
1e-15
1e-15
1e-15
1e-15
1e-15
1e-15
1.01774e-15
1e-15
1e-15
1e-15
1e-15
1e-15
1.00871e-15
1e-15
1e-15
1e-15
1e-15
1e-15
1e-15
1e-15
1e-15
1e-15
1e-15
1e-15
1e-15
1e-15
1e-15
1.00339e-15
1e-15
1e-15
1e-15
1e-15
1e-15
1e-15
1e-15
1e-15
1e-15
1e-15
1e-15
1e-15
1e-15
1e-15
1e-15
1e-15
1e-15
1e-15
1e-15
1e-15
1e-15
1e-15
1e-15
1e-15
1.00896e-15
1e-15
1e-15
1e-15
1e-15
1e-15
1e-15
1e-15
1e-15
1e-15
1e-15
1e-15
1e-15
1e-15
1e-15
1.00339e-15
1e-15
1e-15
1e-15
1e-15
1e-15
1.00932e-15
1e-15
1e-15
1e-15
1e-15
1e-15
1e-15
1e-15
1e-15
1e-15
1e-15
1e-15
1e-15
1e-15
1e-15
1e-15
1e-15
1e-15
1e-15
1.00894e-15
1e-15
1e-15
1e-15
1e-15
1e-15
1e-15
1e-15
1e-15
1e-15
1e-15
1e-15
1e-15
1.0097e-15
1e-15
1e-15
1e-15
1e-15
1e-15
1.00872e-15
1e-15
1e-15
1e-15
1e-15
1e-15
1e-15
1e-15
1e-15
1e-15
1e-15
1e-15
1e-15
1e-15
1e-15
1e-15
1e-15
1e-15
1e-15
1.01719e-15
1e-15
1e-15
1e-15
1e-15
1e-15
1.00908e-15
1e-15
1e-15
1e-15
1e-15
1e-15
1e-15
1.01052e-15
1e-15
1e-15
1e-15
1e-15
1e-15
1.00698e-15
1e-15
1e-15
1e-15
1e-15
1e-15
1.00961e-15
1e-15
1e-15
1e-15
1e-15
1e-15
1e-15
1e-15
1e-15
1.01488e-15
1e-15
1e-15
1e-15
1e-15
1e-15
1.01785e-15
1e-15
1e-15
1e-15
1e-15
1e-15
1.00929e-15
1e-15
1e-15
1e-15
1e-15
1e-15
1e-15
1e-15
1.01489e-15
1e-15
1e-15
1e-15
1e-15
1e-15
1.00785e-15
1e-15
1e-15
1e-15
1e-15
1e-15
1.00964e-15
1e-15
1e-15
1e-15
1e-15
1e-15
1e-15
1e-15
1e-15
1.0097e-15
1e-15
1e-15
1e-15
1e-15
1e-15
1.00873e-15
1e-15
1e-15
1e-15
1e-15
1e-15
1e-15
1e-15
1e-15
1e-15
1e-15
1e-15
1e-15
1e-15
1e-15
1e-15
1e-15
1e-15
1e-15
1e-15
1e-15
1.00894e-15
1e-15
1e-15
1e-15
1e-15
1e-15
1e-15
1e-15
1e-15
1e-15
1e-15
1e-15
1e-15
1e-15
1e-15
1.00257e-15
1e-15
1e-15
1e-15
1e-15
1e-15
1.00924e-15
1e-15
1e-15
1e-15
1e-15
1e-15
1e-15
1e-15
1e-15
1.00175e-15
1e-15
1e-15
1e-15
1e-15
1e-15
1.01827e-15
1e-15
1e-15
1e-15
1e-15
1e-15
1.00924e-15
1e-15
1e-15
1e-15
1e-15
1e-15
1e-15
1e-15
1e-15
1e-15
1e-15
1e-15
1e-15
1.00338e-15
1e-15
1e-15
1e-15
1e-15
1e-15
1.00931e-15
1e-15
1e-15
1e-15
1e-15
1e-15
1e-15
1e-15
1e-15
1e-15
1e-15
1e-15
1e-15
1e-15
1e-15
1.01781e-15
1e-15
1e-15
1e-15
1e-15
1e-15
1e-15
1e-15
1e-15
1e-15
1e-15
1e-15
1e-15
1e-15
1e-15
1e-15
1e-15
1e-15
1e-15
1.00338e-15
1e-15
1e-15
1e-15
1e-15
1e-15
1.00931e-15
1e-15
1e-15
1e-15
1e-15
1e-15
1e-15
1e-15
1e-15
1e-15
1e-15
1e-15
1e-15
1e-15
1e-15
1e-15
1e-15
1e-15
1e-15
1.00894e-15
1e-15
1e-15
1e-15
1e-15
1e-15
1e-15
1e-15
1e-15
1e-15
1e-15
1e-15
1e-15
1.0097e-15
1e-15
1e-15
1e-15
1e-15
1e-15
1.00872e-15
1e-15
1e-15
1e-15
1e-15
1e-15
0.00790752
0.0079219
0.00689315
0.00615087
0.00588326
0.00575519
0.00570509
0.00565168
0.00560465
0.00553429
0.0054678
0.00539468
0.00532921
0.00526008
0.00520232
0.00514147
0.00509288
0.00503926
0.00499726
0.00494927
0.00491236
0.0048696
0.0048374
0.0047991
0.00477054
0.00473543
0.00470983
0.00467756
0.00465465
0.00462487
0.00460439
0.0045768
0.00455825
0.00453231
0.00451535
0.00449095
0.00447552
0.00445253
0.00443848
0.00441676
0.00440394
0.00438322
0.00437143
0.00435161
0.00434076
0.00432179
0.00431182
0.00429365
0.0042845
0.00426699
0.00425855
0.00424165
0.0042338
0.00421755
0.00421022
0.00419457
0.00418775
0.00417266
0.0041663
0.00415168
0.00414573
0.00413153
0.00412599
0.00411218
0.00410703
0.00409358
0.00408881
0.00407569
0.00407128
0.00405846
0.00405438
0.0040418
0.00403804
0.00402566
0.00402222
0.00401004
0.00400694
0.00399486
0.00399224
0.00397957
0.000736857
0.00161296
0.00338284
0.00520282
0.00605297
0.00639534
0.00653976
0.00652162
0.00646877
0.00636517
0.00628255
0.00619553
0.00612191
0.0060502
0.00599435
0.00593666
0.005891
0.00583786
0.00579758
0.00574876
0.00571356
0.00567045
0.00563993
0.00560036
0.00557194
0.00553494
0.00550931
0.00547509
0.00545211
0.00542052
0.00539996
0.00537013
0.00535097
0.00532251
0.00530496
0.00527817
0.00526222
0.00523693
0.00522243
0.00519837
0.0051849
0.00516172
0.00514926
0.005127
0.00511555
0.00509423
0.00508373
0.00506331
0.00505354
0.0050338
0.00502454
0.00500568
0.00499686
0.00497886
0.00497047
0.00495329
0.00494531
0.00492885
0.0049212
0.00490528
0.00489799
0.00488257
0.00487567
0.00486076
0.00485424
0.00483981
0.00483365
0.0048196
0.00481379
0.00480004
0.00479464
0.00478101
0.00477621
0.00476253
0.00475833
0.0047447
0.00474093
0.00472764
0.00472383
0.00471051
3.48427e-05
0.000218142
0.000470653
0.00121885
0.00233734
0.00343459
0.00417289
0.00456338
0.00477857
0.00485989
0.00490995
0.00492289
0.00492534
0.0049203
0.00491624
0.00490506
0.00489731
0.0048799
0.00486984
0.00484953
0.00483908
0.00481992
0.00480929
0.00478967
0.00477754
0.00475776
0.00474593
0.00472672
0.0047156
0.00469727
0.00468686
0.00466858
0.00465812
0.00463995
0.00463005
0.00461257
0.00460335
0.00458659
0.00457803
0.00456174
0.00455345
0.00453741
0.00452953
0.00451392
0.0045065
0.00449146
0.00448448
0.00447006
0.00446333
0.00444923
0.00444271
0.00442905
0.00442278
0.00440964
0.00440362
0.004391
0.00438521
0.00437302
0.00436738
0.00435549
0.00435004
0.00433846
0.00433324
0.004322
0.00431702
0.00430613
0.00430137
0.00429073
0.00428616
0.00427571
0.00427136
0.00426103
0.004257
0.00424673
0.00424303
0.00423288
0.00422944
0.00421956
0.00421611
0.00420601
8.88104e-06
2.52083e-05
3.81405e-05
0.000192883
0.000421005
0.000971332
0.00193567
0.00274048
0.003279
0.0036266
0.00385706
0.00398731
0.00407877
0.00414183
0.00419249
0.00422483
0.0042568
0.00427304
0.00429259
0.00429891
0.00431168
0.00431408
0.00432091
0.00431938
0.00432134
0.00431726
0.0043171
0.00431145
0.00431018
0.00430353
0.00430124
0.00429311
0.0042896
0.00428037
0.00427654
0.00426707
0.00426311
0.0042536
0.00424955
0.00423984
0.00423543
0.00422538
0.00422091
0.00421083
0.00420642
0.00419647
0.00419218
0.00418243
0.00417807
0.00416826
0.0041639
0.0041542
0.00414992
0.00414043
0.00413625
0.00412704
0.00412294
0.00411389
0.00410981
0.00410083
0.00409681
0.00408798
0.00408407
0.00407544
0.00407167
0.00406326
0.00405959
0.00405132
0.00404774
0.00403954
0.00403606
0.00402793
0.00402462
0.00401656
0.00401344
0.00400547
0.00400252
0.00399472
0.00399181
0.00398373
3.48385e-09
5.01498e-07
4.52688e-06
1.62513e-05
2.71614e-05
0.000161055
0.000374479
0.000883252
0.00161062
0.00222821
0.00267106
0.00298619
0.00322142
0.0033867
0.00351638
0.00361179
0.00369218
0.00374699
0.00379985
0.00383553
0.00387361
0.00389768
0.00392475
0.00394058
0.00396024
0.00396992
0.00398451
0.00399008
0.00400135
0.00400447
0.0040122
0.00401287
0.00401749
0.00401661
0.00401951
0.00401757
0.0040193
0.00401661
0.00401736
0.00401379
0.00401347
0.00400916
0.00400822
0.00400338
0.00400206
0.00399689
0.00399536
0.00398994
0.00398802
0.0039822
0.00398004
0.00397403
0.00397173
0.00396567
0.00396332
0.00395726
0.00395482
0.00394865
0.00394609
0.00393978
0.00393718
0.00393085
0.00392825
0.00392196
0.0039194
0.0039132
0.00391064
0.00390445
0.00390187
0.00389563
0.00389307
0.00388682
0.00388433
0.00387809
0.00387572
0.0038695
0.00386724
0.00386108
0.00385886
0.00385249
9.2719e-11
1.25406e-07
4.80277e-08
8.68459e-07
2.90018e-06
1.17023e-05
2.26601e-05
0.00013867
0.000328725
0.000731474
0.00129392
0.00178872
0.00217489
0.00247203
0.00271876
0.0029066
0.00306066
0.00317507
0.00327753
0.00335443
0.00342637
0.00347944
0.00353186
0.00356882
0.00360801
0.0036339
0.00366444
0.00368323
0.00370785
0.00372151
0.00374083
0.00375044
0.00376571
0.00377226
0.00378445
0.00378887
0.0037985
0.00380152
0.00380902
0.00381057
0.00381604
0.00381659
0.00382061
0.00382042
0.00382328
0.00382248
0.00382457
0.00382312
0.00382434
0.00382232
0.0038229
0.00382048
0.00382058
0.00381792
0.00381769
0.00381478
0.00381422
0.00381095
0.0038101
0.00380651
0.00380547
0.0038017
0.00380053
0.00379665
0.0037954
0.00379145
0.00379007
0.003786
0.0037845
0.00378026
0.0037787
0.00377436
0.00377278
0.00376835
0.00376682
0.00376233
0.00376085
0.00375631
0.00375484
0.00375024
3.92615e-10
5.44354e-11
5.13961e-09
4.2409e-08
1.75068e-07
6.00072e-07
1.93103e-06
9.24707e-06
1.9861e-05
0.000110619
0.000251579
0.000561
0.000977445
0.00139196
0.0017486
0.00202921
0.00227675
0.00247745
0.0026496
0.00278426
0.00290474
0.00299985
0.00308867
0.00315632
0.00322196
0.00327068
0.00332208
0.00335863
0.00339961
0.00342709
0.00345971
0.00348016
0.00350698
0.00352243
0.00354449
0.00355634
0.00357472
0.00358394
0.0035993
0.00360616
0.00361888
0.00362403
0.00363461
0.00363852
0.00364717
0.00365005
0.00365719
0.00365913
0.0036648
0.00366603
0.00367053
0.0036712
0.00367475
0.003675
0.00367781
0.00367767
0.00367975
0.00367913
0.00368062
0.0036796
0.00368064
0.00367933
0.00368002
0.00367849
0.00367889
0.00367717
0.00367726
0.00367534
0.00367512
0.00367294
0.00367257
0.00367018
0.00366969
0.00366714
0.00366661
0.00366389
0.00366333
0.00366046
0.0036598
0.00365712
8.35037e-11
4.94929e-11
1.29183e-09
1.39177e-09
8.93091e-09
2.89116e-08
1.24678e-07
4.34456e-07
1.50782e-06
7.12408e-06
1.45063e-05
7.62184e-05
0.000170193
0.000383907
0.000684291
0.00103325
0.00136067
0.0016341
0.0018706
0.00207386
0.00225913
0.00241139
0.00254877
0.00265902
0.00276226
0.00284396
0.00292415
0.00298545
0.00304832
0.00309508
0.00314589
0.0031815
0.00322288
0.00325032
0.00328457
0.00330633
0.00333512
0.00335251
0.00337659
0.00338999
0.00341053
0.00342128
0.00343896
0.00344755
0.00346266
0.0034695
0.00348255
0.00348802
0.00349917
0.00350356
0.003513
0.00351654
0.00352456
0.00352744
0.00353429
0.00353655
0.00354228
0.00354393
0.00354868
0.00354988
0.00355384
0.00355468
0.00355798
0.0035585
0.00356125
0.00356148
0.00356366
0.00356361
0.00356526
0.00356495
0.00356626
0.00356569
0.00356672
0.00356594
0.00356676
0.00356576
0.00356639
0.00356521
0.00356549
0.00356491
5.17521e-12
2.07334e-11
1.2022e-11
4.9512e-12
2.22564e-09
1.19298e-09
3.11798e-08
2.66057e-08
8.42676e-08
3.07072e-07
1.06819e-06
4.61334e-06
9.34226e-06
4.59985e-05
9.76974e-05
0.000225533
0.000444531
0.000703806
0.000997875
0.00126133
0.00149662
0.00169513
0.00188173
0.00204258
0.00219487
0.00231844
0.00243605
0.00253102
0.00262434
0.00269834
0.00277406
0.00283093
0.00289193
0.00293622
0.00298673
0.00302212
0.00306427
0.00309267
0.00312802
0.00315056
0.00318076
0.00319909
0.00322515
0.00324003
0.0032626
0.00327481
0.0032945
0.00330434
0.00332147
0.00332957
0.00334456
0.00335127
0.00336445
0.0033701
0.00338163
0.00338639
0.00339642
0.00340041
0.00340912
0.00341251
0.00342009
0.00342295
0.00342955
0.00343196
0.00343772
0.00343971
0.00344466
0.00344627
0.0034505
0.00345179
0.00345543
0.00345644
0.00345957
0.00346034
0.00346305
0.00346359
0.00346583
0.00346632
0.00346766
0.00346949
1.29239e-12
1.14919e-12
3.88072e-12
6.33164e-12
3.88585e-13
3.23734e-11
5.93445e-11
1.79551e-09
7.79973e-09
1.45688e-08
6.07118e-08
1.9743e-07
3.46314e-07
2.69406e-06
4.32093e-06
2.17282e-05
4.82718e-05
0.000119436
0.000244625
0.000434175
0.000664845
0.000902054
0.00113867
0.00133671
0.00152358
0.00168166
0.00183864
0.00197261
0.00210364
0.00221028
0.0023168
0.00240165
0.00248903
0.00255675
0.00262923
0.00268343
0.00274358
0.00278727
0.00283786
0.00287324
0.00291613
0.00294488
0.0029816
0.0030051
0.00303701
0.00305651
0.00308442
0.00310037
0.00312467
0.00313789
0.00315935
0.00317044
0.0031895
0.00319889
0.00321579
0.00322368
0.00323861
0.00324524
0.00325852
0.00326427
0.00327604
0.00328103
0.00329146
0.00329581
0.00330509
0.0033089
0.00331713
0.00332047
0.00332774
0.00333065
0.0033371
0.00333965
0.00334536
0.00334762
0.00335263
0.00335471
0.00335888
0.00336129
0.00336369
0.00336831
1e-15
2.84672e-13
9.59527e-13
1.56654e-12
1.56583e-13
1.1108e-12
9.64014e-12
1.03769e-10
5.36853e-10
8.61911e-10
1.39389e-09
6.83702e-09
8.67869e-08
1.21335e-07
2.66522e-07
9.43179e-07
1.55252e-06
9.48045e-06
1.89955e-05
5.44384e-05
0.000114111
0.000220398
0.00038894
0.000579008
0.000786128
0.000987559
0.00117693
0.00133666
0.00149386
0.0016266
0.00176378
0.00187953
0.00199755
0.00209248
0.00219098
0.00226872
0.002352
0.00241603
0.00248666
0.0025394
0.00259911
0.00264222
0.0026932
0.0027288
0.00277309
0.00280264
0.0028412
0.00286562
0.00289909
0.00291946
0.00294901
0.00296616
0.00299237
0.00300687
0.00303019
0.00304246
0.00306325
0.00307363
0.00309222
0.00310119
0.00311782
0.00312558
0.00314052
0.0031473
0.00316077
0.00316669
0.00317871
0.00318392
0.00319471
0.00319935
0.00320904
0.00321322
0.0032219
0.00322574
0.00323336
0.00323726
0.00324335
0.00324809
0.00325168
0.00325938
1e-15
1e-15
1e-15
1e-15
3.99489e-14
5.98417e-14
7.66979e-13
5.14413e-12
3.28597e-11
5.0553e-11
8.61521e-11
2.45204e-10
2.93085e-11
2.66006e-09
9.85376e-10
3.06378e-08
4.28082e-08
3.25718e-07
3.67522e-07
3.22503e-06
6.00176e-06
1.99996e-05
4.29014e-05
9.11252e-05
0.000181382
0.000309507
0.000477671
0.000648168
0.000830452
0.000997817
0.00115793
0.00129292
0.00143059
0.00154624
0.0016685
0.00177078
0.0018794
0.0019663
0.00205916
0.0021322
0.00221236
0.00227379
0.00234306
0.00239459
0.00245481
0.00249776
0.00255013
0.00258612
0.00263174
0.0026621
0.00270221
0.00272776
0.00276317
0.00278474
0.00281624
0.00283465
0.00286276
0.00287843
0.00290352
0.00291697
0.00293945
0.00295109
0.00297137
0.00298153
0.00299992
0.00300878
0.00302531
0.00303306
0.00304799
0.00305489
0.00306839
0.00307467
0.00308676
0.00309272
0.00310318
0.00310933
0.00311763
0.00312492
0.00312999
0.00314109
1e-15
1e-15
1e-15
1e-15
1e-15
1.60968e-14
5.96634e-14
2.99563e-13
1.90791e-12
2.86876e-12
4.4807e-12
1.60057e-11
4.10407e-13
6.54517e-10
2.25736e-11
7.32674e-10
1.06722e-08
1.24737e-08
9.36961e-09
1.32813e-07
2.94912e-07
8.00277e-07
1.46954e-06
6.00553e-06
1.21472e-05
3.25438e-05
6.71937e-05
0.00012786
0.000228282
0.000355028
0.000510558
0.000660305
0.000819745
0.000962094
0.00110344
0.0012214
0.00134458
0.00144797
0.00155828
0.00165052
0.00175155
0.00183261
0.00192154
0.00199055
0.0020688
0.0021279
0.00219704
0.00224764
0.00230849
0.00235173
0.00240521
0.00244189
0.00248916
0.00252039
0.00256248
0.00258931
0.00262682
0.00264979
0.00268319
0.00270288
0.0027328
0.00274988
0.00277686
0.00279175
0.00281616
0.00282918
0.00285114
0.00286255
0.00288237
0.00289257
0.00291045
0.00291979
0.00293571
0.00294464
0.00295831
0.00296753
0.00297831
0.00298897
0.00299575
0.00301098
1e-15
1e-15
1e-15
1e-15
1e-15
1.0044e-15
1.39246e-15
2.08403e-14
1.11295e-13
1.61553e-13
2.57445e-13
5.72027e-13
1.0286e-12
3.27094e-14
1.32398e-12
1.7232e-11
1.05435e-11
2.80206e-10
4.36917e-10
4.26795e-09
8.74297e-09
2.53419e-08
6.80916e-08
1.98999e-07
2.67272e-07
1.6698e-06
2.91686e-06
8.99744e-06
1.83102e-05
4.11593e-05
8.36211e-05
0.000145141
0.000243879
0.000358415
0.000498619
0.000630924
0.000772115
0.000895771
0.00102486
0.0011302
0.00124266
0.00133595
0.00143832
0.00152133
0.00161603
0.00169159
0.00177781
0.00184381
0.00192062
0.00197802
0.00204676
0.00209679
0.00215834
0.00220168
0.00225678
0.00229431
0.00234347
0.00237595
0.00241988
0.002448
0.00248745
0.00251198
0.00254744
0.00256885
0.00260076
0.00261959
0.00264828
0.00266494
0.00269075
0.00270573
0.00272883
0.00274261
0.00276298
0.00277618
0.00279353
0.00280708
0.00282071
0.00283584
0.00284475
0.00286513
1e-15
1e-15
1e-15
1e-15
1e-15
1e-15
1e-15
1.86375e-15
6.24641e-15
4.94952e-15
1.42418e-14
1.41377e-13
4.0147e-14
2.40674e-14
2.64405e-13
5.97756e-13
5.10081e-13
9.47396e-12
2.49534e-11
1.41733e-10
2.97844e-10
3.43262e-10
2.41266e-09
6.06434e-09
2.72471e-08
6.02397e-08
3.80768e-08
3.48942e-07
5.37505e-07
2.05117e-06
3.98119e-06
1.01754e-05
2.11686e-05
4.29406e-05
8.61753e-05
0.000140017
0.00023152
0.000328211
0.000454612
0.000571393
0.000699457
0.000808786
0.00092725
0.00102434
0.00112876
0.00121367
0.00130974
0.0013864
0.00147481
0.00154471
0.00162787
0.00169134
0.00176729
0.00182307
0.00189177
0.00194103
0.00200337
0.00204707
0.00210341
0.00214191
0.00219279
0.00222668
0.00227243
0.00230235
0.00234349
0.00237011
0.0024071
0.00243101
0.00246412
0.0024858
0.00251515
0.00253527
0.00256084
0.00258019
0.00260179
0.00262143
0.00263843
0.00265949
0.00267117
0.00269814
1e-15
1e-15
1e-15
1e-15
1e-15
1e-15
1e-15
1e-15
1.08083e-15
1.02152e-15
1.34988e-15
1.00436e-15
1.05556e-14
1e-15
5.60967e-15
2.05064e-14
1.29222e-13
2.99347e-13
8.26847e-13
3.21512e-12
1.19701e-11
4.34051e-13
5.9996e-11
1.63995e-10
6.37972e-10
1.14861e-09
1.43553e-09
3.73376e-09
2.52958e-08
6.17963e-08
8.25877e-08
3.85163e-07
6.34594e-07
2.0601e-06
4.10449e-06
9.70142e-06
2.01245e-05
3.87934e-05
7.59125e-05
0.000119219
0.000197563
0.0002778
0.000386573
0.000490157
0.000607454
0.000706488
0.000815911
0.000905018
0.00100504
0.00108349
0.00117411
0.00124533
0.00133001
0.00139439
0.00147357
0.00153348
0.00160817
0.00166302
0.00173145
0.00178052
0.00184292
0.00188708
0.00194402
0.00198406
0.00203563
0.00207191
0.00211835
0.00215147
0.00219289
0.00222342
0.00225994
0.00228866
0.00232025
0.00234807
0.00237461
0.00240244
0.00242352
0.00245226
0.0024675
0.00250296
1.00657e-15
1e-15
1e-15
1e-15
1e-15
1e-15
1.00897e-15
1e-15
1e-15
1e-15
1e-15
1e-15
1e-15
1e-15
1e-15
1.24361e-15
1e-15
5.86466e-15
2.19299e-14
5.85567e-14
1.93899e-13
1.11687e-13
1.2625e-12
4.01453e-11
1.60349e-11
7.48325e-11
1.6208e-10
2.34575e-10
5.41585e-10
1.31154e-09
2.25256e-09
5.46825e-09
4.5615e-09
5.70216e-08
8.88658e-08
2.97893e-07
6.27198e-07
1.2153e-06
3.68777e-06
6.78813e-06
1.62129e-05
2.78729e-05
5.87974e-05
8.92629e-05
0.000152685
0.000214061
0.000306487
0.000391862
0.000499857
0.000590636
0.000694059
0.00077636
0.000871155
0.000945831
0.00103261
0.00109951
0.00117993
0.00124174
0.00131703
0.00137371
0.00144439
0.0014982
0.00156485
0.00161524
0.00167616
0.00172269
0.00177778
0.00182123
0.00187078
0.00191199
0.00195586
0.00199532
0.00203325
0.0020717
0.0021036
0.00214165
0.00216742
0.00220576
0.00222542
0.00227145
1e-15
1.01349e-15
1e-15
1e-15
1e-15
1e-15
1e-15
1.00813e-15
1e-15
1e-15
1e-15
1e-15
1e-15
1e-15
1e-15
1e-15
1e-15
1e-15
1.48528e-15
2.40399e-15
1.07597e-14
8.98019e-15
2.60285e-14
3.00535e-15
1.2102e-13
2.34864e-12
4.55444e-12
1.51522e-11
2.34206e-11
4.21956e-11
1.3427e-10
2.20502e-10
3.13156e-10
1.16675e-09
1.85263e-09
1.29684e-09
1.98333e-08
2.53947e-08
1.10044e-07
1.68034e-07
5.60138e-07
9.19829e-07
2.62123e-06
4.50218e-06
1.07434e-05
1.84677e-05
3.85506e-05
5.8605e-05
0.000105293
0.000147736
0.000221722
0.000289762
0.000381647
0.000463376
0.000560669
0.000639723
0.000729889
0.000801046
0.000883739
0.000949564
0.00102542
0.00108615
0.00115625
0.00121381
0.00127871
0.00133334
0.00139311
0.00144653