/*--------------------------------*- C++ -*----------------------------------*\
| =========                 |                                                 |
| \\      /  F ield         | OpenFOAM: The Open Source CFD Toolbox           |
|  \\    /   O peration     | Version:  v1912                                 |
|   \\  /    A nd           | Website:  www.openfoam.com                      |
|    \\/     M anipulation  |                                                 |
\*---------------------------------------------------------------------------*/
FoamFile
{
    version     2.0;
    format      ascii;
    class       volScalarField;
    location    "300";
    object      nut;
}
// * * * * * * * * * * * * * * * * * * * * * * * * * * * * * * * * * * * * * //

dimensions      [0 2 -1 0 0 0 0];


internalField   nonuniform List<scalar> 
10000
(
1.62468e-18
2.28001e-18
2.6434e-18
3.19317e-18
3.78831e-18
4.20525e-18
6.00694e-18
7.4679e-18
9.8993e-18
1.07331e-17
1.45227e-17
1.45994e-17
3.27007e-17
3.85372e-17
5.9557e-17
1.53136e-16
5.52194e-16
7.91622e-16
4.2148e-15
4.35437e-10
1.58875e-18
2.14902e-18
2.53296e-18
3.08752e-18
4.40785e-18
5.72789e-18
9.32324e-18
1.28685e-17
2.42298e-17
3.78596e-17
8.67256e-17
1.70472e-16
3.57566e-16
9.36927e-16
1.82465e-15
4.31656e-15
8.39606e-15
1.84949e-14
2.51811e-14
4.27321e-11
1.67339e-18
2.38831e-18
3.14654e-18
3.84621e-18
4.61599e-18
5.23906e-18
5.99435e-18
6.5268e-18
7.24195e-18
8.1869e-18
1.266e-17
2.45885e-17
1.22387e-16
1.82129e-16
8.1401e-16
1.24802e-15
1.15426e-14
2.8863e-14
8.22275e-14
2.66033e-09
1.67556e-18
2.41742e-18
3.19177e-18
3.98242e-18
4.78374e-18
5.59112e-18
6.39749e-18
7.23077e-18
8.01246e-18
8.84325e-18
9.61704e-18
1.04685e-17
1.24666e-17
1.5485e-17
6.56527e-17
8.609e-17
9.26672e-16
2.05285e-15
2.77401e-14
2.1195e-16
1.67563e-18
2.41799e-18
3.19216e-18
3.98501e-18
4.7866e-18
5.59863e-18
6.40796e-18
7.23242e-18
8.10186e-18
8.87768e-18
9.67373e-18
1.05325e-17
1.13034e-17
1.21985e-17
1.29299e-17
1.38722e-17
4.48063e-17
9.23334e-17
1.77727e-15
3.97341e-14
1.67565e-18
2.41797e-18
3.19223e-18
3.98482e-18
4.78712e-18
5.59791e-18
6.40982e-18
7.23054e-18
8.04427e-18
8.87382e-18
9.68384e-18
1.06434e-17
1.13256e-17
1.21794e-17
1.29664e-17
1.38459e-17
1.46049e-17
1.55422e-17
6.07451e-17
1.61971e-13
1.67566e-18
2.41792e-18
3.19226e-18
3.98457e-18
4.78741e-18
5.59707e-18
6.41095e-18
7.22834e-18
8.0473e-18
8.86892e-18
9.69045e-18
1.05146e-17
1.14707e-17
1.21633e-17
1.29879e-17
1.38159e-17
1.46387e-17
1.54754e-17
1.63042e-17
4.28971e-14
1.67564e-18
2.41785e-18
3.19223e-18
3.98435e-18
4.78752e-18
5.59642e-18
6.41159e-18
7.22669e-18
8.04919e-18
8.86533e-18
9.69472e-18
1.05078e-17
1.1346e-17
1.23095e-17
1.30024e-17
1.37949e-17
1.46639e-17
1.54377e-17
1.37182e-15
1.79984e-15
1.6756e-18
2.41778e-18
3.19215e-18
3.98426e-18
4.78739e-18
5.59635e-18
6.41137e-18
7.22673e-18
8.04878e-18
8.86563e-18
9.69394e-18
1.05087e-17
1.13446e-17
1.21534e-17
1.29998e-17
1.37985e-17
1.46592e-17
1.54434e-17
4.30178e-17
1.22027e-15
1.67561e-18
2.41776e-18
3.19209e-18
3.98427e-18
4.78718e-18
5.59652e-18
6.41081e-18
7.22736e-18
8.04749e-18
8.97765e-18
9.69125e-18
1.05122e-17
1.13395e-17
1.216e-17
1.2991e-17
1.38095e-17
1.46452e-17
1.54609e-17
1.63563e-17
1.71157e-17
1.67563e-18
2.41775e-18
3.19203e-18
3.98425e-18
4.78701e-18
5.59659e-18
6.41039e-18
7.2277e-18
8.04658e-18
8.86814e-18
9.82078e-18
1.0514e-17
1.13363e-17
1.21635e-17
1.29857e-17
1.38156e-17
1.46368e-17
1.54703e-17
1.6289e-17
1.71283e-17
1.67562e-18
2.41771e-18
3.19198e-18
3.98417e-18
4.7869e-18
5.59645e-18
6.41025e-18
7.22748e-18
8.04644e-18
8.86783e-18
9.6894e-18
1.05135e-17
1.13364e-17
1.21627e-17
1.2986e-17
1.38144e-17
1.46374e-17
1.54684e-17
1.62906e-17
1.71249e-17
1.67562e-18
2.41767e-18
3.19192e-18
3.98408e-18
4.78681e-18
5.5963e-18
6.41014e-18
7.22725e-18
8.04634e-18
8.86746e-18
9.68937e-18
1.0513e-17
1.13365e-17
1.21619e-17
1.29863e-17
1.38132e-17
1.46382e-17
1.54666e-17
1.62919e-17
1.71223e-17
1.67561e-18
2.41763e-18
3.19186e-18
3.984e-18
4.78671e-18
5.59618e-18
6.45057e-18
7.22709e-18
8.04612e-18
8.86731e-18
9.68907e-18
1.05128e-17
1.13361e-17
1.21618e-17
1.29857e-17
1.38133e-17
1.46373e-17
1.54669e-17
1.62907e-17
1.71229e-17
1.67562e-18
2.4176e-18
3.19181e-18
3.98392e-18
4.78661e-18
5.59606e-18
6.40984e-18
7.22695e-18
8.15266e-18
8.86711e-18
9.68882e-18
1.05126e-17
1.13357e-17
1.21616e-17
1.30597e-17
1.3813e-17
1.46368e-17
1.54667e-17
1.62901e-17
1.71227e-17
1.67563e-18
2.41757e-18
3.19177e-18
3.98385e-18
4.78653e-18
5.59593e-18
6.40973e-18
7.30749e-18
8.04582e-18
8.86679e-18
9.68875e-18
1.05121e-17
1.13358e-17
1.22278e-17
1.29855e-17
1.3812e-17
1.46373e-17
1.54652e-17
1.62911e-17
1.7232e-17
1.67563e-18
2.41753e-18
3.19172e-18
3.98377e-18
4.78644e-18
5.5958e-18
6.45649e-18
7.22653e-18
8.04569e-18
8.86648e-18
9.68865e-18
1.05117e-17
1.13358e-17
1.21602e-17
1.31839e-17
1.3811e-17
1.46377e-17
1.54638e-17
1.62918e-17
1.71186e-17
1.67563e-18
2.4175e-18
3.19166e-18
3.98369e-18
4.78633e-18
5.59567e-18
6.40946e-18
7.31661e-18
8.0455e-18
8.86628e-18
9.68841e-18
1.05114e-17
1.13355e-17
1.22324e-17
1.29853e-17
1.38107e-17
1.46373e-17
1.54635e-17
1.62912e-17
1.71183e-17
1.67563e-18
2.41746e-18
3.1916e-18
3.98362e-18
4.78622e-18
5.59556e-18
6.40929e-18
7.22623e-18
8.16592e-18
8.86615e-18
9.68803e-18
1.05113e-17
1.13349e-17
1.21599e-17
1.30771e-17
1.38109e-17
1.46362e-17
1.54639e-17
1.62897e-17
1.71191e-17
1.67562e-18
2.41742e-18
3.19154e-18
3.98353e-18
4.78611e-18
5.59544e-18
6.40913e-18
7.22606e-18
8.04502e-18
9.00493e-18
9.68775e-18
1.05111e-17
1.13346e-17
1.21597e-17
1.29841e-17
1.38106e-17
1.4861e-17
1.54636e-17
1.62891e-17
1.71187e-17
1.67559e-18
2.41736e-18
3.19146e-18
3.98343e-18
4.78599e-18
5.59529e-18
6.40896e-18
7.22587e-18
8.0448e-18
8.86569e-18
9.68748e-18
1.05108e-17
1.13343e-17
1.21593e-17
1.29837e-17
1.38101e-17
1.46353e-17
1.56989e-17
1.62887e-17
1.71179e-17
1.67556e-18
2.41729e-18
3.19137e-18
3.98332e-18
4.78584e-18
5.59512e-18
6.46234e-18
7.22563e-18
8.0445e-18
8.8654e-18
9.68708e-18
1.05104e-17
1.1398e-17
1.21588e-17
1.2983e-17
1.38095e-17
1.46343e-17
1.54622e-17
1.64261e-17
1.71168e-17
1.67545e-18
2.41716e-18
3.19122e-18
3.98314e-18
4.78566e-18
5.59492e-18
6.40856e-18
7.22542e-18
8.04432e-18
8.86515e-18
9.68693e-18
1.05542e-17
1.13336e-17
1.21585e-17
1.2983e-17
1.38093e-17
1.46345e-17
1.5462e-17
1.62878e-17
1.73747e-17
1.67548e-18
2.41716e-18
3.19121e-18
3.98311e-18
4.78563e-18
5.59482e-18
6.4085e-18
7.22521e-18
8.04426e-18
8.86482e-18
9.70712e-18
1.05096e-17
1.13336e-17
1.21578e-17
1.2983e-17
1.38082e-17
1.46345e-17
1.54605e-17
1.62878e-17
1.71147e-17
1.67563e-18
2.4173e-18
3.19134e-18
3.98322e-18
4.78572e-18
5.59606e-18
6.40855e-18
7.2252e-18
8.04424e-18
8.86469e-18
9.68676e-18
1.05094e-17
1.13334e-17
1.21573e-17
1.29827e-17
1.38074e-17
1.46341e-17
1.54594e-17
1.62872e-17
1.71132e-17
1.67575e-18
2.41742e-18
3.19145e-18
3.98333e-18
4.78582e-18
5.595e-18
6.40866e-18
7.22536e-18
8.04438e-18
8.86494e-18
9.71281e-18
1.05097e-17
1.13336e-17
1.21578e-17
1.29831e-17
1.38082e-17
1.46346e-17
1.54605e-17
1.62879e-17
1.71146e-17
1.6758e-18
2.41746e-18
3.19148e-18
3.98336e-18
4.78584e-18
5.59503e-18
6.40867e-18
7.22541e-18
8.04438e-18
8.86502e-18
9.68695e-18
1.06921e-17
1.13336e-17
1.21581e-17
1.29831e-17
1.38086e-17
1.46346e-17
1.54611e-17
1.62879e-17
1.71153e-17
1.67581e-18
2.41747e-18
3.19148e-18
3.98334e-18
4.78582e-18
5.595e-18
6.40862e-18
7.22536e-18
8.04431e-18
8.86497e-18
9.68687e-18
1.05098e-17
1.15225e-17
1.2158e-17
1.2983e-17
1.38086e-17
1.46344e-17
1.5461e-17
1.62877e-17
1.71152e-17
1.67582e-18
2.41746e-18
3.19146e-18
3.98332e-18
4.78579e-18
5.59496e-18
6.40857e-18
7.22531e-18
8.04424e-18
8.8649e-18
9.68677e-18
1.05097e-17
1.13334e-17
1.23638e-17
1.29828e-17
1.38085e-17
1.46342e-17
1.54609e-17
1.62875e-17
1.7115e-17
1.67582e-18
2.41746e-18
3.19145e-18
3.9833e-18
4.78575e-18
5.59492e-18
6.47153e-18
7.22524e-18
8.04417e-18
8.86482e-18
9.68668e-18
1.05097e-17
1.13333e-17
1.21578e-17
1.31977e-17
1.38083e-17
1.46341e-17
1.54607e-17
1.62872e-17
1.71148e-17
1.67583e-18
2.41745e-18
3.19143e-18
3.98328e-18
4.78572e-18
5.59488e-18
6.40847e-18
7.2252e-18
8.04411e-18
9.01643e-18
9.6866e-18
1.05096e-17
1.13332e-17
1.23338e-17
1.29826e-17
1.38082e-17
1.46339e-17
1.54605e-17
1.6287e-17
1.72737e-17
1.67583e-18
2.41745e-18
3.19142e-18
3.98326e-18
4.78569e-18
5.59484e-18
6.40843e-18
7.22514e-18
8.17673e-18
8.86468e-18
9.68653e-18
1.05095e-17
1.13331e-17
1.21576e-17
1.30877e-17
1.38081e-17
1.46338e-17
1.54604e-17
1.62868e-17
1.71143e-17
1.67583e-18
2.41745e-18
3.19141e-18
3.98324e-18
4.78567e-18
5.59481e-18
6.40839e-18
7.2251e-18
8.04399e-18
9.0191e-18
9.68645e-18
1.05094e-17
1.1333e-17
1.21575e-17
1.29823e-17
1.39245e-17
1.46336e-17
1.54602e-17
1.62866e-17
1.7114e-17
1.67583e-18
2.41744e-18
3.19139e-18
3.98322e-18
4.78564e-18
5.59477e-18
6.40835e-18
7.22504e-18
8.17756e-18
8.86456e-18
9.68639e-18
1.05093e-17
1.13329e-17
1.21574e-17
1.30896e-17
1.38078e-17
1.46335e-17
1.546e-17
1.62864e-17
1.71138e-17
1.67583e-18
2.41744e-18
3.19138e-18
3.9832e-18
4.78562e-18
5.59475e-18
6.40832e-18
7.22501e-18
8.17849e-18
8.8645e-18
9.68633e-18
1.05092e-17
1.13329e-17
1.21573e-17
1.29821e-17
1.3892e-17
1.46334e-17
1.54599e-17
1.62863e-17
1.73581e-17
1.67583e-18
2.41744e-18
3.19137e-18
3.98319e-18
4.7856e-18
5.59472e-18
6.40828e-18
7.33e-18
8.04385e-18
8.86445e-18
9.68627e-18
1.05092e-17
1.13328e-17
1.22492e-17
1.2982e-17
1.38076e-17
1.46333e-17
1.54597e-17
1.62861e-17
1.73878e-17
1.67583e-18
2.41744e-18
3.19137e-18
3.98318e-18
4.78558e-18
5.5947e-18
6.47395e-18
7.22493e-18
8.04381e-18
8.8644e-18
9.68621e-18
1.05091e-17
1.14109e-17
1.21571e-17
1.29819e-17
1.38075e-17
1.46331e-17
1.54596e-17
1.64382e-17
1.71131e-17
1.67583e-18
2.41744e-18
3.19136e-18
3.98316e-18
4.78557e-18
5.59467e-18
6.47477e-18
7.2249e-18
8.04377e-18
8.86436e-18
9.68617e-18
1.05091e-17
1.14125e-17
1.21571e-17
1.29819e-17
1.38074e-17
1.4633e-17
1.54594e-17
1.645e-17
1.71129e-17
1.67584e-18
2.41744e-18
3.19136e-18
3.98315e-18
4.78555e-18
5.59465e-18
6.47468e-18
7.22487e-18
8.04374e-18
8.86432e-18
9.68612e-18
1.0509e-17
1.14108e-17
1.2157e-17
1.29818e-17
1.38073e-17
1.46329e-17
1.54593e-17
1.64421e-17
1.71126e-17
1.67584e-18
2.41744e-18
3.19135e-18
3.98314e-18
4.78554e-18
5.59464e-18
6.40818e-18
7.22484e-18
8.04371e-18
8.86428e-18
9.68608e-18
1.0509e-17
1.13325e-17
1.21569e-17
1.29817e-17
1.4031e-17
1.46328e-17
1.54592e-17
1.62853e-17
1.73484e-17
1.67584e-18
2.41744e-18
3.19135e-18
3.98313e-18
4.78553e-18
5.59462e-18
6.40816e-18
7.22482e-18
8.17915e-18
8.86425e-18
9.68603e-18
1.05089e-17
1.13325e-17
1.21569e-17
1.30878e-17
1.38071e-17
1.46327e-17
1.5459e-17
1.62852e-17
1.71122e-17
1.67584e-18
2.41744e-18
3.19134e-18
3.98313e-18
4.78552e-18
5.5946e-18
6.40814e-18
7.3313e-18
8.04365e-18
8.86421e-18
9.686e-18
1.05089e-17
1.13324e-17
1.23725e-17
1.29815e-17
1.3807e-17
1.46326e-17
1.54589e-17
1.6285e-17
1.72689e-17
1.67584e-18
2.41744e-18
3.19134e-18
3.98312e-18
4.78551e-18
5.59459e-18
6.47502e-18
7.22477e-18
8.04362e-18
8.86418e-18
9.68596e-18
1.05088e-17
1.14109e-17
1.21567e-17
1.29815e-17
1.38069e-17
1.46324e-17
1.54587e-17
1.64389e-17
1.71118e-17
1.67584e-18
2.41744e-18
3.19134e-18
3.98312e-18
4.7855e-18
5.59458e-18
6.40811e-18
7.33193e-18
8.0436e-18
8.86416e-18
9.68593e-18
1.06615e-17
1.13323e-17
1.21567e-17
1.29814e-17
1.38068e-17
1.46323e-17
1.56048e-17
1.62846e-17
1.71115e-17
1.67584e-18
2.41744e-18
3.19134e-18
3.98311e-18
4.78549e-18
5.59457e-18
6.4081e-18
7.22473e-18
8.04358e-18
8.86413e-18
9.68589e-18
1.05087e-17
1.1535e-17
1.21566e-17
1.29813e-17
1.38067e-17
1.46322e-17
1.54584e-17
1.64328e-17
1.71113e-17
1.67584e-18
2.41744e-18
3.19133e-18
3.98311e-18
4.78548e-18
5.59456e-18
6.40808e-18
7.22472e-18
8.04356e-18
8.8641e-18
9.68586e-18
1.05087e-17
1.13322e-17
1.23695e-17
1.29812e-17
1.38066e-17
1.46321e-17
1.54583e-17
1.62843e-17
1.72679e-17
1.67584e-18
2.41744e-18
3.19133e-18
3.9831e-18
4.78548e-18
5.59455e-18
6.40807e-18
7.2247e-18
8.1793e-18
8.86408e-18
9.68583e-18
1.05087e-17
1.13322e-17
1.21565e-17
1.30889e-17
1.38065e-17
1.4632e-17
1.54582e-17
1.62841e-17
1.71109e-17
1.67584e-18
2.41744e-18
3.19133e-18
3.9831e-18
4.78547e-18
5.59454e-18
6.40806e-18
7.22469e-18
8.04352e-18
9.02117e-18
9.6858e-18
1.05086e-17
1.13321e-17
1.21564e-17
1.29811e-17
1.39269e-17
1.46319e-17
1.5458e-17
1.62839e-17
1.71106e-17
1.67584e-18
2.41744e-18
3.19133e-18
3.9831e-18
4.78547e-18
5.59454e-18
6.40805e-18
7.22467e-18
8.17954e-18
8.86403e-18
9.68577e-18
1.05086e-17
1.13321e-17
1.21564e-17
1.30905e-17
1.38063e-17
1.46317e-17
1.54579e-17
1.62837e-17
1.71104e-17
1.67584e-18
2.41744e-18
3.19133e-18
3.98309e-18
4.78546e-18
5.59453e-18
6.40804e-18
7.22466e-18
8.04348e-18
9.02119e-18
9.68574e-18
1.05085e-17
1.1332e-17
1.21563e-17
1.29809e-17
1.39275e-17
1.46316e-17
1.54577e-17
1.62835e-17
1.71102e-17
1.67584e-18
2.41744e-18
3.19133e-18
3.98309e-18
4.78546e-18
5.59452e-18
6.40803e-18
7.22465e-18
8.17957e-18
8.86398e-18
9.68571e-18
1.05085e-17
1.1332e-17
1.21563e-17
1.309e-17
1.38062e-17
1.46315e-17
1.54576e-17
1.62833e-17
1.711e-17
1.67584e-18
2.41744e-18
3.19133e-18
3.98309e-18
4.78546e-18
5.59452e-18
6.40802e-18
7.22463e-18
8.17996e-18
8.86396e-18
9.68568e-18
1.05085e-17
1.13319e-17
1.21562e-17
1.30897e-17
1.3806e-17
1.46314e-17
1.54574e-17
1.62832e-17
1.71098e-17
1.67584e-18
2.41744e-18
3.19133e-18
3.98309e-18
4.78545e-18
5.59451e-18
6.40801e-18
7.22462e-18
8.04343e-18
9.02125e-18
9.68565e-18
1.05084e-17
1.13319e-17
1.23368e-17
1.29807e-17
1.38059e-17
1.46312e-17
1.54572e-17
1.6283e-17
1.72729e-17
1.67584e-18
2.41744e-18
3.19133e-18
3.98309e-18
4.78545e-18
5.59451e-18
6.40801e-18
7.22461e-18
8.12179e-18
8.86391e-18
9.68562e-18
1.05084e-17
1.13318e-17
1.21561e-17
1.30941e-17
1.38058e-17
1.46311e-17
1.54571e-17
1.62828e-17
1.71093e-17
1.67584e-18
2.41744e-18
3.19133e-18
3.98309e-18
4.78545e-18
5.5945e-18
6.408e-18
7.2246e-18
8.0434e-18
8.86389e-18
9.68559e-18
1.05084e-17
1.13318e-17
1.2156e-17
1.29805e-17
1.39295e-17
1.4631e-17
1.54569e-17
1.62826e-17
1.71091e-17
1.67584e-18
2.41744e-18
3.19133e-18
3.98309e-18
4.78544e-18
5.5945e-18
6.40799e-18
7.22459e-18
8.17928e-18
8.86387e-18
9.68555e-18
1.05083e-17
1.13317e-17
1.21559e-17
1.30893e-17
1.38056e-17
1.46308e-17
1.54568e-17
1.62824e-17
1.71089e-17
1.67584e-18
2.41744e-18
3.19133e-18
3.98309e-18
4.78544e-18
5.59449e-18
6.47524e-18
7.22458e-18
8.04337e-18
8.86385e-18
9.68552e-18
1.05083e-17
1.13317e-17
1.21559e-17
1.31995e-17
1.38055e-17
1.46307e-17
1.54567e-17
1.62822e-17
1.71087e-17
1.67584e-18
2.41744e-18
3.19133e-18
3.98308e-18
4.78544e-18
5.59449e-18
6.40798e-18
7.22457e-18
8.04335e-18
8.86383e-18
9.68549e-18
1.05626e-17
1.13316e-17
1.21558e-17
1.30829e-17
1.38054e-17
1.46306e-17
1.54565e-17
1.62821e-17
1.71085e-17
1.67584e-18
2.41744e-18
3.19133e-18
3.98308e-18
4.78544e-18
5.59449e-18
6.40797e-18
7.22456e-18
8.04333e-18
8.86381e-18
9.71801e-18
1.05082e-17
1.13316e-17
1.21557e-17
1.29802e-17
1.38053e-17
1.46305e-17
1.54564e-17
1.62819e-17
1.71084e-17
1.67584e-18
2.41744e-18
3.19133e-18
3.98308e-18
4.78544e-18
5.59448e-18
6.40796e-18
7.22455e-18
8.04332e-18
8.96785e-18
9.68543e-18
1.05082e-17
1.13315e-17
1.21557e-17
1.29801e-17
1.38052e-17
1.46303e-17
1.54562e-17
1.62817e-17
1.73712e-17
1.67584e-18
2.41744e-18
3.19133e-18
3.98308e-18
4.78543e-18
5.59448e-18
6.40796e-18
7.22454e-18
8.17969e-18
8.86376e-18
9.6854e-18
1.05081e-17
1.13315e-17
1.21556e-17
1.30881e-17
1.38051e-17
1.46302e-17
1.54561e-17
1.62816e-17
1.7108e-17
1.67584e-18
2.41744e-18
3.19133e-18
3.98308e-18
4.78543e-18
5.59447e-18
6.40795e-18
7.33198e-18
8.04329e-18
8.86374e-18
9.68537e-18
1.05081e-17
1.13314e-17
1.23197e-17
1.29799e-17
1.38051e-17
1.46301e-17
1.5456e-17
1.62814e-17
1.7276e-17
1.67584e-18
2.41744e-18
3.19133e-18
3.98308e-18
4.78543e-18
5.59447e-18
6.47546e-18
7.22451e-18
8.04327e-18
8.86372e-18
9.68535e-18
1.0508e-17
1.14112e-17
1.21555e-17
1.29799e-17
1.3805e-17
1.463e-17
1.54558e-17
1.64391e-17
1.71077e-17
1.67584e-18
2.41744e-18
3.19133e-18
3.98308e-18
4.78543e-18
5.59447e-18
6.40794e-18
7.32233e-18
8.04326e-18
8.8637e-18
9.68532e-18
1.0508e-17
1.13313e-17
1.22497e-17
1.29798e-17
1.38049e-17
1.46299e-17
1.54557e-17
1.62812e-17
1.72726e-17
1.67584e-18
2.41744e-18
3.19133e-18
3.98308e-18
4.78543e-18
5.59446e-18
6.40793e-18
7.2245e-18
8.17906e-18
8.86368e-18
9.68529e-18
1.0508e-17
1.13313e-17
1.21554e-17
1.30879e-17
1.38048e-17
1.46298e-17
1.54556e-17
1.6281e-17
1.71074e-17
1.67584e-18
2.41744e-18
3.19133e-18
3.98308e-18
4.78542e-18
5.59446e-18
6.40792e-18
7.22449e-18
8.04323e-18
9.01777e-18
9.68527e-18
1.05079e-17
1.13312e-17
1.21553e-17
1.29797e-17
1.39241e-17
1.46297e-17
1.54555e-17
1.62809e-17
1.71073e-17
1.67584e-18
2.41744e-18
3.19133e-18
3.98308e-18
4.78542e-18
5.59446e-18
6.40792e-18
7.22448e-18
8.04322e-18
8.86364e-18
9.71785e-18
1.05079e-17
1.13312e-17
1.21553e-17
1.29796e-17
1.38047e-17
1.47659e-17
1.54554e-17
1.62808e-17
1.71071e-17
1.67584e-18
2.41744e-18
3.19133e-18
3.98308e-18
4.78542e-18
5.59445e-18
6.40791e-18
7.22447e-18
8.04321e-18
8.86363e-18
9.68522e-18
1.06952e-17
1.13312e-17
1.21552e-17
1.29796e-17
1.38046e-17
1.46296e-17
1.54553e-17
1.62807e-17
1.71071e-17
1.67584e-18
2.41744e-18
3.19133e-18
3.98308e-18
4.78542e-18
5.59445e-18
6.47513e-18
7.22446e-18
8.0432e-18
8.86361e-18
9.6852e-18
1.05079e-17
1.14102e-17
1.21552e-17
1.29795e-17
1.38045e-17
1.46295e-17
1.54553e-17
1.64364e-17
1.7107e-17
1.67584e-18
2.41744e-18
3.19133e-18
3.98308e-18
4.78542e-18
5.59445e-18
6.40791e-18
7.33204e-18
8.04319e-18
8.8636e-18
9.68519e-18
1.06607e-17
1.13311e-17
1.21552e-17
1.29795e-17
1.38045e-17
1.46295e-17
1.54552e-17
1.65141e-17
1.71069e-17
1.67584e-18
2.41744e-18
3.19132e-18
3.98308e-18
4.78542e-18
5.59445e-18
6.4079e-18
7.22445e-18
8.04318e-18
8.86359e-18
9.71798e-18
1.05078e-17
1.13311e-17
1.21551e-17
1.29794e-17
1.38045e-17
1.47656e-17
1.54552e-17
1.62805e-17
1.7269e-17
1.67584e-18
2.41744e-18
3.19132e-18
3.98308e-18
4.78542e-18
5.60423e-18
6.4079e-18
7.22445e-18
8.04317e-18
8.97367e-18
9.68516e-18
1.05078e-17
1.13311e-17
1.21551e-17
1.29794e-17
1.39312e-17
1.46294e-17
1.54551e-17
1.62805e-17
1.71068e-17
1.67584e-18
2.41744e-18
3.19132e-18
3.98307e-18
4.78542e-18
5.59444e-18
6.4079e-18
7.22444e-18
8.17919e-18
8.86357e-18
9.68515e-18
1.05078e-17
1.1331e-17
1.21551e-17
1.3088e-17
1.38044e-17
1.46294e-17
1.54551e-17
1.62804e-17
1.71067e-17
1.67584e-18
2.41744e-18
3.19132e-18
3.98307e-18
4.78542e-18
5.59444e-18
6.40789e-18
7.22444e-18
8.04316e-18
8.86356e-18
9.68514e-18
1.05078e-17
1.1331e-17
1.22859e-17
1.29794e-17
1.38044e-17
1.46294e-17
1.5455e-17
1.62804e-17
1.72755e-17
1.67584e-18
2.41744e-18
3.19132e-18
3.98307e-18
4.78541e-18
5.59444e-18
6.40789e-18
7.22444e-18
8.04316e-18
8.86356e-18
9.68514e-18
1.05078e-17
1.1331e-17
1.22544e-17
1.29794e-17
1.38044e-17
1.46293e-17
1.5455e-17
1.62804e-17
1.72743e-17
1.67584e-18
2.41744e-18
3.19132e-18
3.98307e-18
4.78541e-18
5.59444e-18
6.45881e-18
7.22443e-18
8.04316e-18
8.86356e-18
9.68513e-18
1.05078e-17
1.1408e-17
1.2155e-17
1.29794e-17
1.38043e-17
1.46293e-17
1.5455e-17
1.64369e-17
1.71067e-17
1.67584e-18
2.41744e-18
3.19132e-18
3.98307e-18
4.78541e-18
5.59444e-18
6.47541e-18
7.22443e-18
8.04316e-18
8.86356e-18
9.68513e-18
1.05078e-17
1.14103e-17
1.2155e-17
1.29793e-17
1.38044e-17
1.46293e-17
1.5455e-17
1.64369e-17
1.71067e-17
1.67584e-18
2.41744e-18
3.19132e-18
3.98307e-18
4.78541e-18
5.59444e-18
6.40789e-18
7.22443e-18
8.04315e-18
8.86355e-18
9.68513e-18
1.05078e-17
1.1331e-17
1.23641e-17
1.29793e-17
1.38044e-17
1.46293e-17
1.5455e-17
1.62804e-17
1.72622e-17
1.67584e-18
2.41744e-18
3.19132e-18
3.98307e-18
4.78541e-18
5.59444e-18
6.40789e-18
7.22443e-18
8.17927e-18
8.86355e-18
9.68513e-18
1.05078e-17
1.1331e-17
1.2155e-17
1.30873e-17
1.38044e-17
1.46293e-17
1.5455e-17
1.62804e-17
1.71067e-17
1.67584e-18
2.41744e-18
3.19132e-18
3.98307e-18
4.78541e-18
5.59444e-18
6.40789e-18
7.22443e-18
8.04316e-18
8.86356e-18
9.68513e-18
1.05078e-17
1.1331e-17
1.21551e-17
1.32015e-17
1.38044e-17
1.46293e-17
1.54551e-17
1.62804e-17
1.71067e-17
1.67584e-18
2.41744e-18
3.19132e-18
3.98307e-18
4.78541e-18
5.59444e-18
6.40789e-18
7.22443e-18
8.04316e-18
8.86356e-18
9.71781e-18
1.05078e-17
1.1331e-17
1.21551e-17
1.29794e-17
1.38044e-17
1.47654e-17
1.54551e-17
1.62804e-17
1.71068e-17
1.67584e-18
2.41744e-18
3.19132e-18
3.98307e-18
4.78541e-18
5.59444e-18
6.40789e-18
7.22444e-18
8.04316e-18
9.02077e-18
9.68513e-18
1.05078e-17
1.1331e-17
1.21551e-17
1.29794e-17
1.39247e-17
1.46293e-17
1.54551e-17
1.62805e-17
1.71068e-17
1.67584e-18
2.41744e-18
3.19132e-18
3.98307e-18
4.78541e-18
5.59444e-18
6.40789e-18
7.22444e-18
8.04316e-18
8.86356e-18
9.71794e-18
1.05078e-17
1.1331e-17
1.21551e-17
1.29794e-17
1.38044e-17
1.46294e-17
1.54551e-17
1.62805e-17
1.71068e-17
1.67584e-18
2.41744e-18
3.19132e-18
3.98307e-18
4.78541e-18
5.59444e-18
6.40789e-18
7.22444e-18
8.04316e-18
8.86356e-18
9.68514e-18
1.05078e-17
1.1331e-17
1.21551e-17
1.29794e-17
1.3928e-17
1.46294e-17
1.54551e-17
1.62805e-17
1.71068e-17
1.67584e-18
2.41744e-18
3.19132e-18
3.98307e-18
4.78541e-18
5.59444e-18
6.40789e-18
7.22444e-18
8.04316e-18
8.86357e-18
9.71794e-18
1.05078e-17
1.1331e-17
1.21551e-17
1.29794e-17
1.38044e-17
1.47657e-17
1.54551e-17
1.62805e-17
1.71069e-17
1.67584e-18
2.41744e-18
3.19132e-18
3.98307e-18
4.78541e-18
5.59444e-18
6.40789e-18
7.22444e-18
8.04316e-18
8.86357e-18
9.68515e-18
1.05078e-17
1.1331e-17
1.21551e-17
1.29794e-17
1.39279e-17
1.46294e-17
1.54552e-17
1.62806e-17
1.71069e-17
1.67584e-18
2.41744e-18
3.19132e-18
3.98307e-18
4.78541e-18
5.59444e-18
6.40789e-18
7.22444e-18
8.12119e-18
8.86357e-18
9.68515e-18
1.05078e-17
1.13311e-17
1.21551e-17
1.30927e-17
1.38045e-17
1.46294e-17
1.54552e-17
1.62806e-17
1.71069e-17
1.67584e-18
2.41744e-18
3.19132e-18
3.98307e-18
4.78541e-18
5.59444e-18
6.4079e-18
7.22444e-18
8.04317e-18
8.86358e-18
9.68516e-18
1.05078e-17
1.13311e-17
1.23641e-17
1.29794e-17
1.38045e-17
1.46295e-17
1.54552e-17
1.62806e-17
1.72623e-17
1.67584e-18
2.41744e-18
3.19132e-18
3.98307e-18
4.78541e-18
5.59444e-18
6.4753e-18
7.22444e-18
8.04317e-18
8.86358e-18
9.68516e-18
1.05078e-17
1.14101e-17
1.21551e-17
1.29795e-17
1.38045e-17
1.46295e-17
1.54552e-17
1.64371e-17
1.7107e-17
1.67584e-18
2.41744e-18
3.19132e-18
3.98307e-18
4.78541e-18
5.59444e-18
6.4079e-18
7.33197e-18
8.04317e-18
8.86358e-18
9.68516e-18
1.05078e-17
1.13311e-17
1.23721e-17
1.29795e-17
1.38045e-17
1.46295e-17
1.54553e-17
1.62807e-17
1.72659e-17
1.67584e-18
2.41744e-18
3.19132e-18
3.98307e-18
4.78541e-18
5.59444e-18
6.4079e-18
7.33202e-18
8.04317e-18
8.86358e-18
9.68517e-18
1.05078e-17
1.13311e-17
1.22505e-17
1.29795e-17
1.38045e-17
1.46295e-17
1.54553e-17
1.62807e-17
1.72719e-17
1.67584e-18
2.41744e-18
3.19132e-18
3.98307e-18
4.78541e-18
5.59444e-18
6.4079e-18
7.22445e-18
8.12121e-18
8.86359e-18
9.68517e-18
1.05078e-17
1.13311e-17
1.21552e-17
1.30928e-17
1.38045e-17
1.46295e-17
1.54553e-17
1.62807e-17
1.71071e-17
1.67584e-18
2.41744e-18
3.19132e-18
3.98307e-18
4.78541e-18
5.59444e-18
6.4079e-18
7.22445e-18
8.04318e-18
8.86359e-18
9.68517e-18
1.05078e-17
1.13311e-17
1.21552e-17
1.29795e-17
1.3928e-17
1.46295e-17
1.54553e-17
1.62807e-17
1.71071e-17
1.67584e-18
2.41744e-18
3.19132e-18
3.98307e-18
4.78541e-18
5.59444e-18
6.4079e-18
7.22445e-18
8.04318e-18
8.86359e-18
9.71012e-18
1.05078e-17
1.13311e-17
1.21552e-17
1.29795e-17
1.38045e-17
1.47647e-17
1.54553e-17
1.62808e-17
1.71071e-17
1.67584e-18
2.41744e-18
3.19132e-18
3.98307e-18
4.78541e-18
5.60422e-18
6.4079e-18
7.22445e-18
8.04318e-18
8.86359e-18
9.68518e-18
1.06998e-17
1.13311e-17
1.21552e-17
1.29795e-17
1.38046e-17
1.46296e-17
1.55982e-17
1.62808e-17
1.71071e-17
1.67584e-18
2.41744e-18
3.19132e-18
3.98307e-18
4.78541e-18
5.59444e-18
6.4079e-18
7.22445e-18
8.04318e-18
8.86359e-18
9.71794e-18
1.05078e-17
1.13311e-17
1.21552e-17
1.29795e-17
1.38046e-17
1.47658e-17
1.54554e-17
1.62808e-17
1.71072e-17
1.67584e-18
2.41744e-18
3.19132e-18
3.98307e-18
4.78541e-18
5.59444e-18
6.4079e-18
7.22445e-18
8.04318e-18
8.86359e-18
9.68518e-18
1.0695e-17
1.13311e-17
1.21552e-17
1.29795e-17
1.38046e-17
1.46296e-17
1.54554e-17
1.62808e-17
1.71072e-17
1.67584e-18
2.41744e-18
3.19132e-18
3.98307e-18
4.78541e-18
5.59444e-18
6.4079e-18
7.22445e-18
8.04318e-18
8.86359e-18
9.71792e-18
1.05078e-17
1.13311e-17
1.21552e-17
1.29795e-17
1.38046e-17
1.47659e-17
1.54554e-17
1.62808e-17
1.71072e-17
1.67584e-18
2.41744e-18
3.19132e-18
3.98307e-18
4.78541e-18
5.59444e-18
6.4079e-18
7.22445e-18
8.04318e-18
8.86359e-18
9.68519e-18
1.05078e-17
1.13311e-17
1.21552e-17
1.29795e-17
1.3928e-17
1.46296e-17
1.54554e-17
1.62809e-17
1.71072e-17
1.67584e-18
2.41743e-18
3.19132e-18
3.98307e-18
4.78541e-18
5.59444e-18
6.4079e-18
7.22445e-18
8.12117e-18
8.8636e-18
9.68519e-18
1.05078e-17
1.13311e-17
1.21552e-17
1.30927e-17
1.38046e-17
1.46296e-17
1.54554e-17
1.62808e-17
1.71072e-17
5.89451e-07
6.44612e-07
6.0632e-07
5.72721e-07
5.679e-07
5.69672e-07
5.73252e-07
5.75172e-07
5.76196e-07
5.74923e-07
5.73163e-07
5.70768e-07
5.68452e-07
5.65849e-07
5.63648e-07
5.61249e-07
5.59356e-07
5.57179e-07
5.55502e-07
5.53498e-07
5.51985e-07
5.50171e-07
5.48832e-07
5.47184e-07
5.45971e-07
5.44432e-07
5.43325e-07
5.4189e-07
5.40887e-07
5.39548e-07
5.38645e-07
5.3739e-07
5.36561e-07
5.35365e-07
5.34597e-07
5.33461e-07
5.32756e-07
5.31677e-07
5.31031e-07
5.30005e-07
5.2941e-07
5.28423e-07
5.27869e-07
5.26918e-07
5.26404e-07
5.2549e-07
5.25013e-07
5.24135e-07
5.23692e-07
5.22843e-07
5.22426e-07
5.21609e-07
5.21207e-07
5.20433e-07
5.20041e-07
5.19305e-07
5.18923e-07
5.18226e-07
5.17852e-07
5.17187e-07
5.1682e-07
5.16184e-07
5.15823e-07
5.15217e-07
5.14862e-07
5.14285e-07
5.13935e-07
5.13386e-07
5.1304e-07
5.12516e-07
5.12174e-07
5.11671e-07
5.11335e-07
5.10849e-07
5.10519e-07
5.1005e-07
5.09729e-07
5.09273e-07
5.08968e-07
5.08463e-07
6.24308e-07
1.02765e-06
1.7224e-06
2.52305e-06
3.07659e-06
3.52064e-06
3.86541e-06
4.10604e-06
4.27564e-06
4.36152e-06
4.41845e-06
4.45394e-06
4.47642e-06
4.49099e-06
4.50291e-06
4.51048e-06
4.51937e-06
4.52248e-06
4.52801e-06
4.52757e-06
4.53051e-06
4.52913e-06
4.53092e-06
4.52886e-06
4.52901e-06
4.52561e-06
4.52482e-06
4.52086e-06
4.51966e-06
4.51545e-06
4.51418e-06
4.50968e-06
4.50794e-06
4.50284e-06
4.50075e-06
4.49555e-06
4.49342e-06
4.48824e-06
4.48615e-06
4.48104e-06
4.47888e-06
4.47358e-06
4.47131e-06
4.46598e-06
4.46365e-06
4.45846e-06
4.45609e-06
4.45115e-06
4.44867e-06
4.4439e-06
4.44113e-06
4.43673e-06
4.43362e-06
4.42966e-06
4.42622e-06
4.42277e-06
4.41902e-06
4.41604e-06
4.41198e-06
4.40935e-06
4.40498e-06
4.40272e-06
4.39805e-06
4.39623e-06
4.39127e-06
4.3899e-06
4.38466e-06
4.38372e-06
4.37818e-06
4.37762e-06
4.37184e-06
4.37154e-06
4.36565e-06
4.36549e-06
4.35956e-06
4.35955e-06
4.35367e-06
4.35371e-06
4.34824e-06
4.34637e-06
1.35162e-07
4.02886e-07
6.16809e-07
1.26272e-06
2.27433e-06
3.43056e-06
4.54903e-06
5.27482e-06
5.79046e-06
6.14738e-06
6.42208e-06
6.62319e-06
6.77726e-06
6.90304e-06
7.00674e-06
7.09336e-06
7.16971e-06
7.22943e-06
7.28624e-06
7.32832e-06
7.37192e-06
7.40521e-06
7.43892e-06
7.46472e-06
7.48973e-06
7.50913e-06
7.52871e-06
7.54381e-06
7.55966e-06
7.57162e-06
7.58443e-06
7.59327e-06
7.603e-06
7.60894e-06
7.61653e-06
7.62085e-06
7.62692e-06
7.63008e-06
7.6349e-06
7.63696e-06
7.64047e-06
7.64125e-06
7.64371e-06
7.64368e-06
7.64527e-06
7.64484e-06
7.64566e-06
7.64504e-06
7.64513e-06
7.64395e-06
7.64336e-06
7.64193e-06
7.64077e-06
7.63925e-06
7.63761e-06
7.63615e-06
7.63405e-06
7.63259e-06
7.63002e-06
7.62841e-06
7.62545e-06
7.6238e-06
7.62052e-06
7.61897e-06
7.61542e-06
7.614e-06
7.61016e-06
7.60884e-06
7.6047e-06
7.60341e-06
7.59917e-06
7.59761e-06
7.5937e-06
7.59152e-06
7.58803e-06
7.58542e-06
7.58225e-06
7.57945e-06
7.5762e-06
7.57323e-06
1.09335e-07
2.15392e-07
1.59425e-07
5.16851e-07
7.76545e-07
1.4694e-06
2.85905e-06
4.0053e-06
5.0617e-06
6.01177e-06
6.72676e-06
7.21887e-06
7.61675e-06
7.94543e-06
8.22951e-06
8.47072e-06
8.68523e-06
8.8612e-06
9.02455e-06
9.15921e-06
9.288e-06
9.39789e-06
9.49967e-06
9.59047e-06
9.67036e-06
9.74502e-06
9.81033e-06
9.87308e-06
9.92764e-06
9.98085e-06
1.00262e-05
1.00712e-05
1.01085e-05
1.01459e-05
1.01772e-05
1.02095e-05
1.0236e-05
1.02644e-05
1.02867e-05
1.03117e-05
1.03302e-05
1.03516e-05
1.0367e-05
1.03857e-05
1.03985e-05
1.04151e-05
1.04257e-05
1.04407e-05
1.04494e-05
1.04623e-05
1.04694e-05
1.04807e-05
1.04865e-05
1.04965e-05
1.05012e-05
1.05103e-05
1.0514e-05
1.05219e-05
1.05247e-05
1.05315e-05
1.05335e-05
1.05395e-05
1.05408e-05
1.05462e-05
1.0547e-05
1.05518e-05
1.0552e-05
1.05563e-05
1.0556e-05
1.05597e-05
1.0559e-05
1.05621e-05
1.05613e-05
1.05636e-05
1.05627e-05
1.05645e-05
1.05636e-05
1.0565e-05
1.05635e-05
1.05662e-05
6.37592e-11
9.80419e-09
5.46744e-08
1.62944e-07
1.49733e-07
5.88515e-07
9.22716e-07
1.82125e-06
3.10254e-06
4.15299e-06
5.1903e-06
6.1484e-06
6.97609e-06
7.68086e-06
8.33249e-06
8.88851e-06
9.30281e-06
9.65329e-06
9.97771e-06
1.02554e-05
1.05167e-05
1.07451e-05
1.09603e-05
1.11488e-05
1.13242e-05
1.14801e-05
1.16272e-05
1.17595e-05
1.18847e-05
1.19996e-05
1.2105e-05
1.22052e-05
1.22925e-05
1.23802e-05
1.24541e-05
1.25321e-05
1.25956e-05
1.26655e-05
1.27199e-05
1.27827e-05
1.28289e-05
1.28852e-05
1.29247e-05
1.29753e-05
1.30092e-05
1.30551e-05
1.30846e-05
1.31264e-05
1.31518e-05
1.31894e-05
1.32114e-05
1.32455e-05
1.32646e-05
1.32958e-05
1.33126e-05
1.33411e-05
1.33557e-05
1.33816e-05
1.33944e-05
1.34176e-05
1.34288e-05
1.34499e-05
1.34598e-05
1.34791e-05
1.34879e-05
1.35056e-05
1.35134e-05
1.35295e-05
1.35362e-05
1.35508e-05
1.35566e-05
1.35698e-05
1.3575e-05
1.35869e-05
1.35915e-05
1.36023e-05
1.36064e-05
1.36164e-05
1.36193e-05
1.36328e-05
1.69121e-12
2.47762e-09
9.48952e-10
1.68925e-08
4.60507e-08
1.60192e-07
1.60966e-07
6.42766e-07
1.0411e-06
1.93121e-06
3.20527e-06
4.12398e-06
5.08225e-06
6.01911e-06
6.92841e-06
7.71883e-06
8.4589e-06
9.13707e-06
9.74947e-06
1.0284e-05
1.07859e-05
1.12438e-05
1.1643e-05
1.19643e-05
1.22687e-05
1.2539e-05
1.27989e-05
1.30308e-05
1.32548e-05
1.34573e-05
1.36507e-05
1.3826e-05
1.39918e-05
1.41452e-05
1.42891e-05
1.44261e-05
1.45513e-05
1.46752e-05
1.47841e-05
1.48961e-05
1.49899e-05
1.50919e-05
1.51731e-05
1.52665e-05
1.5337e-05
1.54229e-05
1.5485e-05
1.5564e-05