/*--------------------------------*- C++ -*----------------------------------*\
| =========                 |                                                 |
| \\      /  F ield         | OpenFOAM: The Open Source CFD Toolbox           |
|  \\    /   O peration     | Version:  v1912                                 |
|   \\  /    A nd           | Website:  www.openfoam.com                      |
|    \\/     M anipulation  |                                                 |
\*---------------------------------------------------------------------------*/
FoamFile
{
    version     2.0;
    format      ascii;
    class       volScalarField;
    location    "300";
    object      omega;
}
// * * * * * * * * * * * * * * * * * * * * * * * * * * * * * * * * * * * * * //

dimensions      [0 0 -1 0 0 0 0];


internalField   nonuniform List<scalar> 
10000
(
615.505
438.594
378.3
316.364
303.122
282.633
284.502
278.213
286.145
283.987
294.992
294.93
308.512
308.627
324.023
327.773
342.529
346.968
361.654
370.572
629.426
465.328
408.63
354.546
347.825
325.521
328.187
323.17
330.082
327.773
336.75
335.71
345.807
345.393
356.189
356.153
367.484
367.698
379.458
379.822
597.59
418.706
317.81
259.996
216.638
190.874
166.824
153.214
138.084
129.852
119.747
114.011
107.209
102.571
98.1965
93.986
91.4384
87.5353
86.4193
83.2482
596.816
413.664
313.306
251.104
209.042
178.855
156.311
138.597
124.806
113.081
103.982
95.5245
89.2575
82.7487
78.3347
73.0648
70.0073
65.5409
63.1867
59.1358
596.792
413.567
313.268
250.941
208.917
178.615
156.056
138.266
124.384
112.642
103.373
94.9443
88.4686
81.9772
77.34
72.0865
68.5807
63.9938
60.6706
55.662
596.783
413.571
313.26
250.952
208.894
178.638
156.011
138.302
124.312
112.691
103.265
95.0215
88.2955
82.1058
77.1224
72.2234
68.4703
64.341
61.3458
57.7337
596.781
413.579
313.258
250.968
208.881
178.665
155.983
138.344
124.265
112.753
103.194
95.1054
88.1997
82.2142
76.9948
72.3806
68.3121
64.6186
61.334
58.3132
596.787
413.591
313.261
250.982
208.876
178.686
155.968
138.376
124.236
112.799
103.149
95.1671
88.1367
82.2941
76.9088
72.4906
68.1945
64.7766
61.2253
58.5423
596.8
413.603
313.269
250.988
208.882
178.688
155.973
138.375
124.242
112.795
103.157
95.1594
88.1479
82.2813
76.9242
72.4715
68.2163
64.7524
61.2592
58.5226
596.796
413.606
313.275
250.987
208.891
178.682
155.987
138.363
124.262
112.774
103.186
95.1279
88.1876
82.237
76.9763
72.4138
68.282
64.6791
61.3458
58.4279
596.792
413.608
313.28
250.988
208.899
178.68
155.997
138.357
124.276
112.763
103.204
95.111
88.2118
82.2132
77.0078
72.3817
68.3211
64.6398
61.391
58.3828
596.793
413.615
313.286
250.994
208.903
178.685
156
138.361
124.279
112.767
103.206
95.1155
88.2116
82.2185
77.0063
72.388
68.318
64.648
61.3852
58.3945
596.795
413.622
313.291
250.999
208.907
178.689
156.003
138.365
124.28
112.772
103.206
95.1206
88.2107
82.2243
77.0041
72.3946
68.3144
64.6556
61.3801
58.4035
596.796
413.629
313.297
251.004
208.912
178.693
156.007
138.368
124.284
112.774
103.209
95.1218
88.214
82.2247
77.0076
72.3942
68.3184
64.6543
61.3846
58.4013
596.794
413.634
313.302
251.009
208.916
178.697
156.01
138.371
124.286
112.776
103.212
95.1239
88.2165
82.2263
77.01
72.3955
68.3207
64.6552
61.3869
58.402
596.792
413.639
313.306
251.014
208.92
178.701
156.013
138.375
124.288
112.78
103.212
95.1281
88.2163
82.231
77.0088
72.4008
68.3185
64.6615
61.3834
58.4096
596.791
413.645
313.311
251.019
208.924
178.706
156.016
138.379
124.29
112.784
103.214
95.1323
88.2164
82.2355
77.008
72.4058
68.3167
64.667
61.3807
58.4159
596.79
413.651
313.316
251.023
208.928
178.71
156.019
138.382
124.293
112.787
103.216
95.1345
88.2188
82.2374
77.0102
72.4074
68.3188
64.6684
61.3827
58.4171
596.792
413.657
313.322
251.028
208.933
178.713
156.023
138.385
124.297
112.789
103.22
95.1353
88.223
82.2374
77.0147
72.4065
68.3238
64.6666
61.3884
58.4143
596.794
413.664
313.328
251.033
208.938
178.717
156.027
138.388
124.3
112.791
103.223
95.1374
88.2257
82.2391
77.0174
72.4079
68.3264
64.6679
61.3909
58.4157
596.804
413.674
313.336
251.04
208.943
178.722
156.032
138.392
124.304
112.794
103.226
95.1403
88.2281
82.2419
77.0194
72.4107
68.328
64.6705
61.3923
58.4185
596.816
413.686
313.345
251.047
208.95
178.727
156.037
138.396
124.308
112.798
103.23
95.1437
88.2324
82.2451
77.0237
72.4138
68.3324
64.6737
61.3967
58.4221
596.854
413.709
313.36
251.058
208.958
178.734
156.041
138.4
124.311
112.801
103.232
95.146
88.233
82.2468
77.0236
72.4151
68.3317
64.6747
61.3956
58.4228
596.843
413.708
313.36
251.06
208.959
178.737
156.043
138.404
124.312
112.805
103.232
95.1507
88.2333
82.252
77.0235
72.4208
68.3315
64.6811
61.3955
58.4294
596.789
413.684
313.348
251.053
208.955
178.735
156.042
138.404
124.313
112.807
103.234
95.1533
88.235
82.2553
77.0255
72.4249
68.3337
64.6856
61.398
58.4345
596.748
413.665
313.337
251.046
208.95
178.731
156.039
138.401
124.31
112.804
103.232
95.1498
88.2329
82.2515
77.0233
72.4205
68.3312
64.681
61.3952
58.4298
596.73
413.657
313.334
251.044
208.95
178.73
156.039
138.4
124.31
112.803
103.232
95.1486
88.2329
82.2499
77.0233
72.4186
68.3312
64.6786
61.3951
58.4273
596.725
413.656
313.335
251.045
208.951
178.731
156.04
138.401
124.311
112.804
103.233
95.149
88.2337
82.2502
77.0241
72.4187
68.332
64.6787
61.396
58.4275
596.723
413.657
313.336
251.047
208.952
178.732
156.041
138.402
124.313
112.804
103.234
95.1498
88.2347
82.2509
77.025
72.4194
68.3329
64.6793
61.3969
58.4282
596.722
413.658
313.338
251.048
208.954
178.734
156.042
138.404
124.314
112.805
103.235
95.1506
88.2355
82.2516
77.0257
72.4201
68.3336
64.6801
61.3977
58.4291
596.721
413.658
313.339
251.05
208.955
178.735
156.043
138.405
124.315
112.806
103.235
95.1515
88.2363
82.2524
77.0265
72.4208
68.3343
64.6808
61.3985
58.43
596.72
413.659
313.34
251.051
208.956
178.736
156.045
138.406
124.315
112.807
103.236
95.1522
88.237
82.2531
77.0272
72.4215
68.335
64.6815
61.3993
58.4308
596.72
413.66
313.342
251.052
208.957
178.737
156.045
138.406
124.316
112.808
103.237
95.153
88.2377
82.2538
77.0278
72.4221
68.3357
64.6821
61.4
58.4316
596.719
413.66
313.343
251.053
208.958
178.738
156.046
138.407
124.317
112.809
103.238
95.1536
88.2384
82.2544
77.0284
72.4227
68.3363
64.6828
61.4008
58.4324
596.719
413.66
313.344
251.054
208.959
178.739
156.047
138.408
124.318
112.809
103.238
95.1543
88.239
82.255
77.029
72.4234
68.3369
64.6835
61.4014
58.4333
596.718
413.661
313.345
251.055
208.96
178.74
156.048
138.409
124.319
112.81
103.239
95.1549
88.2395
82.2556
77.0295
72.4239
68.3375
64.6842
61.4022
58.4341
596.718
413.661
313.345
251.056
208.961
178.741
156.049
138.41
124.319
112.811
103.24
95.1555
88.2401
82.2561
77.0301
72.4245
68.338
64.6848
61.4028
58.4348
596.718
413.661
313.346
251.057
208.962
178.741
156.049
138.41
124.32
112.811
103.24
95.156
88.2406
82.2566
77.0306
72.425
68.3386
64.6854
61.4035
58.4356
596.717
413.661
313.347
251.057
208.962
178.742
156.05
138.411
124.32
112.812
103.241
95.1565
88.2411
82.2571
77.0311
72.4256
68.3391
64.686
61.4042
58.4364
596.717
413.661
313.347
251.058
208.963
178.743
156.051
138.411
124.321
112.812
103.241
95.1569
88.2415
82.2576
77.0315
72.426
68.3397
64.6866
61.4049
58.4371
596.717
413.661
313.347
251.059
208.963
178.743
156.051
138.412
124.321
112.813
103.241
95.1574
88.2419
82.2581
77.032
72.4265
68.3402
64.6872
61.4056
58.4379
596.717
413.661
313.348
251.059
208.964
178.744
156.051
138.412
124.322
112.813
103.242
95.1578
88.2423
82.2585
77.0325
72.427
68.3408
64.6878
61.4063
58.4386
596.717
413.661
313.348
251.059
208.964
178.744
156.052
138.413
124.322
112.814
103.242
95.1581
88.2428
82.2589
77.033
72.4275
68.3413
64.6883
61.407
58.4393
596.717
413.662
313.348
251.06
208.965
178.744
156.052
138.413
124.322
112.814
103.243
95.1585
88.2432
82.2593
77.0334
72.428
68.3419
64.6889
61.4077
58.4401
596.717
413.661
313.348
251.06
208.965
178.745
156.053
138.413
124.323
112.814
103.243
95.1589
88.2435
82.2597
77.0338
72.4285
68.3424
64.6896
61.4083
58.4409
596.717
413.662
313.349
251.06
208.965
178.745
156.053
138.414
124.323
112.815
103.243
95.1593
88.2439
82.2601
77.0343
72.429
68.3429
64.6902
61.409
58.4417
596.717
413.661
313.349
251.061
208.966
178.745
156.053
138.414
124.323
112.815
103.244
95.1596
88.2443
82.2605
77.0347
72.4295
68.3435
64.6908
61.4097
58.4424
596.717
413.661
313.349
251.061
208.966
178.746
156.053
138.414
124.324
112.815
103.244
95.16
88.2447
82.261
77.0352
72.43
68.3441
64.6914
61.4104
58.4432
596.717
413.661
313.349
251.061
208.966
178.746
156.054
138.415
124.324
112.816
103.244
95.1603
88.2451
82.2614
77.0356
72.4305
68.3446
64.692
61.4111
58.4439
596.717
413.661
313.349
251.061
208.966
178.746
156.054
138.415
124.324
112.816
103.245
95.1606
88.2455
82.2617
77.0361
72.4309
68.3453
64.6926
61.4118
58.4446
596.716
413.661
313.349
251.061
208.966
178.746
156.054
138.415
124.325
112.816
103.245
95.161
88.2458
82.2622
77.0366
72.4315
68.3458
64.6933
61.4125
58.4454
596.716
413.661
313.349
251.061
208.967
178.746
156.054
138.415
124.325
112.816
103.245
95.1614
88.2462
82.2626
77.0371
72.432
68.3464
64.694
61.4132
58.4462
596.716
413.661
313.349
251.061
208.967
178.747
156.055
138.416
124.325
112.817
103.246
95.1617
88.2466
82.2631
77.0375
72.4326
68.347
64.6946
61.4139
58.4469
596.716
413.661
313.349
251.061
208.967
178.747
156.055
138.416
124.325
112.817
103.246
95.1621
88.247
82.2635
77.038
72.4331
68.3475
64.6952
61.4146
58.4476
596.716
413.661
313.349
251.062
208.967
178.747
156.055
138.416
124.326
112.817
103.246
95.1624
88.2474
82.2639
77.0386
72.4336
68.3482
64.6958
61.4153
58.4483
596.716
413.661
313.349
251.062
208.967
178.747
156.055
138.416
124.326
112.818
103.247
95.1628
88.2479
82.2644
77.0391
72.4341
68.3488
64.6964
61.416
58.449
596.716
413.661
313.349
251.062
208.967
178.747
156.055
138.416
124.326
112.818
103.247
95.1631
88.2483
82.2648
77.0396
72.4347
68.3494
64.6971
61.4167
58.4496
596.716
413.661
313.349
251.062
208.967
178.747
156.056
138.417
124.326
112.818
103.247
95.1635
88.2487
82.2653
77.0401
72.4352
68.35
64.6977
61.4173
58.4503
596.716
413.661
313.349
251.062
208.967
178.747
156.056
138.417
124.327
112.818
103.248
95.1639
88.2491
82.2657
77.0405
72.4357
68.3505
64.6983
61.4179
58.451
596.716
413.661
313.349
251.062
208.967
178.748
156.056
138.417
124.327
112.819
103.248
95.1642
88.2495
82.2662
77.041
72.4362
68.3511
64.6989
61.4185
58.4516
596.716
413.661
313.349
251.062
208.967
178.748
156.056
138.417
124.327
112.819
103.248
95.1646
88.2499
82.2666
77.0415
72.4368
68.3516
64.6994
61.4191
58.4522
596.716
413.661
313.349
251.062
208.968
178.748
156.056
138.417
124.327
112.819
103.248
95.1649
88.2503
82.267
77.042
72.4372
68.3521
64.7
61.4197
58.4528
596.716
413.661
313.349
251.062
208.968
178.748
156.056
138.418
124.327
112.819
103.249
95.1653
88.2506
82.2675
77.0423
72.4378
68.3526
64.7005
61.4201
58.4534
596.716
413.661
313.349
251.062
208.968
178.748
156.056
138.418
124.328
112.82
103.249
95.1656
88.251
82.2678
77.0428
72.4382
68.3531
64.701
61.4207
58.4538
596.716
413.661
313.349
251.062
208.968
178.748
156.057
138.418
124.328
112.82
103.249
95.1659
88.2513
82.2682
77.0432
72.4386
68.3535
64.7014
61.4212
58.4543
596.716
413.661
313.349
251.062
208.968
178.748
156.057
138.418
124.328
112.82
103.25
95.1662
88.2516
82.2685
77.0436
72.4389
68.3539
64.7018
61.4216
58.4547
596.716
413.661
313.349
251.062
208.968
178.748
156.057
138.418
124.328
112.82
103.25
95.1665
88.2519
82.2689
77.0438
72.4394
68.3542
64.7023
61.4219
58.4551
596.716
413.661
313.349
251.062
208.968
178.748
156.057
138.418
124.328
112.821
103.25
95.1667
88.2522
82.2691
77.0442
72.4396
68.3546
64.7025
61.4223
58.4554
596.716
413.661
313.349
251.062
208.968
178.749
156.057
138.419
124.329
112.821
103.25
95.1669
88.2524
82.2694
77.0445
72.4399
68.3549
64.7028
61.4226
58.4557
596.716
413.661
313.349
251.062
208.968
178.749
156.057
138.419
124.329
112.821
103.25
95.1671
88.2527
82.2696
77.0447
72.4401
68.3552
64.7031
61.4229
58.456
596.716
413.661
313.349
251.062
208.968
178.749
156.057
138.419
124.329
112.821
103.251
95.1673
88.2528
82.2698
77.0449
72.4403
68.3554
64.7033
61.4231
58.4562
596.716
413.661
313.349
251.062
208.968
178.749
156.057
138.419
124.329
112.821
103.251
95.1674
88.253
82.27
77.0451
72.4405
68.3555
64.7035
61.4232
58.4563
596.716
413.661
313.349
251.062
208.968
178.749
156.057
138.419
124.329
112.821
103.251
95.1676
88.2531
82.2701
77.0452
72.4407
68.3557
64.7036
61.4234
58.4565
596.716
413.661
313.349
251.062
208.968
178.749
156.057
138.419
124.329
112.821
103.251
95.1677
88.2532
82.2702
77.0453
72.4408
68.3557
64.7038
61.4234
58.4567
596.716
413.661
313.35
251.062
208.968
178.749
156.058
138.419
124.329
112.821
103.251
95.1677
88.2533
82.2703
77.0454
72.4409
68.3559
64.7038
61.4235
58.4566
596.716
413.661
313.35
251.062
208.968
178.749
156.058
138.419
124.329
112.822
103.251
95.1678
88.2533
82.2704
77.0454
72.441
68.3558
64.7039
61.4235
58.4567
596.716
413.661
313.35
251.062
208.968
178.749
156.058
138.419
124.329
112.822
103.251
95.1678
88.2534
82.2703
77.0455
72.4409
68.3559
64.7038
61.4236
58.4567
596.716
413.661
313.35
251.062
208.968
178.749
156.058
138.419
124.329
112.822
103.251
95.1678
88.2534
82.2704
77.0455
72.4409
68.3559
64.7038
61.4236
58.4566
596.716
413.661
313.35
251.062
208.968
178.749
156.058
138.419
124.329
112.822
103.251
95.1678
88.2534
82.2703
77.0455
72.4409
68.3559
64.7038
61.4235
58.4566
596.716
413.661
313.35
251.062
208.968
178.749
156.058
138.419
124.329
112.822
103.251
95.1678
88.2534
82.2703
77.0454
72.4409
68.3559
64.7038
61.4235
58.4565
596.716
413.661
313.35
251.062
208.968
178.749
156.058
138.419
124.329
112.822
103.251
95.1678
88.2533
82.2703
77.0454
72.4408
68.3558
64.7037
61.4234
58.4565
596.716
413.661
313.35
251.062
208.968
178.749
156.058
138.419
124.329
112.822
103.251
95.1677
88.2533
82.2702
77.0453
72.4408
68.3557
64.7036
61.4233
58.4564
596.716
413.661
313.35
251.062
208.968
178.749
156.058
138.419
124.329
112.821
103.251
95.1677
88.2532
82.2702
77.0453
72.4407
68.3557
64.7035
61.4233
58.4563
596.716
413.661
313.35
251.062
208.968
178.749
156.058
138.419
124.329
112.821
103.251
95.1676
88.2532
82.2701
77.0452
72.4406
68.3556
64.7035
61.4232
58.4562
596.716
413.661
313.35
251.062
208.968
178.749
156.058
138.419
124.329
112.821
103.251
95.1676
88.2531
82.2701
77.0451
72.4405
68.3555
64.7034
61.4231
58.4561
596.716
413.661
313.35
251.062
208.968
178.749
156.058
138.419
124.329
112.821
103.251
95.1675
88.2531
82.27
77.0451
72.4405
68.3554
64.7033
61.423
58.456
596.716
413.661
313.35
251.062
208.968
178.749
156.057
138.419
124.329
112.821
103.251
95.1675
88.253
82.2699
77.045
72.4404
68.3553
64.7032
61.4229
58.4559
596.716
413.661
313.35
251.062
208.968
178.749
156.057
138.419
124.329
112.821
103.251
95.1674
88.253
82.2699
77.0449
72.4403
68.3552
64.7031
61.4228
58.4558
596.716
413.661
313.35
251.062
208.968
178.749
156.057
138.419
124.329
112.821
103.251
95.1674
88.2529
82.2698
77.0449
72.4402
68.3552
64.703
61.4227
58.4556
596.716
413.661
313.35
251.062
208.968
178.749
156.057
138.419
124.329
112.821
103.251
95.1673
88.2529
82.2697
77.0448
72.4402
68.3551
64.7029
61.4226
58.4556
596.716
413.661
313.35
251.062
208.968
178.749
156.057
138.419
124.329
112.821
103.251
95.1673
88.2528
82.2697
77.0447
72.4401
68.355
64.7028
61.4225
58.4555
596.716
413.661
313.35
251.062
208.968
178.749
156.057
138.419
124.329
112.821
103.251
95.1673
88.2528
82.2696
77.0447
72.44
68.3549
64.7028
61.4224
58.4554
596.716
413.661
313.35
251.062
208.968
178.749
156.057
138.419
124.329
112.821
103.251
95.1672
88.2527
82.2696
77.0446
72.44
68.3549
64.7027
61.4223
58.4553
596.716
413.661
313.35
251.062
208.968
178.749
156.057
138.419
124.329
112.821
103.251
95.1672
88.2526
82.2696
77.0445
72.44
68.3547
64.7027
61.4222
58.4553
596.716
413.661
313.35
251.062
208.968
178.749
156.057
138.419
124.329
112.821
103.251
95.1672
88.2526
82.2695
77.0445
72.4399
68.3547
64.7025
61.4222
58.4551
596.717
413.661
313.35
251.063
208.968
178.749
156.057
138.419
124.329
112.821
103.251
95.1671
88.2526
82.2695
77.0445
72.4398
68.3547
64.7025
61.4221
58.4551
596.717
413.662
313.35
251.063
208.968
178.749
156.057
138.419
124.329
112.821
103.25
95.1671
88.2526
82.2694
77.0444
72.4397
68.3546
64.7024
61.422
58.455
596.717
413.662
313.35
251.063
208.968
178.749
156.057
138.419
124.329
112.821
103.25
95.1671
88.2525
82.2694
77.0443
72.4398
68.3545
64.7024
61.4219
58.455
596.717
413.662
313.35
251.063
208.968
178.749
156.057
138.419
124.329
112.821
103.25
95.1671
88.2525
82.2694
77.0443
72.4397
68.3545
64.7024
61.4218
58.4549
596.717
413.662
313.35
251.063
208.968
178.749
156.057
138.419
124.329
112.821
103.25
95.167
88.2525
82.2693
77.0443
72.4396
68.3545
64.7023
61.4219
58.4548
3488.02
3491.46
3261.77
3085.56
3019.61
2987.13
2974.45
2960.94
2948.95
2930.94
2913.79
2894.8
2877.68
2859.49
2844.2
2828.01
2815.01
2800.6
2789.26
2776.25
2766.19
2754.51
2745.67
2735.12
2727.23
2717.5
2710.38
2701.38
2694.97
2686.62
2680.86
2673.08
2667.84
2660.49
2655.68
2648.73
2644.33
2637.76
2633.74
2627.51
2623.82
2617.86
2614.46
2608.73
2605.59
2600.09
2597.19
2591.91
2589.24
2584.14
2581.67
2576.72
2574.43
2569.65
2567.51
2562.89
2560.9
2556.43
2554.57
2550.23
2548.49
2544.25
2542.64
2538.51
2537.01
2532.97
2531.58
2527.63
2526.36
2522.48
2521.3
2517.49
2516.39
2512.65
2511.64
2507.96
2507.04
2503.39
2502.61
2498.78
1180.28
1569.55
1691.78
1760.6
1717.93
1599.59
1503.47
1422.37
1362.85
1318.64
1286.84
1260.7
1240.49
1222.71
1208.62
1195.4
1184.4
1173.47
1164.46
1155.23
1147.79
1139.88
1133.64
1126.64
1121.22
1114.99
1110.29
1104.69
1100.58
1095.51
1091.89
1087.24
1083.99
1079.7
1076.81
1072.84
1070.25
1066.54
1064.22
1060.74
1058.63
1055.34
1053.43
1050.31
1048.6
1045.62
1044.08
1041.22
1039.84
1037.08
1035.85
1033.17
1032.09
1029.47
1028.53
1025.97
1025.16
1022.64
1021.95
1019.47
1018.9
1016.44
1015.98
1013.55
1013.2
1010.78
1010.55
1008.13
1008
1005.58
1005.51
1003.16
1003.06
1000.87
1000.73
998.659
998.491
996.526
996.308
994.492
257.784
541.447
763.044
965.257
1027.7
1001.17
917.314
865.124
825.248
790.563
764.542
743.282
726.744
712.774
701.644
691.501
683.054
675.005
668.361
661.753
656.42
650.882
646.504
641.64
637.879
633.597
630.377
626.569
623.785
620.379
617.957
614.831
612.669
609.803
607.895
605.257
603.566
601.119
599.619
597.324
595.965
593.804
592.582
590.542
589.449
587.515
586.539
584.7
583.813
582.059
581.251
579.573
578.84
577.234
576.57
575.028
574.427
572.941
572.395
570.956
570.464
569.067
568.627
567.269
566.879
565.554
565.214
563.915
563.62
562.341
562.083
560.838
560.596
559.405
559.175
558.029
557.808
556.711
556.494
555.378
81.2277
117.035
239.239
373.19
542.151
661.04
677.033
659.297
625.734
596.583
573.39
552.345
535.5
521.285
509.445
498.757
490.12
482.219
475.658
469.354
464.22
459.047
454.848
450.383
446.864
443.023
440.057
436.687
434.16
431.178
428.998
426.274
424.356
421.882
420.209
417.95
416.482
414.401
413.11
411.167
410.007
408.186
407.15
405.445
404.523
402.92
402.099
400.587
399.838
398.406
397.721
396.366
395.739
394.457
393.883
392.667
392.139
390.982
390.491
389.386
388.93
387.873
387.452
386.439
386.051
385.079
384.721
383.783
383.452
382.542
382.237
381.357
381.074
380.225
379.963
379.143
378.898
378.109
377.888
377.024
54.6408
51.1514
82.797
99.7357
181.399
273.663
405.845
484.969
502.397
496.506
479.112
460.339
445.02
430.635
417.818
406.344
396.889
388.157
380.834
374.001
368.331
362.738
358.089
353.453
349.714
345.808
342.688
339.307
336.68
333.716
331.451
328.784
326.825
324.439
322.745
320.583
319.104
317.129
315.833
314.001
312.847
311.144
310.121
308.539
307.632
306.155
305.349
303.962
303.229
301.923
301.257
300.028
299.422
298.265
297.712
296.622
296.114
295.081
294.608
293.628
293.188
292.258
291.85
290.966
290.586
289.746
289.391
288.588
288.254
287.484
287.171
286.431
286.14
285.429
285.158
284.473
284.222
283.561
283.338
282.591
54.8241
50.6153
50.6113
51.4108
62.9779
73.0516
140.776
215.739
315.75
378.765
398.362
396.745
388.376
376.442
365.45
355.211
345.648
336.332
328.455
321.104
314.768
308.589
303.346
298.288
294.082
289.808
286.31
282.655
279.736
276.543
274.04
271.26
269.136
266.681
264.848
262.641
261.042
259.044
257.642
255.81
254.574
252.89
251.801
250.249
249.284
247.844
246.985
245.639
244.863
243.603
242.904
241.724
241.091
239.984
239.411
238.37
237.846
236.862
236.377
235.447
235
234.119
233.707
232.873
232.491
231.702
231.345
230.593
230.258
229.541
229.226
228.542
228.248
227.594
227.321
226.692
226.438
225.833
225.604
224.918
55.4519
52.7726
49.9853
48.1371
46.2618
45.9107
52.6858
61.0832
112.237
168.055
247.631
301.374
324.614
327.551
324.53
317.791
310.019
302.439
295.523
288.456
281.955
275.644
270.152
264.804
260.137
255.473
251.577
247.594
244.314
240.811
237.989
234.969
232.59
229.934
227.874
225.501
223.71
221.581
220.017
218.105
216.739
215.001
213.801
212.212
211.146
209.68
208.728
207.367
206.516
205.253
204.49
203.312
202.625
201.525
200.903
199.872
199.306
198.332
197.814
196.896
196.423
195.556
195.123
194.303
193.904
193.129
192.759
192.021
191.676
190.975
190.652
189.986
189.686
189.05
188.77
188.164
187.902
187.321
187.082
186.421
55.4792
53.3683
50.599
48.871
46.3
44.9006
42.7163
42.0747
46.0594
51.264
85.6139
126.874
189.032
238.095
265.708
275.903
275.52
273.076
268.043
262.521
257.356
252.223
247.306
242.263
237.577
232.929
228.909
224.786
221.241
217.535
214.466
211.211
208.569
205.67
203.363
200.785
198.779
196.476
194.711
192.645
191.108
189.246
187.898
186.204
185.004
183.449
182.376
180.955
180.007
178.698
177.851
176.637
175.875
174.745
174.058
173.001
172.377
171.385
170.818
169.887
169.372
168.496
168.027
167.199
166.77
165.986
165.59
164.847
164.481
163.776
163.437
162.767
162.454
161.817
161.525
160.918
160.646
160.066
159.816
159.157
55.5532
53.3711
50.8072
49.0238
46.7757
45.1612
43.1477
41.7035
39.5658
37.1382
40.423
42.9863
64.8842
90.915
136.53
182.699
214.169
231.341
236.67
236.252
234.227
230.794
226.937
223.095
219.428
215.587
211.988
208.172
204.721
201.153
198.112
194.815
192.045
189.009
186.554
183.838
181.668
179.216
177.271
175.044
173.336
171.329
169.822
167.993
166.647
164.975
163.773
162.248
161.186
159.786
158.835
157.542
156.689
155.491
154.721
153.605
152.91
151.873
151.248
150.279
149.713
148.803
148.288
147.43
146.96
146.148
145.718
144.95
144.558
143.831
143.47
142.78
142.448
141.793
141.485
140.861
140.575
139.98
139.717
139.042
55.6756
53.2698
50.9745
48.9414
47.015
45.209
43.5902
41.9158
40.4294
38.8207
37.3243
35.3942
36.3789
37.1011
48.7778
62.4733
93.7443
130.606
165.178
188.794
200.948
205.559
205.302
204.034
201.776
198.865
196.103
193.177
190.471
187.538
184.915
181.932
179.345
176.472
174.115
171.443
169.255
166.76
164.75
162.455
160.649
158.543
156.916
154.975
153.513
151.738
150.428
148.793
147.616
146.107
145.052
143.661
142.713
141.428
140.571
139.375
138.601
137.49
136.796
135.761
135.134
134.163
133.594
132.68
132.161
131.3
130.832
130.021
129.597
128.83
128.443
127.716
127.361
126.672
126.344
125.689
125.384
124.762
124.482
123.779
55.7311
53.2222
51.0362
48.9012
47.0734
45.2218
43.6782
42.0322
40.7145
39.2004
38.0112
36.5383
35.3555
34.0067
33.3838
32.8209
38.191
43.7295
60.2157
86.2376
116.74
144.541
164.31
175.137
179.961
180.3
179.636
178.023
176.225
173.933
171.947
169.632
167.655
165.314
163.356
160.983
159.027
156.711
154.858
152.682
150.931
148.849
147.205
145.245
143.75
141.931
140.568
138.865
137.611
136.023
134.889
133.419
132.393
131.026
130.094
128.817
127.971
126.778
126.016
124.903
124.214
123.168
122.543
121.559
120.992
120.065
119.555
118.68
118.22
117.392
116.976
116.191
115.811
115.068
114.717
114.016
113.689
113.027
112.728
111.984
55.7216
53.2432
51.016
48.9334
47.0444
45.2696
43.6443
42.1154
40.6943
39.3706
38.0961
36.9252
35.7721
34.6517
33.5688
32.5796
31.5551
30.2762
31.9297
33.3421
41.3721
52.4477
74.25
99.0902
122.782
141.123
152.309
157.712
159.577
159.306
158.51
156.987
155.667
153.883
152.416
150.549
149.099
147.22
145.744
143.874
142.365
140.49
139.013
137.202
135.821
134.072
132.759
131.077
129.834
128.245
127.099
125.6
124.542
123.125
122.151
120.818
119.929
118.674
117.863
116.681
115.941
114.826
114.155
113.103
112.497
111.5
110.953
110.006
109.512
108.613
108.167
107.315
106.91
106.104
105.728
104.969
104.62
103.905
103.584
102.785
55.7151
53.2523
51.0115
48.9404
47.0432
45.2743
43.6485
42.1177
40.7092
39.3719
38.1378
36.9567
35.8696
34.8
33.8363
32.8512
31.9507
31.0081
30.1473
29.3094
28.8364
28.615
31.5714
34.8842
44.5015
59.6853
80.288
100.651
118.238
130.743
137.876
141.122
142.001
141.715
141.027
139.767
138.775
137.382
136.261
134.78
133.669
132.184
131.048
129.537
128.404
126.858
125.728
124.2
123.104
121.632
120.579
119.139
118.13
116.735
115.788
114.458
113.579
112.307
111.488
110.27
109.511
108.352
107.66
106.557
105.93
104.875
104.304
103.294
102.777
101.813
101.346
100.431
100.003
99.1386
98.7399
97.9238
97.5536
96.7829
96.4396
95.581
55.7208
53.2473
51.0199
48.9325
47.0542
45.2639
43.6622
42.1057
40.7272
39.3585
38.1628
36.9452
35.9038
34.807
33.8945
32.8992
32.0896
31.1702
30.446
29.5618
28.9247
28.0883
27.5298
26.6966
26.9654
27.3596
31.0433
35.858
46.5748
61.316
78.9115
95.4633
109.038
118.556
123.891
126.437
127.076
126.898
126.379
125.382
124.612
123.505
122.685
121.461
120.628
119.406
118.578
117.324
116.484
115.223
114.359
113.079
112.223
110.952
110.132
108.893
108.1
106.881
106.119
104.925
104.207
103.054
102.388
101.272
100.657
99.576
99.0071
97.9624
97.4415
96.4391
95.9615
95.0051
94.5594
93.6531
93.2361
92.3764
91.9872
91.1749
90.8098
89.8993
55.7235
53.2483
51.0217
48.9341
47.0547
45.2666
43.6609
42.1098
40.7239
39.3644
38.1572
36.9547
35.8951
34.8224
33.8862
32.9217
32.0895
31.2171
30.4671
29.6798
28.9908
28.2699
27.6417
26.9431
26.3861
25.7716
25.2532
24.9159
25.3166
26.0696
29.6577
34.8679
45.0787
58.019
72.7594
86.6354
97.9716
106.093
110.944
113.403
114.271
114.174
113.929
113.14
112.572
111.65
111.051
110.079
109.452
108.427
107.812
106.782
106.162
105.101
104.48
103.401
102.764
101.675
101.044
99.9578
99.3526
98.28
97.6977
96.632
96.0731
95.0232
94.495
93.4717
92.9769
91.9854
91.5151
90.5608
90.1129
89.1958
88.773
87.8981
87.4996
86.6677
86.2893
85.3475
55.7186
53.258
51.0139
48.9464
47.0439
45.2818
43.647
42.1281
40.7069
39.3857
38.1371
36.9793
35.8718
34.8506
33.8604
32.9537
32.0621
31.2544
30.4421
29.7242
28.9759
28.3343
27.6449
27.062
26.4227
25.8961
25.2884
24.8234
24.2558
23.8698
23.4191
23.2579
23.6842
24.3861
27.4915
32.0142
40.8443
51.42
63.896
75.7851
86.0799
93.7495
98.7635
101.638
102.968
103.179
103.064
102.653
102.226
101.444
100.987
100.183
99.7494
98.8773
98.4325
97.5469
97.1093
96.2233
95.772
94.8635
94.4096
93.485
93.0213
92.0831
91.62
90.6827
90.2314
89.3103
88.8684
87.9574
87.5234
86.6248
86.2036
85.3273
84.9239
84.0779
83.6907
82.8735
82.4985
81.56
55.7152
53.2648
51.0106
48.953
47.0405
45.2882
43.6436
42.1342
40.7038
39.3913
38.1345
36.9841
35.87
34.8545
33.8591
32.9571
32.0615
31.2561
30.4443
29.7227
28.9821
28.3319
27.6544
27.0649
26.4414
25.9062
25.3294
24.8399
24.3056
23.8561
23.3626
22.9523
22.4998
22.1474
21.791
21.6233
21.6955
22.8304
24.6705
28.1326
34.9329
43.2514
53.5101
63.8714
73.3876
81.3019
86.8296
90.5032
92.512
93.4123
93.5418
93.3885
93.1395
92.5588
92.2257
91.5311
91.1932
90.4987
90.159
89.4318
89.0872
88.3533
88.0122
87.278
86.9281
86.1701
85.8195
85.0508
84.6931
83.9086
83.5495
82.7599
82.4052
81.6258
81.2768
80.5081
80.1613
79.4025
79.0595
78.1633
55.7175
53.2652
51.0133
48.9524
47.0438
45.2866
43.6477
42.1314
40.709
39.3869
38.1413
36.9779
35.8786
34.8463
33.8698
32.9467
32.0744
31.243
30.4604
29.7063
29.0018
28.3133
27.6768
27.0448
26.4684
25.8844
25.3615
24.819
24.3441
23.8365
23.4058
22.9265
22.5369
22.085
21.7296
21.303
20.9822
20.5695
20.3028
20.0445
20.0335
20.8309
21.8817
24.3582
28.7978
34.5387
42.8349
51.3618
60.2269
68.0963
74.5642
79.1967
82.2715
83.9981
84.917
85.0448
84.9844
84.7052
84.4716
83.9357
83.6599
83.0721
82.8088
82.21
81.9516
81.3345
81.0751
80.4502
80.1969
79.5746
79.3154
78.6774
78.4121
77.7705
77.4943
76.8446
76.558
75.9061
75.6254
74.8111
55.7242
53.2615
51.0212
48.9474
47.053
45.2803
43.6581
42.1238
40.7204
39.3782
38.1537
36.968
35.8919
34.8354
33.8839
32.9349
32.0893
31.2305
30.4759
29.6932
29.0176
28.2996
27.6932
27.0304
26.485
25.8695
25.3785
24.8036
24.3615
23.8214
23.4236
22.9133
22.5558
22.0714
21.7503
21.2873
21.0006
20.5542
20.2991
19.8696
19.6437
19.2433
19.0732
18.7504
18.7198
18.8268
19.5034
20.4507
23.4357
26.7396
32.7305
39.1956
46.8972
54.2506
61.1773
66.9393
71.3066
74.2298
76.1834
77.0976
77.5865
77.5353
77.4716
77.1082
76.942
76.47
76.2643
75.7546
75.5446
75.0447
74.84
74.3353
74.1218
73.6108
73.3943
72.8947
72.6713
72.1712
71.9595
71.2735
55.7268
53.2633
51.0229
48.9495
47.0538
45.2828
43.658
42.127
40.7194
39.3823
38.1515
36.9732
35.8885
34.8419
33.8789
32.943
32.0825
31.2405
30.467
29.7055
29.0063
28.3145
27.6791
27.0482
26.4679
25.8907
25.3579
24.8286
24.3369
23.8507
23.3945
22.9476
22.5218
22.111
21.7111
21.3341
20.9557
20.6109
20.2497
19.9344
19.5889
19.3016
18.9692
18.7098
18.3915
18.1604
17.8681
17.6814
17.4532
17.4283
17.6174
17.9498
19.2933
20.8982
24.6334
28.4747
34.5275
40.4314
47.2181
53.0964
58.8246
62.9767
66.4874
68.422
70.01
70.5542
70.9529
70.8862
70.8062
70.5344
70.3778
70.0016
69.8195
69.4041
69.2107
68.7975
68.6062
68.2178
68.051
67.4723
55.728
53.2666
51.0238
48.9529
47.0544
45.2863
43.6584
42.1307
40.7196
39.386
38.1516
36.9771
35.8885
34.8459
33.8791
32.9469
32.0829
31.2442
30.4678
29.7088
29.0076
28.3171
27.6813
27.0498
26.4711
25.891
25.3626
24.8272
24.3435
23.8471
23.4034
22.9413
22.5336
22.1014
21.7267
21.3204
20.976
20.5923
20.2761
19.9117
19.6219
19.2739
19.0094
18.675
18.434
18.1116
17.8933
17.5814
17.3849
17.0841
16.9119
16.6298
16.4957
16.2724
16.2303
16.2887
16.6677
17.1894
18.9039
20.7075
24.4057
28.32
33.7407
38.9139
44.7428
49.6377
54.4719
57.9395
60.9387
62.6196
64.0514
64.5514
64.9933
64.9597
64.9425
64.702
64.5802
64.288
64.1755
63.672
55.7324
53.2709
51.0283
48.9569
47.059
45.2902
43.6632
42.1343
40.7246
39.3895
38.1569
36.9802
35.8941