/*--------------------------------*- C++ -*----------------------------------*\
| =========                 |                                                 |
| \\      /  F ield         | OpenFOAM: The Open Source CFD Toolbox           |
|  \\    /   O peration     | Version:  v1912                                 |
|   \\  /    A nd           | Website:  www.openfoam.com                      |
|    \\/     M anipulation  |                                                 |
\*---------------------------------------------------------------------------*/
FoamFile
{
    version     2.0;
    format      ascii;
    class       volScalarField;
    location    "300";
    object      p;
}
// * * * * * * * * * * * * * * * * * * * * * * * * * * * * * * * * * * * * * //

dimensions      [0 2 -2 0 0 0 0];


internalField   nonuniform List<scalar> 
10000
(
0.00139087
0.00261338
0.00234025
0.00219685
0.00218889
0.00222682
0.00223809
0.00227654
0.0022959
0.00235484
0.00238815
0.00247185
0.00252179
0.00264511
0.00272215
0.0029205
0.00305302
0.00344603
0.00375261
0.00507493
0.00140682
0.00259703
0.002338
0.00219624
0.00218854
0.00222667
0.00223794
0.00227652
0.00229577
0.00235489
0.00238801
0.00247197
0.00252157
0.00264534
0.00272178
0.00292091
0.00305238
0.00344654
0.00375233
0.00505256
0.00142794
0.00257489
0.00233706
0.00219647
0.00218881
0.00222672
0.00223818
0.00227646
0.00229601
0.00235472
0.00238829
0.00247167
0.00252197
0.00264485
0.00272239
0.00292004
0.00305342
0.00344445
0.00375534
0.0050078
0.00145053
0.00255291
0.00233672
0.00219694
0.00218869
0.00222681
0.00223796
0.00227658
0.00229574
0.00235491
0.00238796
0.00247194
0.00252153
0.00264521
0.00272182
0.00292046
0.00305272
0.00344423
0.00375458
0.00495982
0.00147401
0.00253039
0.002336
0.00219687
0.00218866
0.00222655
0.00223809
0.00227637
0.00229594
0.00235466
0.0023882
0.00247163
0.00252181
0.00264483
0.00272209
0.00291997
0.00305286
0.00344304
0.00375284
0.00491288
0.00149809
0.00250751
0.00233476
0.00219719
0.00218849
0.00222666
0.00223798
0.0022765
0.0022958
0.00235477
0.00238804
0.00247169
0.00252166
0.00264477
0.002722
0.00291957
0.00305298
0.00344099
0.0037514
0.00486473
0.00152291
0.00248402
0.00233345
0.00219739
0.0021885
0.00222649
0.00223803
0.00227635
0.00229585
0.00235462
0.00238807
0.00247154
0.00252165
0.00264458
0.00272193
0.00291916
0.00305292
0.00343866
0.00374961
0.00481493
0.00154833
0.00246031
0.00233169
0.00219776
0.00218832
0.00222643
0.00223796
0.00227634
0.0022958
0.00235456
0.00238804
0.00247141
0.00252163
0.00264432
0.00272191
0.00291855
0.00305288
0.00343583
0.00374721
0.00476388
0.00157441
0.00243621
0.00232966
0.0021981
0.00218821
0.00222628
0.00223794
0.00227626
0.00229578
0.00235446
0.002388
0.00247125
0.00252158
0.00264401
0.00272184
0.00291778
0.00305284
0.00343236
0.00374425
0.00471169
0.00160093
0.00241201
0.00232722
0.00219853
0.00218805
0.00222614
0.00223789
0.00227617
0.00229575
0.00235433
0.00238796
0.00247104
0.00252152
0.00264365
0.00272176
0.00291689
0.00305275
0.00342827
0.00374071
0.00465839
0.00162789
0.0023877
0.00232442
0.002199
0.00218788
0.00222595
0.00223784
0.00227606
0.0022957
0.00235418
0.00238791
0.0024708
0.00252145
0.00264319
0.00272167
0.0029158
0.0030526
0.00342349
0.00373646
0.00460402
0.00165524
0.00236338
0.00232119
0.00219951
0.00218769
0.00222573
0.00223778
0.00227593
0.00229566
0.002354
0.00238784
0.0024705
0.00252137
0.00264265
0.00272154
0.00291451
0.00305238
0.00341799
0.00373145
0.00454869
0.00168291
0.00233914
0.00231753
0.00220006
0.00218749
0.00222547
0.0022377
0.00227578
0.0022956
0.00235378
0.00238777
0.00247016
0.00252127
0.00264202
0.00272139
0.00291299
0.00305207
0.0034117
0.00372558
0.00449248
0.00171078
0.0023151
0.00231342
0.00220064
0.00218727
0.00222517
0.00223761
0.0022756
0.00229553
0.00235352
0.00238768
0.00246975
0.00252114
0.00264127
0.00272121
0.00291123
0.00305164
0.00340459
0.00371877
0.00443549
0.00173874
0.00229141
0.00230885
0.00220124
0.00218703
0.00222482
0.0022375
0.00227538
0.00229544
0.00235322
0.00238757
0.00246927
0.002521
0.00264039
0.00272098
0.00290918
0.00305106
0.00339661
0.00371091
0.00437781
0.00176667
0.00226817
0.00230381
0.00220184
0.00218678
0.00222442
0.00223737
0.00227513
0.00229534
0.00235287
0.00238744
0.00246872
0.00252082
0.00263938
0.0027207
0.00290683
0.0030503
0.00338772
0.00370192
0.00431955
0.00179448
0.0022455
0.00229832
0.00220243
0.00218653
0.00222396
0.00223722
0.00227484
0.00229522
0.00235246
0.00238729
0.00246808
0.00252061
0.00263822
0.00272036
0.00290414
0.00304932
0.00337787
0.00369168
0.00426084
0.00182203
0.00222353
0.00229236
0.002203
0.00218626
0.00222344
0.00223704
0.0022745
0.00229508
0.00235199
0.00238712
0.00246734
0.00252037
0.00263688
0.00271994
0.00290108
0.00304807
0.00336704
0.0036801
0.00420178
0.00184918
0.00220241
0.00228596
0.00220352
0.00218599
0.00222285
0.00223684
0.00227412
0.00229492
0.00235145
0.00238691
0.00246649
0.00252007
0.00263535
0.00271943
0.00289763
0.0030465
0.00335519
0.00366705
0.0041425
0.00187571
0.00218232
0.00227914
0.00220396
0.00218572
0.00222219
0.00223659
0.00227366
0.00229473
0.00235083
0.00238667
0.00246552
0.00251972
0.00263362
0.00271881
0.00289375
0.00304455
0.00334229
0.00365245
0.0040831
0.0019014
0.0021635
0.00227196
0.00220431
0.00218545
0.00222146
0.00223631
0.00227315
0.00229451
0.00235012
0.00238638
0.00246442
0.00251931
0.00263165
0.00271805
0.0028894
0.00304216
0.00332833
0.00363618
0.0040237
0.00192581
0.00214628
0.0022644
0.00220452
0.00218518
0.00222064
0.00223599
0.00227256
0.00229425
0.00234932
0.00238605
0.00246317
0.00251882
0.00262943
0.00271713
0.00288457
0.00303926
0.0033133
0.00361814
0.00396441
0.00194842
0.00213142
0.00225652
0.00220453
0.0021849
0.00221973
0.00223561
0.00227189
0.00229395
0.0023484
0.00238566
0.00246176
0.00251823
0.00262694
0.00271601
0.0028792
0.00303576
0.00329717
0.00359824
0.00390532
0.00196761
0.00211998
0.00224858
0.00220437
0.00218464
0.00221873
0.00223517
0.00227113
0.00229361
0.00234736
0.00238521
0.00246017
0.00251754
0.00262414
0.00271467
0.00287327
0.00303158
0.00327994
0.00357641
0.00384652
0.00198307
0.00211222
0.00224071
0.00220402
0.0021844
0.00221765
0.00223468
0.00227027
0.0022932
0.00234619
0.00238467
0.00245838
0.00251672
0.00262103
0.00271306
0.00286675
0.00302662
0.00326163
0.00355254
0.00378813
0.0019961
0.00210714
0.00223274
0.00220338
0.00218413
0.00221645
0.0022341
0.00226928
0.00229273
0.00234488
0.00238405
0.00245638
0.00251575
0.00261758
0.00271112
0.00285963
0.00302078
0.00324227
0.00352658
0.00373024
0.0020079
0.00210351
0.00222464
0.00220243
0.00218384
0.00221515
0.00223345
0.00226819
0.00229219
0.0023434
0.00238331
0.00245415
0.0025146
0.00261376
0.00270881
0.00285186
0.00301396
0.00322184
0.00349849
0.00367286
0.0020189
0.00210075
0.00221653
0.00220119
0.00218354
0.00221374
0.0022327
0.00226694
0.00229156
0.00234175
0.00238246
0.00245166
0.00251324
0.00260955
0.00270606
0.00284342
0.00300606
0.00320036
0.00346825
0.00361603
0.0020292
0.00209868
0.00220852
0.00219964
0.00218321
0.00221221
0.00223185
0.00226555
0.00229082
0.0023399
0.00238145
0.00244891
0.00251163
0.00260492
0.00270282
0.00283429
0.00299697
0.00317787
0.00343587
0.00355976
0.00203876
0.00209723
0.00220067
0.00219777
0.00218281
0.00221056
0.00223088
0.00226399
0.00228997
0.00233785
0.00238028
0.00244587
0.00250974
0.00259985
0.00269899
0.00282445
0.00298658
0.00315435
0.00340138
0.00350404
0.0020476
0.00209636
0.00219303
0.00219555
0.00218234
0.00220879
0.00222979
0.00226226
0.00228898
0.00233557
0.0023789
0.00244251
0.00250751
0.00259432
0.00269452
0.00281386
0.0029748
0.00312985
0.00336483
0.00344886
0.00205568
0.00209598
0.00218564
0.002193
0.00218176
0.00220687
0.00222855
0.00226031
0.00228783
0.00233306
0.0023773
0.00243882
0.0025049
0.00258829
0.00268931
0.00280251
0.00296153
0.00310437
0.0033263
0.00339419
0.00206301
0.00209604
0.00217856
0.00219011
0.00218106
0.00220481
0.00222715
0.00225816
0.0022865
0.00233027
0.00237542
0.00243478
0.00250184
0.00258176
0.00268327
0.00279038
0.0029467
0.00307793
0.00328591
0.00333997
0.00206956
0.00209643
0.00217181
0.00218689
0.00218021
0.00220259
0.00222557
0.00225577
0.00228496
0.00232722
0.00237324
0.00243037
0.00249829
0.00257468
0.00267633
0.00277745
0.00293022
0.00305052
0.00324378
0.00328615
0.00207538
0.00209708
0.00216543
0.00218335
0.00217917
0.00220021
0.0022238
0.00225314
0.00228316
0.00232385
0.0023707
0.00242555
0.00249416
0.00256704
0.00266839
0.00276367
0.00291205
0.00302215
0.00320008
0.00323267
0.00208043
0.00209788
0.00215944
0.0021795
0.00217791
0.00219764
0.00222179
0.00225023
0.00228109
0.00232018
0.00236776
0.00242031
0.0024894
0.0025588
0.00265937
0.00274903
0.00289216
0.0029928
0.003155
0.00317947
0.00208475
0.00209874
0.00215383
0.00217536
0.0021764
0.00219488
0.00221955
0.00224704
0.00227869
0.00231615
0.00236436
0.00241462
0.00248392
0.00254993
0.00264917
0.00273348
0.00287054
0.00296248
0.00310873
0.00312648
0.00208834
0.00209956
0.00214859
0.00217096
0.0021746
0.0021919
0.00221702
0.00224353
0.00227594
0.00231177
0.00236045
0.00240846
0.00247766
0.0025404
0.00263775
0.00271699
0.00284719
0.00293114
0.00306147
0.00307367
0.00209123
0.00210025
0.00214369
0.00216632
0.00217247
0.00218868
0.00221419
0.0022397
0.00227275
0.00230699
0.00235595
0.00240178
0.00247054
0.00253016
0.00262503
0.0026995
0.00282215
0.00289879
0.00301344
0.003021
0.00209341
0.00210072
0.0021391
0.00216146
0.00216999
0.0021852
0.00221101
0.0022355
0.00226911
0.0023018
0.00235083
0.00239456
0.00246249
0.00251917
0.00261096
0.00268097
0.00279548
0.00286539
0.00296484
0.00296845
0.00209492
0.00210089
0.00213475
0.0021564
0.00216711
0.00218144
0.00220746
0.00223094
0.00226495
0.00229615
0.00234499
0.00238675
0.00245344
0.00250737
0.0025955
0.00266134
0.00276725
0.00283095
0.00291588
0.00291602
0.00209574
0.00210066
0.00213057
0.00215114
0.0021638
0.00217735
0.00220346
0.00222596
0.00226021
0.00229002
0.00233839
0.00237832
0.00244334
0.0024947
0.00257864
0.00264056
0.00273756
0.00279545
0.00286673
0.00286374
0.0020959
0.0021
0.00212648
0.00214571
0.00216002
0.00217291
0.002199
0.00222055
0.00225482
0.00228335
0.00233096
0.00236918
0.00243213
0.00248108
0.00256037
0.00261857
0.00270651
0.00275891
0.00281755
0.00281166
0.00209537
0.00209883
0.00212238
0.00214009
0.00215574
0.00216808
0.00219401
0.00221466
0.00224875
0.00227612
0.00232264
0.00235931
0.00241976
0.00246647
0.00254069
0.00259532
0.00267421
0.00272135
0.00276848
0.00275983
0.00209417
0.0020971
0.00211817
0.00213427
0.00215093
0.00216283
0.00218846
0.00220828
0.00224193
0.00226825
0.00231338
0.00234861
0.00240621
0.00245077
0.00251963
0.00257076
0.00264078
0.00268282
0.00271962
0.00270833
0.00209225
0.00209476
0.00211375
0.00212823
0.00214554
0.00215709
0.00218227
0.00220132
0.0022343
0.00225969
0.00230313
0.00233702
0.00239144
0.00243392
0.00249723
0.00254488
0.00260633
0.00264338
0.00267106
0.00265723
0.00208963
0.00209179
0.002109
0.00212194
0.00213955
0.00215084
0.0021754
0.00219378
0.00222582
0.00225037
0.00229185
0.00232446
0.00237545
0.00241584
0.00247352
0.00251765
0.00257096
0.00260312
0.00262285
0.00260661
0.00208622
0.00208813
0.00210382
0.00211532
0.00213292
0.00214401
0.0021678
0.00218556
0.00221643
0.00224021
0.00227949
0.00231086
0.00235821
0.00239648
0.00244854
0.00248909
0.00253477
0.00256213
0.00257502
0.00255655
0.00208206
0.00208375
0.00209812
0.00210833
0.00212561
0.00213655
0.00215941
0.00217661
0.00220609
0.00222914
0.00226603
0.00229612
0.00233973
0.00237579
0.00242234
0.00245922
0.00249786
0.00252052
0.00252759
0.00250711
0.00207704
0.0020786
0.00209177
0.00210087
0.00211757
0.00212838
0.00215017
0.00216686
0.00219476
0.00221708
0.00225143
0.00228019
0.00232002
0.00235373
0.00239496
0.0024281
0.00246028
0.00247841
0.00248057
0.00245834
0.00207116
0.00207265
0.0020847
0.00209287
0.00210876
0.00211944
0.00214004
0.00215622
0.00218239
0.00220394
0.00223567
0.00226299
0.00229905
0.00233028
0.00236645
0.00239578
0.00242212
0.0024359
0.00243396
0.00241025
0.00206434
0.00206582
0.00207682
0.00208422
0.00209913
0.00210966
0.00212896
0.00214463
0.00216895
0.00218966
0.00221873
0.00224447
0.00227685
0.00230545
0.00233684
0.00236234
0.00238342
0.00239312
0.00238774
0.00236287
0.00205655
0.00205806
0.00206805
0.00207482
0.00208863
0.00209896
0.00211688
0.00213198
0.0021544
0.00217415
0.00220057
0.00222459
0.0022534
0.00227926
0.00230618
0.00232788
0.00234424
0.00235014
0.00234192
0.00231618
0.00204769
0.0020493
0.0020583
0.00206456
0.00207719
0.00208725
0.00210375
0.00211821
0.0021387
0.00215736
0.00218117
0.00220333
0.00222872
0.00225173
0.0022745
0.00229248
0.00230463
0.00230707
0.00229649
0.00227016
0.00203774
0.00203947
0.00204752
0.00205333
0.00206475
0.00207445
0.00208951
0.00210324
0.0021218
0.00213923
0.00216051
0.00218067
0.00220281
0.00222292
0.00224184
0.00225624
0.00226463
0.00226397
0.00225143
0.00222477
0.00202661
0.00202847
0.00203561
0.00204102
0.00205123
0.00206048
0.0020741
0.00208699
0.00210365
0.00211973
0.00213855
0.00215661
0.00217567
0.00219287
0.00220824
0.00221925
0.00222429
0.0022209
0.00220675
0.00217998
0.00201425
0.00201624
0.00202252
0.00202752
0.00203656
0.00204527
0.00205747
0.00206941
0.00208422
0.00209881
0.00211528
0.00213116
0.00214732
0.00216165
0.00217375
0.00218159
0.00218366
0.00217788
0.00216243
0.00213574
0.00200055
0.00200267
0.00200816
0.00201275
0.00202066
0.00202872
0.00203955
0.00205043
0.00206346
0.00207647
0.00209068
0.00210435
0.00211776
0.00212933
0.00213841
0.00214334
0.00214278
0.00213495
0.00211846
0.002092
0.00198549
0.0019877
0.00199246
0.0019966
0.00200345
0.00201078
0.00202027
0.00203001
0.00204131
0.00205268
0.00206473
0.0020762
0.00208703
0.00209595
0.00210227
0.00210456
0.00210169
0.00209211
0.00207482
0.00204871
0.00196895
0.00197124
0.00197534
0.001979
0.00198485
0.00199138
0.00199958
0.00200811
0.00201775
0.00202744
0.00203743
0.00204674
0.00205515
0.00206158
0.00206539
0.0020653
0.00206041
0.00204938
0.00203149
0.00200581
0.00195088
0.00195321
0.00195671
0.00195987
0.00196478
0.00197045
0.00197742
0.0019847
0.00199274
0.00200075
0.00200878
0.00201601
0.00202216
0.00202628
0.0020278
0.0020256
0.00201897
0.00200675
0.00198843
0.00196326
0.0019312
0.00193355
0.00193651
0.00193913
0.00194316
0.00194795
0.00195372
0.00195975
0.00196626
0.00197262
0.00197879
0.00198404
0.00198809
0.00199009
0.00198956
0.00198551
0.00197738
0.0019642
0.00194561
0.001921
0.00190985
0.00191219
0.00191466
0.00191673
0.00191993
0.00192384
0.00192846
0.00193324
0.00193828
0.00194306
0.00194746
0.00195086
0.00195298
0.00195306
0.00195071
0.00194505
0.00193566
0.00192173
0.001903
0.00187899
0.00188675
0.00188906
0.0018911
0.00189261
0.00189504
0.00189806
0.00190159
0.00190516
0.00190881
0.00191207
0.00191483
0.00191651
0.00191687
0.00191524
0.00191127
0.00190424
0.0018938
0.00187929
0.00186055
0.00183717
0.00186186
0.00186413
0.00186577
0.00186674
0.00186842
0.0018706
0.00187309
0.0018755
0.00187783
0.00187968
0.00188092
0.00188103
0.0018798
0.00187664
0.00187128
0.00186308
0.0018518
0.00183688
0.00181821
0.00179549
0.00183511
0.00183735
0.00183862
0.00183906
0.00184006
0.00184142
0.00184294
0.00184425
0.00184536
0.0018459
0.00184575
0.00184444
0.0018418
0.00183731
0.00183075
0.00182159
0.00180964
0.00179445
0.00177595
0.0017539
0.0018065
0.00180868
0.00180962
0.00180957
0.00180992
0.00181052
0.00181113
0.00181143
0.00181141
0.00181076
0.00180935
0.00180678
0.0018029
0.00179727
0.0017897
0.00177976
0.0017673
0.00175196
0.00173371
0.00171235
0.00177598
0.00177812
0.00177874
0.00177824
0.00177799
0.00177789
0.00177767
0.00177704
0.001776
0.00177428
0.00177175
0.00176808
0.00176313
0.00175653
0.00174813
0.00173758
0.00172476
0.00170939
0.00169144
0.00167078
0.00174356
0.00174565
0.00174599
0.00174506
0.00174428
0.00174354
0.00174256
0.0017411
0.00173915
0.00173648
0.00173298
0.00172836
0.0017225
0.00171511
0.00170604
0.00169504
0.00168199
0.00166668
0.0016491
0.00162914
0.00170922
0.00171128
0.00171136
0.00171006
0.00170879
0.00170748
0.00170583
0.00170364
0.00170089
0.0016974
0.00169306
0.00168765
0.00168104
0.00167301
0.00166344
0.00165211
0.00163895
0.00162379
0.00160662
0.00158737
0.001673
0.00167502
0.00167488
0.00167324
0.00167155
0.00166973
0.0016675
0.00166468
0.00166125
0.00165706
0.00165203
0.00164596
0.00163876
0.00163024
0.0016203
0.00160878
0.00159561
0.00158067
0.00156397
0.00154543
0.00163491
0.0016369
0.00163657
0.00163464
0.00163258
0.00163035
0.00162762
0.00162426
0.00162026
0.00161551
0.00160991
0.00160333
0.00159567
0.00158679
0.00157661
0.00156501
0.00155193
0.00153729
0.00152108
0.00150326
0.00159502
0.00159698
0.00159649
0.00159432
0.00159195
0.00158936
0.00158623
0.00158243
0.00157797
0.00157277
0.00156674
0.00155976
0.00155178
0.00154267
0.00153237
0.00152079
0.00150788
0.00149359
0.00147791
0.00146081
0.00155338
0.00155532
0.0015547
0.00155233
0.00154972
0.00154684
0.00154338
0.00153924
0.00153443
0.00152888
0.00152253
0.00151529
0.00150709
0.00149786
0.00148755
0.00147607
0.00146342
0.00144952
0.0014344
0.00141804
0.00151007
0.00151199
0.00151126
0.00150874
0.00150593
0.00150284
0.00149913
0.00149474
0.00148967
0.00148388
0.00147732
0.00146992
0.00146162
0.00145237
0.00144213
0.00143085
0.0014185
0.00140506
0.00139052
0.00137488
0.00146516
0.00146706
0.00146625
0.00146362
0.00146068
0.00145742
0.00145355
0.00144898
0.00144375
0.00143781
0.00143114
0.00142367
0.00141537
0.0014062
0.00139611
0.00138509
0.00137311
0.00136015
0.00134621
0.00133131
0.00141873
0.00142062
0.00141975
0.00141705
0.00141402
0.00141067
0.00140669
0.00140203
0.00139671
0.00139072
0.00138402
0.00137657
0.00136835
0.00135933
0.00134947
0.00133877
0.0013272
0.00131476
0.00130145
0.00128727
0.00137089
0.00137276
0.00137187
0.00136913
0.00136605
0.00136266
0.00135864
0.00135394
0.00134861
0.00134264
0.00133599
0.00132864
0.00132057
0.00131177
0.0013022
0.00129186
0.00128075
0.00126885
0.00125617
0.00124273
0.00132173
0.00132358
0.00132268
0.00131994
0.00131686
0.00131346
0.00130945
0.00130479
0.0012995
0.00129361
0.00128708
0.0012799
0.00127205
0.00126351
0.00125429
0.00124436
0.00123373
0.0012224
0.00121037
0.00119764
0.00127134
0.00127318
0.00127228
0.00126956
0.00126651
0.00126316
0.0012592
0.00125462
0.00124944
0.00124369
0.00123733
0.00123037
0.00122278
0.00121457
0.00120572
0.00119624
0.00118612
0.00117537
0.00116399
0.00115199
0.00121983
0.00122165
0.00122077
0.0012181
0.00121511
0.00121183
0.00120797
0.0012035
0.00119848
0.00119291
0.00118677
0.00118007
0.00117279
0.00116494
0.00115651
0.0011475
0.00113791
0.00112775
0.00111702
0.00110574
0.00116728
0.00116908
0.00116824
0.00116563
0.00116272
0.00115954
0.00115581
0.0011515
0.00114666
0.00114131
0.00113543
0.00112903
0.0011221
0.00111463
0.00110664
0.00109812
0.00108907
0.00107951
0.00106943
0.00105886
0.00111379
0.00111556
0.00111476
0.00111223
0.00110943
0.00110638
0.0011028
0.00109867
0.00109405
0.00108895
0.00108335
0.00107728
0.00107071
0.00106366
0.00105612
0.0010481
0.0010396
0.00103064
0.00102121
0.00101133
0.00105943
0.00106117
0.00106041
0.00105799
0.0010553
0.00105239
0.00104898
0.00104506
0.00104067
0.00103584
0.00103056
0.00102483
0.00101864
0.00101202
0.00100494
0.000997437
0.000989494
0.000981127
0.000972339
0.000963143
0.00100427
0.00100598
0.00100527
0.00100295
0.00100039
0.000997639
0.000994418
0.000990718
0.000986583
0.000982041
0.000977078
0.000971704
0.000965915
0.000959721
0.000953121
0.000946125
0.000938733
0.000930957
0.000922799
0.000914271
0.000948374
0.000950041
0.000949383
0.000947181
0.000944765
0.000942174
0.00093915
0.00093568
0.000931809
0.000927563
0.000922931
0.000917922
0.000912533
0.000906776
0.000900649
0.000894162
0.000887315
0.00088012
0.000872579
0.000864703
0.000891776
0.000893398
0.000892796
0.000890719
0.00088845
0.000886029
0.000883208
0.000879975
0.000876373
0.000872429
0.000868132
0.000863491
0.000858504
0.000853182
0.000847523
0.000841539
0.000835228
0.000828602
0.000821663
0.000814422
0.000834534
0.000836094
0.000835543
0.000833594
0.000831475
0.000829229
0.000826614
0.000823622
0.000820292
0.000816651
0.000812688
0.000808414
0.000803826
0.000798934
0.000793738
0.000788247
0.000782461
0.00077639
0.000770036
0.000763409
0.000776613
0.000778117
0.000777625
0.000775811
0.000773848
0.000771777
0.000769371
0.000766619
0.000763561
0.000760222
0.000756592
0.00075268
0.000748485
0.000744016
0.000739273
0.000734264
0.000728989
0.000723458
0.000717672
0.00071164
0.000718081
0.000719501
0.000719054
0.000717372
0.000715565
0.000713669
0.00071147
0.000708958
0.00070617
0.000703129
0.000699827
0.000696272
0.000692462
0.000688407
0.000684105
0.000679565
0.000674787
0.000669779
0.000664542
0.000659085
0.000658799
0.000660154
0.000659769
0.000658232
0.000656586
0.000654867
0.000652875
0.0006506
0.000648078
0.000645331
0.000642351
0.000639145
0.000635711
0.00063206
0.000628188
0.000624105
0.000619808
0.000615308
0.000610602
0.0006057
0.000598876
0.000600118
0.000599768
0.000598366
0.000596874
0.000595327
0.000593538
0.000591498
0.000589238
0.000586779
0.000584113
0.000581249
0.000578182
0.000574922
0.000571468
0.000567826
0.000563996
0.000559984
0.000555791
0.000551425
0.000538008
0.000539177
0.000538893
0.000537647
0.000536322
0.000534951
0.000533366
0.000531557
0.000529555
0.00052738
0.000525023
0.000522491
0.000519782
0.000516906
0.000513857
0.000510646
0.000507268
0.000503732
0.000500037
0.000496189
0.00047636
0.000477391
0.000477131
0.000476017
0.000474843
0.000473639
0.00047225
0.000470667
0.000468917
0.000467018
0.000464961
0.000462753
0.000460392
0.000457885
0.00045523
0.000452434
0.000449494
0.000446417
0.000443202
0.000439854
0.000413451
0.000414389
0.00041419
0.000413236
0.00041223
0.0004112
0.000410009
0.000408653
0.000407154
0.000405528
0.000403768
0.00040188
0.000399862
0.000397721
0.000395453
0.000393066
0.000390556
0.00038793
0.000385186
0.00038233
0.00034936
0.000350142
0.000349962
0.000349145
0.000348291
0.000347422
0.000346421
0.000345282
0.000344025
0.000342664
0.000341191
0.000339613
0.000337926
0.000336137
0.000334244
0.000332251
0.000330156
0.000327966
0.000325677
0.000323295
0.000283643
0.00028431
0.000284184
0.000283532
0.000282848
0.000282153
0.000281351
0.000280439
0.000279431
0.00027834
0.000277161
0.000275897
0.000274547
0.000273115
0.0002716
0.000270006
0.000268331
0.000266579
0.000264748
0.000262843
0.000216131
0.000216616
0.000216497
0.000215981
0.000215446
0.000214906
0.000214287
0.000213585
0.000212812
0.000211977
0.000211075
0.000210111
0.000209082
0.000207992
0.00020684
0.000205628
0.000204355
0.000203025
0.000201636
0.000200191
0.00014633
0.000146697
0.000146647
0.000146317
0.00014597
0.000145618
0.000145212
0.000144749
0.000144237
0.000143683
0.000143084
0.000142444
0.00014176
0.000141035
0.000140268
0.000139461
0.000138613
0.000137727
0.0001368
0.000135837
7.36377e-05
7.37652e-05
7.3683e-05
7.34766e-05
7.32689e-05
7.30613e-05
7.28294e-05
7.25721e-05
7.22931e-05
7.19949e-05
7.16759e-05
7.1337e-05
7.09774e-05
7.05984e-05
7.01993e-05
6.97811e-05
6.93432e-05
6.88868e-05
6.84113e-05
6.79178e-05
0.00551724
0.00315452
0.0020319
0.00179419
0.0017684
0.00172059
0.00167873
0.00164017
0.00157968
0.00150734
0.00143377
0.00136654
0.0012991
0.00123761
0.00118072
0.00112991
0.00108437
0.00103986
0.000998356
0.000960069
0.00092255
0.000887606
0.000855729
0.000825133
0.000794332
0.000765924
0.000738949
0.000712228
0.000686127
0.000662367
0.000639547
0.000616558
0.000593799
0.000572555
0.000551939
0.000531682
0.000511596
0.000492765
0.000474723
0.000457215
0.000439278
0.000422137
0.000405334
0.000389388
0.000373196
0.000357406
0.000341919
0.00032706
0.000312364
0.000298181
0.000283773
0.000269887
0.000256006
0.000242867
0.000229962
0.000217403
0.000204789
0.000192641
0.000180563
0.000169129
0.00015766
0.000146471
0.000135306
0.000124423
0.000113644
0.000103238
9.32753e-05
8.33531e-05
7.37512e-05
6.40051e-05
5.50556e-05
4.5643e-05
3.75654e-05
2.8597e-05
2.15848e-05
1.26245e-05
7.02317e-06
-1.76025e-06
-4.50393e-06
-1.1932e-05
0.00549457
0.00317414
0.00206071
0.00182131
0.00178852
0.00173511
0.00168901
0.001648
0.00158588
0.00151251
0.00143839
0.00137076
0.00130301
0.00124124
0.00118408
0.00113301
0.00108727
0.00104256
0.00100088
0.000962431
0.00092477
0.000889692
0.000857695
0.000826985
0.000796087
0.00076759
0.000740535
0.000713735
0.000687567
0.00066374
0.000640859
0.000617811
0.000595002
0.00057371
0.000553052
0.000532751
0.000512628
0.000493759
0.000475683
0.000458139
0.000440173
0.000423001
0.000406173
0.000390199
0.000373986
0.00035817
0.000342664
0.00032778
0.000313068
0.000298862
0.000284441
0.000270533
0.000256641
0.000243481
0.000230567
0.000217987
0.000205365
0.000193198
0.000181113
0.000169661
0.000158186
0.00014698
0.000135811
0.000124911
0.000114129
0.000103707
9.37416e-05
8.38031e-05
7.41997e-05
6.44381e-05
5.54881e-05
4.60604e-05
3.79831e-05
2.9001e-05
2.19885e-05
1.30151e-05
7.41415e-06
-1.38089e-06
-4.13988e-06
-1.15562e-05
0.00544352
0.0031821
0.00208179
0.00184375
0.00180924
0.00175314
0.00170321
0.00165842
0.00159403
0.00151943
0.00144458
0.00137639
0.00130822
0.00124608
0.00118858
0.00113722
0.0010912
0.00104623
0.00100432
0.000965673
0.00092783
0.000892574
0.000860421
0.00082956
0.000798531
0.000769915
0.000742752
0.000715848
0.000689586
0.000665671
0.000642706
0.000619577
0.000596699
0.000575341
0.000554624
0.000534263
0.000514088
0.000495166
0.000477043
0.000459451
0.000441443
0.000424227
0.000407366
0.000391353
0.000375109
0.000359257
0.000343724
0.000328806
0.00031407
0.000299833
0.000285391
0.000271454
0.000257545
0.000244358
0.000231429
0.000218822
0.000206187
0.000193993
0.000181898
0.000170421
0.000158938
0.000147708
0.000136532
0.000125608
0.000114822
0.000104377
9.44082e-05
8.44469e-05
7.4841e-05
6.50572e-05
5.61064e-05
4.66568e-05
3.85803e-05
2.95785e-05
2.25657e-05
1.35737e-05
7.9731e-06
-8.3882e-07
-3.61841e-06
-1.1016e-05
0.00539846
0.00319101
0.00209234
0.00185043
0.00181582
0.00176284
0.00171401
0.00166634
0.00160098
0.00152549
0.00144969
0.00138088
0.00131246
0.00125013
0.00119245
0.0011409
0.00109466
0.00104948
0.0010074
0.000968579
0.000930595
0.000895191
0.000862921
0.000831931
0.00080079
0.000772073
0.000744817
0.000717823
0.000691478
0.000667485
0.000644447
0.000621246
0.000598303
0.000576889
0.000556117
0.000535703
0.000515479
0.00049651
0.000478344
0.000460707
0.000442659
0.000425405
0.00040851
0.000392462
0.000376189
0.000360304
0.000344745
0.000329796
0.000315037
0.000300773
0.000286308
0.000272346
0.000258418
0.000245209
0.000232262
0.000219633
0.000206983
0.000194767
0.000182658
0.00017116
0.000159666
0.000148416
0.000137231
0.000126286
0.000115494
0.00010503
9.50555e-05
8.50745e-05
7.5464e-05
6.56604e-05
5.67069e-05
4.72374e-05
3.91604e-05
3.0141e-05
2.31266e-05
1.41178e-05
8.5156e-06
-3.10604e-07
-3.11257e-06
-1.05078e-05
0.00535269
0.00319844
0.00210383
0.00185922
0.00181959
0.00176495
0.00171664
0.00167107
0.00160726
0.00153065
0.00145434
0.00138486
0.00131618
0.00125381
0.00119612
0.00114428
0.00109771
0.00105242
0.00101024
0.000971314
0.000933241
0.000897733
0.00086537
0.000834259
0.000803018
0.000774212
0.000746876
0.000719798
0.00069338
0.000669315
0.000646216
0.000622943
0.000599938
0.000578468
0.000557645
0.000537177
0.000516907
0.000497892
0.000479686
0.000462005
0.000443917
0.000426625
0.000409694
0.000393612
0.00037731
0.000361393
0.000345806
0.000330827
0.000316044
0.000301755
0.000287264
0.000273278
0.000259329
0.0002461
0.000233134
0.000220482
0.000207815
0.000195578
0.000183453
0.000171936
0.000160429
0.00014916
0.000137963
0.000127
0.000116198
0.000105718
9.57347e-05
8.57353e-05
7.61179e-05
6.62959e-05
5.73373e-05
4.78489e-05
3.97692e-05
3.07339e-05
2.37154e-05
1.46912e-05
9.0846e-06
2.46733e-07
-2.58413e-06
-9.99455e-06
0.00530377
0.00320525
0.00211646
0.00186865
0.00182495
0.00176816
0.00171669
0.00167072
0.00160837
0.00153423
0.00145924
0.0013887
0.00131995
0.00125755
0.00119963
0.00114739
0.00110065
0.00105533
0.00101304
0.00097405
0.000935955
0.000900361
0.00086783
0.000836573
0.000805262
0.000776398
0.000749006
0.000721859
0.000695385
0.000671256
0.000648097
0.000624747
0.000601687
0.000580158
0.000559289
0.000538764
0.000518451
0.000499387
0.000481145
0.000463416
0.000445288
0.000427954
0.000410988
0.000394868
0.000378535
0.000362585
0.000346969
0.000331959
0.00031715
0.000302834
0.000288317
0.000274304
0.000260334
0.000247083
0.000234095
0.00022142
0.000208734
0.000196476
0.000184331
0.000172794
0.000161273
0.000149985
0.000138773
0.00012779
0.000116978
0.00010648
9.64871e-05
8.64694e-05
7.68426e-05
6.70025e-05
5.8036e-05
4.8529e-05
4.04443e-05
3.13934e-05
2.43686e-05
1.53289e-05
9.71552e-06
8.66879e-07
-1.99958e-06
-9.43792e-06
0.00525279
0.0032123
0.00212964
0.00187837
0.00183076
0.00177127
0.00171811
0.00167115
0.00160758
0.00153405
0.00146004
0.0013912
0.00132395
0.00126112
0.0012026
0.0011504
0.00110367
0.00105818
0.00101569
0.000976732
0.000938653
0.000902935
0.000870214
0.000838853
0.000807518
0.000778615
0.000751176
0.000723974
0.000697469
0.000673258
0.000649985
0.000626573
0.000603472
0.000581901
0.000561
0.000540428
0.000520081
0.00050097
0.00048269
0.00046491
0.000446748
0.000429367
0.00041237
0.00039621
0.000379849
0.000363863
0.000348223
0.000333178
0.000318346
0.000303999
0.000289456
0.000275413
0.000261423
0.000248147
0.000235138
0.000222438
0.000209732
0.000197451
0.000185287
0.000173729
0.000162192
0.000150883
0.000139656
0.000128653
0.000117829
0.000107313
9.7308e-05
8.72717e-05
7.76334e-05
6.77755e-05
5.87984e-05
4.92736e-05
4.11815e-05
3.21158e-05
2.50821e-05
1.60272e-05
1.04048e-05
1.54583e-06
-1.36164e-06
-8.84001e-06
0.00519999
0.0032191
0.00214308
0.00188842
0.0018366
0.00177468
0.00171984
0.00167169
0.00160797
0.00153436
0.00145953
0.00139107
0.0013246
0.00126274
0.00120568
0.00115392
0.00110638
0.00106055
0.00101817
0.000979293
0.000941143
0.000905258
0.000872496
0.00084117
0.000809807
0.000780801
0.00075332
0.000726075
0.000699557
0.000675256
0.000651862
0.000628398
0.000605276
0.000583687
0.000562766
0.000542155
0.000521775
0.0005026
0.000484247
0.000466427
0.000448238
0.00043082
0.000413799
0.000397606