/*--------------------------------*- C++ -*----------------------------------*\
| =========                 |                                                 |
| \\      /  F ield         | OpenFOAM: The Open Source CFD Toolbox           |
|  \\    /   O peration     | Version:  v1912                                 |
|   \\  /    A nd           | Website:  www.openfoam.com                      |
|    \\/     M anipulation  |                                                 |
\*---------------------------------------------------------------------------*/
FoamFile
{
    version     2.0;
    format      ascii;
    class       surfaceScalarField;
    location    "300";
    object      phi;
}
// * * * * * * * * * * * * * * * * * * * * * * * * * * * * * * * * * * * * * //

dimensions      [0 3 -1 0 0 0 0];
oriented        oriented;


internalField   nonuniform List<scalar> 
19800
(
2.28521e-07
-1.39775e-08
2.28529e-07
-8.75212e-12
2.28672e-07
-1.42734e-10
2.28514e-07
1.57599e-10
2.28695e-07
-1.81051e-10
2.28515e-07
1.79833e-10
2.28697e-07
-1.81987e-10
2.28505e-07
1.92948e-10
2.28691e-07
-1.87193e-10
2.28485e-07
2.06201e-10
2.28676e-07
-1.91289e-10
2.28456e-07
2.20553e-10
2.28649e-07
-1.93033e-10
2.28412e-07
2.36322e-10
2.286e-07
-1.87152e-10
2.28346e-07
2.53976e-10
2.28502e-07
-1.56735e-10
2.28238e-07
2.63883e-10
2.28174e-07
6.35709e-11
5.01159e-10
2.27673e-07
2.42204e-07
-1.70893e-08
2.42473e-07
-2.77895e-10
2.42305e-07
2.49169e-11
2.4244e-07
2.26879e-11
2.42293e-07
-3.47382e-11
2.42429e-07
4.34725e-11
2.42263e-07
-1.56896e-11
2.42411e-07
4.50469e-11
2.42227e-07
-3.33124e-12
2.42387e-07
4.55248e-11
2.42183e-07
1.31408e-11
2.42358e-07
4.60157e-11
2.42127e-07
3.70486e-11
2.42317e-07
4.70894e-11
2.4205e-07
7.94028e-11
2.42255e-07
4.94836e-11
2.41921e-07
1.76594e-10
2.4215e-07
3.48178e-11
2.41534e-07
6.793e-10
4.1932e-10
2.41616e-07
2.55714e-07
-1.67746e-08
2.55917e-07
-4.80485e-10
2.55845e-07
9.63955e-11
2.55899e-07
-3.09552e-11
2.55859e-07
5.1605e-12
2.55899e-07
3.07655e-12
2.55852e-07
3.14442e-11
2.55887e-07
9.83945e-12
2.55837e-07
4.65057e-11
2.55867e-07
1.51769e-11
2.55813e-07
6.75086e-11
2.55837e-07
2.15638e-11
2.55775e-07
9.91253e-11
2.55792e-07
2.97364e-11
2.55714e-07
1.57816e-10
2.55723e-07
4.07067e-11
2.55599e-07
2.99802e-10
2.55603e-07
3.09193e-11
2.55232e-07
1.05031e-09
6.11407e-10
2.5504e-07
2.70137e-07
-1.60945e-08
2.70304e-07
-6.47824e-10
2.70269e-07
1.31511e-10
2.70286e-07
-4.77753e-11
2.70279e-07
1.11045e-11
2.70285e-07
-2.379e-12
2.7027e-07
4.59822e-11
2.70272e-07
7.78281e-12
2.70252e-07
6.59e-11
2.70251e-07
1.63491e-11
2.70225e-07
9.36326e-11
2.70221e-07
2.59808e-11
2.70184e-07
1.36193e-10
2.70176e-07
3.79617e-11
2.70117e-07
2.15985e-10
2.70104e-07
5.37962e-11
2.69995e-07
4.0913e-10
2.69979e-07
4.65159e-11
2.69618e-07
1.41118e-09
8.30015e-10
2.69399e-07
2.85463e-07
-1.5493e-08
2.85623e-07
-8.07817e-10
2.85594e-07
1.60502e-10
2.85604e-07
-5.77128e-11
2.85601e-07
1.35128e-11
2.85601e-07
-2.12368e-12
2.85589e-07
5.80338e-11
2.85586e-07
1.12417e-11
2.85568e-07
8.31725e-11
2.85562e-07
2.20989e-11
2.85537e-07
1.1875e-10
2.85529e-07
3.46256e-11
2.85491e-07
1.73433e-10
2.85479e-07
5.0168e-11
2.85419e-07
2.7587e-10
2.85402e-07
7.03961e-11
2.85287e-07
5.23949e-10
2.85266e-07
6.80439e-11
2.84899e-07
1.77779e-09
1.06478e-09
2.84664e-07
3.01666e-07
-1.48974e-08
3.01825e-07
-9.66521e-10
3.01797e-07
1.88625e-10
3.01807e-07
-6.78245e-11
3.01803e-07
1.73081e-11
3.01803e-07
-3.06124e-12
3.01789e-07
7.20695e-11
3.01787e-07
1.32632e-11
3.01767e-07
1.03464e-10
3.01762e-07
2.69758e-11
3.01734e-07
1.47223e-10
3.01726e-07
4.24248e-11
3.01684e-07
2.14722e-10
3.01673e-07
6.16904e-11
3.01608e-07
3.41131e-10
3.01591e-07
8.70535e-11
3.01469e-07
6.4633e-10
3.01444e-07
9.23974e-11
3.0107e-07
2.15149e-09
1.31083e-09
3.00824e-07
3.18788e-07
-1.42947e-08
3.18944e-07
-1.12181e-09
3.18918e-07
2.14544e-10
3.18927e-07
-7.69931e-11
3.18923e-07
2.15066e-11
3.18923e-07
-3.77897e-12
3.18908e-07
8.69913e-11
3.18906e-07
1.60366e-11
3.18885e-07
1.24333e-10
3.1888e-07
3.20663e-11
3.1885e-07
1.77039e-10
3.18841e-07
5.06537e-11
3.18798e-07
2.5817e-10
3.18785e-07
7.39662e-11
3.18717e-07
4.09641e-10
3.18699e-07
1.04742e-10
3.1857e-07
7.74981e-10
3.1854e-07
1.22226e-10
3.18163e-07
2.52855e-09
1.57051e-09
3.17904e-07
3.36883e-07
-1.36646e-08
3.37034e-07
-1.27278e-09
3.3701e-07
2.37966e-10
3.37018e-07
-8.53673e-11
3.37014e-07
2.5979e-11
3.37014e-07
-4.73068e-12
3.36999e-07
1.02536e-10
3.36996e-07
1.84527e-11
3.36974e-07
1.46873e-10
3.36968e-07
3.77204e-11
3.36936e-07
2.08667e-10
3.36928e-07
5.95817e-11
3.36882e-07
3.04065e-10
3.36869e-07
8.71687e-11
3.36796e-07
4.82018e-10
3.36777e-07
1.2427e-10
3.36642e-07
9.09487e-10
3.36607e-07
1.57481e-10
3.36227e-07
2.90808e-09
1.84362e-09
3.35954e-07
3.56002e-07
-1.29787e-08
3.56148e-07
-1.41855e-09
3.56127e-07
2.59217e-10
3.56135e-07
-9.33171e-11
3.56129e-07
3.17101e-11
3.56131e-07
-6.16186e-12
3.56113e-07
1.1983e-10
3.56111e-07
2.0967e-11
3.56087e-07
1.70789e-10
3.56082e-07
4.27975e-11
3.56048e-07
2.42542e-10
3.56039e-07
6.8184e-11
3.5599e-07
3.53092e-10
3.55977e-07
1.00433e-10
3.559e-07
5.58655e-10
3.55879e-07
1.44283e-10
3.55738e-07
1.05129e-09
3.55697e-07
1.9846e-10
3.55315e-07
3.28954e-09
2.12988e-09
3.55029e-07
3.76208e-07
-1.2295e-08
3.76347e-07
-1.55727e-09
3.76329e-07
2.76917e-10
3.76336e-07
-9.99681e-11
3.7633e-07
3.73876e-11
3.76331e-07
-7.44969e-12
3.76313e-07
1.37319e-10
3.76311e-07
2.34895e-11
3.76285e-07
1.96103e-10
3.76279e-07
4.89804e-11
3.76244e-07
2.77925e-10
3.76234e-07
7.80532e-11
3.76183e-07
4.04283e-10
3.76168e-07
1.15271e-10
3.76088e-07
6.38884e-10
3.76065e-07
1.67129e-10
3.75918e-07
1.19821e-09
3.7587e-07
2.46717e-10
3.75489e-07
3.66981e-09
2.4307e-09
3.75188e-07
3.97563e-07
-1.16175e-08
3.97693e-07
-1.68737e-09
3.97678e-07
2.91339e-10
3.97684e-07
-1.05403e-10
3.97677e-07
4.38995e-11
3.97678e-07
-8.48672e-12
3.9766e-07
1.56066e-10
3.97657e-07
2.70083e-11
3.9763e-07
2.22089e-10
3.97624e-07
5.53283e-11
3.97587e-07
3.1494e-10
3.97576e-07
8.84571e-11
3.97522e-07
4.58013e-10
3.97506e-07
1.31165e-10
3.97422e-07
7.22765e-10
3.97397e-07
1.9171e-10
3.97244e-07
1.35167e-09
3.97188e-07
3.03058e-10
3.96809e-07
4.04863e-09
2.74551e-09
3.96494e-07
4.20129e-07
-1.09306e-08
4.2025e-07
-1.80787e-09
4.20239e-07
3.02159e-10
4.20243e-07
-1.09911e-10
4.20236e-07
5.09645e-11
4.20237e-07
-9.89227e-12
4.20217e-07
1.75532e-10
4.20214e-07
2.99365e-11
4.20186e-07
2.50268e-10
4.20179e-07
6.24066e-11
4.2014e-07
3.54238e-10
4.20129e-07
9.97577e-11
4.20072e-07
5.14729e-10
4.20055e-07
1.48356e-10
4.19967e-07
8.11107e-10
4.19939e-07
2.19236e-10
4.1978e-07
1.51069e-09
4.19716e-07
3.67626e-10
4.1934e-07
4.42427e-09
3.07387e-09
4.19011e-07
4.43977e-07
-1.023e-08
4.44086e-07
-1.91701e-09
4.44079e-07
3.09401e-10
4.44082e-07
-1.13275e-10
4.44074e-07
5.92201e-11
4.44075e-07
-1.11491e-11
4.44055e-07
1.9652e-10
4.44051e-07
3.38746e-11
4.44022e-07
2.79266e-10
4.44014e-07
6.95537e-11
4.43973e-07
3.95407e-10
4.43961e-07
1.11586e-10
4.43901e-07
5.74253e-10
4.43883e-07
1.66742e-10
4.43791e-07
9.03303e-10
4.4376e-07
2.49015e-10
4.43595e-07
1.676e-09
4.43521e-07
4.41884e-10
4.4315e-07
4.79528e-09
3.41585e-09
4.42808e-07
4.69178e-07
-9.52138e-09
4.69275e-07
-2.01367e-09
4.69271e-07
3.12572e-10
4.69274e-07
-1.15638e-10
4.69264e-07
6.81411e-11
4.69266e-07
-1.27267e-11
4.69244e-07
2.18184e-10
4.6924e-07
3.72441e-11
4.69209e-07
3.10598e-10
4.69201e-07
7.76631e-11
4.69158e-07
4.38952e-10
4.69145e-07
1.24599e-10
4.69082e-07
6.36852e-10
4.69062e-07
1.86871e-10
4.68966e-07
9.99976e-10
4.68932e-07
2.82677e-10
4.68762e-07
1.84619e-09
4.68677e-07
5.26105e-10
4.68313e-07
5.15962e-09
3.77092e-09
4.67958e-07
4.9581e-07
-8.81541e-09
4.95892e-07
-2.09603e-09
4.95893e-07
3.11846e-10
4.95894e-07
-1.16766e-10
4.95884e-07
7.84571e-11
4.95885e-07
-1.40072e-11
4.95862e-07
2.4146e-10
4.95858e-07
4.1926e-11
4.95825e-07
3.42645e-10
4.95817e-07
8.59514e-11
4.95771e-07
4.84382e-10
4.95757e-07
1.38369e-10
4.95692e-07
7.0228e-10
4.9567e-07
2.08611e-10
4.95569e-07
1.1004e-09
4.95532e-07
3.19448e-10
4.95357e-07
2.02201e-09
4.95261e-07
6.21844e-10
4.94905e-07
5.51593e-09
4.13877e-09
4.94537e-07
5.23953e-07
-8.12075e-09
5.2402e-07
-2.16305e-09
5.24025e-07
3.06796e-10
5.24025e-07
-1.16894e-10
5.24013e-07
8.95695e-11
5.24015e-07
-1.55471e-11
5.23991e-07
2.6536e-10
5.23986e-07
4.60405e-11
5.23952e-07
3.77213e-10
5.23942e-07
9.54874e-11
5.23895e-07
5.323e-10
5.2388e-07
1.5368e-10
5.23811e-07
7.70874e-10
5.23787e-07
2.32647e-10
5.23682e-07
1.20526e-09
5.23641e-07
3.61248e-10
5.23461e-07
2.20177e-09
5.23353e-07
7.29296e-10
5.23007e-07
5.86226e-09
4.51827e-09
5.22627e-07
5.53693e-07
-7.43211e-09
5.53743e-07
-2.21304e-09
5.53752e-07
2.97861e-10
5.53751e-07
-1.15876e-10
5.53739e-07
1.02393e-10
5.5374e-07
-1.67375e-11
5.53715e-07
2.91038e-10
5.5371e-07
5.16357e-11
5.53674e-07
4.12548e-10
5.53664e-07
1.05276e-10
5.53613e-07
5.82231e-10
5.53597e-07
1.69953e-10
5.53525e-07
8.42404e-10
5.53499e-07
2.58735e-10
5.5339e-07
1.31379e-09
5.53344e-07
4.07139e-10
5.5316e-07
2.38631e-09
5.53039e-07
8.49954e-10
5.52704e-07
6.19749e-09
4.90853e-09
5.52314e-07
5.85121e-07
-6.74988e-09
5.85153e-07
-2.24514e-09
5.85166e-07
2.84682e-10
5.85164e-07
-1.14002e-10
5.8515e-07
1.16259e-10
5.85151e-07
-1.8166e-11
5.85125e-07
3.17386e-10
5.85119e-07
5.66527e-11
5.85081e-07
4.50626e-10
5.8507e-07
1.16534e-10
5.85018e-07
6.34808e-10
5.85e-07
1.88098e-10
5.84925e-07
9.17197e-10
5.84896e-07
2.87712e-10
5.84784e-07
1.42663e-09
5.84732e-07
4.59301e-10
5.84544e-07
2.57364e-09
5.8441e-07
9.83946e-10
5.84088e-07
6.51958e-09
5.30801e-09
5.83688e-07
6.18332e-07
-6.06323e-09
6.18345e-07
-2.25789e-09
6.18361e-07
2.67877e-10
6.18359e-07
-1.11088e-10
6.18343e-07
1.32131e-10
6.18344e-07
-1.90969e-11
6.18316e-07
3.45639e-10
6.1831e-07
6.34376e-11
6.1827e-07
4.8942e-10
6.18258e-07
1.2819e-10
6.18204e-07
6.89421e-10
6.18184e-07
2.07519e-10
6.18106e-07
9.94887e-10
6.18074e-07
3.1935e-10
6.17958e-07
1.54281e-09
6.179e-07
5.16766e-10
6.1771e-07
2.7645e-09
6.17561e-07
1.13275e-09
6.17253e-07
6.8275e-09
5.71545e-09
6.16846e-07
6.53426e-07
-5.37056e-09
6.53419e-07
-2.25078e-09
6.5344e-07
2.4714e-10
6.53436e-07
-1.07452e-10
6.53418e-07
1.49191e-10
6.53419e-07
-2.01186e-11
6.5339e-07
3.74508e-10
6.53384e-07
6.97299e-11
6.53342e-07
5.31101e-10
6.53329e-07
1.4169e-10
6.53272e-07
7.46724e-10
6.5325e-07
2.29329e-10
6.53169e-07
1.07578e-09
6.53134e-07
3.54713e-10
6.53014e-07
1.66292e-09
6.52949e-07
5.82041e-10
6.52757e-07
2.95658e-09
6.52593e-07
1.29634e-09
6.52301e-07
7.11947e-09
6.12869e-09
6.51887e-07
6.9051e-07
-4.62372e-09
6.90483e-07
-2.22299e-09
6.90507e-07
2.23471e-10
6.90502e-07
-1.03019e-10
6.90483e-07
1.68558e-10
6.90484e-07
-2.05094e-11
6.90453e-07
4.05419e-10
6.90446e-07
7.80134e-11
6.90402e-07
5.73529e-10
6.90388e-07
1.55781e-10
6.90328e-07
8.06116e-10
6.90304e-07
2.52802e-10
6.90221e-07
1.15952e-09
6.90182e-07
3.93475e-10
6.90058e-07
1.78596e-09
6.89986e-07
6.53978e-10
6.89792e-07
3.15074e-09
6.89613e-07
1.4759e-09
6.89337e-07
7.39489e-09
6.54584e-09
6.8892e-07
7.29697e-07
-3.80837e-09
7.29649e-07
-2.17469e-09
7.29675e-07
1.96664e-10
7.2967e-07
-9.79839e-11
7.29649e-07
1.8914e-10
7.29649e-07
-2.06578e-11
7.29617e-07
4.36811e-10
7.29609e-07
8.60979e-11
7.29564e-07
6.18841e-10
7.29548e-07
1.72245e-10
7.29486e-07
8.68112e-10
7.2946e-07
2.79381e-10
7.29373e-07
1.24624e-09
7.2933e-07
4.37045e-10
7.29203e-07
1.91234e-09
7.29122e-07
7.35426e-10
7.28928e-07
3.34449e-09
7.28733e-07
1.67123e-09
7.28475e-07
7.65253e-09
6.96398e-09
7.28057e-07
7.71101e-07
-2.73077e-09
7.71035e-07
-2.10812e-09
7.71063e-07
1.69003e-10
7.71058e-07
-9.31161e-11
7.71034e-07
2.12777e-10
7.71034e-07
-2.04879e-11
7.71001e-07
4.70832e-10
7.70992e-07
9.59312e-11
7.70944e-07
6.65349e-10
7.70927e-07
1.89049e-10
7.70863e-07
9.32599e-10
7.70834e-07
3.0761e-10
7.70744e-07
1.33599e-09
7.70697e-07
4.84409e-10
7.70567e-07
2.04129e-09
7.70478e-07
8.24516e-10
7.70284e-07
3.53872e-09
7.70073e-07
1.88275e-09
7.69834e-07
7.89136e-09
7.38149e-09
7.69416e-07
8.14849e-07
-1.70567e-09
8.14768e-07
-2.02724e-09
8.14796e-07
1.40746e-10
8.14791e-07
-8.8625e-11
8.14766e-07
2.3778e-10
8.14765e-07
-2.00624e-11
8.14731e-07
5.05238e-10
8.14721e-07
1.05617e-10
8.14672e-07
7.14589e-10
8.14652e-07
2.08598e-10
8.14586e-07
9.99249e-10
8.14554e-07
3.39631e-10
8.14462e-07
1.42783e-09
8.14409e-07
5.37803e-10
8.14279e-07
2.17174e-09
8.14179e-07
9.25073e-10
8.13988e-07
3.72873e-09
8.1376e-07
2.11125e-09
8.13544e-07
8.10662e-09
7.79882e-09
8.13127e-07
8.61072e-07
-1.0518e-09
8.6098e-07
-1.93491e-09
8.61007e-07
1.13813e-10
8.61003e-07
-8.40584e-11
8.60976e-07
2.64641e-10
8.60974e-07
-1.78581e-11
8.60939e-07
5.41026e-10
8.60927e-07
1.18586e-10
8.60877e-07
7.63646e-10
8.60855e-07
2.30161e-10
8.60787e-07
1.06686e-09
8.60751e-07
3.7529e-10
8.60658e-07
1.52084e-09
8.60598e-07
5.97459e-10
8.60467e-07
2.30229e-09
8.60355e-07
1.03623e-09
8.60169e-07
3.91559e-09
8.59923e-07
2.35738e-09
8.5973e-07
8.30022e-09
8.21188e-09
8.59317e-07
9.09912e-07
-7.05969e-10
9.09812e-07
-1.83516e-09
9.09836e-07
8.94744e-11
9.09832e-07
-8.05e-11
9.09804e-07
2.92784e-10
9.098e-07
-1.49363e-11
9.09764e-07
5.77301e-10
9.0975e-07
1.31779e-10
9.09698e-07
8.15651e-10
9.09674e-07
2.54995e-10
9.09604e-07
1.13687e-09
9.09564e-07
4.15455e-10
9.09469e-07
1.61616e-09
9.09403e-07
6.64163e-10
9.09271e-07
2.43442e-09
9.09147e-07
1.15991e-09
9.08964e-07
4.09837e-09
9.08703e-07
2.61865e-09
9.08528e-07
8.47463e-09
8.61429e-09
9.08126e-07
9.61517e-07
-5.02271e-10
9.61412e-07
-1.72989e-09
9.61432e-07
6.94798e-11
9.61429e-07
-7.77243e-11
9.61399e-07
3.23276e-10
9.61394e-07
-1.02986e-11
9.61356e-07
6.15586e-10
9.61341e-07
1.48112e-10
9.61287e-07
8.68101e-10
9.6126e-07
2.81813e-10
9.61189e-07
1.2084e-09
9.61144e-07
4.59478e-10
9.61047e-07
1.71306e-09
9.60974e-07
7.37656e-10
9.60841e-07
2.56679e-09
9.60705e-07
1.29464e-09
9.60526e-07
4.27798e-09
9.6025e-07
2.89483e-09
9.60094e-07
8.63092e-09
9.00296e-09
9.59706e-07
1.01605e-06
-3.52127e-10
1.01594e-06
-1.62125e-09
1.01595e-06
5.3875e-11
1.01595e-06
-7.61472e-11
1.01592e-06
3.55006e-10
1.01591e-06
-4.624e-12
1.01587e-06
6.54332e-10
1.01586e-06
1.65013e-10
1.0158e-06
9.23354e-10
1.01577e-06
3.12459e-10
1.0157e-06
1.28203e-09
1.01565e-06
5.08849e-10
1.01555e-06
1.81164e-09
1.01547e-06
8.19393e-10
1.01534e-06
2.69958e-09
1.01519e-06
1.44292e-09
1.01501e-06
4.45174e-09
1.01472e-06
3.1841e-09
1.01459e-06
8.76846e-09
9.37497e-09
1.01422e-06
1.07367e-06
-2.26621e-10
1.07356e-06
-1.50988e-09
1.07357e-06
4.36718e-11
1.07356e-06
-7.50447e-11
1.07353e-06
3.88712e-10
1.07352e-06
3.34641e-12
1.07348e-06
6.94793e-10
1.07346e-06
1.85631e-10
1.07341e-06
9.78643e-10
1.07337e-06
3.45923e-10
1.0733e-06
1.3565e-09
1.07324e-06
5.63225e-10
1.07314e-06
1.91075e-09
1.07305e-06
9.09366e-10
1.07292e-06
2.83102e-09
1.07276e-06
1.60335e-09
1.07259e-06
4.62026e-09
1.07229e-06
3.48592e-09
1.07217e-06
8.8883e-09
9.72792e-09
1.07182e-06
1.13455e-06
-1.19691e-10
1.13444e-06
-1.39758e-09
1.13444e-06
3.86106e-11
1.13444e-06
-7.46693e-11
1.13441e-06
4.23228e-10
1.1344e-06
1.29666e-11
1.13436e-06
7.35412e-10
1.13434e-06
2.07511e-10
1.13428e-06
1.03623e-09
1.13424e-06
3.84096e-10
1.13417e-06
1.43243e-09
1.1341e-06
6.24093e-10
1.13401e-06
2.01056e-09
1.13391e-06
1.00893e-09
1.13378e-06
2.96148e-09
1.1336e-06
1.77793e-09
1.13344e-06
4.78148e-09
1.13313e-06
3.79761e-09
1.13302e-06
8.99105e-09
1.00584e-08
1.13269e-06
1.19889e-06
-2.87202e-11
1.19878e-06
-1.28496e-09
1.19878e-06
3.9525e-11
1.19878e-06
-7.41428e-11
1.19874e-06
4.5925e-10
1.19873e-06
2.55001e-11
1.19869e-06
7.77495e-10
1.19866e-06
2.33663e-10
1.1986e-06
1.09355e-09
1.19856e-06
4.25952e-10
1.19848e-06
1.50855e-09
1.19842e-06
6.91089e-10
1.19832e-06
2.10998e-09
1.19821e-06
1.1179e-09
1.19808e-06
3.08941e-09
1.19789e-06
1.96485e-09
1.19774e-06
4.93645e-09
1.19742e-06
4.11776e-09
1.19733e-06
9.07871e-09
1.0364e-08
1.19702e-06
1.26687e-06
4.69214e-11
1.26676e-06
-1.17378e-09
1.26675e-06
4.59404e-11
1.26675e-06
-7.35891e-11
1.26672e-06
4.95587e-10
1.2667e-06
4.03442e-11
1.26666e-06
8.19439e-10
1.26663e-06
2.61889e-10
1.26657e-06
1.15257e-09
1.26653e-06
4.73422e-10
1.26645e-06
1.58546e-09
1.26637e-06
7.65638e-10
1.26627e-06
2.20922e-09
1.26616e-06
1.23742e-09
1.26603e-06
3.21535e-09
1.26583e-06
2.16541e-09
1.26568e-06
5.08377e-09
1.26536e-06
4.44292e-09
1.26528e-06
9.15254e-09
1.06417e-08
1.265e-06
1.33871e-06
1.09228e-10
1.3386e-06
-1.06459e-09
1.33859e-06
5.84127e-11
1.33859e-06
-7.19892e-11
1.33855e-06
5.32846e-10
1.33853e-06
5.87553e-11
1.33849e-06
8.62532e-10
1.33846e-06
2.95015e-10
1.3384e-06
1.21093e-09
1.33834e-06
5.255e-10
1.33827e-06
1.66191e-09
1.33818e-06
8.47363e-10
1.33809e-06
2.30725e-09
1.33796e-06
1.36712e-09
1.33783e-06
3.33798e-09
1.33762e-06
2.37737e-09
1.33748e-06
5.22477e-09
1.33715e-06
4.77106e-09
1.33709e-06
9.21491e-09
1.08896e-08
1.33684e-06
1.41462e-06
1.58989e-10
1.41451e-06
-9.58994e-10
1.41449e-06
7.61783e-11
1.41449e-06
-6.93392e-11
1.41445e-06
5.69826e-10
1.41443e-06
8.01617e-11
1.41439e-06
9.05136e-10
1.41435e-06
3.31092e-10
1.41429e-06
1.27035e-09
1.41423e-06
5.84104e-10
1.41416e-06
1.73848e-09
1.41407e-06
9.37547e-10
1.41397e-06
2.40434e-09
1.41383e-06
1.50777e-09
1.41371e-06
3.45805e-09
1.41349e-06
2.60121e-09
1.41335e-06
5.35866e-09
1.41303e-06
5.0982e-09
1.41297e-06
9.26728e-09
1.11055e-08
1.41276e-06
1.49483e-06
1.98326e-10
1.49472e-06
-8.57329e-10
1.4947e-06
9.94572e-11
1.4947e-06
-6.45151e-11
1.49466e-06
6.07066e-10
1.49463e-06
1.0579e-10
1.49459e-06
9.48538e-10
1.49455e-06
3.72668e-10
1.49449e-06
1.32874e-09
1.49443e-06
6.48181e-10
1.49435e-06
1.81397e-09
1.49425e-06
1.0357e-09
1.49416e-06
2.49959e-09
1.49401e-06
1.65866e-09
1.49389e-06
3.57453e-09
1.49366e-06
2.83423e-09
1.49353e-06
5.48702e-09
1.4932e-06
5.42187e-09
1.49316e-06
9.31205e-09
1.12887e-08
1.49298e-06
1.57958e-06
2.28127e-10
1.57949e-06
-7.60868e-10
1.57946e-06
1.27191e-10
1.57945e-06
-5.74127e-11
1.57941e-06
6.43403e-10
1.57939e-06
1.35099e-10
1.57934e-06
9.91066e-10
1.5793e-06
4.18144e-10
1.57924e-06
1.38747e-09
1.57917e-06
7.1959e-10
1.57909e-06
1.88898e-09
1.57899e-06
1.14285e-09
1.57889e-06
2.59345e-09
1.57873e-06
1.82008e-09
1.57862e-06
3.68852e-09
1.57837e-06
3.07599e-09
1.57825e-06
5.60967e-09
1.57794e-06
5.73789e-09
1.5779e-06
9.35057e-09
1.14381e-08
1.57775e-06
1.66914e-06
2.5047e-10
1.66905e-06
-6.69576e-10
1.66902e-06
1.59288e-10
1.66901e-06
-4.68558e-11
1.66897e-06
6.79389e-10
1.66894e-06
1.69291e-10
1.6689e-06
1.03404e-09
1.66885e-06
4.69795e-10
1.66879e-06
1.44475e-09
1.66871e-06
7.97114e-10
1.66864e-06
1.96239e-09
1.66852e-06
1.25823e-09
1.66843e-06
2.68521e-09
1.66826e-06
1.99077e-09
1.66815e-06
3.79932e-09
1.6679e-06
3.32324e-09
1.66778e-06
5.72834e-09
1.66748e-06
6.04378e-09
1.66744e-06
9.3849e-09
1.1554e-08
1.66733e-06
1.76378e-06
2.6607e-10
1.7637e-06
-5.84342e-10
1.76366e-06
1.94378e-10
1.76365e-06
-3.27927e-11
1.76361e-06
7.13872e-10
1.76357e-06
2.07681e-10
1.76353e-06
1.07576e-09
1.76348e-06
5.26068e-10
1.76342e-06
1.50184e-09
1.76333e-06
8.82501e-10
1.76326e-06
2.03506e-09
1.76314e-06
1.38259e-09
1.76305e-06
2.77564e-09
1.76287e-06
2.17056e-09
1.76276e-06
3.90839e-09
1.76251e-06
3.57491e-09
1.76239e-06
5.84318e-09
1.7621e-06
6.33555e-09
1.76207e-06
9.41581e-09
1.16369e-08
1.76198e-06
1.86378e-06
2.76786e-10
1.8637e-06
-5.0467e-10
1.86367e-06
2.32151e-10
1.86365e-06
-1.40684e-11
1.86361e-06
7.47487e-10
1.86357e-06
2.51457e-10
1.86353e-06
1.11756e-09
1.86347e-06
5.88994e-10
1.86341e-06
1.55722e-09
1.86332e-06
9.74314e-10
1.86325e-06
2.10596e-09
1.86312e-06
1.51469e-09
1.86303e-06
2.86427e-09
1.86284e-06
2.35751e-09
1.86273e-06
4.01535e-09
1.86248e-06
3.82731e-09
1.86237e-06
5.95585e-09
1.86209e-06
6.6111e-09
1.86206e-06
9.44471e-09
1.16882e-08
1.86201e-06
1.96946e-06
2.83014e-10
1.96938e-06
-4.31026e-10
1.96934e-06
2.71055e-10
1.96932e-06
9.20416e-12
1.96929e-06
7.79183e-10
1.96924e-06
2.9975e-10
1.9692e-06
1.15791e-09
1.96913e-06
6.57006e-10
1.96907e-06
1.61215e-09
1.96898e-06
1.07394e-09
1.96891e-06
2.17626e-09
1.96877e-06
1.65491e-09
1.96868e-06
2.95223e-09
1.96848e-06
2.55096e-09
1.96838e-06
4.1219e-09
1.96813e-06
4.07892e-09
1.96802e-06
6.06654e-09
1.96776e-06
6.8672e-09
1.96773e-06
9.47158e-09
1.17096e-08
1.96771e-06
2.08112e-06
2.86281e-10
2.08105e-06
-3.62463e-10
2.08101e-06
3.10721e-10
2.08098e-06
3.80438e-11
2.08095e-06
8.09738e-10
2.0809e-06
3.5367e-10
2.08086e-06
1.19813e-09
2.08078e-06
7.31812e-10
2.08073e-06
1.66543e-09
2.08062e-06
1.17967e-09
2.08055e-06
2.2451e-09
2.08041e-06
1.80146e-09
2.08032e-06
3.03925e-09
2.08012e-06
2.74836e-09
2.08002e-06
4.22782e-09
2.07977e-06
4.32594e-09
2.07966e-06
6.17651e-09
2.07942e-06
7.10255e-09
2.0794e-06
9.49694e-09
1.17037e-08
2.0794e-06
2.19911e-06
2.86563e-10
2.19905e-06
-2.99125e-10
2.19901e-06
3.49573e-10
2.19897e-06
7.2034e-11
2.19894e-06
8.38241e-10
2.19889e-06
4.12112e-10
2.19885e-06
1.23693e-09
2.19877e-06
8.11698e-10
2.19871e-06
1.71839e-09
2.1986e-06
1.29244e-09
2.19853e-06
2.314e-09
2.19838e-06
1.9543e-09
2.19829e-06
3.12681e-09
2.19809e-06
2.94869e-09
2.19799e-06
4.3348e-09
2.19774e-06
4.56685e-09
2.19764e-06
6.28563e-09
2.19742e-06
7.31504e-09
2.1974e-06
9.51989e-09
1.16728e-08
2.19743e-06
2.32379e-06
2.85029e-10
2.32373e-06
-2.39755e-10
2.32369e-06
3.87367e-10
2.32365e-06
1.11923e-10
2.32363e-06
8.65625e-10
2.32356e-06
4.75994e-10
2.32353e-06
1.27558e-09
2.32344e-06
8.97942e-10
2.32339e-06
1.7702e-09
2.32327e-06
1.41032e-09
2.3232e-06
2.38233e-09
2.32304e-06
2.11115e-09
2.32296e-06
3.21475e-09
2.32275e-06
3.14899e-09
2.32265e-06
4.44258e-09
2.32241e-06
4.79812e-09
2.32231e-06
6.39446e-09
2.32212e-06
7.50436e-09
2.3221e-06
9.54015e-09
1.16202e-08
2.32215e-06
2.45554e-06
2.81317e-10
2.45549e-06
-1.84319e-10
2.45545e-06
4.22752e-10
2.45541e-06
1.56931e-10
2.45538e-06
8.91227e-10
2.45531e-06
5.43993e-10
2.45527e-06
1.31322e-09
2.45518e-06
9.88665e-10
2.45513e-06
1.82229e-09
2.45501e-06
1.53358e-09
2.45494e-06
2.45181e-09
2.45478e-06
2.27157e-09
2.45469e-06
3.30462e-09
2.45449e-06
3.34808e-09
2.45438e-06
4.55246e-09
2.45416e-06
5.01862e-09
2.45405e-06
6.50229e-09
2.45389e-06
7.66979e-09
2.45387e-06
9.55615e-09
1.15485e-08
2.45394e-06
2.59476e-06
2.76309e-10
2.59471e-06
-1.31496e-10
2.59468e-06
4.55768e-10
2.59463e-06
2.07416e-10
2.5946e-06
9.161e-10
2.59453e-06
6.16703e-10
2.59449e-06
1.35108e-09
2.5944e-06
1.08458e-09
2.59434e-06
1.87424e-09
2.59422e-06
1.66015e-09
2.59415e-06
2.52201e-09
2.59398e-06
2.433e-09
2.59389e-06
3.39621e-09
2.5937e-06
3.54304e-09
2.59359e-06
4.66382e-09
2.59338e-06
5.22557e-09
2.59327e-06
6.6088e-09
2.59313e-06
7.81197e-09
2.59312e-06
9.56705e-09
1.14611e-08
2.59321e-06
2.74188e-06
2.69489e-10
2.74182e-06
-8.12703e-11
2.7418e-06
4.85497e-10
2.74174e-06
2.62246e-10
2.74172e-06
9.39876e-10
2.74164e-06
6.92655e-10
2.7416e-06
1.38871e-09
2.7415e-06
1.18373e-09
2.74145e-06
1.92742e-09
2.74132e-06
1.78972e-09
2.74125e-06
2.59458e-09
2.74109e-06
2.59469e-09
2.74099e-06
3.49079e-09
2.7408e-06
3.73276e-09
2.74069e-06
4.77726e-09
2.7405e-06
5.41846e-09
2.74039e-06
6.7127e-09
2.74027e-06
7.93136e-09
2.74027e-06
9.57111e-09
1.13603e-08
2.74037e-06
2.89733e-06
2.61598e-10
2.89728e-06
-3.2523e-11
2.89725e-06
5.1236e-10
2.8972e-06
3.21347e-10
2.89717e-06
9.63662e-10
2.89709e-06
7.7203e-10
2.89705e-06
1.42727e-09
2.89695e-06
1.28622e-09
2.8969e-06
1.98177e-09
2.89677e-06
1.92023e-09
2.89669e-06
2.66918e-09
2.89653e-06
2.75419e-09
2.89643e-06
3.58788e-09
2.89625e-06
3.91478e-09
2.89614e-06
4.89162e-09
2.89596e-06
5.59554e-09
2.89586e-06
6.81289e-09
2.89576e-06
8.02931e-09
2.89577e-06
9.56735e-09
1.12489e-08
2.89588e-06
3.0616e-06
2.52176e-10
3.06155e-06
1.45621e-11
3.06153e-06
5.35967e-10
3.06146e-06
3.83318e-10
3.06144e-06
9.87347e-10
3.06136e-06
8.53285e-10
3.06132e-06
1.46663e-09
3.06122e-06
1.39012e-09
3.06116e-06
2.03841e-09
3.06103e-06
2.05096e-09
3.06095e-06
2.74706e-09
3.06079e-06
2.91067e-09
3.06069e-06
3.68811e-09
3.06052e-06
4.08835e-09
3.06041e-06
5.00663e-09
3.06024e-06
5.75697e-09
3.06015e-06
6.9077e-09
3.06007e-06
8.10699e-09
3.06008e-06
9.55431e-09
1.11286e-08
3.06021e-06
3.23518e-06
2.41981e-10
3.23513e-06
6.07184e-11
3.23511e-06
5.57101e-10
3.23505e-06
4.47716e-10
3.23502e-06
1.01199e-09
3.23494e-06
9.36218e-10
3.2349e-06
1.50784e-09
3.23479e-06
1.49506e-09
3.23473e-06
2.09744e-09
3.23461e-06
2.18006e-09
3.23452e-06
2.82775e-09
3.23437e-06
3.06207e-09
3.23427e-06
3.7905e-09
3.23411e-06
4.25173e-09
3.23399e-06
5.12057e-09
3.23385e-06
5.90199e-09
3.23376e-06
6.9956e-09
3.2337e-06
8.166e-09
3.23372e-06
9.53134e-09
1.10013e-08
3.23385e-06
3.4186e-06
2.30756e-10
3.41856e-06
1.05479e-10
3.41854e-06
5.75837e-10
3.41847e-06
5.13043e-10
3.41845e-06
1.03763e-09
3.41836e-06
1.01932e-09
3.41832e-06
1.55089e-09
3.41822e-06
1.59928e-09
3.41815e-06
2.1595e-09
3.41803e-06
2.30672e-09
3.41794e-06
2.91179e-09
3.4178e-06
3.20779e-09
3.41769e-06
3.89488e-09
3.41754e-06
4.40465e-09
3.41743e-06
5.23245e-09
3.4173e-06
6.03126e-09
3.41722e-06
7.07497e-09
3.41718e-06
8.20772e-09
3.41721e-06
9.49761e-09
1.0868e-08
3.41734e-06
3.61242e-06
2.19348e-10
3.61238e-06
1.49159e-10
3.61236e-06
5.93163e-10
3.6123e-06
5.78659e-10
3.61227e-06
1.06511e-09
3.61219e-06
1.10216e-09
3.61214e-06
1.59652e-09
3.61204e-06
1.7022e-09
3.61197e-06
2.22453e-09
3.61185e-06
2.4295e-09
3.61176e-06
2.99835e-09
3.61162e-06
3.34635e-09
3.61152e-06
3.99974e-09
3.61138e-06
4.54611e-09
3.61127e-06
5.34021e-09
3.61116e-06
6.14471e-09
3.61109e-06
7.14432e-09
3.61106e-06
8.23356e-09
3.61111e-06
9.45297e-09
1.07298e-08
3.61124e-06
3.81723e-06
2.07723e-10
3.81719e-06
1.91075e-10
3.81717e-06
6.0941e-10
3.81711e-06
6.43188e-10
3.81708e-06
1.09442e-09
3.817e-06
1.18341e-09
3.81695e-06
1.64459e-09
3.81685e-06
1.80243e-09
3.81678e-06
2.29255e-09
3.81666e-06
2.54773e-09
3.81657e-06
3.08716e-09
3.81644e-06
3.47745e-09
3.81634e-06
4.10417e-09
3.81621e-06
4.67624e-09
3.81611e-06
5.4425e-09
3.81601e-06
6.24314e-09
3.81595e-06
7.20246e-09
3.81594e-06
8.24469e-09
3.81599e-06
9.39729e-09
1.05872e-08
3.81614e-06
4.03365e-06
1.96752e-10
4.03361e-06
2.31248e-10
4.0336e-06
6.2551e-10
4.03353e-06
7.06019e-10
4.0335e-06
1.12607e-09
4.03342e-06
1.26259e-09
4.03337e-06
1.69538e-09
4.03328e-06
1.89943e-09
4.03321e-06
2.36307e-09
4.03309e-06
2.66049e-09
4.033e-06
3.17695e-09
4.03288e-06
3.60024e-09
4.03278e-06
4.20632e-09
4.03266e-06
4.79458e-09
4.03256e-06
5.53735e-09
4.03248e-06
6.32676e-09
4.03243e-06
7.24836e-09
4.03244e-06
8.2421e-09
4.0325e-06
9.33091e-09
1.04406e-08
4.03265e-06
4.26235e-06
1.86504e-10
4.26231e-06
2.68974e-10
4.26229e-06
6.41768e-10
4.26223e-06
7.6611e-10
4.2622e-06
1.15981e-09
4.26212e-06
1.33874e-09
4.26207e-06
1.7484e-09
4.26198e-06
1.99225e-09
4.2619e-06
2.43545e-09
4.2618e-06
2.76737e-09
4.26171e-06
3.26677e-09
4.26159e-06
3.71463e-09
4.26149e-06
4.30487e-09
4.26139e-06
4.90136e-09
4.2613e-06
5.62347e-09
4.26123e-06
6.39624e-09
4.2612e-06
7.28142e-09
4.26121e-06
8.22663e-09
4.26129e-06
9.25417e-09
1.029e-08
4.26144e-06
4.504e-06
1.77711e-10
4.50397e-06
3.04202e-10
4.50395e-06
6.58799e-10
4.50389e-06
8.23069e-10
4.50386e-06
1.19568e-09
4.50379e-06
1.4115e-09
4.50373e-06
1.80338e-09
4.50364e-06
2.08056e-09
4.50357e-06
2.50876e-09
4.50347e-06
2.86787e-09
4.50338e-06
3.35506e-09
4.50327e-06
3.82016e-09
4.50318e-06
4.39799e-09
4.50309e-06
4.99636e-09
4.50301e-06
5.69934e-09
4.50295e-06
6.45177e-09
4.50293e-06
7.30121e-09
4.50296e-06
8.19889e-09
4.50305e-06
9.16765e-09
1.01358e-08
4.5032e-06
4.75936e-06
1.70362e-10
4.75933e-06
3.36415e-10
4.75931e-06
6.76648e-10
4.75926e-06
8.763e-10
4.75922e-06
1.23312e-09
4.75915e-06
1.48028e-09
4.7591e-06
1.85944e-09
4.75901e-06
2.16382e-09
4.75894e-06
2.58186e-09
4.75885e-06
2.96174e-09
4.75876e-06
3.4405e-09
4.75866e-06
3.91676e-09
4.75858e-06
4.48431e-09
4.75849e-06
5.07969e-09
4.75843e-06
5.76406e-09
4.75839e-06
6.49376e-09
4.75838e-06
7.30769e-09
4.75842e-06
8.15944e-09
4.75852e-06
9.07191e-09
9.97784e-09
4.75867e-06
5.0292e-06
1.64886e-10
5.02917e-06
3.65683e-10
5.02915e-06
6.95469e-10
5.0291e-06
9.25698e-10
5.02906e-06
1.2717e-09
5.029e-06
1.54492e-09
5.02894e-06
1.91582e-09
5.02886e-06
2.24185e-09
5.02879e-06
2.65353e-09
5.0287e-06
3.04868e-09
5.02862e-06
3.52155e-09
5.02854e-06
4.00408e-09
5.02846e-06
4.56237e-09
5.02839e-06
5.15115e-09
5.02833e-06
5.8167e-09
5.0283e-06
6.52231e-09
5.02831e-06
7.30091e-09
5.02836e-06
8.1087e-09
5.02847e-06
8.96754e-09
9.8163e-09
5.02863e-06
5.31433e-06
1.61064e-10
5.31431e-06
3.91791e-10
5.31429e-06
7.14973e-10
5.31424e-06
9.71066e-10
5.3142e-06
1.3106e-09
5.31414e-06
1.60511e-09
5.31409e-06
1.97142e-09
5.31401e-06
2.31433e-09
5.31395e-06
2.72245e-09
5.31387e-06
3.12842e-09
5.31379e-06
3.59689e-09
5.31371e-06
4.08193e-09
5.31364e-06
4.63109e-09
5.31358e-06
5.21066e-09
5.31354e-06
5.85682e-09
5.31353e-06
6.53766e-09
5.31355e-06
7.28118e-09
5.31361e-06
8.04711e-09
5.31372e-06
8.85506e-09
9.65123e-09
5.31389e-06
5.61563e-06
1.58977e-10
5.61561e-06
4.14981e-10
5.61559e-06
7.34898e-10
5.61555e-06
1.01249e-09
5.61551e-06
1.34911e-09
5.61546e-06
1.66079e-09
5.6154e-06
2.02523e-09
5.61534e-06
2.38107e-09
5.61527e-06
2.7874e-09
5.6152e-06
3.20064e-09
5.61513e-06
3.66525e-09
5.61506e-06
4.14991e-09
5.615e-06
4.68946e-09
5.61496e-06
5.25798e-09
5.61493e-06
5.88402e-09
5.61493e-06
6.53992e-09
5.61496e-06
7.24881e-09
5.61503e-06
7.97504e-09
5.61515e-06
8.73496e-09
9.48269e-09
5.61532e-06
5.93402e-06
1.58215e-10
5.934e-06
4.35292e-10
5.93398e-06
7.54729e-10
5.93394e-06
1.05e-09
5.9339e-06
1.38633e-09
5.93385e-06
1.71175e-09
5.9338e-06
2.07615e-09
5.93374e-06
2.44176e-09
5.93368e-06
2.84717e-09
5.93362e-06
3.26495e-09
5.93356e-06
3.72557e-09
5.9335e-06
4.20768e-09
5.93345e-06
4.73681e-09
5.93342e-06
5.29297e-09
5.9334e-06
5.89821e-09
5.93341e-06
6.52928e-09
5.93346e-06
7.20424e-09
5.93354e-06
7.8929e-09
5.93367e-06
8.60767e-09
9.31075e-09
5.93384e-06
6.27045e-06
1.58616e-10
6.27044e-06
4.53046e-10
6.27042e-06
7.73987e-10
6.27038e-06
1.0837e-09
6.27035e-06
1.42148e-09
6.2703e-06
1.75787e-09
6.27026e-06
2.12321e-09
6.2702e-06
2.4961e-09
6.27015e-06
2.90074e-09
6.27009e-06
3.32094e-09
6.27004e-06
3.77696e-09
6.26999e-06
4.25483e-09
6.26996e-06
4.77258e-09
6.26993e-06
5.31544e-09
6.26993e-06
5.89938e-09
6.26996e-06
6.50594e-09
6.27001e-06
7.14792e-09
6.2701e-06
7.80109e-09