/*--------------------------------*- C++ -*----------------------------------*\
| =========                 |                                                 |
| \\      /  F ield         | OpenFOAM: The Open Source CFD Toolbox           |
|  \\    /   O peration     | Version:  v1912                                 |
|   \\  /    A nd           | Website:  www.openfoam.com                      |
|    \\/     M anipulation  |                                                 |
\*---------------------------------------------------------------------------*/
FoamFile
{
    version     2.0;
    format      ascii;
    class       volVectorField;
    location    "300";
    object      U;
}
// * * * * * * * * * * * * * * * * * * * * * * * * * * * * * * * * * * * * * //

dimensions      [0 1 -1 0 0 0 0];


internalField   nonuniform List<vector> 
10000
(
(0.934897 -0.000807576 0)
(1.06049 -8.48236e-05 0)
(0.932599 -0.000107013 0)
(1.06245 2.35071e-05 0)
(0.931266 -8.3964e-05 0)
(1.06402 4.86474e-05 0)
(0.929641 -8.3586e-05 0)
(1.06565 6.55081e-05 0)
(0.927913 -9.0778e-05 0)
(1.06734 8.21106e-05 0)
(0.926051 -0.000103021 0)
(1.06908 0.000101392 0)
(0.924043 -0.000120842 0)
(1.07086 0.000126086 0)
(0.921854 -0.000146441 0)
(1.07265 0.000160491 0)
(0.919411 -0.000184421 0)
(1.07431 0.000211866 0)
(0.916468 -0.000233081 0)
(1.07508 0.000256318 0)
(0.986068 -0.0015756 0)
(1.01525 -0.000149919 0)
(0.986018 1.35147e-05 0)
(1.01454 -2.00242e-05 0)
(0.987177 3.31338e-05 0)
(1.01332 -2.09214e-05 0)
(0.988246 4.08871e-05 0)
(1.01199 -2.92274e-05 0)
(0.989421 4.85909e-05 0)
(1.01053 -3.95454e-05 0)
(0.990686 5.88527e-05 0)
(1.00891 -5.19505e-05 0)
(0.992043 7.26405e-05 0)
(1.00711 -6.71817e-05 0)
(0.993477 9.15877e-05 0)
(1.00507 -8.62344e-05 0)
(0.994938 0.000119593 0)
(1.00261 -0.000113381 0)
(0.996197 0.000195569 0)
(0.998818 -0.000238945 0)
(0.999316 -0.00171358 0)
(1.00021 -1.25387e-05 0)
(0.998725 7.14013e-06 0)
(1.00028 3.84553e-05 0)
(0.999198 -2.31861e-05 0)
(0.999962 3.43064e-05 0)
(0.999458 -3.12587e-05 0)
(0.999637 3.63276e-05 0)
(0.99969 -3.65984e-05 0)
(0.999298 4.10251e-05 0)
(0.999865 -4.05841e-05 0)
(0.998943 4.67404e-05 0)
(0.999973 -4.31625e-05 0)
(0.998555 5.21949e-05 0)
(0.999984 -4.17937e-05 0)
(0.998096 5.48844e-05 0)
(0.999828 -2.78039e-05 0)
(0.997423 4.51083e-05 0)
(0.999259 6.04456e-05 0)
(0.995748 -4.33727e-05 0)
(1.00035 -0.00161888 0)
(0.99856 -7.1959e-05 0)
(0.999503 2.93247e-05 0)
(0.99889 -3.41214e-05 0)
(0.999689 1.68474e-05 0)
(0.998839 -2.94852e-05 0)
(0.999672 2.56343e-05 0)
(0.998775 -2.76124e-05 0)
(0.99964 3.13884e-05 0)
(0.998686 -2.67154e-05 0)
(0.999569 3.58739e-05 0)
(0.998565 -2.52324e-05 0)
(0.999452 3.91595e-05 0)
(0.998391 -2.12404e-05 0)
(0.999263 4.1434e-05 0)
(0.998119 -1.14798e-05 0)
(0.99894 4.50719e-05 0)
(0.997603 8.73471e-06 0)
(0.998241 9.75092e-05 0)
(0.996098 9.99518e-05 0)
(1 -0.00159164 0)
(0.998922 -5.90003e-05 0)
(0.999136 -2.63999e-06 0)
(0.999262 1.08322e-05 0)
(0.999276 -1.21893e-05 0)
(0.999239 1.89649e-05 0)
(0.999219 -7.98538e-06 0)
(0.999199 1.94743e-05 0)
(0.999152 -6.14906e-06 0)
(0.999128 1.84315e-05 0)
(0.999049 -2.1293e-06 0)
(0.999022 1.62111e-05 0)
(0.998905 5.73844e-06 0)
(0.99886 1.22111e-05 0)
(0.998693 2.07725e-05 0)
(0.998596 5.84917e-06 0)
(0.998351 5.17236e-05 0)
(0.998085 -3.7843e-06 0)
(0.997638 0.000165453 0)
(0.996626 0.000106282 0)
(0.999965 -0.0015094 0)
(0.999024 -9.90839e-05 0)
(0.999126 2.78859e-05 0)
(0.999334 -1.514e-05 0)
(0.99927 1.12505e-05 0)
(0.999304 -1.00897e-05 0)
(0.999219 1.40842e-05 0)
(0.999254 -8.22553e-06 0)
(0.999159 1.51825e-05 0)
(0.999174 -5.07612e-06 0)
(0.999064 1.70922e-05 0)
(0.999057 -6.5289e-07 0)
(0.998929 2.04233e-05 0)
(0.998883 4.79312e-06 0)
(0.998726 2.8784e-05 0)
(0.998607 1.01683e-05 0)
(0.998394 5.5492e-05 0)
(0.998083 8.05785e-06 0)
(0.997693 0.000200935 0)
(0.996653 0.000114368 0)
(0.999972 -0.00146565 0)
(0.999071 -9.85807e-05 0)
(0.999159 1.47599e-05 0)
(0.999357 -2.0846e-06 0)
(0.999302 -3.31906e-06 0)
(0.999328 3.84951e-06 0)
(0.99925 4.1783e-06 0)
(0.999278 4.9988e-06 0)
(0.99919 9.44363e-06 0)
(0.999198 5.30859e-06 0)
(0.999095 1.60007e-05 0)
(0.999081 5.49575e-06 0)
(0.998959 2.4831e-05 0)
(0.998908 6.4377e-06 0)
(0.998756 3.91262e-05 0)
(0.998633 9.50623e-06 0)
(0.998422 7.10085e-05 0)
(0.998113 1.26135e-05 0)
(0.997721 0.000233081 0)
(0.996732 0.000143637 0)
(1.00005 -0.0013942 0)
(0.99905 -0.000123273 0)
(0.99926 2.51343e-05 0)
(0.999312 -1.06623e-05 0)
(0.999401 4.42039e-06 0)
(0.999283 -1.95668e-06 0)
(0.99935 1.08709e-05 0)
(0.999234 9.36884e-07 0)
(0.999289 1.39596e-05 0)
(0.999154 3.23443e-06 0)
(0.999194 1.88426e-05 0)
(0.999037 5.5687e-06 0)
(0.999058 2.73557e-05 0)
(0.998864 7.93791e-06 0)
(0.998855 4.42835e-05 0)
(0.998589 1.05776e-05 0)
(0.998521 8.47134e-05 0)
(0.998071 1.2854e-05 0)
(0.997822 0.000271654 0)
(0.996737 0.000171293 0)
(1.0002 -0.00133319 0)
(0.998945 -0.000133581 0)
(0.99944 2.36359e-05 0)
(0.99918 -8.01839e-06 0)
(0.999582 2.23178e-06 0)
(0.999148 -1.13161e-07 0)
(0.999534 1.08197e-05 0)
(0.999095 1.96097e-06 0)
(0.999477 1.58815e-05 0)
(0.999012 3.85849e-06 0)
(0.999386 2.27372e-05 0)
(0.998891 6.35743e-06 0)
(0.999253 3.29627e-05 0)
(0.998715 9.689e-06 0)
(0.999054 5.19408e-05 0)
(0.998436 1.39016e-05 0)
(0.998724 9.81928e-05 0)
(0.997916 1.75594e-05 0)
(0.998033 0.000310716 0)
(0.996627 0.00019954 0)
(1.00018 -0.00126257 0)
(0.999005 -0.000149121 0)
(0.999455 2.72745e-05 0)
(0.999217 -9.79667e-06 0)
(0.999593 3.60636e-06 0)
(0.999188 -7.15668e-07 0)
(0.999542 1.28631e-05 0)
(0.999138 2.30687e-06 0)
(0.999482 1.83361e-05 0)
(0.999057 4.66984e-06 0)
(0.999389 2.60741e-05 0)
(0.998939 7.2637e-06 0)
(0.999254 3.79871e-05 0)
(0.998765 1.06165e-05 0)
(0.999052 5.99452e-05 0)
(0.99849 1.54478e-05 0)
(0.99872 0.000112404 0)
(0.997977 2.18892e-05 0)
(0.998029 0.000348375 0)
(0.996742 0.000228345 0)
(1.00017 -0.00119531 0)
(0.99907 -0.000162179 0)
(0.999471 2.82667e-05 0)
(0.999259 -1.02937e-05 0)
(0.999606 4.00969e-06 0)
(0.999231 -8.71002e-07 0)
(0.999555 1.46881e-05 0)
(0.99918 2.472e-06 0)
(0.999495 2.09031e-05 0)
(0.9991 5.19259e-06 0)
(0.999401 2.95901e-05 0)
(0.998983 8.32353e-06 0)
(0.999266 4.30736e-05 0)
(0.998809 1.22881e-05 0)
(0.999064 6.81458e-05 0)
(0.998535 1.78318e-05 0)
(0.998731 0.000127688 0)
(0.998026 2.71357e-05 0)
(0.998044 0.000386479 0)
(0.99684 0.000259344 0)
(1.0002 -0.00112685 0)
(0.999089 -0.000174977 0)
(0.999537 2.9546e-05 0)
(0.999252 -1.07068e-05 0)
(0.999669 4.69504e-06 0)
(0.999224 -8.6305e-07 0)
(0.999618 1.65693e-05 0)
(0.999173 2.88683e-06 0)
(0.999558 2.36153e-05 0)
(0.999093 5.91516e-06 0)
(0.999465 3.34579e-05 0)
(0.998975 9.45877e-06 0)
(0.99933 4.86142e-05 0)
(0.998801 1.40518e-05 0)
(0.999128 7.66584e-05 0)
(0.998527 2.05824e-05 0)
(0.998796 0.000143177 0)
(0.998021 3.32328e-05 0)
(0.998114 0.000424035 0)
(0.996885 0.000291726 0)
(1.00025 -0.00105744 0)
(0.999094 -0.000186508 0)
(0.999615 3.05299e-05 0)
(0.999232 -1.11753e-05 0)
(0.999744 5.52473e-06 0)
(0.999205 -1.09848e-06 0)
(0.999693 1.86332e-05 0)
(0.999154 3.14346e-06 0)
(0.999633 2.65114e-05 0)
(0.999073 6.5416e-06 0)
(0.99954 3.75351e-05 0)
(0.998955 1.04869e-05 0)
(0.999405 5.45231e-05 0)
(0.998781 1.56509e-05 0)
(0.999204 8.58185e-05 0)
(0.998508 2.32646e-05 0)
(0.998872 0.000159543 0)
(0.998007 3.99803e-05 0)
(0.998196 0.000461603 0)
(0.99692 0.000325099 0)
(1.00029 -0.000987021 0)
(0.999108 -0.000196597 0)
(0.999684 3.09653e-05 0)
(0.999221 -1.13814e-05 0)
(0.999809 6.29171e-06 0)
(0.999195 -1.15948e-06 0)
(0.999758 2.06876e-05 0)
(0.999143 3.60621e-06 0)
(0.999699 2.94424e-05 0)
(0.999063 7.41952e-06 0)
(0.999606 4.16615e-05 0)
(0.998945 1.1872e-05 0)
(0.999471 6.05028e-05 0)
(0.998771 1.77335e-05 0)
(0.99927 9.51371e-05 0)
(0.998499 2.65888e-05 0)
(0.998938 0.000176187 0)
(0.998003 4.80745e-05 0)
(0.998269 0.000498213 0)
(0.996967 0.000360197 0)
(1.00031 -0.000916189 0)
(0.999141 -0.000205534 0)
(0.999735 3.11916e-05 0)
(0.99923 -1.1642e-05 0)
(0.999856 7.3632e-06 0)
(0.999205 -1.39569e-06 0)
(0.999804 2.30486e-05 0)
(0.999153 3.89737e-06 0)
(0.999745 3.2733e-05 0)
(0.999073 8.11319e-06 0)
(0.999652 4.62444e-05 0)
(0.998955 1.30736e-05 0)
(0.999517 6.70456e-05 0)
(0.998782 1.96834e-05 0)
(0.999316 0.000105142 0)
(0.998511 2.99531e-05 0)
(0.998984 0.000193656 0)
(0.998021 5.69093e-05 0)
(0.998322 0.000534405 0)
(0.997035 0.000396286 0)
(1.00031 -0.000846251 0)
(0.999185 -0.000212905 0)
(0.999775 3.07643e-05 0)
(0.99925 -1.16087e-05 0)
(0.999891 8.31305e-06 0)
(0.999226 -1.4346e-06 0)
(0.999839 2.52817e-05 0)
(0.999175 4.44819e-06 0)
(0.99978 3.59318e-05 0)
(0.999094 9.11609e-06 0)
(0.999686 5.07758e-05 0)
(0.998977 1.46384e-05 0)
(0.999552 7.36093e-05 0)
(0.998805 2.20802e-05 0)
(0.99935 0.000115268 0)
(0.998535 3.3983e-05 0)
(0.999019 0.000211304 0)
(0.998052 6.71728e-05 0)
(0.998365 0.000569397 0)
(0.997116 0.000433854 0)
(1.00034 -0.000776974 0)
(0.999214 -0.000218917 0)
(0.99983 3.01688e-05 0)
(0.999256 -1.16722e-05 0)
(0.999941 9.63485e-06 0)
(0.999233 -1.68255e-06 0)
(0.999889 2.78941e-05 0)
(0.999181 4.83021e-06 0)
(0.99983 3.95713e-05 0)
(0.999101 9.98963e-06 0)
(0.999736 5.58186e-05 0)
(0.998984 1.61287e-05 0)
(0.999602 8.07691e-05 0)
(0.998812 2.4497e-05 0)
(0.999401 0.000126096 0)
(0.998544 3.82741e-05 0)
(0.99907 0.000229682 0)
(0.998068 7.84933e-05 0)
(0.998426 0.000603621 0)
(0.99718 0.000472345 0)
(1.00036 -0.000708563 0)
(0.999238 -0.00022296 0)
(0.999889 2.89173e-05 0)
(0.999257 -1.14083e-05 0)
(0.999994 1.08331e-05 0)
(0.999236 -1.71517e-06 0)
(0.999942 3.0335e-05 0)
(0.999184 5.43912e-06 0)
(0.999883 4.30697e-05 0)
(0.999104 1.11053e-05 0)
(0.999789 6.07714e-05 0)
(0.998987 1.79078e-05 0)
(0.999655 8.79211e-05 0)
(0.998816 2.73029e-05 0)
(0.999454 0.000137015 0)
(0.998549 4.32177e-05 0)
(0.999124 0.000248142 0)
(0.998081 9.12807e-05 0)
(0.99849 0.000636342 0)
(0.997241 0.000511973 0)
(1.00041 -0.000640035 0)
(0.999242 -0.00022537 0)
(0.999967 2.75612e-05 0)
(0.99924 -1.12779e-05 0)
(1.00007 1.2517e-05 0)
(0.999219 -1.88872e-06 0)
(1.00001 3.32941e-05 0)
(0.999167 5.9865e-06 0)
(0.999955 4.71418e-05 0)
(0.999086 1.22059e-05 0)
(0.999861 6.63494e-05 0)
(0.99897 1.97319e-05 0)
(0.999727 9.57506e-05 0)
(0.998799 3.02721e-05 0)
(0.999527 0.00014866 0)
(0.998535 4.86325e-05 0)
(0.999198 0.000267233 0)
(0.998075 0.000105375 0)
(0.998576 0.000667986 0)
(0.997282 0.000552357 0)
(1.00045 -0.000571298 0)
(0.999242 -0.000225678 0)
(1.00005 2.54792e-05 0)
(0.999219 -1.09589e-05 0)
(1.00014 1.38348e-05 0)
(0.999199 -2.01843e-06 0)
(1.00009 3.58423e-05 0)
(0.999147 6.64789e-06 0)
(1.00003 5.08928e-05 0)
(0.999068 1.35017e-05 0)
(0.999934 7.17003e-05 0)
(0.998951 2.18534e-05 0)
(0.9998 0.000103459 0)
(0.998782 3.36919e-05 0)
(0.999599 0.000160279 0)
(0.998519 5.48351e-05 0)
(0.999272 0.000286209 0)
(0.998068 0.000121078 0)
(0.998662 0.000697805 0)
(0.997322 0.000593554 0)
(1.00057 -0.00049955 0)
(0.999172 -0.000224378 0)
(1.00019 2.38043e-05 0)
(0.99913 -1.03279e-05 0)
(1.00028 1.61083e-05 0)
(0.999111 -2.03068e-06 0)
(1.00023 3.91628e-05 0)
(0.999059 7.34371e-06 0)
(1.00017 5.53761e-05 0)
(0.998979 1.47994e-05 0)
(1.00008 7.77887e-05 0)
(0.998863 2.40022e-05 0)
(0.999941 0.000111935 0)
(0.998693 3.72575e-05 0)
(0.999742 0.00017268 0)
(0.998433 6.15385e-05 0)
(0.999416 0.000305757 0)
(0.997991 0.000138115 0)
(0.998821 0.000726344 0)
(0.997289 0.000635062 0)
(1.00069 -0.000421024 0)
(0.999091 -0.000222161 0)
(1.00035 2.03558e-05 0)
(0.999032 -1.00376e-05 0)
(1.00043 1.77879e-05 0)
(0.999015 -1.99797e-06 0)
(1.00037 4.20553e-05 0)
(0.998963 8.2846e-06 0)
(1.00031 5.95625e-05 0)
(0.998883 1.64748e-05 0)
(1.00022 8.36589e-05 0)
(0.998768 2.66718e-05 0)
(1.00009 0.000120252 0)
(0.9986 4.15589e-05 0)
(0.999886 0.000184931 0)
(0.998342 6.94153e-05 0)
(0.999562 0.000324905 0)
(0.99791 0.000157136 0)
(0.998982 0.000752692 0)
(0.997251 0.000677163 0)
(1.00105 -0.000325786 0)
(0.998769 -0.000215648 0)
(1.00074 1.74258e-05 0)
(0.998693 -9.94179e-06 0)
(1.00081 1.99209e-05 0)
(0.998675 -2.27083e-06 0)
(1.00076 4.5341e-05 0)
(0.998621 8.95859e-06 0)
(1.0007 6.4223e-05 0)
(0.99854 1.79364e-05 0)
(1.00061 9.0092e-05 0)
(0.998424 2.92108e-05 0)
(1.00048 0.000129222 0)
(0.998255 4.58898e-05 0)
(1.00028 0.00019789 0)
(0.997999 7.76958e-05 0)
(0.999958 0.000344558 0)
(0.997576 0.000177204 0)
(0.999396 0.000777862 0)
(0.99696 0.000718574 0)
(1.00097 -0.000221663 0)
(0.998874 -0.000203393 0)
(1.00069 1.59466e-05 0)
(0.998787 -8.73186e-06 0)
(1.00075 2.27059e-05 0)
(0.998771 -1.87461e-06 0)
(1.0007 4.89059e-05 0)
(0.998717 1.01827e-05 0)
(1.00064 6.90731e-05 0)
(0.998637 1.99468e-05 0)
(1.00055 9.66692e-05 0)
(0.998522 3.23857e-05 0)
(1.00042 0.000138298 0)
(0.998357 5.10697e-05 0)
(1.00022 0.000210842 0)
(0.998106 8.73091e-05 0)
(0.999904 0.000363734 0)
(0.997698 0.000199378 0)
(0.999358 0.000800478 0)
(0.997133 0.000760534 0)
(1.00052 -0.000137595 0)
(0.99935 -0.000193203 0)
(1.00026 1.32102e-05 0)
(0.999257 -8.60118e-06 0)
(1.00032 2.51732e-05 0)
(0.999242 -2.02553e-06 0)
(1.00027 5.23298e-05 0)
(0.999189 1.10815e-05 0)
(1.00021 7.39407e-05 0)
(0.999111 2.18046e-05 0)
(1.00011 0.000103359 0)
(0.998999 3.55994e-05 0)
(0.99998 0.000147529 0)
(0.998836 5.6579e-05 0)
(0.999782 0.000223876 0)
(0.998591 9.77964e-05 0)
(0.999466 0.000382514 0)
(0.998198 0.000223148 0)
(0.998936 0.000820697 0)
(0.997676 0.000802285 0)
(1.00018 -8.72136e-05 0)
(0.999711 -0.000185598 0)
(0.999942 9.79313e-06 0)
(0.999614 -8.37352e-06 0)
(0.999989 2.77563e-05 0)
(0.999599 -1.67274e-06 0)
(0.999938 5.58782e-05 0)
(0.999547 1.25379e-05 0)
(0.999877 7.89678e-05 0)
(0.999469 2.42778e-05 0)
(0.999784 0.000110222 0)
(0.999357 3.95348e-05 0)
(0.99965 0.000156931 0)
(0.999196 6.30261e-05 0)
(0.999453 0.000237 0)
(0.998953 0.000109658 0)
(0.999141 0.000400975 0)
(0.998572 0.000248687 0)
(0.998632 0.000839019 0)
(0.998086 0.000843256 0)
(1.00004 -5.98397e-05 0)
(0.999864 -0.000177252 0)
(0.999823 7.63335e-06 0)
(0.999764 -7.99799e-06 0)
(0.999863 3.08983e-05 0)
(0.99975 -1.30355e-06 0)
(0.999812 5.97295e-05 0)
(0.999697 1.39447e-05 0)
(0.999752 8.42712e-05 0)
(0.999619 2.67617e-05 0)
(0.999659 0.00011736 0)
(0.999507 4.3633e-05 0)
(0.999526 0.000166596 0)
(0.999347 6.99206e-05 0)
(0.99933 0.000250277 0)
(0.999107 0.00012247 0)
(0.999023 0.00041914 0)
(0.998737 0.000275499 0)
(0.998536 0.000855599 0)
(0.998285 0.00088268 0)
(1 -4.26027e-05 0)
(0.999914 -0.000167014 0)
(0.999806 5.98095e-06 0)
(0.999813 -7.65909e-06 0)
(0.999838 3.39234e-05 0)
(0.999799 -7.55081e-07 0)
(0.999787 6.34744e-05 0)
(0.999745 1.56452e-05 0)
(0.999727 8.95713e-05 0)
(0.999668 2.969e-05 0)
(0.999635 0.000124553 0)
(0.999556 4.83693e-05 0)
(0.999503 0.00017632 0)
(0.999397 7.77593e-05 0)
(0.999308 0.000263488 0)
(0.999162 0.000136723 0)
(0.999007 0.000436742 0)
(0.998803 0.000303953 0)
(0.998542 0.000870189 0)
(0.998386 0.000920848 0)
(0.999997 -2.89197e-05 0)
(0.999934 -0.00015613 0)
(0.999817 4.81787e-06 0)
(0.999831 -7.64726e-06 0)
(0.999841 3.72467e-05 0)
(0.999817 -1.56095e-07 0)
(0.999792 6.75187e-05 0)
(0.999763 1.74559e-05 0)
(0.999731 9.51929e-05 0)
(0.999687 3.28273e-05 0)
(0.999639 0.000132053 0)
(0.999576 5.34804e-05 0)
(0.999508 0.000186296 0)
(0.999419 8.62618e-05 0)
(0.999315 0.000276787 0)
(0.999188 0.000152084 0)
(0.999019 0.00045392 0)
(0.998843 0.000333499 0)
(0.998578 0.000883086 0)
(0.998458 0.000957029 0)
(0.999996 -1.74146e-05 0)
(0.999946 -0.000144875 0)
(0.999833 3.99273e-06 0)
(0.999844 -7.52379e-06 0)
(0.99985 4.0604e-05 0)
(0.99983 8.0113e-07 0)
(0.999801 7.15146e-05 0)
(0.999776 1.96466e-05 0)
(0.999741 0.000100771 0)
(0.999699 3.647e-05 0)
(0.999649 0.000139503 0)
(0.99959 5.93031e-05 0)
(0.999518 0.000196173 0)
(0.999434 9.58067e-05 0)
(0.999327 0.000289807 0)
(0.999208 0.000168932 0)
(0.999038 0.000470311 0)
(0.998877 0.000364344 0)
(0.998622 0.000894095 0)
(0.998525 0.000991296 0)
(0.999996 -7.48856e-06 0)
(0.999955 -0.000133692 0)
(0.99985 3.86956e-06 0)
(0.999855 -7.5489e-06 0)
(0.999859 4.42049e-05 0)
(0.99984 1.83822e-06 0)
(0.999811 7.57154e-05 0)
(0.999786 2.19731e-05 0)
(0.99975 0.000106588 0)
(0.99971 4.03964e-05 0)
(0.999659 0.000147183 0)
(0.999602 6.56247e-05 0)
(0.999529 0.000206214 0)
(0.999449 0.00010617 0)
(0.99934 0.000302798 0)
(0.999228 0.00018697 0)
(0.999059 0.000486165 0)
(0.99891 0.000395967 0)
(0.998667 0.00090364 0)
(0.998589 0.00102303 0)
(0.999996 7.53511e-07 0)
(0.999964 -0.000122444 0)
(0.999865 4.20469e-06 0)
(0.999866 -7.44665e-06 0)
(0.999868 4.77665e-05 0)
(0.99985 3.263e-06 0)
(0.99982 7.98613e-05 0)
(0.999796 2.47477e-05 0)
(0.999759 0.000112353 0)
(0.999721 4.49208e-05 0)
(0.999668 0.000154782 0)
(0.999614 7.276e-05 0)
(0.99954 0.000216093 0)
(0.999463 0.00011766 0)
(0.999354 0.000315425 0)
(0.999247 0.000206442 0)
(0.99908 0.000501187 0)
(0.998944 0.000428394 0)
(0.998714 0.000911612 0)
(0.998652 0.00105223 0)
(0.999996 7.67463e-06 0)
(0.999971 -0.000111481 0)
(0.99988 5.22756e-06 0)
(0.999876 -7.40385e-06 0)
(0.999876 5.15043e-05 0)
(0.99986 4.86942e-06 0)
(0.999829 8.41723e-05 0)
(0.999806 2.77569e-05 0)
(0.999768 0.000118282 0)
(0.999731 4.98378e-05 0)
(0.999678 0.000162511 0)
(0.999625 8.05184e-05 0)
(0.99955 0.000226012 0)
(0.999477 0.00013008 0)
(0.999367 0.000327896 0)
(0.999267 0.00022706 0)
(0.999102 0.000515622 0)
(0.998978 0.000461108 0)
(0.998761 0.000918441 0)
(0.998714 0.00107841 0)
(0.999996 1.32104e-05 0)
(0.999977 -0.000100708 0)
(0.999893 6.72271e-06 0)
(0.999886 -7.15471e-06 0)
(0.999884 5.51745e-05 0)
(0.999869 6.90522e-06 0)
(0.999837 8.84163e-05 0)
(0.999815 3.12571e-05 0)
(0.999776 0.000124131 0)
(0.999741 5.54162e-05 0)
(0.999686 0.000170122 0)
(0.999636 8.9162e-05 0)
(0.99956 0.000235724 0)
(0.999491 0.00014366 0)
(0.999381 0.000339971 0)
(0.999286 0.00024895 0)
(0.999125 0.000529286 0)
(0.999012 0.000494015 0)
(0.99881 0.00092411 0)
(0.998774 0.00110159 0)
(0.999996 1.76851e-05 0)
(0.999982 -9.0401e-05 0)
(0.999905 8.84393e-06 0)
(0.999895 -6.82831e-06 0)
(0.99989 5.89286e-05 0)
(0.999877 9.2153e-06 0)
(0.999845 9.27603e-05 0)
(0.999823 3.50974e-05 0)
(0.999784 0.000130067 0)
(0.99975 6.15088e-05 0)
(0.999695 0.000177767 0)
(0.999647 9.85459e-05 0)
(0.99957 0.000245375 0)
(0.999504 0.000158223 0)
(0.999394 0.000351817 0)
(0.999306 0.000271816 0)
(0.999149 0.000542398 0)
(0.999046 0.000526612 0)
(0.99886 0.000928991 0)
(0.998834 0.00112143 0)
(0.999996 2.10963e-05 0)
(0.999987 -8.04855e-05 0)
(0.999916 1.13933e-05 0)
(0.999904 -6.20493e-06 0)
(0.999897 6.25772e-05 0)
(0.999884 1.19949e-05 0)
(0.999852 9.70295e-05 0)
(0.999831 3.94792e-05 0)
(0.999791 0.000135896 0)
(0.999759 6.83171e-05 0)
(0.999703 0.000185262 0)
(0.999657 0.000108852 0)
(0.99958 0.000254793 0)
(0.999517 0.000173898 0)
(0.999408 0.000363286 0)
(0.999326 0.000295651 0)
(0.999174 0.000554883 0)
(0.999081 0.00055871 0)
(0.99891 0.000933126 0)
(0.998892 0.00113798 0)
(0.999996 2.37233e-05 0)
(0.99999 -7.11531e-05 0)
(0.999926 1.44414e-05 0)
(0.999912 -5.35242e-06 0)
(0.999903 6.62218e-05 0)
(0.999892 1.51426e-05 0)
(0.999858 0.000101335 0)
(0.999838 4.43083e-05 0)
(0.999798 0.000141724 0)
(0.999767 7.57411e-05 0)
(0.99971 0.000192706 0)
(0.999667 0.000119969 0)
(0.99959 0.000264087 0)
(0.999531 0.000190517 0)
(0.999423 0.000374522 0)
(0.999345 0.000320148 0)
(0.9992 0.000566941 0)
(0.999115 0.000589856 0)
(0.998961 0.000936804 0)
(0.998949 0.00115111 0)
(0.999996 2.55974e-05 0)
(0.999993 -6.23385e-05 0)
(0.999935 1.78083e-05 0)
(0.99992 -4.10022e-06 0)
(0.999908 6.97243e-05 0)
(0.999898 1.87946e-05 0)
(0.999865 0.000105552 0)
(0.999846 4.97248e-05 0)
(0.999804 0.000147422 0)
(0.999775 8.39154e-05 0)
(0.999718 0.000199986 0)
(0.999677 0.000131995 0)
(0.999599 0.000273162 0)
(0.999544 0.000208101 0)
(0.999438 0.000385468 0)
(0.999366 0.000345183 0)
(0.999227 0.000578574 0)
(0.99915 0.000619813 0)
(0.999011 0.000940074 0)
(0.999006 0.00116094 0)
(0.999996 2.69348e-05 0)
(0.999995 -5.4147e-05 0)
(0.999943 2.1494e-05 0)
(0.999928 -2.47469e-06 0)
(0.999913 7.31449e-05 0)
(0.999904 2.28884e-05 0)
(0.99987 0.000109746 0)
(0.999852 5.56732e-05 0)
(0.99981 0.000153059 0)
(0.999783 9.27707e-05 0)
(0.999725 0.00020717 0)
(0.999687 0.00014483 0)
(0.999609 0.000282109 0)
(0.999557 0.000226473 0)
(0.999454 0.000396254 0)
(0.999386 0.000370443 0)
(0.999255 0.000589947 0)
(0.999186 0.000648209 0)
(0.999062 0.000943115 0)
(0.999062 0.00116751 0)
(0.999996 2.7778e-05 0)
(0.999997 -4.65069e-05 0)
(0.99995 2.53374e-05 0)
(0.999935 -3.55078e-07 0)
(0.999918 7.63956e-05 0)
(0.99991 2.75091e-05 0)
(0.999876 0.000113842 0)
(0.999859 6.22376e-05 0)
(0.999816 0.000158559 0)
(0.99979 0.000102371 0)
(0.999733 0.000214207 0)
(0.999696 0.000158487 0)
(0.99962 0.000290905 0)
(0.99957 0.000245554 0)
(0.99947 0.000406891 0)
(0.999407 0.000395719 0)
(0.999284 0.0006011 0)
(0.999221 0.000674824 0)
(0.999113 0.000945941 0)
(0.999117 0.00117101 0)
(0.999996 2.8277e-05 0)
(0.999998 -3.94464e-05 0)
(0.999956 2.92922e-05 0)
(0.999941 2.25158e-06 0)
(0.999922 7.95136e-05 0)
(0.999915 3.26166e-05 0)
(0.999881 0.000117878 0)
(0.999865 6.93811e-05 0)
(0.999822 0.000163969 0)
(0.999797 0.00011265 0)
(0.99974 0.000221156 0)
(0.999705 0.000172854 0)
(0.99963 0.000299638 0)
(0.999583 0.000265144 0)
(0.999487 0.000417498 0)
(0.999428 0.000420704 0)
(0.999314 0.000612146 0)
(0.999257 0.000699396 0)
(0.999164 0.000948614 0)
(0.999171 0.00117164 0)
(0.999996 2.84643e-05 0)
(0.999999 -3.28831e-05 0)
(0.999961 3.32223e-05 0)
(0.999947 5.4148e-06 0)
(0.999926 8.24541e-05 0)
(0.99992 3.82505e-05 0)
(0.999886 0.000121818 0)
(0.99987 7.71348e-05 0)
(0.999827 0.000169263 0)
(0.999804 0.000123608 0)
(0.999747 0.00022802 0)
(0.999715 0.000187868 0)
(0.999641 0.000308338 0)
(0.999597 0.000285088 0)
(0.999504 0.000428121 0)
(0.99945 0.000445155 0)
(0.999344 0.000623115 0)
(0.999294 0.000721781 0)
(0.999214 0.000951084 0)
(0.999224 0.00116967 0)
(0.999996 2.84255e-05 0)
(1 -2.67888e-05 0)
(0.999965 3.70638e-05 0)
(0.999953 9.12229e-06 0)
(0.99993 8.52464e-05 0)
(0.999925 4.43732e-05 0)
(0.99989 0.000125689 0)
(0.999876 8.54568e-05 0)
(0.999833 0.000174492 0)
(0.999811 0.000135164 0)
(0.999755 0.000234865 0)
(0.999724 0.000203391 0)
(0.999652 0.000317095 0)
(0.999611 0.000305168 0)
(0.999523 0.000438854 0)
(0.999472 0.000468799 0)
(0.999375 0.000634046 0)
(0.99933 0.000741842 0)
(0.999263 0.000953305 0)
(0.999276 0.00116536 0)
(0.999996 2.81795e-05 0)
(1 -2.1078e-05 0)
(0.999968 4.0717e-05 0)
(0.999958 1.33923e-05 0)
(0.999934 8.78839e-05 0)
(0.999929 5.09849e-05 0)
(0.999895 0.000129491 0)
(0.999881 9.43289e-05 0)
(0.999838 0.000179667 0)
(0.999818 0.000147257 0)
(0.999763 0.000241732 0)
(0.999733 0.000219299 0)
(0.999664 0.000325964 0)
(0.999625 0.000325184 0)
(0.999542 0.000449735 0)
(0.999495 0.000491418 0)
(0.999407 0.000644919 0)
(0.999367 0.000759542 0)
(0.999312 0.000955173 0)
(0.999328 0.00115904 0)
(0.999996 2.77628e-05 0)
(1 -1.56931e-05 0)
(0.999971 4.41294e-05 0)
(0.999963 1.81897e-05 0)
(0.999938 9.04003e-05 0)
(0.999933 5.80355e-05 0)
(0.999899 0.000133257 0)
(0.999887 0.000103686 0)
(0.999844 0.000184854 0)
(0.999825 0.00015978 0)
(0.999771 0.000248698 0)
(0.999743 0.000235432 0)
(0.999677 0.000335027 0)
(0.999639 0.000344926 0)
(0.999562 0.000460811 0)
(0.999518 0.000512802 0)
(0.999439 0.000655687 0)
(0.999405 0.000774872 0)
(0.999359 0.000956565 0)
(0.999378 0.00115098 0)
(0.999996 2.71868e-05 0)
(1 -1.05612e-05 0)
(0.999974 4.72496e-05 0)
(0.999967 2.34836e-05 0)
(0.999941 9.28204e-05 0)
(0.999937 6.54899e-05 0)
(0.999903 0.000137016 0)
(0.999892 0.000113468 0)
(0.99985 0.000190091 0)
(0.999831 0.000172624 0)
(0.999779 0.00025582 0)
(0.999753 0.000251626 0)
(0.999689 0.00034433 0)
(0.999654 0.00036419 0)
(0.999582 0.000472073 0)
(0.999542 0.000532798 0)
(0.999472 0.000666263 0)
(0.999442 0.000787898 0)
(0.999406 0.000957351 0)
(0.999427 0.00114148 0)
(0.999996 2.6462e-05 0)
(1 -5.62557e-06 0)
(0.999976 5.00578e-05 0)
(0.999971 2.92078e-05 0)
(0.999944 9.51882e-05 0)
(0.999941 7.32776e-05 0)
(0.999907 0.000140813 0)
(0.999896 0.000123581 0)
(0.999855 0.000195453 0)
(0.999838 0.00018566 0)
(0.999788 0.000263168 0)
(0.999763 0.000267719 0)
(0.999703 0.00035392 0)
(0.99967 0.000382799 0)
(0.999603 0.000483498 0)
(0.999567 0.000551286 0)
(0.999505 0.000676524 0)
(0.99948 0.000798707 0)
(0.999452 0.000957388 0)
(0.999475 0.0011308 0)
(0.999996 2.56053e-05 0)
(1 -8.4249e-07 0)
(0.999978 5.25551e-05 0)
(0.999974 3.52896e-05 0)
(0.999947 9.755e-05 0)
(0.999944 8.13331e-05 0)
(0.999911 0.000144694 0)
(0.999901 0.00013393 0)
(0.999861 0.000200989 0)
(0.999845 0.000198754 0)
(0.999797 0.000270788 0)
(0.999773 0.000283544 0)
(0.999716 0.000363799 0)
(0.999686 0.000400589 0)
(0.999625 0.000495008 0)
(0.999592 0.000568196 0)
(0.999537 0.00068633 0)
(0.999518 0.000807435 0)
(0.999496 0.000956561 0)
(0.999522 0.00111916 0)
(0.999996 2.46256e-05 0)
(1 3.82028e-06 0)
(0.999979 5.47631e-05 0)
(0.999977 4.16356e-05 0)
(0.999951 9.99566e-05 0)
(0.999947 8.95662e-05 0)
(0.999916 0.000148712 0)
(0.999906 0.000144401 0)
(0.999867 0.000206765 0)
(0.999852 0.000211771 0)
(0.999806 0.000278721 0)
(0.999783 0.000298957 0)
(0.999731 0.000373955 0)
(0.999702 0.000417441 0)
(0.999647 0.000506504 0)
(0.999618 0.000583495 0)
(0.99957 0.000695513 0)
(0.999555 0.000814217 0)
(0.999539 0.000954755 0)
(0.999567 0.00110673 0)
(0.999996 2.35555e-05 0)
(1 8.36817e-06 0)
(0.999981 5.67272e-05 0)
(0.999979 4.81462e-05 0)
(0.999954 0.000102462 0)
(0.999951 9.7891e-05 0)
(0.99992 0.000152915 0)
(0.999911 0.000154883 0)
(0.999874 0.000212817 0)
(0.999859 0.00022458 0)
(0.999815 0.000286969 0)
(0.999794 0.000313824 0)
(0.999745 0.000384325 0)
(0.99972 0.000433251 0)
(0.999669 0.000517844 0)
(0.999644 0.000597186 0)
(0.999603 0.000703919 0)
(0.999592 0.00081921 0)
(0.999581 0.000951908 0)
(0.999611 0.00109367 0)
(0.999996 2.24173e-05 0)
(1 1.27995e-05 0)
(0.999982 5.85013e-05 0)
(0.999981 5.47154e-05 0)
(0.999956 0.000105111 0)
(0.999954 0.000106209 0)
(0.999924 0.000157345 0)
(0.999916 0.000165262 0)
(0.99988 0.000219178 0)
(0.999866 0.000237066 0)
(0.999825 0.000295521 0)
(0.999806 0.000328043 0)
(0.99976 0.000394827 0)
(0.999737 0.000447962 0)
(0.999692 0.000528875 0)
(0.99967 0.000609296 0)
(0.999635 0.000711383 0)
(0.999629 0.000822547 0)
(0.999622 0.000947962 0)
(0.999654 0.00108007 0)
(0.999996 2.12611e-05 0)
(1 1.70864e-05 0)
(0.999983 6.01547e-05 0)
(0.999983 6.12389e-05 0)
(0.999959 0.000107948 0)
(0.999957 0.00011443 0)
(0.999928 0.000162031 0)
(0.99992 0.000175435 0)
(0.999887 0.000225843 0)
(0.999874 0.000249125 0)
(0.999835 0.000304316 0)
(0.999818 0.000341525 0)
(0.999776 0.000405333 0)
(0.999755 0.00046153 0)
(0.999714 0.000539422 0)
(0.999697 0.000619868 0)
(0.999667 0.000717778 0)
(0.999665 0.000824364 0)
(0.999661 0.000942917 0)
(0.999694 0.00106601 0)
(0.999996 2.01221e-05 0)
(1 2.12015e-05 0)
(0.999984 6.17508e-05 0)
(0.999985 6.76192e-05 0)
(0.999962 0.000110998 0)
(0.99996 0.000122466 0)
(0.999932 0.000166981 0)
(0.999925 0.000185306 0)
(0.999893 0.00023279 0)
(0.999882 0.000260678 0)
(0.999846 0.00031328 0)
(0.99983 0.000354216 0)
(0.999791 0.000415705 0)
(0.999774 0.000473942 0)
(0.999737 0.000549317 0)
(0.999724 0.000628951 0)
(0.999698 0.000722986 0)
(0.9997 0.00082476 0)
(0.999699 0.000936774 0)
(0.999733 0.00105152 0)
(0.999996 1.90564e-05 0)
(1 2.5102e-05 0)
(0.999984 6.33537e-05 0)
(0.999986 7.37708e-05 0)
(0.999964 0.000114274 0)
(0.999963 0.00013024 0)
(0.999936 0.000172185 0)
(0.99993 0.000194801 0)
(0.9999 0.000239961 0)
(0.99989 0.000271659 0)
(0.999856 0.000322296 0)
(0.999842 0.000366069 0)
(0.999807 0.000425781 0)
(0.999792 0.000485187 0)
(0.99976 0.000558395 0)
(0.99975 0.00063659 0)
(0.999729 0.000726932 0)
(0.999735 0.000823833 0)
(0.999736 0.000929582 0)
(0.99977 0.00103664 0)
(0.999996 1.80984e-05 0)
(1 2.87551e-05 0)
(0.999985 6.50094e-05 0)
(0.999988 7.96245e-05 0)
(0.999967 0.000117765 0)
(0.999965 0.00013769 0)
(0.999941 0.000177604 0)
(0.999935 0.000203859 0)
(0.999907 0.000247276 0)
(0.999898 0.000282025 0)
(0.999867 0.000331238 0)
(0.999855 0.000377059 0)
(0.999823 0.0004354 0)
(0.999811 0.000495268 0)
(0.999783 0.000566516 0)
(0.999777 0.000642826 0)
(0.999759 0.000729563 0)
(0.999768 0.000821646 0)
(0.999771 0.000921379 0)
(0.999806 0.00102138 0)
(0.999996 1.72914e-05 0)
(1 3.21261e-05 0)
(0.999986 6.67511e-05 0)
(0.999989 8.51294e-05 0)
(0.999969 0.000121444 0)
(0.999968 0.000144766 0)
(0.999945 0.000183179 0)
(0.99994 0.000212434 0)
(0.999914 0.000254628 0)
(0.999906 0.000291739 0)
(0.999877 0.000339959 0)
(0.999868 0.000387161 0)
(0.999839 0.000444402 0)
(0.99983 0.000504179 0)
(0.999805 0.000573558 0)
(0.999803 0.000647689 0)
(0.999788 0.00073086 0)
(0.9998 0.000818264 0)
(0.999804 0.000912231 0)
(0.99984 0.00100575 0)
(0.999996 1.66507e-05 0)
(1 3.51976e-05 0)
(0.999987 6.8588e-05 0)
(0.99999 9.02535e-05 0)
(0.999971 0.000125262 0)
(0.999971 0.000151435 0)
(0.999949 0.000188826 0)
(0.999946 0.000220496 0)
(0.999921 0.000261898 0)
(0.999915 0.000300777 0)
(0.999888 0.000348315 0)
(0.999881 0.000396355 0)
(0.999855 0.000452645 0)
(0.999849 0.000511914 0)
(0.999827 0.00057943 0)
(0.999828 0.000651203 0)
(0.999816 0.000730823 0)
(0.999831 0.000813728 0)
(0.999836 0.00090219 0)
(0.999872 0.000989751 0)
(0.999996 1.6192e-05 0)
(1 3.79584e-05 0)
(0.999987 7.05119e-05 0)
(0.999991 9.49813e-05 0)
(0.999973 0.000129155 0)
(0.999974 0.000157672 0)
(0.999953 0.000194451 0)
(0.999951 0.000228018 0)
(0.999928 0.000268956 0)
(0.999923 0.00030911 0)
(0.999899 0.000356161 0)
(0.999894 0.000404614 0)
(0.999871 0.000459999 0)
(0.999868 0.000518459 0)
(0.999849 0.000584066 0)
(0.999853 0.000653386 0)
(0.999843 0.000729474 0)
(0.99986 0.000808086 0)
(0.999866 0.000891316 0)
(0.999902 0.000973401 0)
(0.999996 1.59032e-05 0)
(1 4.04148e-05 0)
(0.999988 7.24941e-05 0)
(0.999992 9.93104e-05 0)
(0.999976 0.000133044 0)
(0.999977 0.000163461 0)
(0.999957 0.000199945 0)
(0.999956 0.000234977 0)
(0.999935 0.000275674 0)
(0.999932 0.00031671 0)
(0.99991 0.000363367 0)
(0.999907 0.000411907 0)
(0.999886 0.000466364 0)
(0.999886 0.000523798 0)
(0.99987 0.000587423 0)
(0.999876 0.000654251 0)
(0.999869 0.000726842 0)
(0.999888 0.000801375 0)
(0.999895 0.000879656 0)