/*--------------------------------*- C++ -*----------------------------------*\
| =========                 |                                                 |
| \\      /  F ield         | OpenFOAM: The Open Source CFD Toolbox           |
|  \\    /   O peration     | Version:  v1912                                 |
|   \\  /    A nd           | Website:  www.openfoam.com                      |
|    \\/     M anipulation  |                                                 |
\*---------------------------------------------------------------------------*/
FoamFile
{
    version     2.0;
    format      ascii;
    class       volScalarField;
    location    "370";
    object      epsilon;
}
// * * * * * * * * * * * * * * * * * * * * * * * * * * * * * * * * * * * * * //

dimensions      [0 2 -3 0 0 0 0];


internalField   nonuniform List<scalar> 
12441
(
0.0102963
0.0090848
0.00832694
0.0077025
0.00718356
0.00674889
0.0063822
0.00607086
0.00580493
0.0055764
0.00537904
0.00520759
0.00505127
0.00492
0.00480148
0.00469902
0.0048608
0.0200598
0.272474
3.0241
20.9552
39.25
0.0101187
0.00891986
0.00818375
0.00757667
0.00707174
0.0066485
0.00629123
0.00598777
0.00572849
0.00550564
0.00531321
0.0051461
0.00499307
0.00486546
0.00475031
0.00465235
0.00479227
0.0197961
0.256612
3.01645
21.2459
40.2318
0.00989671
0.0087171
0.00800006
0.00740886
0.00691728
0.00650535
0.00615777
0.0058627
0.00561079
0.0053945
0.00520801
0.00504644
0.0048984
0.00477596
0.00466579
0.00457311
0.00464452
0.0179451
0.217337
2.98568
21.6254
41.3784
0.00967313
0.00851345
0.00781469
0.00723861
0.00675969
0.00635845
0.00602
0.00573284
0.00548783
0.00527771
0.00509676
0.00494035
0.00479776
0.00468013
0.0045752
0.00448775
0.0045047
0.0157205
0.178951
2.96302
22.0928
42.5504
0.00942891
0.00828885
0.00760881
0.00704836
0.00658261
0.0061926
0.00586384
0.00558513
0.00534763
0.00514427
0.00496952
0.00481899
0.0046818
0.00456995
0.00447067
0.00439031
0.00435727
0.0137225
0.15934
2.96976
22.6098
43.6698
0.00922293
0.00809922
0.00743439
0.00688656
0.00643138
0.00605029
0.00572912
0.00545695
0.00522513
0.00502678
0.00485652
0.0047101
0.00457754
0.00446966
0.00437496
0.00429865
0.00428252
0.0138578
0.178883
3.07608
23.2389
44.7472
0.00900227
0.00789563
0.00724725
0.00671314
0.00626952
0.00589829
0.00558561
0.00532086
0.00509559
0.00490314
0.00473824
0.00459687
0.00446873
0.00436649
0.00427451
0.00420569
0.00603683
0.0229384
0.284354
3.37587
24.0799
45.7945
0.00882381
0.00773097
0.00709543
0.00657192
0.00613714
0.00577332
0.0054669
0.00520748
0.00498678
0.00479829
0.00463687
0.00449863
0.00437441
0.00427602
0.00419253
0.00517038
0.0344079
0.0793672
0.59702
4.00783
25.2561
46.8732
0.00862968
0.00755178
0.00693075
0.00641936
0.00599477
0.00563966
0.00534072
0.00508783
0.00487289
0.00468956
0.0045328
0.0043989
0.00427875
0.00414645
0.00539698
0.0269721
0.175135
0.297249
1.28115
5.12178
26.8979
48.0153
0.00847499
0.00740889
0.00679884
0.0062965
0.00587944
0.00553059
0.00523693
0.0049885
0.00477735
0.00459727
0.00444333
0.00431213
0.00419477
0.00427515
0.0251906
0.148341
0.519067
0.786992
2.36107
6.77587
29.1001
49.2846
0.00830555
0.00725244
0.00665513
0.00616341
0.00575529
0.00541408
0.00512698
0.00488426
0.00467814
0.00450253
0.00435261
0.0042261
0.00407923
0.00950349
0.112952
0.424344
1.01506
1.49267
3.62636
8.86731
31.8885
50.6975
0.00817053
0.00712773
0.00653998
0.00605611
0.00565449
0.00531868
0.0050361
0.00479717
0.00459425
0.00442137
0.00427381
0.00415096
0.00415652
0.0482535
0.314094
0.783892
1.48981
2.20314
4.81998
11.1815
35.2093
52.295
0.0080214
0.00699008
0.00641368
0.00593927
0.00554562
0.0052166
0.00493985
0.004706
0.00450751
0.00433856
0.00419449
0.00403778
0.00834983
0.162632
0.57388
1.10136
1.84997
2.77553
5.82089
13.5051
38.9533
54.0597
0.00790051
0.00687843
0.00631059
0.00584322
0.00545538
0.00513118
0.00485848
0.00462801
0.00443241
0.00426592
0.00412399
0.00388217
0.036798
0.333297
0.799068
1.33102
2.09932
3.19345
6.62458
15.6926
42.9845
56.0037
0.00776912
0.0067571
0.00619927
0.00574025
0.00535944
0.00504123
0.00477365
0.00454763
0.0043559
0.00419281
0.00405388
0.00426317
0.111157
0.500099
0.964816
1.4898
2.27118
3.49346
7.26909
17.6723
47.1714
58.0812
0.00766005
0.00665641
0.00610632
0.00565363
0.00527807
0.00496422
0.00470029
0.00447734
0.00428822
0.00412737
0.00399045
0.00946852
0.216684
0.632792
1.08187
1.60147
2.39335
3.7142
7.79567
19.4234
51.3999
60.2902
0.00754411
0.00654936
0.00600818
0.00556291
0.00519357
0.00488498
0.00462554
0.00440646
0.00422068
0.00406274
0.00392881
0.032178
0.322286
0.73164
1.16623
1.68304
2.48399
3.88366
8.23732
20.9534
55.5838
62.571
0.00744259
0.00645576
0.00592187
0.00548261
0.00511825
0.00481383
0.00455791
0.00434182
0.0041586
0.00400289
0.00387359
0.0803368
0.411009
0.805152
1.2294
1.74519
2.55441
4.02018
8.61793
22.2816
59.6619
64.9213
0.00733998
0.00636088
0.00583483
0.00540206
0.00504313
0.00474329
0.00449126
0.00427849
0.00409813
0.0039449
0.00380995
0.141837
0.480666
0.861454
1.2787
1.79457
2.61169
4.13554
8.95416
23.4311
63.5993
67.2818
0.00724534
0.00627372
0.00575451
0.0053274
0.00497319
0.00467732
0.00442865
0.00421876
0.00404089
0.00388984
0.00428216
0.201845
0.534861
0.90622
1.31873
1.83542
2.66044
4.2373
9.25726
24.4242
67.3796
69.6617
0.00715512
0.00619023
0.0056779
0.00525644
0.00490692
0.00461497
0.00436959
0.00416247
0.00398696
0.00383798
0.00995108
0.254114
0.577963
0.943161
1.35245
1.87053
2.70376
4.33032
9.53469
25.2813
71.0064
72.0102
0.00706434
0.00610679
0.00560119
0.00518534
0.00484054
0.00455258
0.00431063
0.00410648
0.00393354
0.00378735
0.0283554
0.29782
0.613376
0.974681
1.38184
1.90185
2.74387
4.41754
9.79128
26.0205
74.496
74.3523
0.00698505
0.00603321
0.0055335
0.00512245
0.00478159
0.00449691
0.00425768
0.00405579
0.00388477
0.0037423
0.0590478
0.334224
0.643453
1.00239
1.4083
1.93076
2.78231
4.50061
10.03
26.6579
77.8804
76.6493
0.00689855
0.0059538
0.00546059
0.005055
0.00471876
0.00443803
0.0042022
0.00400328
0.00383485
0.00370256
0.0935609
0.3649
0.669774
1.02739
1.43283
1.95828
2.82017
4.58033
10.2529
27.2076
81.202
78.9445
0.00683029
0.00589032
0.00540209
0.00500049
0.00466745
0.00438931
0.00415558
0.00395835
0.00379133
0.00368414
0.125833
0.391291
0.693404
1.0505
1.45616
1.98516
2.85806
4.65702
10.4611
27.6821
84.516
81.212
0.00674459
0.00581193
0.00533042
0.00493452
0.00460637
0.00433244
0.00410238
0.00390837
0.0037442
0.00364547
0.154154
0.414545
0.715078
1.0723
1.47885
2.01192
2.89624
4.73088
10.6557
28.0926
87.8858
83.5114
0.00668545
0.00575662
0.00527917
0.00488644
0.00456079
0.00428883
0.00406033
0.00386755
0.00370442
0.00384403
0.178906
0.435506
0.735319
1.09324
1.50129
2.03888
2.9347
4.80204
10.8373
28.4487
91.3842
85.8273
0.00660172
0.00568017
0.00520944
0.00482246
0.00450178
0.00423413
0.0040094
0.00381994
0.00365982
0.00581223
0.200944
0.454781
0.754511
1.11365
1.52376
2.06618
2.97332
4.87068
11.0067
28.7586
95.0861
88.2307
0.00655206
0.00563347
0.00516591
0.0047813
0.00446237
0.00419602
0.00397224
0.00378347
0.00362428
0.0112738
0.221022
0.472801
0.772938
1.13377
1.54641
2.09387
3.01195
4.937
11.1646
29.0292
99.0681
90.7106
0.00646796
0.00555701
0.00509653
0.00471803
0.00440443
0.00414274
0.00392303
0.00373785
0.00358282
0.0212877
0.239683
0.489873
0.790816
1.15377
1.56932
2.12189
3.05044
5.00117
11.3117
29.2662
103.4
93.3406
0.00642574
0.00551689
0.00505872
0.00468186
0.00436936
0.00410842
0.00388921
0.00370433
0.00355176
0.0359537
0.257279
0.506225
0.808304
1.17376
1.59249
2.15017
3.08872
5.06339
11.4488
29.4746
108.143
96.1058
0.00634327
0.00544204
0.00499096
0.00462026
0.00431317
0.00405697
0.00384192
0.0036607
0.00351584
0.0543314
0.274034
0.522023
0.82552
1.19379
1.61591
2.17861
3.12673
5.12381
11.5767
29.6587
113.343
99.0732
0.00630959
0.00540971
0.00496013
0.0045903
0.00428361
0.0040275
0.00381235
0.00363091
0.00349489
0.0750676
0.290092
0.537391
0.842541
1.21389
1.63951
2.20715
3.16444
5.18255
11.696
29.8227
119.035
102.217
0.00622511
0.00533341
0.00489146
0.00452834
0.00422756
0.00397667
0.0037661
0.0035887
0.00347386
0.0968639
0.305544
0.55242
0.859421
1.23405
1.66324
2.23569
3.20184
5.2397
11.8075
29.9706
125.239
105.592
0.00619828
0.00530715
0.00486589
0.00450289
0.00420186
0.00395049
0.00373934
0.00356132
0.00347888
0.118748
0.320451
0.567173
0.876185
1.25426
1.68703
2.2642
3.2389
5.29534
11.912
30.1065
131.969
109.157
0.00611128
0.005229
0.00479598
0.00444025
0.00414564
0.00389993
0.00369374
0.00352006
0.00355024
0.140025
0.334843
0.581692
0.892839
1.27448
1.71081
2.29262
3.27563
5.3495
12.0103
30.2341
139.231
112.957
0.00608774
0.00520568
0.00477293
0.00441692
0.0041217
0.00387519
0.00366818
0.00349371
0.00630929
0.160189
0.348727
0.596
0.909372
1.29466
1.73453
2.32089
3.31201
5.40219
12.1031
30.3562
147.027
116.938
0.00599574
0.00512363
0.00470003
0.00435207
0.00406394
0.00382366
0.00362208
0.00345235
0.028034
0.178766
0.362092
0.610103
0.925762
1.31475
1.75812
2.34897
3.348
5.45337
12.1914
30.4749
155.338
121.137
0.00596744
0.00509621
0.00467341
0.0043256
0.0040372
0.00379647
0.00359439
0.00342475
0.0566062
0.195072
0.374911
0.623993
0.941974
1.3347
1.78152
2.37681
3.38358
5.50302
12.2759
30.5906
164.115
125.495
0.00586275
0.00500325
0.00459119
0.00425281
0.00397272
0.00373927
0.00354353
0.00338451
0.0741569
0.208813
0.387153
0.637648
0.957966
1.35444
1.80466
2.40435
3.41868
5.55107
12.3577
30.7027
173.223
130.045
0.00582117
0.00496384
0.00455372
0.00421646
0.00393698
0.00370389
0.00350847
0.003354
0.0843281
0.220219
0.398793
0.651038
0.973688
1.3739
1.82747
2.43154
3.45325
5.59747
12.4375
30.8099
182.393
134.727
0.00569953
0.00485626
0.00445859
0.004132
0.00386179
0.00363679
0.00344845
0.00361681
0.0906472
0.229673
0.409812
0.664121
0.98909
1.393
1.84988
2.4583
3.48719
5.64216
12.5159
30.9112
191.145
139.588
0.00561724
0.00478977
0.00440416
0.00408592
0.00382133
0.0036
0.00341384
0.00424424
0.0948412
0.237536
0.420203
0.676849
1.00412
1.41164
1.8718
2.48453
3.52038
5.68512
12.593
31.0069
198.783
144.654
0.00525478
0.00446042
0.00411212
0.00382656
0.00358933
0.0033908
0.00322361
0.00453844
0.0977511
0.244092
0.429964
0.689164
1.01872
1.42974
1.89313
2.51013
3.55271
5.72639
12.6682
31.0987
204.501
150.447
95.0235
51.7614
35.1356
27.6554
26.3474
22.0195
21.0324
18.8374
17.6909
17.032
16.416
15.6939
16.8297
19.6806
23.7951
27.7817
31.1254
33.623
35.1493
35.5235
35.5453
35.8997
36.543
37.0989
37.552
37.4631
36.4439
34.689
35.4399
44.5141
13.5023
4.46767
4.00369
3.68948
3.27748
94.6475
51.7982
35.2536
28.0539
26.9661
22.4528
21.4478
19.1569
17.9796
17.2832
16.5482
15.8149
16.9769
19.8749
24.0198
27.9331
31.2221
33.7976
35.4814
36.0713
36.2424
36.5836
37.1466
37.6278
38.0513
37.964
36.9446
35.1211
35.867
44.6172
13.7145
4.46774
3.9991
3.68471
3.27341
93.9266
51.8478
35.479
28.8512
28.1885
23.3184
22.2592
19.7825
18.5546
17.785
16.8264
16.0716
17.288
20.2823
24.4927
28.2808
31.4371
34.1062
36.0939
37.1728
37.7243
38.0732
38.4625
38.7605
39.091
38.9838
37.9554
36.0048
36.7444
44.3065
13.8601
4.46763
3.9899
3.67518
3.2653
92.8104
51.8975
35.8232
30.083
30.0026
24.6209
23.4394
20.6963
19.4082
18.5318
17.2866
16.506
17.8081
20.9654
25.3187
28.9709
31.8976
34.6501
37.0935
38.981
40.2047
40.6121
40.7098
40.6613
40.7828
40.5994
39.544
37.4036
38.1176
44.0618
14.0104
4.46792
3.97611
3.66093
3.25317
91.3035
51.9351
36.3037
31.7777
32.3849
26.356
24.9613
21.8885
20.5334
19.5192
17.9703
17.1701
18.5932
21.9938
26.6128
30.2001
32.8311
35.6289
38.6786
41.7544
44.0244
44.5937
44.2515
43.606
43.3136
42.9364
41.8122
39.4115
40.0587
44.2557
14.2306
4.46952
3.95779
3.64196
3.23703
89.3553
51.9497
36.9443
33.9668
35.3272
28.5309
26.8184
23.3664
21.9368
20.7555
18.9188
18.1171
19.6957
23.4273
28.4722
32.1736
34.5584
37.3838
41.1902
45.9003
49.6969
50.6257
49.6717
48.0481
46.9902
46.1958
44.9121
42.1625
42.6718
45.1934
14.5818
4.47362
3.93498
3.61832
3.21693
87.0012
51.9317
37.7765
36.6924
38.8388
31.1709
29.0291
25.1565
23.6436
22.269
20.1796
19.4053
21.1722
25.3385
31.0029
35.0924
37.4577
40.4233
45.1771
52.0411
57.9742
59.6174
57.8894
54.7238
52.3105
50.6956
49.0696
45.846
46.1
47.1735
15.123
4.48158
3.90774
3.59005
3.19291
84.2135
51.8724
38.8408
39.9964
42.9291
34.3123
31.6316
27.3018
25.6972
24.1096
21.8167
21.1102
23.1041
27.8432
34.3717
39.1967
41.9452
45.4148
51.4541
61.0913
69.9091
72.8591
70.3012
64.8097
60.075
56.9349
54.6209
50.7281
50.5359
50.5491
15.9168
4.49486
3.87612
3.55718
3.16501
81.0699
51.7642
40.186
43.893
47.5856
37.9892
34.6753
29.8589
28.1567
26.3479
23.9195
23.3357
25.612
31.1138
38.8298
44.8104
48.4848
53.1335
61.0876
74.2461
86.7852
91.9331
88.8271
80.0899
71.5358
65.6802
62.0598
57.1802
56.2321
55.7867
17.0325
4.51493
3.84021
3.51979
3.13332
77.574
51.5994
41.8696
48.3338
52.7573
42.219
38.2114
32.8925
31.0924
29.0725
26.6046
26.2194
28.8609
35.3691
44.6866
52.3148
57.5306
64.2626
75.0749
92.5414
109.511
117.963
115.37
102.858
88.4885
78.0469
72.0848
65.7092
63.5088
63.5107
18.549
4.54303
3.80007
3.47796
3.0979
73.8369
51.37
43.9551
53.181
58.3502
46.9925
42.2836
36.4687
34.5793
32.386
30.0132
29.9285
33.0529
40.8244
52.1982
61.9648
69.234
78.7886
93.2898
115.412
136.893
149.451
149.572
134.596
112.88
95.4245
85.5883
76.9626
72.7435
74.4887
20.5532
4.57995
3.75579
3.43179
3.05887
69.8857
51.0672
46.5092
58.2161
64.2397
52.2705
46.9164
40.6439
38.6854
36.3929
34.2957
34.6419
38.3822
47.5888
61.315
73.4688
82.8281
95.0286
112.964
138.875
163.77
179.897
184.948
172.042
144.819
118.795
103.411
91.6292
84.3103
89.4252
23.1289
4.62559
3.70745
3.38141
3.01634
65.8489
50.6808
49.5912
63.1982
70.2947
57.9922
52.1083
45.4523
43.4564
41.1806
39.5807
40.5014
44.9463
55.4714
71.3028
85.4518
96.1405
109.605
129.355
157.017
183.227
200.62
209.881
203.763
178.532
146.743
125.521
110.057
98.3986
108.317
26.3294
4.67843
3.65513
3.32698
2.97045
61.7626
50.199
53.2305
67.9514
76.4055
64.0933
57.8289
50.8948
48.8971
46.7874
45.9166
47.5075
52.606
63.7871
80.5887
95.5265
106.354
119.667
139.668
167.161
192.542
208.418
217.953
217.631
201.923
173.04
149.486
131.376
114.625
129.288
30.1257
4.73496
3.5989
3.26868
2.92138
57.7502
49.6094
57.3843
72.4254
82.502
70.5253
64.0278
56.9372
54.9623
53.1718
53.198
55.4138
60.8281
71.4133
87.376
101.625
111.996
125.088
145.013
171.34
194.359
206.86
212.985
213.212
206.787
188.72
169.741
152.413
131.467
147.892
34.3352
4.78915
3.53884
3.20671
2.8693
53.8399
48.9015
61.8888
76.6915
88.5597
77.2732
70.6512
63.5107
61.5603
60.1915
61.1299
63.692
68.7248
77.2983
90.8394
103.543
113.887
127.793
148.059
172.81
192.508
200.81
202.059
199.038
196.654
189.835
180.404
167.984
146
158.913
38.5671
4.83237
3.47503
3.14131
2.81443
50.1273
48.0719
66.4474
80.8872
94.6029
84.3207
77.6535
70.5436
68.5825
67.6365
69.2969
71.689
75.4502
81.0906
91.5977
102.808
114.057
129.843
150.69
173.442
189.159
192.996
189.543
182.549
180.281
180.324
179.913
173.874
154.791
159.985
42.2331
4.85405
3.40758
3.07274
2.75698
46.6135
47.1324
70.7057
85.1142
100.68
91.6564
85.0019
77.983
75.9418
75.3041
77.3308
78.9623
80.7234
83.2888
91.0688
101.376
114.332
132.46
153.528
173.608
184.831
184.215
176.906
166.976
163.701
166.584
171.427
169.835
155.888
152.759
44.6498
4.84328
3.33662
3.00129
2.6972
43.349
46.1313
74.4056
89.4281
106.823
99.2493
92.6681
85.8026
83.6044
83.0879
85.101
85.5382
84.9967
84.8605
90.5868
100.672
115.805
136.08
156.45
172.96
179.32
174.489
164.346
153
149.158
152.788
159.241
158.983
149.983
140.671
45.2351
4.79127
3.26234
2.92725
2.63534
40.3033
45.1699
77.4584
93.8723
113.029
107.028
100.608
93.9887
91.5888
91.0142
92.7661
91.8975
89.1766
86.8157
91.0799
101.492
118.951
140.651
159.026
171.04
172.387
163.828
151.874
140.466
136.887
140.492
146.24
145.011
139.559
126.649
43.7508
4.69391
3.18499
2.85094
2.57167
37.4893
44.3998
79.9907
98.4413
119.258
114.88
108.75
102.514
99.942
99.2168
100.688
98.7362
94.2405
90.0105
93.1145
104.201
123.886
145.921
160.857
167.572
164.034
152.468
139.654
129.145
126.477
129.82
133.683
130.476
127.209
112.412
40.4377
4.55325
3.10489
2.77269
2.50645
34.8769
43.8897
82.2621
103.092
125.44
122.661
116.985
111.314
108.696
107.856
109.248
106.716
101.017
95.1633
97.1152
109.01
130.573
151.592
161.659
162.528
154.516
140.816
127.972
118.906
117.443
120.393
121.899
116.682
114.692
98.7487
35.9117
4.37698
3.02245
2.69284
2.43996
32.4767
43.6203
84.4617
107.752
131.486
130.22
125.182
120.282
117.838
117.05
118.718
116.3
110.112
102.923
103.505
116.111
138.954
157.452
161.358
156.104
144.257
129.33
117.104
109.685
109.397
111.77
110.869
104.133
102.877
85.9487
30.8961
4.17613
2.93809
2.61173
2.37247
30.2708
43.5284
86.6475
112.331
137.303
137.417
133.201
129.281
127.301
126.83
129.195
127.695
121.881
113.917
112.851
125.82
149.029
163.379
160.031
148.654
133.742
118.406
107.235
101.424
102.053
103.614
100.52
92.9349
92.0331
74.107
25.9842
3.96231
2.85228
2.52969
2.30424
28.2673
43.5589
88.8115
116.725
142.798
144.137
140.909
138.165
136.981
137.154
140.644
140.893
136.431
128.685
125.879
138.597
160.88
169.351
157.914
140.625
123.429
108.329
98.4345
94.0381
95.2075
95.7275
90.8254
83.0198
82.1334
63.272
21.543
3.74557
2.76548
2.44705
2.23555
26.4614
43.7255
90.9217
120.831
147.896
150.299
148.196
146.805
146.758
147.945
152.976
155.787
153.706
147.582
143.46
155.074
174.609
175.347
155.267
132.475
113.693
99.2582
90.6776
87.4129
88.7154
88.0369
81.8092
74.2558
73.0436
53.4923
17.7335
3.53343
2.67811
2.36413
2.16664
24.8623
44.1377
92.949
124.566
152.54
155.86
154.989
155.11
156.538
159.135
166.142
172.308
173.665
170.745
166.376
175.876
190.224
181.28
152.354
124.608
104.789
91.2399
83.8726
81.4213
82.483
80.5611
73.5113
66.4898
64.6304
44.8106
14.5763
3.33076
2.59059
2.28124
2.09774
23.4808
44.9682
94.874
127.881
156.707
160.822
161.264
163.042
166.273
170.712
180.181
190.542
196.473
198.316
195.147
201.421
207.46
186.891
149.303
117.309
96.8505
84.237
77.8945
75.937
76.4592
73.374
65.9616
59.5707
56.8059
37.2441
12.0161
3.14026
2.50328
2.19865
2.0291
22.3333
46.3906
96.6845
130.762
160.404
165.228
167.044
170.622
175.988
182.748
195.27
210.795
222.611
230.681
229.858
231.467
225.593
191.755
146.132
110.726
89.9017
78.1562
72.606
70.8495
70.6325
66.5681
59.1616
53.3593
49.5371
30.7693
9.96647
2.96296
2.41649
2.11664
1.9609
21.4546
48.5289
98.3699
133.223
163.663
169.144
172.393
177.927
185.782
195.423
211.754
233.65
252.95
268.582
270.274
264.854
243.32
195.268
142.704
104.865
83.8828
72.8739
67.8752
66.0718
65.0219
60.2277
53.0832
47.7368
42.8331
25.3221
8.33616
2.79885
2.3305
2.03546
1.89334
20.8892
51.4341
99.919
135.301
166.534
172.653
177.408
185.087
195.843
209.055
230.193
260.032
288.769
312.923
315.582
299.256
258.849
196.795
138.842
99.626
78.6792
68.2558
63.5846
61.5455
59.6673
54.412
47.6734
42.6075
36.7247
20.8051
7.04161
2.64725
2.24556
1.95532
1.8266
20.7351
55.0779
101.321
137.043
169.078
175.848
182.211
192.278
206.457
224.135
251.441
291.315
331.714
364.277
363.86
331.355
270.202
195.784
134.343
94.8419
74.1457
64.1697
59.637
57.2381
54.6155
49.1492
42.8643
37.9007
31.2418
17.1029
6.01188
2.50715
2.16187
1.87642
1.76082
21.1259
59.3555
102.569
138.504
171.364
178.825
186.945
199.739
218.039
241.407
276.785
329.442
383.544
421.799
411.089
357.051
275.7
191.949
129.104
90.3302
70.129
60.4949
55.9568
53.1402
49.9101
44.4373
38.5823
33.568
26.3984
14.0941
5.18924
2.37742
2.07961
1.79895
1.69614
22.2957
64.0973
103.662
139.737
173.464
181.686
191.783
207.781
231.183
261.979
308.139
377.022
445.279
481.54
450.812
372.327
274.367
185.297
123.092
85.9274
66.4819
57.1271
52.49
49.2567
45.5821
40.2513
34.7555
29.5803
22.186
11.6626
4.52792
2.25692
1.99893
1.72305
1.63269
24.5223
69.0926
104.609
140.796
175.453
184.545
196.94
216.827
246.756
287.525
348.312
437.044
515.112
534.833
475.119
374.332
266.173
176.144
116.386
81.5185
63.0764
53.9806
49.2007
45.6005
41.6463
36.5495
31.3186
25.922
18.5732
9.70313
3.99217
2.1446
1.91996
1.64887
1.57057
28.1637
74.1214
105.423
141.729
177.415
187.536
202.692
227.472
266.041
320.569
401.161
511.331
584.908
569.116
477.839
362.628
251.992
164.977
109.105
77.0369
59.8102
50.9899
46.068
42.1839
38.1007
33.2823
28.2156
22.5856
15.5116
8.12488
3.5543
2.0395
1.84282
1.57653
1.50987
33.4954
78.9866
106.119
142.58
179.443
190.825
209.422
240.589
291
364.853
470.923
595.947
637.916
573.183
457.826
339.327
233.323
152.393
101.417
72.4624
56.6112
48.1085
43.0807
39.015
34.9288
30.397
25.4007
19.5664
12.9422
6.85162
3.19296
1.94079
1.76761
1.50613
1.45068
40.701
83.5393
106.714
143.395
181.652
194.64
217.683
257.506
324.661
425.42
558.479
673.563
654.152
544.288
419.839
308.301
211.88
138.975
93.485
67.8076
53.4372
45.3072
40.2337
36.0933
32.1034
27.8425
22.8379
16.859
10.8019
5.82096
2.89168
1.84776
1.69442
1.43778
1.39306
49.6321
87.6933
107.221
144.22
184.197
199.313
228.324
280.342
371.659
506.879
651.338
712.956
624.065
490.166
371.786
273.625
189.24
125.262
85.4883
63.1111
50.2727
42.5718
37.5243
33.4105
29.5902
25.5715
20.4994
14.4546
9.02831
4.98267
2.63776
1.75982
1.62333
1.37156
1.33709
59.8743
91.4267
107.655
145.113
187.299
205.363
242.729
312.602
438.289
605.296
714.075
690.241
556.653
423.932
321.206
238.582
166.636
111.695
77.5879
58.4279
47.1228
39.8996
34.9504
30.9508
27.3518
23.5421
18.3647
12.3402
7.56362
4.29676
2.42135
1.67649
1.55444
1.30756
1.28282
70.5911
94.7672
108.028
146.158
191.315
213.673
263.311
360.101
528.838
691.162
707.67
612.523
472.012
357.169
273.101
205.229
144.921
98.6304
69.9433
53.8254
44.0074
37.2967
32.5103
28.694
25.35
21.7176
16.4183
10.4986
6.35607
3.73167
2.2348
1.59739
1.4878
1.24585
1.23031
80.9187
97.7711
108.357
147.481
196.855
225.864
294.512
431.121
628.65
711.204
630.542
509.511
388.138
296.672
229.938
174.648
124.629
86.3292
62.6887
49.3752
40.9556
34.7751
30.2029
26.6177
23.5481
20.0664
14.648
8.90913
5.36081
3.26257
2.07211
1.52219
1.42351
1.18651
1.17963
89.3733
100.508
108.663
149.304
205.081
245.165
344.459
527.653
679.965
642.092
517.648
408.328
314.613
244.882
192.428
147.252
106.059
74.9763
55.9404
45.1477
38.001
32.3512
28.0295
24.7015
21.9124
18.5616
13.0437
7.54887
4.53985
2.87
1.92857
1.45066
1.36163
1.12961
1.13082
95.1437
103.063
108.982
152.043
218.424
278.36
423.522
606.91
625.363
518.093
404.598
322.126
253.899
201.731
160.431
123.143
89.3675
64.6849
49.7771
41.2024
35.177
30.0431
25.9944
22.9288
20.4133
17.1798
11.5958
6.39369
3.86155
2.53871
1.80044
1.38259
1.30223
1.07519
1.08391
0.00337778
0.00250489
0.00227721
0.0021653
0.00212438
0.0021276
0.00215939
0.00462744
0.0993118
0.248196
0.436795
0.697947
1.02912
1.4425
1.90822
2.52829
3.57569
5.75581
12.7225
31.1691
206.797
160.147
0.00334434
0.0022423
0.00184205
0.00160589
0.00148445
0.00144618
0.00147789
0.0046713
0.100082
0.250416
0.440712
0.702841
1.03465
1.44907
1.91588
2.53758
3.58787
5.77238
12.7565
31.2217
207.757
170.274
0.00354041
0.00237569
0.001882
0.00154429
0.00132235
0.00119134
0.00116049
0.00470067
0.100588
0.252036
0.443759
0.706442
1.03836
1.45321
1.92055
2.5433
3.59587
5.7844
12.7839
31.2757
207.868
179.944
0.00367075
0.00251728
0.0020037
0.00162957
0.00135777
0.00116636
0.0010319
0.00471968
0.100867
0.253093
0.445928
0.708722
1.04023
1.45486
1.92216
2.54537
3.59955
5.79165
12.8029
31.3315
207.194
189.022
0.00392254
0.00276382
0.00222626
0.00182196
0.00151407
0.00127984
0.000999005
0.00473064
0.10094
0.253611
0.44721
0.709661
1.04021
1.45401
1.92067
2.54373
3.5988
5.7939
12.8119
31.3897
205.78
197.972
0.00406017
0.00292959
0.0023983
0.00199184
0.00167497
0.00142501
0.000988276
0.00473485
0.10082
0.253605
0.447598
0.709249
1.03831
1.45064
1.91607
2.53834
3.59352
5.79096
12.8093
31.4503
203.657
206.962
0.00434045
0.00320788
0.00265936
0.00223327
0.00189588
0.00162454
0.0010576
0.00473298
0.100516
0.253088
0.447092
0.707484
1.03451
1.44478
1.90838
2.5292
3.58365
5.78265
12.7937
31.5131
200.866
215.992
0.00447854
0.00337915
0.00284371
0.00242323
0.00208628
0.00181124
0.00118442
0.00472512
0.100031
0.252068
0.445703
0.70438
1.02885
1.43644
1.89762
2.51631
3.56912
5.7688
12.7637
31.5773
197.453
225.001
0.00478402
0.00368455
0.00313448
0.00269676
0.00234191
0.00204898
0.00130917
0.00471091
0.0993705
0.250558
0.443448
0.699961
1.02136
1.42569
1.88385
2.49969
3.54989
5.74926
12.7182
31.6413
193.477
233.919
0.00490867
0.00384876
0.00331933
0.00289444
0.00254672
0.00225634
0.00139941
0.00468971
0.0985356
0.24857
0.440355
0.694265
1.0121
1.41258
1.86715
2.47939
3.52593
5.72388
12.6564
31.703
188.996
242.661
0.00522938
0.00417117
0.00362992
0.00319034
0.00282704
0.00252101
0.00151332
0.00466076
0.0975281
0.246118
0.436459
0.687343
1.00114
1.39722
1.84762
2.4555
3.49721
5.69253
12.5775
31.7589
184.077
251.118
0.00533928
0.00432462
0.00380971
0.00338886
0.00303845
0.00274051
0.00163267
0.00462295
0.0963478
0.243219
0.431803
0.679258
0.988582
1.37971
1.82539
2.42812
3.46374
5.65507
12.4809
31.8049
178.786
259.156
0.00567208
0.00466085
0.00413663
0.00370326
0.00333909
0.00302719
0.001837
0.00457496
0.0949928
0.239891
0.426431
0.670083
0.974515
1.36016
1.8006
2.39737
3.42554
5.61136
12.3663
31.8357
173.191
266.627
0.00575625
0.00479283
0.004301
0.00389273
0.00354775
0.00325003
0.0021146
0.00451475
0.0934575
0.236149
0.420395
0.6599
0.959056
1.33872
1.77341
2.36341
3.38265
5.56125
12.2334
31.8448
167.36
273.379
0.00609207
0.00513325
0.00463423
0.00421548
0.00385868
0.00354894
0.00251928
0.00443991
0.0917316
0.232009
0.413741
0.648797
0.942326
1.31553
1.74398
2.32642
3.33517
5.50459
12.0821
31.8249
161.357
279.262
0.00615218
0.0052429
0.00478002
0.00439083
0.00405799
0.00376737
0.00298541
0.0043464
0.0897972
0.227481
0.406518
0.636868
0.924451
1.29074
1.71251
2.28661
3.28322
5.44122
11.9125
31.7679
155.242
284.145
0.00648673
0.00558303
0.00511473
0.00471667
0.00437344
0.00407217
0.00349795
0.00422958
0.0876254
0.222564
0.398765
0.624206
0.905565
1.26452
1.67919
2.24419
3.22695
5.37098
11.7248
31.6648
149.069
287.917
0.00651837
0.00566541
0.00523637
0.00487174
0.00455674
0.00427906
0.00389396
0.00408141
0.0851725
0.217249
0.390515
0.610907
0.885804
1.23702
1.64422
2.19941
3.16657
5.29373
11.5193
31.5064
142.887
290.495
0.00683898
0.0059924
0.00555975
0.00518809
0.00486453
0.00457803
0.00427071
0.00390017
0.0823731
0.211507
0.381787
0.597058
0.865302
1.20843
1.60779
2.1525
3.10232
5.20934
11.2966
31.2834
136.737
291.82
0.00685352
0.00605571
0.00566219
0.00532479
0.00503099
0.00477012
0.00452549
0.00369634
0.0791331
0.205282
0.372585
0.582739
0.844196
1.17889
1.5701
2.10373
3.03449
5.11768
11.0572
30.9865
130.653
291.858
0.00716007
0.00636937
0.00597374
0.00563072
0.00532958
0.00506095
0.00482091
0.00354551
0.0753195
0.198486
0.362883
0.568015
0.822617
1.14859
1.53136
2.05335
2.96337
5.01869
10.8019
30.6074
124.662
290.597
0.00715666
0.00641248
0.00605544
0.00574707
0.00547675
0.00523531
0.00502099
0.00363737
0.0707519
0.190979
0.352623
0.552926
0.800689
1.11768
1.49176
2.00163
2.88932
4.91237
10.5317
30.1386
118.784
288.04
0.00744654
0.00670964
0.00635141
0.00603838
0.00576165
0.00551329
0.00529052
0.00407052
0.0651975
0.182561
0.341697
0.537481
0.77852
1.08631
1.45148
1.9488
2.81269
4.79876
10.2475
29.5743
113.036
284.203
0.00743059
0.00673699
0.00641563
0.00613639
0.0058903
0.00566944
0.00546922
0.00464931
0.0583838
0.172948
0.329931
0.521641
0.756195
1.05466
1.41071
1.89512
2.73386
4.67799
9.95042
28.9106
107.425
279.109
0.00770415
0.00701777
0.00669584
0.00641262
0.0061607
0.00593341
0.00572574
0.00523786
0.0500715
0.161756
0.31706
0.5053
0.733763
1.02285
1.36962
1.84083
2.65323
4.55029
9.64163
28.146
101.957
272.791
0.00767675
0.00703038
0.00674333
0.00649266
0.00627077
0.00607087
0.00588721
0.00561663
0.0402479
0.148499
0.302701
0.488261
0.71122
0.991029
1.32838
1.78616
2.5712
4.41599
9.32224
27.2815
96.6315
265.292
0.00793329
0.00729376
0.00700641
0.00675215
0.00652483
0.0063188
0.006129
0.00592404
0.0294901
0.132637
0.286318
0.470199
0.688478
0.959277
1.28714
1.73132
2.4882
4.27555
8.99339
26.321
91.4466
256.66
0.00789954
0.00729636
0.00704129
0.00681762
0.00661891
0.00643935
0.00627355
0.00611038
0.0192457
0.113735
0.267192
0.450622
0.665334
0.92764
1.24604
1.67653
2.40465
4.12955
8.65621
25.2714
86.3949
246.96
0.00814117
0.00754433
0.00728904
0.00706196
0.00685801
0.00667241
0.00650073
0.00633715
0.0115814
0.0918426
0.244415
0.428815
0.641416
0.896069
1.20519
1.62199
2.32099
3.97871
8.31177
24.1421
81.4677
236.269
0.00810336
0.00753936
0.00731375
0.00711522
0.0069383
0.00677799
0.00662958
0.00648798
0.00764477
0.0680921
0.216986
0.403779
0.616132
0.864376
1.16464
1.56787
2.23767
3.82393
7.96112
22.9453
76.6527
224.684
0.00833023
0.00777199
0.00754615
0.00734434
0.00716234
0.00699612
0.00684192
0.00669587
0.00658234
0.0450985
0.184134
0.374178
0.58859
0.832162
1.12433
1.51431
2.15514
3.66627
7.60539
21.6949
71.9371
212.319
0.00829266
0.00776376
0.0075648
0.00738917
0.00723222
0.00708966
0.00695743
0.00683146
0.00659782
0.0263181
0.146051
0.338364
0.557508
0.798744
1.08406
1.46137
2.07383
3.50698
7.24578
20.4066
67.3062
199.309
0.00850601
0.00798235
0.00778313
0.00760438
0.00744255
0.00729424
0.00715625
0.00702551
0.00684533
0.0143563
0.105044
0.294647
0.521105
0.763051
1.04337
1.409
1.99415
3.34746
6.88374
19.0967
62.7474
185.806
0.00847102
0.00797344
0.00779841
0.00764345
0.00750463
0.00737825
0.00726077
0.00714875
0.00702178
0.00884683
0.066253
0.242152
0.477033
0.723507
1.00144
1.35695
1.91639
3.18928
6.52107
17.782
58.2503
171.978
0.00867166
0.00817881
0.0080035
0.0078456
0.00770213
0.00757022
0.00744712
0.00733024
0.00721151
0.00716995
0.0361044
0.182519
0.422563
0.677881
0.95699
1.30467
1.84066
3.03404
6.16
16.479
53.8117
158.003
0.00864159
0.00817176
0.00801802
0.00788155
0.00775898
0.00764714
0.00754295
0.00744341
0.00734368
0.00696834
0.0181459
0.121795
0.355456
0.623157
0.908127
1.25125
1.76681
2.88325
5.8033
15.2033
49.4361
144.063
0.00883161
0.00836603
0.00821194
0.00807264
0.00794561
0.00782843
0.00771873
0.00761428
0.00751191
0.00720768
0.0103999
0.0699194
0.276214
0.555667
0.852129
1.19521
1.69429
2.73817
5.45412
13.9699
45.1399
130.336
0.00880915
0.0083638
0.00822882
0.00810865
0.00800044
0.00790142
0.00780894
0.00772034
0.00763259
0.00745517