/*--------------------------------*- C++ -*----------------------------------*\
| =========                 |                                                 |
| \\      /  F ield         | OpenFOAM: The Open Source CFD Toolbox           |
|  \\    /   O peration     | Version:  v1912                                 |
|   \\  /    A nd           | Website:  www.openfoam.com                      |
|    \\/     M anipulation  |                                                 |
\*---------------------------------------------------------------------------*/
FoamFile
{
    version     2.0;
    format      ascii;
    class       volScalarField;
    location    "370";
    object      nut;
}
// * * * * * * * * * * * * * * * * * * * * * * * * * * * * * * * * * * * * * //

dimensions      [0 2 -1 0 0 0 0];


internalField   nonuniform List<scalar> 
12441
(
5.82192e-24
1.79051e-20
8.10485e-20
3.32538e-19
1.06829e-18
3.88831e-18
1.01056e-17
2.50051e-17
6.1384e-17
1.27532e-16
3.05662e-16
7.71521e-16
2.17837e-15
7.39791e-15
1.03581e-13
1.89223e-11
0.000194738
0.000949927
0.00305352
0.00263271
0.0036465
0.00775321
6.34193e-24
3.03346e-20
1.1173e-19
4.23942e-19
1.30208e-18
4.80728e-18
1.21985e-17
3.00102e-17
7.36097e-17
1.54456e-16
3.79809e-16
1.02928e-15
2.82448e-15
9.36884e-15
1.12996e-13
3.89481e-11
5.78738e-05
0.00115215
0.00349676
0.00286637
0.00400895
0.00781733
6.36469e-24
3.5895e-20
1.20777e-19
4.48124e-19
1.37772e-18
4.90669e-18
1.29289e-17
3.2041e-17
8.05138e-17
1.71774e-16
4.17895e-16
1.11754e-15
2.78087e-15
7.65918e-15
5.34825e-14
6.5633e-12
1.11057e-05
0.000845639
0.00139466
0.00270438
0.00416205
0.0078909
6.31915e-24
3.76912e-20
1.18532e-19
4.29302e-19
1.32533e-18
4.7135e-18
1.25133e-17
3.13267e-17
7.84936e-17
1.73676e-16
4.23764e-16
1.15407e-15
2.6069e-15
8.46865e-15
3.84789e-14
1.54089e-12
1.6246e-06
0.000590015
0.00104043
0.0026277
0.00432477
0.0079647
6.28512e-24
4.38824e-20
1.29777e-19
4.58306e-19
1.40266e-18
4.77926e-18
1.30907e-17
3.27944e-17
8.42965e-17
1.87526e-16
4.54171e-16
1.28474e-15
3.01454e-15
4.06887e-14
2.47034e-13
2.2941e-12
1.3952e-07
0.000416791
0.00102164
0.00261516
0.00446521
0.00803394
6.23494e-24
4.12874e-20
1.20537e-19
4.2918e-19
1.34269e-18
4.62199e-18
1.27502e-17
3.23926e-17
8.28927e-17
1.92688e-16
4.76953e-16
1.44564e-15
4.5265e-15
1.3281e-12
1.18897e-11
5.09616e-11
4.58196e-07
0.000383746
0.00108906
0.0026721
0.00459169
0.00809948
6.20005e-24
5.02631e-20
1.37793e-19
4.75759e-19
1.46011e-18
4.79236e-18
1.35929e-17
3.4453e-17
9.07007e-17
2.11125e-16
5.2085e-16
2.0002e-15
2.4986e-14
4.14237e-11
6.5743e-10
9.36156e-09
1.87405e-05
0.000403699
0.00127675
0.00285621
0.0047369
0.00816218
6.15026e-24
4.34515e-20
1.23169e-19
4.40148e-19
1.40813e-18
4.72269e-18
1.3512e-17
3.48442e-17
9.13176e-17
2.23849e-16
5.72518e-16
5.4363e-15
6.08943e-13
2.25157e-09
8.40999e-08
4.97489e-06
0.000195872
0.000465856
0.00173025
0.00323144
0.00492661
0.00822577
6.11748e-24
5.57034e-20
1.46128e-19
4.99666e-19
1.55408e-18
4.95853e-18
1.46115e-17
3.75698e-17
1.02072e-16
2.50946e-16
6.45356e-16
6.13535e-14
2.58662e-11
7.41695e-08
1.04329e-05
0.00015498
0.000808888
0.000835792
0.00266972
0.00387092
0.00519299
0.00829204
6.07062e-24
4.4349e-20
1.25433e-19
4.56621e-19
1.5075e-18
4.95351e-18
1.47471e-17
3.87245e-17
1.04876e-16
2.75121e-16
7.4863e-16
1.68207e-12
1.08197e-09
4.43339e-06
0.000192544
0.000626215
0.00174091
0.00159734
0.00440433
0.0048526
0.00554928
0.00836448
6.04146e-24
6.02593e-20
1.53431e-19
5.25895e-19
1.67267e-18
5.20581e-18
1.60247e-17
4.20336e-17
1.19291e-16
3.1737e-16
8.92086e-16
5.23114e-11
5.49984e-08
8.23076e-05
0.000735774
0.00177351
0.00388979
0.00322657
0.0073952
0.00627751
0.00600867
0.00844366
5.99604e-24
4.46283e-20
1.27734e-19
4.76932e-19
1.63365e-18
5.28082e-18
1.64019e-17
4.4064e-17
1.25497e-16
3.6463e-16
1.15862e-15
1.45677e-09
3.24565e-06
0.000351579
0.00165027
0.00407806
0.00829154
0.00654927
0.0121175
0.00819143
0.00656023
0.00853143
5.97044e-24
6.41486e-20
1.60447e-19
5.53797e-19
1.81491e-18
5.54177e-18
1.7908e-17
4.82207e-17
1.467e-16
4.44725e-16
1.69457e-15
3.52183e-08
7.28902e-05
0.00112108
0.00417345
0.00923082
0.0167904
0.0127051
0.0187434
0.0105772
0.00719492
0.00862633
5.92646e-24
4.43248e-20
1.29668e-19
4.99303e-19
1.78315e-18
5.69177e-18
1.8532e-17
5.13826e-17
1.59848e-16
5.59153e-16
3.60139e-15
7.96593e-07
0.000352084
0.00297001
0.00946892
0.0187765
0.031029
0.0226653
0.0269604
0.0133097
0.00788081
0.00872852
5.9041e-24
6.75149e-20
1.66652e-19
5.82609e-19
1.97794e-18
5.93996e-18
2.02686e-17
5.6781e-17
1.9605e-16
7.78705e-16
1.65171e-14
1.52031e-05
0.00117015
0.00716041
0.0191548
0.0340397
0.0517368
0.0365481
0.0359658
0.0162318
0.00859804
0.00883515
5.8604e-24
4.39584e-20
1.31995e-19
5.24795e-19
1.95775e-18
6.18539e-18
2.12017e-17
6.16776e-17
2.28162e-16
1.21627e-15
3.02161e-13
0.000138368
0.00297793
0.0149898
0.0344741
0.0554466
0.0781246
0.0531448
0.0447732
0.0191444
0.00931025
0.00894576
5.84133e-24
7.05397e-20
1.73502e-19
6.1511e-19
2.17055e-18
6.43938e-18
2.33101e-17
6.93765e-17
3.08225e-16
2.30493e-15
1.26024e-11
0.00053425
0.00693345
0.0275909
0.0554726
0.0822778
0.107605
0.0701409
0.052513
0.021909
0.0100029
0.00905718
5.79735e-24
4.35018e-20
1.34491e-19
5.53129e-19
2.16062e-18
6.77146e-18
2.46179e-17
7.72283e-17
4.08458e-16
5.44561e-15
5.47986e-10
0.00139684
0.0141197
0.0454924
0.0815867
0.112432
0.13621
0.0849413
0.0587408
0.0244028
0.0106489
0.00916919
5.78102e-24
7.32635e-20
1.80286e-19
6.49125e-19
2.38797e-18
7.01153e-18
2.71822e-17
8.90693e-17
6.61714e-16
1.6923e-14
4.4085e-08
0.00346852
0.0255996
0.0679271
0.110713
0.142812
0.159694
0.0957714
0.0634087
0.0265937
0.0112479
0.00927899
5.73647e-24
4.3053e-20
1.3687e-19
5.824e-19
2.38685e-18
7.43807e-18
2.90071e-17
1.02315e-16
1.08041e-15
7.52714e-14
8.55672e-06
0.00749344
0.041593
0.0937563
0.140586
0.169834
0.174865
0.102235
0.0668094
0.0284517
0.0117861
0.00938714
5.72342e-24
7.57295e-20
1.86802e-19
6.83176e-19
2.62924e-18
7.67297e-18
3.23039e-17
1.22244e-16
2.19373e-15
7.80191e-13
0.000168624
0.0145491
0.0614642
0.120899
0.168021
0.190506
0.180649
0.105232
0.0693141
0.0300136
0.0122766
0.00949146
5.67805e-24
4.24343e-20
1.38572e-19
6.10925e-19
2.63511e-18
8.19324e-18
3.49397e-17
1.46462e-16
4.3401e-15
1.34058e-11
0.000670169
0.0252914
0.0839246
0.14764
0.19077
0.203059
0.178276
0.106214
0.0712918
0.0312922
0.012717
0.00959327
5.6677e-24
7.8023e-20
1.9247e-19
7.15483e-19
2.88987e-18
8.41828e-18
3.94331e-17
1.83581e-16
1.02756e-14
1.66101e-10
0.00180212
0.0397056
0.107423
0.171852
0.206811
0.207492
0.170586
0.106485
0.0729754
0.0323491
0.0131317
0.00969106
5.62178e-24
4.19645e-20
1.39792e-19
6.38004e-19
2.9026e-18
9.03759e-18
4.35011e-17
2.3149e-16
2.242e-14
1.55801e-09
0.00422042
0.0572048
0.130481
0.192263
0.21591
0.205225
0.160765
0.106778
0.0745183
0.0332146
0.013528
0.00978684
5.61496e-24
8.02759e-20
1.97579e-19
7.4582e-19
3.17121e-18
9.26739e-18
5.02646e-17
3.06426e-16
5.64398e-14
1.37799e-08
0.00861123
0.076604
0.151886
0.207731
0.218517
0.198592
0.151274
0.107323
0.0759708
0.033965
0.0139388
0.00987966
5.56725e-24
4.17924e-20
1.40764e-19
6.63873e-19
3.19204e-18
9.9925e-18
5.71525e-17
4.08457e-16
1.30479e-13
3.18935e-07
0.0155596
0.0967626
0.170737
0.218225
0.216336
0.189929
0.143395
0.108046
0.0773577
0.0346455
0.0143779
0.00997203
5.56293e-24
8.24849e-20
2.02099e-19
7.74024e-19
3.47292e-18
1.02324e-17
6.8461e-17
5.73358e-16
3.92537e-13
1.87298e-05
0.0251092
0.116506
0.186477
0.22396
0.210953
0.181087
0.137422
0.108795
0.07866
0.0353388
0.0148819
0.0100634
5.51408e-24
4.18601e-20
1.41223e-19
6.8753e-19
3.50156e-18
1.1069e-17
8.13293e-17
8.10389e-16
1.82992e-12
0.000212708
0.0369845
0.135055
0.198863
0.22592
0.204133
0.173136
0.133099
0.109427
0.0798654
0.0360872
0.0154633
0.0101564
5.51314e-24
8.46768e-20
2.058e-19
7.99228e-19
3.7963e-18
1.13444e-17
1.02515e-16
1.2044e-15
1.28014e-11
0.000719179
0.0504914
0.151774
0.207957
0.224966
0.196939
0.166522
0.130003
0.109866
0.0809413
0.0369542
0.0161523
0.0102507
5.46202e-24
4.20352e-20
1.40968e-19
7.08424e-19
3.83366e-18
1.23048e-17
1.28829e-16
1.79575e-15
7.40909e-11
0.00147575
0.0650216
0.166347
0.214041
0.222194
0.190213
0.161249
0.127742
0.110076
0.0818695
0.0379516
0.0169489
0.0103488
5.46311e-24
8.68081e-20
2.08981e-19
8.21816e-19
4.14327e-18
1.26534e-17
1.72481e-16
2.80961e-15
3.564e-10
0.00262874
0.0798832
0.178562
0.217556
0.218305
0.184212
0.157136
0.126025
0.110061
0.0826192
0.0391019
0.0178662
0.01045
5.41094e-24
4.22474e-20
1.39902e-19
7.2662e-19
4.19091e-18
1.37417e-17
2.30137e-16
4.38964e-15
1.38685e-09
0.00434438
0.0946055
0.188438
0.218997
0.213992
0.179109
0.153937
0.124657
0.109841
0.0831745
0.0403758
0.0188834
0.0105565
5.41513e-24
8.89199e-20
2.11418e-19
8.424e-19
4.52274e-18
1.41936e-17
3.26407e-16
7.08367e-15
4.74632e-09
0.00685064
0.108708
0.196054
0.218866
0.20957
0.174793
0.151431
0.123521
0.109451
0.0835096
0.0417598
0.0199925
0.010667
5.35949e-24
4.22799e-20
1.37812e-19
7.42891e-19
4.58502e-18
1.5454e-17
4.58265e-16
1.12959e-14
1.44514e-08
0.0103681
0.121944
0.201644
0.217607
0.205354
0.171212
0.14943
0.122548
0.10892
0.0836128
0.043202
0.0211528
0.0107831
5.36562e-24
8.84595e-20
2.10343e-19
8.57255e-19
4.93671e-18
1.60484e-17
6.78e-16
1.85075e-14
4.28023e-08
0.0151208
0.134107
0.205448
0.215598
0.201405
0.168197
0.147803
0.121708
0.108285
0.083464
0.0446821
0.0223436
0.0109032
5.30594e-24
4.14872e-20
1.32579e-19
7.51637e-19
5.01023e-18
1.74631e-17
9.80501e-16
2.9919e-14
2.19707e-07
0.0214079
0.145217
0.207788
0.213138
0.197842
0.16568
0.146451
0.120987
0.107577
0.0830575
0.0461593
0.0235167
0.0110282
5.31245e-24
8.52654e-20
2.0383e-19
8.62088e-19
5.38123e-18
1.81872e-17
1.47475e-15
5.74602e-14
1.14836e-05
0.0296276
0.15532
0.208941
0.210454
0.194625
0.16353
0.145312
0.120388
0.106829
0.0823818
0.0476407
0.0246535
0.0111563
5.246e-24
4.16162e-20
1.27328e-19
7.57715e-19
5.48279e-18
1.98576e-17
2.14242e-15
4.65042e-13
0.000221955
0.0404144
0.164615
0.209216
0.207711
0.191811
0.161715
0.144345
0.119918
0.106071
0.0814414
0.0491229
0.0257164
0.0112883
5.24941e-24
5.37914e-20
1.54726e-19
7.99508e-19
5.76902e-18
2.06397e-17
3.20165e-15
2.31295e-11
0.00174474
0.0545504
0.173241
0.208852
0.205024
0.189344
0.160149
0.143534
0.119595
0.105334
0.0802391
0.0506521
0.0267086
0.011422
5.1726e-24
4.32819e-20
1.14476e-19
7.24292e-19
5.94049e-18
2.35454e-17
4.66281e-15
1.03287e-09
0.00731983
0.0725543
0.181365
0.208097
0.202465
0.187279
0.158842
0.142871
0.119437
0.104645
0.0787983
0.0522526
0.0276219
0.0115584
5.16599e-24
1.93957e-21
1.12095e-20
4.00662e-19
5.44926e-18
2.44387e-17
7.20742e-15
1.84149e-07
0.0205084
0.094397
0.189003
0.207127
0.200071
0.185576
0.157742
0.142367
0.119464
0.10403
0.0771452
0.0539628
0.0284944
0.0116955
5.07783e-24
1.71171e-20
4.47746e-20
4.17393e-19
5.4624e-18
3.62084e-17
1.80065e-14
5.25456e-05
0.0443947
0.119669
0.196137
0.206126
0.197845
0.184313
0.156894
0.142036
0.119695
0.103502
0.0753322
0.0557263
0.0293402
0.0118345
5.03905e-24
6.7204e-22
8.45948e-23
2.35251e-19
5.06647e-18
8.28201e-17
3.70797e-13
0.001281
0.0810946
0.147658
0.202596
0.205218
0.195765
0.183453
0.156264
0.141913
0.120148
0.10307
0.0734177
0.0573728
0.0301595
0.011976
4.8383e-24
2.10332e-19
4.58157e-19
1.02958e-18
7.26082e-18
9.13598e-16
7.18243e-12
0.00828614
0.131485
0.177945
0.208521
0.204631
0.193805
0.183073
0.155897
0.142012
0.12082
0.102673
0.0714744
0.0584684
0.0306473
0.0121338
0.00987657
0.028584
0.0299713
0.0113879
0.00892135
0.00898319
0.00917478
0.0095487
0.00953611
0.0101326
0.0146841
0.0140654
0.0129582
0.0126317
0.013076
0.0143195
0.0157971
0.0168995
0.0165972
0.0142188
0.0125449
0.0123312
0.0124676
0.0126672
0.0129919
0.0134427
0.0141426
0.0151216
0.0149321
0.0118591
0.0391389
0.118236
0.132208
0.143307
0.161611
0.00986353
0.0290893
0.0291075
0.0110476
0.00880225
0.00886034
0.00924291
0.00964671
0.00955587
0.0101432
0.014365
0.0136875
0.0126109
0.0122627
0.0127129
0.0140287
0.01569
0.0169985
0.0167699
0.0141925
0.0123306
0.0120831
0.0122416
0.0124599
0.0127903
0.0132324
0.013918
0.0149033
0.0147288
0.0118088
0.0384645
0.11801
0.132135
0.143237
0.161558
0.00983842
0.0295485
0.027603
0.010461
0.0087049
0.00872268
0.00943258
0.00986087
0.00963559
0.0101919
0.0132753
0.0124681
0.011615
0.0112209
0.0113452
0.0122552
0.0136857
0.0150445
0.0152598
0.0132144
0.0116411
0.0114952
0.0117388
0.0120185
0.0123751
0.0128098
0.0134724
0.0144647
0.0143199
0.0118396
0.0379059
0.117511
0.131937
0.143041
0.161397
0.00979929
0.029953
0.0256812
0.00988603
0.00868348
0.00865872
0.00971355
0.0100782
0.00975707
0.0102944
0.0120872
0.0111139
0.0104586
0.0101255
0.00998888
0.0103703
0.011281
0.0123954
0.0129433
0.0116639
0.010579
0.0105919
0.010958
0.0113377
0.011748
0.012185
0.0128191
0.0138148
0.0137184
0.0118242
0.0372627
0.116725
0.131612
0.142718
0.161128
0.00974597
0.0301859
0.0234769
0.00931453
0.00864808
0.00859627
0.00996307
0.010199
0.00982776
0.0103509
0.0110601
0.0099425
0.00947124
0.00928195
0.00899079
0.00889553
0.00921403
0.00988455
0.0104948
0.00987234
0.00926412
0.00942397
0.00991586
0.0104227
0.0109188
0.0113772
0.0119831
0.0129738
0.0129452
0.011665
0.0363752
0.115645
0.131171
0.142281
0.160765
0.00967615
0.030145
0.0211005
0.00869556
0.00853256
0.00846737
0.0100833
0.0101661
0.00977239
0.0102568
0.0101726
0.00896934
0.00865653
0.00860648
0.00825724
0.007828
0.00764767
0.00784304
0.00829917
0.00808564
0.00782565
0.00807294
0.00865616
0.00929403
0.009905
0.0104121
0.0109977
0.0119718
0.0120289
0.0112946
0.0351283
0.114269
0.130636
0.141755
0.160329
0.00959042
0.0297625
0.018667
0.00802472
0.00833155
0.00825755
0.0100383
0.00997005
0.00956379
0.00996514
0.00933535
0.00810081
0.00789041
0.00790781
0.00756762
0.00697048
0.0064619
0.00627388
0.00648782
0.0064511
0.00638613
0.00664671
0.00725599
0.00799512
0.00873477
0.00931989
0.0099008
0.0108466
0.0110033
0.0106788
0.0334571
0.112596
0.130034
0.141168
0.15985
0.00948687
0.0289866
0.0162914
0.00734185
0.00808121
0.00799177
0.00984476
0.00963661
0.00921658
0.00948779
0.00849142
0.00726604
0.00708786
0.00708437
0.00678212
0.00615107
0.00548279
0.00504776
0.00503801
0.0050347
0.00504881
0.00526487
0.00582437
0.00659965
0.0074521
0.00813626
0.00873313
0.00964123
0.00990623
0.00981942
0.0313518
0.110632
0.129393
0.140551
0.159358
0.00936733
0.027808
0.0140705
0.00670332
0.0078308
0.00771115
0.00954709
0.00920826
0.00876717
0.00887179
0.00763563
0.00644529
0.00624186
0.00615558
0.00589018
0.00530636
0.00460368
0.00404671
0.00388229
0.00385847
0.00389121
0.00403807
0.00448751
0.00521274
0.00612327
0.00690567
0.00753694
0.00840185
0.00877759
0.00875555
0.0288587
0.108385
0.128745
0.139939
0.158886
0.0092307
0.026234
0.0120751
0.00616046
0.00762596
0.0074577
0.00919925
0.00873333
0.00826121
0.00817747
0.00679226
0.00565128
0.00539033
0.00520158
0.00495928
0.00445848
0.00380083
0.00321815
0.00297551
0.00293123
0.00296447
0.00304798
0.00336173
0.00395816
0.0048395
0.00568541
0.00635721
0.00717557
0.00765735
0.00756049
0.0260753
0.105877
0.128123
0.139367
0.158468
0.00908003
0.0243128
0.0103475
0.0057509
0.00750259
0.00726767
0.00885355
0.00825822
0.00774347
0.00746415
0.00599511
0.00490783
0.00458053
0.00430857
0.00408051
0.00367133
0.00310303
0.00256259
0.00230463
0.00225751
0.00229154
0.00233373
0.00252334
0.00294884
0.00370786
0.00454762
0.00524342
0.00600963
0.00658414
0.00633265
0.0231388
0.103141
0.127558
0.138868
0.158138
0.00891508
0.0221053
0.00890815
0.00549777
0.00748757
0.00716973
0.00855659
0.00782507
0.00725517
0.00678355
0.00527578
0.00423853
0.00385252
0.00353739
0.00332872
0.00300865
0.00254898
0.00209091
0.00185821
0.00182214
0.00186005
0.00188459
0.00198726
0.00224953
0.00282507
0.00357275
0.00424967
0.00495066
0.00559415
0.00517982
0.0202079
0.100229
0.127081
0.138477
0.157927
0.00874002
0.0197075
0.0077609
0.00541264
0.00760162
0.00718578
0.00834731
0.00746941
0.00683129
0.00617711
0.0046589
0.00366304
0.00323412
0.00291945
0.00274696
0.00251049
0.00215788
0.0017914
0.00159853
0.00157808
0.00162161
0.00164651
0.00170723
0.00185321
0.00224122
0.00282992
0.00342936
0.00404292
0.00472047
0.0041986
0.0174411
0.0972217
0.126721
0.138223
0.157865
0.00855535
0.0172215
0.0069011
0.00549952
0.0078631
0.00733306
0.00825729
0.00721998
0.00650081
0.00567599
0.00416179
0.003197
0.00274065
0.0024608
0.00234268
0.00218177
0.0019173
0.00162478
0.00146605
0.00145972
0.00151088
0.00154787
0.00160497
0.00169459
0.00193957
0.00234968
0.00282195
0.0033232
0.00399181
0.00345375
0.0149758
0.094227
0.126505
0.138134
0.157979
0.00836592
0.0147687
0.00631924
0.00575927
0.00829148
0.00762777
0.00831174
0.00709859
0.00628577
0.00530141
0.00379542
0.00285002
0.0023771
0.00214899
0.00209528
0.00199787
0.00179144
0.00154121
0.00140244
0.00140781
0.00147004
0.00152659
0.00160588
0.0016913
0.00185563
0.00211123
0.00243712
0.00281208
0.0034299
0.00296516
0.0129106
0.0913839
0.126458
0.138234
0.158291
0.00817267
0.0124619
0.00600668
0.00619427
0.00891079
0.00808934
0.00853284
0.00712384
0.00620303
0.00506721
0.00356541
0.00262532
0.00213868
0.00195933
0.00196743
0.00191735
0.00173626
0.00149722
0.00136647
0.00138331
0.00146133
0.00154263
0.00165768
0.00177381
0.00191387
0.00205872
0.00225048
0.00250626
0.00304519
0.00271109
0.0112964
0.088855
0.126603
0.138547
0.158824
0.00798033
0.0104087
0.00596196
0.0068131
0.00975188
0.00874929
0.00894495
0.00731339
0.00626595
0.00498162
0.00347344
0.00252063
0.00201268
0.00186225
0.00191801
0.00189663
0.00171257
0.0014639
0.00133677
0.00136809
0.00146718
0.00157748
0.00173326
0.00189609
0.00205008
0.00212806
0.0022166
0.00238019
0.00283355
0.00264692
0.0101423
0.0868133
0.12696
0.13909
0.159594
0.00778933
0.00869533
0.00620057
0.00763809
0.0108558
0.00965366
0.00957993
0.00768939
0.00648831
0.00505099
0.00352027
0.0025301
0.0019822
0.00182951
0.00191038
0.00189857
0.00169243
0.00142708
0.00130672
0.00135788
0.00148353
0.0016269
0.00182414
0.00203497
0.00221959
0.00226424
0.0022871
0.0023971
0.00277737
0.00272631
0.0094363
0.0854235
0.127548
0.139881
0.160617
0.00760307
0.00737112
0.00676178
0.0087064
0.0122773
0.0108664
0.0104809
0.0082828
0.00688755
0.0052832
0.00370868
0.00264787
0.00203106
0.00183875
0.00191774
0.0018981
0.00166122
0.00138354
0.00127718
0.00135466
0.00151246
0.00169315
0.00193133
0.00218298
0.00239752
0.00242898
0.00242269
0.00252089
0.00285121
0.0029134
0.0091664
0.084821
0.128381
0.140932
0.161905
0.00742066
0.00643504
0.0077209
0.0100672
0.0140849
0.0124684
0.011703
0.00913607
0.00748809
0.00569138
0.00404748
0.00287185
0.00214824
0.00187557
0.00192411
0.00188236
0.00161545
0.00133616
0.00125149
0.00136155
0.00155741
0.00177975
0.00205816
0.00234003
0.00257387
0.00260158
0.00259804
0.00272278
0.00302827
0.00318642
0.00933209
0.0850919
0.129472
0.142255
0.163468
0.00724378
0.00584311
0.00919001
0.0117863
0.0163594
0.0145528
0.0133109
0.0103018
0.00832166
0.0062954
0.00455383
0.00320808
0.00233171
0.00193467
0.00192419
0.00184968
0.0015593
0.00129015
0.00123283
0.00138101
0.00162109
0.00188921
0.00220667
0.00250756
0.00274728
0.00277534
0.00280116
0.0029833
0.00328518
0.00353724
0.00994746
0.086261
0.130828
0.143859
0.165313
0.00707145
0.00554668
0.0113124
0.0139509
0.0191946
0.0172202
0.0153748
0.0118385
0.00942604
0.00712119
0.00525333
0.00367312
0.00259118
0.00202022
0.00192072
0.00180539
0.0015005
0.00125095
0.00122392
0.00141444
0.00170514
0.00202243
0.00237652
0.00268604
0.00292037
0.00295254
0.00302998
0.00329096
0.00360489
0.00396999
0.0110417
0.0882919
0.132455
0.145754
0.167447
0.00690537
0.00550858
0.0142553
0.0166839
0.0227056
0.0205811
0.0179705
0.0138056
0.0108406
0.0081958
0.00617349
0.00429263
0.00294861
0.00214669
0.00192295
0.00175906
0.00144763
0.00122342
0.00122702
0.00146262
0.0018101
0.00217878
0.00256539
0.00287457
0.00309722
0.00314012
0.00328822
0.00364004
0.00397803
0.00449971
0.0126584
0.0911009
0.134353
0.147943
0.169873
0.00674534
0.00571197
0.018192
0.0201639
0.0270429
0.0247653
0.0211824
0.0162598
0.0126013
0.00953973
0.0073317
0.00509156
0.0034324
0.00233866
0.00194434
0.00172097
0.00140822
0.00121193
0.00124473
0.00152579
0.00193542
0.0023562
0.00276975
0.00307176
0.00328248
0.0033469
0.00358204
0.00402843
0.00440341
0.00515123
0.0148526
0.0945758
0.136523
0.150434
0.172594
0.00659312
0.00615629
0.0232674
0.0246437
0.0324
0.0299242
0.0251021
0.0192489
0.0147317
0.0111561
0.00871913
0.00607715
0.00406193
0.00262687
0.00200292
0.00170151
0.00138863
0.00122063
0.00128016
0.00160413
0.00207951
0.0025516
0.0029858
0.00327662
0.00348122
0.00358191
0.00391785
0.00445638
0.00488801
0.00595841
0.0176862
0.0985953
0.138961
0.153228
0.17561
0.00644962
0.00685186
0.0295691
0.0304478
0.0389987
0.0362051
0.0298073
0.0227951
0.0172294
0.0130182
0.010288
0.00721996
0.00482545
0.00303241
0.00211888
0.00171027
0.00139413
0.00125382
0.00133764
0.00169804
0.00223984
0.00276118
0.00321023
0.00348944
0.00369907
0.00385359
0.00430106
0.00492602
0.00544674
0.00696346
0.0212206
0.103042
0.141664
0.156327
0.17892
0.00631698
0.00780501
0.0371068
0.0379394
0.0470418
0.0436868
0.0353124
0.0268619
0.0200426
0.015056
0.0119452
0.00844436
0.00566537
0.00354195
0.0023083
0.00175683
0.00142988
0.00131625
0.00142259
0.00180897
0.00241341
0.00298115
0.00344098
0.00371208
0.00394218
0.00416931
0.00473568
0.00544163
0.00610205
0.00821652
0.0255075
0.107812
0.144627
0.159733
0.182521
0.00619775
0.0090159
0.0458468
0.0474639
0.0566418
0.0522934
0.041505
0.0313151
0.023048
0.017147
0.0135554
0.00963222
0.0064823
0.00409202
0.00256653
0.00184796
0.00150108
0.00141337
0.00154185
0.00194011
0.00259763
0.00320841
0.00367754
0.00394805
0.00421707
0.00453512
0.00522433
0.00601019
0.00688366
0.00977496
0.03058
0.112817
0.147844
0.163445
0.186409
0.00609509
0.0104767
0.0557837
0.0592911
0.0677466
0.0617215
0.0480939
0.0358955
0.0260383
0.0191164
0.0149539
0.0106404
0.00715664
0.00458493
0.00285698
0.00198383
0.00161264
0.00155115
0.00170306
0.00209747
0.00279143
0.00344139
0.00392132
0.00420227
0.00453031
0.00495555
0.0057688
0.00664216
0.00782828
0.0117024
0.0364448
0.117988
0.151308
0.167459
0.190577
0.00601408
0.0121911
0.0670168
0.0735448
0.0800681
0.0714107
0.0545982
0.0402234
0.0287325
0.0207524
0.0159676
0.0113245
0.00757621
0.00492312
0.00311902
0.00215255
0.00176704
0.00173517
0.00191427
0.00228993
0.00299647
0.00368059
0.00417551
0.00448068
0.00488807
0.00543346
0.00637058
0.00735202
0.00897968
0.014067
0.0430769
0.123271
0.155013
0.171772
0.195017
0.00596079
0.014184
0.0797334
0.0900667
0.0930045
0.080558
0.0603825
0.0438337
0.0308067
0.0218334
0.0164403
0.0115665
0.00766291
0.00504313
0.00329847
0.00233357
0.00196228
0.00196865
0.00218176
0.00252905
0.00321804
0.00392903
0.00444495
0.00478967
0.00529566
0.00597008
0.00703177
0.00815898
0.0103887
0.0169388
0.050419
0.128628
0.158954
0.176382
0.199721
0.00594609
0.0165225
0.0941062
0.108197
0.105577
0.0881866
0.0647403
0.0462452
0.0319471
0.0221652
0.0162616
0.0112987
0.0073922
0.00493248
0.00337067
0.00250591
0.00219066
0.00224989
0.00250773
0.00282678
0.00346541
0.00419228
0.00473566
0.00513559
0.00575715
0.00656508
0.00775572
0.00908727
0.0121136
0.0203866
0.0583845
0.134032
0.163124
0.181283
0.204681
0.00598322
0.0193057
0.110062
0.12657
0.116456
0.0932845
0.0670161
0.0470475
0.0319093
0.0216224
0.0153936
0.0105238
0.00680317
0.00463306
0.00334839
0.00265901
0.00244095
0.00257064
0.00288679
0.00319247
0.00375137
0.00447832
0.00505447
0.0055241
0.00627487
0.00721681
0.00854768
0.0101667
0.0142201
0.0244741
0.0668651
0.139469
0.167518
0.186473
0.209888
0.00609167
0.022668
0.127049
0.143155
0.12416
0.0950177
0.0667532
0.0459977
0.0305803
0.0201846
0.01389
0.00932398
0.00599401
0.0042249
0.00326901
0.00279332
0.00270073
0.00291633
0.00330484
0.00362773
0.00409057
0.00479683
0.0054083
0.00595959
0.00684927
0.00792256
0.00941522
0.011433
0.0167815
0.0292556
0.0757405
0.144931
0.172135
0.191952
0.215338
0.00628805
0.0267421
0.14391
0.155675
0.127424
0.0929575
0.0638193
0.0430919
0.028017
0.0179559
0.0119015
0.0078556
0.00510179
0.00380075
0.00317776
0.00291726
0.00295918
0.00326894
0.00374025
0.00412339
0.00449662
0.0051584
0.00580357
0.00644454
0.00747866
0.00867892
0.0103685
0.0129284
0.0198784
0.0347731
0.084889
0.150421
0.176977
0.197725
0.22103
0.00658505
0.031659
0.159091
0.162303
0.12558
0.0872246
0.0584622
0.0385878
0.0244531
0.0151586
0.0096583
0.00632362
0.00426662
0.00343542
0.00310909
0.00303823
0.00320672
0.00361024
0.00416859
0.00465788
0.00497759
0.00557262
0.00624527
0.00697904
0.00815927
0.00948204
0.0114201
0.0147025
0.0235982
0.0410544
0.0941985
0.155951
0.18205
0.203804
0.226967
0.00697682
0.0374638
0.171022
0.162206
0.118759
0.0784658
0.0512571
0.0329535
0.0202566
0.0120986
0.00743268
0.00493691
0.00359169
0.00316948
0.0030799
0.00315926
0.00343573
0.00392543
0.00456806
0.00520247
0.00553137
0.00604606
0.00673611
0.00756036
0.00888538
0.010328
0.0125856
0.0168132
0.0280344
0.0481124
0.103575
0.161539
0.187369
0.210208
0.233161
0.00744499
0.0440603
0.178483
0.155656
0.107803
0.0676738
0.042967
0.0267659
0.0158603
0.00911109
0.00548434
0.00384902
0.00311822
0.00300745
0.00308777
0.00327588
0.00363938
0.00420443
0.00492354
0.00572657
0.00614238
0.00657914
0.00727554
0.00818304
0.00964987
0.0112128
0.0138828
0.0193273
0.0332858
0.0559481
0.112952
0.167218
0.192955
0.216967
0.239634
0.00795396
0.0509617
0.180625
0.143695
0.0939624
0.0559314
0.0343696
0.0205923
0.0116816
0.00650138
0.00399517
0.00311166
0.00283099
0.00292989
0.00311879
0.00338082
0.00381381
0.00444343
0.0052288
0.00620664
0.00678256
0.00716411
0.00785925
0.00883922
0.0104448
0.0121334
0.0153324
0.0223223
0.039456
0.0645544
0.12229
0.173029
0.19884
0.224123
0.246415
0.00846726
0.0572078
0.176908
0.127688
0.0785529
0.0441964
0.0261229
0.0149059
0.00806633
0.00448682
0.00301183
0.00267775
0.00268291
0.00290451
0.00315332
0.00346571
0.00395735
0.00464319
0.00548523
0.00662751
0.00741596
0.00778358
0.00847901
0.00951991
0.0112627
0.0130876
0.0169578
0.0258872
0.0466536
0.0739233
0.131587
0.179027
0.205063
0.231726
0.253546
0.00894498
0.0612971
0.166993
0.108992
0.0627202
0.0331833
0.0187001
0.0100481
0.00525264
0.00313833
0.00244557
0.00245257
0.00261708
0.00289749
0.00317474
0.00352635
0.00407231
0.00480901
0.00570063
0.00698596
0.00800671
0.00841276
0.0091237
0.0102164
0.0120977
0.0140752
0.0187856
0.0301235
0.0549923
0.0840527
0.140871
0.185274
0.211673
0.239841
0.261077
0.0093615
0.0616838
0.150835
0.0888676
0.0473746
0.0233664
0.0124034
0.00623979
0.00333826
0.00235476
0.00214848
0.00233963
0.00257935
0.00287894
0.00317053
0.00356103
0.00416255
0.00494775
0.00588566
0.00728593
0.0085257
0.00902308
0.0097807
0.0109221
0.012947
0.015099
0.0208459
0.0351454
0.0645928
0.0949555
0.150206
0.191845
0.218726
0.248538
0.269065
0.0096768
0.0570352
0.128732
0.0685078
0.0332715
0.0150692
0.00743026
0.00359639
0.00222664
0.00193632
0.00198686
0.00226043
0.0025269
0.00282847
0.00313512
0.00357195
0.00423421
0.00506813
0.00605326
0.0075396
0.00895645
0.00958879
0.010438
0.0116337
0.013812
0.0161657
0.0231733
0.0410794
0.0755839
0.106666
0.159685
0.198819
0.226282
0.257892
0.277575
0.00988074
0.0472152
0.101713
0.04902
0.0210582
0.0085194
0.00390435
0.00205453
0.00164244
0.00169201
0.00185587
0.00215362
0.00242571
0.00272895
0.00306157
0.00355566
0.00428722
0.00517323
0.00621455
0.00776228
0.00929659
0.0100903
0.0110855
0.0123516
0.0146992
0.0172872
0.025807
0.0480617
0.0881037
0.119247
0.169426
0.206275
0.234401
0.267977
0.28667
4.88244e-24
3.15197e-19
1.14135e-18
4.31056e-18
2.49939e-17
3.15407e-14
9.0385e-11
0.0309631
0.179118
0.201488
0.212419
0.204469
0.192431
0.183173
0.155848
0.142337
0.121568
0.102273
0.0700304
0.0586398
0.0302661
0.0121413
4.99614e-24
7.39423e-20
8.35182e-20
6.24413e-18
6.242e-17
2.45853e-13
9.24177e-10
0.0587281
0.211611
0.215739
0.214143
0.204297
0.191618
0.183475
0.156076
0.142764
0.122331
0.102051
0.0693185
0.0583981
0.0298352
0.01219
5.10226e-24
2.76625e-19
8.77812e-19
8.89834e-18
1.22193e-16
9.27889e-13
9.31997e-09
0.0918974
0.240675
0.227446
0.215214
0.204114
0.190992
0.183946
0.15653
0.143367
0.1233
0.101923
0.0689704
0.0577859
0.0293031
0.0123483
5.062e-24
5.72602e-20
2.14772e-20
6.84933e-18
1.92216e-16
2.2773e-12
1.69566e-07
0.126903
0.265745
0.23693
0.216068
0.204037
0.190628
0.184636
0.157249
0.144126
0.124437
0.101898
0.0689748
0.0568356
0.0287042
0.0126052
5.16587e-24
2.21311e-19
6.32206e-19
7.22963e-18
2.88099e-16
3.60795e-12
6.55036e-06
0.15832
0.286734
0.244529
0.217016
0.204151
0.190591
0.185528
0.158209
0.14503
0.125702
0.101976
0.0692997
0.0556182
0.0280839
0.0129522
5.11405e-24
4.59244e-20
1.20672e-20
4.61491e-18
4.09628e-16
4.86881e-12
1.86317e-05
0.180249
0.303758
0.25062
0.218313
0.204555
0.190938
0.186679
0.159452
0.146064
0.12705
0.102154
0.06991
0.0541918
0.0274525
0.0134064
5.22938e-24
1.78692e-19
4.73356e-19
4.63624e-18
5.80177e-16
5.05841e-12
3.44464e-05
0.189845
0.31708
0.255516
0.220101
0.205311
0.191715
0.188073
0.160955
0.147232
0.128443
0.102429
0.0707525
0.0526386
0.0268357
0.0139814
5.17023e-24
3.80409e-20
7.88051e-21
2.77968e-18
7.7197e-16
4.37376e-12
2.57656e-05
0.187927
0.326913
0.259509
0.222494
0.206494
0.192956
0.189775
0.162765
0.148537
0.129845
0.10279
0.0717798
0.0510144
0.0262311
0.014695
5.29806e-24
1.4666e-19
3.69543e-19
2.86102e-18
9.8559e-16
2.87878e-12
2.73814e-05
0.177482
0.333443
0.262787
0.225515
0.208141
0.194686
0.191765
0.164861
0.149998
0.131236
0.103227
0.0729331
0.0493923
0.0256582
0.015551
5.22354e-24
3.24417e-20
5.88746e-21
1.68668e-18
1.14752e-15
1.68806e-12
3.5252e-05
0.16133
0.33668
0.26549
0.229184
0.210302
0.196915
0.194104
0.167293
0.151636
0.13261
0.103728
0.074169
0.0478134
0.0251078
0.0165529
5.35784e-24
1.21932e-19
2.9738e-19
1.84197e-18
1.25184e-15
8.52001e-13
4.00914e-05
0.14131
0.336527
0.267637
0.233443
0.212991
0.199653
0.196765
0.170039
0.153486
0.133978
0.104285
0.0754364
0.0463348
0.0245954
0.0176863
5.27117e-24
2.84277e-20
4.69179e-21
1.08043e-18
1.23844e-15
4.16273e-13
4.10573e-05
0.119116
0.33269
0.269187
0.238238
0.216239
0.2029
0.199799
0.173149
0.155575
0.135369
0.104888
0.0767066
0.0449799
0.024108
0.0189358
5.41228e-24
1.02865e-19
2.48136e-19