/*--------------------------------*- C++ -*----------------------------------*\
| =========                 |                                                 |
| \\      /  F ield         | OpenFOAM: The Open Source CFD Toolbox           |
|  \\    /   O peration     | Version:  v1912                                 |
|   \\  /    A nd           | Website:  www.openfoam.com                      |
|    \\/     M anipulation  |                                                 |
\*---------------------------------------------------------------------------*/
FoamFile
{
    version     2.0;
    format      ascii;
    class       volScalarField;
    location    "370";
    object      p;
}
// * * * * * * * * * * * * * * * * * * * * * * * * * * * * * * * * * * * * * //

dimensions      [0 2 -2 0 0 0 0];


internalField   nonuniform List<scalar> 
12441
(
8.82091
9.11888
9.96971
11.2946
13.0109
15.1656
17.8518
21.1688
25.3201
30.4575
36.7807
44.5957
54.3666
66.0888
81.8882
101.365
129.538
164.734
221.799
284.315
375.331
438.131
8.8209
9.11887
9.96969
11.2946
13.0108
15.1656
17.8517
21.1687
25.3199
30.4572
36.7803
44.5951
54.3656
66.0871
81.8851
101.358
129.522
164.709
221.718
284.239
375.283
437.937
8.82088
9.11885
9.96967
11.2945
13.0108
15.1655
17.8516
21.1685
25.3196
30.4567
36.7796
44.5939
54.3637
66.0837
81.8791
101.344
129.497
164.653
221.549
284.059
375.152
437.585
8.82086
9.11883
9.96964
11.2945
13.0107
15.1654
17.8514
21.1682
25.3192
30.456
36.7785
44.5921
54.3608
66.0786
81.8702
101.323
129.464
164.566
221.371
283.782
374.913
437.037
8.82083
9.11879
9.96959
11.2944
13.0106
15.1653
17.8512
21.1678
25.3186
30.4551
36.777
44.5896
54.3569
66.0717
81.8583
101.295
129.42
164.459
221.206
283.434
374.578
436.29
8.82079
9.11875
9.96953
11.2943
13.0105
15.1651
17.8508
21.1673
25.3179
30.4539
36.7752
44.5866
54.352
66.0631
81.8435
101.261
129.367
164.332
221.02
283.014
374.15
435.344
8.82074
9.11869
9.96946
11.2942
13.0103
15.1648
17.8505
21.1667
25.317
30.4525
36.7729
44.5829
54.3462
66.0528
81.8258
101.221
129.304
164.183
220.802
282.524
373.635
434.2
8.82069
9.11863
9.96938
11.2941
13.0101
15.1645
17.8501
21.166
25.3159
30.4508
36.7704
44.5786
54.3394
66.0409
81.8051
101.175
129.234
164.013
220.564
281.977
373.036
432.853
8.82062
9.11856
9.96929
11.294
13.0099
15.1642
17.8496
21.1652
25.3148
30.449
36.7674
44.5737
54.3317
66.0273
81.782
101.124
129.164
163.832
220.328
281.384
372.358
431.3
8.82055
9.11848
9.96919
11.2938
13.0097
15.1639
17.849
21.1643
25.3134
30.4468
36.7641
44.5682
54.3229
66.0121
81.7576
101.074
129.097
163.648
220.116
280.756
371.602
429.535
8.82048
9.11839
9.96907
11.2936
13.0094
15.1635
17.8484
21.1633
25.312
30.4445
36.7604
44.5621
54.3133
65.9957
81.7334
101.028
129.051
163.482
219.961
280.104
370.764
427.552
8.82039
9.11829
9.96895
11.2934
13.0091
15.163
17.8478
21.1622
25.3103
30.4419
36.7563
44.5554
54.3027
65.9791
81.7127
100.999
129.058
163.369
219.893
279.431
369.84
425.34
8.8203
9.11819
9.96881
11.2932
13.0088
15.1626
17.8471
21.161
25.3086
30.439
36.7519
44.5481
54.2914
65.9645
81.7054
101.01
129.163
163.358
219.921
278.729
368.819
422.889
8.82019
9.11807
9.96866
11.293
13.0085
15.1621
17.8463
21.1597
25.3067
30.436
36.747
44.5402
54.2802
65.9568
81.7274
101.089
129.412
163.488
220.015
277.979
367.693
420.185
8.82008
9.11795
9.9685
11.2927
13.0081
15.1615
17.8454
21.1583
25.3046
30.4327
36.7418
44.5317
54.2706
65.9648
81.7967
101.26
129.826
163.76
220.111
277.157
366.452
417.216
8.81997
9.11781
9.96832
11.2925
13.0077
15.1609
17.8445
21.1568
25.3024
30.4291
36.7363
44.5229
54.2657
65.9993
81.9276
101.531
130.382
164.123
220.137
276.235
365.088
413.968
8.81984
9.11767
9.96814
11.2922
13.0073
15.1603
17.8436
21.1552
25.3
30.4253
36.7303
44.5144
54.2708
66.069
82.123
101.888
131.012
164.476
220.032
275.195
363.592
410.427
8.81971
9.11752
9.96794
11.2919
13.0069
15.1596
17.8425
21.1535
25.2975
30.4213
36.7239
44.5072
54.2925
66.1778
82.3735
102.298
131.607
164.711
219.768
274.026
361.96
406.577
8.81957
9.11736
9.96773
11.2916
13.0064
15.1589
17.8415
21.1517
25.2949
30.417
36.717
44.5037
54.3363
66.3207
82.6578
102.706
132.053
164.754
219.348
272.725
360.187
402.404
8.81942
9.11719
9.96751
11.2913
13.0059
15.1581
17.8403
21.1498
25.2921
30.4125
36.7099
44.507
54.4034
66.4883
82.9463
103.055
132.265
164.593
218.795
271.296
358.272
397.892
8.81926
9.11702
9.96728
11.2909
13.0054
15.1573
17.8391
21.1478
25.2891
30.4077
36.7027
44.5212
54.4907
66.6652
83.2057
103.293
132.216
164.267
218.14
269.745
356.212
393.025
8.8191
9.11683
9.96704
11.2905
13.0048
15.1565
17.8379
21.1457
25.286
30.4026
36.696
44.5489
54.5906
66.8373
83.4066
103.39
131.937
163.839
217.411
268.081
354.01
387.787
8.81892
9.11663
9.96679
11.2902
13.0042
15.1556
17.8365
21.1435
25.2828
30.3973
36.6907
44.5905
54.6956
66.9887
83.5291
103.344
131.504
163.362
216.626
266.313
351.665
382.159
8.81874
9.11643
9.96652
11.2897
13.0036
15.1547
17.8351
21.1412
25.2793
30.3917
36.6884
44.643
54.7964
67.1096
83.5674
103.18
131.003
162.869
215.796
264.449
349.181
376.124
8.81856
9.11622
9.96624
11.2893
13.003
15.1538
17.8337
21.1388
25.2758
30.3858
36.691
44.7023
54.8878
67.1908
83.529
102.935
130.499
162.372
214.924
262.5
346.559
369.663
8.81836
9.116
9.96595
11.2889
13.0023
15.1528
17.8322
21.1363
25.2721
30.3796
36.7
44.7637
54.9634
67.2325
83.431
102.651
130.028
161.869
214.013
260.474
343.803
362.753
8.81816
9.11577
9.96565
11.2884
13.0017
15.1518
17.8306
21.1337
25.2682
30.3734
36.7159
44.823
55.022
67.2354
83.2933
102.356
129.598
161.353
213.061
258.382
340.916
355.372
8.81794
9.11553
9.96534
11.288
13.001
15.1507
17.829
21.131
25.2641
30.3672
36.7382
44.8768
55.0604
67.2081
83.1349
102.07
129.205
160.818
212.069
256.232
337.897
347.498
8.81773
9.11528
9.96502
11.2875
13.0002
15.1496
17.8273
21.1282
25.2599
30.3612
36.7649
44.9232
55.081
67.1558
82.9693
101.802
128.835
160.262
211.036
254.03
334.749
339.102
8.8175
9.11502
9.96468
11.287
12.9995
15.1485
17.8256
21.1252
25.2555
30.3555
36.794
44.9608
55.0831
67.0883
82.8054
101.551
128.478
159.684
209.96
251.781
331.468
330.157
8.81726
9.11476
9.96433
11.2864
12.9987
15.1473
17.8238
21.1222
25.2509
30.3505
36.8236
44.9888
55.0714
67.0097
82.6471
101.315
128.127
159.083
208.843
249.487
328.05
320.632
8.81702
9.11448
9.96397
11.2859
12.9979
15.146
17.8219
21.1191
25.2462
30.3463
36.8524
45.0073
55.0464
66.9268
82.4959
101.089
127.775
158.462
207.684
247.149
324.488
310.494
8.81677
9.1142
9.9636
11.2853
12.997
15.1448
17.82
21.1159
25.2413
30.3434
36.8792
45.0167
55.0129
66.8406
82.351
100.869
127.42
157.821
206.484
244.765
320.774
299.709
8.81651
9.1139
9.96322
11.2848
12.9962
15.1435
17.818
21.1126
25.2363
30.3422
36.9033
45.0178
54.9712
66.755
82.2114
100.654
127.06
157.161
205.243
242.336
316.896
288.239
8.81625
9.1136
9.96283
11.2842
12.9953
15.1421
17.816
21.1091
25.2311
30.3432
36.9242
45.0116
54.9256
66.669
82.0756
100.439
126.694
156.485
203.961
239.862
312.842
276.045
8.81597
9.11329
9.96242
11.2836
12.9944
15.1408
17.8139
21.1056
25.2257
30.3468
36.9418
44.9991
54.8755
66.5852
81.9425
100.225
126.321
155.794
202.64
237.342
308.602
263.086
8.81569
9.11297
9.962
11.2829
12.9934
15.1393
17.8117
21.1019
25.2202
30.3541
36.9563
44.9816
54.8243
66.5015
81.8109
100.008
125.942
155.087
201.279
234.781
304.162
249.316
8.8154
9.11265
9.96157
11.2823
12.9925
15.1379
17.8095
21.0982
25.215
30.3667
36.9681
44.9601
54.7708
66.4202
81.6802
99.7904
125.557
154.368
199.881
232.183
299.514
234.691
8.8151
9.11231
9.96113
11.2816
12.9915
15.1364
17.8072
21.0943
25.2113
30.3858
36.9776
44.9356
54.7177
66.3391
81.5496
99.57
125.166
153.636
198.447
229.553
294.649
219.16
8.8148
9.11196
9.96068
11.2809
12.9904
15.1348
17.8048
21.0903
25.2124
30.4115
36.9852
44.909
54.6634
66.2603
81.4191
99.3477
124.771
152.892
196.98
226.896
289.562
202.672
8.81449
9.11161
9.96021
11.2802
12.9894
15.1333
17.8024
21.0862
25.2233
30.4439
36.991
44.881
54.6101
66.1818
81.2882
99.123
124.371
152.136
195.483
224.218
284.252
185.173
8.81417
9.11125
9.95974
11.2795
12.9883
15.1316
17.8
21.0822
25.249
30.4826
36.9949
44.8522
54.5557
66.106
81.1574
98.897
123.966
151.37
193.962
221.52
278.715
166.614
8.81384
9.11088
9.95925
11.2788
12.9872
15.13
17.7974
21.0793
25.2924
30.5262
36.9966
44.8234
54.5022
66.0307
81.0261
98.6694
123.558
150.591
192.419
218.799
272.928
146.909
8.8135
9.1105
9.95875
11.2781
12.9861
15.1283
17.7948
21.0814
25.3528
30.5727
36.9961
44.7949
54.4473
65.9585
80.8954
98.4415
123.148
149.797
190.863
216.043
266.81
125.315
-19.5447
-22.2279
-23.8509
-22.3422
-19.0891
-17.2661
-15.5446
-14.1618
-12.162
-9.59622
-7.52335
-5.96452
-3.97611
-1.54495
0.259705
0.743924
2.56636
7.63768
13.3074
15.6053
15.4642
13.2648
11.1953
9.33524
7.81543
6.29854
5.27481
2.96568
1.15524
-1.24264
-1.04282
0.34551
5.86957
2.64711
1.03458
-19.546
-22.214
-23.8778
-22.3446
-19.0878
-17.2636
-15.5441
-14.1612
-12.1617
-9.59603
-7.52321
-5.96414
-3.97499
-1.54285
0.264516
0.753149
2.57825
7.64746
13.3127
15.6087
15.4676
13.2679
11.1978
9.33719
7.81706
6.30012
5.27627
2.96617
1.1596
-1.24363
-1.04639
0.316707
5.86837
2.64772
1.03467
-19.5478
-22.2022
-23.9198
-22.3483
-19.0868
-17.2608
-15.5438
-14.1609
-12.1618
-9.59549
-7.52282
-5.96313
-3.97267
-1.53867
0.273373
0.77024
2.60431
7.6765
13.3343
15.6208
15.4749
13.2734
11.202
9.34063
7.82004
6.30304
5.27901
2.96754
1.16478
-1.24594
-1.05103
0.288646
5.86735
2.64837
1.03476
-19.5505
-22.1996
-23.9759
-22.3541
-19.0866
-17.2578
-15.5433
-14.1608
-12.162
-9.5948
-7.52254
-5.96176
-3.96966
-1.53393
0.282924
0.789748
2.63799
7.72002
13.3717
15.6421
15.4869
13.2822
11.2087
9.34591
7.82451
6.30734
5.28316
2.96998
1.16959
-1.24762
-1.04703
0.264513
5.86627
2.64904
1.03485
-19.554
-22.2108
-24.0426
-22.3616
-19.0863
-17.2545
-15.5423
-14.1608
-12.1622
-9.59404
-7.52245
-5.96059
-3.96686
-1.53
0.290213
0.805118
2.66724
7.76247
13.4129
15.668
15.5025
13.2938
11.2176
9.35293
7.83035
6.31284
5.28854
2.97346
1.17434
-1.24593
-1.03534
0.245799
5.86525
2.64973
1.03494
-19.5583
-22.2402
-24.1167
-22.37
-19.0845
-17.25
-15.5404
-14.1609
-12.1624
-9.59325
-7.52266
-5.95973
-3.9644
-1.52672
0.295327
0.815442
2.6883
7.79635
13.4499
15.6941
15.5199
13.3075
11.2285
9.36151
7.83738
6.31932
5.29488
2.97785
1.17927
-1.23939
-1.01566
0.232572
5.86432
2.65045
1.03502
-19.5631
-22.2915
-24.1951
-22.3784
-19.0808
-17.2443
-15.5374
-14.1612
-12.1625
-9.59251
-7.52318
-5.95909
-3.96194
-1.52313
0.299783
0.822611
2.70271
7.82126
13.48
15.7181
15.5375
13.3222
11.2405
9.3713
7.84537
6.32651
5.30189
2.98293
1.18446
-1.22765
-0.986945
0.224545
5.86348
2.65118
1.0351
-19.5682
-22.3671
-24.2747
-22.3867
-19.0757
-17.2377
-15.5337
-14.1619
-12.1627
-9.59187
-7.524
-5.95856
-3.95919
-1.51858
0.304725
0.828474
2.71306
7.83938
13.5033
15.7384
15.5538
13.3365
11.2529
9.38177
7.85401
6.33416
5.30926
2.98845
1.18986
-1.21099
-0.948855
0.221597
5.86274
2.65194
1.03516
-19.5736
-22.4677
-24.3526
-22.3952
-19.0696
-17.2308
-15.5295
-14.1629
-12.163
-9.59147
-7.52512
-5.95811
-3.95615
-1.51307
0.310465
0.833909
2.72104
7.85267
13.5205
15.7541
15.5672
13.3489
11.2645
9.39216
7.86287
6.34198
5.3167
2.99417
1.1954
-1.19013
-0.902219
0.223623
5.86208
2.65272
1.0352
-19.5792
-22.5926
-24.4265
-22.4043
-19.0632
-17.2242
-15.5254
-14.1644
-12.1635
-9.59145
-7.52652
-5.95778
-3.95303
-1.50711
0.31663
0.838996
2.72734
7.86215
13.5321
15.7647
15.5766
13.3581
11.274
9.40154
7.8714
6.34963
5.3239
2.99979
1.20097
-1.16618
-0.849001
0.23075
5.8615
2.65353
1.03523
-19.5847
-22.7391
-24.4942
-22.414
-19.0569
-17.2183
-15.5218
-14.1665
-12.1644
-9.59197
-7.52822
-5.95766
-3.95013
-1.50132
0.322635
0.843466
2.73198
7.86809
13.5383
15.7698
15.5812
13.3634
11.2804
9.409
7.87894
6.35673
5.33056
3.00502
1.20645
-1.14054
-0.79195
0.243111
5.861
2.65435
1.03524
-19.5903
-22.9029
-24.5544
-22.4244
-19.051
-17.2136
-15.5191
-14.1693
-12.166
-9.59317
-7.53023
-5.95782
-3.94768
-1.49626
0.32789
0.847025
2.73494
7.8707
13.5397
15.7698
15.581
13.3645
11.2834
9.41388
7.88488
6.36284
5.33637
3.00957
1.21172
-1.11464
-0.734317
0.261119
5.86058
2.6552
1.03524
-19.5958
-23.0781
-24.606
-22.4352
-19.0459
-17.2104
-15.5177
-14.1728
-12.1683
-9.5952
-7.53262
-5.95834
-3.94582
-1.49221
0.332023
0.849503
2.73627
7.87045
13.5371
15.7654
15.5768
13.362
11.2831
9.416
7.8888
6.36759
5.34105
3.01318
1.21671
-1.08969
-0.679416
0.285178
5.86024
2.65607
1.03521
-19.6014
-23.2571
-24.6492
-22.4462
-19.0418
-17.209
-15.5179
-14.1772
-12.1715
-9.59819
-7.53552
-5.95928
-3.94459
-1.4893
0.334867
0.85089
2.73629
7.8681
13.5315
15.7576
15.5693
13.3567
11.2801
9.41564
7.89063
6.37075
5.34439
3.0156
1.22136
-1.06631
-0.630323
0.315885
5.86002
2.65696
1.03515
-19.6071
-23.4314
-24.6842
-22.4564
-19.0391
-17.2095
-15.5199
-14.1829
-12.1758
-9.6023
-7.53906
-5.96068
-3.94394
-1.48738
0.336517
0.851292
2.73533
7.86438
13.5237
15.7473
15.5595
13.3494
11.2754
9.4134
7.89064
6.37232
5.34631
3.01674
1.22569
-1.04447
-0.589465
0.353542
5.85993
2.65786
1.03508
-19.6133
-23.5924
-24.7121
-22.4652
-19.038
-17.2123
-15.524
-14.1898
-12.1813
-9.60765
-7.54341
-5.96261
-3.94381
-1.48624
0.337178
0.850893
2.73381
7.85991
13.5145
15.7351
15.5478
13.3408
11.2695
9.40997
7.88932
6.37257
5.34693
3.01662
1.22975
-1.02362
-0.558307
0.398172
5.86002
2.65879
1.03497
-19.6201
-23.733
-24.7339
-22.4711
-19.0386
-17.2176
-15.5305
-14.1985
-12.1883
-9.61439
-7.54873
-5.96513
-3.94414
-1.4856
0.337158
0.849907
2.73206
7.85508
13.504
15.721
15.5344
13.3311
11.2629
9.4059
7.88717
6.37186
5.34651
3.0154
1.23365
-1.00299
-0.536997
0.448934
5.86032
2.65972
1.03484
-19.6276
-23.8483
-24.7508
-22.4733
-19.0413
-17.2258
-15.5397
-14.2091
-12.1971
-9.62271
-7.55523
-5.96838
-3.94495
-1.48529
0.336692
0.848553
2.7304
7.85014
13.4924
15.7052
15.5193
13.3204
11.2559
9.40148
7.88457
6.37057
5.34533
3.0133
1.23745
-0.981936
-0.524457
0.504382
5.86088
2.66067
1.03469
-19.6356
-23.9366
-24.7644
-22.4713
-19.0461
-17.2369
-15.5519
-14.2223
-12.208
-9.63287
-7.56321
-5.97256
-3.9463
-1.48519
0.335987
0.847013
2.72901
7.8451
13.4795
15.6873
15.5022
13.3085
11.2483
9.39683
7.88176
6.36898
5.34369
3.01057
1.24124
-0.960103
-0.518833
0.562367
5.86173
2.66161
1.0345
-19.6439
-23.9996
-24.7759
-22.4659
-19.0527
-17.2513
-15.5678
-14.2386
-12.2215
-9.64519
-7.57309
-5.97805
-3.94844
-1.48539
0.33507
0.8454
2.72805
7.83996
13.4651
15.6674
15.4832
13.2954
11.2401
9.39191
7.87881
6.36727
5.34177
3.00738
1.24507
-0.937428
-0.518225
0.620857
5.86286
2.66256
1.03428
-19.6525
-24.0427
-24.785
-22.4583
-19.0606
-17.2694
-15.5881
-14.259
-12.2384
-9.66019
-7.58548
-5.98537
-3.9517
-1.48603
0.333901
0.843749
2.7275
7.83456
13.4492
15.6452
15.4622
13.2811
11.2313
9.38667
7.87574
6.36552
5.33972
3.00388
1.249
-0.914006
-0.521062
0.678033
5.86428
2.6635
1.03404
-19.6609
-24.0726
-24.7894
-22.45
-19.0692
-17.2913
-15.6137
-14.2847
-12.2595
-9.67847
-7.60112
-5.99526
-3.95671
-1.48753
0.332258
0.842024
2.72738
7.82879
13.4315
15.6209
15.4392
13.2656
11.2218
9.38106
7.87253
6.36376
5.33758
3.00017
1.25308
-0.889997
-0.526259
0.73296
5.86597
2.66443
1.03377
-19.6686
-24.095
-24.7861
-22.442
-19.0781
-17.3177
-15.6455
-14.3168
-12.2858
-9.70076
-7.62082
-6.00862
-3.96432
-1.49043
0.329885
0.840135
2.72751
7.82242
13.412
15.5943
15.4143
13.249
11.2116
9.37508
7.86918
6.362
5.33538
2.99632
1.25734
-0.865562
-0.533012
0.785212
5.8679
2.66534
1.03346
-19.675
-24.1137
-24.7717
-22.4352
-19.0868
-17.3491
-15.6848
-14.3569
-12.3184
-9.7277
-7.64526
-6.0264
-3.9756
-1.49565
0.326322
0.837942
2.72779
7.81524
13.3903
15.5654
15.3876
13.2313
11.2009
9.36873
7.86567
6.3602
5.33311
2.99235
1.26184
-0.840878
-0.540743
0.835161
5.87005
2.66623
1.03313
-19.6794
-24.1323
-24.7415
-22.4298
-19.0952
-17.3863
-15.7331
-14.4065
-12.3586
-9.75985
-7.67472
-6.04918
-3.99144
-1.50416
0.320986
0.835223
2.72796
7.80697
13.3664
15.5344
15.3592
13.2128
11.1897
9.36204
7.86202
6.35833
5.33076
2.98829
1.26656
-0.816126
-0.548889
0.883289
5.87243
2.66708
1.03276
-19.6813
-24.1543
-24.691
-22.4251
-19.1031
-17.4302
-15.7917
-14.4668
-12.4071
-9.79738
-7.70885
-6.07701
-4.01221
-1.51704
0.312971
0.831617
2.72783
7.79738
13.34
15.5012
15.3293
13.1934
11.1779
9.35506
7.85822
6.35637
5.3283
2.98418
1.27153
-0.791529
-0.557026
0.930485
5.87501
2.66791
1.03236
-19.6804
-24.1836
-24.6178
-22.4196
-19.1104
-17.4817
-15.862
-14.5388
-12.4643
-9.83989
-7.74649
-6.10889
-4.03716
-1.53449
0.301401
0.826557
2.72698
7.78613
13.3109
15.4658
15.298
13.1732
11.1657
9.34781
7.85428
6.35428
5.32571
2.98003
1.2767
-0.767307
-0.564707
0.977376
5.87783
2.66869
1.03193
-19.6771
-24.2241
-24.523
-22.4109
-19.1171
-17.5411
-15.9441
-14.6221
-12.5294
-9.88607
-7.78564
-6.14303
-4.06459
-1.55576
0.285686
0.819376
2.72506
7.77299
13.279
15.4281
15.2653
13.1524
11.1532
9.34035
7.8502
6.35201
5.32298
2.97588
1.28206
-0.74374
-0.571667
1.02481
5.88088
2.66944
1.03147
-19.6721
-24.2798
-24.4109
-22.3961
-19.1234
-17.6078
-16.0366
-14.7147
-12.6003
-9.93365
-7.82355
-6.17664
-4.09182
-1.57867
0.266263
0.809561
2.7215
7.75765
13.2441
15.3882
15.2313
13.131
11.1403
9.3327
7.84596
6.34953
5.32009
2.97178
1.28755
-0.721091
-0.577586
1.07324
5.8842
2.67013
1.03098
-19.6663
-24.3547
-24.2873
-22.3718
-19.1296
-17.68
-16.1361
-14.8124
-12.6733
-9.9793
-7.85701
-6.2067
-4.11605
-1.60068
0.2445
0.79712
2.71609
7.74002
13.2062
15.346
15.1961
13.109
11.1271
9.3249
7.84155
6.3468
5.31702
2.96779
1.29315
-0.699718
-0.582353
1.12334
5.88779
2.67077
1.03046
-19.6603
-24.4532
-24.1585
-22.3352
-19.1365
-17.7548
-16.237
-14.9092
-12.7432
-10.0191
-7.88266
-6.22999
-4.1346
-1.61924
0.222437
0.782681
2.70876
7.72009
13.1656
15.3016
15.1596
13.0865
11.1137
9.31697
7.83693
6.34378
5.31379
2.96395
1.29877
-0.679943
-0.585737
1.17534
5.89171
2.67135
1.0299
-19.6549
-24.5812
-24.0298
-22.285
-19.145
-17.8275
-16.3316
-14.9976
-12.804
-10.049
-7.89759
-6.24407
-4.14578
-1.63306
0.201685
0.76734
2.70004
7.69821
13.1225
15.2551
15.1219
13.0636
11.1001
9.30891
7.83207
6.34042
5.31037
2.96032
1.30442
-0.662223
-0.587738
1.22977
5.89596
2.67188
1.02931
-19.6504
-24.7461
-23.9053
-22.2223
-19.1567
-17.8928
-16.4121
-15.0699
-12.8501
-10.0654
-7.89983
-6.24733
-4.14896
-1.64187
0.183079
0.752195
2.69056
7.6748
13.0773
15.2067
15.0832
13.0403
11.0863
9.30075
7.82694
6.33671
5.30679
2.95695
1.31
-0.646955
-0.58817
1.28669
5.90059
2.67234
1.02868
-19.6468
-24.9583
-23.7872
-22.1521
-19.1728
-17.9455
-16.4711
-15.1195
-12.8765
-10.0661
-7.88893
-6.23983
-4.14521
-1.64702
0.166351
0.738083
2.68125
7.65057
13.0307
15.1567
15.0433
13.0166
11.0725
9.29247
7.82149
6.33258
5.30305
2.95392
1.31554
-0.634708
-0.587113
1.34652
5.9056
2.67275
1.02802
-19.6436
-25.2314
-23.6756
-22.0828
-19.1942
-17.9813
-16.5037
-15.1424
-12.8813
-10.051
-7.86625
-6.22319
-4.13688
-1.65052
0.150756
0.725361
2.6726
7.62596
12.9833
15.1058
15.0027
12.9926
11.0586
9.28409
7.81569
6.32805
5.29917
2.95128
1.32094
-0.625932
-0.584408
1.40922
5.91104
2.67307
1.02733
-19.6394
-25.5814
-23.5682
-22.024
-19.2213
-17.9983
-16.5086
-15.1383
-12.8646
-10.0221
-7.83495
-6.2009
-4.12742
-1.65467
0.135324
0.71403
2.66508
7.6015
12.9356
15.0543
14.9613
12.9685
11.0448
9.2756
7.8095
6.32304
5.29516
2.94913
1.32624
-0.621281
-0.580206
1.47515
5.91691
2.67334
1.0266
-19.6319
-26.0247
-23.4613
-21.9843
-19.2538
-17.9972
-16.4883
-15.1104
-12.8299
-9.9834
-7.79965
-6.17766
-4.11994
-1.66085
0.119394
0.703764
2.65855
7.57728
12.8879
15.0028
14.9197
12.9442
11.0309
9.26699
7.80289
6.31759
5.29103
2.94755
1.3313
-0.621219
-0.574374
1.54421
5.92326
2.67352
1.02584
-19.6183
-26.5721
-23.35
-21.9689
-19.2905
-17.9811
-16.4482
-15.0641
-12.7822
-9.93998
-7.76603
-6.15838
-4.1164
-1.66978
0.102409
0.694184
2.65306
7.55353
12.8405
14.9518
14.878
12.92
11.0171
9.25822
7.79581
6.31165
5.2868
2.94669
1.33619
-0.626484
-0.56714
1.61682
5.93009
2.67363
1.02504
-19.5966
-27.2149
-23.2292
-21.9791
-19.3302
-17.9544
-16.3953
-15.0064
-12.7274
-9.89762
-7.73974
-6.14603
-4.11696
-1.68137
0.0841148
0.684966
2.64837
7.53019
12.7933
14.9014
14.8367
12.8959
11.0033
9.24929
7.78827
6.30527
5.28252
2.94668
1.34063
-0.63756
-0.558324
1.69295
5.93747
2.67363
1.02419
-19.5657
-27.9063
-23.0933
-22.0127
-19.371
-17.9211
-16.3359
-14.943
-12.6714
-9.86233
-7.72451
-6.1409
-4.12105
-1.69565
0.0643829
0.676201
2.64482
7.5074
12.7463
14.8516
14.7958
12.8719
10.9896
9.24021
7.78028
6.29845
5.2782
2.94769
1.34454
-0.655218
-0.547927
1.7731
5.94537
2.67355
1.0233
-19.519
-28.546
-22.9369
-22.0652
-19.411
-17.8849
-16.275
-14.8786
-12.6207
-9.83913
-7.72028
-6.14132
-4.12793
-1.71226
0.0437142
0.668432
2.64244
7.48476
12.699
14.802
14.7555
12.8483
10.9761
9.23111
7.77197
6.29127
5.27383
2.94978
1.34738
-0.679525
-0.535607
1.85669
5.95377
2.67334
1.02237
-19.4337
-28.9791
-22.7545
-22.1295
-19.4467
-17.8471
-16.2149
-14.8177
-12.5822
-9.82895
-7.72389
-6.14533
-4.13695
-1.73054
0.0232414
0.662485
2.6411
7.46138
12.6505
14.7522
14.7157
12.8252
10.963
9.22221
7.76342
6.28364
5.26922
2.95307
1.34995
-0.710108
-0.522811
1.94207
5.9625
2.6731
1.0214
-19.316
-29.0224
-22.5395
-22.1974
-19.4739
-17.8076
-16.1568
-14.7671
-12.5588
-9.82793
-7.7315
-6.15114
-4.1469
-1.74856
0.00488675
0.658353
2.63856
7.43486
12.5998
14.7021
14.6769
12.8033
10.951
9.21373
7.75451
6.27531
5.26414
2.95786
1.3534
-0.746304
-0.511742
2.02717
5.97174
2.67279
1.0204
-19.4099
-28.5341
-22.2833
-22.2648
-19.4935
-17.7679
-16.1037
-14.7324
-12.5472
-9.83176
-7.74109
-6.15797
-4.15705
-1.76537
-0.0114224
0.653653
2.63161
7.40377
12.5478
14.6535
14.6412
12.7841
10.9404
9.20507
7.74399
6.26518
5.25853
2.96582
1.35491
-0.798581
-0.496719
2.12986
5.98394
2.67202
1.01922
8.81323
9.11019
9.95835
11.2775
12.9852
15.1269
17.7927
21.0972
25.4098
30.6081
36.9931
44.7729
54.4051
65.9038
80.7949
98.2654
122.829
149.166
189.652
213.862
261.755
103.609
8.81304
9.10997
9.95805
11.277
12.9845
15.1259
17.7911
21.1221
25.4514
30.6295
36.9881
44.7565
54.3728
65.8675
80.7238
98.14
122.598
148.703
188.774
212.276
257.893
100.672
8.81283
9.10973
9.95774
11.2766
12.9838
15.1249
17.7895
21.1532
25.487
30.645
36.9806
44.7392
54.3417
65.8289
80.6514
98.0106
122.359
148.221
187.875
210.63
253.873
102.346
8.81261
9.10948
9.95742
11.2761
12.9831
15.1238
17.7878
21.1847
25.5161
30.6555
36.9718
44.7214
54.3092
65.791
80.5777
97.8767
122.11
147.719
186.952
208.917
249.74
102.23
8.81238
9.10922
9.95708
11.2756
12.9823
15.1226
17.786
21.2125
25.5394
30.6621
36.9628
44.7035
54.2786
65.7506
80.5021
97.7368
121.85
147.196
186.001
207.135
245.482
100.431
8.81214
9.10895
9.95671
11.275
12.9815
15.1213
17.7841
21.2319
25.5572
30.6654
36.9541
44.6857
54.2471
65.7108
80.425
97.5914
121.576
146.651
185.014
205.286
241.097
98.377
8.81188
9.10866
9.95633
11.2744
12.9807
15.12
17.7821
21.2397
25.5698
30.6662
36.9462
44.6683
54.2177
65.6687
80.3455
97.439
121.286
146.083
183.987
203.373
236.587
96.4648
8.81161
9.10835
9.95593
11.2738
12.9798
15.1186
17.7799
21.2363
25.5775
30.6648
36.9391
44.6513
54.1878
65.6272
80.2642
97.2802
120.98
145.49
182.913
201.395
231.959
94.5313
8.81132
9.10803
9.9555
11.2732
12.9788
15.1172
17.7777
21.2244
25.5805
30.6616
36.9331
44.6351
54.1599
65.5835
80.1802
97.1138
120.656
144.872
181.787
199.353
227.217
92.4782
8.81102
9.10768
9.95505
11.2725
12.9778
15.1156
17.7753
21.2067
25.5788
30.6569
36.928
44.6195
54.1315
65.5403
80.094
96.9403
120.312
144.225
180.601
197.246
222.365
90.3298
8.81071
9.10732
9.95458
11.2718
12.9767
15.1139
17.7728
21.1848
25.5723
30.6507
36.9238
44.6047
54.105
65.4947
80.0047
96.7589
119.949
143.55
179.351
195.074
217.408
88.1209
8.81037
9.10694
9.95407
11.2711
12.9756
15.1122
17.7701
21.1601
25.5605
30.6429
36.9201
44.5905
54.0777
65.4494
79.9128
96.57
119.564
142.844
178.031
192.836
212.35
85.8626
8.81001
9.10654
9.95354
11.2703
12.9744
15.1103
17.7673
21.1342
25.5429
30.633
36.9166
44.5771
54.052
65.4015
79.8171
96.3728
119.159
142.105
176.638
190.53
207.198
83.5588
8.80964
9.10611
9.95298
11.2694
12.9732
15.1084
17.7643
21.1083
25.5189
30.6207
36.9129
44.5642
54.0254
65.3534
79.7182
96.1675
118.733
141.333
175.167
188.155
201.955
81.2183
8.80924
9.10566
9.95238
11.2686
12.9718
15.1063
17.7612
21.0841
25.4878
30.6052
36.9083
44.5519
53.9999
65.3023
79.6149
95.9531
118.285
140.525
173.616
185.709
196.628
78.8532
8.80882
9.10518
9.95176
11.2676
12.9704
15.1041
17.7578
21.0624
25.4494
30.5856
36.902
44.5397
53.9733
65.2504
79.5074
95.7298
117.816
139.68
171.983
183.191
191.22
76.4766
8.80837
9.10467
9.95109
11.2666
12.9689
15.1017
17.7543
21.0439
25.4036
30.5607
36.893
44.5276
53.9475
65.1949
79.3946
95.4962
117.324
138.796
170.266
180.6
185.735
74.1026
8.8079
9.10414
9.95038
11.2656
12.9673
15.0993
17.7505
21.0289
25.3515
30.5293
36.8799
44.5151
53.9203
65.1378
79.2766
95.2524
116.808
137.873
168.463
177.933
180.179
71.7451
8.8074
9.10357
9.94963
11.2645
12.9657
15.0966
17.7465
21.0168
25.2949
30.4902
36.8609
44.5013
53.8936
65.0765
79.1521
94.997
116.268
136.909
166.575
175.19
174.554
69.4167
8.80687
9.10297
9.94884
11.2633
12.9639
15.0938
17.7422
21.0069
25.2365
30.4424
36.834
44.4853
53.8652
65.0129
79.0212
94.7297
115.703
135.902
164.6
172.369
168.865
67.1278
8.80631
9.10233
9.948
11.262
12.962
15.0909
17.7377
20.9984
25.1791
30.3855
36.7965
44.4654
53.8366
64.9444
78.8825
94.4489
115.111
134.851
162.537
169.468
163.117
64.8856
8.80571
9.10165
9.9471
11.2607
12.96
15.0877
17.7329
20.9905
25.1259
30.3201
36.7456
44.4392
53.8052
64.8729
78.7358
94.1543
114.49
133.754
160.387
166.486
157.315
62.6929
8.80508
9.10093
9.94616
11.2593
12.9579
15.0844
17.7278
20.9827
25.0792
30.2483
36.6788
44.403
53.7717
64.7958
78.5799
93.8443
113.838
132.609
158.149
163.422
151.464
60.5477
8.80441
9.10017
9.94515
11.2578
12.9556
15.0809
17.7223
20.9746
25.0401
30.1732
36.5945
44.3522
53.7319
64.7148
78.4146
93.5185
113.155
131.414
155.822
160.273
145.573
58.443
8.8037
9.09936
9.94408
11.2562
12.9532
15.0771
17.7165
20.966
25.0082
30.0985
36.4931
44.2808
53.6841
64.6269
78.2384
93.1752
112.438
130.168
153.405
157.038
139.648
56.367
8.80294
9.0985
9.94294
11.2545
12.9507
15.0732
17.7103
20.9569
24.982
30.0279
36.3776
44.1825
53.6204
64.5328
78.0512
92.8139
111.687
128.869
150.9
153.716
133.699
54.3032
8.80214
9.09759
9.94173
11.2528
12.948
15.0689
17.7038
20.9472
24.9598
29.9638
36.2537
44.0525
53.5338
64.4272
77.8511
92.433
110.899
127.514
148.304
150.305
127.738
52.2317
8.80128
9.09662
9.94045
11.2509
12.9451
15.0645
17.6968
20.9367
24.9397
29.9073
36.1283
43.8901
53.4104
64.3069
77.637
92.0319
110.073
126.101
145.619
146.802
121.776
50.1302
8.80037
9.09559
9.93908
11.2488
12.9421
15.0597
17.6894
20.9256
24.9202
29.8581
36.0082
43.7005
53.2393
64.1605
77.4049
91.6087
109.209
124.63
142.843
143.208
115.827
47.9751
8.7994
9.09449
9.93763
11.2467
12.9389
15.0546
17.6816
20.9137
24.9007
29.8145
35.8983
43.4945
53.0096
63.9756
77.1495
91.1619
108.305
123.098
139.979
139.519
109.902
45.7433
8.79837
9.09332
9.93608
11.2444
12.9354
15.0493
17.6732
20.901
24.8804
29.7745
35.8005
43.2862
52.7226
63.7321
76.8594
90.6874
107.361
121.503
137.026
135.736
104.018
43.4129
8.79728
9.09208
9.93443
11.242
12.9317
15.0435
17.6643
20.8875
24.8591
29.7361
35.714
43.088
52.3901
63.4137
76.5182
90.1795
106.374
119.845
133.985
131.857
98.1886
40.9652
8.79611
9.09075
9.93267
11.2394
12.9278
15.0375
17.6549
20.8731
24.8364
29.6976
35.6362
42.9079
52.0362
63.0104
76.1024
89.6269
105.342
118.121
130.859
127.884
92.4283
38.3849
8.79487
9.08934
9.9308
11.2366
12.9237
15.031
17.6448
20.8578
24.8122
29.6579
35.5634
42.7475
51.6865
62.5316
75.5881
89.0135
104.261
116.331
127.649
123.818
86.7516
35.6617
8.79354
9.08784
9.9288
11.2337
12.9193
15.0241
17.6341
20.8415
24.7864
29.6163
35.4922
42.6038
51.3614
62.0033
74.9598
88.3163
103.12
114.472
124.356
119.662
81.1729
32.7908
8.79213
9.08624
9.92667
11.2305
12.9145
15.0168
17.6228
20.8241
24.759
29.5724
35.4198
42.4708
51.0694
61.4633
74.2234
87.5116
101.906
112.544
120.985
115.419
75.7056
29.7732
8.79062
9.08453
9.9244
11.2272
12.9095
15.009
17.6107
20.8056
24.7298
29.5257
35.3445
42.3422
50.8081
60.945
73.4095
86.5828
100.603
110.544
117.541
111.095
70.3629
26.6159
8.78901
9.0827
9.92197
11.2236
12.9041
15.0007
17.5978
20.7859
24.6987
29.4761
35.2652
42.2125
50.5677
60.4671
72.5666
85.5321
99.1923
108.47
114.032
106.698
65.1576
23.3318
8.78729
9.08076
9.91939
11.2198
12.8984
14.9918
17.584
20.7648
24.6655
29.4234
35.1813
42.0779
50.3367
60.03
71.7415
84.3858
97.6629
106.32
110.468
102.238
60.1026
19.9396
8.78546
9.07868
9.91662
11.2158
12.8923
14.9824
17.5694
20.7424
24.6303
29.3674
35.0922
41.9365
50.1045
59.6213
70.9624
83.1888
96.018
104.097
106.869
97.7313
55.2114
16.4626
8.7835
9.07647
9.91367
11.2114
12.8858
14.9723
17.5538
20.7185
24.5927
29.3077
34.9977
41.7869
49.8641
59.2233
70.2321
81.987
94.2785
101.807
103.258
93.1973
50.4988
12.929
8.78141
9.0741
9.91052
11.2068
12.8788
14.9616
17.5372
20.693
24.5527
29.2443
34.8972
41.6285
49.6115
58.82
69.5333
80.8102
92.4783
99.4589
99.6686
88.6638
45.9819
9.3705
8.77917
9.07157
9.90715
11.2019
12.8714
14.9501
17.5195
20.6659
24.51
29.1768
34.7904
41.4606
49.3446
58.4005
68.8408
79.6632
90.6511
97.0668
96.1343
84.1663
41.6803
5.82276
8.77678
9.06887
9.90355
11.1966
12.8635
14.9379
17.5006
20.6369
24.4646
29.105
34.677
41.2824
49.0625
57.959
68.1318
78.5305
88.8191
94.6382
92.6846
79.7466
37.6157
2.32446
8.77423
9.06598
9.8997
11.1909
12.855
14.9248
17.4805
20.606
24.4161
29.0285
34.5564
41.0932
48.7642
57.4931
67.391
77.3862
86.9875
92.171
89.3318
75.449
33.8107
-1.0831
8.77149
9.06289
9.89558
11.1849
12.846
14.9109
17.459
20.573
24.3645
28.9471
34.4282
40.8926
48.4484
57.0016
66.6115
76.2059
85.1455
89.6552
86.0596
71.3107
30.2856
-4.35725
8.76857
9.05958
9.89117
11.1785
12.8363
14.8961
17.4361
20.5377
24.3094
28.8605
34.292
40.6797
48.1143
56.4833
65.7915
74.9731
83.2718
87.0822
82.8224
67.3492
27.0543
-7.45577
8.76544
9.05605
9.88646
11.1716
12.8259
14.8802
17.4116
20.5001
24.2507
28.7682
34.1473
40.4538
47.7608
55.9368
64.9314
73.6816
81.3433
84.4493
79.5611
63.5497
24.1166
-10.3399
8.76209
9.05227
9.88141
11.1642
12.8149
14.8632
17.3855
20.46
24.1882
28.67
33.9935
40.2144
47.387
55.3605
64.0305
72.3316
79.3448
81.7537