/*--------------------------------*- C++ -*----------------------------------*\
| =========                 |                                                 |
| \\      /  F ield         | OpenFOAM: The Open Source CFD Toolbox           |
|  \\    /   O peration     | Version:  v1912                                 |
|   \\  /    A nd           | Website:  www.openfoam.com                      |
|    \\/     M anipulation  |                                                 |
\*---------------------------------------------------------------------------*/
FoamFile
{
    version     2.0;
    format      ascii;
    class       surfaceScalarField;
    location    "370";
    object      phi;
}
// * * * * * * * * * * * * * * * * * * * * * * * * * * * * * * * * * * * * * //

dimensions      [0 3 -1 0 0 0 0];
oriented        oriented;


internalField   nonuniform List<scalar> 
24588
(
6.81684e-05
1.97452e-08
6.8115e-05
5.42792e-08
6.80308e-05
8.37011e-08
6.79163e-05
1.14452e-07
6.77671e-05
1.48677e-07
6.75793e-05
1.87908e-07
6.73467e-05
2.32575e-07
6.70528e-05
2.94125e-07
6.66886e-05
3.64064e-07
6.6234e-05
4.54968e-07
6.56773e-05
5.56208e-07
6.49511e-05
7.1335e-07
6.41152e-05
8.80556e-07
6.29192e-05
1.14689e-06
6.14888e-05
1.44711e-06
5.91707e-05
2.31276e-06
5.62672e-05
2.90527e-06
5.14896e-05
4.77722e-06
4.48105e-05
6.67909e-06
3.36278e-05
1.1183e-05
1.99761e-05
1.36517e-05
1.99761e-05
6.81687e-05
4.00257e-08
6.81148e-05
1.09304e-07
6.80306e-05
1.67209e-07
6.79163e-05
2.28695e-07
6.77672e-05
2.97169e-07
6.75794e-05
3.75845e-07
6.73468e-05
4.65039e-07
6.70528e-05
5.88406e-07
6.66888e-05
7.27897e-07
6.62343e-05
9.09944e-07
6.56767e-05
1.11318e-06
6.49497e-05
1.42582e-06
6.41189e-05
1.76074e-06
6.29115e-05
2.30595e-06
6.14803e-05
2.89564e-06
5.92286e-05
4.55949e-06
5.62811e-05
5.85589e-06
5.14586e-05
9.59937e-06
4.48561e-05
1.32817e-05
3.3531e-05
2.25084e-05
1.99377e-05
2.72451e-05
3.99137e-05
6.81687e-05
6.02961e-08
6.81148e-05
1.64301e-07
6.80306e-05
2.5075e-07
6.79162e-05
3.42971e-07
6.77671e-05
4.45687e-07
6.75794e-05
5.6377e-07
6.73468e-05
6.9749e-07
6.70528e-05
8.82676e-07
6.66888e-05
1.09172e-06
6.6234e-05
1.36521e-06
6.56772e-05
1.66938e-06
6.49485e-05
2.13947e-06
6.41185e-05
2.64262e-06
6.29163e-05
3.45077e-06
6.14819e-05
4.34934e-06
5.92649e-05
6.77009e-06
5.62793e-05
8.84529e-06
5.14789e-05
1.4399e-05
4.48318e-05
1.99288e-05
3.35519e-05
3.37888e-05
1.9958e-05
4.0839e-05
5.98718e-05
6.81687e-05
8.05772e-08
6.81148e-05
2.1928e-07
6.80306e-05
3.34252e-07
6.79163e-05
4.57217e-07
6.77672e-05
5.94165e-07
6.75794e-05
7.517e-07
6.73468e-05
9.29979e-07
6.70528e-05
1.17696e-06
6.66888e-05
1.45558e-06
6.62342e-05
1.82025e-06
6.56765e-05
2.22641e-06
6.495e-05
2.85142e-06
6.41165e-05
3.52494e-06
6.29107e-05
4.61014e-06
6.14729e-05
5.80369e-06
5.92799e-05
8.95823e-06
5.63009e-05
1.18276e-05
5.14931e-05
1.92064e-05
4.48208e-05
2.66013e-05
3.35807e-05
4.50294e-05
1.9992e-05
5.44278e-05
7.98637e-05
6.81687e-05
1.00837e-07
6.81148e-05
2.74208e-07
6.80306e-05
4.17783e-07
6.79163e-05
5.71501e-07
6.77672e-05
7.42666e-07
6.75794e-05
9.39603e-07
6.73468e-05
1.16243e-06
6.70528e-05
1.47122e-06
6.66888e-05
1.81943e-06
6.6234e-05
2.27553e-06
6.56771e-05
2.7827e-06
6.49483e-05
3.56537e-06
6.41162e-05
4.40929e-06
6.29161e-05
5.75272e-06
6.1475e-05
7.26434e-06
5.92913e-05
1.11356e-05
5.6327e-05
1.47958e-05
5.14949e-05
2.40376e-05
4.48386e-05
3.32577e-05
3.36263e-05
5.62422e-05
2.00405e-05
6.80135e-05
9.99043e-05
6.81686e-05
1.21117e-07
6.81148e-05
3.29137e-07
6.80306e-05
5.01264e-07
6.79163e-05
6.85739e-07
6.77672e-05
8.9111e-07
6.75795e-05
1.12751e-06
6.73468e-05
1.39493e-06
6.70528e-05
1.7655e-06
6.66888e-05
2.1833e-06
6.62343e-05
2.73053e-06
6.56764e-05
3.33996e-06
6.49508e-05
4.27656e-06
6.4115e-05
5.29243e-06
6.29108e-05
6.91317e-06
6.14679e-05
8.72288e-06
5.9288e-05
1.33109e-05
5.6341e-05
1.7746e-05
5.15049e-05
2.88733e-05
4.48695e-05
3.98933e-05
3.36916e-05
6.74205e-05
2.01058e-05
8.15994e-05
0.00012001
6.81687e-05
1.4137e-07
6.81148e-05
3.84003e-07
6.80306e-05
5.8478e-07
6.79163e-05
8.00027e-07
6.77672e-05
1.03958e-06
6.75795e-05
1.31539e-06
6.73469e-05
1.62737e-06
6.70529e-05
2.05974e-06
6.66889e-05
2.54718e-06
6.62341e-05
3.18573e-06
6.56771e-05
3.89643e-06
6.49483e-05
4.99096e-06
6.41148e-05
6.17787e-06
6.29173e-05
8.0525e-06
6.14703e-05
1.019e-05
5.92851e-05
1.54898e-05
5.63571e-05
2.06773e-05
5.15255e-05
3.3704e-05
4.49168e-05
4.65019e-05
3.37839e-05
7.85538e-05
2.01906e-05
9.51928e-05
0.000140201
6.81686e-05
1.6165e-07
6.81148e-05
4.38889e-07
6.80307e-05
6.68243e-07
6.79163e-05
9.14253e-07
6.77673e-05
1.18798e-06
6.75795e-05
1.50327e-06
6.73469e-05
1.85986e-06
6.70529e-05
2.35399e-06
6.66889e-05
2.91104e-06
6.62345e-05
3.64062e-06
6.56763e-05
4.45393e-06
6.4952e-05
5.70106e-06
6.41142e-05
7.06056e-06
6.2911e-05
9.21512e-06
6.14553e-05
1.1661e-05
5.92687e-05
1.76728e-05
5.63732e-05
2.35753e-05
5.15716e-05
3.85054e-05
4.49966e-05
5.30771e-05
3.39144e-05
8.96365e-05
2.02989e-05
0.000108808
0.0001605
6.81687e-05
1.81897e-07
6.81148e-05
4.93701e-07
6.80307e-05
7.51746e-07
6.79163e-05
1.02854e-06
6.77673e-05
1.33641e-06
6.75796e-05
1.69111e-06
6.7347e-05
2.09228e-06
6.7053e-05
2.6482e-06
6.6689e-05
3.27491e-06
6.62344e-05
4.09569e-06
6.56772e-05
5.01057e-06
6.49486e-05
6.41594e-06
6.41107e-05
7.95049e-06
6.29145e-05
1.03546e-05
6.14379e-05
1.31545e-05
5.92715e-05
1.98349e-05
5.63805e-05
2.64678e-05
5.16721e-05
4.3213e-05
4.51287e-05
5.96204e-05
3.40941e-05
0.000100671
2.0435e-05
0.000122467
0.000180934
6.81686e-05
2.02177e-07
6.81148e-05
5.48546e-07
6.80307e-05
8.35198e-07
6.79164e-05
1.14275e-06
6.77673e-05
1.48478e-06
6.75796e-05
1.87897e-06
6.7347e-05
2.32476e-06
6.7053e-05
2.94242e-06
6.66891e-05
3.63876e-06
6.62348e-05
4.55033e-06
6.56762e-05
5.56851e-06
6.4954e-05
7.12427e-06
6.41072e-05
8.83793e-06
6.29012e-05
1.15244e-05
6.14095e-05
1.46575e-05
5.92944e-05
2.19486e-05
5.63901e-05
2.93733e-05
5.1828e-05
4.77753e-05
4.53164e-05
6.61322e-05
3.43273e-05
0.000111661
2.06021e-05
0.000136193
0.000201537
6.81687e-05
2.22416e-07
6.81149e-05
6.03305e-07
6.80307e-05
9.18698e-07
6.79164e-05
1.25704e-06
6.77673e-05
1.63317e-06
6.75796e-05
2.06677e-06
6.73471e-05
2.55715e-06
6.70531e-05
3.23659e-06
6.66892e-05
4.00261e-06
6.62348e-05
5.00509e-06
6.56767e-05
6.12611e-06
6.49492e-05
7.83899e-06
6.40903e-05
9.74608e-06
6.28916e-05
1.26775e-05
6.13909e-05
1.61665e-05
5.93254e-05
2.40118e-05
5.64189e-05
3.22802e-05
5.20112e-05
5.21824e-05
4.55374e-05
7.26059e-05
3.46061e-05
0.000122592
2.08016e-05
0.000149997
0.000222338
6.81686e-05
2.42693e-07
6.81148e-05
6.5811e-07
6.80307e-05
1.00215e-06
6.79164e-05
1.37124e-06
6.77674e-05
1.7815e-06
6.75797e-05
2.2546e-06
6.73471e-05
2.78962e-06
6.70532e-05
3.53078e-06
6.66892e-05
4.36644e-06
6.62355e-05
5.45924e-06
6.56752e-05
6.6857e-06
6.49531e-05
8.54839e-06
6.40751e-05
1.06568e-05
6.28894e-05
1.38418e-05
6.13823e-05
1.76782e-05
5.9354e-05
2.60402e-05
5.64589e-05
3.5176e-05
5.21815e-05
5.646e-05
4.57615e-05
7.9026e-05
3.4915e-05
0.000133439
2.10323e-05
0.00016388
0.000243371
6.81687e-05
2.62923e-07
6.81149e-05
7.12819e-07
6.80307e-05
1.08565e-06
6.79164e-05
1.48552e-06
6.77674e-05
1.92987e-06
6.75797e-05
2.44236e-06
6.73472e-05
3.02196e-06
6.70533e-05
3.82491e-06
6.66893e-05
4.73027e-06
6.62359e-05
5.91316e-06
6.5674e-05
7.24707e-06
6.49475e-05
9.26374e-06
6.40541e-05
1.15877e-05
6.28968e-05
1.4979e-05
6.13814e-05
1.91959e-05
5.93759e-05
2.80447e-05
5.64975e-05
3.80543e-05
5.23178e-05
6.06394e-05
4.59695e-05
8.53741e-05
3.5238e-05
0.00014417
2.12907e-05
0.000177827
0.000264661
6.81686e-05
2.83195e-07
6.81148e-05
7.67583e-07
6.80307e-05
1.16911e-06
6.79164e-05
1.5997e-06
6.77674e-05
2.07815e-06
6.75798e-05
2.63015e-06
6.73472e-05
3.2544e-06
6.70533e-05
4.11906e-06
6.66894e-05
5.09408e-06
6.62366e-05
6.36634e-06
6.56702e-05
7.81286e-06
6.49447e-05
9.97924e-06
6.40515e-05
1.24965e-05
6.29029e-05
1.61227e-05
6.13823e-05
2.0718e-05
5.93903e-05
3.00372e-05
5.65286e-05
4.09162e-05
5.24207e-05
6.47475e-05
4.6155e-05
9.16399e-05
3.55637e-05
0.000154762
2.15726e-05
0.000191818
0.000286234
6.81687e-05
3.03414e-07
6.81149e-05
8.22239e-07
6.80307e-05
1.25263e-06
6.79164e-05
1.71398e-06
6.77674e-05
2.22649e-06
6.75798e-05
2.81788e-06
6.73473e-05
3.4867e-06
6.70534e-05
4.41314e-06
6.66895e-05
5.4579e-06
6.62371e-05
6.81922e-06
6.56655e-05
8.38393e-06
6.49363e-05
1.07007e-05
6.405e-05
1.33987e-05
6.29054e-05
1.72596e-05
6.13835e-05
2.22404e-05
5.93994e-05
3.20206e-05
5.65517e-05
4.37638e-05
5.24985e-05
6.88004e-05
4.63182e-05
9.78201e-05
3.58848e-05
0.000165195
2.18735e-05
0.000205829
0.000308107
6.81686e-05
3.23679e-07
6.81148e-05
8.76962e-07
6.80307e-05
1.33609e-06
6.79164e-05
1.82815e-06
6.77675e-05
2.37474e-06
6.75799e-05
3.00563e-06
6.73474e-05
3.71909e-06
6.70535e-05
4.70723e-06
6.66896e-05
5.82173e-06
6.62376e-05
7.27159e-06
6.56579e-05
8.96304e-06
6.4934e-05
1.14187e-05
6.40491e-05
1.42862e-05
6.29058e-05
1.84031e-05
6.13846e-05
2.37622e-05
5.94049e-05
3.40007e-05
5.65681e-05
4.66008e-05
5.25588e-05
7.28099e-05
4.64619e-05
0.000103917
3.61978e-05
0.000175459
2.21897e-05
0.000219837
0.000330297
6.81687e-05
3.43885e-07
6.81149e-05
9.31567e-07
6.80308e-05
1.41963e-06
6.79164e-05
1.94243e-06
6.77675e-05
2.52305e-06
6.75799e-05
3.19331e-06
6.73475e-05
3.95133e-06
6.70537e-05
5.00125e-06
6.66897e-05
6.18561e-06
6.62381e-05
7.72354e-06
6.56469e-05
9.55387e-06
6.49364e-05
1.21262e-05
6.40473e-05
1.51821e-05
6.29058e-05
1.95408e-05
6.13855e-05
2.52826e-05
5.94082e-05
3.59774e-05
5.65798e-05
4.94291e-05
5.26076e-05
7.67818e-05
4.65899e-05
0.000109935
3.65017e-05
0.000185548
2.25181e-05
0.000233821
0.000352815
6.81686e-05
3.64143e-07
6.81148e-05
9.86249e-07
6.80307e-05
1.50312e-06
6.79165e-05
2.05658e-06
6.77675e-05
2.67127e-06
6.758e-05
3.38102e-06
6.73475e-05
4.18368e-06
6.70537e-05
5.29526e-06
6.66897e-05
6.5495e-06
6.62387e-05
8.17491e-06
6.56371e-05
1.01551e-05
6.49402e-05
1.28212e-05
6.4046e-05
1.60755e-05
6.29056e-05
2.06825e-05
6.13863e-05
2.68022e-05
5.94102e-05
3.79539e-05
5.65882e-05
5.22513e-05
5.2649e-05
8.07212e-05
4.67057e-05
0.000115878
3.67967e-05
0.000195457
2.28566e-05
0.000247761
0.000375672
6.81687e-05
3.84334e-07
6.81149e-05
1.0408e-06
6.80308e-05
1.58668e-06
6.79165e-05
2.17085e-06
6.77675e-05
2.81955e-06
6.758e-05
3.56865e-06
6.73476e-05
4.41586e-06
6.70539e-05
5.58917e-06
6.66899e-05
6.91338e-06
6.62384e-05
8.62683e-06
6.56316e-05
1.07615e-05
6.49422e-05
1.351e-05
6.40451e-05
1.69763e-05
6.29056e-05
2.18194e-05
6.13872e-05
2.83206e-05
5.94114e-05
3.99293e-05
5.65946e-05
5.50679e-05
5.26861e-05
8.46295e-05
4.68126e-05
0.000121752
3.7084e-05
0.000205185
2.32038e-05
0.000261641
0.000398876
6.81686e-05
4.04583e-07
6.81149e-05
1.09544e-06
6.80308e-05
1.67018e-06
6.79165e-05
2.28499e-06
6.77676e-05
2.96773e-06
6.75801e-05
3.75632e-06
6.73477e-05
4.64815e-06
6.7054e-05
5.88308e-06
6.66901e-05
7.27712e-06
6.62345e-05
9.08284e-06
6.5632e-05
1.13637e-05
6.49429e-05
1.41985e-05
6.40446e-05
1.7873e-05
6.29057e-05
2.29598e-05
6.13881e-05
2.98384e-05
5.94122e-05
4.19055e-05
5.66002e-05
5.788e-05
5.27212e-05
8.85086e-05
4.69136e-05
0.000127559
3.73653e-05
0.000214734
2.35591e-05
0.000275448
0.000422435
6.81687e-05
4.24759e-07
6.81149e-05
1.14994e-06
6.80308e-05
1.75377e-06
6.79165e-05
2.39925e-06
6.77676e-05
3.11599e-06
6.75801e-05
3.9439e-06
6.73478e-05
4.88025e-06
6.70542e-05
6.17692e-06
6.66905e-05
7.64065e-06
6.62255e-05
9.54832e-06
6.56374e-05
1.19517e-05
6.49431e-05
1.48927e-05
6.40445e-05
1.87743e-05
6.2906e-05
2.40962e-05
6.13892e-05
3.1355e-05
5.94133e-05
4.38811e-05
5.66058e-05
6.06874e-05
5.2756e-05
9.23582e-05
4.70111e-05
0.000133304
3.76427e-05
0.000224102
2.39223e-05
0.000289168
0.000446357
6.81686e-05
4.44998e-07
6.81149e-05
1.20454e-06
6.80308e-05
1.83729e-06
6.79165e-05
2.51337e-06
6.77677e-05
3.26413e-06
6.75802e-05
4.13152e-06
6.73479e-05
5.11245e-06
6.70542e-05
6.4708e-06
6.6691e-05
8.00378e-06
6.62156e-05
1.0024e-05
6.56437e-05
1.25235e-05
6.49433e-05
1.55929e-05
6.40446e-05
1.96714e-05
6.29064e-05
2.52357e-05
6.13907e-05
3.2871e-05
5.94149e-05
4.58573e-05
5.66121e-05
6.34903e-05
5.27917e-05
9.61788e-05
4.7107e-05
0.000138989
3.79183e-05
0.000233291
2.42939e-05
0.000302792
0.000470651
6.81687e-05
4.65158e-07
6.8115e-05
1.25899e-06
6.80308e-05
1.9209e-06
6.79165e-05
2.62763e-06
6.77677e-05
3.41235e-06
6.75802e-05
4.31906e-06
6.7348e-05
5.34443e-06
6.70544e-05
6.76462e-06
6.66914e-05
8.36663e-06
6.62086e-05
1.05072e-05
6.5648e-05
1.30841e-05
6.49434e-05
1.62974e-05
6.40448e-05
2.05721e-05
6.29072e-05
2.63716e-05
6.13925e-05
3.43855e-05
5.94174e-05
4.7832e-05
5.66199e-05
6.62877e-05
5.28292e-05
9.99693e-05
4.72029e-05
0.000144615
3.81945e-05
0.000242299
2.46746e-05
0.000316312
0.000495326
6.81686e-05
4.85387e-07
6.81149e-05
1.31355e-06
6.80308e-05
2.00445e-06
6.79166e-05
2.74172e-06
6.77678e-05
3.56045e-06
6.75803e-05
4.50663e-06
6.73481e-05
5.57654e-06
6.70545e-05
7.05843e-06
6.66918e-05
8.72922e-06
6.62049e-05
1.09945e-05
6.56504e-05
1.36385e-05
6.49438e-05
1.70039e-05
6.40453e-05
2.1469e-05
6.29081e-05
2.75102e-05
6.1395e-05
3.58989e-05
5.94213e-05
4.9806e-05
5.66295e-05
6.90796e-05
5.28688e-05
0.00010373
4.72998e-05
0.000150184
3.84736e-05
0.000251126
2.50654e-05
0.00032972
0.000520391
6.81687e-05
5.05531e-07
6.8115e-05
1.36795e-06
6.80309e-05
2.08808e-06
6.79166e-05
2.85597e-06
6.77677e-05
3.70864e-06
6.75803e-05
4.6941e-06
6.73482e-05
5.80844e-06
6.70548e-05
7.35206e-06
6.6692e-05
9.09196e-06
6.6203e-05
1.14838e-05
6.56516e-05
1.41899e-05
6.49442e-05
1.77114e-05
6.4046e-05
2.23691e-05
6.29094e-05
2.8645e-05
6.1398e-05
3.74102e-05
5.94267e-05
5.17769e-05
5.66414e-05
7.18648e-05
5.29108e-05
0.000107461
4.73987e-05
0.000155696
3.87577e-05
0.000259767
2.54675e-05
0.000343011
0.000545858
6.81686e-05
5.25749e-07
6.81149e-05
1.42246e-06
6.80308e-05
2.17165e-06
6.79166e-05
2.97004e-06
6.77678e-05
3.85671e-06
6.75804e-05
4.8816e-06
6.73483e-05
6.04051e-06
6.7055e-05
7.64554e-06
6.66907e-05
9.45619e-06
6.62029e-05
1.19718e-05
6.56525e-05
1.47403e-05
6.49447e-05
1.84191e-05
6.40468e-05
2.32655e-05
6.2911e-05
2.97821e-05
6.14019e-05
3.89195e-05
5.94339e-05
5.37452e-05
5.66557e-05
7.46432e-05
5.29552e-05
0.000111161
4.75001e-05
0.000161151
3.90492e-05
0.000268217
2.58825e-05
0.000356177
0.000571741
6.81687e-05
5.45877e-07
6.8115e-05
1.47681e-06
6.80309e-05
2.25531e-06
6.79166e-05
3.08427e-06
6.77678e-05
4.00487e-06
6.75805e-05
5.06899e-06
6.73484e-05
6.2724e-06
6.70554e-05
7.93867e-06
6.66855e-05
9.82601e-06
6.62062e-05
1.24515e-05
6.56531e-05
1.52934e-05
6.49452e-05
1.9127e-05
6.40477e-05
2.41647e-05
6.2913e-05
3.09152e-05
6.14065e-05
4.04259e-05
5.94429e-05
5.57084e-05
5.66725e-05
7.74136e-05
5.3002e-05
0.000114831
4.76043e-05
0.000166549
3.935e-05
0.000276472
2.63119e-05
0.000369215
0.000598053
6.81686e-05
5.66084e-07
6.81149e-05
1.53128e-06
6.80309e-05
2.33889e-06
6.79167e-05
3.19832e-06
6.77679e-05
4.1529e-06
6.75806e-05
5.25639e-06
6.73484e-05
6.50451e-06
6.70558e-05
8.23146e-06
6.66781e-05
1.02037e-05
6.62114e-05
1.29183e-05
6.56538e-05
1.58509e-05
6.49459e-05
1.98348e-05
6.40489e-05
2.50603e-05
6.29154e-05
3.205e-05
6.1412e-05
4.19295e-05
5.94537e-05
5.76671e-05
5.66918e-05
8.01756e-05
5.30511e-05
0.000118472
4.77114e-05
0.000171889
3.9662e-05
0.000284521
2.67572e-05
0.00038212
0.00062481
6.81687e-05
5.86196e-07
6.8115e-05
1.58558e-06
6.80309e-05
2.42258e-06
6.79166e-05
3.31253e-06
6.77679e-05
4.30105e-06
6.75807e-05
5.44367e-06
6.73485e-05
6.73642e-06
6.70563e-05
8.52384e-06
6.66723e-05
1.05876e-05
6.62155e-05
1.33753e-05
6.56545e-05
1.64119e-05
6.49466e-05
2.05427e-05
6.40501e-05
2.59585e-05
6.29182e-05
3.31803e-05
6.14184e-05
4.34291e-05
5.94662e-05
5.96189e-05
5.67137e-05
8.2928e-05
5.31027e-05
0.000122083
4.78216e-05
0.00017717
3.99863e-05
0.000292357
2.72198e-05
0.000394887
0.00065203
6.81686e-05
6.06392e-07
6.81149e-05
1.64001e-06
6.80309e-05
2.50618e-06
6.79167e-05
3.42655e-06
6.7768e-05
4.44904e-06
6.75808e-05
5.63098e-06
6.73486e-05
6.96852e-06
6.70567e-05
8.816e-06
6.66686e-05
1.09757e-05
6.62182e-05
1.38256e-05
6.56552e-05
1.69749e-05
6.49475e-05
2.12503e-05
6.40516e-05
2.68529e-05
6.29214e-05
3.43119e-05
6.14256e-05
4.49251e-05
5.94802e-05
6.15646e-05
5.67381e-05
8.56702e-05
5.31566e-05
0.000125665
4.79346e-05
0.000182392
4.0324e-05
0.000299967
2.7701e-05
0.00040751
0.000679731
6.81687e-05
6.26488e-07
6.8115e-05
1.69426e-06
6.80309e-05
2.58988e-06
6.79167e-05
3.54075e-06
6.7768e-05
4.59715e-06
6.75808e-05
5.81817e-06
6.73488e-05
7.20036e-06
6.7057e-05
9.10795e-06
6.66665e-05
1.13661e-05
6.62204e-05
1.42718e-05
6.5656e-05
1.75393e-05
6.49484e-05
2.1958e-05
6.40532e-05
2.77497e-05
6.29249e-05
3.54386e-05
6.14335e-05
4.64164e-05
5.94957e-05
6.3502e-05
5.67651e-05
8.84007e-05
5.3213e-05
0.000129217
4.80504e-05
0.000187554
4.06754e-05
0.000307342
2.82017e-05
0.000419983
0.000707933
6.81686e-05
6.46674e-07
6.81149e-05
1.74865e-06
6.80309e-05
2.6735e-06
6.79168e-05
3.65473e-06
6.77681e-05
4.74509e-06
6.75809e-05
6.00541e-06
6.73489e-05
7.43234e-06
6.70572e-05
9.39991e-06
6.66654e-05
1.17579e-05
6.62222e-05
1.4715e-05
6.56568e-05
1.81046e-05
6.49493e-05
2.26654e-05
6.4055e-05
2.86426e-05
6.29289e-05
3.65661e-05
6.14421e-05
4.79034e-05
5.95126e-05
6.54319e-05
5.67946e-05
9.11188e-05
5.3272e-05
0.000132739
4.81687e-05
0.000192658
4.10403e-05
0.000314471
2.87226e-05
0.000432301
0.000736655
6.81687e-05
6.66755e-07
6.81151e-05
1.80286e-06
6.8031e-05
2.75722e-06
6.79167e-05
3.76892e-06
6.77681e-05
4.89316e-06
6.7581e-05
6.19254e-06
6.73491e-05
7.66397e-06
6.70574e-05
9.69187e-06
6.6665e-05
1.21502e-05
6.62238e-05
1.51562e-05
6.56577e-05
1.86708e-05
6.49504e-05
2.33728e-05
6.40569e-05
2.95377e-05
6.29331e-05
3.76883e-05
6.14513e-05
4.9385e-05
5.95309e-05
6.73519e-05
5.68267e-05
9.38229e-05
5.33338e-05
0.000136232
4.82895e-05
0.000197702
4.14186e-05
0.000321342
2.92638e-05
0.000444456
0.000765919
6.81686e-05
6.86932e-07
6.8115e-05
1.85721e-06
6.80309e-05
2.84084e-06
6.79168e-05
3.88286e-06
6.77682e-05
5.04104e-06
6.75811e-05
6.37973e-06
6.73494e-05
7.89568e-06
6.70574e-05
9.98405e-06
6.6665e-05
1.25425e-05
6.62254e-05
1.55958e-05
6.56587e-05
1.92375e-05
6.49515e-05
2.40798e-05
6.4059e-05
3.04288e-05
6.29377e-05
3.8811e-05
6.14612e-05
5.08617e-05
5.95504e-05
6.92631e-05
5.68613e-05
9.6512e-05
5.33984e-05
0.000139695
4.8413e-05
0.000202687
4.18098e-05
0.000327945
2.98257e-05
0.00045644
0.000795745
6.81687e-05
7.06999e-07
6.81151e-05
1.91139e-06
6.8031e-05
2.92458e-06
6.79168e-05
3.99703e-06
6.77682e-05
5.18905e-06
6.75811e-05
6.56683e-06
6.73496e-05
8.12695e-06
6.70574e-05
1.02764e-05
6.66652e-05
1.29347e-05
6.62269e-05
1.60341e-05
6.56596e-05
1.98048e-05
6.49527e-05
2.47868e-05
6.40612e-05
3.13217e-05
6.29426e-05
3.9928e-05
6.14715e-05
5.23325e-05
5.95711e-05
7.11631e-05
5.68985e-05
9.91845e-05
5.3466e-05
0.000143128
4.85393e-05
0.000207614
4.22135e-05
0.000334271
3.04083e-05
0.000468245
0.000826153
6.81686e-05
7.27167e-07
6.8115e-05
1.9657e-06
6.8031e-05
3.00821e-06
6.79169e-05
4.11095e-06
6.77683e-05
5.33686e-06
6.75812e-05
6.754e-06
6.73499e-05
8.35825e-06
6.70571e-05
1.05695e-05
6.66656e-05
1.3326e-05
6.62284e-05
1.64713e-05
6.56606e-05
2.03726e-05
6.4954e-05
2.54934e-05
6.40636e-05
3.22108e-05
6.29477e-05
4.10453e-05
6.14824e-05
5.3798e-05
5.9593e-05
7.3053e-05
5.69382e-05
0.000101839
5.35369e-05
0.000146529
4.86688e-05
0.000212482
4.26296e-05
0.00034031
3.10117e-05
0.000479863
0.000857165
6.81687e-05
7.47223e-07
6.81151e-05
2.01983e-06
6.8031e-05
3.09195e-06
6.79169e-05
4.2251e-06
6.77683e-05
5.4848e-06
6.75813e-05
6.94109e-06
6.73503e-05
8.58903e-06
6.70541e-05
1.08658e-05
6.66684e-05
1.37117e-05
6.62298e-05
1.69099e-05
6.56617e-05
2.09408e-05
6.49553e-05
2.61998e-05
6.40661e-05
3.31014e-05
6.29531e-05
4.21565e-05
6.14938e-05
5.52571e-05
5.9616e-05
7.49304e-05
5.69804e-05
0.000104475
5.36112e-05
0.000149898
4.88019e-05
0.000217291
4.30582e-05
0.000346054
3.16364e-05
0.000491285
0.000888801
6.81686e-05
7.67384e-07
6.8115e-05
2.07411e-06
6.8031e-05
3.17558e-06
6.79169e-05
4.33898e-06
6.77685e-05
5.63252e-06
6.75814e-05
7.12824e-06
6.73505e-05
8.8199e-06
6.70444e-05
1.11721e-05
6.66776e-05
1.40784e-05
6.62312e-05
1.73563e-05
6.56628e-05
2.15092e-05
6.49567e-05
2.69058e-05
6.40687e-05
3.39881e-05
6.29587e-05
4.3268e-05
6.15057e-05
5.67104e-05
5.96401e-05
7.67964e-05
5.7025e-05
0.00010709
5.36893e-05
0.000153234
4.89391e-05
0.000222041
4.34999e-05
0.000351493
3.22829e-05
0.000502502
0.000921084
6.81687e-05
7.87425e-07
6.81151e-05
2.12819e-06
6.80311e-05
3.25932e-06
6.79169e-05
4.45311e-06
6.77685e-05
5.78041e-06
6.75815e-05
7.31524e-06
6.73507e-05
9.05046e-06
6.7038e-05
1.14849e-05
6.66844e-05
1.4432e-05
6.62324e-05
1.78083e-05
6.56638e-05
2.20777e-05
6.49581e-05
2.76115e-05
6.40714e-05
3.48763e-05
6.29646e-05
4.43731e-05
6.1518e-05
5.81568e-05
5.96652e-05
7.86487e-05
5.7072e-05
0.000109683
5.37712e-05
0.000156535
4.90807e-05
0.000226732
4.39549e-05
0.000356619
3.29518e-05
0.000513505
0.000954036
6.81686e-05
8.07578e-07
6.8115e-05
2.18243e-06
6.80311e-05
3.34295e-06
6.7917e-05
4.56695e-06
6.77686e-05
5.92809e-06
6.75817e-05
7.50222e-06
6.73507e-05
9.28138e-06
6.70361e-05
1.17998e-05
6.66869e-05
1.47813e-05
6.62335e-05
1.82616e-05
6.56649e-05
2.26463e-05
6.49596e-05
2.83168e-05
6.40742e-05
3.57604e-05
6.29706e-05
4.54782e-05
6.15307e-05
5.9597e-05
5.96914e-05
8.04885e-05
5.71211e-05
0.000112253
5.38575e-05
0.000159798
4.92268e-05
0.000231363
4.44233e-05
0.000361422
3.36435e-05
0.000524285
0.000987679
6.81687e-05
8.2762e-07
6.81151e-05
2.23649e-06
6.80311e-05
3.42669e-06
6.7917e-05
4.68103e-06
6.77686e-05
6.07595e-06
6.75819e-05
7.68893e-06
6.73494e-05
9.51366e-06
6.70361e-05
1.21131e-05
6.66879e-05
1.51295e-05
6.62345e-05
1.8715e-05
6.5666e-05
2.32148e-05
6.49611e-05
2.90218e-05
6.4077e-05
3.66463e-05
6.29769e-05
4.65764e-05
6.15439e-05
6.10296e-05
5.97185e-05
8.23134e-05
5.71724e-05
0.000114799
5.39483e-05
0.000163022
4.93771e-05
0.000235934
4.49035e-05
0.000365896
3.43576e-05
0.000534831
0.00102204
6.81686e-05
8.47756e-07
6.8115e-05
2.29068e-06
6.80311e-05
3.51034e-06
6.79171e-05
4.79481e-06
6.77686e-05
6.22375e-06
6.75825e-05
7.87509e-06
6.73388e-05
9.75727e-06
6.70414e-05
1.24106e-05
6.66884e-05
1.54826e-05
6.62354e-05
1.9168e-05
6.56671e-05
2.37831e-05
6.49627e-05
2.97261e-05
6.408e-05
3.75274e-05
6.29833e-05
4.76749e-05
6.15574e-05
6.24558e-05
5.97464e-05
8.41249e-05
5.72256e-05
0.00011732
5.40441e-05
0.000166204
4.95312e-05
0.000240447
4.53912e-05
0.000370036
3.50908e-05
0.000545131
0.00105713
6.81687e-05
8.67776e-07
6.81152e-05
2.34466e-06
6.80312e-05
3.5941e-06
6.79171e-05
4.90881e-06
6.77685e-05
6.37183e-06
6.7583e-05
8.06065e-06
6.73308e-05
1.00092e-05
6.70458e-05
1.26956e-05
6.66887e-05
1.58396e-05
6.62361e-05
1.96206e-05
6.56682e-05
2.4351e-05
6.49642e-05
3.04301e-05
6.40829e-05
3.84105e-05
6.29898e-05
4.8766e-05
6.15714e-05
6.38739e-05
5.97752e-05
8.59205e-05
5.72804e-05
0.000119815
5.41453e-05
0.000169339
4.96889e-05
0.000244903
4.5877e-05
0.000373848
3.58355e-05
0.000555173
0.00109296
6.81685e-05
8.87886e-07
6.8115e-05
2.39886e-06
6.80311e-05
3.67772e-06
6.79172e-05
5.02248e-06
6.77686e-05
6.51957e-06
6.75832e-05
8.24611e-06
6.73285e-05
1.02638e-05
6.70467e-05
1.29774e-05
6.66889e-05
1.61975e-05
6.62367e-05
2.00727e-05
6.56692e-05
2.49186e-05
6.49658e-05
3.11334e-05
6.40859e-05
3.92888e-05
6.29965e-05
4.98572e-05
6.15856e-05
6.52851e-05
5.98047e-05
8.77018e-05
5.73366e-05
0.000122283
5.4253e-05
0.000172423
4.98492e-05
0.000249307
4.63575e-05
0.000377339
3.6671e-05
0.000564859
0.00112963
-2.22831e-06
2.22829e-06
-5.12888e-06
2.90056e-06
-6.184e-06
1.05511e-06
-5.31339e-06
-8.70646e-07
-3.96641e-06
-1.34736e-06
-3.0325e-06
-9.33886e-07
-2.59774e-06
-4.34793e-07
-2.47768e-06
-1.19801e-07
-2.34613e-06
-1.30079e-07
-2.26003e-06
-8.39689e-08
-2.26576e-06
1.11602e-08
-2.08231e-06
-1.88541e-07
-1.5745e-06
-5.07095e-07
-7.48588e-07
-8.27221e-07
4.97204e-07
-1.24898e-06
2.46632e-06
-1.9717e-06
5.4367e-06
-2.96963e-06
9.24155e-06
-3.80393e-06
1.3322e-05
-4.07616e-06
1.72153e-05
-3.89514e-06
2.08356e-05
-3.61891e-06
2.42141e-05
-3.37946e-06
2.73769e-05
-3.16341e-06
3.03801e-05
-3.0025e-06
3.32686e-05
-2.88708e-06
3.61616e-05
-2.89351e-06
3.91256e-05
-2.96469e-06
4.15259e-05
-2.40175e-06
4.41776e-05
-2.63837e-06
5.40276e-05
-9.8642e-06
6.49606e-05
-1.09332e-05
6.74544e-05
-2.49282e-06
6.74726e-05
-1.84447e-08
6.75239e-05
-5.11456e-08
-6.17204e-08
-2.17311e-06
4.40136e-06
-5.05525e-06
5.78267e-06
-6.09847e-06
2.0983e-06
-5.23404e-06
-1.73516e-06
-3.89439e-06
-2.6877e-06
-2.97689e-06
-1.85133e-06
-2.55641e-06
-8.55322e-07
-2.45445e-06
-2.21253e-07
-2.33384e-06
-2.47902e-07
-2.24438e-06
-1.69318e-07
-2.2412e-06
1.68297e-08
-2.05038e-06
-3.8754e-07
-1.52838e-06
-1.02772e-06
-6.8004e-07
-1.67814e-06
5.66917e-07
-2.50233e-06
2.47902e-06
-3.88911e-06
5.36307e-06
-5.85222e-06
9.12081e-06
-7.55978e-06
1.32127e-05
-8.15977e-06
1.71442e-05
-7.83009e-06
2.07966e-05
-7.26871e-06
2.4184e-05
-6.76856e-06
2.73426e-05
-6.32323e-06
3.03353e-05
-5.99405e-06
3.32138e-05
-5.76271e-06
3.60957e-05
-5.77647e-06
3.90604e-05
-5.93064e-06
4.15044e-05
-4.84868e-06
4.39858e-05
-5.09526e-06
5.35909e-05
-1.94957e-05
6.4704e-05
-2.20466e-05
6.74462e-05
-5.23329e-06
6.74805e-05
-5.30741e-08
6.75259e-05
-9.62829e-08
-1.22468e-07
-2.10907e-06
6.51038e-06
-4.97009e-06
8.64368e-06
-5.99502e-06
3.12321e-06
-5.12265e-06
-2.6076e-06
-3.79553e-06
-4.01548e-06
-2.8998e-06
-2.74702e-06
-2.49796e-06
-1.25722e-06
-2.41129e-06
-3.07477e-07
-2.29428e-06
-3.62373e-07
-2.20319e-06
-2.56666e-07
-2.1986e-06
2.1306e-08
-2.00117e-06
-5.93629e-07
-1.45861e-06
-1.56887e-06
-5.81604e-07
-2.55782e-06
6.58648e-07
-3.74912e-06
2.50234e-06
-5.73829e-06
5.30127e-06
-8.64952e-06
9.02194e-06
-1.12785e-05
1.31342e-05
-1.22632e-05
1.71093e-05
-1.18089e-05
2.07956e-05
-1.09523e-05
2.41938e-05
-1.01685e-05
2.73464e-05
-9.47705e-06
3.03275e-05
-8.97391e-06
3.31941e-05
-8.62645e-06
3.60627e-05
-8.64616e-06
3.90237e-05
-8.8929e-06
4.15055e-05
-7.33327e-06
4.38501e-05
-7.41473e-06
5.32152e-05
-2.88864e-05
6.44656e-05
-3.32973e-05
6.74375e-05
-8.2036e-06
6.74879e-05
-1.03803e-07
6.75279e-05
-1.36014e-07
-1.82197e-07
-2.03433e-06
8.54467e-06
-4.87394e-06
1.14833e-05
-5.86986e-06
4.11909e-06
-4.9794e-06
-3.49814e-06
-3.66571e-06
-5.32984e-06
-2.79698e-06
-3.6157e-06
-2.41635e-06
-1.63788e-06
-2.34418e-06
-3.79138e-07
-2.2304e-06
-4.73471e-07
-2.14089e-06
-3.42084e-07
-2.13672e-06
2.50692e-08
-1.93098e-06
-8.06866e-07
-1.36434e-06
-2.13394e-06
-4.54141e-07
-3.4711e-06
7.82132e-07
-4.99315e-06
2.55413e-06
-7.51727e-06
5.26026e-06
-1.13537e-05
8.94096e-06
-1.49566e-05
1.308e-05
-1.63915e-05
1.71091e-05
-1.58422e-05
2.0836e-05
-1.46763e-05
2.42468e-05
-1.35813e-05
2.73929e-05
-1.26245e-05
3.03599e-05
-1.19396e-05
3.32115e-05
-1.14749e-05
3.60636e-05
-1.14994e-05
3.90166e-05
-1.18473e-05
4.15325e-05
-9.85247e-06
4.37671e-05
-9.62343e-06
5.28986e-05
-3.80448e-05
6.42443e-05
-4.46433e-05
6.7428e-05
-1.13854e-05
6.74951e-05
-1.7122e-07
6.753e-05
-1.70643e-07
-2.40902e-07
-1.94862e-06
1.04932e-05
-4.76586e-06
1.43005e-05
-5.7202e-06
5.07339e-06
-4.80263e-06
-4.41578e-06
-3.50469e-06
-6.62841e-06
-2.66863e-06
-4.45171e-06
-2.31216e-06
-1.99441e-06
-2.25377e-06
-4.37095e-07
-2.14341e-06
-5.8146e-07
-2.05676e-06
-4.25063e-07
-2.05209e-06
2.77251e-08
-1.8359e-06
-1.03037e-06
-1.24216e-06
-2.72607e-06
-2.9343e-07
-4.42302e-06
9.45279e-07
-6.23947e-06
2.64604e-06
-9.2251e-06
5.25085e-06
-1.39562e-05
8.88523e-06
-1.85881e-05
1.30571e-05
-2.05511e-05
1.71519e-05
-1.9942e-05
2.09268e-05
-1.84478e-05
2.43516e-05
-1.70082e-05
2.74893e-05
-1.57635e-05
3.04388e-05
-1.48878e-05
3.3271e-05
-1.4304e-05
3.61022e-05
-1.43317e-05
3.90421e-05
-1.47885e-05
4.15883e-05
-1.2402e-05
4.37355e-05
-1.17435e-05
5.26369e-05
-4.69732e-05
6.40386e-05
-5.60453e-05
6.74176e-05
-1.47628e-05
6.75019e-05
-2.55832e-07
6.75321e-05
-2.00581e-07
-2.9858e-07
-1.85148e-06
1.23447e-05
-4.64455e-06
1.70935e-05
-5.54248e-06
5.97129e-06
-4.58953e-06
-5.36882e-06
-3.31106e-06
-7.90752e-06
-2.51386e-06
-5.24886e-06
-2.18486e-06
-2.32342e-06
-2.13969e-06
-4.81725e-07
-2.03343e-06
-6.85052e-07
-1.94973e-06
-5.04496e-07
-1.94173e-06
2.62993e-08
-1.71286e-06
-1.26561e-06
-1.09026e-06
-3.34687e-06
-9.82047e-08
-5.41879e-06
1.153e-06
-7.4998e-06
2.79084e-06
-1.0872e-05
5.29164e-06
-1.64543e-05
8.87289e-06
-2.21654e-05
1.3082e-05
-2.47442e-05
1.72545e-05
-2.41206e-05
2.10846e-05
-2.2274e-05
2.45231e-05
-2.04493e-05
2.76483e-05
-1.88904e-05
3.05744e-05
-1.78122e-05
3.3381e-05
-1.7107e-05
3.61853e-05
-1.71374e-05
3.91058e-05
-1.77106e-05
4.16774e-05
-1.49775e-05
4.37555e-05
-1.37924e-05
5.2426e-05
-5.56732e-05
6.38465e-05
-6.74661e-05
6.74064e-05
-1.83209e-05
6.75084e-05
-3.58139e-07
6.75343e-05
-2.26171e-07
-3.55227e-07
-1.74232e-06
1.4087e-05
-4.50823e-06
1.98594e-05
-5.33194e-06
6.79496e-06
-4.33567e-06
-6.36519e-06
-3.08221e-06
-9.1616e-06
-2.33051e-06
-6.0005e-06
-2.03262e-06
-2.62137e-06
-2.00025e-06
-5.13638e-07
-1.89901e-06
-7.83947e-07
-1.81763e-06
-5.81965e-07
-1.80235e-06
1.66583e-08
-1.55846e-06
-1.5154e-06
-9.05946e-07
-3.99752e-06
1.33942e-07
-6.46254e-06
1.41027e-06
-8.78486e-06
3.00177e-06
-1.24724e-05
5.40684e-06
-1.88564e-05
8.93319e-06
-2.56875e-05
1.31833e-05
-2.89756e-05
1.74448e-05
-2.83896e-05
2.1337e-05
-2.61614e-05
2.47869e-05
-2.39023e-05
2.7891e-05
-2.19963e-05
3.07831e-05
-2.07025e-05
3.3554e-05
-1.9874e-05
3.6323e-05
-1.99079e-05
3.9216e-05
-2.06052e-05
4.18066e-05
-1.75722e-05
4.38296e-05
-1.57838e-05
5.22642e-05
-6.41386e-05
6.36666e-05
-7.88688e-05
6.73944e-05
-2.20471e-05
6.75145e-05
-4.78501e-07
6.75365e-05
-2.47905e-07
-4.10844e-07
-1.62047e-06
1.57074e-05
-4.35464e-06
2.25936e-05
-5.0828e-06
7.52307e-06
-4.03574e-06
-7.41236e-06
-2.81503e-06
-1.0383e-05
-2.11559e-06
-6.69988e-06
-1.8526e-06
-2.88436e-06
-1.83256e-06
-5.33074e-07
-1.73709e-06
-8.7661e-07
-1.6567e-06
-6.57583e-07
-1.62921e-06
-5.47069e-09
-1.36733e-06
-1.7826e-06
-6.83073e-07
-4.67963e-06
4.1043e-07
-7.56071e-06
1.72649e-06
-1.0112e-05
3.29458e-06
-1.40519e-05
5.62522e-06
-2.11833e-05
9.10649e-06
-2.91628e-05
1.34052e-05
-3.32498e-05
1.77677e-05
-3.27614e-05
2.17289e-05
-3.01168e-05
2.51847e-05
-2.7362e-05
2.82523e-05
-2.50663e-05