/*--------------------------------*- C++ -*----------------------------------*\
| =========                 |                                                 |
| \\      /  F ield         | OpenFOAM: The Open Source CFD Toolbox           |
|  \\    /   O peration     | Version:  v1912                                 |
|   \\  /    A nd           | Website:  www.openfoam.com                      |
|    \\/     M anipulation  |                                                 |
\*---------------------------------------------------------------------------*/
FoamFile
{
    version     2.0;
    format      ascii;
    class       volVectorField;
    location    "370";
    object      U;
}
// * * * * * * * * * * * * * * * * * * * * * * * * * * * * * * * * * * * * * //

dimensions      [0 1 -1 0 0 0 0];


internalField   nonuniform List<vector> 
12441
(
(29.9989 1.69638e-05 0)
(29.9855 5.14824e-05 0)
(29.9565 8.89324e-05 0)
(29.9125 0.000136864 0)
(29.8548 0.000199854 0)
(29.7812 0.000283892 0)
(29.69 0.000394607 0)
(29.5757 0.000560972 0)
(29.4329 0.000780063 0)
(29.2556 0.00109523 0)
(29.0322 0.00150689 0)
(28.7655 0.00216675 0)
(28.4068 0.00301452 0)
(27.9822 0.00441435 0)
(27.4155 0.00620829 0)
(26.631 0.011215 0)
(25.5917 0.0149655 0)
(23.9393 0.0312246 0)
(21.6098 0.0525548 0)
(17.9403 0.0911023 0)
(12.1605 0.12242 0)
(5.8381 0.197403 0)
(29.9989 5.04218e-05 0)
(29.9854 0.000154045 0)
(29.9565 0.000265367 0)
(29.9124 0.000408166 0)
(29.8548 0.00059619 0)
(29.7812 0.000847111 0)
(29.6901 0.00117871 0)
(29.5757 0.00167677 0)
(29.4329 0.00233256 0)
(29.2558 0.00327926 0)
(29.0319 0.00450694 0)
(28.7655 0.0064978 0)
(28.407 0.0090178 0)
(27.9817 0.0132507 0)
(27.4128 0.018712 0)
(26.6295 0.0334562 0)
(25.5915 0.0475333 0)
(23.939 0.0895597 0)
(21.6099 0.137243 0)
(17.9384 0.263605 0)
(12.1613 0.359687 0)
(5.84177 0.589536 0)
(29.9989 8.37775e-05 0)
(29.9854 0.000256652 0)
(29.9565 0.000440985 0)
(29.9124 0.000678321 0)
(29.8548 0.000991201 0)
(29.7812 0.00140986 0)
(29.69 0.0019617 0)
(29.5757 0.00279159 0)
(29.4329 0.00388303 0)
(29.2559 0.00545955 0)
(29.0318 0.00750862 0)
(28.7663 0.0108197 0)
(28.4055 0.0150238 0)
(27.9839 0.0220832 0)
(27.4153 0.0312523 0)
(26.6327 0.0548283 0)
(25.5942 0.0808204 0)
(23.9436 0.146077 0)
(21.613 0.219428 0)
(17.9379 0.433787 0)
(12.167 0.593471 0)
(5.84985 0.979701 0)
(29.9989 0.000117562 0)
(29.9854 0.000359989 0)
(29.9565 0.000617477 0)
(29.9124 0.000949774 0)
(29.8548 0.00138795 0)
(29.7812 0.00197454 0)
(29.6901 0.00274711 0)
(29.5757 0.00390949 0)
(29.4329 0.00543728 0)
(29.2559 0.00764611 0)
(29.032 0.0105155 0)
(28.7657 0.0151486 0)
(28.4075 0.0210492 0)
(27.9815 0.0309349 0)
(27.4133 0.0438075 0)
(26.6308 0.0762642 0)
(25.5947 0.113374 0)
(23.9479 0.205597 0)
(21.6213 0.32635 0)
(17.9421 0.611992 0)
(12.1791 0.831219 0)
(5.86266 1.37152 0)
(29.9989 0.000151404 0)
(29.9854 0.000463177 0)
(29.9565 0.000793767 0)
(29.9125 0.001221 0)
(29.8548 0.00178432 0)
(29.7812 0.00253862 0)
(29.6901 0.0035318 0)
(29.5758 0.00502654 0)
(29.433 0.00699053 0)
(29.2559 0.00983119 0)
(29.0319 0.0135203 0)
(28.7665 0.0194773 0)
(28.4055 0.0270802 0)
(27.984 0.0397753 0)
(27.4161 0.0563899 0)
(26.6335 0.0974667 0)
(25.5981 0.145424 0)
(23.9526 0.26587 0)
(21.6322 0.41608 0)
(17.9522 0.78638 0)
(12.1989 1.06874 0)
(5.88051 1.76463 0)
(29.9989 0.000185242 0)
(29.9854 0.000566286 0)
(29.9565 0.000970036 0)
(29.9125 0.00149224 0)
(29.8549 0.00218068 0)
(29.7812 0.00310272 0)
(29.6901 0.00431664 0)
(29.5758 0.00614375 0)
(29.433 0.00854399 0)
(29.256 0.0120164 0)
(29.0322 0.016527 0)
(28.7657 0.0238032 0)
(28.4084 0.0331152 0)
(27.9815 0.0486109 0)
(27.4144 0.0689802 0)
(26.6323 0.118561 0)
(25.5995 0.177212 0)
(23.9565 0.325599 0)
(21.6446 0.504254 0)
(17.9689 0.959456 0)
(12.2281 1.30595 0)
(5.90378 2.15883 0)
(29.9989 0.000219073 0)
(29.9854 0.000669335 0)
(29.9565 0.0011463 0)
(29.9125 0.00176349 0)
(29.8549 0.002577 0)
(29.7812 0.0036668 0)
(29.6902 0.00510146 0)
(29.5758 0.0072609 0)
(29.4331 0.0100975 0)
(29.256 0.0142015 0)
(29.0322 0.019533 0)
(28.7666 0.0281319 0)
(28.4058 0.0391517 0)
(27.9847 0.0574249 0)
(27.4176 0.081567 0)
(26.6352 0.139505 0)
(25.6036 0.208304 0)
(23.9611 0.382826 0)
(21.6616 0.594576 0)
(17.9953 1.13263 0)
(12.2691 1.54325 0)
(5.93296 2.55444 0)
(29.9989 0.000252902 0)
(29.9854 0.000772346 0)
(29.9565 0.00132254 0)
(29.9125 0.00203473 0)
(29.8549 0.00297326 0)
(29.7813 0.00423082 0)
(29.6902 0.00588627 0)
(29.5759 0.00837801 0)
(29.4331 0.011651 0)
(29.2561 0.0163861 0)
(29.0325 0.022541 0)
(28.7658 0.0324545 0)
(28.4097 0.0451888 0)
(27.982 0.0662139 0)
(27.4161 0.0940095 0)
(26.6336 0.160078 0)
(25.6077 0.240959 0)
(23.9666 0.44202 0)
(21.691 0.685987 0)
(18.0379 1.30531 0)
(12.3249 1.78084 0)
(5.96866 2.95192 0)
(29.9989 0.000286728 0)
(29.9854 0.000875306 0)
(29.9565 0.00149877 0)
(29.9125 0.00230596 0)
(29.8549 0.00336947 0)
(29.7813 0.00479481 0)
(29.6902 0.00667104 0)
(29.5759 0.00949506 0)
(29.4332 0.0132045 0)
(29.2562 0.0185707 0)
(29.0325 0.0255478 0)
(28.7667 0.0367835 0)
(28.4062 0.051223 0)
(27.9851 0.0751031 0)
(27.4204 0.106563 0)
(26.6357 0.18106 0)
(25.6161 0.272074 0)
(23.9773 0.50064 0)
(21.7438 0.777085 0)
(18.1041 1.47714 0)
(12.399 2.01901 0)
(6.01152 3.35178 0)
(29.9989 0.000320551 0)
(29.9854 0.000978229 0)
(29.9565 0.00167499 0)
(29.9125 0.00257717 0)
(29.8549 0.00376563 0)
(29.7813 0.00535874 0)
(29.6902 0.00745579 0)
(29.5759 0.010612 0)
(29.4332 0.0147579 0)
(29.2562 0.0207545 0)
(29.033 0.0285566 0)
(28.7657 0.0411025 0)
(28.4118 0.0572775 0)
(27.983 0.0837465 0)
(27.4211 0.119747 0)
(26.635 0.202381 0)
(25.6286 0.303696 0)
(24.0007 0.55737 0)
(21.8215 0.867879 0)
(18.1963 1.6484 0)
(12.4937 2.25813 0)
(6.06219 3.75462 0)
(29.9989 0.00035437 0)
(29.9854 0.0010811 0)
(29.9565 0.0018512 0)
(29.9125 0.00284839 0)
(29.8549 0.00416174 0)
(29.7813 0.00592263 0)
(29.6903 0.0082405 0)
(29.576 0.011729 0)
(29.4333 0.0163113 0)
(29.2563 0.0229379 0)
(29.033 0.0315679 0)
(28.7662 0.045419 0)
(28.4083 0.0633816 0)
(27.9819 0.0923997 0)
(27.4217 0.132238 0)
(26.6351 0.222581 0)
(25.6448 0.336295 0)
(24.0384 0.613371 0)
(21.9103 0.958454 0)
(18.3082 1.81904 0)
(12.6094 2.49853 0)
(6.12132 4.16104 0)
(29.9989 0.000388185 0)
(29.9854 0.00118394 0)
(29.9565 0.00202741 0)
(29.9125 0.00311959 0)
(29.855 0.0045578 0)
(29.7814 0.00648645 0)
(29.6903 0.00902517 0)
(29.576 0.0128458 0)
(29.4334 0.0178648 0)
(29.2564 0.0251194 0)
(29.0336 0.034585 0)
(28.7647 0.0497181 0)
(28.4153 0.0694739 0)
(27.9791 0.101308 0)
(27.4203 0.145669 0)
(26.6365 0.243047 0)
(25.6604 0.368685 0)
(24.0798 0.667687 0)
(21.9933 1.04804 0)
(18.4289 1.98853 0)
(12.7443 2.74034 0)
(6.18938 4.57169 0)
(29.9989 0.000421994 0)
(29.9855 0.00128672 0)
(29.9566 0.00220363 0)
(29.9125 0.00339078 0)
(29.8549 0.00495382 0)
(29.7814 0.00705024 0)
(29.6903 0.00980978 0)
(29.5761 0.0139626 0)
(29.4334 0.019418 0)
(29.2565 0.0272997 0)
(29.0339 0.0376068 0)
(28.7643 0.0540559 0)
(28.4153 0.0755242 0)
(27.9772 0.110371 0)
(27.4195 0.159364 0)
(26.6388 0.26307 0)
(25.6725 0.400536 0)
(24.115 0.720093 0)
(22.0624 1.13626 0)
(18.548 2.15627 0)
(12.895 2.98341 0)
(6.26665 4.98715 0)
(29.9989 0.000455798 0)
(29.9854 0.00138947 0)
(29.9565 0.00237986 0)
(29.9125 0.00366196 0)
(29.855 0.00534979 0)
(29.7814 0.00761395 0)
(29.6904 0.0105943 0)
(29.5761 0.0150793 0)
(29.4335 0.0209712 0)
(29.2565 0.0294789 0)
(29.0346 0.0406522 0)
(28.763 0.0583869 0)
(28.421 0.0819631 0)
(27.9755 0.119508 0)
(27.419 0.172654 0)
(26.641 0.282477 0)
(25.6807 0.431847 0)
(24.1413 0.770993 0)
(22.1177 1.22314 0)
(18.6595 2.32186 0)
(13.0571 3.22744 0)
(6.3531 5.40793 0)
(29.9989 0.000489593 0)
(29.9855 0.00149217 0)
(29.9566 0.00255609 0)
(29.9125 0.00393313 0)
(29.855 0.00574572 0)
(29.7814 0.00817762 0)
(29.6904 0.0113788 0)
(29.5762 0.0161958 0)
(29.4336 0.0225247 0)
(29.2566 0.031653 0)
(29.0351 0.0437291 0)
(28.7624 0.0625895 0)
(28.42 0.0882886 0)
(27.9738 0.128403 0)
(27.4188 0.185799 0)
(26.6428 0.301669 0)
(25.6859 0.462879 0)
(24.1602 0.820876 0)
(22.162 1.30878 0)
(18.7609 2.48504 0)
(13.2268 3.47203 0)
(6.44848 5.83444 0)
(29.9989 0.000523382 0)
(29.9854 0.00159483 0)
(29.9566 0.00273234 0)
(29.9125 0.00420429 0)
(29.855 0.0061416 0)
(29.7815 0.00874121 0)
(29.6904 0.0121632 0)
(29.5763 0.0173124 0)
(29.4336 0.0240775 0)
(29.2567 0.0338292 0)
(29.0356 0.0468187 0)
(28.7618 0.0669239 0)
(28.4185 0.0945685 0)
(27.9725 0.137146 0)
(27.4187 0.198856 0)
(26.6441 0.320809 0)
(25.6889 0.493772 0)
(24.1735 0.870088 0)
(22.1984 1.39329 0)
(18.852 2.64567 0)
(13.4009 3.71676 0)
(6.55236 6.26704 0)
(29.9989 0.00055716 0)
(29.9855 0.00169745 0)
(29.9566 0.00290862 0)
(29.9126 0.00447544 0)
(29.855 0.00653745 0)
(29.7815 0.00930477 0)
(29.6905 0.0129475 0)
(29.5763 0.0184288 0)
(29.4337 0.0256311 0)
(29.2567 0.0359989 0)
(29.0361 0.0499808 0)
(28.7606 0.0712942 0)
(28.4166 0.100752 0)
(27.9717 0.145851 0)
(27.4186 0.211914 0)
(26.6452 0.33994 0)
(25.6905 0.524574 0)
(24.1831 0.918819 0)
(22.2294 1.47676 0)
(18.9337 2.80364 0)
(13.5771 3.96124 0)
(6.66424 6.70598 0)
(29.9989 0.000590931 0)
(29.9855 0.00180002 0)
(29.9566 0.00308491 0)
(29.9126 0.00474657 0)
(29.855 0.00693325 0)
(29.7815 0.00986823 0)
(29.6905 0.0137317 0)
(29.5764 0.0195449 0)
(29.4338 0.0271851 0)
(29.2568 0.0381615 0)
(29.0367 0.0531682 0)
(28.7593 0.0757122 0)
(28.4154 0.106857 0)
(27.9713 0.154548 0)
(27.4185 0.224983 0)
(26.6461 0.359072 0)
(25.6912 0.555311 0)
(24.1902 0.967173 0)
(22.257 1.55924 0)
(19.0077 2.95888 0)
(13.7541 4.20512 0)
(6.78358 7.15147 0)
(29.9989 0.000624692 0)
(29.9855 0.00190255 0)
(29.9566 0.00326122 0)
(29.9126 0.0050177 0)
(29.855 0.00732902 0)
(29.7815 0.0104316 0)
(29.6905 0.0145159 0)
(29.5764 0.0206611 0)
(29.4339 0.0287385 0)
(29.2569 0.0403343 0)
(29.037 0.0563439 0)
(28.7582 0.0800043 0)
(28.4146 0.112957 0)
(27.971 0.163248 0)
(27.4185 0.23806 0)
(26.6469 0.378208 0)
(25.6914 0.585999 0)
(24.1958 1.01521 0)
(22.2826 1.6408 0)
(19.0755 3.11135 0)
(13.9312 4.44809 0)
(6.90988 7.6037 0)
(29.9989 0.000658444 0)
(29.9855 0.00200503 0)
(29.9566 0.00343755 0)
(29.9126 0.00528881 0)
(29.8551 0.00772473 0)
(29.7816 0.010995 0)
(29.6906 0.0152999 0)
(29.5765 0.0217769 0)
(29.434 0.030293 0)
(29.2571 0.0425162 0)
(29.0371 0.0595769 0)
(28.7575 0.0842081 0)
(28.4142 0.119053 0)
(27.971 0.171963 0)
(27.4186 0.25114 0)
(26.6477 0.397351 0)
(25.6914 0.616648 0)
(24.2007 1.06295 0)
(22.3074 1.72146 0)
(19.1386 3.26104 0)
(14.1082 4.68989 0)
(7.0427 8.06284 0)
(29.9989 0.000692184 0)
(29.9855 0.00210747 0)
(29.9566 0.00361391 0)
(29.9126 0.0055599 0)
(29.855 0.00812041 0)
(29.7816 0.0115582 0)
(29.6906 0.0160838 0)
(29.5766 0.0228923 0)
(29.4341 0.0318473 0)
(29.2573 0.0447148 0)
(29.0366 0.0628159 0)
(28.757 0.088404 0)
(28.4139 0.125163 0)
(27.971 0.180683 0)
(27.4187 0.264218 0)
(26.6486 0.416501 0)
(25.6914 0.647269 0)
(24.2054 1.11041 0)
(22.3322 1.80125 0)
(19.1984 3.40793 0)
(14.2855 4.93029 0)
(7.18172 8.52903 0)
(29.9989 0.000725915 0)
(29.9855 0.00220987 0)
(29.9566 0.00379029 0)
(29.9126 0.00583098 0)
(29.8551 0.00851603 0)
(29.7816 0.0121214 0)
(29.6907 0.0168675 0)
(29.5767 0.0240081 0)
(29.4342 0.0333978 0)
(29.2577 0.0469744 0)
(29.0356 0.0660067 0)
(28.7568 0.0926149 0)
(28.4138 0.131279 0)
(27.9712 0.18941 0)
(27.4189 0.277292 0)
(26.6496 0.435659 0)
(25.6917 0.677871 0)
(24.2105 1.15756 0)
(22.3575 1.8802 0)
(19.2563 3.55203 0)
(14.4637 5.16909 0)
(7.32668 9.00243 0)
(29.9989 0.000759634 0)
(29.9855 0.00231222 0)
(29.9566 0.0039667 0)
(29.9126 0.00610205 0)
(29.8551 0.00891161 0)
(29.7816 0.0126846 0)
(29.6907 0.0176511 0)
(29.5768 0.0251237 0)
(29.4343 0.0349471 0)
(29.2581 0.0492762 0)
(29.0348 0.0691625 0)
(28.7568 0.0968581 0)
(28.4139 0.137405 0)
(27.9714 0.198136 0)
(27.4193 0.290361 0)
(26.6508 0.454823 0)
(25.6927 0.708453 0)
(24.2162 1.20435 0)
(22.3837 1.95832 0)
(19.3131 3.69333 0)
(14.6436 5.40614 0)
(7.47743 9.48322 0)
(29.9989 0.000793343 0)
(29.9855 0.00241453 0)
(29.9566 0.00414313 0)
(29.9126 0.00637309 0)
(29.8551 0.00930714 0)
(29.7817 0.0132476 0)
(29.6907 0.0184345 0)
(29.5768 0.0262393 0)
(29.4343 0.0364937 0)
(29.2583 0.0516055 0)
(29.0342 0.0722177 0)
(28.7568 0.101124 0)
(28.4139 0.143533 0)
(27.9717 0.206861 0)
(27.4198 0.303423 0)
(26.6523 0.47399 0)
(25.6945 0.739005 0)
(24.2227 1.25076 0)
(22.4109 2.03563 0)
(19.3697 3.83182 0)
(14.8263 5.64129 0)
(7.63392 9.97158 0)
(29.9989 0.000827039 0)
(29.9855 0.0025168 0)
(29.9566 0.00431959 0)
(29.9126 0.00664412 0)
(29.8551 0.00970263 0)
(29.7817 0.0138106 0)
(29.6908 0.0192176 0)
(29.5769 0.0273548 0)
(29.4345 0.0380376 0)
(29.2582 0.0539138 0)
(29.034 0.0752012 0)
(28.757 0.105404 0)
(28.4141 0.149663 0)
(27.9721 0.215584 0)
(27.4205 0.316477 0)
(26.6542 0.493149 0)
(25.6973 0.769502 0)
(24.2302 1.29677 0)
(22.4393 2.11214 0)
(19.4269 3.96747 0)
(15.013 5.87444 0)
(7.7962 10.4677 0)
(29.9989 0.000860726 0)
(29.9855 0.00261902 0)
(29.9566 0.00449607 0)
(29.9126 0.00691512 0)
(29.8552 0.0100981 0)
(29.7817 0.0143734 0)
(29.6908 0.0200009 0)
(29.5769 0.0284687 0)
(29.4348 0.039597 0)
(29.2579 0.0562017 0)
(29.0339 0.0781536 0)
(28.7572 0.109693 0)
(28.4143 0.155793 0)
(27.9726 0.224303 0)
(27.4214 0.32952 0)
(26.6566 0.512289 0)
(25.7011 0.799916 0)
(24.2388 1.3424 0)
(22.4687 2.18787 0)
(19.4852 4.1002 0)
(15.2049 6.10549 0)
(7.9644 10.9719 0)
(29.9989 0.0008944 0)
(29.9856 0.0027212 0)
(29.9566 0.00467257 0)
(29.9126 0.00718611 0)
(29.8551 0.0104935 0)
(29.7818 0.0149362 0)
(29.6909 0.0207841 0)
(29.577 0.0295835 0)
(29.4351 0.0411648 0)
(29.2573 0.0585831 0)
(29.034 0.0811122 0)
(28.7574 0.113986 0)
(28.4146 0.161922 0)
(27.9732 0.233017 0)
(27.4226 0.342545 0)
(26.6594 0.531394 0)
(25.7061 0.830231 0)
(24.2484 1.38764 0)
(22.4991 2.26281 0)
(19.5449 4.22995 0)
(15.4033 6.33433 0)
(8.13874 11.4843 0)
(29.9988 0.000928065 0)
(29.9855 0.00282333 0)
(29.9566 0.00484909 0)
(29.9126 0.00745707 0)
(29.8552 0.0108888 0)
(29.7818 0.0154987 0)
(29.691 0.021567 0)
(29.577 0.0306973 0)
(29.4355 0.0427427 0)
(29.2564 0.0609227 0)
(29.0342 0.0840949 0)
(28.7576 0.118281 0)
(28.4149 0.168048 0)
(27.9738 0.241725 0)
(27.4239 0.355546 0)
(26.6628 0.550449 0)
(25.7121 0.860443 0)
(24.2593 1.43253 0)
(22.5304 2.33694 0)
(19.6064 4.35659 0)
(15.6093 6.56089 0)
(8.31947 12.0053 0)
(29.9988 0.000961716 0)
(29.9856 0.00292543 0)
(29.9566 0.00502564 0)
(29.9127 0.007728 0)
(29.8552 0.0112842 0)
(29.7818 0.0160611 0)
(29.691 0.0223505 0)
(29.5771 0.0318068 0)
(29.4359 0.0443741 0)
(29.2556 0.06312 0)
(29.0344 0.0871042 0)
(28.7579 0.122578 0)
(28.4152 0.174171 0)
(27.9746 0.250422 0)
(27.4256 0.368519 0)
(26.6666 0.569445 0)
(25.7191 0.890549 0)
(24.2713 1.47705 0)
(22.5626 2.41028 0)
(19.6696 4.47998 0)
(15.824 6.78508 0)
(8.50692 12.5353 0)
(29.9988 0.000995358 0)
(29.9855 0.00302748 0)
(29.9566 0.00520221 0)
(29.9127 0.0079989 0)
(29.8552 0.0116794 0)
(29.7819 0.0166234 0)
(29.6911 0.0231338 0)
(29.5771 0.0329156 0)
(29.4362 0.0460274 0)
(29.2551 0.065292 0)
(29.0347 0.0901336 0)
(28.7582 0.126874 0)
(28.4156 0.180291 0)
(27.9754 0.259108 0)
(27.4274 0.381457 0)
(26.6709 0.588373 0)
(25.7269 0.920546 0)
(24.2847 1.5212 0)
(22.5956 2.48279 0)
(19.7345 4.59997 0)
(16.0481 7.00682 0)
(8.70144 13.0745 0)
(29.9988 0.00102899 0)
(29.9856 0.00312949 0)
(29.9567 0.00537879 0)
(29.9127 0.00826978 0)
(29.8552 0.0120747 0)
(29.7819 0.0171856 0)
(29.6912 0.0239169 0)
(29.5772 0.0340243 0)
(29.4364 0.0476889 0)
(29.2549 0.0674542 0)
(29.035 0.0931749 0)
(28.7586 0.13117 0)
(28.4161 0.186406 0)
(27.9764 0.26778 0)
(27.4295 0.394358 0)
(26.6756 0.607228 0)
(25.7357 0.950423 0)
(24.2994 1.565 0)
(22.6296 2.55449 0)
(19.801 4.71637 0)
(16.282 7.226 0)
(8.90339 13.6233 0)
(29.9988 0.00106261 0)
(29.9855 0.00323145 0)
(29.9566 0.0055554 0)
(29.9127 0.00854062 0)
(29.8553 0.0124698 0)
(29.782 0.0177476 0)
(29.6912 0.0246999 0)
(29.5773 0.0351324 0)
(29.4364 0.0493587 0)
(29.2551 0.0695946 0)
(29.0353 0.0962234 0)
(28.7589 0.135466 0)
(28.4165 0.192517 0)
(27.9774 0.276436 0)
(27.4319 0.407218 0)
(26.6807 0.626005 0)
(25.7452 0.980171 0)
(24.3154 1.60844 0)
(22.6644 2.62537 0)
(19.8688 4.82903 0)
(16.5259 7.44251 0)
(9.11312 14.1821 0)
(29.9988 0.00109622 0)
(29.9856 0.00333338 0)
(29.9567 0.00573202 0)
(29.9127 0.00881144 0)
(29.8552 0.012865 0)
(29.782 0.0183095 0)
(29.6913 0.0254825 0)
(29.5775 0.0362408 0)
(29.4364 0.0510325 0)
(29.2555 0.07172 0)
(29.0357 0.0992769 0)
(28.7593 0.139761 0)
(28.4171 0.198621 0)
(27.9786 0.285075 0)
(27.4344 0.420036 0)
(26.6861 0.644697 0)
(25.7556 1.00978 0)
(24.3329 1.65151 0)
(22.7003 2.69544 0)
(19.9379 4.93777 0)
(16.7798 7.65623 0)
(9.33094 14.7514 0)
(29.9988 0.00112982 0)
(29.9855 0.00343527 0)
(29.9566 0.00590865 0)
(29.9127 0.00908222 0)
(29.8553 0.01326 0)
(29.782 0.0188714 0)
(29.6913 0.0262644 0)
(29.5776 0.0373497 0)
(29.4363 0.052708 0)
(29.256 0.0738324 0)
(29.0361 0.102334 0)
(28.7597 0.144055 0)
(28.4176 0.20472 0)
(27.9798 0.293694 0)
(27.4371 0.432808 0)
(26.6918 0.663298 0)
(25.7667 1.03922 0)
(24.3518 1.69422 0)
(22.7373 2.76469 0)
(20.0082 5.04242 0)
(17.0432 7.86703 0)
(9.55716 15.3315 0)
(29.9988 0.0011634 0)
(29.9856 0.00353713 0)
(29.9567 0.00608529 0)
(29.9127 0.009353 0)
(29.8553 0.0136549 0)
(29.7821 0.0194334 0)
(29.6913 0.0270458 0)
(29.5779 0.0384553 0)
(29.4361 0.054382 0)
(29.2567 0.0759354 0)
(29.0365 0.105396 0)
(28.7602 0.148348 0)
(28.4183 0.210811 0)
(27.9811 0.302293 0)
(27.44 0.445534 0)
(26.6979 0.681802 0)
(25.7785 1.0685 0)
(24.3722 1.73656 0)
(22.7755 2.83312 0)
(20.0798 5.14284 0)
(17.3161 8.07478 0)
(9.79204 15.9229 0)
(29.9988 0.00119699 0)
(29.9856 0.00363895 0)
(29.9566 0.00626195 0)
(29.9127 0.0096237 0)
(29.8553 0.0140499 0)
(29.7821 0.0199945 0)
(29.6914 0.0278296 0)
(29.5781 0.0395578 0)
(29.4358 0.0559839 0)
(29.2574 0.0780297 0)
(29.037 0.10846 0)
(28.7606 0.152639 0)
(28.4189 0.216895 0)
(27.9825 0.310872 0)
(27.443 0.458212 0)
(26.7042 0.700203 0)
(25.7911 1.09759 0)
(24.3941 1.77852 0)
(22.8151 2.90075 0)
(20.1528 5.23887 0)
(17.5982 8.27933 0)
(10.0358 16.5259 0)
(29.9988 0.00123056 0)
(29.9856 0.00374074 0)
(29.9567 0.0064386 0)
(29.9128 0.00989443 0)
(29.8553 0.0144445 0)
(29.7822 0.0205572 0)
(29.6914 0.0286052 0)
(29.5784 0.0407104 0)
(29.4354 0.0573763 0)
(29.2581 0.0801269 0)
(29.0374 0.111526 0)
(28.7611 0.156929 0)
(28.4196 0.222971 0)
(27.9839 0.319428 0)
(27.4462 0.470838 0)
(26.7109 0.718494 0)
(25.8044 1.12648 0)
(24.4174 1.82009 0)
(22.8563 2.96757 0)
(20.2275 5.33039 0)
(17.8895 8.48053 0)
(10.2887 17.1409 0)
(29.9988 0.00126412 0)
(29.9856 0.00384249 0)
(29.9567 0.00661525 0)
(29.9128 0.0101651 0)
(29.8554 0.0148392 0)
(29.7822 0.0211183 0)
(29.6915 0.0293885 0)
(29.5785 0.0418279 0)
(29.4352 0.0592162 0)
(29.2587 0.082257 0)
(29.0378 0.114595 0)
(28.7616 0.161217 0)
(28.4203 0.229039 0)
(27.9855 0.327961 0)
(27.4496 0.483412 0)
(26.7178 0.736669 0)
(25.8183 1.15515 0)
(24.4421 1.86127 0)
(22.8992 3.03357 0)
(20.3039 5.41725 0)
(18.1903 8.67823 0)
(10.5509 17.7685 0)
(29.9988 0.00129768 0)
(29.9856 0.00394419 0)
(29.9567 0.00679193 0)
(29.9128 0.0104357 0)
(29.8554 0.0152341 0)
(29.7822 0.0216791 0)
(29.6915 0.0301673 0)
(29.5786 0.0429907 0)
(29.4354 0.0609947 0)
(29.2593 0.0844196 0)
(29.0383 0.117665 0)
(28.7621 0.165503 0)
(28.421 0.235099 0)
(27.987 0.336471 0)
(27.453 0.495931 0)
(26.7249 0.754723 0)
(25.8328 1.18359 0)
(24.4682 1.90202 0)
(22.9443 3.09875 0)
(20.3822 5.49933 0)
(18.5008 8.87227 0)
(10.8227 18.4089 0)
(29.9988 0.00133123 0)
(29.9856 0.00404585 0)
(29.9567 0.00696856 0)
(29.9128 0.0107064 0)
(29.8555 0.0156278 0)
(29.7823 0.0222446 0)
(29.6917 0.0309264 0)
(29.5785 0.0441732 0)
(29.4355 0.0624934 0)
(29.2598 0.0865952 0)
(29.0387 0.120735 0)
(28.7626 0.169787 0)
(28.4218 0.241149 0)
(27.9887 0.344956 0)
(27.4566 0.508393 0)
(26.7323 0.772649 0)
(25.848 1.21178 0)
(24.4956 1.94233 0)
(22.9917 3.16311 0)
(20.4621 5.57646 0)
(18.8212 9.06249 0)
(11.1043 19.0627 0)
(29.9988 0.00136478 0)
(29.9856 0.00414751 0)
(29.9567 0.00714523 0)
(29.9128 0.0109768 0)
(29.8554 0.016023 0)
(29.7823 0.0228011 0)
(29.6919 0.0317446 0)
(29.5781 0.0450634 0)
(29.4356 0.0639275 0)
(29.2602 0.0887717 0)
(29.0391 0.123805 0)
(28.7631 0.174068 0)
(28.4226 0.247192 0)
(27.9904 0.353416 0)
(27.4603 0.520796 0)
(26.74 0.790442 0)
(25.8637 1.23972 0)
(24.5243 1.98217 0)
(23.0418 3.22664 0)
(20.5432 5.64854 0)
(19.1507 9.24878 0)
(11.3959 19.7302 0)
(29.9988 0.0013983 0)
(29.9856 0.00424916 0)
(29.9567 0.00732191 0)
(29.9128 0.0112473 0)
(29.8555 0.0164174 0)
(29.7823 0.0233631 0)
(29.6924 0.0325383 0)
(29.5761 0.0463755 0)
(29.4355 0.0653936 0)
(29.2606 0.0909461 0)
(29.0395 0.126874 0)
(28.7637 0.178346 0)
(28.4234 0.253225 0)
(27.9921 0.361849 0)
(27.4641 0.533139 0)
(26.7479 0.808098 0)
(25.88 1.26738 0)
(24.554 2.02152 0)
(23.0951 3.28935 0)
(20.6247 5.71545 0)
(19.4863 9.43112 0)
(11.6977 20.4127 0)
(29.9988 0.00143166 0)
(29.9857 0.00435075 0)
(29.9567 0.00749869 0)
(29.9128 0.0115178 0)
(29.8555 0.0168122 0)
(29.7822 0.0239225 0)
(29.6929 0.0333471 0)
(29.5746 0.0477717 0)
(29.4355 0.0668979 0)
(29.2608 0.0931212 0)
(29.0399 0.129941 0)
(28.7642 0.182622 0)
(28.4242 0.259248 0)
(27.9938 0.370254 0)
(27.468 0.545418 0)
(26.756 0.82561 0)
(25.8967 1.29477 0)
(24.5848 2.06031 0)
(23.1519 3.35126 0)
(20.7059 5.77718 0)
(19.8209 9.60921 0)
(12.0094 21.1176 0)
(29.9988 0.00146452 0)
(29.9856 0.00445169 0)
(29.9567 0.00767473 0)
(29.9128 0.011787 0)
(29.8556 0.0172059 0)
(29.7822 0.0244709 0)
(29.693 0.0342046 0)
(29.5741 0.0488918 0)
(29.4354 0.0684123 0)
(29.261 0.0952922 0)
(29.0403 0.133007 0)
(28.7647 0.186896 0)
(28.4251 0.265261 0)
(27.9956 0.37863 0)
(27.472 0.557632 0)
(26.7643 0.842978 0)
(25.9138 1.32186 0)
(24.6165 2.09849 0)
(23.2129 3.41239 0)
(20.7869 5.83382 0)
(20.1432 9.78104 0)
(12.4171 21.8663 0)
(-0.253865 0.0229927 0)
(-1.77151 0.0275255 0)
(-2.78273 0.00922049 0)
(-2.65422 -0.00706384 0)
(-1.99205 -0.0100425 0)
(-1.47958 -0.00644454 0)
(-1.17683 -0.00278027 0)
(-1.10722 -0.000710652 0)
(-1.07162 -0.000686755 0)
(-0.988981 -0.000400867 0)
(-1.00046 5.28782e-05 0)
(-0.993513 -0.000797226 0)
(-0.832516 -0.00196862 0)
(-0.541053 -0.00298452 0)
(-0.0999555 -0.00426051 0)
(0.563081 -0.00629622 0)
(1.65019 -0.00875317 0)
(3.19631 -0.0103103 0)
(5.00914 -0.0101365 0)
(6.78466 -0.00885743 0)
(8.43017 -0.00753522 0)
(9.96576 -0.00648761 0)
(11.3998 -0.00560937 0)
(12.7455 -0.00491625 0)
(14.0406 -0.00436678 0)
(15.2853 -0.00404717 0)
(16.589 -0.00382441 0)
(17.8933 -0.00284256 0)
(18.681 -0.0030117 0)
(20.2578 -0.010066 0)
(27.5781 -0.0100624 0)
(29.6705 -0.00210345 0)
(29.6902 -1.31702e-05 0)
(29.6855 -3.91169e-05 0)
(29.7377 -4.22039e-05 0)
(-0.236136 0.0680288 0)
(-1.74291 0.0820877 0)
(-2.74616 0.0275407 0)
(-2.61612 -0.0209423 0)
(-1.95743 -0.0299563 0)
(-1.45227 -0.0191396 0)
(-1.15543 -0.00822831 0)
(-1.09382 -0.00205517 0)
(-1.06583 -0.00207352 0)
(-0.983116 -0.00126203 0)
(-0.991018 0.000139227 0)
(-0.981446 -0.00243937 0)
(-0.817564 -0.00601407 0)
(-0.515006 -0.00904815 0)
(-0.0626589 -0.0125506 0)
(0.586782 -0.0182175 0)
(1.63333 -0.0253944 0)
(3.14601 -0.0301943 0)
(4.95441 -0.0299633 0)
(6.74494 -0.0264292 0)
(8.40811 -0.0226322 0)
(9.95288 -0.0194945 0)
(11.3864 -0.0168396 0)
(12.728 -0.0147475 0)
(14.0185 -0.013087 0)
(15.2591 -0.0121057 0)
(16.5572 -0.011462 0)
(17.8684 -0.00860736 0)
(18.6865 -0.00852746 0)
(20.0781 -0.0299923 0)
(27.3715 -0.0308836 0)
(29.659 -0.0065943 0)
(29.6955 -4.91623e-05 0)
(29.6868 -0.000110703 0)
(29.7381 -0.000125778 0)
(-0.212173 0.11182 0)
(-1.71004 0.136213 0)
(-2.70394 0.0455593 0)
(-2.56693 -0.0348654 0)
(-1.90851 -0.0498502 0)
(-1.41467 -0.0316262 0)
(-1.12553 -0.0134521 0)
(-1.07258 -0.00313169 0)
(-1.04928 -0.00330306 0)
(-0.964791 -0.00212287 0)
(-0.973051 0.000179259 0)
(-0.961903 -0.0041407 0)
(-0.793729 -0.0101233 0)
(-0.476841 -0.0152528 0)
(-0.0135078 -0.0208437 0)
(0.6176 -0.029701 0)
(1.62096 -0.0412793 0)
(3.10274 -0.0494636 0)
(4.91089 -0.0495402 0)
(6.72011 -0.0440374 0)
(8.40297 -0.0377818 0)
(9.95746 -0.0324673 0)
(11.3905 -0.0279907 0)
(12.7272 -0.0244941 0)
(14.0122 -0.0217437 0)
(15.2478 -0.0201245 0)
(16.5392 -0.0190931 0)
(17.8543 -0.0144657 0)
(18.7027 -0.013817 0)
(19.9361 -0.0492137 0)
(27.1808 -0.0517678 0)
(29.6469 -0.0115322 0)
(29.7006 -0.000119247 0)
(29.6881 -0.000173235 0)
(29.7385 -0.000207797 0)
(-0.182337 0.15419 0)
(-1.67378 0.189992 0)
(-2.65538 0.0632098 0)
(-2.50464 -0.0490431 0)
(-1.84458 -0.0695166 0)
(-1.36492 -0.0437686 0)
(-1.08523 -0.01842 0)
(-1.04137 -0.00405358 0)
(-1.02157 -0.0045239 0)
(-0.936268 -0.002992 0)
(-0.946759 0.000218613 0)
(-0.933715 -0.00592728 0)
(-0.760061 -0.0144718 0)
(-0.426867 -0.0217772 0)
(0.0495625 -0.0292425 0)
(0.662474 -0.0410181 0)
(1.61922 -0.0570848 0)
(3.06697 -0.0689986 0)
(4.87586 -0.069551 0)
(6.70851 -0.062017 0)
(8.4153 -0.0531375 0)
(9.981 -0.045513 0)
(11.4136 -0.0391409 0)
(12.7446 -0.034216 0)
(14.023 -0.0303723 0)
(15.2521 -0.0281077 0)
(16.5354 -0.026714 0)
(17.8519 -0.0204161 0)
(18.7301 -0.0187718 0)
(19.8305 -0.0679986 0)
(27.0052 -0.0729604 0)
(29.6344 -0.0168531 0)
(29.7054 -0.000213055 0)
(29.6894 -0.000227965 0)
(29.739 -0.000288466 0)
(-0.146257 0.19493 0)
(-1.63428 0.243354 0)
(-2.59943 0.0802566 0)
(-2.42781 -0.0635577 0)
(-1.76568 -0.0889156 0)
(-1.30279 -0.0554721 0)
(-1.03492 -0.0230923 0)
(-1.00033 -0.00481032 0)
(-0.983165 -0.00570795 0)
(-0.898139 -0.00383362 0)
(-0.910855 0.000251597 0)
(-0.895088 -0.00779086 0)
(-0.714919 -0.0190367 0)
(-0.36373 -0.0285787 0)
(0.12885 -0.0376412 0)
(0.72618 -0.0519096 0)
(1.63371 -0.072409 0)
(3.04249 -0.0884321 0)
(4.85197 -0.0898093 0)
(6.71352 -0.0803231 0)
(8.44905 -0.0686942 0)
(10.0275 -0.058616 0)
(11.4593 -0.0502649 0)
(12.7834 -0.0438855 0)
(14.0534 -0.0389491 0)
(15.2738 -0.0360404 0)
(16.5472 -0.0343104 0)
(17.8624 -0.0264458 0)
(18.7697 -0.0235083 0)
(19.7587 -0.0863233 0)
(26.843 -0.0942899 0)
(29.6214 -0.0225308 0)
(29.7099 -0.000334092 0)
(29.6907 -0.000275431 0)
(29.7395 -0.000367726 0)
(-0.103515 0.233806 0)
(-1.5916 0.296277 0)
(-2.53485 0.0964558 0)
(-2.33456 -0.0785559 0)
(-1.67122 -0.10805 0)
(-1.22767 -0.0666779 0)
(-0.974467 -0.0274379 0)
(-0.949121 -0.00540997 0)
(-0.934072 -0.00685222 0)
(-0.850497 -0.00464227 0)
(-0.86425 0.000263503 0)
(-0.844469 -0.00974151 0)
(-0.657135 -0.023809 0)
(-0.28703 -0.0356477 0)
(0.225058 -0.0460351 0)
(0.812432 -0.0623012 0)
(1.67222 -0.0870585 0)
(3.0379 -0.107569 0)
(4.84652 -0.110229 0)
(6.74242 -0.0989581 0)
(8.5116 -0.0844663 0)
(10.1039 -0.0717744 0)
(11.5338 -0.0613501 0)
(12.8484 -0.0534851 0)
(14.1072 -0.0474564 0)
(15.3163 -0.0439072 0)
(16.5774 -0.0418659 0)
(17.8881 -0.0325436 0)
(18.8234 -0.0280756 0)
(19.719 -0.104199 0)
(26.6928 -0.115674 0)
(29.6081 -0.0285347 0)
(29.7142 -0.000483133 0)
(29.6921 -0.000316223 0)
(29.74 -0.000445579 0)
(-0.0536837 0.270579 0)
(-1.54569 0.348721 0)
(-2.46006 0.11153 0)
(-2.22222 -0.0941896 0)
(-1.56002 -0.126875 0)
(-1.13843 -0.0773139 0)
(-0.903106 -0.0314168 0)
(-0.886907 -0.00585748 0)
(-0.873671 -0.00794773 0)
(-0.792672 -0.00542132 0)
(-0.805677 0.000222044 0)
(-0.78022 -0.0117976 0)
(-0.585386 -0.0287952 0)
(-0.195747 -0.0430188 0)
(0.339352 -0.0545155 0)
(0.924485 -0.072293 0)
(1.74335 -0.101038 0)
(3.06609 -0.126341 0)
(4.87238 -0.130793 0)
(6.80762 -0.11796 0)
(8.61533 -0.100477 0)
(10.2225 -0.084986 0)
(11.6473 -0.072377 0)
(12.9479 -0.0629879 0)
(14.1908 -0.0558691 0)
(15.3844 -0.0516879 0)
(16.63 -0.0493622 0)
(17.9323 -0.038696 0)
(18.8938 -0.032506 0)
(19.7109 -0.121609 0)
(26.5532 -0.137055 0)
(29.5944 -0.0348398 0)
(29.718 -0.000660812 0)
(29.6935 -0.000350955 0)
(29.7405 -0.000522027 0)
(0.00363594 0.304995 0)
(-1.49637 0.400617 0)
(-2.37316 0.125141 0)
(-2.08752 -0.110592 0)
(-1.43074 -0.145294 0)
(-1.03364 -0.0872864 0)
(-0.819626 -0.0349799 0)
(-0.812382 -0.00615685 0)
(-0.800721 -0.00898373 0)
(-0.723215 -0.00617951 0)
(-0.733259 8.83909e-05 0)
(-0.700045 -0.0139857 0)
(-0.497271 -0.0340144 0)
(-0.0868398 -0.0507492 0)
(0.475328 -0.0632051 0)
(1.06705 -0.0820534 0)
(1.85635 -0.114471 0)
(3.14338 -0.144762 0)
(4.94885 -0.151496 0)
(6.92864 -0.137365 0)
(8.77999 -0.116747 0)
(10.4026 -0.0982388 0)
(11.817 -0.0833107 0)
(13.0951 -0.0723502 0)
(14.3139 -0.0641479 0)
(15.4855 -0.0593537 0)
(16.7107 -0.0567752 0)
(17.9997 -0.0448855 0)
(18.9845 -0.0368233 0)
(19.7365 -0.138535 0)
(26.4235 -0.158369 0)
(29.5804 -0.0414244 0)
(29.7216 -0.000867643 0)
(29.6949 -0.000380282 0)
(29.7411 -0.000597075 0)
(0.0687721 0.336789 0)
(-1.44336 0.451862 0)
(-2.27188 0.136887 0)
(-1.92723 -0.127875 0)
(-1.28247 -0.163165 0)
(-0.912031 -0.0964999 0)
(-0.722589 -0.0380782 0)
(-0.723899 -0.00631451 0)
(-0.713456 -0.00995337 0)
(-0.63995 -0.00693368 0)
(-0.644253 -0.000188744 0)
(-0.600601 -0.0163373 0)
(-0.388774 -0.0394951 0)
(0.0452516 -0.0589047 0)
(0.639797 -0.072226 0)
(1.24792 -0.0917636 0)
(2.02254 -0.127554 0)
(3.28955 -0.162947 0)
(5.10267 -0.172387 0)
(7.13433 -0.157231 0)
(9.03527 -0.133303 0)
(10.6746 -0.111511 0)
(12.0704 -0.0940909 0)
(13.3117 -0.081498 0)
(14.4918 -0.0722281 0)
(15.6304 -0.0668596 0)
(16.8282 -0.0640712 0)
(18.0971 -0.0510875 0)
(19.1009 -0.0410459 0)
(19.8007 -0.154956 0)
(26.3039 -0.17954 0)
(29.5663 -0.0482682 0)
(29.7247 -0.00110397 0)
(29.6964 -0.000404917 0)
(29.7416 -0.000670731 0)
(0.141942 0.365678 0)
(-1.38626 0.502305 0)
(-2.15361 0.146309 0)
(-1.73905 -0.14612 0)
(-1.11518 -0.180315 0)
(-0.772818 -0.104875 0)
(-0.610571 -0.0406728 0)
(-0.619615 -0.00634352 0)
(-0.609705 -0.0108585 0)
(-0.540044 -0.00771373 0)
(-0.534967 -0.00067296 0)
(-0.477317 -0.0189 0)
(-0.254063 -0.0452845 0)
(0.208685 -0.0675696 0)
(0.84289 -0.0817123 0)
(1.47871 -0.10162 0)
(2.25677 -0.140541 0)
(3.52843 -0.181136 0)
(5.36801 -0.193631 0)
(7.46312 -0.177674 0)
(9.42076 -0.1502 0)
(11.0804 -0.124778 0)
(12.4489 -0.104623 0)
(13.6317 -0.0903084 0)
(14.7484 -0.0800024 0)
(15.8352 -0.0741338 0)
(16.9942 -0.0712018 0)
(18.2342 -0.0572664 0)
(19.2496 -0.0451893 0)
(19.9124 -0.170841 0)
(26.196 -0.200476 0)
(29.5523 -0.0553487 0)
(29.7273 -0.00136988 0)
(29.6978 -0.000425619 0)
(29.7422 -0.000743012 0)
(0.223194 0.391369 0)
(-1.32451 0.551743 0)
(-2.01542 0.152928 0)