/*--------------------------------*- C++ -*----------------------------------*\
| =========                 |                                                 |
| \\      /  F ield         | OpenFOAM: The Open Source CFD Toolbox           |
|  \\    /   O peration     | Version:  v1912                                 |
|   \\  /    A nd           | Website:  www.openfoam.com                      |
|    \\/     M anipulation  |                                                 |
\*---------------------------------------------------------------------------*/
FoamFile
{
    version     2.0;
    format      ascii;
    class       volScalarField;
    location    "370";
    object      yPlus;
}
// * * * * * * * * * * * * * * * * * * * * * * * * * * * * * * * * * * * * * //

dimensions      [0 0 0 0 0 0 0];


internalField   uniform 0;

boundaryField
{
    inlet
    {
        type            calculated;
        value           uniform 0;
    }
    outlet
    {
        type            calculated;
        value           uniform 0;
    }
    lowerSymmetry
    {
        type            symmetryPlane;
    }
    obstical
    {
        type            calculated;
        value           nonuniform List<scalar> 
88
(
481.269
483.475
487.874
494.452
503.141
513.855
526.503
540.996
557.246
575.172
594.695
615.737
638.215
662.037
687.109
713.336
740.63
768.909
798.102
828.149
859.004
890.627
922.991
956.079
989.879
1024.39
1059.62
1095.57
1132.25
1169.7
1207.93
1246.95
1286.79
1327.48
1369.04
1411.47
1454.82
1499.09
1544.32
1590.52
1637.72
1685.98
1735.71
1790.84
31.4508
30.543
29.9562
29.8522
30.3403
31.5292
33.5123
36.3532
40.0782
44.6796
50.1223
56.3476
63.2743
70.7933
78.7609
86.9876
95.2283
103.246
110.853
117.863
124.084
129.322
133.384
136.08
137.234
136.688
134.309
129.997
123.694
115.395
105.162
93.1676
79.7793
65.7963
53.1344
46.2718
50.5535
64.4158
83.1812
104.66
128.257
153.844
181.392
211.54
)
;
    }
    obsticalTop
    {
        type            calculated;
        value           nonuniform List<scalar> 
20
(
53.3668
38.7421
47.1172
53.2195
56.0727
57.7155
58.326
58.0285
57.0889
55.6391
53.6552
51.0277
47.6626
43.3734
38.1299
31.2909
24.9151
15.389
13.9123
11.3741
)
;
    }
    top
    {
        type            calculated;
        value           uniform 0;
    }
    defaultFaces
    {
        type            empty;
    }
}


// ************************************************************************* //
