/*--------------------------------*- C++ -*----------------------------------*\
| =========                 |                                                 |
| \\      /  F ield         | OpenFOAM: The Open Source CFD Toolbox           |
|  \\    /   O peration     | Version:  v1912                                 |
|   \\  /    A nd           | Website:  www.openfoam.com                      |
|    \\/     M anipulation  |                                                 |
\*---------------------------------------------------------------------------*/
FoamFile
{
    version     2.0;
    format      ascii;
    class       volScalarField;
    location    "900";
    object      p;
}
// * * * * * * * * * * * * * * * * * * * * * * * * * * * * * * * * * * * * * //

dimensions      [0 2 -2 0 0 0 0];


internalField   nonuniform List<scalar> 
2000
(
-0.0169192
0.0997815
0.156105
0.152232
0.139081
0.13406
0.133515
0.134102
0.134056
0.134401
0.13463
0.134555
0.134454
0.134467
0.134538
0.13457
0.134556
0.134523
0.13448
0.134423
0.134345
0.134239
0.134098
0.133912
0.133672
0.133369
0.133001
0.132574
0.132106
0.131635
0.131211
0.130896
0.130757
0.130861
0.131265
0.132011
0.133122
0.134613
0.136498
0.138767
0.141413
0.144459
0.147884
0.151674
0.155821
0.160316
0.16515
0.170307
0.175768
0.181506
0.187486
0.193667
0.199999
0.206427
0.212888
0.219307
0.225608
0.231703
0.237497
0.242892
0.247823
0.252159
0.255821
0.258692
0.260652
0.261579
0.26135
0.259833
0.256887
0.252353
0.246052
0.237776
0.227269
0.214218
0.198189
0.178643
0.15448
0.125056
0.0846486
0.0429902
0.0411985
0.125588
0.163645
0.150947
0.134742
0.132713
0.137596
0.138557
0.134443
0.132345
0.133425
0.134326
0.134362
0.134478
0.134677
0.134681
0.134611
0.134548
0.134518
0.134497
0.134466
0.134414
0.134328
0.134188
0.13397
0.133647
0.133198
0.13262
0.131932
0.131179
0.130433
0.12978
0.129315
0.129127
0.129291
0.129857
0.130851
0.132284
0.134222
0.136647
0.139464
0.142575
0.145998
0.14975
0.15384
0.158266
0.163022
0.168095
0.173462
0.179096
0.18496
0.19101
0.197191
0.203443
0.209694
0.215873
0.2219
0.227686
0.233135
0.238146
0.242598
0.246388
0.249431
0.251616
0.25282
0.252922
0.251795
0.249304
0.245301
0.239624
0.232086
0.22247
0.210515
0.195899
0.178213
0.156944
0.131328
0.10087
0.0630829
0.028734
0.0889711
0.122409
0.145189
0.144696
0.137385
0.135402
0.13672
0.136085
0.134289
0.134188
0.136435
0.136204
0.134078
0.133396
0.134265
0.134736
0.134774
0.13469
0.134638
0.134623
0.134609
0.134573
0.134505
0.134383
0.134173
0.133841
0.133368
0.132755
0.132034
0.131263
0.130522
0.129902
0.129492
0.129375
0.129609
0.130239
0.131287
0.132729
0.134534
0.136733
0.13932
0.142265
0.145561
0.149206
0.153197
0.157528
0.162189
0.167161
0.172423
0.177941
0.183677
0.189583
0.195604
0.201677
0.207732
0.213688
0.219462
0.224963
0.230094
0.234754
0.238839
0.242249
0.244883
0.246628
0.247368
0.246982
0.245347
0.242327
0.23778
0.231542
0.223432
0.213239
0.200713
0.18556
0.167426
0.145916
0.120509
0.0911657
0.056184
0.0266215
0.11084
0.12105
0.134558
0.140439
0.139928
0.138866
0.138389
0.137323
0.136091
0.135475
0.135803
0.135817
0.135575
0.135051
0.135011
0.134929
0.134602
0.134488
0.134611
0.134754
0.134825
0.134839
0.134806
0.134711
0.13452
0.134202
0.133737
0.133134
0.132427
0.131676
0.130958
0.130359
0.129966
0.12985
0.130066
0.130645
0.131602
0.132978
0.134748
0.136909
0.139449
0.142356
0.145622
0.149243
0.153214
0.157527
0.162168
0.167117
0.172348
0.177827
0.183512
0.189353
0.195292
0.201264
0.207195
0.213004
0.218606
0.223909
0.228815
0.233226
0.23704
0.240155
0.242467
0.243869
0.244247
0.243487
0.241466
0.238056
0.233114
0.226487
0.217996
0.207441
0.194589
0.179174
0.160892
0.139438
0.11443
0.086054
0.0527681
0.0255413
0.120939
0.125257
0.134415
0.140655
0.141784
0.141275
0.141172
0.140977
0.140107
0.138938
0.138047
0.137535
0.137066
0.136206
0.135844
0.13591
0.135801
0.135523
0.135261
0.135092
0.13505
0.135092
0.135145
0.135141
0.135031
0.134782
0.13438
0.133838
0.133192
0.132504
0.131849
0.131308
0.130961
0.130871
0.131089
0.131654
0.132606
0.133958
0.13571
0.137856
0.140383
0.143282
0.146543
0.150162
0.154129
0.158434
0.163061
0.167987
0.173183
0.178613
0.184233
0.189989
0.195823
0.201667
0.207446
0.21308
0.218483
0.223564
0.228228
0.232378
0.235915
0.238741
0.240755
0.241852
0.241926
0.240866
0.238556
0.23487
0.229673
0.222814
0.214123
0.203407
0.190445
0.174992
0.156772
0.135531
0.110936
0.0832977
0.05094
0.0247354
0.127091
0.129968
0.136277
0.141395
0.143104
0.143299
0.143662
0.143982
0.143673
0.142927
0.142198
0.141513
0.140533
0.139301
0.138474
0.138096
0.137718
0.137269
0.136907
0.136681
0.136531
0.136387
0.136228
0.136056
0.135859
0.135604
0.135258
0.134811
0.134284
0.133724
0.133194
0.132769
0.132511
0.13248
0.132747
0.133358
0.134347
0.135726
0.137496
0.139654
0.14219
0.145096
0.148363
0.151983
0.155945
0.160237
0.164838
0.169724
0.174864
0.180219
0.185743
0.191381
0.197073
0.202751
0.208341
0.213763
0.218933
0.223763
0.228161
0.232034
0.23529
0.237832
0.239564
0.240389
0.240204
0.238905
0.236378
0.232503
0.227149
0.220169
0.211397
0.200645
0.1877
0.172326
0.154259
0.133266
0.109004
0.0818609
0.0499315
0.0240484
0.131329
0.133533
0.138058
0.142244
0.144319
0.145111
0.145783
0.14636
0.146489
0.146242
0.145884
0.145412
0.144642
0.143636
0.142718
0.141954
0.141196
0.140475
0.139907
0.139507
0.139205
0.138934
0.138666
0.138383
0.138059
0.137665
0.13719
0.136649
0.13608
0.135531
0.135056
0.134703
0.134537
0.134623
0.134999
0.135711
0.136785
0.138231
0.140051
0.142245
0.144807
0.14773
0.151005
0.154622
0.15857
0.162833
0.167388
0.17221
0.177264
0.182511
0.187902
0.193383
0.198895
0.204368
0.209731
0.214907
0.219814
0.224369
0.228485
0.232075
0.235049
0.237319
0.238793
0.239378
0.238978
0.23749
0.234808
0.230813
0.225377
0.218355
0.209584
0.198879
0.186027
0.170797
0.152919
0.132166
0.108155
0.0813105
0.0494941
0.0235068
0.134339
0.136181
0.139821
0.143501
0.145759
0.14689
0.147739
0.148474
0.148877
0.148949
0.148853
0.148628
0.148197
0.147563
0.146873
0.146188
0.145468
0.14474
0.144071
0.143497
0.143005
0.142574
0.142183
0.141806
0.14141
0.140964
0.140454
0.13989
0.139302
0.138734
0.138242
0.137882
0.137701
0.137764
0.138131
0.138851
0.13995
0.141432
0.143291
0.14552
0.148109
0.151047
0.154324
0.157927
0.161842
0.166052
0.170534
0.17526
0.180194
0.185296
0.190517
0.195805
0.2011
0.206336
0.211444
0.21635
0.220977
0.225248
0.229079
0.232391
0.235099
0.237119
0.238365
0.238747
0.238174
0.236548
0.233761
0.2297
0.224237
0.217229
0.208512
0.197903
0.185188
0.170131
0.152455
0.131922
0.108095
0.0814045
0.0495018
0.0231296
0.136549
0.138246
0.14151
0.144933
0.147266
0.148603
0.149601
0.15046
0.151032
0.151291
0.151364
0.151318
0.151114
0.150744
0.150295
0.149829
0.149327
0.148786
0.148243
0.147729
0.147248
0.146787
0.146335
0.145881
0.145412
0.144915
0.144388
0.143839
0.143292
0.142783
0.142359
0.142073
0.141984
0.142116
0.142529
0.143246
0.144303
0.145723
0.147512
0.14967
0.152188
0.155057
0.158263
0.161789
0.165618
0.169728
0.174092
0.17868
0.183455
0.188375
0.193393
0.198457
0.203509
0.208488
0.213326
0.217955
0.222303
0.226296
0.229858
0.232913
0.235381
0.237183
0.238236
0.238454
0.237748
0.236022
0.233171
0.229082
0.223628
0.216667
0.208034
0.197546
0.184986
0.170114
0.152638
0.132304
0.108618
0.0819828
0.0498774
0.0229238
0.138213
0.139893
0.143044
0.146344
0.148701
0.150184
0.151331
0.152312
0.153013
0.153408
0.153607
0.153678
0.153609
0.153399
0.153114
0.152811
0.15248
0.152112
0.151731
0.151361
0.151003
0.150643
0.150269
0.149874
0.149451
0.148995
0.148508
0.148005
0.147511
0.147064
0.146708
0.146494
0.146471
0.146684
0.147168
0.147953
0.149056
0.150492
0.152269
0.154387
0.15684
0.159621
0.162719
0.166118
0.169803
0.173752
0.17794
0.182335
0.186901
0.191598
0.19638
0.201196
0.20599
0.210703
0.215274
0.219636
0.223721
0.22746
0.230781
0.233609
0.235871
0.237489
0.238383
0.23847
0.237661
0.235862
0.232971
0.228875
0.223447
0.216546
0.208009
0.197648
0.185247
0.170558
0.153276
0.133129
0.109562
0.0829304
0.0505767
0.0229073
0.139473
0.141218
0.144416
0.147681
0.150043
0.151634
0.152914
0.154006
0.154815
0.155328
0.155636
0.155804
0.155834
0.155734
0.155556
0.155353
0.155124
0.154865
0.154595
0.15433
0.154071
0.153804
0.153521
0.153213
0.152876
0.152508
0.152115
0.15171
0.151321
0.150982
0.150735
0.150623
0.15069
0.150973
0.151491
0.152295
0.153406
0.154833
0.156583
0.158658
0.161054
0.163763
0.166774
0.170071
0.173636
0.177449
0.181482
0.185707
0.190087
0.194585
0.199155
0.20375
0.208318
0.212801
0.217141
0.221276
0.22514
0.228667
0.231788
0.234431
0.236523
0.237991
0.238756
0.238735
0.237844
0.235988
0.233067
0.228968
0.223568
0.216724
0.208275
0.198033
0.185779
0.171263
0.154166
0.134197
0.110749
0.0841178
0.0515351
0.0231296
0.140417
0.142298
0.145656
0.148935
0.151287
0.152959
0.154355
0.155541
0.156439
0.157051
0.157457
0.157714
0.157833
0.157824
0.157733
0.157605
0.157448
0.157262
0.157062
0.156862
0.156662
0.156452
0.156225
0.155974
0.155696
0.155392
0.155068
0.154739
0.154432
0.154179
0.154017
0.153986
0.154126
0.154467
0.15503
0.155867
0.157
0.158434
0.160176
0.162225
0.16458
0.167232
0.17017
0.17338
0.176846
0.180545
0.184454
0.188542
0.192777
0.19712
0.201529
0.205956
0.210352
0.214662
0.218828
0.22279
0.226485
0.229849
0.232813
0.235311
0.237269
0.238617
0.239276
0.239167
0.238206
0.2363
0.233351
0.229247
0.223864
0.217063
0.208682
0.198535
0.1864
0.172024
0.15508
0.13526
0.111909
0.0852791
0.052471
0.0234812
0.141107
0.143194
0.146788
0.150096
0.152424
0.154164
0.155659
0.156924
0.157895
0.158589
0.159079
0.159415
0.159612
0.159685
0.159673
0.159613
0.159521
0.159398
0.159254
0.159103
0.158946
0.158776
0.158586
0.158372
0.158132
0.157869
0.15759
0.157312
0.157059
0.156862
0.156757
0.156781
0.15697
0.157353
0.157959
0.158824
0.15997
0.161407
0.163139
0.165168
0.167491
0.170102
0.17299
0.176141
0.179538
0.18316
0.186981
0.190974
0.195104
0.199335
0.203624
0.207925
0.21219
0.216365
0.220394
0.224219
0.227778
0.23101
0.233847
0.236224
0.238072
0.239318
0.239889
0.239706
0.238685
0.236736
0.23376
0.229648
0.224277
0.217506
0.209176
0.199099
0.187053
0.172782
0.15595
0.136237
0.11294
0.0862847
0.0531822
0.0237773
0.141589
0.143958
0.147833
0.151158
0.153454
0.155254
0.156836
0.158166
0.159196
0.15996
0.16052
0.160924
0.161189
0.161332
0.161388
0.161393
0.161361
0.161295
0.161204
0.161098
0.16098
0.160846
0.16069
0.160507
0.160298
0.160067
0.159823
0.159583
0.159371
0.159217
0.159155
0.159219
0.159446
0.159862
0.160502
0.161387
0.162542
0.16398
0.165704
0.167718
0.170018
0.172597
0.175445
0.178549
0.18189
0.185448
0.189198
0.193112
0.197155
0.201293
0.205482
0.20968
0.213836
0.2179
0.221817
0.225529
0.228978
0.232101
0.234836
0.237116
0.238874
0.24004
0.240541
0.240299
0.239231
0.237249
0.234255
0.230139
0.224781
0.218039
0.209754
0.199739
0.187769
0.173587
0.156847
0.137221
0.113957
0.0872745
0.0538205
0.0241264
0.141899
0.144626
0.148802
0.152119
0.15438
0.156238
0.157895
0.159277
0.160358
0.16118
0.1618
0.162261
0.162584
0.162787
0.162903
0.162964
0.162985
0.16297
0.162926
0.162863
0.162783
0.162683
0.162557
0.162404
0.162224
0.162022
0.161809
0.161601
0.161423
0.161304
0.161275
0.161373
0.161629
0.162073
0.162732
0.163631
0.164793
0.166229
0.167947
0.169945
0.172223
0.174774
0.177587
0.180648
0.183941
0.187444
0.191134
0.19498
0.198951
0.203011
0.207119
0.21123
0.215298
0.219271
0.223097
0.226718
0.230078
0.233115
0.235767
0.237969
0.239656
0.240758
0.241203
0.240915
0.239812
0.237805
0.234799
0.230684
0.225341
0.218628
0.210387
0.200428
0.188529
0.174429
0.157774
0.138235
0.115011
0.0883396
0.0545244
0.0246864
0.142067
0.145232
0.1497
0.152981
0.15521
0.157125
0.158844
0.16027
0.161393
0.162264
0.162936
0.163446
0.163819
0.164073
0.164239
0.164349
0.164417
0.164447
0.164445
0.164419
0.164372
0.164303
0.164206
0.16408
0.163926
0.163751
0.163564
0.163384
0.163234
0.163143
0.163143
0.163267
0.163547
0.164009
0.164683
0.165593
0.166758
0.168192
0.169901
0.171886
0.174144
0.176669
0.179451
0.182476
0.185728
0.189184
0.192822
0.196612
0.200522
0.204518
0.208557
0.212598
0.216594
0.220494
0.224246
0.227794
0.231082
0.234049
0.236633
0.238773
0.240401
0.241449
0.241848
0.241521
0.240388
0.238362
0.235346
0.231235
0.225906
0.219222
0.211021
0.201117
0.189285
0.175263
0.158694
0.139247
0.116078
0.0894634
0.0553125
0.0254568
0.142118
0.145798
0.150531
0.153748
0.155954
0.157922
0.159692
0.161153
0.162313
0.163226
0.163941
0.164495
0.16491
0.165207
0.165418
0.16557
0.165678
0.165748
0.165783
0.16579
0.165773
0.165731
0.165659
0.165557
0.165426
0.165273
0.165109
0.164953
0.164826
0.164759
0.164781
0.164925
0.165225
0.165702
0.166387
0.167304
0.168471
0.169901
0.171602
0.173573
0.175813
0.178316
0.181071
0.184065
0.18728
0.190698
0.194292
0.198036
0.201897
0.20584
0.209825
0.21381
0.217747
0.221587
0.225277
0.228764
0.231989
0.234895
0.237419
0.239502
0.241077
0.242078
0.242435
0.242075
0.240918
0.238878
0.235859
0.231755
0.226446
0.219793
0.211635
0.201786
0.19002
0.176077
0.159593
0.140243
0.117141
0.0906181
0.0561738
0.0263642
0.142073
0.146342
0.151294
0.154427
0.15662
0.158637
0.160448
0.161939
0.16313
0.16408
0.164833
0.165423
0.165874
0.16621
0.166458
0.166646
0.166791
0.166895
0.166961
0.166997
0.167007
0.166989
0.166939
0.166858
0.166747
0.166614
0.166469
0.166332
0.166225
0.166176
0.166215
0.166377
0.166691
0.167179
0.167872
0.168793
0.169961
0.171388
0.173081
0.175041
0.177266
0.17975
0.182482
0.18545
0.188637
0.192022
0.195582
0.199288
0.203108
0.207006
0.210944
0.214877
0.21876
0.222543
0.226175
0.229602
0.232769
0.235617
0.238087
0.24012
0.24165
0.242614
0.242941
0.242559
0.241388
0.239344
0.23633
0.23224
0.226955
0.220336
0.212222
0.202428
0.190727
0.176859
0.160458
0.141205
0.118177
0.0917683
0.0570862
0.0273395
0.141953
0.146873
0.151987
0.155024
0.157215
0.159279
0.161122
0.162636
0.163854
0.164835
0.165619
0.166241
0.166725
0.167093
0.167374
0.167595
0.167771
0.167905
0.168
0.168061
0.168094
0.168097
0.168067
0.168004
0.167911
0.167795
0.167667
0.167547
0.167456
0.167423
0.167477
0.167651
0.167979
0.168474
0.169173
0.170096
0.171262
0.172686
0.174372
0.176323
0.178535
0.181004
0.183718
0.186664
0.189825
0.19318
0.196706
0.200372
0.204149
0.208
0.211887
0.215768
0.219597
0.223326
0.226904
0.23028
0.233397
0.2362
0.23863
0.240626
0.242126
0.243065
0.243374
0.242979
0.241804
0.239762
0.236758
0.232686
0.227427
0.220843
0.212773
0.203032
0.191393
0.177597
0.161276
0.142118
0.119168
0.0928857
0.0580293
0.0283342
0.141775
0.1474
0.152612
0.155551
0.157746
0.15985
0.161721
0.163258
0.1645
0.165507
0.166318
0.166966
0.167476
0.167873
0.168182
0.168432
0.168635
0.168796
0.168916
0.168999
0.169052
0.169073
0.16906
0.169013
0.168935
0.168832
0.168719
0.168611
0.168534
0.168514
0.16858
0.168765
0.169103
0.169609
0.170315
0.171241
0.172407
0.173827
0.175505
0.177443
0.179638
0.182085
0.184773
0.187689
0.190817
0.194135
0.19762
0.201246
0.20498
0.208787
0.21263
0.216467
0.220253
0.22394
0.227479
0.230816
0.233898
0.236668
0.239069
0.24104
0.242519
0.243442
0.24374
0.243341
0.242167
0.240132
0.237142
0.233091
0.22786
0.221311
0.213285
0.203594
0.192014
0.178287
0.162042
0.142975
0.120106
0.0939517
0.0589867
0.0293187
0.141555
0.147921
0.153168
0.15602
0.158224
0.160353
0.162244
0.1638
0.165065
0.166097
0.166933
0.167606
0.168141
0.168561
0.168895
0.169168
0.169395
0.169579
0.16972
0.169824
0.169896
0.169935
0.169939
0.169907
0.169842
0.169753
0.169651
0.169555
0.169488
0.169477
0.169552
0.169744
0.170076
0.170583
0.171284
0.172203
0.173358
0.174763
0.176424
0.178342
0.180516
0.182938
0.1856
0.188489
0.191587
0.194875
0.19833
0.201923
0.205625
0.209399
0.213209
0.217012
0.220765
0.224421
0.227928
0.231237
0.234292
0.237039
0.239418
0.241372
0.242839
0.243753
0.244047
0.243649
0.24248
0.240457
0.237484
0.233456
0.228254
0.22174
0.213754
0.204113
0.192589
0.178926
0.162752
0.143771
0.120983
0.0949544
0.0599418
0.0302763
0.141307
0.148437
0.153642
0.156435
0.158668
0.160822
0.162725
0.16429
0.165569
0.166618
0.167474
0.168168
0.168725
0.169169
0.169525
0.16982
0.170069
0.170272
0.170429
0.170547
0.170631
0.170679
0.17069
0.170664
0.170605
0.170519
0.17042
0.170326
0.170259
0.170248
0.170321
0.170509
0.170835
0.171338
0.172034
0.172944
0.17409
0.175483
0.177131
0.179035
0.181192
0.183597
0.18624
0.189108
0.192184
0.195448
0.198878
0.202446
0.206121
0.209869
0.213652
0.217429
0.221157
0.224787
0.228272
0.23156
0.234596
0.237326
0.239693
0.241636
0.243096
0.244007
0.244302
0.243908
0.242749
0.240739
0.237785
0.233781
0.228607
0.222126
0.214181
0.204585
0.193113
0.17951
0.163403
0.144501
0.121793
0.0958816
0.0608721
0.0311917
0.141041
0.148977
0.154032
0.156752
0.159023
0.161215
0.163143
0.164729
0.166024
0.167088
0.167956
0.168661
0.169227
0.16968
0.170046
0.17035
0.170608
0.170819
0.170983
0.171106
0.171194
0.171246
0.17126
0.171236
0.171177
0.171093
0.170995
0.170902
0.170836
0.170826
0.170901
0.171091
0.171416
0.171916
0.172607
0.173511
0.174649
0.176034
0.177672
0.179564
0.181709
0.184098
0.186725
0.189575
0.192633
0.195879
0.199289
0.202836
0.206491
0.210218
0.213981
0.217739
0.221448
0.225061
0.228529
0.231802
0.234826
0.237545
0.239904
0.241842
0.243299
0.244211
0.24451
0.244124
0.242976
0.240981
0.238045
0.234064
0.228917
0.222468
0.214559
0.205004
0.19358
0.18003
0.163984
0.145153
0.122519
0.0967153
0.0617405
0.0320445
0.140715
0.14961
0.154507
0.157106
0.159357
0.161542
0.163466
0.165055
0.166355
0.167424
0.168298
0.169008
0.16958
0.170038
0.170409
0.170719
0.170982
0.171199
0.171368
0.171495
0.171587
0.171643
0.17166
0.171639
0.171584
0.171502
0.171406
0.171314
0.171249
0.171237
0.17131
0.1715
0.171825
0.172327
0.173016
0.173917
0.17505
0.176429
0.178059
0.179943
0.182078
0.184458
0.187074
0.189912
0.192957
0.196189
0.199585
0.203117
0.206757
0.21047
0.214218
0.217962
0.221658
0.225259
0.228717
0.231981
0.234997
0.237711
0.240067
0.242005
0.243463
0.24438
0.244686
0.244309
0.243174
0.241194
0.238277
0.234318
0.229197
0.222778
0.214902
0.205384
0.194001
0.180499
0.164504
0.145734
0.123164
0.0974593
0.0625352
0.0328597
0.140007
0.14978
0.154784
0.157394
0.159651
0.161826
0.163733
0.165312
0.16661
0.167682
0.168562
0.16928
0.169861
0.170328
0.170709
0.171029
0.171303
0.17153
0.171709
0.171845
0.171944
0.172007
0.17203
0.172015
0.171965
0.171888
0.171796
0.171708
0.171646
0.171638
0.171714
0.171906
0.172233
0.172733
0.173418
0.174312
0.175439
0.176809
0.17843
0.180301
0.182421
0.184788
0.187389
0.190212
0.193241
0.196456
0.199836
0.203352
0.206976
0.210673
0.214407
0.218137
0.221821
0.225412
0.228861
0.232118
0.23513
0.237842
0.240198
0.242139
0.243604
0.244529
0.244847
0.244487
0.24337
0.241413
0.238519
0.234587
0.229498
0.223114
0.215277
0.205804
0.19447
0.181023
0.16509
0.146392
0.123897
0.0983142
0.0634555
0.0339185
)
;

boundaryField
{
    inlet
    {
        type            zeroGradient;
    }
    outlet
    {
        type            fixedValue;
        value           uniform 0;
    }
    fixedWalls
    {
        type            zeroGradient;
    }
    frontAndBack
    {
        type            empty;
    }
}


// ************************************************************************* //
