/*--------------------------------*- C++ -*----------------------------------*\
| =========                 |                                                 |
| \\      /  F ield         | OpenFOAM: The Open Source CFD Toolbox           |
|  \\    /   O peration     | Version:  v1912                                 |
|   \\  /    A nd           | Website:  www.openfoam.com                      |
|    \\/     M anipulation  |                                                 |
\*---------------------------------------------------------------------------*/
FoamFile
{
    version     2.0;
    format      ascii;
    class       volScalarField;
    location    "10";
    object      epsilon;
}
// * * * * * * * * * * * * * * * * * * * * * * * * * * * * * * * * * * * * * //

dimensions      [0 2 -3 0 0 0 0];


internalField   nonuniform List<scalar> 
12441
(
823.85
425.818
365.228
322.631
276.159
227.221
194.732
174.099
150.118
131.767
122.161
103.388
87.6643
63.6706
41.5401
25.0644
54.0388
54.4334
244.715
449.34
383.182
158.74
810.77
302.099
251.034
224.142
191.934
150.621
129.91
117.472
102.976
90.6251
83.6062
66.3341
49.8632
36.4696
23.9547
15.7116
58.8538
52.7429
249.772
410.263
353.933
157.11
797.444
259.661
207.382
183.364
156.639
118.131
102.536
92.7458
82.3808
73.7884
68.9256
54.7013
41.5149
30.3959
22.2421
14.1033
27.1505
36.5019
165.253
340.028
318.133
152.057
781.948
200.395
153.141
135.599
115.93
83.4134
73.4925
67.7346
61.9337
56.4723
53.274
42.8638
31.6648
24.3788
19.5979
13.3709
17.02
27.4582
104.204
276.355
286.666
145.339
766.48
186.668
139.043
121.568
102.996
71.6041
62.3729
56.5169
51.2887
46.872
44.2869
34.8898
26.0106
19.6051
16.2767
11.8868
12.7807
22.4135
68.0938
227.354
259.674
138.183
751.882
149.119
106.417
93.6398
79.7923
52.7516
46.9928
43.4272
40.4751
37.3684
35.3497
26.8418
19.0055
14.9459
12.7111
9.48478
10.5065
19.7066
53.0155
191.187
234.804
131.174
737.648
146.702
103.277
89.4631
75.0992
48.5125
42.0782
37.8464
34.6211
31.8623
30.0524
21.6688
15.3721
11.3786
9.39946
6.96531
9.3418
18.9141
50.2577
166.77
213.605
124.718
724.659
119.5
80.6306
70.7178
60.1378
36.9019
33.0512
30.4435
28.516
26.364
24.8069
17.2493
11.6338
8.684
6.93089
6.11117
10.2503
20.1263
53.446
150.248
196.567
118.999
711.975
121.331
81.399
70.0586
58.4129
35.4242
30.5742
27.228
24.9763
22.9792
21.4692
14.5173
9.49132
6.67854
5.77257
7.33753
13.6004
23.0425
57.4835
139.616
185.306
114.153
700.537
99.6351
63.8214
55.9041
47.5652
27.2564
24.5692
22.5219
21.1394
19.4784
18.1535
12.1346
7.09225
5.55313
6.15661
10.6399
19.4417
27.1117
60.4265
132.014
178.128
110.125
689.384
103.934
66.6541
57.0081
47.2243
26.9917
23.1741
20.3367
18.721
17.1682
15.8863
10.1829
6.27498
6.18334
8.8707
16.0777
27.0215
31.3844
60.8014
126.351
174.661
106.875
679.198
85.9282
52.4897
45.9631
39.1384
21.0558
19.0325
17.268
16.1679
14.8086
13.5691
8.45377
6.57147
8.5161
13.0173
22.9902
35.4813
35.0203
58.8496
121.068
173.151
104.258
669.335
91.2175
56.0815
47.7463
39.3781
21.2924
18.1958
15.6475
14.4232
13.1698
11.6752
7.11073
8.29654
12.8245
18.8112
30.8489
43.3597
37.1909
54.6906
115.938
173.405
102.212
660.109
75.5106
43.9626
38.5358
32.9184
16.645
15.1218
13.5188
12.6199
11.4455
9.43015
6.82931
10.7241
17.1327
24.8611
38.918
49.2495
37.5605
49.3185
110.296
174.208
100.605
651.395
81.5411
47.9576
40.6421
33.3897
17.0963
14.5587
12.1766
11.2787
10.1103
7.228
7.36097
13.4206
22.0052
31.2787
45.7226
51.7429
36.0954
43.3033
104.42
175.779
99.3961
642.935
67.6746
37.5723
32.9654
28.2283
13.4725
12.2587
10.7453
9.98549
8.67876
5.66393
8.20113
15.887
26.5722
36.948
50.0681
50.4184
33.2572
37.4665
98.0974
177.452
98.4809
635.241
73.9513
41.5517
35.096
28.7659
13.9954
11.8758
9.7142
8.97344
7.43138
4.98414
9.72348
18.2143
30.51
40.8209
50.8694
45.6528
29.6078
32.1306
91.7723
179.539
97.8435
627.294
61.3489
32.3828
28.4621
24.4716
11.0484
10.0786
8.7283
7.99576
6.06638
4.91776
10.9063
20.0826
32.9609
42.0005
48.2207
38.7854
25.7741
27.6155
85.3946
181.548
97.404
620.488
67.7556
36.2673
30.5274
24.9762
11.5361
9.76952
7.90189
7.17731
4.96789
5.58484
12.0088
21.3
33.5047
40.3909
42.7512
31.2873
22.164
23.8988
79.3764
183.801
97.1655
612.983
56.3414
28.2288
24.8421
21.4215
9.17465
8.36066
7.18365
6.38235
4.18656
6.31638
12.6961
21.5977
32.0608
36.4593
35.8092
24.4161
19.026
20.9708
73.6768
185.872
97.0651
607.021
62.6529
31.8939
26.7759
21.8834
9.63185
8.12388
6.53
5.68872
3.78606
7.33784
13.0652
20.9526
29.0698
31.2209
28.5989
18.7415
16.4121
18.6771
68.5855
188.04
97.1152
599.775
52.1103
24.6764
21.7575
18.8459
7.68682
6.99483
5.96807
5.00915
3.62166
8.07028
13.0049
19.47
25.1504
25.5734
22.1208
14.3542
14.2972
16.9254
63.9992
189.885
97.2614
594.563
58.3403
28.1484
23.565
19.2431
8.08531
6.79583
5.42399
4.41027
3.77035
8.71649
12.5353
17.4424
20.9999
20.3274
16.8082
11.0561
12.6001
15.5779
60.0489
191.638
97.5205
587.589
48.6006
21.6841
19.1457
16.6463
6.49758
5.89071
4.96783
3.85638
4.04286
9.08786
11.7111
15.171
17.0835
15.8602
12.7439
8.61169
11.2438
14.5626
56.5521
192.913
97.8451
583.154
54.7468
25.0068
20.8752
17.0222
6.8742
5.74397
4.54367
3.40487
4.56482
9.23604
10.6529
12.927
13.7133
12.3217
9.74067
6.80306
10.1523
13.7899
53.5247
193.946
98.2545
576.218
45.5652
19.0915
16.8933
14.7591
5.55526
5.01422
4.14144
3.00581
5.05178
9.09168
9.49245
10.8835
10.968
9.61741
7.56661
5.46612
9.26915
13.22
50.7766
194.414
98.7058
572.428
51.5865
22.2373
18.5132
15.0841
5.8844
4.89666
3.80909
2.7149
5.57106
8.69382
8.34646
9.1317
8.83343
7.61046
5.99648
4.47542
8.54708
12.7993
48.3136
194.578
99.22
565.61
43.0362
16.9026
14.9765
13.1296
4.80376
4.3101
3.44023
2.46823
5.90101
8.08898
7.29469
7.69234
7.21058
6.13332
4.86364
3.74167
7.95411
12.5105
46.0123
194.2
99.7618
562.502
48.8388
19.8457
16.4816
13.417
5.10273
4.22432
3.18786
2.33471
6.12942
7.37121
6.38148
6.54714
6.0035
5.05824
4.04399
3.19936
7.46503
12.3216
43.9143
193.584
100.353
555.638
40.8333
15.0165
13.3205
11.7179
4.21075
3.75076
2.85394
2.24319
6.17391
6.61914
5.62093
5.65888
5.11375
4.2784
3.4539
2.80251
7.06435
12.2282
41.9577
192.557
100.966
553.064
46.3918
17.733
14.697
11.9585
4.46998
3.68195
2.65843
2.27221
6.10682
5.90335
5.00889
4.98396
4.46916
3.72086
3.03352
2.51773
6.74016
12.2111
40.2001
191.447
101.623
546.298
38.9168
13.3768
11.8717
10.4748
3.72773
3.29231
2.35579
2.33773
5.92049
5.26358
4.53007
4.48202
4.00915
3.32903
2.74226
2.32148
6.48601
12.2733
38.6006
190.127
102.307
544.357
44.2876
15.9392
13.1738
10.7002
3.9743
3.24232
2.21924
2.52445
5.67617
4.72247
4.16605
4.11824
3.69251
3.06472
2.55034
2.19645
6.29635
12.402
37.2057
188.939
103.04
537.419
37.2495
11.9797
10.6338
9.40334
3.35724
2.92316
1.97962
2.7381
5.3906
4.28248
3.89759
3.86441
3.48581
2.8982
2.43699
2.1302
6.16813
12.604
35.9743
187.776
103.814
535.986
42.4135
14.3746
11.8551
9.6121
3.59346
2.88949
1.89118
3.02854
5.1069
3.93907
3.70777
3.69789
3.36678
2.80935
2.38638
2.11329
6.09745
12.8687
34.9402
186.969
104.657
528.834
35.8021
10.7798
9.56742
8.47412
3.07437
2.62783
1.70612
3.30075
4.83682
3.6806
3.58162
3.6011
3.31704
2.78246
2.38755
2.13896
6.08143
13.204
34.0627
186.418
105.563
527.645
40.798
13.0301
10.7196
8.66962
3.29758
2.60869
1.66081
3.59398
4.60298
3.49606
3.50715
3.56062
3.32538
2.80825
2.43296
2.20275
6.11614
13.5996
33.376
186.432
106.567
520.094
34.5937
9.81382
8.69811
7.69264
2.86353
2.39555
1.52322
3.84652
4.406
3.37355
3.47462
3.56698
3.38367
2.8823
2.52081
2.30414
6.19966
14.065
32.8605
186.871
107.668
518.533
39.5539
12.2049
10.0169
8.00365
3.14179
2.40944
1.52993
4.09376
4.25321
3.30448
3.47713
3.61502
3.49155
3.01039
2.65773
2.4493
6.333
14.5922
32.5926
187.955
108.913
509.982
33.8959
9.40374
8.34368
7.28232
2.84927
2.27055
1.49921
4.3074
4.13777
3.28048
3.50909
3.70289
3.65357
3.20851
2.86419
2.65517
6.5255
15.1947
32.6611
189.355
110.315
507.361
38.2274
11.4391
9.47284
7.59728
3.13809
2.30714
1.74275
4.49606
4.05592
3.2921
3.56439
3.82644
3.87685
3.49576
3.1657
2.94504
6.79047
15.872
33.338
191.031
112.044
497.45
31.4877
7.69095
7.04521
6.55253
2.7417
2.10178
2.29236
4.61714
3.98914
3.32345
3.63319
3.97347
4.15945
3.88082
3.58309
3.33995
7.13748
16.669
34.9206
192.221
114.59
491.421
21.2379
1.74534
2.08
3.65931
0.987357
1.32607
3.52782
4.5823
3.91877
3.35368
3.70281
4.12353
4.49019
4.35689
4.12356
3.85143
7.56675
17.631
37.6888
192.091
120.146
461.759
71.4922
38.879
27.5071
13.4718
7.14359
2.71642
4.91172
4.33102
3.8239
3.35515
3.75878
4.25132
4.84255
4.89507
4.77476
4.47489
8.07666
18.8657
41.277
189.024
137.308
83.0381
173.556
92.9391
19.6036
84.3385
52.7856
64.6456
95.1821
113.869
141.84
174.487
165.492
201.373
237.217
247.012
211.188
152.368
101.771
67.0433
43.8049
29.5034
20.6689
14.2512
10.816
9.00005
8.29578
7.71184
7.11962
6.77949
6.93676
7.5076
7.8288
7.57187
6.43247
5.30369
80.9747
178.4
85.8053
16.5929
75.0255
45.8971
55.2311
83.4903
104.936
135.597
185.467
171.689
215.566
254.983
267.894
229.613
163.961
106.743
68.4192
43.8382
29.3024
20.4709
14.1328
10.7297
8.92566
8.2265
7.65252
7.07341
6.74477
6.91333
7.48866
7.81011
7.55516
6.41867
5.29369
77.9885
180.763
72.9645
12.8745
55.2466
36.0819
38.5728
56.0033
72.0961
90.2357
159.006
134.407
147.797
182.419
211.729
199.763
152.514
103.003
66.6542
42.7511
28.5319
19.9402
13.8492
10.5386
8.7667
8.08063
7.52901
6.97787
6.67281
6.86414
7.4489
7.7709
7.52028
6.39017
5.27302
74.1729
180.861
57.6721
9.16168
35.9264
26.7516
27.064
36.3519
46.314
55.6844
114.747
93.2077
93.2133
115.916
143.072
148.781
125.924
92.2541
62.3934
40.701
27.2691
19.1177
13.4144
10.2494
8.53026
7.86594
7.3478
6.8376
6.56668
6.79068
7.38903
7.71156
7.46741
6.34705
5.24168
69.6793
178.713
42.8064
6.20679
22.8833
19.4495
19.506
24.3886
30.1546
34.5473
70.1883
58.4331
57.1396
70.8788
90.1161
101.555
96.2709
78.337
56.5964
37.9514
25.6286
18.0636
12.8503
9.87504
8.2285
7.59421
7.1187
6.65944
6.43107
6.69558
7.31045
7.63307
7.39717
6.28961
5.19992
64.7156
173.305
30.0991
4.21536
15.2129
14.2194
14.5004
17.1976
20.5527
22.4655
38.9494
34.1717
35.1971
44.9204
58.2967
69.0162
71.7747
64.6911
50.2486
34.8014
23.7447
16.8521
12.1864
9.43303
7.87688
7.28002
6.85364
6.45181
6.27182
6.58224
7.21517
7.53688
7.31053
6.2184
5.14811
59.4701
162.28
20.3202
3.0074
10.8861
10.6472
11.1555
12.7337
14.8408
15.5251
21.6968
19.5703
21.5588
29.8552
40.5378
49.5781
54.662
53.2751
44.1363
31.5327
21.7541
15.5605
11.4564
8.94407
7.49246
6.93903
6.56534
6.22386
6.0953
6.45451
7.10562
7.4248
7.20877
6.13414
5.08676
54.1776
144.857
13.4076
2.29772
8.32017
8.19718
8.81398
9.81346
11.259
11.3696
12.9817
11.5115
13.0914
20.1892
29.5398
37.7611
43.4545
44.5786
38.7307
28.3773
19.7774
14.2601
10.6949
8.42967
7.0921
6.58632
6.26608
5.98459
5.90786
6.31632
6.9844
7.29882
7.0933
6.03772
5.01646
49.0177
121.871
8.87391
1.90118
6.74608
6.51363
7.15898
7.81557
8.93312
8.7562
8.50417
7.22845
8.04895
13.5723
21.6908
29.6509
35.866
38.1641
34.1925
25.4855
17.9071
13.0079
9.93376
7.90993
6.69089
6.23508
5.96665
5.74213
5.71533
6.17144
6.85414
7.16095
6.96566
5.9301
4.93788
44.2107
98.3844
5.98824
1.67624
5.68262
5.3007
5.92127
6.36813
7.29925
6.99626
6.05714
4.92227
5.14693
9.03007
15.7756
23.5566
30.4048
33.4258
30.4915
22.9363
16.2021
11.844
9.19864
7.40188
6.30119
5.89585
5.67579
5.5033
5.52275
6.02322
6.71724
7.01315
6.82734
5.81232
4.85168
39.8613
77.835
4.20685
1.56771
4.9556
4.42606
5.01079
5.29705
6.1304
5.76171
4.62807
3.63606
3.49403
6.00408
11.3645
18.8274
26.2542
29.8401
27.5077
20.7459
14.6909
10.7911
8.50835
6.91852
5.93219
5.57625
5.39998
5.2734
5.33417
5.8745
6.57586
6.85722
6.67978
5.68538
4.75853
36.0592
62.3306
3.07436
1.51105
4.39585
3.75365
4.28969
4.46387
5.21718
4.83847
3.73202
2.89023
2.54488
4.06902
8.18827
15.1887
23.0394
27.0796
25.1119
18.8984
13.3791
9.85864
7.87465
6.46872
5.58998
5.28121
5.14356
5.05624
5.15269
5.72753
6.43178
6.69475
6.52431
5.55031
4.6591
32.7656
50.6615
2.37483
1.4965
3.98184
3.24763
3.74443
3.82062
4.51831
4.14258
3.1335
2.43921
1.9886
2.86681
5.97359
12.4237
20.521
24.9161
23.1867
17.3569
12.2574
9.04538
7.30328
6.05756
5.27795
5.01336
4.90899
4.85424
4.98044
5.58401
6.28643
6.52713
6.36214
5.4081
4.55403
29.973
39.2243
1.89664
1.47898
3.63048
2.83514
3.2897
3.29373
3.93358
3.58094
2.70102
2.15061
1.65484
2.12701
4.46433
10.3482
18.5562
23.2162
21.6414
16.0827
11.3087
8.34449
6.79539
5.68711
4.9974
4.77354
4.6973
4.66872
4.81877
5.44508
6.14089
6.35554
6.19439
5.2597
4.44395
27.5998
27.8387
1.58063
1.4712
3.36622
2.52064
2.94635
2.88047
3.47808
3.14382
2.37427
1.95216
1.44973
1.67031
3.44869
8.79605
17.0163
21.8711
20.4027
15.0356
10.5131
7.74566
6.34901
5.3572
4.74806
4.56135
4.5084
4.50007
4.6684
5.31148
5.99594
6.18095
6.02204
5.10604
4.32945
25.6172
18.4403
1.34669
1.44552
3.14191
2.26757
2.66038
2.54218
3.09149
2.78482
2.11692
1.80496
1.32301
1.38914
2.77118
7.63823
15.8139
20.8142
19.4167
14.1828
9.85089
7.23782
5.96029
5.06619
4.52868
4.37553
4.34148
4.34804
4.52948
5.18352
5.85206
6.00421
5.84599
4.94801
4.21112
23.937
11.838
1.19853
1.43652
3.00762
2.10576
2.47624
2.30316
2.81368
2.52572
1.92597
1.69357
1.24954
1.22232
2.32688
6.77598
14.8685
19.9818
18.6392
13.4944
9.304
6.80986
5.62442
4.81155
4.33737
4.21433
4.19523
4.21191
4.40181
5.06123
5.70956
5.82602
5.66708
4.78648
4.08954
22.5308
7.66732
1.09646
1.44264
2.95602
2.0363
2.37661
2.15441
2.61894
2.3455
1.80248
1.62013
1.22124
1.13741
2.04913
6.14205
14.1304
19.3375
18.0384
12.948
8.85679
6.4518
5.3363
4.59037
4.17193
4.07573
4.06804
4.09061
4.28487
4.94441
5.56853
5.64695
5.48604
4.62228
3.96525
21.3398
5.31509
1.07255
1.5175
3.07439
2.1201
2.4341
2.14249
2.56461
2.28504
1.76549
1.59907
1.23981
1.11932
1.89872
5.69251
13.5573
18.844
17.5876
12.5238
8.49612
6.15466
5.09097
4.39956
4.03006
3.95761
3.95817
3.98291
4.17794
4.83267
5.42897
5.46752
5.30356
4.45618
3.8388
20.3428
3.93115
1.10722
1.66107
3.38605
2.39038
2.66246
2.28194
2.64857
2.34521
1.83152
1.65079
1.31583
1.16517
1.85522
5.40407
13.1333
18.4875
17.2701
12.208
8.21118
5.91093
4.8838
4.23614
3.90947
3.85786
3.8638
3.88743
4.08017
4.72549
5.29073
5.28815
5.12025
4.28893
3.71068
19.5021
3.2275
1.26124
1.92808
3.99454
2.94713
3.17374
2.65469
2.95403
2.59284
2.03998
1.8029
1.46774
1.28196
1.91331
5.26856
12.8494
18.254
17.0732
11.989
7.99345
5.71422
4.71069
4.09732
3.80797
3.77439
3.78311
3.80273
3.99061
4.62228
5.15364
5.1092
4.9367
4.12125
3.5814
18.7975
2.8403
1.5586
2.32876
4.93094
3.86193
4.02
3.32543
3.52193
3.06958
2.44766
2.09906
1.72722
1.48732
2.0802
5.29099
12.7192
18.1522
16.9942
11.8608
7.83647
5.55952
4.56808
3.98055
3.7235
3.70526
3.71432
3.72737
3.90825
4.52236
5.01743
4.93099
4.7534
3.95377
3.4514
18.2045
2.73932
2.15673
2.94398
6.30585
5.2689
5.35901
4.44837
4.50744
3.92322
3.17592
2.61889
2.14836
1.81334
2.37766
5.48773
12.7605
18.1912
17.0354
11.8198
7.73588
5.44282
4.45299
3.8836
3.6542
3.6486
3.65571
3.65991
3.83209
4.42504
4.88183
4.75376
4.57084
3.78708
3.32114
17.6978
2.71351
3.17881
3.79546
8.15869
7.25621
7.25849
6.13493
6.01449
5.28207
4.40025
3.50201
2.82836
2.31346
2.843
5.88714
13.0082
18.4011
17.2102
11.8686
7.68947
5.36142
4.36306
3.80456
3.59836
3.60268
3.60563
3.59893
3.76111
4.32961
4.74655
4.57772
4.38939
3.62171
3.19099
17.2639
2.71718
4.85151
4.9754
10.6018
9.95276
9.88012
8.56638
8.25682
7.39351
6.38907
4.98292
3.94394
3.08176
3.53744
6.53153
13.4959
18.8074
17.5368
12.0132
7.69737
5.31364
4.29649
3.74181
3.55446
3.56589
3.56248
3.54308
3.6943
4.23537
4.61128
4.403
4.20943
3.4581
3.06133
16.874
2.66403
7.13739
6.51652
13.6626
13.4196
13.2701
11.8345
11.3545
10.4246
9.41345
7.38497
5.78764
4.28634
4.55322
7.47982
14.2689
19.4502
18.0436
12.2667
7.76217
5.29907
4.2521
3.69407
3.52117
3.53672
3.52476
3.49101
3.63071
4.14161
4.47569
4.22965
4.03122
3.29661
2.93248
16.5253
2.63191
10.0709
8.70953
17.679
18.0048
17.7541
16.1999
15.5844
14.6594
13.7647
11.0951
8.78393
6.24214
6.04602
8.81387
15.3655
20.3536
18.7589
12.6457
7.88917
5.31833
4.2292
3.66029
3.49728
3.51376
3.491
3.44144
3.5694
4.04763
4.33946
4.05764
3.85499
3.13753
2.80472
16.19
2.66627
13.9274
12.1806
23.5303
24.6453
24.0548
22.174
21.3199
20.3672
19.6785
16.4681
13.3917
9.45313
8.29032
10.6577
16.844
21.5497
19.7142
13.1738
8.08632
5.37328
4.2276
3.63966
3.48173
3.49567
3.45975
3.39308
3.5095
3.95274
4.20225
3.88685
3.68092
2.98103
2.6783
15.8818
2.82319
19.2914
17.9571
32.6556
34.8413
33.43
30.6663
29.2323
28.0127
27.3885
23.7791
19.9799
14.5573
11.7955
13.2414
18.7902
23.0563
20.9313
13.8751
8.36412
5.46657
4.24743
3.63143
3.4735
3.48112
3.42956
3.34468
3.45014
3.85624
4.06373
3.71705
3.50909
2.82721
2.55343
15.5784
3.0793
25.7381
26.5388
45.7871
49.367
46.5135
42.1524
39.6096
37.6988
36.8136
33.0107
28.598
21.9982
17.2851
17.0198
21.429
24.949
22.4322
14.7783
8.73525
5.6018
4.28899
3.63488
3.47159
3.46878
3.39899
3.29496
3.39049
3.75744
3.92354
3.54793
3.33958
2.67611
2.43028
15.3128
3.49477
31.9178
37.4736
62.0213
66.9188
62.3222
55.915
51.9005
48.9214
47.342
43.6627
38.8441
31.7097
25.371
22.6945
25.1782
27.389
24.2443
15.9083
9.21411
5.78296
4.35263
3.64912
3.4749
3.4572
3.36648
3.24265
3.32978
3.65567
3.78136
3.3791
3.1724
2.52767
2.30901
15.0751
4.13329
37.5197
50.4664
80.02
85.1631
78.5682
70.1107
64.5697
60.383
57.8358
54.6819
49.7553
42.9541
35.9646
30.8839
30.6376
30.7245
26.4512
17.2956
9.81652
6.0146
4.43854
3.67303
3.48223
3.44487
3.33044
3.18643
3.26723
3.55028
3.63687
3.21014
3.00756
2.38184
2.18976
14.9399
5.19774
44.6621
67.201
100.465
103.425
93.8995
83.3273
76.2517
70.9005
67.237
64.8626
60.0951
54.528
48.07
41.4925
38.1637
35.3375
29.2128
18.9743
10.5596
6.3013
4.54661
3.70509
3.49216
3.4301
3.28919
3.12503
3.20211
3.44068
3.48983
3.04065
2.84506
2.23851
2.07264
14.952
6.89922
55.9539
89.8498
124.322
121.441
107.268
94.382
85.6586
79.2772
74.5909
73.0691
68.6272
65.0259
60.0569
53.4034
47.4895
41.4461
32.7625
21.0052
11.4626
6.64802
4.67632
3.74337
3.50299
3.41106
3.241
3.05715
3.13372
3.32634
3.34003
2.87029
2.68492
2.09762
1.95779
15.2966
9.74024
73.6083
117.855
148.822
136.103
116.277
101.399
91.2564
84.194
78.8243
78.2945
74.3387
73.0608
70.0939
64.6631
57.4279
48.7094
37.2347
23.4614
12.5468
7.05926
4.82642
3.78528
3.51271
3.38573
3.18408
2.98156
3.06138
3.20685
3.1874
2.69885
2.5272
1.95917
1.84533
16.1779
14.2094
97.0197
144.37
165.426
141.087
116.967
101.648
91.114
84.0416
78.6798
79.5371
76.4211
77.5143
76.6751
73.3065
66.3383
56.2787
42.5014
26.4101
13.8333
7.53842
4.99441
3.82739
3.51882
3.35182
3.11661
2.89708
2.98442
3.08189
3.03192
2.52631
2.37199
1.82321
1.7354
18.0468
21.2349
122.268
159.963
165.926
132.284
107.628
94.0811
84.7145
78.4705
73.8023
76.442
74.6413
77.8438
78.9651
77.9729
72.6129
62.9067
48.011
29.798
15.3266
8.08341
5.1752
3.86475
3.51814
3.30669
3.03669
2.80264
2.90218
2.95126
2.87373
2.35286
2.21943
1.68991
1.62812
21.4338
32.0283
144.47
160.498
150.217
112.477
90.8763
80.5574
73.4304
68.5554
65.0754
69.4814
69.3684
74.2709
77.1146
78.4502
75.4751
67.5326
52.9442
33.3784
16.9838
8.67909
5.35872
3.89004
3.50655
3.2472
2.9424
2.69726
2.81403
2.81492
2.71309
2.17904
2.06975
1.55958
1.52365
27.1709
48.1893
158.954
146.778
123.816
87.5267
71.1556
64.2843
59.7202
56.5416
54.4247
60.0732
61.6603
67.7525
72.038
75.3726
74.9013
69.4607
56.4068
36.6395
18.6676
9.28295
5.52661
3.89244
3.47873
3.16975
2.83192
2.58022
2.71933
2.67304
2.55049
2.00583
1.92329
1.4327
1.42218
35.7809
72.4669
160.468
121.519
93.0054
62.3658
51.668
47.7882
45.6759
44.5178
43.8316
49.868
52.8253
59.7092
65.2079
70.0859
71.6973
68.7043
57.8079
38.9613
20.1286
9.81503
5.64998
3.85768
3.42838
3.07063
2.70394
2.4513
2.61763
2.52618
2.38671
1.83477
1.78054
1.31001
1.32395
47.6366
110.949
153.579
94.0083
65.8909
42.3901
36.2836
34.3934
34.031
34.5777
35.0102
40.6968
44.463
51.6757
58.0264
63.8937
66.8354
65.6975
56.9727
39.8049
21.0519
10.164
5.69288
3.77093
3.34921
2.94717
2.55836
2.31116
2.50873
2.37536
2.22288
1.66789
1.64219
1.19241
1.22924
63.1308
169.586
147.57
72.1881
46.4639
29.1553
26.0016
25.2333
25.7879
27.3061
28.4169
33.4017
37.476
44.6108
51.3942
57.7052
61.1823
61.0907
54.131
38.9219
21.161
10.2216
5.62335
3.6228
3.23696
2.79898
2.39688
2.16153
2.39295
2.22205
2.06046
1.50732
1.50899
1.0808
1.13841
82.7773
240.635
143.342
56.318
33.2452
20.6616
19.4164
19.2207
20.1951
22.1864
23.6482
27.9161
32.0218
38.7511
45.4215
51.6034
55.0423
55.3979
49.7129
36.3483
20.3207
9.92365
5.42583
3.41401
3.09129
2.62881
2.22322
2.00538
2.2713
2.06822
1.90122
1.35515
1.38183
0.976014
1.05185
106.375
289.906
130.054
41.9955
23.0263
14.5242
14.6283
14.7287
15.9257
18.2258
20.007
23.7156
27.8175
33.9731
40.0616
45.7146
48.9064
49.4005
44.4102
32.4569
18.5953
9.27903
5.1077
3.15623
2.91648
2.44245
2.04286
1.84661
2.1455
1.91629
1.74719
1.21327
1.26166
0.878813
0.969998
308.252
12.7002
2.99029
10.1805
10.4426
4.0386
2.69672
5.72867
3.92315
3.72606
3.31897
3.77978
4.30896
5.10309
5.3264
5.34142
5.03328
8.51782
20.1344
43.387
184.462
188.947
305.394
9.85091
1.04456
3.32857
6.74735
2.7601
2.73009
5.71293
3.5636
3.63213
3.27207
3.76553
4.30291
5.23673
5.58591
5.72841
5.44029
8.82345
21.0874
44.3877
181.287
257.804
322.36
12.5135
1.51706
1.54275
4.28148
2.01642
2.96226
5.45032
3.19739
3.51231
3.20514
3.72116
4.2495
5.30213
5.77275
6.06035
5.82667
9.10273
21.986
44.7555
178.72
344.325
333.108
11.3175
1.14717
0.843835
2.62512
1.4954
3.14511
5.04794
2.85402
3.36798
3.12149
3.64848
4.15274
5.28669
5.86537
6.30116
6.16061
9.34013
22.7793
44.5967
176.62
442.828
354.55
14.6601
1.80578
1.08073
1.80202
1.19435
3.36829
4.65222
2.54978
3.20658
3.0254
3.5516
4.01975
5.19078
5.85595
6.42286
6.413
9.52145
23.3916
44.0794
175.119
544.042
365.666
13.2679
1.37107
0.875393
1.24191
0.974986
3.49259
4.26795
2.28823
3.03491
2.92055
3.43558
3.85948
5.02209
5.74575
6.41424
6.56301
9.63594
23.7981
43.2872
173.884
639.511
389.181
17.1591
2.15477
1.32711
1.09298
0.869087
3.58882
3.93687
2.06985
2.86168
2.81106
3.30624
3.6814
4.79814
5.54976
6.27801
6.59886
9.67404
23.9558
42.3491
172.838
721.155
400.087
15.5282
1.63518
1.10166
0.926733
0.738131
3.58446
3.6548
1.89092
2.69231
2.7001
3.16912
3.49466
4.53655
5.28642
6.03342
6.52138
9.63095
23.8832
41.2913
171.6
785.378
425.331
20.0991
2.59604
1.69219
1.04915
0.713713
3.55111
3.44347
1.74872
2.53253
2.59103
3.02962
3.30737
4.25765
4.98097
5.70658
6.34075
9.50438
23.5723
40.1953
170.139
829.672
434.906
18.1321
1.96907
1.4045
1.02035
0.631206
3.42995
3.29941
1.63978
2.38477
2.48623
2.89234
3.12642
3.97647
4.65454
5.33002
6.07706
9.29814
23.0726
39.0444
168.135
855.48
461.033
23.345
3.1098
2.14137
1.28058
0.68186
3.27468
3.2364
1.5629
2.25201
2.38827
2.76146
2.95733
3.70724
4.32881
4.93263
5.75402
9.01902
22.3952
37.8946
165.639
863.858
469.225
21.0382
2.35504
1.7707
1.29852
0.636988
3.01286
3.24583
1.51753
2.13508
2.29891
2.64038
2.80448
3.45829
4.01803
4.54102
5.3982
8.67942
21.6014
36.71
162.419
858.341
495.971
27.0047
3.73386
2.6953
1.66538
0.76959
2.70232
3.33041
1.50602
2.0361
2.22026
2.5321
2.6711
3.23707
3.73502
4.17347
5.03302
8.29328
20.7059
35.5395
158.609
840.924
501.965
24.2779
2.82929
2.22705
1.69751
0.738971
2.29199
3.45895
1.53208
1.95629
2.15394
2.43894
2.55962
3.04663
3.48604
3.84387
4.67937
7.87787
19.7669
34.3433
154.055
815.132
528.623
30.9299
4.43898
3.3443
2.15942
0.927396
1.90197
3.6052
1.60267
1.89893
2.10212
2.36294
2.47164
2.89
3.27656
3.55905
4.3522
7.44953
18.7941
33.1713
148.968
782.535
532.623
27.8219
3.37855
2.76736
2.1876
0.877905
1.50006
3.68269
1.7258
1.86754
2.06689
2.30556
2.40819
2.76727
3.10768
3.32324
4.06277
7.02521
17.8358
31.9846
143.251
745.831
558.891
35.2018
5.25347
4.10358
2.75388
1.12129
1.2431
3.63339
1.91142
1.86861
2.05131
2.26812
2.36969
2.67899
2.98069
3.13664
3.81729
6.61893
16.8936
30.8342
137.159
705.883
560.617
31.7384
4.04665
3.4234
2.7792
1.07567
1.02531
3.34252
2.16584
1.90997
2.05898
2.25167
2.35618
2.62371
2.89419
2.99885
3.61959
6.24352
16.0045
29.6828
130.616
664.566
585.571
39.6628
6.1517
4.87241
3.42014
1.39042
0.987881
2.87088
2.49086
2.00337
2.09536
2.25757
2.36735
2.60064
2.84747
2.90749
3.47041
5.90806
15.1631
28.5798
123.899
622.198
585.947
35.9733
4.80628
4.05659
3.40819
1.35469
0.951072
2.24256
2.87269
2.16253
2.16779
2.28777
2.40291
2.60762
2.83803
2.86063
3.36958
5.61981
14.3963
27.4884
116.936
580.033
609.626
44.4833
7.18532
5.72984
4.15526
1.76873
1.09485
1.73115
3.28206
2.40472
2.28715
2.34595
2.46297
2.64344
2.86434
2.85528
3.31521
5.38238
13.6939
26.4549
109.997
538.086
608.62
40.6027
5.70586
4.79728
4.12451
1.76621
1.18612
1.32803
3.65747
2.74477
2.4683
2.43854
2.54873
2.70608
2.92359
2.88926
3.30535
5.19777
13.0749
25.4431
102.988
497.222
630.865
49.6248
8.35871
6.72745
5.01074
2.33359
1.48806
1.21493
3.91269
3.18934
2.73141
2.57666
2.66364
2.79537
3.01424
2.95963
3.33696
5.06496
12.5259
24.4955
96.1653
457.323
628.921
45.6336
6.73368
5.65946
4.96338
2.39413
1.68916
1.2046
3.95478
3.71425
3.10054
2.77802
2.81495
2.91165
3.13405
3.06448
3.40733
4.982
12.0598
23.5772
89.4172
418.997
649.801
55.1886
9.69916
7.87246
6.01257
3.15179
2.15343
1.44003
3.73374
4.24833
3.59881
3.06924
3.01573
3.0593
3.28315
3.20135
3.51301
4.9448
11.6609
22.7277
82.9743
382.095
647.004
51.1607
7.94771
6.67943
5.95522
3.26515
2.4653
1.69538
3.31736
4.6503
4.2327
3.48675
3.28701
3.24605
3.46251
3.36962
3.65135
4.94926
11.3376
21.914
76.7053
347.062
666.492
61.204
11.2397
9.21449
7.20093
4.24867
3.12834
2.19519
2.87005
4.76946
4.96413
4.07361
3.65986
3.48725
3.67786
3.5691
3.81959
4.99014
11.0722
21.1724
70.8157
313.752
663.252
57.218
9.35701
7.87448
7.12928
4.40415
3.5604
2.6567
2.5489
4.50183
5.67379
4.86444
4.17557
3.80424
3.93814
3.80363
4.01719
5.06335
10.8708
20.4718
65.1696
282.484
681.54
67.7606
12.9979
10.744
8.589
5.64913
4.45151
3.39402
2.51911
3.96047
6.1562
5.84562
4.88196
4.22741
4.25916
4.07954
4.24538
5.16502
10.7157
19.8454
59.9455
253.127
678.006
63.9368
11.0236
9.27839
8.50843
5.85814
4.9956
4.03483
2.71855
3.34135
6.1919
6.89243
5.81407
4.79096
4.6597
4.40922
4.51041
5.29437
10.6136
19.2632
55.009
225.902
695.113
74.9592
15.0654
12.5617
10.2397
7.46472
6.14754
5.00131
3.24357
2.97765
5.71169
7.71936
6.95292
5.52958
5.16214
4.80676
4.82226
5.45279
10.5503
18.7555
50.5128
200.682
691.627
71.388
12.9827
10.9376
10.147
7.7545
6.80443
5.81171
3.90051
2.92313
4.89601
7.95875
8.14931
6.45748
5.78555
5.28902
5.19674
5.64684
10.5378
18.2939
46.3326
177.6
707.668
82.8931
17.4549
14.6491
12.1736
9.78012
8.25849
7.02959
4.79813
3.30601
4.11787
7.40796
9.09132
7.53504
6.54165
5.8676
5.65037
5.88588
10.5685
17.9086
42.5949
156.526
704.374
79.739
15.3212
12.9065
12.0828
10.2113
9.08481
8.02746
5.74302
3.93433
3.65821
6.26603
9.36732
8.61651
7.42031
6.5506
6.20039
6.18324
10.661
17.5745
39.1869
137.522
719.405
91.7461
20.3144
17.1689
14.4976
12.8001
10.975
9.58045
7.02779
4.92545
3.74105
5.05928
8.75042
9.42977
8.3691
7.33366
6.85924
6.55207
10.8113
17.3243
36.2087
120.446
716.505
89.0555
18.0975
15.2823
14.4185
13.4187
12.0605
10.8491
8.43266
6.01293
4.29149
4.28528
7.41539
9.63851
9.25858
8.20414
7.64
7.00782
11.0378
17.136
33.5563
105.299
730.698
101.588
23.6461
20.081
17.2403
16.4529
14.3823
12.7667
10.2876
7.51421
5.36892
4.24444
5.95018
9.04342
9.85925
9.10573
8.55198
7.56861
11.333
17.0439
31.3042
91.9269
728.351
99.5807
21.4346
18.1262
17.2012
16.4537
15.2406
14.0221
11.9537
9.19738
6.82172
4.92299
5.02208
7.80065
9.88804
9.91403
9.59302
8.26291
11.7204
17.0263
29.3549
80.283
741.771
112.688
27.6821
23.6485
20.5764
19.7369
17.6859
16.0257
13.9259
11.3759
8.70688
6.24682
4.97921
6.47101
9.1943
10.3786
10.6826
9.11454
12.2075
17.1237
27.7632
70.2011
740.076
111.412
25.442
21.5768
20.5857
19.8276
18.5867
17.3396
15.5896
13.3532
10.8062
7.94799
5.78966
5.67849
7.97965
10.2584
11.6135
10.1056
12.8408
17.328
26.4439
61.5952
752.807
125.13
32.4468
27.8756
24.5801
23.6679
21.4691
19.6709
17.6643
15.6423
13.239
9.88679
7.18272
5.75581
6.81315
9.48466
12.0574
11.111
13.5963
17.6962
25.4563
54.3
751.82
124.83
30.3003
25.7594
24.6783
23.9012
22.5543
21.2082
19.4697
17.604
15.5851
12.1394
8.97396
6.63691
6.23344
8.35888
11.7758
11.9045
14.4061
18.197
24.7374
48.2188
763.981
139.267
38.2897
33.1287
29.5237
28.5197
26.0849
24.074
21.8905
19.9809
18.0264
14.799
11.1101
8.15992
6.51927
7.37656
10.7999
12.2317
15.0459
18.8004
24.3327
43.206
763.542
139.877
36.1672
30.8718
29.7065
28.9095
27.4252
25.9426
24.0437
22.1638
20.4199
17.5673
13.5489
10.1539
7.59971
7.00897
9.53411
11.9694
15.3093
19.3084
24.1111
39.1501
775.373
155.12
45.2494
39.3927
35.4951
34.3764
31.7089
29.4608
26.9969
24.9016
22.9879
20.407
16.338
12.5021
9.31408
7.40806
8.50654
11.2069
14.9812
19.5419
23.9942
35.876
775.647
156.973
43.3357
37.1514
35.8559
35.0254
33.3787
31.7405
29.6268
27.5584
25.735
23.3357
19.4113
15.2579
11.5428
8.59662
8.15684
10.2628
14.1059
19.2357
23.7071
33.1859
787.175
173.08
53.7674
47.1604
42.8884
41.6164
38.6481
36.1104
33.303
30.8983
28.7813
26.3948
22.6084
18.2193
14.1221
10.3845
8.60569
9.51043
12.8334
18.3327
23.1026
30.8298
788.059
176.164
52.0687
44.9031
43.4661
42.5891
40.7473
38.9231
36.5514
34.2202
32.1641
29.7627
26.0685
21.56
17.0733
12.7263
9.84717
9.28689
11.5785
16.8485
21.9401
28.5664
799.305
193.183
63.9935
56.5225
51.8938
50.4382
47.142
44.2929
41.1042
38.3322
35.9259
33.4034
29.7268
25.0542
20.2606
15.4185
11.7107
9.7327
10.6512
15.1084
20.2693
26.203
800.887
197.829
62.7728
54.4884
52.85
51.9047
49.8242
47.7838
45.1228
42.4895
40.1372
37.4929
33.8066
29.0615
23.8894
18.566
14.1492
10.9166
10.3878
13.4535
18.1755
23.6416
811.877
215.792
76.4913
68.1117
63.054
61.3538
57.6439
54.4263
50.7951
47.6049
44.8412
42.011
38.2264
33.3233
27.7904
21.9941
17.0166
12.7597
10.8476
12.3069
16.0659
20.9382
813.969
221.913
75.8169
66.3511
64.49
63.4572
61.091
58.7933
55.7961
52.8134
50.1016
47.079
43.213
38.2649
32.3473
25.96
20.3837
15.2589
12.1294
11.8982
14.2819
18.2932
824.725
240.904
91.5375
82.1513
76.6882
74.7132
70.5559
66.9355
62.8262
59.1622
55.9813
52.7335
48.6633
43.5478
37.2674
30.2548
24.1462
18.3038
14.1121
12.3736
13.2217
16.032
827.362
248.616
91.6613
80.9308
78.801
77.6601
74.9701
72.3844
69.0217
65.6535
62.5253
59.018
54.813
49.6667
43.0647
35.2032
28.437
21.9383
16.8485