/*--------------------------------*- C++ -*----------------------------------*\
| =========                 |                                                 |
| \\      /  F ield         | OpenFOAM: The Open Source CFD Toolbox           |
|  \\    /   O peration     | Version:  v1912                                 |
|   \\  /    A nd           | Website:  www.openfoam.com                      |
|    \\/     M anipulation  |                                                 |
\*---------------------------------------------------------------------------*/
FoamFile
{
    version     2.0;
    format      ascii;
    class       volScalarField;
    location    "10";
    object      k;
}
// * * * * * * * * * * * * * * * * * * * * * * * * * * * * * * * * * * * * * //

dimensions      [0 2 -2 0 0 0 0];


internalField   nonuniform List<scalar> 
12441
(
6.58907e-07
1.52001e-06
1.95345e-06
2.53776e-06
3.03337e-06
4.43753e-06
5.37726e-06
7.92534e-06
1.04764e-05
1.617e-05
2.89386e-05
8.68979e-05
0.00034983
0.00203056
0.0213656
0.0560274
0.523112
0.781383
2.95972
4.50578
4.1742
4.54737
6.83199e-07
1.5811e-06
2.03967e-06
2.69189e-06
3.21301e-06
4.73811e-06
5.79171e-06
8.76867e-06
1.225e-05
2.04445e-05
3.82791e-05
0.000107349
0.000393482
0.00203705
0.0194167
0.0634452
0.586967
0.767288
2.96251
4.36102
4.06021
4.5021
6.78816e-07
1.43542e-06
1.88612e-06
2.53594e-06
3.07145e-06
4.43542e-06
5.45813e-06
7.9762e-06
1.12544e-05
1.74799e-05
2.95506e-05
6.81359e-05
0.000237876
0.00149159
0.00831735
0.0490641
0.343552
0.642704
2.30182
3.91826
3.844
4.41147
6.70958e-07
1.38813e-06
1.81564e-06
2.44107e-06
2.9615e-06
4.2268e-06
5.18851e-06
7.3485e-06
1.05496e-05
1.59886e-05
2.53446e-05
4.64558e-05
0.000110295
0.00058133
0.00379655
0.0347938
0.238252
0.561267
1.74462
3.43358
3.61885
4.29854
6.62965e-07
1.28287e-06
1.6998e-06
2.31265e-06
2.84028e-06
4.03348e-06
5.01753e-06
7.2016e-06
1.05512e-05
1.6072e-05
2.52499e-05
4.36553e-05
8.44402e-05
0.000348298
0.00240409
0.0239221
0.176726
0.507979
1.39439
3.02889
3.41597
4.17248
6.5518e-07
1.25531e-06
1.65108e-06
2.24361e-06
2.75896e-06
3.92466e-06
4.90461e-06
6.95786e-06
1.05496e-05
1.63422e-05
2.61479e-05
4.66129e-05
9.22035e-05
0.000304269
0.00201969
0.0165884
0.145579
0.486977
1.28844
2.73098
3.23446
4.04694
6.47599e-07
1.17634e-06
1.56767e-06
2.15437e-06
2.68332e-06
3.82629e-06
4.87788e-06
7.1628e-06
1.11406e-05
1.76969e-05
2.90614e-05
5.58697e-05
0.000119055
0.000512846
0.00343779
0.0236345
0.15348
0.51427
1.36982
2.55378
3.09096
3.92503
6.40428e-07
1.16432e-06
1.53691e-06
2.10708e-06
2.63057e-06
3.78743e-06
4.88543e-06
7.15219e-06
1.17355e-05
1.93898e-05
3.33735e-05
7.06247e-05
0.000190737
0.00138464
0.0107605
0.0601112
0.218301
0.603074
1.57362
2.46868
2.99573
3.81578
6.33523e-07
1.10221e-06
1.47582e-06
2.04618e-06
2.59164e-06
3.75791e-06
4.98646e-06
7.69573e-06
1.30898e-05
2.26428e-05
4.16643e-05
0.00010257
0.000488733
0.00666843
0.0384682
0.139785
0.346404
0.749224
1.82112
2.45642
2.96118
3.71863
6.27023e-07
1.09522e-06
1.45042e-06
2.0066e-06
2.5531e-06
3.76348e-06
5.10109e-06
7.92964e-06
1.46441e-05
2.70214e-05
5.39907e-05
0.000178732
0.00253508
0.0283524
0.100809
0.268279
0.536022
0.938735
2.07228
2.48282
2.97483
3.63815
6.20859e-07
1.0438e-06
1.40403e-06
1.96422e-06
2.53702e-06
3.78157e-06
5.31046e-06
8.97747e-06
1.74847e-05
3.51628e-05
7.92087e-05
0.000523471
0.0148021
0.0842268
0.209214
0.445035
0.771408
1.14852
2.28581
2.5325
3.02913
3.57008
6.14888e-07
1.04282e-06
1.38511e-06
1.93213e-06
2.51094e-06
3.8279e-06
5.52841e-06
9.59882e-06
2.11859e-05
4.71375e-05
0.000130389
0.00279964
0.0575018
0.184094
0.355302
0.664318
1.0374
1.35906
2.45323
2.58281
3.10774
3.51687
6.09376e-07
9.98991e-07
1.34992e-06
1.90435e-06
2.51483e-06
3.88726e-06
5.85724e-06
1.16507e-05
2.77849e-05
7.01556e-05
0.000281891
0.0172452
0.139507
0.334244
0.546526
0.916635
1.30785
1.55027
2.56179
2.62933
3.20547
3.47296
6.03802e-07
9.99269e-07
1.33161e-06
1.87356e-06
2.49498e-06
3.96879e-06
6.1948e-06
1.31684e-05
3.71892e-05
0.000112422
0.000717154
0.0566856
0.249335
0.50377
0.761317
1.19099
1.55691
1.71212
2.62402
2.66116
3.31235
3.44065
5.98882e-07
9.61139e-07
1.30615e-06
1.85722e-06
2.51238e-06
4.06703e-06
6.66919e-06
1.76923e-05
5.38753e-05
0.000207753
0.00216091
0.118636
0.380397
0.705493
1.00374
1.46027
1.75454
1.83889
2.64478
2.68291
3.42859
3.41435
5.93606e-07
9.64711e-07
1.28995e-06
1.82953e-06
2.5e-06
4.1925e-06
7.17467e-06
2.12786e-05
7.91553e-05
0.000418968
0.00821576
0.190859
0.526067
0.920509
1.24835
1.70037
1.8857
1.93584
2.64404
2.6914
3.54854
3.39704
5.89237e-07
9.31115e-07
1.27377e-06
1.82398e-06
2.53196e-06
4.33754e-06
7.88247e-06
3.05686e-05
0.000126108
0.000873495
0.0264818
0.284556
0.685853
1.14432
1.47681
1.88246
1.94763
2.00946
2.62997
2.69601
3.67478
3.38331
5.8412e-07
9.35335e-07
1.25532e-06
1.79537e-06
2.52397e-06
4.51424e-06
8.6779e-06
3.76286e-05
0.000206867
0.00183604
0.059243
0.387406
0.854191
1.351
1.66064
1.99622
1.95916
2.06978
2.61724
2.69705
3.80345
3.37672
5.80231e-07
9.05332e-07
1.24681e-06
1.79788e-06
2.56616e-06
4.71442e-06
9.78116e-06
5.50822e-05
0.000354325
0.00412072
0.11117
0.503291
1.02035
1.52667
1.78926
2.03889
1.94494
2.122
2.60819
2.70474
3.93762
3.372
5.7525e-07
9.11624e-07
1.22824e-06
1.7705e-06
2.56406e-06
4.95941e-06
1.10862e-05
6.78493e-05
0.000595732
0.00906303
0.173694
0.623683
1.17238
1.65437
1.8559
2.02784
1.93067
2.17044
2.60895
2.71934
4.07312
3.37328
5.71854e-07
8.84418e-07
1.22649e-06
1.78027e-06
2.61726e-06
5.23269e-06
1.29155e-05
9.78182e-05
0.000984745
0.0190074
0.252596
0.745976
1.29948
1.73303
1.87338
1.98311
1.92749
2.21526
2.61679
2.7488
4.21234
3.37532
5.66914e-07
8.90653e-07
1.205e-06
1.75111e-06
2.61895e-06
5.56374e-06
1.51777e-05
0.000120547
0.00156611
0.0352359
0.339239
0.862259
1.39555
1.76542
1.85407
1.92988
1.93681
2.25708
2.6332
2.79054
4.34991
3.38248
5.6395e-07
8.6577e-07
1.20891e-06
1.76576e-06
2.6798e-06
5.93063e-06
1.83334e-05
0.000170801
0.0024399
0.0604706
0.435899
0.966577
1.4601
1.7657
1.81908
1.88293
1.95232
2.29498
2.65413
2.84792
4.4873
3.3895
5.59083e-07
8.73097e-07
1.18628e-06
1.73695e-06
2.68661e-06
6.37386e-06
2.2341e-05
0.000209411
0.0036842
0.0939664
0.535559
1.05397
1.49722
1.74504
1.78044
1.85138
1.96943
2.32928
2.67997
2.91428
4.6186
3.40102
5.56604e-07
8.50247e-07
1.19536e-06
1.75611e-06
2.75632e-06
6.86846e-06
2.79482e-05
0.000288203
0.00547918
0.13897
0.635111
1.12297
1.51348
1.7176
1.74951
1.83438
1.98472
2.35957
2.70726
2.9888
4.74542
3.4117
5.51646e-07
8.5743e-07
1.17042e-06
1.72627e-06
2.76753e-06
7.46128e-06
3.51736e-05
0.000349427
0.00793643
0.191637
0.727893
1.17452
1.5161
1.69026
1.72761
1.82958
1.99777
2.38635
2.7366
3.0631
4.86222
3.42631
5.49553e-07
8.36156e-07
1.18391e-06
1.74833e-06
2.8441e-06
8.1306e-06
4.51022e-05
0.000472595
0.0113943
0.253477
0.810023
1.21155
1.51117
1.66926
1.716
1.83223
2.00855
2.40952
2.76543
3.13586
4.97138
3.43948
5.44574e-07
8.44081e-07
1.15903e-06
1.72042e-06
2.86176e-06
8.91634e-06
5.78439e-05
0.000575685
0.0160478
0.318746
0.878305
1.23736
1.50331
1.65473
1.71126
1.8396
2.01792
2.4296
2.79471
3.20065
5.06848
3.45621
5.42927e-07
8.23865e-07
1.17505e-06
1.74474e-06
2.94683e-06
9.81846e-06
7.49266e-05
0.000767561
0.0225568
0.387687
0.932497
1.25527
1.49521
1.64734
1.71218
1.84896
2.02623
2.44659
2.82246
3.25837
5.1573
3.4711
5.37802e-07
8.31714e-07
1.14964e-06
1.7176e-06
2.97092e-06
1.08576e-05
9.65088e-05
0.000933825
0.0312889
0.455107
0.973327
1.26773
1.48847
1.64477
1.71593
1.85931
2.03404
2.46098
2.84984
3.30566
5.23461
3.48931
5.36478e-07
8.12202e-07
1.16725e-06
1.74192e-06
3.06259e-06
1.20737e-05
0.000124663
0.00124089
0.0433045
0.520223
1.00312
1.27667
1.48347
1.64638
1.72188
1.86961
2.04147
2.47279
2.87516
3.34545
5.30525
3.50549
5.31329e-07
8.20861e-07
1.14209e-06
1.71739e-06
3.09453e-06
1.33979e-05
0.000159412
0.00155154
0.0588168
0.579464
1.02404
1.28319
1.48034
1.65015
1.72852
1.87976
2.04877
2.48246
2.89962
3.37624
5.36688
3.52498
5.30421e-07
8.02648e-07
1.16151e-06
1.74282e-06
3.19573e-06
1.49608e-05
0.000203308
0.00200528
0.0790097
0.632539
1.03855
1.28809
1.47868
1.65576
1.73589
1.88942
2.05593
2.49007
2.92165
3.40159
5.42517
3.5425
5.25017e-07
8.1085e-07
1.13616e-06
1.72002e-06
3.23562e-06
1.65351e-05
0.000256487
0.0024444
0.103336
0.677864
1.04829
1.29171
1.47829
1.66194
1.74326
1.8988
2.06311
2.49605
2.94244
3.42054
5.47828
3.56353
5.24419e-07
7.92876e-07
1.15579e-06
1.74343e-06
3.34472e-06
1.83695e-05
0.000320616
0.00314504
0.132151
0.716255
1.05485
1.29436
1.47874
1.66879
1.75095
1.9078
2.07037
2.50056
2.96041
3.43667
5.53212
3.5829
5.18716e-07
8.00782e-07
1.12906e-06
1.72068e-06
3.39035e-06
1.99216e-05
0.000394223
0.00382016
0.164133
0.747664
1.05908
1.29611
1.47989
1.67555
1.75856
1.91672
2.07791
2.50412
2.97667
3.44931
5.58507
3.60623
5.18241e-07
7.85214e-07
1.15013e-06
1.74115e-06
3.50332e-06
2.17602e-05
0.000477164
0.00475493
0.199771
0.773765
1.06185
1.29717
1.48147
1.68257
1.76651
1.92557
2.0859
2.50701
2.98957
3.46243
5.64317
3.62846
5.12024e-07
7.95384e-07
1.12732e-06
1.72047e-06
3.54837e-06
2.322e-05
0.000569904
0.00577587
0.239003
0.795339
1.06355
1.2976
1.4835
1.68936
1.77454
1.9347
2.09468
2.50983
3.00014
3.47661
5.70445
3.6553
5.11243e-07
7.84351e-07
1.15847e-06
1.7419e-06
3.65061e-06
2.60361e-05
0.000672025
0.00794411
0.284151
0.814343
1.06478
1.29766
1.48589
1.69649
1.78306
1.94416
2.10451
2.5129
3.00664
3.49789
5.77387
3.68194
5.04081e-07
7.99355e-07
1.15191e-06
1.73748e-06
3.67951e-06
3.12077e-05
0.000790301
0.0130722
0.337865
0.831755
1.0658
1.2975
1.48881
1.70364
1.79181
1.95434
2.11583
2.51673
3.01024
3.53034
5.84649
3.71447
5.02371e-07
7.9403e-07
1.2116e-06
1.81872e-06
3.81585e-06
4.66751e-05
0.000980075
0.0289181
0.402978
0.849262
1.06709
1.29744
1.49221
1.7116
1.80123
1.96539
2.12902
2.52133
3.00931
3.58479
5.92289
3.75044
4.94071e-07
8.07136e-07
1.19774e-06
1.85826e-06
3.94729e-06
8.73115e-05
0.00137081
0.0669386
0.478893
0.867213
1.06861
1.29765
1.49616
1.72019
1.81091
1.97797
2.14479
2.52677
3.00618
3.66997
5.98865
3.80507
4.89506e-07
7.9142e-07
1.18628e-06
1.9483e-06
4.36516e-06
0.000251307
0.00272335
0.142765
0.559165
0.886249
1.07016
1.29841
1.50028
1.73053
1.82139
1.99243
2.16375
2.53246
3.00081
3.79559
6.02306
3.9102
4.67806e-07
9.58721e-07
1.84514e-06
3.06517e-06
5.97128e-06
0.000520399
0.00719746
0.230001
0.633668
0.906112
1.07039
1.29989
1.50413
1.7424
1.83195
2.00943
2.18642
2.53836
2.99768
3.93408
5.98194
4.20197
2.97114
4.62161
4.13192
1.4031
2.40651
1.62142
1.73101
1.99579
2.08068
2.22899
2.54005
2.28078
2.4561
2.79445
3.06776
3.0415
2.75458
2.44017
2.28212
2.26075
2.30425
2.32383
2.33768
2.37727
2.4166
2.45169
2.47363
2.48772
2.48404
2.48839
2.48719
2.49056
2.48626
2.48425
2.47773
2.93486
4.66711
4.00543
1.37222
2.29152
1.58525
1.66863
1.92626
2.04549
2.21897
2.67819
2.35421
2.55102
2.89145
3.17644
3.14589
2.83162
2.48292
2.30065
2.26482
2.30253
2.3197
2.33305
2.37206
2.41149
2.44661
2.46884
2.4833
2.48049
2.48446
2.48358
2.48682
2.48294
2.48082
2.47473
2.87022
4.64822
3.74371
1.32591
1.97587
1.49907
1.49409
1.66446
1.77153
1.88125
2.55394
2.10592
2.11094
2.40799
2.75726
2.86382
2.67655
2.40986
2.26215
2.24155
2.28258
2.30196
2.31865
2.35827
2.39849
2.43391
2.4571
2.47276
2.47207
2.47539
2.47537
2.47836
2.47548
2.47322
2.46808
2.78211
4.56394
3.38075
1.25073
1.63076
1.39057
1.36918
1.4571
1.52338
1.58073
2.24119
1.77608
1.70507
1.91764
2.22233
2.40994
2.3825
2.25523
2.18413
2.19652
2.24733
2.27233
2.29547
2.33642
2.37804
2.41406
2.43882
2.45645
2.45906
2.46142
2.46277
2.46538
2.46406
2.46161
2.45794
2.67443
4.42598
2.96305
1.16894
1.38769
1.29421
1.28694
1.3312
1.35856
1.37988
1.84666
1.47727
1.42652
1.56797
1.79196
1.98688
2.06884
2.07094
2.08578
2.13714
2.20085
2.23341
2.2651
2.30777
2.35134
2.38817
2.41503
2.43522
2.44215
2.44318
2.44632
2.4484
2.44912
2.44642
2.44468
2.55176
4.24295
2.54081
1.09912
1.24933
1.22421
1.23592
1.26336
1.26558
1.26711
1.51622
1.28134
1.28713
1.39026
1.5508
1.70658
1.82018
1.90033
1.98439
2.07109
2.1477
2.18842
2.22949
2.27402
2.32001
2.35775
2.38704
2.41018
2.42223
2.4215
2.42669
2.42809
2.43125
2.42823
2.42881
2.41806
4.01327
2.15742
1.0475
1.17556
1.17807
1.20448
1.22788
1.21696
1.20782
1.30946
1.18253
1.22883
1.32423
1.45853
1.57077
1.66402
1.76788
1.89287
2.00511
2.09242
2.14066
2.19078
2.23704
2.28579
2.32446
2.35633
2.38257
2.40029
2.39731
2.40467
2.40521
2.41111
2.40764
2.41088
2.27838
3.7322
1.83826
1.01122
1.13286
1.14784
1.18264
1.20685
1.19067
1.17635
1.19981
1.13406
1.20141
1.30314
1.4372
1.52439
1.58526
1.67952
1.81848
1.94454
2.03888
2.0932
2.15103
2.19871
2.2504
2.28989
2.32429
2.35357
2.37726
2.37151
2.38103
2.38051
2.38934
2.38528
2.39142
2.13717
3.40054
1.58938
0.986133
1.10412
1.12608
1.16435
1.19036
1.17392
1.15741
1.14321
1.10925
1.1852
1.29263
1.4343
1.51429
1.55233
1.62713
1.76279
1.89242
1.98994
2.04839
2.11201
2.16068
2.21529
2.25544
2.29215
2.32422
2.35395
2.34493
2.35648
2.35469
2.36657
2.36175
2.37094
1.99984
3.04718
1.40048
0.96815
1.08079
1.10804
1.14626
1.17342
1.15941
1.14278
1.11276
1.09491
1.17366
1.2825
1.43036
1.51364
1.54189
1.5995
1.72375
1.84991
1.94716
2.00779
2.07507
2.12424
2.1816
2.22217
2.26086
2.29537
2.33102
2.31824
2.33163
2.32837
2.3433
2.33756
2.3499
1.87001
2.70371
1.2586
0.955361
1.0602
1.0915
1.12782
1.15462
1.14424
1.12833
1.09426
1.08579
1.16403
1.27125
1.42164
1.51207
1.53966
1.58611
1.69751
1.81644
1.91103
1.9721
2.04108
2.09027
2.15009
2.19081
2.23108
2.26762
2.30893
2.29201
2.30699
2.30205
2.32
2.31316
2.32868
1.75079
2.39582
1.14957
0.946098
1.04097
1.07556
1.10882
1.13369
1.1269
1.11237
1.08115
1.07886
1.15503
1.25988
1.4103
1.50846
1.54022
1.58053
1.68033
1.79072
1.88118
1.94141
2.01046
2.05927
2.12118
2.16178
2.20321
2.24135
2.288
2.2666
2.2829
2.27613
2.297
2.28891
2.30758
1.64282
2.12056
1.06497
0.940333
1.02441
1.06099
1.0907
1.11186
1.10811
1.09484
1.06989
1.07292
1.14603
1.24896
1.3983
1.50302
1.54054
1.57825
1.66892
1.77097
1.85677
1.9153
1.98323
2.03139
2.09501
2.13523
2.17742
2.21676
2.26836
2.2423
2.25965
2.2509
2.27455
2.26508
2.28683
1.54682
1.8489
0.996671
0.937553
1.01168
1.04896
1.07442
1.09018
1.08848
1.07629
1.05906
1.06704
1.13675
1.23863
1.38687
1.49686
1.54034
1.57736
1.66105
1.75569
1.83677
1.89316
1.95921
2.00652
2.0715
2.11113
2.15372
2.19389
2.25007
2.21923
2.23738
2.22655
2.25282
2.24186
2.2666
1.46196
1.57205
0.941884
0.938804
1.00636
1.04249
1.06298
1.07116
1.07035
1.05829
1.0482
1.06096
1.12718
1.22867
1.37618
1.49008
1.53886
1.57629
1.65501
1.74343
1.82018
1.87426
1.93802
1.98442
2.05044
2.08931
2.13199
2.17272
2.2331
2.19746
2.21619
2.20319
2.23193
2.2194
2.247
1.38797
1.31933
0.898658
0.944479
1.01186
1.04496
1.05895
1.05715
1.05562
1.04248
1.03798
1.05455
1.11753
1.21886
1.36613
1.48304
1.53647
1.57474
1.64984
1.73322
1.80614
1.85794
1.91927
1.96474
2.03157
2.06954
2.11208
2.15311
2.21736
2.17698
2.19609
2.1809
2.21193
2.19777
2.22811
1.32322
1.11745
0.868688
0.957145
1.03459
1.06209
1.06762
1.0524
1.04805
1.03159
1.02976
1.04846
1.10817
1.20907
1.35644
1.47552
1.53275
1.57209
1.6448
1.72423
1.79392
1.84358
1.90253
1.94711
2.01458
2.05158
2.09378
2.13494
2.20275
2.15774
2.17708
2.15968
2.19285
2.17703
2.20995
1.267
0.973487
0.853813
0.97932
1.08112
1.10032
1.09425
1.06135
1.0512
1.0285
1.02576
1.04374
1.09965
1.19929
1.34692
1.46763
1.52813
1.56852
1.63957
1.71599
1.78298
1.83073
1.88743
1.9312
1.99919
2.03517
2.07689
2.11805
2.18916
2.13969
2.15911
2.13951
2.17467
2.15717
2.19255
1.21803
0.880792
0.859201
1.01696
1.1616
1.16938
1.14777
1.09089
1.07084
1.03751
1.02888
1.04228
1.09267
1.18955
1.33735
1.45921
1.52227
1.56369
1.63382
1.70807
1.77292
1.81899
1.87366
1.91668
1.98513
2.02007
2.06122
2.10229
2.17646
2.12273
2.14214
2.12037
2.15736
2.1382
2.17589
1.17569
0.823021
0.890595
1.0773
1.2858
1.28072
1.23788
1.14926
1.11331
1.06376
1.04324
1.04646
1.08825
1.17999
1.32761
1.45036
1.51555
1.55791
1.6275
1.7003
1.76346
1.80808
1.86094
1.90331
1.97217
2.00609
2.04661
2.08753
2.16456
2.10678
2.12608
2.10221
2.1409
2.12009
2.15995
1.13908
0.789558
0.958563
1.17254
1.46543
1.44951
1.37884
1.24887
1.18848
1.11528
1.07505
1.06006
1.0881
1.17089
1.31756
1.44092
1.50766
1.55084
1.62043
1.69244
1.75439
1.7978
1.84908
1.89086
1.96011
1.99304
2.03289
2.07363
2.15335
2.09177
2.11089
2.08497
2.12524
2.10282
2.14472
1.10755
0.771856
1.07269
1.31269
1.70496
1.68576
1.58059
1.40188
1.30629
1.2017
1.13358
1.08878
1.09524
1.16294
1.30715
1.43096
1.49885
1.54274
1.6126
1.68446
1.74558
1.788
1.83791
1.87916
1.94881
1.98079
2.01996
2.06049
2.14276
2.0776
2.09649
2.06859
2.11034
2.08634
2.13016
1.08045
0.765745
1.24576
1.50726
2.00535
1.9933
1.84955
1.61872
1.47757
1.33489
1.23141
1.14165
1.11515
1.1577
1.29646
1.42028
1.48867
1.53316
1.60383
1.67618
1.73692
1.77857
1.82733
1.8681
1.93812
1.9692
2.00769
2.04801
2.1327
2.0642
2.08283
2.05303
2.09614
2.07061
2.11624
1.05692
0.769303
1.48154
1.75841
2.36148
2.36589
2.18018
1.89934
1.70565
1.52224
1.38139
1.23095
1.15697
1.15857
1.28607
1.40899
1.4773
1.52218
1.59402
1.6676
1.72836
1.76944
1.81724
1.85757
1.92795
1.95818
1.99601
2.03613
2.12311
2.05151
2.06985
2.03822
2.08261
2.0556
2.10292
1.03657
0.783084
1.78273
2.06791
2.77097
2.79762
2.56669
2.23883
1.99003
1.76703
1.59192
1.37054
1.2341
1.17228
1.27748
1.39719
1.46429
1.50923
1.58288
1.65854
1.71982
1.76057
1.80759
1.84751
1.91824
1.94767
1.98484
2.02477
2.11393
2.03947
2.05749
2.02411
2.06969
2.04125
2.09017
1.01831
0.806703
2.13335
2.43084
3.22898
3.28001
2.99821
2.62527
2.32145
2.06234
1.86064
1.56968
1.36173
1.21087
1.27442
1.38592
1.45025
1.49447
1.57023
1.64895
1.71125
1.75191
1.79832
1.83787
1.90891
1.93759
1.97413
2.01388
2.10512
2.028
2.04569
2.01064
2.05733
2.02753
2.07795
1.00213
0.839834
2.51272
2.84717
3.73508
3.8074
3.4676
3.04812
2.69044
2.39781
2.17512
1.82729
1.55002
1.29214
1.28476
1.37753
1.43591
1.47777
1.55575
1.63862
1.70262
1.74345
1.78942
1.82862
1.89993
1.9279
1.96383
2.00341
2.09663
2.01707
2.0344
1.99777
2.04549
2.01437
2.0662
0.986901
0.882428
2.89991
3.32213
4.29327
4.37855
3.96891
3.49677
3.08417
2.75743
2.51543
2.1294
1.79566
1.43447
1.3234
1.37816
1.42464
1.46064
1.53955
1.62753
1.69391
1.7352
1.78088
1.81976
1.8913
1.91858
1.95391
1.99332
2.08841
2.0066
2.02355
1.98542
2.03409
2.00171
2.05488
0.973178
0.938348
3.29753
3.87461
4.91631
4.99924
4.50336
3.96588
3.49276
3.12672
2.86041
2.45467
2.08038
1.64435
1.41131
1.39933
1.42226
1.44562
1.52211
1.6156
1.68513
1.72719
1.77272
1.8113
1.88299
1.90961
1.94435
1.98357
2.08041
1.99653
2.01309
1.97353
2.02309
1.9895
2.04392
0.960043
1.01336
3.70272
4.50918
5.60084
5.65579
5.05624
4.43961
3.89778
3.48492
3.18632
2.77683
2.37606
1.90647
1.56581
1.45915
1.44007
1.43889
1.50524
1.60323
1.6764
1.71956
1.76501
1.8033
1.87505
1.90101
1.93513
1.97414
2.07259
1.9868
2.00293
1.96202
2.01238
1.97763
2.03324
0.948857
1.11394
4.08836
5.18218
6.29438
6.28037
5.57212
4.8751
4.265
3.80288
3.46597
3.06806
2.65259
2.18777
1.78313
1.5737
1.49106
1.44883
1.49232
1.5911
1.66804
1.7125
1.75789
1.79585
1.86752
1.89278
1.92625
1.96499
2.06488
1.97733
1.99297
1.95078
2.00187
1.966
2.02274
0.939348
1.24507
4.42917
5.81315
6.90473
6.76875
5.96147
5.20457
4.54346
4.04188
3.67066
3.29934
2.88182
2.45103
2.03444
1.74445
1.58545
1.48589
1.48931
1.58103
1.66063
1.7064
1.75158
1.78911
1.86048
1.88498
1.91769
1.95607
2.05722
1.96801
1.98309
1.93971
1.99143
1.95448
2.0123
0.934844
1.41853
4.75416
6.36705
7.37499
7.05931
6.16458
5.37872
4.69461
4.17339
3.78099
3.44982
3.04302
2.66628
2.27916
1.94989
1.71982
1.55559
1.50344
1.57578
1.65519
1.70181
1.74641
1.78331
1.85404
1.87765
1.90947
1.94734
2.04952
1.95874
1.97317
1.92863
1.98092
1.94292
2.00175
0.93783
1.65189
5.11479
6.84602
7.68832
7.14097
6.16753
5.38261
4.70369
4.18572
3.79139
3.50941
3.12593
2.81594
2.48342
2.15656
1.87805
1.65597
1.5414
1.57976
1.65329
1.69954
1.74281
1.77871
1.84834
1.87086
1.90156
1.93872
2.04168
1.94935
1.96303
1.9174
1.97016
1.93112
1.99093
0.956969
1.96509
5.53879
7.22021
7.80613
6.99726
5.97027
5.21914
4.57448
4.08256
3.70665
3.48068
3.13172
2.89327
2.62597
2.33116
2.03469
1.77453
1.60487
1.59767
1.65708
1.70059
1.74128
1.77561
1.84351
1.86466
1.89393
1.93014
2.03357
1.9397
1.95249
1.90579
1.95898
1.91891
1.97967
1.00219
2.37176
6.00136
7.40252
7.65357
6.6007
5.57568
4.89803
4.31929
3.87535
3.53796
3.37237
3.06947
2.90168
2.70085
2.45379
2.16764
1.8951
1.68915
1.6336
1.66898
1.70604
1.74227
1.77423
1.83963
1.85901
1.88649
1.92145
2.02506
1.92958
1.94137
1.89363
1.94721
1.90608
1.96778
1.09208
2.88748
6.44236
7.31847
7.19574
5.97305
5.02413
4.4557
3.97045
3.59161
3.30674
3.2024
2.95407
2.8502
2.71027
2.5156
2.2601
2.0002
1.78278
1.68767
1.69099
1.71671
1.74606
1.77459
1.83668
1.85382
1.87907
1.91251
2.016
1.9188
1.92952
1.8807
1.93471
1.89248
1.95511
1.24371
3.51099
6.79562
6.97812
6.49932
5.21234
4.39846
3.95457
3.57453
3.26882
3.04295
2.99311
2.80339
2.75387
2.66637
2.52205
2.30779
2.07845
1.87225
1.75541
1.72352
1.73277
1.75248
1.7764
1.83449
1.84884
1.87146
1.90314
2.00625
1.90716
1.9168
1.86688
1.92138
1.87802
1.9416
1.47385
4.23189
7.0208
6.45273
5.68336
4.43299
3.78415
3.45808
3.17881
2.94623
2.77753
2.77004
2.63513
2.62701
2.58128
2.48102
2.31087
2.1221
1.94423
1.82672
1.76413
1.75303
1.76071
1.77887
1.83263
1.84366
1.86335
1.89312
1.99568
1.89452
1.90319
1.85209
1.90723
1.8627
1.92723
1.77329
5.01802
7.08941
5.81326
4.85097
3.71294
3.23163
3.00506
2.8133
2.65008
2.53285
2.55253
2.46375
2.48479
2.47094
2.40659
2.27734
2.13074
1.98993
1.88964
1.80696
1.77467
1.76911
1.78071
1.83049
1.83775
1.8544
1.88232
1.98425
1.88084
1.88874
1.83642
1.89239
1.84664
1.91213
2.1402
5.81765
7.00874
5.14928
4.10018
3.11679
2.77984
2.62743
2.50258
2.39685
2.32063
2.35458
2.29936
2.33739
2.34524
2.30778
2.21289
2.10534
2.00416
1.9321
1.84346
1.79311
1.77525
1.78024
1.82723
1.83051
1.84433
1.87064
1.97197
1.86616
1.87367
1.82009
1.87711
1.83012
1.89654
2.57035
6.55003
6.80302
4.53624
3.4818
2.66069
2.43209
2.33052
2.25082
2.18627
2.14014
2.17949
2.14685
2.1931
2.21392
2.19454
2.12592
2.05119
1.98701
1.94652
1.86461
1.80302
1.77641
1.77573
1.82206
1.82147
1.83298
1.85818
1.95901
1.85075
1.85834
1.80348
1.86178
1.81354
1.88085
3.05787
7.05914
6.45671
3.9834
2.97473
2.30785
2.161
2.09414
2.04485
2.00886
1.98444
2.02536
2.00721
2.05412
2.07813
2.06787
2.01904
1.97193
1.94076
1.92886
1.86348
1.79968
1.77024
1.76595
1.81434
1.8104
1.82045
1.84519
1.94566
1.835
1.84325
1.78714
1.84689
1.79742
1.86551
3.58557
6.98018
5.82522
3.41705
2.51163
2.00643
1.92582
1.88389
1.85901
1.8485
1.84524
1.88712
1.88029
1.9214
1.93864
1.93057
1.89956
1.87723
1.87256
1.88107
1.83727
1.78078
1.75555
1.75062
1.80391
1.79749
1.80715
1.83216
1.93239
1.81951
1.82901
1.7717
1.83302
1.78235
1.85108
3.90933e-07
7.45694e-07
1.77969e-06
4.22666e-06
1.0745e-05
0.00241419
0.0232882
0.311471
0.676694
0.920613
1.06832
1.30156
1.50596
1.75296
1.84023
2.02413
2.20669
2.54213
3.00427
3.97853
5.87936
4.91077
3.93826e-07
7.34629e-07
1.61266e-06
4.52523e-06
1.84902e-05
0.00651125
0.046188
0.355394
0.696317
0.926618
1.06541
1.30147
1.50582
1.7591
1.84445
2.03403
2.22126
2.54528
3.01743
3.97935
5.80663
5.85155
4.07758e-07
7.19739e-07
1.57083e-06
4.60771e-06
3.01076e-05
0.0102971
0.0742499
0.391452
0.708803
0.92912
1.06208
1.30033
1.50459
1.76423
1.8475
2.04261
2.23506
2.54849
3.03479
3.95042
5.74463
7.04905
4.12351e-07
7.28069e-07
1.47449e-06
4.23471e-06
4.54547e-05
0.0145028
0.101903
0.420434
0.71722
0.928701
1.05923
1.29851
1.50291
1.7678
1.84916
2.04961
2.24744
2.55114
3.05459
3.89843
5.68989
8.40509
4.28296e-07
7.17885e-07
1.4523e-06
3.67541e-06
6.45932e-05
0.0164905
0.129071
0.446047
0.723804
0.926443
1.05758
1.29654
1.50125
1.77036
1.8503
2.05433
2.25753
2.55265
3.07223
3.83273
5.64479
9.78421
4.32252e-07
7.26353e-07
1.37374e-06
3.30754e-06
8.45281e-05
0.0175506
0.1517
0.466595
0.729543
0.923077
1.05739
1.29482
1.50012
1.77162
1.85075
2.0568
2.26486
2.55278
3.08666
3.75816
5.60322
11.0719
4.49292e-07
7.17465e-07
1.35677e-06
2.95968e-06
9.85128e-05
0.0169216
0.170171
0.483167
0.735214
0.919654
1.05885
1.29377
1.49976
1.77246
1.85146
2.05675
2.26887
2.55113
3.09443
3.68175
5.56424
12.1682
4.52462e-07
7.26495e-07
1.28849e-06
2.7271e-06
0.000104231
0.0152395
0.181581
0.494443
0.740879
0.916641
1.06187
1.29359
1.50044
1.77282
1.8522
2.05487
2.2696
2.54759
3.09653
3.60509
5.52126
13.029
4.70447e-07
7.19126e-07
1.27575e-06
2.50187e-06
9.6948e-05
0.0126995
0.187012
0.501266
0.746681
0.914658
1.06639
1.29444
1.50218
1.77364
1.85388
2.05146
2.2671
2.54191
3.09112
3.53258
5.47442
13.6273
4.71955e-07
7.27875e-07
1.21897e-06
2.35077e-06
8.49004e-05
0.00989063
0.184826
0.502693
0.75232
0.913695
1.07213
1.29629
1.50506
1.77476
1.85619
2.04768
2.26212
2.53424
3.08082
3.46329
5.41828
13.9806
4.90216e-07
7.21175e-07
1.20951e-06
2.19032e-06
6.8576e-05
0.00693857
0.176727
0.499345
0.757685
0.913914
1.07896
1.2991
1.50891
1.77687
1.8599
2.04405
2.25528
2.52462
3.06469
3.40011
5.35448
14.1047
4.90236e-07
7.30156e-07
1.15986e-06
2.08201e-06
5.39863e-05
0.00443112
0.162143
0.490075
0.762322
0.914961
1.08659
1.30265
1.51368
1.77958
1.86456
2.0416
2.24773
2.5136
3.04612
3.34086
5.27899
14.0423
5.08709e-07
7.24387e-07
1.15344e-06
1.96289e-06
4.09982e-05
0.00239261
0.143424
0.475031
0.765984
0.916746
1.09486
1.3068
1.51914
1.78328
1.87071
2.0405
2.24021
2.50158
3.02439
3.28804
5.19502
13.8203
5.06746e-07
7.32988e-07
1.11356e-06
1.89017e-06
3.11023e-05
0.00128254
0.121331
0.45243
0.768091
0.918769
1.10353
1.31132
1.52518
1.78739
1.87776
2.04131
2.23373
2.48934
3.00295
3.23909
5.09973
13.4817
5.24855e-07
7.27575e-07
1.10946e-06
1.79963e-06
2.38677e-05
0.000676219
0.0987779
0.422217
0.76821
0.920846
1.11251
1.31606
1.53153
1.79214
1.88607
2.04379
2.22871
2.47744
2.98085
3.19666
4.99786
13.0486
5.2136e-07
7.36292e-07
1.07586e-06
1.74921e-06
1.84006e-05
0.000397857
0.0768763
0.382451
0.765495
0.922415
1.1216
1.32081
1.53808
1.79692
1.89498
2.04809
2.2257
2.46666
2.96125
3.15814
4.88752
12.5547
5.39027e-07
7.31379e-07
1.07242e-06
1.67693e-06
1.46375e-05
0.000234845
0.0578082
0.334646
0.759142
0.923182
1.13074
1.32549
1.54457
1.8019
1.90475
2.05374
2.22471
2.45738
2.94279
3.1264
4.77448
12.0136
5.33903e-07
7.40051e-07
1.04728e-06
1.64536e-06
1.17103e-05
0.000146866
0.0416852
0.278703
0.747755
0.922405
1.13972
1.32994
1.55092
1.80648
1.91475
2.06072
2.22586
2.45013
2.92821
3.09878
4.65693
11.4496
5.50497e-07
7.3497e-07
1.04371e-06
1.58442e-06
9.73945e-06
9.19693e-05
0.0290853
0.220731
0.729846
0.919495
1.14844
1.33418
1.55689
1.81085
1.92517
2.06852
2.22886
2.44498
2.91575
3.07824
4.54136
10.8692
5.44587e-07
7.44037e-07
1.02368e-06
1.56728e-06
8.12822e-06
5.81955e-05
0.0194848
0.163383
0.703281
0.913222
1.1565
1.33813
1.56243
1.81439
1.93541
2.0771
2.23362
2.44209
2.90769
3.06196
4.42571
10.2894
5.60237e-07
7.39042e-07
1.0192e-06
1.51407e-06
7.03494e-06
3.81719e-05
0.0124867
0.114952
0.665952
0.902297
1.16344
1.34188
1.56735
1.81731
1.94564
2.08595
2.23969
2.44122
2.90195
3.05283
4.31661
9.71273
5.536e-07
7.48448e-07
1.00678e-06
1.50903e-06
6.09331e-06
2.52089e-05
0.00765177
0.0752983
0.615912
0.884455
1.16829
1.3454
1.57161
1.81897
1.95519
2.09504
2.2469
2.44226
2.90046
3.04782
4.21099
9.15135
5.68176e-07
7.43524e-07
1.00216e-06
1.46176e-06
5.45348e-06
1.81216e-05
0.00437323
0.0476554
0.551832
0.857225
1.16968
1.34869
1.57504
1.81954
1.9642
2.10384
2.25475
2.44477
2.90089
3.04967
4.11551
8.60551
5.6124e-07
7.5338e-07
9.94152e-07
1.46425e-06
4.86998e-06
1.32718e-05
0.00241285
0.0280527
0.475339
0.816961
1.16534
1.35149
1.57764
1.81832
1.97182
2.11231
2.26302
2.44848
2.90492
3.05508
4.02613
8.08423
5.74848e-07
7.48741e-07
9.8862e-07
1.42099e-06
4.46704e-06
1.06324e-05
0.00123579
0.0160419
0.389198
0.760564
1.15215
1.35324
1.5792
1.8155
1.9781
2.11981
2.27113
2.45282
2.91009
3.06669
3.94928
7.58683
5.67707e-07
7.59208e-07
9.87363e-07
1.43251e-06
4.08115e-06
8.58927e-06
0.000642287
0.00851164
0.301886
0.684971
1.12557
1.35257
1.57954
1.81026
1.982
2.12621
2.27882
2.45747
2.9179
3.08098
3.87965
7.12016
5.80317e-07
7.54913e-07
9.81809e-07
1.39261e-06
3.81168e-06
7.41416e-06
0.000337799
0.00437199
0.219828
0.591102
1.08004
1.347
1.57805
1.80274
1.9834
2.13072
2.28543
2.46176
2.92575
3.10045
3.8235
6.68307
5.7329e-07
7.65729e-07
9.84066e-07
1.41023e-06
3.54386e-06
6.39207e-06
0.000186092
0.00216175
0.150929
0.482691
1.00936
1.33199
1.57373
1.79189
1.98102
2.13309
2.29062
2.46529
2.93507
3.12138
3.77459
6.28064
5.85049e-07
7.61784e-07
9.77365e-07
1.37203e-06
3.35095e-06
5.76164e-06
0.000103566
0.00107854
0.0972209
0.370527
0.909148
1.30032
1.56431
1.77753
1.9746
2.1323
2.29365
2.46734
2.94307
3.14616
3.73894
5.91143
5.78256e-07
7.73205e-07
9.85103e-07
1.39673e-06
3.15813e-06
5.17086e-06
5.87831e-05
0.00056645
0.0586729
0.26443
0.78
1.24174
1.54575
1.75778
1.96248
2.12796
2.29419
2.46746
2.95109
3.17086
3.7094
5.579
5.89171e-07
7.69846e-07
9.78443e-07
1.35991e-06
3.01505e-06
4.77978e-06
3.50437e-05
0.000320605
0.0328165
0.176117
0.630357
1.14532
1.51072
1.73125
1.94402
2.11869
2.29143
2.46488
2.95611
3.1977
3.69171
5.28146
5.82835e-07
7.8151e-07
9.8921e-07
1.3897e-06
2.87484e-06
4.41258e-06
2.22321e-05
0.000180859
0.0167631
0.107801
0.475935
1.00503
1.44821
1.69351
1.91662
2.10375
2.28505
2.45916
2.95941
3.22243
3.67811
5.02091
5.92982e-07
7.78655e-07
9.81522e-07
1.35364e-06
2.76521e-06
4.14642e-06
1.54639e-05
0.000105615
0.00779995
0.0612027
0.333608
0.826914
1.34501
1.63929
1.8785
2.08095
2.27406
2.44948
2.95766
3.24712
3.6739
4.79482
5.87192e-07
7.90937e-07
9.97168e-07
1.38932e-06
2.66445e-06
3.90852e-06
1.16108e-05
6.06532e-05
0.00333964
0.0315779
0.215527
0.631287
1.1918
1.55842
1.82486
2.04864
2.25782
2.43542
2.95206
3.26715
3.67079
4.60381
5.96614e-07
7.88865e-07
9.89757e-07
1.35387e-06
2.5798e-06
3.7141e-06
9.43316e-06
3.79807e-05
0.00138213
0.0149672
0.127503
0.444071
0.991536
1.44077
1.75099
2.00292
2.23443
2.416
2.93892
3.28438
3.67347
4.44437
5.91467e-07
8.01117e-07
1.00782e-06
1.39412e-06
2.5096e-06
3.56337e-06
8.03106e-06
2.47986e-05
0.000613746
0.0064721
0.0682954
0.286556
0.764592
1.27647
1.64809
1.9403
2.2019
2.3905
2.91928
3.29376
3.67318
4.31551
6.00246e-07
7.99654e-07
1.00028e-06