/*--------------------------------*- C++ -*----------------------------------*\
| =========                 |                                                 |
| \\      /  F ield         | OpenFOAM: The Open Source CFD Toolbox           |
|  \\    /   O peration     | Version:  v1912                                 |
|   \\  /    A nd           | Website:  www.openfoam.com                      |
|    \\/     M anipulation  |                                                 |
\*---------------------------------------------------------------------------*/
FoamFile
{
    version     2.0;
    format      ascii;
    class       volScalarField;
    location    "10";
    object      nut;
}
// * * * * * * * * * * * * * * * * * * * * * * * * * * * * * * * * * * * * * //

dimensions      [0 2 -1 0 0 0 0];


internalField   nonuniform List<scalar> 
12441
(
4.74289e-17
4.8833e-16
9.4034e-16
1.79654e-15
2.99871e-15
7.79967e-15
1.33637e-14
3.247e-14
6.5802e-14
1.78589e-13
6.16968e-13
6.5734e-12
1.25642e-10
5.82821e-09
9.89021e-07
1.12716e-05
0.00045575
0.0010095
0.00322168
0.00406638
0.00409246
0.011724
5.1813e-17
7.44748e-16
1.49152e-15
2.9096e-15
4.84075e-15
1.34143e-14
2.32387e-14
5.8908e-14
1.31153e-13
4.15095e-13
1.57735e-12
1.56352e-11
2.79455e-10
1.02404e-08
1.41645e-06
2.30579e-05
0.000526861
0.00100461
0.00316241
0.00417212
0.00419197
0.011611
5.20052e-17
7.14161e-16
1.54387e-15
3.1565e-15
5.42035e-15
1.49882e-14
2.6149e-14
6.17363e-14
1.38376e-13
3.72675e-13
1.14023e-12
7.63829e-12
1.22671e-10
6.58756e-09
2.79921e-07
1.53621e-05
0.000391246
0.00101847
0.00288559
0.00406364
0.00418023
0.0115187
5.1815e-17
8.65396e-16
1.93735e-15
3.95499e-15
6.80878e-15
1.92766e-14
3.29674e-14
7.17513e-14
1.61728e-13
4.07409e-13
1.08517e-12
4.53139e-12
3.45762e-11
1.2476e-09
6.61929e-08
8.14862e-06
0.000300162
0.00103255
0.00262881
0.00383945
0.00411156
0.011442
5.16087e-17
7.93485e-16
1.87021e-15
3.95955e-15
7.04924e-15
2.04486e-14
3.63267e-14
8.2589e-14
1.95353e-13
4.95983e-13
1.29565e-12
4.91607e-12
2.46712e-11
5.569e-10
3.19578e-08
4.33287e-06
0.000219933
0.00103616
0.00256984
0.00363167
0.00404429
0.011339
5.13823e-17
9.51065e-16
2.30551e-15
4.83813e-15
8.58564e-15
2.62792e-14
4.60702e-14
1.0033e-13
2.47474e-13
6.43218e-13
1.74072e-12
7.28521e-12
4.02586e-11
5.57491e-10
2.88819e-08
2.61111e-06
0.000181542
0.00108305
0.00281817
0.00351091
0.00400998
0.0112369
5.1169e-17
8.48927e-16
2.14164e-15
4.66917e-15
8.62886e-15
2.7161e-14
5.08917e-14
1.22007e-13
3.22638e-13
8.84627e-13
2.52927e-12
1.29647e-11
8.29865e-11
2.0803e-09
1.13162e-07
7.21764e-06
0.000226943
0.00125846
0.0033602
0.00351961
0.00402549
0.0111173
5.09389e-17
1.02099e-15
2.63656e-15
5.65037e-15
1.0356e-14
3.49851e-14
6.49923e-14
1.51226e-13
4.34668e-13
1.28344e-12
4.04086e-12
2.60245e-11
2.81442e-10
1.98699e-08
1.50356e-06
5.32145e-05
0.000418424
0.00162637
0.00416992
0.00365061
0.00410902
0.011012
5.07343e-17
9.01151e-16
2.40819e-15
5.37857e-15
1.03486e-14
3.58785e-14
7.31936e-14
1.95762e-13
6.17418e-13
2.00802e-12
7.27705e-12
6.52228e-11
2.26495e-09
5.99251e-07
2.30715e-05
0.000239671
0.000794063
0.00219249
0.0051925
0.00388968
0.00425875
0.0109024
5.05101e-17
1.08352e-15
2.96663e-15
6.48218e-15
1.23336e-14
4.67685e-14
9.53186e-14
2.51272e-13
9.13009e-13
3.37369e-12
1.44518e-11
2.36931e-10
8.15534e-08
1.30282e-05
0.000148559
0.000608806
0.00133007
0.00292531
0.00639604
0.00420254
0.00447131
0.0108173
5.0323e-17
9.43456e-16
2.66175e-15
6.09096e-15
1.22666e-14
4.76823e-14
1.09523e-13
3.56673e-13
1.4697e-12
6.48162e-12
3.55439e-11
2.42191e-09
3.14249e-06
0.000103257
0.000444083
0.00110869
0.00198199
0.00378275
0.00773408
0.00456838
0.00472805
0.010733
5.01e-17
1.139e-15
3.28956e-15
7.30978e-15
1.44982e-14
6.26313e-14
1.44526e-13
4.80216e-13
2.49851e-12
1.3504e-11
1.12764e-10
8.34445e-08
4.52838e-05
0.000358163
0.000872805
0.00172763
0.00272985
0.0047468
0.00920396
0.00495904
0.00502004
0.0106769
4.9931e-17
9.84663e-16
2.92442e-15
6.83589e-15
1.44546e-14
6.38712e-14
1.69691e-13
7.80731e-13
4.81724e-12
3.36347e-11
6.1255e-10
3.76415e-06
0.000211123
0.000784022
0.00142905
0.00245129
0.00355035
0.00581591
0.0107999
0.0053667
0.0053329
0.0106204
4.97068e-17
1.19014e-15
3.63006e-15
8.19811e-15
1.70192e-14
8.51679e-14
2.28399e-13
1.15444e-12
9.86327e-12
9.9383e-11
4.90849e-09
4.23458e-05
0.000521733
0.00133316
0.00209823
0.00328028
0.00442963
0.00702389
0.0125651
0.00577863
0.00566821
0.0105902
4.95543e-17
1.01962e-15
3.20165e-15
7.63826e-15
1.70137e-14
8.70751e-14
2.74958e-13
2.31359e-12
2.31612e-11
3.84215e-10
5.8143e-08
0.000172083
0.000970383
0.00203565
0.00289892
0.0041974
0.00535451
0.00843148
0.0145379
0.00620397
0.00601874
0.0105558
4.93256e-17
1.23769e-15
3.98586e-15
9.1383e-15
1.99269e-14
1.17419e-13
3.7792e-13
3.79238e-12
5.6472e-11
1.82031e-09
1.07256e-06
0.000399756
0.00156777
0.00286993
0.00379599
0.0051972
0.00634743
0.0101413
0.0167933
0.00664571
0.00638648
0.0105461
4.91908e-17
1.05512e-15
3.5143e-15
8.53153e-15
2.00575e-14
1.20989e-13
4.70875e-13
8.6574e-12
1.59503e-10
9.24046e-09
1.26633e-05
0.000749472
0.00232431
0.00386275
0.00480846
0.00626955
0.00747803
0.0122743
0.0193742
0.00712813
0.00676934
0.0105292
4.89526e-17
1.28342e-15
4.37963e-15
1.01926e-14
2.34287e-14
1.66001e-13
6.7247e-13
1.45999e-11
4.81689e-10
5.00122e-08
6.42317e-05
0.0012385
0.00326988
0.00498369
0.00590933
0.00743751
0.00890665
0.0149592
0.0223242
0.00766639
0.00717141
0.0105355
4.88327e-17
1.08871e-15
3.85771e-15
9.52963e-15
2.37292e-14
1.73396e-13
8.81353e-13
3.45569e-11
1.57429e-09
3.07621e-07
0.00019916
0.00189837
0.00439909
0.00626076
0.00713354
0.00875145
0.0108814
0.0182846
0.025618
0.00829474
0.00759209
0.0105319
4.85856e-17
1.32754e-15
4.8097e-15
1.13565e-14
2.76216e-14
2.41275e-13
1.32302e-12
5.76751e-11
5.00453e-09
1.76576e-06
0.000429878
0.00275741
0.00572762
0.00768303
0.0085024
0.0103351
0.0137399
0.0222839
0.0292118
0.00903316
0.00803312
0.0105508
4.84853e-17
1.12361e-15
4.24488e-15
1.0653e-14
2.81724e-14
2.55848e-13
1.84799e-12
1.31877e-10
1.53418e-08
8.58812e-06
0.000782579
0.00383332
0.00725342
0.00929847
0.010117
0.0123762
0.0178411
0.026911
0.0329966
0.00991506
0.00849257
0.0105581
4.82268e-17
1.37005e-15
5.29584e-15
1.26841e-14
3.27552e-14
3.62434e-13
2.96401e-12
2.19141e-10
4.40679e-08
3.08537e-05
0.00128341
0.0051453
0.0090026
0.011153
0.0120978
0.0151532
0.0235199
0.032069
0.0368699
0.0109508
0.00896835
0.010587
4.81422e-17
1.15632e-15
4.6728e-15
1.1908e-14
3.35871e-14
3.91514e-13
4.45128e-12
4.84068e-10
1.21485e-07
8.72872e-05
0.00196188
0.00670782
0.0110003
0.0133617
0.0146508
0.018984
0.0310273
0.0376205
0.0406985
0.012156
0.00945652
0.0106027
4.78763e-17
1.41165e-15
5.84088e-15
1.41823e-14
3.90243e-14
5.62725e-13
7.62573e-12
7.94462e-10
3.16774e-07
0.000196562
0.00284051
0.00853689
0.0132984
0.0160426
0.0179881
0.0242064
0.0405355
0.0434282
0.0443878
0.0135163
0.00995181
0.0106395
4.78137e-17
1.18843e-15
5.14261e-15
1.32957e-14
4.01685e-14
6.17645e-13
1.22388e-11
1.64525e-09
7.93548e-07
0.000380767
0.00393058
0.010654
0.0159476
0.0193617
0.0223565
0.0310908
0.0521117
0.0493563
0.0478345
0.0150205
0.0104499
0.0106618
4.7531e-17
1.45213e-15
6.45781e-15
1.58762e-14
4.67051e-14
9.01912e-13
2.22061e-11
2.65341e-09
1.88596e-06
0.00065427
0.00524485
0.0130792
0.0190078
0.0234435
0.0279304
0.0398148
0.0657134
0.055293
0.0509843
0.0166303
0.0109442
0.0107042
4.74833e-17
1.21978e-15
5.67277e-15
1.48596e-14
4.82627e-14
1.01108e-12
3.73884e-11
5.27714e-09
4.30395e-06
0.00103796
0.00679245
0.0158278
0.0225069
0.0283898
0.0348229
0.0503854
0.0811288
0.0611343
0.0537752
0.0183183
0.0114315
0.0107307
4.71889e-17
1.48997e-15
7.15291e-15
1.7787e-14
5.61382e-14
1.48948e-12
6.98668e-11
8.67012e-09
9.39047e-06
0.00154955
0.00858301
0.0188897
0.0264412
0.0341765
0.0429716
0.0626218
0.0979452
0.0667913
0.0561879
0.0200376
0.0119056
0.0107765
4.7163e-17
1.2508e-15
6.2617e-15
1.66229e-14
5.82504e-14
1.70031e-12
1.19608e-10
1.66329e-08
1.9614e-05
0.00220691
0.0106169
0.0222226
0.0307323
0.040682
0.0521607
0.0760826
0.115493
0.0721663
0.058188
0.0217589
0.0123657
0.0108055
4.68485e-17
1.52467e-15
7.92134e-15
1.99328e-14
6.77915e-14
2.51973e-12
2.2349e-10
2.74998e-08
3.92788e-05
0.00301933
0.0128813
0.0257329
0.0352363
0.0476115
0.0619386
0.0900817
0.132866
0.0771587
0.0597749
0.0234394
0.0128071
0.010853
4.6835e-17
1.27976e-15
6.91499e-15
1.85811e-14
7.059e-14
2.93507e-12
3.79877e-10
5.21293e-08
7.42779e-05
0.00398847
0.015341
0.029286
0.0397398
0.0545852
0.0717138
0.103705
0.148977
0.0816482
0.0609272
0.0250568
0.0132314
0.0108829
4.65094e-17
1.55828e-15
8.77587e-15
2.23597e-14
8.22784e-14
4.33383e-12
6.94679e-10
9.19666e-08
0.000133184
0.00510432
0.0179307
0.0327128
0.0440037
0.0611277
0.0807746
0.115968
0.162728
0.0855125
0.0616542
0.0265776
0.0136345
0.0109308
4.65158e-17
1.30921e-15
7.61765e-15
2.07508e-14
8.58996e-14
5.06866e-12
1.14735e-09
1.63075e-07
0.000222554
0.00634399
0.0205554
0.0358434
0.0477838
0.0668212
0.0884905
0.12598
0.173195
0.088629
0.0619453
0.0279896
0.01402
0.0109611
4.61612e-17
1.58856e-15
9.69785e-15
2.50392e-14
1.00202e-13
7.32946e-12
2.02545e-09
2.71647e-07
0.000350991
0.00767167
0.0230946
0.0385278
0.0508955
0.0713132
0.0943712
0.133152
0.179833
0.0909066
0.061823
0.0292711
0.0143844
0.011009
4.61791e-17
1.33398e-15
8.36388e-15
2.30754e-14
1.04748e-13
8.45135e-12
3.20179e-09
4.70719e-07
0.000518982
0.00904109
0.0254233
0.0406667
0.0532199
0.0744443
0.0982159
0.137268
0.182549
0.0922931
0.0612932
0.0304224
0.0147318
0.0110393
4.57912e-17
1.61199e-15
1.0643e-14
2.78515e-14
1.22078e-13
1.16181e-11
5.32268e-09
7.69833e-07
0.000734549
0.0104015
0.0274273
0.0422133
0.054735
0.0761737
0.100029
0.138487
0.181675
0.0927999
0.0603944
0.0314361
0.0150596
0.0110875
4.58105e-17
1.36013e-15
9.13673e-15
2.54529e-14
1.2741e-13
1.29233e-11
7.85518e-09
1.22521e-06
0.000999381
0.0117064
0.0290261
0.0431799
0.0554755
0.0766206
0.100009
0.137159
0.177772
0.0924859
0.0591471
0.0323274
0.0153734
0.0111189
4.53671e-17
1.64589e-15
1.16547e-14
3.06275e-14
1.47308e-13
1.69459e-11
1.22023e-08
1.97113e-06
0.00133654
0.0129212
0.0301769
0.0436131
0.0555284
0.0759102
0.098327
0.133638
0.171384
0.0914458
0.0575951
0.033104
0.0156721
0.0111687
4.5365e-17
1.39983e-15
9.89638e-15
2.72619e-14
1.4986e-13
1.94186e-11
1.68693e-08
3.71245e-06
0.00177509
0.0140327
0.0308786
0.0435855
0.0549677
0.0741868
0.0950505
0.127995
0.162742
0.0897398
0.0557549
0.0337859
0.0159633
0.0112026
4.48422e-17
1.69658e-15
1.26992e-14
3.25631e-14
1.67322e-13
3.07633e-11
2.47569e-08
1.02583e-05
0.00238513
0.0150476
0.0311644
0.0431779
0.0538742
0.0714958
0.0900578
0.120017
0.151744
0.087358
0.0536725
0.0343435
0.0162463
0.0112565
4.47686e-17
1.48437e-15
1.15497e-14
3.14264e-14
1.72491e-13
6.2481e-11
3.74702e-08
4.31865e-05
0.00325068
0.0160043
0.0311292
0.0425044
0.0523733
0.0680091
0.0835294
0.109817
0.138519
0.0842559
0.0513505
0.0346921
0.0165275
0.0112984
4.41644e-17
1.86207e-15
1.67877e-14
4.41126e-14
2.14009e-13
2.50245e-10
8.0465e-08
0.000175919
0.0044704
0.0169674
0.0309239
0.0417125
0.0507025
0.0640264
0.0760528
0.0982709
0.123958
0.0805061
0.0487936
0.0347124
0.0167919
0.0113716
4.38839e-17
2.65427e-15
7.25663e-14
1.64245e-13
4.68646e-13
5.75674e-09
5.03365e-07
0.000519974
0.006141
0.0180387
0.0307338
0.0409763
0.0491267
0.0600254
0.0685285
0.0866436
0.109404
0.0762814
0.0459666
0.0344024
0.0169969
0.0114533
4.26539e-17
1.15709e-15
7.88113e-15
3.07402e-14
2.38206e-13
3.41192e-09
1.71635e-06
0.000969319
0.00834404
0.0193241
0.0307339
0.0404587
0.0478946
0.0564241
0.0617036
0.0761089
0.0961454
0.0717987
0.0428687
0.0337459
0.0170377
0.0115731
0.00956776
0.0110761
0.0165328
0.00903828
0.00618003
0.00448249
0.00417161
0.00376631
0.00342174
0.00315254
0.00332784
0.00282899
0.00269607
0.00296271
0.003429
0.0039423
0.00448187
0.00526573
0.00699142
0.0105009
0.0161968
0.0235144
0.0345115
0.0470253
0.0583992
0.0652102
0.0714094
0.0782326
0.0819145
0.0803381
0.0741584
0.0713085
0.0734737
0.0863489
0.104177
0.00957342
0.0109886
0.0168277
0.0102134
0.00629913
0.00492778
0.00453709
0.00399978
0.0035885
0.00326811
0.00348062
0.0029053
0.00271699
0.00295095
0.00338971
0.0038791
0.0044012
0.00519792
0.00696251
0.0105306
0.0162836
0.0236574
0.0346625
0.0471958
0.0586374
0.0654875
0.0716843
0.0784645
0.0821017
0.0803562
0.07413
0.0712644
0.0734398
0.0862957
0.104121
0.00950696
0.0107574
0.0172876
0.0122896
0.00635994
0.00560526
0.00520853
0.00445219
0.00391767
0.00352985
0.00369192
0.00296964
0.0027135
0.00286077
0.0032316
0.00369504
0.00422751
0.00507428
0.00690967
0.0105777
0.0164348
0.0239172
0.034937
0.0474948
0.0590585
0.065979
0.0721687
0.0788647
0.0824243
0.0803422
0.0740337
0.0711375
0.0733378
0.0861497
0.103968
0.00939173
0.0103652
0.0178362
0.0153673
0.00666205
0.00650548
0.00623403
0.00525646
0.00450968
0.00403854
0.00393964
0.0030459
0.00280703
0.00285519
0.00310673
0.00351326
0.00405697
0.0049618
0.00688115
0.0106686
0.0166689
0.0243082
0.0353522
0.0479342
0.0596648
0.0666786
0.0728526
0.0794246
0.0828772
0.0802971
0.0738761
0.0709364
0.073177
0.0859227
0.103732
0.00923851
0.00986522
0.0184592
0.0198135
0.00757377
0.0077508
0.00764171
0.00653943
0.00550866
0.00496032
0.00437274
0.00336129
0.00320525
0.00312176
0.00320697
0.00349854
0.00400131
0.00492734
0.00691816
0.0108313
0.0170098
0.0248529
0.0359338
0.0485389
0.0604719
0.0675912
0.0737369
0.0801459
0.0834647
0.0802351
0.0736755
0.070682
0.0729788
0.0856411
0.103441
0.00905554
0.00934905
0.0193034
0.0257927
0.00923385
0.00948586
0.0094808
0.00835273
0.00701381
0.00643213
0.00531207
0.00432417
0.00423623
0.00387249
0.00371285
0.0037979
0.00415432
0.00502406
0.00705295
0.0110928
0.0174834
0.0255769
0.0367097
0.0493376
0.0614988
0.0687236
0.074824
0.0810329
0.0841939
0.0801749
0.0734556
0.0704015
0.0727701
0.0853381
0.10313
0.00884866
0.00893256
0.0206151
0.0328366
0.011425
0.0117315
0.0117046
0.0106561
0.00898135
0.00845691
0.00711268
0.00643093
0.00630379
0.00528626
0.00472294
0.00447897
0.00455907
0.00527988
0.00730611
0.0114751
0.0181134
0.0265043
0.0377047
0.0503564
0.0627611
0.0700789
0.0761126
0.0820869
0.0850697
0.0801362
0.0732407
0.0701236
0.0725797
0.0850494
0.102838
0.00862335
0.00865429
0.0226832
0.040053
0.0138824
0.0144656
0.0142816
0.0133577
0.0113324
0.0109539
0.00998005
0.0100549
0.00992296
0.00757019
0.00629319
0.00553848
0.00520489
0.00569494
0.00768429
0.0119924
0.0189172
0.027653
0.0389365
0.051614
0.0642667
0.0716522
0.077594
0.0833032
0.0860924
0.0801364
0.0730539
0.0698763
0.0724355
0.0848103
0.102602
0.00838624
0.00853959
0.0256204
0.0460352
0.0162639
0.0175209
0.0170435
0.016317
0.0138841
0.0137689
0.0138312
0.01532
0.0157068
0.0110799
0.00853588
0.00696021
0.00604682
0.00624351
0.00817922
0.0126469
0.019902
0.0290309
0.040413
0.0531189
0.0660115
0.073428
0.0792499
0.0846692
0.087256
0.080189
0.0729151
0.0696851
0.0723631
0.0846538
0.102457
0.00814151
0.00849398
0.029478
0.050326
0.0185004
0.0208457
0.0199706
0.0194598
0.0165744
0.0167998
0.0183983
0.0219196
0.0240866
0.0163934
0.011672
0.00875339
0.00703733
0.00688857
0.00877024
0.0134284
0.0210609
0.0306324
0.0421294
0.0548664
0.0679783
0.0753788
0.081052
0.0861641
0.088548
0.080303
0.0728404
0.0695718
0.072385
0.0846093
0.102436
0.00789553
0.00845258
0.033889
0.0523977
0.0204136
0.0242257
0.0228464
0.0226509
0.0192214
0.0198869
0.0232852
0.0291812
0.0349016
0.0242246
0.0160055
0.0109294
0.00812631
0.00758768
0.00942789
0.0143137
0.0223733
0.0324364
0.0440676
0.0568375
0.0701361
0.0774657
0.0829624
0.0877591
0.0899494
0.0804828
0.0728416
0.0695544
0.0725198
0.0847021
0.102563
0.00765055
0.00828802
0.0386862
0.0533134
0.0221857
0.0277369
0.025795
0.0259129
0.0219068
0.023016
0.0281883
0.0362441
0.0471807
0.0351083
0.0218613
0.0134831
0.00926693
0.00830247
0.0101193
0.0152711
0.0238054
0.034408
0.0461956
0.059
0.0724418
0.0796401
0.0849359
0.0894198
0.0914365
0.0807284
0.0729267
0.0696471
0.0727828
0.0849536
0.102862
0.00741321
0.00798854
0.0429817
0.0531775
0.0237194
0.0311963
0.0285934
0.0291209
0.0244587
0.0260417
0.0328772
0.0424748
0.0594406
0.048971
0.0294582
0.0163652
0.0104085
0.00899735
0.0108113
0.0162627
0.0253138
0.0364996
0.0484699
0.0613099
0.0748427
0.0818472
0.0869231
0.091108
0.0929821
0.081037
0.0731006
0.0698605
0.0731861
0.0853814
0.103351
0.00718442
0.00784357
0.0471369
0.0534901
0.0253724
0.034929
0.0315817
0.0324753
0.0271081
0.0291145
0.0373728
0.047648
0.0702774
0.0649171
0.0387755
0.0194868
0.0115076
0.0096453
0.0114742
0.0172496
0.0268495
0.0386559
0.050838
0.0637147
0.0772801
0.0840293
0.0888734
0.0927847
0.0945581
0.0814033
0.0733655
0.0702027
0.073739
0.0860002
0.104046
0.00696955
0.00798958
0.0505136
0.0539163
0.0270772
0.038804
0.0345148
0.0358497
0.0296453
0.0320623
0.0416488
0.0518949
0.078876
0.0813414
0.0494237
0.0227183
0.0125249
0.0102245
0.0120825
0.018194
0.0283623
0.0408171
0.0532419
0.0661563
0.0796932
0.0861298
0.0907383
0.0944125
0.096137
0.0818215
0.0737224
0.0706793
0.0744493
0.0868219
0.104959
0.00676816
0.00849539
0.0539715
0.0555395
0.0293285
0.0433391
0.0379362
0.039565
0.0324407
0.0351221
0.0458049
0.0554504
0.0849568
0.0962511
0.0606129
0.0259152
0.0134354
0.0107226
0.0126168
0.0190629
0.0298036
0.0429236
0.055622
0.0685756
0.0820227
0.0880968
0.0924749
0.0959583
0.0976937
0.0822859
0.0741712
0.0712947
0.0753231
0.0878572
0.106101
0.00658323
0.00949336
0.0566657
0.0573967
0.0320298
0.0482123
0.0414267
0.0432791
0.0351343
0.0379204
0.0495523
0.0584172
0.0884515
0.107637
0.0711661
0.0289173
0.0142207
0.0111317
0.0130629
0.0198279
0.03113
0.044919
0.0579199
0.070915
0.0842144
0.0898857
0.0940475
0.097395
0.0992071
0.0827915
0.0747119
0.0720524
0.076366
0.0891155
0.107482
0.00641237
0.011124
0.0598378
0.059832
0.0355861
0.05351
0.0453442
0.0470576
0.0379739
0.0405896
0.0525365
0.0605172
0.0891147
0.113809
0.0796812
0.0315619
0.0148733
0.0114505
0.0134123
0.0204677
0.0323042
0.0467533
0.0600821
0.073122
0.0862212
0.0914612
0.0954297
0.0987025
0.100661
0.0833352
0.0753447
0.0729555
0.0775833
0.0906058
0.109111
0.00625708
0.0131365
0.0619462
0.0613369
0.0395001
0.0580494
0.0487092
0.0499906
0.0402415
0.042397
0.0539644
0.0611423
0.0866696
0.113778
0.0847756
0.0336646
0.0153833
0.0116781
0.0136598
0.0209661
0.0332968
0.0483837
0.0620615
0.0751508
0.0880053
0.092799
0.0966046
0.0998686
0.102043
0.083916
0.076071
0.0740076
0.0789809
0.0923373
0.110999
0.00611533
0.0155076
0.0644718
0.0628826
0.0439434
0.0617565
0.0517987
0.0520927
0.0421176
0.0434256
0.0534813
0.059703
0.0810033
0.107551
0.0855047
0.0350326
0.0157402
0.0118154
0.0138035
0.0213132
0.0340853
0.0497765
0.0638188
0.0769644
0.0895391
0.0938853
0.0975658
0.100889
0.103348
0.0845347
0.076893
0.0752125
0.0805648
0.0943199
0.113156
0.00598779
0.0173838
0.0655673
0.0641754
0.0483846
0.0641629
0.0539135
0.0528768
0.0430339
0.0431752
0.0509886
0.0560961
0.0725984
0.0962498
0.0816576
0.0354676
0.0159207
0.0118582
0.0138416
0.0215023
0.0346546
0.0509058
0.0653232
0.0785344
0.0908055
0.0947173
0.0983159
0.101767
0.104577
0.0851946
0.0778144
0.0765751
0.0823424
0.0965644
0.115593
0.00587307
0.0188778
0.0664448
0.0665951
0.0530568
0.0662264
0.0559311
0.053188
0.0436056
0.0423406
0.0472495
0.050827
0.0625054
0.081837
0.0739244
0.0348306
0.0158963
0.0118005
0.0137719
0.0215302
0.0349945
0.0517535
0.0665515
0.0798415
0.091797
0.0953014
0.0988662
0.102513
0.105732
0.0859013
0.0788404
0.0781012
0.0843223
0.0990833
0.118324
0.00577126
0.0192649
0.0647613
0.0694521
0.0573959
0.0678683
0.0574498
0.0530134
0.0435922
0.040878
0.0429716
0.0447906
0.0520957
0.0665202
0.0636228
0.0330826
0.0156306
0.0116293
0.0135895
0.0213931
0.035099
0.0523068
0.0674876
0.0808737
0.0925149
0.0956523
0.0992348
0.103142
0.106823
0.0866621
0.0799777
0.0797984
0.0865145
0.101891
0.121363
0.00568081
0.0196293
0.0621451
0.0733197
0.0615164
0.0694261
0.0589358
0.0529224
0.0435336
0.0394823
0.0390299
0.038941
0.0425945
0.052219
0.0523596
0.0303498
0.0150994
0.0113327
0.0132876
0.0210876
0.0349633
0.0525576
0.0681203
0.0816261
0.0929677
0.0957908
0.0994456
0.103676
0.107863
0.0874866
0.0812348
0.0816759
0.088931
0.105004
0.124728
0.00560144
0.0203114
0.0589571
0.0773534
0.0651816
0.0707744
0.0600104
0.0526607
0.0431668
0.0380084
0.0356984
0.0339269
0.0347544
0.0401332
0.0415203
0.0268991
0.0142987
0.0109
0.0128584
0.020608
0.0345832
0.0524995
0.0684427
0.0820981
0.0931693
0.0957423
0.0995266
0.104139
0.108866
0.0883861
0.0826219
0.0837454
0.091586
0.108442
0.128439
0.0055308
0.0219852
0.057389
0.0816094
0.0686813
0.0721526
0.0609667
0.0524131
0.0427163
0.0367201
0.0330993
0.0300271
0.0288354
0.0307857
0.0321032
0.0231114
0.013266
0.0103346
0.0122982
0.0199494
0.0339538
0.0521276
0.0684502
0.0822936
0.0931378
0.0955353
0.0995089
0.104558
0.109851
0.0893739
0.0841513
0.0860218
0.0944962
0.11223
0.132519
0.00546939
0.024119
0.0564237
0.0837675
0.0710208
0.0724621
0.0609539
0.0516175
0.041802
0.0352984
0.0309344
0.0270849
0.0246166
0.0240728
0.0245706
0.0193766
0.0120767
0.0096564
0.0116121
0.0191097
0.0330711
0.0514382
0.0681412
0.0822193
0.0928942
0.0952004
0.0994259
0.104964
0.110838
0.0904652
0.0858376
0.0885237
0.0976814
0.116394
0.136993
0.0054143
0.0262843
0.0543428
0.0815471
0.0705006
0.0700114
0.0589363
0.0496285
0.0401546
0.0335985
0.0289385
0.0247808
0.0216699
0.0195906
0.019013
0.0160391
0.0108444
0.00891022
0.0108206
0.0180963
0.0319352
0.0504315
0.0675177
0.0818861
0.0924626
0.0947701
0.0993133
0.10539
0.111848
0.0916778
0.0876979
0.0912746
0.101165
0.120971
0.141892
0.00536696
0.0280692
0.0507289
0.0752423
0.0666136
0.0645588
0.0545983
0.0461593
0.0375591
0.0314097
0.0268863
0.0228052
0.0194955
0.0167167
0.0151976
0.013309
0.00968881
0.00815761
0.00996185
0.0169307
0.0305553
0.0491146
0.0665881
0.0813105
0.0918697
0.0942787
0.0992091
0.105873
0.112903
0.0930316
0.0897519
0.0943045
0.104973
0.126
0.147248
0.00532477
0.0300134
0.047941
0.0689534
0.0616602
0.0583167
0.0494674
0.0420834
0.0345204
0.0289936
0.0248206
0.0210226
0.0177672
0.0148701
0.0127658
0.0112587
0.00870984
0.00746867
0.00909037
0.0156534
0.028955
0.0475062
0.0653706
0.0805172
0.0911466
0.0937634
0.0991547
0.106451
0.114027
0.0945495
0.0920225
0.0976505
0.109136
0.131531
0.153096
0.00529162
0.0319558
0.047131
0.0644974
0.0574921
0.0530474
0.0448374
0.0382544
0.0315434
0.0266054
0.0228374
0.0194025
0.0163026
0.0135848
0.011279
0.00982125
0.00794705
0.00689765
0.0082672
0.0143223
0.027177
0.0456409
0.0638962
0.0795417
0.0903295
0.0932648
0.0991951
0.107167
0.115244
0.096257
0.0945355
0.101359
0.11369
0.137622
0.159477
0.00526786
0.0337547
0.0470574
0.0602648
0.0536213
0.0484181
0.0407101
0.0347718
0.0287731
0.0243498
0.0209669
0.0179165
0.0150223
0.0125873
0.0103576
0.00886804
0.00738403
0.00646744
0.00754691
0.0130073
0.025283
0.043571
0.0622105
0.0784323
0.089461
0.0928286
0.0993803
0.10807
0.11658
0.0981826
0.0973197
0.105485
0.118674
0.144343
0.166429
0.00526469
0.0348423
0.0455461
0.0542929
0.0487247
0.0433652
0.0364239
0.0312474
0.0260131
0.0221091
0.0191358
0.0165136
0.0138679
0.0117337
0.00972567
0.00824697
0.00697524
0.00616308
0.00696373
0.0117779
0.0233501
0.0413649
0.0603738
0.0772497
0.0885906
0.0925051
0.0997655
0.109212
0.118062
0.100357
0.100408
0.110097
0.124132
0.151773
0.173995
0.00529409
0.0355964
0.0420793
0.0469463
0.0427915
0.0377911
0.0319151
0.0276273
0.0232461
0.01989
0.0173441
0.0151697
0.0128146
0.010975
0.00924228
0.00783783
0.00668433
0.00595475
0.00652675
0.010693
0.0214615
0.0391033
0.0584575
0.0760662
0.0877744
0.0923502
0.100412
0.110652
0.119717
0.102815
0.103835
0.115276
0.130111
0.160006
0.182217
0.0053882
0.0356809
0.0375099
0.0398102
0.0368509
0.0323764
0.027589
0.0241772
0.0206378
0.0178166
0.0156872
0.0139264
0.0118739
0.0103119
0.00885407
0.00756363
0.00648805
0.00581828
0.0062255
0.00979185
0.0196968
0.0368707
0.0565396
0.0749618
0.0870744
0.0924246
0.101388
0.112454
0.121575
0.105592
0.107642
0.12112
0.136667
0.169152
0.191141
0.00558756
0.0356295
0.0334104
0.0341605
0.0318688
0.027793
0.0239208
0.0212416
0.0184281
0.0160831
0.0143181
0.0128689
0.0110957
0.009776
0.00856229
0.0073922
0.00637461
0.00574335
0.00604197
0.00909421
0.0181226
0.0347488
0.0547002
0.0740216
0.0865577
0.0927953
0.10277
0.114694
0.123668
0.10873
0.111878
0.127745
0.143866
0.179344
0.200815
0.00594769
0.035337
0.0305506
0.0301345
0.0280852
0.0242731
0.0211076
0.018992
0.0167481
0.014795
0.0133344
0.0120743
0.0105222
0.00939221
0.00837203
0.00730438
0.0063312
0.00572389
0.00595798
0.0086026
0.0167911
0.0328127
0.053019
0.073336
0.0862974
0.0935372
0.104648
0.117458
0.126037
0.112277
0.116599
0.135297
0.151786
0.19074
0.211301
0.00649509
0.0346393
0.0287689
0.0273055
0.0253081
0.0217391
0.0191599
0.0174717
0.0156605
0.0140276
0.012806
0.0116043
0.0101964
0.00918988
0.0082975
0.00729722
0.00635084
0.00575713
0.00595868
0.00830873
0.0157414
0.031135
0.0515807
0.0730077
0.0863759
0.0947394
0.107128
0.120853
0.128731
0.116292
0.12188
0.143949
0.160528
0.203534
0.222677
0.00719527
0.0334472
0.027909
0.025531
0.0234789
0.0202067
0.0181122
0.016742
0.0152282
0.0138168
0.0127574
0.0114957
0.0101354
0.00916729
0.00832439
0.00735003
0.00641662
0.00583494
0.00603123
0.00819667
0.0150043
0.0297945
0.0504849
0.0731658
0.0868907
0.0965114
0.110345
0.12501
0.131814
0.120847
0.127815
0.153913
0.170218
0.217958
0.235046
0.00790951
0.0312729
0.0281887
0.0250288
0.0227715
0.0198944
0.0181914
0.017007
0.0155951
0.0141979
0.0131726
0.0117588
0.0103418
0.00930638
0.00842688
0.00743732
0.00651023
0.00594729
0.006165
0.00824832
0.0145991
0.0288794
0.0498545
0.0739783
0.0879602
0.0989886
0.11446
0.130086
0.135371
0.126032
0.13452
0.165427
0.181013
0.234278
0.248546
0.00865389
0.0274546
0.0287865
0.0253846
0.0229627
0.020625
0.0191678
0.0180646
0.0165631
0.014953
0.0138439
0.0122606
0.0107018
0.00951519
0.0085308
0.00750195
0.00659412
0.00607207
0.0063451
0.00844043
0.0145285
0.0284702
0.049823
0.0756396
0.0897199
0.102325
0.119662
0.136269
0.139505
0.131951
0.142138
0.178756
0.193107
0.252797
0.263348
0.0094186
0.0227687
0.0282259
0.0256548
0.0234819
0.0218531
0.020474
0.019372
0.0176811
0.015754
0.0145061
0.0127993
0.0110686
0.00970329
0.00858325
0.00751129
0.00664832
0.00619839
0.00656445
0.00876121
0.014787
0.0286236
0.0505049
0.0783342
0.0923058
0.106681
0.126157
0.143766
0.144338
0.138734
0.150843
0.194205
0.206734
0.273873
0.279673
0.0101664
0.0186374
0.0261753
0.0253573
0.0239557
0.0232004
0.0216463
0.0205346
0.0186346
0.0163703
0.0149871
0.0132249
0.0113235
0.00979968
0.00855707
0.00745781
0.00666552
0.00631733
0.00681897
0.00921213
0.0153799
0.0293739
0.0519807
0.0822115
0.0958386
0.112211
0.134159
0.152802
0.150004
0.146527
0.160833
0.212115
0.222162
0.297909
0.297773
0.0108773
0.0151258
0.0234825
0.0250232
0.0246563
0.0249458
0.0228182
0.0216865
0.0195302
0.0168731
0.0153168
0.0135148
0.0114386
0.0097801
0.0084432
0.00733764
0.0066402
0.00642017
0.00710607
0.00981167
0.0163374
0.0307582
0.0543055
0.0873892
0.100418
0.119055
0.143877
0.163605
0.156641
0.155486
0.172318
0.232845
0.23968
0.325334
0.317925
4.46213e-17
3.94052e-15
9.53279e-14
1.57931e-13
9.95062e-13
1.29883e-07
1.81e-05
0.00152414
0.0105049
0.0204714
0.0309484
0.0403368
0.0473691
0.0541944
0.0572204
0.0690343
0.0870708
0.0682827
0.0403444
0.0328344
0.0168654
0.0114869
4.57079e-17
4.93062e-15
2.24075e-13
5.53689e-13
4.56028e-12
1.38244e-06
7.03272e-05
0.00198978
0.0122452
0.0212756
0.0312212
0.0404842
0.0474271
0.0531821
0.054813
0.0650014
0.0816239
0.066081
0.0388593
0.0321073
0.0167388
0.0119535
4.64201e-17
3.72577e-15
1.46385e-13
1.23856e-12
1.90546e-11
4.73247e-06
0.000167498
0.00253033
0.0141416
0.0221204
0.0316744
0.040895
0.0479446
0.0528324
0.0532142
0.0619608
0.0771618
0.0642152
0.0377011
0.0313822
0.0166185
0.0129878
4.59401e-17
4.21539e-15
1.70569e-13
1.91264e-12
7.08355e-11
1.26586e-05
0.000297151
0.00315155
0.0162215
0.0230475
0.0323493
0.0415929
0.0489524
0.0532019
0.0524683
0.0600019
0.0737898
0.0627131
0.0368646
0.0306703
0.0164972
0.0143579
4.65644e-17
3.16385e-15
1.05121e-13
1.12496e-12
2.08381e-10
2.04916e-05
0.000445137
0.00384895
0.0184919
0.02409
0.0332725
0.0425979
0.0504603
0.0543417
0.0526172
0.0591364
0.0715236
0.0615914
0.0363155
0.0299933
0.0163758
0.0158366
4.59866e-17
3.5788e-15
1.23877e-13
1.12474e-12
5.17792e-10
2.84332e-05
0.000593015
0.00459096
0.0209336
0.0252681
0.0344544
0.0439197
0.0524765
0.0562468
0.0536526
0.0593584
0.0703435
0.060866
0.0360311
0.0293652
0.0162502
0.017252
4.66819e-17
2.69992e-15
7.68869e-14
5.94053e-13
7.99127e-10
2.96527e-05
0.000726208
0.00533686
0.0235035
0.0265993
0.0358958
0.0455638
0.0549885
0.0589283
0.05559
0.0606437
0.0702089
0.0605478
0.0359745
0.0288075
0.0161218
0.0184786
4.60524e-17
3.05905e-15
9.13773e-14
6.07567e-13
1.05507e-09
2.83172e-05
0.000827868
0.00602021
0.0261254
0.0280877
0.0375844
0.047522
0.0579797
0.0623514
0.0584059
0.0629862
0.0710888
0.0606503
0.0361327
0.028328
0.0159882
0.0194531
4.68314e-17
2.31567e-15
5.64239e-14
3.32908e-13
8.06272e-10
2.03372e-05
0.000886372
0.00656723
0.028694
0.0297308
0.0395003
0.0497761
0.0614055
0.0664973
0.0621001
0.0663729
0.072953
0.0611841
0.0364816
0.0279416
0.0158531
0.0201444
4.60943e-17
2.62972e-15
6.79152e-14
3.54113e-13
6.35788e-10
1.39482e-05
0.00089636
0.00689306
0.0310644
0.0315063
0.04161
0.0522879
0.0652079
0.0712891
0.0666209
0.0708009
0.0757846
0.0621642
0.0370234
0.0276478
0.0157147
0.0205628
4.69122e-17
2.00507e-15
4.23378e-14
2.01635e-13
3.30505e-10
6.3546e-06
0.000858385
0.00693396
0.0330589
0.0333798
0.0438705
0.0550029
0.0692895
0.0766487
0.0719205
0.0762338
0.079556
0.0636028
0.037745
0.0274568
0.0155781
0.0207266
4.60968e-17
2.28068e-15
5.14107e-14
2.20325e-13
2.02005e-10
2.7742e-06
0.000785349
0.0066595
0.0344652
0.0352885
0.0462218
0.05784
0.0735291
0.0824166
0.0778718
0.0826093
0.0842331
0.0655157
0.0386593
0.0273637
0.0154422
0.0206756
4.69597e-17
1.74882e-15
3.20683e-14
1.28656e-13
9.08361e-11
6.69465e-07
0.000685096
0.006098
0.0350632
0.0371484
0.048591
0.0606989
0.077759
0.0884156
0.0843259
0.0897878
0.0897414
0.0679116
0.039758
0.0273782
0.015314
0.0204418
4.60414e-17
1.99171e-15
3.94449e-14
1.44383e-13
5.12881e-11
2.00335e-07
0.000578066
0.005326