/*--------------------------------*- C++ -*----------------------------------*\
| =========                 |                                                 |
| \\      /  F ield         | OpenFOAM: The Open Source CFD Toolbox           |
|  \\    /   O peration     | Version:  v1912                                 |
|   \\  /    A nd           | Website:  www.openfoam.com                      |
|    \\/     M anipulation  |                                                 |
\*---------------------------------------------------------------------------*/
FoamFile
{
    version     2.0;
    format      ascii;
    class       volScalarField;
    location    "10";
    object      p;
}
// * * * * * * * * * * * * * * * * * * * * * * * * * * * * * * * * * * * * * //

dimensions      [0 2 -2 0 0 0 0];


internalField   nonuniform List<scalar> 
12441
(
1.75821
-1.98359
17.5688
27.0457
31.0713
21.1842
37.1278
26.609
31.7084
16.0619
10.4813
-0.714522
-0.462466
1.99814
14.2738
57.6778
78.041
207.085
132.244
262.675
244.494
416.933
1.75972
-1.98025
17.5605
27.0445
31.0698
21.1888
37.1161
26.6158
31.7039
16.067
10.4855
-0.709508
-0.460961
1.99379
14.2673
57.6493
78.0455
207.028
132.243
262.598
244.905
416.142
1.76271
-1.97648
17.5506
27.0435
31.0694
21.1938
37.1018
26.6231
31.6963
16.0718
10.4916
-0.704267
-0.461083
1.98665
14.2562
57.6289
78.0149
207.047
132.155
262.295
244.876
414.462
1.76704
-1.97136
17.5369
27.0417
31.0693
21.1998
37.0823
26.6311
31.6828
16.0769
10.499
-0.698526
-0.463389
1.97492
14.2397
57.6082
77.9475
207.105
131.945
261.634
244.738
412.331
1.77264
-1.96462
17.5192
27.0394
31.0694
21.208
37.0573
26.6402
31.6628
16.0832
10.5081
-0.69149
-0.467238
1.9598
14.2196
57.5889
77.8495
207.199
131.637
260.588
244.728
409.904
1.77931
-1.95652
17.4973
27.0364
31.0697
21.2186
37.0276
26.651
31.6366
16.0917
10.5196
-0.68259
-0.471977
1.94156
14.1962
57.5735
77.725
207.327
131.266
259.258
244.861
407.208
1.78705
-1.94691
17.4716
27.0331
31.0701
21.2318
36.9928
26.6633
31.6037
16.1026
10.5334
-0.671654
-0.477493
1.92148
14.1717
57.5645
77.5753
207.481
130.862
257.705
245.167
404.206
1.79569
-1.936
17.442
27.0293
31.0706
21.2478
36.9537
26.6774
31.5646
16.1167
10.55
-0.658632
-0.483535
1.8994
14.1465
57.5626
77.3971
207.642
130.455
255.949
245.659
400.862
1.80528
-1.92365
17.4088
27.0252
31.0711
21.2664
36.9097
26.693
31.519
16.1338
10.5691
-0.643727
-0.489879
1.87723
14.1233
57.5676
77.1873
207.793
130.067
254.009
246.328
397.165
1.81565
-1.91014
17.3719
27.0209
31.0715
21.2877
36.8615
26.7106
31.4676
16.1546
10.5909
-0.62681
-0.495889
1.85583
14.1009
57.577
76.9442
207.918
129.723
251.897
247.153
393.126
1.82686
-1.89527
17.3317
27.0165
31.0718
21.3115
36.8085
26.73
31.4101
16.1789
10.6148
-0.607784
-0.500979
1.8377
14.0796
57.5864
76.6694
208.008
129.441
249.633
248.11
388.767
1.83874
-1.87937
17.2882
27.0121
31.072
21.3379
36.7513
26.7517
31.3474
16.2074
10.6413
-0.585678
-0.503565
1.82229
14.0557
57.5932
76.3678
208.057
129.24
247.234
249.164
384.12
1.85138
-1.8622
17.2415
27.0078
31.0719
21.3667
36.6894
26.7754
31.279
16.2398
10.6698
-0.559255
-0.502479
1.81006
14.0292
57.5942
76.045
208.063
129.128
244.735
250.305
379.212
1.86461
-1.84413
17.1917
27.0036
31.0718
21.3978
36.6237
26.8019
31.2057
16.2771
10.7008
-0.526892
-0.496045
1.79912
13.9986
57.5911
75.7097
208.02
129.124
242.157
251.502
374.081
1.87853
-1.82484
17.139
26.9995
31.0713
21.431
36.5537
26.8308
31.1269
16.319
10.7339
-0.487575
-0.485085
1.79059
13.9671
57.5826
75.3683
207.928
129.23
239.541
252.745
368.754
1.89297
-1.80477
17.0834
26.9957
31.0706
21.4666
36.4804
26.8628
31.0432
16.3667
10.7695
-0.440278
-0.468698
1.7849
13.9357
57.5736
75.031
207.78
129.464
236.902
253.981
363.26
1.90804
-1.78355
17.0252
26.9921
31.0695
21.5041
36.4032
26.8975
30.9539
16.4198
10.8073
-0.385618
-0.448209
1.78562
13.9095
57.5627
74.7025
207.577
129.817
234.281
255.206
357.621
1.92356
-1.76165
16.9643
26.9889
31.0681
21.5437
36.3232
26.9354
30.8598
16.4791
10.8484
-0.322944
-0.42064
1.79513
13.8902
57.5583
74.3952
207.312
130.299
231.681
256.355
351.869
1.93965
-1.73864
16.901
26.9859
31.0662
21.5851
36.2398
26.9758
30.7602
16.5435
10.8926
-0.253831
-0.38676
1.81856
13.8845
57.559
74.1121
206.984
130.885
229.14
257.441
346.027
1.95615
-1.71504
16.8351
26.9833
31.0641
21.6286
36.154
27.0192
30.6559
16.614
10.9417
-0.176378
-0.340835
1.85905
13.8944
57.5795
73.8686
206.585
131.567
226.64
258.401
340.1
1.97316
-1.69041
16.7671
26.9809
31.0613
21.6737
36.0651
27.0644
30.5462
16.6891
10.9948
-0.0928981
-0.28335
1.92378
13.9295
57.6188
73.6655
206.114
132.302
224.215
259.261
334.095
1.99054
-1.66527
16.6968
26.9789
31.0583
21.7207
35.9743
27.1119
30.4323
16.7703
11.0547
0.000368131
-0.205022
2.0167
13.9938
57.6998
73.5223
205.563
133.071
221.836
259.949
327.992
2.00838
-1.63913
16.6246
26.9771
31.0546
21.7693
35.8808
27.1602
30.3136
16.8559
11.1191
0.100454
-0.107144
2.14826
14.1015
57.8196
73.4375
204.927
133.824
219.535
260.503
321.789
2.02654
-1.61257
16.5503
26.9757
31.0505
21.8196
35.7857
27.2098
30.1914
16.9481
11.1918
0.21424
0.0233686
2.32351
14.2604
58.0103
73.4357
204.2
134.539
217.274
260.843
315.454
2.04513
-1.585
16.4742
26.9744
31.0457
21.8713
35.6883
27.2591
30.0652
17.0448
11.2689
0.337286
0.183354
2.55751
14.4898
58.2634
73.511
203.378
135.172
215.095
261.015
308.984
2.064
-1.55708
16.3963
26.9735
31.0405
21.9246
35.5896
27.3089
29.9366
17.1485
11.3564
0.479704
0.390548
2.85603
14.8005
58.6178
73.6916
202.46
135.706
212.951
260.932
302.339
2.08326
-1.52815
16.3168
26.9727
31.0345
21.9793
35.4889
27.3573
29.805
17.2563
11.4478
0.634388
0.637257
3.237
15.2138
59.0542
73.9648
201.445
136.114
210.892
260.652
295.518
2.10276
-1.49891
16.2356
26.9722
31.028
22.0355
35.387
27.4055
29.6721
17.3717
11.552
0.814905
0.944618
3.70288
15.7406
59.6149
74.3573
200.334
136.388
208.864
260.081
288.47
2.12262
-1.46876
16.1532
26.9719
31.0207
22.0928
35.2833
27.4516
29.5376
17.4897
11.6596
1.0093
1.29698
4.26949
16.3954
60.26
74.8422
199.13
136.512
206.926
259.285
281.201
2.14269
-1.43835
16.0692
26.9717
31.013
22.1517
35.1785
27.4971
29.4032
17.615
11.7834
1.23359
1.71695
4.9291
17.1799
61.0265
75.4381
197.838
136.485
205.017
258.165
273.654
2.16309
-1.40707
15.9842
26.9717
31.0043
22.2116
35.072
27.54
29.2687
17.7397
11.9095
1.46934
2.17683
5.68842
18.0914
61.8441
76.0976
196.46
136.305
203.2
256.8
265.836
2.18365
-1.37555
15.8979
26.9717
30.9952
22.2729
34.9644
27.5824
29.136
17.8706
12.0547
1.73428
2.69918
6.52375
19.1112
62.7392
76.8288
194.999
135.974
201.408
255.085
257.685
2.20451
-1.34313
15.8106
26.9719
30.985
22.3352
34.8551
27.6222
29.0044
17.9966
12.1994
2.00344
3.2433
7.4324
20.2167
63.6163
77.5658
193.461
135.496
199.711
253.109
249.21
2.22551
-1.31054
15.7222
26.9721
30.9745
22.3989
34.7447
27.6617
28.8762
18.1268
12.3638
2.29631
3.83247
8.37552
21.3747
64.5112
78.3143
191.855
134.875
198.036
250.763
240.34
2.24676
-1.27722
15.6331
26.9723
30.9628
22.4634
34.6327
27.6989
28.75
18.2471
12.5225
2.58339
4.41986
9.35261
22.5604
65.3274
79.0128
190.191
134.123
196.456
248.147
231.087
2.26811
-1.24403
15.5428
26.9723
30.9507
22.5291
34.5196
27.7365
28.6276
18.37
12.6978
2.88693
5.03345
10.3265
23.7432
66.1309
79.6885
188.489
133.247
194.888
245.15
221.371
2.28969
-1.21039
15.4517
26.9722
30.9373
22.5953
34.4048
27.7719
28.5072
18.4783
12.8604
3.17556
5.62592
11.3
24.9128
66.8466
80.2975
186.773
132.265
193.415
241.879
211.201
2.31135
-1.17719
15.3594
26.9718
30.923
22.6624
34.289
27.808
28.3909
18.5872
13.0341
3.47239
6.22418
12.2433
26.0458
67.547
80.8796
185.071
131.187
191.949
238.219
200.488
2.33321
-1.14347
15.2664
26.971
30.907
22.7299
34.1714
27.8418
28.2761
18.6781
13.1899
3.74789
6.78422
13.1477
27.1175
68.15
81.4011
183.4
130.043
190.574
234.282
189.238
2.35517
-1.10894
15.1727
26.9699
30.8897
22.7987
34.0523
27.8764
28.1653
18.7699
13.3528
4.02454
7.32494
13.9901
28.1019
68.6566
81.8732
181.746
128.855
189.2
229.951
177.359
2.37735
-1.07054
15.0793
26.9689
30.8704
22.8691
33.9307
27.9102
28.0556
18.8449
13.4981
4.27632
7.81705
14.7422
28.9526
68.9855
82.2367
180.041
127.66
187.914
225.335
164.836
2.39953
-1.02579
14.9869
26.9683
30.8501
22.943
33.8068
27.9508
27.9504
18.9233
13.6533
4.52502
8.27836
15.4085
29.6841
69.1424
82.4256
178.205
126.398
186.529
220.415
151.605
2.42153
-0.974795
14.8991
26.967
30.8288
23.017
33.6813
27.9924
27.8394
18.9741
13.7876
4.74247
8.69595
15.983
30.2902
69.1833
82.4506
176.357
125.015
185.064
215.417
137.494
2.44321
-0.932264
14.8201
26.9631
30.8101
23.0792
33.5597
28.0404
27.7324
19.0172
13.9379
4.98244
9.15161
16.5828
30.8917
69.2234
82.4196
174.698
123.479
183.701
210.197
122.407
2.786
-36.341
15.782
-8.878
58.8483
26.7647
26.6337
31.8607
28.1017
18.7825
8.66452
6.48018
-31.7078
-30.726
-24.392
-18.9722
-16.8009
-19.2394
-22.2514
-22.5969
-16.1427
-15.6407
-7.00933
-2.88887
1.51608
0.997465
3.6167
5.93229
3.53926
9.47438
6.10643
2.17659
5.62152
-2.19119
1.92793
2.43731
-36.2971
15.8445
-8.91116
58.7604
26.7594
26.6274
31.8411
28.0813
18.7713
8.62063
6.46659
-31.6685
-30.7209
-24.3961
-18.9771
-16.8069
-19.2461
-22.2572
-22.6027
-16.1484
-15.6463
-7.0156
-2.8936
1.51307
0.996179
3.61455
5.9302
3.53659
9.4733
6.10589
2.17613
5.6209
-2.19186
1.9275
2.01298
-36.3131
15.8212
-9.02699
58.7599
26.7275
26.6131
31.8209
28.0546
18.7554
8.59053
6.41542
-31.6315
-30.715
-24.3995
-18.981
-16.8111
-19.2517
-22.2625
-22.6078
-16.1536
-15.6513
-7.02121
-2.89736
1.51096
0.994965
3.61248
5.92822
3.53568
9.47198
6.10525
2.17575
5.62
-2.19254
1.92702
1.48308
-36.3586
15.6188
-9.28994
58.7681
26.6599
26.5753
31.7843
28.0126
18.7372
8.55354
6.32163
-31.5815
-30.7078
-24.4049
-18.9865
-16.8161
-19.2583
-22.2682
-22.6127
-16.1592
-15.6563
-7.02703
-2.90131
1.50872
0.993505
3.61029
5.92602
3.53491
9.4704
6.10455
2.17559
5.619
-2.19296
1.92653
0.893052
-36.5444
15.3642
-9.71955
58.7531
26.5535
26.5125
31.7251
27.9496
18.7116
8.50425
6.19296
-31.5255
-30.7021
-24.4135
-18.9943
-16.8221
-19.2654
-22.2736
-22.6166
-16.1651
-15.6609
-7.03296
-2.90505
1.50627
0.992089
3.60815
5.92372
3.5346
9.46859
6.10378
2.17568
5.61783
-2.19306
1.92603
0.271591
-36.7968
15.1029
-10.2717
58.6596
26.3956
26.4308
31.6405
27.8553
18.6684
8.43411
6.02671
-31.4714
-30.701
-24.4255
-19.0044
-16.8288
-19.2725
-22.2777
-22.6186
-16.1703
-15.6646
-7.03868
-2.90862
1.5036
0.990832
3.60593
5.92116
3.53435
9.46632
6.10275
2.17582
5.6165
-2.19293
1.92545
-0.364679
-36.9841
14.7894
-10.814
58.5109
26.1667
26.3061
31.5241
27.7291
18.6009
8.32191
5.81856
-31.4344
-30.7123
-24.4452
-19.0191
-16.8374
-19.2805
-22.2814
-22.6193
-16.1756
-15.6679
-7.04443
-2.91183
1.50074
0.989795
3.60375
5.91849
3.53433
9.46381
6.10158
2.1761
5.61498
-2.19254
1.92485
-0.988366
-37.1386
14.338
-11.234
58.4087
25.9344
26.1542
31.3544
27.5685
18.5283
8.1642
5.55819
-31.4312
-30.7419
-24.4745
-19.0384
-16.8476
-19.2888
-22.2835
-22.6178
-16.1799
-15.67
-7.04978
-2.91482
1.49789
0.988979
3.60142
5.91553
3.5342
9.46075
6.10011
2.17633
5.6133
-2.19201
1.92415
-1.5808
-37.2873
13.8934
-11.4068
58.3205
25.701
26.0069
31.16
27.3764
18.4395
7.98594
5.22557
-31.4899
-30.801
-24.5203
-19.0654
-16.8602
-19.2979
-22.2852
-22.6151
-16.1843
-15.672
-7.05519
-2.9174
1.495
0.98843
3.59919
5.91249
3.53429
9.45744
6.09851
2.17666
5.61145
-2.19125
1.92345
-2.11577
-37.4057
13.4156
-11.3868
58.2454
25.4692
25.8695
30.9807
27.1801
18.3301
7.78168
4.82034
-31.6405
-30.8999
-24.5864
-19.0992
-16.874
-19.3066
-22.2846
-22.6094
-16.1871
-15.6723
-7.06005
-2.91973
1.49222
0.98816
3.59682
5.90912
3.53421
9.45347
6.0966
2.1769
5.60945
-2.19038
1.92265
-2.58898
-37.458
13.0446
-11.2123
58.1454
25.2119
25.7188
30.8005
26.9797
18.217
7.5039
4.39811
-31.9076
-31.0587
-24.6834
-19.1429
-16.8894
-19.3152
-22.283
-22.6023
-16.1895
-15.6722
-7.06484
-2.92153
1.48954
0.988262
3.59464
5.90573
3.53441
9.44924
6.09457
2.17728
5.60726
-2.18927
1.92185
-2.99144
-37.4325
12.6697
-11.0208
58.0578
24.9624
25.5609
30.6063
26.7672
18.119
7.20288
4.05141
-32.2565
-31.2925
-24.8164
-19.1938
-16.9041
-19.322
-22.278
-22.591
-16.1895
-15.6697
-7.06866
-2.92297
1.48711
0.988768
3.59238
5.90202
3.53438
9.44431
6.0922
2.17754
5.60492
-2.18806
1.92094
-3.33619
-37.361
12.4644
-10.7958
57.9421
24.6948
25.3879
30.3946
26.5371
18.0257
6.91253
3.80059
-32.5927
-31.6139
-24.9975
-19.2531
-16.9186
-19.3272
-22.2708
-22.5778
-16.1886
-15.6662
-7.07208
-2.92367
1.48495
0.989799
3.59043
5.89836
3.53472
9.43915
6.08972
2.17796
5.60237
-2.18659
1.92005
-3.60933
-37.265
12.2493
-10.6568
57.8366
24.4452
25.2081
30.1709
26.2927
17.9331
6.64205
3.62755
-32.7986
-31.9897
-25.2236
-19.3153
-16.9306
-19.3293
-22.259
-22.5593
-16.1843
-15.6595
-7.07403
-2.92382
1.48323
0.991372
3.58846
5.89439
3.53481
9.43321
6.08688
2.17824
5.59966
-2.18505
1.91903
-3.82148
-37.1786
12.2057
-10.5216
57.6901
24.1704
25.0067
29.9299
26.0306
17.8313
6.37096
3.47448
-32.8558
-32.3522
-25.4941
-19.3811
-16.941
-19.3292
-22.2443
-22.538
-16.1785
-15.6515
-7.07524
-2.92296
1.48199
0.99362
3.58693
5.89056
3.53536
9.42708
6.08395
2.17868
5.59671
-2.18324
1.91803
-3.97079
-37.0723
12.0517
-10.5152
57.5567
23.913
24.796
29.6734
25.7544
17.7249
6.07683
3.31424
-32.8082
-32.5981
-25.7801
-19.445
-16.9486
-19.3265
-22.2244
-22.5103
-16.1685
-15.6396
-7.07446
-2.92137
1.48138
0.996526
3.5854
5.88644
3.5356
9.42014
6.08062
2.17899
5.59358
-2.18136
1.91687
-4.07961
-36.9525
11.9886
-10.4945
57.3753
23.6268
24.5615
29.3978
25.4591
17.6101
5.72547
3.13399
-32.7127
-32.6872
-26.0604
-19.5096
-16.9547
-19.3223
-22.2022
-22.4792
-16.1566
-15.6261
-7.07265
-2.91851
1.48143
1.00021
3.58441
5.88252
3.53638
9.41304
6.07723
2.17948
5.59021
-2.1792
1.91574
-4.13756
-36.7379
11.7177
-10.5495
57.2018
23.38
24.3269
29.1211
25.1536
17.5005
5.34052
2.97088
-32.5791
-32.6066
-26.2892
-19.5703
-16.9593
-19.3162
-22.1761
-22.4416
-16.1396
-15.6081
-7.06849
-2.91478
1.48224
1.00461
3.58342
5.87831
3.5368
9.40508
6.07342
2.17979
5.58663
-2.17699
1.91443
-4.16897
-36.4348
11.547
-10.4785
56.9765
23.1499
24.0909
28.8556
24.8416
17.3982
4.98261
2.82636
-32.4076
-32.3872
-26.4466
-19.6281
-16.963
-19.3087
-22.1491
-22.402
-16.1207
-15.5883
-7.06317
-2.90964
1.48383
1.00982
3.58302
5.87435
3.53785
9.39701
6.06956
2.18031
5.58278
-2.17448
1.91316
-4.16379
-36.1157
11.2111
-10.4037
56.7711
23.0273
23.8911
28.6324
24.5448
17.3199
4.69558
2.72485
-32.1735
-32.037
-26.4994
-19.6767
-16.9661
-19.2994
-22.1189
-22.358
-16.0965
-15.5637
-7.05527
-2.90358
1.48624
1.01573
3.58258
5.87007
3.53846
9.38805
6.06525
2.18064
5.57871
-2.17193
1.91169
-4.14596
-35.7531
11.0521
-10.158
56.5243
22.9594
23.7177
28.4546
24.2704
17.2629
4.4775
2.66045
-31.8801
-31.6007
-26.4557
-19.7156
-16.968
-19.2883
-22.0873
-22.3138
-16.071
-15.5373
-7.04614
-2.89604
1.48946
1.02244
3.58274
5.86608
3.53975
9.37901
6.0609
2.18121
5.57434
-2.16905
1.91025
-4.10047
-35.3558
10.7716
-9.97968
56.3111
22.9745
23.5681
28.3118
24.0243
17.2292
4.30977
2.64783
-31.536
-31.1166
-26.3215
-19.7392
-16.9691
-19.2761
-22.0522
-22.2657
-16.0413
-15.506
-7.0343
-2.88762
1.49347
1.02977
3.58282
5.86171
3.54055
9.36903
6.05608
2.18154
5.56974
-2.16614
1.90859
-4.04834
-34.9337
10.7342
-9.73262
56.0504
22.9643
23.3967
28.1674
23.791
17.1964
4.16963
2.65697
-31.1847
-30.654
-26.1392
-19.7488
-16.9684
-19.2627
-22.0157
-22.2161
-16.0114
-15.4739
-7.02119
-2.87765
1.49826
1.03785
3.58349
5.85765
3.54208
9.359
6.05122
2.18214
5.5648
-2.16286
1.90698
-3.9701
-34.4924
10.6033
-9.61567
55.8082
22.98
23.2031
28.0022
23.5616
17.1536
4.03461
2.66993
-30.8553
-30.2494
-25.9371
-19.7435
-16.9659
-19.2493
-21.9768
-22.1618
-15.9774
-15.4382
-7.00538
-2.86668
1.50375
1.04645
3.58398
5.85316
3.543
9.34799
6.04585
2.1825
5.5596
-2.15955
1.90511
-3.88744
-34.0975
10.7386
-9.38977
55.4961
22.9581
22.9737
27.8082
23.324
17.0891
3.89801
2.65831
-30.5775
-29.9345
-25.7533
-19.7286
-16.9612
-19.2347
-21.9377
-22.1057
-15.9426
-15.4027
-6.98868
-2.85395
1.50996
1.0557
3.58504
5.84896
3.54471
9.33696
6.04044
2.18315
5.55404
-2.15582
1.90329
-3.77796
-33.8674
10.7381
-9.22333
55.1872
22.9825
22.7375
27.5961
23.0816
17.0109
3.7538
2.62308
-30.347
-29.6996
-25.5982
-19.7078
-16.9553
-19.2199
-21.8977
-22.0464
-15.903
-15.3637
-6.97004
-2.84018
1.51675
1.06536
3.58584
5.84426
3.54571
9.32486
6.03447
2.18351
5.54818
-2.15208
1.9012
-3.66487
-33.8405
10.9005
-8.87952
54.7984
22.9906
22.4791
27.3642
22.8324
16.9167
3.60397
2.55476
-30.161
-29.5413
-25.484
-19.688
-16.9489
-19.2044
-21.8585
-21.9872
-15.8629
-15.3241
-6.95151
-2.825
1.52416
1.07557
3.58716
5.83983
3.54754
9.31275
6.02847
2.18419
5.54192
-2.14787
1.89918
-3.5226
-33.9607
10.8491
-8.47894
54.4266
23.0729
22.2281
27.1205
22.5851
16.8135
3.44253
2.46012
-30.0025
-29.4365
-25.4043
-19.6746
-16.9445
-19.1912
-21.8198
-21.927
-15.8191
-15.2802
-6.93177
-2.80985
1.532
1.08608
3.58814
5.83482
3.54854
9.2995
6.02184
2.18456
5.53534
-2.14362
1.89683
-3.37794
-34.0733
10.7356
-7.80806
54.0388
23.1893
21.9805
26.865
22.3368
16.6972
3.27525
2.33479
-29.8705
-29.3785
-25.3609
-19.6728
-16.9444
-19.1809
-21.7841
-21.869
-15.7767
-15.2357
-6.91179
-2.79491
1.54034
1.09702
3.58958
5.83007
3.55041
9.28624
6.01517
2.1853
5.5283
-2.13885
1.89457
-3.20537
-33.9126
10.5191
-6.97841
53.7592
23.4218
21.782
26.6201
22.0961
16.5749
3.10574
2.1859
-29.7559
-29.3485
-25.3453
-19.6858
-16.9509
-19.1762
-21.752
-21.8125
-15.7323
-15.1878
-6.88924
-2.78113
1.54892
1.1081
3.59059
5.82464
3.55138
9.27172
6.00782
2.18567
5.52091
-2.13405
1.89195
-3.03186
-33.5025
10.5882
-6.00352
53.5199
23.6916
21.6141
26.3859
21.8556
16.4395
2.9484
2.00979
-29.6606
-29.345
-25.3562
-19.7149
-16.9644
-19.1764
-21.7255
-21.7605
-15.6904
-15.1408
-6.86482
-2.76684
1.55789
1.11949
3.59202
5.81943
3.55327
9.25718
6.00041
2.18643
5.513
-2.12864
1.88944
-2.83329
-33.0846
10.651
-5.10682
53.3004
23.9945
21.4872
26.1804
21.631
16.3004
2.81557
1.82627
-29.5701
-29.3476
-25.3772
-19.7537
-16.9806
-19.1795
-21.7033
-21.7112
-15.6471
-15.0914
-6.83736
-2.75104
1.56698
1.13091
3.59291
5.81345
3.55413
9.24124
5.99224
2.1868
5.5047
-2.12318
1.88653
-2.6424
-32.9394
10.8941
-4.2449
52.9923
24.2576
21.3698
25.9983
21.4268
16.1645
2.71529
1.65585
-29.4755
-29.3476
-25.4
-19.7957
-16.9963
-19.1826
-21.6855
-21.6667
-15.6067
-15.0434
-6.80953
-2.7319
1.57644
1.14261
3.59419
5.80765
3.55595
9.22527
5.98399
2.18762
5.49583
-2.117
1.88374
-2.44223
-32.754
11.1487
-3.40699
52.6543
24.5115
21.2652
25.838
21.2569
16.0557
2.63829
1.51816
-29.3575
-29.3275
-25.4123
-19.8339
-17.0091
-19.1834
-21.6684
-21.6229
-15.5656
-14.9931
-6.78133
-2.71093
1.58599
1.15433
3.59492
5.80094
3.55668
9.20771
5.97492
2.18795
5.48654
-2.11077
1.88051
-2.25673
-32.4809
11.5557
-2.544
52.2914
24.7418
21.1655
25.688
21.1183
15.9688
2.55764
1.3764
-29.2324
-29.2988
-25.4205
-19.8702
-17.0249
-19.1863
-21.6534
-21.5822
-15.5282
-14.9446
-6.7551
-2.68898
1.59579
1.1664
3.59607
5.79436
3.55839
9.19008
5.96577
2.18884
5.47659
-2.10366
1.87745
-2.04863
-32.3814
11.9918
-1.82209
51.8551
24.9164
21.0514
25.5292
20.9849
15.8842
2.47267
1.22338
-29.1053
-29.2666
-25.4287
-19.9093
-17.0471
-19.1935
-21.639
-21.5424
-15.4915
-14.8946
-6.72934
-2.66847
1.60546
1.17853
3.59656
5.78677
3.5587
9.17073
5.95568
2.18927
5.46619
-2.09636
1.87386
-1.8712
-32.9019
12.2669
-1.30394
51.2563
24.9696
20.8831
25.3337
20.8266
15.7794
2.38374
1.05647
-28.9844
-29.2376
-25.4399
-19.9523
-17.0763
-19.207
-21.6292
-21.5083
-15.4603
-14.8476
-6.70511
-2.64882
1.61512
1.19098
3.59745
5.77927
3.56021
9.15124
5.94552
2.19032
5.45503
-2.08805
1.87045
-1.72137
-33.5812
12.2504
-0.988942
50.5245
24.9309
20.6741
25.1071
20.6444
15.6577
2.29529
0.884375
-28.8628
-29.2045
-25.4482
-19.9956
-17.1073
-19.2224
-21.6212
-21.4775
-15.4311
-14.7999
-6.68007
-2.63062
1.62447
1.20333
3.59755
5.77053
3.56059
9.12967
5.93431
2.19062
5.44329
-2.07978
1.86638
-1.63806
-34.2002
12.1034
-0.793686
49.6573
24.8018
20.4281
24.848
20.4324
15.5132
2.20036
0.702278
-28.7458
-29.1721
-25.456
-20.0395
-17.1386
-19.2383
-21.6157
-21.4522
-15.4068
-14.7551
-6.65536
-2.61208
1.63362
1.21593
3.59807
5.76173
3.56241
9.10805
5.92312
2.1918
5.4307
-2.07017
1.86259
-1.57548
-34.6039
11.7891
-0.740846
48.684
24.6151
20.1611
24.5692
20.205
15.3592
2.10332
0.518733
-28.624
-29.1329
-25.4585
-20.0811
-17.1683
-19.2523
-21.6087
-21.4272
-15.3827
-14.7095
-6.62901
-2.59385
1.64237
1.22844
3.59772
5.75142
3.56214
9.08446
5.91094
2.19249
5.41754
-2.06026
1.85816
-1.54929
-34.5976
11.4192
-0.733081
47.5993
24.3532
19.8532
24.2519
19.9453
15.1813
1.9908
0.320606
-28.5098
-29.0968
-25.4624
-20.1243
-17.1996
-19.2674
-21.6028
-21.404
-15.3615
-14.6662
-6.60268
-2.5746
1.65108
1.24138
3.59792
5.74089
3.56263
9.06106
5.89897
2.19426
5.40351
-2.04878
1.85409
-1.47986
-34.0498
11.1352
-0.658296
46.4883
24.0738
19.5329
23.9144
19.6679
14.9924
1.87154
0.118408
-28.3942
-29.0562
-25.463
-20.166
-17.2307
-19.2819
-21.5948
-21.3783
-15.3384
-14.6213
-6.57449
-2.5561
1.65983
1.2544
3.59696
5.72822
3.56086
9.03559
5.88586
2.1954
5.38912
-2.03681
1.84919
-1.35643
-33.2724
11.1585
-0.408197
45.4317
23.8083
19.231
23.5776
19.3852
14.8021
1.7497
-0.084176
-28.288
-29.0209
-25.4677
-20.2098
-17.264
-19.298
-21.5874
-21.3527
-15.3161
-14.578
-6.54584
-2.53628
1.67016
1.26873
3.59663
5.71553
3.56243
9.00956
5.87246
2.19626
5.37355
-2.02464
1.84401
-1.00786
-32.6196
11.5057
-0.0192672
44.5415
23.6639
19.0337
23.318
19.1637
14.6641
1.66607
-0.246175
-28.1593
-28.9633
-25.459
-20.2433
-17.2909
-19.3071
-21.5712
-21.3171
-15.2849
-14.5272
-6.51177
-2.51449
1.68144
1.28494
3.59522
5.69922
3.56159
8.97816
5.85607
2.19622
5.35514
-2.01117
1.83701
2.46046
-0.907466
14.7591
26.9592
30.7986
23.1154
33.4543
28.0922
27.6232
19.0184
14.1214
5.31709
9.83868
17.4465
31.7214
69.528
82.6672
173.426
121.894
184.122
204.325
107.571
2.4732
-0.893845
14.7138
26.9562
30.7934
23.1299
33.369
28.1564
27.5346
19.016
14.3522
5.73843
10.6903
18.4947
32.7065
69.9965
83.1189
172.432
120.441
185.911
197.413
105.911
2.48637
-0.879401
14.668
26.9534
30.7867
23.142
33.2979
28.2175
27.4076
18.9781
14.5727
6.16965
11.6014
19.5859
33.7094
70.5049
83.6157
171.371
118.878
187.673
190.833
108.942
2.50013
-0.864977
14.6195
26.9506
30.7768
23.1546
33.2367
28.2868
27.2799
18.9547
14.8035
6.59912
12.4896
20.6427
34.6618
70.9547
84.0336
170.285
117.279
188.841
185.193
111.256
2.51444
-0.84822
14.5683
26.9483
30.7634
23.1712
33.1777
28.3458
27.1309
18.9143
15.0119
6.9971
13.3417
21.6419
35.5428
71.3596
84.3772
169.195
115.713
189.69
180.098
111.091
2.52935
-0.830484
14.5136
26.9462
30.7478
23.191
33.1158
28.4154
26.99
18.8933
15.2414
7.40662
14.1965
22.6469
36.4113
71.7372
84.6699
168.117
114.191
190.242
175.012
108.692
2.54488
-0.810325
14.4554
26.9448
30.7296
23.2151
33.0489
28.4703
26.8244
18.8543
15.4551
7.79703
15.0429
23.6444
37.2614
72.1098
84.9422
167.052
112.72
190.61
169.94
104.637
2.56104
-0.788886
14.3932
26.9437
30.7095
23.2434
32.9784
28.5379
26.6676
18.8357
15.6948
8.20894
15.9171
24.6805
38.1358
72.4834
85.199
165.993
111.275
190.71
164.707
99.7816
2.57786
-0.764746
14.3271
26.9433
30.6866
23.2771
32.9015
28.5901
26.4831
18.7993
15.9196
8.60599
16.7949
25.7376
39.0254
72.8706
85.4562
164.938
109.861
190.634
159.472
94.6382
2.59537
-0.739033
14.2564
26.9433
30.6615
23.3163
32.8186
28.6578
26.3088
18.7858
16.1723
9.02881
17.7115
26.8486
39.9602
73.2732
85.7104
163.874
108.454
190.287
154.126
89.7163
2.61359
-0.71043
14.1812
26.9439
30.6333
23.3623
32.7277
28.7104
26.1067
18.7537
16.4086
9.43688
18.6315
27.9945
40.9326
73.6988
85.9759
162.803
107.065
189.766
148.823
85.0507
2.63254
-0.679888
14.101
26.9448
30.6027
23.4159
32.6297
28.7775
25.9187
18.7447
16.673
9.87164
19.5906
29.1942
41.9586
74.1478
86.2452
161.707
105.674
188.973
143.45
80.8009
2.65226
-0.646089
14.0159
26.9461
30.5685
23.4779
32.522
28.8317
25.7064
18.7152
16.9183
10.2883
20.5443
30.428
43.0299
74.6213
86.5307
160.597
104.296
188.016
138.149
76.773
2.67275
-0.609973
13.9252
26.9477
30.5318
23.5491
32.4052
28.8979
25.5112
18.7101
17.1891
10.7291
21.5276
31.701
44.148
75.1175
86.8231
159.451
102.908
186.796
132.806
73.0373
2.69406
-0.570319
13.8292
26.9495
30.4912
23.6296
32.2796
28.9534
25.2998
18.6842
17.4357
11.145
22.4885
32.9913
45.304
75.6284
87.1348
158.283
101.529
185.425
127.548
69.3685
2.71619
-0.527898
13.7271
26.9514
30.4479
23.7197
32.1472
29.0147
25.1109
18.6829
17.7031
11.5775
23.4613
34.2923
46.4813
76.148
87.4491
157.066
100.135
183.8
122.258
65.8625
2.73921
-0.481519
13.6191
26.9532
30.4004
23.8189
32.009
29.0643
24.9181
18.663
17.939
11.9761
24.3891
35.5812
47.6691
76.6603
87.7693
155.818
98.7469
182.038
117.067
62.33
2.76308
-0.431917
13.5044
26.9548
30.3501
23.9275
31.8666
29.1113
24.7522
18.6698
18.1858
12.3824
25.3043
36.843
48.84
77.1564
88.0738
154.507
97.3393
180.029
111.861
58.9026
2.7879
-0.377949
13.3835
26.956
30.2955
24.0445
31.7205
29.1432
24.5939
18.6632
18.3921
12.7459
26.1527
38.0571
49.987
77.6117
88.3692
153.156
95.9351
177.894
106.763
55.411
2.81363
-0.320224
13.2555
26.9566
30.2378
24.1703
31.5718
29.1668
24.4626
18.683
18.5985
13.1062
26.9672
39.2092
51.0776
78.0178
88.6294
151.725
94.5084
175.516
101.659
51.997
2.84036
-0.25764
13.1209
26.9564
30.1755
24.3037
31.4197
29.1768
24.3426
18.6965
18.7564
13.4171
27.7002
40.2835
52.1126
78.3586
88.8606
150.241
93.0868
173.021
96.6776
48.5102
2.86803
-0.190712
12.9787
26.955
30.1101
24.4451
31.2644
29.181
24.2422
18.7347
18.902
13.716
28.3808
41.2721
53.0669
78.6292
89.038
148.662
91.6439
170.285
91.7066
45.0942
2.89676
-0.118329
12.8298
26.9525
30.0396
24.5935
31.1045
29.1787
24.1488
18.7704
18.9961
13.9619
28.9716
42.1613
53.9446
78.8212
89.1797
147.02
90.2109
167.442
86.8701
41.5984
2.92648
-0.0410633
12.6732
26.9482
29.9658
24.7494
30.9402
29.1768
24.0653
18.8227
19.0732
14.1855
29.4956
42.9535
54.7233
78.9279
89.2587
145.271
88.7628
164.358
82.0518
38.1514
2.95731
0.0419637
12.5099
26.9422
29.8866
24.9114
30.7699
29.1756
23.9833
18.8692
19.1069
14.3554
29.9267
43.6374
55.4057
78.9513
89.2953
143.452
87.3379
161.171
77.3825
34.6199
2.98917
0.130276
12.3387
26.934
29.8039
25.0803
30.5949
29.1798
23.9056
18.9199
19.1285
14.4974
30.2808
44.2265
55.9795
78.8807
89.2561
141.519
85.9124
157.745
72.7496
31.1332
3.02218
0.224864
12.1609
26.9234
29.7154
25.2544
30.4137
29.188
23.8268
18.9588
19.1237
14.5929
30.5436
44.7108
56.4535
78.7307
89.1643
139.515
84.5261
154.223
68.2791
27.5636
3.05626
0.32517
11.9753
26.9099
29.6231
25.4345
30.2287
29.2024
23.7503
18.9939
19.1158
14.6658
30.7249
45.1047
56.8296
78.4924
88.9858
137.4
83.1555
150.462
63.8545
24.0249
3.09155
0.432132
11.7834
26.8934
29.5249
25.6187
30.0385
29.2201
23.6715
19.0167
19.0938
14.7126
30.8197
45.3975
57.1189
78.1907
88.7556
135.232
81.8435
146.612
59.6093
20.4035
3.12793
0.545189
11.5841
26.8733
29.4227
25.8075
29.846
29.2425
23.5936
19.0353
19.0686
14.7542
30.8373
45.5996
57.321
77.8101
88.4485
132.976
80.5632
142.526
55.4302
16.817
3.16555
0.665303
11.3789
26.8496
29.3144
25.9991
29.6497
29.2658
23.5114
19.0454
19.0295
14.7917
30.7854
45.7067
57.4432
77.3714
88.1063
130.688
79.3496
138.361
51.4477
13.1577
3.20431
0.791702
11.1667
26.8215
29.2021
26.1939
29.4527
29.2917
23.4287
19.0526
18.9794
14.8344
30.6789
45.7299
57.4805
76.852
87.6987
128.32
78.1684
133.972
47.5448
9.52493
3.24434
0.925265
10.9497
26.7892
29.0835
26.3897
29.2532
29.3161
23.341
19.0518
18.9105
14.8796
30.5338
45.6784
57.4451
76.2729
87.2588
125.908
77.0538
129.519
43.859
5.8158
3.28554
1.06518
10.7263
26.7518
28.9609
26.5873
29.0543
29.3403
23.2547
19.0454
18.823
14.9267
30.3637
45.5646
57.3336
75.6155
86.7469
123.392
75.9727
124.862
40.2768
2.13544
3.32802
1.21242
10.4992
26.7096
28.832
26.7843
28.854
29.3601
23.1657
19.028
18.713
14.9718
30.1829
45.404
57.1663
74.9053
86.19
120.809
74.9594
120.164
36.9337
-1.61068
3.3717
1.36579
10.2668
26.6615
28.6993
26.9813
28.6558
29.3768
23.0823
19.0017
18.5803
15.0112
29.9982
45.2044
56.9384
74.1269
85.5465
118.113
73.9889
115.296
33.7135
-5.32762
3.41669
1.52614
10.0321
26.6081
28.5606
27.1757
28.4569
29.3862
22.999
18.9623
18.4248
15.0447
29.8198
44.9826
56.6714
73.3036
84.8416
115.353
73.1003
110.418
30.7513
-9.11513
3.46291
1.69217
9.79352
26.5482
28.4185
27.3683
28.2613
29.3902
22.9241
18.9124
18.2474
15.0715
29.6479
44.7393
56.359
72.4178
84.0331
112.491
72.2684
105.411
27.9299
-12.8648
3.51041
1.86484
9.55435
26.4823
28.2707
27.5564
28.0658
29.3845
22.8497
18.847
18.0507
15.0974
29.4896
44.4895
56.0262
71.4931
83.1406
109.571
71.5063
100.431
25.3707
-16.6591
3.55919
2.04237
9.31285
26.4094
28.1201
27.7409
27.8746
29.3712
22.7843
18.7666
17.8356
15.1267
29.341
44.2278
55.6638
70.5226
82.122
106.554
70.7698
95.37
22.9468
-20.3797
3.60927
2.22563
9.07276
26.3301
27.9644
27.9185
27.6842
29.3459
22.7154
18.6612
17.6112
15.1716
29.2084
43.9675
55.2928
69.5386
81.0022
103.478
70.041
90.372
20.7605
-24.109
3.66062
2.41276
8.83209
26.2432
27.8066
28.0905
27.4991
29.3112
22.6495
18.5209
17.3903
15.237
29.0875
43.6952
54.8943
68.5333
79.7564
100.316
69.2614
85.3416
18.6771
-27.7029
3.71324
2.60473
8.59506
26.1494
27.6446
28.2536
27.3149
29.2624
22.5713
18.3191
17.198
15.3333
28.9844
43.4198
54.4803
67.5193
78.4191
97.115
68.382
80.4098
16.7815
-31.2242
3.76719
2.7992
8.35941
26.0476
27.4813
28.4091
27.1369
29.2024
22.4903
18.0826
17.042
15.4557
28.8904
43.1223
54.0199
66.468
76.9652
93.8552
67.3451
75.4871
14.9375
-34.5102
3.82241
2.99706
8.12974
25.9385
27.3148
28.5533
26.9598
29.1267
22.3942
17.8343
16.921
15.6048
28.8051
42.8103
53.5221
65.3769
75.4173
90.5576
66.1114
70.6833
13.194
-37.6419
3.87894
3.19591
7.9035
25.8211
27.1481
28.688
26.7895
29.0388
22.2946
17.5844
16.8209
15.767
28.7151
42.4583
52.9543
64.2158
73.7469
87.1872
64.6648
65.9051
11.3871
-40.4469
3.9367
3.39675
7.68568
25.696
26.9792
28.8092
26.6198
28.9337
22.1779
17.3326
16.7391
15.9402
28.6194
42.0758
52.3337
62.99
71.9788
83.7619
62.9852
61.2455
9.52979
-43.037
3.99583
3.59684
7.47334
25.5622
26.8112
28.9187
26.4571
28.8155
22.0558
17.0845
16.6681
16.1132
28.5055
41.6422
51.6307
61.6843
70.0948
80.2718
61.0861
56.6086
7.49474
-45.2643
4.05616
3.79714
7.27176
25.4207
26.6424
29.0125
26.2944