/*--------------------------------*- C++ -*----------------------------------*\
| =========                 |                                                 |
| \\      /  F ield         | OpenFOAM: The Open Source CFD Toolbox           |
|  \\    /   O peration     | Version:  v1912                                 |
|   \\  /    A nd           | Website:  www.openfoam.com                      |
|    \\/     M anipulation  |                                                 |
\*---------------------------------------------------------------------------*/
FoamFile
{
    version     2.0;
    format      ascii;
    class       surfaceScalarField;
    location    "10";
    object      phi;
}
// * * * * * * * * * * * * * * * * * * * * * * * * * * * * * * * * * * * * * //

dimensions      [0 3 -1 0 0 0 0];
oriented        oriented;


internalField   nonuniform List<scalar> 
24588
(
7.12833e-05
-3.87038e-06
7.41383e-05
-1.03079e-05
7.4708e-05
-4.01304e-07
7.33337e-05
7.8756e-07
7.45841e-05
1.02019e-06
7.28276e-05
-9.26344e-07
7.33541e-05
2.44141e-06
7.12421e-05
1.31154e-06
6.93523e-05
4.68802e-06
6.81489e-05
3.13048e-06
6.74671e-05
2.54828e-07
6.67002e-05
-2.3647e-07
6.87773e-05
-5.64194e-07
6.8732e-05
-1.43527e-06
6.58253e-05
1.31634e-06
6.19818e-05
4.98533e-06
5.35494e-05
7.64292e-06
5.20076e-05
2.28856e-06
4.62413e-05
6.25774e-06
3.64877e-05
9.93431e-06
2.7128e-05
8.78386e-06
2.72793e-05
7.1385e-05
-7.83802e-06
7.44832e-05
-2.16113e-05
7.52348e-05
-8.39367e-07
7.39034e-05
1.45456e-06
7.5286e-05
2.51234e-06
7.33355e-05
-2.02224e-06
7.37377e-05
5.64435e-06
7.15441e-05
2.68442e-06
6.89993e-05
1.04641e-05
6.75623e-05
6.88487e-06
6.59484e-05
1.40078e-06
6.53757e-05
-7.94679e-07
6.84278e-05
-1.74007e-06
6.71641e-05
-1.64213e-06
6.35532e-05
2.89137e-06
6.46195e-05
5.38634e-06
5.66593e-05
1.42062e-05
4.95014e-05
1.07159e-05
5.17918e-05
4.74758e-06
2.8247e-05
3.40232e-05
2.99319e-05
6.09998e-06
5.73774e-05
7.07842e-05
-1.10046e-05
7.30861e-05
-3.02282e-05
7.37552e-05
-1.3341e-06
7.2605e-05
1.83097e-06
7.41389e-05
3.69656e-06
7.23648e-05
-3.15042e-06
7.30049e-05
8.33042e-06
7.11891e-05
3.54617e-06
6.90393e-05
1.5607e-05
6.79359e-05
1.00359e-05
6.64726e-05
2.32952e-06
6.58856e-05
-1.3565e-06
6.91885e-05
-3.0754e-06
6.81076e-05
-2.64184e-06
6.40675e-05
4.33069e-06
6.49575e-05
6.42854e-06
5.71167e-05
2.07869e-05
5.03701e-05
1.86117e-05
5.23525e-05
3.90241e-06
2.87901e-05
5.76038e-05
2.85216e-05
5.33257e-06
8.62384e-05
7.08827e-05
-1.42143e-05
7.3189e-05
-3.97631e-05
7.36944e-05
-1.51014e-06
7.23744e-05
2.52351e-06
7.37726e-05
5.22268e-06
7.19223e-05
-4.25457e-06
7.22915e-05
1.15434e-05
7.03131e-05
4.76529e-06
6.81511e-05
2.08911e-05
6.70884e-05
1.32923e-05
6.5665e-05
3.28813e-06
6.51017e-05
-1.90028e-06
6.82371e-05
-4.26681e-06
6.70896e-05
-2.92922e-06
6.3386e-05
5.94618e-06
6.48512e-05
6.49166e-06
5.73732e-05
2.69499e-05
5.10781e-05
2.59235e-05
5.29697e-05
2.90107e-06
2.94397e-05
8.14464e-05
2.74996e-05
6.30562e-06
0.000113922
7.03567e-05
-1.67897e-05
7.21107e-05
-4.67645e-05
7.26304e-05
-1.93099e-06
7.14388e-05
2.93884e-06
7.29118e-05
6.47101e-06
7.11532e-05
-5.26211e-06
7.17211e-05
1.42141e-05
6.99684e-05
5.57797e-06
6.79706e-05
2.5768e-05
6.70994e-05
1.60466e-05
6.5723e-05
4.0922e-06
6.5146e-05
-2.43878e-06
6.86079e-05
-5.73231e-06
6.77001e-05
-4.21956e-06
6.33668e-05
7.48047e-06
6.45585e-05
7.37769e-06
5.75656e-05
3.27952e-05
5.16714e-05
3.27559e-05
5.33827e-05
2.47452e-06
3.00771e-05
0.000104617
2.68036e-05
8.56378e-06
0.000141069
7.05362e-05
-1.94884e-05
7.23477e-05
-5.5221e-05
7.27039e-05
-1.94697e-06
7.13316e-05
3.71968e-06
7.26587e-05
8.14523e-06
7.08046e-05
-6.27412e-06
7.1052e-05
1.75542e-05
6.9099e-05
6.83246e-06
6.70347e-05
3.09087e-05
6.61259e-05
1.90577e-05
6.47502e-05
4.99296e-06
6.42816e-05
-3.04319e-06
6.74838e-05
-6.98701e-06
6.62382e-05
-4.29993e-06
6.21875e-05
9.47746e-06
6.40575e-05
7.1263e-06
5.76205e-05
3.79851e-05
5.21219e-05
3.90067e-05
5.33166e-05
2.0435e-06
3.07313e-05
0.000127402
2.63216e-05
1.20244e-05
0.000167572
7.00264e-05
-2.16105e-05
7.1379e-05
-6.09275e-05
7.18244e-05
-2.3516e-06
7.0613e-05
4.13257e-06
7.20098e-05
9.50083e-06
7.02286e-05
-7.12216e-06
7.0725e-05
2.02399e-05
6.89942e-05
7.61129e-06
6.70008e-05
3.57085e-05
6.62143e-05
2.1576e-05
6.48501e-05
5.76023e-06
6.4314e-05
-3.59003e-06
6.7798e-05
-8.47802e-06
6.67604e-05
-5.60359e-06
6.23213e-05
1.11645e-05
6.3746e-05
7.89334e-06
5.76439e-05
4.31238e-05
5.24541e-05
4.4923e-05
5.29049e-05
2.6909e-06
3.12503e-05
0.000148855
2.59118e-05
1.63475e-05
0.000193833
7.02834e-05
-2.39437e-05
7.1765e-05
-6.86324e-05
7.20352e-05
-2.27311e-06
7.06271e-05
4.97974e-06
7.18756e-05
1.13267e-05
7.0006e-05
-8.02753e-06
7.01346e-05
2.36947e-05
6.82051e-05
8.90166e-06
6.61855e-05
4.0766e-05
6.5372e-05
2.44068e-05
6.40507e-05
6.59945e-06
6.36311e-05
-4.19888e-06
6.67137e-05
-9.67872e-06
6.52571e-05
-5.34425e-06
6.16989e-05
1.29444e-05
6.33987e-05
7.6917e-06
5.75886e-05
4.79065e-05
5.26017e-05
5.03856e-05
5.21747e-05
3.60468e-06
3.16762e-05
0.000169512
2.54972e-05
2.15963e-05
0.000219495
6.97913e-05
-2.57565e-05
7.0896e-05
-7.34782e-05
7.13098e-05
-2.74055e-06
7.00998e-05
5.37994e-06
7.14163e-05
1.27705e-05
6.96115e-05
-8.72547e-06
7.0036e-05
2.63686e-05
6.8319e-05
9.67935e-06
6.62963e-05
4.55076e-05
6.55747e-05
2.67323e-05
6.42619e-05
7.29077e-06
6.36198e-05
-4.59654e-06
6.66653e-05
-1.07483e-05
6.55168e-05
-6.51553e-06
6.22871e-05
1.37682e-05
6.31373e-05
8.68964e-06
5.74558e-05
5.29399e-05
5.25555e-05
5.57915e-05
5.12986e-05
5.74789e-06
3.19717e-05
0.000188627
2.49771e-05
2.76314e-05
0.000244805
7.00746e-05
-2.77877e-05
7.1292e-05
-8.06167e-05
7.14982e-05
-2.60224e-06
7.00791e-05
6.26659e-06
7.12494e-05
1.47245e-05
6.93862e-05
-9.54571e-06
6.94442e-05
2.98627e-05
6.75685e-05
1.09835e-05
6.5592e-05
5.04677e-05
6.48751e-05
2.93888e-05
6.35993e-05
8.08858e-06
6.30774e-05
-5.04449e-06
6.5661e-05
-1.15579e-05
6.43824e-05
-6.20064e-06
6.22984e-05
1.46787e-05
6.27617e-05
9.27557e-06
5.72118e-05
5.77421e-05
5.22986e-05
6.09682e-05
5.02766e-05
8.0363e-06
3.22201e-05
0.000206838
2.43645e-05
3.46456e-05
0.000269295
6.95854e-05
-2.93303e-05
7.04827e-05
-8.46595e-05
7.08845e-05
-3.14099e-06
6.96817e-05
6.63774e-06
7.09047e-05
1.62542e-05
6.90831e-05
-1.00932e-05
6.94847e-05
3.24631e-05
6.78308e-05
1.16931e-05
6.58106e-05
5.51089e-05
6.51562e-05
3.15273e-05
6.38637e-05
8.77318e-06
6.33528e-05
-5.49571e-06
6.58678e-05
-1.22276e-05
6.49228e-05
-7.23624e-06
6.29867e-05
1.48248e-05
6.23482e-05
1.12527e-05
5.68237e-05
6.28658e-05
5.18628e-05
6.62945e-05
4.92054e-05
1.14031e-05
3.23186e-05
0.000223516
2.36878e-05
4.24296e-05
0.000293308
6.99074e-05
-3.11254e-05
7.09386e-05
-9.13553e-05
7.11083e-05
-2.97808e-06
6.96791e-05
7.55965e-06
7.07576e-05
1.83257e-05
6.8898e-05
-1.08182e-05
6.89129e-05
3.59449e-05
6.71232e-05
1.29793e-05
6.52153e-05
5.99287e-05
6.45379e-05
3.40579e-05
6.31497e-05
9.7157e-06
6.31195e-05
-6.27849e-06
6.57418e-05
-1.3421e-05
6.48699e-05
-6.8753e-06
6.32955e-05
1.57931e-05
6.18435e-05
1.33259e-05
5.6321e-05
6.78478e-05
5.12994e-05
7.14545e-05
4.80784e-05
1.47395e-05
3.23447e-05
0.00023941
2.29966e-05
5.10464e-05
0.000316385
6.94243e-05
-3.24658e-05
7.01853e-05
-9.48307e-05
7.05877e-05
-3.6355e-06
6.94002e-05
7.90443e-06
7.05289e-05
1.99054e-05
6.87072e-05
-1.12349e-05
6.91028e-05
3.84148e-05
6.75111e-05
1.36493e-05
6.54897e-05
6.44432e-05
6.47837e-05
3.61339e-05
6.35019e-05
1.0408e-05
6.37944e-05
-7.2918e-06
6.62356e-05
-1.4502e-05
6.5455e-05
-7.51227e-06
6.36272e-05
1.62634e-05
6.11489e-05
1.67249e-05
5.56875e-05
7.30753e-05
5.06614e-05
7.67559e-05
4.69649e-05
1.90553e-05
3.22726e-05
0.000253906
2.22886e-05
6.02977e-05
0.000338981
6.97544e-05
-3.40445e-05
7.06177e-05
-0.000101152
7.07519e-05
-3.46496e-06
6.93285e-05
8.84432e-06
7.0328e-05
2.20572e-05
6.85085e-05
-1.1896e-05
6.85295e-05
4.18094e-05
6.68377e-05
1.49118e-05
6.49678e-05
6.91322e-05
6.41025e-05
3.87524e-05
6.30173e-05
1.11038e-05
6.40897e-05
-8.86117e-06
6.64604e-05
-1.60107e-05
6.54735e-05
-6.65885e-06
6.35244e-05
1.79912e-05
6.03171e-05
2.02666e-05
5.49952e-05
7.79894e-05
5.00109e-05
8.1804e-05
4.58646e-05
2.32169e-05
3.21846e-05
0.000267757
2.16062e-05
7.02503e-05
0.000360621
6.92724e-05
-3.51931e-05
6.99075e-05
-0.00010404
7.03146e-05
-4.23366e-06
6.91409e-05
9.16121e-06
7.01813e-05
2.36733e-05
6.83811e-05
-1.21977e-05
6.88076e-05
4.41101e-05
6.73035e-05
1.54889e-05
6.52702e-05
7.3521e-05
6.4365e-05
4.08903e-05
6.35393e-05
1.13993e-05
6.48223e-05
-1.06005e-05
6.67272e-05
-1.70586e-05
6.55436e-05
-6.5705e-06
6.32423e-05
1.92897e-05
5.9333e-05
2.4867e-05
5.42742e-05
8.29069e-05
4.93897e-05
8.69123e-05
4.48285e-05
2.83154e-05
3.20622e-05
0.00028033
2.09364e-05
8.07481e-05
0.000381864
6.96266e-05
-3.65948e-05
7.03676e-05
-0.000110045
7.04807e-05
-4.07972e-06
6.90647e-05
1.01134e-05
6.99909e-05
2.58847e-05
6.82082e-05
-1.27844e-05
6.82345e-05
4.74053e-05
6.66312e-05
1.67385e-05
6.4746e-05
7.81159e-05
6.38066e-05
4.34742e-05
6.3496e-05
1.14234e-05
6.52693e-05
-1.2615e-05
6.67319e-05
-1.8058e-05
6.51535e-05
-4.89335e-06
6.26486e-05
2.18052e-05
5.83075e-05
2.93701e-05
5.36042e-05
8.72867e-05
4.88397e-05
9.1693e-05
4.38569e-05
3.32405e-05
3.19734e-05
0.000292394
2.03191e-05
9.18757e-05
0.000402177
6.91485e-05
-3.75935e-05
6.96964e-05
-0.000112502
7.01098e-05
-4.98713e-06
6.89643e-05
1.03943e-05
6.99339e-05
2.74957e-05
6.81689e-05
-1.29873e-05
6.86039e-05
4.95274e-05
6.71352e-05
1.73048e-05
6.50282e-05
8.24063e-05
6.4183e-05
4.54542e-05
6.41491e-05
1.10076e-05
6.57467e-05
-1.44926e-05
6.66044e-05
-1.83566e-05
6.47163e-05
-3.83305e-06
6.19403e-05
2.37339e-05
5.72674e-05
3.45762e-05
5.30178e-05
9.14791e-05
4.83739e-05
9.65193e-05
4.29852e-05
3.91206e-05
3.18978e-05
0.000303292
1.97393e-05
0.000103493
0.000422215
6.95058e-05
-3.88284e-05
7.01322e-05
-0.00011823
7.02238e-05
-4.86595e-06
6.8835e-05
1.13343e-05
6.97088e-05
2.97312e-05
6.79905e-05
-1.35228e-05
6.80246e-05
5.27062e-05
6.64571e-05
1.86055e-05
6.45355e-05
8.69034e-05
6.39207e-05
4.76377e-05
6.44496e-05
1.03394e-05
6.60101e-05
-1.61437e-05
6.62576e-05
-1.83719e-05
6.39951e-05
-1.33193e-06
6.10919e-05
2.67811e-05
5.63204e-05
3.93979e-05
5.25684e-05
9.49709e-05
4.80031e-05
0.000101071
4.22109e-05
4.48072e-05
3.18912e-05
0.0003138
1.92318e-05
0.000115714
0.000441404
6.903e-05
-3.96822e-05
6.94976e-05
-0.000120238
6.99211e-05
-5.90405e-06
6.88022e-05
1.15813e-05
6.97109e-05
3.133e-05
6.79978e-05
-1.36455e-05
6.84379e-05
5.46629e-05
6.69734e-05
1.91804e-05
6.48688e-05
9.10183e-05
6.44153e-05
4.9085e-05
6.50572e-05
9.3775e-06
6.61441e-05
-1.74236e-05
6.57961e-05
-1.76523e-05
6.32806e-05
4.57426e-07
6.02509e-05
2.91075e-05
5.54923e-05
4.46175e-05
5.22624e-05
9.81998e-05
4.77148e-05
0.000105773
4.15566e-05
5.14062e-05
3.1933e-05
0.000323229
1.87793e-05
0.000128403
0.000460486
6.9403e-05
-4.0778e-05
6.99468e-05
-0.000125725
7.00282e-05
-5.83628e-06
6.86661e-05
1.25053e-05
6.94907e-05
3.35797e-05
6.78276e-05
-1.41177e-05
6.78429e-05
5.77501e-05
6.62892e-05
2.05538e-05
6.44998e-05
9.52518e-05
6.44368e-05
5.05918e-05
6.53849e-05
8.41711e-06
6.60949e-05
-1.81452e-05
6.51999e-05
-1.66559e-05
6.24461e-05
3.52883e-06
5.94196e-05
3.2376e-05
5.48478e-05
4.9159e-05
5.21067e-05
0.000100734
4.75011e-05
0.000110349
4.10169e-05
5.775e-05
3.20659e-05
0.00033237
1.84127e-05
0.000141697
0.000478826
6.89311e-05
-4.15166e-05
6.93422e-05
-0.000127399
6.97748e-05
-7.01891e-06
6.86938e-05
1.27091e-05
6.95568e-05
3.51403e-05
6.78924e-05
-1.41602e-05
6.82965e-05
5.95644e-05
6.68191e-05
2.11766e-05
6.48789e-05
9.90515e-05
6.4939e-05
5.13352e-05
6.57635e-05
7.33907e-06
6.59124e-05
-1.84311e-05
6.45693e-05
-1.5036e-05
6.16947e-05
5.78419e-06
5.86936e-05
3.47169e-05
5.43707e-05
5.38638e-05
5.20684e-05
0.000103088
4.73429e-05
0.000115207
4.06035e-05
6.48976e-05
3.22667e-05
0.00034051
1.81138e-05
0.000155443
0.000497239
6.93032e-05
-4.24795e-05
6.97687e-05
-0.00013267
6.98401e-05
-7.01744e-06
6.85214e-05
1.35961e-05
6.93158e-05
3.73769e-05
6.77125e-05
-1.45728e-05
6.76952e-05
6.2565e-05
6.61575e-05
2.26199e-05
6.46544e-05
0.000102893
6.50794e-05
5.21427e-05
6.5915e-05
6.5716e-06
6.56196e-05
-1.81091e-05
6.39047e-05
-1.32932e-05
6.0941e-05
9.12257e-06
5.80629e-05
3.791e-05
5.40646e-05
5.77681e-05
5.2119e-05
0.000104869
4.72318e-05
0.000120058
4.03072e-05
7.16607e-05
3.25625e-05
0.000348441
1.79087e-05
0.000169804
0.000515048
6.88351e-05
-4.31054e-05
6.91945e-05
-0.000133986
6.96384e-05
-8.33375e-06
6.85933e-05
1.37655e-05
6.94217e-05
3.88953e-05
6.78033e-05
-1.45422e-05
6.81775e-05
6.42477e-05
6.67279e-05
2.32149e-05
6.50879e-05
0.000106276
6.54914e-05
5.22324e-05
6.60182e-05
5.85553e-06
6.52598e-05
-1.74657e-05
6.32777e-05
-1.11008e-05
6.03183e-05
1.14841e-05
5.7574e-05
4.00733e-05
5.3884e-05
6.17958e-05
5.2218e-05
0.000106606
4.71541e-05
0.000125239
4.01286e-05
7.90621e-05
3.29249e-05
0.000355443
1.77752e-05
0.000184598
0.000533132
6.92175e-05
-4.39563e-05
6.96268e-05
-0.000139065
6.96956e-05
-8.41025e-06
6.84189e-05
1.46134e-05
6.91846e-05
4.11146e-05
6.76165e-05
-1.48716e-05
6.75538e-05
6.71753e-05
6.6093e-05
2.46567e-05
6.49898e-05
0.000109623
6.56143e-05
5.25866e-05
6.59607e-05
5.61696e-06
6.48672e-05
-1.63288e-05
6.26832e-05
-8.93484e-06
5.97547e-05
1.48195e-05
5.71942e-05
4.30016e-05
5.38071e-05
6.50487e-05
5.23417e-05
0.000107934
4.71062e-05
0.000130435
4.0054e-05
8.5937e-05
3.33652e-05
0.000362312
1.77341e-05
0.000199993
0.000550745
6.87536e-05
-4.44915e-05
6.90734e-05
-0.000140111
6.95249e-05
-9.85573e-06
6.8527e-05
1.47356e-05
6.93325e-05
4.25727e-05
6.77462e-05
-1.47571e-05
6.80613e-05
6.87293e-05
6.66915e-05
2.51889e-05
6.54378e-05
0.000112489
6.58759e-05
5.2386e-05
6.58533e-05
5.46778e-06
6.44713e-05
-1.50437e-05
6.21647e-05
-6.45363e-06
5.93239e-05
1.71141e-05
5.69286e-05
4.48497e-05
5.3792e-05
6.84685e-05
5.24683e-05
0.00010934
4.70804e-05
0.000135928
4.00743e-05
9.32963e-05
3.38519e-05
0.000368334
1.77594e-05
0.000215764
0.000568814
6.91339e-05
-4.52343e-05
6.94894e-05
-0.000145017
6.95583e-05
-1.00192e-05
6.83358e-05
1.55273e-05
6.90817e-05
4.4761e-05
6.75438e-05
-1.49996e-05
6.74218e-05
7.15933e-05
6.60879e-05
2.65744e-05
6.54256e-05
0.000115284
6.59346e-05
5.2625e-05
6.56595e-05
5.86245e-06
6.40948e-05
-1.34271e-05
6.17085e-05
-4.1121e-06
5.89606e-05
2.02867e-05
5.67369e-05
4.74591e-05
5.38205e-05
7.12282e-05
5.25894e-05
0.000110455
4.70763e-05
0.000141401
4.0172e-05
0.000100014
3.43874e-05
0.00037429
1.78687e-05
0.000232092
0.000586542
6.86734e-05
-4.56773e-05
6.89549e-05
-0.000145779
6.94163e-05
-1.15814e-05
6.8461e-05
1.56177e-05
6.92508e-05
4.61604e-05
6.7693e-05
-1.48153e-05
6.79524e-05
7.30406e-05
6.67173e-05
2.69618e-05
6.58496e-05
0.000117628
6.60578e-05
5.24201e-05
6.54497e-05
6.32046e-06
6.375e-05
-1.18163e-05
6.13319e-05
-1.54804e-06
5.86983e-05
2.23973e-05
5.66123e-05
4.90543e-05
5.38679e-05
7.42236e-05
5.26973e-05
0.000111708
4.70889e-05
0.000147104
4.03336e-05
0.000107103
3.49413e-05
0.000379483
1.80352e-05
0.000248708
0.000604899
6.90584e-05
-4.63218e-05
6.93692e-05
-0.000150519
6.94421e-05
-1.18368e-05
6.82703e-05
1.6355e-05
6.89929e-05
4.83222e-05
6.74686e-05
-1.49583e-05
6.72869e-05
7.58482e-05
6.6137e-05
2.82179e-05
6.58588e-05
0.000119899
6.60406e-05
5.28072e-05
6.52107e-05
7.27184e-06
6.3445e-05
-9.99601e-06
6.10154e-05
8.20714e-07
5.84848e-05
2.5347e-05
5.65258e-05
5.13982e-05
5.39261e-05
7.66627e-05
5.27918e-05
0.000112739
4.71189e-05
0.000152737
4.0543e-05
0.000113486
3.55153e-05
0.000384674
1.82738e-05
0.000265798
0.000623018
6.86024e-05
-4.66847e-05
6.8846e-05
-0.000151047
6.93114e-05
-1.34999e-05
6.84058e-05
1.64022e-05
6.9188e-05
4.96552e-05
6.76489e-05
-1.46972e-05
6.78319e-05
7.7189e-05
6.67661e-05
2.84359e-05
6.62076e-05
0.000121747
6.60487e-05
5.28559e-05
6.4984e-05
8.19296e-06
6.31804e-05
-8.27235e-06
6.07627e-05
3.36641e-06
5.83355e-05
2.72929e-05
5.64722e-05
5.28116e-05
5.39837e-05
7.9372e-05
5.28715e-05
0.000113932
4.71624e-05
0.000158533
4.07878e-05
0.000120179
3.60837e-05
0.000389184
1.8559e-05
0.000283051
0.000641904
6.89821e-05
-4.72292e-05
6.92441e-05
-0.000155626
6.93186e-05
-1.3845e-05
6.82045e-05
1.70758e-05
6.89151e-05
5.17766e-05
6.74022e-05
-1.47409e-05
6.7153e-05
7.99509e-05
6.62112e-05
2.9532e-05
6.61972e-05
0.000123564
6.59723e-05
5.35314e-05
6.47606e-05
9.52097e-06
6.29553e-05
-6.41128e-06
6.05554e-05
5.69863e-06
5.82143e-05
3.00411e-05
5.64346e-05
5.49566e-05
5.40389e-05
8.16091e-05
5.29386e-05
0.000114939
4.72203e-05
0.000164212
4.10567e-05
0.000126145
3.66524e-05
0.000393746
1.89052e-05
0.000300678
0.000660642
6.85311e-05
-4.75065e-05
6.87369e-05
-0.0001559
6.92054e-05
-1.55986e-05
6.83398e-05
1.71066e-05
6.91212e-05
5.30481e-05
6.76042e-05
-1.4429e-05
6.77346e-05
8.11856e-05
6.68541e-05
2.95179e-05
6.64653e-05
0.000125026
6.59123e-05
5.3895e-05
6.45631e-05
1.07363e-05
6.27651e-05
-4.6883e-06
6.03924e-05
8.18559e-06
5.81307e-05
3.1852e-05
5.64116e-05
5.62631e-05
5.40871e-05
8.41316e-05
5.29932e-05
0.00011611
4.72889e-05
0.000169996
4.13409e-05
0.000132403
3.72019e-05
0.000397694
1.9289e-05
0.000318338
0.000680271
6.89134e-05
-4.7959e-05
6.91297e-05
-0.000160309
6.92037e-05
-1.60308e-05
6.81396e-05
1.77253e-05
6.88336e-05
5.51361e-05
6.73238e-05
-1.43722e-05
6.70349e-05
8.38862e-05
6.63174e-05
3.04167e-05
6.64312e-05
0.000126475
6.58089e-05
5.48862e-05
6.43816e-05
1.22744e-05
6.26059e-05
-2.85734e-06
6.02597e-05
1.04613e-05
5.80609e-05
3.44405e-05
5.63939e-05
5.82742e-05
5.41292e-05
8.6244e-05
5.30377e-05
0.000117117
4.73692e-05
0.000175624
4.16343e-05
0.00013794
3.77427e-05
0.000401738
1.97246e-05
0.000336264
0.00069982
6.84676e-05
-4.81601e-05
6.86258e-05
-0.000160359
6.90868e-05
-1.7847e-05
6.82681e-05
1.77249e-05
6.90569e-05
5.63328e-05
6.75566e-05
-1.40054e-05
6.76035e-05
8.50412e-05
6.68913e-05
3.02561e-05
6.66131e-05
0.000127531
6.57238e-05
5.55679e-05
6.42277e-05
1.3642e-05
6.24722e-05
-1.1724e-06
6.0156e-05
1.28826e-05
5.80129e-05
3.61552e-05
5.63821e-05
5.95256e-05
5.41632e-05
8.86484e-05
5.30723e-05
0.000118279
4.74575e-05
0.000181314
4.19315e-05
0.000143765
3.826e-05
0.000405222
2.01913e-05
0.000354089
0.00072036
6.88422e-05
-4.85144e-05
6.9005e-05
-0.000164597
6.90772e-05
-1.83617e-05
6.80658e-05
1.82824e-05
6.87525e-05
5.83838e-05
6.72534e-05
-1.3861e-05
6.69252e-05
8.76804e-05
6.6393e-05
3.0985e-05
6.65643e-05
0.000128648
6.56225e-05
5.68283e-05
6.40909e-05
1.52772e-05
6.23598e-05
6.13894e-07
6.00709e-05
1.51011e-05
5.79702e-05
3.86339e-05
5.63709e-05
6.14484e-05
5.41905e-05
9.06816e-05
5.30987e-05
0.000119291
4.75544e-05
0.000186818
4.22302e-05
0.000148894
3.87682e-05
0.000408835
2.07039e-05
0.000372083
0.000740886
6.84015e-05
-4.86361e-05
6.85123e-05
-0.000164403
6.89685e-05
-2.02451e-05
6.81866e-05
1.82753e-05
6.89965e-05
5.95034e-05
6.75139e-05
-1.3473e-05
6.7548e-05
8.87075e-05
6.69713e-05
3.05697e-05
6.66906e-05
0.000129476
6.55424e-05
5.77415e-05
6.39772e-05
1.6724e-05
6.2264e-05
2.25633e-06
6.00044e-05
1.74565e-05
5.79408e-05
4.02727e-05
5.63614e-05
6.26765e-05
5.42099e-05
9.30109e-05
5.31165e-05
0.000120451
4.76562e-05
0.00019235
4.25273e-05
0.000154309
3.92557e-05
0.000411916
2.12441e-05
0.000389864
0.000762498
6.87758e-05
-4.88909e-05
6.88884e-05
-0.000168474
6.89631e-05
-2.08431e-05
6.79947e-05
1.87817e-05
6.86652e-05
6.1537e-05
6.71711e-05
-1.32477e-05
6.68484e-05
9.12476e-05
6.64664e-05
3.11544e-05
6.66361e-05
0.000130327
6.54588e-05
5.92051e-05
6.38763e-05
1.84022e-05
6.21813e-05
4.00594e-06
5.99482e-05
1.96197e-05
5.79118e-05
4.2676e-05
5.635e-05
6.45464e-05
5.42228e-05
9.49966e-05
5.31267e-05
0.000121472
4.7763e-05
0.000197673
4.28228e-05
0.000159055
3.9739e-05
0.000415149
2.18268e-05
0.000407727
0.000784148
6.83381e-05
-4.89245e-05
6.83965e-05
-0.000168059
6.88531e-05
-2.27818e-05
6.81083e-05
1.87555e-05
6.89214e-05
6.26187e-05
6.74657e-05
-1.28436e-05
6.74508e-05
9.21709e-05
6.69508e-05
3.06614e-05
6.67061e-05
0.000130845
6.53951e-05
6.02922e-05
6.37916e-05
1.98884e-05
6.21075e-05
5.62139e-06
5.99033e-05
2.19174e-05
5.78912e-05
4.42758e-05
5.6338e-05
6.57629e-05
5.4228e-05
9.72771e-05
5.31284e-05
0.000122635
4.78709e-05
0.000203
4.31146e-05
0.000164093
4.02083e-05
0.000417867
2.24357e-05
0.000425276
0.000806965
6.87108e-05
-4.90703e-05
6.87667e-05
-0.000171973
6.88435e-05
-2.34608e-05
6.79242e-05
1.92054e-05
6.85789e-05
6.46359e-05
6.71092e-05
-1.25642e-05
6.67705e-05
9.46136e-05
6.6451e-05
3.12614e-05
6.66448e-05
0.000131429
6.53319e-05
6.18772e-05
6.37131e-05
2.15912e-05
6.20396e-05
7.35056e-06
5.98624e-05
2.40267e-05
5.7868e-05
4.66354e-05
5.63224e-05
6.76049e-05
5.42269e-05
9.92357e-05
5.31222e-05
0.000123665
4.79791e-05
0.000208101
4.34041e-05
0.00016847
4.0682e-05
0.000420741
2.30859e-05
0.000442848
0.000829881
6.82734e-05
-4.90133e-05
6.82714e-05
-0.000171333
6.8717e-05
-2.5442e-05
6.80084e-05
1.91832e-05
6.88317e-05
6.56768e-05
6.74011e-05
-1.21612e-05
6.73872e-05
9.54462e-05
6.69065e-05
3.06133e-05
6.66743e-05
0.000131743
6.52841e-05
6.30534e-05
6.36426e-05
2.31121e-05
6.19734e-05
8.95308e-06
5.98271e-05
2.62667e-05
5.78506e-05
4.82168e-05
5.63049e-05
6.88179e-05
5.42191e-05
0.000101479
5.31077e-05
0.000124838
4.80827e-05
0.000213191
4.36896e-05
0.000173144
4.11527e-05
0.000423095
2.37636e-05
0.000460019
0.000854032
6.86448e-05
-4.90478e-05
6.86258e-05
-0.000175083
6.86907e-05
-2.61996e-05
6.78242e-05
1.9581e-05
6.8457e-05
6.76762e-05
6.69885e-05
-1.18057e-05
6.66445e-05
9.77772e-05
6.63521e-05
3.1421e-05
6.66006e-05
0.000132092
6.52343e-05
6.46957e-05
6.35701e-05
2.48546e-05
6.19062e-05
1.06763e-05
5.97908e-05
2.83131e-05
5.7829e-05
5.05593e-05
5.62832e-05
7.06632e-05
5.4207e-05
0.000103418
5.30861e-05
0.000125883
4.818e-05
0.000218053
4.39749e-05
0.000177138
4.16406e-05
0.000425586
2.44844e-05
0.000477178
0.000878356
6.82096e-05
-4.88616e-05
6.8122e-05
-0.000174231
6.85465e-05
-2.81899e-05
6.78925e-05
1.95348e-05
6.87217e-05
6.86573e-05
6.73166e-05
-1.14244e-05
6.72491e-05
9.84896e-05
6.67316e-05
3.08393e-05
6.65876e-05
0.000132066
6.5193e-05
6.58521e-05
6.34961e-05
2.64085e-05
6.18337e-05
1.2263e-05
5.97554e-05
3.05022e-05
5.78129e-05
5.20508e-05
5.62603e-05
7.18214e-05
5.41921e-05
0.000105661
5.30587e-05
0.000127091
4.8264e-05
0.00022292
4.42617e-05
0.000181465
4.21416e-05
0.000427506
2.52344e-05
0.000493858
0.000903998
6.85577e-05
-4.88077e-05
6.85178e-05
-0.000177813
6.86516e-05
-2.91703e-05
6.78271e-05
1.98715e-05
6.83626e-05
7.07015e-05
6.68419e-05
-1.09428e-05
6.66837e-05
0.000100537
6.63504e-05
3.19564e-05
6.6496e-05
0.000132423
6.51424e-05
6.75136e-05
6.34094e-05
2.82282e-05
6.17532e-05
1.39857e-05
5.97144e-05
3.24617e-05
5.77916e-05
5.44008e-05
5.62349e-05
7.37116e-05
5.41798e-05
0.000107564
5.30295e-05
0.000128155
4.83315e-05
0.000227571
4.45634e-05
0.000185004
4.26821e-05
0.000429555
2.60231e-05
0.000510531
0.000929876
6.8112e-05
-4.85837e-05
6.81446e-05
-0.000177021
6.87347e-05
-3.13248e-05
6.80589e-05
1.99152e-05
6.87394e-05
7.17632e-05
6.72482e-05
-1.04244e-05
6.73255e-05
0.000100932
6.66796e-05
3.1579e-05
6.64273e-05
0.000132445
6.50934e-05
6.86065e-05
6.33113e-05
2.98651e-05
6.16612e-05
1.55583e-05
5.96714e-05
3.45624e-05
5.77787e-05
5.58212e-05
5.62131e-05
7.48571e-05
5.41748e-05
0.000109784
5.30028e-05
0.000129405
4.83726e-05
0.000232273
4.48999e-05
0.000188807
4.32634e-05
0.000430997
2.68235e-05
0.000526754
0.000957096
6.84123e-05
-4.85388e-05
6.88695e-05
-0.000181095
6.9475e-05
-3.28595e-05
6.85748e-05
2.02793e-05
6.88601e-05
7.4027e-05
6.72235e-05
-9.80865e-06
6.73351e-05
0.000102595
6.66212e-05
3.31102e-05
6.6309e-05
0.000133153
6.50317e-05
7.01699e-05
6.31952e-05
3.17967e-05
6.15601e-05
1.72593e-05
5.96203e-05
3.64119e-05
5.77644e-05
5.81063e-05
5.61986e-05
7.67778e-05
5.41856e-05
0.000111638
5.29799e-05
0.000130522
4.84016e-05
0.000236808
4.52896e-05
0.000191671
4.39594e-05
0.000432502
2.76671e-05
0.000543088
0.00098461
-1.47454e-05
1.48226e-05
-1.29853e-05
-1.74975e-06
-3.17023e-06
-9.77778e-06
3.98979e-06
-7.16221e-06
7.93692e-06
-3.93035e-06
1.2354e-05
-4.33504e-06
1.66948e-05
-4.2551e-06
2.13895e-05
-4.60579e-06
2.61506e-05
-4.18281e-06
3.20553e-05
-5.68807e-06
3.61428e-05
-6.20854e-06
3.89994e-05
-6.1105e-07
4.31349e-05
-3.78586e-06
4.69863e-05
-4.27068e-06
5.04135e-05
-3.63609e-06
5.35756e-05
-3.36362e-06
5.63886e-05
-2.98592e-06
5.87873e-05
-2.48338e-06
6.06659e-05
-1.93343e-06
6.20306e-05
-1.41401e-06
6.31651e-05
-1.11314e-06
6.41761e-05
-1.05882e-06
6.49265e-05
-7.50465e-07
6.53762e-05
-4.63002e-07
6.57639e-05
-3.87451e-07
6.61109e-05
-3.52209e-07
6.64216e-05
-3.16368e-07
6.67126e-05
-2.88389e-07
6.6969e-05
-2.97874e-07
6.71771e-05
-1.84383e-07
6.73256e-05
-1.34115e-07
6.74396e-05
-1.31338e-07
6.7548e-05
-8.40639e-08
6.76277e-05
-9.80277e-08
-1.53929e-08
-1.42637e-05
2.92144e-05
-1.19999e-05
-4.00462e-06
-3.24734e-06
-1.84724e-05
2.97533e-06
-1.33872e-05
8.63017e-06
-9.55017e-06
1.05101e-05
-6.10446e-06
1.50834e-05
-8.69334e-06
1.97745e-05
-9.14129e-06
2.40645e-05
-7.5055e-06
2.97269e-05
-1.10043e-05
3.47322e-05
-1.46338e-05
3.60899e-05
1.73344e-06
3.98026e-05
-6.9027e-06
4.41197e-05
-9.35071e-06
4.81895e-05
-8.10072e-06
5.17625e-05
-7.34434e-06
5.50671e-05
-6.64177e-06
5.78579e-05
-5.45194e-06
6.00099e-05
-4.18398e-06
6.16472e-05
-3.14981e-06
6.28526e-05
-2.27666e-06
6.39694e-05
-2.26685e-06
6.47617e-05
-1.54222e-06
6.52592e-05
-9.8648e-07
6.56479e-05
-7.75423e-07
6.60054e-05
-7.19819e-07
6.63303e-05
-6.52078e-07
6.6631e-05
-5.84524e-07
6.69013e-05
-6.43366e-07
6.712e-05
-3.59419e-07
6.72743e-05
-2.62028e-07
6.73982e-05
-2.87793e-07
6.75075e-05
-1.48678e-07
6.75947e-05
-2.19421e-07
-2.86898e-08
-1.32803e-05
4.26293e-05
-1.12664e-05
-5.99368e-06
-2.82453e-06
-2.68528e-05
2.7445e-06
-1.89581e-05
7.78413e-06
-1.45624e-05
1.04272e-05
-8.62657e-06
1.46192e-05
-1.27709e-05
1.8956e-05
-1.33518e-05
2.31063e-05
-1.08281e-05
2.85437e-05
-1.61086e-05
3.32839e-05
-2.23407e-05
3.46066e-05
3.83702e-06
3.81084e-05
-9.82363e-06
4.21883e-05
-1.41738e-05
4.62251e-05
-1.25031e-05
5.0036e-05
-1.15309e-05
5.37493e-05
-1.06605e-05
5.69503e-05
-8.8043e-06
5.942e-05
-6.75105e-06
6.12551e-05
-5.06928e-06
6.25668e-05
-3.55412e-06
6.37569e-05
-3.53958e-06
6.46029e-05
-2.38885e-06
6.51281e-05
-1.53459e-06
6.55284e-05
-1.17547e-06
6.58953e-05
-1.09576e-06
6.62331e-05
-9.99484e-07
6.6547e-05
-8.93856e-07
6.68278e-05
-9.9592e-07
6.70585e-05
-5.4729e-07
6.72219e-05
-4.00308e-07
6.73506e-05
-4.47579e-07
6.74666e-05
-2.22091e-07
6.75582e-05
-3.44106e-07
-4.32163e-08
-1.22667e-05
5.50075e-05
-1.04744e-05
-7.77637e-06
-2.35158e-06
-3.49225e-05
2.82378e-06
-2.41324e-05
7.24993e-06
-1.89525e-05
1.04932e-05
-1.18034e-05
1.45266e-05
-1.67208e-05
1.86385e-05
-1.73544e-05
2.26867e-05
-1.42098e-05
2.76614e-05
-2.08388e-05
3.20256e-05
-2.91363e-05
3.36137e-05
5.27335e-06
3.70373e-05
-1.2752e-05
4.0832e-05
-1.86708e-05
4.47437e-05
-1.68065e-05
4.86477e-05
-1.587e-05
5.26303e-05
-1.5018e-05
5.61498e-05
-1.25134e-05
5.88866e-05
-9.5852e-06
6.08914e-05
-7.17192e-06
6.2296e-05
-4.92027e-06
6.35504e-05
-4.88252e-06
6.44443e-05
-3.28224e-06
6.49948e-05
-2.111e-06
6.54068e-05
-1.58678e-06
6.57834e-05
-1.48246e-06
6.61342e-05
-1.3607e-06
6.64611e-05
-1.2163e-06
6.67527e-05
-1.3588e-06
6.69952e-05
-7.4624e-07
6.71676e-05
-5.47077e-07
6.73015e-05
-6.14345e-07
6.74241e-05
-3.01289e-07
6.75205e-05
-4.7505e-07
-5.80465e-08
-1.12144e-05
6.63506e-05
-9.61173e-06
-9.34422e-06
-1.88459e-06
-4.25932e-05
3.10865e-06
-2.91273e-05
6.97972e-06
-2.2805e-05
1.0664e-05
-1.53893e-05
1.46597e-05
-2.06429e-05
1.86516e-05
-2.12682e-05
2.26417e-05
-1.76935e-05
2.71071e-05
-2.50702e-05
3.10935e-05
-3.48802e-05
3.31508e-05
5.48086e-06
3.65929e-05
-1.57934e-05
4.00881e-05
-2.27352e-05
4.38124e-05
-2.0838e-05
4.76745e-05
-2.00621e-05
5.17624e-05
-1.93867e-05
5.5482e-05
-1.63701e-05
5.84197e-05
-1.2615e-05
6.05607e-05
-9.38878e-06
6.20439e-05
-6.37493e-06
6.33526e-05
-6.26701e-06
6.4288e-05
-4.21859e-06
6.48619e-05
-2.70603e-06
6.52862e-05
-2.01099e-06
6.56726e-05
-1.87732e-06
6.60362e-05
-1.73293e-06
6.63759e-05
-1.55155e-06
6.66782e-05
-1.7274e-06
6.69317e-05
-9.56888e-07
6.71128e-05
-7.0425e-07
6.72521e-05
-7.84545e-07
6.73813e-05
-3.90117e-07
6.74825e-05
-6.09303e-07
-7.45217e-08
-1.01137e-05
7.65658e-05
-8.67271e-06
-1.07744e-05
-1.4522e-06
-4.97618e-05
3.47437e-06
-3.40505e-05
6.90898e-06
-2.62092e-05
1.09156e-05
-1.93542e-05
1.49207e-05
-2.45952e-05
1.88522e-05
-2.51252e-05
2.28062e-05
-2.12459e-05
2.68729e-05
-2.8987e-05
3.05864e-05
-3.99297e-05
3.31792e-05
4.62031e-06
3.6661e-05
-1.90004e-05
3.99027e-05
-2.64644e-05
4.3436e-05
-2.46794e-05
4.71585e-05
-2.41777e-05
5.11851e-05
-2.37732e-05
5.49668e-05
-2.03442e-05
5.80263e-05
-1.57686e-05
6.02672e-05
-1.17263e-05
6.18138e-05
-7.88715e-06
6.31663e-05
-7.70495e-06
6.41363e-05
-5.18823e-06
6.47322e-05
-3.32797e-06
6.51694e-05
-2.44758e-06
6.55658e-05
-2.28387e-06
6.59415e-05
-2.11867e-06
6.62935e-05
-1.89902e-06
6.66061e-05
-2.10781e-06
6.68698e-05
-1.17637e-06
6.7059e-05
-8.68246e-07
6.72037e-05
-9.63182e-07
6.73393e-05
-4.82958e-07
6.74453e-05
-7.50929e-07
-9.12436e-08
-8.95816e-06
8.56561e-05
-7.66462e-06
-1.20226e-05
-1.06459e-06
-5.63167e-05
3.83313e-06
-3.89488e-05
6.9853e-06
-2.93532e-05
1.12226e-05
-2.35091e-05
1.52528e-05
-2.85741e-05
1.91494e-05
-2.89697e-05
2.3066e-05
-2.48633e-05
2.68696e-05
-3.26272e-05
3.04093e-05
-4.42035e-05
3.34503e-05
2.43278e-06
3.69728e-05
-2.23434e-05
4.00726e-05
-2.98784e-05
4.34624e-05
-2.82419e-05
4.70082e-05
-2.79568e-05
5.08675e-05
-2.78375e-05
5.46028e-05
-2.41969e-05
5.77108e-05
-1.89594e-05
6.0014e-05
-1.40985e-05
6.16088e-05
-9.45956e-06
6.29938e-05
-9.15959e-06
6.39913e-05
-6.18703e-06
6.46081e-05
-3.96492e-06
6.50589e-05
-2.89855e-06
6.54652e-05
-2.69819e-06
6.58523e-05
-2.51355e-06
6.62157e-05
-2.25787e-06
6.65381e-05
-2.49177e-06
6.68108e-05
-1.40553e-06
6.70076e-05
-1.04195e-06
6.71575e-05
-1.14483e-06
6.72991e-05
-5.85584e-07
6.74097e-05
-8.95402e-07
-1.09948e-07
-7.7647e-06
9.35209e-05
-6.61244e-06
-1.31624e-05
-7.21918e-07
-6.21576e-05
4.15578e-06
-4.38214e-05
7.16371e-06
-3.23358e-05
1.15612e-05
-2.78771e-05
1.56228e-05
-3.2598e-05
1.94952e-05
-3.27849e-05
2.33694e-05
-2.84781e-05
2.7003e-05
-3.61582e-05
3.04008e-05
-4.82056e-05
3.3722e-05
-1.96481e-07
3.73179e-05
-2.58369e-05
4.04082e-05
-3.32401e-05