/*--------------------------------*- C++ -*----------------------------------*\
| =========                 |                                                 |
| \\      /  F ield         | OpenFOAM: The Open Source CFD Toolbox           |
|  \\    /   O peration     | Version:  v1912                                 |
|   \\  /    A nd           | Website:  www.openfoam.com                      |
|    \\/     M anipulation  |                                                 |
\*---------------------------------------------------------------------------*/
FoamFile
{
    version     2.0;
    format      ascii;
    class       volVectorField;
    location    "10";
    object      U;
}
// * * * * * * * * * * * * * * * * * * * * * * * * * * * * * * * * * * * * * //

dimensions      [0 1 -1 0 0 0 0];


internalField   nonuniform List<vector> 
12441
(
(29.5682 -0.00302648 0)
(32.8002 -0.010877 0)
(32.6821 -0.00229329 0)
(33.0141 0.00273474 0)
(31.7596 0.00525872 0)
(33.1752 0.00206271 0)
(31.7275 0.00776073 0)
(32.2554 0.0087108 0)
(30.8304 0.0138322 0)
(30.0191 0.0110866 0)
(29.8332 0.00341485 0)
(29.7248 0.000602264 0)
(29.1937 -0.00138955 0)
(30.6118 -0.00372462 0)
(29.886 0.00529235 0)
(28.9225 0.02494 0)
(24.8004 0.026419 0)
(23.8363 0.0359014 0)
(20.9165 0.0149141 0)
(20.4956 0.124614 0)
(11.339 -0.0573022 0)
(13.0968 0.337074 0)
(29.5549 -0.0100176 0)
(32.9494 -0.0288264 0)
(32.8073 -0.00399036 0)
(33.3435 0.00313401 0)
(31.9605 0.00425153 0)
(33.5381 -0.00142752 0)
(31.8459 0.0115593 0)
(32.46 0.0104762 0)
(30.8315 0.0326885 0)
(29.7876 0.0247813 0)
(29.3508 0.00264139 0)
(29.1193 -0.00504031 0)
(28.7468 -0.0104976 0)
(30.2921 -0.0179358 0)
(28.9433 0.0135426 0)
(28.7249 0.0516541 0)
(26.7833 0.138057 0)
(23.0244 0.0598097 0)
(22.4282 0.108966 0)
(19.5379 0.296609 0)
(11.1943 0.231672 0)
(12.1127 0.771546 0)
(29.6453 -0.0155007 0)
(32.3769 -0.0489553 0)
(32.1512 -0.00161956 0)
(32.6974 0.00313662 0)
(31.456 0.00744347 0)
(33.0337 -0.00960344 0)
(31.4774 0.0227474 0)
(32.1891 0.0101235 0)
(30.7614 0.0543151 0)
(29.9007 0.0385283 0)
(29.5614 0.00854936 0)
(29.3622 -0.00792348 0)
(28.9477 -0.0173963 0)
(30.7556 -0.01698 0)
(29.3263 0.0300677 0)
(28.7307 0.0574945 0)
(27.1312 0.189701 0)
(23.0903 0.183646 0)
(23.1722 0.0595168 0)
(19.5296 0.70387 0)
(11.3597 0.0809245 0)
(10.8679 1.42024 0)
(29.6551 -0.0208807 0)
(32.4574 -0.0664546 0)
(32.1576 -0.00457866 0)
(32.6433 0.00359443 0)
(31.3076 0.0105394 0)
(32.8707 -0.0122578 0)
(31.2392 0.0329398 0)
(31.8183 0.0152287 0)
(30.3601 0.0771203 0)
(29.5243 0.0553302 0)
(29.1986 0.015041 0)
(29.0047 -0.0100027 0)
(28.6244 -0.0250673 0)
(30.233 -0.0213636 0)
(28.9539 0.0437436 0)
(28.5164 0.0629124 0)
(27.2215 0.261207 0)
(23.224 0.274309 0)
(23.7546 0.0478038 0)
(19.5963 1.0722 0)
(11.6294 0.112077 0)
(9.84257 1.977 0)
(29.7091 -0.0258952 0)
(31.9768 -0.0808973 0)
(31.6867 -0.00301868 0)
(32.1782 0.0071455 0)
(30.9438 0.016145 0)
(32.4785 -0.0139046 0)
(30.9398 0.0434135 0)
(31.6195 0.0200657 0)
(30.2386 0.0997776 0)
(29.4947 0.0705884 0)
(29.2289 0.0203747 0)
(29.027 -0.0119995 0)
(28.6283 -0.0321089 0)
(30.551 -0.0257436 0)
(29.1783 0.0596436 0)
(28.2774 0.0694813 0)
(27.2163 0.327705 0)
(23.4 0.361413 0)
(24.1215 0.0348257 0)
(19.6588 1.44241 0)
(11.9899 0.137247 0)
(8.98983 2.51294 0)
(29.7133 -0.0300884 0)
(32.1274 -0.0967576 0)
(31.7434 -0.00591665 0)
(32.1912 0.00648507 0)
(30.8373 0.0184975 0)
(32.3728 -0.0181918 0)
(30.7293 0.0532675 0)
(31.2608 0.0232607 0)
(29.8342 0.120589 0)
(29.0788 0.0844762 0)
(28.7977 0.0250232 0)
(28.5926 -0.0165982 0)
(28.3137 -0.0445405 0)
(29.8793 -0.0335871 0)
(28.5687 0.0720897 0)
(27.9037 0.0711999 0)
(27.0783 0.388455 0)
(23.5794 0.443192 0)
(24.2568 0.0269871 0)
(19.6676 1.80147 0)
(12.3937 0.183773 0)
(8.25525 3.03624 0)
(29.7535 -0.0343886 0)
(31.6708 -0.108346 0)
(31.3433 -0.00329141 0)
(31.8164 0.0106848 0)
(30.5733 0.0245614 0)
(32.0682 -0.019334 0)
(30.5126 0.0638144 0)
(31.1918 0.0279706 0)
(29.7969 0.142349 0)
(29.095 0.0975149 0)
(28.8501 0.0291667 0)
(28.6315 -0.0190895 0)
(28.2849 -0.0500755 0)
(30.2001 -0.0366267 0)
(28.7246 0.0916915 0)
(27.8321 0.0744416 0)
(26.9295 0.444356 0)
(23.7559 0.517002 0)
(24.1755 0.0290973 0)
(19.6319 2.14751 0)
(12.7655 0.24888 0)
(7.59887 3.55191 0)
(29.7489 -0.0378332 0)
(31.8923 -0.122807 0)
(31.4612 -0.00692416 0)
(31.8893 0.00910191 0)
(30.5135 0.0267432 0)
(32.0203 -0.0236776 0)
(30.3557 0.0738942 0)
(30.8508 0.0308141 0)
(29.4438 0.162881 0)
(28.7331 0.110947 0)
(28.4812 0.0341282 0)
(28.2847 -0.0240442 0)
(28.0524 -0.0652593 0)
(29.4912 -0.0436325 0)
(28.1299 0.103791 0)
(27.7936 0.076506 0)
(26.7349 0.497116 0)
(23.9011 0.586028 0)
(23.9419 0.0407847 0)
(19.5223 2.47273 0)
(13.0822 0.330852 0)
(6.99306 4.05998 0)
(29.78 -0.0416029 0)
(31.4578 -0.132516 0)
(31.125 -0.00381278 0)
(31.5854 0.0139937 0)
(30.3454 0.0332395 0)
(31.7883 -0.0242296 0)
(30.2254 0.0843843 0)
(30.8956 0.0358003 0)
(29.4867 0.184276 0)
(28.7979 0.122496 0)
(28.5848 0.0372932 0)
(28.3711 -0.0258775 0)
(27.9377 -0.065133 0)
(29.6156 -0.0446374 0)
(28.2627 0.11869 0)
(27.9677 0.0803357 0)
(26.5401 0.54898 0)
(23.9903 0.649945 0)
(23.5922 0.0637626 0)
(19.352 2.78271 0)
(13.3194 0.428956 0)
(6.41804 4.56007 0)
(29.778 -0.0444833 0)
(31.6982 -0.146039 0)
(31.2348 -0.00776023 0)
(31.6473 0.0118775 0)
(30.2661 0.0356957 0)
(31.7302 -0.0283964 0)
(30.0767 0.094804 0)
(30.5459 0.0386109 0)
(29.1737 0.204654 0)
(28.4922 0.135649 0)
(28.2863 0.0423323 0)
(28.0738 -0.0300384 0)
(27.7853 -0.0797397 0)
(28.9437 -0.049731 0)
(27.9383 0.124049 0)
(28.0661 0.0867688 0)
(26.3084 0.601662 0)
(24.0103 0.714709 0)
(23.1728 0.0945772 0)
(19.1089 3.07132 0)
(13.5063 0.54252 0)
(5.86346 5.0487 0)
(29.803 -0.0478329 0)
(31.2709 -0.153974 0)
(30.9422 -0.00435736 0)
(31.3973 0.0173879 0)
(30.1578 0.0424517 0)
(31.5403 -0.0284539 0)
(29.9856 0.104972 0)
(30.6715 0.0437223 0)
(29.2678 0.225566 0)
(28.6007 0.145755 0)
(28.4185 0.0449961 0)
(28.1768 -0.0315303 0)
(27.8971 -0.0770481 0)
(29.1456 -0.0498582 0)
(28.1879 0.128928 0)
(28.1942 0.0975788 0)
(26.0311 0.655705 0)
(23.9528 0.778514 0)
(22.7014 0.134398 0)
(18.8193 3.34335 0)
(13.627 0.67132 0)
(5.32267 5.52539 0)
(29.7981 -0.0502442 0)
(31.5455 -0.166779 0)
(31.0715 -0.00860084 0)
(31.4715 0.014634 0)
(30.0824 0.0452297 0)
(31.4952 -0.0323794 0)
(29.8597 0.115585 0)
(30.3177 0.0462563 0)
(28.9942 0.245496 0)
(28.3506 0.158444 0)
(28.1414 0.0509613 0)
(27.814 -0.0370183 0)
(28.0321 -0.0908295 0)
(29.0249 -0.0532628 0)
(28.2175 0.131408 0)
(28.2504 0.116734 0)
(25.6999 0.711436 0)
(23.841 0.843974 0)
(22.21 0.180084 0)
(18.4849 3.59595 0)
(13.7199 0.813976 0)
(4.79563 5.98767 0)
(29.8197 -0.0532562 0)
(31.1258 -0.173447 0)
(30.8191 -0.00533462 0)
(31.263 0.0206311 0)
(30.036 0.0519754 0)
(31.3468 -0.0320733 0)
(29.8255 0.125131 0)
(30.5169 0.0514028 0)
(29.127 0.265741 0)
(28.4713 0.167934 0)
(28.2351 0.0539207 0)
(28.0211 -0.0407053 0)
(28.3506 -0.0923668 0)
(29.3038 -0.0551382 0)
(28.4232 0.136906 0)
(28.1914 0.142993 0)
(25.2935 0.768054 0)
(23.6882 0.908475 0)
(21.7118 0.23309 0)
(18.133 3.83288 0)
(13.7742 0.969142 0)
(4.28228 6.43658 0)
(29.8179 -0.055279 0)
(31.4039 -0.185694 0)
(30.9256 -0.00949903 0)
(31.3083 0.0175371 0)
(29.9287 0.0552538 0)
(31.2852 -0.0357413 0)
(29.704 0.135762 0)
(30.1576 0.0536808 0)
(28.8867 0.285143 0)
(28.2525 0.180757 0)
(27.8787 0.059268 0)
(27.9163 -0.0483106 0)
(28.6509 -0.104751 0)
(29.3348 -0.0552178 0)
(28.3881 0.145986 0)
(28.0246 0.177316 0)
(24.8368 0.824306 0)
(23.528 0.97295 0)
(21.231 0.290882 0)
(17.7681 4.05319 0)
(13.8278 1.13629 0)
(3.78664 6.87071 0)
(29.836 -0.0579992 0)
(30.9881 -0.191052 0)
(30.7057 -0.00646629 0)
(31.1403 0.0238698 0)
(29.9223 0.0618327 0)
(31.1692 -0.0351722 0)
(29.6944 0.144531 0)
(30.4081 0.0586512 0)
(29.0385 0.304696 0)
(28.3798 0.190736 0)
(27.9801 0.0596428 0)
(28.2575 -0.0571431 0)
(28.9081 -0.112035 0)
(29.431 -0.0524013 0)
(28.3443 0.159183 0)
(27.7384 0.217337 0)
(24.3432 0.878729 0)
(23.3779 1.03552 0)
(20.7753 0.354939 0)
(17.4134 4.25901 0)
(13.8638 1.31424 0)
(3.31079 7.29245 0)
(29.8328 -0.0596656 0)
(31.2871 -0.202834 0)
(30.8169 -0.010755 0)
(31.1829 0.0203766 0)
(29.8135 0.0655607 0)
(31.1176 -0.0384849 0)
(29.5861 0.155025 0)
(30.0369 0.060571 0)
(28.8095 0.323628 0)
(28.149 0.203601 0)
(27.7497 0.0621072 0)
(28.3965 -0.0692146 0)
(29.1243 -0.120893 0)
(29.3154 -0.0452456 0)
(28.1114 0.176151 0)
(27.3857 0.262281 0)
(23.8565 0.930032 0)
(23.2623 1.0966 0)
(20.3597 0.423683 0)
(17.0734 4.45057 0)
(13.9157 1.5029 0)
(2.86066 7.70034 0)
(29.8495 -0.0621613 0)
(30.8755 -0.207201 0)
(30.6253 -0.00792756 0)
(31.0453 0.0269365 0)
(29.8531 0.0718015 0)
(31.0352 -0.0377041 0)
(29.6202 0.162976 0)
(30.3243 0.0655672 0)
(28.9601 0.34271 0)
(28.2599 0.213089 0)
(27.9865 0.0597093 0)
(28.7045 -0.0813937 0)
(29.218 -0.125092 0)
(29.1852 -0.0349401 0)
(27.8559 0.195634 0)
(26.9712 0.309876 0)
(23.404 0.977256 0)
(23.1857 1.15552 0)
(19.9859 0.498611 0)
(16.7671 4.629 0)
(13.9635 1.70121 0)
(2.4388 8.09721 0)
(29.8479 -0.0634993 0)
(31.1755 -0.218622 0)
(30.7159 -0.0123418 0)
(31.0628 0.0232566 0)
(29.7223 0.0760242 0)
(30.974 -0.0407337 0)
(29.5166 0.173265 0)
(29.9438 0.067496 0)
(28.7345 0.361278 0)
(28.0515 0.22428 0)
(28.0012 0.0586087 0)
(28.8958 -0.0928052 0)
(29.2471 -0.126749 0)
(28.9133 -0.0204989 0)
(27.4928 0.217673 0)
(26.5483 0.359001 0)
(23.0281 1.01942 0)
(23.1529 1.21302 0)
(19.6602 0.57831 0)
(16.4986 4.7952 0)
(14.0365 1.90984 0)
(2.0502 8.48209 0)
(29.8625 -0.0658076 0)
(30.7675 -0.221913 0)
(30.5511 -0.00962881 0)
(30.9586 0.0299027 0)
(29.7887 0.0818737 0)
(30.9167 -0.0398535 0)
(29.5676 0.180483 0)
(30.2525 0.0726458 0)
(28.8767 0.379777 0)
(28.2117 0.231469 0)
(28.3057 0.0534321 0)
(29.0943 -0.102165 0)
(29.1656 -0.124051 0)
(28.6347 -0.00416267 0)
(27.1435 0.240999 0)
(26.1255 0.408055 0)
(22.7472 1.0563 0)
(23.1536 1.26969 0)
(19.3794 0.663595 0)
(16.2824 4.94974 0)
(14.1141 2.12721 0)
(1.69698 8.8583 0)
(29.8596 -0.0668502 0)
(31.0815 -0.233077 0)
(30.6408 -0.0144052 0)
(30.971 0.0260013 0)
(29.6568 0.0864819 0)
(30.8602 -0.0425758 0)
(29.4671 0.190561 0)
(29.8563 0.0746267 0)
(28.6598 0.39743 0)
(28.0996 0.240022 0)
(28.4633 0.0490615 0)
(29.187 -0.108572 0)
(29.031 -0.118192 0)
(28.283 0.015179 0)
(26.7606 0.265559 0)
(25.7462 0.455662 0)
(22.5759 1.08762 0)
(23.1803 1.3265 0)
(19.1444 0.752959 0)
(16.1208 5.09377 0)
(14.2211 2.35481 0)
(1.38395 9.22506 0)
(29.8735 -0.0689795 0)
(30.6772 -0.23551 0)
(30.4974 -0.0117609 0)
(30.8891 0.0326271 0)
(29.7539 0.0918542 0)
(30.8285 -0.0415707 0)
(29.5437 0.197142 0)
(30.1754 0.0801052 0)
(28.8041 0.41468 0)
(28.2974 0.244073 0)
(28.7339 0.0428971 0)
(29.2306 -0.111838 0)
(28.8317 -0.108905 0)
(27.9549 0.0354159 0)
(26.427 0.289698 0)
(25.4135 0.500835 0)
(22.4996 1.11425 0)
(23.2195 1.38436 0)
(18.9497 0.846562 0)
(16.0229 5.22762 0)
(14.3373 2.59055 0)
(1.11289 9.58611 0)
(29.871 -0.0697974 0)
(30.99 -0.246477 0)
(30.5698 -0.0168479 0)
(30.8819 0.0287307 0)
(29.6092 0.0968822 0)
(30.7657 -0.0439725 0)
(29.4413 0.207072 0)
(29.7756 0.0821898 0)
(28.6088 0.430961 0)
(28.2879 0.249276 0)
(28.8851 0.0381472 0)
(29.1942 -0.111739 0)
(28.6143 -0.0973228 0)
(27.6105 0.0574061 0)
(26.1065 0.313947 0)
(25.1513 0.542618 0)
(22.4993 1.13644 0)
(23.2646 1.44389 0)
(18.794 0.942651 0)
(15.9865 5.35227 0)
(14.483 2.83697 0)
(0.887578 9.94091 0)
(29.8834 -0.0717237 0)
(30.59 -0.24802 0)
(30.4473 -0.0142761 0)
(30.8249 0.0351159 0)
(29.7211 0.101718 0)
(30.7536 -0.042925 0)
(29.5225 0.213101 0)
(30.1141 0.0879463 0)
(28.7698 0.446307 0)
(28.5168 0.250264 0)
(29.0415 0.0336817 0)
(29.1202 -0.108768 0)
(28.3759 -0.0836013 0)
(27.3131 0.078994 0)
(25.8535 0.33685 0)
(24.9497 0.581349 0)
(22.546 1.15554 0)
(23.3079 1.50552 0)
(18.6718 1.04081 0)
(16.0129 5.46793 0)
(14.6374 3.09093 0)
(0.708387 10.2934 0)
(29.8798 -0.0723678 0)
(30.9121 -0.258793 0)
(30.5167 -0.0198426 0)
(30.8135 0.0312678 0)
(29.5786 0.107118 0)
(30.6916 -0.0449071 0)
(29.4144 0.222829 0)
(29.7007 0.0897093 0)
(28.6086 0.460913 0)
(28.5828 0.252531 0)
(29.0981 0.0310732 0)
(29.0054 -0.103203 0)
(28.1476 -0.0686599 0)
(27.0317 0.101322 0)
(25.6356 0.359203 0)
(24.8107 0.616438 0)
(22.6199 1.17192 0)
(23.3474 1.56923 0)
(18.5812 1.13941 0)
(16.0943 5.57556 0)
(14.8164 3.35581 0)
(0.577495 10.643 0)
(29.8927 -0.0741047 0)
(30.5151 -0.259662 0)
(30.4084 -0.0171927 0)
(30.7701 0.0373656 0)
(29.7089 0.111372 0)
(30.6977 -0.0437785 0)
(29.5125 0.228366 0)
(30.0442 0.0957082 0)
(28.7886 0.47383 0)
(28.8065 0.252146 0)
(29.1247 0.0297336 0)
(28.8807 -0.0957294 0)
(27.9262 -0.0525951 0)
(26.8054 0.122621 0)
(25.479 0.379482 0)
(24.7154 0.648982 0)
(22.7032 1.18682 0)
(23.3807 1.63495 0)
(18.5173 1.23794 0)
(16.2248 5.6754 0)
(14.9993 3.62712 0)
(0.493633 10.9935 0)
(29.8887 -0.0745953 0)
(30.8358 -0.270287 0)
(30.4659 -0.0233519 0)
(30.7491 0.0336114 0)
(29.5608 0.1171 0)
(30.6287 -0.0453358 0)
(29.3981 0.237897 0)
(29.6229 0.0968099 0)
(28.6608 0.486536 0)
(28.9135 0.252871 0)
(29.0836 0.0303855 0)
(28.7471 -0.0867527 0)
(27.7295 -0.0361305 0)
(26.6077 0.144026 0)
(25.3531 0.399095 0)
(24.6571 0.678655 0)
(22.7873 1.20034 0)
(23.4085 1.70233 0)
(18.4784 1.33515 0)
(16.3927 5.76831 0)
(15.1999 3.90887 0)
(0.457386 11.3441 0)
(29.9014 -0.0761536 0)
(30.4417 -0.270355 0)
(30.3704 -0.0205853 0)
(30.7187 0.0394455 0)
(29.6939 0.120857 0)
(30.6494 -0.044159 0)
(29.4999 0.243072 0)
(29.9814 0.102899 0)
(28.8545 0.496738 0)
(29.1034 0.252471 0)
(29.0202 0.0325697 0)
(28.6226 -0.0768591 0)
(27.5516 -0.0192565 0)
(26.4581 0.163981 0)
(25.2681 0.416861 0)
(24.6209 0.706724 0)
(22.8653 1.21329 0)
(23.4306 1.77106 0)
(18.4603 1.43062 0)
(16.5891 5.85461 0)
(15.399 4.19559 0)
(0.466226 11.6985 0)
(29.8966 -0.076528 0)
(30.7669 -0.280924 0)
(30.4227 -0.0270744 0)
(30.696 0.0356381 0)
(29.5477 0.126788 0)
(30.5722 -0.0452981 0)
(29.3751 0.252334 0)
(29.5473 0.103167 0)
(28.7579 0.507614 0)
(29.1987 0.253087 0)
(28.9232 0.0364376 0)
(28.5054 -0.0663277 0)
(27.4006 -0.0024515 0)
(26.3336 0.183758 0)
(25.2013 0.434179 0)
(24.6019 0.732817 0)
(22.9353 1.22561 0)
(23.4485 1.84073 0)
(18.4619 1.52363 0)
(16.803 5.93515 0)
(15.6092 4.49143 0)
(0.519495 12.0559 0)
(29.9106 -0.0778427 0)
(30.3753 -0.280386 0)
(30.3343 -0.0246309 0)
(30.6687 0.0413372 0)
(29.6867 0.130101 0)
(30.6089 -0.0439913 0)
(29.4889 0.257227 0)
(29.9059 0.108847 0)
(28.9531 0.515267 0)
(29.3224 0.253797 0)
(28.8213 0.0414801 0)
(28.4041 -0.0555234 0)
(27.2695 0.0144029 0)
(26.2434 0.202249 0)
(25.1573 0.450045 0)
(24.5918 0.757911 0)
(22.9957 1.23778 0)
(23.4624 1.91101 0)
(18.4795 1.61397 0)
(17.0267 6.01022 0)
(15.8132 4.79026 0)
(0.613884 12.4194 0)
(29.9051 -0.0781963 0)
(30.6967 -0.290722 0)
(30.3767 -0.031034 0)
(30.6395 0.0374511 0)
(29.5376 0.136199 0)
(30.5213 -0.0447174 0)
(29.3554 0.266253 0)
(29.4682 0.10855 0)
(28.8818 0.52445 0)
(29.3768 0.255534 0)
(28.7103 0.047643 0)
(28.3143 -0.0445818 0)
(27.1611 0.0310031 0)
(26.1701 0.220518 0)
(25.1217 0.465635 0)
(24.5886 0.781708 0)
(23.0472 1.2497 0)
(23.4735 1.98153 0)
(18.5124 1.70137 0)
(17.2526 6.08056 0)
(16.0241 5.09642 0)
(0.74788 12.7881 0)
(29.9194 -0.0792107 0)
(30.3089 -0.289716 0)
(30.2982 -0.0291893 0)
(30.6181 0.0429379 0)
(29.6712 0.139076 0)
(30.5717 -0.0433848 0)
(29.4754 0.270876 0)
(29.8508 0.113324 0)
(29.0696 0.530089 0)
(29.437 0.257824 0)
(28.6076 0.0545204 0)
(28.2395 -0.0336954 0)
(27.0688 0.047492 0)
(26.1187 0.23777 0)
(25.0978 0.480271 0)
(24.5881 0.804882 0)
(23.0898 1.26162 0)
(23.4819 2.052 0)
(18.5576 1.78575 0)
(17.476 6.14639 0)
(16.2271 5.40346 0)
(0.917942 13.165 0)
(29.9131 -0.079563 0)
(30.633 -0.299437 0)
(30.3338 -0.0353914 0)
(30.5874 0.0390659 0)
(29.5244 0.145334 0)
(30.469 -0.0437224 0)
(29.3277 0.279619 0)
(29.4083 0.112524 0)
(29.0189 0.537754 0)
(29.4516 0.261068 0)
(28.5092 0.0620205 0)
(28.1746 -0.0228863 0)
(26.9935 0.0636994 0)
(26.0769 0.254802 0)
(25.0769 0.494725 0)
(24.5899 0.827248 0)
(23.1247 1.27345 0)
(23.4886 2.12214 0)
(18.6147 1.86718 0)
(17.6932 6.2084 0)
(16.4352 5.71578 0)
(1.12224 13.549 0)
(29.9298 -0.0803024 0)
(30.247 -0.298699 0)
(30.2569 -0.0340313 0)
(30.5615 0.0443217 0)
(29.6566 0.147713 0)
(30.5347 -0.0423328 0)
(29.46 0.283933 0)
(29.7684 0.116027 0)
(29.1722 0.54181 0)
(29.4679 0.264985 0)
(28.4245 0.0698632 0)
(28.1209 -0.0122261 0)
(26.9296 0.0797397 0)
(26.0486 0.271146 0)
(25.0621 0.508652 0)
(24.5919 0.849209 0)
(23.1525 1.28531 0)
(23.4932 2.19171 0)
(18.6812 1.94558 0)
(17.902 6.26664 0)
(16.6357 6.0268 0)
(1.35734 13.9428 0)
(29.9222 -0.0806337 0)
(30.5662 -0.306841 0)
(30.2854 -0.0398007 0)
(30.5306 0.0406379 0)
(29.5082 0.154227 0)
(30.4191 -0.0422662 0)
(29.3053 0.292509 0)
(29.35 0.115373 0)
(29.1326 0.547727 0)
(29.4593 0.269667 0)
(28.3484 0.0780059 0)
(28.0741 -0.00169102 0)
(26.8775 0.095535 0)
(26.0251 0.287281 0)
(25.0476 0.522394 0)
(24.5943 0.870682 0)
(23.1741 1.29715 0)
(23.4961 2.26049 0)
(18.7568 2.02125 0)
(18.1015 6.32174 0)
(16.8424 6.34118 0)
(1.6214 14.3454 0)
(29.9394 -0.0811075 0)
(30.1834 -0.306901 0)
(30.2155 -0.0388101 0)
(30.5054 0.0459038 0)
(29.6334 0.156216 0)
(30.5081 -0.0407087 0)
(29.4402 0.296443 0)
(29.7525 0.117378 0)
(29.2543 0.550834 0)
(29.4553 0.274858 0)
(28.2856 0.0863188 0)
(28.0347 0.00870027 0)
(26.8326 0.111129 0)
(26.0103 0.30298 0)
(25.0363 0.535919 0)
(24.5957 0.891836 0)
(23.1899 1.309 0)
(23.4969 2.32827 0)
(18.8391 2.09398 0)
(18.2911 6.37351 0)
(17.044 6.65241 0)
(1.91146 14.7594 0)
(29.9313 -0.0813973 0)
(30.5032 -0.313625 0)
(30.2405 -0.0444872 0)
(30.481 0.0423734 0)
(29.4878 0.163119 0)
(30.3671 -0.040323 0)
(29.2759 0.304962 0)
(29.3247 0.116764 0)
(29.2174 0.555337 0)
(29.4391 0.280625 0)
(28.2307 0.0947827 0)
(27.9992 0.0189938 0)
(26.7952 0.126532 0)
(25.9972 0.318446 0)
(25.0239 0.549248 0)
(24.5966 0.912737 0)
(23.2005 1.32087 0)
(23.4957 2.39491 0)
(18.928 2.16419 0)
(18.472 6.42257 0)
(17.2543 6.96523 0)
(2.22593 15.1835 0)
(29.9503 -0.0816322 0)
(30.1209 -0.314118 0)
(30.1711 -0.0438601 0)
(30.4541 0.0472375 0)
(29.6086 0.16463 0)
(30.47 -0.0386336 0)
(29.4272 0.308345 0)
(29.6949 0.117167 0)
(29.291 0.557593 0)
(29.43 0.286773 0)
(28.186 0.103329 0)
(27.9681 0.0291987 0)
(26.7614 0.141743 0)
(25.9901 0.333779 0)
(25.0131 0.562564 0)
(24.5957 0.933358 0)
(23.2063 1.33272 0)
(23.4916 2.46021 0)
(19.0207 2.23163 0)
(18.6444 6.46861 0)
(17.463 7.27328 0)
(2.56242 15.6205 0)
(29.9419 -0.0818604 0)
(30.4399 -0.320491 0)
(30.1919 -0.0497981 0)
(30.43 0.0440427 0)
(29.4693 0.171869 0)
(30.3137 -0.0378687 0)
(29.2661 0.316928 0)
(29.2806 0.11798 0)
(29.2454 0.560647 0)
(29.4161 0.293256 0)
(28.1459 0.111966 0)
(27.9383 0.0393563 0)
(26.7314 0.156824 0)
(25.9831 0.348908 0)
(25.0002 0.575698 0)
(24.5938 0.953946 0)
(23.2078 1.34466 0)
(23.4846 2.52419 0)
(19.1168 2.29664 0)
(18.8107 6.51209 0)
(17.6841 7.58161 0)
(2.91957 16.0687 0)
(29.9617 -0.0818076 0)
(30.0569 -0.322373 0)
(30.1208 -0.0505431 0)
(30.391 0.0477709 0)
(29.5763 0.173125 0)
(30.4258 -0.0362852 0)
(29.4074 0.320049 0)
(29.6718 0.116096 0)
(29.2762 0.56222 0)
(29.4106 0.299909 0)
(28.111 0.120679 0)
(27.9105 0.0494802 0)
(26.7011 0.171707 0)
(25.9806 0.364142 0)
(24.988 0.589005 0)
(24.5898 0.974307 0)
(23.2054 1.3566 0)
(23.474 2.58678 0)
(19.2127 2.35887 0)
(18.9727 6.55253 0)
(17.9082 7.88399 0)
(3.29596 16.5315 0)
(29.9545 -0.0820331 0)
(30.3738 -0.327617 0)
(30.1301 -0.0562215 0)
(30.363 0.0439728 0)
(29.4405 0.179387 0)
(30.2389 -0.0362945 0)
(29.2282 0.328172 0)
(29.2248 0.11879 0)
(29.2108 0.563843 0)
(29.4041 0.306686 0)
(28.0754 0.129491 0)
(27.8818 0.0595992 0)
(26.6708 0.186445 0)
(25.9774 0.37921 0)
(24.9731 0.602166 0)
(24.5849 0.994775 0)
(23.2003 1.36875 0)
(23.4599 2.64817 0)
(19.3068 2.41872 0)
(19.135 6.5905 0)
(18.1492 8.18549 0)
(3.69117 17.0064 0)
(29.9794 -0.0813324 0)
(29.9878 -0.331747 0)
(30.0547 -0.0580972 0)
(30.3131 0.048903 0)
(29.5439 0.181292 0)
(30.3646 -0.0354979 0)
(29.3885 0.329999 0)
(29.5944 0.116284 0)
(29.1923 0.564002 0)
(29.4069 0.313465 0)
(28.0386 0.138413 0)
(27.853 0.0697116 0)
(26.6362 0.200995 0)
(25.9786 0.394181 0)
(24.9588 0.615353 0)
(24.5788 1.01511 0)
(23.1939 1.38107 0)
(23.4418 2.70824 0)
(19.3939 2.47614 0)
(19.3032 6.62541 0)
(18.3968 8.47855 0)
(4.10416 17.4995 0)
(29.9621 -0.0813765 0)
(30.2946 -0.331229 0)
(30.1072 -0.0646436 0)
(30.356 0.0454975 0)
(29.4441 0.186392 0)
(30.1585 -0.0343309 0)
(29.1756 0.333788 0)
(29.3318 0.121229 0)
(29.0992 0.564188 0)
(29.4106 0.320321 0)
(27.9931 0.147465 0)
(27.8213 0.0797224 0)
(26.5976 0.215145 0)
(25.9786 0.408746 0)
(24.9411 0.628207 0)
(24.5735 1.03541 0)
(23.1889 1.39359 0)
(23.4206 2.76682 0)
(19.4708 2.53146 0)
(19.4911 6.6567 0)
(18.6635 8.76894 0)
(4.5301 18.0038 0)
(29.9591 -0.0812926 0)
(29.925 -0.328119 0)
(30.1255 -0.0629767 0)
(30.4114 0.0474713 0)
(29.5899 0.190299 0)
(30.3429 -0.0312868 0)
(29.3468 0.336775 0)
(29.7252 0.120802 0)
(29.0146 0.564603 0)
(29.4263 0.327166 0)
(27.9384 0.156668 0)
(27.7883 0.0895632 0)
(26.5506 0.2284 0)
(25.9844 0.422461 0)
(24.9252 0.640848 0)
(24.57 1.05519 0)
(23.1885 1.40599 0)
(23.397 2.82386 0)
(19.5292 2.58402 0)
(19.7214 6.68149 0)
(18.9293 9.05001 0)
(4.96361 18.5374 0)
(29.84 -0.0825911 0)
(30.2833 -0.322352 0)
(30.4047 -0.0752197 0)
(30.7789 0.0411662 0)
(29.6848 0.18932 0)
(30.3771 -0.0303606 0)
(29.2769 0.318178 0)
(29.8172 0.119083 0)
(28.8761 0.561637 0)
(29.4481 0.334322 0)
(27.8683 0.166368 0)
(27.7536 0.100111 0)
(26.4969 0.241517 0)
(25.9905 0.43424 0)
(24.9077 0.652787 0)
(24.5732 1.07538 0)
(23.195 1.4181 0)
(23.3752 2.87537 0)
(19.5624 2.64589 0)
(20.0405 6.68942 0)
(19.1763 9.33704 0)
(5.4765 19.1402 0)
(-6.28626 0.165665 0)
(-6.84635 -0.026795 0)
(-4.3335 -0.090217 0)
(1.61713 -0.0695411 0)
(2.20785 -0.0378024 0)
(4.59828 -0.0278495 0)
(6.43767 -0.0336963 0)
(8.35681 -0.0319407 0)
(10.5386 -0.0241072 0)
(12.5421 -0.0264574 0)
(15.7895 -0.0378159 0)
(16.0975 0.00715735 0)
(18.1689 -0.0123344 0)
(19.9324 -0.0178746 0)
(21.4865 -0.0143186 0)
(22.9336 -0.0107463 0)
(24.2656 -0.00852884 0)
(25.3979 -0.00645772 0)
(26.3723 -0.00445993 0)
(27.0404 -0.003369 0)
(27.5698 -0.00219344 0)
(28.0324 -0.00209678 0)
(28.4605 -0.00126522 0)
(28.6834 -0.000798818 0)
(28.8545 -0.000557161 0)
(29.0243 -0.000486786 0)
(29.1588 -0.000403224 0)
(29.2979 -0.00033302 0)
(29.4136 -0.000341062 0)
(29.5238 -0.00017473 0)
(29.5948 -0.000115917 0)
(29.654 -0.000119979 0)
(29.6947 -5.18731e-05 0)
(29.7495 -7.48512e-05 0)
(29.7636 -8.21074e-06 0)
(-5.97385 0.444171 0)
(-6.47269 -0.0476571 0)
(-4.12064 -0.245901 0)
(1.47987 -0.162553 0)
(1.77651 -0.0930851 0)
(4.58164 -0.0742273 0)
(5.68623 -0.078292 0)
(7.59514 -0.076112 0)
(9.71743 -0.0619406 0)
(11.5024 -0.084247 0)
(15.0726 -0.0869168 0)
(15.1482 -0.00615334 0)
(16.7317 -0.046116 0)
(18.569 -0.0469543 0)
(20.3351 -0.0363635 0)
(22.0276 -0.0317311 0)
(23.5783 -0.0263387 0)
(24.9182 -0.0201133 0)
(26.0348 -0.0145714 0)
(26.8332 -0.00974672 0)
(27.4213 -0.00702921 0)
(27.9224 -0.00620431 0)
(28.3813 -0.00405807 0)
(28.6257 -0.00229859 0)
(28.8038 -0.00177399 0)
(28.9754 -0.00148817 0)
(29.115 -0.00123802 0)
(29.2604 -0.00103876 0)
(29.3809 -0.00100503 0)
(29.4959 -0.000558812 0)
(29.5722 -0.000376722 0)
(29.6334 -0.000349009 0)
(29.6765 -0.000200391 0)
(29.7341 -0.00022572 0)
(29.7491 -3.22967e-05 0)
(-5.53679 0.73978 0)
(-6.04506 -0.098032 0)
(-3.91035 -0.398012 0)
(1.65066 -0.262599 0)
(1.3304 -0.181606 0)
(4.45171 -0.101256 0)
(5.58727 -0.137404 0)
(7.29211 -0.132702 0)
(9.31748 -0.0990076 0)
(11.0601 -0.135336 0)
(14.442 -0.171694 0)
(14.5251 0.0240151 0)
(16.0441 -0.065064 0)
(17.7623 -0.0854965 0)
(19.4418 -0.0688932 0)
(21.1894 -0.0578177 0)
(22.9033 -0.048709 0)
(24.4409 -0.037047 0)
(25.7202 -0.026304 0)
(26.6335 -0.0183263 0)
(27.2784 -0.0120298 0)
(27.8151 -0.0110809 0)
(28.3028 -0.00692033 0)
(28.565 -0.00410532 0)
(28.7495 -0.00293772 0)
(28.9246 -0.00252618 0)
(29.0691 -0.00211795 0)
(29.2212 -0.00174976 0)
(29.3464 -0.00179258 0)
(29.4659 -0.000913043 0)
(29.5484 -0.000615553 0)
(29.6112 -0.000632653 0)
(29.6569 -0.000292784 0)
(29.7177 -0.000412857 0)
(29.7334 -4.83524e-05 0)
(-5.10941 1.00258 0)
(-5.57668 -0.130601 0)
(-3.69271 -0.540699 0)
(1.8575 -0.346619 0)
(1.11907 -0.251928 0)
(4.35663 -0.139992 0)
(5.59828 -0.187384 0)
(7.20621 -0.180771 0)
(9.14753 -0.135476 0)
(10.8639 -0.18532 0)
(13.8167 -0.23844 0)
(14.0685 0.0397693 0)
(15.6324 -0.0871108 0)
(17.2196 -0.119184 0)
(18.7913 -0.0979989 0)
(20.5334 -0.0842962 0)
(22.341 -0.072749 0)
(24.0237 -0.0557344 0)
(25.4384 -0.0394835 0)
(26.4496 -0.0273572 0)
(27.1444 -0.017528 0)
(27.7118 -0.0160935 0)
(28.2255 -0.0100092 0)
(28.5032 -0.00594149 0)
(28.6942 -0.00416607 0)
(28.873 -0.00358918 0)
(29.0224 -0.00303086 0)
(29.1811 -0.00250207 0)
(29.3112 -0.00257924 0)
(29.4353 -0.0013066 0)
(29.5235 -0.000883427 0)
(29.5884 -0.000914616 0)
(29.6366 -0.000415865 0)
(29.7008 -0.000601072 0)
(29.7171 -6.86248e-05 0)
(-4.69381 1.24533 0)
(-5.05782 -0.16119 0)
(-3.46661 -0.677337 0)
(2.04696 -0.428402 0)
(1.09297 -0.312683 0)
(4.31291 -0.185361 0)
(5.67266 -0.236524 0)
(7.25424 -0.227072 0)
(9.13513 -0.172895 0)
(10.8416 -0.230198 0)
(13.2957 -0.296084 0)
(13.8122 0.0474423 0)
(15.4882 -0.110381 0)
(16.946 -0.150467 0)
(18.4105 -0.126191 0)
(20.0976 -0.111074 0)
(21.9211 -0.0980165 0)
(23.6827 -0.0758766 0)
(25.1959 -0.0538279 0)
(26.2841 -0.0370982 0)
(27.0209 -0.0233871 0)
(27.6141 -0.0213315 0)
(28.1502 -0.0132515 0)
(28.4415 -0.00785846 0)
(28.6394 -0.00542556 0)
(28.8219 -0.00467821 0)
(28.9763 -0.00397599 0)
(29.1412 -0.00328441 0)
(29.2762 -0.00338395 0)
(29.4048 -0.00172243 0)
(29.4983 -0.00116831 0)
(29.5654 -0.00120689 0)
(29.6162 -0.000549768 0)
(29.6837 -0.000797256 0)
(29.7008 -9.0009e-05 0)
(-4.2887 1.46554 0)
(-4.48076 -0.188621 0)
(-3.2348 -0.806762 0)
(2.19504 -0.50884 0)
(1.18184 -0.365594 0)
(4.31984 -0.237227 0)
(5.7877 -0.286026 0)
(7.37367 -0.271958 0)
(9.21275 -0.210907 0)
(10.9135 -0.270937 0)
(12.9598 -0.34607 0)
(13.7702 0.0443636 0)
(15.5512 -0.135505 0)
(16.9024 -0.178949 0)
(18.2905 -0.152815 0)
(19.8978 -0.137175 0)
(21.6653 -0.123415 0)
(23.431 -0.0967741 0)
(24.9964 -0.0690012 0)
(26.1391 -0.0473893 0)
(26.9094 -0.0295627 0)
(27.5237 -0.0267574 0)
(28.0775 -0.016633 0)
(28.381 -0.00984961 0)
(28.5861 -0.00672429 0)
(28.7725 -0.00579599 0)
(28.9319 -0.00495279 0)
(29.1026 -0.00409673 0)
(29.2425 -0.00420733 0)
(29.3753 -0.00215904 0)
(29.4735 -0.0014692 0)
(29.543 -0.00150887 0)
(29.5961 -0.000694891 0)
(29.6669 -0.00100108 0)
(29.6849 -0.000112623 0)
(-3.89326 1.66256 0)
(-3.84298 -0.214196 0)
(-3.00411 -0.927094 0)
(2.29967 -0.588412 0)
(1.32896 -0.413113 0)
(4.36779 -0.293239 0)
(5.92918 -0.33627 0)
(7.52874 -0.316557 0)
(9.33461 -0.249354 0)
(11.0235 -0.3083 0)
(12.7971 -0.389361 0)
(13.8513 0.0308729 0)
(15.6951 -0.161857 0)
(16.9915 -0.204654 0)
(18.3498 -0.177547 0)
(19.8782 -0.161689 0)
(21.55 -0.147757 0)
(23.2656 -0.117605 0)
(24.8421 -0.0845592 0)
(26.0161 -0.0580266 0)
(26.8112 -0.0359842 0)
(27.4417 -0.0323163 0)
(28.0085 -0.0201253 0)
(28.3227 -0.0119095 0)
(28.5356 -0.00806357 0)
(28.7259 -0.00694104 0)
(28.8901 -0.00595881 0)
(29.066 -0.00493724 0)
(29.2107 -0.00504728 0)
(29.3473 -0.00261459 0)
(29.4497 -0.00178564 0)
(29.5216 -0.00182066 0)
(29.577 -0.000851055 0)
(29.6509 -0.00121233 0)
(29.6697 -0.000136745 0)
(-3.50985 1.83558 0)
(-3.15779 -0.237645 0)
(-2.78244 -1.03532 0)
(2.36995 -0.667216 0)
(1.50123 -0.458355 0)
(4.4464 -0.35228 0)
(6.08646 -0.387165 0)
(7.70099 -0.36122 0)
(9.4776 -0.288304 0)
(11.1494 -0.343713 0)
(12.7523 -0.427794 0)
(13.9453 0.0109941 0)
(15.8276 -0.189172 0)
(17.131 -0.228994 0)
(18.5044 -0.201178 0)
(19.9733 -0.184796 0)
(21.5421 -0.170766 0)
(23.1755 -0.137901 0)
(24.7293 -0.100163 0)
(25.9152 -0.0688656 0)
(26.7267 -0.0425852 0)
(27.3689 -0.0379731 0)
(27.9437 -0.0237031 0)
(28.2676 -0.0140365 0)
(28.4886 -0.00944565 0)
(28.683 -0.00811367 0)
(28.8517 -0.00699238 0)
(29.0323 -0.00580368 0)
(29.1815 -0.00590423 0)
(29.3215 -0.00308625 0)
(29.4273 -0.00211559 0)
(29.5017 -0.00214244 0)
(29.559 -0.00101661 0)
(29.6358 -0.00143103 0)
(29.6555 -0.000162194 0)
(-3.14011 1.98405 0)
(-2.45165 -0.257584 0)
(-2.57469 -1.13066 0)
(2.41628 -0.745227 0)
(1.68329 -0.502492 0)
(4.54589 -0.412971 0)
(6.25154 -0.438547 0)
(7.8806 -0.405836 0)
(9.63075 -0.327376 0)
(11.2825 -0.377875 0)
(12.7661 -0.461762 0)
(14.0254 -0.0140278 0)
(15.9222 -0.21722 0)
(17.2691 -0.252881 0)
(18.6841 -0.224092 0)
(20.1121 -0.206464 0)
(21.5897 -0.192198 0)
(23.1381 -0.157315 0)
(24.6527 -0.115549 0)
(25.8352 -0.0797368 0)
(26.656 -0.0493067 0)
(27.3056 -0.0436736 0)
(27.8838 -0.0273413 0)
(28.2163 -0.0162238 0)
(28.4456 -0.0108721 0)
(28.6443 -0.00931239 0)
(28.8172 -0.00805047 0)
(29.0018 -0.00669369 0)
(29.1551 -0.00677548 0)
(29.2981 -0.00357189 0)
(29.4068 -0.00245814 0)
(29.4836 -0.0024733 0)
(29.5426 -0.00119125 0)
(29.622 -0.00165643 0)
(29.6425 -0.000189131 0)
(-2.78769 2.10855 0)
(-1.76254 -0.275032 0)
(-2.38077 -1.21268 0)
(2.44785 -0.822911 0)
(1.86818 -0.546325 0)
(4.65969 -0.474734 0)
(6.41957 -0.49043 0)
(8.06236 -0.450505 0)
(9.78903 -0.366415 0)
(11.4207 -0.411118 0)
(12.8145 -0.493513 0)
(14.0909 -0.0412057 0)
(15.985 -0.245918 0)
(17.3879 -0.277334 0)
(18.8574 -0.247023 0)
(20.2617 -0.227367 0)
(21.6656 -0.212471 0)
(23.1356 -0.175918 0)
(24.6031 -0.130608 0)
(25.7733 -0.0905728 0)
(26.598 -0.0560992 0)
(27.2514 -0.0493932 0)
(27.829 -0.0310186 0)
(28.1693 -0.0184712 0)
(28.407 -0.0123436 0)
(28.6101 -0.0105375 0)
(28.7868 -0.00913066 0)
(28.9748 -0.0076045 0)
(29.1319 -0.0076601 0)
(29.2773 -0.00406894 0)
(29.3882 -0.00281119 0)
(29.4674 -0.00281299 0)
(29.5278 -0.00137336 0)
(29.6097 -0.00188823 0)
(29.6309 -0.00021729 0)
(-2.45323 2.20982 0)
(-1.11577 -0.29007 0)
(-2.19852 -1.28206 0)
(2.47201 -0.900412 0)
(2.05281 -0.590796 0)
(4.78259 -0.536912 0)
(6.58749 -0.54247 0)
(8.24318 -0.494977 0)
(9.94927 -0.405236 0)
(11.5614 -0.443492 0)
(12.8809 -0.523139 0)
(14.1514 -0.0699845 0)
(16.0274 -0.275091 0)
(17.4795 -0.302268 0)
(19.0044 -0.269907 0)
(20.3954 -0.247491 0)
(21.7425 -0.231611 0)
(23.1497 -0.193716 0)
(24.5731 -0.145286 0)
(25.7266 -0.101288 0)
(26.5513 -0.062926 0)