/*--------------------------------*- C++ -*----------------------------------*\
| =========                 |                                                 |
| \\      /  F ield         | OpenFOAM: The Open Source CFD Toolbox           |
|  \\    /   O peration     | Version:  v1912                                 |
|   \\  /    A nd           | Website:  www.openfoam.com                      |
|    \\/     M anipulation  |                                                 |
\*---------------------------------------------------------------------------*/
FoamFile
{
    version     2.0;
    format      ascii;
    class       volScalarField;
    location    "10";
    object      yPlus;
}
// * * * * * * * * * * * * * * * * * * * * * * * * * * * * * * * * * * * * * //

dimensions      [0 0 0 0 0 0 0];


internalField   uniform 0;

boundaryField
{
    inlet
    {
        type            calculated;
        value           uniform 0;
    }
    outlet
    {
        type            calculated;
        value           uniform 0;
    }
    lowerSymmetry
    {
        type            symmetryPlane;
    }
    obstical
    {
        type            calculated;
        value           nonuniform List<scalar> 
88
(
993.239
927.168
845.851
781.663
732.2
694.172
665.232
643.731
628.508
618.805
614.113
614.064
618.333
626.504
638.209
652.883
670.1
689.247
709.978
731.766
754.423
777.555
801.13
824.886
848.92
873.085
897.58
922.337
947.592
973.324
999.781
1026.95
1055.06
1084.09
1114.26
1145.51
1178.03
1211.76
1246.9
1283.3
1321.37
1360.56
1401.96
1449.33
496.207
475.154
446.439
419.334
394.099
370.626
348.836
328.831
310.624
294.341
279.872
267.215
256.121
246.475
237.903
230.04
222.694
216.022
210.045
204.873
200.513
196.966
194.161
192.03
190.535
189.739
189.827
191.132
193.98
198.708
205.332
213.778
223.397
233.449
242.526
249.321
252.315
251.073
246.135
239.601
233.326
229.496
230.155
232.6
)
;
    }
    obsticalTop
    {
        type            calculated;
        value           nonuniform List<scalar> 
20
(
51.917
47.5887
56.2257
62.1503
64.4651
64.6851
64.6723
63.5439
62.2731
60.1294
58.4781
56.9044
55.2637
52.6846
49.4184
44.5966
38.4313
24.1784
18.4131
28.9889
)
;
    }
    top
    {
        type            calculated;
        value           uniform 0;
    }
    defaultFaces
    {
        type            empty;
    }
}


// ************************************************************************* //
