/*--------------------------------*- C++ -*----------------------------------*\
| =========                 |                                                 |
| \\      /  F ield         | OpenFOAM: The Open Source CFD Toolbox           |
|  \\    /   O peration     | Version:  v1912                                 |
|   \\  /    A nd           | Website:  www.openfoam.com                      |
|    \\/     M anipulation  |                                                 |
\*---------------------------------------------------------------------------*/
FoamFile
{
    version     2.0;
    format      ascii;
    class       volScalarField;
    location    "25";
    object      p;
}
// * * * * * * * * * * * * * * * * * * * * * * * * * * * * * * * * * * * * * //

dimensions      [0 2 -2 0 0 0 0];


internalField   nonuniform List<scalar> 
2000
(
0.0511452
0.168557
0.223135
0.21625
0.200423
0.194002
0.193374
0.194871
0.194972
0.194147
0.193667
0.192698
0.191624
0.190883
0.190823
0.190829
0.190609
0.190426
0.190634
0.191741
0.191056
0.186322
0.169879
0.13459
0.0802758
0.0213849
-0.0220841
-0.0362993
-0.0212413
0.0216448
0.0849577
0.158985
0.233807
0.300903
0.354792
0.393673
0.416834
0.429508
0.432024
0.427863
0.420153
0.411046
0.402025
0.393976
0.386861
0.380883
0.376174
0.372671
0.370229
0.368714
0.367924
0.367386
0.367087
0.366839
0.366462
0.365809
0.364753
0.363195
0.361057
0.358285
0.354836
0.350676
0.345773
0.340091
0.33359
0.326218
0.317908
0.308577
0.29812
0.286408
0.27328
0.258537
0.241933
0.223166
0.20183
0.177473
0.149221
0.116794
0.0764707
0.0351547
0.104377
0.189559
0.228383
0.215201
0.197492
0.193071
0.196182
0.198576
0.196373
0.193463
0.192503
0.192789
0.191958
0.18995
0.188609
0.187519
0.187501
0.188847
0.190044
0.18925
0.1948
0.193494
0.169781
0.1038
0.00276454
-0.0912584
-0.140797
-0.140317
-0.103249
-0.0437963
0.0305381
0.112897
0.194919
0.268524
0.328296
0.3719
0.400015
0.415348
0.420376
0.418212
0.411907
0.403667
0.395251
0.387244
0.38078
0.375743
0.37186
0.36902
0.367107
0.365925
0.36526
0.36516
0.365206
0.365207
0.364971
0.364336
0.363184
0.36143
0.359018
0.355908
0.352073
0.347488
0.342131
0.33597
0.328965
0.321063
0.312194
0.30227
0.29118
0.278786
0.26492
0.249374
0.231895
0.212178
0.189825
0.164409
0.13515
0.102011
0.0621051
0.025456
0.155426
0.189227
0.211922
0.210357
0.201136
0.196828
0.196754
0.19636
0.195074
0.194888
0.195741
0.195478
0.192
0.186304
0.181309
0.178924
0.179548
0.186147
0.19594
0.206737
0.214037
0.209059
0.167089
0.0731292
-0.0473137
-0.141369
-0.181559
-0.172102
-0.133197
-0.0744825
-0.00236116
0.0781528
0.159162
0.231608
0.289701
0.33188
0.359294
0.374379
0.380153
0.379939
0.376861
0.373273
0.369942
0.367537
0.365954
0.364908
0.364204
0.363791
0.363678
0.363847
0.364237
0.364754
0.36521
0.365445
0.365321
0.36471
0.363497
0.361615
0.359026
0.355709
0.351651
0.34684
0.341259
0.334882
0.327671
0.319571
0.310513
0.300405
0.289132
0.276555
0.262504
0.246772
0.229109
0.20922
0.186732
0.161271
0.132161
0.0995563
0.0608159
0.0257667
0.180399
0.190412
0.202956
0.207018
0.204297
0.201238
0.199617
0.198098
0.196748
0.195969
0.195003
0.19349
0.190953
0.185072
0.177297
0.172278
0.1735
0.182422
0.201927
0.22621
0.241592
0.233949
0.183614
0.0826475
-0.0381102
-0.130808
-0.171972
-0.16345
-0.125161
-0.0707633
-0.00485402
0.0686553
0.141363
0.204153
0.25218
0.284831
0.303748
0.312041
0.31388
0.31359
0.314556
0.318309
0.324816
0.332927
0.341198
0.348528
0.354354
0.358626
0.361626
0.363722
0.365216
0.366284
0.366982
0.367247
0.36697
0.36608
0.364538
0.362305
0.359358
0.355689
0.351293
0.346161
0.340278
0.333617
0.326135
0.317777
0.308466
0.298107
0.286583
0.273749
0.259434
0.243431
0.225494
0.205336
0.182607
0.156969
0.127826
0.0954239
0.0574357
0.0236811
0.19273
0.196327
0.203838
0.207792
0.206642
0.20429
0.202901
0.201881
0.200553
0.198833
0.196658
0.194051
0.190715
0.185007
0.178068
0.173735
0.173537
0.182712
0.209228
0.241785
0.259845
0.251719
0.206043
0.117786
0.0126617
-0.0698873
-0.108415
-0.109244
-0.0815257
-0.0372229
0.0194785
0.0830355
0.143587
0.192435
0.225525
0.242487
0.245726
0.24043
0.233376
0.230718
0.236152
0.249745
0.269371
0.291331
0.312483
0.330755
0.345147
0.35561
0.362713
0.367247
0.369952
0.371388
0.371908
0.371689
0.370811
0.369295
0.367147
0.364358
0.360918
0.35682
0.352057
0.346613
0.340466
0.333579
0.325904
0.317377
0.307917
0.297422
0.285772
0.27282
0.258391
0.242281
0.224244
0.204003
0.181218
0.155577
0.126525
0.094366
0.0568549
0.0236115
0.201165
0.202995
0.206938
0.209092
0.208253
0.206612
0.205608
0.204868
0.203775
0.202239
0.200311
0.197825
0.194358
0.189395
0.184044
0.181006
0.182881
0.194423
0.216132
0.239712
0.25953
0.257869
0.21736
0.142388
0.0576813
-0.00918326
-0.0464572
-0.0520491
-0.0319101
0.00592617
0.0558235
0.110478
0.160097
0.19642
0.214412
0.212928
0.195975
0.172475
0.153012
0.146031
0.155278
0.179562
0.213706
0.250854
0.285857
0.315621
0.338808
0.355484
0.366571
0.373318
0.376939
0.37842
0.37846
0.377498
0.375781
0.373434
0.370514
0.367042
0.363019
0.358432
0.353263
0.347487
0.341066
0.333955
0.326095
0.317411
0.307817
0.297205
0.28545
0.272401
0.257883
0.241688
0.223573
0.20326
0.180416
0.154737
0.125681
0.0935716
0.0562122
0.0232044
0.207972
0.20879
0.210017
0.210336
0.209522
0.208497
0.20778
0.207153
0.206322
0.205219
0.203798
0.201877
0.199224
0.195772
0.192363
0.191065
0.194418
0.204681
0.221267
0.239966
0.252905
0.24605
0.211691
0.153033
0.0865938
0.0324979
0.00465782
0.00263124
0.0211439
0.0531759
0.0949772
0.141728
0.184765
0.213742
0.219687
0.200289
0.162534
0.120277
0.0879194
0.0758167
0.0875829
0.120926
0.167996
0.218689
0.265913
0.305616
0.336228
0.358019
0.372291
0.380716
0.384919
0.386248
0.385691
0.383907
0.381294
0.378075
0.37436
0.370194
0.365581
0.36051
0.35495
0.34886
0.34219
0.334883
0.326867
0.318062
0.308371
0.297682
0.285866
0.272769
0.258213
0.241988
0.223849
0.203518
0.180657
0.154962
0.125884
0.093747
0.0563467
0.023302
0.213847
0.213787
0.21286
0.211632
0.21078
0.21022
0.209682
0.209113
0.208496
0.207733
0.206704
0.205304
0.203491
0.201377
0.19965
0.199861
0.20382
0.21259
0.225508
0.238948
0.246026
0.237999
0.210564
0.166735
0.118427
0.0814631
0.0639988
0.0637053
0.0747628
0.0948127
0.126589
0.168968
0.212419
0.240615
0.238404
0.203406
0.147088
0.0887113
0.045527
0.0288306
0.0416303
0.0812461
0.137654
0.198217
0.254356
0.301245
0.337152
0.362529
0.378967
0.38845
0.392901
0.393927
0.392735
0.390149
0.386689
0.382654
0.378199
0.373389
0.368234
0.362715
0.356795
0.350418
0.343524
0.336042
0.327892
0.318986
0.30922
0.298478
0.286624
0.273504
0.258935
0.242706
0.22457
0.204244
0.181383
0.15567
0.126538
0.0942962
0.0566937
0.0234461
0.21925
0.218255
0.215279
0.212716
0.211932
0.2118
0.211403
0.210894
0.21046
0.209953
0.209216
0.208219
0.207024
0.205826
0.205233
0.206434
0.210704
0.218553
0.229038
0.238989
0.24352
0.237324
0.217709
0.187522
0.155615
0.130589
0.118061
0.114488
0.115397
0.123205
0.14738
0.190394
0.24033
0.271879
0.264085
0.216117
0.144973
0.0748839
0.0242237
0.00454409
0.0176331
0.0607314
0.122478
0.188828
0.250287
0.30148
0.340556
0.368053
0.385721
0.395728
0.400178
0.40084
0.399062
0.39578
0.391598
0.386872
0.381791
0.376434
0.370818
0.364919
0.358689
0.352068
0.344984
0.337357
0.3291
0.320117
0.310299
0.299525
0.287658
0.274538
0.259982
0.243776
0.225669
0.205373
0.182533
0.156818
0.127628
0.0952476
0.057341
0.0237756
0.224479
0.222287
0.217081
0.213418
0.212926
0.213211
0.21292
0.2125
0.212261
0.211983
0.211491
0.210814
0.21007
0.209495
0.209639
0.211455
0.215896
0.223141
0.232137
0.240288
0.244009
0.239771
0.226102
0.205461
0.183642
0.166768
0.157633
0.152162
0.145128
0.141782
0.159153
0.204822
0.263713
0.299475
0.288368
0.230586
0.149933
0.0734651
0.0190158
-0.00196039
0.0110064
0.0552595
0.119057
0.187776
0.251545
0.304677
0.345223
0.373707
0.391916
0.402088
0.406405
0.40672
0.404456
0.400617
0.395861
0.390583
0.384997
0.379197
0.373203
0.366989
0.360504
0.35368
0.346439
0.338695
0.330354
0.321314
0.311463
0.300676
0.288811
0.275708
0.261182
0.245016
0.226957
0.20671
0.183911
0.158209
0.128966
0.0964348
0.0581534
0.0242109
0.229718
0.225863
0.218159
0.21375
0.213815
0.214467
0.214237
0.213934
0.213902
0.213835
0.213563
0.21316
0.212777
0.212664
0.213322
0.215546
0.220069
0.226885
0.234968
0.242177
0.245723
0.243107
0.233561
0.219089
0.20454
0.194194
0.18923
0.183678
0.169132
0.152563
0.160791
0.208491
0.276174
0.3161
0.304916
0.241595
0.157857
0.0798912
0.0246086
0.00339539
0.0159483
0.059644
0.123261
0.191906
0.255864
0.309298
0.350163
0.37889
0.397213
0.407352
0.411496
0.411523
0.408887
0.404629
0.39944
0.393742
0.387767
0.381622
0.37533
0.368867
0.362179
0.355194
0.347831
0.339997
0.331595
0.322518
0.312651
0.301865
0.290017
0.276946
0.262463
0.246351
0.228353
0.208172
0.18543
0.159761
0.130478
0.0978075
0.0591081
0.0247711
0.235084
0.22891
0.218486
0.21381
0.214651
0.215576
0.215373
0.215217
0.215388
0.215505
0.215427
0.215263
0.215182
0.215435
0.216479
0.218995
0.223562
0.230075
0.237582
0.244287
0.247967
0.246792
0.240399
0.230672
0.221572
0.216804
0.216701
0.212186
0.189443
0.15648
0.152899
0.20114
0.275734
0.319856
0.311362
0.247881
0.166639
0.090593
0.0361219
0.0150406
0.0269813
0.0691492
0.131532
0.198576
0.261453
0.314224
0.35474
0.383292
0.401505
0.411527
0.415513
0.415326
0.412428
0.407875
0.402376
0.396371
0.390108
0.383701
0.377182
0.370527
0.363682
0.356574
0.349117
0.341218
0.332774
0.323677
0.313806
0.303034
0.291214
0.278182
0.263752
0.247703
0.229777
0.209671
0.187
0.161383
0.132082
0.0992967
0.060153
0.0254367
0.240656
0.231324
0.218095
0.213716
0.215455
0.216538
0.216356
0.216374
0.216732
0.217005
0.217094
0.217137
0.217308
0.217853
0.219195
0.22193
0.226526
0.232831
0.239977
0.246449
0.250452
0.250608
0.246795
0.240738
0.235858
0.236118
0.241736
0.239175
0.207699
0.157142
0.14164
0.188936
0.267442
0.314337
0.308785
0.250543
0.175012
0.102803
0.0502133
0.0293898
0.0405461
0.0808906
0.140651
0.205854
0.267134
0.318778
0.358627
0.386818
0.404833
0.414726
0.418591
0.418266
0.415199
0.410452
0.404742
0.398522
0.392051
0.385453
0.378764
0.371965
0.365004
0.357804
0.350279
0.342336
0.333867
0.324763
0.314901
0.304151
0.292366
0.279381
0.265009
0.249029
0.23118
0.211158
0.188568
0.163018
0.13372
0.100858
0.0612587
0.026209
0.246476
0.232987
0.217083
0.213586
0.216225
0.217353
0.217215
0.217424
0.217946
0.218349
0.218585
0.218805
0.219184
0.219964
0.22154
0.224441
0.22906
0.235223
0.24215
0.248559
0.252984
0.254355
0.252673
0.249453
0.247911
0.252973
0.264677
0.264049
0.224268
0.158884
0.134432
0.178914
0.257615
0.304639
0.300332
0.250981
0.182914
0.115093
0.0646068
0.0440533
0.0543153
0.0925261
0.149566
0.212611
0.27221
0.322635
0.361725
0.389506
0.407314
0.4171
0.420893
0.420492
0.417331
0.412467
0.406622
0.400259
0.393644
0.386909
0.380098
0.373194
0.366148
0.358882
0.351313
0.343342
0.334862
0.32576
0.315915
0.305194
0.293449
0.280515
0.266204
0.250295
0.232527
0.212592
0.190089
0.16462
0.135345
0.10245
0.0623966
0.0270825
0.252549
0.23379
0.215597
0.21351
0.216943
0.218034
0.217978
0.21838
0.219041
0.219555
0.21992
0.220292
0.220845
0.221815
0.223574
0.226603
0.231241
0.237306
0.244106
0.250555
0.255439
0.257909
0.257992
0.256987
0.258164
0.267543
0.284362
0.284457
0.238056
0.16302
0.133541
0.174538
0.249893
0.293483
0.289847
0.250715
0.19016
0.126497
0.0778582
0.0573971
0.0666983
0.102849
0.157398
0.218355
0.276379
0.325699
0.364062
0.391462
0.409095
0.418808
0.422571
0.422145
0.418945
0.414022
0.408099
0.401646
0.394935
0.388107
0.38121
0.374232
0.367127
0.359817
0.35222
0.344235
0.335753
0.326663
0.316841
0.306152
0.294449
0.281568
0.267318
0.251481
0.233792
0.213946
0.191534
0.166154
0.136919
0.104035
0.0635443
0.0280472
0.258857
0.233658
0.213813
0.213537
0.217585
0.218601
0.218669
0.219253
0.220027
0.220637
0.221116
0.221619
0.222317
0.223443
0.225351
0.22848
0.233131
0.23913
0.245862
0.252409
0.257757
0.261218
0.262788
0.263538
0.266773
0.279211
0.298932
0.298579
0.248146
0.168283
0.136969
0.175381
0.245656
0.28215
0.280019
0.250371
0.196752
0.136613
0.0893888
0.0687866
0.0771082
0.111437
0.16384
0.222958
0.279609
0.327992
0.36574
0.392815
0.410316
0.419994
0.423762
0.423348
0.420149
0.415207
0.409248
0.402743
0.395973
0.389084
0.382129
0.375102
0.367958
0.36062
0.353008
0.345018
0.336543
0.32747
0.317673
0.307018
0.295359
0.282529
0.26834
0.252572
0.234961
0.215201
0.192879
0.167595
0.138413
0.105582
0.0646831
0.0290849
0.265346
0.232579
0.211911
0.213676
0.218131
0.219077
0.219302
0.220047
0.220913
0.221608
0.222188
0.222804
0.223625
0.224881
0.226907
0.230116
0.234777
0.240729
0.247429
0.254103
0.259905
0.264253
0.267076
0.269121
0.273442
0.28714
0.307526
0.306675
0.254876
0.173575
0.142409
0.179974
0.244259
0.272351
0.271777
0.250225
0.2027
0.145337
0.0990424
0.0781147
0.0855076
0.118293
0.168913
0.22649
0.281992
0.329608
0.366879
0.393691
0.411106
0.42078
0.42458
0.424204
0.421033
0.416101
0.410133
0.403604
0.396801
0.389874
0.382883
0.375824
0.368652
0.361305
0.353685
0.345698
0.337234
0.32818
0.31841
0.307791
0.296174
0.283394
0.269262
0.25356
0.236023
0.216346
0.194111
0.168924
0.139806
0.107062
0.0657974
0.0301715
0.271935
0.230577
0.21005
0.213911
0.218574
0.219486
0.219885
0.220766
0.221706
0.222476
0.223143
0.223855
0.224778
0.226139
0.228261
0.231529
0.236195
0.242111
0.248796
0.255605
0.26181
0.266911
0.270699
0.273463
0.27783
0.291319
0.311137
0.310306
0.259099
0.178643
0.149117
0.186229
0.245091
0.265431
0.265607
0.250312
0.207962
0.152729
0.106926
0.0855359
0.092081
0.123593
0.17277
0.229094
0.283666
0.330677
0.367586
0.3942
0.411571
0.421267
0.425116
0.424796
0.42167
0.416767
0.410809
0.404275
0.397456
0.390509
0.383497
0.376419
0.369236
0.361881
0.354261
0.346281
0.337832
0.328798
0.319056
0.308469
0.296893
0.284159
0.270082
0.254441
0.236974
0.217375
0.195224
0.170132
0.141085
0.108454
0.0668756
0.0312809
0.278529
0.227747
0.208343
0.214197
0.218917
0.219843
0.220417
0.221403
0.222399
0.22323
0.223967
0.224754
0.225756
0.227196
0.229385
0.232693
0.237355
0.243241
0.249931
0.256826
0.263343
0.268984
0.273368
0.276323
0.280157
0.292855
0.311795
0.311173
0.261439
0.183322
0.156277
0.192975
0.247161
0.261653
0.261697
0.250474
0.212422
0.158888
0.113257
0.0913145
0.0970946
0.127578
0.175605
0.230935
0.284772
0.331318
0.367959
0.394439
0.411797
0.421533
0.425446
0.425191
0.42212
0.417255
0.411319
0.404792
0.39797
0.391015
0.383992
0.376905
0.369718
0.362361
0.354745
0.346775
0.33834
0.329327
0.319611
0.309057
0.297518
0.284828
0.2708
0.255216
0.237813
0.218286
0.196214
0.171215
0.142241
0.109743
0.0679094
0.0323894
0.285038
0.224222
0.206859
0.214487
0.219165
0.220143
0.220869
0.221926
0.222959
0.22383
0.224614
0.225451
0.226503
0.227994
0.230225
0.233555
0.238215
0.244057
0.250734
0.257691
0.264394
0.270334
0.274992
0.277875
0.28116
0.29314
0.311292
0.310652
0.262408
0.187387
0.162383
0.19882
0.249743
0.26025
0.259716
0.250541
0.215899
0.163879
0.118273
0.0957386
0.10083
0.130491
0.177614
0.232167
0.285437
0.331635
0.368087
0.394485
0.411852
0.421643
0.425626
0.425441
0.422429
0.417608
0.411699
0.405186
0.398369
0.391412
0.384383
0.377298
0.37011
0.362755
0.355146
0.347187
0.338767
0.329774
0.320083
0.309557
0.298052
0.285402
0.27142
0.255887
0.238543
0.219083
0.197084
0.172173
0.143272
0.110918
0.0688929
0.0334782
0.291383
0.220158
0.205637
0.214742
0.219329
0.22037
0.221202
0.222295
0.223344
0.224237
0.225047
0.22591
0.22699
0.228508
0.230761
0.234099
0.238747
0.244569
0.251233
0.258216
0.264998
0.271056
0.275796
0.278572
0.28155
0.293083
0.31054
0.309691
0.262649
0.190505
0.167057
0.203161
0.252054
0.260249
0.258908
0.250493
0.218175
0.167668
0.122153
0.0990721
0.10355
0.132558
0.178976
0.232932
0.285771
0.331714
0.368043
0.394399
0.411793
0.421647
0.425702
0.425587
0.422634
0.417856
0.411977
0.405482
0.398674
0.391721
0.384696
0.377612
0.370425
0.363075
0.355474
0.347524
0.33912
0.330145
0.320476
0.309977
0.298502
0.285887
0.271946
0.25646
0.239168
0.219769
0.197837
0.173007
0.144179
0.111969
0.0698197
0.0345334
0.297566
0.215825
0.204705
0.214935
0.219413
0.220504
0.221398
0.222504
0.223559
0.224461
0.225283
0.226159
0.227253
0.228785
0.23105
0.234393
0.239038
0.244851
0.251507
0.258493
0.265292
0.271373
0.276114
0.278831
0.281721
0.293063
0.310107
0.30877
0.262557
0.192588
0.170258
0.206032
0.253671
0.260718
0.258669
0.250342
0.219213
0.17013
0.124945
0.101498
0.105473
0.13397
0.179846
0.233348
0.285867
0.33163
0.367884
0.394238
0.411665
0.421587
0.425713
0.425664
0.422765
0.418029
0.412178
0.405702
0.398905
0.391957
0.384939
0.377857
0.370674
0.36333
0.355736
0.347796
0.339407
0.330448
0.320798
0.310322
0.298875
0.286292
0.272387
0.256942
0.239697
0.220352
0.19848
0.173725
0.144966
0.112895
0.070683
0.0355472
0.30373
0.211737
0.204071
0.215052
0.219431
0.220553
0.221478
0.222591
0.223648
0.224555
0.225383
0.226264
0.227365
0.228903
0.231178
0.234529
0.239178
0.244992
0.251645
0.258627
0.265419
0.271486
0.276203
0.278899
0.28182
0.293154
0.309948
0.308101
0.262259
0.193685
0.172187
0.207726
0.254584
0.261117
0.258633
0.250105
0.219407
0.171258
0.126589
0.10306
0.106724
0.134859
0.180338
0.23351
0.285803
0.331448
0.367669
0.394042
0.411513
0.421501
0.425693
0.425702
0.422851
0.418151
0.412325
0.405866
0.399079
0.392139
0.385126
0.378048
0.37087
0.363531
0.355945
0.348014
0.339637
0.330694
0.321062
0.310607
0.299184
0.286629
0.272756
0.257348
0.240145
0.220848
0.199032
0.174345
0.145654
0.113711
0.0714882
0.0365367
0.309826
0.208531
0.203674
0.215101
0.219411
0.220546
0.221485
0.222604
0.223666
0.224576
0.225406
0.226291
0.227394
0.228939
0.231224
0.234583
0.239241
0.245062
0.251717
0.258695
0.265477
0.271523
0.27621
0.278894
0.28188
0.293296
0.309976
0.307697
0.26184
0.193949
0.173113
0.208619
0.255031
0.261323
0.258634
0.249888
0.21926
0.171457
0.127195
0.103776
0.107344
0.135285
0.180519
0.233483
0.285639
0.331223
0.367446
0.393854
0.411376
0.421423
0.425672
0.42573
0.422918
0.418246
0.412441
0.405995
0.399217
0.392284
0.385277
0.378203
0.37103
0.363697
0.356119
0.348198
0.339833
0.330904
0.321288
0.310853
0.299452
0.286923
0.27308
0.257706
0.240542
0.221291
0.199527
0.174904
0.14628
0.114457
0.0722553
0.0375494
0.314553
0.206588
0.203449
0.215128
0.219389
0.220522
0.221469
0.222594
0.223659
0.22457
0.225402
0.226289
0.227396
0.228947
0.231238
0.234606
0.239274
0.245103
0.251763
0.25874
0.265512
0.271542
0.276205
0.278876
0.281909
0.293416
0.310071
0.307525
0.26146
0.193773
0.17339
0.209018
0.255254
0.261404
0.258642
0.249756
0.219091
0.171361
0.127257
0.103934
0.107489
0.135326
0.180457
0.23333
0.285432
0.331006
0.367253
0.393703
0.411272
0.421368
0.425662
0.425757
0.422975
0.418326
0.412538
0.406103
0.399333
0.392405
0.385402
0.378333
0.371165
0.363837
0.356266
0.348354
0.339999
0.331082
0.321482
0.311063
0.299683
0.287176
0.273359
0.258015
0.240886
0.221674
0.199955
0.175389
0.146822
0.115109
0.0729243
0.0385175
)
;

boundaryField
{
    inlet
    {
        type            zeroGradient;
    }
    outlet
    {
        type            fixedValue;
        value           uniform 0;
    }
    fixedWalls
    {
        type            zeroGradient;
    }
    frontAndBack
    {
        type            empty;
    }
}


// ************************************************************************* //
