/*--------------------------------*- C++ -*----------------------------------*\
| =========                 |                                                 |
| \\      /  F ield         | OpenFOAM: The Open Source CFD Toolbox           |
|  \\    /   O peration     | Version:  v1912                                 |
|   \\  /    A nd           | Website:  www.openfoam.com                      |
|    \\/     M anipulation  |                                                 |
\*---------------------------------------------------------------------------*/
FoamFile
{
    version     2.0;
    format      ascii;
    class       volVectorField;
    location    "25";
    object      U;
}
// * * * * * * * * * * * * * * * * * * * * * * * * * * * * * * * * * * * * * //

dimensions      [0 1 -1 0 0 0 0];


internalField   nonuniform List<vector> 
2000
(
(0.846159 0.187397 0)
(0.515122 0.124097 0)
(0.223412 0.0684484 0)
(0.0598056 0.0174107 6.15091e-20)
(-0.00439475 -0.0227603 2.34145e-17)
(-0.0650203 -0.0371385 2.08727e-17)
(-0.0785068 -0.0379736 0)
(-0.0715708 -0.0222831 0)
(-0.0576584 0.000870206 0)
(-0.035492 0.017514 4.74289e-17)
(-0.0351502 0.00956304 -2.91819e-17)
(-0.0264648 -0.00153122 -2.7083e-17)
(-0.0186583 -0.00266105 0)
(-0.0165084 0.000405416 0)
(-0.00967498 -0.00341723 -2.1348e-17)
(0.00985011 -0.0126165 0)
(0.0395832 -0.0220564 1.80493e-17)
(0.0738389 -0.0269731 7.57584e-20)
(0.0993055 -0.0244391 1.66763e-17)
(0.109456 -0.0193886 -8.35674e-18)
(0.097599 -0.0108458 1.64489e-17)
(0.0474942 0.0336752 0)
(-0.0702361 0.0999821 0)
(-0.237391 0.146311 -5.37845e-19)
(-0.412689 0.152962 0)
(-0.559786 0.123916 1.00677e-18)
(-0.655523 0.0768722 0)
(-0.692926 0.0286734 -9.00747e-19)
(-0.678609 -0.012025 0)
(-0.636223 -0.0429478 0)
(-0.568412 -0.0662829 0)
(-0.481286 -0.0827239 9.4772e-19)
(-0.380749 -0.0923962 0)
(-0.273765 -0.0953259 -1.20118e-18)
(-0.166617 -0.0923759 5.58561e-14)
(-0.0638351 -0.0842098 6.98095e-14)
(0.0287865 -0.0722956 2.32432e-18)
(0.108637 -0.0572349 -2.19191e-18)
(0.176122 -0.0421098 0)
(0.227262 -0.0281893 8.17644e-18)
(0.261631 -0.016305 0)
(0.281245 -0.00669763 -7.82543e-18)
(0.289114 0.000907033 0)
(0.288634 0.00734587 -1.53008e-17)
(0.283881 0.0122926 7.68115e-18)
(0.277503 0.0156249 0)
(0.271224 0.0176338 0)
(0.26622 0.0186544 -7.89684e-18)
(0.26319 0.0190218 0)
(0.262443 0.019046 8.10053e-18)
(0.263996 0.0189133 0)
(0.267706 0.0187494 1.67166e-17)
(0.273419 0.0188598 -1.69192e-17)
(0.281047 0.0193968 1.71092e-17)
(0.290364 0.0204006 -8.62289e-18)
(0.301091 0.0218723 0)
(0.31297 0.0237799 8.76684e-18)
(0.325778 0.0260741 -8.82049e-18)
(0.339335 0.0287017 -1.77753e-17)
(0.353513 0.0316136 1.77753e-17)
(0.368231 0.0347687 -1.77991e-17)
(0.383453 0.0381356 1.77912e-17)
(0.39918 0.0416932 -1.77488e-17)
(0.415445 0.0454301 1.77828e-17)
(0.432308 0.0493435 -1.30178e-19)
(0.449849 0.0534383 1.73744e-17)
(0.468167 0.057726 0)
(0.487375 0.0622234 0)
(0.507601 0.0669522 2.06592e-19)
(0.528991 0.071938 0)
(0.551706 0.0772099 1.57726e-17)
(0.575931 0.0827998 0)
(0.601871 0.0887414 1.43881e-17)
(0.629815 0.0950686 -3.52348e-19)
(0.659957 0.101811 1.23699e-17)
(0.693101 0.108988 2.16479e-17)
(0.72848 0.116583 4.71696e-19)
(0.771276 0.12452 -7.47036e-18)
(0.808048 0.13236 -4.95184e-18)
(0.887373 0.139524 0)
(1.0153 0.210392 0)
(0.944627 0.194236 0)
(0.804437 0.180021 -6.32637e-18)
(0.65433 0.152339 1.32615e-17)
(0.509174 0.111271 0)
(0.359725 0.0686829 -1.46058e-17)
(0.216799 0.0298295 0)
(0.0829436 -0.00427468 0)
(-0.0278365 -0.0188297 0)
(-0.0634453 -0.0160735 -3.44598e-17)
(-0.0725689 -0.014685 3.11745e-17)
(-0.0787773 -0.00466618 2.85532e-17)
(-0.0816771 0.00986635 0)
(-0.0916545 0.00983094 1.17088e-17)
(-0.105151 -0.00658385 0)
(-0.110906 -0.0274073 0)
(-0.100247 -0.0424203 0)
(-0.0644656 -0.0453251 9.65895e-18)
(-0.0205162 -0.0342645 -2.00091e-17)
(0.00909999 -0.00492473 -1.03836e-17)
(0.0074009 0.0613437 0)
(-0.0535465 0.170346 0)
(-0.175275 0.276773 0)
(-0.308252 0.330116 -5.11705e-18)
(-0.405734 0.309561 0)
(-0.441796 0.230688 -1.18205e-18)
(-0.421891 0.126532 -2.66896e-18)
(-0.376357 0.0240231 0)
(-0.33632 -0.0616882 0)
(-0.275055 -0.130021 0)
(-0.201626 -0.186131 0)
(-0.117377 -0.230768 -8.71898e-19)
(-0.0257848 -0.26062 0)
(0.0685768 -0.271875 8.10955e-19)
(0.161719 -0.265703 4.00984e-19)
(0.250207 -0.245884 0)
(0.330109 -0.215771 0)
(0.398329 -0.176713 1.75295e-18)
(0.452535 -0.131836 0)
(0.490555 -0.0847722 -3.50307e-18)
(0.511198 -0.0397828 0)
(0.515052 -0.0015796 -3.37148e-18)
(0.505364 0.0262819 0)
(0.486296 0.0432388 3.66871e-18)
(0.461053 0.0507624 3.49819e-18)
(0.433776 0.0514499 0)
(0.407946 0.0480394 0)
(0.385747 0.0426936 -7.71651e-18)
(0.368366 0.0368168 0)
(0.356228 0.0312047 -5.43811e-20)
(0.349253 0.0262481 0)
(0.347049 0.0221258 0)
(0.348867 0.0190048 0)
(0.353777 0.0169843 0)
(0.36107 0.0160498 1.79964e-17)
(0.370201 0.0161444 0)
(0.380733 0.0171826 -1.8346e-17)
(0.392333 0.0190439 9.2516e-18)
(0.404771 0.0215877 -9.2859e-18)
(0.417898 0.0246766 -1.8711e-17)
(0.431634 0.028189 1.87701e-17)
(0.445955 0.0320255 -1.87946e-17)
(0.460876 0.036112 1.87809e-17)
(0.476448 0.0403986 0)
(0.492744 0.0448572 -2.78495e-17)
(0.509856 0.0494788 -1.84614e-17)
(0.527891 0.0542696 0)
(0.546969 0.0592478 8.86023e-18)
(0.567221 0.064441 1.75839e-17)
(0.588793 0.0698833 0)
(0.611845 0.0756132 0)
(0.63656 0.0816706 0)
(0.663134 0.0880939 0)
(0.691837 0.0949134 -1.40205e-17)
(0.722842 0.102142 6.16437e-18)
(0.756865 0.10975 -1.13438e-17)
(0.793052 0.117632 9.57073e-18)
(0.836123 0.125479 -3.4475e-18)
(0.871436 0.132598 0)
(0.945279 0.137743 0)
(0.97849 0.201547 0)
(0.978856 0.193041 -5.70153e-18)
(0.969151 0.205174 6.24091e-18)
(0.939048 0.208622 -5.72489e-18)
(0.877999 0.194747 5.53215e-18)
(0.785535 0.168856 5.53996e-18)
(0.669376 0.138066 0)
(0.54074 0.105952 0)
(0.407695 0.074884 0)
(0.282724 0.0461748 1.38533e-17)
(0.169305 0.0200803 0)
(0.0725307 -3.93075e-05 0)
(-0.00993878 0.00783296 0)
(-0.0366421 0.0221513 -1.37741e-17)
(-0.0674582 0.00535552 0)
(-0.107095 -0.0245665 -1.03431e-17)
(-0.140827 -0.0567846 0)
(-0.153558 -0.0790242 9.49678e-18)
(-0.124936 -0.0639409 5.1365e-18)
(-0.0709121 -0.00125071 0)
(-0.0334713 0.103988 -5.95484e-18)
(-0.0366388 0.238945 0)
(-0.068271 0.355735 0)
(-0.0931075 0.396983 3.30298e-18)
(-0.0880277 0.33909 0)
(-0.047186 0.205553 -1.63279e-18)
(0.00658162 0.0513633 6.9894e-18)
(0.0455947 -0.0640831 0)
(0.0884051 -0.148558 0)
(0.140902 -0.218663 3.85002e-19)
(0.203338 -0.282197 0)
(0.27188 -0.337365 -9.47281e-20)
(0.341986 -0.374756 0)
(0.411167 -0.388419 9.21287e-19)
(0.478899 -0.379789 1.28823e-19)
(0.544431 -0.353288 0)
(0.605497 -0.311908 3.04615e-19)
(0.658623 -0.257348 -6.31621e-19)
(0.700045 -0.192493 -6.48171e-19)
(0.72672 -0.122318 -1.33163e-18)
(0.7373 -0.053182 1.37938e-18)
(0.732562 0.00852105 1.78286e-18)
(0.713811 0.0579054 0)
(0.683838 0.091741 3.21161e-18)
(0.64632 0.109813 -6.40983e-18)
(0.605246 0.114154 0)
(0.564358 0.108051 -3.48781e-18)
(0.5267 0.0951721 7.49948e-18)
(0.494361 0.0788471 0)
(0.468428 0.0616987 -4.13552e-18)
(0.449141 0.0456068 4.30358e-18)
(0.43617 0.0317758 -4.47727e-18)
(0.428874 0.0207335 -4.60875e-18)
(0.426436 0.0125761 0)
(0.427858 0.00708919 -9.52916e-18)
(0.432242 0.00385809 -4.84094e-18)
(0.438874 0.00243515 4.87679e-18)
(0.447176 0.00240326 4.94226e-18)
(0.45673 0.00340455 9.95631e-18)
(0.467266 0.00513973 0)
(0.478628 0.00737076 0)
(0.49075 0.00991856 0)
(0.503627 0.0126564 -5.03923e-18)
(0.517301 0.0155013 0)
(0.531842 0.0184055 1.00377e-17)
(0.547343 0.0213479 0)
(0.563911 0.0243269 -4.89104e-18)
(0.581663 0.0273548 -9.68456e-18)
(0.600729 0.0304524 0)
(0.621248 0.0336457 -4.57032e-18)
(0.643373 0.0369621 4.40689e-18)
(0.667276 0.0404268 0)
(0.693137 0.0440587 0)
(0.721203 0.0478638 0)
(0.751612 0.0518226 -6.78964e-18)
(0.784993 0.0558731 0)
(0.820401 0.0598568 -2.41905e-18)
(0.862236 0.0635123 3.80998e-18)
(0.89599 0.066176 0)
(0.967758 0.0675531 4.80554e-19)
(0.970611 0.209125 0)
(0.96392 0.194799 3.18816e-18)
(0.966443 0.198579 0)
(0.977177 0.20651 3.15489e-18)
(0.982074 0.209038 -5.75987e-18)
(0.968327 0.204423 -2.65971e-18)
(0.930705 0.193771 0)
(0.870423 0.177818 0)
(0.790449 0.156788 0)
(0.694353 0.132259 2.65607e-18)
(0.587981 0.107273 2.71467e-18)
(0.47987 0.0835379 0)
(0.371574 0.0642712 0)
(0.278301 0.0504217 0)
(0.208577 0.0373885 0)
(0.144044 0.0268517 1.11195e-17)
(0.0717169 -0.0085522 -5.71441e-18)
(-0.00729489 -0.0793273 0)
(-0.058431 -0.109442 -6.02037e-18)
(-0.069426 -0.0715589 3.65806e-18)
(0.00678072 0.0688176 7.07382e-18)
(0.0759381 0.219693 0)
(0.133853 0.335107 0)
(0.196519 0.368723 -1.55751e-18)
(0.267379 0.303543 0)
(0.338023 0.170787 1.43518e-18)
(0.391341 0.0274586 -1.97825e-18)
(0.42483 -0.0941529 0)
(0.45411 -0.193011 0)
(0.492441 -0.275619 -3.11679e-19)
(0.539865 -0.348553 0)
(0.588396 -0.408089 -2.78527e-19)
(0.631318 -0.444869 0)
(0.66966 -0.456256 -2.12203e-19)
(0.70882 -0.446545 -1.19798e-19)
(0.751257 -0.418992 -2.90166e-20)
(0.79461 -0.373158 -4.15157e-19)
(0.833773 -0.308359 6.19402e-19)
(0.863182 -0.227289 6.47178e-19)
(0.878649 -0.136903 1.88432e-18)
(0.878427 -0.0467048 -8.61888e-19)
(0.863244 0.0340067 8.53914e-19)
(0.835738 0.0984917 0)
(0.79953 0.143454 1.3336e-18)
(0.75804 0.1686 1.68177e-18)
(0.714288 0.17582 0)
(0.671008 0.168613 3.49108e-18)
(0.630529 0.151309 1.83389e-18)
(0.594586 0.128235 0)
(0.564241 0.10309 -6.27119e-18)
(0.53991 0.0786511 -4.40385e-18)
(0.521499 0.056721 2.28943e-18)
(0.50852 0.0382435 4.82339e-18)
(0.500266 0.0234967 0)
(0.496135 0.0124777 2.57411e-18)
(0.495492 0.00490983 7.79797e-18)
(0.497634 0.000251515 5.25879e-18)
(0.501987 -0.00212125 -5.32197e-18)
(0.508106 -0.00279726 -2.69545e-18)
(0.515662 -0.0022853 0)
(0.524434 -0.000994163 0)
(0.53429 0.000768101 0)
(0.545171 0.00278357 8.2222e-18)
(0.55707 0.00490946 2.73346e-18)
(0.570018 0.00706198 0)
(0.584076 0.00920085 -5.3957e-18)
(0.599326 0.0113163 5.35257e-18)
(0.615865 0.0134185 -5.24321e-18)
(0.633805 0.01553 -5.12934e-18)
(0.653272 0.0176793 3.30131e-20)
(0.674407 0.0198962 -4.8441e-18)
(0.697367 0.022208 0)
(0.722318 0.0246348 0)
(0.74948 0.0271838 0)
(0.778963 0.0298396 0)
(0.811311 0.0325516 0)
(0.845598 0.0351991 5.29817e-18)
(0.885719 0.0375765 -1.98944e-18)
(0.918232 0.0393317 0)
(0.984396 0.0396579 -5.3616e-19)
(0.972989 0.216088 0)
(0.965835 0.201837 3.75336e-18)
(0.959219 0.195653 4.7234e-19)
(0.961521 0.195628 3.58415e-18)
(0.972728 0.197654 0)
(0.985609 0.199382 -3.07998e-18)
(0.992581 0.199469 0)
(0.988482 0.196516 -6.92301e-19)
(0.970181 0.189611 0)
(0.935838 0.178782 -3.14274e-18)
(0.885545 0.164659 -2.44009e-18)
(0.821929 0.14813 -6.05084e-19)
(0.748538 0.12985 5.93153e-19)
(0.670473 0.109842 0)
(0.596509 0.0879561 5.6342e-19)
(0.525022 0.065217 0)
(0.462042 0.0400776 4.53597e-18)
(0.405148 0.0143568 -6.48119e-19)
(0.326631 -0.0166731 0)
(0.203519 -0.0627363 -4.57417e-18)
(0.117901 -0.0388895 0)
(0.180552 0.0971186 0)
(0.299544 0.224929 0)
(0.425182 0.273781 0)
(0.5375 0.229092 -4.46915e-20)
(0.624482 0.122016 0)
(0.679249 -0.00522805 0)
(0.707136 -0.124369 -4.5054e-20)
(0.729131 -0.226281 0)
(0.759235 -0.314628 0)
(0.791685 -0.389598 0)
(0.813705 -0.44369 -2.23598e-20)
(0.821847 -0.472701 0)
(0.826699 -0.482306 -1.99961e-19)
(0.839657 -0.477957 0)
(0.862081 -0.456777 2.96951e-20)
(0.88902 -0.412302 1.51071e-19)
(0.914141 -0.341559 2.43458e-20)
(0.931439 -0.247971 -4.77788e-20)
(0.936794 -0.141002 -5.76627e-19)
(0.928373 -0.0332791 -6.24671e-19)
(0.906242 0.0630984 6.3561e-19)
(0.873359 0.139248 -1.34671e-19)
(0.834441 0.191407 -1.41547e-18)
(0.79323 0.219916 1.52624e-18)
(0.752257 0.227528 -1.96461e-19)
(0.71322 0.218369 0)
(0.67729 0.197217 -1.92394e-18)
(0.645282 0.168836 0)
(0.617726 0.137439 2.20387e-18)
(0.59487 0.10635 0)
(0.576686 0.0778865 2.46812e-18)
(0.562917 0.0534111 0)
(0.553155 0.0335131 -6.82894e-19)
(0.546904 0.01813 -2.78615e-18)
(0.543625 0.00682106 -2.84769e-18)
(0.542919 -0.00100246 7.28719e-19)
(0.544439 -0.00601774 0)
(0.547882 -0.00890743 2.95443e-18)
(0.553006 -0.010276 -7.4768e-19)
(0.559628 -0.0106195 0)
(0.567621 -0.010321 7.54044e-19)
(0.576904 -0.00965976 -3.01519e-18)
(0.58744 -0.00882707 -3.01187e-18)
(0.599222 -0.00794426 0)
(0.612274 -0.00707976 5.95367e-18)
(0.626643 -0.00626419 0)
(0.642396 -0.00550273 5.79223e-18)
(0.659619 -0.00478479 5.6696e-18)
(0.678415 -0.00409129 5.51367e-18)
(0.698908 -0.00340006 6.62979e-19)
(0.721238 -0.0026901 0)
(0.745557 -0.00194521 0)
(0.772067 -0.00115776 0)
(0.800861 -0.000334361 -4.99368e-19)
(0.832439 0.000496998 0)
(0.865865 0.00127328 -2.55326e-18)
(0.904853 0.0018702 2.48997e-18)
(0.93633 0.00216785 1.68208e-19)
(1.00057 0.00155181 7.11507e-20)
(0.974195 0.218519 -2.34308e-18)
(0.970939 0.206388 2.25492e-18)
(0.96513 0.198215 -5.34497e-19)
(0.961166 0.194174 0)
(0.962252 0.19203 0)
(0.96836 0.190665 0)
(0.97793 0.190061 0)
(0.988744 0.18977 2.37168e-18)
(0.997822 0.188806 0)
(1.00174 0.186178 -2.11045e-18)
(0.997484 0.181047 -2.644e-18)
(0.983257 0.173025 6.14742e-19)
(0.95917 0.162088 1.80224e-18)
(0.926133 0.147195 0)
(0.886366 0.127397 -2.70372e-18)
(0.841267 0.10363 0)
(0.794211 0.0769928 -2.20208e-18)
(0.743317 0.0491355 5.68971e-19)
(0.684249 0.030518 -2.72224e-18)
(0.621709 0.0309552 -2.31458e-18)
(0.53523 0.0348704 0)
(0.457955 0.0526662 0)
(0.474729 0.104586 -1.26533e-18)
(0.570248 0.139991 0)
(0.681179 0.115731 -3.39025e-19)
(0.769362 0.0388285 0)
(0.828563 -0.06243 0)
(0.872327 -0.166292 4.46274e-20)
(0.911684 -0.262191 0)
(0.944185 -0.344422 0)
(0.957995 -0.405829 0)
(0.94571 -0.442529 2.32016e-20)
(0.917458 -0.462506 1.65203e-19)
(0.894758 -0.477551 1.2177e-19)
(0.886194 -0.485305 0)
(0.886684 -0.472919 0)
(0.892097 -0.430766 -2.76242e-20)
(0.898902 -0.356321 -1.03672e-19)
(0.902303 -0.254249 5.40942e-20)
(0.89886 -0.135609 0)
(0.886162 -0.01489 0)
(0.862866 0.0929398 -1.8819e-19)
(0.831393 0.176649 1.50034e-19)
(0.796604 0.232147 -5.88846e-19)
(0.76192 0.260722 7.09096e-19)
(0.729323 0.266365 2.1519e-19)
(0.699732 0.254155 0)
(0.673413 0.229374 1.04579e-18)
(0.650352 0.197033 0)
(0.630492 0.161515 0)
(0.61376 0.126307 0)
(0.600052 0.0938765 0)
(0.589219 0.0656987 0)
(0.581076 0.0424098 7.43648e-19)
(0.57542 0.0240115 0)
(0.572047 0.0100882 3.2063e-18)
(0.570749 -1.85275e-05 -8.07856e-19)
(0.571351 -0.00704256 0)
(0.573714 -0.0116997 3.32406e-18)
(0.57772 -0.0146344 8.31383e-19)
(0.583271 -0.0163853 3.35689e-18)
(0.59029 -0.0173729 -8.38487e-19)
(0.598719 -0.0179084 0)
(0.608524 -0.0182098 -3.35829e-18)
(0.619689 -0.0184205 0)
(0.632218 -0.0186275 0)
(0.646138 -0.0188762 -3.27317e-18)
(0.661492 -0.0191841 0)
(0.678348 -0.0195507 0)
(0.696792 -0.0199652 -3.06073e-18)
(0.716931 -0.0204121 -7.38002e-19)
(0.738894 -0.0208752 0)
(0.762823 -0.0213395 0)
(0.78891 -0.0217937 0)
(0.817241 -0.0222306 5.56771e-19)
(0.848295 -0.0226495 -1.94419e-18)
(0.881158 -0.0230541 -4.03448e-19)
(0.919403 -0.0234832 -3.06673e-19)
(0.950343 -0.0238622 -1.88341e-19)
(1.01285 -0.0248457 -3.97613e-19)
(0.974501 0.219014 8.13184e-18)
(0.973761 0.208057 -7.78632e-18)
(0.971726 0.20046 0)
(0.969186 0.196261 -4.69626e-18)
(0.967107 0.193005 0)
(0.966263 0.189403 -4.16538e-18)
(0.967589 0.185944 0)
(0.971959 0.183192 5.54976e-18)
(0.979485 0.181004 -6.92098e-18)
(0.989216 0.178847 3.20101e-18)
(0.999426 0.176065 2.99324e-18)
(1.00802 0.171911 0)
(1.0132 0.165593 -7.97e-18)
(1.01347 0.155751 -5.04173e-18)
(1.0074 0.141155 7.08705e-18)
(0.993881 0.12199 0)
(0.972649 0.0995849 2.23262e-18)
(0.943553 0.0783502 0)
(0.906948 0.0654777 2.63355e-18)
(0.867214 0.0650314 2.89198e-18)
(0.826517 0.07814 0)
(0.785929 0.0954792 0)
(0.766838 0.105936 -1.20017e-18)
(0.79249 0.09724 0)
(0.850267 0.0569953 4.14e-19)
(0.915701 -0.0131897 0)
(0.977057 -0.103251 0)
(1.02748 -0.199756 0)
(1.05974 -0.286967 0)
(1.06747 -0.352224 0)
(1.04587 -0.390603 0)
(0.998111 -0.40991 0)
(0.944473 -0.429402 2.37396e-19)
(0.902992 -0.455748 -1.09024e-19)
(0.86745 -0.472447 6.17313e-20)
(0.834264 -0.464269 0)
(0.811297 -0.425008 0)
(0.797975 -0.351441 8.9401e-20)
(0.788073 -0.247181 -1.76877e-19)
(0.778333 -0.123961 1.53491e-19)
(0.766042 0.00319081 0)
(0.747825 0.117041 8.14694e-19)
(0.725052 0.204299 -8.78882e-19)
(0.701806 0.260418 -5.24004e-19)
(0.680297 0.287391 -8.04655e-19)
(0.661591 0.290308 0)
(0.645908 0.275125 0)
(0.632862 0.247554 -3.52771e-18)
(0.621902 0.212701 0)
(0.612581 0.174893 0)
(0.604623 0.137533 0)
(0.597897 0.103035 3.13522e-18)
(0.592376 0.0728574 6.55535e-18)
(0.58809 0.0476453 0)
(0.585096 0.0274107 0)
(0.583449 0.0117362 -3.55425e-18)
(0.583198 -3.10024e-05 0)
(0.584379 -0.00863163 7.45852e-18)
(0.587012 -0.0147918 3.78782e-18)
(0.591098 -0.0191538 0)
(0.596626 -0.0222559 3.8052e-18)
(0.603578 -0.0245234 7.57893e-18)
(0.611931 -0.0262739 7.57119e-18)
(0.621666 -0.027733 3.76144e-18)
(0.632772 -0.0290544 -7.50197e-18)
(0.645251 -0.0303366 7.43447e-18)
(0.65912 -0.0316379 1.10026e-17)
(0.674417 -0.0329887 0)
(0.691197 -0.0344008 0)
(0.70954 -0.0358752 3.42259e-18)
(0.729544 -0.0374065 0)
(0.751337 -0.0389866 6.3148e-18)
(0.775056 -0.0406055 5.95218e-18)
(0.800893 -0.0422515 0)
(0.828937 -0.043908 4.99151e-18)
(0.85967 -0.0455513 -2.19028e-18)
(0.892196 -0.0471313 0)
(0.930054 -0.0486174 0)
(0.960702 -0.0497655 0)
(1.02265 -0.0511656 -3.61412e-19)
(0.974733 0.218941 -6.21049e-18)
(0.975462 0.208219 5.93646e-18)
(0.97607 0.201087 -1.14059e-17)
(0.975965 0.197406 5.31153e-18)
(0.97493 0.19451 0)
(0.973298 0.190847 4.71108e-18)
(0.971656 0.186658 -8.9692e-18)
(0.970764 0.182428 -8.39144e-18)
(0.971506 0.17823 -7.86311e-20)
(0.974609 0.174008 0)
(0.98036 0.16967 0)
(0.98843 0.164875 6.65627e-18)
(0.997919 0.158933 6.13543e-18)
(1.00738 0.150721 -6.03286e-18)
(1.01466 0.139126 -1.65823e-17)
(1.01728 0.123952 0)
(1.01323 0.106735 0)
(1.00204 0.0913527 0)
(0.985176 0.0821412 0)
(0.967011 0.0822626 0)
(0.95554 0.0937372 0)
(0.955485 0.109099 0)
(0.967584 0.113479 2.5005e-18)
(0.99518 0.0940338 -4.1895e-18)
(1.03753 0.0458763 0)
(1.08249 -0.0291249 0)
(1.1167 -0.121065 0)
(1.13159 -0.212924 0)
(1.12614 -0.287348 0)
(1.10363 -0.33404 -4.97298e-19)
(1.06179 -0.354255 0)
(1.00194 -0.365311 0)
(0.93894 -0.388761 6.61004e-20)
(0.872472 -0.417786 0)
(0.79036 -0.432182 -7.1691e-20)
(0.71576 -0.428445 0)
(0.669894 -0.399899 2.00581e-19)
(0.642589 -0.334038 0)
(0.622549 -0.232828 3.33649e-19)
(0.608886 -0.1106 -1.95424e-19)
(0.599918 0.0172399 -2.25293e-19)
(0.589831 0.131935 -7.19823e-19)
(0.579691 0.219104 1.04542e-18)
(0.572384 0.273912 1.40485e-18)
(0.568182 0.298695 3.42339e-18)
(0.56682 0.299228 4.17518e-18)
(0.567684 0.28198 0)
(0.569864 0.252873 -2.76052e-18)
(0.572498 0.216987 0)
(0.574975 0.178499 0)
(0.576967 0.140638 -6.82511e-18)
(0.578403 0.105677 -3.52147e-18)
(0.5794 0.0749867 1.25785e-19)
(0.580196 0.0491608 0)
(0.581086 0.0281935 0)
(0.582369 0.0116752 0)
(0.584317 -0.00102723 8.3015e-18)
(0.587155 -0.0106272 -8.35602e-18)
(0.591049 -0.0178222 -8.46355e-18)
(0.596118 -0.0232338 0)
(0.60243 -0.0273775 -8.54956e-18)
(0.610019 -0.0306608 3.92645e-20)
(0.6189 -0.0333937 -8.52592e-18)
(0.629078 -0.0358014 8.52125e-18)
(0.640555 -0.0380403 -2.89078e-20)
(0.653343 -0.0402146 -8.35129e-18)
(0.667462 -0.0423906 -8.24138e-18)
(0.682951 -0.0446077 0)
(0.699867 -0.0468872 0)
(0.718288 -0.0492393 0)
(0.738316 -0.051667 0)
(0.760076 -0.0541694 -7.08089e-18)
(0.783711 -0.0567411 -6.67435e-18)
(0.809418 -0.0593718 0)
(0.837297 -0.0620374 -5.59874e-18)
(0.867844 -0.0646978 9.82937e-18)
(0.900192 -0.067255 0)
(0.937891 -0.0696208 0)
(0.968479 -0.0713761 0)
(1.03029 -0.0731046 1.62977e-18)
(0.975035 0.218505 1.4819e-17)
(0.977132 0.207491 0)
(0.979637 0.200831 2.60016e-17)
(0.980972 0.197749 0)
(0.980803 0.195212 1.14336e-17)
(0.979936 0.191855 0)
(0.978822 0.187935 1.01364e-17)
(0.977465 0.183675 0)
(0.97609 0.178962 -9.20952e-18)
(0.975273 0.173734 0)
(0.975643 0.168028 1.6333e-17)
(0.977655 0.161745 -7.61515e-18)
(0.981419 0.15454 0)
(0.986497 0.145772 1.35461e-17)
(0.991602 0.134739 -3.14531e-19)
(0.994721 0.121338 -1.27065e-17)
(0.993887 0.10695 1.27546e-17)
(0.988529 0.09435 0)
(0.980392 0.086643 0)
(0.973635 0.086052 1.37487e-17)
(0.974636 0.0921459 0)
(0.989173 0.0990443 -6.46204e-18)
(1.01735 0.0962027 0)
(1.0541 0.0722985 4.70448e-18)
(1.09095 0.0218026 0)
(1.11755 -0.0506551 3.61612e-18)
(1.12547 -0.133057 0)
(1.11543 -0.212137 0)
(1.10133 -0.276022 1.3408e-18)
(1.08797 -0.312692 5.57697e-19)
(1.05849 -0.321372 0)
(1.00137 -0.323477 0)
(0.919879 -0.338452 -2.01417e-18)
(0.801632 -0.352971 0)
(0.65873 -0.363487 0)
(0.557278 -0.37797 0)
(0.504742 -0.369556 -2.43805e-19)
(0.468723 -0.312788 0)
(0.440185 -0.215771 -3.2759e-19)
(0.424085 -0.0976055 -1.09635e-20)
(0.418831 0.0267339 2.87302e-19)
(0.41662 0.138002 0)
(0.419806 0.221949 0)
(0.429614 0.273884 3.03842e-18)
(0.443859 0.296267 -4.03704e-18)
(0.460724 0.295099 -4.87756e-18)
(0.478667 0.27692 0)
(0.496307 0.247597 -9.60535e-20)
(0.512602 0.212059 6.95935e-18)
(0.526898 0.174267 0)
(0.538914 0.13723 7.76625e-18)
(0.548693 0.103039 8.27036e-18)
(0.556523 0.0729364 -8.46462e-18)
(0.562848 0.0474445 0)
(0.56818 0.0265359 0)
(0.573029 0.00981546 0)
(0.577852 -0.00331343 -9.34966e-18)
(0.583026 -0.0135159 0)
(0.588841 -0.0214376 0)
(0.5955 -0.0276506 0)
(0.603144 -0.0326324 1.95225e-17)
(0.611859 -0.0367627 -9.70455e-18)
(0.621692 -0.0403308 0)
(0.632671 -0.0435527 -9.6081e-18)
(0.64482 -0.0465825 -9.60288e-18)
(0.658164 -0.0495263 1.89283e-17)
(0.672736 -0.0524557 -1.86644e-17)
(0.688583 -0.055418 -1.83319e-17)
(0.70577 -0.0584426 0)
(0.72438 -0.0615492 -1.74101e-17)
(0.744522 -0.0647487 0)
(0.766326 -0.0680484 0)
(0.789941 -0.0714487 0)
(0.815574 -0.0749435 1.40392e-17)
(0.843341 -0.078506 -1.27293e-17)
(0.873761 -0.0820884 -1.67019e-17)
(0.905999 -0.0855518 0)
(0.943663 -0.0887732 7.09417e-18)
(0.974286 -0.0911355 0)
(1.03637 -0.0932748 -2.80086e-18)
(0.975435 0.217692 -1.68093e-17)
(0.979148 0.206102 -1.624e-17)
(0.983437 0.200262 -2.97494e-17)
(0.98561 0.198016 0)
(0.985541 0.195698 -2.595e-17)
(0.984882 0.192426 -1.23125e-17)
(0.98436 0.188719 0)
(0.983718 0.184671 2.19699e-17)
(0.982795 0.180055 2.06301e-17)
(0.981762 0.174758 0)
(0.980861 0.168746 -1.84821e-17)
(0.980308 0.16191 0)
(0.98025 0.154014 0)
(0.980605 0.144695 1.60016e-17)
(0.980764 0.133594 1.50429e-17)
(0.979541 0.120804 -3.14726e-19)
(0.975742 0.107553 3.18063e-19)
(0.969199 0.0959712 0)
(0.961513 0.0882384 0)
(0.956205 0.0854648 -1.57513e-17)
(0.958054 0.0863971 -1.5723e-17)
(0.971337 0.0863238 2.26175e-17)
(0.996532 0.0774345 7.10521e-18)
(1.02756 0.0515243 6.60577e-18)
(1.05519 0.00527446 0)
(1.07138 -0.0581151 -4.09321e-18)
(1.07042 -0.130904 0)
(1.06463 -0.207669 0)
(1.07543 -0.274675 -3.27269e-18)
(1.0893 -0.306084 0)
(1.06869 -0.29705 0)
(0.995402 -0.276264 0)
(0.868748 -0.265509 1.67129e-18)
(0.679543 -0.259178 -1.11184e-18)
(0.490616 -0.282232 5.61261e-19)
(0.39393 -0.331128 0)
(0.342914 -0.341022 0)
(0.296717 -0.28865 0)
(0.260856 -0.195861 2.34279e-19)
(0.244304 -0.0845487 1.46366e-20)
(0.242476 0.0326005 -3.52088e-19)
(0.247216 0.137152 0)
(0.263199 0.215408 0)
(0.289335 0.263291 -7.36537e-18)
(0.320994 0.283241 -4.83886e-18)
(0.354971 0.281058 0)
(0.388856 0.262955 0)
(0.420865 0.234521 7.40444e-18)
(0.449826 0.200418 1.1822e-19)
(0.47509 0.164343 0)
(0.496463 0.129063 0)
(0.514129 0.0964771 -9.44704e-18)
(0.528551 0.0676933 0)
(0.540364 0.0431647 0)
(0.550267 0.0228477 0)
(0.558938 0.0063743 0)
(0.566974 -0.00679862 0)
(0.574865 -0.0172707 -2.1738e-17)
(0.582986 -0.025622 0)
(0.591608 -0.0323679 0)
(0.600918 -0.0379414 1.06553e-19)
(0.611043 -0.0426901 0)
(0.622065 -0.0468839 0)
(0.634041 -0.0507264 0)
(0.647016 -0.0543674 4.32101e-17)
(0.661037 -0.0579138 -2.13142e-17)
(0.676152 -0.0614406 2.10029e-17)
(0.692426 -0.0650006 -8.04451e-20)
(0.709933 -0.0686289 0)
(0.728768 -0.0723523 1.95669e-17)
(0.749045 -0.0761877 -1.89559e-17)
(0.770905 -0.0801492 0)
(0.794503 -0.0842428 0)
(0.820059 -0.0884677 1.07403e-19)
(0.847703 -0.0927977 1.43017e-17)
(0.877989 -0.0971869 1.25459e-17)
(0.910109 -0.10146 0)
(0.947775 -0.105489 -7.97817e-18)
(0.97846 -0.108413 0)
(1.04103 -0.111037 2.10312e-18)
(0.975987 0.216476 0)
(0.981697 0.204225 3.72034e-17)
(0.987783 0.19966 3.39235e-17)
(0.990471 0.198424 0)
(0.990176 0.196244 1.47207e-17)
(0.989362 0.192968 -1.40881e-17)
(0.988922 0.189353 0)
(0.988524 0.185365 -2.48454e-17)
(0.988001 0.180778 0)
(0.987465 0.17553 0)
(0.986965 0.169566 0)
(0.986433 0.162736 0)
(0.985759 0.154811 0)
(0.984728 0.145518 2.53635e-19)
(0.982851 0.134653 -1.76531e-17)
(0.979315 0.1224 -2.95598e-19)
(0.973462 0.109883 2.95684e-19)
(0.965493 0.0988467 0)
(0.956843 0.090772 0)
(0.950336 0.0860775 0)
(0.949617 0.083333 -1.46688e-19)
(0.957819 0.0786404 2.54753e-19)
(0.975256 0.0660747 -8.2738e-18)
(0.997431 0.0398758 -7.60579e-18)
(1.01831 -0.00295409 0)
(1.02951 -0.0607315 -6.35515e-18)
(1.02868 -0.131834 5.78248e-18)
(1.0411 -0.216266 0)
(1.07537 -0.288445 1.94133e-18)
(1.09166 -0.306329 1.91648e-18)
(1.05044 -0.268296 0)
(0.941182 -0.213913 0)
(0.761987 -0.170749 2.34102e-18)
(0.512227 -0.152211 -4.68359e-20)
(0.319034 -0.210618 -1.45133e-18)
(0.249265 -0.295729 0)
(0.194539 -0.312404 0)
(0.137946 -0.261919 -9.88711e-19)
(0.0972589 -0.174724 0)
(0.081073 -0.0715893 -1.73852e-19)
(0.0814588 0.0360079 -2.77381e-19)
(0.0927247 0.131351 0)
(0.120785 0.202019 3.23337e-18)
(0.161383 0.245336 9.10602e-18)
(0.208137 0.263044 5.79232e-18)
(0.256914 0.260414 0)
(0.304605 0.243117 -1.60807e-17)
(0.349101 0.216331 0)
(0.389115 0.184382 -9.47637e-18)
(0.424009 0.150674 0)
(0.453675 0.117728 0)
(0.478435 0.0872483 0)
(0.498911 0.0602167 0)
(0.515899 0.0370243 0)
(0.53024 0.0176234 -2.38866e-17)
(0.542731 0.00168532 2.42506e-17)
(0.554063 -0.0112696 0)
(0.564798 -0.0217687 2.46066e-17)
(0.575364 -0.0303239 -2.49076e-17)
(0.586078 -0.0373927 0)
(0.597167 -0.043364 -2.4953e-17)
(0.608789 -0.0485529 0)
(0.621063 -0.0532074 0)
(0.634075 -0.0575189 0)
(0.647898 -0.061631 -2.43857e-17)
(0.662602 -0.0656493 2.41724e-17)
(0.678256 -0.0696494 -2.38083e-17)
(0.694938 -0.0736877 4.6644e-17)
(0.712738 -0.0778026 -2.28334e-17)
(0.73176 -0.0820263 0)
(0.752127 -0.0863805 2.13017e-17)
(0.773986 -0.0908857 -2.04651e-17)
(0.797505 -0.0955534 0)
(0.822915 -0.100391 1.27433e-19)
(0.850364 -0.105374 -1.63347e-17)
(0.880445 -0.110471 0)
(0.912378 -0.115472 0)
(0.950021 -0.120287 -9.22635e-18)
(0.980723 -0.123747 0)
(1.04394 -0.126963 -2.44796e-18)
(0.976761 0.214806 0)
(0.984941 0.202018 -2.13177e-17)
(0.992785 0.199214 -1.92678e-17)
(0.995678 0.198998 0)
(0.995034 0.196869 3.35657e-17)
(0.994043 0.193614 3.16894e-17)
(0.993528 0.190079 0)
(0.993047 0.186068 2.84242e-17)
(0.992501 0.181405 -2.69483e-17)
(0.992068 0.17611 0)
(0.991793 0.170145 0)
(0.991544 0.163361 0)
(0.991108 0.15555 0)
(0.990158 0.146487 -2.07558e-17)
(0.988167 0.136037 -2.04906e-17)
(0.984415 0.1244 1.93565e-17)
(0.978443 0.112589 -5.88718e-17)
(0.970593 0.102045 0)
(0.962179 0.0937894 0)
(0.955517 0.0878533 2.07695e-17)
(0.953467 0.0827034 4.1411e-17)
(0.958387 0.0749458 -2.02562e-17)
(0.970376 0.0599038 0)
(0.986809 0.0328504 0)
(1.0025 -0.00811009 -8.50738e-18)
(1.00733 -0.0626098 1.48651e-17)
(1.01043 -0.136934 -1.35009e-17)
(1.0366 -0.230562 0)
(1.05844 -0.300308 0)
(1.03307 -0.296794 -2.17064e-18)
(0.950158 -0.228362 0)
(0.811331 -0.14166 3.70475e-18)
(0.601526 -0.0704766 -3.26644e-18)
(0.326498 -0.0548139 7.81371e-21)
(0.174661 -0.161517 -4.9902e-21)
(0.128267 -0.268417 0)
(0.0649109 -0.28299 0)
(0.00144215 -0.235313 -1.63114e-19)
(-0.0424608 -0.154657 7.38804e-19)
(-0.0608979 -0.0602685 1.1676e-18)
(-0.0592028 0.0361458 2.22141e-18)
(-0.0408538 0.121251 2.60202e-18)
(-0.00209765 0.184709 -3.98778e-18)
(0.050585 0.223077 -5.6121e-18)
(0.109525 0.238739 7.23726e-18)
(0.1703 0.236052 0)
(0.229275 0.219991 1.89414e-17)
(0.284079 0.195279 -2.10046e-17)
(0.333309 0.165871 0)
(0.37632 0.134867 0)
(0.413078 0.104537 0)
(0.444018 0.0763991 0)
(0.469888 0.0513189 0)
(0.491598 0.0296399 0)
(0.510082 0.0113234 2.72303e-17)
(0.526208 -0.0039106 -5.53335e-17)
(0.540717 -0.0164737 -2.80053e-17)
(0.55421 -0.0268206 2.81888e-17)
(0.567149 -0.0353975 2.81822e-17)
(0.579884 -0.0426075 -2.83769e-17)
(0.592676 -0.0487979 2.83935e-17)
(0.605715 -0.0542555 0)
(0.619152 -0.0592086 2.82321e-17)
(0.633107 -0.0638379 -2.7954e-17)
(0.647681 -0.0682793 0)
(0.662965 -0.072636 -5.44865e-17)
(0.67905 -0.0769827 2.67754e-17)
(0.696027 -0.081377 -5.26431e-17)
(0.713999 -0.0858586 2.56666e-17)
(0.733081 -0.090464 0)
(0.753405 -0.0952182 2.41753e-17)
(0.775132 -0.100149 2.30015e-17)
(0.798439 -0.105272 -2.18633e-17)
(0.823578 -0.110605 -2.02005e-17)
(0.850713 -0.11613 1.83622e-17)
(0.880485 -0.121835 0)
(0.912133 -0.12748 0)
(0.949708 -0.133062 1.03744e-17)
(0.98037 -0.137029 0)
(1.04442 -0.14097 2.71946e-18)
(0.977833 0.212619 2.69312e-17)
(0.989 0.199656 0)
(0.998485 0.199065 -4.35011e-17)
(1.00128 0.199735 3.99956e-17)
(1.00023 0.19758 -3.7923e-17)
(0.999109 0.1944 3.61081e-17)
(0.998525 0.190952 0)
(0.997918 0.186892 1.63536e-19)
(0.997237 0.182132 3.04305e-17)
(0.996695 0.176758 0)
(0.99634 0.170736 0)
(0.996052 0.163935 0)
(0.995622 0.156181 5.00883e-17)
(0.994722 0.147301 0)
(0.992843 0.137211 4.56784e-17)
(0.989326 0.126109 0)
(0.98379 0.114896 8.95216e-17)
(0.976608 0.104769 0)
(0.968968 0.096432 0)
(0.962832 0.0896532 -4.70765e-17)
(0.960537 0.0828299 -2.35455e-17)
(0.963833 0.0729402 0)
(0.972673 0.05601 0)
(0.985409 0.0283349 0)
(0.995097 -0.0105299 9.43996e-18)
(0.99536 -0.0637033 -8.59442e-18)
(1.00582 -0.143077 -8.11572e-19)
(1.01635 -0.237738 0)
(0.972765 -0.293869 6.58871e-18)
(0.875093 -0.269429 0)
(0.75701 -0.180959 0)
(0.617409 -0.0713075 -5.17057e-18)
(0.409458 0.0180071 4.17605e-18)
(0.157754 0.0165533 7.40068e-20)
(0.0699959 -0.133513 1.15179e-18)
(0.0280859 -0.24429 0)
(-0.0412363 -0.255202 0)
(-0.108731 -0.210404 1.44516e-18)
(-0.155563 -0.136557 -7.45628e-19)
(-0.176826 -0.0515171 -9.50054e-19)
(-0.173896 0.033918 -1.35894e-18)
(-0.149298 0.108833 -2.66202e-18)
(-0.103037 0.164937 0)
(-0.0420225 0.198794 0)
(0.0262691 0.212775 -8.67538e-18)
(0.0963244 0.210194 -2.04459e-17)
(0.164112 0.195561 0)
(0.227092 0.173083 4.93995e-17)
(0.283749 0.146344 0)