/*--------------------------------*- C++ -*----------------------------------*\
| =========                 |                                                 |
| \\      /  F ield         | OpenFOAM: The Open Source CFD Toolbox           |
|  \\    /   O peration     | Version:  v1912                                 |
|   \\  /    A nd           | Website:  www.openfoam.com                      |
|    \\/     M anipulation  |                                                 |
\*---------------------------------------------------------------------------*/
FoamFile
{
    version     2.0;
    format      ascii;
    class       volScalarField;
    location    "550";
    object      p;
}
// * * * * * * * * * * * * * * * * * * * * * * * * * * * * * * * * * * * * * //

dimensions      [0 2 -2 0 0 0 0];


internalField   nonuniform List<scalar> 
2000
(
-0.0460011
0.0714102
0.12599
0.119102
0.103274
0.0969686
0.0963634
0.0977121
0.0979295
0.0977084
0.0978483
0.0975242
0.0972659
0.0972102
0.0972679
0.0972901
0.0972484
0.0972279
0.0972231
0.0972272
0.0972316
0.097226
0.097206
0.0971727
0.0971324
0.0970912
0.0970542
0.0970229
0.0969953
0.0969689
0.0969422
0.0969147
0.0968866
0.0968581
0.0968295
0.096801
0.0967729
0.0967451
0.0967171
0.0966885
0.0966595
0.0966303
0.0966019
0.0965753
0.0965521
0.0965335
0.0965213
0.0965175
0.0965247
0.0965432
0.0965631
0.0965413
0.096359
0.0957727
0.0944193
0.0919075
0.0879472
0.0824874
0.0759938
0.0698901
0.0662806
0.0662667
0.0708378
0.0795987
0.0915879
0.105802
0.121397
0.137583
0.153448
0.167907
0.179915
0.188595
0.193108
0.192637
0.186387
0.173691
0.153421
0.125379
0.0838586
0.041546
0.00724598
0.0924224
0.13124
0.118045
0.100304
0.0961057
0.099647
0.102087
0.0993328
0.0960888
0.095651
0.0969507
0.0973985
0.097267
0.0974914
0.097393
0.0972697
0.0971683
0.0971344
0.0971236
0.0971422
0.0971837
0.0971922
0.0971701
0.0971362
0.0970994
0.0970641
0.097032
0.097004
0.0969771
0.0969476
0.0969173
0.0968875
0.0968588
0.096831
0.0968039
0.0967778
0.096753
0.0967285
0.0967029
0.096676
0.0966478
0.0966189
0.0965899
0.0965618
0.0965362
0.0965159
0.0965064
0.0965224
0.0965882
0.0967077
0.0967937
0.0965655
0.0954641
0.0927166
0.0876588
0.0801343
0.0707423
0.0611123
0.054329
0.0539651
0.0592153
0.0676218
0.0784508
0.0912364
0.105623
0.12105
0.136756
0.151833
0.165271
0.176058
0.183211
0.185827
0.183167
0.174565
0.159481
0.137008
0.107315
0.0664118
0.0294409
0.0583138
0.0921117
0.114803
0.113246
0.104048
0.0998727
0.0999109
0.0992737
0.097368
0.0966827
0.0982713
0.0998695
0.0988902
0.0964312
0.0955374
0.0964115
0.0972957
0.0974711
0.0973131
0.0972105
0.0971541
0.097119
0.0971011
0.0971137
0.0971221
0.0971117
0.0970813
0.0970359
0.0969987
0.096962
0.0969329
0.0969064
0.0968812
0.0968591
0.0968402
0.0968224
0.0968037
0.0967838
0.0967626
0.0967403
0.0967171
0.0966926
0.096665
0.0966319
0.0965964
0.0965779
0.0966124
0.0967374
0.0969837
0.0973633
0.0978179
0.0981268
0.0978739
0.0964383
0.0931445
0.087575
0.0799551
0.0714869
0.0642179
0.0597222
0.058685
0.0621045
0.0693425
0.0792706
0.0911147
0.104414
0.118604
0.132872
0.146266
0.157793
0.1665
0.171527
0.172156
0.167827
0.158059
0.142512
0.120599
0.0928523
0.0565603
0.0249995
0.083301
0.0933147
0.105865
0.109944
0.107251
0.104232
0.102571
0.100839
0.0992171
0.0983994
0.0982116
0.0981141
0.0977693
0.0970738
0.0965503
0.097495
0.0987486
0.0980116
0.0968554
0.0964547
0.0964058
0.0965801
0.0968688
0.0970932
0.0972235
0.0973025
0.0973463
0.0973215
0.097234
0.0971311
0.0970313
0.096946
0.0968837
0.0968521
0.0968386
0.0968308
0.0968204
0.0968096
0.0967988
0.0967872
0.0967747
0.0967599
0.0967372
0.0967
0.0966531
0.096631
0.0966996
0.0969066
0.0972852
0.097837
0.0985223
0.0989913
0.0988539
0.0975689
0.0946259
0.0897952
0.0833532
0.0761062
0.069226
0.0645936
0.0633137
0.0660767
0.0724847
0.0815194
0.0923463
0.104362
0.116911
0.129176
0.140279
0.149371
0.155688
0.158573
0.157487
0.152009
0.14178
0.126578
0.106011
0.0806905
0.0487304
0.020807
0.0956416
0.099242
0.106762
0.110732
0.109603
0.107274
0.105894
0.104854
0.103552
0.1021
0.10075
0.0996611
0.0989342
0.0980964
0.0971345
0.0971645
0.0977185
0.0979326
0.0977845
0.0973352
0.0969975
0.0968851
0.0969436
0.0971247
0.0973183
0.0974336
0.0973914
0.0972062
0.0970736
0.0969685
0.0968845
0.0968216
0.0967814
0.0967835
0.0968139
0.0968479
0.0968746
0.096882
0.096875
0.0968601
0.0968389
0.0968092
0.0967635
0.0966884
0.0965767
0.0964473
0.096381
0.0965208
0.0968876
0.0974431
0.0980859
0.0985476
0.0984194
0.0972108
0.0945041
0.0901607
0.0844882
0.0783031
0.0728521
0.0695537
0.0692466
0.0721561
0.0779336
0.0858642
0.0952237
0.105381
0.115704
0.125502
0.134068
0.140741
0.144933
0.146135
0.143919
0.13793
0.127859
0.113517
0.0945873
0.0716559
0.0432321
0.0181858
0.104083
0.105916
0.10987
0.112041
0.111226
0.109618
0.108659
0.107983
0.107024
0.105833
0.104704
0.103714
0.102701
0.101379
0.100005
0.0992975
0.0991674
0.0990375
0.098473
0.097591
0.0969767
0.096774
0.0968634
0.0970714
0.0972428
0.0973379
0.0973787
0.097371
0.0972868
0.09717
0.097051
0.0969468
0.0968679
0.0968313
0.0967939
0.0967651
0.0967649
0.0967779
0.0967766
0.0967708
0.0967669
0.0967608
0.096745
0.0967141
0.0966743
0.096659
0.0967384
0.0969924
0.0974251
0.0979767
0.0985222
0.0988232
0.0985433
0.0973395
0.0949817
0.0914844
0.0871992
0.082813
0.0792152
0.077274
0.0775472
0.0801836
0.0849698
0.0914219
0.0989583
0.107019
0.115065
0.122546
0.12891
0.133633
0.136238
0.136296
0.133424
0.127288
0.11758
0.104105
0.0865585
0.0654716
0.0394965
0.0165459
0.110893
0.111717
0.112954
0.113292
0.112505
0.11152
0.110861
0.110322
0.109654
0.108898
0.108173
0.107454
0.106594
0.105486
0.10432
0.103466
0.102952
0.102354
0.101386
0.100289
0.0994753
0.0990367
0.0988473
0.0987573
0.0986722
0.0985709
0.0984515
0.0982861
0.0980639
0.0978416
0.0976524
0.0974997
0.0973781
0.0973183
0.0974773
0.0975687
0.0975995
0.0976424
0.0977025
0.0977741
0.0978559
0.0979452
0.0980389
0.0981371
0.0982496
0.0984025
0.0986372
0.098992
0.0994618
0.099983
0.100433
0.100625
0.100326
0.0993241
0.0975056
0.0949352
0.0918984
0.0888851
0.086499
0.0853224
0.0857583
0.0879304
0.0916931
0.0967017
0.102519
0.108703
0.114818
0.120428
0.125087
0.128359
0.129829
0.129109
0.125834
0.119672
0.11031
0.0975348
0.0810299
0.0612723
0.036953
0.0155058
0.11677
0.116716
0.1158
0.114592
0.113768
0.113251
0.112775
0.112304
0.111861
0.111424
0.110972
0.110475
0.109876
0.109134
0.108329
0.107638
0.107097
0.106469
0.105603
0.104651
0.103853
0.103286
0.102887
0.102575
0.102299
0.102037
0.101776
0.101501
0.10122
0.100966
0.10076
0.100607
0.100514
0.100511
0.100614
0.10069
0.100739
0.100811
0.100914
0.101038
0.101178
0.101331
0.101496
0.101674
0.101871
0.102102
0.102389
0.102744
0.103152
0.103553
0.103848
0.1039
0.103558
0.102693
0.101256
0.0993164
0.0970935
0.0949359
0.0932641
0.0924795
0.0928653
0.0945187
0.0973495
0.101125
0.105533
0.110228
0.114859
0.11906
0.122453
0.124658
0.125301
0.12402
0.120467
0.114311
0.105232
0.0929977
0.077269
0.0584636
0.0352831
0.0148287
0.122174
0.121185
0.118221
0.115678
0.114922
0.114833
0.114499
0.114091
0.113826
0.113608
0.113338
0.113013
0.112624
0.112146
0.111609
0.111119
0.110706
0.110233
0.1096
0.108882
0.108233
0.107728
0.107344
0.10703
0.106748
0.106476
0.106206
0.105935
0.10567
0.105429
0.105228
0.105077
0.104987
0.104964
0.104971
0.105027
0.105099
0.105184
0.10529
0.105415
0.105553
0.105703
0.105862
0.10603
0.106211
0.106412
0.106641
0.1069
0.107169
0.1074
0.107518
0.107427
0.107027
0.106241
0.105045
0.103504
0.101782
0.10013
0.0988484
0.0982251
0.0984704
0.0996701
0.101776
0.104626
0.107985
0.111575
0.115098
0.118242
0.120678
0.12207
0.122078
0.120369
0.116609
0.110474
0.101636
0.0898377
0.0747084
0.056602
0.034217
0.014372
0.127404
0.125217
0.120023
0.116379
0.115915
0.116242
0.116013
0.11569
0.115605
0.115573
0.11545
0.115259
0.115017
0.114706
0.114345
0.114007
0.113716
0.113383
0.112932
0.112408
0.111923
0.111542
0.111254
0.111017
0.110799
0.110586
0.110371
0.110155
0.109943
0.109748
0.109585
0.109462
0.109388
0.109362
0.109326
0.109366
0.109432
0.1095
0.109579
0.109671
0.109773
0.109882
0.109995
0.110111
0.110234
0.110365
0.110506
0.110654
0.11079
0.110877
0.110857
0.110661
0.110221
0.109486
0.108447
0.107159
0.105747
0.104401
0.103344
0.102794
0.102913
0.103775
0.10535
0.107517
0.110088
0.112834
0.1155
0.117817
0.119496
0.120241
0.119747
0.117704
0.113796
0.107703
0.0990857
0.0876631
0.0730188
0.0554409
0.033598
0.0141025
0.132643
0.128793
0.1211
0.11671
0.116801
0.117493
0.117321
0.117107
0.11721
0.117347
0.117358
0.117287
0.117165
0.11698
0.116746
0.116516
0.116311
0.11607
0.115739
0.11535
0.114989
0.114706
0.114495
0.114324
0.114166
0.11401
0.113851
0.113691
0.113533
0.113386
0.113262
0.113167
0.113105
0.113067
0.11304
0.113063
0.113109
0.113158
0.113211
0.113274
0.113344
0.113416
0.113489
0.113561
0.113632
0.113703
0.113774
0.113837
0.113878
0.113864
0.113753
0.113493
0.113035
0.112344
0.11142
0.110309
0.109111
0.107972
0.107065
0.106558
0.106578
0.107185
0.108356
0.109996
0.111951
0.114027
0.116007
0.117656
0.118722
0.118944
0.118047
0.115747
0.111741
0.105713
0.0973117
0.086227
0.0719893
0.0548228
0.0333141
0.01402
0.13801
0.131841
0.121426
0.116767
0.117634
0.118597
0.118447
0.11837
0.118657
0.118938
0.119068
0.119109
0.119099
0.119025
0.118898
0.118759
0.118625
0.118455
0.11821
0.117918
0.117643
0.117427
0.117268
0.11714
0.117024
0.116909
0.116791
0.116672
0.116553
0.116442
0.116346
0.116272
0.116223
0.116189
0.116174
0.116188
0.116222
0.116259
0.1163
0.116344
0.116392
0.116439
0.116482
0.11652
0.116553
0.11658
0.116598
0.1166
0.116573
0.11649
0.116318
0.116018
0.115554
0.114903
0.114068
0.113088
0.112046
0.111056
0.110254
0.109772
0.109709
0.110112
0.110962
0.112179
0.113635
0.115165
0.116581
0.11768
0.118243
0.118039
0.116823
0.11433
0.11027
0.104329
0.0961412
0.085367
0.0714781
0.0546415
0.0332911
0.0141389
0.143582
0.134254
0.121034
0.116671
0.118434
0.119551
0.119417
0.119505
0.119961
0.120362
0.120595
0.120739
0.120829
0.120854
0.120822
0.120766
0.120701
0.120596
0.120426
0.120211
0.120005
0.119843
0.119724
0.119631
0.119547
0.119463
0.119375
0.119285
0.119196
0.119111
0.119037
0.118979
0.118938
0.118919
0.11891
0.118919
0.118944
0.118974
0.119004
0.119034
0.119065
0.119092
0.119112
0.119125
0.119127
0.119119
0.119095
0.11905
0.118971
0.118837
0.118622
0.118295
0.11783
0.117212
0.116446
0.115567
0.11464
0.11376
0.113033
0.112562
0.112425
0.112658
0.113242
0.11411
0.115153
0.116229
0.117177
0.117822
0.117975
0.117432
0.11597
0.113343
0.109269
0.10343
0.0954484
0.0849584
0.0713711
0.0548087
0.0334721
0.0144632
0.149401
0.135916
0.120021
0.116539
0.1192
0.120359
0.120264
0.120533
0.121135
0.121636
0.121961
0.122197
0.122376
0.122487
0.122538
0.122557
0.122556
0.122513
0.122408
0.122262
0.122116
0.122001
0.12192
0.121859
0.121803
0.121746
0.121685
0.12162
0.121555
0.121492
0.121436
0.121391
0.121362
0.121348
0.121343
0.12135
0.121369
0.121391
0.121413
0.121432
0.121449
0.121459
0.121461
0.121451
0.121428
0.12139
0.121332
0.121248
0.121127
0.120952
0.120702
0.120354
0.119889
0.119296
0.118582
0.117778
0.116937
0.116135
0.115456
0.114983
0.114775
0.114857
0.115215
0.115788
0.116484
0.117184
0.11775
0.11803
0.11786
0.117057
0.115417
0.112705
0.108645
0.102916
0.0951264
0.0848906
0.0715629
0.055239
0.0338082
0.0149744
0.155475
0.136719
0.118535
0.11646
0.119914
0.121033
0.121015
0.121468
0.122193
0.122777
0.123185
0.123504
0.123759
0.123945
0.124069
0.124154
0.124212
0.124224
0.124178
0.124091
0.123998
0.123927
0.123881
0.123849
0.12382
0.123787
0.12375
0.123708
0.123664
0.12362
0.12358
0.123548
0.123527
0.123518
0.123516
0.123522
0.123536
0.123553
0.123567
0.123577
0.123581
0.123578
0.123563
0.123534
0.123488
0.123423
0.123335
0.123217
0.123059
0.122848
0.122567
0.122198
0.121728
0.121149
0.12047
0.119717
0.118934
0.11818
0.117526
0.117033
0.116751
0.116698
0.116858
0.117184
0.117596
0.117993
0.118257
0.118256
0.117844
0.116854
0.115095
0.112339
0.108312
0.102692
0.0950738
0.0850594
0.0719528
0.0558472
0.0342551
0.0156281
0.161782
0.136586
0.116749
0.116485
0.120552
0.121593
0.121693
0.12232
0.123145
0.1238
0.124284
0.124675
0.124998
0.12525
0.125437
0.125582
0.125692
0.125754
0.12576
0.125724
0.125678
0.125645
0.12563
0.125624
0.12562
0.12561
0.125594
0.125572
0.125548
0.125521
0.125494
0.125473
0.12546
0.125455
0.125455
0.125461
0.125471
0.125482
0.125488
0.125489
0.125482
0.125464
0.125432
0.125384
0.125315
0.125223
0.125104
0.124951
0.124756
0.124509
0.124194
0.1238
0.123316
0.122739
0.122076
0.12135
0.120596
0.119865
0.119211
0.118686
0.118329
0.118154
0.11815
0.118275
0.118465
0.118631
0.118671
0.118468
0.117887
0.116773
0.114943
0.112172
0.108189
0.102668
0.0951982
0.0853728
0.072452
0.0565534
0.0347747
0.0163699
0.168272
0.135508
0.114846
0.116622
0.121094
0.122062
0.122315
0.123096
0.124
0.124719
0.12527
0.125726
0.126109
0.126418
0.126662
0.126858
0.127015
0.127121
0.127172
0.127181
0.127176
0.127176
0.127189
0.127207
0.127223
0.127233
0.127235
0.12723
0.127223
0.127209
0.127193
0.127181
0.127173
0.12717
0.12717
0.127172
0.127175
0.127177
0.127173
0.12716
0.127137
0.127101
0.127048
0.126974
0.126878
0.126755
0.126601
0.12641
0.126175
0.125888
0.125537
0.125112
0.124606
0.124018
0.123355
0.122635
0.12189
0.121161
0.120493
0.119929
0.119503
0.119228
0.119095
0.11907
0.119097
0.119099
0.118985
0.118646
0.117957
0.116768
0.114901
0.112136
0.108201
0.102769
0.0954235
0.0857572
0.0729919
0.0572919
0.0353335
0.0171492
0.17486
0.133505
0.112984
0.116855
0.121534
0.122465
0.122889
0.123798
0.124765
0.12554
0.126152
0.126663
0.127097
0.127456
0.127747
0.127988
0.128185
0.12833
0.128419
0.128465
0.128492
0.128521
0.128555
0.128591
0.128624
0.128649
0.128663
0.12867
0.128675
0.128667
0.128656
0.128646
0.128637
0.12863
0.128622
0.128614
0.128605
0.128591
0.128569
0.128537
0.128492
0.128431
0.128351
0.128248
0.128119
0.127962
0.12777
0.127541
0.127267
0.126941
0.126553
0.126098
0.125568
0.124964
0.124292
0.123568
0.122821
0.122083
0.121396
0.120797
0.120315
0.119965
0.11974
0.11961
0.119527
0.119422
0.119209
0.118786
0.118033
0.116806
0.114926
0.112178
0.108289
0.102935
0.0956937
0.0861612
0.0735258
0.0580138
0.0359026
0.017926
0.181454
0.130675
0.111276
0.11714
0.121873
0.122816
0.123411
0.124419
0.125434
0.126255
0.126914
0.12747
0.127943
0.12834
0.128668
0.128943
0.129171
0.129344
0.129461
0.129535
0.129586
0.129633
0.129682
0.129729
0.129771
0.129803
0.129823
0.129837
0.12984
0.129829
0.129816
0.129801
0.129784
0.129766
0.129745
0.129721
0.129694
0.12966
0.129617
0.129562
0.129492
0.129405
0.129298
0.129166
0.129008
0.128819
0.128596
0.128334
0.128027
0.127669
0.127253
0.126773
0.126223
0.125604
0.124922
0.124192
0.123438
0.122691
0.121987
0.12136
0.120839
0.120438
0.120151
0.119955
0.119803
0.119632
0.11936
0.118891
0.118105
0.116861
0.114985
0.112259
0.108415
0.103127
0.0959727
0.0865523
0.0740255
0.0586884
0.0364604
0.0186731
0.187963
0.127149
0.109791
0.117428
0.122119
0.123112
0.123855
0.124931
0.125974
0.126826
0.127516
0.1281
0.128599
0.12902
0.129371
0.129668
0.129915
0.130106
0.130241
0.130331
0.130396
0.130452
0.130507
0.130559
0.130603
0.130636
0.130657
0.130667
0.13066
0.130647
0.130628
0.130604
0.130575
0.130544
0.130509
0.13047
0.130425
0.130373
0.130312
0.130237
0.130147
0.13004
0.129911
0.129757
0.129577
0.129365
0.129119
0.128834
0.128505
0.128127
0.127692
0.127195
0.126632
0.126003
0.125314
0.124579
0.123819
0.123064
0.122348
0.121703
0.121157
0.120723
0.120399
0.120161
0.119969
0.119761
0.119459
0.118966
0.118167
0.116921
0.115056
0.112356
0.108551
0.10332
0.0962389
0.0869126
0.0744774
0.0592992
0.0369928
0.0193757
0.194308
0.123086
0.108569
0.117681
0.12228
0.123335
0.124183
0.125292
0.126348
0.127215
0.127922
0.12852
0.129032
0.129466
0.12983
0.130138
0.130396
0.130595
0.130738
0.130836
0.130908
0.130968
0.131025
0.131077
0.13112
0.131151
0.13117
0.131172
0.131162
0.131144
0.131119
0.131087
0.13105
0.131008
0.130963
0.130912
0.130856
0.130792
0.130718
0.13063
0.130527
0.130406
0.130264
0.130097
0.129903
0.129678
0.129418
0.12912
0.128779
0.128389
0.127943
0.127437
0.126867
0.126233
0.12554
0.124802
0.124039
0.123279
0.122555
0.121899
0.121336
0.120883
0.120537
0.120277
0.120063
0.119836
0.119519
0.119018
0.118218
0.116978
0.115128
0.112453
0.108685
0.103502
0.0964819
0.087235
0.074878
0.0598407
0.0374916
0.0200291
0.200491
0.118752
0.107637
0.117874
0.122363
0.123467
0.124376
0.125498
0.126558
0.127431
0.128146
0.128751
0.129269
0.129709
0.130078
0.130392
0.130654
0.130857
0.131005
0.131107
0.131181
0.131243
0.1313
0.131351
0.131393
0.131423
0.131438
0.131439
0.131426
0.131404
0.131374
0.131338
0.131295
0.131248
0.131197
0.13114
0.131077
0.131007
0.130925
0.130831
0.130721
0.130593
0.130444
0.13027
0.130069
0.129837
0.129572
0.129267
0.12892
0.128524
0.128074
0.127564
0.126991
0.126355
0.125661
0.124922
0.124157
0.123394
0.122665
0.122002
0.12143
0.120966
0.120608
0.120337
0.120112
0.119877
0.119556
0.119054
0.118258
0.117029
0.115195
0.112543
0.108807
0.103667
0.096699
0.0875195
0.07523
0.0603149
0.0379536
0.0206375
0.206655
0.114664
0.107002
0.117991
0.122381
0.123515
0.124455
0.125583
0.126645
0.127523
0.128241
0.128849
0.12937
0.129812
0.130185
0.130501
0.130765
0.130971
0.13112
0.131223
0.131299
0.131361
0.131418
0.131469
0.13151
0.131539
0.131553
0.131555
0.13154
0.131517
0.131485
0.131446
0.131401
0.131352
0.131298
0.131238
0.131173
0.131099
0.131015
0.130918
0.130805
0.130674
0.130522
0.130345
0.130142
0.129907
0.129639
0.129333
0.128984
0.128586
0.128135
0.127624
0.127051
0.126414
0.125721
0.124981
0.124216
0.123451
0.122719
0.122052
0.121475
0.121005
0.120641
0.120364
0.120135
0.119898
0.119577
0.119079
0.11829
0.117073
0.115255
0.112626
0.10892
0.103817
0.0968947
0.0877739
0.0755447
0.0607349
0.0383849
0.0212199
0.212752
0.111458
0.106606
0.11804
0.122361
0.123509
0.124463
0.125598
0.126663
0.127543
0.128263
0.128873
0.129396
0.12984
0.130214
0.130531
0.130796
0.131003
0.131153
0.131257
0.131333
0.131396
0.131453
0.131503
0.131544
0.131573
0.131588
0.131589
0.131574
0.13155
0.131518
0.131479
0.131434
0.131384
0.131329
0.131269
0.131202
0.131128
0.131043
0.130945
0.130832
0.1307
0.130547
0.13037
0.130166
0.129931
0.129663
0.129356
0.129007
0.12861
0.128159
0.127649
0.127076
0.126441
0.125748
0.125008
0.124243
0.123478
0.122744
0.122074
0.121494
0.12102
0.120653
0.120374
0.120144
0.119908
0.11959
0.119098
0.118318
0.117113
0.115312
0.112705
0.109026
0.103958
0.0970781
0.0880111
0.0758385
0.0611232
0.0387972
0.0218097
0.217479
0.109516
0.106381
0.118067
0.122339
0.123485
0.124447
0.125588
0.126656
0.127538
0.128259
0.12887
0.129393
0.129838
0.130212
0.13053
0.130796
0.131002
0.131152
0.131257
0.131333
0.131396
0.131454
0.131505
0.131546
0.131575
0.13159
0.131591
0.131577
0.131552
0.13152
0.131481
0.131436
0.131386
0.131331
0.131271
0.131205
0.131131
0.131046
0.130948
0.130835
0.130703
0.130551
0.130374
0.13017
0.129936
0.129668
0.129362
0.129013
0.128617
0.128167
0.127658
0.127087
0.126452
0.12576
0.125021
0.124256
0.12349
0.122756
0.122084
0.121502
0.121026
0.120657
0.120377
0.120148
0.119913
0.119598
0.119112
0.118341
0.117147
0.115362
0.112774
0.10912
0.104084
0.0972404
0.0882205
0.0760966
0.0614659
0.0391559
0.0223714
)
;

boundaryField
{
    inlet
    {
        type            zeroGradient;
    }
    outlet
    {
        type            fixedValue;
        value           uniform 0;
    }
    fixedWalls
    {
        type            zeroGradient;
    }
    frontAndBack
    {
        type            empty;
    }
}


// ************************************************************************* //
