/*--------------------------------*- C++ -*----------------------------------*\
| =========                 |                                                 |
| \\      /  F ield         | OpenFOAM: The Open Source CFD Toolbox           |
|  \\    /   O peration     | Version:  v1912                                 |
|   \\  /    A nd           | Website:  www.openfoam.com                      |
|    \\/     M anipulation  |                                                 |
\*---------------------------------------------------------------------------*/
FoamFile
{
    version     2.0;
    format      ascii;
    class       surfaceScalarField;
    location    "550";
    object      phi;
}
// * * * * * * * * * * * * * * * * * * * * * * * * * * * * * * * * * * * * * //

dimensions      [0 3 -1 0 0 0 0];
oriented        oriented;


internalField   nonuniform List<scalar> 
3895
(
0.000814746
0.000381431
0.000499361
0.000315385
0.000251565
0.000247796
6.48629e-05
0.000186702
-6.21964e-05
0.000127059
-0.000127327
6.5131e-05
-0.00013764
1.03124e-05
-0.000113633
-2.40073e-05
-9.03505e-05
-2.3282e-05
-8.49459e-05
-5.4046e-06
-6.61176e-05
-1.88283e-05
-4.47058e-05
-2.14118e-05
-4.03978e-05
-4.30796e-06
-4.85923e-05
8.1945e-06
-4.56627e-05
-2.92965e-06
-3.20839e-05
-1.35787e-05
-2.52817e-05
-6.80224e-06
-2.61371e-05
8.55352e-07
-2.91673e-05
3.03027e-06
-3.07174e-05
1.55007e-06
-2.94403e-05
-1.27705e-06
-2.5229e-05
-4.21137e-06
-1.89861e-05
-6.24291e-06
-1.2453e-05
-6.5331e-06
-6.72614e-06
-5.72683e-06
-2.43658e-06
-4.28956e-06
3.27585e-07
-2.76417e-06
1.97348e-06
-1.64589e-06
3.08499e-06
-1.11151e-06
4.0566e-06
-9.7161e-07
5.00904e-06
-9.52443e-07
5.91416e-06
-9.05121e-07
6.75377e-06
-8.39609e-07
7.48658e-06
-7.32805e-07
8.05262e-06
-5.66045e-07
8.3766e-06
-3.23977e-07
8.40153e-06
-2.49281e-08
8.03572e-06
3.65812e-07
7.28517e-06
7.50551e-07
6.11004e-06
1.17513e-06
4.42936e-06
1.68068e-06
2.13142e-06
2.29794e-06
-9.09427e-07
3.04084e-06
-4.81583e-06
3.90641e-06
-9.69679e-06
4.88096e-06
-1.56905e-05
5.99371e-06
-2.31113e-05
7.42085e-06
-3.2645e-05
9.5337e-06
-4.55986e-05
1.29535e-05
-6.41074e-05
1.85089e-05
-9.10662e-05
2.69588e-05
-0.000129516
3.84496e-05
-0.000181804
5.22879e-05
-0.000248877
6.70735e-05
-0.000329407
8.05298e-05
-0.000418976
8.95692e-05
-0.000510284
9.13075e-05
-0.000594454
8.41704e-05
-0.000662619
6.8165e-05
-0.000706038
4.34191e-05
-0.000713696
7.65776e-06
-0.000696052
-1.76443e-05
-0.00065744
-3.8612e-05
-0.000601421
-5.60187e-05
-0.000531889
-6.95322e-05
-0.000451885
-8.00041e-05
-0.000363395
-8.84898e-05
-0.000267962
-9.54324e-05
-0.000167196
-0.000100766
-6.27974e-05
-0.000104399
4.32577e-05
-0.000106055
0.000148989
-0.000105731
0.000252806
-0.000103817
0.000353343
-0.000100536
0.000449704
-9.63615e-05
0.00054181
-9.21052e-05
0.000629907
-8.80971e-05
0.000717126
-8.72191e-05
0.000803818
-8.66923e-05
-0.00010744
0.00108795
0.000349294
0.00104738
0.000355946
0.000933278
0.000361903
0.000775747
0.000344233
0.00059843
0.000304376
0.000410383
0.000253178
0.000221249
0.000199447
5.3877e-05
0.000143365
-6.04266e-05
9.10216e-05
-0.000110196
4.43646e-05
-0.000131903
2.87857e-06
-0.000124005
-2.93093e-05
-0.000105703
-2.26104e-05
-0.000107774
1.02659e-05
-0.000103314
-7.38964e-06
-9.05933e-05
-2.62996e-05
-7.64883e-05
-2.09073e-05
-7.85323e-05
2.89941e-06
-8.6779e-05
1.1277e-05
-9.22665e-05
7.03757e-06
-9.42147e-05
6.71117e-07
-9.05759e-05
-7.8501e-06
-8.44201e-05
-1.23988e-05
-7.7695e-05
-1.32582e-05
-7.11578e-05
-1.2264e-05
-6.55375e-05
-9.90984e-06
-6.1453e-05
-6.84869e-06
-5.93525e-05
-3.74639e-06
-5.91204e-05
-1.34358e-06
-6.02461e-05
1.54096e-07
-6.25262e-05
1.32763e-06
-6.52723e-05
1.84095e-06
-6.81739e-05
2.06203e-06
-7.11433e-05
2.23658e-06
-7.4323e-05
2.61362e-06
-7.78578e-05
3.21084e-06
-8.18696e-05
3.98691e-06
-8.64066e-05
4.90274e-06
-9.15871e-05
5.93105e-06
-9.74669e-05
7.05497e-06
-0.00010406
8.27349e-06
-0.000111359
9.59748e-06
-0.000119348
1.10292e-05
-0.000127982
1.25404e-05
-0.000137172
1.40716e-05
-0.000146781
1.56026e-05
-0.00015669
1.73299e-05
-0.00016689
1.97337e-05
-0.0001775
2.35632e-05
-0.000188661
2.96694e-05
-0.000200595
3.88935e-05
-0.00021364
5.14946e-05
-0.000227846
6.64938e-05
-0.000242395
8.16218e-05
-0.000255134
9.32696e-05
-0.000262219
9.66538e-05
-0.000258844
8.79323e-05
-0.000240867
6.61936e-05
-0.000206989
3.42867e-05
-0.000166114
2.54439e-06
-0.000119604
-3.88518e-05
-6.77087e-05
-6.954e-05
-1.32205e-05
-9.31001e-05
4.29112e-05
-0.000112151
0.000102289
-0.00012891
0.000166146
-0.000143861
0.000234396
-0.00015674
0.000306012
-0.000167048
0.000379459
-0.000174214
0.000452956
-0.000177895
0.000524958
-0.000178057
0.000594218
-0.000174992
0.00065966
-0.000169259
0.000720705
-0.000161582
0.000777188
-0.000152845
0.000829215
-0.000144132
0.000877649
-0.000136531
0.000922521
-0.000132091
0.000966548
-0.00013072
-0.000142015
0.000975282
0.000305926
0.00102604
0.000305187
0.00106097
0.000326974
0.00105862
0.000346584
0.00101217
0.00035082
0.000925048
0.000340305
0.000805752
0.000318743
0.000661764
0.000287352
0.000504927
0.000247858
0.000345845
0.000203446
0.000190171
0.000158553
4.70483e-05
0.000113813
-4.98801e-05
7.4318e-05
-8.60671e-05
4.64529e-05
-0.000105963
1.25059e-05
-0.000113961
-1.8301e-05
-0.00010193
-3.2939e-05
-9.15356e-05
-7.49448e-06
-9.89182e-05
1.86595e-05
-0.000108326
1.64454e-05
-0.000114778
7.12317e-06
-0.000119353
-3.27481e-06
-0.00012138
-1.03721e-05
-0.000120252
-1.43863e-05
-0.000118612
-1.39034e-05
-0.00011836
-1.01619e-05
-0.000120098
-5.11155e-06
-0.000123971
1.27439e-07
-0.000128099
2.78385e-06
-0.00013266
4.71574e-06
-0.000137237
5.90451e-06
-0.000141863
6.46707e-06
-0.000146414
6.61281e-06
-0.000150796
6.618e-06
-0.000155066
6.88355e-06
-0.000159387
7.53219e-06
-0.000163866
8.46618e-06
-0.000168497
9.53368e-06
-0.000173212
1.06463e-05
-0.000177934
1.17765e-05
-0.000182574
1.29139e-05
-0.000187036
1.40596e-05
-0.000191205
1.51983e-05
-0.000194885
1.622e-05
-0.000197709
1.68959e-05
-0.000199005
1.68984e-05
-0.000197726
1.60504e-05
-0.00019286
1.48677e-05
-0.000183432
1.4136e-05
-0.000168373
1.46104e-05
-0.000146302
1.68221e-05
-0.000116498
2.16906e-05
-7.81303e-05
2.8126e-05
-3.06131e-05
3.41047e-05
2.57269e-05
3.69296e-05
8.83115e-05
3.40693e-05
0.000152626
2.36173e-05
0.000212456
6.36408e-06
0.000267121
-2.03782e-05
0.000319114
-4.94488e-05
0.000361526
-8.12635e-05
0.000402611
-0.000110625
0.000445885
-0.000136374
0.000492925
-0.00015919
0.000543251
-0.000179236
0.000595495
-0.000196106
0.000647946
-0.000209191
0.000698891
-0.000217993
0.000746915
-0.000222238
0.000790987
-0.000221967
0.000830476
-0.000217546
0.000865111
-0.000209627
0.000894924
-0.000199072
0.000920214
-0.000186871
0.000941456
-0.000174088
0.000959157
-0.000161833
0.000973918
-0.000151291
0.000985614
-0.000143787
0.000995311
-0.000140418
-0.000144849
0.000857109
0.000271374
0.000897356
0.000264941
0.000950164
0.000274165
0.00100471
0.000292042
0.00104637
0.000309153
0.00106531
0.000321373
0.00105664
0.000327411
0.00101794
0.000326055
0.000949552
0.000316242
0.000855081
0.000297918
0.000740896
0.000272738
0.000611933
0.000242776
0.000476495
0.000209755
0.000348318
0.000174631
0.000223515
0.000137308
0.00010221
0.000103004
-2.04542e-07
6.94759e-05
-5.17528e-05
4.40538e-05
-6.30575e-05
2.99642e-05
-6.49473e-05
1.83352e-05
-6.72984e-05
9.47429e-06
-7.31745e-05
2.60127e-06
-8.0579e-05
-2.96756e-06
-8.90158e-05
-5.94956e-06
-9.62686e-05
-6.65064e-06
-0.000101682
-4.74802e-06
-0.000106585
-2.09406e-07
-0.00011195
5.49276e-06
-0.000117554
8.38786e-06
-0.000122728
9.88985e-06
-0.000127135
1.03118e-05
-0.000130701
1.00326e-05
-0.000133486
9.39749e-06
-0.000135318
8.45005e-06
-0.000136518
8.08365e-06
-0.000137176
8.19006e-06
-0.000137365
8.65593e-06
-0.000136806
8.97389e-06
-0.000135336
9.17634e-06
-0.000132839
9.28036e-06
-0.000129183
9.25727e-06
-0.000124208
9.08449e-06
-0.000117778
8.76908e-06
-0.000109704
8.14601e-06
-9.97266e-05
6.91802e-06
-8.76127e-05
4.78453e-06
-7.24054e-05
8.43031e-07
-5.42568e-05
-3.2808e-06
-3.20256e-05
-8.09521e-06
-4.20809e-06
-1.32071e-05
3.04691e-05
-1.7855e-05
7.39856e-05
-2.1826e-05
0.000127123
-2.50118e-05
0.000189238
-2.80098e-05
0.000258241
-3.20737e-05
0.000331132
-3.88215e-05
0.000404534
-4.9785e-05
0.000476812
-6.59135e-05
0.000543704
-8.72703e-05
0.0006059
-0.000111645
0.000661933
-0.000137296
0.000713494
-0.000162186
0.000761899
-0.00018478
0.000807063
-0.000204354
0.000848221
-0.000220395
0.000884498
-0.000232382
0.000915195
-0.000239889
0.000939925
-0.000242722
0.000958666
-0.00024098
0.000971746
-0.000235046
0.000979752
-0.000225552
0.000983437
-0.000213312
0.000983617
-0.000199252
0.000981082
-0.000184337
0.000976525
-0.000169531
0.000970458
-0.000155765
0.000963174
-0.000144008
0.000954508
-0.000135121
0.000944316
-0.000130226
-0.000130302
0.000759397
0.000238011
0.000790536
0.000233802
0.000828351
0.000236349
0.000874985
0.000245408
0.000927002
0.000257137
0.000978871
0.000269503
0.00102441
0.00028187
0.00105755
0.000292918
0.00107319
0.000300603
0.00106786
0.000303245
0.00104042
0.000300179
0.000991566
0.00029163
0.000923242
0.000278079
0.000838863
0.00025901
0.000741528
0.000234643
0.000636637
0.000207895
0.00053215
0.000173963
0.000433894
0.000142309
0.000348919
0.000114939
0.000275982
9.12722e-05
0.000213672
7.17843e-05
0.000160333
5.59404e-05
0.000114012
4.33541e-05
7.43842e-05
3.36779e-05
4.15406e-05
2.6193e-05
1.64084e-05
2.03842e-05
1.80544e-07
1.60185e-05
-7.38194e-06
1.30552e-05
-9.57605e-06
1.0582e-05
-8.32754e-06
8.64134e-06
-5.00701e-06
6.9913e-06
-4.56012e-07
5.4816e-06
4.91658e-06
4.0249e-06
1.07858e-05
2.58085e-06
1.71595e-05
1.7099e-06
2.4736e-05
6.13578e-07
3.39701e-05
-5.78185e-07
4.48277e-05
-1.88364e-06
5.76078e-05
-3.60385e-06
7.25719e-05
-5.68369e-06
8.9997e-05
-8.16781e-06
0.000110176
-1.10945e-05
0.000133444
-1.44985e-05
0.00016004
-1.84509e-05
0.000190025
-2.3067e-05
0.000223288
-2.8478e-05
0.000258857
-3.47259e-05
0.00029708
-4.15041e-05
0.000337629
-4.86444e-05
0.000380317
-5.58947e-05
0.000425348
-6.2886e-05
0.000472917
-6.93952e-05
0.000523392
-7.54863e-05
0.000576938
-8.15565e-05
0.000633226
-8.83612e-05
0.000691257
-9.68527e-05
0.000749374
-0.000107902
0.000805409
-0.000121949
0.000856951
-0.000138812
0.000902818
-0.000157512
0.000942233
-0.000176711
0.000975039
-0.000194992
0.00100132
-0.000211064
0.00102102
-0.000224047
0.00103403
-0.000233412
0.00104048
-0.000238831
0.00104076
-0.000240162
0.00103552
-0.000237484
0.00102565
-0.00023111
0.00101216
-0.000221554
0.000996078
-0.000209475
0.000978387
-0.000195621
0.000959914
-0.000180778
0.000941301
-0.000165724
0.000922976
-0.000151205
0.000905129
-0.000137918
0.000887693
-0.000126572
0.000870291
-0.00011772
0.000852284
-0.000112218
-0.000110199
0.000672433
0.000206414
0.000702275
0.000203961
0.000733372
0.000205253
0.000767839
0.00021094
0.000806614
0.000218362
0.000850037
0.000226081
0.000897301
0.000234605
0.000946031
0.000244188
0.000992642
0.000253993
0.00103305
0.000262834
0.00106349
0.000269743
0.00108117
0.000273948
0.00108445
0.000274804
0.00107208
0.00027138
0.0010437
0.000263015
0.00100104
0.000250561
0.000949041
0.00022596
0.000891667
0.000199683
0.000831912
0.000174694
0.000772167
0.000151017
0.000714631
0.000129321
0.000660589
0.000109982
0.000610846
9.30974e-05
0.00056599
7.85337e-05
0.000526224
6.59585e-05
0.00049153
5.50786e-05
0.000461884
4.56648e-05
0.000437507
3.74321e-05
0.000418057
3.00322e-05
0.000403312
2.33862e-05
0.000392947
1.73556e-05
0.00038661
1.1819e-05
0.000384017
6.61737e-06
0.000385371
1.22772e-06
0.000390331
-3.2506e-06
0.000398916
-7.97095e-06
0.00041105
-1.27129e-05
0.000426626
-1.7459e-05
0.000445372
-2.23498e-05
0.000467105
-2.74169e-05
0.00049162
-3.26826e-05
0.000518704
-3.81784e-05
0.000548141
-4.39358e-05
0.00057968
-4.99904e-05
0.000612994
-5.63803e-05
0.00064764
-6.31245e-05
0.000683098
-7.01839e-05
0.000718999
-7.74046e-05
0.000754948
-8.45937e-05
0.000790609
-9.15559e-05
0.000825824
-9.81013e-05
0.000860569
-0.00010414
0.000894858
-0.000109775
0.000928634
-0.000115333
0.000961611
-0.000121338
0.000993165
-0.000128407
0.00102233
-0.000137064
0.00104793
-0.000147547
0.00106879
-0.000159671
0.00108405
-0.000172777
0.00109321
-0.000185874
0.00109612
-0.000197899
0.00109296
-0.000207903
0.00108412
-0.000215209
0.00107015
-0.000219437
0.00105175
-0.00022043
0.00102978
-0.000218201
0.00100523
-0.000212929
0.000979067
-0.000204947
0.000952224
-0.000194712
0.000925508
-0.000182759
0.000899557
-0.000169669
0.000874815
-0.000156036
0.000851532
-0.000142442
0.000829773
-0.000129446
0.000809415
-0.000117561
0.000790162
-0.000107319
0.000771496
-9.90541e-05
0.00075278
-9.35025e-05
-9.02108e-05
0.000594386
0.000177665
0.00062317
0.000175177
0.000652323
0.000176099
0.000682115
0.000181149
0.000712924
0.000187552
0.000745613
0.000193392
0.000781181
0.000199037
0.000820194
0.000205175
0.000862412
0.000211775
0.000906708
0.000218538
0.000951216
0.000225234
0.000993661
0.000231504
0.00103171
0.000236753
0.00106298
0.000240111
0.0010853
0.000240694
0.00109753
0.000238332
0.00109977
0.00022372
0.00109369
0.000205761
0.00108083
0.000187554
0.00106268
0.000169165
0.00104093
0.000151073
0.00101712
0.00013379
0.000992598
0.000117623
0.000968446
0.000102686
0.000945453
8.89516e-05
0.000924198
7.63337e-05
0.000905133
6.47291e-05
0.000888582
5.39829e-05
0.000874683
4.39319e-05
0.000863575
3.44939e-05
0.000855335
2.55958e-05
0.000850003
1.71509e-05
0.000847565
9.0553e-06
0.000847428
1.36507e-06
0.000850344
-6.16691e-06
0.000855749
-1.3376e-05
0.000863494
-2.04577e-05
0.000873432
-2.73967e-05
0.000885308
-3.42266e-05
0.000898874
-4.0982e-05
0.000913873
-4.76819e-05
0.000930036
-5.43417e-05
0.000947076
-6.09762e-05
0.000964685
-6.75986e-05
0.00098252
-7.42154e-05
0.00100021
-8.08141e-05
0.00101737
-8.73445e-05
0.00103367
-9.3701e-05
0.00104882
-9.97481e-05
0.00106263
-0.000105364
0.00107499
-0.000110467
0.00108591
-0.000115054
0.00109539
-0.000119259
0.00110342
-0.000123359
0.00110983
-0.000127748
0.00111428
-0.000132854
0.00111623
-0.000139019
0.00111506
-0.000146373
0.00111013
-0.000154748
0.00110102
-0.000163666
0.00108757
-0.000172421
0.00106992
-0.000180255
0.00104851
-0.000186492
0.00102394
-0.000190638
0.000996916
-0.000192412
0.000968196
-0.00019171
0.000938556
-0.000188561
0.00090874
-0.000183113
0.000879408
-0.000175615
0.000851095
-0.000166399
0.000824196
-0.000155859
0.000798954
-0.000144428
0.000775476
-0.000132558
0.000753739
-0.000120705
0.000733616
-0.000109322
0.000714868
-9.88134e-05
0.000697165
-8.96154e-05
0.000680002
-8.18912e-05
0.00066291
-7.64109e-05
-7.20009e-05
0.000525111
0.000151816
0.000551936
0.000148352
0.000579146
0.000148889
0.000606468
0.000153828
0.000634007
0.000160013
0.000661953
0.000165446
0.000690628
0.000170362
0.000720605
0.000175198
0.000752535
0.000179845
0.000786874
0.000184199
0.000823723
0.000188386
0.00086273
0.000192496
0.000903081
0.000196402
0.000943487
0.000199705
0.00098231
0.000201872
0.00101803
0.000202613
0.00104832
0.000193426
0.00107278
0.000181306
0.00109162
0.000168715
0.00110524
0.000155546
0.00111427
0.000142036
0.00111951
0.000128553
0.00112176
0.000115373
0.00112179
0.000102653
0.00112029
9.04553e-05
0.00111784
7.87877e-05
0.00111493
6.76326e-05
0.00111197
5.69456e-05
0.00110923
4.66687e-05
0.00110696
3.67684e-05
0.00110533
2.72275e-05
0.00110445
1.80227e-05
0.00110437
9.14399e-06
0.00110499
7.44933e-07
0.00110642
-7.60031e-06
0.00110848
-1.54355e-05
0.00111105
-2.30291e-05
0.00111404
-3.03824e-05
0.00111731
-3.74964e-05
0.00112071
-4.43884e-05
0.0011241
-5.10705e-05
0.00112731
-5.75495e-05
0.00113016
-6.38312e-05
0.00113249
-6.992e-05
0.00113408
-7.58142e-05
0.00113477
-8.14986e-05
0.00113436
-8.69351e-05
0.00113272
-9.20578e-05
0.00112976
-9.67883e-05
0.00112546
-0.000101065
0.00111986
-0.000104866
0.00111304
-0.000108237
0.00110509
-0.000111313
0.00109606
-0.000114326
0.00108589
-0.000117575
0.0010744
-0.000121365
0.00106131
-0.000125931
0.00104629
-0.00013135
0.00102903
-0.000137491
0.00100938
-0.00014401
0.00098736
-0.000150404
0.000963222
-0.000156118
0.000937372
-0.000160641
0.000910316
-0.000163582
0.000882593
-0.000164689
0.000854727
-0.000163843
0.000827197
-0.000161032
0.000800413
-0.00015633
0.000774697
-0.000149898
0.00075027
-0.000141972
0.000727259
-0.000132848
0.000705706
-0.000122874
0.00068558
-0.000112432
0.000666795
-0.00010192
0.000649212
-9.17386e-05
0.000632634
-8.22359e-05
0.000616808
-7.37888e-05
0.000601338
-6.64219e-05
0.000585898
-6.09709e-05
-5.55163e-05
0.00046394
0.000128551
0.000488639
0.000123652
0.00051348
0.000124049
0.000538159
0.000129148
0.000563122
0.00013505
0.000588445
0.000140123
0.00061397
0.000144837
0.000639764
0.000149405
0.000666083
0.000153526
0.000693246
0.000157037
0.000721611
0.00016002
0.00075152
0.000162586
0.000783171
0.000164752
0.000816474
0.000166402
0.000850999
0.000167347
0.000886112
0.0001675
0.000919681
0.000159856
0.000950824
0.000150163
0.000979168
0.000140371
0.00100445
0.000130266
0.00102659
0.000119896
0.00104569
0.000109447
0.00106198
9.90829e-05
0.00107574
8.88976e-05
0.00108726
7.89332e-05
0.00109685
6.92024e-05
0.00110477
5.97062e-05
0.00111128
5.04345e-05
0.00111658
4.13702e-05
0.00112084
3.25098e-05
0.0011242
2.38662e-05
0.00112677
1.54552e-05
0.00112862
7.29787e-06
0.00112982
-4.53928e-07
0.00113031
-8.09117e-06
0.00113015
-1.52844e-05
0.00112933
-2.22085e-05
0.00112783
-2.88758e-05
0.00112561
-3.52831e-05
0.00112266
-4.14355e-05
0.00111893
-4.73398e-05
0.00111438
-5.30007e-05
0.00110897
-5.8422e-05
0.00110266
-6.36062e-05
0.0010954
-6.85521e-05
0.00108715
-7.32491e-05
0.00107789
-7.76734e-05
0.00106762
-8.17873e-05
0.00105638
-8.5549e-05
0.00104424
-8.8932e-05
0.00103132
-9.19442e-05
0.00101773
-9.46439e-05
0.00100357
-9.71534e-05
0.0009889
-9.96578e-05
0.000973709
-0.000102384
0.000957899
-0.000105555
0.000941305
-0.000109338
0.000923739
-0.000113784
0.000905038
-0.000118791
0.000885129
-0.000124101
0.000864062
-0.000129337
0.000842009
-0.000134064
0.000819236
-0.000137869
0.000796061
-0.000140407
0.000772805
-0.000141434
0.000749765
-0.000140803
0.000727192
-0.000138459
0.000705286
-0.000134423
0.000684187
-0.0001288
0.000663985
-0.00012177
0.00064472
-0.000113583
0.000626397
-0.000104551
0.000608993
-9.50281e-05
0.000592462
-8.53897e-05
0.000576736
-7.6012e-05
0.000561709
-6.72093e-05
0.000547224
-5.93035e-05
0.000533016
-5.22136e-05
0.000518801
-4.67562e-05
-4.04507e-05
0.000410014
0.000107501
0.000432754
0.000100912
0.000455183
0.00010162
0.000477152
0.000107179
0.000499455
0.000112748
0.000522203
0.000117375
0.000545203
0.000121836
0.00056844
0.000126167
0.00059194
0.000130026
0.000615686
0.000133291
0.000639722
0.000135984
0.00066419
0.000138119
0.000689281
0.000139661
0.000715153
0.00014053
0.000741864
0.000140635
0.000769387
0.000139977
0.000796434
0.00013281
0.00082252
0.000124076
0.000847426
0.000115466
0.000870883
0.000106809
0.000892676
9.81022e-05
0.00091268
8.94426e-05
0.000930845
8.0918e-05
0.000947174
7.25687e-05
0.000961706
6.44014e-05
0.0009745
5.64082e-05
0.000985629
4.85774e-05
0.000995168
4.0896e-05
0.00100319
3.33513e-05
0.00100975
2.59432e-05
0.00101493
1.86866e-05
0.00101878
1.16046e-05
0.00102135
4.72706e-06
0.00102278
-1.87973e-06
0.00102301
-8.31735e-06
0.00102219
-1.44634e-05
0.00102033
-2.03582e-05
0.00101749
-2.60262e-05
0.00101367
-3.14684e-05
0.00100892
-3.66851e-05
0.00100326
-4.16807e-05
0.00099672
-4.64594e-05
0.000989322
-5.10245e-05
0.000981094
-5.5378e-05
0.000972061
-5.95187e-05
0.000962251
-6.34391e-05
0.000951701
-6.71235e-05
0.000940462
-7.05485e-05
0.000928604
-7.36908e-05
0.000916212
-7.654e-05
0.000903381
-7.91136e-05
0.000890206
-8.14682e-05
0.000876759
-8.37069e-05
0.000863079
-8.59772e-05
0.000849149
-8.84538e-05
0.0008349
-9.13063e-05
0.00082022
-9.46577e-05
0.000804979
-9.85427e-05
0.000789067
-0.000102879
0.000772428
-0.000107462
0.00075508
-0.000111989
0.000737117
-0.000116101
0.00071869
-0.000119441
0.00069998
-0.000121697
0.000681172
-0.000122626
0.000662432
-0.000122063
0.000643898
-0.000119925
0.000625682
-0.000116207
0.000607865
-0.000110983
0.000590508
-0.000104413
0.000573656
-9.67306e-05
0.000557342
-8.82371e-05
0.000541595
-7.9281e-05
0.000526435
-7.02299e-05
0.000511867
-6.14438e-05
0.000497869
-5.32112e-05
0.000484355
-4.57904e-05
0.000471175
-3.90335e-05
0.000458011
-3.35917e-05
-2.6753e-05
0.000362528
8.82933e-05
0.000383496
7.99438e-05
0.000403597
8.15193e-05
0.000423064
8.77118e-05
0.00044288
9.29312e-05
0.000463078
9.71769e-05
0.000483524
0.00010139
0.000504297
0.000105394
0.00052542
0.000108903
0.000546806
0.000111905
0.000568367
0.000114423
0.000590058
0.000116427
0.000611866
0.000117854
0.000633785
0.000118611
0.000655814
0.000118605
0.000677971
0.000117821
0.000699347
0.000111434
0.000719749
0.000103674
0.000739187
9.60272e-05
0.000757599
8.83973e-05
0.000774906
8.07955e-05
0.000791046
7.33027e-05
0.000805976
6.59876e-05
0.000819668
5.88769e-05
0.000832103
5.19666e-05
0.000843271
4.524e-05
0.00085317
3.86779e-05
0.000861805
3.22616e-05
0.000869181
2.59751e-05
0.000875311
1.9813e-05
0.000880214
1.37837e-05
0.000883916
7.90272e-06
0.00088646
2.18326e-06
0.000887917
-3.33648e-06
0.000888306
-8.70713e-06
0.000887717
-1.3874e-05
0.00088619
-1.88312e-05
0.000883762
-2.35978e-05
0.000880473
-2.81796e-05
0.000876365
-3.25769e-05
0.000871476
-3.67923e-05
0.000865846
-4.0829e-05
0.000859511
-4.46894e-05
0.000852507
-4.8374e-05
0.000844868
-5.18805e-05
0.000836631
-5.52019e-05
0.000827833
-5.83258e-05
0.00081852
-6.12356e-05
0.000808746
-6.39166e-05
0.000798572
-6.63658e-05
0.000788061
-6.86031e-05
0.000777273
-7.06802e-05
0.000766251
-7.26847e-05
0.000755012
-7.47378e-05
0.000743538
-7.69796e-05
0.000731776
-7.95446e-05
0.000719646
-8.25281e-05
0.000707058
-8.5954e-05
0.00069393
-8.97515e-05
0.000680216
-9.37487e-05
0.000665916
-9.76882e-05
0.000651075
-0.00010126
0.000635777
-0.000104143
0.000620125
-0.000106046
0.000604228
-0.000106728
0.000588185
-0.00010602
0.000572086
-0.000103826
0.000556013
-0.000100134
0.000540043
-9.50133e-05
0.000524252
-8.86223e-05
0.000508721
-8.11992e-05
0.000493532
-7.30487e-05
0.000478771
-6.45193e-05
0.000464513
-5.59724e-05
0.000450818
-4.77482e-05
0.000437716
-4.01098e-05
0.000425166
-3.32405e-05
0.0004131
-2.69676e-05
0.000401125
-2.16168e-05
-1.46223e-05
0.000320758
7.05686e-05
0.000340087
6.06148e-05
0.000357962
6.3644e-05
0.000375206
7.04679e-05
0.000392819
7.53176e-05
0.00041069
7.93066e-05
0.000428757
8.33232e-05
0.000447162
8.69893e-05
0.000465939
9.01264e-05
0.000485023
9.28205e-05
0.000504347
9.50995e-05
0.000523846
9.69276e-05
0.000543446
9.82536e-05
0.000563057
9.90007e-05
0.000582581
9.90808e-05
0.000601944
9.84574e-05
0.0006203
9.30789e-05
0.000637491
8.64831e-05
0.000653582
7.9936e-05
0.0006686
7.33801e-05
0.000682556
6.68388e-05
0.000695469
6.03894e-05
0.000707358
5.4099e-05
0.000718239
4.79964e-05
0.000728124
4.20816e-05
0.000737023
3.63411e-05
0.000744943
3.07578e-05
0.00075189
2.53144e-05
0.00075787
1.9995e-05
0.000762891
1.47926e-05
0.000766962
9.71186e-06
0.000770101
4.76387e-06
0.000772342
-5.7033e-08
0.000773716
-4.71067e-06
0.000774247
-9.238e-06
0.000773976
-1.3603e-05
0.000772939
-1.77949e-05
0.000771167
-2.18252e-05
0.000768688
-2.57014e-05
0.000765536
-2.94246e-05
0.00076174
-3.29963e-05
0.00075733
-3.64187e-05
0.000752334
-3.9693e-05
0.000746778
-4.28186e-05
0.00074069
-4.57922e-05
0.000734095
-4.86069e-05
0.000727021
-5.1252e-05
0.0007195
-5.37148e-05
0.000711569
-5.59856e-05
0.000703269
-5.80653e-05
0.00069464
-5.99745e-05
0.00068572
-6.17602e-05
0.000676535
-6.34992e-05
0.000667091
-6.52941e-05
0.000657373
-6.7262e-05
0.000647342
-6.95129e-05
0.000636937
-7.2123e-05
0.00062609
-7.51077e-05
0.00061474
-7.84011e-05
0.000602841
-8.18502e-05
0.000590379
-8.52253e-05
0.000577365
-8.82467e-05
0.000563841
-9.06192e-05
0.000549863
-9.20674e-05
0.000535497
-9.23623e-05
0.000520818
-9.13405e-05
0.000505907
-8.8915e-05
0.000490855
-8.50828e-05
0.00047577
-7.99283e-05
0.000460771
-7.36228e-05
0.000445987
-6.64149e-05
0.000431551
-5.86129e-05
0.00041759
-5.05589e-05
0.000404215
-4.25973e-05
0.000391505
-3.50376e-05
0.000379509
-2.81142e-05
0.000368195
-2.19262e-05
0.00035755
-1.63231e-05
0.000347101
-1.11676e-05
-4.3844e-06
0.000284047
5.3995e-05
0.000301804
4.28575e-05
0.000317587
4.78611e-05
0.000332893
5.5162e-05
0.000348559
5.96516e-05
0.000364356
6.35098e-05
0.00038032
6.73585e-05
0.000396611
7.06989e-05
0.000413236
7.35009e-05
0.000430146
7.59107e-05
0.000447302
7.79436e-05
0.000464664
7.95658e-05
0.000482171
8.07464e-05
0.000499741
8.14312e-05
0.000517271
8.15501e-05
0.000534661
8.10673e-05
0.000551104
7.66362e-05
0.00056642
7.11667e-05
0.000580651
6.57059e-05
0.000593819
6.02117e-05
0.00060595
5.47074e-05
0.000617077
4.92623e-05
0.000627238
4.39387e-05
0.000636468
3.87662e-05
0.000644801
3.37485e-05
0.000652265
2.88767e-05
0.000658885
2.41383e-05
0.000664679
1.95198e-05
0.000669667
1.50073e-05
0.000673864
1.05958e-05
0.000677286
6.29004e-06
0.000679953
2.09662e-06
0.00068188
-1.98381e-06
0.000683097
-5.92807e-06
0.000683614
-9.75533e-06
0.00068346
-1.34487e-05
0.000682663
-1.69974e-05
0.000681245
-2.04076e-05
0.00067923
-2.36864e-05
0.000676642
-2.68361e-05
0.000673503
-2.98574e-05
0.000669835
-3.27515e-05
0.000665661
-3.55187e-05
0.000661
-3.81576e-05
0.000655872
-4.0664e-05
0.000650296
-4.30308e-05
0.000644292
-4.52482e-05
0.000637883
-4.73053e-05
0.000631092
-4.91948e-05
0.000623946
-5.09191e-05
0.00061647
-5.24983e-05
0.000608684
-5.39751e-05
0.000600602
-5.54171e-05
0.000592222
-5.69138e-05
0.000583525
-5.85649e-05
0.000574475
-6.04629e-05
0.000565021
-6.26689e-05
0.000555103
-6.51903e-05
0.000544665
-6.79624e-05
0.000533658
-7.08432e-05
0.000522055
-7.36221e-05
0.000509851
-7.60425e-05
0.000497065
-7.78334e-05
0.000483739
-7.87419e-05
0.000469938
-7.85614e-05
0.000455748
-7.71506e-05
0.00044128
-7.44463e-05
0.000426666
-7.04689e-05
0.000412061
-6.53238e-05
0.000397634
-5.91956e-05
0.000383555
-5.23363e-05
0.000369987
-4.50445e-05
0.000357068
-3.764e-05
0.000344907
-3.04357e-05
0.000333567
-2.36983e-05
0.000323085
-1.76317e-05
0.000313407
-1.2249e-05
0.000304559
-7.47469e-06
0.000296008
-2.61635e-06
3.67717e-06
0.000251798
3.82832e-05
0.000267991
2.66645e-05
0.000281861
3.39914e-05
0.000295501
4.15219e-05
0.000309433
4.57199e-05
0.00032339
4.95522e-05
0.000337519
5.32298e-05
0.00035196
5.62579e-05
0.000366692
5.87689e-05
0.00038167
6.09326e-05
0.000396868
6.27453e-05
0.000412256
6.4178e-05
0.000427787
6.52154e-05
0.000443398
6.58198e-05
0.000459011
6.59372e-05
0.000474539
6.5539e-05
0.000489254
6.19218e-05
0.000502979
5.74418e-05
0.000515737
5.2948e-05
0.000527541
4.84078e-05
0.000538406
4.38423e-05
0.000548356
3.93122e-05
0.000557422
3.48729e-05
0.000565636
3.05522e-05
0.000573029
2.63546e-05
0.000579632
2.22737e-05
0.000585471
1.83e-05
0.000590568
1.44231e-05
0.000594945
1.06303e-05
0.000598621
6.91894e-06
0.000601616
3.29552e-06
0.000603947
-2.34519e-07
0.000605631
-3.66812e-06
0.000606694
-6.99052e-06
0.000607148
-1.0209e-05
0.000607014
-1.33156e-05
0.000606318
-1.63012e-05
0.000605079
-1.91684e-05
0.000603316
-2.19232e-05
0.000601047
-2.45677e-05
0.000598292
-2.71022e-05
0.000595067
-2.95263e-05
0.000591387
-3.18392e-05
0.000587268
-3.40377e-05
0.00058272
-3.61165e-05
0.000577757
-3.80674e-05
0.000572388
-3.98801e-05
0.000566628
-4.15444e-05
0.000560486
-4.30534e-05
0.000553977
-4.44103e-05
0.000547113
-4.56338e-05
0.000539901
-4.67631e-05
0.000532343
-4.78593e-05
0.000524431
-4.90018e-05
0.000516144
-5.02778e-05
0.000507447
-5.1766e-05
0.000498294
-5.35162e-05
0.000488633
-5.55289e-05
0.000478411
-5.77402e-05
0.000467585
-6.00174e-05
0.000456131
-6.21678e-05
0.000444048
-6.39593e-05
0.000431364
-6.515e-05
0.000418141
-6.55187e-05
0.00040447
-6.48909e-05
0.000390477
-6.31576e-05
0.000376316
-6.0285e-05
0.000362164
-5.63173e-05
0.000348215
-5.13741e-05
0.000334661
-4.56421e-05
0.000321685
-3.93602e-05
0.000309442
-3.28011e-05
0.000298049
-2.6247e-05
0.000287581
-1.99679e-05
0.000278064
-1.41816e-05
0.000269499
-9.0661e-06
0.000261801
-4.55101e-06
0.000255019
-6.93425e-07
0.000248616
3.78679e-06
9.4561e-06
0.000223468
2.31975e-05
0.000238065
1.20681e-05
0.000250245
2.18105e-05
0.00026246
2.93076e-05
0.000274839
3.33407e-05
0.000287177
3.72145e-05
0.000299706
4.07002e-05
0.00031253
4.34339e-05
0.000325606
4.56934e-05
0.000338896
4.76423e-05
0.000352381
4.92611e-05
0.00036603
5.0529e-05
0.000379802
5.14428e-05
0.000393646
5.19759e-05
0.000407497
5.20856e-05
0.000421286
5.17505e-05
0.000434366
4.88421e-05
0.000446579
4.52283e-05
0.000457945
4.15817e-05
0.000468475
3.78778e-05
0.00047818
3.41373e-05
0.000487078
3.04148e-05
0.00049519
2.67604e-05
0.000502543
2.31997e-05
0.00050916
1.97371e-05
0.000515067
1.63672e-05
0.000520284
1.30828e-05
0.000524832
9.87542e-06
0.00052873
6.73178e-06
0.000531997
3.65263e-06
0.000534648
6.43828e-07
0.000536705
-2.29089e-06
0.000538182
-5.14587e-06
0.000539101
-7.9094e-06
0.000539475
-1.05825e-05
0.000539319
-1.31603e-05
0.000538653
-1.56347e-05
0.00053749
-1.80057e-05
0.000535845
-2.02774e-05
0.000533728
-2.24511e-05
0.000531152
-2.45258e-05
0.000528125
-2.64997e-05
0.000524656
-2.83701e-05
0.000520751
-3.01325e-05
0.000516415
-3.17802e-05
0.000511652
-3.33043e-05
0.000506466
-3.46946e-05
0.000500863
-3.59414e-05
0.000494849
-3.70394e-05
0.000488432
-3.79929e-05
0.000481618
-3.88206e-05
0.000474416
-3.95603e-05
0.000466825
-4.02684e-05
0.00045884
-4.10169e-05
0.000450445
-4.18831e-05
0.000441614
-4.29348e-05
0.00043231
-4.42125e-05
0.000422493
-4.57116e-05
0.000412123
-4.73706e-05
0.000401174
-4.90679e-05
0.000389637
-5.06311e-05
0.000377534
-5.18565e-05
0.00036492
-5.25358e-05
0.000351885
-5.2484e-05
0.000338557
-5.15623e-05
0.000325092
-4.96934e-05
0.000311675
-4.68679e-05
0.000298503
-4.31447e-05
0.000285774
-3.86449e-05
0.000273674
-3.35425e-05
0.000262364
-2.80497e-05
0.000251964
-2.24015e-05
0.000242552
-1.68347e-05
0.000234157
-1.15733e-05
0.000226762
-6.78679e-06
0.000220333
-2.63671e-06
0.000214754
1.02806e-06
0.000210088
3.9727e-06
0.000205871
8.00316e-06
1.30355e-05
0.00019856
8.56663e-06
0.000211521
-8.92911e-07
0.000222268
1.1064e-05
0.00023325