/*--------------------------------*- C++ -*----------------------------------*\
| =========                 |                                                 |
| \\      /  F ield         | OpenFOAM: The Open Source CFD Toolbox           |
|  \\    /   O peration     | Version:  v1912                                 |
|   \\  /    A nd           | Website:  www.openfoam.com                      |
|    \\/     M anipulation  |                                                 |
\*---------------------------------------------------------------------------*/
FoamFile
{
    version     2.0;
    format      ascii;
    class       volVectorField;
    location    "550";
    object      U;
}
// * * * * * * * * * * * * * * * * * * * * * * * * * * * * * * * * * * * * * //

dimensions      [0 1 -1 0 0 0 0];


internalField   nonuniform List<vector> 
2000
(
(0.84616 0.187394 0)
(0.515133 0.124089 0)
(0.223448 0.0684415 0)
(0.0598068 0.0174443 6.19511e-20)
(-0.00455615 -0.0232229 1.20675e-17)
(-0.0642038 -0.0384865 1.04227e-17)
(-0.0776016 -0.0372472 0)
(-0.0715954 -0.0166614 0)
(-0.0590605 0.0117063 0)
(-0.0421562 0.0254579 2.36679e-17)
(-0.0415827 0.0109642 -1.45003e-17)
(-0.0273612 -0.000637218 -1.36185e-17)
(-0.0162875 -0.00267204 0)
(-0.0200331 -0.00263598 0)
(-0.021879 -0.00224424 -1.08191e-17)
(-0.0168626 0.000903424 0)
(-0.0106025 0.00355964 9.73889e-18)
(-0.00970316 0.00626337 3.11762e-21)
(-0.0107202 0.00613835 9.41391e-18)
(-0.0114834 0.00489885 -4.64641e-18)
(-0.0113472 0.00279939 9.18623e-18)
(-0.0101653 0.000828988 0)
(-0.00804283 -0.000169161 0)
(-0.00555001 -0.000599748 -6.2358e-23)
(-0.00327742 -0.000770368 0)
(-0.00146141 -0.000798162 -4.51618e-18)
(-0.000237927 -0.000751273 0)
(0.000471181 -0.000692686 4.52733e-18)
(0.000888013 -0.00069702 0)
(0.00120007 -0.000710942 0)
(0.001497 -0.000635422 0)
(0.00179299 -0.000520327 1.1496e-18)
(0.00207241 -0.000427415 0)
(0.002326 -0.00038632 -5.83453e-19)
(0.0025377 -0.000380459 1.94724e-14)
(0.00268711 -0.000388938 1.94588e-14)
(0.00276556 -0.000414595 6.01723e-19)
(0.00271673 -0.000497938 -6.09234e-19)
(0.00253864 -0.000632789 0)
(0.00223079 -0.0007875 2.50611e-18)
(0.00177407 -0.000936595 0)
(0.00113348 -0.00106454 -2.58849e-18)
(0.000265087 -0.00115722 0)
(-0.000888759 -0.00119942 -5.3573e-18)
(-0.00237755 -0.00121408 2.72158e-18)
(-0.00423934 -0.00129055 0)
(-0.00655761 -0.00147624 0)
(-0.00948633 -0.00168265 -2.85504e-18)
(-0.0133426 -0.00160181 0)
(-0.018735 -0.000643852 2.93217e-18)
(-0.0266374 0.00188854 0)
(-0.0383307 0.00629271 5.9127e-18)
(-0.0552028 0.0120285 -5.86318e-18)
(-0.0783992 0.0176985 5.74324e-18)
(-0.10827 0.0214115 -2.74407e-18)
(-0.143916 0.0213299 0)
(-0.183257 0.0162531 2.33456e-18)
(-0.223385 0.00602174 -2.07844e-18)
(-0.260568 -0.00834503 -4.08764e-18)
(-0.289975 -0.0246453 3.31102e-18)
(-0.306729 -0.0396613 -3.26371e-18)
(-0.309281 -0.05018 3.48757e-18)
(-0.30294 -0.0562281 -3.9755e-18)
(-0.288003 -0.0591526 4.77791e-18)
(-0.265559 -0.0599933 -1.18383e-20)
(-0.236452 -0.0594862 7.1602e-18)
(-0.201097 -0.0578375 0)
(-0.159664 -0.0550358 0)
(-0.112415 -0.0510691 7.63049e-20)
(-0.0600906 -0.0459761 0)
(-0.00396065 -0.0396914 1.98895e-17)
(0.0557724 -0.0318757 0)
(0.119381 -0.0223819 1.98844e-17)
(0.186372 -0.0113689 -4.88296e-19)
(0.255997 0.000918326 1.71674e-17)
(0.329562 0.0141758 2.9867e-17)
(0.403575 0.0280272 7.3462e-19)
(0.49122 0.0420165 -1.01494e-17)
(0.557148 0.0544905 -6.53121e-18)
(0.713697 0.0652179 0)
(1.0153 0.210384 0)
(0.944633 0.194211 0)
(0.804475 0.179983 -3.52866e-18)
(0.654422 0.152313 7.28769e-18)
(0.509224 0.111169 0)
(0.360041 0.0683707 -7.28845e-18)
(0.216493 0.0293256 0)
(0.082133 -0.00530851 0)
(-0.0282878 -0.0180374 0)
(-0.0562063 -0.0189091 -1.73084e-17)
(-0.0667394 -0.0249895 1.57458e-17)
(-0.0719011 -0.0159935 1.44426e-17)
(-0.0637872 0.00637564 0)
(-0.050886 0.0207019 6.32273e-18)
(-0.0545002 0.0099804 0)
(-0.0482588 -0.0029309 0)
(-0.0375333 -0.00400623 0)
(-0.032781 -0.00108039 5.27063e-18)
(-0.0365557 0.000891686 -1.03379e-17)
(-0.0387362 0.000889387 -5.09226e-18)
(-0.0394289 7.23237e-05 0)
(-0.0383331 -0.00110563 0)
(-0.0356149 -0.00231649 0)
(-0.0323733 -0.00290542 -7.41521e-18)
(-0.0292221 -0.00271547 0)
(-0.0264249 -0.00193014 4.95213e-18)
(-0.0242237 -0.000879917 2.48346e-18)
(-0.0227844 -8.21742e-06 0)
(-0.0221742 0.0003595 0)
(-0.022256 0.000391233 0)
(-0.022849 0.000215624 0)
(-0.023722 2.54762e-05 -6.32734e-19)
(-0.0247018 -0.000132698 0)
(-0.0257278 -0.000227657 3.20266e-19)
(-0.0268216 -0.000221553 1.61347e-19)
(-0.0280506 -9.57383e-05 0)
(-0.0294583 0.000134308 0)
(-0.0310704 0.000438427 6.62879e-19)
(-0.0329536 0.000797946 0)
(-0.0351295 0.001211 -1.35282e-18)
(-0.0376168 0.00168472 0)
(-0.0404239 0.00223067 -1.38268e-18)
(-0.0435595 0.0028553 0)
(-0.0470282 0.00354873 1.41319e-18)
(-0.0508198 0.00429461 1.43044e-18)
(-0.0549039 0.00512682 0)
(-0.0592501 0.00622593 0)
(-0.0638497 0.00796426 -2.96915e-18)
(-0.0686893 0.0108593 0)
(-0.0737313 0.0155099 1.35963e-20)
(-0.0789939 0.0224506 0)
(-0.0846735 0.0318199 0)
(-0.0911301 0.0429207 0)
(-0.0986905 0.0541031 0)
(-0.1071 0.0630362 6.03611e-18)
(-0.114843 0.0672784 0)
(-0.119502 0.0648553 -5.4951e-18)
(-0.119137 0.0548652 2.65865e-18)
(-0.112303 0.0382608 -2.31699e-18)
(-0.0951372 0.0178415 -4.88952e-18)
(-0.0633887 -0.00461402 5.03345e-18)
(-0.0452438 -0.0305223 -5.54797e-18)
(-0.0200849 -0.0511666 6.4894e-18)
(0.00777326 -0.065854 0)
(0.0386506 -0.0761889 -1.2925e-17)
(0.0730498 -0.0836397 -9.64523e-18)
(0.111749 -0.0889264 0)
(0.154943 -0.0920418 5.73126e-18)
(0.202269 -0.0926806 1.25472e-17)
(0.253141 -0.0906234 0)
(0.306898 -0.0857722 0)
(0.362952 -0.078104 0)
(0.420825 -0.067759 0)
(0.480251 -0.0550766 -1.36168e-17)
(0.540978 -0.0405985 5.9359e-18)
(0.603862 -0.0249934 -1.17698e-17)
(0.667321 -0.00920235 1.01619e-17)
(0.739138 0.00573661 -3.46815e-18)
(0.796081 0.0173802 0)
(0.911778 0.0229044 0)
(0.978489 0.201538 0)
(0.978854 0.193006 -2.78543e-18)
(0.969154 0.205111 3.48114e-18)
(0.939083 0.208532 -3.06017e-18)
(0.878034 0.194606 2.88476e-18)
(0.785605 0.168719 2.84281e-18)
(0.669348 0.138081 0)
(0.541012 0.106021 0)
(0.40822 0.0750637 0)
(0.285941 0.0459358 6.8657e-18)
(0.17388 0.0180239 0)
(0.072181 -0.00640178 0)
(-0.0214845 -0.0141539 0)
(-0.0469561 -0.00387633 -7.18335e-18)
(-0.0508817 -0.0116961 0)
(-0.0587464 -0.0181714 -6.04995e-18)
(-0.0593419 -0.0112776 0)
(-0.0481365 0.00902614 5.87524e-18)
(-0.0464402 0.0164644 2.87263e-18)
(-0.0508556 0.0125818 0)
(-0.0531877 0.00616011 -2.78983e-18)
(-0.0549524 -0.000263903 0)
(-0.0555444 -0.00465894 0)
(-0.0546239 -0.00649042 5.43677e-18)
(-0.0530603 -0.00657176 0)
(-0.0518805 -0.00570117 1.3584e-18)
(-0.0516942 -0.00420326 -4.07786e-18)
(-0.0525107 -0.00221572 0)
(-0.0538907 -0.000205858 0)
(-0.0553873 0.00125544 -6.81567e-19)
(-0.0570093 0.00220114 0)
(-0.0587382 0.00271795 1.12441e-22)
(-0.0604936 0.00294944 0)
(-0.0622296 0.00305923 6.90726e-19)
(-0.0639511 0.00321067 8.68872e-20)
(-0.0657304 0.00346249 0)
(-0.0676282 0.00380633 1.76373e-19)
(-0.0696628 0.00420725 -3.55712e-19)
(-0.0718208 0.00465868 -3.58934e-19)
(-0.0740746 0.00516289 -7.2485e-19)
(-0.0763904 0.00572556 7.32394e-19)
(-0.0787333 0.00635338 7.39658e-19)
(-0.0810755 0.00704363 0)
(-0.0833799 0.00776974 1.51647e-18)
(-0.0855386 0.00849471 -3.07522e-18)
(-0.0872909 0.00923291 0)
(-0.088216 0.0101544 -1.59e-18)
(-0.0878301 0.0116384 3.24299e-18)
(-0.0855981 0.0141771 0)
(-0.0808653 0.0183514 -1.69718e-18)
(-0.0729247 0.0246631 1.77996e-18)
(-0.0612634 0.0333783 -1.84725e-18)
(-0.0455197 0.0436194 -1.91664e-18)
(-0.0256676 0.0538491 0)
(-0.00192869 0.0618495 -3.94763e-18)
(0.0257387 0.065094 -1.88916e-18)
(0.0572309 0.0612962 1.63911e-18)
(0.0907284 0.0495927 1.53519e-18)
(0.124693 0.0290121 2.5745e-18)
(0.156513 0.00230618 0)
(0.186638 -0.0240332 0)
(0.214295 -0.0460068 0)
(0.242422 -0.0642739 -1.3132e-18)
(0.273991 -0.0799663 0)
(0.309964 -0.0936407 3.21748e-18)
(0.349797 -0.105264 0)
(0.392551 -0.114484 -1.98554e-18)
(0.437341 -0.120823 -4.45899e-18)
(0.483367 -0.123851 0)
(0.529953 -0.123316 -2.47322e-18)
(0.576612 -0.119212 2.57779e-18)
(0.623082 -0.111802 0)
(0.669309 -0.101606 0)
(0.715481 -0.0893194 0)
(0.761838 -0.075785 -5.41029e-18)
(0.809258 -0.0619262 0)
(0.857036 -0.048931 -1.88542e-18)
(0.91012 -0.037907 3.36997e-18)
(0.953007 -0.0312349 0)
(1.03534 -0.0302845 3.93361e-19)
(0.970611 0.209117 0)
(0.963917 0.194766 1.52491e-18)
(0.96643 0.198514 0)
(0.977152 0.206407 1.6942e-18)
(0.982034 0.208884 -3.00364e-18)
(0.968293 0.204266 -1.34076e-18)
(0.930748 0.193726 0)
(0.870757 0.177878 0)
(0.79113 0.156581 0)
(0.695411 0.131331 1.35074e-18)
(0.58948 0.10541 1.3825e-18)
(0.480051 0.0807004 0)
(0.369265 0.057998 0)
(0.266646 0.0376074 0)
(0.179641 0.0185403 0)
(0.100378 0.002673 6.39941e-18)
(0.0300187 -0.00993399 -3.38647e-18)
(-0.0310909 -0.00939235 0)
(-0.0329201 0.000974863 -3.28192e-18)
(-0.034803 0.00242803 1.61798e-18)
(-0.0347533 0.00133047 3.21016e-18)
(-0.0360042 -0.00132137 0)
(-0.0391895 -0.00399481 0)
(-0.0435307 -0.00524844 -3.11951e-18)
(-0.0471941 -0.00436071 0)
(-0.0494387 -0.00164736 -1.54379e-18)
(-0.0510796 0.00176294 1.54343e-18)
(-0.0535814 0.00428569 0)
(-0.0557242 0.00545646 0)
(-0.0579888 0.00600518 7.66871e-19)
(-0.0599563 0.00607155 0)
(-0.0616085 0.00579579 -7.69838e-19)
(-0.0628932 0.00534172 0)
(-0.0637912 0.00488242 -1.94747e-19)
(-0.064426 0.00465282 -9.81038e-20)
(-0.0648836 0.0047416 -2.4749e-20)
(-0.0651824 0.00511177 -2.99933e-19)
(-0.0652245 0.0056932 4.04317e-19)
(-0.0649313 0.00637782 4.09377e-19)
(-0.0642344 0.00710492 1.24555e-18)
(-0.0630527 0.00785257 -4.21274e-19)
(-0.0613036 0.00860677 4.28536e-19)
(-0.0589315 0.0093378 0)
(-0.055887 0.00996577 8.92425e-19)
(-0.0520598 0.010304 9.13232e-19)
(-0.0471404 0.010038 0)
(-0.0406738 0.0087868 1.93442e-18)
(-0.0327299 0.00651406 9.98991e-19)
(-0.0225592 0.00392936 0)
(-0.00996779 0.00165729 -3.26035e-18)
(0.00651279 0.000272827 -2.23194e-18)
(0.0279243 0.000388863 1.1078e-18)
(0.0541766 0.00184956 2.16978e-18)
(0.0858628 0.00379096 0)
(0.123001 0.00469237 9.82885e-19)
(0.164743 0.00275395 2.68857e-18)
(0.209794 -0.00359387 1.59042e-18)
(0.256067 -0.014881 -1.39442e-18)
(0.303012 -0.0299902 -6.44535e-19)
(0.348897 -0.0473184 0)
(0.393217 -0.0660786 0)
(0.435977 -0.084977 0)
(0.478049 -0.102947 1.71524e-18)
(0.520241 -0.119358 6.46247e-19)
(0.562496 -0.133731 0)
(0.604152 -0.14552 -1.56461e-18)
(0.644491 -0.154152 1.73963e-18)
(0.683009 -0.159178 -1.8736e-18)
(0.719448 -0.160371 -2.02133e-18)
(0.753791 -0.157765 1.26849e-19)
(0.786251 -0.151659 -2.4198e-18)
(0.817247 -0.142579 0)
(0.847336 -0.131218 0)
(0.877195 -0.118371 0)
(0.907433 -0.104901 0)
(0.938964 -0.0916914 0)
(0.971453 -0.079796 3.67806e-18)
(1.00824 -0.0700607 -1.34596e-18)
(1.03847 -0.0644135 0)
(1.09569 -0.0626732 -4.24125e-19)
(0.972988 0.216082 0)
(0.965831 0.201808 1.87064e-18)
(0.959206 0.1956 2.49217e-19)
(0.961489 0.195546 1.90711e-18)
(0.972668 0.197536 0)
(0.985519 0.199235 -1.60736e-18)
(0.992497 0.199295 0)
(0.988452 0.196253 -3.62511e-19)
(0.970218 0.189033 0)
(0.935631 0.177563 -1.60566e-18)
(0.884731 0.162749 -1.24286e-18)
(0.819619 0.145667 -3.15412e-19)
(0.743325 0.126729 3.13098e-19)
(0.65809 0.106111 0)
(0.56916 0.0852834 3.13155e-19)
(0.479343 0.066243 0)
(0.393491 0.0502675 2.65412e-18)
(0.314098 0.0363411 -3.51295e-19)
(0.247065 0.0242756 0)
(0.192377 0.0147251 -1.89944e-18)
(0.147742 0.00792062 0)
(0.110662 0.0034037 0)
(0.0798199 0.000814298 0)
(0.0539186 -0.000630774 0)
(0.032393 -0.0016069 -2.21709e-19)
(0.0156094 -0.00205654 0)
(0.00273593 -0.00140973 0)
(-0.00267019 0.000689913 1.15602e-19)
(-0.00516507 0.00212156 0)
(-0.00518009 0.00312669 0)
(-0.00384028 0.00369786 0)
(-0.00158252 0.00395287 -5.87345e-20)
(0.0010014 0.00401081 0)
(0.00445255 0.00379318 -2.67857e-19)
(0.00746641 0.00426333 0)
(0.0111423 0.00508615 3.01128e-20)
(0.0155468 0.00556971 1.51342e-19)
(0.0208743 0.00552205 3.03934e-20)
(0.0272997 0.00520299 -6.10039e-20)
(0.0348947 0.00470813 -4.89349e-19)
(0.0438252 0.0040202 -4.89972e-19)
(0.0543075 0.00311477 4.89839e-19)
(0.0665386 0.00196734 -1.22195e-19)
(0.0807161 0.000537123 -9.73221e-19)
(0.0970452 -0.00124518 9.6668e-19)
(0.115508 -0.00345455 -1.19819e-19)
(0.136349 -0.0061954 0)
(0.159015 -0.00952576 -9.38823e-19)
(0.183614 -0.0134076 0)
(0.210279 -0.0176765 9.1797e-19)
(0.239013 -0.0219762 0)
(0.270008 -0.0261603 8.96042e-19)
(0.303573 -0.0301869 0)
(0.340064 -0.0342568 -2.12062e-19)
(0.379703 -0.0388794 -8.06201e-19)
(0.422377 -0.0447941 -7.48509e-19)
(0.467502 -0.0527642 1.73982e-19)
(0.514024 -0.0633397 0)
(0.560535 -0.0768303 5.45298e-19)
(0.60562 -0.0927134 -1.37595e-19)
(0.648417 -0.110008 0)
(0.688527 -0.127365 1.37226e-19)
(0.725828 -0.143535 -5.34559e-19)
(0.76025 -0.157663 -5.89909e-19)
(0.79161 -0.169174 0)
(0.819684 -0.177613 1.47722e-18)
(0.844388 -0.182638 0)
(0.86589 -0.184096 1.83184e-18)
(0.884605 -0.182051 2.00983e-18)
(0.901146 -0.176785 2.17466e-18)
(0.916265 -0.168762 2.70724e-19)
(0.930788 -0.158578 0)
(0.945541 -0.14692 0)
(0.961318 -0.13451 0)
(0.978735 -0.122092 -2.69681e-19)
(0.998542 -0.110395 0)
(1.02037 -0.100226 -1.67535e-18)
(1.0467 -0.0922346 1.64989e-18)
(1.06869 -0.0876462 1.03998e-19)
(1.11231 -0.0863858 4.5095e-20)
(0.974194 0.218514 -1.2323e-18)
(0.970935 0.206364 1.19271e-18)
(0.965119 0.198173 -2.82011e-19)
(0.961139 0.194112 0)
(0.962197 0.191942 0)
(0.96826 0.190544 0)
(0.977772 0.189885 0)
(0.988503 0.189482 1.25233e-18)
(0.997432 0.188309 0)
(1.00094 0.185358 -1.11963e-18)
(0.995774 0.179956 -1.39569e-18)
(0.97984 0.171905 3.20001e-19)
(0.952675 0.161433 9.66778e-19)
(0.914338 0.148645 0)
(0.865649 0.133741 -1.47547e-18)
(0.808253 0.117844 0)
(0.746073 0.102469 -1.17954e-18)
(0.68365 0.0879734 2.95019e-19)
(0.622844 0.0743848 -1.23409e-18)
(0.565756 0.0621114 -9.50341e-19)
(0.513203 0.0513527 0)
(0.465539 0.0420946 0)
(0.42294 0.0342178 -6.83147e-19)
(0.385359 0.027615 0)
(0.352659 0.0221522 -5.42441e-19)
(0.324631 0.0176518 0)
(0.30087 0.0138468 0)
(0.281153 0.0104712 -9.56056e-20)
(0.26534 0.00756472 0)
(0.253095 0.00513085 0)
(0.244071 0.00309727 0)
(0.237987 0.00137919 5.05207e-20)
(0.234519 -0.000102837 2.04762e-19)
(0.233703 -0.00133816 1.29009e-19)
(0.235302 -0.00278965 0)
(0.23943 -0.00442616 0)
(0.24598 -0.00611233 -2.59601e-20)
(0.25485 -0.00787295 -1.30078e-19)
(0.26603 -0.00978501 5.16938e-20)
(0.279421 -0.0119092 0)
(0.294923 -0.0142927 0)
(0.312468 -0.016974 -2.0418e-19)
(0.331991 -0.0199888 1.00522e-19)
(0.35342 -0.0233818 -4.00987e-19)
(0.376661 -0.0272097 3.96695e-19)
(0.401564 -0.0315322 9.70294e-20)
(0.42793 -0.0363738 0)
(0.455508 -0.0416277 3.84217e-19)
(0.484114 -0.0471457 0)
(0.513599 -0.0527684 0)
(0.543854 -0.0583218 0)
(0.574863 -0.0636914 0)
(0.606703 -0.0688966 0)
(0.639466 -0.074157 1.78175e-19)
(0.673155 -0.0799047 0)
(0.707571 -0.0867086 6.70731e-19)
(0.742238 -0.0951217 -1.52936e-19)
(0.776403 -0.105488 0)
(0.809138 -0.11776 5.81351e-19)
(0.839525 -0.131356 1.28052e-19)
(0.866843 -0.145377 5.67732e-19)
(0.890634 -0.158836 -1.32466e-19)
(0.910699 -0.170851 0)
(0.927059 -0.180774 -6.62226e-19)
(0.939886 -0.188171 0)
(0.949484 -0.192764 0)
(0.956309 -0.194418 -8.52934e-19)
(0.96099 -0.193161 0)
(0.964295 -0.189188 0)
(0.967062 -0.182838 -1.0631e-18)
(0.970135 -0.174562 -2.95505e-19)
(0.974311 -0.164883 0)
(0.980285 -0.154363 0)
(0.988653 -0.143577 0)
(0.999801 -0.133099 3.01319e-19)
(1.01421 -0.123481 -1.0301e-18)
(1.03134 -0.115305 -2.40108e-19)
(1.05325 -0.109046 -1.88531e-19)
(1.07179 -0.105425 -1.17785e-19)
(1.1102 -0.104546 -2.40659e-19)
(0.974501 0.21901 4.35448e-18)
(0.973757 0.208036 -4.18121e-18)
(0.971714 0.200425 0)
(0.969159 0.196211 -2.53679e-18)
(0.967053 0.192938 0)
(0.966166 0.189312 -2.23682e-18)
(0.96742 0.185819 0)
(0.97167 0.183009 2.97873e-18)
(0.978978 0.180731 -3.69849e-18)
(0.988283 0.178484 1.68874e-18)
(0.997691 0.175773 1.57879e-18)
(1.00497 0.172151 0)
(1.00811 0.167265 -4.27062e-18)
(1.00544 0.160698 -2.72012e-18)
(0.995588 0.152109 3.8233e-18)
(0.977796 0.141795 0)
(0.953047 0.130624 1.17109e-18)
(0.923756 0.119344 0)
(0.891698 0.108143 1.16759e-18)
(0.858164 0.0970014 1.16731e-18)
(0.82419 0.0861285 0)
(0.790769 0.0758019 0)
(0.758781 0.0662259 -6.39314e-19)
(0.728896 0.0575062 0)
(0.70156 0.0496261 6.20895e-19)
(0.677006 0.0425009 0)
(0.655354 0.0360361 0)
(0.636638 0.0301444 0)
(0.62089 0.0247352 0)
(0.608048 0.0197236 0)
(0.598036 0.0150291 0)
(0.590787 0.0105812 0)
(0.586222 0.00630879 1.76966e-19)
(0.584218 0.00214936 -8.58635e-20)
(0.584541 -0.00204017 4.3967e-20)
(0.587292 -0.0062916 0)
(0.592367 -0.0105753 0)
(0.599571 -0.0148964 8.62096e-20)
(0.608757 -0.0193045 -3.51988e-19)
(0.619789 -0.0238406 3.51577e-19)
(0.632522 -0.0285295 0)
(0.646808 -0.0333909 8.7181e-19)
(0.66249 -0.0384451 -6.99295e-19)
(0.679402 -0.0437133 -3.57765e-19)
(0.69736 -0.0492144 -3.38911e-19)
(0.716155 -0.0549535 0)
(0.735557 -0.0609009 0)
(0.755329 -0.0669731 -1.03296e-18)
(0.775265 -0.0730634 0)
(0.795205 -0.0790636 0)
(0.81505 -0.0848778 0)
(0.834768 -0.0904659 7.03576e-19)
(0.854382 -0.0958961 1.40568e-18)
(0.873919 -0.10137 0)
(0.893339 -0.107207 0)
(0.912465 -0.113777 -6.49598e-19)
(0.930938 -0.121395 0)
(0.94823 -0.130199 1.2949e-18)
(0.963712 -0.140059 6.86975e-19)
(0.97677 -0.150558 0)
(0.986947 -0.161084 7.0021e-19)
(0.994031 -0.17096 1.33552e-18)
(0.998082 -0.179553 1.40643e-18)
(0.999391 -0.186371 7.1392e-19)
(0.998417 -0.191093 -1.61544e-18)
(0.995726 -0.193554 1.74559e-18)
(0.991964 -0.193719 2.83055e-18)
(0.987837 -0.191675 0)
(0.984069 -0.187622 0)
(0.981356 -0.181851 1.1946e-18)
(0.980325 -0.174721 0)
(0.981506 -0.166637 2.49797e-18)
(0.98532 -0.158031 2.53088e-18)
(0.992103 -0.149345 0)
(1.00202 -0.141025 2.40142e-18)
(1.01536 -0.133503 -1.04059e-18)
(1.03148 -0.127219 0)
(1.05229 -0.122517 0)
(1.06993 -0.119845 0)
(1.10681 -0.119386 -1.92999e-19)
(0.974733 0.218938 -3.3544e-18)
(0.975458 0.208201 3.21114e-18)
(0.976056 0.201059 -6.2365e-18)
(0.975936 0.197366 2.86911e-18)
(0.974875 0.19446 0)
(0.9732 0.190786 2.52977e-18)
(0.971487 0.186584 -4.84268e-18)
(0.970473 0.182339 -4.48984e-18)
(0.970994 0.17813 -7.92482e-20)
(0.973705 0.17395 0)
(0.978807 0.169868 0)
(0.985965 0.165856 3.59628e-18)
(0.994364 0.161684 3.2915e-18)
(1.00284 0.156939 -3.27735e-18)
(1.00995 0.151227 -8.89732e-18)
(1.01427 0.144449 0)
(1.01489 0.136906 0)
(1.01186 0.128899 0)
(1.00564 0.120418 0)
(0.996716 0.111446 0)
(0.985583 0.102189 0)
(0.97287 0.0929254 0)
(0.959261 0.0838648 1.24009e-18)
(0.945386 0.0751222 -2.58656e-18)
(0.931769 0.0667323 0)
(0.918816 0.0586954 0)
(0.906847 0.051004 0)
(0.896103 0.0436286 0)
(0.886752 0.0365087 0)
(0.878894 0.0296007 -6.62216e-19)
(0.872593 0.0228757 0)
(0.867888 0.0163036 0)
(0.864782 0.00984896 1.26161e-20)
(0.863216 0.0034465 0)
(0.863093 -0.0027677 -4.10157e-20)
(0.86436 -0.0088511 0)
(0.866927 -0.0148837 1.70693e-19)
(0.870669 -0.020893 0)
(0.87547 -0.0268944 6.72506e-19)
(0.881224 -0.0329021 -3.30654e-19)
(0.887813 -0.038927 -6.88952e-19)
(0.895114 -0.044977 -6.6524e-19)
(0.902994 -0.0510591 6.67708e-19)
(0.911315 -0.0571781 6.70569e-19)
(0.919933 -0.0633336 1.40173e-18)
(0.928693 -0.0695127 1.41038e-18)
(0.937438 -0.0756816 0)
(0.946024 -0.0817797 -7.43581e-19)
(0.95434 -0.0877315 0)
(0.96232 -0.093466 0)
(0.969951 -0.0989369 -1.47861e-18)
(0.977266 -0.10415 -7.22434e-19)
(0.984327 -0.109189 4.79129e-20)
(0.991182 -0.114225 0)
(0.99782 -0.119498 0)
(1.00412 -0.125268 0)
(1.00985 -0.131743 1.49376e-18)
(1.01465 -0.139002 -1.40075e-18)
(1.01812 -0.146945 -1.39054e-18)
(1.01991 -0.155278 0)
(1.01981 -0.163558 -1.42924e-18)
(1.0178 -0.171283 9.48466e-20)
(1.0141 -0.177984 -1.57647e-18)
(1.00906 -0.183296 1.75728e-18)
(1.00318 -0.186985 -4.76075e-20)
(0.996991 -0.188936 -1.97793e-18)
(0.99103 -0.18913 -2.14132e-18)
(0.985833 -0.187629 0)
(0.9819 -0.184574 0)
(0.979669 -0.180169 0)
(0.979508 -0.174677 0)
(0.981714 -0.168408 -2.83481e-18)
(0.986513 -0.161704 -2.87032e-18)
(0.994097 -0.154933 0)
(1.00454 -0.148475 -2.72129e-18)
(1.01809 -0.142696 4.90545e-18)
(1.03414 -0.137953 0)
(1.05456 -0.13449 0)
(1.07181 -0.132626 0)
(1.10766 -0.132381 9.13161e-19)
(0.975035 0.218502 8.33983e-18)
(0.977127 0.207476 0)
(0.979623 0.200809 1.42744e-17)
(0.980942 0.19772 0)
(0.980747 0.195178 6.21329e-18)
(0.979838 0.19182 0)
(0.978656 0.187905 5.47251e-18)
(0.977182 0.183662 0)
(0.975604 0.178993 -5.03623e-18)
(0.97444 0.173897 0)
(0.974271 0.168549 8.8802e-18)
(0.975578 0.163112 -4.11076e-18)
(0.97866 0.15762 0)
(0.983537 0.151977 7.30695e-18)
(0.989866 0.146031 -1.87039e-19)
(0.996991 0.139702 -6.6814e-18)
(1.00405 0.133124 6.47561e-18)
(1.01036 0.126387 0)
(1.01554 0.119351 0)
(1.01936 0.111918 6.08609e-18)
(1.02166 0.104159 0)
(1.02251 0.0962111 -2.96086e-18)
(1.0221 0.0881932 0)
(1.02072 0.0801803 2.80445e-18)
(1.01864 0.0722168 0)
(1.01611 0.064331 2.89641e-18)
(1.01338 0.0565391 0)
(1.01062 0.0488399 0)
(1.00799 0.0412221 1.44721e-18)
(1.00562 0.0336854 6.95564e-19)
(1.00358 0.0262361 0)
(1.00195 0.0188764 0)
(1.00074 0.0116074 -1.08713e-18)
(0.999998 0.00443132 0)
(0.999668 -0.00255924 0)
(0.99972 -0.00941676 0)
(1.00014 -0.0161998 -1.77977e-19)
(1.00089 -0.0229172 0)
(1.00191 -0.0295621 -1.10542e-18)
(1.00316 -0.0361335 -7.50551e-19)
(1.00459 -0.0426332 7.24758e-19)
(1.00613 -0.0490617 0)
(1.00772 -0.055418 0)
(1.00931 -0.0616996 1.54349e-18)
(1.01082 -0.0679005 -1.49775e-18)
(1.0122 -0.0740066 -1.51389e-18)
(1.01338 -0.0799918 0)
(1.01432 -0.0858164 -5.83364e-20)
(1.01501 -0.0914349 1.63282e-18)
(1.01547 -0.0968119 0)
(1.01576 -0.101938 1.62509e-18)
(1.01596 -0.106846 1.70071e-18)
(1.01616 -0.111623 -1.66736e-18)
(1.01642 -0.116415 0)
(1.01676 -0.121408 0)
(1.01711 -0.126792 0)
(1.0173 -0.132714 -1.68142e-18)
(1.0171 -0.139221 0)
(1.01626 -0.146233 0)
(1.01456 -0.153529 0)
(1.01191 -0.16078 3.6631e-18)
(1.00832 -0.167616 -1.80446e-18)
(1.004 -0.173681 0)
(0.999228 -0.178685 -2.00427e-18)
(0.99437 -0.182425 -2.22631e-18)
(0.989802 -0.184776 4.61856e-18)
(0.985892 -0.185686 -4.89269e-18)
(0.982978 -0.185166 -5.17303e-18)
(0.981363 -0.183296 0)
(0.981308 -0.180218 -5.69377e-18)
(0.983033 -0.176138 0)
(0.986727 -0.171317 0)
(0.992557 -0.166061 0)
(1.0007 -0.160711 5.98459e-18)
(1.01124 -0.155619 -5.73163e-18)
(1.0245 -0.151122 -7.99275e-18)
(1.03995 -0.147525 0)
(1.05949 -0.144994 3.60528e-18)
(1.076 -0.14374 0)
(1.11028 -0.14357 -1.50327e-18)
(0.975434 0.21769 -9.45993e-18)
(0.979143 0.20609 -9.20845e-18)
(0.983423 0.200245 -1.64403e-17)
(0.98558 0.197996 0)
(0.985486 0.195678 -1.41275e-17)
(0.984786 0.192413 -6.7302e-18)
(0.9842 0.188726 0)
(0.983453 0.184719 1.19949e-17)
(0.982354 0.180194 1.11972e-17)
(0.981033 0.175096 0)
(0.979703 0.169516 -1.00429e-17)
(0.978604 0.163553 0)
(0.97805 0.157269 0)
(0.978377 0.15069 8.70815e-18)
(0.979804 0.143819 8.07104e-18)
(0.982396 0.136688 -1.82327e-19)
(0.986005 0.12951 1.84354e-19)
(0.990361 0.122438 0)
(0.995171 0.115372 0)
(1.00009 0.108196 -6.97378e-18)
(1.00479 0.100884 -7.06468e-18)
(1.00904 0.093475 1.03542e-17)
(1.01273 0.0860148 3.45112e-18)
(1.01587 0.0785335 3.42291e-18)
(1.01847 0.0710487 0)
(1.02057 0.0635702 -3.27183e-18)
(1.02224 0.0561027 0)
(1.02352 0.0486466 0)
(1.02448 0.0412017 -3.30553e-18)
(1.02514 0.0337745 0)
(1.02555 0.0263772 0)
(1.02575 0.0190236 0)
(1.02574 0.0117298 8.20067e-19)
(1.02557 0.00453027 -4.27591e-19)
(1.02529 -0.00256026 2.13657e-19)
(1.02489 -0.00953999 0)
(1.0244 -0.0164206 0)
(1.02385 -0.0232035 0)
(1.02322 -0.0298834 8.34021e-19)
(1.02251 -0.0364582 8.38981e-19)
(1.02172 -0.0429281 -1.75046e-18)
(1.02084 -0.0492928 0)
(1.01986 -0.0555512 0)
(1.01879 -0.0617016 -3.53135e-18)
(1.01761 -0.0677395 -1.81433e-18)
(1.01632 -0.073656 0)
(1.01492 -0.0794348 0)
(1.01343 -0.0850531 1.82371e-18)
(1.01188 -0.090487 5.66253e-20)
(1.01031 -0.0957227 0)
(1.00881 -0.100768 0)
(1.00746 -0.105663 -1.93451e-18)
(1.00634 -0.110485 0)
(1.00549 -0.115353 0)
(1.00493 -0.12041 0)
(1.00459 -0.125797 0)
(1.00436 -0.131621 0)
(1.00405 -0.137914 -4.16566e-18)
(1.00349 -0.144613 0)
(1.00251 -0.151548 0)
(1.00104 -0.15847 1.66871e-19)
(0.999072 -0.165082 0)
(0.996738 -0.171088 0)
(0.994225 -0.176228 0)
(0.991767 -0.180297 9.98735e-18)
(0.989608 -0.183153 -5.23225e-18)
(0.987982 -0.184715 5.53505e-18)
(0.987104 -0.184961 1.4125e-20)
(0.98717 -0.183936 0)
(0.988358 -0.181753 6.42316e-18)
(0.990842 -0.178592 -6.54132e-18)
(0.994799 -0.174701 0)
(1.00042 -0.170377 0)
(1.00792 -0.165957 -1.46117e-19)
(1.01749 -0.161791 6.4801e-18)
(1.02952 -0.158202 5.97239e-18)
(1.04362 -0.155448 0)
(1.06171 -0.153653 -4.09246e-18)
(1.07709 -0.152846 0)
(1.10953 -0.152758 1.13304e-18)
(0.975986 0.216474 0)
(0.981692 0.204215 2.12127e-17)
(0.987769 0.199647 1.88198e-17)
(0.990441 0.198411 0)
(0.990122 0.196236 8.02865e-18)
(0.989271 0.192974 -7.76933e-18)
(0.988772 0.189389 0)
(0.988281 0.185463 -1.35632e-17)
(0.987611 0.180999 0)
(0.986852 0.175995 0)
(0.98604 0.170512 0)
(0.985146 0.164577 0)
(0.984206 0.1582 0)
(0.983343 0.151385 1.82813e-19)
(0.982702 0.14414 -9.52754e-18)
(0.982426 0.136519 -1.82185e-19)
(0.982659 0.128775 1.83598e-19)
(0.983499 0.121143 0)
(0.984943 0.113606 0)
(0.986871 0.106089 0)
(0.989098 0.0985691 -2.02547e-19)
(0.991457 0.0910704 2.06463e-19)
(0.993834 0.0836178 -3.952e-18)
(0.996157 0.0762215 -3.92088e-18)
(0.998371 0.0688783 0)
(1.00043 0.0615795 -3.98537e-18)
(1.0023 0.0543155 3.97284e-18)
(1.00396 0.0470778 0)
(1.00538 0.0398605 1.92506e-18)
(1.00654 0.0326638 1.98315e-18)
(1.00745 0.0254957 0)
(1.00808 0.0183697 0)
(1.00846 0.0113003 1.00206e-18)
(1.0086 0.00432461 -1.48682e-20)
(1.00855 -0.00258875 -4.94695e-19)
(1.00834 -0.00940942 0)
(1.00798 -0.0161287 0)
(1.0075 -0.0227523 -1.01126e-18)
(1.00692 -0.0292821 0)
(1.00624 -0.0357171 -1.02146e-18)
(1.00548 -0.042057 -5.89038e-20)
(1.00466 -0.0483018 0)
(1.00378 -0.0544508 2.08877e-18)
(1.00285 -0.0605026 4.15735e-18)
(1.0019 -0.066454 2.07073e-18)
(1.00092 -0.072298 0)
(0.999941 -0.0780236 -4.35309e-18)
(0.998978 -0.0836159 0)
(0.998065 -0.0890612 -2.17565e-18)
(0.997248 -0.0943543 0)
(0.996583 -0.0995077 0)
(0.99613 -0.104559 0)
(0.995943 -0.109575 0)
(0.99605 -0.114652 0)
(0.996446 -0.119902 -4.77583e-18)
(0.997076 -0.125438 4.8094e-18)
(0.997837 -0.131338 0)
(0.998591 -0.137629 4.72714e-18)
(0.999188 -0.144255 -4.91944e-18)
(0.999495 -0.15108 0)
(0.999431 -0.157894 -4.91639e-18)
(0.998982 -0.164444 0)
(0.998201 -0.170465 0)
(0.997198 -0.175712 0)
(0.99611 -0.17998 -5.68459e-18)
(0.995085 -0.183114 6.02493e-18)
(0.994272 -0.185014 -6.29248e-18)
(0.993813 -0.185643 1.31391e-17)
(0.99386 -0.185027 -6.83832e-18)
(0.994577 -0.183273 0)
(0.996157 -0.18056 7.38649e-18)
(0.99883 -0.177141 -7.43824e-18)
(1.00286 -0.173327 0)
(1.00857 -0.169466 -1.17311e-19)
(1.01624 -0.165909 -7.09973e-18)
(1.02636 -0.162984 0)
(1.03867 -0.160895 0)
(1.05515 -0.15977 -4.56696e-18)
(1.06932 -0.159318 0)
(1.10039 -0.1595 -1.28527e-18)
(0.976761 0.214804 0)
(0.984936 0.20201 -1.22213e-17)
(0.992771 0.199204 -1.07025e-17)
(0.995649 0.198991 0)
(0.994983 0.196871 1.84243e-17)
(0.993957 0.193636 1.73984e-17)
(0.993389 0.19014 0)
(0.992829 0.186205 1.56634e-17)
(0.992162 0.181685 -1.48741e-17)
(0.99156 0.176662 0)
(0.991075 0.171202 0)
(0.990636 0.165313 0)
(0.990183 0.158987 0)
(0.989696 0.152209 -1.13209e-17)
(0.989165 0.144965 -1.11253e-17)
(0.988597 0.13728 1.02262e-17)
(0.988068 0.129388 -3.02716e-17)
(0.987698 0.121538 0)
(0.98757 0.113751 0)
(0.987687 0.105988 9.70099e-18)
(0.987999 0.0982492 1.89732e-17)
(0.988454 0.0905669 -9.28988e-18)
(0.989019 0.0829699 0)
(0.989675 0.075469 0)
(0.9904 0.0680604 -4.65867e-18)
(0.991167 0.0607336 9.17793e-18)
(0.991946 0.0534767 -9.15519e-18)
(0.992707 0.0462788 0)
(0.993424 0.0391303 0)
(0.994069 0.0320269 -2.26003e-18)
(0.994622 0.0249719 0)
(0.995067 0.0179726 2.33027e-18)
(0.995397 0.011042 -1.14189e-18)
(0.995631 0.00417927 -1.45012e-20)
(0.995779 -0.00262494 -7.27128e-21)
(0.995842 -0.00934595 0)
(0.995837 -0.0159754 0)
(0.995781 -0.0225197 -2.89942e-20)
(0.995683 -0.0289823 1.18347e-18)
(0.995549 -0.0353622 3.54003e-18)
(0.995392 -0.0416583 4.73001e-18)
(0.99522 -0.0478705 2.41068e-18)
(0.995043 -0.0539985 -2.37173e-18)
(0.994871 -0.0600408 -2.39263e-18)
(0.994712 -0.0659942 2.47297e-18)
(0.994574 -0.071853 0)
(0.994467 -0.0776084 4.9353e-18)
(0.994407 -0.0832498 -5.10585e-18)
(0.994417 -0.0887682 0)
(0.994529 -0.0941626 0)
(0.994781 -0.0994468 0)
(0.995212 -0.104655 0)
(0.995853 -0.109845 0)
(0.99672 -0.115098 0)
(0.997797 -0.120506 5.3929e-18)
(0.99903 -0.126158 -1.09842e-17)
(1.00033 -0.132118 -5.59724e-18)
(1.00157 -0.138402 5.64253e-18)
(1.00263 -0.144961 5.54704e-18)
(1.00337 -0.151672 -5.77309e-18)
(1.0037 -0.158349 5.87331e-18)
(1.00357 -0.164762 0)
(1.00296 -0.170662 6.17021e-18)
(1.00192 -0.175813 -6.36999e-18)
(1.00051 -0.180006 0)
(0.998797 -0.18308 -1.36555e-17)
(0.996898 -0.184928 7.10357e-18)
(0.994941 -0.185511 -1.48534e-17)
(0.993098 -0.184864 7.74235e-18)
(0.991596 -0.183108 0)
(0.990716 -0.180444 8.22255e-18)
(0.990801 -0.17715 8.47556e-18)
(0.992234 -0.173558 -8.44947e-18)
(0.995447 -0.170034 -8.45164e-18)
(1.00082 -0.166931 8.14171e-18)
(1.00893 -0.164578 0)
(1.01956 -0.163117 0)
(1.03485 -0.162729 5.25683e-18)
(1.04823 -0.162645 0)
(1.07921 -0.163463 1.48306e-18)
(0.977833 0.212617 1.62056e-17)
(0.988995 0.19965 0)
(0.998472 0.199058 -2.40936e-17)
(1.00125 0.199734 2.1828e-17)
(1.00018 0.19759 -2.08155e-17)
(0.99903 0.194434 1.99648e-17)
(0.998399 0.191033 0)
(0.997724 0.187058 1.60212e-19)
(0.996946 0.182455 1.67928e-17)
(0.996278 0.177367 0)
(0.995792 0.171857 0)
(0.995442 0.165931 0)
(0.995188 0.159586 2.77061e-17)
(0.995004 0.152812 0)
(0.994848 0.145594 2.46895e-17)
(0.994671 0.137939 0)
(0.994464 0.130054 4.61794e-17)
(0.994267 0.12218 0)
(0.994121 0.114343 0)
(0.994029 0.106517 -2.20812e-17)
(0.993971 0.09871 -1.08146e-17)
(0.99393 0.090953 0)
(0.99391 0.0832765 0)
(0.993928 0.0756952 0)
(0.993994 0.0682099 5.26031e-18)
(0.994111 0.0608146 -5.2432e-18)
(0.994276 0.0535009 -1.0796e-19)
(0.994479 0.0462598 0)
(0.99471 0.0390823 5.33896e-18)
(0.994955 0.0319638 0)
(0.995202 0.0249058 0)
(0.995439 0.0179118 -2.63396e-18)