/*--------------------------------*- C++ -*----------------------------------*\
| =========                 |                                                 |
| \\      /  F ield         | OpenFOAM: The Open Source CFD Toolbox           |
|  \\    /   O peration     | Version:  v1912                                 |
|   \\  /    A nd           | Website:  www.openfoam.com                      |
|    \\/     M anipulation  |                                                 |
\*---------------------------------------------------------------------------*/
FoamFile
{
    version     2.0;
    format      ascii;
    class       volScalarField;
    location    "25";
    object      epsilon;
}
// * * * * * * * * * * * * * * * * * * * * * * * * * * * * * * * * * * * * * //

dimensions      [0 2 -3 0 0 0 0];


internalField   nonuniform List<scalar> 
2000
(
0.0135126
0.0111843
0.00818878
0.0047976
0.00121671
0.000139244
0.000120297
0.000146767
0.000172994
0.000105205
8.54611e-05
8.74396e-05
0.000100764
0.000120671
0.000152285
0.000190287
0.00021181
0.00019216
0.000142954
0.000100178
7.92553e-05
7.95025e-05
0.000103186
0.000143115
0.000167156
0.000183849
0.000195556
0.00020418
0.00021112
0.000217492
0.000224362
0.000225579
0.000218827
0.000205749
0.000187991
0.000166657
0.000143076
0.000118974
9.74283e-05
7.83011e-05
6.4348e-05
5.56711e-05
4.98694e-05
4.65284e-05
4.5294e-05
4.58261e-05
4.78044e-05
5.09285e-05
5.49192e-05
5.95238e-05
6.45249e-05
6.97504e-05
7.50769e-05
8.04274e-05
8.5766e-05
9.10906e-05
9.64223e-05
0.000101799
0.000107272
0.000112902
0.000118751
0.000124892
0.000131399
0.000138356
0.00014585
0.000153981
0.000162855
0.000172594
0.000183339
0.000195249
0.000208513
0.000223351
0.00024003
0.000258866
0.000280245
0.000304633
0.00033259
0.000364798
0.000401937
0.000444653
0.122258
0.0401439
0.018528
0.0102238
0.00590633
0.00347909
0.00207415
0.00117179
0.00123203
0.000533678
0.000252702
0.000201022
0.000225485
0.00027305
0.000353074
0.000466563
0.000605586
0.000689679
0.00060193
0.000318055
0.00025351
0.000396379
0.000501683
0.000473323
0.000417299
0.000407954
0.000458454
0.000558573
0.000684921
0.000808263
0.000902159
0.000941974
0.000944302
0.000921125
0.000883366
0.000832732
0.000766376
0.000678835
0.000584223
0.000496181
0.000410406
0.000330916
0.000261239
0.00020321
0.000156929
0.000121322
9.4715e-05
7.52768e-05
6.13132e-05
5.14037e-05
4.44359e-05
3.95727e-05
3.62004e-05
3.38777e-05
3.22956e-05
3.12498e-05
3.0602e-05
3.02573e-05
3.01506e-05
3.02504e-05
3.05384e-05
3.10063e-05
3.16544e-05
3.24882e-05
3.35173e-05
3.47556e-05
3.62221e-05
3.7941e-05
3.99441e-05
4.2272e-05
4.49767e-05
4.81251e-05
5.18051e-05
5.61256e-05
6.12497e-05
6.73102e-05
7.4784e-05
8.29917e-05
9.55519e-05
0.0001044
0.111976
0.0306096
0.0126583
0.00693402
0.00433436
0.00288437
0.00200972
0.00147326
0.0013206
0.00120367
0.00114199
0.0013362
0.00134774
0.000850963
0.000744152
0.000832335
0.00101495
0.00122659
0.00126995
0.000921845
0.000423308
0.000502088
0.000573884
0.000543222
0.00051839
0.000584555
0.000752945
0.000984806
0.00120462
0.00133574
0.00133415
0.00126685
0.0011653
0.00104627
0.000940075
0.000858594
0.000789789
0.000728318
0.000667744
0.000602313
0.000530156
0.000453171
0.000375708
0.000302684
0.000237947
0.000183561
0.000139887
0.000106084
8.0678e-05
6.20065e-05
4.85176e-05
3.89038e-05
3.20857e-05
2.72793e-05
2.39184e-05
2.15945e-05
2.0021e-05
1.90014e-05
1.84028e-05
1.81237e-05
1.80925e-05
1.82668e-05
1.86244e-05
1.91545e-05
1.98559e-05
2.07355e-05
2.18079e-05
2.30957e-05
2.46307e-05
2.64558e-05
2.86284e-05
3.12244e-05
3.43451e-05
3.81207e-05
4.27402e-05
4.83775e-05
5.55299e-05
6.35928e-05
7.62879e-05
8.57669e-05
0.109264
0.0268069
0.00927069
0.00445276
0.00269434
0.00184943
0.00136064
0.00105388
0.000904025
0.000847505
0.000877871
0.00107246
0.00144705
0.00177831
0.00207051
0.00241565
0.00259494
0.00258829
0.00283541
0.00261264
0.0015455
0.000946648
0.000860749
0.00074625
0.000675369
0.000726967
0.000902462
0.00115663
0.00138005
0.00143405
0.00135789
0.00123627
0.00109678
0.000957761
0.000834236
0.000735775
0.000666439
0.000623077
0.000594763
0.000567447
0.000530634
0.000480705
0.000420041
0.000354224
0.000289282
0.000229948
0.000178964
0.000137265
0.000104537
7.95237e-05
6.07822e-05
4.69266e-05
3.68259e-05
2.95304e-05
2.42951e-05
2.05594e-05
1.79139e-05
1.60656e-05
1.4808e-05
1.39988e-05
1.35422e-05
1.33622e-05
1.34014e-05
1.3625e-05
1.40123e-05
1.45524e-05
1.52432e-05
1.60903e-05
1.71074e-05
1.83166e-05
1.97501e-05
2.1452e-05
2.34825e-05
2.59186e-05
2.88711e-05
3.24349e-05
3.68962e-05
4.18434e-05
4.94007e-05
5.50472e-05
0.108867
0.0260708
0.00825049
0.0034086
0.00180709
0.00116267
0.000847198
0.000665486
0.000561453
0.000509425
0.000504202
0.000570455
0.000758251
0.00108857
0.00156093
0.00211451
0.00259193
0.00338766
0.00468552
0.00544083
0.00459325
0.00282675
0.0018672
0.00133808
0.00105016
0.00095451
0.00099934
0.00111489
0.00120432
0.00120715
0.00114262
0.00103841
0.000915834
0.000790331
0.000675008
0.000584683
0.000532216
0.000518024
0.000526369
0.000534412
0.000525417
0.000494242
0.000444486
0.000383536
0.000319142
0.000257784
0.000203383
0.000157489
0.000120264
9.11687e-05
6.90502e-05
5.25692e-05
4.04588e-05
3.16403e-05
2.52548e-05
2.06483e-05
1.73371e-05
1.49714e-05
1.33018e-05
1.21524e-05
1.13999e-05
1.09588e-05
1.07674e-05
1.07797e-05
1.09673e-05
1.13124e-05
1.18066e-05
1.24494e-05
1.32481e-05
1.42184e-05
1.53854e-05
1.67854e-05
1.8469e-05
2.0502e-05
2.29795e-05
2.59845e-05
2.97555e-05
3.39665e-05
4.03598e-05
4.53063e-05
0.108861
0.0260409
0.00809333
0.00313137
0.00147762
0.000839005
0.000558726
0.000419507
0.000344371
0.000303339
0.000286028
0.000296107
0.000350884
0.000472343
0.000682153
0.000975894
0.0012613
0.00151708
0.00189816
0.00305812
0.00484241
0.00495424
0.00368651
0.00257247
0.00184256
0.00143866
0.00125248
0.00117877
0.00112713
0.0010671
0.000987602
0.000887735
0.000772773
0.000652954
0.000544829
0.000472215
0.000455544
0.000492716
0.000552843
0.000596605
0.000601787
0.000568656
0.000509159
0.000436541
0.000363631
0.000294048
0.00023124
0.000177833
0.000134597
0.000100934
7.54803e-05
5.66288e-05
4.28573e-05
3.28788e-05
2.56783e-05
2.04903e-05
1.67537e-05
1.40649e-05
1.21375e-05
1.07701e-05
9.82169e-06
9.19411e-06
8.82129e-06
8.6528e-06
8.65479e-06
8.80527e-06
9.09133e-06
9.50763e-06
1.00558e-05
1.07445e-05
1.15901e-05
1.26179e-05
1.38646e-05
1.53789e-05
1.72324e-05
1.94895e-05
2.23319e-05
2.55292e-05
3.03688e-05
3.42294e-05
0.10896
0.0261725
0.00817568
0.00313453
0.00141487
0.000736097
0.000438288
0.000296603
0.000224943
0.000187408
0.000168618
0.000163655
0.000174841
0.000208561
0.000272131
0.000364535
0.000456835
0.000531302
0.000612925
0.000829783
0.0015322
0.00283338
0.00344055
0.0030922
0.00249028
0.00198168
0.00163567
0.00141234
0.00125189
0.00111294
0.000976813
0.000834853
0.00068986
0.000554513
0.000451132
0.000412462
0.000466129
0.000595528
0.000734083
0.000814185
0.000811658
0.000744675
0.00064549
0.000546207
0.000447383
0.000355112
0.000274266
0.000207222
0.000154124
0.000113581
8.34588e-05
6.14987e-05
4.5679e-05
3.43555e-05
2.62687e-05
2.04906e-05
1.63535e-05
1.33847e-05
1.12525e-05
9.72582e-06
8.64406e-06
7.89623e-06
7.40622e-06
7.12232e-06
7.00619e-06
7.0331e-06
7.18766e-06
7.46209e-06
7.85525e-06
8.37245e-06
9.02592e-06
9.83572e-06
1.08319e-05
1.20552e-05
1.35667e-05
1.54246e-05
1.77853e-05
2.04778e-05
2.45732e-05
2.79546e-05
0.109131
0.026399
0.00835846
0.00324379
0.00145974
0.000735582
0.000409426
0.000251744
0.000171634
0.000129594
0.000107486
9.70904e-05
9.55544e-05
0.000102914
0.000120023
0.000145116
0.0001691
0.000186357
0.000203847
0.000256011
0.00046038
0.00103197
0.00183171
0.00227887
0.00225146
0.00200977
0.00174235
0.00151301
0.00131663
0.00112246
0.000930561
0.000745063
0.000577749
0.000444907
0.000372569
0.000412761
0.000604577
0.000892176
0.00114404
0.00125471
0.00120663
0.00105568
0.000887355
0.000724929
0.000574432
0.000442779
0.000333271
0.000246158
0.000179441
0.000129865
9.38339e-05
6.80328e-05
4.97149e-05
3.67584e-05
2.75953e-05
2.11003e-05
1.64794e-05
1.31777e-05
1.081e-05
9.10939e-06
7.89158e-06
7.02966e-06
6.43711e-06
6.05554e-06
5.84334e-06
5.77212e-06
5.82359e-06
5.98729e-06
6.25928e-06
6.64167e-06
7.14275e-06
7.77766e-06
8.57018e-06
9.55363e-06
1.07787e-05
1.22966e-05
1.42411e-05
1.64859e-05
1.99224e-05
2.28379e-05
0.109363
0.0267102
0.00861947
0.00341792
0.00155828
0.000781627
0.000422857
0.000246037
0.000154833
0.000106111
7.94669e-05
6.50047e-05
5.80336e-05
5.65048e-05
5.94388e-05
6.54106e-05
7.12643e-05
7.52072e-05
7.92227e-05
9.25502e-05
0.000150062
0.000344134
0.000733977
0.0011682
0.00143094
0.00148233
0.00140338
0.00126938
0.00110102
0.000912251
0.000722879
0.000551881
0.000414385
0.000323936
0.000325506
0.000519525
0.00095101
0.00148164
0.00188487
0.00201167
0.00186185
0.00155733
0.00125514
0.000977404
0.000741874
0.000551449
0.000402914
0.000290574
0.00020783
0.000148149
0.000105732
7.58508e-05
5.48823e-05
4.01696e-05
2.98204e-05
2.25101e-05
1.73205e-05
1.36172e-05
1.0962e-05
9.05158e-06
7.67637e-06
6.69143e-06
5.9971e-06
5.52596e-06
5.23129e-06
5.08039e-06
5.0518e-06
5.1325e-06
5.3162e-06
5.60252e-06
5.99692e-06
6.51115e-06
7.16468e-06
7.98573e-06
9.01824e-06
1.03086e-05
1.19764e-05
1.39253e-05
1.69382e-05
1.95572e-05
0.10963
0.0270774
0.00893755
0.0036396
0.00169238
0.000853764
0.000456727
0.000258094
0.000154885
9.94369e-05
6.86736e-05
5.11686e-05
4.12028e-05
3.58917e-05
3.36792e-05
3.33967e-05
3.37595e-05
3.40627e-05
3.48495e-05
3.87709e-05
5.63004e-05
0.000121394
0.000278778
0.000507538
0.000716343
0.000835186
0.000855156
0.00079884
0.00068961
0.000563478
0.00044108
0.000336719
0.000258861
0.000232868
0.000358503
0.000809655
0.00160944
0.00247192
0.00303899
0.00313139
0.00280436
0.00227549
0.00174378
0.00128775
0.000933159
0.000668233
0.000474361
0.000334788
0.000235751
0.00016626
0.000117833
8.4165e-05
6.0728e-05
4.43472e-05
3.28326e-05
2.46862e-05
1.88845e-05
1.47273e-05
1.17322e-05
9.56534e-06
7.99434e-06
6.85695e-06
6.04019e-06
5.46594e-06
5.08085e-06
4.84708e-06
4.73925e-06
4.74128e-06
4.84426e-06
5.04532e-06
5.34723e-06
5.75863e-06
6.29523e-06
6.98069e-06
7.85294e-06
8.95355e-06
1.03903e-05
1.20886e-05
1.47475e-05
1.70938e-05
0.109898
0.027455
0.00927582
0.00388409
0.0018461
0.000940589
0.00050119
0.000278285
0.000162058
9.98242e-05
6.54189e-05
4.57053e-05
3.40413e-05
2.70173e-05
2.28039e-05
2.02901e-05
1.87307e-05
1.76873e-05
1.7233e-05
1.81662e-05
2.37297e-05
4.58762e-05
0.000107249
0.00021318
0.000329237
0.000411755
0.000439521
0.000413385
0.000357862
0.000297071
0.000238393
0.000186882
0.00015679
0.000209488
0.000525487
0.00136931
0.00267536
0.00387206
0.00446274
0.00436106
0.00377115
0.00298912
0.0021944
0.00156022
0.0010963
0.000766161
0.000533739
0.000371555
0.000259285
0.000181966
0.000128781
9.21008e-05
6.66603e-05
4.88785e-05
3.63409e-05
2.74218e-05
2.10233e-05
1.63987e-05
1.30352e-05
1.05772e-05
8.77556e-06
7.45455e-06
6.48976e-06
5.7933e-06
5.30368e-06
4.97798e-06
4.78619e-06
4.70856e-06
4.7332e-06
4.85458e-06
5.07292e-06
5.39409e-06
5.83056e-06
6.40223e-06
7.14209e-06
8.08757e-06
9.33702e-06
1.08321e-05
1.3211e-05
1.536e-05
0.110135
0.0277966
0.0095922
0.00412053
0.00199964
0.00103031
0.000549027
0.000301456
0.000171852
0.000102791
6.50007e-05
4.35537e-05
3.08625e-05
2.30453e-05
1.80617e-05
1.47738e-05
1.25706e-05
1.10512e-05
1.0096e-05
9.90097e-06
1.14696e-05
1.88011e-05
4.14331e-05
8.67085e-05
0.000144689
0.000192654
0.000213741
0.000205142
0.00018202
0.000153677
0.000123209
9.88583e-05
0.00011343
0.000277175
0.000879603
0.00228483
0.00412925
0.0053784
0.00564186
0.00515319
0.00428489
0.00330988
0.00240355
0.00169859
0.00118694
0.000824486
0.000571066
0.000395883
0.000275781
0.000193727
0.000137583
9.89492e-05
7.21327e-05
5.33235e-05
3.99829e-05
3.04169e-05
2.34878e-05
1.84243e-05
1.4697e-05
1.19376e-05
9.88718e-06
8.36106e-06
7.22689e-06
6.38926e-06
5.77957e-06
5.35e-06
5.06586e-06
4.90344e-06
4.84752e-06
4.88971e-06
5.02757e-06
5.26434e-06
5.6096e-06
6.07991e-06
6.70399e-06
7.51538e-06
8.60398e-06
9.9238e-06
1.20609e-05
1.40404e-05
0.110319
0.0280701
0.00985385
0.00432221
0.0021345
0.00111148
0.00059367
0.000323845
0.000181824
0.000106347
6.54461e-05
4.25481e-05
2.91656e-05
2.09655e-05
1.57042e-05
1.21793e-05
9.79428e-06
8.13858e-06
7.01119e-06
6.3951e-06
6.57771e-06
8.84593e-06
1.67012e-05
3.41435e-05
5.93146e-05
8.28009e-05
9.47463e-05
9.1565e-05
8.12886e-05
6.74624e-05
5.36651e-05
5.51946e-05
0.000132389
0.000463987
0.00148885
0.00358261
0.00566555
0.00643123
0.00610356
0.00523282
0.00421235
0.00322526
0.00237203
0.00170223
0.00120316
0.000841291
0.000584942
0.000406837
0.000284586
0.000201035
0.0001438
0.000104308
7.67726e-05
5.73371e-05
4.34433e-05
3.33873e-05
2.6026e-05
2.05835e-05
1.65263e-05
1.34821e-05
1.11874e-05
9.45328e-06
8.14267e-06
7.15545e-06
6.41787e-06
5.87762e-06
5.49654e-06
5.24741e-06
5.11199e-06
5.07931e-06
5.14475e-06
5.30957e-06
5.58137e-06
5.97458e-06
6.51509e-06
7.23361e-06
8.21316e-06
9.41415e-06
1.13789e-05
1.32464e-05
0.110448
0.0282641
0.0100457
0.00447458
0.00223922
0.00117626
0.000630314
0.000342737
0.000190477
0.000109565
6.60041e-05
4.19034e-05
2.80178e-05
1.96196e-05
1.42791e-05
1.07192e-05
8.32239e-06
6.66187e-06
5.50097e-06
4.74281e-06
4.43497e-06
4.97159e-06
7.5371e-06
1.37548e-05
2.33743e-05
3.28316e-05
3.7525e-05
3.5401e-05
3.07133e-05
2.51116e-05
2.35968e-05
5.58583e-05
0.000230355
0.000819354
0.00242307
0.00509475
0.00676167
0.00666724
0.00580669
0.00474521
0.00375411
0.00290634
0.00219409
0.0016153
0.00116427
0.000824907
0.00057905
0.000406057
0.000286388
0.000204113
0.000147424
0.000108055
8.04011e-05
6.07187e-05
4.65179e-05
3.61361e-05
2.84541e-05
2.2709e-05
1.83741e-05
1.50798e-05
1.25631e-05
1.06339e-05
9.15342e-06
8.01932e-06
7.15546e-06
6.50594e-06
6.03171e-06
5.70393e-06
5.50336e-06
5.41873e-06
5.44577e-06
5.58668e-06
5.85035e-06
6.25259e-06
6.82014e-06
7.5833e-06
8.62072e-06
9.88166e-06
1.18961e-05
1.38261e-05
0.110529
0.0283853
0.0101701
0.00457663
0.00231128
0.00122201
0.00065688
0.000356775
0.000197038
0.000112033
6.64224e-05
4.13935e-05
2.71407e-05
1.86316e-05
1.32859e-05
9.7603e-06
7.40888e-06
5.79033e-06
4.651e-06
3.86185e-06
3.38463e-06
3.31834e-06
4.03433e-06
6.09683e-06
9.46669e-06
1.28136e-05
1.42763e-05
1.30927e-05
1.12448e-05
9.91533e-06
1.95076e-05
0.000102181
0.000444363
0.00142206
0.00368527
0.00642176
0.00703853
0.0061259
0.00497777
0.00394664
0.00312385
0.00250596
0.00196561
0.00148239
0.00109149
0.000785663
0.000558514
0.000396096
0.000282442
0.000203555
0.000148708
0.00011027
8.30132e-05
6.34226e-05
4.91436e-05
3.85948e-05
3.07049e-05
2.47392e-05
2.01868e-05
1.66872e-05
1.39821e-05
1.18843e-05
1.02562e-05
8.99639e-06
8.03073e-06
7.30635e-06
6.79349e-06
6.46983e-06
6.3227e-06
6.34811e-06
6.54906e-06
6.93472e-06
7.51989e-06
8.32467e-06
9.37791e-06
1.07057e-05
1.23814e-05
1.42877e-05
1.70651e-05
1.95083e-05
0.110573
0.0284504
0.0102408
0.00463683
0.00235503
0.00125052
0.00067384
0.000365932
0.000201381
0.000113656
6.66468e-05
4.09748e-05
2.64721e-05
1.78997e-05
1.25713e-05
9.09373e-06
6.79691e-06
5.22809e-06
4.1246e-06
3.34372e-06
2.8145e-06
2.53493e-06
2.60313e-06
3.18579e-06
4.25219e-06
5.30939e-06
5.67051e-06
5.13607e-06
4.50825e-06
6.28626e-06
3.54017e-05
0.000219852
0.000854813
0.00237242
0.00512255
0.00712316
0.00649116
0.00508684
0.00390554
0.00307294
0.00254465
0.00212875
0.00173977
0.00135574
0.00100479
0.000732644
0.000528198
0.000379573
0.000274165
0.000200143
0.000148116
0.000111263
8.48552e-05
6.56761e-05
5.1554e-05
4.1018e-05
3.30648e-05
2.7002e-05
2.23467e-05
1.87578e-05
1.59926e-05
1.38777e-05
1.22893e-05
1.11415e-05
1.03771e-05
9.96431e-06
9.90449e-06
1.02144e-05
1.08765e-05
1.18759e-05
1.31994e-05
1.48358e-05
1.67775e-05
1.90212e-05
2.15751e-05
2.44377e-05
2.76818e-05
3.10459e-05
3.54971e-05
3.85879e-05
0.110595
0.0284781
0.0102745
0.0046674
0.00237804
0.00126593
0.000683216
0.000371082
0.000203834
0.000114539
6.6701e-05
4.06416e-05
2.59897e-05
1.73854e-05
1.20776e-05
8.64135e-06
6.38983e-06
4.86222e-06
3.79075e-06
3.0265e-06
2.48572e-06
2.13034e-06
1.96722e-06
2.02885e-06
2.28187e-06
2.5389e-06
2.55635e-06
2.30044e-06
2.42293e-06
1.00223e-05
8.55046e-05
0.000478996
0.00160551
0.00374022
0.00640393
0.0069875
0.00540902
0.00388485
0.00292441
0.00239165
0.00204951
0.00178688
0.00151771
0.00122132
0.000924203
0.000672799
0.000492363
0.000359131
0.000263323
0.000195246
0.000146906
0.000112371
8.74668e-05
6.93228e-05
5.59842e-05
4.61202e-05
3.88214e-05
3.34622e-05
2.96088e-05
2.69579e-05
2.52945e-05
2.44633e-05
2.4348e-05
2.48559e-05
2.59066e-05
2.74224e-05
2.93145e-05
3.1548e-05
3.41009e-05
3.68984e-05
3.98864e-05
4.30326e-05
4.63264e-05
4.97757e-05
5.34165e-05
5.72659e-05
6.14855e-05
6.56781e-05
7.12861e-05
7.4059e-05
0.110604
0.0284836
0.0102863
0.00467977
0.0023879
0.00127276
0.000687463
0.000373431
0.000204927
0.000114878
6.66339e-05
4.03836e-05
2.56612e-05
1.70475e-05
1.17585e-05
8.3525e-06
6.1329e-06
4.63414e-06
3.58551e-06
2.83522e-06
2.29449e-06
1.91225e-06
1.6644e-06
1.54071e-06
1.51119e-06
1.49848e-06
1.41467e-06
1.30956e-06
3.02414e-06
2.78554e-05
0.000217837
0.00102761
0.00291001
0.0054594
0.00714255
0.00613046
0.00416194
0.00284018
0.00220354
0.00185254
0.00163934
0.00148682
0.00131023
0.00108758
0.000842213
0.000617367
0.00045591
0.00033871
0.000253664
0.000192909
0.000149816
0.000119358
9.79298e-05
8.30047e-05
7.28178e-05
6.61236e-05
6.20285e-05
5.98765e-05
5.91758e-05
5.95499e-05
6.07069e-05
6.24189e-05
6.4509e-05
6.68418e-05
6.93167e-05
7.186e-05
7.44178e-05
7.69204e-05
7.94059e-05
8.19508e-05
8.45915e-05
8.73734e-05
9.03494e-05
9.35756e-05
9.71329e-05
0.00010105
0.000105578
0.000110186
0.000116804
0.000119332
0.110607
0.0284773
0.0102864
0.00468229
0.00239045
0.00127468
0.000688686
0.000374082
0.000205175
0.000114874
6.6494e-05
4.01833e-05
2.54444e-05
1.6837e-05
1.1565e-05
8.17999e-06
5.98118e-06
4.50073e-06
3.46657e-06
2.72552e-06
2.1869e-06
1.79505e-06
1.5155e-06
1.32489e-06
1.19728e-06
1.09542e-06
9.88924e-07
1.31778e-06
1.00556e-05
9.07456e-05
0.000557638
0.00215263
0.00498195
0.00722877
0.00710196
0.00487634
0.00303377
0.00211484
0.00167559
0.00144288
0.00131723
0.00123723
0.00112686
0.000962868
0.000764004
0.000571058
0.000425862
0.000325692
0.000253121
0.000201903
0.00016658
0.000142832
0.000127399
0.000117858
0.000112406
0.000109711
0.000108803
0.000109001
0.000109846
0.000111048
0.000112439
0.000113934
0.000115502
0.000117144
0.000118876
0.000120723
0.000122706
0.00012484
0.000127118
0.000129631
0.000132441
0.000135598
0.000139156
0.000143171
0.000147734
0.000152857
0.000158858
0.000164996
0.000173887
0.000177076
0.110607
0.0284641
0.0102804
0.00467951
0.00238905
0.00127392
0.000688233
0.000373776
0.000204937
0.000114671
6.63125e-05
4.00208e-05
2.53006e-05
1.67121e-05
1.14594e-05
8.09546e-06
5.91991e-06
4.46574e-06
3.46002e-06
2.74528e-06
2.22412e-06
1.83537e-06
1.54212e-06
1.32138e-06
1.15456e-06
1.02457e-06
9.96641e-07
5.75133e-06
5.06477e-05
0.000311068
0.0014171
0.00432035
0.0078197
0.00855638
0.00631762
0.00357426
0.00220782
0.00162489
0.00130139
0.00114311
0.00107357
0.00103872
0.000973999
0.000855981
0.000698752
0.000539251
0.000411448
0.000328226
0.000268741
0.000227534
0.000199945
0.000182112
0.000171045
0.00016452
0.000160946
0.000159235
0.000158675
0.000158826
0.000159436
0.000160373
0.000161581
0.00016305
0.000164798
0.000166852
0.000169247
0.000172016
0.000175188
0.000178788
0.000182832
0.000187355
0.000192463
0.000198208
0.000204654
0.000211872
0.000219978
0.000228968
0.00023924
0.00024982
0.000264036
0.000269374
0.110595
0.0284338
0.0102596
0.00466575
0.00238041
0.00126882
0.000685391
0.000372281
0.00020422
0.000114411
6.63648e-05
4.03696e-05
2.60496e-05
1.81148e-05
1.40035e-05
1.2648e-05
1.36525e-05
1.66129e-05
2.06924e-05
2.44157e-05
2.63245e-05
2.59438e-05
2.39451e-05
2.14654e-05
1.9498e-05
1.89065e-05
2.22152e-05
7.20783e-05
0.000286936
0.00107681
0.00349669
0.00802714
0.0109721
0.00898785
0.00505251
0.00248888
0.001689
0.0013177
0.00105262
0.000929438
0.000891603
0.000885078
0.000852658
0.000771608
0.0006514
0.000523222
0.00041506
0.000344819
0.000295577
0.000261334
0.000238304
0.000223361
0.00021411
0.000208812
0.000206244
0.000205571
0.000206243
0.000207909
0.000210357
0.000213472
0.000217205
0.00022155
0.00022653
0.000232185
0.000238565
0.000245725
0.000253716
0.00026259
0.000272399
0.000283221
0.000295239
0.000308559
0.000323325
0.000339699
0.000357917
0.000378022
0.000400642
0.000424467
0.000453933
0.000466794
0.110497
0.0282842
0.010133
0.00457542
0.00232417
0.00123835
0.000672968
0.000373448
0.000218391
0.000144721
0.000119205
0.000125005
0.000154397
0.000204756
0.000276541
0.000371534
0.000483007
0.000597982
0.000694717
0.000748222
0.000745231
0.000693912
0.000618267
0.000543995
0.00049017
0.000472817
0.000516882
0.00076626
0.00149293
0.00350508
0.00800027
0.0134093
0.0136002
0.00832941
0.00365255
0.00179086
0.00144924
0.00117907
0.00092835
0.000796893
0.000761868
0.000768945
0.000757804
0.000705362
0.000616232
0.000515156
0.000424784
0.000364383
0.000322988
0.000294368
0.000275782
0.000264875
0.000259763
0.000258996
0.000261489
0.000266448
0.000273316
0.000281725
0.000291456
0.000302405
0.000314556
0.000327957
0.000342703
0.000358928
0.000376795
0.000396484
0.000418184
0.000442079
0.000468389
0.000497506
0.000529867
0.000565886
0.000606107
0.000651174
0.000701938
0.000758925
0.000823973
0.000895209
0.000980224
0.00103104
0.110173
0.0277757
0.00969855
0.0043323
0.00231078
0.00146708
0.00117104
0.00119075
0.00141332
0.00176377
0.00218199
0.00262064
0.00304795
0.0034476
0.00381335
0.00413803
0.00438711
0.00452811
0.0045292
0.00437602
0.00408922
0.00372286
0.00334782
0.00303053
0.00282343
0.00278992
0.00297962
0.00365294
0.00550296
0.00987272
0.0165921
0.0200513
0.0147875
0.00668592
0.00240361
0.00154146
0.00158706
0.00126922
0.000989906
0.000799101
0.00071664
0.00070944
0.000698499
0.000657298
0.000586607
0.00050516
0.000432774
0.000386025
0.000357372
0.00034089
0.000334758
0.000337189
0.000346582
0.000361574
0.000381061
0.000404204
0.000430423
0.000459378
0.000490963
0.000525242
0.000562429
0.000602857
0.000646966
0.000695299
0.000748486
0.000807261
0.000872468
0.000944998
0.00102596
0.00111716
0.00122008
0.00133683
0.00147006
0.00162302
0.00179999
0.00200508
0.00224688
0.00252506
0.00285683
0.0031613
0.117654
0.0360782
0.0176858
0.0125044
0.0112978
0.0116321
0.0126666
0.0139021
0.0149514
0.0155747
0.0157124
0.015445
0.014914
0.0142564
0.0135697
0.0129031
0.0122661
0.0116519
0.0110415
0.0104256
0.00982019
0.00926644
0.00881893
0.00854085
0.00848889
0.00867584
0.00954329
0.0119309
0.0171199
0.025672
0.0318165
0.0266925
0.0136173
0.00443333
0.00157713
0.0014384
0.00223911
0.00198876
0.0015811
0.00125139
0.00100806
0.000892242
0.000811327
0.000720198
0.000620553
0.000528531
0.000468085
0.000455244
0.000463172
0.000487157
0.000525975
0.000577907
0.000641058
0.000713638
0.000794191
0.000881735
0.000975826
0.00107661
0.00118471
0.00130115
0.00142724
0.00156464
0.00171535
0.0018817
0.00206641
0.00227279
0.00250498
0.00276824
0.00306944
0.00341518
0.00381315
0.00427412
0.00481187
0.00544379
0.00619255
0.00708352
0.00816197
0.00947776
0.0110916
0.0132424
0.223512
0.161876
0.121189
0.0945789
0.076557
0.0641583
0.0555553
0.0495816
0.0453868
0.042304
0.0398436
0.0376979
0.0357074
0.0338031
0.0319548
0.0301451
0.0284265
0.0268831
0.0256205
0.0247702
0.024452
0.0247376
0.0256263
0.0270118
0.0286754
0.030329
0.0308845
0.0296772
0.0274648
0.0252332
0.0215163
0.0136209
0.00526524
0.00220457
0.00171835
0.00138593
0.00136057
0.00305173
0.00438459
0.00471277
0.00428572
0.00354127
0.00275033
0.00202377
0.00142692
0.000995568
0.000792686
0.00094172
0.00115665
0.00142002
0.0017225
0.00205358
0.00240434
0.00276935
0.00314714
0.00353956
0.00395084
0.00438674
0.00485404
0.00536033
0.00591397
0.00652436
0.00720224
0.00796017
0.0088131
0.00977878
0.0108784
0.0121373
0.0135877
0.0152736
0.017249
0.0195823
0.0223602
0.0256999
0.0297417
0.0347364
0.0408221
0.0488539
0.0578071
0.0730772
)
;

boundaryField
{
    inlet
    {
        type            fixedValue;
        value           uniform 0.63;
    }
    outlet
    {
        type            zeroGradient;
    }
    fixedWalls
    {
        lowReCorrection 0;
        type            epsilonWallFunction;
        value           nonuniform List<scalar> 
160
(
0.223512
0.161876
0.121189
0.0945789
0.076557
0.0641583
0.0555553
0.0495816
0.0453868
0.042304
0.0398436
0.0376979
0.0357074
0.0338031
0.0319548
0.0301451
0.0284265
0.0268831
0.0256205
0.0247702
0.024452
0.0247376
0.0256263
0.0270118
0.0286754
0.030329
0.0308845
0.0296772
0.0274648
0.0252332
0.0215163
0.0136209
0.00526524
0.00220457
0.00171835
0.00138593
0.00136057
0.00305173
0.00438459
0.00471277
0.00428572
0.00354127
0.00275033
0.00202377
0.00142692
0.000995568
0.000792686
0.00094172
0.00115665
0.00142002
0.0017225
0.00205358
0.00240434
0.00276935
0.00314714
0.00353956
0.00395084
0.00438674
0.00485404
0.00536033
0.00591397
0.00652436
0.00720224
0.00796017
0.0088131
0.00977878
0.0108784
0.0121373
0.0135877
0.0152736
0.017249
0.0195823
0.0223602
0.0256999
0.0297417
0.0347364
0.0408221
0.0488539
0.0578071
0.0730772
0.0135126
0.0111843
0.00818878
0.0047976
0.00121671
0.000139244
0.000120297
0.000146767
0.000172994
0.000105205
8.54611e-05
8.74396e-05
0.000100764
0.000120671
0.000152285
0.000190287
0.00021181
0.00019216
0.000142954
0.000100178
7.92553e-05
7.95025e-05
0.000103186
0.000143115
0.000167156
0.000183849
0.000195556
0.00020418
0.00021112
0.000217492
0.000224362
0.000225579
0.000218827
0.000205749
0.000187991
0.000166657
0.000143076
0.000118974
9.74283e-05
7.83011e-05
6.4348e-05
5.56711e-05
4.98694e-05
4.65284e-05
4.5294e-05
4.58261e-05
4.78044e-05
5.09285e-05
5.49192e-05
5.95238e-05
6.45249e-05
6.97504e-05
7.50769e-05
8.04274e-05
8.5766e-05
9.10906e-05
9.64223e-05
0.000101799
0.000107272
0.000112902
0.000118751
0.000124892
0.000131399
0.000138356
0.00014585
0.000153981
0.000162855
0.000172594
0.000183339
0.000195249
0.000208513
0.000223351
0.00024003
0.000258866
0.000280245
0.000304633
0.00033259
0.000364798
0.000401937
0.000444653
)
;
    }
    frontAndBack
    {
        type            empty;
    }
}


// ************************************************************************* //
