/*--------------------------------*- C++ -*----------------------------------*\
| =========                 |                                                 |
| \\      /  F ield         | OpenFOAM: The Open Source CFD Toolbox           |
|  \\    /   O peration     | Version:  v1912                                 |
|   \\  /    A nd           | Website:  www.openfoam.com                      |
|    \\/     M anipulation  |                                                 |
\*---------------------------------------------------------------------------*/
FoamFile
{
    version     2.0;
    format      ascii;
    class       volScalarField;
    location    "25";
    object      k;
}
// * * * * * * * * * * * * * * * * * * * * * * * * * * * * * * * * * * * * * //

dimensions      [0 2 -2 0 0 0 0];


internalField   nonuniform List<scalar> 
2000
(
0.0162095
0.0147774
0.0124061
0.00897128
0.00371064
0.000902693
0.00084489
0.000993687
0.00114042
0.00084334
0.000747291
0.000773223
0.000871195
0.00100826
0.00120506
0.00143787
0.00160772
0.00157538
0.0013445
0.00107385
0.000910276
0.000900296
0.00105787
0.0013632
0.00155747
0.00168915
0.00178352
0.00185461
0.00191211
0.00196316
0.0020137
0.00204066
0.00201716
0.00195068
0.00184991
0.00171979
0.00156491
0.0013928
0.00122198
0.00105866
0.000912269
0.000815983
0.000743921
0.000694531
0.000666283
0.000656623
0.000662277
0.000679686
0.000705379
0.000736249
0.000769719
0.000803829
0.000837218
0.000869048
0.000898906
0.000926703
0.000952541
0.000976643
0.000999297
0.00102083
0.00104158
0.00106184
0.00108193
0.00110212
0.00112268
0.00114386
0.00116589
0.00118899
0.0012134
0.00123933
0.00126701
0.0012967
0.00132864
0.00136314
0.0014005
0.00144107
0.00148519
0.00153324
0.00158519
0.0016406
0.00683806
0.00500054
0.00452841
0.00410606
0.00326534
0.00245917
0.00192581
0.00159364
0.00386245
0.00262882
0.00159097
0.00135424
0.00152504
0.00175329
0.00205864
0.00243891
0.00283189
0.0029934
0.00268372
0.00192551
0.00182199
0.00242151
0.00283224
0.00273756
0.00249256
0.00240451
0.00254384
0.00285817
0.00324641
0.00360824
0.0038696
0.00393557
0.00386357
0.00370149
0.00349437
0.00325472
0.00297618
0.00264253
0.00230465
0.00200035
0.00170599
0.00143068
0.0011844
0.00097409
0.000802481
0.000668703
0.000569346
0.000499542
0.000453879
0.000427051
0.000414262
0.000411412
0.000415155
0.000422826
0.000432573
0.000443343
0.000454493
0.000465642
0.000476602
0.000487555
0.000498718
0.000510337
0.000522676
0.00053599
0.00055052
0.000566498
0.000584158
0.000603746
0.000625536
0.000649843
0.000677041
0.000707586
0.000742053
0.000781114
0.000825805
0.000876713
0.000937162
0.00100064
0.0010945
0.00115749
0.00514633
0.00248584
0.00188105
0.0017574
0.0016378
0.00147786
0.00133338
0.00124033
0.00157967
0.00177246
0.00206135
0.00327003
0.00465136
0.00381918
0.00348308
0.00368474
0.00408622
0.00448735
0.00449441
0.00367014
0.00257562
0.00289639
0.00313733
0.00299316
0.00285395
0.0030645
0.00366629
0.0044891
0.00524337
0.00565898
0.00558167
0.0052614
0.00481501
0.00429875
0.00382415
0.00344567
0.00311995
0.00283573
0.00257715
0.0023262
0.00207154
0.0018107
0.00154937
0.00129799
0.00106736
0.000865494
0.000696415
0.000560415
0.000455084
0.000376501
0.000320213
0.000281793
0.000257213
0.000243318
0.000237493
0.000237563
0.00024189
0.000249342
0.000259176
0.00027067
0.000283294
0.000296834
0.000311301
0.000326784
0.00034344
0.000361488
0.000381196
0.000402887
0.000426949
0.000453853
0.000484176
0.000518626
0.000558097
0.000603653
0.000656791
0.000718593
0.000792954
0.000873037
0.000990218
0.00107465
0.00490117
0.00193931
0.00108681
0.000852208
0.000794335
0.000772244
0.000754722
0.000744936
0.000828763
0.000963558
0.0011906
0.00173481
0.00282344
0.00405551
0.00535995
0.00689334
0.00796934
0.00774113
0.00804492
0.00768188
0.005806
0.00444798
0.004139
0.0037128
0.00342723
0.00360779
0.00427243
0.00522883
0.0060554
0.00622433
0.00587052
0.00533455
0.0047282
0.00412075
0.00356815
0.00310513
0.0027463
0.00248633
0.002299
0.00214638
0.00199457
0.001824
0.00163058
0.00142144
0.00120909
0.00100635
0.000823175
0.000665416
0.00053513
0.000430962
0.000349998
0.000288791
0.000244008
0.00021244
0.000191271
0.000178166
0.000171264
0.000169132
0.000170707
0.000175252
0.000182306
0.000191341
0.000201899
0.000213774
0.000226873
0.000241188
0.000256786
0.000273802
0.000292443
0.000312991
0.000335816
0.000361388
0.000390311
0.000423304
0.000461368
0.000505198
0.000557302
0.000612988
0.000691954
0.000750533
0.00486782
0.00184159
0.000888719
0.000554019
0.000439736
0.000408246
0.000406542
0.000415566
0.000448135
0.000506837
0.000607417
0.000817983
0.00127521
0.00206552
0.0032482
0.00476019
0.00607568
0.00783174
0.0106195
0.012471
0.0116637
0.00872524
0.00668194
0.00536507
0.00457465
0.00434762
0.00459161
0.00507236
0.00543305
0.00542076
0.00511585
0.00463956
0.00408208
0.0035093
0.0029752
0.00252989
0.00221202
0.00202748
0.00194044
0.00189188
0.0018312
0.00173294
0.00159381
0.00142315
0.00123554
0.00104603
0.000866988
0.000706591
0.000569071
0.000455798
0.000365506
0.000295465
0.000242429
0.000203202
0.000174954
0.000155323
0.000142417
0.000134765
0.000131249
0.000131035
0.000133521
0.000138295
0.000145021
0.000153381
0.000163214
0.000174437
0.000187034
0.000201059
0.000216634
0.000233956
0.000253309
0.000275072
0.000299746
0.000327945
0.000360517
0.000398077
0.000442692
0.000490665
0.000557977
0.000609994
0.00486263
0.00182596
0.000847247
0.000472542
0.000316607
0.000253067
0.000232235
0.000231864
0.000245569
0.000271869
0.000314669
0.000393276
0.00055427
0.000856857
0.00136517
0.00209171
0.00280673
0.003421
0.00421973
0.00634191
0.00966844
0.0109067
0.00955197
0.00774237
0.00631252
0.00547221
0.00512251
0.00502975
0.00492655
0.00470439
0.00436268
0.00391841
0.00340435
0.00286899
0.00237395
0.00199001
0.00177477
0.00173258
0.00179506
0.00186269
0.00186711
0.00179204
0.00165332
0.00147501
0.00128292
0.00108746
0.000899799
0.000729827
0.000583477
0.000462662
0.000366231
0.000291275
0.000234235
0.000191609
0.000160322
0.000137842
0.000122171
0.000111772
0.000105486
0.000102452
0.000102041
0.000103803
0.000107463
0.000112737
0.000119445
0.000127479
0.000136793
0.000147394
0.000159348
0.000172782
0.000187892
0.000204956
0.00022435
0.000246547
0.000272213
0.000301863
0.000337131
0.000375353
0.000428641
0.000471416
0.00486042
0.0018214
0.0008375
0.000451831
0.000279786
0.000197777
0.000159156
0.000143669
0.000142281
0.000150973
0.000168912
0.000200298
0.000258359
0.000363791
0.000539924
0.000791589
0.00104852
0.00126083
0.00147668
0.0019563
0.00335855
0.00605418
0.00797941
0.00805905
0.00726381
0.00639789
0.00574801
0.00528866
0.00489138
0.00446629
0.00398871
0.00344974
0.00287677
0.00232548
0.00186665
0.00158452
0.0015534
0.00175191
0.00203443
0.00223152
0.0022592
0.00213489
0.00192166
0.0016923
0.00144995
0.00120906
0.00098387
0.000784575
0.000616391
0.000479957
0.000372694
0.000290359
0.000228292
0.00018216
0.000148299
0.000123781
0.000106354
9.43225e-05
8.64344e-05
8.17726e-05
7.96737e-05
7.96657e-05
8.14258e-05
8.47435e-05
8.94224e-05
9.53526e-05
0.000102478
0.000110791
0.000120337
0.00013121
0.000143568
0.000157637
0.000173732
0.000192256
0.000213785
0.000238801
0.000268723
0.000301533
0.000347312
0.000385354
0.00485768
0.00181632
0.000831143
0.000443574
0.000267642
0.000179333
0.000132404
0.000107449
9.56159e-05
9.26586e-05
9.66978e-05
0.000107927
0.000129544
0.000167636
0.000228811
0.000312485
0.000396195
0.000463838
0.000530403
0.000676118
0.0011527
0.00241882
0.00432597
0.00574131
0.00616854
0.00598085
0.00557911
0.00514119
0.00467155
0.00412475
0.00351818
0.00288522
0.00228245
0.00177037
0.00141507
0.00133439
0.00163188
0.00221461
0.00280357
0.00313525
0.00311835
0.00284063
0.00248944
0.00212353
0.00176214
0.00142667
0.00113049
0.00088019
0.000676564
0.000516106
0.000392806
0.000299829
0.000230668
0.000179731
0.000142517
0.000115553
9.62332e-05
8.26346e-05
7.33572e-05
6.73894e-05
6.40058e-05
6.26925e-05
6.30989e-05
6.49954e-05
6.81963e-05
7.25788e-05
7.80729e-05
8.46556e-05
9.23486e-05
0.000101221
0.000111392
0.000123045
0.000136436
0.000151906
0.000169945
0.000190994
0.000216293
0.000244315
0.000283515
0.000317018
0.00485406
0.00180935
0.000823149
0.000435994
0.000260402
0.000171332
0.000122152
9.35029e-05
7.66481e-05
6.73862e-05
6.36548e-05
6.46683e-05
7.08385e-05
8.36775e-05
0.000104885
0.000133667
0.000162631
0.00018685
0.000211275
0.000260556
0.000420781
0.00090718
0.00188418
0.00306642
0.00394586
0.00433467
0.00434546
0.00413023
0.00373153
0.00320901
0.00263088
0.00206974
0.00158555
0.00121845
0.00106228
0.00133042
0.00214588
0.00327639
0.0042613
0.00472312
0.00456861
0.00400711
0.00338119
0.00275624
0.00219318
0.00171269
0.00131702
0.0010005
0.000753632
0.000565195
0.000423759
0.000318881
0.000241745
0.000185314
0.000144189
0.000114339
9.28047e-05
7.74362e-05
6.66822e-05
5.94282e-05
5.48768e-05
5.24625e-05
5.17896e-05
5.2599e-05
5.46956e-05
5.79398e-05
6.22469e-05
6.75782e-05
7.39382e-05
8.13742e-05
8.99805e-05
9.99059e-05
0.000111368
0.000124657
0.000140207
0.000158427
0.000180434
0.000205046
0.00023966
0.000269964
0.00484985
0.00180103
0.000813528
0.000427298
0.000253274
0.000165346
0.000116443
8.71052e-05
6.86076e-05
5.67645e-05
4.94635e-05
4.56486e-05
4.49398e-05
4.74469e-05
5.34075e-05
6.23385e-05
7.18851e-05
8.06522e-05
9.05197e-05
0.000109715
0.000167929
0.000353483
0.000785118
0.00143241
0.00207828
0.00252122
0.00269545
0.00262471
0.00235619
0.00199753
0.00161519
0.00126206
0.000968691
0.000788229
0.00091907
0.00170082
0.00323384
0.00506507
0.00649118
0.00702193
0.00661175
0.00564031
0.00453755
0.00351733
0.00267815
0.0020183
0.00150967
0.00112304
0.000832938
0.000617715
0.000459402
0.00034357
0.000259032
0.000197368
0.000152375
0.000119551
9.56515e-05
7.83472e-05
6.59664e-05
5.73088e-05
5.15129e-05
4.7962e-05
4.62193e-05
4.59844e-05
4.70481e-05
4.92521e-05
5.24954e-05
5.67234e-05
6.19229e-05
6.81212e-05
7.53882e-05
8.38427e-05
9.36653e-05
0.000105105
0.000118539
0.000134345
0.000153532
0.000175191
0.000205873
0.000233132
0.0048456
0.0017924
0.00080343
0.000418155
0.000245882
0.000159492
0.000111588
8.26696e-05
6.40275e-05
5.14843e-05
4.29082e-05
3.71614e-05
3.36384e-05
3.20423e-05
3.21922e-05
3.37482e-05
3.59322e-05
3.83453e-05
4.17563e-05
4.91754e-05
7.11848e-05
0.000142601
0.000327085
0.000645876
0.00101382
0.00130651
0.00144599
0.00141307
0.00126813
0.00108414
0.000887909
0.000699405
0.000551625
0.000565983
0.00107058
0.00253629
0.00497072
0.00751638
0.00918136
0.00952547
0.00871022
0.0072607
0.00559899
0.00418028
0.00308771
0.00227223
0.00166901
0.00122537
0.000901034
0.000665082
0.000493877
0.000369649
0.000279305
0.000213362
0.000165034
0.000129497
0.000103322
8.40718e-05
7.0001e-05
5.98569e-05
5.27347e-05
4.79803e-05
4.51223e-05
4.38251e-05
4.38562e-05
4.50421e-05
4.7265e-05
5.04542e-05
5.45801e-05
5.96514e-05
6.5717e-05
7.28705e-05
8.12611e-05
9.11012e-05
0.000102721
0.000116466
0.000133256
0.000152398
0.000179777
0.000204742
0.00484183
0.00178451
0.000794098
0.000409644
0.000238902
0.000153869
0.00010694
7.86481e-05
6.03331e-05
4.78305e-05
3.89967e-05
3.2662e-05
2.81549e-05
2.50693e-05
2.3125e-05
2.20533e-05
2.15599e-05
2.14839e-05
2.21038e-05
2.45419e-05
3.26312e-05
5.94885e-05
0.00013424
0.00028008
0.000471198
0.000640834
0.000731529
0.000723781
0.000659177
0.000567567
0.000460566
0.000359788
0.000330596
0.000570388
0.00154821
0.00388108
0.00724438
0.01011
0.0114638
0.0112618
0.00996168
0.00809051
0.00614139
0.00453556
0.00332064
0.00242458
0.00176943
0.00129352
0.000949624
0.000701797
0.000523109
0.000393819
0.000299739
0.000230805
0.000179938
0.000142165
0.000113988
9.29295e-05
7.72222e-05
6.55928e-05
5.71171e-05
5.11203e-05
4.71082e-05
4.47205e-05
4.36989e-05
4.38588e-05
4.5066e-05
4.72341e-05
5.03173e-05
5.43079e-05
5.92361e-05
6.51735e-05
7.22431e-05
8.06259e-05
9.06095e-05
0.000102509
0.000117155
0.000134031
0.00015842
0.000181303
0.00483885
0.00177806
0.000786395
0.000402565
0.000232992
0.000148959
0.000102744
7.49541e-05
5.69953e-05
4.47229e-05
3.59844e-05
2.95909e-05
2.4846e-05
2.13135e-05
1.86944e-05
1.67556e-05
1.53531e-05
1.43737e-05
1.38839e-05
1.42884e-05
1.69846e-05
2.67789e-05
5.54627e-05
0.000116208
0.00020407
0.000289552
0.000338807
0.000335769
0.000304704
0.000257511
0.000204638
0.000177262
0.000280474
0.00079635
0.00237478
0.00568699
0.00958622
0.0120145
0.012571
0.0117154
0.0100632
0.00806017
0.00614055
0.00457179
0.00336966
0.0024701
0.00180718
0.00132472
0.000976452
0.000725802
0.000545092
0.000414092
0.00031837
0.000247782
0.000195244
0.000155809
0.000126009
0.000103393
8.62093e-05
7.31943e-05
6.34248e-05
5.62203e-05
5.10767e-05
4.76191e-05
4.55703e-05
4.47344e-05
4.49667e-05
4.61684e-05
4.8282e-05
5.12881e-05
5.52049e-05
6.00904e-05
6.60506e-05
7.3245e-05
8.19292e-05
9.23885e-05
0.000105367
0.000120458
0.000142378
0.000163557
0.00483675
0.00177329
0.00078064
0.000397239
0.000228466
0.000145087
9.93165e-05
7.18404e-05
5.41301e-05
4.20629e-05
3.34811e-05
2.71818e-05
2.24546e-05
1.88526e-05
1.60743e-05
1.3902e-05
1.22375e-05
1.09732e-05
1.00862e-05
9.70258e-06
1.03237e-05
1.36861e-05
2.42598e-05
4.78615e-05
8.39582e-05
0.000120574
0.000141155
0.000136974
0.000121767
0.000101009
8.56553e-05
0.000126255
0.000387342
0.00125502
0.00356544
0.00768891
0.0113082
0.0126972
0.0123758
0.0110437
0.00929357
0.00744916
0.00577209
0.00437995
0.003278
0.00242888
0.00179166
0.00132328
0.000983223
0.000737415
0.000559384
0.000429601
0.000334109
0.0002631
0.00020973
0.000169222
0.000138224
0.000114361
9.59332e-05
8.17057e-05
7.07728e-05
6.24616e-05
5.62684e-05
5.18151e-05
4.88188e-05
4.70762e-05
4.64508e-05
4.68475e-05
4.8216e-05
5.05467e-05
5.3869e-05
5.82519e-05
6.38078e-05
7.06954e-05
7.91534e-05
8.94332e-05
0.000102178
0.000116922
0.000137942
0.000158503
0.00483543
0.00177002
0.000776691
0.000393569
0.0002253
0.000142309
9.67839e-05
6.94725e-05
5.18988e-05
3.99603e-05
3.14977e-05
2.52984e-05
2.06432e-05
1.70795e-05
1.43055e-05
1.21098e-05
1.04062e-05
9.08432e-06
8.08298e-06
7.41814e-06
7.25488e-06
8.20534e-06
1.18933e-05
2.05989e-05
3.43577e-05
4.84182e-05
5.56829e-05
5.26792e-05
4.63144e-05
3.95939e-05
5.0882e-05
0.000172817
0.000653991
0.00198291
0.0050592
0.0094033
0.011929
0.0121592
0.0111529
0.00962364
0.00802479
0.0065789
0.00525474
0.00406471
0.00309741
0.00232713
0.00173644
0.00129618
0.000973411
0.000738212
0.000566529
0.000440339
0.000346658
0.000276317
0.000222894
0.000181889
0.000150133
0.00012537
0.000105977
9.07704e-05
7.88795e-05
6.96549e-05
6.2613e-05
5.73967e-05
5.37539e-05
5.1529e-05
5.06918e-05
5.12214e-05
5.31337e-05
5.64793e-05
6.1332e-05
6.77837e-05
7.59418e-05
8.59274e-05
9.7902e-05
0.000111983
0.000128622
0.000146902
0.000171222
0.000193135
0.00483469
0.00176789
0.000774146
0.000391216
0.000223251
0.000140479
9.50774e-05
6.78403e-05
5.03278e-05
3.84533e-05
3.00586e-05
2.39257e-05
1.93296e-05
1.58149e-05
1.30794e-05
1.0914e-05
9.23441e-06
7.92599e-06
6.90973e-06
6.15661e-06
5.70393e-06
5.75279e-06
6.86528e-06
9.86222e-06
1.47679e-05
1.9748e-05
2.20306e-05
2.0578e-05
1.82475e-05
1.98666e-05
6.42031e-05
0.000318347
0.00112886
0.00302735
0.00664821
0.0103427
0.0114087
0.0107255
0.0093165
0.00787184
0.00673081
0.0057148
0.00472556
0.00375603
0.00287845
0.00218853
0.00165461
0.00125075
0.000951148
0.000730585
0.000568023
0.000447388
0.000356966
0.000288416
0.000235858
0.000195153
0.000163374
0.000138441
0.000118865
0.000103581
9.18306e-05
8.30857e-05
7.69963e-05
7.33529e-05
7.20618e-05
7.31279e-05
7.67129e-05
8.30082e-05
9.18848e-05
0.000103177
0.000116688
0.000132211
0.000149544
0.000168513
0.000189014
0.000210895
0.000234475
0.000258202
0.000287267
0.000307773
0.00483433
0.00176647
0.000772543
0.000389773
0.000221998
0.000139352
9.40152e-05
6.68096e-05
4.932e-05
3.74717e-05
2.91085e-05
2.301e-05
1.84488e-05
1.49678e-05
1.22649e-05
1.01321e-05
8.48372e-06
7.2013e-06
6.19655e-06
5.42095e-06
4.86262e-06
4.57326e-06
4.73036e-06
5.60089e-06
7.16973e-06
8.7452e-06
9.31026e-06
8.63296e-06
8.49846e-06
2.08685e-05
0.000128415
0.000614372
0.00190586
0.00438816
0.00798055
0.0102733
0.0100519
0.00883251
0.00742949
0.0063841
0.00559471
0.00491392
0.00419512
0.00342488
0.00267202
0.00203171
0.00155807
0.00119489
0.000922237
0.000719586
0.000569104
0.000456891
0.000372695
0.000309172
0.000261139
0.000224967
0.000198129
0.000178865
0.000165952
0.000158532
0.000155982
0.000157817
0.000163615
0.000172959
0.000185392
0.00020038
0.000217232
0.000235537
0.000255024
0.000275162
0.000295564
0.000315989
0.000336328
0.000356582
0.000376901
0.000397347
0.000418694
0.000439181
0.000464956
0.000477011
0.00483417
0.00176543
0.000771488
0.000388878
0.000221242
0.000138684
9.33889e-05
6.62017e-05
4.87222e-05
3.68842e-05
2.8534e-05
2.24511e-05
1.79069e-05
1.44444e-05
1.17617e-05
9.6512e-06
8.02588e-06
6.76421e-06
5.77251e-06
4.99318e-06
4.39507e-06
3.97618e-06
3.77885e-06
3.87338e-06
4.23112e-06
4.59253e-06
4.60146e-06
4.35521e-06
7.41449e-06
4.53272e-05
0.000285876
0.00116779
0.00309974
0.00593241
0.00868384
0.00930015
0.00828171
0.00695976
0.00590234
0.0051657
0.00463679
0.00419957
0.00369305
0.0030935
0.00246214
0.00188657
0.0014616
0.00114188
0.000900808
0.000722
0.000590959
0.000496146
0.00042889
0.000382793
0.00035311
0.000336238
0.00032936
0.000330209
0.000336923
0.00034795
0.000362001
0.000378011
0.000395119
0.000412645
0.000430071
0.000447009
0.000463157
0.000478117
0.000492009
0.000505174
0.000517784
0.000530027
0.000542114
0.000554253
0.000566748
0.000579694
0.000594103
0.000607969
0.000628226
0.000633344
0.00483412
0.00176454
0.000770711
0.000388274
0.00022076
0.000138276
9.30209e-05
6.5853e-05
4.8384e-05
3.65535e-05
2.82104e-05
2.21351e-05
1.75994e-05
1.41462e-05
1.14745e-05
9.37713e-06
7.7659e-06
6.51732e-06
5.53454e-06
4.75545e-06
4.14106e-06
3.67032e-06
3.33994e-06
3.15516e-06
3.08774e-06
3.03696e-06
2.89579e-06
3.59105e-06
1.80129e-05
0.000126428
0.000639437
0.00215241
0.00476391
0.00734481
0.00854693
0.00775465
0.00646153
0.00543988
0.0047093
0.00420599
0.00386436
0.00359408
0.00324476
0.00278488
0.00226508
0.00176935
0.00138894
0.00111852
0.000917664
0.000773588
0.000674371
0.000609748
0.000571219
0.000551797
0.000545787
0.000548655
0.000556945
0.000568153
0.00058059
0.000593196
0.000605377
0.000616849
0.000627518
0.0006374
0.000646555
0.000655055
0.000662957
0.000670254
0.000676873
0.000683051
0.000689013
0.000694933
0.000700997
0.000707377
0.000714358
0.00072197
0.000731306
0.00074004
0.000756033
0.00075702
0.00483412
0.0017637
0.000770077
0.000387822
0.000220425
0.000138012
9.2797e-05
6.56517e-05
4.8196e-05
3.63742e-05
2.80379e-05
2.19688e-05
1.74394e-05
1.39942e-05
1.13336e-05
9.25333e-06
7.66765e-06
6.45497e-06
5.517e-06
4.78278e-06
4.19782e-06
3.72501e-06
3.34643e-06
3.05534e-06
2.83732e-06
2.66285e-06
2.70913e-06
1.12726e-05
7.55451e-05
0.000372824
0.00140076
0.00377383
0.00673759
0.00820802
0.0076223
0.00601904
0.00487064
0.00424936
0.00378849
0.00346685
0.00326109
0.00310374
0.00286963
0.00252431
0.00210829
0.00169958
0.00137076
0.00115301
0.000996789
0.000890024
0.000821552
0.000781182
0.000760329
0.000752192
0.000751721
0.000755402
0.000760965
0.000767057
0.000772956
0.00077834
0.000783125
0.000787361
0.000791154
0.00079463
0.000797902
0.000801064
0.00080417
0.000807239
0.00081024
0.000813144
0.000816108
0.000819238
0.000822662
0.000826495
0.000830973
0.000836059
0.000842791
0.000848774
0.000861719
0.000859844
0.00483432
0.00176316
0.000769835
0.000387721
0.000220392
0.000138017
9.28253e-05
6.56991e-05
4.82701e-05
3.64987e-05
2.8264e-05
2.23993e-05
1.82758e-05
1.56257e-05
1.45015e-05
1.5316e-05
1.85439e-05
2.42849e-05
3.17032e-05
3.87471e-05
4.31326e-05
4.39081e-05
4.19167e-05
3.8909e-05
3.66115e-05
3.67485e-05
4.44379e-05
0.000115801
0.000362896
0.00108495
0.00292111
0.00609056
0.00855676
0.00820544
0.00618264
0.00441865
0.00359636
0.00331015
0.00306497
0.00288628
0.00278563
0.0027126
0.00256914
0.00232236
0.0020031
0.00167866
0.00140763
0.00123069
0.00110705
0.00102225
0.000966708
0.000932005
0.000911449
0.000900075
0.000894402
0.000892109
0.000891718
0.000892338
0.000893468
0.00089486
0.00089642
0.000898144
0.000900072
0.000902259
0.000904755
0.00090759
0.000910763
0.000914237
0.000917941
0.000921802
0.000925853
0.000930157
0.000934808
0.000939894
0.00094562
0.000951912
0.000959694
0.000966586
0.000979236
0.000975459
0.00483611
0.00176561
0.000773099
0.00039102
0.000223792
0.000141964
9.80546e-05
7.35956e-05
6.14762e-05
5.9594e-05
6.8311e-05
8.92706e-05
0.000124897
0.000178363
0.000253751
0.000355447
0.000478236
0.000609861
0.000728404
0.000807103
0.000829134
0.000798718
0.000737884
0.000673535
0.000628537
0.000624463
0.000693093
0.000931663
0.00149747
0.00282793
0.00549796
0.00876069
0.00960701
0.0072775
0.00458611
0.0032079
0.00265407
0.00255144
0.00247263
0.00240242
0.00238085
0.00237547
0.00230736
0.00214631
0.00191301
0.00166157
0.00143802
0.0012854
0.00117819
0.00110124
0.00104784
0.00101205
0.000989041
0.000975101
0.000967466
0.000964143
0.000963736
0.000965304
0.000968241
0.000972182
0.00097693
0.000982393
0.000988547
0.0009954
0.00100297
0.00101128
0.00102028
0.00102988
0.00103998
0.00105054
0.00106157
0.00107316
0.00108546
0.00109861
0.00111285
0.00112817
0.00114549
0.00116214
0.00118342
0.00118322
0.00485787
0.00180553
0.000829004
0.000465686
0.000329685
0.000300702
0.000341387
0.000443308
0.00060444
0.000818963
0.00107532
0.00135922
0.00165788
0.00196256
0.00226797
0.00256748
0.002833
0.00303799
0.00315518
0.00316556
0.00307164
0.00290111
0.00269978
0.00251783
0.00240108
0.00240402
0.00255908
0.00292666
0.00384227
0.00588259
0.00898738
0.0110549
0.0093949
0.00561412
0.00313252
0.00250866
0.00214041
0.00195513
0.00196106
0.00197014
0.00199617
0.00203491
0.00201933
0.00192331
0.00175842
0.0015654
0.00138275
0.00125073
0.00115955
0.00109365
0.00104863
0.00102022
0.00100463
0.000998642
0.000999687
0.00100577
0.00101542
0.0010276
0.00104164
0.00105715
0.00107392
0.00109187
0.00111101
0.00113141
0.00115314
0.00117627
0.00120087
0.00122688
0.0012542
0.00128304
0.00131356
0.00134609
0.00138105
0.00141887
0.00146017
0.00150539
0.00155579
0.00160792
0.00166471
0.00170053
0.00556553
0.00287144
0.0021289
0.00200168
0.00217236
0.00252892
0.00301164
0.00355067
0.00406542
0.00449098
0.00479837
0.00499393
0.00510497
0.00516407
0.00519799
0.00522196
0.00523059
0.00521629
0.0051669
0.00507227
0.00493351
0.00476704
0.00460248
0.00447956
0.00443742
0.0045039
0.00484096
0.00570937
0.00756416
0.0104828
0.0128354
0.01194
0.00762842
0.00357646
0.00204176
0.0019501
0.00204923
0.00175337
0.00160925
0.00159398
0.00162233
0.00165912
0.00165621
0.00159184
0.0014712
0.00132253
0.00117973
0.0010826
0.00102687
0.000993753
0.000980015
0.000982114
0.000996535
0.0010201
0.00105017
0.00108469
0.00112222
0.00116186
0.00120319
0.00124602
0.00129037
0.00133642
0.00138442
0.00143469
0.00148756
0.00154345
0.00160291
0.00166663
0.00173521
0.0018089
0.00188818
0.00197387
0.00206705
0.00216892
0.00228116
0.00240465
0.00254262
0.00269421
0.00286195
0.0030768
0.0142814
0.0119095
0.0101467
0.00888263
0.0079633
0.0073017
0.00683801
0.00652954
0.00633689
0.00622008
0.00614367
0.00608235
0.00602178
0.00595518
0.00587906
0.00579053
0.00569227
0.00559229
0.00550698
0.00545999
0.00547578
0.00557219
0.0057549
0.00601246
0.00631343
0.00662003
0.00680313
0.00672137
0.00644032
0.0061265
0.00565304
0.00443494
0.0025191
0.00128187
0.00105441
0.00093756
0.000822798
0.00131492
0.00182985
0.00201626
0.00194627
0.00173673
0.00148185
0.00121826
0.000970037
0.000757534
0.000606115
0.000606672
0.000691211
0.00079099
0.000900027
0.00101268
0.00112457
0.00123313
0.00133743
0.00143779
0.00153522
0.00163105
0.00172667
0.00182341
0.00192251
0.0020251
0.00213228
0.00224515
0.00236485
0.00249261
0.00262976
0.0027777
0.00293799
0.00311289
0.0033052
0.00351809
0.00375516
0.00402122
0.00432072
0.00466508
0.00505083
0.00552691
0.00599303
0.00677935
)
;

boundaryField
{
    inlet
    {
        type            fixedValue;
        value           uniform 0.017;
    }
    outlet
    {
        type            zeroGradient;
    }
    fixedWalls
    {
        type            kqRWallFunction;
        value           nonuniform List<scalar> 
160
(
0.0142814
0.0119095
0.0101467
0.00888263
0.0079633
0.0073017
0.00683801
0.00652954
0.00633689
0.00622008
0.00614367
0.00608235
0.00602178
0.00595518
0.00587906
0.00579053
0.00569227
0.00559229
0.00550698
0.00545999
0.00547578
0.00557219
0.0057549
0.00601246
0.00631343
0.00662003
0.00680313
0.00672137
0.00644032
0.0061265
0.00565304
0.00443494
0.0025191
0.00128187
0.00105441
0.00093756
0.000822798
0.00131492
0.00182985
0.00201626
0.00194627
0.00173673
0.00148185
0.00121826
0.000970037
0.000757534
0.000606115
0.000606672
0.000691211
0.00079099
0.000900027
0.00101268
0.00112457
0.00123313
0.00133743
0.00143779
0.00153522
0.00163105
0.00172667
0.00182341
0.00192251
0.0020251
0.00213228
0.00224515
0.00236485
0.00249261
0.00262976
0.0027777
0.00293799
0.00311289
0.0033052
0.00351809
0.00375516
0.00402122
0.00432072
0.00466508
0.00505083
0.00552691
0.00599303
0.00677935
0.0162095
0.0147774
0.0124061
0.00897128
0.00371064
0.000902693
0.00084489
0.000993687
0.00114042
0.00084334
0.000747291
0.000773223
0.000871195
0.00100826
0.00120506
0.00143787
0.00160772
0.00157538
0.0013445
0.00107385
0.000910276
0.000900296
0.00105787
0.0013632
0.00155747
0.00168915
0.00178352
0.00185461
0.00191211
0.00196316
0.0020137
0.00204066
0.00201716
0.00195068
0.00184991
0.00171979
0.00156491
0.0013928
0.00122198
0.00105866
0.000912269
0.000815983
0.000743921
0.000694531
0.000666283
0.000656623
0.000662277
0.000679686
0.000705379
0.000736249
0.000769719
0.000803829
0.000837218
0.000869048
0.000898906
0.000926703
0.000952541
0.000976643
0.000999297
0.00102083
0.00104158
0.00106184
0.00108193
0.00110212
0.00112268
0.00114386
0.00116589
0.00118899
0.0012134
0.00123933
0.00126701
0.0012967
0.00132864
0.00136314
0.0014005
0.00144107
0.00148519
0.00153324
0.00158519
0.0016406
)
;
    }
    frontAndBack
    {
        type            empty;
    }
}


// ************************************************************************* //
