/*--------------------------------*- C++ -*----------------------------------*\
| =========                 |                                                 |
| \\      /  F ield         | OpenFOAM: The Open Source CFD Toolbox           |
|  \\    /   O peration     | Version:  v1912                                 |
|   \\  /    A nd           | Website:  www.openfoam.com                      |
|    \\/     M anipulation  |                                                 |
\*---------------------------------------------------------------------------*/
FoamFile
{
    version     2.0;
    format      ascii;
    class       volScalarField;
    location    "25";
    object      nut;
}
// * * * * * * * * * * * * * * * * * * * * * * * * * * * * * * * * * * * * * //

dimensions      [0 2 -1 0 0 0 0];


internalField   nonuniform List<scalar> 
2000
(
0.00175001
0.00175724
0.00169159
0.00150983
0.00101848
0.000526679
0.000534056
0.000605498
0.000676614
0.000608432
0.000588104
0.000615382
0.000677902
0.0007582
0.000858236
0.000977847
0.00109829
0.00116239
0.00113808
0.00103599
0.000940937
0.000917555
0.000976085
0.00116863
0.00130605
0.00139675
0.00146395
0.00151612
0.00155861
0.00159481
0.00162661
0.00166144
0.00167348
0.00166447
0.00163835
0.00159724
0.00154047
0.00146746
0.00137939
0.00128822
0.001164
0.0010764
0.000998763
0.000933055
0.000882103
0.000846763
0.000825761
0.000816391
0.000815386
0.000819599
0.00082638
0.000833725
0.000840259
0.000845135
0.000847922
0.000848496
0.0008469
0.000843276
0.000837805
0.000830714
0.000822218
0.000812512
0.000801768
0.000790141
0.000777765
0.000764753
0.000751199
0.000737181
0.000722762
0.00070799
0.000692904
0.000677535
0.000661903
0.000646021
0.000629896
0.000613527
0.000596896
0.000579978
0.000562665
0.000544784
3.44217e-05
5.60604e-05
9.96105e-05
0.000148416
0.000162473
0.000156442
0.000160927
0.000195062
0.0010898
0.00116542
0.000901483
0.000821084
0.000928291
0.00101324
0.00108029
0.00114742
0.00119184
0.0011693
0.00107689
0.00104914
0.00117853
0.00133139
0.00143904
0.00142499
0.00133994
0.00127551
0.00127036
0.00131625
0.00138487
0.0014497
0.0014938
0.00147986
0.00142268
0.00133868
0.00124406
0.00114489
0.0010402
0.0009258
0.000818231
0.000725797
0.000638239
0.000556687
0.000483281
0.000420239
0.000369325
0.000331717
0.000308019
0.00029835
0.000302391
0.000319307
0.000347584
0.000384947
0.000428498
0.000474955
0.000521458
0.000566077
0.000607501
0.000644934
0.000678045
0.000707225
0.000733005
0.000755973
0.000776735
0.000795848
0.000813804
0.000831024
0.00084787
0.000864654
0.000881646
0.000899097
0.000917244
0.000936329
0.00095662
0.000978386
0.00100206
0.00102773
0.00105697
0.00108584
0.00112833
0.00115498
2.1287e-05
1.81691e-05
2.51576e-05
4.00866e-05
5.56983e-05
6.81487e-05
7.96185e-05
9.39803e-05
0.000170061
0.000234904
0.000334875
0.000720238
0.00144476
0.00154267
0.00146726
0.00146811
0.00148061
0.00147748
0.00143154
0.00131507
0.00141042
0.00150376
0.00154362
0.00148431
0.0014141
0.00144589
0.00160669
0.00184167
0.00205406
0.00215773
0.00210168
0.00196662
0.00179061
0.00158958
0.00140007
0.00124452
0.00110925
0.000993688
0.00089518
0.000808561
0.000728491
0.000651139
0.000575047
0.000500954
0.000430907
0.000367274
0.000312034
0.000266446
0.000231031
0.000205749
0.000190204
0.0001837
0.000185573
0.000195324
0.000212232
0.00023521
0.000263022
0.000294475
0.000328508
0.000363812
0.000399225
0.00043412
0.000468298
0.000501755
0.000534633
0.000567175
0.000599689
0.000632525
0.000666068
0.000700733
0.000736973
0.000775279
0.000816201
0.000860313
0.000908365
0.000960649
0.00101909
0.0010787
0.00115678
0.00121188
1.97864e-05
1.26268e-05
1.14666e-05
1.46793e-05
2.10764e-05
2.90211e-05
3.76767e-05
4.73904e-05
6.8379e-05
9.85953e-05
0.000145327
0.00025256
0.000495811
0.00083239
0.00124878
0.00177038
0.00220272
0.00208372
0.00205433
0.00203281
0.00196303
0.00188096
0.00179125
0.0016625
0.00156527
0.00161143
0.00182039
0.00212743
0.0023913
0.00243144
0.00228418
0.00207169
0.00183449
0.00159565
0.00137354
0.00117939
0.00101854
0.000892935
0.000799792
0.000730685
0.000674755
0.000622891
0.000569683
0.000513361
0.000454816
0.000396378
0.000340769
0.000290316
0.000246541
0.000210195
0.000181384
0.000159952
0.000145512
0.000137546
0.000135526
0.000138957
0.000147362
0.00016025
0.000177111
0.000197458
0.000220881
0.000246594
0.000273756
0.000301867
0.000330598
0.000359767
0.000389323
0.000419326
0.000449926
0.000481351
0.000513897
0.000547926
0.000583872
0.000622209
0.000663551
0.000708193
0.000757604
0.0008082
0.000872296
0.000920973
1.95892e-05
1.17078e-05
8.61573e-06
8.10431e-06
9.63047e-06
1.29012e-05
1.75577e-05
2.33552e-05
3.21919e-05
4.53836e-05
6.58585e-05
0.000105563
0.000193015
0.000352731
0.000608335
0.000964454
0.00128177
0.00162952
0.00216616
0.00257263
0.00266558
0.00242387
0.00215207
0.00193603
0.00179351
0.00178223
0.00189871
0.00207698
0.00220592
0.0021908
0.00206147
0.00186565
0.00163753
0.0014024
0.00118023
0.000985199
0.000827431
0.000714179
0.000643799
0.000602772
0.000574396
0.000546851
0.000514346
0.000475267
0.000430498
0.00038201
0.000332623
0.000285318
0.000242348
0.000205089
0.000174127
0.00014946
0.000130737
0.000117452
0.00010908
0.000105155
0.000105291
0.000109178
0.000116552
0.000127161
0.000140748
0.00015707
0.000175789
0.000196415
0.000218605
0.000242084
0.000266661
0.000292241
0.000318817
0.000346466
0.000375348
0.000405698
0.000437832
0.000472116
0.000509042
0.000548861
0.00059276
0.000637913
0.000694268
0.000739154
1.95484e-05
1.15231e-05
7.98243e-06
6.41783e-06
6.10547e-06
6.86987e-06
8.6876e-06
1.15338e-05
1.57602e-05
2.19297e-05
3.11561e-05
4.70099e-05
7.87993e-05
0.000139895
0.000245887
0.000403499
0.000562118
0.00069429
0.000844266
0.00118366
0.00173738
0.00216098
0.00222748
0.0020972
0.00194638
0.00187331
0.00188554
0.00193156
0.00193799
0.00186657
0.00173447
0.00155661
0.00134977
0.00113454
0.000930949
0.000754767
0.000622293
0.000548319
0.000524566
0.000523401
0.000521364
0.000508263
0.000483172
0.000448545
0.00040736
0.000361954
0.000315116
0.000269569
0.000227643
0.000190867
0.000159926
0.000134838
0.000115218
0.000100499
9.00871e-05
8.34559e-05
8.01802e-05
7.99412e-05
8.25091e-05
8.77123e-05
9.54119e-05
0.000105476
0.000117822
0.000132196
0.000148361
0.000166104
0.000185243
0.000205651
0.000227258
0.000250066
0.000274142
0.000299625
0.00032673
0.000355727
0.000387004
0.000420786
0.000458049
0.000496689
0.000544506
0.000584321
1.9513e-05
1.14079e-05
7.72126e-06
5.86168e-06
4.97942e-06
4.78255e-06
5.20148e-06
6.26313e-06
8.09956e-06
1.09459e-05
1.52286e-05
2.20631e-05
3.43594e-05
5.71103e-05
9.64117e-05
0.000154704
0.000216591
0.000269285
0.000320192
0.000415096
0.000662569
0.00116425
0.00166554
0.00189035
0.00190688
0.00185901
0.00181795
0.00178236
0.00172005
0.00161311
0.00146587
0.00128293
0.00107967
0.000877721
0.000695125
0.000547837
0.000465909
0.000463834
0.000507439
0.000550453
0.000565953
0.00055084
0.00051488
0.000471889
0.000422931
0.000370489
0.000317648
0.000267347
0.000221862
0.000182532
0.000149787
0.000123381
0.000102685
8.69269e-05
7.53496e-05
6.72975e-05
6.22496e-05
5.98224e-05
5.97537e-05
6.18774e-05
6.60929e-05
7.23378e-05
8.05693e-05
9.07474e-05
0.00010272
0.000116349
0.000131496
0.000148045
0.000165912
0.000185065
0.000205526
0.00022738
0.000250784
0.000275948
0.000303195
0.000332736
0.00036542
0.000399603
0.000441794
0.000478091
1.94605e-05
1.1247e-05
7.4382e-06
5.45913e-06
4.41647e-06
3.93486e-06
3.8536e-06
4.12749e-06
4.79402e-06
5.9625e-06
7.82931e-06
1.07975e-05
1.58062e-05
2.45754e-05
3.92586e-05
6.05601e-05
8.35445e-05
0.000103903
0.000124208
0.000160705
0.000259754
0.000510251
0.000919504
0.0013018
0.00152105
0.00160185
0.00160782
0.00157227
0.00149177
0.00136416
0.00119711
0.00100556
0.000811534
0.000634019
0.000483721
0.000388248
0.000396431
0.000494752
0.000618332
0.000705084
0.0007253
0.000687923
0.000628564
0.000559839
0.000486501
0.000413717
0.00034513
0.000283258
0.000229583
0.000184599
0.000147993
0.000118925
9.63228e-05
7.90915e-05
6.62429e-05
5.69531e-05
5.05768e-05
4.66365e-05
4.48025e-05
4.48679e-05
4.67216e-05
5.03199e-05
5.56666e-05
6.27849e-05
7.16314e-05
8.21347e-05
9.42003e-05
0.000107727
0.000122625
0.000138836
0.000156346
0.000175194
0.000195485
0.000217381
0.000241151
0.000266992
0.000295655
0.000325861
0.000363124
0.000396053
1.93902e-05
1.10309e-05
7.07486e-06
5.00544e-06
3.9164e-06
3.38001e-06
3.17577e-06
3.1981e-06
3.41492e-06
3.85145e-06
4.589e-06
5.79003e-06
7.78218e-06
1.11526e-05
1.6657e-05
2.45834e-05
3.34024e-05
4.17801e-05
5.07094e-05
6.60188e-05
0.00010619
0.000215229
0.000435315
0.000724421
0.000979275
0.0011408
0.00121099
0.00120949
0.0011382
0.00101595
0.000861743
0.000698599
0.000546011
0.000412479
0.000312005
0.000306631
0.000435781
0.000652066
0.000867055
0.000998027
0.00100894
0.000927953
0.000819763
0.000699525
0.000583525
0.000478733
0.000387451
0.000310039
0.000245953
0.000194062
0.000152853
0.000120654
9.58354e-05
7.69413e-05
6.2747e-05
5.22702e-05
4.4753e-05
3.96317e-05
3.65069e-05
3.51158e-05
3.53073e-05
3.70188e-05
4.02519e-05
4.50598e-05
5.14681e-05
5.94703e-05
6.90289e-05
8.00805e-05
9.25506e-05
0.000106373
0.00012151
0.000137964
0.000155799
0.000175131
0.000196182
0.000219132
0.000244655
0.000271732
0.000305187
0.000335388
1.93094e-05
1.07815e-05
6.66452e-06
4.51493e-06
3.41136e-06
2.88199e-06
2.67185e-06
2.64577e-06
2.73512e-06
2.91641e-06
3.20643e-06
3.66518e-06
4.41142e-06
5.64501e-06
7.62227e-06
1.04725e-05
1.3776e-05
1.71868e-05
2.11608e-05
2.79429e-05
4.50801e-05
9.26366e-05
0.000199
0.000363837
0.000542662
0.000684987
0.000764643
0.000776147
0.000724535
0.000637311
0.000532321
0.000425732
0.000326246
0.000240125
0.000212054
0.000321559
0.000584798
0.000934069
0.00124785
0.00141716
0.00140295
0.00125827
0.00106266
0.00086464
0.000691762
0.000548639
0.000432413
0.000339052
0.000264859
0.000206552
0.000161199
0.000126224
9.94401e-05
7.90549e-05
6.36449e-05
5.21069e-05
4.36034e-05
3.75118e-05
3.33818e-05
3.09018e-05
2.98739e-05
3.0193e-05
3.18302e-05
3.48175e-05
3.92094e-05
4.50415e-05
5.2333e-05
6.10761e-05
7.12391e-05
8.27787e-05
9.56578e-05
0.000109864
0.000125426
0.000142426
0.000161039
0.000181421
0.000204179
0.000228501
0.000258655
0.00028616
1.92286e-05
1.05315e-05
6.26305e-06
4.05161e-06
2.94741e-06
2.434e-06
2.23604e-06
2.21027e-06
2.2767e-06
2.38977e-06
2.53292e-06
2.71932e-06
2.99163e-06
3.42017e-06
4.09011e-06
5.05196e-06
6.20376e-06
7.4818e-06
9.10595e-06
1.19805e-05
1.92187e-05
3.98933e-05
8.97781e-05
0.000176115
0.000280969
0.000373106
0.000428147
0.000434723
0.000404439
0.000356082
0.000297636
0.000235577
0.000174667
0.000137623
0.000196298
0.000422804
0.000831188
0.00131316
0.00170002
0.00187251
0.00181062
0.00158729
0.00128572
0.00100802
0.00078268
0.000606492
0.000469714
0.00036371
0.000281804
0.000218778
0.000170463
0.000133524
0.000105325
8.38219e-05
6.7452e-05
5.50382e-05
4.57015e-05
3.87913e-05
3.38325e-05
3.0486e-05
2.85207e-05
2.77938e-05
2.82356e-05
2.98375e-05
3.26382e-05
3.66798e-05
4.2008e-05
4.86575e-05
5.66443e-05
6.59678e-05
7.66198e-05
8.85989e-05
0.000101929
0.00011667
0.000132964
0.000150948
0.000171163
0.000192969
0.000220179
0.000245622
1.91574e-05
1.03107e-05
5.9166e-06
3.66524e-06
2.5688e-06
2.06814e-06
1.8747e-06
1.8467e-06
1.90634e-06
2.00308e-06
2.10562e-06
2.20446e-06
2.31164e-06
2.45441e-06
2.66468e-06
2.96275e-06
3.32798e-06
3.75889e-06
4.35537e-06
5.47496e-06
8.35528e-06
1.69405e-05
3.91432e-05
8.14227e-05
0.000138107
0.000191847
0.00022533
0.000229828
0.000214846
0.000188655
0.000154948
0.000117848
8.67178e-05
0.00010564
0.000245253
0.000593327
0.00114386
0.00171039
0.00209643
0.00221504
0.00208434
0.00177985
0.00141229
0.00108997
0.000836098
0.000641702
0.000493427
0.000380381
0.000294294
0.00022881
0.000179003
0.000141067
0.000112098
8.99116e-05
7.28806e-05
5.98013e-05
4.97869e-05
4.2185e-05
3.65173e-05
3.24366e-05
2.96963e-05
2.81299e-05
2.76366e-05
2.81712e-05
2.97363e-05
3.23595e-05
3.60818e-05
4.09498e-05
4.70065e-05
5.42858e-05
6.28141e-05
7.26175e-05
8.37343e-05
9.62264e-05
0.000110219
0.000125839
0.00014357
0.000162919
0.000187277
0.000210704
1.91018e-05
1.01366e-05
5.64831e-06
3.3745e-06
2.2889e-06
1.79671e-06
1.60034e-06
1.56133e-06
1.60793e-06
1.69268e-06
1.78068e-06
1.85217e-06
1.90496e-06
1.95005e-06
2.00285e-06
2.07463e-06
2.16601e-06
2.2847e-06
2.47444e-06
2.87316e-06
3.94711e-06
7.29601e-06
1.65767e-05
3.55963e-05
6.31884e-05
9.11296e-05
0.00010904
0.000110814
0.000102794
8.8465e-05
7.02302e-05
5.1236e-05
5.34782e-05
0.000123011
0.000340908
0.000812471
0.00145981
0.00202002
0.00233023
0.0023606
0.00216368
0.00181287
0.00143066
0.00110508
0.000849356
0.00065272
0.000502496
0.000388213
0.00030153
0.000235835
0.000185962
0.00014795
0.000118823
9.63713e-05
7.89724e-05
6.54403e-05
5.49083e-05
4.67415e-05
4.04739e-05
3.57635e-05
3.23616e-05
3.00917e-05
2.88351e-05
2.85213e-05
2.91217e-05
3.06426e-05
3.31082e-05
3.65584e-05
4.10415e-05
4.66091e-05
5.3313e-05
6.12059e-05
7.03485e-05
8.08149e-05
9.27256e-05
0.0001062
0.000121658
0.000138717
0.000160334
0.000181754
1.9063e-05
1.0013e-05
5.45965e-06
3.17391e-06
2.09792e-06
1.61064e-06
1.40841e-06
1.35525e-06
1.38445e-06
1.45334e-06
1.52852e-06
1.5869e-06
1.61964e-06
1.6304e-06
1.62857e-06
1.62269e-06
1.6195e-06
1.62672e-06
1.66439e-06
1.78641e-06
2.16283e-06
3.39084e-06
7.02771e-06
1.49886e-05
2.71413e-05
3.98528e-05
4.77874e-05
4.76986e-05
4.34487e-05
3.6567e-05
2.79832e-05
2.56832e-05
5.86184e-05
0.000173011
0.000472177
0.00104436
0.00170207
0.00217627
0.00237388
0.00231322
0.00207062
0.00171835
0.00136664
0.00106887
0.00083063
0.00064365
0.000498931
0.000388115
0.000303803
0.00023977
0.000191026
0.000153719
0.000124956
0.000102603
8.51029e-05
7.13209e-05
6.0432e-05
5.18326e-05
4.50789e-05
3.98429e-05
3.58823e-05
3.30201e-05
3.11307e-05
3.01313e-05
2.99764e-05
3.06573e-05
3.2195e-05
3.46291e-05
3.80186e-05
4.24356e-05
4.7958e-05
5.46649e-05
6.26336e-05
7.19391e-05
8.26776e-05
9.49253e-05
0.000108997
0.00012451
0.000143956
0.000163539
1.90388e-05
9.93361e-06
5.33842e-06
3.04606e-06
1.97657e-06
1.49154e-06
1.2834e-06
1.21752e-06
1.23029e-06
1.28278e-06
1.34427e-06
1.39155e-06
1.4131e-06
1.40911e-06
1.3863e-06
1.35223e-06
1.31544e-06
1.2827e-06
1.26427e-06
1.28244e-06
1.39956e-06
1.82606e-06
3.15553e-06
6.26366e-06
1.12225e-05
1.6466e-05
1.95466e-05
1.90762e-05
1.71681e-05
1.42295e-05
1.19445e-05
2.63053e-05
8.66261e-05
0.000248844
0.000625083
0.00123922
0.00181958
0.00217212
0.00224896
0.002112
0.00185532
0.00155445
0.0012643
0.00100309
0.000791076
0.000620367
0.000485877
0.000381744
0.000301929
0.000240949
0.000194247
0.000158256
0.000130286
0.000108346
9.09854e-05
7.71487e-05
6.60675e-05
5.71799e-05
5.00719e-05
4.44374e-05
4.00495e-05
3.67429e-05
3.44022e-05
3.2957e-05
3.23823e-05
3.27074e-05
3.40428e-05
3.64965e-05
4.01865e-05
4.52249e-05
5.16937e-05
5.96298e-05
6.90228e-05
7.98249e-05
9.19854e-05
0.000105422
0.000120255
0.000135935
0.000154615
0.000172085
1.90253e-05
9.88698e-06
5.26691e-06
2.97068e-06
1.90473e-06
1.42027e-06
1.20737e-06
1.13193e-06
1.13198e-06
1.1709e-06
1.22012e-06
1.25735e-06
1.27028e-06
1.25756e-06
1.22471e-06
1.17888e-06
1.12914e-06
1.08145e-06
1.0418e-06
1.02023e-06
1.04037e-06
1.17499e-06
1.62953e-06
2.74773e-06
4.61604e-06
6.61067e-06
7.70324e-06
7.42022e-06
6.64724e-06
5.65063e-06
1.04792e-05
4.1487e-05
0.000134169
0.000347678
0.000776544
0.00135157
0.00180465
0.0020353
0.00200017
0.00181485
0.00160232
0.00138076
0.0011552
0.000936539
0.000742142
0.000588374
0.000466486
0.00037093
0.00029698
0.000240018
0.000196053
0.000161905
0.00013515
0.000113992
9.71142e-05
8.35638e-05
7.26512e-05
6.38812e-05
5.69032e-05
5.14779e-05
4.74566e-05
4.47692e-05
4.34163e-05
4.34645e-05
4.50376e-05
4.83016e-05
5.34745e-05
6.07115e-05
6.9862e-05
8.06752e-05
9.28415e-05
0.000106039
0.000119965
0.00013436
0.00014903
0.0001638
0.000178747
0.000193267
0.000209229
0.000220929
1.90187e-05
9.86153e-06
5.22789e-06
2.92948e-06
1.86518e-06
1.38058e-06
1.16434e-06
1.08256e-06
1.07402e-06
1.10331e-06
1.14327e-06
1.17248e-06
1.17863e-06
1.15978e-06
1.12096e-06
1.06921e-06
1.01374e-06
9.59909e-07
9.11626e-07
8.73882e-07
8.56113e-07
8.83577e-07
1.02371e-06
1.39157e-06
2.02748e-06
2.71104e-06
3.05173e-06
2.91576e-06
2.68277e-06
3.91073e-06
1.73574e-05
7.09209e-05
0.000203617
0.000463351
0.000895081
0.00135938
0.00168121
0.00180733
0.00169872
0.00153371
0.00137451
0.00121619
0.00104362
0.000864378
0.000695272
0.000552181
0.000443742
0.000357802
0.000290696
0.000238685
0.000198421
0.000167191
0.000142924
0.000124099
0.000109628
9.87623e-05
9.10051e-05
8.60472e-05
8.3712e-05
8.39059e-05
8.65697e-05
9.16291e-05
9.89522e-05
0.000108318
0.000119402
0.000131778
0.000144879
0.000158266
0.000171648
0.000184676
0.000197116
0.000208828
0.000219756
0.000229903
0.000239343
0.000248134
0.000256604
0.000264307
0.000272936
0.000276517
1.90158e-05
9.84799e-06
5.20767e-06
2.90834e-06
1.84486e-06
1.36002e-06
1.14178e-06
1.05626e-06
1.04255e-06
1.06583e-06
1.09969e-06
1.12334e-06
1.12463e-06
1.10149e-06
1.05883e-06
1.00367e-06
9.45282e-07
8.88603e-07
8.36412e-07
7.91427e-07
7.57683e-07
7.44097e-07
7.72157e-07
8.76399e-07
1.06619e-06
1.26676e-06
1.34703e-06
1.30357e-06
1.63608e-06
6.6382e-06
3.37651e-05
0.000119438
0.000297165
0.000580177
0.000950196
0.00126978
0.00148316
0.00153491
0.00142289
0.00129638
0.00118034
0.00106756
0.000936841
0.000791923
0.000647807
0.000518857
0.000421716
0.000346462
0.000287905
0.000243201
0.000209796
0.000185613
0.000169051
0.00015888
0.000154108
0.000153879
0.000157396
0.000163895
0.000172647
0.000182976
0.000194278
0.000206032
0.00021781
0.00022927
0.000240152
0.000250258
0.000259431
0.000267467
0.000274369
0.000280267
0.000285241
0.000289374
0.000292751
0.000295458
0.000297616
0.000299298
0.000300879
0.00030191
0.000304099
0.000302527
1.90149e-05
9.84025e-06
5.1971e-06
2.89774e-06
1.83486e-06
1.35001e-06
1.13079e-06
1.04334e-06
1.02689e-06
1.04683e-06
1.07715e-06
1.09739e-06
1.09558e-06
1.06969e-06
1.02463e-06
9.67451e-07
9.07486e-07
8.49371e-07
7.95255e-07
7.46753e-07
7.05725e-07
6.75419e-07
6.62466e-07
6.76247e-07
7.16685e-07
7.57769e-07
7.63155e-07
8.80731e-07
2.90405e-06
1.58528e-05
6.59911e-05
0.000193697
0.000409987
0.000671644
0.000925731
0.00110987
0.0012386
0.00125934
0.00119121
0.00110344
0.00102032
0.000939651
0.000840888
0.000724916
0.000604387
0.000493387
0.000407698
0.000345722
0.00029942
0.000266759
0.000245706
0.000234271
0.000230506
0.00023251
0.000238505
0.00024694
0.000256582
0.000266528
0.000276183
0.000285186
0.000293344
0.00030057
0.000306835
0.000312138
0.000316489
0.000319897
0.000322363
0.000323868
0.000324376
0.000323922
0.000322607
0.000320535
0.000317815
0.00031455
0.000310881
0.0003069
0.000302992
0.00029873
0.00029584
0.000291271
1.90149e-05
9.83548e-06
5.19163e-06
2.89272e-06
1.83038e-06
1.34566e-06
1.12609e-06
1.03782e-06
1.0201e-06
1.03843e-06
1.06694e-06
1.08535e-06
1.08187e-06
1.05465e-06
1.00883e-06
9.51912e-07
8.93823e-07
8.39725e-07
7.91718e-07
7.49922e-07
7.1307e-07
6.80415e-07
6.53566e-07
6.35823e-07
6.27546e-07
6.22866e-07
6.62771e-07
1.98847e-06
1.01414e-05
4.02157e-05
0.000124615
0.000296679
0.000522471
0.000708646
0.000827678
0.000912243
0.000967056
0.00100015
0.000992588
0.000946292
0.00089153
0.000834664
0.000760916
0.000669983
0.000572503
0.0004821
0.000411006
0.000364533
0.000332748
0.000313328
0.00030381
0.000301584
0.000304182
0.000309515
0.000315991
0.000322522
0.000328446
0.000333408
0.00033726
0.000339977
0.000341598
0.000342191
0.000341832
0.000340596
0.000338549
0.000335745
0.000332227
0.000328026
0.000323159
0.000317623
0.000311451
0.000304749
0.000297622
0.000290168
0.000282513
0.000274752
0.000267207
0.000259537
0.000253111
0.000247016
1.90185e-05
9.83994e-06
5.19886e-06
2.89975e-06
1.83646e-06
1.35116e-06
1.13145e-06
1.0435e-06
1.02684e-06
1.04792e-06
1.08336e-06
1.11855e-06
1.15396e-06
1.21308e-06
1.35155e-06
1.66921e-06
2.26692e-06
3.19498e-06
4.37158e-06
5.53417e-06
6.36055e-06
6.68805e-06
6.60389e-06
6.34752e-06
6.18712e-06
6.42853e-06
8.00017e-06
1.67442e-05
4.13068e-05
9.83827e-05
0.000219625
0.000415907
0.000600583
0.000674203
0.000680901
0.000706021
0.000689191
0.000748378
0.000803198
0.000806678
0.000783281
0.000748225
0.000696698
0.000629077
0.000554373
0.000484708
0.000429644
0.00039532
0.000373171
0.000359886
0.00035294
0.000350003
0.000349196
0.000349175
0.000349082
0.00034843
0.00034699
0.000344689
0.000341541
0.000337607
0.000332962
0.000327689
0.000321863
0.000315552
0.000308814
0.000301699
0.000294242
0.000286472
0.000278398
0.000270018
0.000261309
0.000252358
0.000243247
0.000234049
0.000224851
0.000215734
0.000206895
0.000198098
0.000190119
0.000183458
1.90497e-05
9.91948e-06
5.30853e-06
3.00753e-06
1.93938e-06
1.46472e-06
1.28583e-06
1.30531e-06
1.55748e-06
2.2086e-06
3.52314e-06
5.73764e-06
9.09307e-06
1.39836e-05
2.09556e-05
3.06052e-05
4.26161e-05
5.59778e-05
6.87352e-05
7.83557e-05
8.30236e-05
8.27417e-05
7.9258e-05
7.50531e-05
7.25367e-05
7.42271e-05
8.36439e-05
0.000101949
0.000135182
0.000205345
0.000340049
0.000515127
0.000610762
0.000572259
0.000518245
0.000517159
0.000437448
0.000496907
0.000592717
0.000651841
0.00066962
0.000660459
0.000632288
0.000587781
0.000534482
0.000482324
0.00043813
0.000408094
0.000386801
0.000370782
0.000358317
0.000348021
0.000338918
0.000330406
0.000322152
0.000313988
0.000305839
0.000297677
0.000289492
0.000281286
0.000273068
0.000264848
0.000256637
0.000248445
0.00024028
0.000232144
0.000224033
0.000215933
0.00020782
0.000199649
0.000191412
0.000183165
0.000174954
0.000166813
0.000158788
0.000150936
0.000143321
0.00013578
0.000128586
0.000122209
1.9278e-05
1.05629e-05
6.37747e-06
4.50516e-06
4.23331e-06
5.54705e-06
8.95704e-06
1.48537e-05
2.32653e-05
3.42238e-05
4.7694e-05
6.34478e-05
8.11602e-05
0.000100548
0.000121398
0.000143371
0.000164648
0.000183442
0.000197819
0.000206093
0.000207656
0.000203467
0.000195947
0.000188268
0.000183772
0.000186435
0.000197811
0.00021103
0.000241448
0.00031546
0.000438134
0.000548546
0.000537195
0.000424272
0.000367423
0.000367449
0.000259803
0.000271054
0.000349648
0.000437155
0.000500421
0.000525314
0.0005254
0.000506502
0.000474398
0.000436579
0.00039762
0.000364715
0.000338613
0.000315781
0.000295635
0.000277818
0.000262088
0.000248236
0.000236035
0.000225238
0.000215597
0.000206881
0.000198899
0.000191496
0.000184553
0.00017798
0.000171711
0.000165695
0.000159889
0.000154257
0.00014876
0.000143355
0.000137991
0.000132619
0.000127277
0.000121988
0.000116769
0.000111636
0.000106606
0.00010172
9.69537e-05
9.21506e-05
8.73046e-05
8.2328e-05
2.36945e-05
2.05682e-05
2.30635e-05
2.88382e-05
3.75935e-05
4.94828e-05
6.44449e-05
8.16176e-05
9.9488e-05
0.000116548
0.000131882
0.000145324
0.000157266
0.000168351
0.000179202
0.000190202
0.000200742
0.000210169
0.000217608
0.0002221
0.000223066
0.000220713
0.000216177
0.000211452
0.000208763
0.00021043
0.000221008
0.000245892
0.00030079
0.000385245
0.000466023
0.000480688
0.000384611
0.000259669
0.000237894
0.000237947
0.00016879
0.000139126
0.000147412
0.000182734
0.000234981
0.000277661
0.000304284
0.000316656
0.000313911
0.000297839
0.0002676
0.000231705
0.000204895
0.000182444
0.00016434
0.000150213
0.000139422
0.000131236
0.000124979
0.000120093
0.000116151
0.000112848
0.000109976
0.00010739
0.000104997
0.000102734
0.000100561
9.8449e-05
9.63777e-05
9.43338e-05
9.23116e-05
9.03062e-05
8.82852e-05
8.62299e-05
8.41483e-05
8.20417e-05
7.99152e-05
7.77726e-05
7.56281e-05
7.34676e-05
7.12868e-05
6.89286e-05
6.6462e-05
6.4339e-05
8.2127e-05
7.88587e-05
7.64592e-05
7.50813e-05
7.45494e-05
7.4789e-05
7.57489e-05
7.73903e-05
7.9628e-05
8.23102e-05
8.52588e-05
8.83219e-05
9.13975e-05
9.44227e-05
9.73471e-05
0.000100107
0.000102587
0.000104699
0.000106532
0.000108317
0.000110362
0.000112963
0.000116314
0.000120446
0.000125102
0.000130048
0.000134871
0.000137005
0.000135919
0.000133874
0.000133672
0.000129961
0.000108472
6.7082e-05
5.82305e-05
5.7082e-05
4.47824e-05
5.09911e-05
6.873e-05
7.76354e-05
7.95474e-05
7.6656e-05
7.1856e-05
6.60024e-05
5.93496e-05
5.18771e-05
4.1711e-05
3.51745e-05
3.7176e-05
3.96542e-05
4.23248e-05
4.49442e-05
4.73394e-05
4.94176e-05
5.11529e-05
5.25636e-05
5.36901e-05
5.45802e-05
5.52786e-05
5.5824e-05
5.6247e-05
5.65714e-05
5.6815e-05
5.69914e-05
5.7111e-05
5.71831e-05
5.72152e-05
5.72129e-05
5.71738e-05
5.70989e-05
5.69998e-05
5.68843e-05
5.67576e-05
5.66276e-05
5.64924e-05
5.63865e-05
5.62437e-05
5.62739e-05
5.59184e-05
5.66026e-05
)
;

boundaryField
{
    inlet
    {
        type            fixedValue;
        value           uniform 0;
    }
    outlet
    {
        type            zeroGradient;
    }
    fixedWalls
    {
        type            nutkWallFunction;
        Cmu             0.09;
        kappa           0.41;
        E               9.8;
        value           nonuniform List<scalar> 
160
(
9.29708e-06
8.85667e-06
8.53235e-06
8.34492e-06
8.27116e-06
8.30239e-06
8.4322e-06
8.6549e-06
8.95798e-06
9.31989e-06
9.71576e-06
1.01245e-05
1.0532e-05
1.09295e-05
1.13108e-05
1.16692e-05
1.19946e-05
1.22829e-05
1.2553e-05
1.28391e-05
1.31786e-05
1.36003e-05
1.41145e-05
1.47053e-05
1.53284e-05
1.5933e-05
1.63555e-05
1.64176e-05
1.6192e-05
1.58855e-05
1.53124e-05
1.34973e-05
9.83982e-06
6.47614e-06
5.67643e-06
5.22238e-06
4.73671e-06
6.57366e-06
8.09464e-06
8.55329e-06
8.32328e-06
7.70134e-06
6.9007e-06
5.99637e-06
5.04525e-06
4.11926e-06
3.36003e-06
3.301e-06
3.62694e-06
3.97737e-06
4.32014e-06
4.63327e-06
4.90508e-06
5.13242e-06
5.31771e-06
5.46611e-06
5.58364e-06
5.67596e-06
5.74789e-06
5.8033e-06
5.8452e-06
5.87588e-06
5.89712e-06
5.9103e-06
5.91657e-06
5.91686e-06
5.91189e-06
5.90219e-06
5.88815e-06
5.87071e-06
5.85095e-06
5.82969e-06
5.80751e-06
5.78543e-06
5.76314e-06
5.74548e-06
5.72299e-06
5.72574e-06
5.67356e-06
5.7697e-06
0.000184712
0.000185408
0.000179086
0.000161454
0.000112633
6.12276e-05
6.19364e-05
6.96033e-05
7.72294e-05
6.98463e-05
6.86153e-05
7.23548e-05
7.92691e-05
8.78036e-05
9.85641e-05
0.00011039
0.000119751
0.000121958
0.000116291
0.000107307
0.000101525
0.000102889
0.000112631
0.00012837
0.000138227
0.000145117
0.00015028
0.000154335
0.000157682
0.000160599
0.000163312
0.000164975
0.000164601
0.000162431
0.000158713
0.000153535
0.000146944
0.000139096
0.000130692
0.000121979
0.000113468
0.000107275
0.000102226
9.84024e-05
9.58368e-05
9.44278e-05
9.39658e-05
9.41861e-05
9.48225e-05
9.56443e-05
9.64742e-05
9.71903e-05
9.77196e-05
9.8026e-05
9.81e-05
9.79495e-05
9.75912e-05
9.70457e-05
9.63348e-05
9.54801e-05
9.4501e-05
9.34148e-05
9.22363e-05
9.09783e-05
8.96514e-05
8.82645e-05
8.68247e-05
8.53377e-05
8.38079e-05
8.22389e-05
8.0633e-05
7.89921e-05
7.73175e-05
7.56096e-05
7.38684e-05
7.20932e-05
7.02816e-05
6.84304e-05
6.65271e-05
6.45519e-05
)
;
    }
    frontAndBack
    {
        type            empty;
    }
}


// ************************************************************************* //
