/*--------------------------------*- C++ -*----------------------------------*\
| =========                 |                                                 |
| \\      /  F ield         | OpenFOAM: The Open Source CFD Toolbox           |
|  \\    /   O peration     | Version:  v1912                                 |
|   \\  /    A nd           | Website:  www.openfoam.com                      |
|    \\/     M anipulation  |                                                 |
\*---------------------------------------------------------------------------*/
FoamFile
{
    version     2.0;
    format      ascii;
    class       volScalarField;
    location    "25";
    object      p;
}
// * * * * * * * * * * * * * * * * * * * * * * * * * * * * * * * * * * * * * //

dimensions      [0 2 -2 0 0 0 0];


internalField   nonuniform List<scalar> 
2000
(
0.0376046
0.154307
0.210611
0.206726
0.193503
0.188275
0.187792
0.188648
0.188563
0.188542
0.188413
0.187835
0.186857
0.18571
0.184894
0.185247
0.186257
0.185511
0.183006
0.180874
0.181151
0.178846
0.172345
0.155846
0.12318
0.0730398
0.0134043
-0.0428409
-0.0833852
-0.100052
-0.0907943
-0.0572215
-0.00375003
0.0623655
0.133863
0.203794
0.266334
0.317824
0.356942
0.384297
0.401525
0.411022
0.414577
0.414353
0.411919
0.408305
0.404172
0.399902
0.395684
0.391595
0.387643
0.383801
0.380025
0.376264
0.372463
0.368563
0.36452
0.360293
0.355841
0.351113
0.346057
0.340619
0.334744
0.328365
0.32141
0.313797
0.305433
0.296212
0.286008
0.274678
0.26205
0.247922
0.232046
0.214126
0.193767
0.170534
0.143574
0.112632
0.0739803
0.0345371
0.0955852
0.180011
0.218086
0.205394
0.189144
0.186549
0.190665
0.191679
0.188516
0.187022
0.187992
0.188846
0.187887
0.185408
0.182288
0.180264
0.179632
0.18018
0.179955
0.178582
0.177869
0.181928
0.179258
0.157235
0.101549
0.0152841
-0.0782942
-0.153517
-0.195436
-0.200918
-0.176995
-0.129345
-0.0654517
0.00933697
0.0893224
0.16773
0.238143
0.296413
0.341107
0.372494
0.392306
0.403219
0.407783
0.408238
0.406282
0.403056
0.399266
0.395307
0.391368
0.387513
0.383739
0.380013
0.376304
0.372587
0.368819
0.364895
0.360796
0.35649
0.351946
0.347076
0.341826
0.336159
0.330011
0.323315
0.315998
0.307976
0.299153
0.289417
0.278639
0.266668
0.253327
0.238407
0.221655
0.202772
0.181374
0.157051
0.129065
0.0973648
0.0592528
0.0243481
0.143199
0.176657
0.199445
0.198911
0.191478
0.189142
0.190233
0.189774
0.188597
0.189679
0.191736
0.190745
0.187879
0.184087
0.177815
0.169189
0.164948
0.168768
0.179186
0.189781
0.197006
0.203819
0.194019
0.147726
0.056952
-0.0556809
-0.156407
-0.225136
-0.257994
-0.258324
-0.22978
-0.178165
-0.110563
-0.0330257
0.0496614
0.131685
0.206799
0.269667
0.318031
0.352309
0.374564
0.387549
0.393978
0.396165
0.395851
0.39418
0.391833
0.389179
0.386392
0.383547
0.380647
0.37762
0.374512
0.371247
0.36776
0.364087
0.360167
0.355954
0.351399
0.346526
0.341202
0.335471
0.329246
0.322458
0.315039
0.306905
0.297958
0.288088
0.277166
0.26504
0.251535
0.236442
0.219514
0.200463
0.178928
0.154547
0.126681
0.0954541
0.0583977
0.0248687
0.164945
0.175153
0.188639
0.194459
0.193851
0.192662
0.192213
0.191363
0.190535
0.190521
0.190685
0.190666
0.19009
0.185215
0.175034
0.161307
0.153218
0.159193
0.179324
0.208023
0.23356
0.240069
0.22176
0.155614
0.044618
-0.0791411
-0.181609
-0.24813
-0.27903
-0.278725
-0.249658
-0.197446
-0.130295
-0.0543159
0.026547
0.107242
0.181157
0.242992
0.290824
0.325445
0.348971
0.363989
0.373007
0.378091
0.380713
0.381798
0.381894
0.381318
0.380201
0.378686
0.376815
0.37467
0.372164
0.369321
0.366164
0.362702
0.358913
0.354778
0.350267
0.345338
0.340033
0.334265
0.327941
0.321033
0.313473
0.305178
0.296053
0.285989
0.274857
0.262506
0.248762
0.233418
0.216233
0.196929
0.175164
0.150613
0.122707
0.0916628
0.0552676
0.0229214
0.17495
0.179258
0.188383
0.194563
0.195614
0.195019
0.194879
0.194744
0.194065
0.193099
0.192113
0.191363
0.189727
0.184461
0.174965
0.162632
0.153793
0.158495
0.183233
0.221377
0.2555
0.268884
0.248187
0.176751
0.0619702
-0.0637178
-0.167233
-0.234089
-0.265099
-0.264766
-0.236102
-0.185784
-0.122408
-0.0514428
0.0235041
0.0971433
0.163224
0.217825
0.260363
0.292246
0.315594
0.332657
0.345354
0.354979
0.362251
0.367577
0.37124
0.373494
0.374621
0.374764
0.374119
0.372827
0.370962
0.368599
0.365796
0.362579
0.358959
0.354931
0.350486
0.345604
0.340289
0.33443
0.328023
0.32104
0.313393
0.305004
0.29578
0.285612
0.274372
0.261913
0.248059
0.232609
0.215323
0.195931
0.174104
0.149537
0.121694
0.0908453
0.0548364
0.022879
0.181028
0.183889
0.190161
0.195215
0.196839
0.196932
0.1972
0.197463
0.197146
0.196355
0.195338
0.193859
0.190944
0.185433
0.1772
0.167571
0.161629
0.168761
0.192296
0.227642
0.263956
0.281519
0.260372
0.19197
0.0867786
-0.0289243
-0.126507
-0.191077
-0.221563
-0.22108
-0.19451
-0.149421
-0.0929582
-0.0296371
0.0360293
0.0979343
0.150976
0.19347
0.226561
0.252585
0.274107
0.293267
0.311097
0.327363
0.341377
0.352538
0.360784
0.366436
0.369949
0.37176
0.372256
0.371735
0.370405
0.368409
0.36585
0.362788
0.359259
0.35528
0.35085
0.345961
0.340595
0.334697
0.328282
0.321246
0.313534
0.305074
0.295774
0.285527
0.274206
0.261664
0.247729
0.232199
0.214838
0.195378
0.173492
0.148883
0.121024
0.0902008
0.0542921
0.0224976
0.185207
0.18739
0.191871
0.195987
0.197966
0.198642
0.199189
0.199643
0.199629
0.199144
0.198272
0.196747
0.193976
0.18934
0.18284
0.175931
0.173088
0.180689
0.2012
0.231571
0.261073
0.273208
0.253364
0.192725
0.101757
0.00319423
-0.0809185
-0.137692
-0.163939
-0.164346
-0.141212
-0.101789
-0.0516913
0.00401193
0.0588028
0.106325
0.143371
0.170323
0.190054
0.206708
0.224471
0.245938
0.270792
0.296301
0.319255
0.33763
0.351201
0.360559
0.366533
0.369938
0.371451
0.371571
0.370643
0.3689
0.366496
0.363528
0.360054
0.356104
0.351686
0.346796
0.341415
0.335508
0.329047
0.321972
0.314221
0.305719
0.296377
0.286088
0.274728
0.262151
0.248184
0.232627
0.215244
0.195764
0.173861
0.149231
0.12134
0.0904693
0.054483
0.0225877
0.18817
0.189987
0.193576
0.197179
0.199333
0.200335
0.201033
0.201592
0.201764
0.201474
0.200741
0.199416
0.197171
0.193672
0.189087
0.184789
0.184149
0.191265
0.207666
0.230245
0.250645
0.256271
0.235555
0.183486
0.107507
0.0258216
-0.043656
-0.0905414
-0.112238
-0.110903
-0.0888524
-0.051531
-0.00483696
0.0440329
0.0874238
0.120189
0.140484
0.149602
0.152442
0.156459
0.168875
0.193185
0.226892
0.263838
0.29726
0.323755
0.343045
0.356147
0.364441
0.369233
0.371551
0.372123
0.37144
0.369823
0.367478
0.364532
0.361059
0.357097
0.352662
0.34775
0.342345
0.336417
0.329928
0.322835
0.315063
0.306542
0.297182
0.286878
0.275507
0.262923
0.248954
0.2334
0.216024
0.196553
0.174652
0.150007
0.122061
0.0910778
0.0548714
0.0227257
0.190343
0.192012
0.195221
0.19856
0.20078
0.201974
0.202797
0.203438
0.203716
0.20354
0.202924
0.201794
0.199962
0.197298
0.194121
0.191648
0.192309
0.198692
0.211305
0.227126
0.239846
0.240483
0.219997
0.174972
0.111515
0.043783
-0.0135578
-0.0515499
-0.0675814
-0.0621444
-0.0376054
0.00036414
0.0442136
0.0856853
0.118358
0.138272
0.142876
0.133445
0.117955
0.108285
0.114892
0.142006
0.184755
0.233559
0.277676
0.312243
0.336969
0.353428
0.363667
0.369527
0.372395
0.373225
0.372644
0.371049
0.368688
0.365711
0.362204
0.35821
0.353748
0.348814
0.343392
0.337452
0.330956
0.323848
0.31607
0.307547
0.298189
0.287891
0.276531
0.263963
0.250018
0.234494
0.217151
0.197714
0.175839
0.151196
0.123196
0.0920724
0.0555558
0.0230447
0.191977
0.193626
0.196718
0.19993
0.202166
0.203494
0.204445
0.205176
0.20554
0.205453
0.204937
0.203955
0.202413
0.20031
0.198037
0.196654
0.197985
0.203668
0.213564
0.224866
0.232447
0.229749
0.210353
0.171712
0.118601
0.0622775
0.015002
-0.0149455
-0.0245826
-0.0139746
0.0133218
0.0506593
0.089975
0.124282
0.149138
0.159708
0.150845
0.124257
0.0924567
0.071196
0.0726404
0.100841
0.150806
0.209618
0.262825
0.304161
0.333304
0.352374
0.364036
0.370604
0.373776
0.374695
0.374098
0.372444
0.370011
0.366965
0.363397
0.359355
0.354855
0.349893
0.344451
0.338499
0.331995
0.324887
0.317114
0.308601
0.299257
0.28898
0.277647
0.265113
0.251207
0.23573
0.21844
0.199057
0.177227
0.152604
0.124559
0.0932904
0.0564078
0.0234649
0.193212
0.194926
0.198062
0.201234
0.203468
0.204893
0.205962
0.20678
0.207221
0.207221
0.206802
0.205953
0.204641
0.202944
0.201273
0.200559
0.202224
0.207318
0.215353
0.223726
0.228083
0.223318
0.204982
0.1716
0.127108
0.0805375
0.0421658
0.0195543
0.0155747
0.0299072
0.0581133
0.0932832
0.128168
0.157956
0.17902
0.183667
0.163722
0.122915
0.0788311
0.049342
0.0467468
0.074714
0.128885
0.194188
0.253594
0.29964
0.331835
0.35266
0.365223
0.372181
0.37546
0.376345
0.375655
0.373891
0.371355
0.368219
0.36458
0.360482
0.355942
0.350953
0.345495
0.339536
0.333032
0.325931
0.318171
0.309675
0.300356
0.290109
0.278812
0.266322
0.252468
0.23705
0.219825
0.20051
0.178742
0.154158
0.126088
0.0946869
0.0574129
0.024009
0.194137
0.195986
0.199279
0.202462
0.20468
0.206178
0.207349
0.208242
0.20875
0.20883
0.208504
0.20778
0.206666
0.205287
0.204054
0.203788
0.205626
0.210231
0.216914
0.223255
0.225491
0.219468
0.201959
0.172369
0.134329
0.095423
0.0643434
0.0476666
0.047864
0.0645442
0.0930404
0.126616
0.15911
0.18751
0.20778
0.208561
0.179609
0.127875
0.075211
0.0401952
0.0347716
0.0618874
0.11797
0.186436
0.249211
0.297979
0.331965
0.353807
0.366855
0.373972
0.377231
0.378014
0.377193
0.375301
0.372651
0.369421
0.365708
0.361556
0.356978
0.351964
0.346493
0.340529
0.334029
0.326939
0.319196
0.310723
0.301433
0.291222
0.279968
0.267527
0.253732
0.238379
0.221227
0.20199
0.180296
0.155769
0.127694
0.0961891
0.0585202
0.0246521
0.194812
0.196866
0.200394
0.203601
0.205791
0.207349
0.20861
0.209568
0.210132
0.21028
0.210038
0.209425
0.20848
0.207355
0.206455
0.20651
0.208443
0.212648
0.218311
0.223174
0.223934
0.217118
0.200262
0.173315
0.139768
0.106323
0.0805706
0.068265
0.0716846
0.0903914
0.119699
0.153003
0.184985
0.213784
0.234439
0.232146
0.196137
0.136426
0.0778731
0.039167
0.0319955
0.0582578
0.114823
0.184164
0.24823
0.298194
0.333024
0.355352
0.368606
0.375744
0.378922
0.379579
0.378623
0.376605
0.373847
0.370531
0.366752
0.362552
0.357941
0.352907
0.347427
0.341463
0.334971
0.327895
0.320173
0.311726
0.302469
0.292296
0.281087
0.2687
0.254964
0.239681
0.222606
0.203451
0.181839
0.157383
0.129326
0.0977512
0.059699
0.0253941
0.195282
0.197617
0.201425
0.204645
0.206799
0.208412
0.209752
0.210764
0.211376
0.211583
0.211414
0.210897
0.210089
0.209166
0.20852
0.208812
0.210801
0.214691
0.219586
0.223361
0.223068
0.215738
0.199423
0.174391
0.144012
0.114406
0.0924559
0.0834333
0.0895556
0.110306
0.140928
0.17486
0.207172
0.236687
0.257473
0.252435
0.211364
0.146196
0.0837607
0.0427039
0.0345486
0.0601156
0.116411
0.185256
0.249261
0.299407
0.334461
0.356944
0.370246
0.37734
0.380422
0.380961
0.379887
0.377761
0.374914
0.371527
0.367693
0.363455
0.358819
0.353771
0.348287
0.342326
0.335844
0.328786
0.321086
0.312667
0.303444
0.29331
0.282147
0.269813
0.256138
0.240924
0.223926
0.204855
0.183329
0.158955
0.130933
0.0993267
0.0609093
0.0262259
0.195582
0.198276
0.202382
0.205593
0.207708
0.209375
0.210782
0.211839
0.212492
0.212751
0.212644
0.212207
0.211513
0.210749
0.2103
0.210768
0.212792
0.216438
0.220758
0.223735
0.222687
0.215021
0.199162
0.175579
0.147534
0.120739
0.101618
0.0951662
0.103608
0.126321
0.158477
0.193469
0.22611
0.255668
0.275606
0.268333
0.224164
0.155717
0.090989
0.048552
0.0397523
0.0647199
0.120492
0.188083
0.251242
0.300978
0.335908
0.358368
0.371643
0.378679
0.381679
0.382125
0.38096
0.378753
0.375838
0.372397
0.368524
0.364258
0.359605
0.35455
0.349066
0.343113
0.336645
0.329604
0.321927
0.313539
0.304349
0.294255
0.283137
0.270853
0.257237
0.242089
0.225165
0.206176
0.184736
0.160448
0.132475
0.100872
0.0621124
0.0271267
0.195742
0.198874
0.203271
0.206443
0.208525
0.210244
0.211709
0.212802
0.21349
0.213794
0.213741
0.213371
0.21277
0.212133
0.211836
0.212438
0.214487
0.217949
0.22184
0.224228
0.222637
0.214752
0.199267
0.176797
0.150515
0.125843
0.108894
0.104485
0.114896
0.139407
0.173231
0.209424
0.241863
0.270249
0.288365
0.279709
0.23418
0.164259
0.098448
0.0552666
0.0460581
0.0705728
0.125116
0.191458
0.253468
0.302514
0.337158
0.359521
0.372748
0.379738
0.382682
0.383066
0.38184
0.379579
0.376617
0.373141
0.369242
0.36496
0.360298
0.355243
0.349763
0.34382
0.337366
0.330346
0.322692
0.314331
0.305174
0.295115
0.284039
0.271803
0.258241
0.243154
0.226299
0.207387
0.18603
0.16183
0.133915
0.102352
0.0632767
0.0280693
0.195786
0.199434
0.204095
0.207201
0.209257
0.211027
0.212539
0.213663
0.214382
0.214724
0.214717
0.214404
0.213879
0.213343
0.213167
0.213873
0.215941
0.219265
0.222836
0.22479
0.222806
0.214776
0.199593
0.177971
0.153022
0.129962
0.114689
0.111907
0.12397
0.150145
0.185766
0.223036
0.254423
0.280354
0.296193
0.28712
0.241577
0.171488
0.105419
0.0619353
0.0524845
0.0765143
0.129728
0.19466
0.255514
0.303812
0.338126
0.36038
0.373567
0.38053
0.383446
0.383799
0.382539
0.380247
0.37726
0.373763
0.36985
0.36556
0.360897
0.355844
0.350372
0.34444
0.338001
0.330999
0.323367
0.315032
0.305904
0.295879
0.284841
0.27265
0.259139
0.24411
0.227321
0.208484
0.187208
0.163098
0.135251
0.103758
0.0644119
0.0290454
0.195737
0.199972
0.204852
0.207872
0.209913
0.211731
0.213281
0.21443
0.215176
0.215552
0.215584
0.215319
0.214856
0.214403
0.214321
0.21511
0.217196
0.220417
0.223751
0.225385
0.223115
0.214991
0.200046
0.179067
0.155118
0.133277
0.119295
0.117808
0.131261
0.159026
0.196487
0.234452
0.263841
0.286458
0.300167
0.291441
0.24676
0.177363
0.111543
0.0679649
0.0582409
0.081819
0.133786
0.19737
0.257165
0.304803
0.338803
0.360964
0.374128
0.381087
0.383999
0.384343
0.383072
0.380768
0.37777
0.374265
0.370348
0.366056
0.361395
0.356349
0.350886
0.344967
0.338544
0.33156
0.323951
0.315641
0.306541
0.296554
0.285555
0.273407
0.259947
0.244975
0.228252
0.209489
0.188293
0.164275
0.136502
0.105101
0.0655404
0.0300504
0.195613
0.2005
0.205541
0.208464
0.210501
0.212363
0.213942
0.215112
0.215882
0.216286
0.216352
0.216127
0.215716
0.215329
0.215324
0.216179
0.218282
0.22143
0.224588
0.225985
0.223508
0.215322
0.200564
0.18007
0.156872
0.13595
0.122961
0.122506
0.137147
0.166445
0.205586
0.243672
0.270346
0.28948
0.301568
0.293568
0.250089
0.182154
0.116656
0.0730515
0.0630468
0.0861824
0.137061
0.199481
0.258374
0.305478
0.339212
0.361308
0.374469
0.381442
0.384368
0.384722
0.383456
0.381155
0.378159
0.374656
0.370742
0.366457
0.361805
0.356769
0.35132
0.345417
0.339013
0.332052
0.324467
0.316185
0.307116
0.297162
0.286203
0.274099
0.260687
0.24577
0.229108
0.210415
0.189296
0.165367
0.137674
0.10638
0.0666634
0.0310674
0.195433
0.201024
0.206162
0.208985
0.211026
0.212926
0.214532
0.215722
0.216513
0.216941
0.217034
0.216842
0.216473
0.21614
0.216197
0.217105
0.219226
0.222323
0.225352
0.226575
0.223948
0.215723
0.201111
0.18098
0.158342
0.13811
0.125885
0.126255
0.141936
0.172628
0.213049
0.250659
0.274396
0.2905
0.301527
0.294265
0.252146
0.185897
0.120744
0.0771247
0.0668435
0.0895703
0.139545
0.201005
0.259175
0.305862
0.339396
0.361455
0.374631
0.381634
0.38459
0.38497
0.383725
0.38144
0.378457
0.374967
0.371065
0.366793
0.362154
0.357133
0.3517
0.345816
0.339432
0.332492
0.324932
0.316676
0.307637
0.297716
0.286793
0.274729
0.261363
0.246497
0.229893
0.211265
0.190219
0.166376
0.138764
0.107583
0.0677693
0.0320787
0.19521
0.201542
0.206714
0.20945
0.211499
0.213424
0.215047
0.216254
0.217066
0.217518
0.217637
0.217474
0.217141
0.216852
0.216958
0.21791
0.220046
0.223107
0.226042
0.227137
0.224402
0.216154
0.201657
0.181801
0.159582
0.139871
0.128233
0.129281
0.14585
0.177637
0.218804
0.255537
0.276615
0.290474
0.300864
0.294098
0.253379
0.188711
0.12387
0.0802361
0.0697024
0.0920734
0.141322
0.20202
0.259632
0.306007
0.339411
0.36146
0.374672
0.38172
0.384721
0.385139
0.383925
0.381665
0.378702
0.375229
0.371343
0.367085
0.36246
0.357455
0.352038
0.346171
0.339806
0.332887
0.32535
0.317119
0.308108
0.298217
0.287328
0.275302
0.261978
0.247159
0.230608
0.212041
0.191062
0.167299
0.139766
0.108698
0.0688387
0.0330679
0.19496
0.202056
0.207186
0.209862
0.211939
0.213888
0.215521
0.216736
0.217559
0.218028
0.218167
0.218029
0.217727
0.217476
0.217625
0.218615
0.220769
0.223806
0.226671
0.227668
0.224848
0.216577
0.202162
0.182507
0.160599
0.141282
0.130102
0.131669
0.148893
0.181406
0.222919
0.25866
0.277643
0.290086
0.300089
0.293517
0.254092
0.190743
0.126129
0.0824832
0.0717501
0.0938348
0.142522
0.202639
0.259838
0.305999
0.339334
0.3614
0.374662
0.381764
0.384814
0.385273
0.384092
0.381858
0.378916
0.37546
0.371588
0.367344
0.362733
0.357742
0.352341
0.34649
0.340142
0.333242
0.325725
0.317517
0.30853
0.298666
0.287807
0.275815
0.262529
0.247753
0.23125
0.212737
0.19182
0.168129
0.14067
0.109711
0.0698442
0.0340155
0.194694
0.202596
0.207574
0.210176
0.21229
0.214276
0.215934
0.217168
0.218007
0.218489
0.21864
0.218516
0.21823
0.217999
0.218172
0.219184
0.221346
0.224365
0.227181
0.228112
0.225234
0.216947
0.202585
0.183065
0.161369
0.142324
0.131473
0.133374
0.151019
0.183958
0.225528
0.260352
0.27798
0.289728
0.299467
0.29286
0.254441
0.192178
0.127687
0.0840016
0.0731362
0.0950248
0.143309
0.20301
0.259917
0.305942
0.339255
0.36135
0.374664
0.381814
0.384907
0.3854
0.384245
0.382031
0.379105
0.375662
0.371803
0.367571
0.362973
0.357994
0.352606
0.34677
0.340438
0.333556
0.326057
0.317869
0.308905
0.299067
0.288234
0.276272
0.263019
0.24828
0.231819
0.213354
0.192492
0.168867
0.141475
0.110615
0.070768
0.0349091
0.194366
0.203228
0.208046
0.210527
0.21262
0.2146
0.216254
0.217489
0.218332
0.218819
0.218976
0.218858
0.218581
0.218363
0.21855
0.219575
0.221743
0.224754
0.227547
0.228447
0.225543
0.217251
0.202922
0.183482
0.161916
0.143034
0.132351
0.134472
0.15232
0.185301
0.226547
0.260724
0.27792
0.289548
0.299144
0.292348
0.254456
0.193104
0.128778
0.0850054
0.0740273
0.0957885
0.143824
0.203261
0.259985
0.305926
0.339234
0.361351
0.374702
0.381884
0.385005
0.38552
0.384382
0.38218
0.379264
0.37583
0.371978
0.367753
0.363163
0.358193
0.352814
0.346987
0.340667
0.333796
0.326313
0.318141
0.309195
0.299375
0.288565
0.276628
0.263403
0.248696
0.232271
0.213848
0.193033
0.169465
0.142134
0.11137
0.0715616
0.0357278
0.193658
0.203396
0.208321
0.210812
0.212911
0.21488
0.216516
0.217741
0.21858
0.219068
0.219231
0.219121
0.218855
0.218652
0.218858
0.219904
0.222088
0.225106
0.227893
0.228772
0.225848
0.217546
0.203224
0.183821
0.162327
0.143575
0.133059
0.135242
0.153029
0.185704
0.226446
0.260343
0.277721
0.289522
0.2991
0.292073
0.254364
0.193445
0.129415
0.0856412
0.0745406
0.0961325
0.144022
0.203325
0.259965
0.30588
0.339193
0.361332
0.374712
0.381926
0.385076
0.385617
0.384502
0.382321
0.379423
0.376004
0.372168
0.367955
0.363378
0.358422
0.353058
0.347248
0.340945
0.334093
0.32663
0.31848
0.309557
0.299764
0.288983
0.277079
0.26389
0.249223
0.232843
0.214471
0.193714
0.170216
0.14296
0.112318
0.072574
0.0368864
)
;

boundaryField
{
    inlet
    {
        type            zeroGradient;
    }
    outlet
    {
        type            fixedValue;
        value           uniform 0;
    }
    fixedWalls
    {
        type            zeroGradient;
    }
    frontAndBack
    {
        type            empty;
    }
}


// ************************************************************************* //
