/*--------------------------------*- C++ -*----------------------------------*\
| =========                 |                                                 |
| \\      /  F ield         | OpenFOAM: The Open Source CFD Toolbox           |
|  \\    /   O peration     | Version:  v1912                                 |
|   \\  /    A nd           | Website:  www.openfoam.com                      |
|    \\/     M anipulation  |                                                 |
\*---------------------------------------------------------------------------*/
FoamFile
{
    version     2.0;
    format      ascii;
    class       surfaceScalarField;
    location    "25";
    object      phi;
}
// * * * * * * * * * * * * * * * * * * * * * * * * * * * * * * * * * * * * * //

dimensions      [0 3 -1 0 0 0 0];
oriented        oriented;


internalField   nonuniform List<scalar> 
3895
(
0.000812881
0.000383295
0.000495527
0.000317354
0.00024802
0.000247507
6.40398e-05
0.000183981
-5.77096e-05
0.000121749
-0.000116435
5.87258e-05
-0.000121926
5.49026e-06
-9.64678e-05
-2.54579e-05
-7.91871e-05
-1.72807e-05
-6.66664e-05
-1.25207e-05
-5.41587e-05
-1.25077e-05
-5.05459e-05
-3.61287e-06
-5.59533e-05
5.40748e-06
-6.24107e-05
6.45735e-06
-5.73603e-05
-5.05035e-06
-1.52134e-05
-4.2147e-05
7.9522e-05
-9.47353e-05
0.000206173
-0.000126651
0.000317158
-0.000110985
0.00037706
-5.99022e-05
0.000374825
2.23534e-06
0.000278109
9.67161e-05
5.98775e-05
0.000218231
-0.000305311
0.000365188
-0.000770504
0.000465194
-0.00125285
0.000482348
-0.00167807
0.000425219
-0.00199944
0.000321369
-0.00219665
0.000197209
-0.00226324
6.65923e-05
-0.00222941
-3.38349e-05
-0.00211717
-0.000112238
-0.00193927
-0.000177895
-0.00170954
-0.000229738
-0.00144076
-0.000268777
-0.0011471
-0.000293659
-0.000844278
-0.000302821
-0.000546866
-0.000297412
-0.000268011
-0.000278855
-1.69308e-05
-0.00025108
0.000200193
-0.000217124
0.000381928
-0.000181734
0.000530065
-0.000148137
0.000647793
-0.000117728
0.000739066
-9.12736e-05
0.000808131
-6.90649e-05
0.000859115
-5.0984e-05
0.000895794
-3.66787e-05
0.000921483
-2.56891e-05
0.000939001
-1.75182e-05
0.00095068
-1.16782e-05
0.000958366
-7.68644e-06
0.000963478
-5.11205e-06
0.000967088
-3.61005e-06
0.00096995
-2.86162e-06
0.000972526
-2.57602e-06
0.000975133
-2.60699e-06
0.000977982
-2.84972e-06
0.00098123
-3.24755e-06
0.00098493
-3.69995e-06
0.000989102
-4.1718e-06
0.000993744
-4.64234e-06
0.000998843
-5.09904e-06
0.00100436
-5.52188e-06
0.00101027
-5.90097e-06
0.0010165
-6.23023e-06
0.001023
-6.50637e-06
0.00102973
-6.72887e-06
0.00103663
-6.8996e-06
0.00104365
-7.02308e-06
0.00105076
-7.10686e-06
0.00105792
-7.1633e-06
0.00106513
-7.21029e-06
0.00107242
-7.28223e-06
0.00107983
-7.41741e-06
0.00108759
-7.75647e-06
0.0010959
-8.30664e-06
0.00110595
-1.00543e-05
0.00111768
-1.17307e-05
-2.38353e-05
0.00108703
0.000352079
0.00104362
0.000360763
0.000924621
0.000366503
0.000761359
0.000347243
0.000577926
0.000305183
0.000384367
0.000252284
0.000193804
0.000196054
3.26488e-05
0.000135697
-6.19621e-05
7.73303e-05
-9.98831e-05
2.54002e-05
-0.000109451
-2.93978e-06
-0.000108356
-4.70818e-06
-0.000136184
3.32355e-05
-0.000183461
5.3735e-05
-0.00023324
4.47285e-05
-0.000266265
-9.12239e-06
-0.000255999
-0.000105002
-0.000171563
-0.000211087
-3.83876e-05
-0.000244161
6.40143e-05
-0.000162304
6.23729e-05
3.87667e-06
-6.62291e-05
0.000225318
-0.000333584
0.000485586
-0.000674513
0.000706118
-0.00100947
0.000800151
-0.0012719
0.000744778
-0.00142908
0.000582403
-0.00148701
0.000379298
-0.00147538
0.000185573
-0.00142598
1.7198e-05
-0.00134207
-0.000117749
-0.00121659
-0.000237718
-0.00105678
-0.000337708
-0.000866429
-0.000420085
-0.000650254
-0.000484952
-0.000417173
-0.00052674
-0.000180086
-0.000539909
4.61654e-05
-0.000523663
0.000250167
-0.000482857
0.00042569
-0.000426603
0.000571566
-0.000363
0.000688225
-0.000298393
0.000777804
-0.000237716
0.0008441
-0.000184023
0.000891492
-0.000138666
0.000924168
-0.000101741
0.000945726
-7.25422e-05
0.00095905
-5.00023e-05
0.000966352
-3.2991e-05
0.000969316
-2.04827e-05
0.000969226
-1.1588e-05
0.000966984
-5.44473e-06
0.000963312
-1.43999e-06
0.000958876
8.26467e-07
0.000954448
1.56625e-06
0.000950268
1.60401e-06
0.000946674
9.86615e-07
0.000943922
-9.73024e-08
0.000942189
-1.51537e-06
0.000941399
-2.90924e-06
0.00094146
-4.23319e-06
0.000942343
-5.52481e-06
0.000943972
-6.72797e-06
0.000946262
-7.8127e-06
0.000949134
-8.77224e-06
0.000952504
-9.60054e-06
0.000956294
-1.02963e-05
0.000960427
-1.08624e-05
0.000964833
-1.13053e-05
0.000969446
-1.16354e-05
0.000974206
-1.18676e-05
0.000979066
-1.20232e-05
0.000983988
-1.21321e-05
0.00098895
-1.22445e-05
0.000993957
-1.24239e-05
0.00099904
-1.284e-05
0.0010043
-1.35691e-05
0.00100975
-1.55014e-05
0.00101538
-1.73647e-05
-2.51885e-05
0.000976137
0.000307857
0.00102677
0.000310133
0.00105922
0.000334054
0.00105183
0.000354633
0.000998117
0.000358891
0.000902623
0.000347778
0.00077407
0.000324606
0.000619806
0.000289961
0.000451892
0.000245244
0.000281239
0.000196053
0.000133054
0.000145246
3.15575e-05
9.67878e-05
-1.11485e-05
7.59415e-05
-3.90779e-05
8.16643e-05
-9.59444e-05
0.000101595
-0.00018932
8.42531e-05
-0.000279389
-1.49327e-05
-0.000318942
-0.000171533
-0.000276245
-0.000286858
-0.000177425
-0.000261124
-0.000135078
-3.84702e-05
-0.000164408
0.000254648
-0.000260959
0.000582137
-0.000379077
0.000824235
-0.000475558
0.000896633
-0.000525869
0.000795089
-0.000531842
0.000588376
-0.000513101
0.000360556
-0.000481311
0.000153784
-0.000433857
-3.02562e-05
-0.000351856
-0.000199751
-0.000242151
-0.000347423
-0.00011279
-0.00046707
3.14915e-05
-0.000564367
0.000188627
-0.000642088
0.000352275
-0.000690388
0.000511461
-0.000699095
0.000656215
-0.000668417
0.000780423
-0.000607065
0.000880138
-0.000526317
0.000953748
-0.000436611
0.00100217
-0.000346811
0.00102848
-0.000264032
0.0010374
-0.00019294
0.00103416
-0.000135428
0.00102352
-9.11e-05
0.00100918
-5.82066e-05
0.000993714
-3.4532e-05
0.000978591
-1.78686e-05
0.000964608
-6.4994e-06
0.000952316
7.03509e-07
0.000941121
5.75101e-06
0.000931264
8.4163e-06
0.000922551
9.53987e-06
0.000914642
9.47523e-06
0.000907655
8.59046e-06
0.000901533
7.10957e-06
0.000896233
5.20222e-06
0.000891704
3.014e-06
0.00088809
7.0427e-07
0.000885121
-1.26373e-06
0.000882987
-3.39103e-06
0.000881636
-5.37666e-06
0.000881026
-7.2034e-06
0.000881099
-8.84539e-06
0.000881784
-1.02847e-05
0.000883004
-1.15171e-05
0.000884687
-1.25451e-05
0.000886759
-1.3377e-05
0.00088915
-1.40266e-05
0.000891796
-1.45134e-05
0.000894636
-1.48636e-05
0.000897616
-1.51119e-05
0.000900682
-1.53103e-05
0.000903782
-1.55244e-05
0.000906836
-1.5894e-05
0.000909776
-1.65086e-05
0.000912227
-1.79526e-05
0.00091452
-1.96574e-05
-2.57584e-05
0.000857378
0.000273036
0.000897642
0.000269869
0.000949861
0.000281836
0.00100269
0.0003018
0.00104109
0.000320492
0.00105493
0.00033394
0.00103891
0.00034063
0.000990024
0.000338845
0.000908384
0.000326885
0.000798934
0.000305503
0.000667876
0.000276305
0.000522747
0.000241916
0.0003903
0.000208389
0.000291097
0.000180867
0.000229522
0.00016317
0.000170994
0.000142782
7.6881e-05
7.91799e-05
-5.87564e-05
-3.58959e-05
-0.000174407
-0.000171208
-0.000177426
-0.000258105
-8.12321e-05
-0.000134664
-7.40785e-06
0.000180824
4.19382e-05
0.000532791
8.46593e-05
0.000781514
0.000128717
0.000852575
0.000171352
0.000752454
0.000208304
0.000551424
0.000241994
0.000326866
0.000280067
0.000115711
0.000336089
-8.6278e-05
0.000410175
-0.000273837
0.000495361
-0.000432608
0.000588596
-0.000560305
0.000690812
-0.000666582
0.000799347
-0.000750624
0.00090638
-0.00079742
0.0010035
-0.000796218
0.00108537
-0.000750284
0.0011489
-0.000670595
0.00119135
-0.000568764
0.00121073
-0.000455989
0.00120754
-0.000343627
0.00118541
-0.000241904
0.00115014
-0.000157664
0.001108
-9.32916e-05
0.00106433
-4.74245e-05
0.00102283
-1.67077e-05
0.000985772
2.52313e-06
0.000953903
1.40006e-05
0.000927352
2.00524e-05
0.000905353
2.27019e-05
0.000887788
2.33166e-05
0.000873655
2.25484e-05
0.000862273
2.09224e-05
0.00085299
1.87584e-05
0.00084533
1.62502e-05
0.000838917
1.35225e-05
0.00083346
1.06587e-05
0.000828731
7.74372e-06
0.000824595
4.83992e-06
0.000821164
2.16766e-06
0.000818428
-6.55397e-07
0.000816227
-3.17592e-06
0.00081454
-5.51614e-06
0.000813327
-7.63275e-06
0.000812554
-9.51172e-06
0.000812184
-1.11464e-05
0.000812174
-1.25357e-05
0.000812483
-1.36856e-05
0.000813065
-1.46085e-05
0.000813874
-1.53228e-05
0.000814864
-1.58531e-05
0.000815982
-1.62304e-05
0.000817169
-1.64973e-05
0.00081835
-1.6705e-05
0.000819405
-1.6949e-05
0.000820191
-1.72944e-05
0.000820329
-1.80906e-05
0.000819624
-1.89525e-05
-2.20104e-05
0.000759126
0.000239943
0.000789461
0.000239535
0.000826258
0.000245038
0.000872051
0.000256007
0.000923358
0.000269184
0.000974104
0.000283194
0.00101734
0.000297399
0.00104616
0.000310018
0.00105452
0.000318526
0.00103864
0.000321386
0.000996704
0.000318239
0.0009291
0.00030952
0.000842057
0.000295432
0.000747361
0.000275562
0.000660572
0.000249959
0.000589362
0.000213992
0.000522152
0.000146389
0.000422591
6.36655e-05
0.000270234
-1.8851e-05
0.000105108
-9.29786e-05
7.35786e-05
-0.000103135
0.000188314
6.60888e-05
0.000339021
0.000382084
0.000475765
0.00064477
0.000589391
0.000738949
0.000674454
0.000667391
0.00073185
0.000494029
0.000774075
0.000284641
0.000816789
7.2997e-05
0.00086728
-0.000136769
0.000918726
-0.000325283
0.000969764
-0.000483646
0.00102652
-0.000617062
0.00109279
-0.000732852
0.00116206
-0.000819889
0.00122417
-0.000859534
0.00127473
-0.000846776
0.00131381
-0.000789363
0.00133977
-0.000696562
0.00134779
-0.000576781
0.00133339
-0.000441594
0.00129629
-0.000306527
0.00124111
-0.00018672
0.00117541
-9.19628e-05
0.00110696
-2.48424e-05
0.00104186
1.76735e-05
0.000983758
4.13959e-05
0.00093411
5.21711e-05
0.000893228
5.48828e-05
0.000860313
5.29676e-05
0.000834289
4.87261e-05
0.000814057
4.3548e-05
0.000798429
3.81771e-05
0.000786388
3.29631e-05
0.000777093
2.80533e-05
0.000769864
2.34799e-05
0.000764166
1.92198e-05
0.000759593
1.52322e-05
0.000755852
1.14849e-05
0.000752729
7.96253e-06
0.000750198
4.69838e-06
0.000747997
1.54619e-06
0.000746057
-1.23583e-06
0.000744393
-3.85208e-06
0.000742975
-6.21474e-06
0.000741785
-8.32172e-06
0.000740804
-1.01659e-05
0.000740016
-1.17477e-05
0.000739403
-1.30729e-05
0.000738947
-1.41524e-05
0.000738626
-1.5002e-05
0.000738415
-1.56417e-05
0.000738279
-1.60949e-05
0.000738172
-1.63899e-05
0.000738024
-1.65572e-05
0.000737716
-1.66407e-05
0.000737097
-1.66755e-05
0.000735779
-1.67727e-05
0.000733711
-1.68842e-05
-1.77089e-05
0.000671957
0.000208823
0.000700443
0.000211049
0.000729758
0.000215723
0.000762738
0.000223027
0.000800709
0.000231213
0.000843977
0.000239926
0.000891447
0.000249929
0.000940187
0.000261278
0.000985711
0.000273002
0.0010231
0.000283996
0.001048
0.000293343
0.00105729
0.000300225
0.00104932
0.000303407
0.00102483
0.000300053
0.000988775
0.00028601
0.000947449
0.000255317
0.000898826
0.000195013
0.000836548
0.000125943
0.00075046
6.72374e-05
0.000616243
4.1238e-05
0.000464535
4.85741e-05
0.000422561
0.000108063
0.000531215
0.00027343
0.000701043
0.000474941
0.0008574
0.000582592
0.000973771
0.000551019
0.00105124
0.000416559
0.00110431
0.000231571
0.00114447
3.28412e-05
0.00117494
-0.000167242
0.00119592
-0.000346258
0.00121666
-0.000504389
0.00124776
-0.000648168
0.00128695
-0.000772042
0.00132178
-0.000854713
0.00134647
-0.000884224
0.00136577
-0.000866072
0.00138298
-0.000806581
0.0013926
-0.000706176
0.00138449
-0.000568676
0.00135157
-0.000408676
0.00129386
-0.000248811
0.00121795
-0.000110815
0.00113365
-7.65721e-06
0.0010503
5.85097e-05
0.000974138
9.38307e-05
0.000908438
0.000107096
0.000854156
0.000106453
0.00081077
9.8269e-05
0.000776919
8.68184e-05
0.000750997
7.46483e-05
0.000731439
6.31063e-05
0.000716845
5.27703e-05
0.000706038
4.37708e-05
0.000698065
3.60266e-05
0.000692176
2.93684e-05
0.000687791
2.36045e-05
0.000684468
1.85557e-05
0.000681875
1.40775e-05
0.000679772
1.00652e-05
0.000678026
6.44502e-06
0.000676434
3.13847e-06
0.000675046
1.51996e-07
0.000673753
-2.55902e-06
0.000672531
-4.99299e-06
0.000671362
-7.15234e-06
0.000670237
-9.04162e-06
0.000669156
-1.06662e-05
0.000668117
-1.20341e-05
0.000667121
-1.31562e-05
0.000666165
-1.40464e-05
0.000665243
-1.47199e-05
0.000664341
-1.51922e-05
0.000663427
-1.54766e-05
0.000662453
-1.55823e-05
0.000661317
-1.55051e-05
0.000659888
-1.52462e-05
0.000657838
-1.47231e-05
0.00065505
-1.4096e-05
-1.27451e-05
0.000593755
0.000180705
0.000620787
0.000184016
0.000647766
0.000188744
0.000675691
0.000195102
0.00070514
0.000201764
0.000737005
0.00020806
0.000772452
0.000214482
0.00081211
0.00022162
0.000855491
0.000229621
0.000901043
0.000238445
0.000946461
0.000247925
0.000989132
0.000257554
0.00102641
0.000266134
0.00105569
0.000270765
0.00107512
0.000266582
0.00108305
0.000247392
0.00107616
0.000201901
0.00105164
0.000150462
0.00100578
0.000113095
0.000937181
0.000109839
0.000837929
0.000147826
0.000738063
0.000207929
0.000724279
0.000287214
0.000816163
0.000383057
0.000952753
0.000446003
0.00107647
0.000427302
0.00116666
0.000326366
0.0012255
0.000172731
0.00126092
-2.57225e-06
0.00127539
-0.000181717
0.00128206
-0.000352928
0.00129432
-0.000516646
0.00131452
-0.000668367
0.00132994
-0.000787462
0.00133195
-0.000856729
0.00132956
-0.000881827
0.00133509
-0.000871605
0.00134641
-0.000817902
0.00134975
-0.000709513
0.00133202
-0.000550948
0.00128743
-0.000364086
0.00121809
-0.000179473
0.00113202
-2.47421e-05
0.00104033
8.4036e-05
0.000952779
0.000146056
0.000875386
0.000171225
0.000810702
0.00017178
0.000758802
0.000158353
0.000718411
0.00013866
0.000687709
0.00011752
0.000664811
9.75462e-05
0.00064801
7.99066e-05
0.000635866
6.49145e-05
0.000627204
5.24329e-05
0.000621097
4.21335e-05
0.000616828
3.36374e-05
0.000613849
2.65834e-05
0.000611747
2.06584e-05
0.000610214
1.56105e-05
0.000609032
1.12471e-05
0.000608052
7.42499e-06
0.000607151
4.0395e-06
0.000606267
1.03599e-06
0.000605346
-1.63861e-06
0.000604365
-4.01148e-06
0.000603315
-6.10217e-06
0.000602198
-7.9245e-06
0.000601021
-9.48995e-06
0.000599797
-1.08099e-05
0.000598537
-1.18965e-05
0.000597253
-1.2762e-05
0.000595951
-1.34178e-05
0.000594631
-1.38722e-05
0.00059328
-1.41256e-05
0.000591866
-1.41687e-05
0.000590317
-1.39558e-05
0.000588527
-1.34558e-05
0.000586215
-1.24113e-05
0.000583284
-1.11649e-05
-8.00436e-06
0.000524271
0.000155696
0.000548899
0.000159389
0.000573708
0.000163935
0.000599202
0.000169608
0.000625334
0.000175632
0.000652089
0.000181305
0.000679949
0.000186622
0.000709718
0.000191852
0.000742173
0.000197165
0.000777872
0.000202746
0.000816976
0.00020882
0.000859142
0.000215389
0.000903468
0.000221807
0.000948168
0.000226066
0.00099028
0.00022447
0.00102546
0.000212211
0.00104756
0.000179802
0.00105353
0.000144488
0.00104321
0.000123421
0.00102166
0.000131382
0.00099101
0.000178479
0.000947065
0.000251874
0.000913056
0.000321223
0.000928141
0.000367972
0.000994243
0.000379902
0.00107912
0.000342424
0.00115362
0.000251867
0.00120584
0.000120505
0.00123694
-3.3669e-05
0.00125395
-0.000198728
0.00126791
-0.000366887
0.00128213
-0.000530863
0.00128651
-0.000672744
0.00127081
-0.000771764
0.00124495
-0.000830871
0.00123095
-0.000867829
0.00123441
-0.000875064
0.00123997
-0.000823459
0.00123066
-0.000700205
0.00119933
-0.000519615
0.001146
-0.000310758
0.00107399
-0.000107469
0.000989653
5.95988e-05
0.000903448
0.000170241
0.00082379
0.000225713
0.000755515
0.0002395
0.000700079
0.000227216
0.000656763
0.000201669
0.000623866
0.000171557
0.000599442
0.000141945
0.000581658
0.00011533
0.000568949
9.26162e-05
0.000560041
7.38225e-05
0.000553928
5.85456e-05
0.00054983
4.62317e-05
0.000547149
3.63184e-05
0.000545433
2.82994e-05
0.000544342
2.17493e-05
0.000543625
1.63278e-05
0.000543099
1.17728e-05
0.000542636
7.88836e-06
0.000542144
4.53146e-06
0.000541563
1.61655e-06
0.000540875
-9.50524e-07
0.000540056
-3.19211e-06
0.000539105
-5.15105e-06
0.000538029
-6.84844e-06
0.000536841
-8.30239e-06
0.000535559
-9.52754e-06
0.000534199
-1.05373e-05
0.000532781
-1.13431e-05
0.000531316
-1.19535e-05
0.000529816
-1.23714e-05
0.000528278
-1.25878e-05
0.000526688
-1.2579e-05
0.000524999
-1.22666e-05
0.000523134
-1.15911e-05
0.00052087
-1.0147e-05
0.000518103
-8.39757e-06
-3.66681e-06
0.00046282
0.000133551
0.000484808
0.000137401
0.000507078
0.000141665
0.000530083
0.000146602
0.000553811
0.000151905
0.000578033
0.000157084
0.000602675
0.00016198
0.000627879
0.000166648
0.000653956
0.000171088
0.000681404
0.000175298
0.000710862
0.000179362
0.000742965
0.000183285
0.000778116
0.000186656
0.000816013
0.000188169
0.000855056
0.000185427
0.000891859
0.000175408
0.000920645
0.000151016
0.000938998
0.000126135
0.000948149
0.000114271
0.000953523
0.000126008
0.00096322
0.000168782
0.000976671
0.000238423
0.000988152
0.000309742
0.00100445
0.000351677
0.00103623
0.000348114
0.00108105
0.00029761
0.00112679
0.000206123
0.00116394
8.33532e-05
0.00119117
-6.08973e-05
0.00121048
-0.000218035
0.0012219
-0.00037831
0.0012183
-0.000527266
0.00119077
-0.000645207
0.00114598
-0.000726981
0.00110955
-0.000794439
0.00109639
-0.000854663
0.0010925
-0.000871183
0.0010766
-0.000807556
0.00104183
-0.000665435
0.000993439
-0.000471222
0.000936758
-0.000254077
0.000872476
-4.31868e-05
0.00080345
0.000128625
0.000735849
0.000237842
0.000675292
0.00028627
0.000624843
0.000289948
0.000584982
0.000267077
0.000554637
0.000232014
0.000532172
0.000194022
0.000515919
0.000158197
0.000504412
0.000126837
0.000496451
0.000100577
0.000491094
7.91797e-05
0.000487611
6.20288e-05
0.000485445
4.83977e-05
0.000484174
3.7589e-05
0.000483482
2.89912e-05
0.000483133
2.20988e-05
0.000482952
1.65085e-05
0.000482815
1.19099e-05
0.000482634
8.06932e-06
0.00048235
4.81536e-06
0.000481935
2.03144e-06
0.00048136
-3.7523e-07
0.000480624
-2.45643e-06
0.000479731
-4.25752e-06
0.000478691
-5.80863e-06
0.000477521
-7.13226e-06
0.000476239
-8.24565e-06
0.000474865
-9.1636e-06
0.000473419
-9.89661e-06
0.000471917
-1.04518e-05
0.000470374
-1.08283e-05
0.000468797
-1.10109e-05
0.000467185
-1.09666e-05
0.000465512
-1.05938e-05
0.000463731
-9.8101e-06
0.000461671
-8.08734e-06
0.000459233
-5.95963e-06
4.8266e-08
0.000408527
0.000113987
0.000428022
0.000117906
0.000447813
0.000121874
0.000468271
0.000126144
0.000489456
0.00013072
0.000511255
0.000135284
0.000533573
0.000139662
0.000556342
0.00014388
0.000579512
0.000147918
0.000603129
0.000151681
0.000627409
0.000155083
0.000652724
0.00015797
0.000679488
0.000159893
0.000707838
0.000159818
0.000737172
0.000156093
0.000765633
0.000146947
0.000789383
0.000127266
0.000807034
0.000108484
0.000820295
0.000101009
0.000833846
0.000112458
0.000855692
0.000146935
0.000891577
0.000202538
0.000936791
0.000264529
0.00098217
0.000306297
0.00102411
0.000306171
0.00106261
0.000259108
0.00109639
0.000172343
0.00112291
5.6835e-05
0.00114041
-7.83943e-05
0.00114578
-0.000223408
0.00113421
-0.000366737
0.0011005
-0.00049356
0.00104757
-0.000592277
0.000995897
-0.000675303
0.000965977
-0.00076452
0.000948767
-0.000837452
0.000919505
-0.00084192
0.000869347
-0.000757399
0.00080768
-0.000603768
0.000747542
-0.000411083
0.000694868
-0.000201403
0.000646953
4.72831e-06
0.000602045
0.000173533
0.000560474
0.000279413
0.000524626
0.000322119
0.00049589
0.000318685
0.000474102
0.000288865
0.000458233
0.000247882
0.000447044
0.000205211
0.000439389
0.000165852
0.000434328
0.000131898
0.000431131
0.000103774
0.000429244
8.10662e-05
0.000428253
6.302e-05
0.000427847
4.88031e-05
0.000427798
3.76382e-05
0.000427936
2.88532e-05
0.000428138
2.1897e-05
0.000428315
1.63319e-05
0.000428403
1.18212e-05
0.000428362
8.11078e-06
0.000428163
5.01403e-06
0.000427796
2.3983e-06
0.000427254
1.66714e-07
0.000426544
-1.74606e-06
0.000425675
-3.38822e-06
0.00042466
-4.79444e-06
0.000423518
-5.99008e-06
0.000422266
-6.99367e-06
0.000420924
-7.82101e-06
0.000419509
-8.48179e-06
0.00041804
-8.98247e-06
0.000416531
-9.31987e-06
0.000414996
-9.47581e-06
0.000413442
-9.41231e-06
0.000411862
-9.01454e-06
0.000410235
-8.1829e-06
0.000408445
-6.29728e-06
0.000406396
-3.91087e-06
3.11543e-06
0.000360572
9.67353e-05
0.000377794
0.000100684
0.000395329
0.000104339
0.000413449
0.000108024
0.000432198
0.000111971
0.00045154
0.000115942
0.000471456
0.000119746
0.000491916
0.00012342
0.00051285
0.000126984
0.000534182
0.000130349
0.000555877
0.000133387
0.000577965
0.000135882
0.000600502
0.000137356
0.000623422
0.000136898
0.000646291
0.000133224
0.000668013
0.000125225
0.000686212
0.000109067
0.000700261
9.44353e-05
0.000711769
8.95018e-05
0.000724412
9.98148e-05
0.000744037
0.00012731
0.000777404
0.000169171
0.000826001
0.000215931
0.000882427
0.000249872
0.000936475
0.000252122
0.000981637
0.000213946
0.00101534
0.000138639
0.00103617
3.60044e-05
0.00104169
-8.39096e-05
0.00102936
-0.000211081
0.000997822
-0.0003352
0.000949373
-0.000445111
0.000896054
-0.000538958
0.000857121
-0.00063637
0.000831255
-0.000738654
0.000792384
-0.000798581
0.00072792
-0.000777456
0.000649821
-0.000679301
0.00057481
-0.000528756
0.000513567
-0.00034984
0.000469536
-0.000157372
0.000438988
3.52757e-05
0.000416814
0.000195708
0.000399837
0.000296389
0.000387418
0.000334538
0.000379168
0.000326934
0.000374263
0.000293771
0.000371774
0.000250371
0.000370905
0.000206081
0.000371053
0.000165705
0.000371799
0.000131152
0.000372861
0.000102712
0.000374052
7.98753e-05
0.000375246
6.18256e-05
0.000376362
4.76875e-05
0.000377345
3.6655e-05
0.000378163
2.80354e-05
0.000378795
2.12647e-05
0.000379232
1.58957e-05
0.000379467
1.15855e-05
0.000379503
8.07532e-06
0.000379342
5.17481e-06
0.000378994
2.74676e-06
0.000378467
6.93535e-07
0.000377774
-1.05356e-06
0.000376931
-2.54476e-06
0.000375952
-3.8159e-06
0.000374855
-4.89331e-06
0.000373657
-5.79565e-06
0.000372376
-6.5394e-06
0.000371027
-7.1333e-06
0.000369629
-7.58384e-06
0.000368195
-7.8866e-06
0.000366743
-8.02299e-06
0.000365284
-7.95331e-06
0.000363828
-7.55877e-06
0.000362373
-6.72797e-06
0.000360859
-4.78362e-06
0.000359196
-2.24798e-06
5.54049e-06
0.000318222
8.15462e-05
0.000333394
8.55121e-05
0.000348908
8.88248e-05
0.000364945
9.19868e-05
0.000381513
9.54032e-05
0.000398604
9.88513e-05
0.000416223
0.000102127
0.000434367
0.000105276
0.000453015
0.000108336
0.000472127
0.000111237
0.000491655
0.00011386
0.000511536
0.000116001
0.000531668
0.000117224
0.000551817
0.000116749
0.000571496
0.000113545
0.000589855
0.000106866
0.000605213
9.37083e-05
0.000617322
8.23264e-05
0.00062751
7.93143e-05
0.000638509
8.88155e-05
0.000654141
0.000111679
0.000679059
0.000144253
0.000716558
0.000178432
0.000764374
0.000202056
0.000814561
0.000201935
0.000858348
0.000170159
0.000889757
0.000107231
0.000905456
2.03055e-05
0.000903422
-8.18756e-05
0.000883856
-0.000191515
0.000849388
-0.000300733
0.000806343
-0.000402066
0.00076801
-0.000500625
0.000740505
-0.000608865
0.00070228
-0.000700429
0.000631666
-0.000727967
0.000540968
-0.000686758
0.000453502
-0.000591835
0.000380144
-0.000455399
0.000324746
-0.000294442
0.000288852
-0.000121479
0.000270264
5.38634e-05
0.000264352
0.000201621
0.000266097
0.000294645
0.000272217
0.000328418
0.000280395
0.000318756
0.000289085
0.000285081
0.000297386
0.000242071
0.000304841
0.000198625
0.000311287
0.000159259
0.000316725
0.000125714
0.000321234
9.82024e-05
0.000324921
7.61883e-05
0.000327894
5.88528e-05
0.000330253
4.53284e-05
0.000332087
3.48213e-05
0.000333471
2.66511e-05
0.000334469
2.02664e-05
0.000335134
1.52308e-05
0.000335508
1.12114e-05
0.000335627
7.95713e-06
0.000335517
5.28396e-06
0.000335206
3.05853e-06
0.000334713
1.18627e-06
0.000334058
-3.99145e-07
0.000333261
-1.74707e-06
0.000332338
-2.89292e-06
0.000331306
-3.8618e-06
0.000330182
-4.67169e-06
0.000328982
-5.33931e-06
0.000327721
-5.87228e-06
0.000326415
-6.27743e-06
0.000325078
-6.5498e-06
0.000323727
-6.67204e-06
0.000322379
-6.60484e-06
0.000321054
-6.23373e-06
0.000319764
-5.43836e-06
0.000318506
-3.52588e-06
0.000317186
-9.27419e-07
7.35265e-06
0.000280824
6.81957e-05
0.000294168
7.21682e-05
0.000307881
7.51116e-05
0.000322062
7.78052e-05
0.000336699
8.0767e-05
0.000351798
8.37521e-05
0.000367364
8.65609e-05
0.000383391
8.9249e-05
0.000399872
9.18547e-05
0.000416794
9.43148e-05
0.000434134
9.65197e-05
0.000451844
9.82901e-05
0.000469815
9.92531e-05
0.000487803
9.87614e-05
0.000505348
9.59999e-05
0.000521746
9.0468e-05
0.000535671
7.97834e-05
0.000547052
7.09453e-05
0.000557009
6.93576e-05
0.000567627
7.81975e-05
0.000581508
9.77975e-05
0.000601268
0.000124494
0.000628908
0.000150791
0.000664018
0.000166946
0.000702293
0.000163661
0.000736993
0.000135458
0.000761866
8.23592e-05
0.000772925
9.24628e-06
0.000768986
-7.79368e-05
0.000751536
-0.000174065
0.000723559
-0.000272756
0.000692228
-0.000370735
0.000666823
-0.00047522
0.000637388
-0.00057943
0.000575259
-0.0006383
0.000478662
-0.00063137
0.000379603
-0.000587699
0.000297184
-0.000509415
0.000231663
-0.000389877
0.000183211
-0.000245991
0.000153223
-9.14903e-05
0.00014233
6.47562e-05
0.000147268
0.000196683
0.000161964
0.000279949
0.000181126
0.000309255
0.000200954
0.000298928
0.000219349
0.000266686
0.000235393
0.000226026
0.000248854
0.000185164
0.000259866
0.000148247
0.000268725
0.000116855
0.000275765
9.1162e-05
0.000281303
7.06507e-05
0.000285613
5.45429e-05
0.000288926
4.20148e-05
0.000291433
3.23148e-05
0.000293286
2.4798e-05
0.000294608
1.89446e-05
0.000295495
1.43431e-05
0.000296024
1.06822e-05
0.000296255
7.72693e-06
0.000296232
5.30641e-06
0.000295994
3.29655e-06
0.000295571
1.60943e-06
0.000294988
1.83807e-07
0.000294266
-1.02468e-06
0.000293424
-2.05148e-06
0.000292481
-2.91815e-06
0.000291451
-3.64182e-06
0.00029035
-4.23876e-06
0.000289193
-4.71518e-06
0.000287994
-5.07837e-06
0.000286767
-5.32287e-06
0.000285529
-5.43365e-06
0.000284296
-5.37261e-06
0.0002831
-5.03675e-06
0.000281958
-4.29654e-06
0.000280923
-2.49118e-06
0.000279885
1.10837e-07
8.5975e-06
0.0002478
5.64822e-05
0.000259525
6.04431e-05
0.000271641
6.2995e-05
0.000284171
6.52759e-05
0.000297093
6.78444e-05
0.000310432
7.04134e-05
0.000324186
7.28071e-05
0.000338342
7.50927e-05
0.000352893
7.73039e-05
0.000367828
7.93796e-05
0.000383129
8.12183e-05
0.000398758
8.26612e-05
0.000414622
8.33894e-05
0.000430514
8.28698e-05
0.000446053
8.04605e-05
0.000460683
7.58374e-05
0.00047334
6.7127e-05
0.000484057
6.02278e-05
0.000493828
5.9587e-05
0.000504346
6.76795e-05
0.000517596
8.45473e-05
0.000535187
0.000106903
0.000557812
0.000128167
0.000584731
0.000140027
0.000613224
0.000135168
0.000638929
0.000109752
0.000657262
6.40268e-05
0.000664995
1.51248e-06
0.000661449
-7.43908e-05
0.000647388
-0.000160003
0.000625125
-0.000250493
0.000602632
-0.000348242
0.000581603
-0.000454191
0.000539343
-0.00053717
0.000453678
-0.000552636
0.000345468
-0.00052316
0.000252135
-0.000494366
0.000179522
-0.000436802
0.000121749
-0.000332104
7.95503e-05
-0.000203792
5.44722e-05
-6.64122e-05
4.93547e-05
6.98736e-05
6.18201e-05
0.000184218
8.49547e-05
0.000256814
0.000112357
0.000281853
0.000139491
0.000271793
0.000163992
0.000242185
0.000184941
0.000205077
0.000202232
0.000167873
0.000216178
0.000134301
0.000227255
0.000105779
0.000235955
8.24619e-05
0.000242726
6.38796e-05
0.000247949
4.932e-05
0.000251938
3.80263e-05
0.000254944
2.93083e-05
0.00025717
2.25725e-05
0.000258773
1.73418e-05
0.000259876
1.32394e-05
0.000260577
9.98174e-06
0.000260948
7.35553e-06
0.000261048
5.20672e-06
0.000260921
3.42365e-06
0.000260602
1.92799e-06
0.000260123
6.62891e-07
0.000259505
-4.06607e-07
0.000258771
-1.31696e-06
0.000257937
-2.08456e-06
0.00025702
-2.72524e-06
0.000256036
-3.25394e-06
0.000254996
-3.67521e-06
0.000253914
-3.99634e-06
0.000252802
-4.21158e-06
0.000251678
-4.30888e-06
0.000250557
-4.25162e-06
0.000249474
-3.95436e-06
0.000248454
-3.2761e-06
0.0002476
-1.63734e-06
0.000246782
9.28602e-07
9.34303e-06
0.00021864
4.6225e-05
0.00022894
5.01424e-05
0.000239645
5.22908e-05
0.000250705
5.42158e-05
0.000262109
5.64404e-05
0.000273888
5.86339e-05
0.000286037
6.06582e-05
0.00029854
6.25894e-05
0.00031139
6.44542e-05
0.000324574
6.61952e-05
0.000338072
6.7721e-05
0.000351841
6.88917e-05
0.000365796
6.94346e-05
0.000379757
6.89084e-05
0.000393414
6.68044e-05
0.000406331
6.292e-05
0.000417656
5.58025e-05
0.000427487
5.03965e-05
0.000436712
5.03614e-05
0.000446755
5.76367e-05
0.000459233
7.20698e-05
0.000475361
9.0774e-05
0.000495332
0.000108196
0.000517996
0.000117362
0.00054095
0.000112214
0.000561015
8.96879e-05
0.000574952
5.00893e-05
0.000580481
-4.01627e-06
0.000576915
-7.08247e-05
0.000563957
-0.000147046
0.000545115
-0.00023165
0.000527894
-0.000331022
0.000503563
-0.000429859
0.000444498
-0.000478104
0.000343877
-0.000452015
0.00023811
-0.000417394
0.000156819
-0.000413075
9.31692e-05
-0.000373153
4.18412e-05
-0.000280776
5.42588e-06
-0.000167376
-1.35484e-05
-4.74379e-05
-1.34179e-05
6.97431e-05
2.46322e-06
0.000168337
3.05411e-05
0.000228736
6.23937e-05
0.000250001
9.33578e-05
0.000240829
0.000121049
0.000214494
0.000144577
0.00018155
0.000163897
0.000148553
0.000179412
0.000118785
0.000191689
9.35016e-05
0.000201304
7.28476e-05
0.000208773
5.64107e-05
0.000214533
4.35598e-05
0.000218941
3.36182e-05
0.000222282
2.59675e-05
0.00022478
2.00745e-05
0.00022661
1.55114e-05
0.000227909
1.19407e-05
0.000228781
9.1098e-06
0.000229307
6.82948e-06
0.000229549
4.96427e-06
0.000229556
3.41632e-06
0.000229367
2.11701e-06
0.000229013
1.01724e-06
0.000228521
8.57107e-08
0.000227911
-7.06879e-07
0.0002272
-1.37342e-06
0.000226402
-1.92781e-06
0.000225531
-2.38322e-06
0.000224599
-2.74318e-06
0.000223618
-3.01542e-06
0.000222602
-3.19476e-06
0.000221566
-3.27306e-06
0.00022053
-3.21565e-06
0.000219534
-2.95817e-06
0.000218605
-2.34739e-06
0.000217886
-9.18811e-07
0.000217257
1.55851e-06
9.67453e-06
0.000192893
3.72613e-05
0.000201947
4.10885e-05
0.000211402
4.28355e-05
0.000221158
4.446e-05
0.000231219
4.63794e-05
0.000241619
4.82343e-05
0.000252346
4.99314e-05
0.000263385
5.15504e-05
0.00027473
5.31092e-05
0.000286369
5.45559e-05
0.000298279
5.58105e-05
0.000310419
5.67525e-05
0.000322703
5.71503e-05