/*--------------------------------*- C++ -*----------------------------------*\
| =========                 |                                                 |
| \\      /  F ield         | OpenFOAM: The Open Source CFD Toolbox           |
|  \\    /   O peration     | Version:  v1912                                 |
|   \\  /    A nd           | Website:  www.openfoam.com                      |
|    \\/     M anipulation  |                                                 |
\*---------------------------------------------------------------------------*/
FoamFile
{
    version     2.0;
    format      ascii;
    class       volVectorField;
    location    "25";
    object      U;
}
// * * * * * * * * * * * * * * * * * * * * * * * * * * * * * * * * * * * * * //

dimensions      [0 1 -1 0 0 0 0];


internalField   nonuniform List<vector> 
2000
(
(0.843111 0.195925 0)
(0.511593 0.132723 0)
(0.221908 0.0719318 0)
(0.06094 0.0152194 7.63863e-20)
(-0.00497812 -0.0297847 2.24488e-17)
(-0.0598851 -0.0448264 2.04527e-17)
(-0.0694442 -0.0400429 0)
(-0.0633047 -0.0166152 0)
(-0.0493738 0.0102702 0)
(-0.0362927 0.0162483 4.59827e-17)
(-0.0307706 0.00686608 -2.85341e-17)
(-0.024774 0.000673069 -2.65249e-17)
(-0.0251795 0.00178489 0)
(-0.0275029 0.00297866 0)
(-0.0274503 0.00102581 -2.02907e-17)
(-0.0181733 -0.00674167 0)
(0.00774249 -0.0213028 1.79199e-17)
(0.0530219 -0.035137 2.53681e-19)
(0.104543 -0.0390581 1.53638e-17)
(0.141405 -0.0322949 -7.48032e-18)
(0.152305 -0.0219112 1.47495e-17)
(0.134273 -0.00927013 0)
(0.0785939 0.0300978 0)
(-0.0323413 0.0919519 2.92686e-20)
(-0.187626 0.14 0)
(-0.355701 0.157377 -1.24092e-18)
(-0.509775 0.144926 0)
(-0.631352 0.113119 -1.05464e-18)
(-0.711674 0.0731367 0)
(-0.748792 0.0332222 0)
(-0.745763 -0.00186263 0)
(-0.716665 -0.0307937 -5.72044e-19)
(-0.665491 -0.0542389 0)
(-0.596265 -0.0727052 -1.11132e-19)
(-0.513077 -0.0863185 1.53546e-14)
(-0.420417 -0.0948121 2.50567e-14)
(-0.323171 -0.0979669 1.10052e-18)
(-0.225916 -0.0960699 -1.40948e-18)
(-0.132614 -0.0898154 0)
(-0.0465943 -0.0802693 8.77038e-18)
(0.0298562 -0.0679717 0)
(0.096603 -0.0549728 -9.05161e-18)
(0.153126 -0.0424183 0)
(0.199273 -0.0306733 -1.69805e-17)
(0.236268 -0.0200271 8.32695e-18)
(0.265579 -0.0106878 0)
(0.288577 -0.00272666 0)
(0.306543 0.00391026 -8.00039e-18)
(0.320635 0.00937102 0)
(0.331858 0.0138638 7.90495e-18)
(0.341065 0.017619 0)
(0.348954 0.0208552 1.59506e-17)
(0.356085 0.0237436 -1.60109e-17)
(0.362894 0.0263975 1.60835e-17)
(0.369713 0.0288877 -8.03911e-18)
(0.37678 0.0312846 0)
(0.384258 0.0336366 8.11458e-18)
(0.392273 0.035983 -8.14733e-18)
(0.40093 0.03837 -1.64448e-17)
(0.410314 0.04085 1.63882e-17)
(0.42049 0.0434602 -1.64077e-17)
(0.431515 0.0462222 1.64043e-17)
(0.443448 0.04916 -1.63737e-17)
(0.45635 0.0522956 1.64456e-17)
(0.47028 0.055648 -1.46285e-19)
(0.485303 0.0592362 1.60692e-17)
(0.501489 0.0630795 0)
(0.518917 0.0671985 0)
(0.53768 0.0716151 2.12443e-19)
(0.557884 0.0763532 0)
(0.579652 0.0814388 1.46867e-17)
(0.603138 0.0869004 0)
(0.628513 0.0927675 1.34311e-17)
(0.656035 0.0990713 -3.54738e-19)
(0.68588 0.105836 1.15815e-17)
(0.71881 0.113084 2.02755e-17)
(0.754084 0.120771 4.75251e-19)
(0.796748 0.128881 -7.04621e-18)
(0.833656 0.136776 -4.68984e-18)
(0.912892 0.144243 0)
(1.01526 0.21153 0)
(0.942795 0.196266 0)
(0.799296 0.181291 -6.02591e-18)
(0.645541 0.152115 1.27814e-17)
(0.496346 0.109506 0)
(0.344157 0.0660046 -1.45034e-17)
(0.198224 0.0258237 0)
(0.0579462 -0.00672008 0)
(-0.0301347 -0.019119 0)
(-0.0481362 -0.0241236 -3.33623e-17)
(-0.0591673 -0.0137145 3.07169e-17)
(-0.0579541 0.00601267 2.8456e-17)
(-0.0640645 0.0175387 0)
(-0.0835781 0.0180806 1.13528e-17)
(-0.105375 0.010596 0)
(-0.122297 -0.0103059 0)
(-0.126564 -0.0459368 0)
(-0.104842 -0.0765132 8.92731e-18)
(-0.0501013 -0.079957 -1.76239e-17)
(0.0138015 -0.0543658 -9.10114e-18)
(0.0430473 -0.00603208 0)
(0.0229649 0.0711645 0)
(-0.0617636 0.181241 0)
(-0.198642 0.284909 -7.84513e-18)
(-0.343823 0.341098 0)
(-0.462198 0.336494 1.18593e-18)
(-0.536049 0.283973 -1.64825e-18)
(-0.565924 0.205965 0)
(-0.563583 0.121012 0)
(-0.543363 0.0395005 0)
(-0.517788 -0.0339619 0)
(-0.476573 -0.0965759 1.38337e-19)
(-0.421674 -0.148857 0)
(-0.354788 -0.191436 1.68478e-19)
(-0.278001 -0.224182 1.20576e-19)
(-0.1943 -0.245651 0)
(-0.107973 -0.254042 0)
(-0.0236245 -0.248959 1.71023e-18)
(0.0550836 -0.231765 0)
(0.126019 -0.206693 -4.02337e-18)
(0.187163 -0.177261 0)
(0.237804 -0.146423 -4.0247e-18)
(0.27842 -0.116608 0)
(0.310037 -0.0891849 4.25808e-18)
(0.334128 -0.0648532 4.08181e-18)
(0.352292 -0.0438573 0)
(0.365977 -0.0261236 0)
(0.376374 -0.0114066 -8.26679e-18)
(0.384418 0.000605269 0)
(0.390824 0.0102355 -8.73639e-20)
(0.396142 0.0178085 0)
(0.400785 0.0237026 0)
(0.405064 0.0282377 0)
(0.409248 0.0317332 0)
(0.41363 0.0344997 1.74324e-17)
(0.418458 0.0367733 0)
(0.423886 0.0387544 -1.76553e-17)
(0.430068 0.0406015 8.89635e-18)
(0.437149 0.0424336 -8.87807e-18)
(0.445208 0.0443269 -1.7913e-17)
(0.454259 0.0463521 1.79388e-17)
(0.46433 0.0485283 -1.7937e-17)
(0.475471 0.0508892 1.79034e-17)
(0.487721 0.0534756 0)
(0.501122 0.0563174 -2.6497e-17)
(0.515724 0.0594432 -1.75609e-17)
(0.531586 0.0628799 0)
(0.548777 0.0666533 8.41956e-18)
(0.56738 0.0707886 1.6713e-17)
(0.587491 0.0753107 0)
(0.609226 0.0802443 0)
(0.632727 0.085613 0)
(0.658153 0.0914369 0)
(0.685735 0.0977292 -1.33299e-17)
(0.715633 0.104483 5.85725e-18)
(0.74848 0.111658 -1.07906e-17)
(0.783544 0.119114 9.10823e-18)
(0.825071 0.126564 -3.27458e-18)
(0.85961 0.133235 0)
(0.930355 0.13766 0)
(0.978946 0.202982 0)
(0.979986 0.196762 -5.30775e-18)
(0.969222 0.210152 5.9435e-18)
(0.93579 0.213824 -5.42865e-18)
(0.86969 0.199385 5.30863e-18)
(0.77101 0.172577 5.39018e-18)
(0.648571 0.140339 0)
(0.512889 0.105999 0)
(0.375039 0.0710474 0)
(0.248308 0.0373831 1.41081e-17)
(0.128788 0.00664148 0)
(0.0347192 -0.00636692 0)
(-0.000905214 0.0157035 0)
(-0.0105788 0.034549 -1.33747e-17)
(-0.0391852 0.0367087 0)
(-0.0806354 0.00803846 -9.68953e-18)
(-0.124941 -0.0483496 0)
(-0.156409 -0.106049 8.40041e-18)
(-0.15667 -0.126456 4.19788e-18)
(-0.108277 -0.083162 0)
(-0.0554665 0.0109701 -5.92512e-18)
(-0.0481923 0.139402 0)
(-0.0871434 0.282667 0)
(-0.152198 0.397605 5.52544e-18)
(-0.208346 0.439659 0)
(-0.237062 0.399884 -5.95556e-19)
(-0.238814 0.304102 3.78448e-18)
(-0.227071 0.189483 0)
(-0.21165 0.0822297 0)
(-0.19317 -0.00994768 1.55002e-18)
(-0.163936 -0.0919335 0)
(-0.122842 -0.165106 -1.84581e-19)
(-0.0729781 -0.227377 0)
(-0.0152756 -0.280139 -1.64024e-19)
(0.0488257 -0.323471 2.55449e-20)
(0.115965 -0.352302 0)
(0.182924 -0.361674 2.34754e-19)
(0.246431 -0.350792 -6.01719e-19)
(0.303417 -0.323203 -7.04174e-19)
(0.351753 -0.284491 -1.56536e-18)
(0.390106 -0.240126 1.68676e-18)
(0.418103 -0.194623 1.97233e-18)
(0.436466 -0.151524 0)
(0.446781 -0.113194 4.02018e-18)
(0.451114 -0.0807711 -8.12009e-18)
(0.451582 -0.0543817 0)
(0.449993 -0.0335006 -4.21488e-18)
(0.447684 -0.0172981 8.78204e-18)
(0.445523 -0.00487488 0)
(0.443993 0.00454717 -4.58499e-18)
(0.443382 0.0116108 4.55141e-18)
(0.443732 0.0167643 -4.60672e-18)
(0.444945 0.0204103 -4.65949e-18)
(0.447019 0.022899 0)
(0.449906 0.0245192 -9.53759e-18)
(0.453571 0.0254888 -4.79355e-18)
(0.458049 0.0260151 4.85854e-18)
(0.463366 0.0262882 4.86482e-18)
(0.469548 0.0264484 9.80598e-18)
(0.476663 0.0265766 0)
(0.48474 0.026725 0)
(0.493809 0.0269786 0)
(0.503979 0.0274173 -4.90097e-18)
(0.51532 0.0280691 0)
(0.527878 0.0289534 9.72258e-18)
(0.541711 0.0300874 0)
(0.556882 0.0314849 -4.72423e-18)
(0.573461 0.0331572 -9.33314e-18)
(0.591529 0.0351142 0)
(0.611181 0.0373643 -4.39849e-18)
(0.632531 0.0399136 4.23682e-18)
(0.655715 0.0427653 0)
(0.680884 0.0459168 0)
(0.708254 0.0493547 0)
(0.737954 0.0530452 -6.48962e-18)
(0.770548 0.0569147 0)
(0.805209 0.0608083 -2.31192e-18)
(0.845909 0.0644669 3.62649e-18)
(0.879278 0.0672389 0)
(0.948572 0.0691075 4.63499e-19)
(0.970713 0.210866 0)
(0.964282 0.199408 3.00563e-18)
(0.966717 0.205247 0)
(0.976408 0.214395 2.99951e-18)
(0.978993 0.217446 -5.49968e-18)
(0.961491 0.212905 -2.57569e-18)
(0.918765 0.201826 0)
(0.852153 0.184294 0)
(0.763757 0.160135 0)
(0.658163 0.132171 2.6616e-18)
(0.541736 0.103296 2.76973e-18)
(0.421988 0.0752307 0)
(0.30637 0.0529731 0)
(0.214712 0.0434584 0)
(0.154803 0.0481094 0)
(0.115444 0.0515907 1.008e-17)
(0.0798722 0.0180545 -4.90174e-18)
(0.0130078 -0.064589 0)
(-0.0668113 -0.131709 -4.97659e-18)
(-0.107848 -0.132912 2.89254e-18)
(-0.0643553 -0.0241304 6.59417e-18)
(-0.0108395 0.136295 0)
(0.0115535 0.297895 0)
(0.0233096 0.418017 -3.23348e-18)
(0.0394777 0.453535 0)
(0.0647496 0.400655 7.26239e-19)
(0.0918759 0.293487 -1.9375e-18)
(0.111117 0.175345 0)
(0.128218 0.0682787 0)
(0.15164 -0.0329996 -1.75874e-18)
(0.182947 -0.130319 0)
(0.218652 -0.215328 1.01596e-18)
(0.25849 -0.285165 0)
(0.304046 -0.343914 4.22681e-20)
(0.35483 -0.392446 -2.08801e-20)
(0.406693 -0.423784 -1.36864e-20)
(0.455217 -0.430652 -2.9369e-19)
(0.498045 -0.412634 5.36034e-19)
(0.533888 -0.374814 6.44067e-19)
(0.561283 -0.32382 2.13679e-18)
(0.57872 -0.266014 -8.77384e-19)
(0.585517 -0.20729 9.42381e-19)
(0.582492 -0.152721 0)
(0.571873 -0.105801 1.87995e-18)
(0.556601 -0.0680389 2.17949e-18)
(0.539525 -0.0392306 0)
(0.522856 -0.018138 4.53135e-18)
(0.508043 -0.00317915 2.29261e-18)
(0.495849 0.00717604 0)
(0.4865 0.0142135 -7.30618e-18)
(0.47988 0.018931 -4.97976e-18)
(0.475754 0.0219724 2.54126e-18)
(0.473915 0.0238582 5.11751e-18)
(0.474023 0.0249346 0)
(0.475738 0.025406 2.61162e-18)
(0.478802 0.0254376 7.92929e-18)
(0.48304 0.0251461 5.33787e-18)
(0.488326 0.0246215 -5.38088e-18)
(0.494554 0.023943 -2.70577e-18)
(0.501661 0.0231742 0)
(0.509705 0.0223588 0)
(0.518792 0.0216181 0)
(0.528942 0.0210075 8.15974e-18)
(0.540158 0.0205452 2.70269e-18)
(0.5525 0.0202729 0)
(0.566039 0.0202251 -5.30573e-18)
(0.580849 0.0204245 5.24833e-18)
(0.597014 0.020888 -5.13343e-18)
(0.614626 0.0216269 -5.01281e-18)
(0.633792 0.0226475 2.78908e-20)
(0.654632 0.0239515 -4.7148e-18)
(0.677286 0.0255356 0)
(0.701905 0.0273896 0)
(0.728692 0.0294925 0)
(0.757757 0.0318061 0)
(0.789608 0.0342584 0)
(0.82339 0.0367285 5.11863e-18)
(0.862767 0.0389959 -1.92173e-18)
(0.894947 0.0407411 0)
(0.959659 0.0413241 -5.20559e-19)
(0.972922 0.217851 0)
(0.965133 0.206588 3.46652e-18)
(0.957414 0.202532 4.3799e-19)
(0.95865 0.203861 3.37906e-18)
(0.969131 0.206888 0)
(0.981333 0.209551 -2.95589e-18)
(0.986939 0.210333 0)
(0.980213 0.207409 -6.70921e-19)
(0.957155 0.199509 0)
(0.915301 0.186918 -3.0933e-18)
(0.854877 0.170628 -2.43336e-18)
(0.778017 0.151119 -6.12439e-19)
(0.687029 0.129525 6.0995e-19)
(0.590673 0.108464 0)
(0.50155 0.0903494 5.73191e-19)
(0.427092 0.0730304 0)
(0.370629 0.0461772 4.16948e-18)
(0.318716 0.0120488 -5.86995e-19)
(0.242155 -0.0384779 0)
(0.122894 -0.103405 -4.12687e-18)
(0.0302867 -0.0904716 0)
(0.0729043 0.0628897 0)
(0.153523 0.243059 0)
(0.229309 0.372007 0)
(0.296837 0.413031 -9.05564e-20)
(0.35394 0.369099 0)
(0.394632 0.273405 0)
(0.418304 0.161889 -1.43207e-19)
(0.436808 0.051 0)
(0.461773 -0.0585729 0)
(0.488269 -0.161817 0)
(0.512004 -0.250623 4.90064e-20)
(0.537098 -0.324772 0)
(0.569384 -0.389328 6.13921e-20)
(0.607145 -0.441691 0)
(0.643109 -0.471497 1.27565e-20)
(0.673175 -0.472424 1.05286e-19)
(0.697878 -0.446598 2.59256e-20)
(0.717605 -0.399866 -6.30312e-20)
(0.730099 -0.338159 -6.66232e-19)
(0.732035 -0.267875 -7.54569e-19)
(0.721621 -0.196532 8.40139e-19)
(0.699874 -0.131453 -2.11043e-19)
(0.670194 -0.0777386 -2.01442e-18)
(0.636931 -0.0373044 2.17184e-18)
(0.604049 -0.00922972 -2.76263e-19)
(0.574282 0.00881946 0)
(0.549024 0.0194732 -2.50236e-18)
(0.528737 0.0250324 0)
(0.513343 0.0273309 2.64668e-18)
(0.502361 0.0276494 0)
(0.495215 0.0268688 2.76692e-18)
(0.491331 0.0254815 0)
(0.49015 0.0237615 -7.14526e-19)
(0.491182 0.0218664 -2.90051e-18)
(0.494033 0.0198861 -2.93479e-18)
(0.498401 0.0178635 7.41544e-19)
(0.504055 0.0158198 0)
(0.510824 0.0137774 3.01171e-18)
(0.518605 0.0117828 -7.5778e-19)
(0.527385 0.00989812 0)
(0.53713 0.00814931 7.60977e-19)
(0.547776 0.0065047 -3.03111e-18)
(0.559365 0.00500068 -3.014e-18)
(0.571979 0.00366809 0)
(0.585682 0.00251985 5.91367e-18)
(0.600548 0.00156905 0)
(0.616666 0.000825404 5.72144e-18)
(0.634138 0.000294185 5.58792e-18)
(0.653079 -2.36637e-05 5.4238e-18)
(0.673619 -0.000131401 6.51654e-19)
(0.695907 -3.67329e-05 0)
(0.720099 0.000247901 0)
(0.746402 0.000703227 0)
(0.774918 0.00130173 -4.88255e-19)
(0.806137 0.00199735 0)
(0.839183 0.00272666 -2.48644e-18)
(0.877632 0.00336714 2.42293e-18)
(0.908855 0.00378406 1.63858e-19)
(0.97211 0.00369483 6.96572e-20)
(0.974033 0.220572 -2.12679e-18)
(0.969606 0.211979 2.05127e-18)
(0.961656 0.206107 -4.96237e-19)
(0.955441 0.203071 0)
(0.955157 0.201396 0)
(0.96103 0.200667 0)
(0.971066 0.200929 0)
(0.9824 0.201464 2.29384e-18)
(0.991238 0.201002 0)
(0.993145 0.198481 -2.05528e-18)
(0.984328 0.193279 -2.58856e-18)
(0.962626 0.185408 6.09085e-19)
(0.927249 0.174963 1.77752e-18)
(0.879003 0.160935 0)
(0.821749 0.142266 -2.64809e-18)
(0.761227 0.117627 0)
(0.704323 0.0865463 -2.0232e-18)
(0.647524 0.0502965 5.19015e-19)
(0.581782 0.0176384 -2.60877e-18)
(0.501385 -0.000144466 -2.37244e-18)
(0.381215 -0.0142641 0)
(0.2718 0.0167242 0)
(0.294756 0.146352 -1.58687e-18)
(0.39631 0.280778 0)
(0.502553 0.341926 -3.70035e-19)
(0.587297 0.320586 0)
(0.644339 0.244016 0)
(0.678348 0.142397 1.37014e-19)
(0.70203 0.0324305 0)
(0.720894 -0.0772323 0)
(0.731951 -0.178509 0)
(0.738477 -0.266648 -4.69967e-20)
(0.750495 -0.34539 -7.64935e-20)
(0.772426 -0.41654 -1.12301e-20)
(0.796166 -0.470422 0)
(0.813342 -0.495934 0)
(0.825622 -0.491662 -1.97262e-20)
(0.83807 -0.461984 -1.19643e-19)
(0.849947 -0.410206 6.46815e-20)
(0.855026 -0.33936 0)
(0.846958 -0.256121 0)
(0.823081 -0.17111 -3.48114e-19)
(0.785291 -0.0951854 2.3078e-19)
(0.738816 -0.0355956 -9.4897e-19)
(0.69006 0.00581491 1.05585e-18)
(0.644137 0.0310142 3.00031e-19)
(0.604042 0.0437994 0)
(0.571055 0.0481342 1.30644e-18)
(0.545298 0.0473565 0)
(0.526206 0.0438368 0)
(0.512884 0.039106 0)
(0.504385 0.0340713 0)
(0.499836 0.0291885 0)
(0.498481 0.0246511 7.9668e-19)
(0.499692 0.0205135 0)
(0.502971 0.0167562 3.28444e-18)
(0.50793 0.0133259 -8.29039e-19)
(0.514278 0.0101618 0)
(0.521799 0.00721292 3.37668e-18)
(0.530343 0.00444578 8.47412e-19)
(0.539825 0.00183587 3.40867e-18)
(0.550178 -0.000671492 -8.52257e-19)
(0.561397 -0.0030781 0)
(0.573526 -0.005351 -3.38087e-18)
(0.586587 -0.0074793 0)
(0.600625 -0.00945637 0)
(0.615717 -0.0112721 -3.2621e-18)
(0.631955 -0.0129206 0)
(0.649443 -0.0144003 0)
(0.668303 -0.0157137 -3.03087e-18)
(0.688672 -0.0168673 -7.29233e-19)
(0.710709 -0.0178714 0)
(0.734577 -0.0187386 0)
(0.76049 -0.0194839 0)
(0.788557 -0.0201218 5.47417e-19)
(0.819266 -0.0206706 -1.9112e-18)
(0.851751 -0.0211369 -3.95798e-19)
(0.889527 -0.0215628 -3.00558e-19)
(0.920182 -0.0218816 -1.84487e-19)
(0.98198 -0.0225078 -3.91016e-19)
(0.974216 0.221581 7.34129e-18)
(0.971765 0.215001 -7.04493e-18)
(0.966745 0.209982 0)
(0.961079 0.206447 -4.41317e-18)
(0.95683 0.203041 0)
(0.954964 0.199403 -4.00426e-18)
(0.956198 0.196203 0)
(0.961297 0.193931 5.38447e-18)
(0.970182 0.192426 -6.72832e-18)
(0.981356 0.191224 3.11523e-18)
(0.992338 0.189785 2.91693e-18)
(1.00048 0.187622 0)
(1.00356 0.184016 -7.7299e-18)
(0.99958 0.177337 -4.83623e-18)
(0.987132 0.165418 6.70056e-18)
(0.965828 0.145969 0)
(0.936547 0.118739 1.99098e-18)
(0.898577 0.0885494 0)
(0.848799 0.0638555 2.46497e-18)
(0.786322 0.0543915 2.93875e-18)
(0.707759 0.0635037 0)
(0.601517 0.0824909 0)
(0.525679 0.127396 -1.42521e-18)
(0.551726 0.202936 0)
(0.642309 0.257993 4.94412e-19)
(0.737225 0.256262 0)
(0.808744 0.202395 0)
(0.854289 0.117082 0)
(0.881269 0.0176557 0)
(0.892445 -0.0842416 0)
(0.891997 -0.180544 0)
(0.892161 -0.270746 0)
(0.902031 -0.356893 1.9081e-20)
(0.915653 -0.431504 6.21518e-21)
(0.92021 -0.481047 1.92436e-20)
(0.916353 -0.501541 0)
(0.916483 -0.49782 0)
(0.925591 -0.470863 9.79277e-20)
(0.93581 -0.416854 -3.83323e-19)
(0.935969 -0.336105 4.32213e-19)
(0.919133 -0.237845 0)
(0.88377 -0.137546 1.64274e-18)
(0.832908 -0.0503731 -1.57732e-18)
(0.773252 0.0144022 -8.27661e-19)
(0.71294 0.0550149 -1.13475e-18)
(0.658317 0.0752775 0)
(0.612279 0.0810658 0)
(0.57558 0.0778315 -4.23512e-18)
(0.547758 0.0698252 0)
(0.527725 0.0599028 0)
(0.514198 0.0497599 0)
(0.505958 0.0402724 3.40427e-18)
(0.501948 0.0317953 6.99674e-18)
(0.501295 0.0243861 0)
(0.503299 0.0179563 0)
(0.507412 0.0123574 -3.68469e-18)
(0.513215 0.00742869 0)
(0.520395 0.00302145 7.5451e-18)
(0.528722 -0.000987064 3.81039e-18)
(0.538036 -0.00469069 0)
(0.548236 -0.0081552 3.84565e-18)
(0.559263 -0.0114289 7.68535e-18)
(0.571091 -0.0145095 7.66862e-18)
(0.583723 -0.0174316 3.79791e-18)
(0.597188 -0.0202123 -7.54389e-18)
(0.611538 -0.0228545 7.45362e-18)
(0.626848 -0.0253638 1.10021e-17)
(0.643211 -0.027746 0)
(0.660735 -0.0300085 0)
(0.679549 -0.032161 3.40213e-18)
(0.699795 -0.0342155 0)
(0.721639 -0.0361855 6.26394e-18)
(0.745254 -0.0380841 5.89828e-18)
(0.770863 -0.0399223 0)
(0.798584 -0.0417022 4.93745e-18)
(0.828924 -0.0434167 -2.16633e-18)
(0.861028 -0.0450184 0)
(0.898424 -0.0464762 0)
(0.928751 -0.0475561 0)
(0.990132 -0.0486041 -3.56631e-19)
(0.974269 0.222191 -5.60102e-18)
(0.972501 0.216809 5.36035e-18)
(0.969101 0.212332 -1.0454e-17)
(0.965263 0.208828 4.99842e-18)
(0.96191 0.205349 0)
(0.959014 0.201309 4.53928e-18)
(0.95659 0.196913 -8.69648e-18)
(0.955442 0.192574 -8.17221e-18)
(0.956727 0.188543 -7.84014e-20)
(0.961223 0.184992 0)
(0.969071 0.182013 0)
(0.979805 0.179428 6.45423e-18)
(0.992493 0.176597 5.92391e-18)
(1.00561 0.172169 -5.70046e-18)
(1.01677 0.164105 -1.54394e-17)
(1.02265 0.150024 0)
(1.01955 0.129604 0)
(1.00498 0.107589 0)
(0.977868 0.0911561 0)
(0.939955 0.0889533 0)
(0.898589 0.107905 0)
(0.848451 0.139426 0)
(0.787854 0.168898 2.93961e-18)
(0.758498 0.195138 -4.1573e-18)
(0.786798 0.211986 0)
(0.848383 0.202024 0)
(0.90961 0.158022 0)
(0.954153 0.0870392 0)
(0.979756 0.00119635 0)
(0.990808 -0.0905483 4.63989e-19)
(0.995582 -0.183398 0)
(1.00311 -0.276598 0)
(1.01068 -0.364015 1.10321e-19)
(1.00466 -0.4317 0)
(0.982236 -0.472956 -2.06344e-20)
(0.962159 -0.494925 0)
(0.960085 -0.500707 1.60119e-19)
(0.968984 -0.47948 0)
(0.972272 -0.421086 7.41371e-19)
(0.960306 -0.328099 -4.7553e-19)
(0.931649 -0.21453 -8.24148e-19)
(0.887433 -0.0997224 -1.449e-18)
(0.829165 -0.00234168 1.76802e-18)
(0.763307 0.0660666 2.01017e-18)
(0.699448 0.104191 4.26232e-18)
(0.643745 0.118252 4.93566e-18)
(0.598388 0.116193 0)
(0.563423 0.105008 -3.02542e-18)
(0.537814 0.089788 0)
(0.520076 0.0737227 0)
(0.508712 0.0585441 -7.34256e-18)
(0.502418 0.0450241 -3.80431e-18)
(0.500115 0.0333628 2.1399e-20)
(0.500944 0.0234591 0)
(0.504231 0.0150798 0)
(0.50946 0.00795591 0)
(0.51624 0.00182889 8.43267e-18)
(0.524278 -0.00352703 -8.48942e-18)
(0.533361 -0.00829669 -8.55355e-18)
(0.54334 -0.012624 0)
(0.554119 -0.016618 -8.63307e-18)
(0.565639 -0.0203629 2.51143e-20)
(0.577875 -0.0239168 -8.64062e-18)
(0.590842 -0.0273168 8.60194e-18)
(0.604576 -0.0305899 -2.51019e-20)
(0.619129 -0.0337529 -8.39194e-18)
(0.634575 -0.0368181 -8.26384e-18)
(0.651008 -0.0397976 0)
(0.66854 -0.042704 0)
(0.687302 -0.0455515 0)
(0.707442 -0.0483558 0)
(0.729129 -0.0511332 -7.05392e-18)
(0.752542 -0.0538978 -6.6434e-18)
(0.777915 -0.0566589 0)
(0.805379 -0.0594098 -5.564e-18)
(0.835462 -0.0621258 9.76329e-18)
(0.867331 -0.0647133 0)
(0.904565 -0.0670849 0)
(0.934794 -0.0688194 0)
(0.996182 -0.0703113 1.61432e-18)
(0.974308 0.222647 1.30505e-17)
(0.972794 0.218054 0)
(0.969977 0.213801 2.38417e-17)
(0.966984 0.210117 0)
(0.964664 0.206581 1.09898e-17)
(0.962837 0.202715 0)
(0.960972 0.198414 9.85387e-18)
(0.959022 0.193771 0)
(0.957475 0.18888 -9.03207e-18)
(0.957033 0.183886 0)
(0.958459 0.178989 1.59716e-17)
(0.962486 0.17427 -7.42414e-18)
(0.969646 0.169492 0)
(0.979902 0.163857 1.29145e-17)
(0.992105 0.155959 -2.7782e-19)
(1.00344 0.144096 -1.15907e-17)
(1.00947 0.128269 1.14547e-17)
(1.00681 0.112185 0)
(0.995343 0.101933 0)
(0.978112 0.103975 1.28191e-17)
(0.963465 0.123544 0)
(0.958003 0.158311 -6.1027e-18)
(0.952564 0.192741 0)
(0.945684 0.211059 4.308e-18)
(0.953355 0.208149 0)
(0.980643 0.182971 1.27566e-18)
(1.01613 0.135621 0)
(1.04664 0.0697091 0)
(1.0679 -0.00869498 -5.62037e-19)
(1.08171 -0.095554 -4.93684e-19)
(1.09045 -0.187449 0)
(1.09191 -0.278495 0)
(1.07601 -0.356656 -3.93053e-19)
(1.03691 -0.412328 0)
(0.992769 -0.452218 0)
(0.970721 -0.486549 0)
(0.968978 -0.50384 -1.73821e-19)
(0.964559 -0.48172 0)
(0.943778 -0.413216 -9.31951e-19)
(0.908486 -0.308612 -5.34646e-19)
(0.866428 -0.184972 9.67455e-19)
(0.819168 -0.0610414 0)
(0.763425 0.0427927 0)
(0.703197 0.112301 3.50309e-18)
(0.647189 0.146708 -4.68419e-18)
(0.600177 0.154148 -5.43097e-18)
(0.563337 0.144556 0)
(0.536119 0.126214 3.50054e-20)
(0.517181 0.104787 7.321e-18)
(0.504964 0.083601 0)
(0.498052 0.0643202 8.20631e-18)
(0.495289 0.0475656 8.57167e-18)
(0.495758 0.0333726 -8.81824e-18)
(0.498749 0.0214916 0)
(0.50372 0.0115654 0)
(0.510261 0.0032235 0)
(0.518064 -0.00387323 -9.49714e-18)
(0.526903 -0.0100144 0)
(0.536617 -0.015436 0)
(0.547093 -0.0203234 0)
(0.558263 -0.0248183 1.95799e-17)
(0.570091 -0.0290248 -9.77816e-18)
(0.582573 -0.0330152 0)
(0.59573 -0.036834 -9.70807e-18)
(0.609595 -0.0405251 -9.67715e-18)
(0.624231 -0.0441197 1.90594e-17)
(0.639717 -0.0476407 -1.87718e-17)
(0.656148 -0.0511092 -1.84187e-17)
(0.673638 -0.0545453 0)
(0.692319 -0.0579697 -1.74641e-17)
(0.712342 -0.0614027 0)
(0.733879 -0.0648651 0)
(0.757114 -0.0683734 0)
(0.782288 -0.071938 1.40483e-17)
(0.809545 -0.0755478 -1.27297e-17)
(0.83944 -0.0791688 -1.66888e-17)
(0.871163 -0.0826695 0)
(0.908386 -0.085925 7.07974e-18)
(0.938646 -0.088316 0)
(1.00052 -0.0903005 -2.78714e-18)
(0.97432 0.223002 -1.48616e-17)
(0.972902 0.218999 -1.42711e-17)
(0.970318 0.214916 -2.73132e-17)
(0.967627 0.211044 0)
(0.965662 0.207312 -2.50573e-17)
(0.964403 0.203409 -1.19591e-17)
(0.963415 0.199187 0)
(0.962442 0.194653 2.15806e-17)
(0.961477 0.189801 2.02926e-17)
(0.96063 0.184615 0)
(0.960157 0.179124 -1.81437e-17)
(0.960537 0.173343 0)
(0.96239 0.167131 0)
(0.966179 0.160001 1.52879e-17)
(0.971702 0.151107 1.41429e-17)
(0.977499 0.139527 -3.04396e-19)
(0.980581 0.125682 3.32359e-19)
(0.978345 0.112547 0)
(0.971161 0.104893 0)
(0.962663 0.107369 -1.45845e-17)
(0.959856 0.123156 -1.42287e-17)
(0.9729 0.152169 2.00193e-17)
(1.00261 0.185545 5.68083e-18)
(1.03693 0.206956 4.4903e-18)
(1.0687 0.204854 0)
(1.09856 0.177683 -1.38208e-18)
(1.12597 0.129404 0)
(1.14817 0.0650361 0)
(1.16315 -0.0112296 6.44989e-19)
(1.1686 -0.096134 0)
(1.16081 -0.183872 0)
(1.13418 -0.265495 0)
(1.08409 -0.330963 3.79925e-19)
(1.02145 -0.381593 -3.91307e-19)
(0.977171 -0.432048 2.24067e-19)
(0.960113 -0.480348 0)
(0.941517 -0.498134 0)
(0.901104 -0.464668 0)
(0.843293 -0.384725 6.56476e-19)
(0.782072 -0.27503 6.35651e-19)
(0.730222 -0.150725 -9.9473e-19)
(0.687522 -0.0258826 0)
(0.645421 0.0787108 0)
(0.602087 0.146705 -7.55349e-18)
(0.563959 0.176945 -4.71822e-18)
(0.533847 0.178661 0)
(0.511902 0.16312 0)
(0.497194 0.139416 7.52213e-18)
(0.488395 0.113498 1.80862e-20)
(0.484184 0.0886995 0)
(0.483487 0.0665743 0)
(0.485483 0.0476004 -9.62557e-18)
(0.489557 0.03168 0)
(0.495254 0.0184535 0)
(0.502236 0.0074748 0)
(0.510256 -0.00169617 0)
(0.519136 -0.00945342 0)
(0.528751 -0.0161288 -2.17688e-17)
(0.539015 -0.0219917 0)
(0.549876 -0.0272535 0)
(0.561308 -0.0320767 6.75251e-20)
(0.573309 -0.0365827 0)
(0.585894 -0.040861 0)
(0.599099 -0.0449821 0)
(0.612976 -0.0489927 4.36769e-17)
(0.627593 -0.0529299 -2.15404e-17)
(0.643034 -0.0568246 2.12165e-17)
(0.659397 -0.0607033 -8.01282e-20)
(0.676798 -0.06459 0)
(0.69537 -0.0685095 1.97419e-17)
(0.715262 -0.0724856 -1.91201e-17)
(0.736648 -0.0765423 0)
(0.759715 -0.0806991 0)
(0.78471 -0.0849693 1.12171e-19)
(0.811788 -0.0893415 1.43933e-17)
(0.841534 -0.0937815 1.26167e-17)
(0.873155 -0.0981281 0)
(0.910453 -0.102245 -8.00867e-18)
(0.940819 -0.105286 0)
(1.00347 -0.107877 2.1076e-18)
(0.974305 0.223308 0)
(0.972869 0.219778 3.25918e-17)
(0.970374 0.215821 3.12898e-17)
(0.967851 0.211808 0)
(0.966017 0.207887 1.4297e-17)
(0.964877 0.203838 -1.3777e-17)
(0.96416 0.199514 0)
(0.963733 0.19494 -2.45192e-17)
(0.963569 0.190125 0)
(0.963607 0.185013 0)
(0.963784 0.17954 0)
(0.964143 0.173616 0)
(0.96485 0.167037 0)
(0.966052 0.159383 2.13853e-19)
(0.967571 0.150066 -1.667e-17)
(0.968531 0.138605 -2.79065e-19)
(0.967226 0.125705 2.93652e-19)
(0.962233 0.113912 0)
(0.954185 0.106889 0)
(0.946573 0.108077 0)
(0.945099 0.119301 2.42278e-19)
(0.958204 0.140087 -3.38564e-19)
(0.993021 0.165669 -6.51749e-18)
(1.04466 0.185003 -5.11169e-18)
(1.09939 0.186099 0)
(1.14667 0.163784 -2.55457e-18)
(1.18194 0.120098 1.59995e-18)
(1.2044 0.059867 0)
(1.212 -0.0120306 -4.81835e-20)
(1.20123 -0.0905342 6.70164e-19)
(1.16971 -0.168957 0)
(1.11754 -0.23963 0)
(1.05002 -0.298252 9.12008e-19)
(0.990284 -0.354617 -9.73897e-20)
(0.959244 -0.417984 -5.40497e-19)
(0.930299 -0.467385 0)
(0.868746 -0.472026 0)
(0.782386 -0.425219 -8.33681e-19)
(0.693199 -0.340789 0)
(0.615459 -0.234973 -3.89977e-19)
(0.560285 -0.118104 3.92807e-19)
(0.527059 0.000834996 0)
(0.501786 0.101551 2.59924e-18)
(0.479584 0.166419 8.0505e-18)
(0.463802 0.193007 5.37218e-18)
(0.454636 0.190679 0)
(0.450885 0.171329 -1.51006e-17)
(0.451216 0.144401 0)
(0.454428 0.115903 -9.24407e-18)
(0.459596 0.0890984 0)
(0.466108 0.065427 0)
(0.473578 0.0452606 0)
(0.481762 0.0284149 0)
(0.490507 0.014464 0)
(0.49972 0.00291089 -2.36726e-17)
(0.509347 -0.00672345 2.40639e-17)
(0.519363 -0.0148635 0)
(0.52976 -0.0218644 2.45606e-17)
(0.540546 -0.0280142 -2.48366e-17)
(0.55174 -0.0335388 0)
(0.56337 -0.038613 -2.50206e-17)
(0.575472 -0.0433684 0)
(0.588092 -0.047902 0)
(0.601287 -0.052286 0)
(0.615122 -0.0565736 -2.47482e-17)
(0.629674 -0.0608078 2.45399e-17)
(0.645033 -0.0650246 -2.41819e-17)
(0.661301 -0.0692546 4.73913e-17)
(0.678593 -0.0735262 -2.32023e-17)
(0.697042 -0.0778686 0)
(0.716799 -0.0823087 2.16415e-17)
(0.738036 -0.0868753 -2.07885e-17)
(0.760941 -0.0915911 0)
(0.785767 -0.0964749 1.32935e-19)
(0.812677 -0.101518 -1.65675e-17)
(0.842286 -0.106695 0)
(0.873818 -0.111822 0)
(0.911228 -0.116781 -9.33603e-18)
(0.941716 -0.120477 0)
(1.00538 -0.123783 -2.47511e-18)
(0.974266 0.223598 0)
(0.972717 0.220459 -1.86204e-17)
(0.970208 0.216556 -1.78716e-17)
(0.967805 0.212415 0)
(0.96609 0.20835 3.29321e-17)
(0.964995 0.204168 3.11537e-17)
(0.964312 0.199708 0)
(0.963995 0.195006 2.82897e-17)
(0.964086 0.190098 -2.68205e-17)
(0.964577 0.184943 0)
(0.965402 0.179469 0)
(0.966491 0.173565 0)
(0.967772 0.167003 0)
(0.969088 0.159391 -1.99972e-17)
(0.970019 0.150245 -1.94154e-17)
(0.969707 0.139261 1.80817e-17)
(0.966961 0.12723 -5.4327e-17)
(0.961078 0.116387 0)
(0.952879 0.109646 0)
(0.945379 0.109634 1.86528e-17)
(0.943233 0.117416 3.63323e-17)
(0.952145 0.131753 -1.69612e-17)
(0.978618 0.148875 0)
(1.0242 0.16182 0)
(1.08026 0.161866 -4.59845e-18)
(1.13348 0.143252 6.32947e-18)
(1.17363 0.105605 -4.34011e-18)
(1.19571 0.0525729 0)
(1.19672 -0.0108803 0)
(1.17457 -0.0796974 -7.67564e-19)
(1.13196 -0.148661 0)
(1.07369 -0.21241 2.06858e-18)
(1.01162 -0.271615 -1.03449e-18)
(0.969741 -0.336891 -9.58979e-20)
(0.939449 -0.402236 -4.6264e-20)
(0.870012 -0.437069 0)
(0.754237 -0.425393 0)
(0.634015 -0.37372 -5.4054e-20)
(0.53062 -0.294019 6.93223e-19)
(0.44743 -0.197428 1.33692e-18)
(0.393307 -0.0912515 1.98202e-18)
(0.367498 0.0186316 1.64834e-18)
(0.355447 0.112787 -3.07336e-18)
(0.352981 0.173345 -4.55142e-18)
(0.359488 0.196665 5.96909e-18)
(0.371676 0.191759 0)
(0.386623 0.17052 1.72023e-17)
(0.402441 0.14228 -1.93527e-17)
(0.418036 0.112898 0)
(0.432888 0.0854977 0)
(0.446858 0.0614132 0)
(0.460002 0.0409459 0)
(0.472455 0.0238687 0)
(0.484377 0.00972994 0)
(0.495922 -0.00198509 2.67273e-17)
(0.507237 -0.0117667 -5.44224e-17)
(0.51845 -0.0200477 -2.76098e-17)
(0.529678 -0.0271886 2.78982e-17)
(0.541024 -0.0334815 2.80495e-17)
(0.552579 -0.0391551 -2.8304e-17)
(0.564427 -0.0443862 2.84285e-17)
(0.576645 -0.0493086 0)
(0.589311 -0.0540226 2.85162e-17)
(0.602501 -0.0586043 -2.84512e-17)
(0.616298 -0.0631117 0)
(0.630787 -0.0675897 -5.56671e-17)
(0.646066 -0.0720772 2.73847e-17)
(0.662239 -0.0766074 -5.38777e-17)
(0.679425 -0.081211 2.628e-17)
(0.697757 -0.0859202 0)
(0.717384 -0.0907643 2.47595e-17)
(0.73848 -0.0957756 2.35498e-17)
(0.761233 -0.100981 -2.23779e-17)
(0.7859 -0.106404 -2.06607e-17)
(0.812649 -0.112042 1.87662e-17)
(0.842127 -0.117885 0)
(0.873563 -0.123732 0)
(0.911094 -0.129518 1.05724e-17)
(0.941688 -0.133866 0)
(1.00649 -0.138025 2.77672e-18)
(0.974203 0.223893 2.24831e-17)
(0.972463 0.221074 0)
(0.96987 0.21715 -4.11882e-17)
(0.967548 0.212886 3.95147e-17)
(0.965944 0.208712 -3.75093e-17)
(0.964906 0.204421 3.58814e-17)
(0.964251 0.199845 0)
(0.963962 0.195024 1.93749e-19)
(0.964089 0.189999 3.0534e-17)
(0.964656 0.184735 0)
(0.965644 0.17917 0)
(0.967016 0.173205 0)
(0.968683 0.166636 4.90601e-17)
(0.97041 0.159125 0)
(0.971691 0.15027 4.35836e-17)
(0.971647 0.139857 0)
(0.969263 0.128662 8.30778e-17)
(0.964163 0.118643 0)
(0.95733 0.112201 0)
(0.951435 0.111394 -4.21313e-17)
(0.950408 0.116895 -2.04436e-17)
(0.958229 0.127193 0)
(0.978501 0.13858 0)
(1.01312 0.145739 0)
(1.05831 0.142791 5.3443e-18)
(1.10427 0.125461 -3.93636e-18)
(1.14015 0.0927789 -5.55335e-19)
(1.15839 0.0471759 0)
(1.15549 -0.00756861 3.16323e-18)
(1.13141 -0.0680416 0)
(1.09064 -0.130397 0)
(1.03786 -0.191192 -2.35508e-18)
(0.989993 -0.254029 1.57615e-18)
(0.959296 -0.322345 -9.3793e-20)
(0.90364 -0.374997 4.19581e-19)
(0.776432 -0.388417 0)
(0.617206 -0.368272 0)
(0.484003 -0.322194 1.24277e-18)
(0.378071 -0.251566 -8.37127e-19)
(0.293923 -0.164567 -1.05435e-18)
(0.241714 -0.0686025 -1.13649e-18)
(0.220133 0.0308234 -1.99485e-18)
(0.218142 0.116221 0)
(0.233018 0.171085 0)
(0.259709 0.191046 -6.9354e-18)
(0.29153 0.184553 -1.70639e-17)
(0.323832 0.162853 0)
(0.354133 0.134757 4.43314e-17)
(0.381394 0.105794 0)
(0.405433 0.0788889 0)