/*--------------------------------*- C++ -*----------------------------------*\
| =========                 |                                                 |
| \\      /  F ield         | OpenFOAM: The Open Source CFD Toolbox           |
|  \\    /   O peration     | Version:  v1912                                 |
|   \\  /    A nd           | Website:  www.openfoam.com                      |
|    \\/     M anipulation  |                                                 |
\*---------------------------------------------------------------------------*/
FoamFile
{
    version     2.0;
    format      ascii;
    class       volScalarField;
    location    "750";
    object      p;
}
// * * * * * * * * * * * * * * * * * * * * * * * * * * * * * * * * * * * * * //

dimensions      [0 2 -2 0 0 0 0];


internalField   nonuniform List<scalar> 
2000
(
-0.0459401
0.0714712
0.126051
0.119163
0.103335
0.0970296
0.0964245
0.0977732
0.0979905
0.0977693
0.0979094
0.0975862
0.0973287
0.0972729
0.0973306
0.0973523
0.0973091
0.0972876
0.0972821
0.0972858
0.0972896
0.0972831
0.0972617
0.097227
0.0971854
0.0971434
0.0971062
0.0970751
0.0970481
0.0970226
0.0969968
0.09697
0.0969424
0.096914
0.096885
0.0968556
0.0968264
0.0967971
0.096768
0.0967393
0.0967114
0.0966851
0.0966614
0.0966412
0.0966257
0.0966154
0.0966109
0.0966132
0.0966234
0.096641
0.0966548
0.0966211
0.0964203
0.0958087
0.0944241
0.091876
0.0878773
0.0823821
0.0758646
0.0697586
0.0661732
0.0662141
0.0708664
0.0797175
0.0917957
0.106086
0.121735
0.137944
0.153797
0.168213
0.180157
0.188759
0.193193
0.192652
0.186347
0.173616
0.153332
0.125294
0.0837955
0.0415141
0.00730705
0.0924835
0.131301
0.118106
0.100365
0.0961669
0.0997084
0.102148
0.0993941
0.0961502
0.0957128
0.097013
0.097461
0.0973289
0.0975533
0.097455
0.097331
0.0972284
0.0971936
0.0971824
0.0972004
0.0972408
0.0972479
0.0972243
0.097189
0.0971513
0.0971156
0.0970838
0.0970565
0.0970307
0.0970025
0.0969734
0.0969446
0.0969162
0.0968879
0.0968594
0.0968311
0.0968039
0.096777
0.0967498
0.0967227
0.0966966
0.0966726
0.0966513
0.0966335
0.0966199
0.0966116
0.0966123
0.0966351
0.0967026
0.0968166
0.0968874
0.0966324
0.0954919
0.092693
0.0875745
0.0799887
0.0705479
0.0608995
0.0541511
0.0538591
0.0591819
0.0676594
0.0785741
0.0914491
0.105917
0.121402
0.137134
0.152199
0.165593
0.176312
0.183386
0.185923
0.183195
0.174542
0.159427
0.136942
0.107254
0.0663675
0.0294232
0.0583749
0.0921729
0.114864
0.113307
0.104109
0.0999339
0.0999721
0.0993348
0.0974289
0.0967442
0.0983343
0.0999329
0.0989526
0.0964931
0.0955989
0.0964727
0.0973571
0.0975327
0.0973732
0.0972683
0.09721
0.0971736
0.097155
0.0971673
0.097175
0.0971638
0.097133
0.0970875
0.0970507
0.0970152
0.0969879
0.0969634
0.0969401
0.0969192
0.0969002
0.0968805
0.096858
0.096833
0.0968062
0.0967788
0.0967522
0.0967275
0.0967044
0.0966813
0.0966617
0.0966639
0.0967216
0.0968672
0.0971291
0.0975157
0.097965
0.0982518
0.0979585
0.0964652
0.0931004
0.0874546
0.0797668
0.0712571
0.0639787
0.0595073
0.0585215
0.0620145
0.0693383
0.0793617
0.0913047
0.104694
0.118948
0.133246
0.146631
0.158118
0.166763
0.171718
0.172278
0.167887
0.158074
0.142498
0.120571
0.0928219
0.0565366
0.0249914
0.0833621
0.0933759
0.105926
0.110005
0.107313
0.104294
0.102633
0.100901
0.0992783
0.0984611
0.0982742
0.0981767
0.0978321
0.0971373
0.096613
0.097557
0.0988106
0.0980722
0.0969136
0.0965115
0.096461
0.0966346
0.0969233
0.0971477
0.0972775
0.0973555
0.0973981
0.0973727
0.0972855
0.097184
0.0970867
0.0970048
0.0969462
0.0969176
0.0969054
0.0968953
0.0968782
0.0968578
0.0968363
0.096814
0.0967924
0.0967731
0.0967536
0.0967299
0.0967073
0.0967199
0.096831
0.0970705
0.097477
0.098044
0.0987271
0.0991664
0.0989754
0.0976158
0.0945856
0.0896661
0.0831477
0.07585
0.0689562
0.0643415
0.0631116
0.0659539
0.0724566
0.0815921
0.0925175
0.104618
0.117225
0.129516
0.140611
0.149669
0.155935
0.158763
0.15762
0.152092
0.141826
0.126596
0.106012
0.0806838
0.0487224
0.0208052
0.0957027
0.0993032
0.106823
0.110793
0.109665
0.107336
0.105955
0.104916
0.103614
0.102162
0.100812
0.0997236
0.0989969
0.0981594
0.0971968
0.097226
0.09778
0.097994
0.097845
0.0973935
0.0970535
0.09694
0.0969982
0.0971785
0.0973707
0.0974842
0.0974409
0.0972564
0.0971233
0.0970194
0.0969388
0.0968813
0.0968477
0.0968553
0.0968891
0.0969212
0.0969381
0.0969316
0.0969077
0.0968747
0.0968378
0.0967986
0.096754
0.0966938
0.0966124
0.0965266
0.0965129
0.0967144
0.0971197
0.0976954
0.0983356
0.0987646
0.0985749
0.0972825
0.0944802
0.0900425
0.0842916
0.0780563
0.0725915
0.069315
0.0690607
0.0720464
0.0779123
0.0859338
0.0953781
0.105605
0.115975
0.125793
0.134355
0.141004
0.145159
0.146319
0.14406
0.138031
0.127928
0.11356
0.0946114
0.0716676
0.0432363
0.0181885
0.104144
0.105978
0.109931
0.112102
0.111287
0.109679
0.10872
0.108045
0.107086
0.105894
0.104766
0.103776
0.102763
0.101441
0.100067
0.0993588
0.0992285
0.0990984
0.0985329
0.0976487
0.0970325
0.096829
0.0969181
0.0971257
0.0972963
0.0973897
0.0974282
0.0974183
0.0973336
0.0972187
0.0971046
0.097008
0.0969378
0.0969094
0.0968759
0.0968444
0.0968296
0.0968213
0.0967998
0.0967738
0.0967517
0.0967346
0.0967208
0.0967086
0.0967051
0.0967406
0.0968793
0.0971914
0.0976637
0.0982333
0.0987713
0.0990355
0.0986927
0.097408
0.0949622
0.0913823
0.0870314
0.0826058
0.0789992
0.0770788
0.0773973
0.0800968
0.084956
0.0914822
0.0990868
0.107204
0.115289
0.122789
0.129155
0.133865
0.136447
0.136475
0.13357
0.127402
0.117666
0.104166
0.0865985
0.0654957
0.0395085
0.0165516
0.110954
0.111778
0.113015
0.113353
0.112566
0.111581
0.110922
0.110383
0.109716
0.10896
0.108235
0.107516
0.106656
0.105548
0.104381
0.103527
0.103013
0.102415
0.101446
0.100346
0.0995312
0.0990917
0.0989019
0.0988113
0.0987251
0.098622
0.0985005
0.0983338
0.098112
0.097892
0.0977074
0.0975614
0.0974472
0.0973932
0.0975563
0.0976441
0.0976623
0.0976871
0.0977279
0.09778
0.0978451
0.097926
0.0980246
0.0981434
0.0982916
0.0984914
0.0987773
0.0991787
0.0996802
0.100212
0.100651
0.100808
0.100454
0.0993846
0.097495
0.0948591
0.091771
0.0887266
0.086333
0.0851718
0.0856425
0.0878636
0.0916833
0.0967506
0.102623
0.108853
0.115004
0.120635
0.125302
0.12857
0.130026
0.129285
0.125985
0.119797
0.110408
0.097608
0.0810813
0.0613053
0.0369702
0.0155137
0.116831
0.116777
0.115862
0.114653
0.11383
0.113312
0.112836
0.112365
0.111923
0.111486
0.111034
0.110537
0.109938
0.109196
0.108391
0.107699
0.107157
0.106529
0.105662
0.104708
0.103909
0.103341
0.102942
0.102629
0.102351
0.102088
0.101826
0.10155
0.101269
0.101018
0.100816
0.100669
0.100582
0.100584
0.100688
0.10076
0.100798
0.100853
0.100939
0.101047
0.101176
0.101325
0.101498
0.101695
0.101923
0.102193
0.102519
0.10291
0.103341
0.10375
0.104033
0.104057
0.103672
0.102755
0.101263
0.099272
0.0970079
0.094824
0.0931434
0.0923675
0.0927775
0.0944668
0.0973414
0.101164
0.105617
0.110354
0.115018
0.119243
0.122649
0.124856
0.125492
0.124196
0.120622
0.114443
0.10534
0.0930805
0.0773288
0.0585029
0.0353038
0.014838
0.122236
0.121246
0.118282
0.115739
0.114983
0.114894
0.11456
0.114152
0.113887
0.11367
0.1134
0.113075
0.112686
0.112207
0.11167
0.111179
0.110766
0.110293
0.109659
0.10894
0.108289
0.107783
0.107399
0.107084
0.106801
0.106528
0.106257
0.105986
0.105721
0.105482
0.105285
0.105138
0.105052
0.105031
0.105039
0.105092
0.105154
0.105226
0.105319
0.105433
0.105564
0.105712
0.105878
0.106063
0.106268
0.106498
0.106759
0.107044
0.107331
0.107568
0.107678
0.107566
0.107133
0.106306
0.105066
0.103483
0.101726
0.10005
0.0987581
0.0981379
0.0983992
0.0996258
0.101766
0.104656
0.108054
0.111682
0.115239
0.118408
0.12086
0.122258
0.122265
0.120546
0.116769
0.110614
0.101751
0.0899282
0.0747747
0.0566459
0.0342402
0.0143822
0.127466
0.125279
0.120084
0.11644
0.115976
0.116303
0.116075
0.115751
0.115666
0.115634
0.115512
0.11532
0.115079
0.114768
0.114406
0.114067
0.113776
0.113442
0.11299
0.112465
0.111979
0.111598
0.111308
0.111071
0.110852
0.110638
0.110423
0.110207
0.109996
0.109803
0.109641
0.109522
0.109451
0.109427
0.10939
0.109427
0.109485
0.109544
0.109613
0.109696
0.109793
0.109901
0.11002
0.11015
0.110292
0.110446
0.110613
0.110783
0.110934
0.111026
0.111001
0.110789
0.110323
0.109555
0.10848
0.107156
0.105713
0.104344
0.103274
0.102723
0.102852
0.103735
0.105338
0.107539
0.110146
0.112928
0.115627
0.11797
0.119668
0.120424
0.119932
0.117883
0.113961
0.107848
0.0992081
0.08776
0.0730901
0.0554883
0.033623
0.0141129
0.132704
0.128855
0.121162
0.116771
0.116863
0.117555
0.117383
0.117169
0.117272
0.117409
0.11742
0.117348
0.117227
0.117042
0.116807
0.116577
0.116371
0.11613
0.115797
0.115408
0.115045
0.114762
0.11455
0.114378
0.114219
0.114062
0.113904
0.113743
0.113586
0.113441
0.113318
0.113227
0.113167
0.113129
0.113102
0.113122
0.113162
0.113203
0.113249
0.113305
0.11337
0.113442
0.11352
0.113603
0.11369
0.113781
0.113873
0.113955
0.114009
0.114002
0.113887
0.113615
0.113135
0.112417
0.111462
0.110319
0.109092
0.10793
0.107009
0.106498
0.106525
0.107147
0.108342
0.110011
0.111999
0.11411
0.116122
0.117799
0.118887
0.119123
0.118232
0.115929
0.111911
0.105865
0.0974403
0.0863292
0.0720644
0.0548725
0.0333404
0.0140301
0.138071
0.131902
0.121487
0.116828
0.117695
0.118658
0.118508
0.118432
0.118718
0.119
0.119129
0.119171
0.11916
0.119086
0.118959
0.118819
0.118685
0.118514
0.118269
0.117975
0.1177
0.117483
0.117323
0.117195
0.117078
0.116962
0.116844
0.116724
0.116606
0.116497
0.116403
0.116331
0.116283
0.116251
0.116234
0.116246
0.116275
0.116306
0.116339
0.116378
0.116422
0.116469
0.116516
0.116564
0.116611
0.116655
0.116691
0.11671
0.116695
0.116619
0.116446
0.116137
0.115655
0.11498
0.114117
0.113108
0.112038
0.111026
0.110209
0.10972
0.109659
0.110074
0.110944
0.112188
0.113675
0.115238
0.116687
0.117815
0.118402
0.118216
0.117009
0.114515
0.110446
0.104487
0.0962751
0.0854735
0.0715562
0.0546929
0.0333183
0.0141481
0.143643
0.134315
0.121096
0.116733
0.118496
0.119612
0.119479
0.119566
0.120022
0.120423
0.120657
0.120801
0.120891
0.120915
0.120883
0.120826
0.120761
0.120655
0.120484
0.120269
0.120062
0.119899
0.119779
0.119686
0.119601
0.119516
0.119428
0.119338
0.119249
0.119166
0.119093
0.119037
0.118997
0.118979
0.118969
0.118976
0.118997
0.119021
0.119045
0.119071
0.119098
0.119124
0.119149
0.119169
0.119184
0.11919
0.119184
0.119154
0.119088
0.118961
0.118746
0.118412
0.117932
0.117293
0.116502
0.115595
0.114642
0.113739
0.112995
0.112515
0.112378
0.112619
0.11322
0.114113
0.115184
0.116293
0.117275
0.117951
0.118131
0.117608
0.116158
0.113532
0.109449
0.103593
0.0955869
0.0850683
0.0714513
0.054861
0.0335001
0.0144713
0.149462
0.135977
0.120082
0.1166
0.119261
0.12042
0.120325
0.120594
0.121197
0.121697
0.122023
0.122259
0.122437
0.122548
0.122599
0.122617
0.122616
0.122572
0.122467
0.122319
0.122173
0.122057
0.121976
0.121914
0.121857
0.1218
0.121738
0.121673
0.121609
0.121547
0.121492
0.121449
0.121421
0.121408
0.121402
0.121407
0.121422
0.12144
0.121456
0.12147
0.121484
0.121494
0.121498
0.121496
0.121484
0.121459
0.121417
0.121348
0.121239
0.121072
0.120824
0.120471
0.119993
0.119381
0.118644
0.117814
0.116947
0.116121
0.115424
0.11494
0.114728
0.114817
0.115189
0.115784
0.116509
0.117241
0.11784
0.118154
0.118012
0.117232
0.115606
0.112897
0.108829
0.103083
0.0952684
0.085003
0.0716446
0.055292
0.0338369
0.0149813
0.155536
0.13678
0.118596
0.116522
0.119975
0.121094
0.121076
0.12153
0.122255
0.122838
0.123247
0.123565
0.12382
0.124006
0.124129
0.124215
0.124272
0.124283
0.124237
0.124149
0.124055
0.123983
0.123936
0.123903
0.123874
0.123841
0.123803
0.123761
0.123718
0.123675
0.123636
0.123605
0.123586
0.123577
0.123574
0.123579
0.12359
0.123602
0.123611
0.123617
0.123618
0.123614
0.123601
0.123578
0.123542
0.12349
0.123416
0.123312
0.123167
0.122965
0.122687
0.122315
0.121834
0.121238
0.120538
0.119759
0.11895
0.118173
0.117498
0.116993
0.116705
0.116656
0.116829
0.117175
0.117614
0.118043
0.118342
0.118376
0.117994
0.117029
0.115285
0.112534
0.1085
0.102862
0.0952184
0.0851737
0.0720356
0.0559005
0.0342845
0.0156342
0.161844
0.136648
0.116811
0.116546
0.120613
0.121654
0.121755
0.122382
0.123206
0.123862
0.124345
0.124736
0.12506
0.125311
0.125498
0.125642
0.125751
0.125813
0.125818
0.125781
0.125735
0.125701
0.125685
0.125679
0.125674
0.125664
0.125647
0.125626
0.125602
0.125576
0.12555
0.12553
0.125519
0.125514
0.125514
0.125518
0.125525
0.125532
0.125534
0.12553
0.12552
0.125501
0.125471
0.125427
0.125367
0.125287
0.125182
0.125043
0.124861
0.124623
0.124314
0.123918
0.123425
0.122832
0.122148
0.121397
0.120618
0.119862
0.119187
0.118647
0.118283
0.11811
0.118117
0.118262
0.118478
0.118676
0.118752
0.118584
0.118035
0.116947
0.115133
0.112368
0.108378
0.10284
0.0953446
0.0854884
0.0725356
0.0566071
0.0348048
0.0163753
0.168333
0.135569
0.114908
0.116684
0.121155
0.122123
0.122377
0.123158
0.124061
0.12478
0.125332
0.125788
0.12617
0.126479
0.126722
0.126918
0.127075
0.12718
0.127231
0.127239
0.127233
0.127233
0.127244
0.127262
0.127278
0.127287
0.127289
0.127284
0.127277
0.127264
0.127249
0.127238
0.127231
0.127229
0.127228
0.127229
0.12723
0.127228
0.127219
0.127203
0.127176
0.127138
0.127086
0.127017
0.126928
0.126816
0.126676
0.126499
0.126278
0.126001
0.125655
0.12523
0.124717
0.124114
0.123431
0.122687
0.121916
0.121161
0.120471
0.119891
0.119457
0.119183
0.119059
0.119053
0.119107
0.119141
0.119063
0.11876
0.118103
0.116942
0.115092
0.112332
0.108391
0.102942
0.095571
0.0858737
0.0730761
0.0573458
0.0353643
0.0171543
0.174921
0.133566
0.113046
0.116916
0.121595
0.122526
0.12295
0.123859
0.124827
0.125602
0.126213
0.126725
0.127159
0.127517
0.127807
0.128048
0.128245
0.128389
0.128477
0.128522
0.128549
0.128577
0.12861
0.128646
0.128679
0.128703
0.128717
0.128724
0.128729
0.128722
0.128712
0.128703
0.128695
0.128688
0.128681
0.128672
0.12866
0.128643
0.128617
0.12858
0.128531
0.128468
0.128388
0.12829
0.128168
0.128021
0.127844
0.127628
0.127368
0.127053
0.126672
0.126217
0.125681
0.125063
0.124371
0.123623
0.122849
0.122085
0.121376
0.12076
0.120269
0.119919
0.119703
0.119592
0.119535
0.119461
0.119284
0.118898
0.118178
0.116978
0.115116
0.112374
0.10848
0.103109
0.095842
0.0862783
0.0736106
0.0580682
0.035934
0.017931
0.181516
0.130737
0.111338
0.117201
0.121934
0.122877
0.123472
0.124481
0.125495
0.126317
0.126976
0.127531
0.128005
0.128401
0.128728
0.129003
0.129231
0.129403
0.12952
0.129593
0.129643
0.129689
0.129737
0.129784
0.129826
0.129857
0.129877
0.129891
0.129894
0.129884
0.129872
0.129858
0.129842
0.129824
0.129803
0.129779
0.129749
0.129712
0.129665
0.129605
0.129532
0.129443
0.129335
0.129207
0.129056
0.128878
0.128668
0.12842
0.128127
0.127781
0.127372
0.126892
0.126336
0.125704
0.125003
0.124249
0.123468
0.122695
0.121968
0.121324
0.120793
0.120391
0.120114
0.119935
0.119809
0.11967
0.119434
0.119001
0.118249
0.117032
0.115174
0.112455
0.108606
0.103301
0.0961213
0.0866698
0.0741108
0.0587432
0.0364926
0.0186784
0.188024
0.127211
0.109853
0.117489
0.12218
0.123173
0.123917
0.124992
0.126036
0.126887
0.127578
0.128161
0.12866
0.12908
0.129432
0.129728
0.129975
0.130165
0.130299
0.130388
0.130453
0.130509
0.130563
0.130614
0.130658
0.13069
0.130711
0.13072
0.130714
0.130701
0.130683
0.13066
0.130633
0.130602
0.130568
0.130527
0.130481
0.130426
0.13036
0.130281
0.130187
0.130077
0.129948
0.129798
0.129624
0.129423
0.12919
0.12892
0.128605
0.128238
0.12781
0.127315
0.126746
0.126104
0.125396
0.124637
0.123851
0.12307
0.12233
0.121667
0.121111
0.120676
0.12036
0.120141
0.119974
0.119798
0.119531
0.119074
0.118309
0.117091
0.115244
0.112551
0.108742
0.103495
0.0963878
0.0870306
0.0745633
0.0593547
0.0370259
0.0193813
0.19437
0.123147
0.108631
0.117743
0.122341
0.123396
0.124245
0.125354
0.12641
0.127277
0.127984
0.128582
0.129094
0.129527
0.12989
0.130198
0.130455
0.130654
0.130796
0.130894
0.130965
0.131025
0.131081
0.131132
0.131174
0.131205
0.131224
0.131226
0.131216
0.131199
0.131174
0.131143
0.131107
0.131067
0.131022
0.13097
0.130912
0.130845
0.130766
0.130674
0.130568
0.130444
0.130301
0.130138
0.12995
0.129735
0.129489
0.129205
0.128878
0.1285
0.128062
0.127557
0.126982
0.126335
0.125623
0.124861
0.124072
0.123285
0.122538
0.121864
0.121291
0.120837
0.120499
0.120256
0.120068
0.119872
0.119591
0.119126
0.118359
0.117147
0.115315
0.112647
0.108875
0.103677
0.096631
0.0873534
0.0749645
0.0598968
0.0375255
0.0200352
0.200553
0.118814
0.107698
0.117935
0.122425
0.123528
0.124438
0.125559
0.126619
0.127493
0.128207
0.128812
0.12933
0.129769
0.130139
0.130452
0.130714
0.130916
0.131063
0.131164
0.131238
0.131299
0.131355
0.131406
0.131447
0.131477
0.131492
0.131493
0.13148
0.131459
0.13143
0.131394
0.131353
0.131307
0.131256
0.131198
0.131133
0.131059
0.130974
0.130875
0.130762
0.130631
0.130481
0.130311
0.130116
0.129895
0.129642
0.129352
0.129019
0.128635
0.128192
0.127684
0.127106
0.126457
0.125744
0.124981
0.12419
0.123401
0.122649
0.121967
0.121386
0.12092
0.12057
0.120316
0.120117
0.119913
0.119626
0.119161
0.118398
0.117196
0.115381
0.112737
0.108997
0.103842
0.0968483
0.0876383
0.0753171
0.0603717
0.0379883
0.020644
0.206716
0.114726
0.107064
0.118052
0.122442
0.123577
0.124516
0.125645
0.126707
0.127584
0.128302
0.12891
0.129431
0.129873
0.130245
0.130561
0.130825
0.13103
0.131178
0.131281
0.131356
0.131418
0.131474
0.131524
0.131565
0.131593
0.131607
0.131609
0.131595
0.131571
0.13154
0.131502
0.131459
0.131411
0.131357
0.131296
0.131229
0.131152
0.131064
0.130962
0.130845
0.130712
0.130559
0.130386
0.130189
0.129965
0.129709
0.129417
0.129082
0.128697
0.128253
0.127744
0.127165
0.126517
0.125804
0.125041
0.124249
0.123458
0.122703
0.122018
0.121431
0.120959
0.120603
0.120343
0.120139
0.119933
0.119647
0.119185
0.11843
0.11724
0.115441
0.11282
0.109109
0.103991
0.0970441
0.0878931
0.0756324
0.0607925
0.0384204
0.0212269
0.212813
0.11152
0.106667
0.118101
0.122422
0.12357
0.124524
0.125659
0.126725
0.127604
0.128325
0.128935
0.129457
0.129901
0.130274
0.130592
0.130856
0.131062
0.131211
0.131315
0.13139
0.131452
0.131508
0.131558
0.131599
0.131627
0.131642
0.131643
0.131628
0.131605
0.131574
0.131536
0.131492
0.131443
0.131388
0.131327
0.131258
0.131181
0.131092
0.130989
0.130872
0.130738
0.130585
0.130411
0.130213
0.129988
0.129733
0.129441
0.129106
0.12872
0.128277
0.127769
0.127191
0.126543
0.125831
0.125068
0.124276
0.123485
0.122728
0.12204
0.12145
0.120975
0.120615
0.120353
0.120148
0.119943
0.11966
0.119203
0.118456
0.117279
0.115497
0.112898
0.109215
0.104132
0.0972278
0.0881306
0.0759267
0.0611814
0.0388334
0.0218172
0.21754
0.109577
0.106442
0.118128
0.1224
0.123546
0.124508
0.125649
0.126717
0.127599
0.128321
0.128931
0.129455
0.129899
0.130273
0.130591
0.130855
0.131061
0.131211
0.131314
0.13139
0.131453
0.131509
0.13156
0.131601
0.131629
0.131644
0.131645
0.131631
0.131607
0.131576
0.131538
0.131494
0.131445
0.13139
0.131329
0.131261
0.131183
0.131094
0.130992
0.130875
0.130741
0.130588
0.130415
0.130217
0.129993
0.129738
0.129446
0.129112
0.128728
0.128285
0.127778
0.127201
0.126555
0.125844
0.125081
0.12429
0.123498
0.12274
0.122051
0.121458
0.120981
0.12062
0.120356
0.120151
0.119947
0.119667
0.119217
0.118479
0.117313
0.115547
0.112967
0.109309
0.104258
0.0973903
0.0883405
0.0761854
0.0615247
0.0391927
0.0223792
)
;

boundaryField
{
    inlet
    {
        type            zeroGradient;
    }
    outlet
    {
        type            fixedValue;
        value           uniform 0;
    }
    fixedWalls
    {
        type            zeroGradient;
    }
    frontAndBack
    {
        type            empty;
    }
}


// ************************************************************************* //
