/*--------------------------------*- C++ -*----------------------------------*\
| =========                 |                                                 |
| \\      /  F ield         | OpenFOAM: The Open Source CFD Toolbox           |
|  \\    /   O peration     | Version:  v1912                                 |
|   \\  /    A nd           | Website:  www.openfoam.com                      |
|    \\/     M anipulation  |                                                 |
\*---------------------------------------------------------------------------*/
FoamFile
{
    version     2.0;
    format      ascii;
    class       surfaceScalarField;
    location    "750";
    object      phi;
}
// * * * * * * * * * * * * * * * * * * * * * * * * * * * * * * * * * * * * * //

dimensions      [0 3 -1 0 0 0 0];
oriented        oriented;


internalField   nonuniform List<scalar> 
3895
(
0.000814746
0.00038143
0.000499361
0.000315385
0.000251565
0.000247796
6.4863e-05
0.000186702
-6.21962e-05
0.000127059
-0.000127327
6.51304e-05
-0.000137639
1.03119e-05
-0.000113632
-2.40064e-05
-9.03514e-05
-2.32808e-05
-8.49476e-05
-5.40383e-06
-6.61301e-05
-1.88174e-05
-4.47468e-05
-2.13833e-05
-4.04668e-05
-4.28006e-06
-4.86736e-05
8.20678e-06
-4.57166e-05
-2.95691e-06
-3.20581e-05
-1.36586e-05
-2.51455e-05
-6.91258e-06
-2.59271e-05
7.81627e-07
-2.8948e-05
3.02089e-06
-3.04908e-05
1.54279e-06
-2.91882e-05
-1.30265e-06
-2.49007e-05
-4.2875e-06
-1.85785e-05
-6.32214e-06
-1.19731e-05
-6.60542e-06
-6.19833e-06
-5.77476e-06
-1.89643e-06
-4.3019e-06
8.45129e-07
-2.74156e-06
2.45185e-06
-1.60672e-06
3.50417e-06
-1.05233e-06
4.4105e-06
-9.06327e-07
5.30127e-06
-8.90765e-07
6.15183e-06
-8.50564e-07
6.94268e-06
-7.90852e-07
7.63648e-06
-6.93796e-07
8.16015e-06
-5.23672e-07
8.44488e-06
-2.84728e-07
8.43818e-06
6.70008e-09
8.04329e-06
3.94888e-07
7.27272e-06
7.70571e-07
6.08419e-06
1.18854e-06
4.39854e-06
1.68565e-06
2.10896e-06
2.28958e-06
-9.05645e-07
3.0146e-06
-4.76599e-06
3.86035e-06
-9.58317e-06
4.81718e-06
-1.55003e-05
5.91717e-06
-2.28408e-05
7.34042e-06
-3.23033e-05
9.46258e-06
-4.52127e-05
1.29094e-05
-6.37231e-05
1.85104e-05
-9.07412e-05
2.70181e-05
-0.000129309
3.85674e-05
-0.000181771
5.24622e-05
-0.000249081
6.73102e-05
-0.000329898
8.08165e-05
-0.000419749
8.98516e-05
-0.000511266
9.15169e-05
-0.000595532
8.42656e-05
-0.000663664
6.81323e-05
-0.0007069
4.32364e-05
-0.000714308
7.40763e-06
-0.000696428
-1.78796e-05
-0.000657549
-3.88798e-05
-0.000601253
-5.62962e-05
-0.000531453
-6.97999e-05
-0.000451209
-8.02437e-05
-0.000362525
-8.86839e-05
-0.000266965
-9.55601e-05
-0.000166151
-0.000100814
-6.17865e-05
-0.000104364
4.4157e-05
-0.000105944
0.000149721
-0.000105564
0.000253339
-0.000103617
0.000353667
-0.000100328
0.000449833
-9.61656e-05
0.000541768
-9.19351e-05
0.000629728
-8.79599e-05
0.000716846
-8.71186e-05
0.000803462
-8.66162e-05
-0.00010741
0.00108795
0.000349294
0.00104738
0.000355946
0.000933278
0.000361903
0.000775747
0.000344233
0.000598431
0.000304375
0.000410383
0.000253178
0.000221248
0.000199447
5.3877e-05
0.000143365
-6.04246e-05
9.10208e-05
-0.000110188
4.43597e-05
-0.000131882
2.87613e-06
-0.000123966
-2.92985e-05
-0.000105669
-2.2578e-05
-0.000107781
1.03191e-05
-0.000103372
-7.36565e-06
-9.07467e-05
-2.6284e-05
-7.67553e-05
-2.09039e-05
-7.8868e-05
2.8943e-06
-8.7135e-05
1.12879e-05
-9.26354e-05
7.04318e-06
-9.45903e-05
6.52206e-07
-9.0963e-05
-7.91477e-06
-8.48084e-05
-1.24767e-05
-7.80695e-05
-1.33444e-05
-7.15058e-05
-1.23384e-05
-6.58483e-05
-9.95944e-06
-6.17153e-05
-6.8745e-06
-5.95659e-05
-3.75617e-06
-5.92754e-05
-1.34279e-06
-6.03433e-05
1.61608e-07
-6.25703e-05
1.33617e-06
-6.52728e-05
1.85196e-06
-6.81423e-05
2.07869e-06
-7.10985e-05
2.26233e-06
-7.42729e-05
2.65076e-06
-7.78181e-05
3.26047e-06
-8.18571e-05
4.04576e-06
-8.64283e-05
4.96605e-06
-9.16476e-05
5.98985e-06
-9.7559e-05
7.09999e-06
-0.000104168
8.29418e-06
-0.000111461
9.58289e-06
-0.000119418
1.09713e-05
-0.000127994
1.24368e-05
-0.000137104
1.39269e-05
-0.000146615
1.54285e-05
-0.000156423
1.71486e-05
-0.000166538
1.95768e-05
-0.000177093
2.34645e-05
-0.000188245
2.96626e-05
-0.000200229
3.90024e-05
-0.000213388
5.17262e-05
-0.000227761
6.68351e-05
-0.000242496
8.20453e-05
-0.000255406
9.37263e-05
-0.000262619
9.70646e-05
-0.000259311
8.82088e-05
-0.000241335
6.62903e-05
-0.000207443
3.42398e-05
-0.000166575
2.36811e-06
-0.000120039
-3.91276e-05
-6.80951e-05
-6.98239e-05
-1.35329e-05
-9.34419e-05
4.27266e-05
-0.000112556
0.000102283
-0.000129356
0.000166327
-0.000144289
0.000234732
-0.000157088
0.000306443
-0.000167271
0.000379918
-0.00017429
0.000453382
-0.000177828
0.00052531
-0.000177871
0.00059447
-0.000174724
0.000659803
-0.000168951
0.000720746
-0.000161271
0.000777141
-0.000152561
0.0008291
-0.000143894
0.000877488
-0.000136348
0.000922333
-0.000131964
0.000966354
-0.000130637
-0.000141995
0.000975282
0.000305926
0.00102604
0.000305187
0.00106097
0.000326974
0.00105862
0.000346584
0.00101217
0.00035082
0.000925048
0.000340304
0.000805752
0.000318743
0.000661765
0.000287352
0.000504928
0.000247857
0.000345844
0.000203445
0.000190168
0.000158552
4.70569e-05
0.000113812
-4.98372e-05
7.43162e-05
-8.59833e-05
4.64651e-05
-0.000105867
1.25181e-05
-0.000113871
-1.82804e-05
-0.000101867
-3.29075e-05
-9.1547e-05
-7.42567e-06
-9.89995e-05
1.87404e-05
-0.000108456
1.65e-05
-0.000114961
7.15714e-06
-0.000119599
-3.27721e-06
-0.000121678
-1.03974e-05
-0.000120585
-1.44372e-05
-0.000118966
-1.39579e-05
-0.000118707
-1.02185e-05
-0.000120407
-5.17389e-06
-0.000124237
7.31404e-08
-0.000128326
2.74633e-06
-0.000132843
4.67912e-06
-0.000137377
5.87018e-06
-0.000141964
6.43858e-06
-0.000146481
6.59577e-06
-0.000150838
6.61938e-06
-0.000155099
6.91147e-06
-0.000159428
7.59004e-06
-0.000163934
8.55103e-06
-0.000168601
9.63297e-06
-0.000173356
1.07453e-05
-0.000178116
1.18598e-05
-0.000182785
1.29634e-05
-0.000187258
1.40556e-05
-0.000191408
1.51221e-05
-0.000195033
1.60615e-05
-0.000197765
1.66584e-05
-0.000198939
1.66032e-05
-0.000197523
1.57324e-05
-0.000192543
1.4597e-05
-0.000183019
1.39398e-05
-0.00016789
1.45341e-05
-0.000145788
1.69007e-05
-0.000116017
2.1955e-05
-7.77407e-05
2.85587e-05
-3.03515e-05
3.46561e-05
2.58523e-05
3.75225e-05
8.83004e-05
3.46165e-05
0.000152473
2.40362e-05
0.000212168
6.59571e-06
0.000266703
-2.0296e-05
0.000318602
-4.95308e-05
0.000360987
-8.15122e-05
0.000402168
-0.000111005
0.000445595
-0.000136869
0.000492801
-0.000159762
0.000543263
-0.000179818
0.000595596
-0.000196622
0.000648086
-0.000209578
0.000699027
-0.000218212
0.000747018
-0.000222281
0.000791041
-0.000221851
0.00083048
-0.00021731
0.000865072
-0.000209317
0.000894856
-0.000198734
0.00092013
-0.000186545
0.00094137
-0.000173801
0.000959078
-0.000161602
0.000973853
-0.000151123
0.000985567
-0.000143678
0.000995287
-0.000140356
-0.000144845
0.000857109
0.000271374
0.000897355
0.000264941
0.000950164
0.000274165
0.00100471
0.000292042
0.00104637
0.000309153
0.00106531
0.000321372
0.00105664
0.000327411
0.00101794
0.000326054
0.000949552
0.000316241
0.00085508
0.000297917
0.000740895
0.000272737
0.000611932
0.000242776
0.000476494
0.000209754
0.000348327
0.000174632
0.000223535
0.00013731
0.000102248
0.000103007
-1.40961e-07
6.94812e-05
-5.16299e-05
4.40633e-05
-6.28791e-05
2.99896e-05
-6.47427e-05
1.83636e-05
-6.70919e-05
9.50634e-06
-7.29958e-05
2.62675e-06
-8.04559e-05
-2.93737e-06
-8.89772e-05
-5.91591e-06
-9.63238e-05
-6.61129e-06
-0.000101824
-4.71875e-06
-0.000106784
-2.13333e-07
-0.000112158
5.44652e-06
-0.000117755
8.34394e-06
-0.000122911
9.8354e-06
-0.000127293
1.02518e-05
-0.000130827
9.97269e-06
-0.000133578
9.34649e-06
-0.00013538
8.42126e-06
-0.000136557
8.08827e-06
-0.00013721
8.24383e-06
-0.000137422
8.7626e-06
-0.000136895
9.10575e-06
-0.000135464
9.31509e-06
-0.000133014
9.4092e-06
-0.000129402
9.3514e-06
-0.000124459
9.11268e-06
-0.000118034
8.69748e-06
-0.000109933
7.96044e-06
-9.98977e-05
6.62282e-06
-8.76986e-05
4.40408e-06
-7.23245e-05
3.58328e-07
-5.41219e-05
-3.60565e-06
-3.18188e-05
-8.3633e-06
-3.94369e-06
-1.3341e-05
3.07581e-05
-1.78011e-05
7.42864e-05
-2.15733e-05
0.000127419
-2.45741e-05
0.000189514
-2.74384e-05
0.000258483
-3.14463e-05
0.000331327
-3.82276e-05
0.000404673
-4.93099e-05
0.000476889
-6.562e-05
0.000543776
-8.71836e-05
0.000606015
-0.000111769
0.000662115
-0.000137613
0.000713762
-0.000162652
0.000762233
-0.00018534
0.000807415
-0.000204944
0.000848542
-0.000220944
0.000884746
-0.000232826
0.00091535
-0.000240182
0.000939984
-0.000242846
0.000958646
-0.000240942
0.00097167
-0.000234876
0.00097965
-0.00022529
0.000983335
-0.000213002
0.000983535
-0.000198934
0.000981033
-0.000184043
0.000976513
-0.000169281
0.000970482
-0.000155571
0.000963231
-0.000143871
0.000954589
-0.000135037
0.000944416
-0.000130183
-0.000130305
0.000759397
0.000238011
0.000790536
0.000233802
0.000828351
0.000236349
0.000874985
0.000245408
0.000927002
0.000257137
0.000978871
0.000269503
0.00102441
0.000281869
0.00105755
0.000292918
0.00107319
0.000300602
0.00106786
0.000303244
0.00104042
0.000300179
0.000991565
0.00029163
0.000923239
0.00027808
0.00083886
0.000259011
0.000741525
0.000234645
0.000636635
0.000207896
0.000532151
0.000173965
0.000433902
0.000142313
0.000348946
0.000114945
0.000276031
9.12788e-05
0.000213747
7.17909e-05
0.000160426
5.59471e-05
0.000114127
4.33618e-05
7.45235e-05
3.36878e-05
4.17049e-05
2.62073e-05
1.65824e-05
2.04038e-05
3.30451e-07
1.60386e-05
-7.29162e-06
1.30686e-05
-9.53429e-06
1.05866e-05
-8.32447e-06
8.62558e-06
-5.02499e-06
6.9523e-06
-4.77141e-07
5.42484e-06
4.90521e-06
3.96414e-06
1.07979e-05
2.52852e-06
1.72009e-05
1.68531e-06
2.47718e-05
6.72923e-07
3.40077e-05
-4.73261e-07
4.48673e-05
-1.75389e-06
5.76322e-05
-3.44982e-06
7.25774e-05
-5.53598e-06
8.99832e-05
-8.05441e-06
0.000110145
-1.10491e-05
0.000133395
-1.45523e-05
0.000159975
-1.86201e-05
0.000189943
-2.3345e-05
0.00022318
-2.88329e-05
0.000258643
-3.51046e-05
0.000296855
-4.18174e-05
0.000337346
-4.88542e-05
0.000379958
-5.59531e-05
0.000424923
-6.2766e-05
0.000472451
-6.91022e-05
0.000522932
-7.50549e-05
0.000576538
-8.10441e-05
0.000632932
-8.78399e-05
0.000691101
-9.63971e-05
0.000749368
-0.000107576
0.000805546
-0.000121798
0.000857213
-0.000138851
0.000903178
-0.000157734
0.000942649
-0.000177084
0.000975466
-0.000195468
0.00100171
-0.000211585
0.00102132
-0.000224552
0.00103422
-0.000233844
0.00104054
-0.000239149
0.0010407
-0.00024034
0.00103537
-0.000237521
0.00102545
-0.000231022
0.00101195
-0.000221371
0.000995889
-0.000209231
0.000978239
-0.000195352
0.000959819
-0.000180514
0.000941262
-0.000165486
0.000922989
-0.000151008
0.000905186
-0.000137768
0.000887783
-0.000126468
0.000870404
-0.000117658
0.000852409
-0.000112188
-0.000110204
0.000672433
0.000206414
0.000702275
0.000203961
0.000733372
0.000205252
0.000767839
0.00021094
0.000806614
0.000218362
0.000850036
0.000226081
0.000897301
0.000234604
0.000946031
0.000244187
0.000992641
0.000253992
0.00103305
0.000262834
0.00106349
0.000269743
0.00108117
0.000273948
0.00108444
0.000274805
0.00107207
0.000271382
0.0010437
0.000263018
0.00100103
0.000250564
0.000949034
0.000225964
0.000891658
0.000199688
0.000831903
0.000174701
0.000772159
0.000151023
0.000714625
0.000129325
0.000660587
0.000109985
0.000610848
9.31003e-05
0.000565998
7.85375e-05
0.000526242
6.59641e-05
0.00049156
5.50855e-05
0.000461928
4.56702e-05
0.000437564
3.74331e-05
0.000418124
3.00268e-05
0.000403378
2.33709e-05
0.000393001
1.733e-05
0.000386639
1.17867e-05
0.000384017
6.58612e-06
0.000385343
1.20187e-06
0.000390277
-3.24862e-06
0.00039888
-7.93024e-06
0.000411048
-1.2641e-05
0.000426663
-1.73684e-05
0.000445463
-2.22502e-05
0.000467257
-2.73296e-05
0.000491836
-3.26336e-05
0.000518978
-3.81914e-05
0.000548452
-4.40265e-05
0.000579992
-5.016e-05
0.00061326
-5.66125e-05
0.000647812
-6.3385e-05
0.000683133
-7.0426e-05
0.000718891
-7.75748e-05
0.00075469
-8.46531e-05
0.000790218
-9.14818e-05
0.000825341
-9.78888e-05
0.000860046
-0.000103807
0.000894353
-0.000109362
0.000928203
-0.000114894
0.000961296
-0.000120933
0.00099299
-0.000128091
0.0010223
-0.000136883
0.00104802
-0.000147523
0.00106897
-0.000159805
0.00108429
-0.000173051
0.00109346
-0.000186251
0.00109632
-0.000198333
0.00109308
-0.000208343
0.00108414
-0.000215609
0.00107005
-0.000219759
0.00105155
-0.000220649
0.00102952
-0.000218307
0.00100493
-0.000212927
0.000978759
-0.000204855
0.000951941
-0.000194552
0.00092527
-0.00018256
0.000899376
-0.000169457
0.000874695
-0.000155832
0.00085147
-0.000142261
0.00082976
-0.000129298
0.000809443
-0.000117451
0.00079022
-0.000107245
0.000771575
-9.90129e-05
0.000752872
-9.34851e-05
-9.02209e-05
0.000594386
0.000177665
0.00062317
0.000175177
0.000652323
0.000176099
0.000682115
0.000181149
0.000712924
0.000187552
0.000745613
0.000193392
0.000781181
0.000199036
0.000820193
0.000205175
0.000862411
0.000211774
0.000906707
0.000218538
0.000951215
0.000225234
0.000993659
0.000231504
0.00103171
0.000236754
0.00106298
0.000240113
0.0010853
0.000240697
0.00109753
0.000238336
0.00109977
0.000223725
0.00109369
0.000205768
0.00108083
0.000187562
0.00106268
0.000169173
0.00104092
0.00015108
0.00101711
0.000133796
0.000992584
0.000117628
0.00096843
0.000102691
0.000945438
8.89562e-05
0.000924187
7.63371e-05
0.000905128
6.47291e-05
0.000888583
5.39776e-05
0.00087469
4.39201e-05
0.000863586
3.44751e-05
0.000855344
2.5572e-05
0.000850003
1.71274e-05
0.00084755
9.03937e-06
0.000847388
1.36335e-06
0.000850282
-6.14216e-06
0.000855675
-1.33239e-05
0.000863419
-2.03846e-05
0.000873368
-2.73175e-05
0.000885275
-3.41573e-05
0.000898886
-4.09405e-05
0.000913938
-4.76856e-05
0.00093015
-5.44035e-05
0.000947223
-6.10993e-05
0.000964837
-6.77739e-05
0.000982645
-7.44208e-05
0.00100028
-8.10167e-05
0.00101736
-8.7506e-05
0.00103357
-9.37846e-05
0.00104864
-9.97285e-05
0.00106239
-0.000105233
0.00107474
-0.000110231
0.00108567
-0.000114738
0.00109521
-0.000118901
0.00110332
-0.000123005
0.00110983
-0.000127445
0.00111438
-0.000132641
0.00111642
-0.000138924
0.0011153
-0.000146407
0.0011104
-0.000154904
0.00110127
-0.000163921
0.00108777
-0.000172744
0.00107004
-0.000180607
0.00104853
-0.000186834
0.00102386
-0.000190937
0.000996745
-0.000192644
0.000967955
-0.00019186
0.000938273
-0.000188625
0.000908442
-0.000183096
0.000879119
-0.000175532
0.000850835
-0.000166268
0.000823977
-0.000155702
0.000798782
-0.000144263
0.000775351
-0.000132401
0.000753659
-0.00012057
0.000733575
-0.000109214
0.000714861
-9.87363e-05
0.000697184
-8.95679e-05
0.00068004
-8.18699e-05
0.000662964
-7.64083e-05
-7.20196e-05
0.000525111
0.000151816
0.000551936
0.000148352
0.000579146
0.000148889
0.000606467
0.000153827
0.000634006
0.000160013
0.000661953
0.000165445
0.000690628
0.000170361
0.000720605
0.000175198
0.000752535
0.000179845
0.000786873
0.000184199
0.000823722
0.000188386
0.00086273
0.000192496
0.00090308
0.000196403
0.000943486
0.000199707
0.000982309
0.000201875
0.00101803
0.000202617
0.00104832
0.000193431
0.00107278
0.000181312
0.00109162
0.000168722
0.00110524
0.000155554
0.00111427
0.000142044
0.00111951
0.000128559
0.00112176
0.000115379
0.00112179
0.000102658
0.00112029
9.04599e-05
0.00111783
7.87902e-05
0.00111493
6.76314e-05
0.00111197
5.69393e-05
0.00110923
4.66567e-05
0.00110696
3.67515e-05
0.00110532
2.72088e-05
0.00110444
1.80075e-05
0.00110434
9.139e-06
0.00110495
7.53947e-07
0.00110638
-7.5694e-06
0.00110844
-1.53854e-05
0.00111102
-2.29668e-05
0.00111402
-3.03213e-05
0.00111732
-3.74514e-05
0.00112075
-4.43733e-05
0.00112416
-5.10967e-05
0.00112738
-5.76231e-05
0.00113023
-6.39501e-05
0.00113253
-7.0072e-05
0.00113409
-7.59784e-05
0.00113472
-8.16475e-05
0.00113425
-8.70397e-05
0.00113256
-9.20931e-05
0.00112957
-9.67393e-05
0.00112527
-0.00010093
0.00111969
-0.000104657
0.00111293
-0.000107976
0.00110506
-0.000111032
0.00109612
-0.000114061
0.00108603
-0.000117359
0.00107462
-0.000121227
0.00106158
-0.000125887
0.00104658
-0.000131404
0.00102931
-0.000137634
0.00100961
-0.000144223
0.000987529
-0.000150662
0.000963313
-0.00015639
0.000937379
-0.0001609
0.000910245
-0.000163803
0.000882456
-0.000164855
0.000854541
-0.000163944
0.000826981
-0.000161065
0.000800187
-0.000156302
0.000774475
-0.00014982
0.000750064
-0.000141857
0.000727077
-0.000132715
0.000705553
-0.000122738
0.000685459
-0.000112307
0.000666705
-0.000101816
0.000649152
-9.1661e-05
0.000632602
-8.21863e-05
0.0006168
-7.37653e-05
0.00060135
-6.64204e-05
0.000585927
-6.0985e-05
-5.55463e-05
0.00046394
0.000128551
0.000488639
0.000123652
0.00051348
0.000124049
0.000538159
0.000129148
0.000563122
0.00013505
0.000588445
0.000140122
0.00061397
0.000144837
0.000639764
0.000149404
0.000666083
0.000153526
0.000693245
0.000157037
0.00072161
0.00016002
0.00075152
0.000162587
0.00078317
0.000164753
0.000816474
0.000166403
0.000850999
0.00016735
0.000886112
0.000167504
0.000919682
0.000159861
0.000950826
0.000150169
0.00097917
0.000140377
0.00100445
0.000130273
0.00102659
0.000119902
0.0010457
0.000109453
0.00106199
9.90886e-05
0.00107574
8.89027e-05
0.00108727
7.89371e-05
0.00109685
6.92043e-05
0.00110478
5.97048e-05
0.00111129
5.04288e-05
0.00111659
4.13602e-05
0.00112084
3.24968e-05
0.0011242
2.3853e-05
0.00112676
1.54459e-05
0.0011286
7.29708e-06
0.0011298
-4.40048e-07
0.00113029
-8.06362e-06
0.00113015
-1.52429e-05
0.00112934
-2.21605e-05
0.00112785
-2.88322e-05
0.00112566
-3.52555e-05
0.00112272
-4.14341e-05
0.00111899
-4.73719e-05
0.00111444
-5.30687e-05
0.00110901
-5.85217e-05
0.00110266
-6.37263e-05
0.00109536
-6.8675e-05
0.00108707
-7.33538e-05
0.00107777
-7.7739e-05
0.00106747
-8.17971e-05
0.00105622
-8.54941e-05
0.00104411
-8.88138e-05
0.00103123
-9.17737e-05
0.00101769
-9.44403e-05
0.0010036
-9.69414e-05
0.000989002
-9.94642e-05
0.000973876
-0.000102233
0.000958115
-0.000105467
0.000941551
-0.000109323
0.00092399
-0.000113843
0.000905271
-0.000118916
0.000885326
-0.000124278
0.000864208
-0.000129543
0.000842096
-0.000134278
0.000819263
-0.000138068
0.000796031
-0.000140572
0.000772727
-0.000141551
0.000749649
-0.000140866
0.000727049
-0.000138465
0.000705126
-0.000134379
0.000684021
-0.000128715
0.000663822
-0.000121658
0.000644567
-0.00011346
0.00062626
-0.000104431
0.000608876
-9.49239e-05
0.000592369
-8.53093e-05
0.000576667
-7.59594e-05
0.000561666
-6.71843e-05
0.000547203
-5.93029e-05
0.000533015
-5.2232e-05
0.000518818
-4.67879e-05
-4.04925e-05
0.000410014
0.000107501
0.000432754
0.000100912
0.000455183
0.00010162
0.000477152
0.000107179
0.000499455
0.000112747
0.000522203
0.000117374
0.000545203
0.000121836
0.00056844
0.000126167
0.00059194
0.000130026
0.000615686
0.00013329
0.000639722
0.000135985
0.000664189
0.000138119
0.000689281
0.000139662
0.000715152
0.000140532
0.000741864
0.000140638
0.000769388
0.00013998
0.000796434
0.000132814
0.000822522
0.000124081
0.000847429
0.000115471
0.000870887
0.000106815
0.000892681
9.81079e-05
0.000912686
8.94479e-05
0.000930852
8.09228e-05
0.000947182
7.25728e-05
0.000961715
6.44045e-05
0.00097451
5.64094e-05
0.000985639
4.8576e-05
0.000995176
4.08913e-05
0.00100319
3.33436e-05
0.00100976
2.59336e-05
0.00101493
1.86776e-05
0.00101878
1.15993e-05
0.00102135
4.72903e-06
0.00102277
-1.867e-06
0.001023
-8.29462e-06
0.00102219
-1.44317e-05
0.00102036
-2.03235e-05
0.00101752
-2.59967e-05
0.00101372
-3.14529e-05
0.00100897
-3.66909e-05
0.00100331
-4.17121e-05
0.000996763
-4.65169e-05
0.000989345
-5.11036e-05
0.000981087
-5.5469e-05
0.00097202
-5.96078e-05
0.000962177
-6.35105e-05
0.0009516
-6.7162e-05
0.000940345
-7.05429e-05
0.000928487
-7.36359e-05
0.000916112
-7.64384e-05
0.000903313
-7.89753e-05
0.000890182
-8.13089e-05
0.000876787
-8.35462e-05
0.000863158
-8.58357e-05
0.000849275
-8.835e-05
0.000835063
-9.12543e-05
0.000820405
-9.46646e-05
0.000805171
-9.86084e-05
0.000789251
-0.000102996
0.00077259
-0.000107617
0.000755209
-0.000112163
0.000737207
-0.000116276
0.000718739
-0.000119599
0.000699988
-0.000121821
0.000681141
-0.000122705
0.000662367
-0.000122091
0.000643805
-0.000119903
0.000625567
-0.000116141
0.000607736
-0.000110884
0.000590373
-0.000104295
0.000573522
-9.66089e-05
0.000557217
-8.81262e-05
0.000541485
-7.9192e-05
0.000526345
-7.01694e-05
0.000511799
-6.14137e-05
0.000497824
-5.32092e-05
0.000484333
-4.58116e-05
0.000471172
-3.90709e-05
0.000458024
-3.36403e-05
-2.68056e-05
0.000362528
8.82933e-05
0.000383496
7.99438e-05
0.000403597
8.15192e-05
0.000423064
8.77118e-05
0.00044288
9.29311e-05
0.000463078
9.71768e-05
0.000483524
0.00010139
0.000504297
0.000105394
0.00052542
0.000108903
0.000546805
0.000111905
0.000568367
0.000114423
0.000590058
0.000116428
0.000611865
0.000117854
0.000633785
0.000118612
0.000655815
0.000118608
0.000677971
0.000117824
0.000699348
0.000111438
0.00071975
0.000103679
0.000739189
9.6032e-05
0.000757602
8.84023e-05
0.00077491
8.08003e-05
0.000791051
7.33071e-05
0.000805982
6.59915e-05
0.000819675
5.88801e-05
0.00083211
5.19688e-05
0.000843279
4.52406e-05
0.000853179
3.86764e-05
0.000861812
3.22578e-05
0.000869186
2.59692e-05
0.000875314
1.98061e-05
0.000880214
1.37777e-05
0.000883913
7.9001e-06
0.000886456
2.18627e-06
0.000887914
-3.32535e-06
0.000888308
-8.6887e-06
0.000887727
-1.38501e-05
0.00088621
-1.88064e-05
0.000883791
-2.35785e-05
0.000880511
-2.81725e-05
0.000876407
-3.2587e-05
0.000871517
-3.6822e-05
0.000865878
-4.08778e-05
0.000859527
-4.47526e-05
0.000852501
-4.84433e-05
0.000844838
-5.19447e-05
0.000836576
-5.52489e-05
0.000827759
-5.83444e-05
0.000818434
-6.12181e-05
0.000808659
-6.38604e-05
0.000798495
-6.62745e-05
0.000788005
-6.8486e-05
0.000777247
-7.05511e-05
0.000766261
-7.25599e-05
0.000755059
-7.4634e-05
0.000743621
-7.69114e-05
0.000731889
-7.95222e-05
0.00071978
-8.2556e-05
0.000707202
-8.60304e-05
0.000694075
-8.98685e-05
0.000680351
-9.38934e-05
0.000666032
-9.78442e-05
0.000651166
-0.00010141
0.000635838
-0.000104271
0.000620154
-0.000106137
0.000604223
-0.000106774
0.000588148
-0.000106016
0.000572021
-0.000103776
0.000555924
-0.000100044
0.000539937
-9.48969e-05
0.000524137
-8.84949e-05
0.000508604
-8.10766e-05
0.000493423
-7.29448e-05
0.000478675
-6.4444e-05
0.000464436
-5.59302e-05
0.000450761
-4.77388e-05
0.000437681
-4.01287e-05
0.00042515
-3.3281e-05
0.0004131
-2.70213e-05
0.00040114
-2.16794e-05
-1.46828e-05
0.000320758
7.05686e-05
0.000340087
6.06147e-05
0.000357962
6.3644e-05
0.000375206
7.04679e-05
0.000392819
7.53176e-05
0.00041069
7.93065e-05
0.000428757
8.33231e-05
0.000447162
8.69891e-05
0.000465939
9.01263e-05
0.000485023
9.28205e-05
0.000504347
9.50997e-05
0.000523846
9.69281e-05
0.000543446
9.82545e-05
0.000563056
9.90021e-05
0.000582581
9.90828e-05
0.000601945
9.846e-05
0.000620301
9.30822e-05
0.000637492
8.6487e-05
0.000653584
7.99402e-05
0.000668602
7.33845e-05
0.000682559
6.6843e-05
0.000695473
6.03932e-05
0.000707362
5.41022e-05
0.000718244
4.79989e-05
0.000728129
4.20831e-05
0.000737029
3.63413e-05
0.000744949
3.07563e-05
0.000751895
2.53111e-05
0.000757874
1.99903e-05
0.000762893
1.47875e-05
0.000766963
9.70801e-06
0.000770099
4.76319e-06
0.000772339
-5.34299e-08
0.000773714
-4.70053e-06
0.000774248
-9.22271e-06
0.000773983
-1.35846e-05
0.000772954
-1.77772e-05
0.000771189
-2.18134e-05
0.000768716
-2.57004e-05
0.000765567
-2.9438e-05
0.000761771
-3.30253e-05
0.000757355
-3.64616e-05
0.000752347
-3.97452e-05
0.000746776
-4.28725e-05
0.00074067
-4.58384e-05
0.000734057
-4.86356e-05
0.000726967
-5.12548e-05
0.000719436
-5.36868e-05
0.000711501
-5.59261e-05
0.000703206
-5.79789e-05
0.00069459
-5.98705e-05
0.000685691
-6.16515e-05
0.000676531
-6.34002e-05
0.000667116
-6.52189e-05
0.000657427
-6.72223e-05
0.000647421
-6.95162e-05
0.000637036
-7.21715e-05
0.000626204
-7.51977e-05
0.000614859
-7.85236e-05
0.000602957
-8.1992e-05
0.000590484
-8.53705e-05
0.000577453
-8.83788e-05
0.000563905
-9.07231e-05
0.000549898
-9.21308e-05
0.000535503
-9.23781e-05
0.000520793
-9.13071e-05
0.000505855
-8.88372e-05
0.000490782
-8.49708e-05
0.000475682
-7.97968e-05
0.000460675
-7.34883e-05
0.000445892
-6.62934e-05
0.000431464
-5.85173e-05
0.000417518
-5.04972e-05
0.00040416
-4.25722e-05
0.000391467
-3.50464e-05
0.000379489
-2.81505e-05
0.00036819
-2.19818e-05
0.000357557
-1.63887e-05
0.000347118
-1.124e-05
-4.44902e-06
0.000284047
5.3995e-05
0.000301804
4.28575e-05
0.000317587
4.78611e-05
0.000332893
5.51619e-05
0.000348559
5.96515e-05
0.000364356
6.35097e-05
0.00038032
6.73584e-05
0.000396611
7.06988e-05
0.000413236
7.35008e-05
0.000430146
7.59107e-05
0.000447302
7.79438e-05
0.000464664
7.95663e-05
0.000482171
8.07472e-05
0.000499741
8.14325e-05
0.000517271
8.1552e-05
0.000534662
8.10697e-05
0.000551105
7.66392e-05
0.000566422
7.11702e-05
0.000580652
6.57097e-05
0.000593821
6.02156e-05
0.000605953
5.47111e-05
0.00061708
4.92656e-05
0.000627241
4.39414e-05
0.000636472
3.87682e-05
0.000644805
3.37496e-05
0.00065227
2.88766e-05
0.00065889
2.41368e-05
0.000664684
1.9517e-05
0.00066967
1.50036e-05
0.000673866
1.05921e-05
0.000677286
6.28775e-06
0.000679952
2.09721e-06
0.000681878
-1.97941e-06
0.000683096
-5.91873e-06
0.000683616
-9.74231e-06
0.000683466
-1.34343e-05
0.000682673
-1.69849e-05
0.000681261
-2.04013e-05
0.000679251
-2.36903e-05
0.000676665
-2.68524e-05
0.000673526
-2.98862e-05
0.000669855
-3.27906e-05
0.000665673
-3.55631e-05
0.000661001
-3.82002e-05
0.000655859
-4.06965e-05
0.000650269
-4.30452e-05
0.000644252
-4.5238e-05
0.000637833
-4.72676e-05
0.000631037
-4.91306e-05
0.000623893
-5.08343e-05
0.000616425
-5.24026e-05
0.000608654
-5.38808e-05
0.000600592
-5.53377e-05
0.000592234
-5.68615e-05
0.000583561
-5.85493e-05
0.000574534
-6.0489e-05
0.000565099
-6.27367e-05
0.000555196
-6.52942e-05
0.000544764
-6.8092e-05
0.000533757
-7.09845e-05
0.000522145
-7.37591e-05
0.000509926
-7.61592e-05
0.000497119
-7.79159e-05
0.000483768
-7.87801e-05
0.00046994
-7.85504e-05
0.000455725
-7.70917e-05
0.000441234
-7.43467e-05
0.000426605
-7.03412e-05
0.000411992
-6.51837e-05
0.000397563
-5.90599e-05
0.00038349
-5.222e-05
0.000369931
-4.4959e-05
0.000357026
-3.75916e-05
0.000344879
-3.04249e-05
0.000333553
-2.37209e-05
0.000323083
-1.76799e-05
0.000313415
-1.2314e-05
0.000304573
-7.54663e-06
0.000296026
-2.69329e-06
3.61211e-06
0.000251798
3.82832e-05
0.000267991
2.66645e-05
0.000281861
3.39914e-05
0.000295501
4.15218e-05
0.000309433
4.57198e-05
0.00032339
4.95522e-05
0.000337519
5.32297e-05
0.00035196
5.62579e-05
0.000366692
5.87689e-05
0.00038167
6.09326e-05
0.000396868
6.27456e-05
0.000412256
6.41785e-05
0.000427787
6.52162e-05
0.000443398
6.5821e-05
0.000459011
6.59389e-05
0.00047454
6.55413e-05
0.000489254
6.19245e-05
0.00050298
5.74449e-05
0.000515738
5.29514e-05
0.000527542
4.84112e-05
0.000538408
4.38456e-05
0.000548358
3.9315e-05
0.000557425
3.48752e-05
0.000565639
3.05538e-05
0.000573033
2.63554e-05
0.000579636
2.22734e-05
0.000585475
1.82986e-05
0.000590571
1.44206e-05
0.000594947
1.06272e-05
0.000598623
6.9163e-06
0.000601617
3.29442e-06
0.000603947
-2.32916e-07
0.00060563
-3.66312e-06
0.000606693
-6.98175e-06
0.000607149
-1.01976e-05
0.000607019
-1.33041e-05
0.000606326
-1.62927e-05
0.000605092
-1.91665e-05
0.000603332
-2.19309e-05
0.000601067
-2.45866e-05
0.000598312
-2.71314e-05
0.000595084
-2.95629e-05
0.000591399
-3.18779e-05
0.00058727
-3.40717e-05
0.000582712
-3.61382e-05
0.000577737
-3.807e-05
0.000572358
-3.98589e-05
0.000566588
-4.14978e-05
0.000560442
-4.29844e-05
0.000553933
-4.43256e-05
0.000547074
-4.55438e-05
0.000539874
-4.66801e-05
0.000532332
-4.77959e-05
0.000524439
-4.89688e-05
0.000516172
-5.02827e-05
0.000507495
-5.18117e-05
0.000498359
-5.36004e-05
0.000488709
-5.56441e-05
0.000478491
-5.78745e-05
0.000467663
-6.01561e-05
0.000456199
-6.2295e-05
0.0004441
-6.40602e-05
0.000431396
-6.52124e-05
0.000418151
-6.55349e-05
0.000404459
-6.48588e-05
0.000390449
-6.30809e-05
0.000376275
-6.01729e-05
0.000362117
-5.61833e-05
0.000348167
-5.12341e-05
0.000334619
-4.55118e-05
0.000321653
-3.92532e-05
0.00030942
-3.27269e-05
0.000298039
-2.62102e-05
0.000287582
-1.99676e-05
0.000278074
-1.42127e-05
0.000269514
-9.12026e-06
0.000261819
-4.61937e-06
0.000255039
-7.66205e-07
0.000248635
3.71032e-06
9.39369e-06
0.000223468
2.31975e-05
0.000238065
1.2068e-05
0.000250245
2.18105e-05
0.00026246
2.93075e-05
0.000274839
3.33406e-05
0.000287177
3.72144e-05
0.000299706
4.07001e-05
0.00031253
4.34339e-05
0.000325606
4.56933e-05
0.000338896
4.76424e-05
0.00035238
4.92613e-05
0.000366029
5.05294e-05
0.000379802
5.14436e-05
0.000393646
5.1977e-05
0.000407498
5.20872e-05
0.000421286
5.17526e-05
0.000434366
4.88446e-05
0.00044658
4.52312e-05
0.000457947
4.15848e-05
0.000468477
3.78809e-05
0.000478182
3.41402e-05
0.00048708
3.04173e-05
0.000495193
2.67623e-05
0.000502546
2.32009e-05
0.000509164
1.97376e-05
0.00051507
1.63667e-05
0.000520288
1.30814e-05
0.000524835
9.87323e-06
0.000528733
6.72936e-06
0.000531998
3.65083e-06
0.000534649
6.43664e-07
0.000536705
-2.28846e-06
0.000538182
-5.14042e-06
0.000539101
-7.901e-06
0.000539476
-1.05725e-05
0.000539323
-1.31511e-05
0.00053866
-1.56294e-05
0.000537501
-1.80074e-05
0.000535858
-2.02885e-05
0.000533744
-2.24723e-05
0.000531168
-2.45556e-05
0.00052814
-2.65346e-05
0.000524666
-2.84045e-05
0.000520754
-3.01597e-05
0.000516409
-3.17932e-05
0.000511636
-3.32973e-05
0.000506442
-3.46642e-05
0.000500832
-3.58878e-05
0.000494814
-3.69667e-05
0.000488397
-3.7909e-05
0.00048159
-3.87364e-05
0.000474398
-3.94877e-05
0.000466821
-4.02191e-05
0.000458852
-4.10002e-05
0.000450474
-4.19045e-05
0.000441658
-4.2995e-05
0.000432364
-4.43072e-05
0.000422552
-4.58317e-05
0.000412181
-4.75035e-05
0.000401224
-4.9199e-05
0.000389674
-5.07454e-05
0.000377555
-5.19408e-05
0.000364923
-5.25803e-05
0.000351871
-5.24836e-05
0.00033853
-5.15171e-05
0.000325057
-4.96088e-05
0.000311638
-4.67539e-05
0.00029847
-4.30145e-05
0.000285749
-3.85133e-05
0.000273661
-3.34234e-05
0.000262362
-2.79549e-05
0.000251974
-2.23386e-05
0.000242571
-1.68069e-05
0.000234182
-1.15793e-05
0.000226791
-6.821e-06
0.000220361
-2.69124e-06
0.000214781
9.61464e-07
0.000210111
3.90357e-06
0.00020589
7.93148e-06
1.29784e-05
0.00019856
8.56662e-06
0.000211521
-8.92927e-07
0.000222268