/*--------------------------------*- C++ -*----------------------------------*\
| =========                 |                                                 |
| \\      /  F ield         | OpenFOAM: The Open Source CFD Toolbox           |
|  \\    /   O peration     | Version:  v1912                                 |
|   \\  /    A nd           | Website:  www.openfoam.com                      |
|    \\/     M anipulation  |                                                 |
\*---------------------------------------------------------------------------*/
FoamFile
{
    version     2.0;
    format      ascii;
    class       volScalarField;
    location    "300";
    object      p;
}
// * * * * * * * * * * * * * * * * * * * * * * * * * * * * * * * * * * * * * //

dimensions      [0 2 -2 0 0 0 0];


internalField   nonuniform List<scalar> 
2000
(
-0.042398
0.0750133
0.129593
0.122704
0.106876
0.100568
0.0999611
0.101311
0.101529
0.101301
0.101435
0.10111
0.100848
0.10079
0.10084
0.10079
0.100633
0.100537
0.100486
0.100444
0.100384
0.10028
0.100155
0.100042
0.0999702
0.0999466
0.099955
0.0999613
0.0999442
0.0998946
0.0998071
0.0996931
0.0995743
0.0994798
0.0994413
0.0994828
0.0996686
0.0999617
0.100335
0.100749
0.101147
0.101463
0.101629
0.101441
0.100931
0.100082
0.0988794
0.097364
0.0956313
0.0938146
0.0920808
0.0905705
0.0893392
0.0883373
0.0874106
0.0862962
0.0846556
0.0821916
0.0790572
0.0764288
0.0761497
0.0797493
0.0880917
0.0998589
0.113489
0.127544
0.141071
0.15354
0.164608
0.173926
0.181146
0.185887
0.187669
0.185861
0.179544
0.167678
0.148753
0.122261
0.0821319
0.0411626
0.0108467
0.0960238
0.134842
0.121647
0.103906
0.0997045
0.103235
0.105668
0.102921
0.0996947
0.099254
0.100546
0.101002
0.100872
0.101026
0.100828
0.100611
0.100453
0.100393
0.100364
0.100339
0.100263
0.100134
0.100011
0.0999362
0.0999167
0.0999422
0.0999884
0.100013
0.0999851
0.099881
0.0997189
0.0995272
0.0993473
0.099235
0.0992524
0.0993934
0.0997075
0.100188
0.100781
0.101406
0.101956
0.102267
0.102363
0.102047
0.101214
0.0998226
0.0978966
0.0955389
0.0929715
0.0904989
0.0883556
0.086592
0.0850446
0.083277
0.0806485
0.0767059
0.0713964
0.0656176
0.062843
0.0667037
0.0759273
0.0876464
0.100907
0.114919
0.128751
0.14167
0.153245
0.16321
0.171315
0.177235
0.180512
0.180569
0.176768
0.168239
0.154055
0.132911
0.104664
0.0649791
0.0292055
0.0619117
0.0957102
0.118402
0.116845
0.107646
0.103468
0.103501
0.102864
0.100966
0.100306
0.101902
0.103456
0.102417
0.0999067
0.0989926
0.0998639
0.100737
0.10085
0.1006
0.100401
0.100229
0.100067
0.0999697
0.0999338
0.099927
0.0999616
0.100037
0.100126
0.100181
0.100184
0.100082
0.0998413
0.0994849
0.0990787
0.0987192
0.0985215
0.0985869
0.098984
0.0996736
0.100691
0.101887
0.103059
0.104177
0.104827
0.104856
0.104017
0.102189
0.0993958
0.095843
0.0919471
0.0882446
0.0851832
0.0829042
0.0812722
0.0798447
0.0780065
0.0755608
0.072689
0.0705047
0.0702197
0.0735905
0.080985
0.0914494
0.103607
0.116281
0.128621
0.140007
0.150017
0.15836
0.164777
0.168953
0.170471
0.16882
0.163418
0.153567
0.1386
0.117605
0.0908656
0.055426
0.02479
0.0868969
0.0969107
0.10946
0.113539
0.110845
0.107825
0.106163
0.104433
0.102818
0.102011
0.101818
0.101695
0.101334
0.100604
0.100057
0.100975
0.102167
0.101364
0.100085
0.0995013
0.0993119
0.0994599
0.0997273
0.0999166
0.100051
0.100196
0.100376
0.100577
0.100755
0.100767
0.1006
0.100197
0.0995507
0.0987308
0.0978914
0.0972695
0.097131
0.0976386
0.0986347
0.100361
0.102623
0.105096
0.107169
0.108507
0.109123
0.10825
0.105725
0.10164
0.0963894
0.0906644
0.0853103
0.0810898
0.0782196
0.0766383
0.0760834
0.075875
0.0753337
0.0746508
0.0743842
0.0755002
0.0791678
0.0859562
0.095309
0.10604
0.117098
0.127759
0.137483
0.145848
0.152538
0.157283
0.159791
0.159706
0.156601
0.150004
0.139392
0.124318
0.104172
0.0793943
0.0479623
0.0206386
0.099236
0.102836
0.110356
0.114325
0.113195
0.110864
0.109482
0.108443
0.107142
0.105692
0.104333
0.103231
0.10249
0.101623
0.100622
0.10062
0.101146
0.101308
0.101024
0.100385
0.0998522
0.0996223
0.0996487
0.0998192
0.100015
0.100242
0.1005
0.100769
0.101041
0.101251
0.101174
0.100663
0.0996961
0.0983681
0.0969028
0.0956912
0.0951867
0.09534
0.0968681
0.0994451
0.102846
0.106592
0.11003
0.11266
0.113431
0.11235
0.109144
0.10386
0.0970373
0.0895854
0.082658
0.0773249
0.0741746
0.0728315
0.0728329
0.0736496
0.0747022
0.0758532
0.0774471
0.0801558
0.0846594
0.0912317
0.0994991
0.108674
0.117974
0.126802
0.134705
0.141322
0.14636
0.14956
0.150653
0.149331
0.145241
0.138009
0.127232
0.112595
0.0936546
0.0708864
0.0427375
0.0180405
0.107676
0.109509
0.113462
0.115632
0.114815
0.113204
0.112243
0.111565
0.110604
0.109409
0.108273
0.107268
0.106232
0.104878
0.103468
0.102729
0.102566
0.102368
0.101672
0.100617
0.0998273
0.0995186
0.0995673
0.0997341
0.0998919
0.100113
0.1005
0.101042
0.101578
0.101913
0.101808
0.101081
0.0997382
0.0979391
0.0959637
0.0942868
0.0933792
0.093999
0.0959072
0.0990668
0.103189
0.107681
0.111784
0.114747
0.1158
0.114574
0.110901
0.105058
0.0977913
0.0902138
0.0835002
0.0785693
0.0757589
0.0748277
0.0753669
0.0768401
0.078731
0.0808465
0.0833678
0.0866874
0.0911822
0.0969928
0.103902
0.111414
0.118967
0.126078
0.132361
0.137497
0.141207
0.143233
0.143317
0.14118
0.13652
0.129019
0.118344
0.104242
0.0863497
0.0651349
0.039218
0.0164599
0.114486
0.115308
0.116545
0.116881
0.116092
0.115104
0.114442
0.113899
0.113227
0.112465
0.11173
0.110993
0.110109
0.10897
0.107769
0.106878
0.106317
0.105641
0.104552
0.103304
0.102345
0.101811
0.101577
0.101466
0.101419
0.101491
0.101725
0.102061
0.102356
0.102464
0.102211
0.101447
0.100149
0.0984439
0.0966551
0.0952799
0.094743
0.095491
0.0975221
0.100707
0.104677
0.108847
0.112523
0.115022
0.115765
0.114433
0.110984
0.105734
0.0993805
0.0928992
0.0872607
0.083161
0.0808722
0.0802341
0.0808617
0.0823234
0.0842665
0.0865392
0.0892253
0.0925433
0.0967005
0.101759
0.107563
0.11377
0.11996
0.125741
0.130779
0.134783
0.137488
0.138646
0.13801
0.13532
0.130303
0.122675
0.11214
0.0984797
0.0813668
0.061252
0.0368124
0.0154666
0.120362
0.120307
0.11939
0.11818
0.117354
0.116833
0.116353
0.115878
0.115429
0.114983
0.114519
0.114004
0.11338
0.112608
0.111767
0.111033
0.110437
0.109733
0.108761
0.107684
0.106768
0.106118
0.105681
0.105373
0.105163
0.105075
0.105118
0.105236
0.105324
0.105252
0.104872
0.104074
0.102864
0.101409
0.100047
0.0991199
0.0989732
0.0998862
0.101874
0.104747
0.108158
0.111615
0.114557
0.116448
0.116869
0.115599
0.112669
0.108386
0.103319
0.0981921
0.0937008
0.0903386
0.0883096
0.0875351
0.0877768
0.0887709
0.0903046
0.0922759
0.0947173
0.0977391
0.101439
0.10582
0.110744
0.115948
0.1211
0.125872
0.129965
0.13311
0.135057
0.135565
0.134394
0.131301
0.126028
0.118316
0.107892
0.0945579
0.0780047
0.0586563
0.035223
0.0148091
0.125765
0.124775
0.12181
0.119265
0.118506
0.118414
0.118075
0.117661
0.117389
0.117161
0.116878
0.116533
0.11612
0.115611
0.115037
0.114501
0.114032
0.113487
0.112761
0.111938
0.111192
0.110618
0.110206
0.109907
0.109694
0.109572
0.109537
0.109548
0.109522
0.109353
0.108942
0.108229
0.107252
0.106151
0.105158
0.104552
0.104594
0.105438
0.107083
0.109379
0.112049
0.114716
0.116954
0.118364
0.118641
0.117628
0.115351
0.112033
0.108074
0.103979
0.100248
0.0972591
0.0952112
0.0941194
0.0938814
0.0943578
0.0954291
0.0970303
0.0991643
0.101873
0.105182
0.10905
0.11334
0.117828
0.122235
0.126272
0.129668
0.13217
0.13354
0.133548
0.131963
0.128553
0.123078
0.115295
0.104951
0.0918593
0.0757156
0.0569114
0.0341836
0.0143313
0.130995
0.128807
0.123611
0.119965
0.119498
0.119821
0.119587
0.119257
0.119164
0.119121
0.118985
0.118773
0.118506
0.118164
0.117765
0.117381
0.117034
0.116631
0.116096
0.115482
0.114915
0.114477
0.114167
0.113948
0.113797
0.113708
0.113674
0.113661
0.113603
0.113424
0.113058
0.112474
0.111709
0.110865
0.110094
0.10967
0.109769
0.110479
0.111804
0.113633
0.115749
0.117854
0.119621
0.120739
0.120963
0.120164
0.118347
0.115669
0.112415
0.108958
0.105678
0.102887
0.100779
0.0994273
0.0988165
0.098891
0.0995937
0.100886
0.102758
0.105208
0.108217
0.111712
0.115551
0.119528
0.123392
0.126883
0.129749
0.131753
0.13267
0.132279
0.130361
0.126694
0.121051
0.113208
0.102925
0.0900219
0.0741894
0.055783
0.0335436
0.0139995
0.136233
0.132383
0.124688
0.120295
0.120384
0.121071
0.120894
0.120673
0.120767
0.120892
0.120888
0.120796
0.120649
0.120432
0.12016
0.119884
0.119623
0.119315
0.118906
0.118437
0.118004
0.117673
0.117445
0.117292
0.117194
0.117145
0.117132
0.117124
0.117071
0.116913
0.116602
0.11612
0.115498
0.114816
0.114216
0.1139
0.114003
0.114597
0.115685
0.117179
0.118907
0.120631
0.122086
0.123017
0.123221
0.122581
0.121089
0.118851
0.116081
0.113059
0.110086
0.107426
0.105268
0.103721
0.102828
0.102593
0.103004
0.104047
0.105705
0.107954
0.110742
0.11397
0.117486
0.121091
0.124552
0.127628
0.130084
0.131696
0.13225
0.131536
0.129345
0.125467
0.119687
0.111795
0.101563
0.0888183
0.0732329
0.0551284
0.0331988
0.0138201
0.141599
0.135429
0.125013
0.120352
0.121215
0.122174
0.122018
0.121934
0.122211
0.12248
0.122594
0.122614
0.122578
0.122472
0.122306
0.122121
0.121932
0.121697
0.12138
0.121015
0.120675
0.120416
0.120242
0.120133
0.120072
0.12005
0.120053
0.120055
0.120012
0.119876
0.11961
0.119202
0.11868
0.118118
0.117634
0.117379
0.117471
0.117974
0.118889
0.120149
0.121613
0.123086
0.124345
0.125171
0.125388
0.124885
0.123638
0.121721
0.119293
0.116573
0.113808
0.111228
0.109018
0.107308
0.106183
0.105691
0.105859
0.106693
0.108177
0.11027
0.112894
0.115929
0.119212
0.122542
0.125698
0.128453
0.130586
0.131884
0.132146
0.131169
0.128756
0.124706
0.118817
0.11089
0.100711
0.0881073
0.072728
0.0548642
0.0330895
0.0138205
0.147171
0.137842
0.124621
0.120256
0.122015
0.123127
0.122987
0.123067
0.123513
0.123901
0.124118
0.124241
0.124305
0.124298
0.124227
0.124125
0.124005
0.123838
0.123599
0.123316
0.123051
0.122848
0.122717
0.122641
0.122607
0.122605
0.122622
0.122632
0.1226
0.122485
0.122257
0.121906
0.121461
0.120987
0.120579
0.120359
0.120433
0.120858
0.121639
0.122723
0.123996
0.125292
0.12642
0.127188
0.127434
0.12705
0.126001
0.124332
0.122161
0.119666
0.117051
0.114518
0.112249
0.110389
0.109055
0.108334
0.108285
0.108935
0.110272
0.112242
0.114745
0.117641
0.120752
0.123878
0.126801
0.129305
0.131181
0.132228
0.132253
0.131065
0.128474
0.12429
0.118319
0.110377
0.100255
0.0877856
0.0725862
0.0549259
0.0331767
0.0140191
0.15299
0.139504
0.123608
0.120123
0.12278
0.123934
0.123833
0.124094
0.124686
0.125173
0.125482
0.125697
0.125848
0.125927
0.12594
0.125913
0.125858
0.125754
0.125584
0.125373
0.125172
0.12502
0.124926
0.124881
0.124871
0.124887
0.124917
0.124938
0.12492
0.124827
0.124632
0.12433
0.123946
0.123533
0.123175
0.122973
0.123022
0.123375
0.124045
0.124991
0.126118
0.127286
0.128327
0.129068
0.129356
0.129084
0.128203
0.126736
0.124769
0.122443
0.119932
0.117417
0.115075
0.113065
0.111531
0.110593
0.110343
0.110827
0.112037
0.113908
0.11632
0.119115
0.1221
0.125071
0.127814
0.13012
0.131792
0.132639
0.132476
0.131124
0.128399
0.124118
0.118097
0.11016
0.100103
0.0877646
0.0727267
0.0552495
0.0334294
0.0144083
0.159064
0.140307
0.122121
0.120044
0.123494
0.124607
0.124583
0.125028
0.125743
0.126312
0.126704
0.127001
0.127229
0.127383
0.127468
0.127508
0.127512
0.127465
0.127356
0.127208
0.127063
0.126956
0.126897
0.126879
0.126891
0.126926
0.12697
0.127004
0.127002
0.126931
0.126767
0.126506
0.126169
0.125803
0.125478
0.125283
0.125302
0.125591
0.126166
0.126998
0.128011
0.129085
0.130069
0.130804
0.131142
0.130974
0.130238
0.128937
0.127131
0.124933
0.12249
0.119968
0.117539
0.115375
0.113644
0.112499
0.11206
0.112391
0.113489
0.115278
0.117621
0.12034
0.12323
0.126082
0.128685
0.130838
0.13235
0.133042
0.132738
0.131265
0.128447
0.124107
0.118066
0.110154
0.100171
0.0879588
0.073068
0.0557653
0.0338146
0.014966
0.165371
0.140174
0.120335
0.120068
0.124131
0.125167
0.125261
0.125879
0.126693
0.127334
0.127801
0.12817
0.128467
0.128686
0.128834
0.128933
0.128991
0.128995
0.128939
0.128845
0.128748
0.128681
0.128653
0.12866
0.128693
0.128745
0.128803
0.128851
0.128866
0.128816
0.128681
0.128456
0.128158
0.127826
0.127523
0.127327
0.127315
0.127543
0.128034
0.128771
0.129692
0.130694
0.131641
0.132381
0.132771
0.132696
0.132083
0.130916
0.129234
0.127125
0.124717
0.122162
0.119631
0.117309
0.115388
0.114049
0.113437
0.113633
0.114633
0.116353
0.11864
0.1213
0.124117
0.126878
0.129374
0.13141
0.132805
0.133384
0.132982
0.131429
0.128556
0.12419
0.118156
0.110285
0.100381
0.0882899
0.0735328
0.0564031
0.0342972
0.0156388
0.17186
0.139095
0.118432
0.120205
0.124673
0.125636
0.125882
0.126654
0.127547
0.128252
0.128786
0.12922
0.129576
0.129852
0.130057
0.130208
0.130313
0.130362
0.130354
0.130306
0.130252
0.130219
0.130218
0.130246
0.130298
0.130365
0.130436
0.130496
0.130526
0.130496
0.130385
0.13019
0.129923
0.129616
0.129325
0.129119
0.129072
0.12924
0.129654
0.130307
0.131151
0.132095
0.133013
0.133762
0.134198
0.134198
0.13368
0.132611
0.131013
0.128955
0.12655
0.123942
0.121306
0.118837
0.116748
0.115242
0.114484
0.114566
0.115484
0.117147
0.119387
0.121999
0.12476
0.127452
0.129871
0.131824
0.133136
0.133642
0.133177
0.131581
0.128685
0.124319
0.118311
0.110493
0.10067
0.0886928
0.0740564
0.0570996
0.0348406
0.0163744
0.178448
0.137092
0.11657
0.120437
0.125112
0.126038
0.126455
0.127355
0.128312
0.129073
0.129666
0.130156
0.130563
0.130889
0.131141
0.131337
0.131483
0.131571
0.131602
0.131593
0.131573
0.131568
0.131588
0.131634
0.131699
0.131777
0.131857
0.131925
0.131968
0.131952
0.131857
0.131682
0.131434
0.131139
0.130847
0.130622
0.130534
0.130643
0.130986
0.131564
0.132341
0.133236
0.134131
0.134885
0.135352
0.135404
0.13495
0.133943
0.132392
0.130355
0.127934
0.125271
0.122543
0.119956
0.117736
0.116103
0.115234
0.115228
0.116081
0.117695
0.119896
0.122469
0.125187
0.12783
0.130194
0.132092
0.133354
0.133815
0.133319
0.131706
0.12881
0.124464
0.118494
0.110735
0.100991
0.0891196
0.074591
0.057805
0.0354125
0.0171288
0.185042
0.134262
0.114861
0.120722
0.125451
0.126389
0.126976
0.127976
0.12898
0.129787
0.130428
0.130961
0.131408
0.131772
0.132061
0.132291
0.132468
0.132586
0.132646
0.132666
0.132671
0.132685
0.132719
0.132774
0.132846
0.132928
0.133012
0.133083
0.133131
0.133113
0.133027
0.132861
0.132618
0.132322
0.132019
0.13177
0.131642
0.131698
0.13198
0.132498
0.133222
0.134078
0.134952
0.135705
0.13619
0.136272
0.135854
0.134881
0.133353
0.13132
0.12888
0.126174
0.123381
0.120714
0.118407
0.116689
0.115744
0.115674
0.116477
0.118052
0.120219
0.12276
0.125444
0.128053
0.130381
0.132247
0.13348
0.133921
0.133414
0.131803
0.128924
0.124607
0.118682
0.110983
0.101314
0.0895388
0.0751064
0.0584833
0.0359878
0.0178693
0.191551
0.130737
0.113376
0.12101
0.125697
0.126684
0.127421
0.128487
0.12952
0.130357
0.131029
0.131591
0.132063
0.132451
0.132764
0.133016
0.133213
0.133349
0.133427
0.133464
0.133483
0.133507
0.133547
0.133605
0.133678
0.13376
0.133843
0.133914
0.133949
0.133931
0.133846
0.133679
0.133434
0.133131
0.132815
0.132543
0.132383
0.1324
0.132639
0.133116
0.133803
0.134631
0.135489
0.136239
0.13673
0.136828
0.136428
0.135472
0.133954
0.131921
0.129469
0.126737
0.123906
0.121194
0.118836
0.117067
0.116073
0.11596
0.116726
0.118269
0.120407
0.122922
0.125581
0.128166
0.130473
0.132321
0.133542
0.133978
0.133475
0.131878
0.129022
0.124741
0.118861
0.111221
0.101621
0.089932
0.0755853
0.0591133
0.0365486
0.0185751
0.197896
0.126673
0.112154
0.121263
0.125858
0.126907
0.127749
0.128849
0.129893
0.130746
0.131435
0.132011
0.132496
0.132897
0.133222
0.133486
0.133693
0.133838
0.133926
0.133971
0.133997
0.134025
0.134067
0.134125
0.134196
0.134276
0.134355
0.134419
0.134449
0.13443
0.134342
0.134171
0.133921
0.133612
0.133285
0.132998
0.132819
0.132813
0.133027
0.133478
0.134144
0.134955
0.135802
0.136547
0.13704
0.137145
0.136753
0.135806
0.134294
0.132261
0.129804
0.127061
0.124214
0.12148
0.119097
0.1173
0.116278
0.116136
0.116874
0.11839
0.120505
0.122998
0.125639
0.128208
0.130503
0.132344
0.133562
0.134003
0.133512
0.131934
0.129106
0.124861
0.119026
0.11144
0.101902
0.0902907
0.0760204
0.0596845
0.0370825
0.0192363
0.204079
0.122339
0.111221
0.121456
0.125941
0.127039
0.127941
0.129054
0.130102
0.130962
0.131658
0.132241
0.132732
0.133139
0.133471
0.13374
0.133952
0.134101
0.134193
0.134243
0.134272
0.134301
0.134343
0.1344
0.13447
0.134548
0.134623
0.134686
0.134714
0.134691
0.1346
0.134426
0.134172
0.133859
0.133526
0.133231
0.133043
0.133025
0.133227
0.133666
0.13432
0.135122
0.135963
0.136705
0.137198
0.137304
0.136917
0.135974
0.134466
0.132436
0.129979
0.127234
0.124382
0.121641
0.119248
0.117438
0.116398
0.116237
0.116954
0.11845
0.120546
0.123022
0.125649
0.128208
0.130497
0.132337
0.13356
0.13401
0.133535
0.131978
0.129178
0.124967
0.119175
0.111636
0.102154
0.0906124
0.0764106
0.060194
0.0375821
0.0198527
0.210243
0.118251
0.110587
0.121572
0.125958
0.127088
0.12802
0.129139
0.13019
0.131053
0.131753
0.132339
0.132833
0.133243
0.133577
0.133849
0.134063
0.134214
0.134308
0.13436
0.13439
0.134421
0.134463
0.13452
0.134589
0.134665
0.134739
0.134801
0.134829
0.134804
0.13471
0.134535
0.134279
0.133964
0.133629
0.133331
0.133139
0.133117
0.133315
0.133749
0.134398
0.135196
0.136033
0.136773
0.137266
0.137373
0.136989
0.136049
0.134545
0.132518
0.130064
0.127321
0.12447
0.121727
0.119331
0.117514
0.116464
0.11629
0.116992
0.118472
0.120552
0.123015
0.125633
0.128185
0.130473
0.132315
0.133545
0.134008
0.133549
0.132015
0.129242
0.125065
0.119308
0.111812
0.102382
0.090903
0.0767644
0.0606516
0.0380509
0.0204408
0.21634
0.115045
0.110191
0.121621
0.125938
0.127081
0.128028
0.129154
0.130208
0.131073
0.131776
0.132363
0.132859
0.13327
0.133606
0.133879
0.134094
0.134246
0.134341
0.134393
0.134424
0.134455
0.134498
0.134554
0.134623
0.134699
0.134774
0.134836
0.134862
0.134838
0.134744
0.134568
0.134311
0.133995
0.133659
0.133361
0.133168
0.133146
0.133342
0.133775
0.134423
0.135219
0.136055
0.136794
0.137287
0.137397
0.137015
0.136079
0.134578
0.132555
0.130104
0.127364
0.124515
0.121773
0.119375
0.117553
0.116497
0.116312
0.117003
0.11847
0.120539
0.122992
0.125603
0.128153
0.130441
0.132289
0.133529
0.134006
0.133566
0.132052
0.129305
0.125157
0.119435
0.11198
0.102597
0.0911753
0.0770955
0.0610751
0.038496
0.0210301
0.221066
0.113102
0.109965
0.121649
0.125916
0.127057
0.128012
0.129144
0.130201
0.131068
0.131771
0.13236
0.132856
0.133268
0.133604
0.133878
0.134093
0.134245
0.134341
0.134393
0.134424
0.134456
0.134499
0.134556
0.134626
0.134702
0.134777
0.134839
0.134865
0.13484
0.134745
0.134569
0.134312
0.133996
0.13366
0.133362
0.13317
0.133148
0.133344
0.133777
0.134425
0.135221
0.136057
0.136797
0.137291
0.137403
0.137023
0.13609
0.134593
0.132574
0.130127
0.127389
0.124542
0.1218
0.1194
0.117575
0.116511
0.116318
0.116998
0.118454
0.120514
0.122962
0.125569
0.128118
0.13041
0.132264
0.133514
0.134004
0.13358
0.132086
0.129362
0.125241
0.11955
0.112132
0.10279
0.0914162
0.0773855
0.0614458
0.0388797
0.0215856
)
;

boundaryField
{
    inlet
    {
        type            zeroGradient;
    }
    outlet
    {
        type            fixedValue;
        value           uniform 0;
    }
    fixedWalls
    {
        type            zeroGradient;
    }
    frontAndBack
    {
        type            empty;
    }
}


// ************************************************************************* //
