/*--------------------------------*- C++ -*----------------------------------*\
| =========                 |                                                 |
| \\      /  F ield         | OpenFOAM: The Open Source CFD Toolbox           |
|  \\    /   O peration     | Version:  v1912                                 |
|   \\  /    A nd           | Website:  www.openfoam.com                      |
|    \\/     M anipulation  |                                                 |
\*---------------------------------------------------------------------------*/
FoamFile
{
    version     2.0;
    format      ascii;
    class       surfaceScalarField;
    location    "300";
    object      phi;
}
// * * * * * * * * * * * * * * * * * * * * * * * * * * * * * * * * * * * * * //

dimensions      [0 3 -1 0 0 0 0];
oriented        oriented;


internalField   nonuniform List<scalar> 
3895
(
0.000814744
0.000381432
0.000499357
0.000315388
0.000251558
0.000247799
6.48558e-05
0.000186702
-6.22052e-05
0.000127061
-0.000127356
6.51503e-05
-0.000137687
1.03318e-05
-0.000113675
-2.40121e-05
-9.0218e-05
-2.34573e-05
-8.46594e-05
-5.55863e-06
-6.59782e-05
-1.86811e-05
-4.47796e-05
-2.11987e-05
-4.01999e-05
-4.57971e-06
-4.70585e-05
6.85862e-06
-4.05543e-05
-6.50423e-06
-2.20901e-05
-1.84642e-05
-1.04268e-05
-1.16633e-05
-7.08282e-06
-3.34397e-06
-6.37734e-06
-7.05478e-07
-4.13171e-06
-2.24563e-06
2.37721e-06
-6.50892e-06
1.22901e-05
-9.91286e-06
2.27134e-05
-1.04233e-05
3.107e-05
-8.35659e-06
3.6004e-05
-4.93407e-06
3.76807e-05
-1.6767e-06
3.65909e-05
1.08984e-06
3.38217e-05
2.76925e-06
3.07933e-05
3.02837e-06
2.8018e-05
2.77528e-06
2.55368e-05
2.48121e-06
2.32917e-05
2.24508e-06
2.12557e-05
2.03604e-06
1.95131e-05
1.74255e-06
1.82686e-05
1.24453e-06
1.77569e-05
5.11706e-07
1.85519e-05
-7.95009e-07
2.05257e-05
-1.97384e-06
2.35399e-05
-3.01419e-06
2.72453e-05
-3.70537e-06
3.10211e-05
-3.7758e-06
3.39469e-05
-2.92581e-06
3.50951e-05
-1.14825e-06
3.23832e-05
2.71194e-06
2.55092e-05
6.87403e-06
1.39572e-05
1.1552e-05
-2.73378e-06
1.6691e-05
-2.47723e-05
2.20385e-05
-5.24643e-05
2.7692e-05
-8.68855e-05
3.44212e-05
-0.000129483
4.25977e-05
-0.000181033
5.15497e-05
-0.000241425
6.0392e-05
-0.000310434
6.90093e-05
-0.000387849
7.74151e-05
-0.00047141
8.35608e-05
-0.000555386
8.39762e-05
-0.000631509
7.61224e-05
-0.000690835
5.93257e-05
-0.000722666
3.1831e-05
-0.000717676
-4.9891e-06
-0.000686973
-3.07038e-05
-0.000633846
-5.3127e-05
-0.00056446
-6.93853e-05
-0.00048477
-7.96903e-05
-0.000399241
-8.55294e-05
-0.00031064
-8.86005e-05
-0.000220313
-9.03273e-05
-0.000128821
-9.14918e-05
-3.63715e-05
-9.24494e-05
5.68361e-05
-9.32076e-05
0.000150569
-9.37325e-05
0.000244701
-9.41325e-05
0.000338326
-9.36251e-05
0.000430527
-9.22008e-05
0.000520949
-9.04223e-05
0.000609429
-8.848e-05
0.000698652
-8.92228e-05
0.000788425
-8.97727e-05
-0.000111944
0.00108795
0.000349295
0.00104738
0.000355952
0.000933269
0.000361911
0.000775728
0.000344244
0.000598401
0.000304389
0.000410358
0.000253193
0.000221238
0.000199452
5.38643e-05
0.000143361
-6.05453e-05
9.09524e-05
-0.000110352
4.42478e-05
-0.000132033
3.00046e-06
-0.000124371
-2.88612e-05
-0.00010718
-2.17708e-05
-0.000110408
1.00867e-05
-0.000108029
-8.88272e-06
-9.7593e-05
-2.89004e-05
-8.48595e-05
-2.43968e-05
-8.62898e-05
-1.91368e-06
-9.33943e-05
6.39898e-06
-9.77079e-05
2.06796e-06
-9.65163e-05
-7.70051e-06
-9.02532e-05
-1.6176e-05
-8.13304e-05
-1.93461e-05
-7.08216e-05
-1.88654e-05
-6.00808e-05
-1.56749e-05
-5.0321e-05
-1.14365e-05
-4.19121e-05
-7.31904e-06
-3.53193e-05
-3.82355e-06
-3.11476e-05
-1.14339e-06
-2.96794e-05
1.30711e-06
-3.04003e-05
3.20213e-06
-3.27841e-05
4.62889e-06
-3.64267e-05
5.67863e-06
-4.08332e-05
6.14902e-06
-4.5436e-05
5.84731e-06
-4.96233e-05
4.69903e-06
-5.32842e-05
2.86593e-06
-5.59372e-05
6.79153e-07
-5.77481e-05
-1.20331e-06
-5.91841e-05
-2.2694e-06
-6.10511e-05
-1.90876e-06
-6.48828e-05
9.05883e-07
-7.15294e-05
5.49834e-06
-8.10393e-05
1.22219e-05
-9.48061e-05
2.06408e-05
-0.000113448
3.01934e-05
-0.000136703
3.99464e-05
-0.000163646
4.89814e-05
-0.000192876
5.69218e-05
-0.000222455
6.40004e-05
-0.000250347
7.04894e-05
-0.000274985
7.61882e-05
-0.000295089
8.0496e-05
-0.000309068
8.29878e-05
-0.000314754
8.31015e-05
-0.00030952
7.83272e-05
-0.000290631
6.5087e-05
-0.000256295
4.17861e-05
-0.000209325
1.23558e-05
-0.000152147
-2.53464e-05
-9.32901e-05
-6.38465e-05
-3.00796e-05
-9.39143e-05
3.31283e-05
-0.000116335
9.55761e-05
-0.000131833
0.000157493
-0.000141608
0.00021932
-0.000147356
0.000281395
-0.000150675
0.00034378
-0.000152713
0.0004064
-0.000154111
0.000469011
-0.000155061
0.000531259
-0.000155455
0.000592563
-0.000155037
0.000651963
-0.000153532
0.000709064
-0.000150726
0.000763607
-0.000146744
0.000815371
-0.000142187
0.000864832
-0.00013794
0.000911576
-0.000135967
0.000958138
-0.000136335
-0.000149173
0.000975282
0.000305927
0.00102604
0.000305193
0.00106097
0.000326985
0.00105861
0.0003466
0.00101216
0.000350842
0.000925022
0.000340329
0.00080571
0.000318764
0.000661704
0.000287367
0.000504798
0.000247859
0.000345584
0.000203462
0.000189986
0.000158599
4.73004e-05
0.000113825
-4.89887e-05
7.45183e-05
-8.5532e-05
4.66299e-05
-0.000107035
1.262e-05
-0.000117759
-1.81757e-05
-0.00010986
-3.22961e-05
-0.0001042
-7.57355e-06
-0.000115081
1.728e-05
-0.000127441
1.44276e-05
-0.000137083
1.94131e-06
-0.000144805
-8.45366e-06
-0.000146856
-1.72951e-05
-0.000144185
-2.15365e-05
-0.00013962
-2.02403e-05
-0.000134925
-1.6131e-05
-0.000131377
-1.08675e-05
-0.000129646
-5.55423e-06
-0.000130324
-4.65506e-07
-0.00013214
3.12383e-06
-0.000135864
6.92582e-06
-0.000141451
1.02158e-05
-0.000148462
1.26898e-05
-0.000156346
1.40325e-05
-0.000164339
1.38407e-05
-0.000171519
1.1879e-05
-0.000177059
8.40594e-06
-0.000180602
4.2224e-06
-0.000181762
-4.38652e-08
-0.000180743
-3.28834e-06
-0.000178495
-4.15619e-06
-0.000175969
-1.62032e-06
-0.000174066
3.59476e-06
-0.000174514
1.26702e-05
-0.000177736
2.38626e-05
-0.000184056
3.65135e-05
-0.00019275
4.86402e-05
-0.000201976
5.82077e-05
-0.000208845
6.37911e-05
-0.000209723
6.48777e-05
-0.000200933
6.16996e-05
-0.000179884
5.5139e-05
-0.000145835
4.64476e-05
-9.77122e-05
3.48648e-05
-3.55421e-05
2.09314e-05
3.75597e-05
5.22542e-06
0.000116932
-1.42849e-05
0.000195559
-3.68413e-05
0.000270534
-6.26191e-05
0.000336219
-9.10316e-05
0.000391635
-0.000119262
0.000441082
-0.000143361
0.000486742
-0.000161995
0.00053051
-0.000175602
0.000573807
-0.000184904
0.000617152
-0.000190702
0.000660386
-0.000193909
0.000702977
-0.000195303
0.000744235
-0.00019537
0.000783462
-0.000194287
0.000820018
-0.000192011
0.000853379
-0.000188398
0.000883198
-0.000183351
0.000909416
-0.000176943
0.000932192
-0.000169521
0.00095176
-0.000161755
0.000968505
-0.000154685
0.000982137
-0.000149599
0.000993711
-0.000147909
-0.000153363
0.000857109
0.000271375
0.000897356
0.000264946
0.000950166
0.000274175
0.00100471
0.000292059
0.00104637
0.000309177
0.0010653
0.000321404
0.00105661
0.000327449
0.00101788
0.000326097
0.000949451
0.00031629
0.000854924
0.000297989
0.000740691
0.000272832
0.00061165
0.000242866
0.000476304
0.000209864
0.000348174
0.00017476
0.000223342
0.000137451
0.000102022
0.000103144
4.00794e-08
6.96862e-05
-5.21605e-05
4.4627e-05
-6.55809e-05
3.07004e-05
-7.05063e-05
1.9353e-05
-7.86041e-05
1.00391e-05
-8.94864e-05
2.42865e-06
-0.000103053
-3.72875e-06
-0.000117805
-6.78384e-06
-0.000129468
-8.57772e-06
-0.000137162
-8.43704e-06
-0.000142166
-5.86389e-06
-0.000146032
-1.68748e-06
-0.000149369
2.87098e-06
-0.000153218
6.97353e-06
-0.000157417
1.11245e-05
-0.000162354
1.51531e-05
-0.000168014
1.83499e-05
-0.000174131
2.01492e-05
-0.000179969
1.96784e-05
-0.000184234
1.61441e-05
-0.000185639
9.81092e-06
-0.000183193
1.77689e-06
-0.000177321
-5.91675e-06
-0.000166788
-1.38204e-05
-0.000152229
-1.87154e-05
-0.000134688
-1.91617e-05
-0.000116377
-1.47159e-05
-9.85119e-05
-5.19504e-06
-8.04411e-05
5.79179e-06
-6.40549e-05
2.01273e-05
-4.91379e-05
3.37232e-05
-3.46766e-05
4.37464e-05
-1.87717e-05
4.78862e-05
1.49464e-06
4.46113e-05
2.98915e-05
3.33028e-05
7.04855e-05
1.45449e-05
0.000122167
-5.23395e-06
0.000185147
-2.81149e-05
0.00025753
-5.14518e-05
0.000336716
-7.39604e-05
0.000417977
-9.55457e-05
0.000497599
-0.000116464
0.000572026
-0.000137047
0.000638081
-0.000157086
0.000694462
-0.000175644
0.000742451
-0.00019135
0.000783837
-0.000203381
0.000819936
-0.000211701
0.000851701
-0.000216668
0.00087978
-0.000218781
0.000904465
-0.000218594
0.000925767
-0.000216605
0.00094355
-0.000213153
0.000957662
-0.000208399
0.00096803
-0.000202379
0.000974732
-0.0001951
0.000978026
-0.000186645
0.000978327
-0.000177244
0.000976133
-0.000167326
0.000971901
-0.000157523
0.000965953
-0.000148736
0.00095819
-0.000141837
0.000948563
-0.000138281
-0.000138952
0.000759397
0.000238012
0.000790536
0.000233808
0.000828352
0.000236359
0.000874988
0.000245423
0.000927006
0.000257159
0.000978875
0.000269534
0.00102441
0.000281912
0.00105754
0.000292974
0.00107315
0.000300676
0.00106779
0.000303348
0.0010403
0.000300319
0.000991364
0.000291805
0.000922944
0.000278285
0.000838473
0.000259231
0.000741058
0.000234866
0.00063606
0.000208142
0.000531475
0.000174271
0.000433338
0.000142765
0.000348487
0.000115551
0.000275839
9.20006e-05
0.00021347
7.24084e-05
0.000159507
5.63911e-05
0.000112016
4.37627e-05
7.13619e-05
3.387e-05
3.70691e-05
2.57151e-05
9.85139e-06
1.87807e-05
-9.00968e-06
1.29972e-05
-1.94413e-05
8.74415e-06
-2.27142e-05
6.14382e-06
-2.15947e-05
5.85412e-06
-1.83701e-05
7.89985e-06
-1.44931e-05
1.1276e-05
-1.06849e-05
1.45418e-05
-6.98146e-06
1.64457e-05
-2.94698e-06
1.56439e-05
2.33811e-06
1.0859e-05
1.03359e-05
1.81318e-06
1.99875e-05
-7.87479e-06
3.34289e-05
-1.93581e-05
4.9848e-05
-3.02396e-05
6.96991e-05
-3.85665e-05
9.33072e-05
-4.27698e-05
0.000120609
-4.20175e-05
0.000151777
-3.63636e-05
0.000184727
-2.71575e-05
0.000220766
-1.5912e-05
0.000259584
-5.09465e-06
0.000301391
1.93894e-06
0.000346876
2.40199e-06
0.000396633
-5.14568e-06
0.000450291
-2.03561e-05
0.000506161
-4.13246e-05
0.00056602
-6.50933e-05
0.000627681
-8.97757e-05
0.000689457
-0.000113227
0.000749709
-0.000134213
0.000806669
-0.000152506
0.000858654
-0.000168448
0.000904097
-0.00018249
0.000941868
-0.000194858
0.000971622
-0.000205398
0.000993935
-0.000213663
0.00100982
-0.000219263
0.00102025
-0.00022213
0.00102606
-0.00022248
0.00102793
-0.000220658
0.00102638
-0.000217036
0.00102173
-0.000211954
0.00101424
-0.000205667
0.00100418
-0.000198338
0.000991861
-0.000190062
0.000977691
-0.00018093
0.000962137
-0.000171092
0.000945687
-0.000160793
0.000928774
-0.000150413
0.000911693
-0.000140443
0.000894516
-0.000131559
0.000877013
-0.000124334
0.000858616
-0.000119885
-0.000118299
0.000672434
0.000206415
0.000702275
0.000203966
0.000733372
0.000205261
0.000767841
0.000210954
0.000806618
0.000218382
0.000850043
0.00022611
0.00089731
0.000234644
0.000946041
0.000244243
0.000992647
0.00025407
0.00103305
0.000262944
0.00106347
0.000269896
0.00108113
0.000274152
0.00108435
0.000275062
0.0010719
0.000271684
0.0010434
0.000263359
0.00100059
0.00025096
0.000948427
0.000226431
0.000890955
0.000200237
0.000831204
0.000175302
0.000771613
0.000151592
0.000714286
0.000129735
0.000660483
0.000110194
0.000611121
9.31251e-05
0.000566712
7.82787e-05
0.000527203
6.52239e-05
0.000492268
5.37157e-05
0.000461536
4.37297e-05
0.000434996
3.52842e-05
0.000412781
2.83582e-05
0.000395597
2.30389e-05
0.000384322
1.91747e-05
0.000379375
1.62231e-05
0.000380521
1.33951e-05
0.000387135
9.83229e-06
0.000398515
4.26367e-06
0.000413012
-3.63839e-06
0.000428885
-1.40593e-05
0.000446274
-2.52642e-05
0.000463392
-3.64756e-05
0.000479428
-4.6276e-05
0.000494318
-5.34562e-05
0.000508781
-5.72323e-05
0.000524183
-5.74201e-05
0.000542317
-5.44976e-05
0.000564754
-4.95949e-05
0.000593042
-4.41994e-05
0.000628117
-4.01699e-05
0.000669719
-3.96632e-05
0.000716561
-4.44403e-05
0.000766578
-5.51619e-05
0.00081746
-7.12384e-05
0.000867134
-9.09982e-05
0.000914193
-0.000112153
0.00095711
-0.000132692
0.000994991
-0.000151108
0.00102733
-0.000166556
0.00105375
-0.000178923
0.00107392
-0.000188613
0.00108759
-0.000196168
0.00109474
-0.000202007
0.00109563
-0.000206284
0.00109089
-0.000208919
0.0010814
-0.000209774
0.00106809
-0.00020882
0.00105179
-0.000206185
0.00103322
-0.000202088
0.00101295
-0.000196768
0.000991445
-0.000190444
0.000969073
-0.000183296
0.000946183
-0.000175448
0.000923113
-0.000166992
0.000900201
-0.000158018
0.000877762
-0.000148653
0.000856054
-0.000139086
0.000835235
-0.000129594
0.000815316
-0.000120524
0.00079613
-0.000112372
0.000777272
-0.000105475
0.000758174
-0.000100788
-9.78281e-05
0.000594386
0.000177666
0.00062317
0.000175182
0.000652324
0.000176108
0.000682116
0.000181162
0.000712927
0.000187571
0.000745618
0.000193419
0.000781189
0.000199073
0.000820206
0.000205226
0.00086243
0.000211846
0.000906734
0.00021864
0.000951254
0.000225377
0.000993709
0.000231697
0.00103176
0.000237006
0.00106302
0.000240429
0.0010853
0.00024108
0.00109746
0.000238799
0.00109962
0.000224268
0.00109348
0.000206381
0.00108059
0.000188195
0.00106245
0.000169731
0.00104073
0.000151453
0.00101701
0.000133917
0.000992656
0.000117475
0.000968713
0.000102222
0.000945821
8.81155e-05
0.000924384
7.51527e-05
0.000904703
6.34115e-05
0.000887028
5.29586e-05
0.000871598
4.37881e-05
0.000858826
3.5811e-05
0.000849268
2.87329e-05
0.000843483
2.20078e-05
0.000841904
1.49747e-05
0.000844774
6.96199e-06
0.000851734
-2.69648e-06
0.000861918
-1.38218e-05
0.000873777
-2.59185e-05
0.000886426
-3.79133e-05
0.000898742
-4.87918e-05
0.000910071
-5.76051e-05
0.000920212
-6.35971e-05
0.000929423
-6.6443e-05
0.000938355
-6.63527e-05
0.000947931
-6.4073e-05
0.000959142
-6.08065e-05
0.000972974
-5.80316e-05
0.000990115
-5.73103e-05
0.00101052
-6.00646e-05
0.00103326
-6.71834e-05
0.00105679
-7.86974e-05
0.00107929
-9.37367e-05
0.00109905
-0.000110756
0.00111484
-0.000127945
0.0011259
-0.000143745
0.0011319
-0.000157112
0.00113291
-0.000167571
0.00112919
-0.000175193
0.00112101
-0.000180435
0.00110869
-0.000183853
0.00109259
-0.000185903
0.00107314
-0.000186833
0.00105091
-0.000186698
0.0010266
-0.000185458
0.00100087
-0.000183093
0.000974346
-0.000179659
0.000947525
-0.000175268
0.000920812
-0.000170054
0.000894512
-0.000164145
0.000868862
-0.000157645
0.000844049
-0.000150634
0.000820229
-0.000143172
0.000797529
-0.000135318
0.000776033
-0.000127157
0.000755765
-0.000118818
0.000736671
-0.0001105
0.000718591
-0.000102444
0.00070126
-9.50418e-05
0.000684227
-8.84418e-05
0.000667096
-8.36576e-05
-7.93818e-05
0.000525111
0.000151817
0.000551937
0.000148356
0.000579147
0.000148897
0.000606469
0.00015384
0.000634009
0.000160031
0.000661958
0.00016547
0.000690635
0.000170396
0.000720616
0.000175245
0.000752551
0.00017991
0.000786901
0.00018429
0.000823766
0.000188511
0.000862798
0.000192666
0.000903178
0.000196625
0.000943616
0.000199991
0.000982466
0.000202229
0.00101821
0.000203058
0.00104852
0.000193951
0.00107301
0.000181895
0.00109189
0.000169318
0.00110554
0.000156079
0.00111459
0.000142401
0.00111983
0.00012868
0.00112207
0.000115232
0.00112206
0.000102231
0.00112041
8.97621e-05
0.00111765
7.79209e-05
0.00111422
6.68381e-05
0.00111056
5.66175e-05
0.00110708
4.7267e-05
0.00110423
3.86651e-05
0.00110244
3.05204e-05
0.00110207
2.23761e-05
0.00110331
1.37411e-05
0.00110597
4.30162e-06
0.00110967
-6.40281e-06
0.00111369
-1.78403e-05
0.00111731
-2.95338e-05
0.00112003
-4.06395e-05
0.00112154
-5.02968e-05
0.00112175
-5.78175e-05
0.00112091
-6.27553e-05
0.00111951
-6.50421e-05
0.0011182
-6.50436e-05
0.00111765
-6.35258e-05
0.0011184
-6.15556e-05
0.00112072
-6.03496e-05
0.0011245
-6.10889e-05
0.00112916
-6.47257e-05
0.00113371
-7.17352e-05
0.00113695
-8.19358e-05
0.00113771
-9.44962e-05
0.0011351
-0.000108147
0.00112866
-0.000121503
0.00111832
-0.00013341
0.00110435
-0.000143142
0.00108722
-0.000150436
0.00106745
-0.000155425
0.00104552
-0.000158512
0.00102184
-0.000160172
0.000996743
-0.000160802
0.000970555
-0.000160645
0.000943646
-0.000159789
0.000916415
-0.000158227
0.000889257
-0.000155935
0.000862519
-0.000152921
0.000836476
-0.000149226
0.000811334
-0.000144911
0.000787229
-0.00014004
0.000764247
-0.000134663
0.000742434
-0.000128822
0.000721808
-0.000122546
0.000702359
-0.000115868
0.000684043
-0.000108842
0.00066678
-0.000101554
0.000650437
-9.41566e-05
0.000634821
-8.6828e-05
0.00061968
-7.99008e-05
0.000604623
-7.33851e-05
0.000589394
-6.84284e-05
-6.28023e-05
0.00046394
0.000128552
0.00048864
0.000123656
0.000513481
0.000124056
0.000538161
0.00012916
0.000563125
0.000135066
0.00058845
0.000140146
0.000613977
0.000144869
0.000639774
0.000149449
0.000666098
0.000153586
0.000693268
0.00015712
0.000721646
0.000160133
0.000751576
0.000162736
0.000783255
0.000164946
0.000816598
0.000166649
0.000851171
0.000167656
0.000886343
0.000167885
0.000919985
0.000160308
0.000951214
0.000150666
0.00097965
0.000140882
0.00100501
0.000130719
0.0010272
0.000120213
0.00104631
0.000109569
0.00106256
9.89846e-05
0.00107621
8.85787e-05
0.00108754
7.84286e-05
0.00109684
6.86226e-05
0.00110441
5.9271e-05
0.00111057
5.04583e-05
0.00111565
4.21856e-05
0.00111997
3.4341e-05
0.00112381
2.66889e-05
0.00112729
1.88958e-05
0.00113041
1.06215e-05
0.00113297
1.73898e-06
0.00113458
-8.01607e-06
0.00113488
-1.81388e-05
0.00113356
-2.82124e-05
0.00113049
-3.75687e-05
0.00112574
-4.55518e-05
0.00111959
-5.16685e-05
0.0011125
-5.5657e-05
0.00110501
-5.7561e-05
0.00109772
-5.77535e-05
0.00109109
-5.68966e-05
0.00108539
-5.58547e-05
0.00108062
-5.55717e-05
0.00107645
-5.69238e-05
0.00107229
-6.05667e-05
0.00106733
-6.67714e-05
0.00106071
-7.53195e-05
0.00105174
-8.55294e-05
0.00104002
-9.64213e-05
0.00102547
-0.000106956
0.00100833
-0.000116271
0.000989019
-0.000123827
0.000968017
-0.000129434
0.000945791
-0.000133199
0.000922713
-0.000135434
0.000899058
-0.000136517
0.000875036
-0.00013678
0.000850836
-0.000136444
0.000826656
-0.000135609
0.000802713
-0.000134284
0.000779225
-0.000132447
0.00075638
-0.000130076
0.000734328
-0.000127173
0.000713168
-0.000123752
0.00069296
-0.000119832
0.000673726
-0.000115429
0.000655461
-0.000110556
0.000638136
-0.000105221
0.000621703
-9.94354e-05
0.000606091
-9.32299e-05
0.000591204
-8.66676e-05
0.000576915
-7.98677e-05
0.000563065
-7.29779e-05
0.000549454
-6.62892e-05
0.000535798
-5.97299e-05
0.000521885
-5.45147e-05
-4.76537e-05
0.000410014
0.000107502
0.000432754
0.000100916
0.000455184
0.000101627
0.000477154
0.000107189
0.000499458
0.000112763
0.000522208
0.000117396
0.00054521
0.000121866
0.000568451
0.000126208
0.000591955
0.000130082
0.000615708
0.000133367
0.000639753
0.000136087
0.000664236
0.000138254
0.000689348
0.000139834
0.000715249
0.000140747
0.000742001
0.000140904
0.000769579
0.000140307
0.000796696
0.000133191
0.00082287
0.000124491
0.000847872
0.000115881
0.000871419
0.000107172
0.000893277
9.83547e-05
0.000913305
8.95413e-05
0.000931444
8.0845e-05
0.000947691
7.23323e-05
0.000962076
6.40433e-05
0.00097467
5.60282e-05
0.00098559
4.83512e-05
0.000994991
4.10577e-05
0.00100305
3.41305e-05
0.00100992
2.74691e-05
0.00101572
2.08893e-05
0.00102046
1.415e-05
0.00102406
7.0227e-06
0.00102639
-5.93662e-07
0.00102714
-8.76433e-06
0.00102617
-1.717e-05
0.00102337
-2.54043e-05
0.00101876
-3.29616e-05
0.00101256
-3.9357e-05
0.00100513
-4.4239e-05
0.000996929
-4.74515e-05
0.000988446
-4.90782e-05
0.000980143
-4.94502e-05
0.000972357
-4.91101e-05
0.000965242
-4.874e-05
0.000958735
-4.90645e-05
0.000952547
-5.07364e-05
0.000946203
-5.4222e-05
0.00093912
-5.96887e-05
0.00093074
-6.69399e-05
0.000920648
-7.54374e-05
0.000908648
-8.44205e-05
0.00089477
-9.30789e-05
0.000879224
-0.000100725
0.000862308
-0.00010691
0.000844336
-0.000111463
0.000825592
-0.000114455
0.000806293
-0.000116135
0.000786603
-0.000116827
0.000766654
-0.000116831
0.000746574
-0.000116365
0.000726504
-0.000115539
0.0007066
-0.00011438
0.000687017
-0.000112864
0.000667896
-0.000110955
0.000649347
-0.000108625
0.000631447
-0.000105852
0.000614238
-0.000102623
0.000597736
-9.89269e-05
0.000581931
-9.47514e-05
0.000566796
-9.00863e-05
0.000552287
-8.49261e-05
0.000538342
-7.9285e-05
0.000524883
-7.32088e-05
0.000511814
-6.67991e-05
0.00049903
-6.01937e-05
0.000486388
-5.36468e-05
0.000473722
-4.70642e-05
0.000460783
-4.15754e-05
-3.3777e-05
0.000362528
8.82941e-05
0.000383496
7.99472e-05
0.000403597
8.15254e-05
0.000423065
8.77213e-05
0.000442883
9.2945e-05
0.000463082
9.71966e-05
0.000483531
0.000101418
0.000504307
0.000105432
0.000525434
0.000108955
0.000546827
0.000111975
0.000568397
0.000114517
0.000590101
0.00011655
0.000611925
0.00011801
0.000633866
0.000118806
0.000655925
0.000118845
0.000678122
0.000118111
0.00069955
0.000111763
0.000720018
0.000104024
0.00073953
9.63684e-05
0.000758013
8.86885e-05
0.000775375
8.09932e-05
0.000791541
7.33756e-05
0.000806459
6.59267e-05
0.000820095
5.86964e-05
0.000832428
5.17097e-05
0.000843463
4.4993e-05
0.000853236
3.85784e-05
0.000861813
3.24807e-05
0.000869276
2.66677e-05
0.000875699
2.10459e-05
0.000881122
1.54667e-05
0.000885523
9.7492e-06
0.000888817
3.72893e-06
0.000890893
-2.66968e-06
0.000891575
-9.44647e-06
0.000890766
-1.63617e-05
0.00088842
-2.30579e-05
0.000884599
-2.91407e-05
0.000879491
-3.42489e-05
0.000873382
-3.81304e-05
0.000866627
-4.0696e-05
0.000859598
-4.2049e-05
0.000852632
-4.24844e-05
0.000845978
-4.24557e-05
0.000839752
-4.25141e-05
0.000833917
-4.32295e-05
0.000828282
-4.51013e-05
0.00082253
-4.847e-05
0.000816278
-5.34367e-05
0.000809156
-5.98181e-05
0.000800882
-6.7164e-05
0.000791307
-7.48454e-05
0.000780415
-8.21862e-05
0.00076829
-8.86003e-05
0.000755074
-9.36942e-05
0.000740921
-9.73098e-05
0.000725978
-9.95114e-05
0.000710373
-0.00010053
0.000694222
-0.000100677
0.000677644
-0.000100253
0.000660764
-9.94853e-05
0.000643725
-9.84998e-05
0.000626676
-9.73305e-05
0.000609763
-9.59507e-05
0.000593114
-9.43071e-05
0.000576833
-9.23427e-05
0.000560989
-9.00079e-05
0.000545626
-8.72598e-05
0.000530762
-8.40634e-05
0.000516397
-8.03862e-05
0.000502515
-7.62038e-05
0.000489087
-7.14981e-05
0.000476075
-6.62732e-05
0.000463433
-6.05676e-05
0.00045111
-5.44757e-05
0.000439057
-4.81405e-05
0.000427188
-4.17775e-05
0.000415444
-3.53205e-05
0.000403502
-2.96335e-05
-2.1316e-05
0.000320758
7.05693e-05
0.000340087
6.06179e-05
0.000357963
6.36496e-05
0.000375207
7.04766e-05
0.000392822
7.53303e-05
0.000410694
7.93246e-05
0.000428763
8.33483e-05
0.000447172
8.70239e-05
0.000465953
9.01738e-05
0.000485043
9.28845e-05
0.000504375
9.51848e-05
0.000523886
9.70388e-05
0.000543501
9.8395e-05
0.000563131
9.91769e-05
0.00058268
9.92961e-05
0.000602075
9.87159e-05
0.00062047
9.33674e-05
0.000637709
8.67845e-05
0.000653853
8.02245e-05
0.000668921
7.3621e-05
0.000682916
6.69979e-05
0.000695847
6.04447e-05
0.000707726
5.40479e-05
0.000718564
4.78579e-05
0.000728375
4.1899e-05
0.000737178
3.61901e-05
0.000745008
3.07481e-05
0.000751916
2.55726e-05
0.00075796
2.06234e-05
0.000763192
1.58143e-05
0.000767636
1.10224e-05
0.000771277
6.10881e-06
0.000774058
9.47868e-07
0.000775891
-4.50275e-06
0.000776652
-1.02073e-05
0.000776251
-1.59616e-05
0.000774656
-2.14622e-05
0.000771904
-2.63893e-05
0.000768121
-3.04658e-05
0.000763504
-3.35131e-05
0.000758301
-3.54935e-05
0.000752783
-3.65302e-05
0.000747198
-3.69002e-05
0.000741744
-3.7001e-05
0.000736526
-3.72965e-05
0.000731546
-3.825e-05
0.000726697
-4.0252e-05
0.000721778
-4.35504e-05
0.000716532
-4.81909e-05
0.000710699
-5.39851e-05
0.000704061
-6.05261e-05
0.000696474
-6.72582e-05
0.00068787
-7.35828e-05
0.000678245
-7.89746e-05
0.000667627
-8.30767e-05
0.000656069
-8.57514e-05
0.000643634
-8.70769e-05
0.000630404
-8.72998e-05
0.000616478
-8.67506e-05
0.000601977
-8.5752e-05
0.000587042
-8.455e-05
0.000571824
-8.32821e-05
0.000556478
-8.19842e-05
0.000541147
-8.06194e-05
0.000525954
-7.91138e-05
0.000510995
-7.73837e-05
0.000496339
-7.53521e-05
0.00048203
-7.29506e-05
0.000468092
-7.01257e-05
0.000454536
-6.68301e-05
0.000441364
-6.3032e-05
0.000428574
-5.87081e-05
0.000416162
-5.3861e-05
0.000404124
-4.85297e-05
0.000392455
-4.28066e-05
0.000381159
-3.68449e-05
0.000370194
-3.08126e-05
0.000359583
-2.47092e-05
0.000348927
-1.89776e-05
-1.05919e-05
0.000284047
5.39957e-05
0.000301804
4.28604e-05
0.000317588
4.78662e-05
0.000332894
5.51699e-05
0.000348561
5.96632e-05
0.00036436
6.35263e-05
0.000380327
6.73815e-05
0.00039662
7.07306e-05
0.00041325
7.35442e-05
0.000430165
7.59691e-05
0.000447329
7.80211e-05
0.000464701
7.96665e-05
0.000482222
8.08742e-05
0.000499809
8.159e-05
0.000517361
8.17436e-05
0.000534779
8.12981e-05
0.000551255
7.68912e-05
0.00056661
7.14295e-05
0.000580881
6.59535e-05
0.000594088
6.04147e-05
0.000606247
5.48387e-05
0.000617385
4.93064e-05
0.000627535
4.38979e-05
0.00063673
3.86624e-05
0.000645005
3.36245e-05
0.000652395
2.87996e-05
0.000658946
2.41972e-05
0.00066471
1.98092e-05
0.000669741
1.55918e-05
0.000674089
1.14662e-05
0.000677781
7.33075e-06
0.000680815
3.07505e-06
0.000683151
-1.3884e-06
0.000684723
-6.07466e-06
0.000685438
-1.09219e-05
0.000685223
-1.57473e-05
0.000684049
-2.02879e-05
0.000681935
-2.42751e-05
0.000678961
-2.74919e-05
0.000675264
-2.98161e-05
0.000671023
-3.12529e-05
0.00066644
-3.19466e-05
0.000661708
-3.21682e-05
0.000656987
-3.22806e-05
0.000652379
-3.26882e-05
0.000647907
-3.37781e-05
0.000643515
-3.58597e-05
0.000639074
-3.91091e-05
0.000634406
-4.35232e-05
0.000629319
-4.88977e-05
0.000623633
-5.48409e-05
0.000617206
-6.08313e-05
0.000609933
-6.6309e-05
0.00060174
-7.07815e-05
0.000592582
-7.39196e-05
0.000582446
-7.56149e-05
0.000571352
-7.59828e-05
0.000559365
-7.53126e-05
0.00054659
-7.39762e-05
0.000533168
-7.23296e-05
0.000519256
-7.06385e-05
0.00050502
-6.90461e-05
0.000490617
-6.75808e-05
0.000476186
-6.61884e-05
0.000461843
-6.4771e-05
0.000447678
-6.32188e-05
0.000433757
-6.14305e-05
0.000420124
-5.93177e-05
0.000406812
-5.68143e-05
0.000393849
-5.38662e-05
0.000381258
-5.04417e-05
0.00036907
-4.652e-05
0.000357317
-4.2108e-05
0.000346035
-3.72474e-05
0.000335254
-3.20261e-05
0.000325013
-2.66034e-05
0.000315289
-2.10889e-05
0.000306157
-1.55771e-05
0.000297167
-9.98717e-06
-1.93514e-06
0.000251798
3.82839e-05
0.000267991
2.66671e-05
0.000281862
3.3996e-05
0.000295502
4.15291e-05
0.000309435
4.57305e-05
0.000323394
4.95673e-05
0.000337525
5.32509e-05
0.000351968
5.6287e-05
0.000366704
5.88085e-05
0.000381687
6.09859e-05
0.000396892
6.28159e-05
0.000412289
6.42694e-05
0.000427832
6.53311e-05
0.000443459
6.59631e-05
0.000459092
6.6111e-05
0.000474645
6.57452e-05
0.000489388
6.21476e-05
0.000503146
5.76717e-05
0.000515938
5.31614e-05
0.000527773
4.85798e-05
0.00053866
4.39514e-05
0.000548619
3.93478e-05
0.000557676
3.48412e-05
0.000565861
3.04769e-05
0.000573208
2.62774e-05
0.000579754
2.22541e-05
0.00058554
1.8411e-05
0.000590614
1.47349e-05
0.000595027
1.11793e-05
0.000598821
7.67197e-06
0.000602024
4.12832e-06
0.000604638
4.60493e-07
0.000606641
-3.39079e-06
0.000607984
-7.41852e-06
0.000608605
-1.15427e-05
0.000608449
-1.55906e-05
0.000607488
-1.93271e-05
0.000605733
-2.25201e-05
0.000603237
-2.49965e-05
0.0006001
-2.66782e-05
0.000596453
-2.76062e-05
0.000592452
-2.79457e-05
0.000588252
-2.79687e-05
0.000583989
-2.80168e-05
0.000579752
-2.8452e-05
0.000575578
-2.96038e-05
0.000571436
-3.17179e-05
0.000567237
-3.49102e-05
0.000562846
-3.91314e-05
0.000558099
-4.41514e-05
0.000552831
-4.9573e-05
0.000546884
-5.48842e-05
0.000540119
-5.95437e-05
0.000532424
-6.30861e-05
0.000523723
-6.52195e-05
0.000513994
-6.58858e-05
0.000503271
-6.52597e-05
0.000491647
-6.36884e-05
0.00047926
-6.15892e-05
0.000466276
-5.93457e-05
0.000452869
-5.72315e-05
0.000439205
-5.53822e-05
0.000425433
-5.38082e-05
0.000411676
-5.24322e-05
0.000398037
-5.11317e-05
0.000384592
-4.97736e-05
0.0003714
-4.82382e-05
0.000358506
-4.6424e-05
0.000345951
-4.42598e-05
0.000333777
-4.16913e-05
0.000322028
-3.86928e-05
0.000310758
-3.52501e-05
0.000300025
-3.13753e-05
0.000289889
-2.71113e-05
0.000280398
-2.25348e-05
0.000271599
-1.78049e-05
0.000263473
-1.29629e-05
0.000256124
-8.22794e-06
0.000249093
-2.9557e-06
4.49475e-06
0.000223468
2.31982e-05
0.000238065
1.20704e-05
0.000250246
2.18147e-05
0.000262461
2.93141e-05
0.000274841
3.33504e-05
0.00028718
3.72283e-05
0.000299712
4.07194e-05
0.000312538
4.34606e-05
0.000325617
4.57296e-05
0.000338912
4.76911e-05
0.000352402
4.93255e-05
0.000366059
5.06122e-05
0.000379843
5.15479e-05
0.0003937
5.21056e-05
0.000407569
5.22424e-05
0.000421379
5.19352e-05
0.000434484
4.90426e-05
0.000446725
4.543e-05
0.000458121
4.17662e-05
0.000468677
3.80238e-05
0.0004784
3.42276e-05
0.000487305
3.04431e-05
0.00049541
2.67359e-05
0.00050274
2.31473e-05
0.00050932
1.9697e-05
0.000515182
1.63926e-05
0.000520359
1.32335e-05
0.000524891
1.02029e-05
0.00052882
7.25065e-06
0.000532181
4.31095e-06
0.000534998
1.31102e-06
0.00053728
-1.82111e-06
0.000539012
-5.12263e-06
0.000540161
-8.56757e-06
0.000540679
-1.20611e-05
0.000540522
-1.54337e-05
0.000539664
-1.84683e-05
0.000538103
-2.09599e-05
0.000535876
-2.27694e-05
0.000533053
-2.38551e-05
0.000529737
-2.42904e-05
0.000526053
-2.42615e-05
0.000522129
-2.4045e-05
0.00051808
-2.39675e-05
0.000513985
-2.4357e-05
0.000509875
-2.54943e-05
0.000505726
-2.75683e-05
0.000501454
-3.06388e-05
0.000496933
-3.461e-05
0.000492002
-3.92202e-05
0.000486489
-4.40604e-05
0.000480231
-4.86262e-05
0.000473091
-5.24033e-05
0.000464977
-5.49719e-05
0.000455857
-5.61001e-05
0.000445768
-5.57963e-05
0.000434805
-5.4297e-05
0.000423113
-5.19958e-05
0.000410859
-4.93356e-05
0.000398217
-4.67036e-05
0.000385347
-4.43618e-05
0.000372389
-4.24245e-05
0.00035946
-4.08783e-05
0.00034665
-3.96225e-05
0.000334033
-3.85151e-05
0.000321667
-3.74073e-05
0.000309598
-3.61692e-05
0.000297868
-3.46939e-05
0.000286519
-3.29112e-05
0.000275599
-3.07711e-05
0.000265163
-2.82564e-05
0.000255273
-2.53608e-05
0.000246
-2.21016e-05
0.000237409
-1.85211e-05
0.000229554
-1.46797e-05
0.000222482
-1.07324e-05
0.000216162
-6.643e-06
0.00021072
-2.78656e-06
0.000205731
2.03413e-06
8.75342e-06
0.00019856
8.56726e-06
0.000211522
-8.90795e-07
0.000222269