/*--------------------------------*- C++ -*----------------------------------*\
| =========                 |                                                 |
| \\      /  F ield         | OpenFOAM: The Open Source CFD Toolbox           |
|  \\    /   O peration     | Version:  v1912                                 |
|   \\  /    A nd           | Website:  www.openfoam.com                      |
|    \\/     M anipulation  |                                                 |
\*---------------------------------------------------------------------------*/
FoamFile
{
    version     2.0;
    format      ascii;
    class       volVectorField;
    location    "300";
    object      U;
}
// * * * * * * * * * * * * * * * * * * * * * * * * * * * * * * * * * * * * * //

dimensions      [0 1 -1 0 0 0 0];


internalField   nonuniform List<vector> 
2000
(
(0.84616 0.187394 0)
(0.515131 0.12409 0)
(0.223443 0.0684428 0)
(0.0598009 0.0174439 6.19782e-20)
(-0.00455598 -0.0232166 1.24884e-17)
(-0.0642202 -0.0384553 1.08111e-17)
(-0.0776274 -0.0372354 0)
(-0.071617 -0.0167345 0)
(-0.0590605 0.0114989 0)
(-0.0420401 0.0252531 2.45438e-17)
(-0.0414233 0.0108806 -1.50424e-17)
(-0.0273429 -0.000814425 -1.41228e-17)
(-0.0164204 -0.00297678 0)
(-0.0196356 -0.00263449 0)
(-0.0206023 -0.00224224 -1.12252e-17)
(-0.0139993 -0.000657307 0)
(-0.00545157 0.00107234 1.01245e-17)
(-0.00276671 0.00443554 4.44693e-21)
(-0.00250183 0.00515133 9.82667e-18)
(-0.00212042 0.00304845 -4.85152e-18)
(-0.000773578 9.28076e-05 9.58496e-18)
(0.00236379 -0.00180841 0)
(0.00611585 -0.00240868 0)
(0.00952915 -0.00223718 -7.45019e-22)
(0.0119278 -0.00157912 0)
(0.0130754 -0.000659856 -4.58669e-18)
(0.0129555 0.000257384 0)
(0.0119854 0.000845084 4.59567e-18)
(0.0107673 0.00104945 0)
(0.00966608 0.000998105 0)
(0.00874713 0.000824337 0)
(0.007955 0.000639155 1.17282e-18)
(0.00724472 0.00050689 0)
(0.00662608 0.000420115 -5.95258e-19)
(0.00614479 0.000329155 1.9896e-14)
(0.00586829 0.000187001 1.9905e-14)
(0.00592895 -2.13671e-05 6.16455e-19)
(0.00640105 -0.00034841 -6.24563e-19)
(0.00724483 -0.000758945 0)
(0.00838507 -0.00119012 2.58428e-18)
(0.00967497 -0.00155516 0)
(0.0108706 -0.00174127 -2.67757e-18)
(0.0116645 -0.00169219 0)
(0.0115396 -0.00137421 -5.55651e-18)
(0.0100906 -0.000621553 2.81519e-18)
(0.00703668 0.000434051 0)
(0.00215018 0.00157835 0)
(-0.00453599 0.00252446 -2.87946e-18)
(-0.0132083 0.00321842 0)
(-0.0241453 0.00420854 2.78739e-18)
(-0.0378686 0.00630977 0)
(-0.0550829 0.00962656 5.38039e-18)
(-0.0763302 0.0132009 -5.25994e-18)
(-0.101702 0.0163253 5.13322e-18)
(-0.131323 0.0186535 -2.4336e-18)
(-0.165207 0.0185741 0)
(-0.202134 0.0140125 2.20442e-18)
(-0.239608 0.0039721 -2.0596e-18)
(-0.273885 -0.0112034 -4.21892e-18)
(-0.299739 -0.0295335 3.70523e-18)
(-0.311704 -0.0464435 -3.8868e-18)
(-0.307896 -0.05715 4.34009e-18)
(-0.295302 -0.0622775 -5.08556e-18)
(-0.273534 -0.0636954 6.07473e-18)
(-0.245221 -0.0627324 4.91769e-20)
(-0.212004 -0.0601635 8.9188e-18)
(-0.174941 -0.0565074 0)
(-0.134453 -0.0520422 0)
(-0.0905372 -0.0469437 6.81077e-20)
(-0.0433229 -0.0413451 0)
(0.00667669 -0.0352521 2.02756e-17)
(0.0595461 -0.0283069 0)
(0.117411 -0.0202873 1.96146e-17)
(0.179373 -0.010896 -4.77608e-19)
(0.245017 -8.64958e-05 1.68612e-17)
(0.316105 0.0119565 2.93732e-17)
(0.388983 0.02488 7.20583e-19)
(0.477194 0.0382701 -1.00268e-17)
(0.543416 0.050355 -6.45822e-18)
(0.70415 0.0608796 0)
(1.0153 0.210385 0)
(0.944632 0.194215 0)
(0.80447 0.179988 -3.63236e-18)
(0.654411 0.152319 7.50916e-18)
(0.509209 0.111175 0)
(0.360015 0.0683804 -7.56031e-18)
(0.216473 0.0293399 0)
(0.0821143 -0.00527419 0)
(-0.0282731 -0.0180772 0)
(-0.0563102 -0.0189525 -1.79522e-17)
(-0.0668777 -0.0247205 1.63297e-17)
(-0.071963 -0.0155504 1.49769e-17)
(-0.0640162 0.00646073 0)
(-0.0520177 0.0195445 6.54853e-18)
(-0.0563196 0.00769457 0)
(-0.051155 -0.00559888 0)
(-0.0413926 -0.0070143 0)
(-0.0364879 -0.00390496 5.42347e-18)
(-0.0395609 -0.00163674 -1.06658e-17)
(-0.0411026 -0.00137968 -5.25152e-18)
(-0.0411726 -0.00235088 0)
(-0.0390373 -0.00394695 0)
(-0.0351799 -0.00480875 0)
(-0.0305382 -0.00430901 -7.63711e-18)
(-0.0256964 -0.00269843 0)
(-0.0212636 -0.00077034 5.13026e-18)
(-0.0173264 0.000834356 2.58029e-18)
(-0.0142855 0.00177743 0)
(-0.0122648 0.00206723 0)
(-0.0112447 0.00192841 0)
(-0.0111138 0.00184046 0)
(-0.0116811 0.00185884 -6.59801e-19)
(-0.0127833 0.00186197 0)
(-0.014252 0.00170684 3.34011e-19)
(-0.015897 0.00127351 1.67838e-19)
(-0.0175105 0.000517018 0)
(-0.0189554 -0.000499753 0)
(-0.0201278 -0.00165067 6.95412e-19)
(-0.0209717 -0.00273777 0)
(-0.0216007 -0.00346491 -1.43943e-18)
(-0.0222642 -0.00352489 0)
(-0.0234348 -0.00268494 -1.50648e-18)
(-0.0255462 -0.000781862 0)
(-0.0287929 0.00224421 1.50275e-18)
(-0.0334943 0.00628846 1.56308e-18)
(-0.0400958 0.0110718 0)
(-0.0487507 0.0162062 0)
(-0.0593393 0.0213667 -2.99902e-18)
(-0.0714354 0.0265621 0)
(-0.0842086 0.0320835 -2.85618e-20)
(-0.0967128 0.0380204 0)
(-0.108404 0.0439775 0)
(-0.119007 0.0494964 0)
(-0.1279 0.0544576 0)
(-0.134393 0.0584736 5.2497e-18)
(-0.13774 0.0597765 0)
(-0.136306 0.0558488 -5.20314e-18)
(-0.128946 0.045097 2.66643e-18)
(-0.116718 0.0280085 -2.53911e-18)
(-0.0944746 0.0074806 -5.51972e-18)
(-0.0545564 -0.0151167 6.07553e-18)
(-0.0273213 -0.041647 -7.01558e-18)
(0.0011661 -0.0629988 8.20341e-18)
(0.0344587 -0.076073 0)
(0.0676792 -0.0825565 -1.53937e-17)
(0.102372 -0.0844234 -1.11833e-17)
(0.139348 -0.0834796 0)
(0.178812 -0.0809841 6.31741e-18)
(0.220899 -0.0776006 1.33608e-17)
(0.265749 -0.0735613 0)
(0.313482 -0.0688086 0)
(0.364072 -0.0630261 0)
(0.417383 -0.0558431 0)
(0.473287 -0.0469485 -1.33082e-17)
(0.531635 -0.036282 5.80981e-18)
(0.593327 -0.0240916 -1.14716e-17)
(0.656636 -0.011121 9.92281e-18)
(0.729343 0.00171977 -3.40286e-18)
(0.787249 0.0118481 0)
(0.9061 0.0160981 0)
(0.978489 0.20154 0)
(0.978855 0.193011 -2.89345e-18)
(0.969154 0.20512 3.58342e-18)
(0.939079 0.208543 -3.15887e-18)
(0.878024 0.194621 2.98285e-18)
(0.785587 0.168735 2.94278e-18)
(0.669323 0.138093 0)
(0.54097 0.10603 0)
(0.408168 0.0750601 0)
(0.28585 0.04592 7.12432e-18)
(0.173676 0.0179943 0)
(0.0720669 -0.0063872 0)
(-0.0211076 -0.0137169 0)
(-0.0462429 -0.00323771 -7.44935e-18)
(-0.0508539 -0.011397 0)
(-0.0599443 -0.0179297 -6.25306e-18)
(-0.0621097 -0.0110186 0)
(-0.0536625 0.00828586 6.04335e-18)
(-0.0537449 0.0146814 2.95074e-18)
(-0.0592893 0.0100243 0)
(-0.0630994 0.00245022 -2.84315e-18)
(-0.0664816 -0.00476616 0)
(-0.067337 -0.00897193 0)
(-0.0660022 -0.0101812 5.50636e-18)
(-0.0632829 -0.00954745 0)
(-0.0602589 -0.00801226 1.38262e-18)
(-0.0576731 -0.00607287 -4.16564e-18)
(-0.0559917 -0.00390514 0)
(-0.0553907 -0.00166737 0)
(-0.0555934 0.000462212 -7.052e-19)
(-0.0565355 0.00225557 0)
(-0.0583194 0.00375425 1.73542e-21)
(-0.0608229 0.00489456 0)
(-0.0638535 0.00554289 7.0264e-19)
(-0.0671331 0.00552847 8.76157e-20)
(-0.0703104 0.0047685 0)
(-0.0730247 0.00336958 1.77311e-19)
(-0.0750166 0.00165683 -3.60195e-19)
(-0.0761493 6.71211e-05 -3.67425e-19)
(-0.0763698 -0.0010392 -7.54762e-19)
(-0.0759078 -0.00107969 7.79885e-19)
(-0.0751785 0.000383653 7.82094e-19)
(-0.0746413 0.00362741 0)
(-0.0748736 0.00855223 1.64293e-18)
(-0.0763801 0.0147559 -3.36498e-18)
(-0.0793577 0.0218504 0)
(-0.0837469 0.0289553 -1.68165e-18)
(-0.0890374 0.0352311 3.21119e-18)
(-0.0941025 0.040295 0)
(-0.0971599 0.0443202 -1.56235e-18)
(-0.0962453 0.0476803 1.48129e-18)
(-0.089896 0.0505091 -1.46581e-18)
(-0.0773629 0.0526866 -1.48352e-18)
(-0.0582248 0.0534278 0)
(-0.0325321 0.0523134 -3.41821e-18)
(-0.000864165 0.0482806 -1.69867e-18)
(0.03623 0.0400031 1.67298e-18)
(0.0774074 0.025853 1.54786e-18)
(0.120596 0.00491999 2.77211e-18)
(0.16211 -0.0205868 0)
(0.200291 -0.0453682 0)
(0.234382 -0.0658677 0)
(0.266227 -0.0816474 -1.65636e-18)
(0.297939 -0.092992 0)
(0.330961 -0.100241 3.98033e-18)
(0.365923 -0.104074 0)
(0.403036 -0.105404 -2.33877e-18)
(0.442249 -0.105063 -5.06524e-18)
(0.48333 -0.103589 0)
(0.525966 -0.101195 -2.6455e-18)
(0.569834 -0.0978126 2.68465e-18)
(0.614655 -0.0932277 0)
(0.66022 -0.0872282 0)
(0.706511 -0.0797027 0)
(0.753576 -0.0708015 -5.2739e-18)
(0.802127 -0.0609801 0)
(0.851312 -0.0512224 -1.84683e-18)
(0.906009 -0.0425381 3.2862e-18)
(0.950332 -0.0375389 0)
(1.03492 -0.0377716 3.88032e-19)
(0.970611 0.209119 0)
(0.963917 0.194771 1.58655e-18)
(0.966431 0.198523 0)
(0.977153 0.206421 1.74834e-18)
(0.982035 0.208903 -3.10574e-18)
(0.96829 0.204289 -1.38968e-18)
(0.930736 0.193748 0)
(0.870727 0.177897 0)
(0.791072 0.156597 0)
(0.695321 0.131356 1.39926e-18)
(0.589335 0.105445 1.43249e-18)
(0.479877 0.080724 0)
(0.36907 0.0580215 0)
(0.266552 0.0376557 0)
(0.179566 0.018548 0)
(0.100314 0.00266253 6.62886e-18)
(0.0297854 -0.00971003 -3.50538e-18)
(-0.0305397 -0.00878746 0)
(-0.033929 0.00165101 -3.38959e-18)
(-0.0370544 0.0033348 1.66526e-18)
(-0.0391355 0.0016224 3.29699e-18)
(-0.0429066 -0.00214278 0)
(-0.0493493 -0.00558599 0)
(-0.0568674 -0.00709155 -3.15445e-18)
(-0.0630366 -0.00643938 0)
(-0.0668383 -0.0042824 -1.55388e-18)
(-0.0689618 -0.00142208 1.55385e-18)
(-0.0703542 0.00124686 0)
(-0.0716353 0.0032694 0)
(-0.0728749 0.00510039 7.80432e-19)
(-0.0744423 0.00686043 0)
(-0.0763425 0.00848925 -7.77517e-19)
(-0.0786671 0.00977336 0)
(-0.0813728 0.0104174 -1.9404e-19)
(-0.0841802 0.0100874 -9.66581e-20)
(-0.0865625 0.00855323 -2.39277e-20)
(-0.0879344 0.00596526 -2.93209e-19)
(-0.0877963 0.00278355 4.00994e-19)
(-0.0859367 -0.000680696 4.09763e-19)
(-0.0821603 -0.00339574 1.2642e-18)
(-0.0763665 -0.00455932 -4.37057e-19)
(-0.0689445 -0.00348753 4.51213e-19)
(-0.0606735 0.000110186 0)
(-0.0523894 0.00595252 1.02948e-18)
(-0.0443057 0.01358 9.75354e-19)
(-0.0366129 0.0217497 0)
(-0.0296259 0.0292921 2.05292e-18)
(-0.0229125 0.0347926 1.03838e-18)
(-0.0156555 0.0370079 0)
(-0.0064325 0.0352887 -2.95096e-18)
(0.00674979 0.0296895 -1.93601e-18)
(0.0260612 0.0208402 9.79889e-19)
(0.0521751 0.00975569 1.78283e-18)
(0.0844088 -0.00233175 0)
(0.122715 -0.0149144 7.73183e-19)
(0.166882 -0.0276567 2.28258e-18)
(0.215599 -0.0405056 1.43458e-18)
(0.266705 -0.0541276 -1.33595e-18)
(0.318124 -0.0686191 -6.58376e-19)
(0.367716 -0.0836839 0)
(0.413896 -0.0983126 0)
(0.456136 -0.111342 0)
(0.495144 -0.121955 2.197e-18)
(0.532135 -0.129846 8.19723e-19)
(0.568046 -0.135126 0)
(0.603388 -0.138137 -1.91921e-18)
(0.638426 -0.139306 2.0885e-18)
(0.673256 -0.139009 -2.16267e-18)
(0.707825 -0.137477 -2.25801e-18)
(0.741991 -0.134774 1.15911e-19)
(0.775618 -0.130838 -2.51975e-18)
(0.80866 -0.125565 0)
(0.841213 -0.118904 0)
(0.873575 -0.110937 0)
(0.906108 -0.101973 0)
(0.939595 -0.0925432 0)
(0.973684 -0.0835806 3.59233e-18)
(1.01171 -0.0758886 -1.31774e-18)
(1.04288 -0.071685 0)
(1.10085 -0.0707165 -4.16651e-19)
(0.972988 0.216083 0)
(0.965832 0.201813 1.94035e-18)
(0.959207 0.195609 2.57475e-19)
(0.961491 0.195559 1.96919e-18)
(0.972671 0.197554 0)
(0.985524 0.199259 -1.66185e-18)
(0.9925 0.199325 0)
(0.988448 0.196288 -3.74704e-19)
(0.970197 0.189074 0)
(0.935587 0.177619 -1.66277e-18)
(0.884655 0.162825 -1.28772e-18)
(0.819501 0.145749 -3.26448e-19)
(0.743131 0.126801 3.24102e-19)
(0.657825 0.106164 0)
(0.568841 0.0853341 3.24219e-19)
(0.478998 0.0663084 0)
(0.39307 0.0503461 2.7471e-18)
(0.313689 0.0364845 -3.63255e-19)
(0.246711 0.0245482 0)
(0.192103 0.0151254 -1.95836e-18)
(0.147656 0.00834239 0)
(0.110466 0.00387905 0)
(0.079241 0.00133709 0)
(0.0523924 -0.000390029 0)
(0.0301024 -0.00193624 -2.28275e-19)
(0.0125617 -0.00320043 0)
(-0.00110186 -0.00359062 0)
(-0.00916783 -0.0024751 1.19396e-19)
(-0.0122065 -0.00045047 0)
(-0.0125697 0.0020453 0)
(-0.0113233 0.00494523 0)
(-0.00932036 0.00775262 -6.02638e-20)
(-0.007125 0.00988101 0)
(-0.00519685 0.0110023 -2.69667e-19)
(-0.0031551 0.0106338 0)
(-0.000741899 0.00838897 3.02583e-20)
(0.00300035 0.00405748 1.52404e-19)
(0.00824525 -0.00174585 3.02408e-20)
(0.0148587 -0.00785859 -6.14001e-20)
(0.0231223 -0.0131721 -5.07342e-19)
(0.0330112 -0.0167028 -5.20408e-19)
(0.0448018 -0.017556 5.35477e-19)
(0.0587106 -0.015208 -1.40243e-19)
(0.0750165 -0.00952733 -1.11887e-18)
(0.0930822 -0.00112894 1.11633e-18)
(0.112912 0.0083305 -1.40736e-19)
(0.134848 0.0171025 0)
(0.159056 0.0234915 -9.8941e-19)
(0.186004 0.0259322 0)
(0.216344 0.0231817 8.41126e-19)
(0.250458 0.015038 0)
(0.287384 0.00223334 7.0882e-19)
(0.326771 -0.0141626 0)
(0.369456 -0.0320948 -1.54347e-19)
(0.414248 -0.0498032 -6.0025e-19)
(0.460056 -0.0664309 -5.84512e-19)
(0.506076 -0.0818597 1.46262e-19)
(0.551381 -0.0962393 0)
(0.594896 -0.10984 5.53944e-19)
(0.635579 -0.122774 -1.49968e-19)
(0.672685 -0.134736 0)
(0.706001 -0.145102 1.66138e-19)
(0.735868 -0.153322 -6.86252e-19)
(0.762931 -0.159187 -7.57873e-19)
(0.78782 -0.162795 0)
(0.811019 -0.164386 1.8236e-18)
(0.832873 -0.164248 0)
(0.853615 -0.162654 2.11226e-18)
(0.873398 -0.159803 2.23655e-18)
(0.89235 -0.155803 2.34186e-18)
(0.910642 -0.150691 2.86894e-19)
(0.928543 -0.144492 0)
(0.946442 -0.137283 0)
(0.964852 -0.129254 0)
(0.984275 -0.120752 -2.68466e-19)
(1.00546 -0.112272 0)
(1.02813 -0.104554 -1.63429e-18)
(1.05482 -0.0982428 1.61047e-18)
(1.077 -0.0948088 1.01827e-19)
(1.12013 -0.0940952 4.42774e-20)
(0.974194 0.218515 -1.27341e-18)
(0.970935 0.206368 1.23202e-18)
(0.96512 0.19818 -2.91355e-19)
(0.96114 0.194124 0)
(0.9622 0.191959 0)
(0.968266 0.190566 0)
(0.977781 0.189914 0)
(0.988514 0.189521 1.29368e-18)
(0.997442 0.188361 0)
(1.00094 0.185428 -1.15634e-18)
(0.995768 0.180046 -1.44226e-18)
(0.979817 0.172015 3.3117e-19)
(0.95262 0.161564 9.98762e-19)
(0.914225 0.148787 0)
(0.865458 0.133887 -1.52569e-18)
(0.807964 0.117998 0)
(0.745678 0.102638 -1.21902e-18)
(0.683138 0.0881767 3.05072e-19)
(0.622301 0.0746265 -1.27338e-18)
(0.56526 0.06236 -9.79095e-19)
(0.512866 0.051557 0)
(0.4654 0.0422344 0)
(0.422996 0.0343026 -7.02022e-19)
(0.385638 0.0276198 0)
(0.353203 0.0219639 -5.57437e-19)
(0.325285 0.0171094 0)
(0.301239 0.012844 0)
(0.280584 0.00904993 -9.94586e-20)
(0.263171 0.00595053 0)
(0.249067 0.00395182 0)
(0.238697 0.00323297 0)
(0.232537 0.00357612 5.26296e-20)
(0.230656 0.00437995 2.09989e-19)
(0.232572 0.00490278 1.29577e-19)
(0.237829 0.00423756 0)
(0.24614 0.00152003 0)
(0.255992 -0.00334704 -2.49717e-20)
(0.266833 -0.00988092 -1.24676e-19)
(0.278429 -0.0169165 5.03791e-20)
(0.289845 -0.0236406 0)
(0.300676 -0.0291881 0)
(0.311158 -0.0327879 -2.25362e-19)
(0.321989 -0.0339798 1.15852e-19)
(0.334272 -0.0327086 -4.81854e-19)
(0.34913 -0.0294827 4.87117e-19)
(0.36778 -0.0249413 1.19391e-19)
(0.391226 -0.0204338 0)
(0.42001 -0.017856 4.33995e-19)
(0.453893 -0.0190768 0)
(0.491883 -0.0251093 0)
(0.532551 -0.0359224 0)
(0.574388 -0.0504872 0)
(0.616186 -0.0669585 0)
(0.65707 -0.0838744 1.316e-19)
(0.696195 -0.100056 0)
(0.733014 -0.114692 5.50484e-19)
(0.767225 -0.12749 -1.31419e-19)
(0.798541 -0.138596 0)
(0.826628 -0.148311 5.88024e-19)
(0.851187 -0.156846 1.42483e-19)
(0.872061 -0.164179 6.45128e-19)
(0.88935 -0.170105 -1.63092e-19)
(0.903442 -0.174413 0)
(0.914921 -0.177029 -8.02084e-19)
(0.924418 -0.178034 0)
(0.932499 -0.177592 0)
(0.939629 -0.175899 -9.97945e-19)
(0.946198 -0.173138 0)
(0.952538 -0.169451 0)
(0.958968 -0.164932 -1.16086e-18)
(0.965827 -0.159638 -3.1215e-19)
(0.973506 -0.153634 0)
(0.98244 -0.147029 0)
(0.993108 -0.14001 0)
(1.0059 -0.132867 2.99541e-19)
(1.02138 -0.125982 -1.02633e-18)
(1.03911 -0.11989 -2.36056e-19)
(1.06122 -0.115057 -1.84841e-19)
(1.07983 -0.112399 -1.15276e-19)
(1.11773 -0.11197 -2.36728e-19)
(0.974501 0.219011 4.49425e-18)
(0.973757 0.20804 -4.31458e-18)
(0.971715 0.200432 0)
(0.969161 0.196222 -2.61663e-18)
(0.967056 0.192953 0)
(0.966171 0.189333 -2.30805e-18)
(0.967428 0.185846 0)
(0.971682 0.183045 3.07357e-18)
(0.978996 0.18078 -3.81741e-18)
(0.988308 0.178551 1.74473e-18)
(0.997725 0.175863 1.63142e-18)
(1.00502 0.172267 0)
(1.00816 0.167409 -4.41002e-18)
(1.00549 0.160868 -2.80773e-18)
(0.995613 0.152298 3.94806e-18)
(0.977771 0.142005 0)
(0.952957 0.130865 1.21001e-18)
(0.923599 0.119625 0)
(0.891496 0.108443 1.20452e-18)
(0.85795 0.0972756 1.20275e-18)
(0.824003 0.086319 0)
(0.79064 0.0758732 0)
(0.758744 0.0661737 -6.56627e-19)
(0.729 0.0573094 0)
(0.701805 0.049228 6.38205e-19)
(0.677275 0.0418654 0)
(0.655386 0.0352261 0)
(0.636093 0.0293656 0)
(0.619395 0.0243163 0)
(0.605361 0.0200336 0)
(0.594184 0.016327 0)
(0.586181 0.0128681 0)
(0.581673 0.0092771 1.80851e-19)
(0.580771 0.00517906 -8.66853e-20)
(0.583674 0.000145432 4.3663e-20)
(0.589784 -0.00606632 0)
(0.598172 -0.0132386 0)
(0.607976 -0.0206603 8.30377e-20)
(0.618474 -0.0278107 -3.48404e-19)
(0.629039 -0.0340996 3.58151e-19)
(0.639337 -0.0389227 0)
(0.649392 -0.0419056 9.59363e-19)
(0.659545 -0.0430153 -7.96757e-19)
(0.670396 -0.0425928 -4.11341e-19)
(0.682681 -0.0413624 -4.10355e-19)
(0.697203 -0.0402785 0)
(0.714721 -0.0404536 0)
(0.735689 -0.043009 -1.13433e-18)
(0.759926 -0.0487877 0)
(0.786573 -0.0580892 0)
(0.814336 -0.0705163 0)
(0.841804 -0.0850647 5.93915e-19)
(0.867759 -0.100412 1.14916e-18)
(0.891368 -0.115342 0)
(0.912147 -0.128893 0)
(0.929907 -0.140505 -5.39346e-19)
(0.944682 -0.15009 0)
(0.956599 -0.157895 1.23351e-18)
(0.96578 -0.164277 6.82398e-19)
(0.972336 -0.169525 0)
(0.976427 -0.173769 7.53052e-19)
(0.978323 -0.176992 1.53122e-18)
(0.978441 -0.179118 1.64673e-18)
(0.977308 -0.180111 8.70343e-19)
(0.975478 -0.180014 -1.91301e-18)
(0.973462 -0.178927 2.05355e-18)
(0.971696 -0.176974 3.29779e-18)
(0.970549 -0.174275 0)
(0.970342 -0.170932 0)
(0.971374 -0.16702 1.30436e-18)
(0.973939 -0.162599 0)
(0.978343 -0.157735 2.64632e-18)
(0.984891 -0.152522 2.63759e-18)
(0.993894 -0.147103 0)
(1.00555 -0.141692 2.43694e-18)
(1.02021 -0.136565 -1.05425e-18)
(1.0373 -0.13211 0)
(1.05871 -0.128645 0)
(1.07679 -0.126805 0)
(1.11368 -0.126681 -1.90703e-19)
(0.974733 0.218939 -3.46008e-18)
(0.975458 0.208205 3.31196e-18)
(0.976058 0.201066 -6.42763e-18)
(0.975938 0.197377 2.95941e-18)
(0.974878 0.194474 0)
(0.973205 0.190805 2.61032e-18)
(0.971495 0.186609 -4.99489e-18)
(0.970484 0.182372 -4.63377e-18)
(0.971011 0.178175 -7.90594e-20)
(0.973731 0.17401 0)
(0.978848 0.169949 0)
(0.986029 0.165962 3.7091e-18)
(0.994456 0.161818 3.39751e-18)
(1.00296 0.157101 -3.37602e-18)
(1.0101 0.151418 -9.17577e-18)
(1.01444 0.144674 0)
(1.01508 0.13717 0)
(1.01206 0.1292 0)
(1.00587 0.120732 0)
(0.996972 0.111728 0)
(0.985859 0.102387 0)
(0.973149 0.0930002 0)
(0.95953 0.083801 1.27397e-18)
(0.945633 0.0749014 -2.65684e-18)
(0.93195 0.0663383 0)
(0.918833 0.0581583 0)
(0.906544 0.0504422 0)
(0.895316 0.0432593 0)
(0.88537 0.0366153 0)
(0.876939 0.0304486 -6.88568e-19)
(0.87028 0.0246073 0)
(0.865641 0.0188329 0)
(0.863197 0.0128137 1.17993e-20)
(0.862938 0.00621004 0)
(0.864634 -0.00121749 -4.0689e-20)
(0.867716 -0.00941703 0)
(0.871609 -0.0181193 1.67781e-19)
(0.875783 -0.0268061 0)
(0.87987 -0.0349251 6.72688e-19)
(0.883688 -0.0419272 -3.39256e-19)
(0.887276 -0.0473892 -7.30574e-19)
(0.890909 -0.0511303 -7.36018e-19)
(0.895056 -0.0532683 7.63976e-19)
(0.900275 -0.0542234 7.85255e-19)
(0.907099 -0.0546802 1.61116e-18)
(0.915923 -0.0554958 1.60679e-18)
(0.926898 -0.0575929 0)
(0.939831 -0.0618197 -7.8783e-19)
(0.954116 -0.0687219 0)
(0.968816 -0.0783366 0)
(0.982849 -0.090144 -1.35085e-18)
(0.99522 -0.103202 -6.05534e-19)
(1.00522 -0.116395 1.00026e-19)
(1.01251 -0.128733 0)
(1.01708 -0.139538 0)
(1.01916 -0.148506 0)
(1.01912 -0.15567 1.36738e-18)
(1.01735 -0.161298 -1.34283e-18)
(1.01416 -0.165732 -1.41115e-18)
(1.00981 -0.169263 0)
(1.0045 -0.172059 -1.59354e-18)
(0.998512 -0.174168 5.96525e-20)
(0.992152 -0.175573 -1.85008e-18)
(0.985808 -0.176252 2.03727e-18)
(0.979884 -0.176223 -2.04048e-20)
(0.974753 -0.175538 -2.32701e-18)
(0.970736 -0.174266 -2.48766e-18)
(0.968103 -0.172478 0)
(0.967084 -0.170234 0)
(0.967885 -0.167583 0)
(0.970697 -0.164564 0)
(0.975706 -0.161218 -3.00562e-18)
(0.983086 -0.157609 -2.99359e-18)
(0.993005 -0.153836 0)
(1.00553 -0.150057 -2.76218e-18)
(1.02088 -0.146473 4.94233e-18)
(1.03845 -0.143384 0)
(1.05998 -0.140989 0)
(1.07811 -0.139846 0)
(1.11437 -0.139742 8.99707e-19)
(0.975035 0.218503 8.57948e-18)
(0.977128 0.207479 0)
(0.979624 0.200815 1.47079e-17)
(0.980945 0.197729 0)
(0.980751 0.195192 6.40603e-18)
(0.979844 0.191838 0)
(0.978665 0.187929 5.6445e-18)
(0.977195 0.183693 0)
(0.975622 0.179035 -5.18951e-18)
(0.974466 0.173952 0)
(0.974309 0.168621 9.15361e-18)
(0.975636 0.163204 -4.23973e-18)
(0.978747 0.157737 0)
(0.983663 0.15212 7.53417e-18)
(0.99004 0.146204 -1.8643e-19)
(0.997221 0.139909 -6.87944e-18)
(1.00435 0.133369 6.66449e-18)
(1.01073 0.126665 0)
(1.016 0.11964 0)
(1.01989 0.112182 6.25146e-18)
(1.02226 0.104352 0)
(1.02312 0.0962996 -3.03847e-18)
(1.02269 0.0881581 0)
(1.02123 0.0800125 2.88019e-18)
(1.01901 0.0719247 0)
(1.01627 0.0639669 2.98008e-18)
(1.01323 0.056224 0)
(1.01014 0.0487624 0)
(1.00723 0.0416009 1.49723e-18)
(1.00475 0.0346945 7.22582e-19)
(1.00292 0.027914 0)
(1.00188 0.0210443 0)
(1.00165 0.0138372 -1.10793e-18)
(1.00212 0.00606505 0)
(1.00298 -0.00227114 0)
(1.00384 -0.0110479 0)
(1.00433 -0.0199827 -1.75074e-19)
(1.0042 -0.028632 0)
(1.00341 -0.0365211 -1.11776e-18)
(1.00205 -0.0432623 -7.75038e-19)
(1.00042 -0.048615 7.71056e-19)
(0.998956 -0.0525445 0)
(0.998171 -0.0552539 0)
(0.998551 -0.0571749 1.72523e-18)
(1.00046 -0.0589191 -1.71701e-18)
(1.00404 -0.0611942 -1.71694e-18)
(1.0092 -0.0646937 0)
(1.01553 -0.0699698 -5.44031e-20)
(1.02236 -0.0772854 1.65926e-18)
(1.02885 -0.0865153 0)
(1.03416 -0.0971558 1.47847e-18)
(1.03763 -0.108447 1.53732e-18)
(1.03894 -0.119563 -1.42501e-18)
(1.03805 -0.129805 0)
(1.03522 -0.138723 0)
(1.03083 -0.146139 0)
(1.0253 -0.152114 -1.54301e-18)
(1.01903 -0.156875 0)
(1.01229 -0.160704 0)
(1.00529 -0.163846 0)
(0.998205 -0.166454 3.90565e-18)
(0.9912 -0.168592 -2.01974e-18)
(0.9845 -0.170257 0)
(0.978365 -0.171434 -2.32282e-18)
(0.973073 -0.172119 -2.53554e-18)
(0.968892 -0.172332 5.33398e-18)
(0.966051 -0.172106 -5.63409e-18)
(0.964748 -0.171476 -5.91205e-18)
(0.965145 -0.170473 0)
(0.967388 -0.169123 -6.34688e-18)
(0.971605 -0.167445 0)
(0.977916 -0.165461 0)
(0.986427 -0.163212 0)
(0.997239 -0.16077 6.25276e-18)
(1.01036 -0.158252 -5.89743e-18)
(1.02597 -0.155822 -8.09656e-18)
(1.04347 -0.153718 0)
(1.06454 -0.152063 3.57764e-18)
(1.08224 -0.151385 0)
(1.11704 -0.151062 -1.47677e-18)
(0.975434 0.217691 -9.73177e-18)
(0.979143 0.206094 -9.46843e-18)
(0.983425 0.200251 -1.69322e-17)
(0.985583 0.198005 0)
(0.985491 0.195691 -1.45639e-17)
(0.984793 0.192431 -6.93601e-18)
(0.984211 0.188749 0)
(0.983468 0.18475 1.23617e-17)
(0.982375 0.180233 1.15439e-17)
(0.981062 0.175147 0)
(0.979743 0.169582 -1.03521e-17)
(0.97866 0.163636 0)
(0.97813 0.157373 0)
(0.978488 0.150816 8.96573e-18)
(0.979958 0.143969 8.31321e-18)
(0.982606 0.136867 -1.81759e-19)
(0.986287 0.129719 1.83801e-19)
(0.990731 0.122673 0)
(0.995642 0.115617 0)
(1.00066 0.108419 -7.16322e-18)
(1.00544 0.101053 -7.24826e-18)
(1.00973 0.0935616 1.06218e-17)
(1.01342 0.0860033 3.53975e-18)
(1.01649 0.0784212 3.51198e-18)
(1.01895 0.0708523 0)
(1.02087 0.0633418 -3.36568e-18)
(1.02231 0.055945 0)
(1.0234 0.0487062 0)
(1.02428 0.0416341 -3.41397e-18)
(1.02509 0.034683 0)
(1.02595 0.0277451 0)
(1.02691 0.0206631 0)
(1.0279 0.0132715 8.35346e-19)
(1.02875 0.00547935 -4.33067e-19)
(1.02925 -0.00269408 2.1493e-19)
(1.02912 -0.0111374 0)
(1.02813 -0.0195914 0)
(1.02623 -0.0277026 0)
(1.02348 -0.0351239 8.45967e-19)
(1.02014 -0.0415887 8.67716e-19)
(1.01658 -0.0469497 -1.84137e-18)
(1.01326 -0.0512211 0)
(1.01066 -0.0545976 0)
(1.00919 -0.0574381 -3.91467e-18)
(1.00912 -0.0602204 -2.00211e-18)
(1.01051 -0.0634739 0)
(1.01319 -0.0676962 0)
(1.01677 -0.0732642 1.92209e-18)
(1.02065 -0.0803408 6.76928e-20)
(1.02418 -0.0888139 0)
(1.02674 -0.0983036 0)
(1.02792 -0.108246 -1.74856e-18)
(1.02753 -0.118024 0)
(1.02564 -0.127104 0)
(1.02248 -0.135127 0)
(1.01833 -0.141941 0)
(1.01351 -0.147575 0)
(1.00826 -0.152198 -3.96935e-18)
(1.00276 -0.156031 0)
(0.997153 -0.159282 0)
(0.99156 -0.162098 1.15119e-19)
(0.986125 -0.164555 0)
(0.981029 -0.166671 0)
(0.976487 -0.168438 0)
(0.972734 -0.169846 1.14541e-17)
(0.969994 -0.170894 -6.04471e-18)
(0.96847 -0.171589 6.3775e-18)
(0.968332 -0.171942 1.14539e-20)
(0.969722 -0.17196 0)
(0.972764 -0.171649 7.16317e-18)
(0.977563 -0.171012 -7.22864e-18)
(0.984215 -0.170057 0)
(0.992798 -0.168806 0)
(1.00339 -0.167311 -1.06766e-19)
(1.01599 -0.165665 6.65432e-18)
(1.03078 -0.164014 6.04716e-18)
(1.04722 -0.162555 0)
(1.06697 -0.161387 -4.05405e-18)
(1.08358 -0.160946 0)
(1.11623 -0.160316 1.11116e-18)
(0.975986 0.216475 0)
(0.981693 0.204218 2.18039e-17)
(0.987771 0.199653 1.93779e-17)
(0.990445 0.198419 0)
(0.990128 0.196248 8.27561e-18)
(0.98928 0.19299 -8.00209e-18)
(0.988784 0.189411 0)
(0.988298 0.185491 -1.39779e-17)
(0.987635 0.181036 0)
(0.986885 0.176044 0)
(0.986085 0.170574 0)
(0.985207 0.164654 0)
(0.984288 0.158295 0)
(0.983453 0.151499 1.82332e-19)
(0.982846 0.144275 -9.80066e-18)
(0.982616 0.136676 -1.81689e-19)
(0.982908 0.128955 1.83137e-19)
(0.983822 0.121342 0)
(0.985353 0.113809 0)
(0.98737 0.106272 0)
(0.989673 0.0987079 -2.03882e-19)
(0.992076 0.0911433 2.08265e-19)
(0.994454 0.0836145 -4.05356e-18)
(0.996727 0.0761439 -4.02287e-18)
(0.998839 0.0687451 0)
(1.00075 0.0614363 -4.0935e-18)
(1.00246 0.054243 4.08505e-18)
(1.00398 0.0471842 0)
(1.0054 0.0402518 1.98552e-18)
(1.00677 0.0333988 2.04058e-18)
(1.00812 0.0265386 0)
(1.00946 0.0195573 0)
(1.01069 0.0123464 1.02084e-18)
(1.01165 0.00485866 -1.57655e-20)
(1.01218 -0.00293124 -4.98329e-19)
(1.01206 -0.0108912 0)
(1.01115 -0.0187871 0)
(1.00942 -0.0263486 -1.02048e-18)
(1.00697 -0.0333207 0)
(1.00404 -0.0395074 -1.05375e-18)
(1.00097 -0.044814 -5.2238e-20)
(0.998132 -0.0492779 0)
(0.995939 -0.0530761 2.25325e-18)
(0.994725 -0.0565088 4.54872e-18)
(0.99471 -0.0599627 2.28287e-18)
(0.995951 -0.0638567 0)
(0.998321 -0.0685768 -4.6682e-18)
(1.00152 -0.0744059 0)
(1.0051 -0.0814549 -2.21643e-18)
(1.00858 -0.0896189 0)
(1.01149 -0.0985841 0)
(1.01351 -0.107891 0)
(1.01446 -0.117032 0)
(1.01435 -0.12556 0)
(1.01325 -0.133161 -4.32876e-18)
(1.01132 -0.139689 4.39054e-18)
(1.00869 -0.145158 0)
(1.00549 -0.149706 4.50173e-18)
(1.00184 -0.153533 -4.80558e-18)
(0.997854 -0.15684 0)
(0.993657 -0.15978 -5.16475e-18)
(0.98941 -0.162446 0)
(0.985308 -0.164871 0)
(0.981573 -0.16705 0)
(0.978434 -0.168965 -6.49789e-18)
(0.97611 -0.170599 6.90175e-18)
(0.974792 -0.171938 -7.23024e-18)
(0.974642 -0.17297 1.50561e-17)
(0.975793 -0.173685 -7.7867e-18)
(0.978357 -0.174072 0)
(0.982432 -0.174122 8.15314e-18)
(0.988107 -0.173828 -8.12518e-18)
(0.995458 -0.173201 0)
(1.00458 -0.172281 -7.98194e-20)
(1.01549 -0.171154 -7.337e-18)
(1.02843 -0.169972 0)
(1.04298 -0.168902 0)
(1.06084 -0.168083 -4.51102e-18)
(1.07595 -0.16772 0)
(1.10651 -0.166915 -1.24318e-18)
(0.976761 0.214805 0)
(0.984937 0.202013 -1.25575e-17)
(0.992773 0.199209 -1.1019e-17)
(0.995653 0.198999 0)
(0.994989 0.196882 1.89827e-17)
(0.993966 0.193651 1.79249e-17)
(0.993403 0.19016 0)
(0.992848 0.186231 1.61315e-17)
(0.992188 0.18172 -1.53158e-17)
(0.991596 0.176707 0)
(0.991124 0.171259 0)
(0.990702 0.165385 0)
(0.990271 0.159075 0)
(0.98981 0.152314 -1.16491e-17)
(0.989313 0.145089 -1.14327e-17)
(0.988786 0.137423 1.05152e-17)
(0.988308 0.12955 -3.11018e-17)
(0.988 0.121713 0)
(0.987941 0.113925 0)
(0.988129 0.106143 9.94946e-18)
(0.988501 0.0983652 1.94551e-17)
(0.98899 0.0906283 -9.52524e-18)
(0.989554 0.0829706 0)
(0.990167 0.0754143 0)
(0.990805 0.0679694 -4.77854e-18)
(0.99145 0.060646 9.42384e-18)
(0.992094 0.0534564 -9.40957e-18)
(0.992755 0.0464055 0)
(0.99347 0.0394763 0)
(0.994279 0.0326228 -2.32577e-18)
(0.995202 0.0257724 0)
(0.996217 0.0188365 2.38387e-18)
(0.997239 0.0117348 -1.16395e-18)
(0.998151 0.00441917 -1.52649e-20)
(0.998787 -0.00310656 -7.85789e-21)
(0.998962 -0.0107189 0)
(0.998546 -0.0182277 0)
(0.997506 -0.0254222 -3.10544e-20)
(0.995912 -0.0321042 1.20576e-18)
(0.993934 -0.0381301 3.64899e-18)
(0.991831 -0.0434447 4.94704e-18)
(0.989914 -0.0481018 2.55159e-18)
(0.98851 -0.0522662 -2.55805e-18)
(0.987906 -0.0561984 -2.60397e-18)
(0.988304 -0.0602212 2.68062e-18)
(0.989782 -0.0646742 0)
(0.992276 -0.0698605 5.2905e-18)
(0.99558 -0.0759913 -5.36342e-18)
(0.99937 -0.0831354 0)
(1.00327 -0.0911883 0)
(1.00689 -0.0998776 0)
(1.00996 -0.108811 0)
(1.01225 -0.117549 0)
(1.01369 -0.125696 0)
(1.01422 -0.132962 4.88633e-18)
(1.01385 -0.139205 -1.0043e-17)
(1.0126 -0.144432 -5.19177e-18)
(1.01052 -0.148774 5.34005e-18)
(1.00767 -0.152429 5.41957e-18)
(1.00417 -0.155606 -5.77436e-18)
(1.00017 -0.158475 6.05627e-18)
(0.995865 -0.161141 0)
(0.991482 -0.163649 6.72407e-18)
(0.987258 -0.165995 -7.09316e-18)
(0.983429 -0.168154 0)
(0.980208 -0.17009 -1.56407e-17)
(0.977781 -0.171771 8.16888e-18)
(0.9763 -0.173165 -1.70419e-17)
(0.975891 -0.174247 8.80864e-18)
(0.976664 -0.174991 0)
(0.97872 -0.175377 9.15681e-18)
(0.982167 -0.175396 9.22541e-18)
(0.987116 -0.175056 -9.07579e-18)
(0.99372 -0.174405 -8.85934e-18)
(1.00209 -0.173536 8.38008e-18)
(1.01257 -0.172631 0)
(1.02484 -0.171829 0)
(1.04081 -0.171369 5.18444e-18)
(1.05446 -0.171055 0)
(1.08396 -0.170435 1.43535e-18)
(0.977833 0.212618 1.66021e-17)
(0.988996 0.199653 0)
(0.998474 0.199063 -2.48105e-17)
(1.00126 0.199741 2.24985e-17)
(1.00019 0.1976 -2.14464e-17)
(0.99904 0.194448 2.05592e-17)
(0.998414 0.191052 0)
(0.997744 0.187083 1.6e-19)
(0.996973 0.182488 1.72915e-17)
(0.996316 0.177409 0)
(0.995843 0.171911 0)
(0.995511 0.165998 0)
(0.99528 0.159668 2.8492e-17)
(0.995123 0.15291 0)
(0.995001 0.145709 2.53841e-17)
(0.994866 0.138071 0)
(0.994708 0.130202 4.74268e-17)
(0.994568 0.122337 0)
(0.994483 0.114498 0)
(0.994453 0.106654 -2.26427e-17)
(0.994443 0.0988121 -1.10873e-17)
(0.994427 0.0910088 0)
(0.994402 0.083283 0)
(0.994378 0.0756597 0)
(0.994365 0.0681519 5.39555e-18)
(0.994374 0.0607694 -5.38193e-18)
(0.994422 0.0535203 -1.07286e-19)
(0.994538 0.0464041 0)
(0.994763 0.0394003 5.48525e-18)
(0.995139 0.0324656 0)
(0.995687 0.0255383 0)
(0.996394 0.0185467 -2.6955e-18)
(0.997199 0.0114287 1.37703e-18)
(0.997989 0.00415276 -1.51046e-20)