/*--------------------------------*- C++ -*----------------------------------*\
| =========                 |                                                 |
| \\      /  F ield         | OpenFOAM: The Open Source CFD Toolbox           |
|  \\    /   O peration     | Version:  v1912                                 |
|   \\  /    A nd           | Website:  www.openfoam.com                      |
|    \\/     M anipulation  |                                                 |
\*---------------------------------------------------------------------------*/
FoamFile
{
    version     2.0;
    format      ascii;
    class       volScalarField;
    location    "260";
    object      epsilon;
}
// * * * * * * * * * * * * * * * * * * * * * * * * * * * * * * * * * * * * * //

dimensions      [0 2 -3 0 0 0 0];


internalField   nonuniform List<scalar> 
12441
(
0.0102961
0.00908472
0.00832688
0.00770248
0.00718358
0.00674898
0.00638233
0.00607105
0.00580507
0.00557666
0.00537914
0.00520172
0.00505937
0.00490898
0.00479264
0.00468901
0.0048023
0.0195108
0.265798
2.98894
20.9572
39.25
0.0101185
0.0089197
0.00818362
0.00757658
0.00707169
0.00664853
0.00629131
0.00598789
0.00572854
0.00550582
0.00531318
0.00513942
0.00500161
0.0048552
0.00474223
0.00464315
0.00475226
0.0192474
0.250398
2.9817
21.2491
40.2318
0.00989648
0.00871694
0.00799992
0.00740875
0.0069172
0.00650534
0.0061578
0.00586277
0.00561078
0.00539462
0.00520794
0.00503958
0.00490727
0.00476323
0.00465572
0.0045618
0.00462003
0.0174681
0.212413
2.95199
21.6299
41.3784
0.00967288
0.00851328
0.00781453
0.00723848
0.00675958
0.00635841
0.00602
0.00573286
0.00548777
0.00527774
0.0050966
0.00493378
0.00480569
0.00467054
0.00456752
0.00447873
0.00449088
0.0153314
0.175055
2.93033
22.0979
42.5504
0.00942869
0.00828868
0.00760865
0.00704822
0.00658248
0.00619253
0.0058638
0.00558511
0.00534751
0.00514425
0.00496933
0.00481244
0.00469033
0.00455789
0.00446132
0.00437976
0.00434617
0.0134116
0.156088
2.93776
22.6141
43.6698
0.00922269
0.00809905
0.00743423
0.00688641
0.00643124
0.0060502
0.00572906
0.00545691
0.00522499
0.00502671
0.00485626
0.00470382
0.00458469
0.004461
0.00436805
0.00429028
0.00427307
0.0136064
0.175858
3.0435
23.2393
44.7472
0.00900206
0.00789546
0.00724709
0.00671299
0.00626937
0.00589818
0.00558553
0.00532077
0.0050954
0.00490303
0.00473796
0.00459071
0.00447681
0.00435479
0.00426629
0.00419619
0.00602868
0.0227477
0.280758
3.33936
24.0708
45.7945
0.00882359
0.0077308
0.00709526
0.00657176
0.00613698
0.0057732
0.00546681
0.00520739
0.00498658
0.00479815
0.00463655
0.00449263
0.00438068
0.00426854
0.00418823
0.00516923
0.0345843
0.0795615
0.590629
3.95977
25.2272
46.8732
0.00862948
0.00755162
0.00693058
0.00641919
0.0059946
0.00563951
0.00534061
0.0050877
0.00487266
0.00468939
0.00453247
0.00439318
0.0042866
0.00413733
0.00539695
0.0271774
0.178155
0.300931
1.26825
5.04866
26.8335
48.0153
0.00847476
0.00740871
0.00679867
0.00629633
0.00587927
0.00553046
0.00523682
0.00498838
0.00477712
0.00459708
0.00444297
0.00430646
0.0041999
0.00426954
0.0254037
0.151923
0.53951
0.807913
2.34542
6.66259
28.9801
49.2846
0.00830537
0.00725227
0.00665496
0.00616323
0.00575511
0.00541392
0.00512684
0.00488411
0.00467788
0.00450232
0.00435225
0.0042209
0.00408638
0.00951985
0.116022
0.447707
1.08769
1.56202
3.62912
8.70658
31.6926
50.6975
0.00817031
0.00712755
0.0065398
0.00605594
0.00565432
0.00531853
0.00503597
0.00479703
0.004594
0.00442115
0.00427343
0.00414602
0.00416413
0.0490456
0.33275
0.857978
1.64492
2.35149
4.86649
10.9785
34.9208
52.295
0.00802122
0.00698992
0.00641351
0.0059391
0.00554544
0.00521643
0.0049397
0.00470582
0.00450723
0.00433833
0.00419413
0.004034
0.00842022
0.170136
0.63165
1.24623
2.09054
3.01008
5.92406
13.2736
38.5619
54.0597
0.00790029
0.00687826
0.00631041
0.00584304
0.00545519
0.00513102
0.00485833
0.00462785
0.00443214
0.00426567
0.0041236
0.00387965
0.037625
0.361732
0.909301
1.54368
2.41103
3.50315
6.78558
15.449
42.4872
56.0037
0.00776895
0.00675694
0.00619911
0.00574007
0.00535925
0.00504105
0.00477349
0.00454744
0.00435561
0.00419257
0.00405352
0.00426554
0.116706
0.5615
1.1258
1.75802
2.63763
3.86294
7.48384
17.4316
46.5716
58.0812
0.00765984
0.00665623
0.00610614
0.00565345
0.00527788
0.00496404
0.00470013
0.00447716
0.00428793
0.00412711
0.00399006
0.00954733
0.235075
0.729953
1.28548
1.91318
2.80143
4.13046
8.05901
19.1979
50.7053
60.2902
0.00754395
0.0065492
0.00600802
0.00556274
0.00519338
0.0048848
0.00462538
0.00440627
0.00422039
0.00406249
0.00392847
0.0330455
0.360647
0.861441
1.40424
2.0288
2.92428
4.3372
8.5446
20.7524
54.8056
62.571
0.00744238
0.00645559
0.0059217
0.00548243
0.00511805
0.00481365
0.00455775
0.00434163
0.0041583
0.00400261
0.00387325
0.0848561
0.471789
0.96285
1.49523
2.11812
3.0203
4.50442
8.96539
22.1122
58.8127
64.9213
0.00733982
0.00636073
0.00583467
0.00540189
0.00504294
0.00474311
0.00449109
0.00427829
0.00409783
0.00394465
0.00380991
0.154615
0.563043
1.0427
1.56744
2.18972
3.09859
4.64597
9.3388
23.2983
62.6925
67.2818
0.00724514
0.00627355
0.00575434
0.00532722
0.00497299
0.00467713
0.00442848
0.00421856
0.00404058
0.00388956
0.00428908
0.226355
0.636676
1.10757
1.62679
2.24926
3.16518
4.77087
9.6767
24.3316
66.4285
69.6617
0.00715497
0.00619009
0.00567775
0.00525628
0.00490674
0.00461478
0.00436942
0.00416227
0.00398666
0.00383773
0.0100799
0.291802
0.697015
1.16202
1.67723
2.30055
3.22418
4.88489
9.98692
25.2315
70.0238
72.0102
0.00706414
0.00610662
0.00560101
0.00518515
0.00484033
0.00455239
0.00431045
0.00410626
0.00393322
0.00378706
0.0294062
0.348731
0.747814
1.20912
1.72147
2.34629
3.27852
4.99155
10.2745
26.0152
73.4939
74.3523
0.00698492
0.00603307
0.00553335
0.00512229
0.00478142
0.00449673
0.00425751
0.00405559
0.00388447
0.00374207
0.0631783
0.397816
0.791857
1.25097
1.76144
2.38843
3.33028
5.09282
10.5425
26.6981
76.8698
76.6493
0.00689836
0.00595363
0.00546041
0.00505481
0.00471855
0.00443782
0.00420201
0.00400305
0.00383453
0.00370235
0.103279
0.440462
0.831082
1.28909
1.79858
2.4284
3.38091
5.18962
10.793
27.2937
80.1929
78.9445
0.00683016
0.00589019
0.00540195
0.00500033
0.00466728
0.00438913
0.00415542
0.00395815
0.00379104
0.00368416
0.142737
0.478157
0.866846
1.32459
1.83396
2.4673
3.43123
5.28237
11.0272
27.8143
83.5174
81.212
0.0067444
0.00581176
0.00533024
0.00493432
0.00460616
0.00433223
0.00410218
0.00390813
0.00374386
0.00364608
0.178933
0.512177
0.900105
1.35832
1.86839
2.50587
3.48164
5.37129
11.246
28.2704
86.9056
83.5114
0.00668533
0.0057565
0.00527903
0.0048863
0.00456062
0.00428866
0.00406017
0.00386735
0.00370413
0.00385226
0.211791
0.543511
0.931563
1.39091
1.90247
2.5446
3.53218
5.45659
11.4501
28.6715
90.4295
85.8273
0.00660154
0.00568
0.00520925
0.00482226
0.00450155
0.00423391
0.00400919
0.00381969
0.00365948
0.00587668
0.242033
0.572897
0.961741
1.42286
1.93662
2.58375
3.58273
5.53849
11.6402
29.0254
94.1633
88.2307
0.00655194
0.00563335
0.00516578
0.00478116
0.00446222
0.00419586
0.0039721
0.00378328
0.00362401
0.0115932
0.270427
0.600874
0.991046
1.45454
1.97109
2.62341
3.63317
5.61727
11.8171
29.3388
98.183
90.7106
0.00646778
0.00555685
0.00509634
0.00471783
0.0044042
0.00414251
0.00392282
0.0037376
0.00358249
0.0224074
0.297566
0.627839
1.01978
1.4862
2.00602
2.66355
3.68339
5.6932
11.9814
29.617
102.558
93.3406
0.00642563
0.00551678
0.0050586
0.00468173
0.00436922
0.00410826
0.00388907
0.00370414
0.00355153
0.0389367
0.323854
0.65409
1.04819
1.51802
2.04147
2.70413
3.73334
5.76656
12.1339
29.8648
107.349
96.1058
0.00634309
0.00544188
0.00499077
0.00462006
0.00431294
0.00405673
0.00384169
0.00366044
0.00351559
0.0607251
0.349549
0.67985
1.07645
1.55011
2.07742
2.74507
3.78304
5.8376
12.2753
30.086
112.602
99.0732
0.00630949
0.0054096
0.00496002
0.00459018
0.00428348
0.00402736
0.00381222
0.00363073
0.00349481
0.0867006
0.374808
0.705287
1.10468
1.58253
2.11384
2.78632
3.83251
5.90655
12.4065
30.2848
118.352
102.217
0.00622494
0.00533324
0.00489127
0.00452812
0.00422732
0.00397642
0.00376587
0.00358842
0.00347385
0.115588
0.399722
0.730528
1.13296
1.6153
2.15067
2.82784
3.88181
5.97362
12.5283
30.4648
124.619
105.592
0.00619818
0.00530705
0.00486579
0.00450278
0.00420174
0.00395035
0.00373921
0.00356115
0.00347928
0.146252
0.42433
0.755659
1.16135
1.64839
2.18785
2.86958
3.93102
6.039
12.6414
30.63
131.418
109.157
0.00611111
0.00522883
0.00479579
0.00444003
0.00414539
0.00389967
0.0036935
0.00351978
0.00355306
0.177711
0.448628
0.780736
1.18986
1.68178
2.22533
2.91155
3.98022
6.10285
12.7469
30.7836
138.755
112.957
0.00608765
0.00520558
0.00477283
0.00441681
0.00412157
0.00387505
0.00366805
0.00349354
0.00644562
0.209084
0.47257
0.805784
1.21848
1.71541
2.26305
2.95373
4.02946
6.16532
12.8455
30.9286
146.63
116.938
0.00599557
0.00512346
0.00469983
0.00435184
0.00406367
0.00382338
0.00362182
0.00345204
0.0313372
0.23942
0.496074
0.830802
1.24717
1.74924
2.30095
2.9961
4.07883
6.22652
12.9383
31.0665
155.028
121.137
0.00596735
0.00509611
0.0046733
0.00432547
0.00403706
0.00379631
0.00359423
0.00342459
0.070993
0.267322
0.51903
0.855762
1.27588
1.78319
2.33897
3.03867
4.12836
6.28656
13.0264
31.1978
163.895
125.495
0.00586258
0.00500306
0.00459097
0.00425255
0.00397241
0.00373894
0.00354323
0.00338444
0.0994721
0.291788
0.541322
0.880618
1.30454
1.81717
2.37705
3.0814
4.17811
6.34555
13.1107
31.3215
173.099
130.045
0.00582108
0.00496373
0.00455359
0.0042163
0.00393679
0.00370367
0.00350826
0.00337001
0.117581
0.312754
0.562841
0.905299
1.33308
1.85108
2.41511
3.12426
4.22806
6.40357
13.1924
31.4362
182.367
134.727
0.00569938
0.00485606
0.00445835
0.00413171
0.00386143
0.0036364
0.00344807
0.00395419
0.129519
0.33059
0.5835
0.929721
1.36139
1.88481
2.45306
3.1672
4.27821
6.46074
13.2723
31.5406
191.218
139.588
0.00561716
0.00478964
0.004404
0.00408572
0.00382109
0.00359971
0.00341358
0.00519942
0.137772
0.345753
0.60324
0.95378
1.38939
1.91822
2.49081
3.21014
4.3285
6.5172
13.3507
31.6351
198.951
144.654
0.0052546
0.00446018
0.00411189
0.00382635
0.00358911
0.00339056
0.00322369
0.00585671
0.14367
0.358634
0.622015
0.977355
1.41698
1.95114
2.52823
3.25298
4.37884
6.57316
13.4275
31.7214
204.755
150.447
95.0235
68.7049
45.3371
35.3241
31.0515
25.3832
24.1686
21.8951
20.8442
20.494
20.8244
20.6932
22.1149
26.1259
32.8719
37.1958
37.3134
36.227
35.3955
34.7734
34.7804
35.5217
36.2551
36.3571
35.7076
35.325
42.8204
21.464
5.30922
4.41364
4.57591
4.69268
4.67456
4.28309
3.74268
94.6475
68.912
45.7101
36.1717
32.0278
26.0234
24.7726
22.3627
21.2741
20.8911
21.098
21.0534
22.4883
26.3313
33.0721
37.6716
37.8271
36.7633
35.909
35.224
35.1978
35.922
36.6852
36.835
36.196
35.7407
43.0339
22.1251
5.32135
4.40997
4.57112
4.68684
4.66823
4.27679
3.73741
93.9266
69.2351
46.4111
37.8428
33.9371
27.2922
25.9494
23.2811
22.1358
21.6888
21.6745
21.7522
23.1062
26.7327
33.4578
38.2413
38.6398
37.8235
37.0409
36.272
36.1527
36.7764
37.5278
37.7231
37.0914
36.5362
42.9933
22.4667
5.33904
4.40265
4.56152
4.67517
4.65562
4.26419
3.7269
92.8104
69.6415
47.4714
40.42
36.7767
29.207
27.6713
24.6331
23.4286
22.8925
22.619
22.8645
24.0899
27.5274
34.2389
39.1691
39.9881
39.6315
39.104
38.264
37.9205
38.27
38.9057
39.1132
38.4833
37.7976
43.1197
22.6958
5.36389
4.39171
4.54714
4.6577
4.63673
4.24535
3.71117
91.3035
70.102
48.9344
43.9561
40.5191
31.7705
29.9081
26.4113
25.1512
24.5024
24.0122
24.5383
25.6276
28.9254
35.7557
40.877
42.2384
42.5773
42.6386
41.8123
40.9906
40.7216
41.0154
41.1358
40.4846
39.6314
43.7679
22.9928
5.39859
4.37723
4.52799
4.63443
4.61161
4.22029
3.69026
89.3553
70.5907
50.8552
48.4758
45.1461
34.9994
32.6577
28.634
27.3191
26.5342
25.9346
26.9419
27.9563
31.182
38.3796
43.9352
45.9888
47.2968
48.4974
47.9375
46.2139
44.6857
44.1863
43.9952
43.2536
42.1767
45.2591
23.5044
5.44665
4.35928
4.50407
4.60539
4.5803
4.18906
3.66422
87.0012
71.0848
53.2977
53.9497
50.6383
38.9288
35.951
31.3474
29.9754
29.0336
28.4706
30.2737
31.4123
34.6766
42.5404
49.026
52.1112
54.7569
57.9275
58.2611
55.0532
51.134
48.9811
48.0229
47.0251
45.622
47.9352
24.3548
5.51209
4.33794
4.4754
4.5706
4.54286
4.15171
3.63311
84.2135
71.5637
56.329
60.2233
56.936
43.5929
39.8412
34.6219
33.1898
32.0772
31.7194
34.7526
36.4992
40.0703
48.8423
56.9531
61.7188
66.2439
72.4796
75.0658
69.9129
61.7587
56.3649
53.7628
52.1579
50.2297
52.2203
25.6626
5.59935
4.31329
4.44202
4.5301
4.49934
4.10832
3.59702
81.0699
72.0073
60.0109
66.9467
63.8981
48.9942
44.3859
38.5442
37.0533
35.7708
35.7945
40.5547
43.8817
48.4346
58.179
68.5926
75.8936
82.8862
93.1481
100.376
94.0783
79.3264
67.9571
62.0962
59.2031
56.3705
58.6791
27.5594
5.71311
4.28542
4.40395
4.48394
4.44984
4.05899
3.55603
77.574
72.3947
64.3948
73.5983
71.2911
55.0724
49.6233
43.2022
41.6651
40.238
40.8041
47.6543
54.1396
61.2061
71.51
84.3295
94.635
104.05
117.945
132.271
129.268
107.324
86.2103
74.3751
68.9815
64.5632
68.0537
30.2082
5.85807
4.25437
4.36125
4.43219
4.39447
4.00384
3.51027
73.8369
72.7011
69.5287
79.6676
78.8246
61.6895
55.5463
48.6628
47.1114
45.6054
46.8211
55.6057
66.9976
79.1065
88.7516
102.645
115.067
125.456
140.306
160.817
168.399
146.177
113.637
92.3385
82.5996
75.4926
81.1972
33.8197
6.03844
4.22016
4.31398
4.37495
4.33338
3.94302
3.45989
69.8857
72.8945
75.4693
84.8975
86.2257
68.6473
62.0788
54.9367
53.4261
51.9592
53.7938
63.4901
80.1784
99.1323
106.655
119.173
131.756
141.206
154.058
175.522
194.164
184.864
148.881
117.051
101.142
89.9105
98.695
38.6543
6.25705
4.18277
4.26223
4.31234
4.26675
3.87672
3.40505
65.8489
72.9303
82.269
89.3825
93.3141
75.7422
69.0729
61.945
60.5485
59.2874
61.4706
70.2045
89.6174
112.981
118.885
129.388
141.305
149.234
159.242
177.184
198.133
204.287
180.812
145.849
124.489
108.193
119.855
44.977
6.51366
4.14207
4.20611
4.24451
4.19478
3.80517
3.34597
61.7626
72.745
89.8782
93.4456
100.036
82.8358
76.3369
69.5025
68.2859
67.3974
69.35
75.0877
92.581
114.44
121.519
132.677
144.98
151.983
159.682
173.072
188.96
200.073
194.476
169.855
149.183
129.283
141.281
52.9033
6.8021
4.09786
4.14576
4.17166
4.11773
3.72863
3.28287
57.7502
72.2517
97.9289
97.4367
106.447
89.9035
83.699
77.3547
76.342
75.8923
76.8842
78.2371
90.0682
106.382
116.822
131.916
146.01
152.622
158.413
167.91
177.019
184.309
188.238
179.773
168.085
149.476
157.007
62.0807
7.10626
4.04981
4.08132
4.094
4.03587
3.64741
3.21602
53.8399
71.3466
105.51
101.601
112.658
97.0436
91.0699
85.2494
84.397
84.2686
83.6858
80.4047
85.3238
95.7196
109.698
130.189
146.624
152.81
156.6
162.834
166.33
167.609
172.515
175.381
175.358
163.167
162.157
71.3061
7.39628
3.9975
4.01297
4.0118
3.94952
3.56184
3.14571
50.1273
69.9409
111.179
106.052
118.837
104.367
98.4745
93.0488
92.2464
92.1795
89.8172
82.4722
81.0518
86.7721
103.582
129.304
147.689
152.898
154.292
157.453
156.947
153.49
156.145
163.605
171.519
166.615
156.657
78.5042
7.62885
3.94043
3.94093
3.92534
3.85905
3.47229
3.07226
46.6135
68.0253
114.041
110.751
125.125
112.002
106.027
100.788
99.8825
99.5888
95.6693
85.26
78.6901
80.9548
99.8674
129.931
149.275
152.677
151.218
151.251
147.973
141.839
142.349
150.579
161.348
160.632
144.278
81.5639
7.75632
3.87817
3.86542
3.83495
3.76482
3.37918
2.99599
43.349
65.7382
114.387
115.595
131.606
120.034
113.877
108.651
107.506
106.806
101.869
89.3486
78.7556
78.3092
98.8617
132.217
151.243
151.906
147.165
144.042
138.808
131.768
131.28
138.947
149.135
148.893
129.178
79.6422
7.74364
3.81044
3.78669
3.74097
3.66724
3.28293
2.91725
40.3033
63.3967
113.41
120.479
138.294
128.473
122.144
116.871
115.416
114.286
108.966
95.2191
81.4912
78.6943
100.538
136.076
153.407
150.45
142.115
135.967
129.38
122.632
122.237
129.119
137.012
134.919
114.032
73.6019
7.58223
3.73722
3.705
3.64377
3.56675
3.18399
2.83642
37.4893
61.4542
112.26
125.367
145.142
137.243
130.873
125.64
123.919
122.496
117.431
103.175
87.0366
82.0379
104.885
141.44
155.686
148.328
136.213
127.351
119.943
114.164
114.545
120.681
125.595
120.847
100.05
65.2035
7.29108
3.65884
3.62064
3.54374
3.46376
3.08283
2.75387
34.8769
60.2769
111.612
130.251
152.065
146.196
140.019
135.041
133.216
131.746
127.492
113.462
95.6181
88.5557
112.026
148.259
158.043
145.661
129.741
118.592
110.855
106.338
107.742
113.095
114.877
107.653
87.5753
56.0871
6.90617
3.57589
3.53392
3.44128
3.35874
2.97991
2.66996
32.4767
59.9904
111.683
135.111
158.954
155.152
149.462
145.036
143.389
142.197
139.243
126.124
107.397
98.6165
122.259
156.61
160.565
142.672
123.051
110.076
102.413
99.2093
101.552
105.942
104.734
95.6762
76.5722
47.3268
6.46757
3.48914
3.44514
3.33682
3.25214
2.87572
2.58508
30.2708
60.5755
112.348
139.896
165.694
163.92
159.03
155.488
154.378
153.823
152.561
141.108
122.485
112.805
136.049
166.613
163.348
139.613
116.522
102.138
94.8167
92.8135
95.8063
98.9617
95.1021
84.9676
66.8791
39.4624
6.01026
3.39944
3.35462
3.23076
3.14439
2.77071
2.49957
28.2673
61.808
113.406
144.522
172.165
172.323
168.536
166.208
166.051
166.518
167.279
158.157
140.723
131.566
153.979
178.468
166.519
136.738
110.497
95.0226
88.152
87.1377
90.3905
92.0334
86.0038
75.4639
58.3212
32.6821
5.56024
3.30764
3.26268
3.12351
3.03593
2.66533
2.4138
26.4614
63.2427
114.686
148.89
178.261
180.216
177.801
176.996
178.228
180.116
183.182
177.033
161.829
155.099
176.552
192.235
170.066
134.215
105.236
88.8843
82.4261
82.1212
85.213
85.1431
77.5088
67.0594
50.749
26.9818
5.13426
3.21448
3.16964
3.0155
2.9272
2.56004
2.32809
24.8623
64.3384
116.068
152.909
183.899
187.502
186.683
187.692
190.766
194.523
200.207
197.529
185.407
182.993
203.832
207.733
173.85
132.104
100.873
83.7766
77.583
77.6719
80.1987
78.3446
69.6898
59.6333
44.0444
22.2664
4.74148
3.12065
3.0758
2.90711
2.81858
2.45523
2.24276
23.4808
64.7533
117.481
156.51
189.028
194.142
195.101
198.201
203.592
209.753
218.456
219.744
211.327
214.665
235.043
224.198
177.463
130.312
97.4112
79.674
73.5331
73.6812
75.2904
71.7305
62.5949
53.065
38.1157
18.4067
4.38551
3.02668
2.98147
2.79875
2.71048
2.3513
2.15811
22.3333
64.5958
118.882
159.663
193.635
200.151
203.048
208.527
216.775
226.048
238.395
244.116
239.779
249.561
268.627
240.34
180.357
128.651
94.731
76.4793
70.1609
70.0373
70.4554
65.404
56.2351
47.2406
32.8891
15.2684
4.06634
2.93304
2.88694
2.69076
2.60325
2.24861
2.0744
21.4546
64.3613
120.24
162.365
197.743
205.593
210.583
218.771
230.542
243.928
260.934
271.734
271.616
287.731
302.692
254.447
181.866
126.852
92.6269
74.046
67.3408
66.6334
65.6879
59.4603
50.5869
42.0588
28.3022
12.7264
3.78187
2.84007
2.79248
2.5835
2.49721
2.14747
1.99187
20.8892
64.6131
121.529
164.64
201.398
210.563
217.832
229.147
245.333
264.329
287.709
304.514
308.422
329.656
335.503
264.998
181.484
124.665
90.8458
72.1866
64.9371
63.3766
61.0095
53.9712
45.6005
37.4323
24.2981
10.6707
3.52889
2.74805
2.69834
2.47729
2.39267
2.04819
1.91075
20.7351
65.7243
122.72
166.528
204.667
215.18
224.972
239.978
261.833
288.71
321.313
345.65
352.854
376.286
365.384
270.86
178.9
121.88
89.1365
70.695
62.8139
60.1927
56.4623
48.9807
41.2105
33.289
20.8226
9.0077
3.30382
2.65719
2.60478
2.37244
2.28991
1.95102
1.83122
21.1259
67.8128
123.79
168.082
207.632
219.583
232.241
251.72
281.038
319.226
365.623
399.728
408.369
428.019
390.396
271.475
174.099
118.377
87.2774
69.3592
60.836
57.0325
52.1006
44.5029
37.3449
29.5698
17.8226
7.65984
3.10306
2.56767
2.51202
2.2692
2.18917
1.85618
1.75345
22.2957
70.7987
124.72
169.357
210.385
223.931
239.939
264.983
304.321
358.811
425.535
471.949
477.934
483.137
407.823
266.584
167.212
114.101
85.1009
67.9875
58.8821
53.8736
47.9795
40.527
33.9325
26.2276
15.2465
6.56382
2.92328
2.47961
2.42027
2.16783
2.09067
1.76386
1.67757
24.5223
74.4838
125.503
170.41
213.032
228.415
248.453
280.593
333.547
411.093
505.121
563.555
558.979
534.471
414.161
256.267
158.514
109.071
82.4943
66.4202
56.8497
50.7204
44.1454
37.0232
30.9067
23.2238
13.0441
5.66859
2.76147
2.39312
2.32972
2.06855
1.99459
1.67424
1.60371
28.1637
78.6203
126.139
171.297
215.692
233.266
258.29
299.661
371.163
479.48
601.576
661.451
634.98
567.857
405.932
240.875
148.318
103.346
79.4006
64.5453
54.6688
47.5971
40.6289
33.9493
28.2088
20.5266
11.1679
4.93332
2.61499
2.30827
2.24056
1.97156
1.9011
1.58745
1.53198
33.4954
82.9607
126.635
172.069
218.506
238.78
270.138
323.727
420.237
564.397
695.677
730.165
673.724
567.052
381.753
221.274
137.019
97.0378
75.8093
62.2941
52.3017
44.5399
37.4419
31.2565
25.7884
18.1087
9.57374
4.32555
2.48157
2.22512
2.15295
1.87704
1.81035
1.50362
1.46245
40.701
87.293
126.999
172.78
221.654
245.361
284.97
354.973
484.039
657.125
751.573
732.465
650.974
527.197
344.186
198.813
125.039
90.2893
71.7557
59.6415
49.7438
41.584
34.5781
28.8946
23.6038
15.9459
8.22145
3.81956
2.35931
2.14375
2.06706
1.78517
1.72247
1.42284
1.3952
49.6321
91.4644
127.242
173.492
225.379
253.585
304.242
396.553
564.024
733.383
742.616
667.659
576.802
460.515
299.239
175.181
112.842
83.2788
67.314
56.597
47.0115
38.7558
32.0159
26.8147
21.6208
14.0161
7.07503
3.39501
2.24657
2.06421
1.98304
1.69608
1.63758
1.34519
1.33029
59.8743
95.3905
127.373
174.281
230.03
264.345
330.253
452.777
653.273
760.062
675.669
569.374
483.619
386.253
253.354
151.932
100.847
76.197
62.5949
53.2056
44.1355
36.0666
29.7228
24.9721
19.8127
12.2991
6.10291
3.03585
2.14202
1.98655
1.90104
1.60993
1.55577
1.27076
1.26778
70.5911
99.0491
127.4
175.256
236.157
279.129
366.79
527.656
725.153
721.01
578.912
469.463
395.95
317.421
210.844
130.205
89.4204
69.2377
57.7342
49.5435
41.1525
33.5132
27.6596
23.3264
18.1581
10.7757
5.27777
2.72937
2.04452
1.91084
1.82122
1.52686
1.47715
1.19959
1.20771
80.9187
102.46
127.335
176.588
244.702
300.61
419.788
615.68
736.459
629.9
477.09
382.443
322.634
258.627
173.444
110.597
78.816
62.5753
52.883
45.7177
38.1055
31.0812
25.7846
21.8419
16.6403
9.42844
4.57628
2.46555
1.95314
1.83714
1.74371
1.447
1.40179
1.13175
1.15012
89.3733
105.668
127.188
178.564
257.424
333.779
494.881
678.555
666.234
514.842
383.824
310.905
263.454
209.471
141.245
93.3114
69.2017
56.3571
48.19
41.8566
35.0449
28.7524
24.0563
20.4871
15.2459
8.24072
3.97872
2.23643
1.8671
1.76555
1.66867
1.37046
1.32976
1.06726
1.09504
95.1437
108.739
126.976
181.729
277.879
386.83
576.711
651.104
539.258
400.273
304.151
253.053
215.777
168.37
113.773
78.3103
60.6432
50.6806
43.7843
38.0985
32.0315
26.5115
22.4365
19.2335
13.9633
7.1973
3.46857
2.0357
1.78576
1.69613
1.59623
1.29736
1.26111
1.00615
1.04249
0.00337761
0.00250265
0.00227325
0.00215965
0.00211728
0.00211987
0.00215361
0.00605793
0.146901
0.366818
0.635298
0.994402
1.43697
1.97482
2.5553
3.28421
4.4159
6.61466
13.4834
31.7847
207.109
160.104
0.00334411
0.00224151
0.00184026
0.00160265
0.00147941
0.00143951
0.00147191
0.00614881
0.148505
0.371243
0.642922
1.00402
1.44787
1.9874
2.5696
3.30095
4.43671
6.63942
13.5197
31.8324
208.115
170.208
0.00354025
0.00237559
0.00188167
0.00154338
0.00132037
0.00118795
0.00115724
0.00620592
0.149562
0.374456
0.648841
1.01122
1.45555
1.99583
2.57905
3.3123
4.45192
6.65918
13.5504
31.8818
208.272
179.861
0.00367053
0.00251723
0.00200375
0.00162955
0.00135743
0.00116533
0.00103157
0.00624026
0.150147
0.376525
0.65303
1.01595
1.45991
2.00004
2.58353
3.31812
4.46132
6.67367
13.574
31.9339
207.643
188.924
0.00392239
0.00276395
0.00222663
0.00182253
0.00151474
0.00128035
0.00100073
0.00625726
0.150303
0.377496
0.655465
1.01816
1.46092
1.99997
2.58299
3.31832
4.46476
6.68266
13.5888
31.9893
206.273
197.86
0.00405996
0.00292961
0.00239854
0.00199236
0.00167577
0.00142598
0.000990885
0.0062598
0.150058
0.3774
0.656135
1.01782
1.45854
1.99561
2.5774
3.31285
4.46209
6.68587
13.5934
32.0483
204.192
206.842
0.00434033
0.00320806
0.00265984
0.0022341
0.00189708
0.00162604
0.00106091
0.00624925
0.149431
0.376267
0.655047
1.01495
1.45277
1.98699
2.56678
3.30167
4.45318
6.68308
13.5862
32.1108
201.44
215.869
0.00447834
0.00337917
0.00284398
0.00242384
0.00208729
0.00181265
0.00118811
0.00622573
0.148434
0.374123
0.652227
1.00957
1.44368
1.97417
2.55119
3.28479
4.43795
6.67401
13.5659
32.1762
198.065
224.88
0.00478391
0.00368476
0.00313502
0.00269769
0.0023433
0.0020508
0.00131313
0.00618857
0.147079
0.371002
0.647727
1.00174
1.43134
1.95725
2.53072
3.26226
4.41628
6.65844
13.5311
32.2434
194.122
233.807
0.00490848
0.00384878
0.00331961
0.00289507
0.00254779
0.0022579
0.00140313
0.00613661
0.145377
0.366942
0.641618
0.991558
1.41588
1.93638
2.50553
3.23414
4.38811
6.63611
13.4809
32.31
189.673
242.566
0.00522929
0.0041714
0.0036305
0.00319134
0.00282853
0.00252299
0.00151696
0.00606847
0.143336
0.361989
0.633988
0.979138
1.39745
1.91173
2.47579
3.20055
4.35339
6.60676
13.4144
32.3731
184.782
251.047
0.0053391
0.00432463
0.00380997
0.00338948
0.00303954
0.00274213
0.00163591
0.00598216
0.140964
0.35619
0.624942
0.964623
1.37624
1.8835
2.44172
3.16166
4.31208
6.57014
13.3307
32.4287
179.517
259.119
0.00567201
0.0046611
0.00413724
0.00370431
0.00334066
0.00302929
0.00184023
0.00587525
0.138265
0.3496
0.614594
0.948174
1.35245
1.85192
2.40356
3.11765
4.26418
6.52597
13.2292
32.4714
173.945
266.632
0.00575608
0.00479284
0.00430123
0.00389331
0.0035488
0.00325164
0.0021176
0.00574408
0.13524
0.34227
0.603061
0.929973
1.32632
1.81728
2.3616
3.06878
4.20974
6.47397
13.1094
32.4952
168.133
273.435
0.00609202
0.00513351
0.00463484
0.00421653
0.00386026
0.00355107
0.00252257
0.00558423
0.131878
0.334249
0.590462
0.910209
1.29808
1.77982
2.31614
3.01532
4.14885
6.41386
12.9709
32.4927
162.148
279.379
0.00615202
0.00524289
0.00478021
0.00439135
0.00405896
0.0037689
0.00298852
0.00538891
0.128159
0.325576
0.57691
0.889081
1.268
1.73986
2.26751
2.9576
4.08166
6.34534
12.8134
32.4558
156.049
284.331
0.0064867
0.00558329
0.00511534
0.00471771
0.00437501
0.00407429
0.00350133
0.00515056
0.124045
0.316279
0.562507
0.866788
1.23632
1.69768
2.21604
2.89596
4.00837
6.26812
12.6367
32.3757
149.891
288.18
0.00651823
0.00566539
0.00523652
0.00487219
0.00455761
0.00428047
0.0038966
0.0048581
0.119474
0.306361
0.547339
0.843523
1.20332
1.65361
2.16207
2.83078
3.92926
6.18193
12.441
32.243
143.722
290.841
0.00683897
0.00599266
0.00556033
0.00518908
0.00486602
0.00458004
0.00427349
0.00451091
0.114356
0.295797
0.531466
0.81947
1.16925
1.60793
2.10597
2.76247
3.84466
6.08654
12.2262
32.0481
137.585
292.254
0.00685339
0.00605567
0.00566231
0.00532517
0.00503176
0.00477139
0.00452746
0.00412809
0.108559
0.284522
0.514922
0.794792
1.13437
1.56096
2.04807
2.69141
3.75495
5.98174
11.9928
31.7816
131.514
292.384
0.00716008
0.00636963
0.00597429
0.00563165
0.00533099
0.00506284
0.00482327
0.00381028
0.101904
0.272417
0.497692
0.769623
1.09893
1.513
1.98871
2.61804
3.66057
5.86741
11.7411
31.4345
125.537
291.217
0.00715654
0.00641244
0.00605552
0.00574738
0.00547741
0.00523643
0.00502263
0.00377445
0.0941633
0.259295
0.479709
0.744056
1.06314
1.46432
1.92823
2.54275
3.56201
5.74349
11.4717
30.999
119.675
288.755
0.00744656
0.00670989
0.00635193
0.00603926
0.00576296
0.00551504
0.00529268
0.00412844
0.0850684
0.244885
0.46083
0.71813
1.02721
1.41522
1.86695
2.46595
3.45978
5.61004
11.1853
30.4684
113.944
285.009
0.00743048
0.00673695
0.00641569
0.00613665
0.00589086
0.00567042
0.00547065
0.00466996
0.0743589
0.228817
0.440812
0.691806
0.99128
1.36595
1.80518
2.38805
3.35444
5.46721
10.8829
29.8378
108.353
280.004
0.00770419
0.00701801
0.00669633
0.00641343
0.00616192
0.00593503
0.00572774
0.00524594
0.0619168
0.210624
0.419289
0.664943
0.955462
1.31676
1.74321
2.30942
3.24654
5.31532
10.5652
29.1047
102.908
273.769
0.00767667
0.00703035
0.00674337
0.00649286
0.00627123
0.00607171
0.00588847
0.00562045
0.0480399
0.18977
0.395744
0.637264
0.919756
1.26786
1.68131
2.23043
3.13669
5.15478
10.2334
28.2689
97.6079
266.346
0.00793333
0.00729399
0.00700687
0.0067529
0.00652594
0.00632029
0.00613083
0.00592717
0.0338099
0.16577
0.369479
0.60831
0.884052
1.21941
1.61975
2.15143
3.02549
4.98619
9.88852
27.3332
92.4504
257.782
0.00789946
0.00729632
0.00704131
0.00681778
0.00661931
0.00644007
0.00627464
0.00611236
0.0211672
0.138459
0.33962
0.577399
0.848058
1.17149
1.55874
2.07276
2.91354
4.81031
9.53161
26.303
87.4281
248.141
0.00814123
0.00754454
0.00728946
0.00706266
0.00685903
0.00667378
0.0065024
0.00633946
0.0122638
0.108461
0.305169
0.543566
0.811256
1.12403
1.49847
1.99472
2.80147
4.62807
9.1638
25.1868
82.5315
237.498
0.0081033
0.00753933
0.00731377
0.00711535
0.00693863
0.00677861
0.00663053
0.00648952
0.00785254
0.0777569
0.265225
0.505527
0.772816
1.07677
1.43901
1.91758
2.68991
4.44061
8.78628
23.9953
77.7471
225.95
0.00833029
0.0077722
0.00754655
0.00734499
0.00716328
0.00699737
0.00684344
0.00669789
0.00664057
0.0497546
0.219483
0.461677
0.731531
1.02918
1.38032
1.84156
2.57949
4.24924
8.4003
22.7419
73.0607
213.61
0.0082926
0.00776373
0.00756482
0.00738928
0.0072325
0.00709021
0.00695827
0.00683278
0.00661257
0.0281261
0.169133
0.410239
0.685719
0.980303
1.32211
1.76677
2.4708
4.05552
8.00728
21.4415
68.4556
200.614
0.00850608
0.00798255
0.00778351
0.00760498
0.00744341
0.00729539
0.00715765
0.00702733
0.00685017
0.0149408
0.117896
0.349783
0.633165
0.92872
1.26376
1.69314
2.36439
3.86119
7.60895
20.1102
63.9173
187.114
0.00847098
0.00797342
0.00779843
0.00764356
0.00750488
0.00737873
0.00726152
0.00714992
0.00702398
0.00901859
0.0721036
0.280391
0.571158
0.872386
1.2042
1.62036
2.26066
3.66814
7.20744
18.7649
59.4326
173.278
0.00867173
0.008179
0.00800386
0.00784616
0.00770293
0.00757127
0.00744841
0.0073319
0.00721363
0.00722035
0.0382596
0.205511
0.496951
0.808526
1.14176
1.54772
2.15976
3.47833
6.80541
17.4225
54.9958
159.285
0.00864155
0.00817176
0.00801805
0.00788165
0.00775922
0.00764758
0.00754363
0.00744446
0.00734516
0.00698366
0.0188234
0.133273
0.409071
0.73362
1.074
1.47402
2.0615
3.2936
6.40611
16.0996
50.609
145.317
0.00883168
0.00836621
0.00821228
0.00807316
0.00794635
0.0078294
0.00771993
0.0076158
0.00751373
0.00721327
0.0105977
0.074591
0.310025
0.643804
0.997599
1.39738
1.96517
3.11549
6.01327
14.8122
46.2867
131.553
0.00880913
0.0083638
0.00822885
0.00810876
0.00800067
0.00790184
0.00780958
0.0077213
0.00763391
0.00745776
0.00807444
0.0367094
0.209201
0.536354
0.908237
1.31515