/*--------------------------------*- C++ -*----------------------------------*\
| =========                 |                                                 |
| \\      /  F ield         | OpenFOAM: The Open Source CFD Toolbox           |
|  \\    /   O peration     | Version:  v1912                                 |
|   \\  /    A nd           | Website:  www.openfoam.com                      |
|    \\/     M anipulation  |                                                 |
\*---------------------------------------------------------------------------*/
FoamFile
{
    version     2.0;
    format      ascii;
    class       volScalarField;
    location    "260";
    object      k;
}
// * * * * * * * * * * * * * * * * * * * * * * * * * * * * * * * * * * * * * //

dimensions      [0 2 -2 0 0 0 0];


internalField   nonuniform List<scalar> 
12441
(
8.16116e-13
4.25133e-11
8.65952e-11
1.687e-10
2.92008e-10
5.39977e-10
8.46537e-10
1.29873e-09
1.98978e-09
2.81103e-09
4.27417e-09
6.68145e-09
1.10572e-08
2.01102e-08
7.43371e-08
9.93962e-07
0.00324308
0.0145508
0.0961483
0.297426
0.921432
1.83882
8.44408e-13
5.48311e-11
1.00795e-10
1.88917e-10
3.19861e-10
5.95923e-10
9.23421e-10
1.41301e-09
2.16454e-09
3.07387e-09
4.73522e-09
7.67158e-09
1.25179e-08
2.25052e-08
7.72273e-08
1.41892e-06
0.00175546
0.0159193
0.0998504
0.309951
0.972818
1.86936
8.3659e-13
5.89633e-11
1.03614e-10
1.92067e-10
3.25407e-10
5.95536e-10
9.40527e-10
1.44471e-09
2.2404e-09
3.20873e-09
4.91754e-09
7.91595e-09
1.23026e-08
2.01604e-08
5.26559e-08
5.77492e-07
0.000757045
0.0129851
0.0580335
0.299526
1.00003
1.90471
8.24122e-13
5.97106e-11
1.0145e-10
1.85818e-10
3.15503e-10
5.77067e-10
9.14878e-10
1.41261e-09
2.18774e-09
3.19132e-09
4.89878e-09
7.95929e-09
1.17885e-08
2.09853e-08
4.42278e-08
2.77191e-07
0.000285157
0.0101518
0.0454834
0.294126
1.03035
1.94051
8.11458e-13
6.35728e-11
1.04745e-10
1.89453e-10
3.20298e-10
5.7345e-10
9.23531e-10
1.42658e-09
2.23802e-09
3.27394e-09
5.00778e-09
8.29403e-09
1.25226e-08
4.54539e-08
1.10775e-07
3.34528e-07
8.21873e-05
0.00797175
0.0425295
0.293757
1.05913
1.97439
7.99336e-13
6.0955e-11
9.97843e-11
1.81217e-10
3.09755e-10
5.57419e-10
9.00908e-10
1.40145e-09
2.19374e-09
3.28058e-09
5.07316e-09
8.69809e-09
1.51732e-08
2.56821e-07
7.60241e-07
1.56015e-06
0.000147657
0.00768685
0.0465254
0.302206
1.08886
2.00674
7.87503e-13
6.64044e-11
1.05337e-10
1.8838e-10
3.18925e-10
5.60424e-10
9.1848e-10
1.42719e-09
2.26611e-09
3.39145e-09
5.23653e-09
1.01076e-08
3.52224e-08
1.41765e-06
5.58788e-06
2.09157e-05
0.00112118
0.0101435
0.0635127
0.327315
1.12578
2.03793
7.76522e-13
6.1094e-11
9.85416e-11
1.79277e-10
3.09872e-10
5.5041e-10
9.0596e-10
1.4199e-09
2.2494e-09
3.45461e-09
5.43108e-09
1.64843e-08
1.72039e-07
1.03429e-05
6.25914e-05
0.000534603
0.00865354
0.0202687
0.107134
0.379343
1.17581
2.06981
7.65883e-13
6.83667e-11
1.0608e-10
1.88784e-10
3.21738e-10
5.57419e-10
9.31162e-10
1.45735e-09
2.35085e-09
3.61605e-09
5.70114e-09
5.47609e-08
1.10893e-06
5.84561e-05
0.000790963
0.00681513
0.0396744
0.0525398
0.194945
0.46935
1.2458
2.10329
7.56075e-13
6.04223e-11
9.73426e-11
1.78734e-10
3.13816e-10
5.51723e-10
9.26342e-10
1.46506e-09
2.35944e-09
3.74879e-09
6.07949e-09
2.83888e-07
7.10133e-06
0.000458905
0.00734114
0.0321271
0.100202
0.118185
0.339917
0.604433
1.3395
2.1402
7.46679e-13
6.9684e-11
1.06516e-10
1.89775e-10
3.27053e-10
5.5961e-10
9.55443e-10
1.51035e-09
2.49012e-09
3.98464e-09
6.56836e-09
1.56728e-06
4.99279e-05
0.00294809
0.0303877
0.0914439
0.209454
0.23133
0.54587
0.786445
1.4591
2.18091
7.37795e-13
5.94511e-11
9.63429e-11
1.79145e-10
3.20372e-10
5.58639e-10
9.58016e-10
1.53255e-09
2.53106e-09
4.23237e-09
7.41748e-09
8.19687e-06
0.000387164
0.0137295
0.0758903
0.188466
0.370478
0.400402
0.80558
1.00881
1.60202
2.22649
7.29469e-13
7.05852e-11
1.0693e-10
1.9117e-10
3.34412e-10
5.66757e-10
9.91425e-10
1.58789e-09
2.71058e-09
4.63018e-09
8.88685e-09
3.97497e-05
0.00260047
0.0450091
0.163131
0.336096
0.587478
0.625952
1.10102
1.25983
1.76467
2.27629
7.2128e-13
5.82032e-11
9.5352e-11
1.80047e-10
3.28765e-10
5.69654e-10
1.00021e-09
1.62549e-09
2.80577e-09
5.14814e-09
1.28461e-08
0.000185368
0.0119981
0.104875
0.289948
0.526961
0.85075
0.896787
1.40871
1.52339
1.94008
2.33054
7.13907e-13
7.11965e-11
1.07141e-10
1.92767e-10
3.43199e-10
5.76818e-10
1.03685e-09
1.69384e-09
3.08036e-09
6.02307e-09
2.72761e-08
0.000848617
0.0380161
0.199469
0.453148
0.750647
1.14263
1.19108
1.70437
1.78529
2.12284
2.38783
7.06249e-13
5.7019e-11
9.46341e-11
1.81567e-10
3.3884e-10
5.84101e-10
1.05227e-09
1.75167e-09
3.29715e-09
7.46844e-09
1.15747e-07
0.00381538
0.0846739
0.324644
0.643743
0.993291
1.44137
1.48095
1.96931
2.03265
2.3059
2.448
6.99743e-13
7.16465e-11
1.07622e-10
1.94987e-10
3.53913e-10
5.91197e-10
1.09454e-09
1.84302e-09
3.80193e-09
1.02004e-08
7.41714e-07
0.0138207
0.15757
0.473598
0.847833
1.24042
1.72334
1.73974
2.19232
2.25848
2.48551
2.50935
6.92398e-13
5.58607e-11
9.40709e-11
1.83563e-10
3.50533e-10
6.01818e-10
1.11657e-09
1.9302e-09
4.34436e-09
1.55628e-08
4.85647e-06
0.0353109
0.253932
0.637951
1.05569
1.47654
1.9662
1.94787
2.37165
2.45794
2.65692
2.5718
6.86639e-13
7.19583e-11
1.08112e-10
1.97389e-10
3.65799e-10
6.0789e-10
1.16468e-09
2.05773e-09
5.48917e-09
2.72355e-08
4.32e-05
0.0739343
0.369758
0.806336
1.25418
1.68749
2.1527
2.09779
2.51169
2.63126
2.81929
2.63377
6.79564e-13
5.47827e-11
9.35486e-11
1.85672e-10
3.63169e-10
6.21738e-10
1.19472e-09
2.18998e-09
6.96484e-09
5.70374e-08
0.000638063
0.129637
0.497175
0.971618
1.43525
1.86105
2.27356
2.19393
2.62143
2.7787
2.97049
2.69552
6.74552e-13
7.21713e-11
1.08558e-10
1.99752e-10
3.78616e-10
6.27256e-10
1.25235e-09
2.37776e-09
9.85805e-09
1.82403e-07
0.0043179
0.20268
0.628261
1.1256
1.58899
1.98983
2.3296
2.25016
2.70984
2.90361
3.1122
2.75577
6.67596e-13
5.36591e-11
9.28659e-11
1.87612e-10
3.76465e-10
6.43777e-10
1.29363e-09
2.58509e-09
1.37727e-08
7.51092e-07
0.0145308
0.289295
0.756287
1.26448
1.71145
2.07147
2.33134
2.28329
2.78495
3.00784
3.24443
2.8152
6.63234e-13
7.2321e-11
1.08783e-10
2.01798e-10
3.91836e-10
6.48556e-10
1.36583e-09
2.87627e-09
2.10603e-08
2.62805e-06
0.0343852
0.383993
0.876365
1.38348
1.79893
2.10981
2.29643
2.30759
2.85179
3.09544
3.37096
2.87289
6.56439e-13
5.26886e-11
9.20959e-11
1.893e-10
3.9011e-10
6.67575e-10
1.42517e-09
3.20888e-09
3.0908e-08
8.006e-06
0.0662374
0.481595
0.985411
1.48147
1.85401
2.11316
2.24446
2.33113
2.91362
3.16875
3.49364
2.92995
6.52787e-13
7.24838e-11
1.08901e-10
2.03564e-10
4.05537e-10
6.72288e-10
1.52344e-09
3.67112e-09
4.87604e-08
2.37503e-05
0.109726
0.577104
1.08176
1.55713
1.8803
2.09295
2.19178
2.35656
2.9716
3.23217
3.61794
2.98579
6.45917e-13
5.19502e-11
9.13073e-11
1.90785e-10
4.04196e-10
6.93557e-10
1.61404e-09
4.21163e-09
7.36765e-08
0.00011366
0.163251
0.667603
1.16471
1.61246
1.88541
2.06053
2.14815
2.38316
3.02636
3.2885
3.74702
3.04189
6.4283e-13
7.26356e-11
1.08879e-10
2.04999e-10
4.19514e-10
6.98291e-10
1.75744e-09
4.96374e-09
1.2711e-07
0.000894414
0.223413
0.750843
1.23432
1.64938
1.87588
2.02543
2.11685
2.40932
3.07762
3.34223
3.88725
3.09787
6.3598e-13
5.13996e-11
9.04122e-11
1.91937e-10
4.18505e-10
7.21631e-10
1.90345e-09
5.86481e-09
2.72788e-07
0.00370631
0.28736
0.826104
1.29119
1.67197
1.85906
1.99369
2.09695
2.43353
3.12526
3.39578
4.04193
3.15544
6.3353e-13
7.2803e-11
1.08686e-10
2.06057e-10
4.33852e-10
7.27257e-10
2.12711e-09
7.11555e-09
7.17989e-07
0.00949145
0.352132
0.892927
1.3364
1.68345
1.83953
1.96829
2.08583
2.45495
3.16873
3.45246
4.21661
3.21429
6.26526e-13
5.09455e-11
8.93463e-11
1.92711e-10
4.33142e-10
7.52593e-10
2.36972e-09
8.63599e-09
1.71741e-06
0.0186831
0.416128
0.951543
1.3714
1.68774
1.82118
1.94979
2.08079
2.47321
3.20778
3.51299
4.41275
3.27612
6.2454e-13
7.29468e-11
1.08381e-10
2.06764e-10
4.48497e-10
7.60011e-10
2.73011e-09
1.07537e-08
3.75033e-06
0.0324059
0.477869
1.00218
1.39782
1.68733
1.80541
1.93755
2.07968
2.48838
3.2419
3.57851
4.63333
3.34051
6.17549e-13
5.05428e-11
8.80811e-11
1.93137e-10
4.48158e-10
7.87046e-10
3.13434e-09
1.33621e-08
7.36052e-06
0.0512116
0.53671
1.04546
1.4173
1.68477
1.79327
1.93037
2.08105
2.50068
3.27089
3.64767
4.87658
3.40892
6.16146e-13
7.3108e-11
1.07943e-10
2.0728e-10
4.63964e-10
7.9697e-10
3.71839e-09
1.6905e-08
1.35761e-05
0.0755911
0.591939
1.08196
1.43141
1.68125
1.78442
1.92709
2.084
2.5105
3.29432
3.7199
5.14219
3.48066
6.08855e-13
5.00551e-11
8.65449e-11
1.93335e-10
4.64082e-10
8.2634e-10
4.37908e-09
2.1223e-08
2.36178e-05
0.105635
0.643422
1.11252
1.44151
1.67802
1.77878
1.92666
2.08801
2.51817
3.31203
3.79296
5.42541
3.55685
6.07889e-13
7.2224e-11
1.06641e-10
2.071e-10
4.80085e-10
8.39304e-10
5.30751e-09
2.70619e-08
4.06754e-05
0.141247
0.691013
1.13786
1.44877
1.67536
1.77562
1.92832
2.09285
2.52412
3.32369
3.86612
5.72389
3.63649
6.00241e-13
4.90959e-11
8.40532e-11
1.92569e-10
4.80401e-10
8.69897e-10
6.3436e-09
3.4208e-08
9.30956e-05
0.182502
0.735034
1.15887
1.45411
1.6738
1.77466
1.93148
2.09844
2.52869
3.32924
3.93783
6.03165
3.72039
5.99452e-13
7.0227e-11
1.03969e-10
2.05691e-10
4.96429e-10
8.84928e-10
7.75289e-09
4.72287e-08
0.000897239
0.229638
0.775775
1.17629
1.45824
1.67323
1.77529
1.93578
2.10482
2.53226
3.32845
4.00859
6.34623
3.80731
5.91173e-13
4.86742e-11
8.15439e-11
1.91417e-10
4.97569e-10
9.18506e-10
9.28561e-09
1.33562e-07
0.00831484
0.283328
0.81381
1.19091
1.4617
1.67393
1.77737
1.94097
2.1121
2.53518
3.32145
4.07841
6.66228
3.8979
5.89968e-13
5.51898e-11
8.9635e-11
1.96026e-10
5.0871e-10
9.33083e-10
1.13078e-08
9.38158e-07
0.0331266
0.343855
0.84951
1.20334
1.46487
1.6757
1.78048
1.94694
2.12043
2.53784
3.30826
4.14927
6.97876
3.99084
5.80475e-13
4.90522e-11
7.64185e-11
1.85001e-10
5.12075e-10
9.89066e-10
1.35494e-08
6.23233e-06
0.0776613
0.410288
0.883278
1.21423
1.46801
1.67882
1.78468
1.95366
2.12999
2.54055
3.28932
4.22203
7.29136
4.08671
5.78044e-13
1.03429e-11
2.38152e-11
1.37007e-10
4.88235e-10
1.00288e-09
1.67621e-08
8.28409e-05
0.138621
0.480602
0.915138
1.22405
1.47123
1.68313
1.78969
1.96121
2.14098
2.54363
3.26512
4.29805
7.5991
4.18422
5.67071e-13
3.0391e-11
4.7097e-11
1.3843e-10
4.84133e-10
1.2096e-09
2.62667e-08
0.00145315
0.211457
0.552617
0.945041
1.2333
1.47455
1.68901
1.79578
1.96968
2.15355
2.54727
3.23668
4.37489
7.89389
4.28429
5.60809e-13
5.98045e-12
2.03462e-12
1.03345e-10
4.63809e-10
1.82011e-09
1.18596e-07
0.00777236
0.29233
0.624269
0.972577
1.24232
1.47788
1.69631
1.80276
1.9793
2.16787
2.55161
3.20511
4.44591
8.16169
4.38733
5.31499e-13
1.02099e-10
1.44683e-10
2.09224e-10
5.38119e-10
5.86688e-09
5.07207e-07
0.0204413
0.3779
0.694701
0.99809
1.25178
1.48112
1.70537
1.81088
1.99017
2.18387
2.55592
3.17185
4.4948
8.34493
4.5037
3.22922
4.05456
3.42062
1.87064
1.61608
1.48251
1.46427
1.41371
1.36911
1.38475
1.63658
1.56611
1.55664
1.66199
1.85934
2.10243
2.33736
2.51266
2.54598
2.36901
2.22588
2.21783
2.24995
2.28507
2.32826
2.3655
2.39307
2.4142
2.42486
2.42189
2.42319
2.42267
2.42514
2.42379
2.42596
3.2207
4.09169
3.37663
1.85571
1.62399
1.48675
1.48414
1.43295
1.38167
1.39565
1.6252
1.55086
1.54234
1.6456
1.84198
2.08664
2.33304
2.52655
2.57125
2.385
2.22833
2.21621
2.2478
2.28239
2.32543
2.36257
2.39025
2.41159
2.42276
2.41954
2.42102
2.42037
2.42309
2.42163
2.42406
3.20432
4.12583
3.2987
1.83124
1.65119
1.50333
1.52739
1.47223
1.40943
1.41917
1.57542
1.49214
1.49369
1.5902
1.75712
1.96239
2.18642
2.38772
2.47383
2.33623
2.20895
2.20519
2.2398
2.27509
2.31842
2.35555
2.38363
2.40555
2.41794
2.41424
2.41611
2.41522
2.41848
2.41684
2.41985
3.17888
4.15597
3.19719
1.81782
1.70139
1.53907
1.59053
1.52236
1.45054
1.45592
1.52369
1.42769
1.43855
1.53581
1.67632
1.82707
1.99955
2.18455
2.30967
2.24764
2.1739
2.18622
2.22635
2.26325
2.30728
2.3445
2.37328
2.39611
2.41042
2.406
2.40847
2.40721
2.41132
2.40942
2.41333
3.14438
4.1736
3.07733
1.81351
1.76404
1.58662
1.6623
1.57495
1.49739
1.4983
1.48606
1.37725
1.39881
1.50608
1.63051
1.7277
1.83335
1.97815
2.12374
2.14013
2.12876
2.16089
2.20805
2.2472
2.29234
2.32975
2.35948
2.38355
2.40039
2.395
2.39824
2.39648
2.40173
2.3995
2.40462
3.09949
4.17136
2.94306
1.81157
1.83009
1.63836
1.73339
1.62462
1.54335
1.53798
1.46232
1.3437
1.37637
1.49676
1.61624
1.67284
1.71364
1.80494
1.94892
2.03069
2.07876
2.13098
2.18573
2.22751
2.2741
2.3118
2.34267
2.36822
2.38815
2.38151
2.38568
2.38327
2.38991
2.38727
2.3939
3.04481
4.14409
2.79916
1.80876
1.89616
1.69114
1.79939
1.66937
1.58508
1.57026
1.44677
1.32161
1.36242
1.4921
1.61458
1.6486
1.63994
1.67866
1.80463
1.93138
2.02822
2.0983
2.16036
2.20485
2.2532
2.29123
2.32338
2.35058
2.37405
2.36586
2.37106
2.36786
2.37613
2.37299
2.38138
2.97942
4.08739
2.65157
1.80631
1.96333
1.74552
1.86012
1.70976
1.62221
1.59425
1.43471
1.30549
1.3489
1.48043
1.60939
1.63674
1.59853
1.59598
1.69714
1.84865
1.98034
2.0645
2.13297
2.18001
2.23031
2.26872
2.3022
2.33114
2.35848
2.34843
2.35471
2.35059
2.36066
2.35694
2.3673
2.9048
3.99925
2.50652
1.8081
2.03479
1.80413
1.91789
1.74785
1.65615
1.6116
1.42455
1.29274
1.33278
1.45878
1.59414
1.62542
1.57483
1.54566
1.6233
1.78412
1.93706
2.03096
2.10453
2.15378
2.20614
2.24491
2.27972
2.31041
2.34185
2.32962
2.33698
2.33179
2.34381
2.33941
2.35192
2.82068
3.87823
2.37014
1.81891
2.1143
1.8704
1.97629
1.78656
1.68938
1.62529
1.41698
1.28311
1.31474
1.42974
1.56919
1.60985
1.55872
1.51587
1.57546
1.73609
1.89925
1.99875
2.0759
2.12689
2.18134
2.22043
2.25649
2.28886
2.32453
2.30981
2.31821
2.31181
2.32589
2.32071
2.33552
2.72935
3.72521
2.24803
1.84342
2.20549
1.94801
2.0395
1.82929
1.72486
1.63888
1.41395
1.27751
1.29701
1.39799
1.53838
1.58988
1.54501
1.49779
1.5456
1.70145
1.86695
1.96858
2.04782
2.1
2.15649
2.19584
2.23302
2.26695
2.30688
2.28938
2.29873
2.29099
2.30719
2.30113
2.31834
2.63109
3.54159
2.14557
1.88579
2.3118
2.0406
2.11199
1.87984
1.76594
1.65621
1.41789
1.27728
1.28179
1.36764
1.50591
1.56717
1.53162
1.48584
1.5272
1.6768
1.83975
1.94088
2.02083
2.07368
2.1321
2.17159
2.20974
2.24506
2.28921
2.26864
2.27885
2.26965
2.28801
2.28095
2.30063
2.52877
3.33132
2.06793
1.94956
2.43665
2.15179
2.19839
1.94223
1.81617
1.68119
1.4314
1.28391
1.27088
1.34142
1.47523
1.5439
1.51826
1.47703
1.51576
1.65926
1.81696
1.91579
1.99531
2.04834
2.10853
2.14805
2.18697
2.22349
2.27178
2.24791
2.25884
2.24807
2.26858
2.26044
2.28262
2.42304
3.09929
2.02031
2.0377
2.58368
2.28522
2.3034
2.02061
1.87933
1.71777
1.45715
1.29906
1.26568
1.32064
1.44835
1.52176
1.50522
1.46982
1.50835
1.64657
1.79787
1.89327
1.97149
2.02428
2.08605
2.12548
2.16498
2.20249
2.25478
2.22742
2.23894
2.22651
2.24914
2.23983
2.2645
2.31693
2.8532
2.00728
2.15282
2.75694
2.44484
2.4317
2.11916
1.95925
1.76976
1.49781
1.32468
1.26752
1.30583
1.42625
1.50198
1.49307
1.46358
1.50322
1.63712
1.78175
1.87318
1.94944
2.00168
2.06484
2.10405
2.14393
2.18224
2.23835
2.20737
2.21933
2.20517
2.22988
2.2193
2.24645
2.21112
2.60215
2.03237
2.29746
2.96111
2.63542
2.58813
2.24212
2.05983
1.8409
1.55618
1.36305
1.27793
1.29723
1.40918
1.48522
1.48225
1.45806
1.49933
1.62976
1.76798
1.85525
1.92916
1.98062
2.04497
2.08384
2.12392
2.16285
2.2226
2.18791
2.20018
2.18424
2.21095
2.19904
2.2286
2.10827
2.35788
2.09803
2.47452
3.20166
2.86307
2.7781
2.39424
2.18514
1.93488
1.63537
1.41697
1.29896
1.29534
1.39716
1.47192
1.47321
1.45326
1.49606
1.62372
1.75604
1.83922
1.91058
1.96109
2.02646
2.06489
2.10501
2.14438
2.20758
2.16915
2.1816
2.16383
2.19248
2.17917
2.21108
2.00856
2.13394
2.2071
2.68765
3.48483
3.1355
3.00797
2.58122
2.33983
2.05578
1.73917
1.4899
1.33337
1.30119
1.39035
1.46238
1.46629
1.44925
1.49302
1.61843
1.74548
1.82483
1.89356
1.94305
2.00928
2.04718
2.08718
2.12684
2.19332
2.15114
2.16366
2.14406
2.17455
2.15979
2.19398
1.91365
1.94376
2.36435
2.94127
3.81736
3.46166
3.28505
2.81007
2.52945
2.20849
1.87265
1.58638
1.38497
1.31672
1.38933
1.45711
1.46203
1.44635
1.49002
1.61349
1.73595
1.8118
1.87796
1.92641
1.99335
2.03065
2.07041
2.11024
2.17979
2.13394
2.14643
2.12498
2.15722
2.14098
2.17735
1.82293
1.79713
2.57779
3.24043
4.20583
3.85064
3.61696
3.08885
2.76048
2.39906
2.04252
1.71243
1.45897
1.34507
1.39542
1.45695
1.4612
1.44504
1.48705
1.60859
1.72716
1.79992
1.86363
1.91107
1.97858
2.01523
2.05463
2.09453
2.16698
2.11754
2.12991
2.10664
2.14053
2.12279
2.16124
1.73706
1.69782
2.85796
3.59051
4.65594
4.30997
4.01047
3.42552
3.03989
2.63441
2.25712
1.87603
1.56255
1.39101
1.41095
1.4634
1.46506
1.4463
1.4844
1.60353
1.71889
1.78899
1.85044
1.8969
1.96488
2.00082
2.03979
2.07966
2.15485
2.10193
2.11411
2.08904
2.12448
2.10523
2.14567
1.6554
1.64466
3.21556
3.99753
5.17233
4.84453
4.47042
3.8265
3.37403
2.92131
2.52524
2.08695
1.70539
1.46155
1.43964
1.47876
1.47545
1.45156
1.4827
1.59822
1.71098
1.77886
1.83826
1.88381
1.95214
1.98736
2.02581
2.06558
2.14334
2.08708
2.09901
2.07217
2.10907
2.08831
2.13063
1.57855
1.63397
3.65761
4.46931
5.75951
5.45698
4.99953
4.29544
3.76745
3.26483
2.85366
2.35521
1.89935
1.56682
1.48711
1.50645
1.495
1.46299
1.4832
1.59277
1.70333
1.76943
1.82701
1.87172
1.9403
1.97476
2.01263
2.05223
2.13241
2.07296
2.08459
2.05602
2.09428
2.072
2.11612
1.50623
1.66211
4.18502
5.01668
6.4231
6.14924
5.59912
4.83285
4.22184
3.66654
3.24417
2.68777
2.15598
1.72051
1.56141
1.5511
1.52704
1.48325
1.48771
1.5875
1.6959
1.76064
1.81663
1.86056
1.92927
1.96295
2.00018
2.03956
2.122
2.05951
2.07078
2.04053
2.08007
2.05629
2.10211
1.43902
1.72614
4.79168
5.65344
7.1699
6.92275
6.26907
5.43602
4.73517
4.12324
3.69127
3.08442
2.48142
1.93804
1.67374
1.61873
1.57552
1.51554
1.49872
1.58318
1.68876
1.7525
1.8071
1.85031
1.91902
1.95189
1.98841
2.0275
2.11205
2.04668
2.05755
2.02566
2.06638
2.04112
2.08855
1.37706
1.82453
5.46552
6.3936
8.00538
7.77573
7.00581
6.09776
5.30048
4.62597
4.18174
3.53518
2.87073
2.22992
1.83779
1.71664
1.64461
1.56295
1.5191
1.58096
1.68211
1.74506
1.79844
1.84096
1.90952
1.94153
1.97728
2.01601
2.10251
2.0344
2.04482
2.01133
2.05316
2.02643
2.0754
1.321
1.95646
6.19053
7.24643
8.9292
8.69803
7.79818
6.80405
5.90425
5.1596
4.69586
4.02083
3.30635
2.59223
2.06571
1.85288
1.73845
1.62826
1.55183
1.58258
1.6763
1.73845
1.79073
1.83255
1.90077
1.93185
1.96674
2.00503
2.09332
2.02262
2.03252
1.99749
2.04034
2.01216
2.06258
1.27161
2.12244
6.95195
8.21229
9.93097
9.66664
8.62378
7.53191
6.52539
5.70301
5.20942
4.51583
3.76179
3.0028
2.35903
2.03366
1.86015
1.71317
1.59931
1.59022
1.67193
1.73291
1.78407
1.82514
1.89278
1.92285
1.95677
1.99452
2.08442
2.01124
2.02059
1.98403
2.02784
1.99822
2.05005
1.22983
2.32384
7.74125
9.28141
10.9883
10.6448
9.44797
8.24929
7.13554
6.23029
5.69606
4.99215
4.20733
3.42808
2.70123
2.25879
2.01053
1.81794
1.6629
1.60639
1.66984
1.72873
1.77861
1.81882
1.88558
1.91451
1.94734
1.98444
2.07576
2.00021
2.00894
1.97088
2.01559
1.98453
2.0377
1.19736
2.56389
8.55858
10.4338
12.0666
11.5848
10.2265
8.91742
7.70135
6.71277
6.12934
5.42214
4.61448
3.83299
3.06048
2.51685
2.18571
1.94028
1.7422
1.63344
1.67117
1.72633
1.77455
1.81367
1.87922
1.90684
1.93842
1.97473
2.06728
1.98943
1.99749
1.95794
2.00349
1.971
2.02549
1.17623
2.8471
9.40856
11.6362
13.1184
12.4314
10.9099
9.49446
8.18757
7.12146
6.48454
5.78088
4.9585
4.18743
3.40088
2.78555
2.37565
2.07477
1.8346
1.67319
1.67727
1.7262
1.7721
1.8098
1.87373
1.89984
1.92996
1.96535
2.05892
1.97881
1.98615
1.9451
1.99148
1.95756
2.01332
1.17043
3.17984
10.2929
12.8356
14.0834
13.1265
11.4486
9.9398
8.5607
7.42966
6.7403
6.04747
5.21972
4.46815
3.69151
3.03745
2.56454
2.21232
1.93475
1.72594
1.68966
1.72889
1.77144
1.80724
1.86913
1.89346
1.92193
1.95623
2.05061
1.96827
1.97484
1.93229
1.97948
1.94412
2.00113
1.1851
3.56822
11.1997
13.9565
14.8909
13.6144
11.7985
10.2183
8.79234
7.61563
6.8805
6.20661
5.38446
4.65978
3.9108
3.24791
2.73449
2.34149
2.03496
1.79002
1.70971
1.73498
1.77273
1.80601
1.86541
1.88767
1.91424
1.94729
2.0423
1.95772
1.9635
1.91942
1.96743
1.93061
1.98886
1.22845
4.01795
12.0969
14.9086
15.4694
13.8498
11.9267
10.305
8.86294
7.66518
6.89611
6.24975
5.4457
4.75448
4.04655
3.39939
2.86936
2.45037
2.12603
1.86107
1.73829
1.74493
1.77602
1.80601
1.86251
1.88235
1.9068
1.93847
2.03392
1.94706
1.95206
1.90642
1.95529
1.91701
1.97648
1.30893
4.53098
12.9333
15.6057
15.761
13.8061
11.8174
10.189
8.76442
7.57391
6.78679
6.17634
5.4037
4.75251
4.09582
3.48333
2.95833
2.52939
2.19928
1.93257
1.77523
1.75896
1.7812
1.80701
1.86028
1.87738
1.89949
1.92968
2.02541
1.93623
1.94048
1.89325
1.94305
1.90328
1.96396
1.4355
5.10621
13.6511
15.9871
15.7338
13.4816
11.4745
9.87571
8.50198
7.34801
6.56128
5.99394
5.26581
4.66089
4.0629
3.4988
2.99642
2.57251
2.248
1.99674
1.81876
1.77685
1.78795
1.80863
1.85853
1.87256
1.89217
1.92084
2.01673
1.92516
1.92876
1.8799
1.93071
1.88945
1.95133
1.61139
5.73405
14.2005
16.0303
15.3877
12.8984
10.9211
9.38572
8.09298
7.00334
6.23629
5.71755
5.04557
4.49282
3.9582
3.45128
2.98447
2.57813
2.26881
2.04663
1.86529
1.79774
1.79566
1.81036
1.85699
1.86767
1.88469
1.91187
2.00784
1.91383
1.91692
1.86641
1.91832
1.87558
1.93862
1.8349
6.39511
14.5475
15.7481
14.7508
12.0978
10.1943
8.75111
7.56395
6.56255
5.8337
5.36714
4.7607
4.26474
3.79527
3.34988
2.9271
2.54801
2.26146
2.07714
1.90972
1.8199
1.80346
1.81155
1.8553
1.86247
1.87692
1.90274
1.99875
1.90225
1.90502
1.85286
1.90598
1.86175
1.92592
2.09436
7.04667
14.6692
15.1744
13.8675
11.1295
9.33773
8.00895
6.94546
6.05109
5.37712
4.96485
4.4306
3.99462
3.58937
3.20603
2.83182
2.48684
2.2286
2.08622
1.94644
1.84086
1.8102
1.81145
1.85312
1.85673
1.86876
1.89344
1.98948
1.89048
1.89318
1.83939
1.8938
1.84811
1.91334
2.3734
7.6233
14.5469
14.3485
12.7858
10.0423
8.39363
7.19538
6.26754
5.49328
4.88839
4.53173
4.07356
3.69882
3.35471
3.03106
2.70685
2.40051
2.17457
2.07426
1.97051
1.8576
1.81459
1.80939
1.85009
1.85026
1.86018
1.88401
1.98009
1.87862
1.88154
1.82616
1.88195
1.83484
1.90103
2.64876
8.03393
14.1578
13.3042
11.5467
8.87592
7.39665
6.34065
5.55557
4.90928
4.38515
4.08555
3.70479
3.39099
3.1038
2.8357
2.56074
2.29568
2.10481
2.04402
1.97865
1.86717
1.81541
1.80478
1.84595
1.84294
1.8512
1.87455
1.97071
1.86683
1.87029
1.81339
1.87061
1.82211
1.88917
2.90119
8.18596
13.4759
12.0676
10.1795
7.6577
6.37091
5.46718
4.82884
4.31369
3.87973
3.6394
3.33523
3.08058
2.8461
2.62874
2.40087
2.17852
2.02475
1.99929
1.9697
1.8672
1.81171
1.79729
1.84052
1.8348
1.84195
1.86522
1.96149
1.85532
1.85964
1.80131
1.85998
1.81014
1.87793
3.09991
7.98088
12.467
10.6607
8.70718
6.40698
5.33273
4.59184
4.10154
3.71677
3.38049
3.20243
2.97208
2.77417
2.58905
2.41748
2.23377
2.05478
1.93971
1.94478
1.94466
1.85655
1.803
1.7869
1.8338
1.82593
1.83262
1.85623
1.9526
1.84431
1.84982
1.79015
1.85026
1.79913
1.86752
3.23194
7.35312
11.098
9.10016
7.14891
5.13318
4.28638
3.72217
3.37824
3.12093
2.88845
2.77636
2.61594
2.47322
2.33612
2.20569
2.06327
1.92824
1.85395
1.8851
1.90621
1.83528
1.78935
1.77391
1.82592
1.81656
1.82347
1.8478
1.94427
1.83404
1.84102
1.78012
1.84163
1.78925
1.85809
4.28068e-13
9.36622e-11
1.69937e-10
3.22036e-10
7.68089e-10
2.73061e-08
1.47263e-06
0.0398999
0.444579
0.745419
1.01535
1.25923
1.48337
1.71344
1.81778
1.99963
2.1977
2.55748
3.14636
4.50648
8.3393
4.64806
4.30875e-13
4.29212e-11
4.13447e-11
3.33789e-10
1.01467e-09
6.28531e-08
3.89563e-06
0.0552104
0.485094
0.774772
1.02402
1.2631
1.4842
1.71875
1.82277
2.00631
2.20834
2.55838
3.13451
4.50098
8.29891
4.80236
4.48009e-13
8.54515e-11
1.35484e-10
3.90749e-10
1.33991e-09
1.10827e-07
1.09624e-05
0.0692804
0.518643
0.798085
1.03012
1.26577
1.48444
1.72341
1.82764
2.01281
2.21954
2.55944
3.12998
4.48119
8.22677
4.96879
4.54378e-13
4.00194e-11
2.18668e-11
3.52159e-10
1.70289e-09
1.71793e-07
4.40926e-05
0.0815775
0.54574
0.816261
1.03468
1.26757
1.48435
1.72762
1.8326
2.01895
2.23089
2.56072
3.1324
4.44815
8.12906
5.1453
4.74498e-13
8.24396e-11
1.25054e-10
3.82565e-10
2.20152e-09
2.2651e-07
0.000269647
0.0912234
0.567088
0.830096
1.03844
1.26876
1.4842
1.73128
1.83747
2.02462
2.24196
2.5622
3.14088
4.40434
8.01326
5.33767
4.80323e-13
3.86637e-11
1.79322e-11
3.19586e-10
2.76107e-09
2.77651e-07
0.000452318
0.0973797
0.583333
0.840361
1.04199
1.26965
1.48418
1.73463
1.84247
2.02967
2.2523
2.56379
3.15436
4.35169
7.8817
5.55238
5.02194e-13
7.98069e-11
1.18266e-10
3.39182e-10
3.49595e-09
3.0217e-07
0.000636226
0.0999185
0.595086
0.847663
1.04565
1.27041
1.48448
1.73757
1.84741
2.0341
2.2615
2.56539
3.17137
4.29316
7.73905
5.79259
5.07226e-13
3.77927e-11
1.57797e-11
2.73573e-10
4.23025e-09
2.96684e-07
0.000582306
0.0993298
0.602786
0.852538
1.04969
1.27126
1.4852
1.74037
1.85253
2.03787
2.26919
2.56682
3.19057
4.2307
7.58612
6.06117
5.30681e-13
7.74865e-11
1.13447e-10
2.92792e-10
5.06421e-09
2.56007e-07
0.00063111
0.0963847
0.606762
0.855331
1.05412
1.27232
1.4864
1.74291
1.85763
2.0411
2.27516
2.56792
3.21037
4.16712
7.42687
6.35756
5.33757e-13
3.72469e-11
1.47356e-11
2.32904e-10
5.69836e-09
2.05719e-07
0.00074036
0.0916873
0.607133
0.856302
1.05894
1.27369
1.48809
1.74543
1.86298
2.04387
2.27931
2.56846
3.22957
4.10396
7.26122
6.6806
5.57954e-13
7.51737e-11
1.09517e-10
2.55528e-10
6.27073e-09
1.54485e-07
0.000821052
0.0855448
0.603884
0.855507
1.064
1.2754
1.49027
1.74778
1.86836
2.04636
2.28169
2.56828
3.24688
4.04357
7.0926
7.02484
5.59208e-13
3.69593e-11
1.40927e-11
2.01699e-10
6.46611e-09
1.12586e-07
0.000863025
0.0782209
0.596787
0.852913
1.06912
1.27751
1.49288
1.75012
1.87399
2.04872
2.2825
2.5672
3.2615
3.9869
6.92031
7.38417
5.84037e-13
7.29869e-11
1.06794e-10
2.27936e-10
6.52575e-09
7.97826e-08
0.000843826
0.0699163
0.585503
0.848285
1.07398
1.27996
1.49588
1.75227
1.87964
2.05113
2.28204
2.56515
3.27259
3.93574
6.74759
7.74849
5.82729e-13
3.70344e-11
1.41333e-11
1.78877e-10
6.20185e-09
5.53075e-08
0.00070376
0.0608457
0.569523
0.841289
1.07826
1.28277
1.49919
1.75435
1.88549
2.0537
2.28065
2.56205
3.27988
3.89044
6.5735
8.10826
6.07408e-13
7.07573e-11
1.05018e-10
2.08277e-10
5.80307e-09
3.76028e-08
0.000580356
0.0514774
0.548312
0.831387
1.08146
1.28581
1.50277
1.75612
1.89129
2.05653
2.27872
2.55798
3.28296
3.85227
6.40138
8.45112
6.04029e-13
3.75047e-11
1.46882e-11
1.62374e-10
5.15352e-09
2.51014e-08
0.000410781
0.041956
0.521302
0.81793
1.08304
1.28903
1.50658
1.75769
1.89714
2.05966
2.27658
2.55302
3.28203
3.82099
6.23028
8.76712
6.28391e-13
6.8452e-11
1.04243e-10
1.94245e-10
4.54469e-09
1.67916e-08
0.000287796
0.0329424
0.488122
0.800047
1.08224
1.2922
1.51058
1.75879
1.90278
2.06312
2.27453
2.54734
3.27709
3.79742
6.06371
9.04479
6.22736e-13
3.81171e-11
1.59542e-11
1.50452e-10
3.83337e-09
1.15274e-08
0.000186802
0.0244822
0.448659
0.776769
1.0782
1.29508
1.51475
1.75954
1.90828
2.06684
2.27281
2.54112
3.26865
3.7808
5.90081
9.27673
6.45862e-13
6.58421e-11
1.03287e-10
1.83862e-10
3.24255e-09
8.26678e-09
0.000123282
0.0173875
0.403345
0.74696
1.06974
1.29719
1.51905
1.7597
1.91334
2.07079
2.27156
2.53461
3.25695
3.7715
5.74521
9.4548
6.39028e-13
3.85206e-11
1.74421e-11
1.41242e-10
2.64421e-09
6.10673e-09
7.61824e-05
0.0113809
0.353188
0.709571
1.05552
1.29792
1.5234
1.75939
1.91802
2.07483
2.27087
2.52796
3.24265
3.76827
5.59607
9.57578
6.61041e-13
6.30397e-11
1.02218e-10
1.75399e-10
2.19001e-09
4.67375e-09
4.79381e-05
0.00718122
0.299904
0.663711
1.03375
1.29625
1.52765
1.75843
1.922
2.07889
2.27079
2.52139
3.22604
3.7711
5.457
9.63596
6.53064e-13
3.87215e-11
1.95393e-11
1.33969e-10
1.76135e-09
3.61449e-09
2.81642e-05
0.00391194
0.245708
0.6091
1.00257
1.29082
1.53147
1.75697
1.92535
2.08278
2.2713
2.51501
3.20778
3.77831
5.32705
9.63678
6.73745e-13
6.00345e-11
1.00968e-10
1.68506e-10
1.46065e-09
2.87637e-09
1.6663e-05
0.0019792
0.193132
0.546187
0.959858
1.27961
1.53429
1.75482
1.92776
2.0864
2.27236
2.50895
3.18804
3.78956
5.20963
9.57878
6.65198e-13
3.86616e-11
2.20571e-11
1.28172e-10
1.18319e-09
2.2982e-09
9.21356e-06
0.000909488
0.144818
0.476545
0.903989
1.26001
1.53504
1.75211
1.92934
2.08955
2.27391
2.50324
3.16735
3.80287
5.10353
9.46727
6.8465e-13
5.69051e-11
9.944e-11
1.62413e-10
1.00469e-09
1.90013e-09
5.0789e-06
0.000402991
0.102733
0.402634
0.833947
1.22855
1.53202
1.74842
1.9298
2.09212
2.2759
2.49796
3.14571
3.8177
5.01177
9.30612
6.75657e-13
3.83517e-11
2.53839e-11
1.23688e-10
8.34244e-10
1.57745e-09
2.62853e-06
0.000175858
0.0685169
0.32782
0.750386
1.1815
1.52249
1.74345
1.92926
2.09392
2.27828
2.49309
3.12347
3.83193
4.93271
9.10333
6.93805e-13
5.36633e-11
9.77424e-11
1.5721e-10
7.35924e-10
1.36439e-09
1.35172e-06
7.64984e-05
0.0421751
0.255664
0.655393
1.11522
1.50241
1.73586
1.92729
2.09485
2.28102
2.48867
3.10049
3.84499
4.8688
8.86478
6.84822e-13
3.77621e-11
2.91462e-11
1.2022e-10
6.31321e-10
1.17883e-09
6.56432e-07
3.27685e-05
0.0238318
0.189758
0.553099
1.02772
1.46636
1.72381
1.92369
2.09468
2.28413
2.48471
3.07702
3.85479
4.81783
8.59971
7.01851e-13
5.03751e-11
9.55937e-11
1.52205e-10
5.7981e-10
1.0631e-09
3.17468e-07
1.37494e-05
0.0116602
0.132767
0.448435
0.919415
1.40805
1.70342
1.9172
2.0932
2.28762
2.48129
3.05287
3.86087
4.78142
8.31472
6.93052e-13
3.6936e-11
3.37253e-11
1.17716e-10
5.12463e-10
9.50132e-10
1.46174e-07
5.5447e-06
0.00493831
0.086788
0.347274
0.794276
1.32193
1.66949
1.90618
2.08977
2.29145
2.47848
3.02825
3.86133
4.75653
8.01909
7.08955e-13
4.70753e-11
9.30718e-11
1.47654e-10
4.86112e-10
8.85643e-10
6.75822e-08
2.16316e-06
0.0016369
0.0521701
0.254653
0.6589
1.20525
1.61424
1.88674
2.08338
2.29546
2.47644
3.00303
3.85601
4.74372
7.71903
7.00672e-13
3.585e-11
3.84329e-11
1.15855e-10
4.3911e-10
8.10415e-10
3.02577e-08
8.21727e-07
0.00043999
0.0285803
0.175242
0.521982
1.06011
1.53018
1.85355
2.07186
2.29909
2.47523
2.97751
3.84336
4.73879
7.42269
7.15546e-13
4.38187e-11
9.00455e-11
1.42971e-10
4.25688e-10
7.71999e-10
1.40216e-08
3.10723e-07
0.000116566
0.0140836
0.111506
0.392051
0.893918
1.41093
1.79813
2.05167
2.30111
2.47488
2.95159
3.82362
4.74091
7.13493
7.07919e-13
3.45553e-11
4.33499e-11
1.14484e-10
3.90086e-10
7.17361e-10
6.63531e-09
1.16886e-07
3.45607e-05
0.006248
0.0647765
0.276817
0.718141
1.25625
1.71174
2.01691
2.29901
2.47505
2.92557
3.79573
4.74458
6.86188
7.21811e-13
4.06399e-11
8.6706e-11
1.38347e-10
3.83129e-10
6.93368e-10
3.56378e-09
4.4905e-08
1.10921e-05