/*--------------------------------*- C++ -*----------------------------------*\
| =========                 |                                                 |
| \\      /  F ield         | OpenFOAM: The Open Source CFD Toolbox           |
|  \\    /   O peration     | Version:  v1912                                 |
|   \\  /    A nd           | Website:  www.openfoam.com                      |
|    \\/     M anipulation  |                                                 |
\*---------------------------------------------------------------------------*/
FoamFile
{
    version     2.0;
    format      ascii;
    class       volScalarField;
    location    "260";
    object      nut;
}
// * * * * * * * * * * * * * * * * * * * * * * * * * * * * * * * * * * * * * //

dimensions      [0 2 -1 0 0 0 0];


internalField   nonuniform List<scalar> 
12441
(
5.82201e-24
1.79052e-20
8.10491e-20
3.32539e-19
1.06829e-18
3.88826e-18
1.01054e-17
2.50043e-17
6.13825e-17
1.27526e-16
3.05656e-16
7.72391e-16
2.17488e-15
7.41452e-15
1.03772e-13
1.89627e-11
0.00019711
0.000976658
0.00313021
0.00266368
0.00364616
0.00775321
6.34208e-24
3.03351e-20
1.11732e-19
4.23947e-19
1.30209e-18
4.80726e-18
1.21983e-17
3.00095e-17
7.36091e-17
1.54451e-16
3.79811e-16
1.03062e-15
2.81965e-15
9.38864e-15
1.13188e-13
3.90252e-11
5.8361e-05
0.001185
0.00358354
0.00289978
0.00400835
0.00781733
6.36484e-24
3.58957e-20
1.20779e-19
4.48131e-19
1.37773e-18
4.9067e-18
1.29288e-17
3.20406e-17
8.05139e-17
1.7177e-16
4.17901e-16
1.11906e-15
2.77584e-15
7.67965e-15
5.35982e-14
6.57957e-12
1.11645e-05
0.000868729
0.00142699
0.00273525
0.00416119
0.0078909
6.31931e-24
3.76919e-20
1.18534e-19
4.2931e-19
1.32535e-18
4.71353e-18
1.25133e-17
3.13266e-17
7.84944e-17
1.73674e-16
4.23777e-16
1.15561e-15
2.6026e-15
8.48604e-15
3.85437e-14
1.54399e-12
1.6296e-06
0.000604991
0.00106359
0.00265702
0.00432376
0.0079647
6.28526e-24
4.38833e-20
1.29779e-19
4.58315e-19
1.40269e-18
4.77932e-18
1.30908e-17
3.27945e-17
8.42983e-17
1.87526e-16
4.54188e-16
1.2865e-15
3.00907e-15
4.07964e-14
2.47552e-13
2.29963e-12
1.39877e-07
0.000426452
0.00104292
0.00264364
0.00446437
0.00803394
6.23509e-24
4.12883e-20
1.2054e-19
4.2919e-19
1.34272e-18
4.62206e-18
1.27503e-17
3.23929e-17
8.2895e-17
1.9269e-16
4.76978e-16
1.44757e-15
4.51944e-15
1.33068e-12
1.19085e-11
5.10611e-11
4.59208e-07
0.000390837
0.0011078
0.0027007
0.0045916
0.00809948
6.20019e-24
5.02642e-20
1.37796e-19
4.7577e-19
1.46015e-18
4.79245e-18
1.35931e-17
3.44536e-17
9.0704e-17
2.1113e-16
5.2088e-16
2.00288e-15
2.49409e-14
4.15351e-11
6.58698e-10
9.38275e-09
1.87659e-05
0.000407082
0.0012931
0.00288743
0.00473869
0.00816218
6.15042e-24
4.34525e-20
1.23172e-19
4.40159e-19
1.40816e-18
4.72278e-18
1.35122e-17
3.48449e-17
9.13212e-17
2.23855e-16
5.72558e-16
5.44355e-15
6.08072e-13
2.25551e-09
8.41863e-08
4.976e-06
0.000194873
0.000464719
0.00174897
0.00327066
0.00493226
0.00822577
6.11762e-24
5.57046e-20
1.46131e-19
4.99679e-19
1.55412e-18
4.95866e-18
1.46118e-17
3.75707e-17
1.02077e-16
2.50955e-16
6.45402e-16
6.14334e-14
2.58188e-11
7.4333e-08
1.04329e-05
0.000153809
0.000795176
0.000825568
0.00269688
0.00392698
0.00520547
0.00829204
6.07078e-24
4.435e-20
1.25437e-19
4.56633e-19
1.50754e-18
4.95363e-18
1.47475e-17
3.87255e-17
1.04881e-16
2.75133e-16
7.48691e-16
1.68428e-12
1.08065e-09
4.43921e-06
0.000190929
0.000611452
0.00167494
0.00155597
0.00443373
0.0049351
0.00557224
0.00836448
6.0416e-24
6.02607e-20
1.53435e-19
5.2591e-19
1.67273e-18
5.20596e-18
1.60252e-17
4.2035e-17
1.19298e-16
3.17384e-16
8.92158e-16
5.23759e-11
5.49022e-08
8.21662e-05
0.000716304
0.00168096
0.00363006
0.00308331
0.00738956
0.00639339
0.00604581
0.00844366
5.9962e-24
4.46295e-20
1.27737e-19
4.76946e-19
1.6337e-18
5.28097e-18
1.64023e-17
4.40653e-17
1.25503e-16
3.64648e-16
1.15872e-15
1.4585e-09
3.23972e-06
0.000345901
0.00155775
0.00372593
0.00750968
0.00613608
0.0120017
0.0083429
0.00661444
0.00853143
5.97058e-24
6.41501e-20
1.60452e-19
5.53813e-19
1.81497e-18
5.54195e-18
1.79086e-17
4.82225e-17
1.46709e-16
4.44749e-16
1.69471e-15
3.52513e-08
7.22809e-05
0.00107163
0.00379175
0.00815775
0.0148582
0.0117151
0.0184169
0.0107616
0.00726795
0.00862633
5.92662e-24
4.43259e-20
1.29671e-19
4.99318e-19
1.78321e-18
5.69195e-18
1.85326e-17
5.13844e-17
1.59857e-16
5.59185e-16
3.60173e-15
7.97112e-07
0.000344346
0.00273654
0.00832102
0.0161898
0.0270174
0.0206615
0.0263207
0.0135196
0.00797304
0.00872852
5.90423e-24
6.75165e-20
1.66656e-19
5.82626e-19
1.97801e-18
5.94017e-18
2.02692e-17
5.67834e-17
1.96063e-16
7.7875e-16
1.65186e-14
1.51947e-05
0.00111451
0.00637741
0.0164157
0.0288464
0.0445489
0.0330524
0.0349337
0.0164559
0.00870878
0.00883515
5.86056e-24
4.39596e-20
1.31999e-19
5.24812e-19
1.95782e-18
6.18561e-18
2.12024e-17
6.168e-17
2.28178e-16
1.21634e-15
3.0219e-13
0.000137226
0.00274495
0.0129946
0.0290137
0.046413
0.0667441
0.0477889
0.0433102
0.0193693
0.00943777
0.00894576
5.84145e-24
7.05413e-20
1.73506e-19
6.1513e-19
2.17063e-18
6.43962e-18
2.3311e-17
6.93795e-17
3.08246e-16
2.30507e-15
1.26035e-11
0.000520224
0.00619597
0.0234335
0.0460704
0.0682556
0.0914039
0.0628062
0.0506245
0.0221211
0.0101449
0.00905718
5.79751e-24
4.3503e-20
1.34495e-19
5.53148e-19
2.16071e-18
6.77171e-18
2.46188e-17
7.72317e-17
4.08488e-16
5.44598e-15
5.48035e-10
0.00132245
0.0123007
0.0380415
0.0670818
0.0926365
0.115199
0.0758099
0.0564643
0.0245898
0.0108026
0.00916919
5.78114e-24
7.32652e-20
1.80291e-19
6.49146e-19
2.38806e-18
7.0118e-18
2.71832e-17
8.90735e-17
6.61763e-16
1.69241e-14
4.40855e-08
0.00318187
0.0218542
0.0561198
0.090318
0.117041
0.1346
0.0852494
0.060797
0.0267453
0.0114106
0.00927899
5.73663e-24
4.30542e-20
1.36874e-19
5.8242e-19
2.38695e-18
7.43837e-18
2.90082e-17
1.0232e-16
1.08049e-15
7.52769e-14
8.54291e-06
0.00668205
0.0349416
0.0767116
0.113963
0.138586
0.14698
0.0908009
0.0639135
0.0285599
0.0119548
0.00938714
5.72354e-24
7.57313e-20
1.86807e-19
6.83198e-19
2.62934e-18
7.67327e-18
3.23051e-17
1.2225e-16
2.19389e-15
7.80242e-13
0.000166469
0.01267
0.0509659
0.0981287
0.135485
0.154897
0.15149
0.0932853
0.0661754
0.0300728
0.0124489
0.00949146
5.6782e-24
4.24354e-20
1.38576e-19
6.10947e-19
2.63522e-18
8.1936e-18
3.49412e-17
1.4647e-16
4.34045e-15
1.34069e-11
0.000646221
0.021599
0.0688371
0.119014
0.153133
0.164595
0.149203
0.0940001
0.0679389
0.0312986
0.0128904
0.00959327
5.66781e-24
7.80248e-20
1.92476e-19
7.15506e-19
2.88998e-18
8.41861e-18
3.94347e-17
1.8359e-16
1.02764e-14
1.66111e-10
0.0016843
0.0333585
0.0872902
0.137703
0.165349
0.167733
0.142517
0.0941029
0.0694277
0.0323004
0.0133044
0.00969106
5.62193e-24
4.19657e-20
1.39797e-19
6.38028e-19
2.90273e-18
9.03801e-18
4.35031e-17
2.31503e-16
2.24219e-14
1.5581e-09
0.00382331
0.0473912
0.105156
0.153231
0.172004
0.165495
0.134101
0.0942413
0.0707889
0.0331097
0.0136982
0.00978684
5.61506e-24
8.02777e-20
1.97585e-19
7.45843e-19
3.17132e-18
9.26775e-18
5.02665e-17
3.06441e-16
5.64441e-14
1.37798e-08
0.00759142
0.0626875
0.121496
0.164745
0.173502
0.159785
0.126005
0.0946175
0.0720706
0.0338036
0.0141055
0.00987966
5.5674e-24
4.17936e-20
1.40769e-19
6.63899e-19
3.19219e-18
9.993e-18
5.71552e-17
4.08482e-16
1.30491e-13
3.18882e-07
0.013405
0.0783176
0.13564
0.172273
0.171232
0.152491
0.119285
0.0951637
0.0732969
0.0344276
0.0145401
0.00997203
5.56303e-24
8.24867e-20
2.02104e-19
7.74047e-19
3.47304e-18
1.02328e-17
6.84635e-17
5.73386e-16
3.92567e-13
1.86898e-05
0.0212105
0.093354
0.147193
0.176029
0.166469
0.145097
0.114177
0.095744
0.0744499
0.0350643
0.015039
0.0100634
5.51423e-24
4.18613e-20
1.41228e-19
6.87558e-19
3.50173e-18
1.10696e-17
8.13335e-17
8.10441e-16
1.83009e-12
0.000210375
0.0307057
0.10721
0.156013
0.176823
0.160615
0.138454
0.110459
0.0962332
0.0755184
0.0357555
0.0156149
0.0101564
5.51323e-24
8.46786e-20
2.05805e-19
7.99251e-19
3.79643e-18
1.13448e-17
1.02518e-16
1.20446e-15
1.28023e-11
0.000699369
0.0412671
0.119424
0.16219
0.175355
0.154508
0.13291
0.107774
0.096561
0.076472
0.0365643
0.016298
0.0102507
5.46217e-24
4.20365e-20
1.40973e-19
7.08454e-19
3.83385e-18
1.23055e-17
1.28836e-16
1.79587e-15
7.40976e-11
0.001402
0.0523735
0.129793
0.165984
0.172495
0.148804
0.128457
0.105791
0.0966955
0.0772938
0.0375021
0.0170881
0.0103488
5.4632e-24
8.68099e-20
2.08986e-19
8.21838e-19
4.14341e-18
1.26539e-17
1.72487e-16
2.80975e-15
3.56423e-10
0.00242735
0.0634616
0.138196
0.167766
0.168797
0.143699
0.124946
0.104265
0.0966402
0.077955
0.0385911
0.0179984
0.01045
5.41109e-24
4.22487e-20
1.39907e-19
7.26652e-19
4.19114e-18
1.37425e-17
2.3015e-16
4.38995e-15
1.38695e-09
0.00388696
0.0741674
0.144692
0.167947
0.164801
0.139319
0.122172
0.103031
0.0964106
0.0784409
0.0398023
0.0190076
0.0105565
5.41522e-24
8.89217e-20
2.11423e-19
8.42422e-19
4.52288e-18
1.41941e-17
3.26418e-16
7.08401e-15
4.74643e-09
0.00593145
0.084137
0.149382
0.16693
0.160752
0.135571
0.119954
0.101989
0.0960346
0.078727
0.0411226
0.0201078
0.010667
5.35963e-24
4.22812e-20
1.37817e-19
7.42926e-19
4.58528e-18
1.54549e-17
4.58293e-16
1.12967e-14
1.44514e-08
0.00868857
0.0932131
0.152482
0.165068
0.156886
0.132408
0.11814
0.101082
0.095538
0.0788024
0.0425011
0.021258
0.0107831
5.3657e-24
8.84612e-20
2.10348e-19
8.57276e-19
4.93685e-18
1.60489e-17
6.78023e-16
1.85084e-14
4.27974e-08
0.0122772
0.101277
0.154203
0.162658
0.15325
0.129695
0.116622
0.100279
0.0949506
0.0786479
0.0439185
0.0224372
0.0109032
5.30608e-24
4.14885e-20
1.32584e-19
7.51675e-19
5.01054e-18
1.74643e-17
9.80566e-16
2.99214e-14
2.19532e-07
0.016868
0.108385
0.154814
0.159933
0.149928
0.127374
0.115319
0.09957
0.0942972
0.0782577
0.0453353
0.0235975
0.0110282
5.31253e-24
8.5267e-20
2.03835e-19
8.6211e-19
5.38139e-18
1.81878e-17
1.47481e-15
5.74631e-14
1.12407e-05
0.0226991
0.114617
0.154544
0.157065
0.146888
0.125339
0.114179
0.0989522
0.0936059
0.0776204
0.0467591
0.0247201
0.0111563
5.24615e-24
4.16177e-20
1.27334e-19
7.57756e-19
5.48315e-18
1.98591e-17
2.14258e-15
4.65083e-13
0.00019856
0.0301759
0.120155
0.153639
0.154181
0.144168
0.123564
0.113168
0.0984319
0.0929001
0.0767394
0.0481873
0.0257679
0.0112883
5.24949e-24
5.37925e-20
1.5473e-19
7.99531e-19
5.76922e-18
2.06406e-17
3.20178e-15
2.31305e-11
0.00139117
0.0398068
0.125137
0.152288
0.151367
0.141723
0.121981
0.11227
0.0980194
0.0922058
0.0756165
0.0496662
0.0267444
0.011422
5.17274e-24
4.32835e-20
1.14481e-19
7.24337e-19
5.94095e-18
2.35475e-17
4.66321e-15
1.0329e-09
0.00545696
0.0519222
0.129712
0.150681
0.148676
0.13959
0.120593
0.111479
0.097728
0.0915436
0.0742724
0.0512202
0.0276417
0.0115584
5.16607e-24
1.93961e-21
1.12098e-20
4.00677e-19
5.44952e-18
2.44402e-17
7.20786e-15
1.83274e-07
0.0147084
0.0664677
0.133915
0.148953
0.146133
0.137737
0.119361
0.110801
0.097572
0.0909343
0.0727307
0.0528876
0.0284984
0.0116955
5.07797e-24
1.71178e-20
4.4777e-20
4.17423e-19
5.46291e-18
3.62123e-17
1.80085e-14
4.80624e-05
0.0310708
0.0831382
0.137754
0.147241
0.143741
0.136219
0.118315
0.110245
0.0975643
0.0903881
0.071039
0.0546142
0.029329
0.0118345
5.03913e-24
6.72058e-22
8.45979e-23
2.35263e-19
5.0668e-18
8.28268e-17
3.70825e-13
0.00104567
0.0558248
0.101442
0.141124
0.145633
0.141481
0.135006
0.117429
0.109835
0.0977168
0.0899105
0.0692509
0.0562335
0.030134
0.011976
4.83847e-24
2.10344e-19
4.58183e-19
1.02963e-18
7.26127e-18
9.13661e-16
7.18225e-12
0.00642104
0.0894605
0.121112
0.144139
0.144292
0.139334
0.134151
0.116735
0.109582
0.0980253
0.0894466
0.0674331
0.0573207
0.0306093
0.0121338
0.00987657
0.0215348
0.0232273
0.00891565
0.00756983
0.00779274
0.00798423
0.0082152
0.00809349
0.00842094
0.0115756
0.0106674
0.00986132
0.00951545
0.00946535
0.0106953
0.0131773
0.0156848
0.0164817
0.0145255
0.0128207
0.0124625
0.0125666
0.0129256
0.0136629
0.0142563
0.0120366
0.0244388
0.0996744
0.119606
0.115489
0.112567
0.113234
0.123446
0.141523
0.00986353
0.0218652
0.022449
0.00856827
0.00741114
0.00764464
0.0080024
0.00826379
0.00807603
0.00839145
0.0112672
0.0102818
0.00952027
0.00925587
0.00923321
0.0104021
0.0129504
0.0156273
0.0165702
0.0145339
0.0126966
0.0123056
0.0123955
0.012728
0.0134458
0.0140555
0.0119486
0.0236573
0.0992753
0.119474
0.115403
0.112494
0.113195
0.123408
0.1415
0.00983842
0.0221279
0.0211011
0.00797538
0.00723036
0.00745264
0.00809118
0.008379
0.00807675
0.00835746
0.0103059
0.00921203
0.00869027
0.00851336
0.0083052
0.00906317
0.0111346
0.0135659
0.0148697
0.0135426
0.0121471
0.0119005
0.0120312
0.0123491
0.0130422
0.0136679
0.0118937
0.023181
0.0985527
0.119149
0.115177
0.112294
0.113071
0.123283
0.141407
0.00979929
0.0223213
0.0193797
0.00735779
0.00708401
0.00729914
0.00822799
0.00846757
0.00808271
0.00833346
0.00923765
0.0080232
0.00773138
0.00771179
0.0073865
0.00767028
0.00899858
0.0108374
0.0122778
0.0118824
0.0112162
0.0112401
0.0114661
0.0117865
0.01245
0.0130882
0.0117561
0.0227673
0.0974872
0.118632
0.114811
0.111969
0.11286
0.123071
0.141243
0.00974597
0.0223632
0.0174172
0.00673387
0.00691197
0.00713126
0.00831516
0.00845246
0.00802338
0.00824575
0.00827722
0.00695703
0.00687152
0.00705764
0.0066918
0.00657206
0.00716189
0.00827145
0.0095201
0.00985868
0.00994977
0.0103201
0.0106982
0.0110486
0.0116818
0.012326
0.0114477
0.0222381
0.0960565
0.117938
0.114321
0.11153
0.112574
0.122784
0.14102
0.00967615
0.0221846
0.0153287
0.00609295
0.0066768
0.00690245
0.00828036
0.00829588
0.00784708
0.00802301
0.00742076
0.00603145
0.00609868
0.00646612
0.00612569
0.00573242
0.00574686
0.00619921
0.00704873
0.00774202
0.00841544
0.00914605
0.00973074
0.0101502
0.0107607
0.0114043
0.0109133
0.0214751
0.0942405
0.117093
0.113726
0.111
0.112231
0.122442
0.140758
0.00959042
0.0217433
0.0132309
0.00545779
0.00639016
0.00661195
0.00810558
0.00800101
0.00754359
0.00764335
0.00661678
0.00519259
0.00531822
0.00577832
0.00551518
0.00498941
0.00464482
0.00463158
0.00505979
0.00576237
0.00672497
0.00774944
0.00857566
0.00911072
0.00971652
0.0103564
0.0101351
0.0204178
0.0920253
0.116128
0.113056
0.110403
0.111854
0.12207
0.140482
0.00948687
0.0210108
0.0112335
0.00487597
0.00609314
0.00629038
0.00781617
0.00759914
0.00713595
0.00713114
0.00584042
0.00441368
0.00448663
0.00492263
0.00477276
0.00423333
0.0037262
0.00346059
0.00357654
0.00409742
0.00504853
0.00621117
0.00726445
0.00795571
0.00858325
0.00922237
0.0091346
0.0190581
0.0894069
0.115077
0.112341
0.109771
0.11147
0.121695
0.140219
0.00936733
0.0199905
0.00942223
0.00439497
0.00583168
0.00597907
0.0074584
0.00713333
0.00666215
0.00653473
0.00510247
0.0037087
0.00364312
0.00395428
0.00393122
0.00346656
0.00294107
0.00259411
0.00254605
0.00285403
0.00358956
0.00467981
0.00586565
0.00672324
0.00739883
0.00804616
0.00797116
0.0174321
0.0863947
0.113978
0.111612
0.109134
0.111107
0.121349
0.139999
0.0092307
0.0186983
0.00785125
0.00404572
0.00564341
0.00571714
0.0070837
0.00664923
0.0061649
0.00590834
0.00442861
0.00310933
0.00287349
0.00300583
0.00309906
0.00276587
0.0023106
0.00198757
0.00189398
0.0020508
0.0025114
0.00335013
0.0044988
0.00547398
0.00620804
0.00687278
0.00673378
0.0156084
0.0830152
0.112866
0.110902
0.108525
0.110793
0.121062
0.139852
0.00908003
0.0171792
0.00654155
0.00383893
0.00555383
0.0055362
0.0067396
0.00618885
0.00568363
0.00530055
0.00384298
0.00264153
0.00225979
0.00222352
0.0023999
0.00221631
0.00186704
0.00160936
0.00153235
0.00162013
0.00186282
0.00238601
0.00332129
0.00429833
0.00506711
0.0057483
0.00552699
0.013676
0.0793173
0.111776
0.110241
0.107973
0.110556
0.120864
0.139809
0.00891508
0.0154862
0.00548979
0.00376995
0.00557837
0.00545928
0.0064667
0.00578924
0.00525341
0.00475129
0.00336352
0.00231265
0.00184424
0.00169813
0.00191365
0.00185481
0.00160241
0.00140714
0.00136255
0.0014417
0.00156888
0.00183395
0.00246868
0.00330637
0.00404508
0.0047205
0.00445275
0.0117355
0.075378
0.110742
0.109657
0.10751
0.110423
0.120785
0.139899
0.00874002
0.0136952
0.00467822
0.00382703
0.00572639
0.00550181
0.00629718
0.0054807
0.0049029
0.00429059
0.00299985
0.00211323
0.00162202
0.00143339
0.00164752
0.00165801
0.00146817
0.00131569
0.00129851
0.00139846
0.00149961
0.00161695
0.0019817
0.00258908
0.00321418
0.00383824
0.00359147
0.00989286
0.0713097
0.109795
0.109177
0.107161
0.110419
0.120853
0.140148
0.00855535
0.011884
0.00408719
0.00399912
0.00600566
0.00567388
0.0062553
0.00528699
0.004655
0.00394028
0.00275552
0.00202272
0.00155729
0.00137161
0.00155361
0.00157086
0.00140648
0.0012793
0.0012823
0.00140986
0.00153953
0.00161243
0.00179872
0.00217124
0.00262526
0.00314495
0.00298585
0.00825256
0.0672676
0.108966
0.108823
0.106951
0.110565
0.121094
0.140583
0.00836592
0.0101405
0.00370294
0.00428091
0.00642633
0.00598365
0.00635829
0.00522494
0.00452543
0.00371429
0.00262614
0.00201861
0.00160539
0.0014426
0.00156714
0.00153911
0.00137411
0.00126316
0.00128381
0.00143657
0.00161404
0.00171338
0.001817
0.00200589
0.00228289
0.00266551
0.00263477
0.00690387
0.0634539
0.108283
0.108614
0.106901
0.110884
0.121532
0.141226
0.00817267
0.00854151
0.00352333
0.00467562
0.00700471
0.00644133
0.0066197
0.00530725
0.00452457
0.00361941
0.00260442
0.00207962
0.00172262
0.00158226
0.00162921
0.00152493
0.0013486
0.00125211
0.00129195
0.00146806
0.00169132
0.0018482
0.00194157
0.00201308
0.00214631
0.00239519
0.00250372
0.00590431
0.0601109
0.107774
0.108566
0.107029
0.111393
0.12219
0.142098
0.00798033
0.00715409
0.00356325
0.00519647
0.00776323
0.00706875
0.00705367
0.00554455
0.00465855
0.00365526
0.00267987
0.00219106
0.00187358
0.00174032
0.00169611
0.00150799
0.00132258
0.00124316
0.00130556
0.00150701
0.00176831
0.0019835
0.00210399
0.00211564
0.00215481
0.00230316
0.00254567
0.00527172
0.0574934
0.107467
0.108691
0.107353
0.112107
0.123086
0.143217
0.00778933
0.0060247
0.00384438
0.00587
0.00873497
0.00790005
0.00768025
0.00594954
0.00493314
0.00381931
0.00284548
0.00234322
0.00203342
0.00188226
0.00174207
0.00148132
0.00129626
0.0012381
0.00132669
0.00155859
0.00185306
0.00211295
0.00226696
0.00225657
0.00225196
0.00234814
0.00271746
0.00499132
0.0558199
0.107388
0.109
0.107884
0.113041
0.124238
0.144599
0.00760307
0.00517263
0.00439836
0.00673558
0.00996531
0.00898476
0.00852884
0.006541
0.00535626
0.00410999
0.00309821
0.00253495
0.00219201
0.00199258
0.00175723
0.00144525
0.00127199
0.00123941
0.00135776
0.00162662
0.00195389
0.00224209
0.00241778
0.00240376
0.00239789
0.00249253
0.00298652
0.00503225
0.0552238
0.107555
0.1095
0.108635
0.114207
0.125663
0.14626
0.00742066
0.00458494
0.00527333
0.00784394
0.0115118
0.0103871
0.00963957
0.00734733
0.0059422
0.00453246
0.00344574
0.00277167
0.00235084
0.00206913
0.0017431
0.00140395
0.00125261
0.00124914
0.00140041
0.00171276
0.0020751
0.00237763
0.00255717
0.00254567
0.00257152
0.00270905
0.00333183
0.00536444
0.0557385
0.107983
0.110199
0.109616
0.115614
0.127375
0.14821
0.00724378
0.00422156
0.00654833
0.00925487
0.013442
0.0121815
0.0110607
0.00840557
0.00671151
0.00509903
0.00390455
0.00307006
0.0025247
0.00212268
0.00170825
0.00136269
0.00124081
0.00126922
0.00145587
0.00181717
0.00221699
0.00252308
0.0026904
0.00268344
0.00276657
0.00298143
0.00374281
0.00596974
0.057317
0.108676
0.1111
0.110834
0.117273
0.129387
0.150461
0.00707145
0.00403873
0.00833768
0.011042
0.0158339
0.014448
0.0128455
0.0097585
0.00769101
0.0058299
0.00450159
0.00345476
0.00273749
0.00217096
0.00166507
0.00132745
0.00123969
0.00130188
0.00152501
0.00193847
0.00237674
0.00267816
0.00282275
0.00282404
0.0029856
0.00330193
0.00421754
0.00684642
0.0598671
0.109632
0.112206
0.112299
0.119193
0.131712
0.153022
0.00690537
0.0040054
0.0107808
0.0133055
0.018782
0.0172738
0.0150512
0.0114494
0.00890887
0.00674641
0.00526349
0.00395826
0.00302316
0.00224044
0.00162798
0.00130417
0.00125278
0.00135016
0.00160901
0.00207422
0.00254968
0.00284027
0.00295827
0.00297614
0.00323514
0.00366831
0.00476101
0.00800919
0.0632767
0.110842
0.113521
0.114016
0.121379
0.134362
0.155902
0.00674534
0.00410452
0.0140304
0.0161908
0.0224092
0.0207613
0.017742
0.0135192
0.0103911
0.00786564
0.00620876
0.0046076
0.00341547
0.00236172
0.00161282
0.00129961
0.00128478
0.00141824
0.0017095
0.00222067
0.00272998
0.0030059
0.00310015
0.0031482
0.00352241
0.00408139
0.00538383
0.00948706
0.067428
0.112295
0.115045
0.115991
0.12384
0.137348
0.159106
0.00659312
0.00433862
0.0182213
0.0199037
0.0268734
0.0250298
0.0209873
0.0160012
0.0121527
0.00918883
0.0073308
0.00541379
0.00393804
0.00256935
0.0016374
0.00132138
0.00134161
0.00151176
0.0018295
0.00237397
0.00291171
0.00317214
0.00325151
0.00334799
0.00385377
0.00454373
0.0061014
0.0113202
0.0722035
0.113979
0.11678
0.118231
0.126582
0.140679
0.162642
0.00644962
0.00473733
0.0234421
0.0247097
0.0323555
0.0301948
0.0248443
0.0189068
0.0141872
0.0106929
0.00859158
0.0063535
0.00458324
0.00288544
0.00172172
0.00137965
0.00143137
0.00163806
0.00197358
0.0025308
0.00308948
0.00333738
0.0034161
0.00358247
0.0042339
0.00505906
0.00693346
0.0135568
0.077489
0.115879
0.118725
0.12074
0.12961
0.144364
0.166512
0.00631698
0.00535443
0.0297156
0.0309071
0.03902
0.0363143
0.0293174
0.0221989
0.0164464
0.012317
0.00991274
0.00736617
0.00530659
0.00330488
0.00188413
0.00148741
0.00156456
0.00180623
0.00214862
0.00269063
0.00325972
0.00350191
0.00359861
0.00385786
0.00466586
0.00563249
0.00790397
0.0162493
0.0831761
0.117984
0.12088
0.123523
0.132928
0.148414
0.170719
0.00619775
0.00626113
0.0370244
0.0387817
0.0469569
0.0433186
0.0343066
0.0257601
0.0188232
0.0139554
0.0111804
0.00835221
0.00602664
0.00378037
0.00213089
0.00166022
0.00175481
0.00202703
0.0023632
0.00285654
0.00342134
0.00366806
0.00380473
0.00417958
0.00515112
0.0062708
0.00904104
0.0194512
0.0891648
0.120283
0.123245
0.126583
0.136542
0.152833
0.175265
0.00609509
0.00752402
0.0453679
0.0485586
0.05612
0.0509521
0.0395659
0.0293707
0.0211391
0.0154546
0.0122488
0.00918802
0.00664424
0.00423807
0.00244466
0.00191059
0.00201712
0.002312
0.00262715
0.00303669
0.00357684
0.00384033
0.00404102
0.00455215
0.00569017
0.006983
0.010377
0.0232127
0.0953659
0.122765
0.125817
0.129923
0.140453
0.157631
0.180149
0.00601408
0.00919215
0.0548273
0.0603448
0.0662687
0.0587505
0.0446965
0.0327138
0.0231541
0.0166259
0.0129581
0.00973733
0.00705557
0.00459548
0.00278497
0.00224058
0.00236415
0.002671
0.00294919
0.00324302
0.00373254
0.00402529
0.00431455
0.0049789
0.00628288
0.00778064
0.0119486
0.0275774
0.101703
0.125421
0.128594
0.133546
0.144665
0.162813
0.18537
0.00596079
0.0112909
0.0655557
0.074017
0.0769045
0.0660545
0.0491772
0.0354053
0.0245921
0.0172677
0.0131537
0.00987695
0.00717462
0.00478715
0.00310263
0.00263524
0.00279877
0.00310769
0.00333443
0.00349039
0.00389904
0.00423151
0.00463257
0.00546184
0.00692927
0.00867817
0.0137965
0.0325783
0.108114
0.128241
0.131574
0.137452
0.14918
0.168384
0.190925
0.00594609
0.0138461
0.0776966
0.0890403
0.0872188
0.0720675
0.0524349
0.0370532
0.0251904
0.0172075
0.0127254
0.00952254
0.00694931
0.00477506
0.00335661
0.0030656
0.00330866
0.00361415
0.00377954
0.00379231
0.00409058
0.00446926
0.00500193
0.00600138
0.00762984
0.00969295
0.0159655
0.0382355
0.11455
0.131217
0.134752
0.141643
0.154002
0.174351
0.196812
0.00598322
0.016898
0.0911941
0.104297
0.0961142
0.0759695
0.0539454
0.0373321
0.0247564
0.0163514
0.0116533
0.00867335
0.00638959
0.00456573
0.00352588
0.0034972
0.00386544
0.00416831
0.00427024
0.00415772
0.0043244
0.00475019
0.00542857
0.00659625
0.00838614
0.0108454
0.0185039
0.0445538
0.120974
0.134339
0.138127
0.14612
0.159134
0.180723
0.203029
0.00609167
0.0205223
0.105598
0.118118
0.102371
0.0770924
0.0533559
0.036068
0.0232309
0.0147374
0.0100581
0.00744857
0.00558446
0.00421093
0.0036136
0.0039013
0.00443143
0.00473604
0.0047802
0.00458498
0.00461854
0.00508651
0.00591672
0.00724332
0.00920075
0.0121587
0.0214627
0.0515235
0.127361
0.1376
0.141698
0.150888
0.164582
0.187511
0.209578
0.00628805
0.0248065
0.119952
0.128621
0.104946
0.0751039
0.0505872
0.033299
0.0207268
0.0125586
0.00820683
0.00609212
0.00470142
0.00380333
0.00364548
0.00426128
0.00496898
0.00527916
0.00527689
0.0050607
0.00498914
0.00548998
0.00646817
0.00793756
0.0100774
0.0136588
0.0248945
0.0591206
0.133699
0.140991
0.145464
0.155952
0.170355
0.194729
0.216462
0.00658505
0.0298473
0.132963
0.134287
0.103294
0.0701248
0.0458779
0.029292
0.0175274
0.0101347
0.00644065
0.00488843
0.00393018
0.00344304
0.00365984
0.00457394
0.00544821
0.00576321
0.0057281
0.00555934
0.00544572
0.00596985
0.00708135
0.00867184
0.0110204
0.0153744
0.028853
0.0673108
0.13998
0.144508
0.149432
0.161324
0.17647
0.202401
0.223692
0.00697682
0.0356692
0.143316
0.134408
0.0975279
0.0627071
0.0397366
0.0244906
0.014027
0.00782111
0.00503138
0.00402941
0.00340079
0.00320375
0.00369364
0.00484476
0.00585055
0.0061647
0.00611108
0.00605167
0.00598714
0.00653048
0.00775059
0.00943698
0.0120347
0.0173364
0.0333917
0.0760535
0.146209
0.148148
0.153609
0.167025
0.182945
0.210559
0.231285
0.00744499
0.0421657
0.149974
0.129183
0.0883478
0.0536844
0.0328217
0.0194166
0.010638
0.00589848
0.0040753
0.0035395
0.00313344
0.00310495
0.00376647
0.00507992
0.00616699
0.00647157
0.0064145
0.00651066
0.00659845
0.00716821
0.00846555
0.0102217
0.0131247
0.0195783
0.0385643
0.085308
0.152396
0.151917
0.158012
0.173081
0.189813
0.219246
0.239266
0.00795396
0.0488606
0.152204
0.11945
0.0767933
0.0439609
0.0257932
0.0145577
0.00769746
0.00449344
0.00350411
0.00332277
0.00306296
0.00311853
0.0038749
0.00528069
0.00639593
0.0066835
0.00664053
0.006921
0.00725306
0.00786952
0.00921145
0.0110135
0.0142948
0.0221367
0.0444246
0.0950395
0.158562
0.155824
0.162666
0.179532
0.19711
0.228516
0.247673
0.00846726
0.0548306
0.149522
0.106318
0.063961
0.034335
0.0191997
0.0102912
0.00541179
0.0035732
0.00318303
0.00324619
0.00308807
0.00318784
0.00399782
0.0054423
0.00653894
0.00680632
0.00679908
0.00727802
0.0079179
0.00861079
0.00997031
0.0117991
0.0155484
0.0250515
0.0510289
0.105227
0.164737
0.159891
0.167602
0.186428
0.204886
0.238438
0.256553
0.00894498
0.0586473
0.1416
0.0908962
0.0508107
0.0254018
0.0134244
0.00685739
0.00383064
0.00300841
0.0029895
0.00319995
0.00311982
0.00326032
0.00411216
0.00555824
0.00659988
0.00685052
0.00690615
0.00758974
0.00856218
0.00936252
0.0107237
0.0125673
0.0168893
0.0283674
0.0584387
0.115871
0.170962
0.164146
0.172862
0.193832
0.213199
0.249091
0.265963
0.0093615
0.0588609
0.128354
0.0742199
0.0381113
0.0175564
0.00870193
0.00436931
0.00284958
0.0026587
0.00283952
0.00311698
0.00310303
0.00330244
0.00420324
0.00562333
0.00658211
0.00682593
0.00697699
0.00786883
0.00916338
0.0100954
0.0114567
0.0133103
0.0183216
0.032135
0.0667247
0.126996
0.177289
0.168631
0.178496
0.201814
0.222115
0.260565
0.275969
0.0096768
0.05425
0.109983
0.0572818
0.0265063
0.0110685
0.00517179
0.0027966
0.00227253
0.00241491
0.0026796
0.00296874
0.00301759
0.00330662
0.00427118
0.00563679
0.0064894
0.00674254
0.0070268
0.00813242
0.00971195
0.010789
0.012162
0.0140269
0.0198516
0.036412
0.0759706
0.13866
0.183782
0.173393
0.184556
0.210453
0.231706
0.272958
0.286644
0.00988074
0.0447508
0.0872989
0.0410125
0.0165526
0.0061305
0.00286725
0.00191507
0.0019047
0.00219005
0.00246878
0.00274147
0.00285425
0.00326965
0.00431709
0.00559129
0.00631791
0.00660272
0.00706514
0.00839467
0.0102095
0.0114344
0.0128434
0.0147247
0.0214892
0.0412642
0.0862757
0.150951
0.190517
0.178485
0.191101
0.219827
0.242045
0.286367
0.298061
4.88268e-24
3.15479e-19
1.14334e-18
4.32183e-18
2.50776e-17
3.16558e-14
9.06276e-11
0.0236516
0.121092
0.13633
0.146047
0.143512
0.137815
0.133799
0.116382
0.109575
0.0984374
0.088994
0.0660783
0.0575041
0.0302205
0.0121446
4.99647e-24
7.39685e-20
8.35994e-20
6.25676e-18
6.26326e-17
2.46992e-13
9.27936e-10
0.0446163
0.142612
0.145523
0.146792
0.143013
0.13693
0.133777
0.116369
0.109749
0.0989267
0.0887243
0.0654054
0.0572779
0.0297839
0.0121947
5.10249e-24
2.76638e-19
8.77963e-19
8.90362e-18
1.22376e-16
9.30534e-13
9.34616e-09
0.0696076
0.161867
0.153088
0.147191
0.142595
0.136251
0.133935
0.116564
0.110082
0.099591
0.0885343
0.0650687
0.0566872
0.0292463
0.012354
5.0623e-24
5.72612e-20
2.14768e-20
6.8494e-18
1.92265e-16
2.27931e-12
1.69619e-07
0.09598
0.178525
0.15926
0.147545
0.142335
0.135827
0.134307
0.116994
0.110561
0.1004
0.0884303
0.0650565
0.0557634
0.0286421
0.0126118
5.16606e-24
2.21301e-19
6.32101e-19
7.22734e-18
2.87971e-16
3.60651e-12
6.53906e-06
0.119694
0.192564
0.164281
0.148065
0.142294
0.135706
0.134882
0.117642
0.111176
0.101321
0.0884137
0.0653373
0.0545757
0.0280168
0.0129595
5.11432e-24
4.59241e-20
1.2066e-20
4.61371e-18
4.09432e-16
4.86548e-12
1.85826e-05
0.136339
0.204087
0.168412
0.148927
0.14254
0.135926
0.1357
0.118539
0.111916
0.10232
0.0884809
0.0658773
0.0531807
0.0273806
0.0134141
5.22953e-24
1.78682e-19
4.73271e-19
4.63453e-18
5.7981e-16
5.05375e-12
3.43391e-05
0.143783
0.213286
0.171867
0.150226
0.143115
0.136519
0.136752
0.119669
0.112785
0.103363
0.0886287
0.0666251
0.0516589
0.0267592
0.0139894
5.17046e-24
3.80407e-20
7.87975e-21
2.77898e-18
7.71597e-16
4.37035e-12
2.56856e-05
0.14263
0.220311
0.174846
0.152042
0.144072
0.137512
0.138084
0.121068
0.113786
0.104425
0.088848
0.0675353
0.0500647
0.0261502
0.0147029
5.29818e-24
1.46651e-19
3.6948e-19
2.86002e-18
9.85005e-16
2.87623e-12
2.72988e-05
0.135104
0.225283
0.177474
0.154393
0.145438
0.138921
0.139684
0.122721
0.114935
0.10549
0.0891321
0.0685516
0.0484701
0.0255728
0.0155585
5.22375e-24
3.24415e-20
5.88698e-21
1.68631e-18
1.14704e-15
1.68689e-12
3.51585e-05
0.123291
0.2282
0.179845
0.157294
0.147248
0.140759
0.141598
0.124669
0.116249
0.106554
0.0894695
0.0696325
0.0469151
0.0250182
0.0165594
5.35793e-24
1.21925e-19
2.97333e-19
1.84139e-18
1.25117e-15
8.5133e-13
3.99952e-05
0.10853
0.228979
0.181968
0.16071
0.149517
0.143033
0.14381
0.126896
0.117756
0.107629
0.0898545
0.0707299
0.0454556
0.0245015
0.0176913
5.27135e-24
2.84276e-20
4.69147e-21
1.08023e-18
1.238e-15
4.16027e-13
4.0976e-05
0.0920514
0.227391
0.18381
0.16461
0.152269
0.145747
0.146358
0.129444
0.11948
0.108737
0.0902793
0.0718168
0.0441147
0.0240098
0.0189386
5.41234e-24
1.02859e-19
2.481e-19
1.2623e-18
1.14728e-15
1.89111e-13
3.48238e-05
0.0748811
0.223145
0.185248
0.168907