/*--------------------------------*- C++ -*----------------------------------*\
| =========                 |                                                 |
| \\      /  F ield         | OpenFOAM: The Open Source CFD Toolbox           |
|  \\    /   O peration     | Version:  v1912                                 |
|   \\  /    A nd           | Website:  www.openfoam.com                      |
|    \\/     M anipulation  |                                                 |
\*---------------------------------------------------------------------------*/
FoamFile
{
    version     2.0;
    format      ascii;
    class       volScalarField;
    location    "260";
    object      p;
}
// * * * * * * * * * * * * * * * * * * * * * * * * * * * * * * * * * * * * * //

dimensions      [0 2 -2 0 0 0 0];


internalField   nonuniform List<scalar> 
12441
(
8.5354
8.82733
9.66153
10.9588
12.6438
14.7668
17.4175
20.7055
24.8084
29.8735
36.1773
43.9724
53.6502
65.7624
81.4002
100.892
128.917
163.727
220.029
282.212
373.547
437.571
8.5354
8.82733
9.66152
10.9587
12.6438
14.7667
17.4174
20.7054
24.8083
29.8733
36.177
43.9718
53.6493
65.7607
81.3971
100.885
128.901
163.703
219.947
282.136
373.497
437.372
8.53538
8.82731
9.66149
10.9587
12.6437
14.7666
17.4173
20.7052
24.808
29.8728
36.1762
43.9706
53.6473
65.7573
81.3911
100.872
128.877
163.647
219.777
281.954
373.363
437.013
8.53536
8.82728
9.66146
10.9586
12.6437
14.7665
17.4171
20.7049
24.8075
29.8721
36.1751
43.9687
53.6444
65.7521
81.3821
100.851
128.844
163.562
219.598
281.675
373.119
436.455
8.53533
8.82725
9.66141
10.9586
12.6435
14.7664
17.4169
20.7045
24.8069
29.8711
36.1736
43.9663
53.6405
65.7453
81.3701
100.824
128.802
163.455
219.432
281.326
372.776
435.693
8.53529
8.8272
9.66136
10.9585
12.6434
14.7662
17.4166
20.704
24.8062
29.8699
36.1717
43.9633
53.6356
65.7367
81.3552
100.791
128.75
163.33
219.246
280.903
372.339
434.729
8.53524
8.82715
9.66129
10.9584
12.6433
14.7659
17.4162
20.7034
24.8053
29.8685
36.1695
43.9596
53.6297
65.7264
81.3373
100.752
128.689
163.183
219.027
280.41
371.813
433.562
8.53519
8.82709
9.66121
10.9583
12.6431
14.7657
17.4158
20.7028
24.8042
29.8668
36.1669
43.9553
53.6229
65.7144
81.3165
100.706
128.621
163.016
218.789
279.86
371.203
432.19
8.53513
8.82702
9.66111
10.9581
12.6429
14.7653
17.4153
20.702
24.8031
29.8649
36.1639
43.9504
53.615
65.7008
81.2932
100.657
128.552
162.836
218.552
279.265
370.512
430.608
8.53506
8.82694
9.66101
10.958
12.6426
14.765
17.4148
20.7011
24.8017
29.8627
36.1605
43.9449
53.6062
65.6856
81.2687
100.607
128.486
162.653
218.338
278.636
369.742
428.811
8.53498
8.82686
9.6609
10.9578
12.6424
14.7646
17.4142
20.7001
24.8002
29.8603
36.1568
43.9388
53.5965
65.6691
81.2441
100.561
128.437
162.485
218.178
277.983
368.89
426.791
8.5349
8.82676
9.66077
10.9576
12.6421
14.7642
17.4135
20.6991
24.7986
29.8577
36.1527
43.9321
53.5858
65.6522
81.2226
100.529
128.432
162.363
218.1
277.31
367.951
424.54
8.53481
8.82666
9.66063
10.9574
12.6418
14.7637
17.4128
20.6979
24.7968
29.8548
36.1482
43.9248
53.5745
65.637
81.2122
100.53
128.509
162.329
218.109
276.609
366.915
422.047
8.53471
8.82654
9.66048
10.9572
12.6415
14.7632
17.412
20.6966
24.7948
29.8517
36.1433
43.9169
53.5632
65.6274
81.226
100.587
128.706
162.418
218.178
275.861
365.775
419.299
8.5346
8.82642
9.66032
10.957
12.6411
14.7626
17.4112
20.6953
24.7927
29.8484
36.1381
43.9085
53.5532
65.6307
81.2783
100.717
129.039
162.631
218.248
275.039
364.519
416.284
8.53449
8.82629
9.66015
10.9567
12.6407
14.762
17.4103
20.6938
24.7905
29.8448
36.1325
43.8997
53.5473
65.6552
81.3796
100.927
129.489
162.92
218.246
274.117
363.14
412.988
8.53437
8.82615
9.65997
10.9564
12.6403
14.7614
17.4093
20.6922
24.7881
29.8409
36.1264
43.8911
53.5499
65.7078
81.5318
101.206
129.996
163.197
218.118
273.078
361.629
409.397
8.53424
8.826
9.65977
10.9561
12.6399
14.7607
17.4083
20.6906
24.7856
29.8368
36.1199
43.8837
53.5661
65.7906
81.7264
101.524
130.469
163.365
217.835
271.909
359.982
405.496
8.5341
8.82585
9.65957
10.9558
12.6394
14.76
17.4072
20.6888
24.7829
29.8325
36.113
43.8794
53.6
65.8996
81.9456
101.837
130.813
163.36
217.401
270.608
358.194
401.272
8.53395
8.82568
9.65935
10.9555
12.6389
14.7593
17.4061
20.687
24.78
29.8279
36.1058
43.8808
53.6523
66.0259
82.1652
102.098
130.956
163.171
216.84
269.18
356.264
396.709
8.5338
8.82551
9.65912
10.9552
12.6384
14.7585
17.4049
20.6851
24.7771
29.8231
36.0986
43.8911
53.7196
66.158
82.3588
102.266
130.877
162.835
216.18
267.632
354.19
391.791
8.53364
8.82533
9.65888
10.9548
12.6379
14.7577
17.4036
20.683
24.7739
29.818
36.0917
43.9123
53.7962
66.2834
82.5029
102.316
130.605
162.405
215.449
265.97
351.973
386.501
8.53347
8.82514
9.65863
10.9544
12.6373
14.7568
17.4023
20.6809
24.7706
29.8126
36.086
43.944
53.8749
66.3909
82.5822
102.25
130.202
161.932
214.664
264.206
349.615
380.824
8.5333
8.82494
9.65836
10.954
12.6367
14.7559
17.4009
20.6786
24.7672
29.8069
36.0828
43.9838
53.9496
66.4713
82.5927
102.087
129.741
161.444
213.834
262.347
347.118
374.739
8.53311
8.82473
9.65809
10.9536
12.6361
14.7549
17.3995
20.6763
24.7636
29.8009
36.0836
44.0279
54.0149
66.5198
82.541
101.858
129.277
160.951
212.964
260.403
344.485
368.229
8.53292
8.82451
9.6578
10.9532
12.6354
14.7539
17.398
20.6739
24.7598
29.7947
36.0896
44.0725
54.0675
66.5347
82.441
101.596
128.84
160.45
212.055
258.384
341.719
361.273
8.53273
8.82428
9.6575
10.9527
12.6348
14.7529
17.3964
20.6713
24.7558
29.7883
36.1008
44.1142
54.1048
66.5193
82.3094
101.326
128.437
159.938
211.108
256.3
338.822
353.848
8.53252
8.82405
9.65719
10.9523
12.6341
14.7519
17.3948
20.6687
24.7517
29.782
36.1168
44.1506
54.1265
66.4784
82.161
101.063
128.063
159.407
210.121
254.157
335.796
345.93
8.53231
8.82381
9.65687
10.9518
12.6333
14.7508
17.3931
20.666
24.7475
29.7759
36.1356
44.1802
54.1326
66.4187
82.0068
100.813
127.708
158.857
209.093
251.964
332.641
337.494
8.53209
8.82356
9.65654
10.9513
12.6326
14.7496
17.3914
20.6632
24.743
29.7701
36.1556
44.2021
54.125
66.3458
81.8537
100.577
127.363
158.285
208.025
249.724
329.354
328.511
8.53186
8.8233
9.65619
10.9508
12.6318
14.7484
17.3896
20.6602
24.7384
29.7647
36.1752
44.216
54.1052
66.2652
81.705
100.352
127.02
157.693
206.917
247.44
325.932
318.951
8.53162
8.82303
9.65584
10.9503
12.631
14.7472
17.3877
20.6572
24.7336
29.7599
36.1933
44.2219
54.0759
66.18
81.5614
100.135
126.677
157.08
205.767
245.113
322.368
308.782
8.53138
8.82275
9.65547
10.9497
12.6302
14.7459
17.3858
20.6541
24.7287
29.7561
36.2091
44.2204
54.0388
66.0933
81.4225
99.9223
126.328
156.449
204.578
242.741
318.652
297.968
8.53113
8.82246
9.65509
10.9491
12.6294
14.7446
17.3838
20.6508
24.7235
29.7535
36.2221
44.2123
53.9963
66.0059
81.2872
99.7114
125.975
155.801
203.349
240.324
314.773
286.473
8.53087
8.82217
9.6547
10.9486
12.6285
14.7433
17.3818
20.6475
24.7183
29.7522
36.2321
44.1983
53.9497
65.919
81.1546
99.5006
125.614
155.136
202.081
237.862
310.721
274.258
8.5306
8.82186
9.6543
10.948
12.6276
14.7419
17.3797
20.644
24.7128
29.7527
36.239
44.1795
53.9005
65.8327
81.0234
99.2886
125.247
154.456
200.774
235.356
306.483
261.281
8.53033
8.82155
9.65388
10.9474
12.6267
14.7405
17.3775
20.6405
24.7072
29.7555
36.2433
44.1568
53.8494
65.7473
80.8929
99.0745
124.873
153.762
199.43
232.81
302.048
247.499
8.53004
8.82123
9.65346
10.9467
12.6257
14.7391
17.3753
20.6368
24.7019
29.7617
36.2452
44.131
53.7974
65.6624
80.7624
98.8579
124.492
153.055
198.048
230.226
297.405
232.865
8.52975
8.8209
9.65302
10.9461
12.6247
14.7376
17.373
20.6331
24.6976
29.772
36.2452
44.1029
53.7446
65.5784
80.6315
98.6386
124.105
152.335
196.632
227.612
292.547
217.331
8.52946
8.82056
9.65257
10.9454
12.6237
14.736
17.3707
20.6292
24.6967
29.7866
36.2436
44.0733
53.6918
65.495
80.4999
98.4164
123.712
151.602
195.184
224.972
287.469
200.844
8.52915
8.82022
9.65211
10.9447
12.6227
14.7344
17.3683
20.6252
24.7024
29.8055
36.2405
44.0425
53.6385
65.4125
80.3675
98.1915
123.314
150.859
193.708
222.311
282.169
183.351
8.52884
8.81986
9.65164
10.944
12.6216
14.7328
17.3658
20.6213
24.7179
29.8281
36.236
44.0112
53.5854
65.3307
80.2342
97.9641
122.91
150.104
192.206
219.63
276.645
164.804
8.52852
8.8195
9.65115
10.9433
12.6206
14.7312
17.3633
20.6183
24.7451
29.8537
36.23
43.9798
53.5318
65.25
80.1001
97.7346
122.502
149.337
190.685
216.928
270.872
145.117
8.52819
8.81912
9.65066
10.9426
12.6194
14.7295
17.3607
20.6189
24.7832
29.881
36.2223
43.9487
53.4783
65.1702
79.9655
97.5035
122.09
148.555
189.149
214.191
264.769
123.549
-18.0112
-26.37
-30.6402
-24.0735
-19.1325
-16.2808
-14.4647
-12.8035
-10.5239
-6.0114
-1.04803
2.6685
1.88627
-3.38576
-3.81965
5.77464
16.5742
21.2746
20.2179
17.1091
14.0715
11.6615
9.44967
7.82106
6.34682
4.13488
0.0263845
-2.40094
-1.27594
9.81015
6.07028
4.58665
2.91709
1.62342
0.695709
-18.0264
-26.371
-30.6665
-24.0725
-19.1277
-16.2769
-14.4633
-12.8024
-10.5229
-6.01124
-1.049
2.66511
1.88673
-3.37826
-3.80814
5.78706
16.586
21.2848
20.224
17.1128
14.0744
11.6641
9.45181
7.82308
6.34846
4.13896
0.027726
-2.39984
-1.32093
9.80424
6.0707
4.5869
2.91714
1.62344
0.695711
-18.0515
-26.3861
-30.7123
-24.0703
-19.1215
-16.2717
-14.462
-12.8018
-10.5231
-6.01132
-1.04965
2.66565
1.89058
-3.36866
-3.79206
5.81244
16.6193
21.3176
20.2462
17.1237
14.0802
11.6685
9.45555
7.82665
6.35164
4.14431
0.0280423
-2.40077
-1.3635
9.79872
6.07121
4.5872
2.9172
1.62347
0.695718
-18.0867
-26.4241
-30.778
-24.0698
-19.1149
-16.2658
-14.4602
-12.8015
-10.5237
-6.01159
-1.05014
2.66796
1.89491
-3.3597
-3.77609
5.84281
16.6655
21.3681
20.2845
17.1432
14.0899
11.6752
9.46105
7.83187
6.3564
4.15002
0.0298117
-2.39722
-1.39667
9.79336
6.07181
4.58753
2.91728
1.62351
0.695732
-18.1317
-26.4892
-30.8602
-24.0723
-19.1068
-16.2588
-14.4576
-12.8015
-10.5247
-6.01207
-1.05019
2.67147
1.89926
-3.35346
-3.76547
5.86742
16.7083
21.4191
20.3274
17.1675
14.1026
11.684
9.46823
7.8386
6.36274
4.15642
0.035218
-2.38907
-1.41777
9.78845
6.07252
4.58788
2.91737
1.62358
0.695751
-18.1853
-26.5852
-30.9552
-24.077
-19.0962
-16.2504
-14.4539
-12.8019
-10.526
-6.01253
-1.04983
2.67598
1.90373
-3.34956
-3.75961
5.88464
16.7415
21.461
20.3668
17.1932
14.1179
11.6949
9.4769
7.84659
6.37043
4.16365
0.0454368
-2.37497
-1.42665
9.784
6.07334
4.58823
2.91747
1.62365
0.695773
-18.2467
-26.715
-31.0592
-24.0837
-19.0829
-16.2405
-14.4492
-12.8029
-10.5275
-6.0129
-1.04901
2.68135
1.90866
-3.34689
-3.75581
5.89723
16.7656
21.4917
20.3985
17.2176
14.1347
11.7074
9.48686
7.85557
6.37914
4.17166
0.0606276
-2.35343
-1.42372
9.78003
6.07426
4.5886
2.91757
1.62372
0.695797
-18.3146
-26.8791
-31.1681
-24.0931
-19.068
-16.2298
-14.4439
-12.8045
-10.5292
-6.0132
-1.04782
2.68714
1.9137
-3.34477
-3.75196
5.9078
16.7828
21.512
20.4212
17.2384
14.1516
11.721
9.4978
7.86524
6.3885
4.18025
0.0802826
-2.32398
-1.4092
9.77644
6.07528
4.58897
2.91767
1.6238
0.69582
-18.388
-27.0759
-31.278
-24.1059
-19.0526
-16.2191
-14.4383
-12.8068
-10.5315
-6.01376
-1.04652
2.69298
1.91836
-3.34317
-3.74776
5.91678
16.7939
21.523
20.4345
17.2537
14.1667
11.7345
9.50921
7.87525
6.39812
4.18915
0.103429
-2.2874
-1.38327
9.77324
6.07639
4.58933
2.91777
1.62387
0.69584
-18.4657
-27.3011
-31.3851
-24.1224
-19.0379
-16.2092
-14.4332
-12.81
-10.5343
-6.01488
-1.04539
2.69814
1.92194
-3.34207
-3.74366
5.92332
16.7989
21.5257
20.4393
17.2624
14.1781
11.7466
9.52032
7.88517
6.4076
4.19802
0.128731
-2.24539
-1.34596
9.77032
6.0776
4.58969
2.91785
1.62394
0.695854
-18.5465
-27.5479
-31.4864
-24.1423
-19.025
-16.2008
-14.429
-12.814
-10.538
-6.01696
-1.0449
2.70228
1.92418
-3.3413
-3.74041
5.92628
16.7979
21.5214
20.4367
17.2646
14.1847
11.7558
9.53014
7.89442
6.41646
4.20654
0.154677
-2.20021
-1.2974
9.76773
6.07889
4.59003
2.91791
1.62398
0.695862
-18.629
-27.8074
-31.5798
-24.1647
-19.0147
-16.1944
-14.4262
-12.819
-10.5427
-6.02024
-1.04536
2.7049
1.92501
-3.34051
-3.73813
5.92554
16.7913
21.5114
20.4286
17.2611
14.1864
11.7613
9.53772
7.90231
6.42419
4.21433
0.179866
-2.15441
-1.23772
9.76542
6.08025
4.59035
2.91794
1.62401
0.69586
-18.7121
-28.0691
-31.6643
-24.1883
-19.0076
-16.1906
-14.4254
-12.825
-10.5486
-6.02494
-1.04708
2.70604
1.92476
-3.33937
-3.73662
5.92169
16.7804
21.4969
20.4164
17.2536
14.1838
11.7631
9.5425
7.90825
6.43028
4.22111
0.203364
-2.11064
-1.16746
9.7635
6.08169
4.59064
2.91795
1.62401
0.695847
-18.7944
-28.3214
-31.7393
-24.2114
-19.004
-16.1896
-14.4269
-12.8321
-10.5559
-6.03114
-1.05013
2.70565
1.92366
-3.33764
-3.73525
5.91595
16.766
21.4788
20.4012
17.2434
14.1784
11.7619
9.54452
7.91193
6.43439
4.22666
0.224931
-2.07145
-1.08768
9.76201
6.0832
4.5909
2.91792
1.62398
0.695821
-18.8745
-28.5529
-31.8044
-24.2319
-19.004
-16.1918
-14.431
-12.8406
-10.5646
-6.03896
-1.05461
2.70425
1.92192
-3.33536
-3.73361
5.90935
16.7491
21.4575
20.3836
17.2316
14.1713
11.7588
9.54436
7.91351
6.43648
4.23097
0.244967
-2.03886
-1.00064
9.76114
6.08476
4.59113
2.91786
1.62393
0.695781
-18.9509
-28.7533
-31.8594
-24.248
-19.0073
-16.1974
-14.4378
-12.8507
-10.5748
-6.04843
-1.06041
2.70199
1.91943
-3.33276
-3.73125
5.90275
16.7302
21.4332
20.3636
17.2184
14.1634
11.7545
9.5428
7.91348
6.43682
4.23418
0.264183
-2.01376
-0.909732
9.761
6.08637
4.59132
2.91775
1.62383
0.695725
-19.0221
-28.9148
-31.9046
-24.2574
-19.0142
-16.2068
-14.4476
-12.8628
-10.5868
-6.05973
-1.06761
2.69938
1.91622
-3.33025
-3.72806
5.89649
16.7094
21.4057
20.341
17.2037
14.1549
11.7498
9.54052
7.91243
6.43586
4.23657
0.28323
-1.99559
-0.819521
9.76178
6.08803
4.59148
2.9176
1.6237
0.695654
-19.0863
-29.0339
-31.9408
-24.2589
-19.0257
-16.2202
-14.4608
-12.8773
-10.6009
-6.07303
-1.07616
2.69629
1.91213
-3.32807
-3.72367
5.89087
16.6865
21.3749
20.3155
17.1875
14.1459
11.7449
9.53796
7.91086
6.43405
4.23842
0.302475
-1.98273
-0.734477
9.76347
6.08971
4.59158
2.9174
1.62353
0.695567
-19.1417
-29.1116
-31.9697
-24.2527
-19.0415
-16.238
-14.4778
-12.8948
-10.6176
-6.08873
-1.08631
2.69303
1.90725
-3.32638
-3.71793
5.88581
16.6614
21.3405
20.2872
17.1696
14.1361
11.7398
9.53532
7.90911
6.43176
4.24
0.322035
-1.97331
-0.658135
9.76612
6.09142
4.59164
2.91716
1.62332
0.695462
-19.1868
-29.1527
-31.9936
-24.2406
-19.0613
-16.2604
-14.4993
-12.9161
-10.6376
-6.10732
-1.09837
2.68906
1.90136
-3.32511
-3.71038
5.88145
16.6338
21.3024
20.2559
17.1498
14.1255
11.7343
9.53263
7.90734
6.42923
4.24149
0.341913
-1.96581
-0.591924
9.76953
6.09315
4.59163
2.91686
1.62306
0.69534
-19.2207
-29.1631
-32.0137
-24.2246
-19.0841
-16.2879
-14.526
-12.9424
-10.662
-6.1296
-1.11302
2.68445
1.89448
-3.32421
-3.7009
5.87761
16.6036
21.2603
20.2215
17.1283
14.1139
11.7284
9.52988
7.90561
6.42658
4.24305
0.362119
-1.95925
-0.535515
9.7736
6.09489
4.59158
2.91652
1.62277
0.695202
-19.2453
-29.1488
-32.0277
-24.2063
-19.1091
-16.321
-14.5591
-12.975
-10.6919
-6.15648
-1.13099
2.67828
1.88611
-3.32364
-3.68915
5.87436
16.5705
21.2142
20.1842
17.105
14.1015
11.7221
9.52702
7.90391
6.42386
4.24474
0.38268
-1.95303
-0.486957
9.77805
6.09663
4.59146
2.91613
1.62243
0.695047
-19.2626
-29.1134
-32.031
-24.1864
-19.1356
-16.3603
-14.5998
-13.0156
-10.7291
-6.18908
-1.15317
2.67062
1.87605
-3.32375
-3.67542
5.8713
16.5342
21.164
20.1438
17.0802
14.0882
11.7153
9.52404
7.9022
6.42108
4.24663
0.403622
-1.94684
-0.443895
9.78279
6.09837
4.59128
2.91569
1.62205
0.694875
-19.2724
-29.0589
-32.0176
-24.1647
-19.1629
-16.4065
-14.6494
-13.0657
-10.7749
-6.22842
-1.18004
2.66063
1.86352
-3.32527
-3.66004
5.86818
16.4944
21.1094
20.1006
17.0539
14.0742
11.7081
9.52093
7.90043
6.41822
4.24873
0.424933
-1.94047
-0.403713
9.78761
6.10011
4.59102
2.9152
1.62162
0.694686
-19.2736
-28.9881
-31.9768
-24.1402
-19.1904
-16.4607
-14.7097
-13.1275
-10.8311
-6.27547
-1.21174
2.64923
1.84845
-3.32962
-3.6444
5.86405
16.4506
21.0506
20.0544
17.0261
14.0595
11.7005
9.51769
7.89855
6.41526
4.25106
0.446572
-1.93385
-0.36442
9.79255
6.10185
4.59069
2.91465
1.62115
0.694483
-19.2656
-28.9044
-31.8936
-24.1108
-19.2177
-16.524
-14.7823
-13.2024
-10.899
-6.33061
-1.24751
2.63651
1.83054
-3.33831
-3.63008
5.858
16.4026
20.9874
20.0055
16.997
14.044
11.6926
9.51433
7.89651
6.41216
4.25363
0.468461
-1.92688
-0.3242
9.79751
6.10358
4.59028
2.91406
1.62064
0.694264
-19.2479
-28.8121
-31.7526
-24.0726
-19.2447
-16.5977
-14.8687
-13.2918
-10.9794
-6.3936
-1.28585
2.62498
1.81088
-3.35255
-3.61946
5.84836
16.3497
20.92
19.954
16.9665
14.028
11.6844
9.51083
7.89425
6.40894
4.25645
0.490512
-1.91958
-0.281987
9.80264
6.10531
4.58978
2.91341
1.62009
0.694031
-19.2205
-28.7171
-31.5452
-24.021
-19.2711
-16.682
-14.969
-13.3953
-11.0717
-6.46291
-1.32426
2.61565
1.79023
-3.37219
-3.61387
5.83399
16.2916
20.8484
19.8999
16.9348
14.0114
11.6759
9.50716
7.89171
6.40554
4.25953
0.512617
-1.91191
-0.23673
9.80789
6.10704
4.5892
2.91271
1.61949
0.693784
-19.1841
-28.6261
-31.274
-23.9506
-19.2973
-16.7763
-15.0817
-13.511
-11.1737
-6.53575
-1.35953
2.61189
1.77053
-3.39582
-3.61407
5.81375
16.228
20.7729
19.8437
16.902
13.9943
11.6673
9.50328
7.88883
6.40198
4.2629
0.534671
-1.90391
-0.188006
9.81347
6.10878
4.58852
2.91196
1.61886
0.693524
-19.1411
-28.5464
-30.9514
-23.8567
-19.324
-16.8784
-15.2025
-13.634
-11.2806
-6.60764
-1.38783
2.61446
1.75256
-3.42055
-3.61852
5.78807
16.1592
20.6941
19.7855
16.868
13.9766
11.6584
9.49914
7.88554
6.39823
4.26657
0.556545
-1.89557
-0.135188
9.81937
6.11053
4.58774
2.91116
1.61818
0.693253
-19.0951
-28.4854
-30.5937
-23.7369
-19.3524
-16.9844
-15.3248
-13.7577
-11.3865
-6.67309
-1.40525
2.62591
1.73782
-3.44323
-3.62523
5.75786
16.0859
20.6124
19.7258
16.8332
13.9586
11.6493
9.49466
7.88178
6.39429
4.27057
0.578116
-1.88696
-0.0781956
9.8258
6.1123
4.58688
2.91032
1.61747
0.69297
-19.0506
-28.4509
-30.2159
-23.5935
-19.3843
-17.0885
-15.4396
-13.8729
-11.4831
-6.72581
-1.4085
2.64508
1.72625
-3.46053
-3.63062
5.72559
16.0095
20.5287
19.6649
16.7975
13.9401
11.64
9.48976
7.87747
6.39013
4.27495
0.599229
-1.87808
-0.0165965
9.83273
6.11409
4.58589
2.90941
1.61672
0.692677
-19.0124
-28.4524
-29.831
-23.4356
-19.4222
-17.1839
-15.5375
-13.9709
-11.5629
-6.76029
-1.39592
2.67169
1.71807
-3.47046
-3.63233
5.69319
15.9314
20.4438
19.6035
16.7613
13.9212
11.6304
9.48433
7.87255
6.38578
4.27973
0.619731
-1.86905
0.0495005
9.84039
6.11592
4.58481
2.90847
1.61593
0.692375
-18.9843
-28.5025
-29.4523
-23.2802
-19.4678
-17.2635
-15.6097
-14.0433
-11.6187
-6.77293
-1.36893
2.70113
1.71154
-3.47204
-3.62752
5.66316
15.853
20.3586
19.5419
16.7246
13.9019
11.6205
9.47826
7.86692
6.38119
4.28498
0.639426
-1.85988
0.120432
9.84873
6.11777
4.58361
2.90746
1.6151
0.692064
-18.9689
-28.6179
-29.0945
-23.1492
-19.5228
-17.3219
-15.6507
-14.0854
-11.6469
-6.76383
-1.33241
2.72914
1.70463
-3.46636
-3.61572
5.63625
15.7754
20.2737
19.4806
16.6879
13.8822
11.6101
9.47145
7.86055
6.3764
4.29076
0.65812
-1.8507
0.195977
9.85795
6.11968
4.5823
2.90641
1.61424
0.691744
-18.9667
-28.8193
-28.7709
-23.0637
-19.5873
-17.3562
-15.6589
-14.0963
-11.6469
-6.73722
-1.29457
2.7488
1.69365
-3.45514
-3.59627
5.61343
15.6991
20.1895
19.4198
16.6514
13.8622
11.5992
9.46375
7.85336
6.37137
4.29715
0.675561
-1.84153
0.276455
9.868
6.12163
4.58086
2.90531
1.61334
0.691416
-18.9754
-29.1294
-28.4903
-23.0382
-19.6601
-17.3672
-15.6377
-14.0796
-11.6228
-6.70114
-1.26404
2.75566
1.67571
-3.44106
-3.57087
5.59383
15.6241
20.106
19.3597
16.6154
13.8419
11.5876
9.45507
7.84533
6.36616
4.30425
0.691493
-1.83256
0.361578
9.87908
6.12365
4.57931
2.90415
1.6124
0.69108
-18.9904
-29.567
-28.255
-23.0771
-19.739
-17.3585
-15.594
-14.041
-11.5808
-6.66509
-1.24718
2.74621
1.6485
-3.42583
-3.54008
5.57753
15.5504
20.0232
19.3002
16.5802
13.8216
11.5752
9.44531
7.83644
6.36073
4.31218
0.705563
-1.82378
0.451726
9.89111
6.12572
4.5776
2.90292
1.61141
0.690733
-19.0057
-30.1342
-28.0618
-23.1764
-19.8212
-17.3356
-15.5362
-13.9875
-11.53
-6.63712
-1.24568
2.72105
1.612
-3.41075
-3.50554
5.56334
15.4775
19.9405
19.2409
16.5457
13.8014
11.5621
9.43446
7.82675
6.35518
4.32105
0.717365
-1.81537
0.546722
9.9043
6.12786
4.57576
2.90164
1.61038
0.690377
-19.0151
-30.7968
-27.9046
-23.326
-19.9035
-17.3043
-15.4717
-13.9248
-11.4807
-6.62091
-1.25771
2.68187
1.56751
-3.39493
-3.46654
5.55126
15.4045
19.8573
19.1814
16.5118
13.7815
11.5484
9.42258
7.8163
6.34946
4.33091
0.726387
-1.8071
0.647104
9.91856
6.13005
4.57373
2.90028
1.60929
0.690009
-19.0109
-31.4647
-27.776
-23.5128
-19.9825
-17.2688
-15.4047
-13.8601
-11.4419
-6.6154
-1.27991
2.6325
1.51878
-3.37627
-3.42366
5.53909
15.3299
19.7728
19.1214
16.4784
13.7623
11.5344
9.40986
7.80517
6.34353
4.34174
0.732401
-1.79891
0.751999
9.93389
6.1323
4.57155
2.89884
1.60814
0.689629
-18.9802
-31.9808
-27.6671
-23.7209
-20.0536
-17.2308
-15.3375
-13.8036
-11.4166
-6.61699
-1.30942
2.5769
1.47107
-3.35185
-3.37801
5.52398
15.2519
19.6866
19.061
16.4458
13.7445
11.5206
9.3964
7.79318
6.33712
4.35377
0.735913
-1.79138
0.858966
9.94958
6.13456
4.56918
2.89732
1.60692
0.689229
-18.9231
-32.1405
-27.5655
-23.9334
-20.1113
-17.1892
-15.2747
-13.7643
-11.4011
-6.62302
-1.34258
2.52246
1.43136
-3.32257
-3.33759
5.49948
15.1693
19.6003
19.0021
16.4154
13.7289
11.5072
9.38176
7.77985
6.33012
4.36793
0.737659
-1.78683
0.964634
9.96582
6.13689
4.56669
2.89572
1.60562
0.688809
-18.9578
-31.7756
-27.4587
-24.1406
-20.1555
-17.1448
-15.226
-13.7425
-11.3911
-6.63184
-1.37568
2.47381
1.39986
-3.29561
-3.31138
5.46404
15.0864
19.5187
18.948
16.3889
13.7152
11.4923
9.36352
7.76362
6.32248
4.38491
0.730821
-1.78287
1.0913
9.98881
6.13954
4.56364
2.89393
1.60424
0.688381
8.52793
8.81883
9.65026
10.942
12.6186
14.7281
17.3586
20.6298
24.8197
29.9025
36.2153
43.925
53.4371
65.1091
79.8616
97.3247
121.769
147.934
187.952
212.024
259.728
101.873
8.52774
8.81861
9.64997
10.9416
12.6179
14.7271
17.357
20.6473
24.8466
29.9161
36.2091
43.9079
53.4085
65.0651
79.7873
97.1965
121.536
147.477
187.084
210.448
255.877
98.9582
8.52754
8.81838
9.64966
10.9411
12.6172
14.7261
17.3554
20.6692
24.8696
29.926
36.2013
43.8903
53.3795
65.0207
79.7118
97.0647
121.295
147.002
186.193
208.812
251.868
100.649
8.52733
8.81813
9.64934
10.9406
12.6165
14.725
17.3537
20.6913
24.8883
29.9326
36.1927
43.8724
53.3507
64.9751
79.6344
96.9279
121.043
146.507
185.278
207.109
247.746
100.549
8.5271
8.81788
9.649
10.9401
12.6158
14.7238
17.3519
20.7103
24.9032
29.9367
36.184
43.8545
53.3218
64.929
79.5551
96.7856
120.78
145.991
184.333
205.338
243.5
98.7644
8.52686
8.81761
9.64864
10.9396
12.615
14.7226
17.35
20.723
24.9146
29.9387
36.1755
43.8366
53.2933
64.8818
79.4737
96.6371
120.504
145.453
183.353
203.5
239.127
96.7246
8.52661
8.81732
9.64826
10.939
12.6141
14.7212
17.348
20.727
24.9226
29.9389
36.1675
43.819
53.2648
64.834
79.39
96.4821
120.213
144.892
182.332
201.598
234.63
94.8252
8.52635
8.81702
9.64786
10.9384
12.6132
14.7199
17.3459
20.7227
24.9274
29.9378
36.1602
43.8016
53.2369
64.7849
79.3038
96.3201
119.905
144.307
181.265
199.631
230.016
92.9037
8.52607
8.81671
9.64744
10.9378
12.6123
14.7184
17.3436
20.7121
24.9292
29.9356
36.1535
43.7847
53.2091
64.735
79.2149
96.1509
119.58
143.696
180.144
197.601
225.288
90.862
8.52578
8.81637
9.647
10.9372
12.6113
14.7168
17.3413
20.6973
24.928
29.9323
36.1475
43.7682
53.1817
64.6838
79.1231
95.9741
119.236
143.058
178.965
195.507
220.45
88.7243
8.52547
8.81602
9.64652
10.9365
12.6102
14.7152
17.3388
20.6794
24.9235
29.928
36.1421
43.752
53.1542
64.6317
79.0281
95.7895
118.873
142.39
177.723
193.347
215.508
86.5256
8.52514
8.81564
9.64603
10.9357
12.6091
14.7135
17.3361
20.6596
24.9155
29.9227
36.137
43.7364
53.1271
64.578
78.9297
95.5967
118.489
141.692
176.412
191.122
210.466
84.2769
8.5248
8.81525
9.6455
10.935
12.608
14.7116
17.3333
20.6387
24.9035
29.916
36.1321
43.721
53.0996
64.523
78.8276
95.3956
118.086
140.962
175.028
188.829
205.33
81.9822
8.52443
8.81483
9.64494
10.9341
12.6067
14.7097
17.3304
20.618
24.8871
29.9075
36.1269
43.706
53.0721
64.4661
78.7215
95.1857
117.661
140.199
173.569
186.468
200.103
79.6504
8.52404
8.81439
9.64435
10.9333
12.6054
14.7076
17.3272
20.5983
24.8656
29.8968
36.1212
43.6911
53.0441
64.4074
78.6109
94.9666
117.215
139.4
172.031
184.037
194.793
77.2936
8.52363
8.81392
9.64373
10.9324
12.604
14.7054
17.3239
20.5805
24.8388
29.8831
36.1142
43.6763
53.0159
64.3463
78.4955
94.7377
116.747
138.565
170.412
181.534
189.401
74.9251
8.5232
8.81342
9.64307
10.9314
12.6025
14.7031
17.3203
20.5651
24.8065
29.8655
36.1053
43.6614
52.9869
64.2828
78.3749
94.4985
116.257
137.691
168.711
178.959
183.935
72.5589
8.52274
8.8129
9.64237
10.9304
12.601
14.7006
17.3166
20.5521
24.7693
29.8432
36.0934
43.6459
52.9574
64.2163
78.2484
94.2482
115.743
136.778
166.927
176.308
178.396
70.2089
8.52225
8.81234
9.64163
10.9293
12.5993
14.698
17.3126
20.5413
24.7283
29.8151
36.0772
43.6295
52.927
64.1468
78.1156
93.9862
115.205
135.824
165.058
173.582
172.79
67.8879
8.52174
8.81175
9.64084
10.9281
12.5976
14.6952
17.3084
20.5322
24.6852
29.7804
36.0551
43.6112
52.8957
64.0736
77.9759
93.7115
114.64
134.827
163.105
170.778
167.121
65.6062
8.52119
8.81113
9.64001
10.9269
12.5957
14.6923
17.3039
20.5241
24.6421
29.7385
36.0251
43.5898
52.8629
63.9968
77.8287
93.4234
114.048
133.785
161.066
167.895
161.392
63.371
8.52061
8.81047
9.63913
10.9256
12.5938
14.6892
17.2991
20.5164
24.6012
29.6898
35.985
43.5635
52.8285
63.9157
77.6731
93.1208
113.428
132.698
158.941
164.932
155.61
61.1848
8.51999
8.80976
9.63819
10.9242
12.5917
14.6859
17.294
20.5087
24.5643
29.6354
35.9327
43.5296
52.791
63.8304
77.5088
92.8028
112.777
131.563
156.729
161.887
149.781
59.0458
8.51934
8.80902
9.63719
10.9227
12.5895
14.6824
17.2886
20.5007
24.5323
29.5775
35.8668
43.4844
52.7493
63.7398
77.3348
92.4684
112.094
130.378
154.431
158.758
143.911
56.9468
8.51864
8.80823
9.63613
10.9212
12.5871
14.6786
17.2829
20.4922
24.505
29.5186
35.7872
43.4231
52.6999
63.6439
77.1505
92.1167
111.377
129.141
152.044
155.544
138.009
54.8758
8.51791
8.80738
9.63501
10.9195
12.5846
14.6747
17.2768
20.4832
24.4815
29.4614
35.6957
43.3409
52.6387
63.5408
76.9549
91.7466
110.625
127.85
149.569
152.244
132.084
52.8162
8.51712
8.80649
9.63381
10.9178
12.582
14.6705
17.2703
20.4735
24.4605
29.4079
35.5962
43.2335
52.558
63.4285
76.7473
91.3571
109.837
126.504
147.005
148.855
126.148
50.7479
8.51629
8.80554
9.63254
10.9159
12.5791
14.6661
17.2634
20.4632
24.4409
29.3591
35.4937
43.0999
52.4488
63.3024
76.5259
90.947
109.01
125.1
144.353
145.376
120.212
48.6483
8.5154
8.80453
9.63119
10.9139
12.5761
14.6613
17.256
20.4522
24.4216
29.3148
35.3933
42.9433
52.3003
63.1553
76.288
90.5152
108.145
123.636
141.611
141.805
114.289
46.4939
8.51446
8.80346
9.62975
10.9118
12.573
14.6563
17.2482
20.4405
24.4019
29.274
35.2986
42.7715
52.1047
62.9752
76.0284
90.0597
107.239
122.111
138.78
138.142
108.393
44.2613
8.51345
8.80231
9.62822
10.9096
12.5696
14.651
17.2399
20.428
24.3815
29.2355
35.2115
42.595
51.8607
62.7475
75.7387
89.5775
106.293
120.523
135.861
134.385
102.538
41.9286
8.51238
8.80109
9.62659
10.9072
12.566
14.6453
17.2311
20.4146
24.36
29.1976
35.1317
42.4234
51.5775
62.4568
75.4044
89.0632
105.303
118.87
132.854
130.534
96.7383
39.477
8.51124
8.7998
9.62485
10.9046
12.5621
14.6393
17.2218
20.4004
24.3371
29.1593
35.0574
42.2631
51.2725
62.0953
75.0065
88.5081
104.268
117.152
129.76
126.589
91.0091
36.8913
8.51003
8.79842
9.623
10.9019
12.558
14.6328
17.2118
20.3853
24.3128
29.1196
34.9862
42.1158
50.9662
61.6682
74.5243
87.8977
103.183
115.366
126.582
122.552
85.3643
34.1614
8.50874
8.79694
9.62103
10.899
12.5537
14.626
17.2012
20.3691
24.2869
29.078
34.9154
41.9797
50.6744
61.196
73.9442
87.2132
102.04
113.512
123.321
118.425
79.818
31.2826
8.50736
8.79538
9.61893
10.896
12.549
14.6187
17.1899
20.3519
24.2593
29.034
34.843
41.8503
50.405
60.7079
73.2691
86.4337
100.829
111.587
119.98
114.212
74.3831
28.2565
8.50589
8.7937
9.61669
10.8927
12.544
14.611
17.1779
20.3336
24.2299
28.9873
34.7676
41.7231
50.1567
60.2309
72.5227
85.5445
99.5339
109.589
116.563
109.918
69.0724
25.0904
8.50432
8.79192
9.61429
10.8892
12.5388
14.6028
17.1651
20.3141
24.1987
28.9376
34.6881
41.5937
49.9224
59.7808
71.7433
84.5457
98.1397
107.518
113.078
105.55
63.898
21.798
8.50264
8.79001
9.61174
10.8854
12.5331
14.594
17.1515
20.2932
24.1655
28.8849
34.6041
41.4591
49.6932
59.3592
70.9693
83.4578
96.6366
105.371
109.536
101.119
58.8717
18.3984
8.50085
8.78798
9.60901
10.8814
12.5271
14.5846
17.1369
20.271
24.1301
28.8288
34.5149
41.3176
49.4609
58.9566
70.2246
82.3165
95.0265
103.152
105.954
96.6373
54.0063
14.9157
8.49894
8.78581
9.6061
10.8772
12.5207
14.5746
17.1215
20.2474
24.0924
28.7691
34.4202
41.168
49.2196
58.5593
69.5126
81.16
93.3262
100.865
102.354
92.1255
49.3157
11.3784
8.4969
8.78349
9.60299
10.8726
12.5138
14.564
17.105
20.2221
24.0522
28.7056
34.3196
41.0095
48.966
58.1543
68.8203
80.0134
91.5631
98.521
98.7673
87.6095
44.8159
7.81884
8.49472
8.78102
9.59967
10.8678
12.5065
14.5526
17.0874
20.1951
24.0095
28.638
34.2127
40.8415
48.6982
57.7324
68.1274
78.882
89.7657
96.1313
95.2262
83.1232
40.5258
4.27266
8.49238
8.77837
9.59612
10.8626
12.4987
14.5405
17.0686
20.1664
23.9639
28.5661
34.0991
40.6632
48.4152
57.2885
67.4152
77.7535
87.9527
93.7025
91.7594
78.7072
36.4665
0.778563
8.48989
8.77554
9.59232
10.857
12.4903
14.5276
17.0486
20.1357
23.9154
28.4896
33.9784
40.474
48.1159
56.8204
66.6707
76.6068
86.1293
91.2323
88.3797
74.404
32.6602
-2.62246
8.48722
8.77252
9.58826
10.8511
12.4814
14.5138
17.0273
20.1029
23.8637
28.4082
33.8501
40.2732
47.7992
56.3267
65.8878
75.4215
84.2868
88.7115
85.0741
70.2504
29.1272
-5.88818
8.48437
8.76928
9.58392
10.8447
12.4719
14.499
17.0045
20.068
23.8086
28.3215
33.7137
40.0601
47.464
55.8062
65.065
74.1837
82.4073
86.1327
81.8018
66.2642
25.8816
-8.97698
8.48131
8.76582
9.57927
10.8379
12.4616
14.4833
16.9802
20.0307
23.7498
28.2292
33.5689
39.8342
47.1095
55.2573
64.202
72.8879
80.4713
83.4927
78.5104
62.4332
22.9242
-11.8507
8.47804
8.76212
9.5743
10.8307
12.4507
14.4665
16.9542
19.9908
23.6872
28.131
33.4149
39.5945
46.7347
54.6788
63.2983
71.5344
78.4662
80.7891
75.1602
58.7128
20.235
-14.4782
8.47454
8.75815
9.56898
10.8229
12.4391
14.4485
16.9265
19.9483
23.6204
28.0265