/*--------------------------------*- C++ -*----------------------------------*\
| =========                 |                                                 |
| \\      /  F ield         | OpenFOAM: The Open Source CFD Toolbox           |
|  \\    /   O peration     | Version:  v1912                                 |
|   \\  /    A nd           | Website:  www.openfoam.com                      |
|    \\/     M anipulation  |                                                 |
\*---------------------------------------------------------------------------*/
FoamFile
{
    version     2.0;
    format      ascii;
    class       surfaceScalarField;
    location    "260";
    object      phi;
}
// * * * * * * * * * * * * * * * * * * * * * * * * * * * * * * * * * * * * * //

dimensions      [0 3 -1 0 0 0 0];
oriented        oriented;


internalField   nonuniform List<scalar> 
24588
(
6.81688e-05
1.92287e-08
6.81164e-05
5.30199e-08
6.8034e-05
8.21053e-08
6.79216e-05
1.12335e-07
6.7775e-05
1.46055e-07
6.759e-05
1.84923e-07
6.73592e-05
2.30857e-07
6.70696e-05
2.89508e-07
6.67106e-05
3.59624e-07
6.62606e-05
4.50104e-07
6.57073e-05
5.5444e-07
6.50106e-05
7.25956e-07
6.40539e-05
8.63427e-07
6.29773e-05
1.17117e-06
6.14903e-05
1.45755e-06
5.91906e-05
2.30751e-06
5.63231e-05
2.86509e-06
5.16197e-05
4.70361e-06
4.5009e-05
6.6106e-06
3.38668e-05
1.11418e-05
2.01578e-05
1.3709e-05
2.01579e-05
6.81691e-05
3.89245e-08
6.81163e-05
1.0667e-07
6.80338e-05
1.64106e-07
6.79216e-05
2.24481e-07
6.77751e-05
2.91839e-07
6.75902e-05
3.69759e-07
6.73592e-05
4.61915e-07
6.70698e-05
5.7876e-07
6.6711e-05
7.19275e-07
6.62615e-05
8.99692e-07
6.5706e-05
1.1114e-06
6.50248e-05
1.44031e-06
6.40383e-05
1.74736e-06
6.29677e-05
2.33595e-06
6.14749e-05
2.91966e-06
5.92547e-05
4.5348e-06
5.63375e-05
5.7781e-06
5.15904e-05
9.45066e-06
4.50561e-05
1.31448e-05
3.37704e-05
2.24269e-05
2.01155e-05
2.73638e-05
4.02734e-05
6.81691e-05
5.86213e-08
6.81163e-05
1.60327e-07
6.80338e-05
2.46145e-07
6.79215e-05
3.36677e-07
6.77751e-05
4.37674e-07
6.75901e-05
5.54618e-07
6.73591e-05
6.92988e-07
6.70697e-05
8.68e-07
6.67109e-05
1.07888e-06
6.62613e-05
1.34929e-06
6.57068e-05
1.66731e-06
6.50214e-05
2.16005e-06
6.40405e-05
2.61946e-06
6.29793e-05
3.50771e-06
6.14801e-05
4.38509e-06
5.92892e-05
6.735e-06
5.63344e-05
8.7277e-06
5.161e-05
1.41756e-05
4.50308e-05
1.9724e-05
3.37894e-05
3.36675e-05
2.01351e-05
4.10181e-05
6.04085e-05
6.81691e-05
7.83175e-08
6.81163e-05
2.13935e-07
6.80338e-05
3.28139e-07
6.79216e-05
4.48822e-07
6.77751e-05
5.8344e-07
6.75902e-05
7.39448e-07
6.73592e-05
9.24065e-07
6.70698e-05
1.1573e-06
6.67109e-05
1.43861e-06
6.62613e-05
1.79897e-06
6.5706e-05
2.22412e-06
6.50239e-05
2.8753e-06
6.40381e-05
3.5041e-06
6.29648e-05
4.67174e-06
6.14688e-05
5.85159e-06
5.93077e-05
8.90325e-06
5.63571e-05
1.16735e-05
5.16248e-05
1.89079e-05
4.50186e-05
2.63299e-05
3.38166e-05
4.48688e-05
2.01683e-05
5.46663e-05
8.05768e-05
6.81691e-05
9.80102e-08
6.81163e-05
2.67542e-07
6.80338e-05
4.10175e-07
6.79215e-05
5.61028e-07
6.77751e-05
7.29264e-07
6.75902e-05
9.24306e-07
6.73592e-05
1.15516e-06
6.70697e-05
1.44656e-06
6.67109e-05
1.79824e-06
6.62613e-05
2.24858e-06
6.57067e-05
2.78007e-06
6.50197e-05
3.59618e-06
6.40403e-05
4.37379e-06
6.29783e-05
5.84442e-06
6.14751e-05
7.32057e-06
5.93163e-05
1.10713e-05
5.63821e-05
1.46024e-05
5.16256e-05
2.36651e-05
4.50355e-05
3.292e-05
3.38608e-05
5.60427e-05
2.02162e-05
6.83109e-05
0.000100793
6.81691e-05
1.17706e-07
6.81163e-05
3.21106e-07
6.80339e-05
4.92151e-07
6.79216e-05
6.73159e-07
6.77752e-05
8.74989e-07
6.75903e-05
1.10912e-06
6.73593e-05
1.38624e-06
6.70698e-05
1.73589e-06
6.67109e-05
2.15801e-06
6.62613e-05
2.69831e-06
6.57058e-05
3.33709e-06
6.50238e-05
4.31093e-06
6.40388e-05
5.26101e-06
6.29619e-05
7.00676e-06
6.14636e-05
8.79106e-06
5.93151e-05
1.32264e-05
5.63979e-05
1.75149e-05
5.16348e-05
2.84282e-05
4.50654e-05
3.94891e-05
3.39247e-05
6.71827e-05
2.02807e-05
8.1955e-05
0.000121074
6.81691e-05
1.37399e-07
6.81163e-05
3.74673e-07
6.80338e-05
5.74179e-07
6.79216e-05
7.85371e-07
6.77751e-05
1.02078e-06
6.75902e-05
1.29397e-06
6.73592e-05
1.61733e-06
6.70698e-05
2.02515e-06
6.67109e-05
2.51764e-06
6.62613e-05
3.14786e-06
6.57064e-05
3.8934e-06
6.50183e-05
5.03191e-06
6.40424e-05
6.12784e-06
6.29798e-05
8.18193e-06
6.14723e-05
1.02634e-05
5.93095e-05
1.53985e-05
5.64135e-05
2.04063e-05
5.1653e-05
3.31896e-05
4.51102e-05
4.6032e-05
3.40145e-05
7.82777e-05
2.03644e-05
9.56051e-05
0.000141438
6.81691e-05
1.57096e-07
6.81163e-05
4.28198e-07
6.80339e-05
6.56139e-07
6.79216e-05
8.97486e-07
6.77752e-05
1.16646e-06
6.75904e-05
1.47877e-06
6.73594e-05
1.84841e-06
6.70699e-05
2.31449e-06
6.6711e-05
2.87743e-06
6.62613e-05
3.59759e-06
6.57056e-05
4.45068e-06
6.50247e-05
5.74527e-06
6.40413e-05
7.01861e-06
6.29599e-05
9.34277e-06
6.14534e-05
1.17425e-05
5.92948e-05
1.75622e-05
5.64305e-05
2.32669e-05
5.16938e-05
3.79262e-05
4.51825e-05
5.25428e-05
3.41396e-05
8.932e-05
2.04707e-05
0.000109274
0.000161909
6.81691e-05
1.76788e-07
6.81163e-05
4.8173e-07
6.80338e-05
7.38162e-07
6.79216e-05
1.0097e-06
6.77751e-05
1.31222e-06
6.75903e-05
1.6636e-06
6.73593e-05
2.07949e-06
6.70698e-05
2.60375e-06
6.6711e-05
3.23703e-06
6.62616e-05
4.04699e-06
6.57061e-05
5.00753e-06
6.50169e-05
6.466e-06
6.40424e-05
7.88285e-06
6.29717e-05
1.05244e-05
6.14472e-05
1.32369e-05
5.92968e-05
1.97192e-05
5.64331e-05
2.61285e-05
5.17781e-05
4.25821e-05
4.52964e-05
5.90247e-05
3.4309e-05
0.000100307
2.06035e-05
0.000122979
0.000182512
6.81691e-05
1.96485e-07
6.81163e-05
5.35218e-07
6.80339e-05
8.2011e-07
6.79217e-05
1.12179e-06
6.77753e-05
1.45785e-06
6.75904e-05
1.84838e-06
6.73595e-05
2.31056e-06
6.707e-05
2.89309e-06
6.67111e-05
3.59682e-06
6.62615e-05
4.49666e-06
6.5705e-05
5.56558e-06
6.50275e-05
7.17538e-06
6.40434e-05
8.7835e-06
6.29413e-05
1.16974e-05
6.14175e-05
1.47405e-05
5.93132e-05
2.18252e-05
5.64269e-05
2.90129e-05
5.19029e-05
4.71058e-05
4.54541e-05
6.54731e-05
3.45256e-05
0.000111235
2.07657e-05
0.000136739
0.000203278
6.8169e-05
2.16176e-07
6.81163e-05
5.88717e-07
6.80339e-05
9.02134e-07
6.79216e-05
1.234e-06
6.77752e-05
1.60358e-06
6.75903e-05
2.0332e-06
6.73593e-05
2.54162e-06
6.70699e-05
3.18233e-06
6.67112e-05
3.95637e-06
6.6262e-05
4.94574e-06
6.57055e-05
6.12351e-06
6.50171e-05
7.89327e-06
6.40303e-05
9.66477e-06
6.2928e-05
1.28909e-05
6.14021e-05
1.6251e-05
5.93313e-05
2.38996e-05
5.64307e-05
3.19129e-05
5.20478e-05
5.14895e-05
4.56395e-05
7.18816e-05
3.47828e-05
0.000122092
2.09583e-05
0.000150564
0.000224236
6.8169e-05
2.35871e-07
6.81163e-05
6.42168e-07
6.80339e-05
9.84077e-07
6.79217e-05
1.34608e-06
6.77753e-05
1.74916e-06
6.75905e-05
2.21795e-06
6.73596e-05
2.77266e-06
6.70701e-05
3.47165e-06
6.67113e-05
4.31611e-06
6.62619e-05
5.39516e-06
6.57034e-05
6.68362e-06
6.50259e-05
8.59994e-06
6.40295e-05
1.05944e-05
6.29133e-05
1.40498e-05
6.13883e-05
1.77671e-05
5.93468e-05
2.59408e-05
5.64472e-05
3.48116e-05
5.21851e-05
5.57512e-05
4.58297e-05
7.82368e-05
3.50672e-05
0.000132854
2.11802e-05
0.000164451
0.000245417
6.8169e-05
2.55559e-07
6.81163e-05
6.95634e-07
6.80339e-05
1.06611e-06
6.79216e-05
1.45829e-06
6.77752e-05
1.89486e-06
6.75904e-05
2.40276e-06
6.73594e-05
3.00367e-06
6.70701e-05
3.76088e-06
6.67113e-05
4.67562e-06
6.62623e-05
5.84409e-06
6.57027e-05
7.24447e-06
6.50163e-05
9.31209e-06
6.40228e-05
1.15042e-05
6.29142e-05
1.52011e-05
6.13827e-05
1.9294e-05
5.93578e-05
2.79675e-05
5.64685e-05
3.7701e-05
5.22975e-05
5.99228e-05
4.60085e-05
8.4526e-05
3.53651e-05
0.000143497
2.14283e-05
0.000178387
0.000266845
6.8169e-05
2.7525e-07
6.81163e-05
7.49047e-07
6.80339e-05
1.14805e-06
6.79217e-05
1.57035e-06
6.77754e-05
2.0404e-06
6.75906e-05
2.58749e-06
6.73597e-05
3.23466e-06
6.70703e-05
4.05017e-06
6.67115e-05
5.0353e-06
6.62622e-05
6.29352e-06
6.56981e-05
7.80994e-06
6.50123e-05
1.00208e-05
6.40407e-05
1.24446e-05
6.29149e-05
1.63371e-05
6.13786e-05
2.08275e-05
5.93649e-05
2.99802e-05
5.6488e-05
4.05774e-05
5.23838e-05
6.40265e-05
4.61698e-05
9.07398e-05
3.56662e-05
0.000154001
2.16988e-05
0.000192355
0.000288544
6.8169e-05
2.94934e-07
6.81163e-05
8.02479e-07
6.80339e-05
1.23009e-06
6.79216e-05
1.68256e-06
6.77753e-05
2.18608e-06
6.75904e-05
2.77228e-06
6.73596e-05
3.46562e-06
6.70702e-05
4.33935e-06
6.67116e-05
5.39469e-06
6.62624e-05
6.74263e-06
6.56933e-05
8.38022e-06
6.49955e-05
1.07368e-05
6.40512e-05
1.33502e-05
6.29145e-05
1.74913e-05
6.1376e-05
2.23648e-05
5.93689e-05
3.19887e-05
5.65034e-05
4.34431e-05
5.24498e-05
6.80807e-05
4.63129e-05
9.6877e-05
3.5964e-05
0.000164349
2.19876e-05
0.000206331
0.000310531
6.8169e-05
3.1462e-07
6.81164e-05
8.55854e-07
6.80339e-05
1.31204e-06
6.79218e-05
1.7946e-06
6.77755e-05
2.33158e-06
6.75907e-05
2.95699e-06
6.73598e-05
3.69656e-06
6.70705e-05
4.62855e-06
6.67119e-05
5.75413e-06
6.62626e-05
7.19207e-06
6.56845e-05
8.95969e-06
6.49841e-05
1.14508e-05
6.40572e-05
1.42732e-05
6.29123e-05
1.86357e-05
6.1374e-05
2.3902e-05
5.9371e-05
3.39909e-05
5.65147e-05
4.6299e-05
5.25013e-05
7.20937e-05
4.64398e-05
0.000102938
3.62554e-05
0.000174534
2.22911e-05
0.000220295
0.000332822
6.8169e-05
3.34297e-07
6.81163e-05
9.09251e-07
6.80339e-05
1.3941e-06
6.79217e-05
1.90681e-06
6.77753e-05
2.47724e-06
6.75905e-05
3.14176e-06
6.73597e-05
3.92745e-06
6.70705e-05
4.91757e-06
6.67122e-05
6.11324e-06
6.62632e-05
7.64085e-06
6.56728e-05
9.55123e-06
6.49763e-05
1.2155e-05
6.4058e-05
1.51728e-05
6.29106e-05
1.9792e-05
6.13726e-05
2.54396e-05
5.93717e-05
3.59928e-05
5.65226e-05
4.91483e-05
5.25432e-05
7.60736e-05
4.65535e-05
0.000108928
3.65391e-05
0.000184548
2.26067e-05
0.000234228
0.000355429
6.8169e-05
3.53977e-07
6.81164e-05
9.62587e-07
6.8034e-05
1.47605e-06
6.79218e-05
2.01883e-06
6.77755e-05
2.6227e-06
6.75908e-05
3.32643e-06
6.736e-05
4.15832e-06
6.70708e-05
5.2066e-06
6.67125e-05
6.47244e-06
6.62638e-05
8.08963e-06
6.56622e-05
1.0154e-05
6.49722e-05
1.28497e-05
6.40577e-05
1.6091e-05
6.2909e-05
2.09376e-05
6.13716e-05
2.69764e-05
5.93718e-05
3.79919e-05
5.65283e-05
5.19915e-05
5.2579e-05
8.00225e-05
4.66571e-05
0.00011485
3.68154e-05
0.00019439
2.29324e-05
0.000248111
0.000378362
6.8169e-05
3.73647e-07
6.81164e-05
1.01595e-06
6.80339e-05
1.55813e-06
6.79217e-05
2.13104e-06
6.77753e-05
2.76834e-06
6.75906e-05
3.51117e-06
6.73598e-05
4.38915e-06
6.70708e-05
5.49547e-06
6.67126e-05
6.83137e-06
6.62637e-05
8.53836e-06
6.56562e-05
1.07624e-05
6.49692e-05
1.35385e-05
6.40569e-05
1.69925e-05
6.29078e-05
2.2093e-05
6.1371e-05
2.85132e-05
5.93715e-05
3.99922e-05
5.65325e-05
5.48306e-05
5.26114e-05
8.3944e-05
4.67535e-05
0.000120708
3.70855e-05
0.000204058
2.3267e-05
0.000261929
0.000401629
6.8169e-05
3.9332e-07
6.81164e-05
1.06925e-06
6.8034e-05
1.64009e-06
6.79218e-05
2.24304e-06
6.77756e-05
2.91377e-06
6.75909e-05
3.6958e-06
6.73601e-05
4.61997e-06
6.70711e-05
5.78438e-06
6.67129e-05
7.1904e-06
6.62599e-05
8.99151e-06
6.56563e-05
1.13668e-05
6.49671e-05
1.42291e-05
6.40564e-05
1.79085e-05
6.2907e-05
2.3239e-05
6.13707e-05
3.00491e-05
5.93712e-05
4.1991e-05
5.65363e-05
5.76653e-05
5.26425e-05
8.78374e-05
4.68453e-05
0.000126505
3.73509e-05
0.000213552
2.36099e-05
0.00027567
0.000425238
6.8169e-05
4.12981e-07
6.81164e-05
1.12257e-06
6.80339e-05
1.72218e-06
6.79217e-05
2.35525e-06
6.77754e-05
3.05939e-06
6.75907e-05
3.88051e-06
6.736e-05
4.85075e-06
6.7071e-05
6.07317e-06
6.67132e-05
7.549e-06
6.62512e-05
9.4532e-06
6.56619e-05
1.19565e-05
6.49656e-05
1.49258e-05
6.4056e-05
1.88101e-05
6.29065e-05
2.43935e-05
6.13708e-05
3.15848e-05
5.93713e-05
4.39912e-05
5.65404e-05
6.04963e-05
5.26739e-05
9.17044e-05
4.69347e-05
0.000132245
3.76137e-05
0.000222873
2.39611e-05
0.000289323
0.0004492
6.8169e-05
4.32646e-07
6.81164e-05
1.17583e-06
6.8034e-05
1.80415e-06
6.79219e-05
2.46723e-06
6.77756e-05
3.20478e-06
6.7591e-05
4.0651e-06
6.73603e-05
5.08151e-06
6.70713e-05
6.36209e-06
6.67137e-05
7.90742e-06
6.62416e-05
9.92534e-06
6.56684e-05
1.25301e-05
6.49646e-05
1.56303e-05
6.40558e-05
1.97241e-05
6.29063e-05
2.55396e-05
6.13713e-05
3.31194e-05
5.93721e-05
4.59898e-05
5.65455e-05
6.33227e-05
5.27066e-05
9.55429e-05
4.70235e-05
0.000137928
3.78759e-05
0.00023202
2.4321e-05
0.000302878
0.000473521
6.8169e-05
4.523e-07
6.81164e-05
1.22912e-06
6.80339e-05
1.88626e-06
6.79217e-05
2.57943e-06
6.77755e-05
3.35038e-06
6.75908e-05
4.24978e-06
6.73601e-05
5.3122e-06
6.70712e-05
6.6509e-06
6.67142e-05
8.26516e-06
6.62347e-05
1.04045e-05
6.56727e-05
1.30921e-05
6.4964e-05
1.63391e-05
6.40559e-05
2.06256e-05
6.29064e-05
2.66935e-05
6.13725e-05
3.46534e-05
5.9374e-05
4.7989e-05
5.65521e-05
6.61447e-05
5.27415e-05
9.93539e-05
4.71131e-05
0.000143556
3.81398e-05
0.000240993
2.46904e-05
0.000316327
0.000498211
6.8169e-05
4.71956e-07
6.81164e-05
1.28234e-06
6.8034e-05
1.96824e-06
6.79219e-05
2.69139e-06
6.77757e-05
3.49573e-06
6.75911e-05
4.43433e-06
6.73605e-05
5.54288e-06
6.70715e-05
6.93979e-06
6.67147e-05
8.62281e-06
6.62307e-05
1.08886e-05
6.56748e-05
1.36482e-05
6.49637e-05
1.70507e-05
6.40561e-05
2.15382e-05
6.29068e-05
2.78395e-05
6.13742e-05
3.61857e-05
5.93772e-05
4.99854e-05
5.65608e-05
6.89609e-05
5.27789e-05
0.000103135
4.72045e-05
0.000149131
3.84074e-05
0.000249791
2.50703e-05
0.000329664
0.000523281
6.8169e-05
4.91601e-07
6.81164e-05
1.33559e-06
6.8034e-05
2.05037e-06
6.79218e-05
2.80358e-06
6.77755e-05
3.64131e-06
6.75909e-05
4.61896e-06
6.73603e-05
5.77349e-06
6.70715e-05
7.22847e-06
6.67149e-05
8.98011e-06
6.62285e-05
1.13746e-05
6.56756e-05
1.4201e-05
6.49635e-05
1.77627e-05
6.40565e-05
2.24394e-05
6.29076e-05
2.89924e-05
6.13767e-05
3.77167e-05
5.93821e-05
5.19807e-05
5.65717e-05
7.17714e-05
5.2819e-05
0.000106888
4.72985e-05
0.000154651
3.86811e-05
0.000258408
2.54621e-05
0.000342883
0.000548744
6.8169e-05
5.11247e-07
6.81164e-05
1.38877e-06
6.80341e-05
2.13235e-06
6.7922e-05
2.91551e-06
6.77758e-05
3.78662e-06
6.75912e-05
4.80345e-06
6.73607e-05
6.00412e-06
6.7072e-05
7.5171e-06
6.67138e-05
9.33907e-06
6.62282e-05
1.18603e-05
6.5676e-05
1.47534e-05
6.49636e-05
1.84754e-05
6.4057e-05
2.33508e-05
6.29087e-05
3.01375e-05
6.13799e-05
3.92452e-05
5.93887e-05
5.39713e-05
5.65852e-05
7.45747e-05
5.28618e-05
0.000110612
4.73957e-05
0.000160117
3.89631e-05
0.00026684
2.58671e-05
0.000355979
0.000574611
6.8169e-05
5.30883e-07
6.81164e-05
1.44199e-06
6.8034e-05
2.2145e-06
6.79218e-05
3.0277e-06
6.77756e-05
3.93218e-06
6.7591e-05
4.98802e-06
6.73605e-05
6.23472e-06
6.70721e-05
7.80533e-06
6.67087e-05
9.70316e-06
6.62314e-05
1.23371e-05
6.56762e-05
1.53085e-05
6.49638e-05
1.91877e-05
6.40577e-05
2.42515e-05
6.29103e-05
3.12888e-05
6.13841e-05
4.07716e-05
5.93971e-05
5.5959e-05
5.66012e-05
7.73708e-05
5.29072e-05
0.000114306
4.74961e-05
0.000165529
3.92552e-05
0.000275081
2.6287e-05
0.000368947
0.000600898
6.8169e-05
5.5052e-07
6.81164e-05
1.49513e-06
6.80341e-05
2.29649e-06
6.7922e-05
3.1396e-06
6.77759e-05
4.07745e-06
6.75914e-05
5.17243e-06
6.73608e-05
6.46538e-06
6.70727e-05
8.09334e-06
6.67014e-05
1.00752e-05
6.62364e-05
1.28023e-05
6.56764e-05
1.58686e-05
6.49642e-05
1.99002e-05
6.40586e-05
2.51618e-05
6.29123e-05
3.24319e-05
6.13891e-05
4.22945e-05
5.94073e-05
5.79401e-05
5.66198e-05
8.01582e-05
5.29552e-05
0.00011797
4.76001e-05
0.000170884
3.95592e-05
0.000283122
2.67233e-05
0.000381783
0.000627621
6.8169e-05
5.70146e-07
6.81164e-05
1.54831e-06
6.8034e-05
2.37865e-06
6.79218e-05
3.25178e-06
6.77756e-05
4.223e-06
6.75912e-05
5.35691e-06
6.73606e-05
6.69601e-06
6.70729e-05
8.38091e-06
6.66957e-05
1.0453e-05
6.62403e-05
1.32573e-05
6.56767e-05
1.64321e-05
6.49646e-05
2.06122e-05
6.40596e-05
2.60617e-05
6.29147e-05
3.35807e-05
6.1395e-05
4.38144e-05
5.94192e-05
5.99166e-05
5.66409e-05
8.29367e-05
5.30058e-05
0.000121605
4.77076e-05
0.000176182
3.98764e-05
0.000290953
2.71773e-05
0.000394482
0.000654798
6.8169e-05
5.89774e-07
6.81164e-05
1.60141e-06
6.80341e-05
2.46064e-06
6.79221e-05
3.36364e-06
6.7776e-05
4.36824e-06
6.75916e-05
5.54124e-06
6.7361e-05
6.92668e-06
6.70735e-05
8.66833e-06
6.66922e-05
1.08349e-05
6.62428e-05
1.37068e-05
6.5677e-05
1.69979e-05
6.49652e-05
2.13243e-05
6.40609e-05
2.69705e-05
6.29175e-05
3.47208e-05
6.14017e-05
4.53298e-05
5.94327e-05
6.18849e-05
5.66646e-05
8.57045e-05
5.30589e-05
0.000125211
4.78183e-05
0.000181422
4.02075e-05
0.000298564
2.76504e-05
0.000407039
0.000682449
6.8169e-05
6.09391e-07
6.81164e-05
1.65456e-06
6.8034e-05
2.54282e-06
6.79219e-05
3.47581e-06
6.77757e-05
4.51376e-06
6.75913e-05
5.72564e-06
6.73608e-05
7.15727e-06
6.70736e-05
8.95542e-06
6.66899e-05
1.12191e-05
6.62446e-05
1.41518e-05
6.56775e-05
1.7565e-05
6.49659e-05
2.20358e-05
6.40622e-05
2.78692e-05
6.29208e-05
3.58662e-05
6.14092e-05
4.68416e-05
5.94476e-05
6.38473e-05
5.66909e-05
8.84614e-05
5.31146e-05
0.000128787
4.79321e-05
0.000186605
4.05531e-05
0.000305943
2.81433e-05
0.000419449
0.000710592
6.8169e-05
6.29009e-07
6.81165e-05
1.70761e-06
6.80341e-05
2.62481e-06
6.79221e-05
3.58764e-06
6.77761e-05
4.65895e-06
6.75918e-05
5.9099e-06
6.73613e-05
7.38787e-06
6.70741e-05
9.24252e-06
6.66888e-05
1.1605e-05
6.62461e-05
1.45946e-05
6.5678e-05
1.81331e-05
6.49667e-05
2.27474e-05
6.40638e-05
2.87764e-05
6.29244e-05
3.70024e-05
6.14174e-05
4.83483e-05
5.94639e-05
6.58001e-05
5.67196e-05
9.12054e-05
5.3173e-05
0.000132334
4.80488e-05
0.000191729
4.09129e-05
0.000313079
2.86569e-05
0.000431705
0.000739249
6.8169e-05
6.48618e-07
6.81164e-05
1.76073e-06
6.80341e-05
2.70699e-06
6.79219e-05
3.69979e-06
6.77758e-05
4.80444e-06
6.75915e-05
6.09424e-06
6.73611e-05
7.61831e-06
6.7074e-05
9.52945e-06
6.66881e-05
1.19915e-05
6.62473e-05
1.50351e-05
6.56786e-05
1.87017e-05
6.49675e-05
2.34585e-05
6.40656e-05
2.96736e-05
6.29284e-05
3.81435e-05
6.14262e-05
4.98507e-05
5.94815e-05
6.77456e-05
5.67509e-05
9.39362e-05
5.32341e-05
0.000135851
4.81684e-05
0.000196795
4.12866e-05
0.000319961
2.91912e-05
0.0004438
0.00076844
6.8169e-05
6.68227e-07
6.81165e-05
1.81375e-06
6.80342e-05
2.78899e-06
6.79222e-05
3.81159e-06
6.77762e-05
4.94958e-06
6.75919e-05
6.27843e-06
6.73616e-05
7.84873e-06
6.70745e-05
9.81651e-06
6.66879e-05
1.23785e-05
6.62484e-05
1.54747e-05
6.56793e-05
1.92708e-05
6.49685e-05
2.41696e-05
6.40675e-05
3.05788e-05
6.29327e-05
3.92749e-05
6.14357e-05
5.13473e-05
5.95004e-05
6.96802e-05
5.67848e-05
9.66516e-05
5.32982e-05
0.000139337
4.82908e-05
0.000201802
4.16738e-05
0.000326578
2.97466e-05
0.000455728
0.000798187
6.8169e-05
6.87828e-07
6.81165e-05
1.86683e-06
6.80341e-05
2.87118e-06
6.7922e-05
3.92372e-06
6.77759e-05
5.09503e-06
6.75916e-05
6.46273e-06
6.73615e-05
8.07892e-06
6.70743e-05
1.01036e-05
6.66878e-05
1.27655e-05
6.62495e-05
1.59128e-05
6.56801e-05
1.98402e-05
6.49695e-05
2.48801e-05
6.40696e-05
3.14742e-05
6.29374e-05
4.04112e-05
6.14457e-05
5.28393e-05
5.95205e-05
7.16063e-05
5.68211e-05
9.93512e-05
5.33653e-05
0.000142793
4.84163e-05
0.000206752
4.2074e-05
0.00033292
3.03231e-05
0.000467478
0.00082851
6.8169e-05
7.07429e-07
6.81165e-05
1.91982e-06
6.80342e-05
2.95317e-06
6.79222e-05
4.03548e-06
6.77763e-05
5.2401e-06
6.75921e-05
6.64689e-06
6.73621e-05
8.30906e-06
6.70744e-05
1.03911e-05
6.66883e-05
1.31521e-05
6.62506e-05
1.63505e-05
6.5681e-05
2.04099e-05
6.49707e-05
2.55906e-05
6.40718e-05
3.23773e-05
6.29424e-05
4.15373e-05
6.14564e-05
5.43248e-05
5.95418e-05
7.35202e-05
5.68599e-05
0.000102033
5.34356e-05
0.000146217
4.85451e-05
0.000211642
4.24871e-05
0.000338978
3.09208e-05
0.000479045
0.00085943
6.8169e-05
7.27024e-07
6.81165e-05
1.97288e-06
6.80341e-05
3.03536e-06
6.7922e-05
4.14759e-06
6.7776e-05
5.38549e-06
6.75918e-05
6.83116e-06
6.7362e-05
8.53892e-06
6.70717e-05
1.06813e-05
6.66906e-05
1.35335e-05
6.62517e-05
1.67892e-05
6.56819e-05
2.09796e-05
6.49719e-05
2.63004e-05
6.40743e-05
3.32704e-05
6.29477e-05
4.2668e-05
6.14675e-05
5.58054e-05
5.95642e-05
7.54244e-05
5.69011e-05
0.000104696
5.35092e-05
0.00014961
4.86778e-05
0.000216473
4.29133e-05
0.000344742
3.15401e-05
0.000490418
0.000890971
6.8169e-05
7.46618e-07
6.81165e-05
2.02582e-06
6.80343e-05
3.11735e-06
6.79223e-05
4.25932e-06
6.77765e-05
5.53047e-06
6.75923e-05
7.01529e-06
6.73626e-05
8.76874e-06
6.70633e-05
1.09804e-05
6.66985e-05
1.38985e-05
6.62527e-05
1.72351e-05
6.56828e-05
2.15495e-05
6.49733e-05
2.70102e-05
6.40768e-05
3.4171e-05
6.29533e-05
4.37881e-05
6.14792e-05
5.7279e-05
5.95877e-05
7.73151e-05
5.69448e-05
0.000107339
5.35865e-05
0.000152967
4.88146e-05
0.000221245
4.33528e-05
0.000350204
3.21815e-05
0.000501589
0.000923152
6.8169e-05
7.66204e-07
6.81165e-05
2.07885e-06
6.80342e-05
3.19954e-06
6.79221e-05
4.37142e-06
6.77762e-05
5.67581e-06
6.7592e-05
7.1995e-06
6.73624e-05
8.99837e-06
6.70565e-05
1.12862e-05
6.67048e-05
1.42502e-05
6.62537e-05
1.76861e-05
6.56839e-05
2.21193e-05
6.49747e-05
2.77193e-05
6.40796e-05
3.50615e-05
6.29592e-05
4.49126e-05
6.14914e-05
5.87473e-05
5.96123e-05
7.91951e-05
5.69907e-05
0.000109961
5.36676e-05
0.000156291
4.89559e-05
0.000225957
4.38062e-05
0.000355354
3.28457e-05
0.00051255
0.000955998
6.8169e-05
7.85791e-07
6.81165e-05
2.13175e-06
6.80343e-05
3.28151e-06
6.79224e-05
4.48311e-06
6.77766e-05
5.82072e-06
6.75925e-05
7.38353e-06
6.73629e-05
9.22813e-06
6.70544e-05
1.15946e-05
6.67072e-05
1.45973e-05
6.62546e-05
1.81388e-05
6.56849e-05
2.26891e-05
6.49762e-05
2.84282e-05
6.40825e-05
3.59597e-05
6.29653e-05
4.6026e-05
6.15041e-05
6.02078e-05
5.9638e-05
8.10603e-05
5.70388e-05
0.000112559
5.37528e-05
0.000159577
4.91016e-05
0.000230608
4.42733e-05
0.000360182
3.35331e-05
0.00052329
0.000989531
6.8169e-05
8.05376e-07
6.81165e-05
2.18475e-06
6.80342e-05
3.36369e-06
6.79222e-05
4.59515e-06
6.77763e-05
5.966e-06
6.75923e-05
7.56754e-06
6.73614e-05
9.4591e-06
6.70541e-05
1.19018e-05
6.67081e-05
1.49433e-05
6.62555e-05
1.85913e-05
6.5686e-05
2.32585e-05
6.49778e-05
2.91363e-05
6.40855e-05
3.68464e-05
6.29717e-05
4.71446e-05
6.15173e-05
6.16629e-05
5.96647e-05
8.2914e-05
5.70891e-05
0.000115135
5.38425e-05
0.000162824
4.92515e-05
0.000235199
4.47526e-05
0.000364681
3.42432e-05
0.000533799
0.00102377
6.8169e-05
8.24956e-07
6.81165e-05
2.23764e-06
6.80343e-05
3.44568e-06
6.79225e-05
4.70681e-06
6.77766e-05
6.11098e-06
6.7593e-05
7.75107e-06
6.73532e-05
9.69907e-06
6.70596e-05
1.21953e-05
6.67085e-05
1.52945e-05
6.62562e-05
1.90437e-05
6.56871e-05
2.38278e-05
6.49795e-05
2.98442e-05
6.40886e-05
3.77421e-05
6.29783e-05
4.82507e-05
6.1531e-05
6.31095e-05
5.96924e-05
8.47517e-05
5.71413e-05
0.000117686
5.39369e-05
0.000166027
4.94051e-05
0.000239731
4.52396e-05
0.000368846
3.49727e-05
0.000544066
0.00105875
6.8169e-05
8.44528e-07
6.81165e-05
2.29058e-06
6.80342e-05
3.52786e-06
6.79223e-05
4.81881e-06
6.77763e-05
6.25639e-06
6.7593e-05
7.93441e-06
6.73454e-05
9.94663e-06
6.70647e-05
1.24761e-05
6.67087e-05
1.56504e-05
6.62569e-05
1.94953e-05
6.56882e-05
2.43964e-05
6.49812e-05
3.05511e-05
6.40919e-05
3.86256e-05
6.29852e-05
4.93621e-05
6.15452e-05
6.45503e-05
5.9721e-05
8.65769e-05
5.71952e-05
0.000120212
5.40366e-05
0.000169186
4.95621e-05
0.000244206
4.57248e-05
0.000372684
3.57139e-05
0.000554077
0.00109446
6.81689e-05
8.64069e-07
6.81165e-05
2.34345e-06
6.80343e-05
3.60984e-06
6.79225e-05
4.93036e-06
6.77767e-05
6.40123e-06
6.75936e-05
8.11748e-06
6.73434e-05
1.0197e-05
6.7066e-05
1.27534e-05
6.67088e-05
1.60077e-05
6.62575e-05
1.99467e-05
6.56892e-05
2.49647e-05
6.49829e-05
3.12577e-05
6.40953e-05
3.95182e-05
6.29923e-05
5.0461e-05
6.15598e-05
6.59821e-05
5.97506e-05
8.83852e-05
5.72505e-05
0.000122712
5.41426e-05
0.000172294
4.97215e-05
0.000248627
4.62049e-05
0.0003762
3.65461e-05
0.000563736
0.00113101
-5.11627e-06
5.11623e-06
-9.40183e-06
4.28556e-06
-1.01299e-05
7.28053e-07
-7.97161e-06
-2.15814e-06
-5.83597e-06
-2.13638e-06
-4.66701e-06
-1.16831e-06
-4.13572e-06
-5.30742e-07
-3.89518e-06
-2.39133e-07
-3.48219e-06
-4.06669e-07
-3.05124e-06
-4.20609e-07
-2.78919e-06
-1.74615e-07
-2.57336e-06
-3.02936e-07
-2.14635e-06
-4.3925e-07
-6.74393e-07
-1.4801e-06
2.54417e-06
-3.21499e-06
7.00813e-06
-4.45807e-06
1.1672e-05
-4.66065e-06
1.59445e-05
-4.27184e-06
1.97658e-05
-3.81977e-06
2.32256e-05
-3.46238e-06
2.65051e-05
-3.28132e-06
2.97513e-05
-3.24503e-06
3.30145e-05
-3.26304e-06
3.63707e-05
-3.35652e-06
3.9765e-05
-3.39517e-06
4.31325e-05
-3.3686e-06
5.13148e-05
-8.1843e-06
6.18695e-05
-1.05522e-05
6.62807e-05
-4.40892e-06
6.6879e-05
-5.99588e-07
6.70058e-05
-1.26855e-07
6.71707e-05
-1.64913e-07
6.73343e-05
-1.63625e-07
6.7472e-05
-1.3773e-07
-6.63512e-08
-5.02156e-06
1.01377e-05
-9.26724e-06
8.53123e-06
-9.99591e-06
1.45663e-06
-7.84028e-06
-4.31338e-06
-5.72617e-06
-4.25184e-06
-4.58081e-06
-2.31246e-06
-4.0765e-06
-1.03398e-06
-3.87327e-06
-4.39619e-07
-3.50208e-06
-7.65956e-07
-3.0694e-06
-8.3316e-07
-2.73232e-06
-3.70831e-07
-2.41287e-06
-7.6338e-07
-1.93241e-06
-9.43967e-07
-6.1264e-07
-2.81641e-06
2.34927e-06
-6.16974e-06
6.71409e-06
-8.81072e-06
1.14792e-05
-9.41908e-06
1.58642e-05
-8.6555e-06
1.97336e-05
-7.68647e-06
2.31909e-05
-6.92465e-06
2.6442e-05
-6.53583e-06
2.96468e-05
-6.44767e-06
3.28729e-05
-6.48891e-06
3.62045e-05
-6.68868e-06
3.96053e-05
-6.79766e-06
4.28706e-05
-6.63607e-06
5.07793e-05
-1.60967e-05
6.14588e-05
-2.12269e-05
6.62305e-05
-9.17651e-06
6.68871e-05
-1.25854e-06
6.70108e-05
-2.50513e-07
6.71724e-05
-3.2661e-07
6.73354e-05
-3.26658e-07
6.7473e-05
-2.75354e-07
-1.32699e-07
-4.9157e-06
1.50534e-05
-9.11385e-06
1.27294e-05
-9.82618e-06
2.16884e-06
-7.66878e-06
-6.47041e-06
-5.58364e-06
-6.33831e-06
-4.47169e-06
-3.4232e-06
-3.99976e-06
-1.50497e-06
-3.83608e-06
-6.0085e-07
-3.48895e-06
-1.102e-06
-3.03083e-06
-1.27287e-06
-2.60223e-06
-6.53125e-07
-2.17865e-06
-1.33797e-06
-1.71428e-06
-1.43296e-06
-5.93468e-07
-3.95319e-06
2.14588e-06
-8.90193e-06
6.46345e-06
-1.31158e-05
1.1331e-05
-1.42797e-05
1.58177e-05
-1.31408e-05
1.97331e-05
-1.15987e-05
2.31946e-05
-1.03911e-05
2.642e-05
-9.76471e-06
2.95842e-05
-9.60957e-06
3.27719e-05
-9.67637e-06
3.60762e-05
-9.99348e-06
3.94795e-05
-1.02026e-05
4.26617e-05
-9.82045e-06
5.03108e-05
-2.37494e-05
6.10804e-05
-3.19917e-05
6.61824e-05
-1.42745e-05
6.68949e-05
-1.97333e-06
6.70159e-05
-3.71541e-07
6.71743e-05
-4.85077e-07
6.73366e-05
-4.8904e-07
6.74741e-05
-4.12778e-07
-1.98977e-07
-4.79565e-06
1.9849e-05
-8.93993e-06
1.68736e-05
-9.61791e-06
2.84672e-06
-7.44673e-06
-8.64114e-06
-5.39812e-06
-8.38824e-06
-4.3273e-06
-4.49276e-06
-3.89102e-06
-1.94019e-06
-3.76369e-06
-7.254e-07
-3.43427e-06
-1.41972e-06
-2.95174e-06
-1.73488e-06
-2.43301e-06
-1.04423e-06
-1.90744e-06
-1.9987e-06
-1.4669e-06
-1.90234e-06
-5.41026e-07
-4.89866e-06
1.98185e-06
-1.14163e-05
6.24131e-06
-1.73593e-05
1.12046e-05
-1.92337e-05
1.57988e-05
-1.77329e-05
1.97686e-05
-1.55649e-05
2.32413e-05
-1.38699e-05
2.64451e-05
-1.29725e-05
2.95676e-05
-1.27297e-05
3.27133e-05
-1.28217e-05
3.59855e-05
-1.32664e-05
3.9387e-05
-1.3606e-05
4.25052e-05
-1.29411e-05
4.99099e-05
-3.11577e-05
6.07342e-05
-4.28109e-05
6.61354e-05
-1.96717e-05
6.69025e-05
-2.74273e-06
6.70212e-05
-4.90326e-07
6.71765e-05
-6.4043e-07
6.73381e-05
-6.507e-07
6.74753e-05
-5.49908e-07
-2.65119e-07
-4.66137e-06
2.45103e-05
-8.74274e-06
2.0955e-05
-9.36418e-06
3.46801e-06
-7.16869e-06
-1.08362e-05
-5.16721e-06
-1.0391e-05
-4.14614e-06
-5.51257e-06
-3.74945e-06
-2.33599e-06
-3.65574e-06
-8.16705e-07
-3.34024e-06
-1.72451e-06
-2.83289e-06
-2.22362e-06
-2.21968e-06
-1.5356e-06
-1.59046e-06
-2.76395e-06
-1.17854e-06
-2.34333e-06
-4.39827e-07
-5.65568e-06
1.87785e-06
-1.37259e-05
6.06794e-06
-2.15335e-05
1.11146e-05
-2.42704e-05
1.58215e-05
-2.24375e-05
1.98543e-05
-1.95928e-05
2.33432e-05
-1.73659e-05
2.65264e-05
-1.61597e-05
2.96042e-05
-1.58048e-05
3.2702e-05
-1.59192e-05
3.59359e-05
-1.6501e-05
3.933e-05
-1.7002e-05
4.24001e-05
-1.60136e-05
4.95728e-05
-3.8334e-05
6.04181e-05
-5.36511e-05
6.60896e-05
-2.53392e-05
6.69098e-05
-3.56524e-06
6.70268e-05
-6.07323e-07
6.7179e-05
-7.92755e-07
6.73398e-05
-8.11565e-07
6.74766e-05
-6.86647e-07
-3.31064e-07
-4.51247e-06
2.90227e-05
-8.51884e-06
2.49614e-05
-9.05686e-06
4.0059e-06
-6.82748e-06
-1.30651e-05
-4.88698e-06
-1.23328e-05
-3.92527e-06
-6.47293e-06
-3.57279e-06
-2.68738e-06
-3.51055e-06
-8.75952e-07
-3.2074e-06
-2.01562e-06
-2.67425e-06
-2.73467e-06
-1.9588e-06
-2.14121e-06
-1.22198e-06
-3.6281e-06
-8.39175e-07
-2.76155e-06
-2.72686e-07
-6.24594e-06
1.86117e-06
-1.58498e-05
5.97909e-06
-2.56306e-05
1.10955e-05
-2.93733e-05
1.59169e-05
-2.72557e-05
2.00185e-05
-2.36886e-05
2.35229e-05
-2.08794e-05
2.66801e-05
-1.93221e-05
2.97055e-05
-1.88272e-05
3.27468e-05
-1.89601e-05
3.59338e-05
-1.96887e-05
3.93131e-05
-2.03834e-05
4.23474e-05
-1.90508e-05
4.9296e-05
-4.52865e-05
6.01294e-05
-6.44789e-05
6.60448e-05
-3.12505e-05
6.69168e-05
-4.4396e-06
6.70325e-05
-7.23014e-07
6.71818e-05
-9.42192e-07
6.73418e-05
-9.71562e-07
6.7478e-05
-8.22901e-07
-3.96747e-07
-4.34828e-06
3.33709e-05
-8.26386e-06
2.88769e-05
-8.68627e-06
4.42811e-06
-6.41434e-06
-1.53365e-05
-4.55209e-06
-1.41964e-05
-3.66004e-06
-7.36361e-06
-3.35703e-06
-2.9895e-06
-3.32466e-06
-9.05681e-07
-3.0338e-06
-2.29542e-06
-2.47355e-06
-3.27435e-06
-1.64583e-06
-2.86859e-06
-7.94377e-07
-4.60575e-06
-4.3414e-07
-3.15809e-06
-1.85143e-08
-6.68489e-06
1.96016e-06
-1.78189e-05
6.01754e-06
-2.96673e-05
1.12e-05
-3.45417e-05
1.61394e-05
-3.21912e-05
2.03122e-05
-2.78526e-05
2.38204e-05
-2.43995e-05
2.69341e-05
-2.24417e-05
2.98909e-05
-2.17804e-05
3.28616e-05
-2.19304e-05
3.59896e-05
-2.28176e-05
3.93441e-05
-2.37401e-05
4.23515e-05
-2.20613e-05
4.90786e-05
-5.20175e-05
5.98663e-05
-7.52608e-05
6.60013e-05
-3.73816e-05
6.69234e-05
-5.36408e-06
6.70383e-05
-8.37949e-07
6.71849e-05
-1.08884e-06
6.73439e-05
-1.13062e-06
6.74796e-05
-9.5857e-07
-4.62106e-07
-4.16792e-06
3.75388e-05
-7.97265e-06
3.26816e-05
-8.24248e-06
4.69776e-06
-5.92135e-06
-1.76571e-05
-4.15722e-06
-1.59619e-05
-3.34482e-06
-8.17452e-06
-3.09674e-06
-3.23638e-06
-3.09272e-06
-9.06271e-07
-2.81459e-06
-2.5604e-06
-2.22511e-06
-3.83835e-06
-1.27215e-06
-3.72572e-06
-2.9337e-07
-5.711e-06
6.10764e-08
-3.55946e-06
3.52896e-07
-7.00864e-06
2.20886e-06
-1.96625e-05
6.23326e-06
-3.3664e-05
1.14994e-05
-3.97885e-05
1.65729e-05
-3.72593e-05
2.08206e-05
-3.209e-05
2.43065e-05
-2.79015e-05
2.73379e-05
-2.54813e-05
3.01926e-05
-2.46307e-05
3.30682e-05
-2.48055e-05