/*--------------------------------*- C++ -*----------------------------------*\
| =========                 |                                                 |
| \\      /  F ield         | OpenFOAM: The Open Source CFD Toolbox           |
|  \\    /   O peration     | Version:  v1912                                 |
|   \\  /    A nd           | Website:  www.openfoam.com                      |
|    \\/     M anipulation  |                                                 |
\*---------------------------------------------------------------------------*/
FoamFile
{
    version     2.0;
    format      ascii;
    class       volVectorField;
    location    "260";
    object      U;
}
// * * * * * * * * * * * * * * * * * * * * * * * * * * * * * * * * * * * * * //

dimensions      [0 1 -1 0 0 0 0];


internalField   nonuniform List<vector> 
12441
(
(29.9989 1.65189e-05 0)
(29.9859 5.02718e-05 0)
(29.9575 8.7258e-05 0)
(29.9143 0.000134257 0)
(29.8576 0.000196233 0)
(29.7853 0.000279446 0)
(29.695 0.000391442 0)
(29.5823 0.000552057 0)
(29.4413 0.000770641 0)
(29.2655 0.00108483 0)
(29.0446 0.00150491 0)
(28.7918 0.00219635 0)
(28.3968 0.00296725 0)
(27.9806 0.00449601 0)
(27.442 0.00625348 0)
(26.6271 0.0111907 0)
(25.6044 0.0147439 0)
(23.9771 0.0307717 0)
(21.6795 0.0520283 0)
(18.0427 0.0907715 0)
(12.2661 0.12295 0)
(5.89956 0.199219 0)
(29.9989 4.90497e-05 0)
(29.9858 0.000150436 0)
(29.9574 0.00026045 0)
(29.9142 0.000400641 0)
(29.8577 0.000585602 0)
(29.7853 0.000833666 0)
(29.695 0.00117089 0)
(29.5823 0.00164964 0)
(29.4414 0.00230449 0)
(29.2656 0.00324223 0)
(29.0441 0.00449612 0)
(28.7965 0.00658448 0)
(28.3946 0.00890695 0)
(27.9758 0.0134716 0)
(27.4373 0.0188556 0)
(26.6251 0.0333188 0)
(25.607 0.0468628 0)
(23.9767 0.0881874 0)
(21.68 0.135816 0)
(18.041 0.262645 0)
(12.2663 0.361228 0)
(5.90268 0.594873 0)
(29.9989 8.14616e-05 0)
(29.9858 0.000250459 0)
(29.9574 0.00043284 0)
(29.9142 0.000665848 0)
(29.8576 0.000973418 0)
(29.7853 0.00138702 0)
(29.695 0.00194877 0)
(29.5823 0.00274535 0)
(29.4414 0.00383724 0)
(29.2656 0.00539691 0)
(29.0441 0.00749809 0)
(28.7972 0.0109258 0)
(28.3919 0.0148986 0)
(27.9804 0.0224186 0)
(27.4438 0.0315121 0)
(26.6271 0.0545355 0)
(25.6096 0.0797509 0)
(23.9805 0.143783 0)
(21.683 0.217087 0)
(18.04 0.432224 0)
(12.2713 0.596059 0)
(5.91021 0.988505 0)
(29.9989 0.00011428 0)
(29.9858 0.00035124 0)
(29.9574 0.000606157 0)
(29.9142 0.000932345 0)
(29.8577 0.00136295 0)
(29.7854 0.00194239 0)
(29.695 0.00272949 0)
(29.5824 0.00384433 0)
(29.4415 0.00537362 0)
(29.2657 0.00755672 0)
(29.0442 0.0105036 0)
(28.7964 0.0152839 0)
(28.3953 0.0208997 0)
(27.9758 0.0313889 0)
(27.4368 0.0441654 0)
(26.6271 0.0758316 0)
(25.6113 0.111897 0)
(23.9848 0.202403 0)
(21.6912 0.323099 0)
(18.0438 0.609808 0)
(12.2828 0.834858 0)
(5.92253 1.38379 0)
(29.9989 0.000147159 0)
(29.9858 0.000451903 0)
(29.9574 0.000779283 0)
(29.9142 0.00119861 0)
(29.8576 0.00175212 0)
(29.7853 0.00249726 0)
(29.695 0.00350955 0)
(29.5823 0.00494243 0)
(29.4415 0.00690903 0)
(29.2657 0.00971532 0)
(29.0442 0.0135072 0)
(28.797 0.0196433 0)
(28.392 0.0268865 0)
(27.9809 0.0403658 0)
(27.4445 0.056844 0)
(26.6283 0.0968872 0)
(25.6139 0.143536 0)
(23.9892 0.261776 0)
(21.7017 0.411889 0)
(18.0535 0.783579 0)
(12.3021 1.07342 0)
(5.93994 1.78036 0)
(29.9989 0.000180037 0)
(29.9858 0.00055249 0)
(29.9574 0.000952383 0)
(29.9142 0.00146488 0)
(29.8577 0.00214127 0)
(29.7854 0.00305215 0)
(29.6951 0.00428969 0)
(29.5824 0.00604075 0)
(29.4415 0.00844473 0)
(29.2658 0.0118742 0)
(29.0443 0.0165118 0)
(28.7961 0.0240016 0)
(28.3969 0.0328882 0)
(27.9758 0.0493197 0)
(27.4365 0.0695102 0)
(26.6286 0.117845 0)
(25.6158 0.174908 0)
(23.9933 0.320587 0)
(21.7139 0.499121 0)
(18.0697 0.956046 0)
(12.3307 1.31165 0)
(5.9628 2.178 0)
(29.9989 0.000212912 0)
(29.9858 0.000653039 0)
(29.9574 0.00112549 0)
(29.9142 0.00173117 0)
(29.8577 0.0025304 0)
(29.7854 0.00360705 0)
(29.6951 0.00506987 0)
(29.5824 0.00713906 0)
(29.4415 0.00998044 0)
(29.2658 0.0140331 0)
(29.0444 0.0195174 0)
(28.7966 0.0283603 0)
(28.3926 0.0388712 0)
(27.983 0.0582854 0)
(27.446 0.0821865 0)
(26.6305 0.13865 0)
(25.6187 0.205607 0)
(23.9977 0.37696 0)
(21.7301 0.588531 0)
(18.0949 1.12862 0)
(12.3706 1.54995 0)
(5.99157 2.57704 0)
(29.9989 0.000245788 0)
(29.9858 0.000753554 0)
(29.9574 0.00129857 0)
(29.9143 0.00199743 0)
(29.8577 0.00291945 0)
(29.7854 0.00416189 0)
(29.6952 0.00584999 0)
(29.5825 0.0082374 0)
(29.4416 0.0115162 0)
(29.2659 0.0161918 0)
(29.0446 0.0225234 0)
(28.7958 0.032714 0)
(28.3992 0.0448773 0)
(27.9767 0.067199 0)
(27.4369 0.0946646 0)
(26.6312 0.15912 0)
(25.6226 0.237873 0)
(24.0033 0.435373 0)
(21.7562 0.679092 0)
(18.1343 1.30071 0)
(12.4249 1.78852 0)
(6.02683 2.97791 0)
(29.9989 0.000278663 0)
(29.9858 0.000854035 0)
(29.9574 0.00147165 0)
(29.9142 0.00226369 0)
(29.8577 0.00330846 0)
(29.7854 0.00471674 0)
(29.6951 0.00663014 0)
(29.5825 0.00933572 0)
(29.4416 0.0130519 0)
(29.266 0.0183504 0)
(29.0448 0.0255311 0)
(28.7961 0.0370703 0)
(28.3932 0.0508462 0)
(27.9847 0.076258 0)
(27.4451 0.107279 0)
(26.6362 0.18004 0)
(25.6292 0.268668 0)
(24.0109 0.493305 0)
(21.7998 0.769365 0)
(18.1936 1.47189 0)
(12.4962 2.02757 0)
(6.06917 3.38113 0)
(29.9989 0.000311538 0)
(29.9858 0.000954483 0)
(29.9575 0.00164472 0)
(29.9143 0.00252993 0)
(29.8578 0.00369739 0)
(29.7855 0.00527153 0)
(29.6952 0.00741024 0)
(29.5826 0.010434 0)
(29.4417 0.0145875 0)
(29.266 0.0205086 0)
(29.0448 0.0285399 0)
(28.7951 0.0414109 0)
(28.4036 0.056862 0)
(27.9804 0.0850716 0)
(27.4361 0.120499 0)
(26.6381 0.201309 0)
(25.6366 0.299915 0)
(24.0247 0.549414 0)
(21.862 0.859264 0)
(18.2748 1.64234 0)
(12.5866 2.26742 0)
(6.11922 3.78723 0)
(29.9989 0.000344412 0)
(29.9858 0.0010549 0)
(29.9575 0.00181779 0)
(29.9143 0.00279617 0)
(29.8577 0.0040863 0)
(29.7854 0.00582632 0)
(29.6952 0.00819031 0)
(29.5825 0.0115323 0)
(29.4417 0.0161231 0)
(29.2662 0.0226665 0)
(29.0453 0.0315536 0)
(28.7951 0.0457411 0)
(28.3971 0.0629086 0)
(27.9818 0.0939445 0)
(27.4353 0.133034 0)
(26.6378 0.221458 0)
(25.6448 0.332239 0)
(24.0478 0.604935 0)
(21.9332 0.948876 0)
(18.373 1.81191 0)
(12.6966 2.50832 0)
(6.17753 4.19681 0)
(29.9989 0.000377285 0)
(29.9858 0.00115528 0)
(29.9575 0.00199086 0)
(29.9143 0.00306239 0)
(29.8578 0.00447513 0)
(29.7855 0.00638104 0)
(29.6953 0.00897033 0)
(29.5827 0.0126305 0)
(29.4418 0.0176586 0)
(29.2662 0.0248226 0)
(29.0453 0.0345725 0)
(28.7934 0.0500435 0)
(28.4107 0.0689811 0)
(27.9789 0.102959 0)
(27.4287 0.146422 0)
(26.6369 0.241949 0)
(25.653 0.364572 0)
(24.0758 0.658967 0)
(22.001 1.03753 0)
(18.479 1.98014 0)
(12.8243 2.75034 0)
(6.24454 4.61045 0)
(29.9989 0.000410155 0)
(29.9858 0.00125563 0)
(29.9575 0.00216393 0)
(29.9143 0.00332861 0)
(29.8577 0.00486394 0)
(29.7855 0.00693578 0)
(29.6952 0.00975028 0)
(29.5826 0.0137288 0)
(29.4418 0.0191939 0)
(29.2664 0.0269794 0)
(29.0456 0.0375948 0)
(28.7931 0.0543624 0)
(28.4117 0.0750202 0)
(27.9796 0.112022 0)
(27.4256 0.16014 0)
(26.636 0.262149 0)
(25.6597 0.396534 0)
(24.1013 0.71125 0)
(22.0586 1.1249 0)
(18.5841 2.14651 0)
(12.9666 2.99335 0)
(6.32045 5.02872 0)
(29.9989 0.000443022 0)
(29.9858 0.00135595 0)
(29.9575 0.002337 0)
(29.9143 0.0035948 0)
(29.8578 0.00525269 0)
(29.7856 0.00749045 0)
(29.6953 0.0105301 0)
(29.5828 0.014827 0)
(29.4419 0.0207291 0)
(29.2664 0.0291372 0)
(29.0456 0.0406385 0)
(28.7908 0.0586635 0)
(28.4248 0.0815279 0)
(27.9795 0.121121 0)
(27.4225 0.173514 0)
(26.6355 0.28178 0)
(25.6644 0.42802 0)
(24.1214 0.762106 0)
(22.1055 1.21102 0)
(18.6829 2.31071 0)
(13.1197 3.23708 0)
(6.40522 5.4521 0)
(29.9989 0.000475885 0)
(29.9859 0.00145623 0)
(29.9575 0.00251008 0)
(29.9143 0.003861 0)
(29.8578 0.0056414 0)
(29.7855 0.00804513 0)
(29.6953 0.0113099 0)
(29.5828 0.0159251 0)
(29.442 0.0222645 0)
(29.2666 0.0312937 0)
(29.0457 0.0437112 0)
(28.789 0.0628336 0)
(28.426 0.0879359 0)
(27.9786 0.13009 0)
(27.4208 0.186786 0)
(26.6352 0.301215 0)
(25.6673 0.459254 0)
(24.1361 0.811997 0)
(22.1434 1.29602 0)
(18.7732 2.47255 0)
(13.28 3.48114 0)
(6.4986 5.88098 0)
(29.9989 0.000508744 0)
(29.9859 0.00155648 0)
(29.9575 0.00268317 0)
(29.9143 0.00412718 0)
(29.8578 0.00603006 0)
(29.7856 0.00859975 0)
(29.6954 0.0120896 0)
(29.5829 0.017023 0)
(29.4421 0.0237985 0)
(29.2668 0.0334539 0)
(29.0459 0.0467997 0)
(28.7852 0.0671523 0)
(28.4263 0.0943692 0)
(27.9771 0.138897 0)
(27.4193 0.199982 0)
(26.635 0.320591 0)
(25.6688 0.490359 0)
(24.1466 0.861251 0)
(22.1749 1.37999 0)
(18.8546 2.6319 0)
(13.4447 3.72517 0)
(6.60018 6.31569 0)
(29.9989 0.000541597 0)
(29.9859 0.00165669 0)
(29.9575 0.00285627 0)
(29.9143 0.00439335 0)
(29.8578 0.0064187 0)
(29.7856 0.00915437 0)
(29.6953 0.0128692 0)
(29.5829 0.0181207 0)
(29.4422 0.0253325 0)
(29.267 0.0356092 0)
(29.0463 0.0499646 0)
(28.7803 0.0714921 0)
(28.4245 0.100653 0)
(27.9761 0.147705 0)
(27.4183 0.213187 0)
(26.6349 0.33996 0)
(25.6693 0.521386 0)
(24.1541 0.910059 0)
(22.2019 1.46303 0)
(18.928 2.78867 0)
(13.6117 3.96882 0)
(6.70948 6.7565 0)
(29.9989 0.000574446 0)
(29.9859 0.00175687 0)
(29.9575 0.00302939 0)
(29.9143 0.0046595 0)
(29.8579 0.00680728 0)
(29.7857 0.0097089 0)
(29.6955 0.0136486 0)
(29.583 0.0192178 0)
(29.4424 0.0268662 0)
(29.2672 0.0377582 0)
(29.0468 0.05316 0)
(28.7757 0.0758808 0)
(28.4233 0.10688 0)
(27.9753 0.156481 0)
(27.4174 0.226407 0)
(26.6349 0.359326 0)
(25.6692 0.552355 0)
(24.1597 0.958523 0)
(22.2262 1.54517 0)
(18.9947 2.94282 0)
(13.7798 4.21175 0)
(6.826 7.20361 0)
(29.9989 0.000607288 0)
(29.9859 0.00185701 0)
(29.9575 0.00320252 0)
(29.9143 0.00492565 0)
(29.8578 0.00719584 0)
(29.7856 0.0102634 0)
(29.6954 0.014428 0)
(29.583 0.0203149 0)
(29.4424 0.0283989 0)
(29.2673 0.0399176 0)
(29.0474 0.056346 0)
(28.7724 0.080162 0)
(28.4223 0.113052 0)
(27.9748 0.16528 0)
(27.4168 0.239641 0)
(26.635 0.378695 0)
(25.6688 0.583282 0)
(24.164 1.0067 0)
(22.2491 1.62648 0)
(19.0561 3.09429 0)
(13.9483 4.45368 0)
(6.94928 7.6572 0)
(29.9989 0.000640125 0)
(29.9859 0.00195712 0)
(29.9575 0.00337565 0)
(29.9143 0.00519177 0)
(29.8579 0.00758435 0)
(29.7857 0.0108179 0)
(29.6956 0.0152072 0)
(29.5831 0.0214117 0)
(29.4426 0.0299327 0)
(29.2675 0.0420847 0)
(29.0478 0.0595953 0)
(28.7702 0.0843746 0)
(28.4218 0.119233 0)
(27.9745 0.17408 0)
(27.4163 0.252879 0)
(26.6352 0.398068 0)
(25.6683 0.614177 0)
(24.1678 1.05462 0)
(22.2714 1.70696 0)
(19.1137 3.24308 0)
(14.1172 4.69436 0)
(7.07894 8.11746 0)
(29.9989 0.000672954 0)
(29.9859 0.0020572 0)
(29.9575 0.00354881 0)
(29.9143 0.0054579 0)
(29.8578 0.00797285 0)
(29.7857 0.0113723 0)
(29.6955 0.0159865 0)
(29.5831 0.022508 0)
(29.4426 0.0314665 0)
(29.2677 0.0442675 0)
(29.0478 0.0628473 0)
(28.7689 0.0885884 0)
(28.4214 0.1254 0)
(27.9744 0.182898 0)
(27.416 0.266118 0)
(26.6356 0.417448 0)
(25.668 0.64505 0)
(24.1716 1.10227 0)
(22.2942 1.78665 0)
(19.1686 3.38918 0)
(14.2868 4.93359 0)
(7.21466 8.58453 0)
(29.9989 0.000705777 0)
(29.9859 0.00215723 0)
(29.9575 0.00372198 0)
(29.9144 0.00572399 0)
(29.8579 0.00836128 0)
(29.7858 0.0119266 0)
(29.6956 0.0167655 0)
(29.5833 0.0236048 0)
(29.4427 0.0329964 0)
(29.2681 0.0465102 0)
(29.0473 0.0660396 0)
(28.768 0.0928239 0)
(28.4212 0.131584 0)
(27.9743 0.191715 0)
(27.4159 0.279356 0)
(26.6362 0.436835 0)
(25.668 0.675909 0)
(24.1759 1.14963 0)
(22.3177 1.86554 0)
(19.2221 3.53259 0)
(14.4577 5.17119 0)
(7.35622 9.05858 0)
(29.9989 0.000738593 0)
(29.9859 0.00225724 0)
(29.9575 0.00389516 0)
(29.9143 0.00599008 0)
(29.8578 0.00874969 0)
(29.7857 0.0124809 0)
(29.6955 0.0175444 0)
(29.5832 0.0247014 0)
(29.4427 0.0345249 0)
(29.2686 0.0487944 0)
(29.0466 0.0691959 0)
(28.7674 0.0970945 0)
(28.4211 0.137764 0)
(27.9744 0.200539 0)
(27.4159 0.292589 0)
(26.6371 0.456228 0)
(25.6687 0.706755 0)
(24.1809 1.19666 0)
(22.3424 1.94367 0)
(19.275 3.6733 0)
(14.6309 5.40702 0)
(7.50351 9.53978 0)
(29.9989 0.000771402 0)
(29.9859 0.0023572 0)
(29.9575 0.00406835 0)
(29.9144 0.00625615 0)
(29.858 0.00913804 0)
(29.7859 0.0130351 0)
(29.6957 0.0183233 0)
(29.5834 0.0257982 0)
(29.4429 0.03605 0)
(29.2689 0.0511058 0)
(29.046 0.0722583 0)
(28.7671 0.10139 0)
(28.4211 0.143953 0)
(27.9745 0.20936 0)
(27.4161 0.305817 0)
(26.6383 0.475622 0)
(25.6703 0.737575 0)
(24.1868 1.24332 0)
(22.3684 2.02103 0)
(19.3282 3.81129 0)
(14.8073 5.64093 0)
(7.65651 10.0283 0)
(29.9989 0.000804203 0)
(29.9859 0.00245714 0)
(29.9575 0.00424156 0)
(29.9144 0.00652221 0)
(29.8579 0.00952636 0)
(29.7858 0.0135893 0)
(29.6956 0.0191018 0)
(29.5834 0.026895 0)
(29.4429 0.0375717 0)
(29.269 0.0533969 0)
(29.0455 0.0752517 0)
(28.7669 0.105701 0)
(28.4211 0.150139 0)
(27.9748 0.218182 0)
(27.4166 0.319038 0)
(26.64 0.495008 0)
(25.6728 0.768342 0)
(24.1938 1.2896 0)
(22.3956 2.09765 0)
(19.3823 3.94653 0)
(14.9881 5.87284 0)
(7.81527 10.5245 0)
(29.9989 0.000836997 0)
(29.9859 0.00255703 0)
(29.9575 0.00441478 0)
(29.9144 0.00678823 0)
(29.858 0.00991464 0)
(29.7859 0.0141433 0)
(29.6958 0.0198805 0)
(29.5835 0.0279903 0)
(29.4432 0.0391084 0)
(29.2689 0.0556679 0)
(29.0452 0.0782153 0)
(28.7668 0.110019 0)
(28.4213 0.156326 0)
(27.9751 0.227 0)
(27.4172 0.332249 0)
(26.6421 0.514376 0)
(25.6764 0.799031 0)
(24.2019 1.33551 0)
(22.4241 2.17351 0)
(19.4378 4.07894 0)
(15.1746 6.10264 0)
(7.97996 11.0284 0)
(29.9989 0.000869783 0)
(29.9859 0.0026569 0)
(29.9575 0.00458802 0)
(29.9144 0.00705425 0)
(29.8579 0.0103029 0)
(29.7858 0.0146973 0)
(29.6957 0.0206591 0)
(29.5834 0.0290866 0)
(29.4434 0.0406528 0)
(29.2684 0.0580402 0)
(29.0451 0.0811859 0)
(28.7669 0.114341 0)
(28.4214 0.162509 0)
(27.9755 0.235816 0)
(27.4181 0.345443 0)
(26.6447 0.533708 0)
(25.6811 0.829624 0)
(24.2111 1.38104 0)
(22.4537 2.24861 0)
(19.4952 4.20845 0)
(15.3679 6.33025 0)
(8.15078 11.5405 0)
(29.9989 0.000902561 0)
(29.9859 0.00275672 0)
(29.9575 0.00476126 0)
(29.9144 0.00732023 0)
(29.858 0.0106911 0)
(29.786 0.0152512 0)
(29.6959 0.0214373 0)
(29.5836 0.030182 0)
(29.4439 0.042206 0)
(29.2676 0.0603747 0)
(29.045 0.0841819 0)
(28.7669 0.118664 0)
(28.4217 0.168691 0)
(27.976 0.244625 0)
(27.4193 0.358614 0)
(26.6478 0.552992 0)
(25.6869 0.860115 0)
(24.2216 1.42622 0)
(22.4844 2.32295 0)
(19.5545 4.33491 0)
(15.5693 6.5556 0)
(8.32804 12.0609 0)
(29.9989 0.000935332 0)
(29.9859 0.00285651 0)
(29.9575 0.00493452 0)
(29.9144 0.0075862 0)
(29.8579 0.0110793 0)
(29.7859 0.0158049 0)
(29.6958 0.0222162 0)
(29.5835 0.0312733 0)
(29.4441 0.0438124 0)
(29.267 0.0625637 0)
(29.045 0.0872051 0)
(28.767 0.122987 0)
(28.4219 0.17487 0)
(27.9766 0.253425 0)
(27.4207 0.371757 0)
(26.6513 0.572216 0)
(25.6936 0.890502 0)
(24.2333 1.47103 0)
(22.5162 2.39651 0)
(19.6159 4.45821 0)
(15.7798 6.7786 0)
(8.51205 12.5901 0)
(29.9989 0.000968094 0)
(29.9859 0.00295626 0)
(29.9576 0.00510778 0)
(29.9144 0.00785212 0)
(29.8581 0.0114674 0)
(29.786 0.0163585 0)
(29.6961 0.022995 0)
(29.5837 0.0323639 0)
(29.4445 0.0454399 0)
(29.2665 0.0647262 0)
(29.0451 0.0902494 0)
(28.7672 0.12731 0)
(28.4223 0.181045 0)
(27.9773 0.262215 0)
(27.4224 0.384868 0)
(26.6554 0.591374 0)
(25.7012 0.92078 0)
(24.2463 1.51548 0)
(22.5489 2.46928 0)
(19.6792 4.57816 0)
(15.9999 6.99917 0)
(8.70318 13.1284 0)
(29.9989 0.00100085 0)
(29.9859 0.00305598 0)
(29.9575 0.00528106 0)
(29.9144 0.00811804 0)
(29.858 0.0118555 0)
(29.7859 0.016912 0)
(29.696 0.0237735 0)
(29.5836 0.0334545 0)
(29.4446 0.0470755 0)
(29.2663 0.0668808 0)
(29.0452 0.0933059 0)
(28.7674 0.131631 0)
(28.4226 0.187216 0)
(27.9782 0.270991 0)
(27.4244 0.397941 0)
(26.6599 0.61046 0)
(25.7096 0.950942 0)
(24.2606 1.55958 0)
(22.5825 2.54125 0)
(19.7443 4.6946 0)
(16.2303 7.21721 0)
(8.90178 13.6761 0)
(29.9989 0.0010336 0)
(29.9859 0.00315566 0)
(29.9576 0.00545434 0)
(29.9145 0.00838391 0)
(29.8581 0.0122436 0)
(29.7861 0.0174653 0)
(29.6962 0.024552 0)
(29.5838 0.0345442 0)
(29.4449 0.0487194 0)
(29.2663 0.0690163 0)
(29.0454 0.0963693 0)
(28.7677 0.135951 0)
(28.423 0.193381 0)
(27.9791 0.279753 0)
(27.4266 0.410975 0)
(26.6647 0.629469 0)
(25.7189 0.980975 0)
(24.2763 1.60331 0)
(22.6172 2.61241 0)
(19.811 4.80735 0)
(16.471 7.43263 0)
(9.10822 14.2338 0)
(29.9989 0.00106633 0)
(29.9859 0.00325531 0)
(29.9575 0.00562762 0)
(29.9144 0.00864976 0)
(29.858 0.0126316 0)
(29.786 0.0180186 0)
(29.6961 0.0253303 0)
(29.5838 0.0356338 0)
(29.4449 0.0503683 0)
(29.2664 0.0711382 0)
(29.0456 0.099437 0)
(28.768 0.14027 0)
(28.4235 0.199542 0)
(27.9801 0.288497 0)
(27.429 0.423967 0)
(26.6699 0.648396 0)
(25.7289 1.01087 0)
(24.2934 1.64668 0)
(22.6529 2.68277 0)
(19.8791 4.91623 0)
(16.722 7.64529 0)
(9.32282 14.8017 0)
(29.9989 0.00109907 0)
(29.9859 0.00335493 0)
(29.9576 0.00580091 0)
(29.9145 0.00891557 0)
(29.8582 0.0130195 0)
(29.7862 0.0185718 0)
(29.6963 0.026108 0)
(29.5841 0.0367233 0)
(29.445 0.0520199 0)
(29.2667 0.073249 0)
(29.0459 0.102508 0)
(28.7683 0.144587 0)
(28.424 0.205696 0)
(27.9813 0.297223 0)
(27.4316 0.436916 0)
(26.6755 0.667234 0)
(25.7397 1.0406 0)
(24.312 1.68968 0)
(22.6898 2.75232 0)
(19.9486 5.02107 0)
(16.9829 7.85508 0)
(9.54589 15.3803 0)
(29.9989 0.00113179 0)
(29.9859 0.00345452 0)
(29.9576 0.00597421 0)
(29.9145 0.00918137 0)
(29.858 0.0134073 0)
(29.7861 0.019125 0)
(29.6962 0.0268855 0)
(29.5841 0.0378096 0)
(29.4448 0.0536706 0)
(29.267 0.0753518 0)
(29.0462 0.105581 0)
(28.7687 0.148903 0)
(28.4246 0.211844 0)
(27.9825 0.30593 0)
(27.4344 0.449818 0)
(26.6814 0.685978 0)
(25.7512 1.07017 0)
(24.332 1.73231 0)
(22.7279 2.82106 0)
(20.0196 5.12172 0)
(17.2534 8.06186 0)
(9.77768 15.97 0)
(29.9989 0.00116451 0)
(29.986 0.00355407 0)
(29.9576 0.0061475 0)
(29.9145 0.00944711 0)
(29.8582 0.0137952 0)
(29.7863 0.0196776 0)
(29.6964 0.0276649 0)
(29.5844 0.0388936 0)
(29.4448 0.055258 0)
(29.2675 0.0774478 0)
(29.0465 0.108656 0)
(28.769 0.153217 0)
(28.4252 0.217984 0)
(27.9838 0.314616 0)
(27.4373 0.462673 0)
(26.6876 0.704622 0)
(25.7634 1.09955 0)
(24.3534 1.77456 0)
(22.7673 2.889 0)
(20.0922 5.21804 0)
(17.5335 8.26548 0)
(10.0184 16.5713 0)
(29.9989 0.00119723 0)
(29.986 0.0036536 0)
(29.9576 0.00632079 0)
(29.9145 0.00971286 0)
(29.8581 0.0141828 0)
(29.7862 0.0202313 0)
(29.6963 0.0284382 0)
(29.5845 0.0400165 0)
(29.4445 0.0566775 0)
(29.2679 0.0795466 0)
(29.0469 0.111732 0)
(28.7695 0.157529 0)
(28.4258 0.224116 0)
(27.9853 0.32328 0)
(27.4405 0.475479 0)
(26.694 0.72316 0)
(25.7763 1.12874 0)
(24.3762 1.81641 0)
(22.8084 2.95612 0)
(20.1666 5.30986 0)
(17.823 8.46581 0)
(10.2684 17.1845 0)
(29.9989 0.00122993 0)
(29.986 0.0037531 0)
(29.9576 0.00649407 0)
(29.9146 0.00997855 0)
(29.8582 0.0145704 0)
(29.7864 0.0207838 0)
(29.6965 0.0292171 0)
(29.5848 0.0411165 0)
(29.4444 0.0584419 0)
(29.2683 0.081675 0)
(29.0473 0.114809 0)
(28.7699 0.161839 0)
(28.4265 0.23024 0)
(27.9868 0.331922 0)
(27.4438 0.488234 0)
(26.7008 0.741585 0)
(25.7898 1.15771 0)
(24.4005 1.85786 0)
(22.8512 3.02243 0)
(20.2429 5.39706 0)
(18.1222 8.66268 0)
(10.5277 17.8101 0)
(29.9989 0.00126263 0)
(29.986 0.00385256 0)
(29.9576 0.00666737 0)
(29.9145 0.0102442 0)
(29.8581 0.0149582 0)
(29.7863 0.021336 0)
(29.6964 0.0299929 0)
(29.5848 0.0422516 0)
(29.4444 0.0601951 0)
(29.2687 0.0838339 0)
(29.0477 0.117886 0)
(28.7704 0.166147 0)
(28.4273 0.236356 0)
(27.9884 0.340539 0)
(27.4472 0.500935 0)
(26.7079 0.759893 0)
(25.804 1.18646 0)
(24.426 1.89889 0)
(22.8959 3.08791 0)
(20.3212 5.47949 0)
(18.4314 8.85595 0)
(10.7967 18.4485 0)
(29.9989 0.00129533 0)
(29.986 0.00395198 0)
(29.9576 0.00684061 0)
(29.9146 0.0105099 0)
(29.8583 0.015345 0)
(29.7865 0.021892 0)
(29.6966 0.0307518 0)
(29.5849 0.0434081 0)
(29.4444 0.0616972 0)
(29.269 0.086006 0)
(29.0481 0.120963 0)
(28.7709 0.170452 0)
(28.4281 0.242462 0)
(27.9901 0.349131 0)
(27.4508 0.513579 0)
(26.7152 0.778077 0)
(25.8189 1.21496 0)
(24.4529 1.93947 0)
(22.943 3.15255 0)
(20.4011 5.55701 0)
(18.7507 9.04545 0)
(11.0756 19.1002 0)
(29.9989 0.00132803 0)
(29.986 0.00405138 0)
(29.9576 0.00701387 0)
(29.9145 0.0107753 0)
(29.8582 0.0157328 0)
(29.7863 0.0224413 0)
(29.6966 0.0315573 0)
(29.5845 0.0443284 0)
(29.4443 0.0631299 0)
(29.2693 0.0881792 0)
(29.0485 0.124039 0)
(28.7714 0.174754 0)
(28.4289 0.248556 0)
(27.9918 0.3577 0)
(27.4546 0.526168 0)
(26.7229 0.796134 0)
(25.8343 1.24322 0)
(24.481 1.97959 0)
(22.9927 3.21636 0)
(20.4823 5.62947 0)
(19.0794 9.23107 0)
(11.3647 19.7654 0)
(29.9989 0.00136071 0)
(29.986 0.00415081 0)
(29.9576 0.00718718 0)
(29.9146 0.0110409 0)
(29.8584 0.0161201 0)
(29.7865 0.022994 0)
(29.6971 0.032349 0)
(29.5836 0.0455581 0)
(29.4442 0.0645909 0)
(29.2696 0.0903503 0)
(29.0489 0.127112 0)
(28.772 0.179053 0)
(28.4298 0.254641 0)
(27.9937 0.36624 0)
(27.4585 0.538695 0)
(26.7308 0.814057 0)
(25.8503 1.27121 0)
(24.5102 2.01921 0)
(23.0453 3.27935 0)
(20.5638 5.69678 0)
(19.4143 9.4128 0)
(11.664 20.4457 0)
(29.9989 0.00139326 0)
(29.986 0.00425024 0)
(29.9576 0.0073605 0)
(29.9145 0.0113066 0)
(29.8582 0.0165078 0)
(29.7863 0.0235465 0)
(29.6972 0.0331453 0)
(29.5828 0.0469175 0)
(29.4441 0.0660899 0)
(29.2697 0.0925205 0)
(29.0493 0.130184 0)
(28.7725 0.183348 0)
(28.4307 0.260712 0)
(27.9956 0.374755 0)
(27.4625 0.551161 0)
(26.739 0.831841 0)
(25.8668 1.29893 0)
(24.5404 2.05829 0)
(23.1015 3.34151 0)
(20.6452 5.75891 0)
(19.7484 9.59033 0)
(11.9732 21.1482 0)
(29.9989 0.00142518 0)
(29.986 0.00434957 0)
(29.9576 0.00753361 0)
(29.9146 0.0115715 0)
(29.8585 0.016895 0)
(29.7865 0.0240903 0)
(29.6975 0.0339904 0)
(29.5825 0.0480426 0)
(29.444 0.0676015 0)
(29.2699 0.094686 0)
(29.0496 0.13325 0)
(28.7731 0.187641 0)
(28.4317 0.266758 0)
(27.9975 0.383232 0)
(27.4667 0.563566 0)
(26.7475 0.849497 0)
(25.8838 1.32637 0)
(24.5715 2.09678 0)
(23.1615 3.4029 0)
(20.7262 5.81595 0)
(20.0703 9.76166 0)
(12.3783 21.8945 0)
(-1.07668 0.0527304 0)
(-3.53702 0.0407299 0)
(-4.78873 0.00633859 0)
(-4.0901 -0.0174852 0)
(-2.87621 -0.0159326 0)
(-2.23574 -0.00807713 0)
(-1.85731 -0.00341125 0)
(-1.77974 -0.00144052 0)
(-1.64384 -0.00217793 0)
(-1.40955 -0.00197737 0)
(-1.26908 -0.000557829 0)
(-1.18037 -0.00125449 0)
(-1.0803 -0.0019508 0)
(-0.802126 -0.00577312 0)
(0.248507 -0.0110816 0)
(2.06708 -0.0139558 0)
(4.18657 -0.0135581 0)
(6.16281 -0.0115377 0)
(7.93802 -0.00949301 0)
(9.51828 -0.00788824 0)
(10.9783 -0.00686446 0)
(12.403 -0.00625478 0)
(13.835 -0.00580198 0)
(15.2751 -0.00550773 0)
(16.7916 -0.00513248 0)
(18.2602 -0.00480367 0)
(19.7554 -0.0105938 0)
(25.6357 -0.0123363 0)
(28.9411 -0.00474146 0)
(29.4046 -0.00059526 0)
(29.4505 -0.000120036 0)
(29.5173 -0.000143545 0)
(29.596 -0.000130806 0)
(29.6607 -0.000101588 0)
(29.7169 -4.51806e-05 0)
(-1.0539 0.156319 0)
(-3.48234 0.121249 0)
(-4.72672 0.0191213 0)
(-4.02836 -0.0519972 0)
(-2.82242 -0.0474679 0)
(-2.19419 -0.0239405 0)
(-1.82444 -0.0100165 0)
(-1.76136 -0.0041065 0)
(-1.64718 -0.00646358 0)
(-1.42739 -0.00627651 0)
(-1.26464 -0.00249765 0)
(-1.12767 -0.00426643 0)
(-0.976421 -0.00528548 0)
(-0.723675 -0.0157786 0)
(0.203349 -0.0318064 0)
(1.93202 -0.0412271 0)
(4.0749 -0.0402325 0)
(6.11085 -0.0341592 0)
(7.91936 -0.0281753 0)
(9.50723 -0.0234977 0)
(10.9587 -0.0204834 0)
(12.3659 -0.0186649 0)
(13.7795 -0.0173217 0)
(15.2057 -0.0164557 0)
(16.7148 -0.0153954 0)
(18.197 -0.013969 0)
(19.5838 -0.0315548 0)
(25.3301 -0.0377404 0)
(28.8958 -0.0147745 0)
(29.4082 -0.00185316 0)
(29.4539 -0.000354622 0)
(29.5182 -0.000426458 0)
(29.5965 -0.000391802 0)
(29.6612 -0.000304696 0)
(29.7173 -0.000135569 0)
(-1.02227 0.257901 0)
(-3.41929 0.200825 0)
(-4.65514 0.0316576 0)
(-3.94927 -0.0866258 0)
(-2.75119 -0.0787969 0)
(-2.14074 -0.0394671 0)
(-1.78242 -0.0161995 0)
(-1.73652 -0.00618354 0)
(-1.64 -0.0101305 0)
(-1.42315 -0.0104294 0)
(-1.23417 -0.00449005 0)
(-1.04084 -0.00869624 0)
(-0.854729 -0.00939578 0)
(-0.656422 -0.024866 0)
(0.146586 -0.0506192 0)
(1.80666 -0.0674844 0)
(3.98257 -0.0671255 0)
(6.07545 -0.0570417 0)
(7.91473 -0.0467405 0)
(9.51164 -0.0388821 0)
(10.9573 -0.0338819 0)
(12.3473 -0.0308453 0)
(13.7422 -0.0286699 0)
(15.1536 -0.0273078 0)
(16.6537 -0.025674 0)
(18.1479 -0.0230116 0)
(19.4456 -0.0514867 0)
(25.0504 -0.0632553 0)
(28.8519 -0.0255966 0)
(29.4116 -0.00325117 0)
(29.4572 -0.000583761 0)
(29.5193 -0.000703264 0)
(29.5972 -0.000651666 0)
(29.6617 -0.000507544 0)
(29.7177 -0.0002259 0)
(-0.984653 0.357149 0)
(-3.34982 0.279554 0)
(-4.57196 0.0438492 0)
(-3.84697 -0.121487 0)
(-2.65893 -0.109601 0)
(-2.07069 -0.0544759 0)
(-1.72605 -0.0219513 0)
(-1.69787 -0.00784998 0)
(-1.61551 -0.0136571 0)
(-1.39959 -0.0149365 0)
(-1.18765 -0.00756259 0)
(-0.935233 -0.0139507 0)
(-0.718993 -0.0131743 0)
(-0.578035 -0.0324565 0)
(0.107671 -0.0683602 0)
(1.69762 -0.0941865 0)
(3.89965 -0.095258 0)
(6.05022 -0.0809365 0)
(7.92399 -0.0658442 0)
(9.53362 -0.0544481 0)
(10.9763 -0.0472305 0)
(12.3497 -0.0428929 0)
(13.7245 -0.0398913 0)
(15.119 -0.0380705 0)
(16.6081 -0.0359577 0)
(18.1126 -0.031786 0)
(19.3404 -0.0708569 0)
(24.7969 -0.0889694 0)
(28.8091 -0.0371249 0)
(29.4149 -0.0047558 0)
(29.4606 -0.000808098 0)
(29.5205 -0.00097464 0)
(29.5979 -0.000910466 0)
(29.6622 -0.000710041 0)
(29.7182 -0.000316095 0)
(-0.941076 0.453817 0)
(-3.27388 0.357188 0)
(-4.47473 0.0552715 0)
(-3.71775 -0.156574 0)
(-2.54459 -0.139714 0)
(-1.98295 -0.0688263 0)
(-1.65514 -0.0272191 0)
(-1.6449 -0.00910788 0)
(-1.57397 -0.0170142 0)
(-1.35842 -0.0196765 0)
(-1.12378 -0.0116115 0)
(-0.807797 -0.0200227 0)
(-0.564679 -0.0167569 0)
(-0.482554 -0.038633 0)
(0.0948724 -0.0846181 0)
(1.61501 -0.120509 0)
(3.83322 -0.124084 0)
(6.04107 -0.105598 0)
(7.95366 -0.0853364 0)
(9.57924 -0.0701098 0)
(11.0203 -0.0604906 0)
(12.3764 -0.0547708 0)
(13.729 -0.0509532 0)
(15.1038 -0.0487203 0)
(16.5791 -0.0462308 0)
(18.0917 -0.0404068 0)
(19.2666 -0.0896217 0)
(24.5678 -0.114753 0)
(28.7675 -0.0492887 0)
(29.4179 -0.00637044 0)
(29.4641 -0.00102866 0)
(29.5218 -0.00124067 0)
(29.5987 -0.00116806 0)
(29.6629 -0.000912037 0)
(29.7187 -0.000406065 0)
(-0.891451 0.547601 0)
(-3.19125 0.433526 0)
(-4.36057 0.0654876 0)
(-3.55716 -0.192079 0)
(-2.40642 -0.169025 0)
(-1.87588 -0.0824194 0)
(-1.56879 -0.0319581 0)
(-1.57651 -0.00998595 0)
(-1.51509 -0.0202327 0)
(-1.30052 -0.02466 0)
(-1.04153 -0.0166573 0)
(-0.656531 -0.0269474 0)
(-0.388691 -0.0200996 0)
(-0.364124 -0.0434454 0)
(0.117551 -0.099423 0)
(1.5739 -0.146171 0)
(3.79951 -0.153222 0)
(6.06196 -0.130839 0)
(8.01708 -0.105155 0)
(9.65991 -0.0858457 0)
(11.0977 -0.073643 0)
(12.4335 -0.0664531 0)
(13.7601 -0.061828 0)
(15.1112 -0.0592316 0)
(16.5692 -0.0564734 0)
(18.087 -0.0489176 0)
(19.2235 -0.107814 0)
(24.3608 -0.140527 0)
(28.7272 -0.0620189 0)
(29.4207 -0.00809188 0)
(29.4675 -0.00124632 0)
(29.5233 -0.00150158 0)
(29.5997 -0.00142432 0)
(29.6636 -0.00111339 0)
(29.7192 -0.000495722 0)
(-0.83564 0.638189 0)
(-3.1015 0.508316 0)
(-4.22604 0.0739852 0)
(-3.35997 -0.228214 0)
(-2.24205 -0.197338 0)
(-1.74712 -0.0951372 0)
(-1.46528 -0.0361097 0)
(-1.49088 -0.0105047 0)
(-1.43765 -0.0233197 0)
(-1.22541 -0.029897 0)
(-0.939327 -0.0227813 0)
(-0.4789 -0.0347428 0)
(-0.186417 -0.0232319 0)
(-0.214479 -0.0470889 0)
(0.185513 -0.113036 0)
(1.58975 -0.171226 0)
(3.82123 -0.182526 0)
(6.13691 -0.156583 0)
(8.13814 -0.125296 0)
(9.79616 -0.101647 0)
(11.2228 -0.0866507 0)
(12.5307 -0.0778926 0)
(13.8247 -0.072474 0)
(15.1465 -0.06957 0)
(16.5823 -0.0666584 0)
(18.1012 -0.0573466 0)
(19.2117 -0.125438 0)
(24.1742 -0.166232 0)
(28.6881 -0.0752573 0)
(29.4231 -0.00991697 0)
(29.471 -0.00146203 0)
(29.525 -0.00175757 0)
(29.6007 -0.00167913 0)
(29.6645 -0.00131395 0)
(29.7198 -0.000584981 0)
(-0.773482 0.725262 0)
(-3.00402 0.581221 0)
(-4.0671 0.0801594 0)
(-3.1214 -0.265132 0)
(-2.04938 -0.224366 0)
(-1.59405 -0.106836 0)
(-1.34229 -0.0396014 0)
(-1.38556 -0.0106793 0)
(-1.33942 -0.0262668 0)
(-1.13108 -0.0353982 0)
(-0.814181 -0.0300511 0)
(-0.27013 -0.0435334 0)
(0.0506729 -0.0262571 0)
(-0.0207743 -0.0497814 0)
(0.311712 -0.125735 0)
(1.6797 -0.195901 0)
(3.92622 -0.212079 0)
(6.30101 -0.182864 0)
(8.35578 -0.145762 0)
(10.0238 -0.11747 0)
(11.4219 -0.0994356 0)
(12.685 -0.0890058 0)
(13.9341 -0.0828246 0)
(15.2174 -0.0796872 0)
(16.6246 -0.0767499 0)
(18.1391 -0.0657121 0)
(19.235 -0.142491 0)
(24.0076 -0.191792 0)
(28.6505 -0.0889515 0)
(29.4251 -0.0118423 0)
(29.4744 -0.00167684 0)
(29.5267 -0.00200888 0)
(29.6019 -0.00193238 0)
(29.6654 -0.00151358 0)
(29.7203 -0.000673754 0)
(-0.704823 0.808481 0)
(-2.89803 0.65182 0)
(-3.87934 0.0833385 0)
(-2.8394 -0.302909 0)
(-1.82764 -0.24979 0)
(-1.41447 -0.117382 0)
(-1.19723 -0.0423638 0)
(-1.25749 -0.0105285 0)
(-1.21727 -0.0290663 0)
(-1.01404 -0.0411871 0)
(-0.66119 -0.0386164 0)
(-0.0226068 -0.0534727 0)
(0.336013 -0.029381 0)
(0.236459 -0.0517569 0)
(0.51594 -0.137749 0)
(1.86732 -0.220501 0)
(4.14893 -0.242204 0)
(6.59895 -0.209918 0)
(8.72358 -0.166617 0)
(10.3994 -0.133205 0)
(11.74 -0.111835 0)
(12.926 -0.0996435 0)
(14.1063 -0.0927694 0)
(15.3362 -0.0895108 0)
(16.7053 -0.0866978 0)
(18.2075 -0.0740257 0)
(19.3005 -0.158959 0)
(23.8625 -0.217107 0)
(28.6147 -0.103049 0)
(29.4268 -0.0138638 0)
(29.4779 -0.00189188 0)
(29.5287 -0.00225575 0)
(29.6032 -0.00218395 0)
(29.6663 -0.00171212 0)
(29.7209 -0.000761954 0)
(-0.62952 0.887481 0)
(-2.78258 0.719595 0)
(-3.65823 0.0828629 0)
(-2.51711 -0.341526 0)
(-1.57826 -0.273327 0)
(-1.20736 -0.126686 0)
(-1.02769 -0.0443496 0)
(-1.10336 -0.0100831 0)
(-1.06733 -0.0317218 0)
(-0.869418 -0.0473122 0)
(-0.473426 -0.0486297 0)
(0.273081 -0.0648464 0)
(0.687925 -0.0329649 0)
(0.585582 -0.0533057 0)
(0.826408 -0.149298 0)
(2.1835 -0.245386 0)
(4.52726 -0.273356 0)
(7.07319 -0.238134 0)
(9.28926 -0.188043 0)
(10.9867 -0.148708 0)
(12.2442 -0.123542 0)
(13.3022 -0.109533 0)
(14.3708 -0.10212 0)
(15.5213 -0.0989276 0)
(16.838 -0.0964303 0)
(18.3167 -0.0822931 0)
(19.4205 -0.174814 0)
(23.7431 -0.242052 0)
(28.5812 -0.117489 0)
(29.428 -0.0159767 0)
(29.4813 -0.00210839 0)
(29.5307 -0.00249848 0)
(29.6046 -0.00243372 0)
(29.6674 -0.00190944 0)
(29.7215 -0.000849496 0)
(-0.547462 0.961872 0)
(-2.65656 0.783944 0)
(-3.39938 0.0781975 0)
(-2.16362 -0.380812 0)
(-1.30527 -0.29481 0)
(-0.973728 -0.134738 0)
(-0.83204 -0.0455607 0)
(-0.919945 -0.0094011 0)