/*--------------------------------*- C++ -*----------------------------------*\
| =========                 |                                                 |
| \\      /  F ield         | OpenFOAM: The Open Source CFD Toolbox           |
|  \\    /   O peration     | Version:  v1912                                 |
|   \\  /    A nd           | Website:  www.openfoam.com                      |
|    \\/     M anipulation  |                                                 |
\*---------------------------------------------------------------------------*/
FoamFile
{
    version     2.0;
    format      ascii;
    class       volScalarField;
    location    "260";
    object      yPlus;
}
// * * * * * * * * * * * * * * * * * * * * * * * * * * * * * * * * * * * * * //

dimensions      [0 0 0 0 0 0 0];


internalField   uniform 0;

boundaryField
{
    inlet
    {
        type            calculated;
        value           uniform 0;
    }
    outlet
    {
        type            calculated;
        value           uniform 0;
    }
    lowerSymmetry
    {
        type            symmetryPlane;
    }
    obstical
    {
        type            calculated;
        value           nonuniform List<scalar> 
88
(
485.788
487.967
492.35
498.929
507.637
518.382
531.073
545.618
561.926
579.909
599.484
620.566
643.068
666.896
691.955
718.149
745.392
773.604
802.715
832.668
863.415
894.921
927.159
960.111
993.769
1028.13
1063.2
1098.99
1135.51
1172.78
1210.83
1249.68
1289.34
1329.84
1371.2
1413.44
1456.59
1500.67
1545.69
1591.69
1638.69
1686.75
1736.27
1791.19
105.148
104.092
103.154
102.574
102.351
102.471
102.915
103.662
104.694
105.999
107.567
109.398
111.493
113.859
116.51
119.461
122.736
126.361
130.356
134.717
139.372
144.158
148.977
153.718
158.273
162.543
166.444
169.902
172.832
175.093
176.429
176.415
174.45
169.822
161.832
149.95
133.896
113.6
89.0793
60.6026
33.2583
46.2729
85.7934
129.959
)
;
    }
    obsticalTop
    {
        type            calculated;
        value           nonuniform List<scalar> 
20
(
53.2998
38.589
47.0186
53.1604
56.0397
57.7057
58.3382
58.069
57.1581
55.7397
53.7926
51.212
47.9082
43.703
38.565
31.8606
25.5511
16.142
14.5435
10.9322
)
;
    }
    top
    {
        type            calculated;
        value           uniform 0;
    }
    defaultFaces
    {
        type            empty;
    }
}


// ************************************************************************* //
