/*--------------------------------*- C++ -*----------------------------------*\
| =========                 |                                                 |
| \\      /  F ield         | OpenFOAM: The Open Source CFD Toolbox           |
|  \\    /   O peration     | Version:  v1912                                 |
|   \\  /    A nd           | Website:  www.openfoam.com                      |
|    \\/     M anipulation  |                                                 |
\*---------------------------------------------------------------------------*/
FoamFile
{
    version     2.0;
    format      ascii;
    class       volScalarField;
    location    "175";
    object      p;
}
// * * * * * * * * * * * * * * * * * * * * * * * * * * * * * * * * * * * * * //

dimensions      [0 2 -2 0 0 0 0];


internalField   nonuniform List<scalar> 
2000
(
-0.0372791
0.0801321
0.134711
0.127822
0.111994
0.105686
0.105077
0.106424
0.106642
0.106413
0.106544
0.10623
0.105982
0.105932
0.105993
0.105962
0.105797
0.10566
0.10555
0.10547
0.105277
0.104942
0.104492
0.104055
0.103754
0.103592
0.103483
0.103229
0.102761
0.102116
0.101379
0.10068
0.100175
0.100021
0.100315
0.101334
0.102873
0.104786
0.106912
0.10903
0.110898
0.112305
0.11313
0.112765
0.111383
0.108953
0.10543
0.100853
0.0954562
0.0893958
0.0829076
0.0762097
0.0694516
0.0627517
0.0562087
0.0499597
0.0447924
0.0428546
0.046397
0.0572764
0.0747378
0.0965282
0.120292
0.143794
0.165478
0.184355
0.199867
0.21172
0.219818
0.224244
0.225067
0.222325
0.216067
0.206201
0.192383
0.17414
0.150359
0.120746
0.079731
0.0388682
0.0159654
0.101143
0.139961
0.126765
0.109025
0.104826
0.108355
0.11078
0.108025
0.104802
0.104371
0.105668
0.106125
0.105994
0.106179
0.10601
0.105772
0.105532
0.105422
0.105345
0.105194
0.104848
0.104397
0.103985
0.103715
0.1036
0.103559
0.103458
0.103077
0.102352
0.101362
0.10029
0.0993763
0.0988965
0.099119
0.0999351
0.101569
0.103861
0.10658
0.10943
0.112071
0.114152
0.11529
0.115669
0.114694
0.112112
0.107865
0.102011
0.0947486
0.0863385
0.0770795
0.0672007
0.0567703
0.045938
0.0352326
0.0254289
0.0186956
0.0206205
0.0329002
0.051287
0.0730525
0.0970284
0.12169
0.145126
0.166346
0.184478
0.199027
0.209798
0.216767
0.219965
0.21942
0.215227
0.207438
0.195956
0.180456
0.160498
0.135097
0.104236
0.0637936
0.027962
0.0670307
0.100829
0.123521
0.121964
0.112765
0.108587
0.108617
0.107973
0.106068
0.105416
0.107043
0.10861
0.107556
0.105064
0.104167
0.105029
0.105879
0.105962
0.105534
0.105056
0.104635
0.104295
0.104125
0.104059
0.104139
0.104375
0.104623
0.10463
0.104304
0.103303
0.10167
0.0996189
0.0975265
0.095904
0.0952812
0.0959604
0.0978083
0.101067
0.105475
0.110493
0.115465
0.119694
0.122552
0.123995
0.123275
0.120014
0.114053
0.105442
0.0945869
0.0821067
0.0688496
0.0556797
0.0432817
0.0322108
0.0233889
0.0178623
0.0174839
0.0230935
0.0353984
0.0532508
0.0747819
0.0981645
0.121672
0.143786
0.163505
0.180122
0.193211
0.202601
0.208282
0.210318
0.208796
0.203803
0.195363
0.183379
0.167584
0.147651
0.122855
0.0935115
0.0565491
0.0249563
0.0920165
0.10203
0.11458
0.118658
0.115964
0.112941
0.111277
0.109544
0.107927
0.107128
0.106951
0.106828
0.106468
0.105796
0.105331
0.106271
0.107366
0.106366
0.104707
0.103775
0.103342
0.1035
0.103825
0.104224
0.104811
0.105629
0.106474
0.107007
0.106756
0.105371
0.102696
0.0989166
0.094598
0.0906837
0.088288
0.0884868
0.090349
0.0953563
0.102846
0.111631
0.120458
0.128169
0.133781
0.136082
0.135573
0.131192
0.122827
0.110652
0.0958618
0.0792958
0.0623131
0.046389
0.0328898
0.0225114
0.0158988
0.0137399
0.0167399
0.0250645
0.0387857
0.0570497
0.0781229
0.100198
0.121806
0.14181
0.159392
0.174004
0.185324
0.193225
0.197711
0.198846
0.1967
0.191313
0.18267
0.170668
0.155088
0.135693
0.111965
0.084346
0.0505678
0.0216323
0.104357
0.107957
0.115475
0.119444
0.118312
0.11598
0.114596
0.113555
0.112254
0.110809
0.109458
0.10836
0.107636
0.106815
0.10586
0.105848
0.106319
0.106358
0.105703
0.104534
0.103612
0.103237
0.103373
0.103947
0.104969
0.106397
0.108024
0.109392
0.109591
0.107954
0.104152
0.0983102
0.0912628
0.0845661
0.0797779
0.0780005
0.0812895
0.0887066
0.0994783
0.112073
0.124711
0.135676
0.143562
0.147622
0.146792
0.141217
0.130725
0.115875
0.0978469
0.0780729
0.0583855
0.0407266
0.0272522
0.0180631
0.0135903
0.0142391
0.0200602
0.0306075
0.0452539
0.0630205
0.0825313
0.102397
0.121487
0.138941
0.15414
0.166676
0.176313
0.182951
0.186572
0.187195
0.184837
0.179486
0.171082
0.15951
0.144571
0.126082
0.103649
0.0777667
0.046612
0.0196834
0.112797
0.114631
0.118583
0.120751
0.119933
0.118321
0.117358
0.116678
0.115716
0.114523
0.113391
0.112394
0.111373
0.110041
0.108647
0.107887
0.107656
0.107296
0.106243
0.104718
0.103577
0.103138
0.103305
0.103917
0.105076
0.106991
0.109462
0.111537
0.111853
0.109647
0.104658
0.0973579
0.0888199
0.0806726
0.0749419
0.0735129
0.0775128
0.0862841
0.0987935
0.113348
0.127968
0.140683
0.149782
0.154109
0.152917
0.146272
0.134714
0.119089
0.100577
0.080807
0.0617302
0.0452763
0.032202
0.0242795
0.0214432
0.0235975
0.0303519
0.0409737
0.054653
0.0705053
0.0875108
0.104645
0.121034
0.136006
0.149071
0.159894
0.168258
0.174039
0.177167
0.177601
0.1753
0.1702
0.162204
0.151176
0.136922
0.119285
0.0979284
0.073366
0.0439568
0.0184706
0.119608
0.12043
0.121666
0.122001
0.12121
0.120221
0.119556
0.119011
0.118338
0.117575
0.116842
0.116109
0.11523
0.114097
0.112894
0.111971
0.11132
0.110461
0.109064
0.107454
0.106235
0.10565
0.105629
0.106084
0.107097
0.108705
0.11056
0.111883
0.111728
0.109352
0.104395
0.0972587
0.0891102
0.0816539
0.0770356
0.0766069
0.0812134
0.0902074
0.102352
0.115989
0.129337
0.14079
0.149055
0.153187
0.152583
0.147047
0.136156
0.121094
0.103354
0.084488
0.0666677
0.0516256
0.0405181
0.0342558
0.032685
0.0353925
0.0418486
0.0513986
0.0633574
0.0770189
0.0916112
0.106347
0.120523
0.133571
0.145056
0.154657
0.162146
0.167363
0.170196
0.170559
0.168367
0.163524
0.155903
0.145351
0.131669
0.114704
0.0941442
0.0705027
0.0422032
0.0177468
0.125485
0.125429
0.124512
0.1233
0.122473
0.12195
0.121467
0.120989
0.120538
0.120091
0.119625
0.119109
0.118483
0.117706
0.116849
0.116069
0.115377
0.114506
0.113293
0.111953
0.11086
0.110215
0.110025
0.110264
0.110952
0.112026
0.113161
0.113744
0.113021
0.110385
0.105669
0.0993601
0.0925574
0.0868193
0.083724
0.0843453
0.0890563
0.0972919
0.107953
0.119669
0.13099
0.14058
0.147315
0.150352
0.149194
0.143574
0.134101
0.12102
0.106012
0.0905241
0.0758537
0.0634996
0.0543645
0.0489243
0.0471782
0.0488897
0.0537441
0.0613285
0.0711425
0.0826115
0.0950842
0.107878
0.120356
0.131979
0.142316
0.151037
0.157894
0.162702
0.165323
0.165641
0.163544
0.158912
0.151597
0.141429
0.128197
0.11174
0.0917499
0.068725
0.0411279
0.0173045
0.130889
0.129899
0.126932
0.124386
0.123625
0.123531
0.123189
0.122772
0.122497
0.122266
0.12198
0.12163
0.12121
0.120688
0.120088
0.119499
0.118934
0.118242
0.117324
0.116306
0.115441
0.114899
0.114718
0.114876
0.115348
0.116034
0.116658
0.116751
0.115769
0.113313
0.109352
0.10434
0.0991758
0.0950408
0.0929974
0.0939062
0.0979339
0.104662
0.113257
0.122656
0.131728
0.139426
0.144877
0.147444
0.146727
0.142559
0.135123
0.124945
0.112729
0.100017
0.0877206
0.0768935
0.0683416
0.0625563
0.059743
0.0599187
0.0629948
0.0687443
0.0767834
0.0865922
0.0975503
0.108999
0.120312
0.130955
0.140492
0.148587
0.154985
0.15949
0.16195
0.162233
0.160215
0.155756
0.148693
0.138839
0.125965
0.109896
0.0903105
0.0676882
0.0405279
0.017011
0.136119
0.133931
0.128734
0.125086
0.124618
0.124938
0.124701
0.124368
0.124271
0.124224
0.124082
0.123863
0.123585
0.123225
0.122794
0.122353
0.121912
0.121377
0.120682
0.119917
0.119267
0.118873
0.118768
0.118923
0.119289
0.119756
0.120093
0.119948
0.118941
0.116817
0.113596
0.109649
0.105658
0.102484
0.100993
0.101819
0.105103
0.110556
0.117556
0.125276
0.132812
0.139303
0.144014
0.146376
0.146013
0.142792
0.136841
0.128551
0.118526
0.107783
0.0971155
0.0873256
0.0791073
0.0729601
0.0692278
0.0681376
0.0697994
0.0741411
0.080869
0.089494
0.0993971
0.109914
0.120418
0.130367
0.139328
0.146963
0.153017
0.157291
0.159628
0.15989
0.157942
0.153635
0.146792
0.137205
0.124626
0.108859
0.0895623
0.0671942
0.0402799
0.016827
0.141358
0.137507
0.129811
0.125417
0.125503
0.126188
0.126008
0.125783
0.125873
0.125992
0.125981
0.12588
0.125719
0.125481
0.125172
0.124837
0.124486
0.124056
0.123509
0.122916
0.122423
0.12214
0.122093
0.122252
0.122558
0.122903
0.123091
0.122847
0.121889
0.120045
0.117352
0.114116
0.110877
0.108315
0.107137
0.107837
0.110557
0.115099
0.120986
0.127554
0.134049
0.139733
0.143958
0.146219
0.146184
0.143719
0.138901
0.132022
0.123572
0.114255
0.104737
0.0956547
0.0875964
0.0810698
0.0765267
0.0743626
0.0748592
0.0780816
0.0838125
0.0915795
0.100747
0.110626
0.120574
0.130042
0.138595
0.145898
0.151699
0.155803
0.158054
0.158311
0.156435
0.15227
0.145623
0.136271
0.123942
0.108415
0.0893255
0.0671118
0.0402921
0.0167514
0.146724
0.140554
0.130137
0.125474
0.126335
0.127291
0.127132
0.127044
0.127316
0.127579
0.127684
0.127693
0.127641
0.12751
0.127306
0.12706
0.126783
0.126436
0.125996
0.125525
0.125139
0.124928
0.124914
0.125069
0.125334
0.125603
0.125707
0.12542
0.124522
0.122888
0.120562
0.117804
0.115059
0.112903
0.111895
0.112459
0.114746
0.118624
0.123723
0.129496
0.135297
0.140473
0.144434
0.146709
0.146978
0.145098
0.141112
0.135247
0.127897
0.1196
0.110902
0.102322
0.0943569
0.0874978
0.0822596
0.0791714
0.0786767
0.0809772
0.0859301
0.0930704
0.10173
0.111184
0.120761
0.129902
0.13817
0.145237
0.150856
0.154838
0.157031
0.157297
0.155494
0.151461
0.144994
0.135852
0.123738
0.10841
0.089472
0.0673533
0.0405055
0.0168085
0.152296
0.142967
0.129745
0.125378
0.127135
0.128244
0.128101
0.128176
0.128617
0.128998
0.129206
0.129316
0.129362
0.129328
0.129216
0.129053
0.128848
0.128575
0.128223
0.127848
0.127544
0.127387
0.127397
0.127548
0.127783
0.128003
0.128058
0.127758
0.126925
0.125459
0.123409
0.120995
0.118599
0.116701
0.115776
0.116197
0.118127
0.121488
0.125995
0.13119
0.136508
0.141354
0.145174
0.147514
0.148061
0.146662
0.143334
0.138255
0.131749
0.124246
0.11619
0.107995
0.100074
0.0928802
0.0869735
0.0830094
0.0815992
0.0830897
0.0874101
0.0940902
0.102413
0.111601
0.120947
0.129877
0.137956
0.144861
0.150353
0.154252
0.15641
0.156693
0.154963
0.151053
0.14475
0.135796
0.123872
0.108716
0.0898971
0.0678476
0.0408791
0.0170224
0.158115
0.144629
0.128731
0.125245
0.127901
0.129052
0.128947
0.129203
0.129789
0.130269
0.130567
0.130768
0.130901
0.130951
0.130921
0.130833
0.130695
0.13049
0.130216
0.129921
0.129686
0.129575
0.129606
0.129758
0.129974
0.130165
0.130197
0.129905
0.12914
0.127821
0.125989
0.123835
0.121687
0.119952
0.119049
0.119317
0.12093
0.123865
0.127903
0.132662
0.137637
0.142275
0.146044
0.148497
0.149317
0.148338
0.145554
0.141109
0.135272
0.128395
0.120841
0.112936
0.105006
0.097457
0.0908821
0.0860636
0.0837913
0.0845627
0.0883719
0.0947273
0.102847
0.111889
0.121107
0.129915
0.137875
0.144673
0.150081
0.153924
0.156064
0.156372
0.154712
0.150915
0.144761
0.135977
0.124222
0.109222
0.0905087
0.068528
0.0413815
0.0174011
0.164189
0.145432
0.127245
0.125166
0.128614
0.129725
0.129697
0.130137
0.130845
0.131407
0.131787
0.13207
0.132278
0.132401
0.132443
0.132422
0.132344
0.132201
0.131994
0.131767
0.13159
0.131519
0.131571
0.131726
0.131934
0.13211
0.132136
0.131867
0.131172
0.129981
0.128328
0.126374
0.124403
0.122771
0.121849
0.121957
0.123285
0.125855
0.129513
0.133937
0.138671
0.143188
0.146971
0.149567
0.15065
0.15004
0.147713
0.143785
0.138488
0.132118
0.124967
0.117282
0.109299
0.101371
0.0941235
0.0884754
0.0854009
0.0855432
0.0889461
0.0950804
0.10309
0.112065
0.121224
0.129966
0.137856
0.144587
0.149941
0.153752
0.155888
0.156227
0.154633
0.150939
0.144921
0.13629
0.124691
0.109837
0.0912253
0.0693286
0.0419835
0.017937
0.170496
0.145299
0.125459
0.125191
0.129251
0.130284
0.130374
0.130988
0.131795
0.132428
0.132883
0.133237
0.133512
0.1337
0.133805
0.133843
0.13382
0.13373
0.133582
0.133412
0.133284
0.133248
0.133318
0.133479
0.133684
0.133856
0.133887
0.133648
0.133022
0.131945
0.13044
0.128644
0.126803
0.12523
0.124264
0.12421
0.125276
0.127528
0.130869
0.135032
0.139598
0.144059
0.147897
0.15065
0.151982
0.151699
0.149759
0.146256
0.141395
0.135428
0.128589
0.121048
0.11296
0.104636
0.0967468
0.0903433
0.0865684
0.0861867
0.0892729
0.0952542
0.103203
0.112151
0.121285
0.129992
0.137841
0.144533
0.149857
0.153655
0.1558
0.156174
0.154645
0.151047
0.145151
0.136659
0.125204
0.110488
0.0919807
0.0701891
0.0426507
0.0186018
0.176985
0.14422
0.123556
0.125328
0.129793
0.130753
0.130995
0.131762
0.132649
0.133345
0.133867
0.134285
0.134618
0.134863
0.135024
0.135114
0.135139
0.135098
0.134999
0.13488
0.134793
0.134785
0.134872
0.135039
0.135245
0.135418
0.13546
0.135253
0.134692
0.133715
0.132334
0.130662
0.128915
0.12737
0.126339
0.126121
0.126944
0.128917
0.131993
0.135952
0.140406
0.144852
0.148771
0.151684
0.153242
0.153231
0.151611
0.148443
0.143914
0.138241
0.13161
0.124133
0.115907
0.107222
0.0987907
0.0917742
0.0874425
0.0866479
0.0894845
0.0953437
0.103243
0.11217
0.121285
0.129971
0.137796
0.144467
0.14978
0.153581
0.155745
0.15616
0.154696
0.151187
0.145402
0.137037
0.125713
0.111129
0.0927261
0.0710601
0.0433475
0.0193524
0.183573
0.142217
0.121694
0.12556
0.130232
0.131155
0.131568
0.132463
0.133413
0.134165
0.134746
0.135219
0.135603
0.135896
0.136104
0.136239
0.136307
0.136307
0.13625
0.136171
0.136118
0.136133
0.136232
0.136404
0.13661
0.136786
0.13684
0.136664
0.136157
0.135268
0.133976
0.132397
0.130708
0.129162
0.128052
0.127676
0.128283
0.13002
0.132884
0.136691
0.141072
0.145535
0.149532
0.152588
0.154331
0.154537
0.153153
0.150227
0.145924
0.140435
0.133918
0.126448
0.118093
0.109135
0.100317
0.092867
0.0881347
0.0870297
0.0896629
0.0954069
0.103247
0.11214
0.121233
0.129899
0.13771
0.144373
0.149688
0.153503
0.155695
0.156157
0.154756
0.15133
0.145646
0.137397
0.126191
0.11173
0.0934284
0.0719044
0.0440533
0.0201478
0.190167
0.139387
0.119985
0.125844
0.130572
0.131506
0.13209
0.133084
0.13408
0.134878
0.135507
0.136023
0.136446
0.136777
0.137022
0.137191
0.137291
0.137322
0.137296
0.137247
0.137218
0.137248
0.137354
0.137527
0.137731
0.137907
0.137969
0.137816
0.13735
0.136511
0.135285
0.133762
0.1321
0.130532
0.129344
0.128834
0.12927
0.130829
0.13354
0.137241
0.141579
0.146058
0.150126
0.153294
0.155174
0.155541
0.154304
0.151532
0.147361
0.141971
0.135503
0.128019
0.119577
0.110455
0.101409
0.0936958
0.0887021
0.0873727
0.0898366
0.0954655
0.103232
0.112077
0.121139
0.129785
0.137586
0.144249
0.149575
0.153413
0.15564
0.156152
0.154815
0.151473
0.145877
0.137728
0.12663
0.112286
0.0940713
0.0726972
0.0447464
0.0209556
0.196676
0.135861
0.1185
0.126132
0.130817
0.131802
0.132534
0.133595
0.13462
0.135448
0.136107
0.136651
0.1371
0.137455
0.137723
0.137915
0.138035
0.138085
0.138079
0.138048
0.138033
0.13807
0.138178
0.138348
0.138548
0.138721
0.138787
0.138645
0.138205
0.137388
0.136199
0.134703
0.133046
0.131453
0.130204
0.129602
0.129925
0.131369
0.133982
0.137616
0.141927
0.146419
0.150537
0.153777
0.155746
0.156208
0.155066
0.15238
0.148279
0.142935
0.136484
0.128988
0.120503
0.111308
0.102159
0.0943111
0.0891629
0.0876766
0.0900004
0.0955186
0.103204
0.111992
0.121018
0.129644
0.137441
0.144115
0.14946
0.153324
0.155589
0.156144
0.154867
0.151594
0.146079
0.138019
0.127014
0.11277
0.0946484
0.0734255
0.0454139
0.0217521
0.203021
0.131797
0.117278
0.126386
0.130978
0.132024
0.132862
0.133956
0.134994
0.135836
0.136513
0.137071
0.137532
0.1379
0.138181
0.138384
0.138515
0.138576
0.13858
0.138558
0.138549
0.13859
0.138697
0.138864
0.13906
0.13923
0.139294
0.139156
0.138724
0.137921
0.136747
0.135259
0.1336
0.131991
0.130707
0.130053
0.130314
0.131696
0.134253
0.137849
0.142142
0.14664
0.150785
0.154066
0.156086
0.156602
0.155514
0.152874
0.148807
0.143483
0.137037
0.129535
0.121038
0.111827
0.10265
0.0947511
0.0895211
0.087929
0.0901402
0.0955579
0.103154
0.111893
0.120882
0.129489
0.137282
0.143965
0.149329
0.153223
0.155527
0.156131
0.154911
0.151702
0.146258
0.138276
0.12735
0.113197
0.0951622
0.0740839
0.0460485
0.0225215
0.209204
0.127464
0.116345
0.126578
0.131061
0.132156
0.133054
0.134161
0.135203
0.136052
0.136736
0.137301
0.137768
0.138142
0.138429
0.138638
0.138774
0.138839
0.138848
0.138831
0.138826
0.138868
0.138975
0.13914
0.139333
0.139501
0.139563
0.139425
0.138995
0.138196
0.137025
0.135539
0.133878
0.13226
0.130961
0.130285
0.13052
0.131874
0.134405
0.13798
0.142262
0.146759
0.150914
0.154215
0.156261
0.156806
0.155746
0.153132
0.149083
0.143768
0.137324
0.129821
0.121327
0.112125
0.102957
0.0950503
0.0897823
0.0881213
0.0902453
0.0955757
0.103101
0.111786
0.120741
0.129333
0.137125
0.143818
0.149203
0.153128
0.15547
0.156119
0.15495
0.151797
0.146415
0.138499
0.127643
0.113571
0.0956165
0.0746717
0.0466445
0.0232553
0.215368
0.123376
0.11571
0.126695
0.131079
0.132205
0.133133
0.134247
0.13529
0.136144
0.136831
0.137399
0.137869
0.138246
0.138535
0.138746
0.138885
0.138952
0.138964
0.138949
0.138946
0.138989
0.139096
0.139261
0.139453
0.13962
0.139681
0.139541
0.139107
0.138311
0.137139
0.135652
0.13399
0.132369
0.131066
0.130384
0.130612
0.131957
0.134479
0.138044
0.142318
0.146812
0.150969
0.154277
0.156336
0.156896
0.155852
0.153252
0.149214
0.143906
0.137465
0.129964
0.121477
0.112291
0.103141
0.0952427
0.0899585
0.0882524
0.0903112
0.0955675
0.103037
0.111677
0.120605
0.129185
0.136977
0.143683
0.149089
0.153042
0.15542
0.156109
0.154986
0.151882
0.146554
0.138695
0.127902
0.113902
0.0960233
0.0751998
0.0472064
0.0239647
0.221465
0.12017
0.115314
0.126744
0.131059
0.132198
0.133141
0.134261
0.135308
0.136164
0.136853
0.137423
0.137895
0.138273
0.138563
0.138776
0.138916
0.138984
0.138997
0.138983
0.138981
0.139025
0.139133
0.139298
0.139491
0.139657
0.139717
0.139576
0.13914
0.138342
0.137169
0.13568
0.134017
0.132395
0.131092
0.130412
0.13064
0.131984
0.134504
0.138066
0.142336
0.146827
0.150984
0.154296
0.156361
0.15693
0.155897
0.153307
0.149278
0.143976
0.13754
0.130043
0.121564
0.112391
0.103255
0.0953625
0.0900658
0.0883251
0.0903339
0.0955306
0.102959
0.111565
0.120473
0.129045
0.136842
0.143561
0.148989
0.152969
0.15538
0.156107
0.155025
0.151967
0.146687
0.138882
0.128146
0.114214
0.0964056
0.0756933
0.0477442
0.0246767
0.226191
0.118227
0.115089
0.126771
0.131036
0.132174
0.133125
0.134251
0.135301
0.136158
0.136849
0.13742
0.137892
0.13827
0.138561
0.138774
0.138914
0.138983
0.138996
0.138982
0.138981
0.139026
0.139135
0.139301
0.139494
0.13966
0.13972
0.139578
0.139141
0.13834
0.137164
0.135675
0.134011
0.132391
0.131089
0.13041
0.130639
0.131984
0.134505
0.138064
0.142334
0.146824
0.150982
0.154296
0.156366
0.156942
0.155918
0.153338
0.149319
0.144024
0.137593
0.130102
0.121629
0.112463
0.103334
0.0954418
0.0901287
0.0883551
0.0903186
0.095475
0.102868
0.111452
0.120348
0.128921
0.136725
0.143457
0.148904
0.152909
0.155349
0.156109
0.155064
0.152046
0.146809
0.139051
0.128366
0.114493
0.096746
0.0761306
0.0482141
0.0253449
)
;

boundaryField
{
    inlet
    {
        type            zeroGradient;
    }
    outlet
    {
        type            fixedValue;
        value           uniform 0;
    }
    fixedWalls
    {
        type            zeroGradient;
    }
    frontAndBack
    {
        type            empty;
    }
}


// ************************************************************************* //
