/*--------------------------------*- C++ -*----------------------------------*\
| =========                 |                                                 |
| \\      /  F ield         | OpenFOAM: The Open Source CFD Toolbox           |
|  \\    /   O peration     | Version:  v1912                                 |
|   \\  /    A nd           | Website:  www.openfoam.com                      |
|    \\/     M anipulation  |                                                 |
\*---------------------------------------------------------------------------*/
FoamFile
{
    version     2.0;
    format      ascii;
    class       surfaceScalarField;
    location    "175";
    object      phi;
}
// * * * * * * * * * * * * * * * * * * * * * * * * * * * * * * * * * * * * * //

dimensions      [0 3 -1 0 0 0 0];
oriented        oriented;


internalField   nonuniform List<scalar> 
3895
(
0.000814744
0.000381432
0.000499356
0.000315388
0.000251558
0.000247799
6.48573e-05
0.0001867
-6.21972e-05
0.000127054
-0.000127344
6.51467e-05
-0.000137689
1.03447e-05
-0.000113723
-2.39655e-05
-9.03036e-05
-2.34195e-05
-8.46432e-05
-5.66048e-06
-6.5974e-05
-1.86692e-05
-4.51788e-05
-2.07952e-05
-4.12664e-05
-3.9123e-06
-4.8854e-05
7.58755e-06
-4.31471e-05
-5.70694e-06
-2.43648e-05
-1.87823e-05
-1.04637e-05
-1.39011e-05
-3.56715e-06
-6.89655e-06
1.46548e-06
-5.03263e-06
1.16402e-05
-1.01747e-05
3.05205e-05
-1.88804e-05
5.50362e-05
-2.45157e-05
7.90387e-05
-2.40025e-05
9.70295e-05
-1.79908e-05
0.000106672
-9.64215e-06
0.000108382
-1.71043e-06
0.000102611
5.77092e-06
9.30086e-05
9.60252e-06
8.21644e-05
1.08442e-05
7.14402e-05
1.07243e-05
6.10618e-05
1.03783e-05
5.13331e-05
9.72872e-06
4.29788e-05
8.35431e-06
3.71214e-05
5.85735e-06
3.49042e-05
2.21726e-06
3.88239e-05
-3.91976e-06
4.80532e-05
-9.22929e-06
6.17592e-05
-1.3706e-05
7.86838e-05
-1.69246e-05
9.67261e-05
-1.80423e-05
0.000113237
-1.65109e-05
0.000125444
-1.22066e-05
0.000131041
-5.59788e-06
0.000124568
6.4739e-06
0.000107185
1.73823e-05
7.81003e-05
2.90849e-05
3.61639e-05
4.19363e-05
-1.97708e-05
5.59347e-05
-9.09716e-05
7.12008e-05
-0.000178223
8.72519e-05
-0.000281543
0.00010332
-0.000399259
0.000117715
-0.000527021
0.000127762
-0.00065697
0.000129949
-0.000778293
0.000121323
-0.000879434
0.000101142
-0.000949201
6.97665e-05
-0.00097317
2.3969e-05
-0.000952997
-2.01733e-05
-0.000899113
-5.38833e-05
-0.000818887
-8.02259e-05
-0.000720532
-9.83559e-05
-0.00061088
-0.000109652
-0.000496196
-0.000114684
-0.000380809
-0.000115387
-0.000267557
-0.000113252
-0.000158257
-0.0001093
-5.39779e-05
-0.000104279
4.46939e-05
-9.86718e-05
0.000137516
-9.28222e-05
0.000225042
-8.75256e-05
0.000307936
-8.28947e-05
0.000386797
-7.88605e-05
0.000462184
-7.53869e-05
0.000534645
-7.24612e-05
0.000605018
-7.03732e-05
0.000673997
-6.89787e-05
0.000744595
-7.05976e-05
0.000816468
-7.18732e-05
-9.34979e-05
0.00108795
0.000349295
0.00104738
0.000355953
0.000933267
0.000361913
0.000775722
0.000344245
0.000598387
0.00030439
0.000410336
0.000253197
0.000221222
0.000199459
5.38825e-05
0.000143374
-6.04943e-05
9.09573e-05
-0.000110291
4.41359e-05
-0.00013184
2.88022e-06
-0.000123836
-2.87998e-05
-0.000106405
-2.13429e-05
-0.000109805
1.09879e-05
-0.000107675
-7.8369e-06
-9.9695e-05
-2.67626e-05
-9.15297e-05
-2.20664e-05
-9.78154e-05
-6.10788e-07
-0.000107012
4.16363e-06
-0.000111046
-6.14079e-06
-0.000108063
-2.18627e-05
-9.93909e-05
-3.31881e-05
-8.48118e-05
-3.85816e-05
-6.69517e-05
-3.58509e-05
-4.94708e-05
-2.7123e-05
-3.50922e-05
-1.6089e-05
-2.33899e-05
-5.93143e-06
-1.66632e-05
2.87582e-06
-1.52291e-05
9.41016e-06
-1.931e-05
1.48051e-05
-2.82448e-05
1.93132e-05
-4.06551e-05
2.21389e-05
-5.43822e-05
2.20814e-05
-6.66903e-05
1.81655e-05
-7.51113e-05
1.06382e-05
-7.80751e-05
-9.55905e-07
-7.44788e-05
-1.28257e-05
-6.50256e-05
-2.31591e-05
-5.17399e-05
-3.02103e-05
-3.75441e-05
-3.22381e-05
-2.59746e-05
-2.80804e-05
-2.06414e-05
-1.75398e-05
-2.53031e-05
-9.3622e-07
-3.78332e-05
1.90041e-05
-6.20125e-05
4.15616e-05
-9.86465e-05
6.57189e-05
-0.000147207
9.04964e-05
-0.000205618
0.000114346
-0.000269701
0.000135284
-0.00033423
0.000151781
-0.000393616
0.000162706
-0.000442407
0.000166506
-0.000475624
0.000160979
-0.000489068
0.000143394
-0.00047883
0.000111085
-0.000441129
6.34401e-05
-0.000383825
1.24627e-05
-0.000311408
-4.84476e-05
-0.00023511
-9.64716e-05
-0.000155668
-0.000133325
-7.46875e-05
-0.000161206
6.7387e-06
-0.000179782
8.69618e-05
-0.000189875
0.000166006
-0.000193728
0.000242997
-0.000192378
0.000317007
-0.000187262
0.00038735
-0.000179643
0.000453605
-0.000170534
0.000515686
-0.000160752
0.000573825
-0.000150961
0.00062799
-0.000141691
0.000678329
-0.000133234
0.000725186
-0.000125718
0.000768996
-0.000119197
0.000810264
-0.000113729
0.000849423
-0.000109533
0.000887296
-0.000106851
0.000923786
-0.000107088
0.000960866
-0.000108953
-0.000123622
0.000975283
0.000305927
0.00102604
0.000305195
0.00106097
0.000326988
0.00105861
0.000346605
0.00101215
0.000350849
0.000925005
0.000340339
0.000805688
0.000318776
0.000661686
0.000287376
0.000504789
0.000247854
0.000345491
0.000203434
0.000189791
0.00015858
4.71979e-05
0.000113794
-4.84923e-05
7.43473e-05
-8.39079e-05
4.64036e-05
-0.000104174
1.2429e-05
-0.000113409
-1.75275e-05
-0.000105787
-2.96882e-05
-0.000104944
-1.45436e-06
-0.000123656
2.28756e-05
-0.000144387
1.45909e-05
-0.000163419
-2.83112e-06
-0.000177561
-1.90463e-05
-0.000182373
-3.37687e-05
-0.000179945
-3.82796e-05
-0.000172384
-3.46836e-05
-0.000162679
-2.5794e-05
-0.000154875
-1.37359e-05
-0.000150992
-1.00672e-06
-0.000153463
1.18806e-05
-0.000163817
2.51593e-05
-0.000181035
3.65308e-05
-0.000202865
4.39696e-05
-0.000226071
4.52875e-05
-0.000246808
3.89022e-05
-0.000261017
2.48468e-05
-0.000267043
5.07037e-06
-0.000263853
-1.60155e-05
-0.000250732
-3.62804e-05
-0.000229987
-5.09551e-05
-0.000205603
-5.66218e-05
-0.000182116
-5.15676e-05
-0.00016372
-3.59353e-05
-0.000153399
-1.12575e-05
-0.000151201
1.68054e-05
-0.000158373
4.87341e-05
-0.000173104
8.04497e-05
-0.000191826
0.000109218
-0.000210349
0.000132869
-0.000224318
0.000149253
-0.000228029
0.000155492
-0.000216704
0.000151381
-0.000187152
0.000136954
-0.000138102
0.000111929
-7.08948e-05
7.61862e-05
9.2869e-06
3.09031e-05
9.34309e-05
-2.07039e-05
0.000177977
-7.2083e-05
0.000251532
-0.000122003
0.000319957
-0.000164896
0.000384826
-0.000198195
0.000445536
-0.000221916
0.000502512
-0.000236758
0.000556267
-0.000243629
0.000606421
-0.000243882
0.000652957
-0.000238914
0.000695804
-0.00023011
0.000734953
-0.000218791
0.000770507
-0.000206089
0.000802664
-0.000192909
0.000831646
-0.000179943
0.000857645
-0.000167689
0.000880873
-0.000156462
0.000901574
-0.000146419
0.000920006
-0.000137628
0.000936428
-0.000130152
0.000951029
-0.000124133
0.000964063
-0.000119885
0.000975071
-0.000118096
0.000985002
-0.000118884
-0.000127671
0.00085711
0.000271375
0.000897356
0.000264949
0.000950165
0.000274179
0.00100471
0.000292064
0.00104637
0.000309185
0.00106529
0.000321416
0.0010566
0.000327465
0.00101786
0.000326115
0.000949416
0.000316302
0.000854854
0.000297996
0.00074059
0.000272845
0.000611514
0.000242869
0.000476063
0.000209799
0.000347808
0.000174658
0.000222825
0.000137412
0.000102074
0.000103223
2.48394e-06
6.99017e-05
-4.52391e-05
4.62687e-05
-5.64123e-05
3.40487e-05
-6.44534e-05
2.26321e-05
-7.93935e-05
1.2109e-05
-0.000100401
1.96125e-06
-0.00012743
-6.73985e-06
-0.000152018
-1.36913e-05
-0.000168004
-1.86976e-05
-0.000174768
-1.90299e-05
-0.000176171
-1.23329e-05
-0.000176778
-4.00395e-07
-0.000180628
1.57306e-05
-0.000189741
3.42724e-05
-0.000204697
5.14875e-05
-0.000224106
6.33779e-05
-0.000245228
6.64095e-05
-0.000264177
5.78512e-05
-0.000276347
3.70176e-05
-0.000278191
6.91393e-06
-0.000272396
-2.18103e-05
-0.000254101
-5.45759e-05
-0.000225205
-7.98507e-05
-0.00018864
-9.31867e-05
-0.00014817
-9.20376e-05
-0.000108273
-7.58326e-05
-7.33922e-05
-4.61383e-05
-4.59208e-05
-1.06659e-05
-2.44945e-05
2.73078e-05
-9.25448e-06
6.52096e-05
3.1285e-06
9.68354e-05
1.71912e-05
0.000118807
3.73621e-05
0.000129082
6.58442e-05
0.00012701
0.000105843
0.000111382
0.000159493
8.33047e-05
0.000227448
4.39738e-05
0.000304812
-1.17831e-06
0.000387446
-5.17308e-05
0.000469795
-0.000103053
0.000549021
-0.000151309
0.00062088
-0.000193862
0.000684346
-0.000228362
0.000739589
-0.000253438
0.00078682
-0.000269148
0.00082642
-0.000276358
0.000859065
-0.000276275
0.000885508
-0.000270324
0.000906583
-0.000259988
0.000923127
-0.000246654
0.000935897
-0.000231562
0.000945548
-0.00021574
0.000952628
-0.000199989
0.000957572
-0.000184887
0.000960708
-0.000170825
0.000962281
-0.000158035
0.000962483
-0.000146621
0.00096147
-0.000136615
0.000959364
-0.000128046
0.000956215
-0.000120984
0.000952
-0.000115671
0.000946331
-0.000112426
0.000939165
-0.000111718
-0.00011584
0.000759397
0.000238012
0.000790536
0.00023381
0.000828352
0.000236362
0.000874988
0.000245429
0.000927006
0.000257167
0.000978876
0.000269547
0.00102441
0.000281929
0.00105753
0.000292996
0.00107313
0.000300701
0.00106775
0.000303377
0.00104024
0.000300358
0.000991249
0.000291858
0.0009227
0.000278348
0.000838026
0.000259332
0.000740362
0.000235076
0.000635083
0.000208503
0.000530133
0.000174852
0.00043261
0.000143792
0.000349669
0.00011699
0.000278885
9.34159e-05
0.000217629
7.3365e-05
0.000163105
5.64848e-05
0.000113957
4.24083e-05
7.0488e-05
2.97779e-05
3.41895e-05
1.76009e-05
8.24546e-06
6.91408e-06
-4.56558e-06
4.78147e-07
-7.18741e-06
2.22143e-06
-4.37607e-06
1.29193e-05
-1.36889e-06
3.12652e-05
-1.91616e-07
5.03102e-05
-3.70144e-07
6.35564e-05
-7.82645e-07
6.6822e-05
-6.38324e-07
5.77069e-05
1.48228e-06
3.4897e-05
6.13657e-06
2.25965e-06
1.72299e-05
-3.29037e-05
2.95858e-05
-6.69318e-05
4.38726e-05
-9.41375e-05
6.18249e-05
-0.000111139
8.57648e-05
-0.000115977
0.000117541
-0.000107609
0.000157353
-8.59506e-05
0.000200624
-5.39371e-05
0.000243736
-1.58041e-05
0.000286426
2.252e-05
0.000328886
5.43749e-05
0.000372399
7.52939e-05
0.00041856
8.29207e-05
0.000469125
7.64459e-05
0.000524137
5.63692e-05
0.000582468
2.49739e-05
0.000644856
-1.84146e-05
0.000710082
-6.64041e-05
0.000775172
-0.000116821
0.000837032
-0.000164912
0.000892716
-0.000206993
0.000939656
-0.000240802
0.000976609
-0.000265316
0.00100362
-0.000280448
0.00102141
-0.000286943
0.00103113
-0.000286073
0.00103416
-0.000279302
0.00103194
-0.000268105
0.00102581
-0.000253858
0.00101692
-0.000237767
0.0010062
-0.000220842
0.000994345
-0.000203884
0.000981847
-0.000187491
0.000969038
-0.000172078
0.000956118
-0.000157906
0.000943199
-0.000145116
0.000930338
-0.00013376
0.000917556
-0.000123834
0.00090484
-0.00011533
0.00089211
-0.000108254
0.000879185
-0.000102745
0.000865664
-9.89057e-05
0.000851084
-9.71374e-05
-9.85362e-05
0.000672434
0.000206415
0.000702275
0.000203968
0.000733372
0.000205265
0.000767841
0.00021096
0.000806619
0.00021839
0.000850045
0.000226121
0.000897313
0.00023466
0.000946044
0.000244265
0.000992646
0.000254099
0.00103304
0.000262984
0.00106344
0.000269955
0.00108106
0.00027424
0.00108421
0.000275196
0.00107164
0.000271903
0.00104298
0.000263734
0.000999924
0.000251562
0.000947482
0.000227294
0.00088991
0.000201364
0.000830437
0.000176463
0.000771474
0.000152379
0.000715031
0.000129808
0.000662193
0.000109323
0.000613571
9.10301e-05
0.000568759
7.45897e-05
0.000526361
5.99991e-05
0.000485239
4.80358e-05
0.000445998
3.97195e-05
0.000412361
3.58589e-05
0.000388706
3.65741e-05
0.000378858
4.11129e-05
0.000382505
4.6663e-05
0.000396851
4.9211e-05
0.000418757
4.49157e-05
0.00044531
3.11541e-05
0.000472766
7.44076e-06
0.000498218
-2.31926e-05
0.000519348
-5.40332e-05
0.00053295
-8.05342e-05
0.000537716
-9.89033e-05
0.000533821
-0.000107244
0.000523424
-0.00010558
0.000511156
-9.53414e-05
0.000503898
-7.86926e-05
0.000507909
-5.79479e-05
0.000527212
-3.51068e-05
0.000561171
-1.14394e-05
0.000605348
1.01983e-05
0.000654945
2.56963e-05
0.00070684
3.10258e-05
0.000759522
2.37647e-05
0.000813027
2.86387e-06
0.000868447
-3.04466e-05
0.000923195
-7.31623e-05
0.000976209
-0.000119418
0.00102389
-0.000164505
0.00106325
-0.000204274
0.00109224
-0.000235983
0.00110998
-0.000258538
0.00111676
-0.000272097
0.00111384
-0.000277524
0.00110297
-0.000276077
0.00108608
-0.000269179
0.001065
-0.000258226
0.00104137
-0.000244475
0.00101652
-0.000229003
0.00099145
-0.0002127
0.000966879
-0.000196272
0.000943255
-0.00018026
0.000920821
-0.000165057
0.000899671
-0.000150927
0.000879796
-0.000138031
0.00086113
-0.000126449
0.000843573
-0.000116203
0.00082701
-0.00010727
0.000811298
-9.96178e-05
0.000796242
-9.31981e-05
0.000781566
-8.80691e-05
0.000766807
-8.4147e-05
0.000751509
-8.18393e-05
-8.13415e-05
0.000594386
0.000177666
0.00062317
0.000175184
0.000652324
0.000176111
0.000682116
0.000181167
0.000712928
0.000187579
0.000745619
0.000193429
0.000781191
0.000199088
0.000820209
0.000205247
0.000862433
0.000211875
0.000906735
0.000218682
0.000951248
0.000225441
0.000993691
0.000231798
0.00103172
0.000237165
0.00106294
0.000240688
0.00108516
0.000241508
0.00109726
0.000239468
0.00109937
0.000225179
0.00109326
0.000207473
0.00108048
0.000189243
0.0010625
0.000170365
0.00104095
0.00015135
0.00101737
0.000132912
0.000992858
0.000115538
0.000967932
9.95155e-05
0.000942654
8.52773e-05
0.000917159
7.35312e-05
0.00089193
6.49484e-05
0.000868076
5.97132e-05
0.000847561
5.70887e-05
0.000833305
5.53688e-05
0.00082787
5.20984e-05
0.000832298
4.47831e-05
0.000845841
3.1372e-05
0.000866326
1.06693e-05
0.000890071
-1.63041e-05
0.000912356
-4.54776e-05
0.000930642
-7.2319e-05
0.000943242
-9.31346e-05
0.000949765
-0.000105426
0.000950636
-0.000108116
0.000946639
-0.000101583
0.000938618
-8.73203e-05
0.000927556
-6.76307e-05
0.00091503
-4.54212e-05
0.000903931
-2.40079e-05
0.000898679
-6.18701e-06
0.00090255
6.3266e-06
0.000917546
1.07007e-05
0.000943488
5.08393e-06
0.000978022
-1.07694e-05
0.00101817
-3.72888e-05
0.00105969
-7.19609e-05
0.00109776
-0.000111231
0.00112882
-0.000150479
0.00115001
-0.000185692
0.00115989
-0.000214153
0.00115843
-0.000234532
0.00114671
-0.000246814
0.00112646
-0.000251847
0.00109977
-0.000250838
0.00106877
-0.00024507
0.00103534
-0.000235756
0.00100109
-0.000223967
0.000967208
-0.000210598
0.000934581
-0.000196376
0.000903762
-0.000181881
0.000875053
-0.000167563
0.000848561
-0.000153768
0.00082425
-0.000140746
0.000801994
-0.000128672
0.000781622
-0.000117659
0.00076294
-0.000107768
0.000745754
-9.90168e-05
0.000729866
-9.13826e-05
0.000715069
-8.4821e-05
0.000701113
-7.92422e-05
0.000687696
-7.46523e-05
0.000674324
-7.07749e-05
0.000660678
-6.81931e-05
-6.59865e-05
0.000525111
0.000151816
0.000551937
0.000148358
0.000579147
0.000148901
0.00060647
0.000153845
0.00063401
0.000160038
0.000661959
0.000165481
0.000690637
0.00017041
0.000720618
0.000175266
0.000752554
0.000179939
0.000786904
0.000184332
0.000823769
0.000188575
0.000862801
0.000192766
0.000903182
0.000196784
0.000943625
0.000200245
0.000982496
0.000202637
0.00101829
0.000203677
0.00104869
0.000194773
0.00107332
0.000182844
0.00109236
0.000170206
0.00110611
0.000156617
0.00111512
0.000142338
0.00112011
0.000127917
0.00112178
0.000113868
0.00112067
0.000100628
0.00111725
8.86997e-05
0.00111211
7.86729e-05
0.00110607
7.09797e-05
0.00110027
6.55207e-05
0.00109598
6.13756e-05
0.00109452
5.68292e-05
0.00109687
4.97533e-05
0.00110338
3.827e-05
0.00111338
2.13704e-05
0.00112485
-8.05465e-07
0.00113489
-2.63424e-05
0.00114125
-5.18299e-05
0.00114277
-7.38472e-05
0.00113923
-8.95961e-05
0.00113128
-9.74754e-05
0.00112025
-9.70808e-05
0.00110782
-8.91544e-05
0.00109582
-7.53215e-05
0.00108595
-5.77577e-05
0.00107937
-3.88391e-05
0.00107631
-2.09479e-05
0.00107676
-6.63572e-06
0.00108163
1.45493e-06
0.00109087
1.45619e-06
0.00110439
-8.43665e-06
0.00112061
-2.69876e-05
0.0011369
-5.35822e-05
0.00115037
-8.54306e-05
0.00115811
-0.000118971
0.00115812
-0.000150489
0.00114949
-0.000177065
0.00113242
-0.000197083
0.001108
-0.000210104
0.0010778
-0.000216613
0.00104357
-0.00021762
0.00100701
-0.000214278
0.000969608
-0.000207668
0.000932572
-0.000198721
0.000896805
-0.000188199
0.000862922
-0.000176714
0.000831295
-0.000164749
0.000802099
-0.000152685
0.000775357
-0.000140822
0.000750985
-0.000129395
0.000728825
-0.000118586
0.000708683
-0.00010853
0.000690353
-9.93281e-05
0.000673627
-9.10417e-05
0.000658307
-8.36972e-05
0.000644201
-7.72762e-05
0.000631109
-7.17288e-05
0.000618796
-6.69297e-05
0.000606983
-6.28391e-05
0.000595201
-5.89928e-05
0.000583226
-5.62179e-05
-5.23397e-05
0.00046394
0.000128551
0.00048864
0.000123658
0.000513481
0.000124059
0.000538161
0.000129164
0.000563126
0.000135073
0.000588451
0.000140155
0.000613979
0.000144883
0.000639776
0.000149468
0.0006661
0.000153615
0.000693271
0.000157162
0.00072165
0.000160196
0.000751583
0.000162833
0.00078327
0.000165097
0.000816631
0.000166884
0.000851247
0.00016802
0.000886503
0.000168422
0.000920275
0.000161001
0.000951676
0.000151444
0.000980283
0.000141599
0.00100574
0.000131163
0.00102787
0.000120208
0.00104671
0.000109073
0.00106244
9.81426e-05
0.00107528
8.77813e-05
0.0010856
7.83887e-05
0.00109389
7.03797e-05
0.00110088
6.39846e-05
0.00110743
5.8979e-05
0.00111429
5.45098e-05
0.00112197
4.91535e-05
0.00113046
4.12637e-05
0.00113922
2.95096e-05
0.00114713
1.34621e-05
0.00115257
-6.24525e-06
0.00115398
-2.77531e-05
0.00115056
-4.84124e-05
0.00114229
-6.55834e-05
0.00112995
-7.72552e-05
0.00111488
-8.24012e-05
0.00109875
-8.09499e-05
0.00108327
-7.36744e-05
0.00106991
-6.19678e-05
0.00105976
-4.76046e-05
0.00105347
-3.2552e-05
0.00105139
-1.88613e-05
0.00105337
-8.61279e-06
0.00105862
-3.80228e-06
0.00106607
-5.987e-06
0.00107381
-1.61831e-05
0.00108048
-3.36511e-05
0.001084
-5.71027e-05
0.00108266
-8.40936e-05
0.00107528
-0.000111596
0.00106151
-0.000136717
0.00104174
-0.000157289
0.00101684
-0.000172185
0.000987966
-0.000181231
0.000956328
-0.000184975
0.000923071
-0.000184363
0.000889224
-0.00018043
0.000855655
-0.0001741
0.000823057
-0.000166122
0.000791934
-0.000157077
0.000762622
-0.000147403
0.00073531
-0.000137437
0.000710068
-0.000127442
0.000686873
-0.000117627
0.000665637
-0.000108159
0.000646227
-9.91766e-05
0.000628489
-9.07917e-05
0.000612258
-8.30969e-05
0.000597371
-7.61556e-05
0.000583675
-7.00004e-05
0.000571018
-6.46192e-05
0.000559244
-5.99552e-05
0.000548165
-5.58501e-05
0.000537529
-5.22034e-05
0.000526928
-4.83922e-05
0.000516149
-4.54391e-05
-3.99826e-05
0.000410014
0.000107502
0.000432754
0.000100918
0.000455184
0.00010163
0.000477155
0.000107194
0.000499459
0.000112769
0.000522209
0.000117405
0.000545212
0.000121879
0.000568453
0.000126227
0.000591958
0.00013011
0.000615712
0.000133408
0.000639759
0.000136149
0.000664244
0.000138348
0.000689364
0.000139977
0.000715282
0.000140966
0.000742071
0.000141231
0.000769721
0.000140772
0.00079695
0.000133772
0.000823269
0.000125125
0.000848415
0.000116452
0.000872046
0.000107532
0.000893865
9.83888e-05
0.000913693
8.92448e-05
0.000931463
8.03724e-05
0.00094721
7.20342e-05
0.000961097
6.4502e-05
0.000973449
5.80276e-05
0.000984735
5.26988e-05
0.00099546
4.82534e-05
0.001006
4.39751e-05
0.00101639
3.87611e-05
0.00102625
3.14003e-05
0.00103478
2.09839e-05
0.00104089
7.34984e-06
0.00104347
-8.82183e-06
0.00104174
-2.60237e-05
0.00103549
-4.21702e-05
0.00102517
-5.52562e-05
0.00101174
-6.38279e-05
0.000996542
-6.72037e-05
0.000981042
-6.54501e-05
0.000966643
-5.92753e-05
0.000954522
-4.98468e-05
0.000945527
-3.86095e-05
0.000940131
-2.71559e-05
0.000938395
-1.71256e-05
0.000939908
-1.01261e-05
0.000943769
-7.66265e-06
0.000948711
-1.09295e-05
0.000953082
-2.05537e-05
0.000955492
-3.60617e-05
0.000954601
-5.62115e-05
0.000949527
-7.9019e-05
0.000939955
-0.000102024
0.000926071
-0.000122833
0.000908364
-0.000139582
0.000887427
-0.000151248
0.000863877
-0.000157681
0.000838342
-0.000159441
0.000811468
-0.000157489
0.000783902
-0.000152865
0.000756265
-0.000146463
0.0007291
-0.000138958
0.000702844
-0.00013082
0.000677816
-0.000122375
0.000654225
-0.000113846
0.000632182
-0.000105399
0.000611719
-9.71643e-05
0.000592806
-8.92463e-05
0.00057537
-8.17401e-05
0.000559308
-7.47294e-05
0.000544504
-6.82936e-05
0.00053084
-6.24914e-05
0.000518201
-5.73615e-05
0.00050648
-5.28984e-05
0.000495561
-4.90359e-05
0.000485295
-4.5584e-05
0.000475454
-4.2363e-05
0.000465708
-3.86453e-05
0.000455789
-3.55202e-05
-2.87046e-05
0.000362528
8.8294e-05
0.000383496
7.9949e-05
0.000403598
8.15282e-05
0.000423066
8.77255e-05
0.000442884
9.2951e-05
0.000463084
9.72053e-05
0.000483533
0.00010143
0.00050431
0.00010545
0.000525439
0.000108982
0.000546832
0.000112014
0.000568405
0.000114576
0.000590112
0.00011664
0.000611943
0.000118146
0.000633899
0.00011901
0.000655988
0.000119142
0.000678238
0.000118522
0.000699748
0.000112262
0.000720319
0.000104554
0.000739932
9.68385e-05
0.000758473
8.8991e-05
0.000775805
8.10569e-05
0.000791827
7.32235e-05
0.000806488
6.57115e-05
0.0008198
5.87219e-05
0.000831863
5.24389e-05
0.000842887
4.70035e-05
0.000853172
4.24137e-05
0.000863025
3.84011e-05
0.000872625
3.43745e-05
0.0008819
2.94867e-05
0.000890444
2.28562e-05
0.00089755
1.38779e-05
0.000902407
2.49259e-06
0.000904271
-1.06858e-05
0.000902663
-2.44159e-05
0.00089752
-3.70268e-05
0.000889233
-4.69694e-05
0.000878568
-5.31628e-05
0.000866519
-5.51546e-05
0.000854174
-5.3105e-05
0.000842583
-4.76846e-05
0.000832648
-3.9912e-05
0.000825038
-3.09995e-05
0.000820132
-2.22494e-05
0.000817982
-1.49764e-05
0.000818294
-1.04379e-05
0.000820403
-9.77173e-06
0.000823336
-1.38623e-05
0.000825915
-2.3133e-05
0.000827088
-3.72345e-05
0.000825999
-5.51227e-05
0.000822128
-7.51482e-05
0.000815313
-9.52089e-05
0.000805623
-0.000113143
0.000793197
-0.000127156
0.000778153
-0.000136204
0.000760631
-0.000140159
0.000740885
-0.000139695
0.000719338
-0.000135941
0.000696544
-0.000130071
0.000673113
-0.000123032
0.000649624
-0.000115468
0.000626565
-0.000107762
0.000604313
-0.000100122
0.000583128
-9.26604e-05
0.000563168
-8.54399e-05
0.00054451
-7.85058e-05
0.00052716
-7.18966e-05
0.00051108
-6.56597e-05
0.000496194
-5.98441e-05
0.000482413
-5.45126e-05
0.000469641
-4.97186e-05
0.000457789
-4.55095e-05
0.000446779
-4.18886e-05
0.000436521
-3.87781e-05
0.000426898
-3.59611e-05
0.000417707
-3.31722e-05
0.00040871
-2.96479e-05
0.000399571
-2.63812e-05
-1.85511e-05
0.000320758
7.05693e-05
0.000340087
6.06195e-05
0.000357963
6.36522e-05
0.000375208
7.04804e-05
0.000392823
7.53359e-05
0.000410696
7.93327e-05
0.000428766
8.336e-05
0.000447175
8.70411e-05
0.000465958
9.0199e-05
0.00048505
9.29222e-05
0.000504385
9.52415e-05
0.0005239
9.71245e-05
0.000543523
9.85235e-05
0.000563167
9.93665e-05
0.000582742
9.95674e-05
0.000602179
9.90842e-05
0.000620636
9.38061e-05
0.000637948
8.72415e-05
0.00065416
8.06263e-05
0.000669262
7.38891e-05
0.000683228
6.70917e-05
0.000696045
6.04058e-05
0.000707731
5.4026e-05
0.000718334
4.81191e-05
0.000727956
4.28168e-05
0.000736767
3.81921e-05
0.000744991
3.41901e-05
0.000752847
3.05451e-05
0.000760464
2.67575e-05
0.000767792
2.21587e-05
0.000774547
1.6101e-05
0.000780242
8.18288e-06
0.000784295
-1.56071e-06
0.000786159
-1.25493e-05
0.00078544
-2.36975e-05
0.000782051
-3.36374e-05
0.000776213
-4.11316e-05
0.000768417
-4.53671e-05
0.000759343
-4.60804e-05
0.000749773
-4.35343e-05
0.000740498
-3.84102e-05
0.000732238
-3.16521e-05
0.000725563
-2.43247e-05
0.000720835
-1.75215e-05
0.000718164
-1.23054e-05
0.000717389
-9.6624e-06
0.000718076
-1.04584e-05
0.000719562
-1.53485e-05
0.000721045
-2.46166e-05
0.000721776
-3.79655e-05
0.000721161
-5.45073e-05
0.000718826
-7.28134e-05
0.000714598
-9.09804e-05
0.000708351
-0.000106896
0.000699877
-0.000118682
0.000688896
-0.000125223
0.00067522
-0.000126484
0.000658926
-0.000123401
0.000640392
-0.000117407
0.000620221
-0.0001099
0.0005991
-0.000101911
0.000577679
-9.40479e-05
0.000556501
-8.65839e-05
0.000535975
-7.95957e-05
0.000516381
-7.30666e-05
0.000497891
-6.69502e-05
0.000480589
-6.12038e-05
0.000464489
-5.57966e-05
0.000449557
-5.07272e-05
0.000435722
-4.60092e-05
0.000422899
-4.16896e-05
0.000411
-3.78197e-05
0.00039995
-3.44598e-05
0.000389684
-3.16229e-05
0.000380128
-2.92213e-05
0.000371189
-2.70228e-05
0.000362703
-2.46862e-05
0.000354536
-2.14806e-05
0.000346306
-1.81512e-05
-9.73928e-06
0.000284047
5.39958e-05
0.000301804
4.28619e-05
0.000317588
4.78686e-05
0.000332895
5.51734e-05
0.000348562
5.96683e-05
0.000364361
6.35338e-05
0.000380329
6.73924e-05
0.000396623
7.07467e-05
0.000413254
7.3568e-05
0.000430172
7.60047e-05
0.000447339
7.80746e-05
0.000464716
7.97472e-05
0.000482245
8.09942e-05
0.000499846
8.17653e-05
0.000517423
8.19912e-05
0.000534878
8.16292e-05
0.000551404
7.72798e-05
0.000566816
7.18295e-05
0.000581137
6.63053e-05
0.000594365
6.06612e-05
0.000606495
5.4961e-05
0.000617542
4.93587e-05
0.000627543
4.40255e-05
0.000636561
3.9101e-05
0.000644698
3.46796e-05
0.000652101
3.07892e-05
0.00065895
2.73413e-05
0.000665419
2.40757e-05
0.000671619
2.05584e-05
0.000677532
1.62452e-05
0.000682981
1.06526e-05
0.000687634
3.52902e-06
0.000691067
-4.99284e-06
0.000692846
-1.4329e-05
0.000692651
-2.35019e-05
0.000690362
-3.13485e-05
0.000686083
-3.6853e-05
0.000680125
-3.94087e-05
0.000672962
-3.89177e-05
0.000665182
-3.57538e-05
0.000657412
-3.06411e-05
0.000650252
-2.44918e-05
0.000644197
-1.82697e-05
0.000639583
-1.29074e-05
0.000636545
-9.26786e-06
0.000635008
-8.12482e-06
0.000634685
-1.01356e-05
0.000635116
-1.5779e-05
0.000635736
-2.5237e-05
0.000636013
-3.82424e-05
0.000635539
-5.40331e-05
0.000634046
-7.13204e-05
0.000631306
-8.82412e-05
0.000626965
-0.000102555
0.000620489
-0.000112206
0.00061133
-0.000116063
0.000599182
-0.000114336
0.000584153
-0.000108371
0.000566731
-9.99857e-05
0.00054764
-9.08077e-05
0.000527647
-8.19186e-05
0.000507441
-7.38418e-05
0.000487564
-6.67072e-05
0.000468405
-6.04367e-05
0.000450216
-5.48773e-05
0.000433138
-4.9872e-05
0.000417229
-4.52951e-05
0.000402484
-4.10517e-05
0.000388853
-3.70965e-05
0.000376257
-3.34125e-05
0.000364604
-3.00366e-05
0.000353806
-2.70223e-05
0.000343791
-2.44445e-05
0.000334495
-2.23268e-05
0.000325851
-2.05771e-05
0.000317795
-1.89673e-05
0.000310211
-1.71019e-05
0.00030307
-1.43399e-05
0.000295987
-1.10677e-05
-2.52864e-06
0.000251798
3.8284e-05
0.000267991
2.66684e-05
0.000281862
3.39982e-05
0.000295503
4.15323e-05
0.000309436
4.57352e-05
0.000323396
4.95743e-05
0.000337527
5.32611e-05
0.000351971
5.63021e-05
0.000366709
5.88309e-05
0.000381694
6.10195e-05
0.000396902
6.28663e-05
0.000412304
6.4345e-05
0.000427856
6.54429e-05
0.000443496
6.6125e-05
0.00045915
6.63372e-05
0.000474735
6.60437e-05
0.000489522
6.24935e-05
0.000503326
5.80247e-05
0.000516158
5.34734e-05
0.00052801
4.881e-05
0.000538874
4.4097e-05
0.000548761
3.94716e-05
0.000557703
3.50831e-05
0.000565758
3.10462e-05
0.000573012
2.74252e-05
0.000579587
2.42144e-05
0.000585626
2.13022e-05
0.000591267
1.84343e-05
0.000596599
1.52266e-05
0.00060162
1.12247e-05
0.000606206
6.06642e-06
0.000610118
-3.83037e-07
0.00061304
-7.91484e-06
0.000614645
-1.59345e-05
0.000614675
-2.3531e-05
0.000613003
-2.96767e-05
0.000609666
-3.35159e-05
0.00060486
-3.46034e-05
0.000598931
-3.2988e-05
0.000592334
-2.91577e-05
0.000585591
-2.38973e-05
0.000579211
-1.81118e-05
0.000573633
-1.26924e-05
0.000569166
-8.44036e-06
0.000565951
-6.05284e-06
0.000563955
-6.12896e-06
0.000562975
-9.15555e-06
0.000562669
-1.54723e-05
0.000562621
-2.51889e-05
0.000562442
-3.80637e-05
0.000561821
-5.34116e-05
0.000560464
-6.99635e-05
0.000557965
-8.57426e-05
0.000553727
-9.83171e-05
0.00054707
-0.000105549
0.000537486
-0.000106479
0.000524861
-0.000101711
0.000509526
-9.30364e-05
0.000492143
-8.26023e-05
0.00047351
-7.21741e-05
0.000454389
-6.27979e-05
0.000435407
-5.48604e-05
0.000417023
-4.83223e-05
0.000399534
-4.29487e-05
0.000383117
-3.846e-05
0.000367849
-3.46043e-05
0.000353743
-3.11886e-05
0.00034076
-2.80683e-05
0.000328829
-2.51658e-05
0.000317859
-2.24427e-05
0.000307754
-1.99316e-05
0.000298422
-1.769e-05
0.000289784
-1.58063e-05
0.000281772
-1.43155e-05
0.000274327
-1.31316e-05
0.000267414
-1.20541e-05
0.000260969
-1.06576e-05
0.000255064
-8.43442e-06
0.000249353
-5.35693e-06
2.92235e-06
0.000223468
2.31983e-05
0.000238065
1.20716e-05
0.000250246
2.18166e-05
0.000262462
2.93171e-05
0.000274842
3.33548e-05
0.000287182
3.72348e-05
0.000299714
4.0729e-05
0.000312541
4.34747e-05
0.000325621
4.57507e-05
0.000338918
4.77226e-05
0.000352412
4.93728e-05
0.000366074
5.06831e-05
0.000379865
5.16521e-05
0.000393734
5.22554e-05
0.000407622
5.24494e-05
0.00042146
5.22055e-05
0.000434601
4.93524e-05
0.000446882
4.5744e-05
0.00045831
4.20453e-05
0.00046888
3.82403e-05
0.000478585
3.43912e-05
0.000487435
3.06224e-05
0.000495453
2.7065e-05
0.000502686
2.3813e-05
0.000509205
2.09061e-05
0.000515107
1.83123e-05
0.000520506
1.59034e-05
0.000525509
1.34314e-05
0.000530185
1.05509e-05
0.000534534
6.87559e-06
0.000538467
2.1331e-06
0.00054181
-3.72575e-06
0.000544325
-1.043e-05
0.000545755
-1.73648e-05
0.00054588
-2.36553e-05
0.000544566
-2.83629e-05
0.000541803
-3.07533e-05
0.000537719
-3.05195e-05
0.000532581
-2.78495e-05
0.000526771
-2.33477e-05
0.00052074
-1.78667e-05
0.00051494
-1.23118e-05
0.000509761
-7.51354e-06
0.000505478
-4.15703e-06
0.000502218
-2.79294e-06
0.000499958
-3.86871e-06
0.000498526
-7.72369e-06
0.000497636
-1.45822e-05
0.000496935
-2.44881e-05
0.000496057
-3.71858e-05
0.000494619
-5.19736e-05
0.000492156
-6.75005e-05
0.000488088
-8.16747e-05
0.000481809
-9.20382e-05
0.000472879
-9.66184e-05
0.00046119
-9.47901e-05
0.000447015
-8.75364e-05
0.000430926
-7.69477e-05
0.000413645
-6.53212e-05
0.000395892
-5.44206e-05
0.000378275
-4.51818e-05
0.000361248
-3.78328e-05
0.000345104
-3.21785e-05
0.00033001
-2.78546e-05
0.000316037
-2.44874e-05
0.000303193
-2.17594e-05
0.00029144
-1.9436e-05
0.000280714
-1.73419e-05
0.000270929
-1.53817e-05
0.000261992
-1.35049e-05
0.000253801
-1.17415e-05
0.000246264
-1.01521e-05
0.000239293
-8.83583e-06
0.000232821
-7.84346e-06
0.000226798
-7.10889e-06
0.000221226
-6.48201e-06
0.000216093
-5.52428e-06
0.00021155
-3.89119e-06
0.000207315
-1.12175e-06
6.62527e-06
0.00019856
8.56745e-06
0.000211522
-8.89721e-07