/*--------------------------------*- C++ -*----------------------------------*\
| =========                 |                                                 |
| \\      /  F ield         | OpenFOAM: The Open Source CFD Toolbox           |
|  \\    /   O peration     | Version:  v1912                                 |
|   \\  /    A nd           | Website:  www.openfoam.com                      |
|    \\/     M anipulation  |                                                 |
\*---------------------------------------------------------------------------*/
FoamFile
{
    version     2.0;
    format      ascii;
    class       volVectorField;
    location    "175";
    object      U;
}
// * * * * * * * * * * * * * * * * * * * * * * * * * * * * * * * * * * * * * //

dimensions      [0 1 -1 0 0 0 0];


internalField   nonuniform List<vector> 
2000
(
(0.84616 0.187394 0)
(0.515131 0.12409 0)
(0.223442 0.0684433 0)
(0.0597995 0.0174433 6.19475e-20)
(-0.00455153 -0.0232198 1.30865e-17)
(-0.064211 -0.0384438 1.13641e-17)
(-0.0776263 -0.0371987 0)
(-0.0716295 -0.0166842 0)
(-0.0590867 0.0115254 0)
(-0.0420997 0.02522 2.5784e-17)
(-0.0414016 0.0109356 -1.58097e-17)
(-0.0273256 -0.000641174 -1.48403e-17)
(-0.0167517 -0.0028776 0)
(-0.0203984 -0.0026839 0)
(-0.0214525 -0.00272944 -1.1788e-17)
(-0.0150302 -0.00144811 0)
(-0.00628617 -0.000327785 1.06328e-17)
(-0.00220296 0.00262818 6.75359e-21)
(-0.000487866 0.00294618 1.03296e-17)
(0.00192737 0.000259148 -5.08284e-18)
(0.00719378 -0.00360227 9.94544e-18)
(0.0148427 -0.00623398 0)
(0.0234847 -0.00744298 0)
(0.0311135 -0.00715234 -1.67675e-21)
(0.0361194 -0.00552963 0)
(0.0381033 -0.00307133 -4.61748e-18)
(0.036632 -0.000488622 0)
(0.0331373 0.00167905 4.61884e-18)
(0.0290463 0.0032739 0)
(0.0251483 0.00422766 0)
(0.0215475 0.0045545 0)
(0.018218 0.00433425 1.16512e-18)
(0.0152773 0.00373243 0)
(0.0129801 0.0027552 -5.89768e-19)
(0.011695 0.0015092 1.98931e-14)
(0.0120063 0.000135356 2.00292e-14)
(0.0141978 -0.00149654 6.25657e-19)
(0.0179942 -0.00309416 -6.37831e-19)
(0.0231114 -0.00446263 0)
(0.0290666 -0.00544987 2.70024e-18)
(0.0350099 -0.00588081 0)
(0.0400817 -0.00556307 -2.83216e-18)
(0.0434174 -0.00429952 0)
(0.043668 -0.00221683 -5.91897e-18)
(0.0399912 0.000705134 2.97207e-18)
(0.0322325 0.00367798 0)
(0.0202798 0.00626878 0)
(0.0035655 0.00919709 -2.94007e-18)
(-0.0184629 0.0136401 0)
(-0.0463789 0.0195849 2.47123e-18)
(-0.0809542 0.0260897 0)
(-0.122365 0.0319648 4.02422e-18)
(-0.169944 0.0349947 -3.53466e-18)
(-0.221712 0.0324268 3.07976e-18)
(-0.274332 0.022545 -1.07119e-18)
(-0.323936 0.00522064 0)
(-0.365542 -0.0178503 7.10028e-19)
(-0.392379 -0.0422353 -7.17278e-19)
(-0.398881 -0.0611971 -2.18236e-18)
(-0.388677 -0.0720451 2.61146e-18)
(-0.367298 -0.0772637 -3.71716e-18)
(-0.335322 -0.0784373 5.15534e-18)
(-0.296108 -0.0765513 -6.90882e-18)
(-0.251735 -0.0724678 8.8978e-18)
(-0.204169 -0.0669425 3.12465e-20)
(-0.154651 -0.0603581 1.38103e-17)
(-0.103984 -0.0530149 0)
(-0.0527497 -0.0451827 0)
(-0.00159734 -0.0370514 1.67741e-19)
(0.0491504 -0.028557 0)
(0.100388 -0.0197138 2.24439e-17)
(0.152622 -0.010577 0)
(0.205946 -0.00107652 1.99514e-17)
(0.260873 0.0088946 -4.86099e-19)
(0.317721 0.0193949 1.66668e-17)
(0.37849 0.0304195 2.87084e-17)
(0.440599 0.041859 6.63955e-19)
(0.516426 0.0535262 -9.61305e-18)
(0.573712 0.0642198 -6.16676e-18)
(0.715095 0.0733953 0)
(1.0153 0.210385 0)
(0.944632 0.194216 0)
(0.804469 0.17999 -3.7798e-18)
(0.654407 0.15232 7.82384e-18)
(0.509202 0.111175 0)
(0.360004 0.0683809 -7.94706e-18)
(0.216456 0.0293401 0)
(0.0820997 -0.00526222 0)
(-0.0282558 -0.018071 0)
(-0.0562455 -0.0190792 -1.88682e-17)
(-0.0668316 -0.0247696 1.7165e-17)
(-0.071776 -0.0152752 1.57441e-17)
(-0.0636284 0.0071284 0)
(-0.0517331 0.0203585 6.88336e-18)
(-0.0558166 0.00870039 0)
(-0.0511474 -0.00499738 0)
(-0.0433429 -0.00742132 0)
(-0.0411711 -0.00550877 5.67018e-18)
(-0.0449632 -0.00368623 -1.11275e-17)
(-0.0466705 -0.00491508 -5.46148e-18)
(-0.0465932 -0.0090131 0)
(-0.0438167 -0.0130054 0)
(-0.0383569 -0.0141773 0)
(-0.0307935 -0.0114671 -7.89743e-18)
(-0.0229376 -0.00610974 0)
(-0.0159275 -0.000502645 5.34715e-18)
(-0.00990725 0.00325017 2.70613e-18)
(-0.00690252 0.00507499 0)
(-0.00565287 0.00579251 0)
(-0.00635383 0.00610949 0)
(-0.00883296 0.00648982 0)
(-0.0128273 0.00681468 -6.63186e-19)
(-0.0176938 0.0064922 0)
(-0.0224836 0.0049439 3.35974e-19)
(-0.0262224 0.0019049 1.66336e-19)
(-0.0284154 -0.00230276 0)
(-0.028193 -0.00725856 0)
(-0.0256178 -0.0121638 7.17628e-19)
(-0.0213201 -0.0158551 0)
(-0.0160179 -0.0172934 -1.56388e-18)
(-0.0111173 -0.0157712 0)
(-0.00795086 -0.0110399 -1.75686e-18)
(-0.00792584 -0.00339323 0)
(-0.0112173 0.00628802 1.65544e-18)
(-0.0184595 0.0175791 1.80814e-18)
(-0.0305785 0.030131 0)
(-0.0477612 0.0434904 0)
(-0.0696333 0.0567939 -2.99087e-18)
(-0.095059 0.0691948 0)
(-0.122295 0.0802151 -1.01602e-19)
(-0.149221 0.0896163 0)
(-0.173683 0.0965177 0)
(-0.193796 0.098945 0)
(-0.207307 0.0944427 0)
(-0.21195 0.0811301 2.08755e-18)
(-0.207923 0.0587906 0)
(-0.194624 0.0293737 -1.55843e-18)
(-0.162527 -0.00358474 1.05214e-18)
(-0.121785 -0.0387598 -1.23154e-18)
(-0.0898317 -0.0722497 -4.11098e-18)
(-0.0539751 -0.0967947 5.98621e-18)
(-0.0141894 -0.111784 -8.33198e-18)
(0.0255137 -0.118944 1.04725e-17)
(0.0666696 -0.119885 0)
(0.108953 -0.116171 -2.01357e-17)
(0.152335 -0.109129 -1.45861e-17)
(0.196479 -0.0998129 0)
(0.241053 -0.0890401 7.8402e-18)
(0.285919 -0.0774385 1.63714e-17)
(0.331136 -0.0653948 0)
(0.376908 -0.0531827 0)
(0.423397 -0.0409958 0)
(0.470812 -0.0289058 0)
(0.519589 -0.0168923 -1.44008e-17)
(0.570085 -0.00493976 6.19458e-18)
(0.623575 0.00692114 -1.18536e-17)
(0.678737 0.0184116 1.00576e-17)
(0.743275 0.0290262 -3.46339e-18)
(0.794416 0.0374148 0)
(0.903231 0.0394732 0)
(0.978489 0.201539 0)
(0.978854 0.193013 -3.04719e-18)
(0.969153 0.205123 3.72887e-18)
(0.939076 0.208547 -3.29938e-18)
(0.878018 0.194625 3.12249e-18)
(0.785575 0.16874 3.08516e-18)
(0.669307 0.138099 0)
(0.540951 0.106036 0)
(0.408146 0.0750629 0)
(0.285849 0.0459025 7.48881e-18)
(0.17362 0.0179378 0)
(0.0718956 -0.00650007 0)
(-0.0212038 -0.0139018 0)
(-0.0454498 -0.00330191 -7.83471e-18)
(-0.0496594 -0.0112174 0)
(-0.0579974 -0.0167717 -6.59794e-18)
(-0.0593641 -0.00872324 0)
(-0.0515435 0.0109276 6.36773e-18)
(-0.0567193 0.0148362 3.08053e-18)
(-0.0653516 0.00706315 0)
(-0.0737332 -0.00375117 -2.91791e-18)
(-0.0803567 -0.0131347 0)
(-0.0833362 -0.0180914 0)
(-0.0826221 -0.0187926 5.58734e-18)
(-0.0788164 -0.0162917 0)
(-0.0734413 -0.0118599 1.42523e-18)
(-0.0683807 -0.00635914 -4.30103e-18)
(-0.0651588 -0.000606186 0)
(-0.0645278 0.00500366 0)
(-0.0670971 0.010435 -7.13719e-19)
(-0.0728427 0.0152306 0)
(-0.0810175 0.0184898 -4.64433e-21)
(-0.0904245 0.0192377 0)
(-0.0995532 0.0168097 6.42438e-19)
(-0.106779 0.0111839 7.78468e-20)
(-0.110966 0.00310688 0)
(-0.111516 -0.00589779 1.61425e-19)
(-0.107966 -0.0145723 -3.40851e-19)
(-0.100701 -0.0207981 -3.68484e-19)
(-0.0911041 -0.023025 -8.06586e-19)
(-0.0810249 -0.0203421 8.83986e-19)
(-0.0723893 -0.0126546 8.512e-19)
(-0.0666735 -0.000700297 0)
(-0.064678 0.0143329 1.90757e-18)
(-0.0667483 0.0308239 -3.93419e-18)
(-0.072803 0.0480871 0)
(-0.0816255 0.0652922 -1.83966e-18)
(-0.0914612 0.0814313 3.19668e-18)
(-0.100331 0.0951303 0)
(-0.105743 0.10501 -1.36115e-18)
(-0.105069 0.110574 1.04057e-18)
(-0.0962911 0.110933 -8.40708e-19)
(-0.0785061 0.104741 -6.63969e-19)
(-0.051871 0.0907211 0)
(-0.0173078 0.0673966 -1.22633e-18)
(0.0227566 0.03348 -3.39838e-19)
(0.0664712 -0.00636144 3.93792e-19)
(0.11083 -0.0456515 4.66362e-19)
(0.151821 -0.0782422 1.2476e-18)
(0.190687 -0.10363 0)
(0.228737 -0.12277 0)
(0.266151 -0.135769 0)
(0.303395 -0.142723 -1.96914e-18)
(0.340689 -0.144371 0)
(0.377904 -0.141528 5.24243e-18)
(0.414972 -0.135159 0)
(0.451906 -0.12624 -2.99989e-18)
(0.488761 -0.115637 -6.55573e-18)
(0.525652 -0.104059 0)
(0.56275 -0.0920796 -3.28337e-18)
(0.600261 -0.0801576 3.27562e-18)
(0.638407 -0.0686031 0)
(0.677433 -0.0575799 0)
(0.717682 -0.0471562 0)
(0.759416 -0.0374008 -5.81693e-18)
(0.803449 -0.0284254 0)
(0.84886 -0.0206318 -2.00047e-18)
(0.900644 -0.0145031 3.39963e-18)
(0.942448 -0.0113872 0)
(1.02581 -0.0140416 4.0648e-19)
(0.970611 0.209118 0)
(0.963917 0.194772 1.67421e-18)
(0.96643 0.198526 0)
(0.977153 0.206426 1.82534e-18)
(0.982033 0.20891 -3.25111e-18)
(0.968286 0.204299 -1.45934e-18)
(0.930729 0.19376 0)
(0.870716 0.177908 0)
(0.79105 0.156601 0)
(0.695287 0.131354 1.46817e-18)
(0.589277 0.105444 1.50377e-18)
(0.479777 0.0807205 0)
(0.36893 0.0579746 0)
(0.266408 0.0375402 0)
(0.179356 0.0183227 0)
(0.0999942 0.00235675 6.97646e-18)
(0.0301143 -0.00969538 -3.68404e-18)
(-0.0286463 -0.00695036 0)
(-0.0282251 0.00515699 -3.55878e-18)
(-0.0328176 0.00592146 1.7419e-18)
(-0.0368199 0.00260427 3.43831e-18)
(-0.0452595 -0.00404854 0)
(-0.0587671 -0.00996875 0)
(-0.0724539 -0.01276 -3.21158e-18)
(-0.0817688 -0.0119167 0)
(-0.0859406 -0.00827247 -1.58934e-18)
(-0.0864639 -0.00300726 1.60361e-18)
(-0.0858975 0.00312949 0)
(-0.0863368 0.0103291 0)
(-0.0890749 0.0179373 7.81447e-19)
(-0.0946895 0.02482 0)
(-0.102862 0.0293805 -7.29784e-19)
(-0.112486 0.030051 0)
(-0.121861 0.0257521 -1.81753e-19)
(-0.129023 0.0163633 -8.53137e-20)
(-0.132202 0.0027451 -1.95807e-20)
(-0.130934 -0.0131191 -2.57633e-19)
(-0.12491 -0.027217 3.72294e-19)
(-0.113613 -0.0371177 4.02609e-19)
(-0.0980163 -0.040924 1.33236e-18)
(-0.0796304 -0.0375158 -4.72326e-19)
(-0.0605166 -0.0270063 5.09643e-19)
(-0.042929 -0.0106861 0)
(-0.0285421 0.009415 1.35558e-18)
(-0.0174413 0.0307803 1.1328e-18)
(-0.00913199 0.0512532 0)
(-0.00266868 0.0690928 2.30586e-18)
(0.00388789 0.0826213 1.11266e-18)
(0.01169 0.090417 0)
(0.0235841 0.0911249 -2.38895e-18)
(0.0429142 0.0838475 -1.31306e-18)
(0.0696619 0.0687339 5.86924e-19)
(0.103635 0.0465634 7.63249e-19)
(0.144788 0.018824 0)
(0.191444 -0.0127939 1.38845e-19)
(0.241537 -0.0458492 4.02796e-19)
(0.292454 -0.0782368 2.85102e-19)
(0.342504 -0.108412 -3.8177e-19)
(0.389901 -0.134425 -3.20104e-19)
(0.433855 -0.154996 0)
(0.474439 -0.169566 0)
(0.511952 -0.178102 0)
(0.546681 -0.181036 2.58736e-18)
(0.578956 -0.179187 9.95724e-19)
(0.609165 -0.173499 0)
(0.637763 -0.164931 -2.45607e-18)
(0.665229 -0.154397 2.76563e-18)
(0.692018 -0.142698 -2.79e-18)
(0.71854 -0.130496 -2.89854e-18)
(0.745162 -0.118307 1.77984e-19)
(0.772212 -0.106508 -3.17284e-18)
(0.79998 -0.0953404 0)
(0.828729 -0.0849326 0)
(0.85875 -0.0753439 0)
(0.890246 -0.0666378 0)
(0.923779 -0.0589112 0)
(0.958648 -0.0525105 3.97446e-18)
(0.99824 -0.0477128 -1.46022e-18)
(1.03063 -0.0457166 0)
(1.09252 -0.0476058 -4.36101e-19)
(0.972988 0.216082 0)
(0.965831 0.201815 2.03964e-18)
(0.959206 0.195612 2.69244e-19)
(0.96149 0.195564 2.05764e-18)
(0.972672 0.197562 0)
(0.985525 0.199269 -1.73954e-18)
(0.992501 0.199338 0)
(0.988447 0.196302 -3.92099e-19)
(0.970189 0.189087 0)
(0.935564 0.17763 -1.74402e-18)
(0.884612 0.162843 -1.35175e-18)
(0.819429 0.145774 -3.42344e-19)
(0.74301 0.126816 3.40084e-19)
(0.657588 0.106169 0)
(0.568451 0.0853615 3.40823e-19)
(0.478389 0.0663873 0)
(0.392354 0.0504768 2.88822e-18)
(0.312805 0.0367845 -3.80949e-19)
(0.246522 0.0251773 0)
(0.193321 0.016062 -2.03541e-18)
(0.150035 0.00923347 0)
(0.113045 0.00443921 0)
(0.081011 0.000906087 0)
(0.0531434 -0.00290988 0)
(0.0294859 -0.00721285 -2.40069e-19)
(0.0110623 -0.00987113 0)
(-0.000254324 -0.00813353 0)
(-0.00361859 -0.00139275 1.31662e-19)
(-0.00321708 0.00885151 0)
(-0.001579 0.0200921 0)
(-0.000345285 0.029936 0)
(-0.000398627 0.0360589 -5.70693e-20)
(-0.00121703 0.0368205 0)
(-0.00161753 0.0309528 -2.33959e-19)
(-0.000743752 0.0181693 0)
(0.00125359 -0.000267975 2.6028e-20)
(0.00665083 -0.0215039 1.30066e-19)
(0.0141727 -0.0412514 2.65171e-20)
(0.0217934 -0.0567311 -5.94434e-20)
(0.0302284 -0.0656649 -5.33965e-19)
(0.0408935 -0.0661776 -5.86154e-19)
(0.0554095 -0.0572462 6.34703e-19)
(0.0748867 -0.039201 -1.77977e-19)
(0.0984501 -0.014243 -1.38108e-18)
(0.123093 0.0131961 1.34528e-18)
(0.147845 0.0383589 -1.64465e-19)
(0.172995 0.0586033 0)
(0.199081 0.0720261 -9.83178e-19)
(0.227057 0.0774321 0)
(0.258084 0.0744702 6.67191e-19)
(0.293234 0.0632471 0)
(0.332013 0.0443893 3.68821e-19)
(0.373799 0.0187425 0)
(0.418935 -0.0131968 -4.26756e-20)
(0.466903 -0.0488571 -1.11456e-19)
(0.51569 -0.0850321 -1.01702e-19)
(0.563239 -0.118947 4.46432e-20)
(0.607759 -0.148572 0)
(0.647824 -0.172449 2.81612e-19)
(0.682692 -0.189794 -1.10598e-19)
(0.712395 -0.200569 0)
(0.737423 -0.20531 1.71631e-19)
(0.75849 -0.204864 -8.15401e-19)
(0.77643 -0.200222 -9.55943e-19)
(0.792111 -0.19239 0)
(0.806362 -0.182317 2.42106e-18)
(0.819918 -0.170856 0)
(0.833396 -0.158732 2.81439e-18)
(0.847291 -0.146523 2.95479e-18)
(0.861994 -0.134664 3.05224e-18)
(0.877809 -0.123457 3.6619e-19)
(0.894988 -0.11309 0)
(0.91374 -0.103668 0)
(0.93429 -0.0952392 0)
(0.956781 -0.08785 -3.20431e-19)
(0.981634 -0.0815697 0)
(1.00821 -0.0766319 -1.83202e-18)
(1.03914 -0.0732203 1.78997e-18)
(1.06464 -0.0720562 1.15079e-19)
(1.11402 -0.0740211 4.98604e-20)
(0.974194 0.218515 -1.33201e-18)
(0.970935 0.20637 1.28806e-18)
(0.96512 0.198183 -3.04673e-19)
(0.96114 0.194128 0)
(0.962201 0.191965 0)
(0.968267 0.190575 0)
(0.977783 0.189926 0)
(0.988517 0.189536 1.35277e-18)
(0.997444 0.188379 0)
(1.00093 0.18545 -1.20902e-18)
(0.995749 0.180076 -1.50924e-18)
(0.979776 0.172055 3.47281e-19)
(0.952541 0.161615 1.04548e-18)
(0.914072 0.148868 0)
(0.865197 0.134037 -1.6007e-18)
(0.80755 0.118241 0)
(0.745086 0.102985 -1.27785e-18)
(0.682367 0.0886357 3.19986e-19)
(0.621491 0.0751239 -1.32916e-18)
(0.564812 0.0627605 -1.01824e-18)
(0.513029 0.0517193 0)
(0.466226 0.0420601 0)
(0.424391 0.033609 -7.29442e-19)
(0.387305 0.0260671 0)
(0.354214 0.0192058 -5.90609e-19)
(0.323816 0.01297 0)
(0.29512 0.00778842 0)
(0.268597 0.00518561 -1.10183e-19)
(0.247202 0.00686425 0)
(0.234346 0.0130526 0)
(0.231128 0.0214116 0)
(0.235895 0.0283164 4.93289e-20)
(0.246469 0.0308085 1.79016e-19)
(0.261346 0.0271064 1.02616e-19)
(0.278831 0.0163097 0)
(0.296108 -0.000609466 0)
(0.311408 -0.0198882 -1.94235e-20)
(0.323179 -0.0383586 -1.06571e-19)
(0.329917 -0.0533853 4.77666e-20)
(0.331239 -0.0634152 0)
(0.327691 -0.0678275 0)
(0.321208 -0.0664556 -2.85743e-19)
(0.315478 -0.0592229 1.53465e-19)
(0.315174 -0.0462311 -6.59153e-19)
(0.324132 -0.0277807 6.64245e-19)
(0.344079 -0.00586483 1.53923e-19)
(0.373151 0.0150481 0)
(0.40787 0.0304552 4.86221e-19)
(0.445999 0.0375567 0)
(0.486188 0.0349363 0)
(0.528033 0.0216385 0)
(0.572433 -0.00176319 0)
(0.6191 -0.0324501 0)
(0.666623 -0.0673637 3.76441e-20)
(0.713472 -0.103414 0)
(0.757228 -0.137417 1.97543e-19)
(0.795732 -0.166836 -4.1443e-20)
(0.82771 -0.190181 0)
(0.852671 -0.206906 3.81299e-19)
(0.870844 -0.217135 1.08559e-19)
(0.883069 -0.221486 5.89775e-19)
(0.890533 -0.220865 -1.73767e-19)
(0.894534 -0.216276 0)
(0.89633 -0.2087 -9.53132e-19)
(0.897043 -0.199041 0)
(0.89762 -0.188094 0)
(0.898815 -0.176529 -1.28684e-18)
(0.9012 -0.164886 0)
(0.905186 -0.153579 0)
(0.911058 -0.142905 -1.503e-18)
(0.919013 -0.133063 -4.01935e-19)
(0.929198 -0.124175 0)
(0.941731 -0.116306 0)
(0.956752 -0.10948 0)
(0.974326 -0.103717 3.58028e-19)
(0.994768 -0.0990426 -1.22894e-18)
(1.0174 -0.0955793 -2.7281e-19)
(1.04456 -0.0934086 -2.10852e-19)
(1.0671 -0.0928594 -1.30185e-19)
(1.11199 -0.0948035 -2.71732e-19)
(0.974501 0.219011 4.69358e-18)
(0.973757 0.208042 -4.50481e-18)
(0.971715 0.200435 0)
(0.969161 0.196226 -2.73057e-18)
(0.967057 0.192958 0)
(0.966172 0.189341 -2.40981e-18)
(0.96743 0.185856 0)
(0.971685 0.18306 3.20935e-18)
(0.979 0.180799 -3.98784e-18)
(0.988312 0.178577 1.82501e-18)
(0.997724 0.1759 1.70715e-18)
(1.00501 0.17232 0)
(1.00813 0.167488 -4.61368e-18)
(1.00544 0.160993 -2.93688e-18)
(0.995518 0.152499 4.13373e-18)
(0.977627 0.142305 0)
(0.952761 0.131282 1.26802e-18)
(0.923386 0.120161 0)
(0.89132 0.108995 1.25704e-18)
(0.857884 0.0976464 1.2511e-18)
(0.824091 0.0863346 0)
(0.790871 0.0754219 0)
(0.759011 0.0651798 -6.85003e-19)
(0.728967 0.0557322 0)
(0.700732 0.0472203 6.74756e-19)
(0.674029 0.0400112 0)
(0.648734 0.0346243 0)
(0.625094 0.0313257 0)
(0.603961 0.029719 0)
(0.586998 0.0290337 0)
(0.576306 0.0281659 0)
(0.573281 0.025736 0)
(0.577802 0.0201959 1.60921e-19)
(0.588864 0.0100715 -7.07535e-20)
(0.604754 -0.00470308 3.48749e-20)
(0.621568 -0.0220057 0)
(0.636712 -0.0390354 0)
(0.64882 -0.0533707 7.32205e-20)
(0.657222 -0.0630575 -3.48573e-19)
(0.661979 -0.0669597 3.9278e-19)
(0.663596 -0.0649474 0)
(0.662629 -0.0578081 1.21082e-18)
(0.659627 -0.0470866 -1.04514e-18)
(0.655278 -0.0349417 -5.4284e-19)
(0.651026 -0.0235279 -5.68795e-19)
(0.649441 -0.0141659 0)
(0.654053 -0.00724798 0)
(0.6674 -0.00344416 -1.3712e-18)
(0.689932 -0.00489265 0)
(0.721275 -0.0134652 0)
(0.759569 -0.029815 0)
(0.802219 -0.0533767 4.11034e-19)
(0.845642 -0.0825431 6.58048e-19)
(0.886378 -0.114089 0)
(0.921744 -0.144696 0)
(0.949798 -0.171642 -1.94378e-19)
(0.969599 -0.193154 0)
(0.98126 -0.208573 7.44164e-19)
(0.985637 -0.218073 5.05097e-19)
(0.984038 -0.222291 0)
(0.978011 -0.222078 6.81599e-19)
(0.969135 -0.21835 1.55018e-18)
(0.958858 -0.211984 1.80269e-18)
(0.94841 -0.203766 1.04532e-18)
(0.938768 -0.194373 -2.31359e-18)
(0.930672 -0.184369 2.5563e-18)
(0.92465 -0.174213 4.21516e-18)
(0.921049 -0.164269 0)
(0.92008 -0.154814 0)
(0.921856 -0.146049 1.69167e-18)
(0.926434 -0.138117 0)
(0.933847 -0.131113 3.36612e-18)
(0.944127 -0.125089 3.32239e-18)
(0.957337 -0.120069 0)
(0.973476 -0.116057 2.99981e-18)
(0.992785 -0.113043 -1.30511e-18)
(1.01454 -0.111067 0)
(1.04096 -0.110098 0)
(1.06299 -0.110267 0)
(1.10729 -0.11233 -2.29467e-19)
(0.974733 0.218938 -3.6108e-18)
(0.975458 0.208207 3.45577e-18)
(0.976058 0.201069 -6.70043e-18)
(0.975939 0.197381 3.08828e-18)
(0.97488 0.19448 0)
(0.973207 0.190813 2.72541e-18)
(0.971497 0.18662 -5.21265e-18)
(0.970487 0.182386 -4.83975e-18)
(0.971015 0.178193 -7.90087e-20)
(0.973735 0.174036 0)
(0.978852 0.169987 0)
(0.986033 0.166019 3.87288e-18)
(0.994461 0.161905 3.55244e-18)
(1.00297 0.157236 -3.52096e-18)
(1.01012 0.151627 -9.58854e-18)
(1.01449 0.144981 0)
(1.0152 0.137586 0)
(1.01228 0.1297 0)
(1.00622 0.121219 0)
(0.997441 0.112039 0)
(0.986363 0.10237 0)
(0.973544 0.092573 0)
(0.959603 0.0829651 1.32669e-18)
(0.945058 0.0737801 -2.78216e-18)
(0.930255 0.065293 0)
(0.91548 0.0578878 0)
(0.901145 0.0519008 0)
(0.887879 0.0473762 0)
(0.876527 0.0439015 0)
(0.868065 0.0406054 -7.13966e-19)
(0.863412 0.0362438 0)
(0.863095 0.0295529 0)
(0.867004 0.0195526 1.66742e-20)
(0.874277 0.00594617 0)
(0.882465 -0.0104918 -3.2555e-20)
(0.889343 -0.0280303 0)
(0.89348 -0.0443496 1.49113e-19)
(0.894325 -0.0574271 0)
(0.892048 -0.0658898 6.91743e-19)
(0.887426 -0.0691245 -3.82212e-19)
(0.881665 -0.067296 -8.66225e-19)
(0.876148 -0.0611776 -9.46629e-19)
(0.872307 -0.0518907 1.01873e-18)
(0.871395 -0.040676 1.06555e-18)
(0.874047 -0.0289958 2.11741e-18)
(0.880174 -0.0189703 2.07275e-18)
(0.890133 -0.0131264 0)
(0.904783 -0.0130588 -9.13526e-19)
(0.924422 -0.0195053 0)
(0.948268 -0.0333761 0)
(0.974781 -0.0543007 -1.16532e-18)
(1.00148 -0.0805883 -4.03925e-19)
(1.02558 -0.109559 1.91379e-19)
(1.04465 -0.138019 0)
(1.05712 -0.163328 0)
(1.0624 -0.183821 0)
(1.06081 -0.198801 8.18397e-19)
(1.05333 -0.208388 -8.07962e-19)
(1.04129 -0.213209 -9.88467e-19)
(1.02616 -0.21409 0)
(1.00933 -0.21187 -1.46121e-18)
(0.992084 -0.20732 2.12911e-20)
(0.975471 -0.201115 -2.029e-18)
(0.960324 -0.193816 2.30241e-18)
(0.947251 -0.185888 4.10635e-20)
(0.936677 -0.177708 -2.89496e-18)
(0.928869 -0.16958 -3.15135e-18)
(0.923977 -0.161751 0)
(0.922068 -0.154414 0)
(0.923153 -0.147722 0)
(0.927223 -0.141792 0)
(0.934271 -0.136711 -3.81724e-18)
(0.944298 -0.132533 -3.76662e-18)
(0.957349 -0.129283 0)
(0.973407 -0.126957 -3.39851e-18)
(0.992695 -0.125511 6.04954e-18)
(1.0145 -0.124927 0)
(1.04095 -0.125038 0)
(1.06311 -0.125952 0)
(1.10735 -0.127976 1.06666e-18)
(0.975035 0.218503 8.9215e-18)
(0.977128 0.207481 0)
(0.979625 0.200818 1.53268e-17)
(0.980946 0.197733 0)
(0.980753 0.195197 6.68149e-18)
(0.979847 0.191845 0)
(0.978668 0.187939 5.89058e-18)
(0.977199 0.183707 0)
(0.975627 0.179053 -5.40983e-18)
(0.97447 0.173978 0)
(0.974315 0.168659 9.54871e-18)
(0.975644 0.16326 -4.42689e-18)
(0.978761 0.15782 0)
(0.983691 0.152247 7.86845e-18)
(0.9901 0.146396 -1.84745e-19)
(0.997348 0.140186 -7.17224e-18)
(1.00459 0.133736 6.94275e-18)
(1.01112 0.127092 0)
(1.01657 0.120047 0)
(1.02061 0.112446 6.48989e-18)
(1.02299 0.104363 0)
(1.0237 0.0960122 -3.15582e-18)
(1.02289 0.0876211 0)
(1.02081 0.0794096 3.01406e-18)
(1.01774 0.071639 0)
(1.01403 0.0646062 3.14649e-18)
(1.0102 0.0585218 0)
(1.00691 0.0533473 0)
(1.00486 0.0486638 1.56463e-18)
(1.0046 0.0436488 7.46307e-19)
(1.00636 0.0372361 0)
(1.00986 0.0284535 0)
(1.01438 0.016731 -1.02095e-18)
(1.01862 0.00230363 0)
(1.02098 -0.0137537 0)
(1.02024 -0.0297931 0)
(1.01596 -0.0439818 -1.57063e-19)
(1.00846 -0.0548317 0)
(0.998663 -0.0614567 -1.16396e-18)
(0.987892 -0.0635959 -8.57805e-19)
(0.977677 -0.0615813 9.25669e-19)
(0.969463 -0.0562269 0)
(0.964418 -0.0487171 0)
(0.963346 -0.0404874 2.19881e-18)
(0.966733 -0.0330919 -2.25012e-18)
(0.974827 -0.02801 -2.20004e-18)
(0.987368 -0.026672 0)
(1.00349 -0.0305282 -5.81765e-20)
(1.02199 -0.0401916 1.78499e-18)
(1.0413 -0.0555772 0)
(1.05971 -0.0758531 1.24367e-18)
(1.07525 -0.0992184 1.23798e-18)
(1.08619 -0.123365 -9.24404e-19)
(1.09152 -0.146026 0)
(1.09104 -0.165452 0)
(1.08519 -0.180656 0)
(1.07482 -0.191364 -9.20348e-19)
(1.06097 -0.197857 0)
(1.04474 -0.200751 0)
(1.02717 -0.200761 0)
(1.00923 -0.198569 3.50565e-18)
(0.991793 -0.194765 -2.00254e-18)
(0.975565 -0.189836 0)
(0.961112 -0.184181 -2.61944e-18)
(0.94885 -0.178121 -2.86701e-18)
(0.939071 -0.171924 6.36079e-18)
(0.931963 -0.165811 -6.88632e-18)
(0.927632 -0.159967 -7.35403e-18)
(0.926131 -0.154551 0)
(0.927475 -0.149695 -8.04567e-18)
(0.931671 -0.145513 0)
(0.938728 -0.142097 0)
(0.948668 -0.139509 0)
(0.961555 -0.13778 7.9006e-18)
(0.977405 -0.136902 -7.40515e-18)
(0.99646 -0.136808 -1.005e-17)
(1.01805 -0.137419 0)
(1.04421 -0.138442 4.38307e-18)
(1.06628 -0.140011 0)
(1.1098 -0.141799 -1.7791e-18)
(0.975434 0.217691 -1.01197e-17)
(0.979144 0.206095 -9.83959e-18)
(0.983426 0.200254 -1.76346e-17)
(0.985585 0.198009 0)
(0.985493 0.195696 -1.51877e-17)
(0.984797 0.192438 -7.23051e-18)
(0.984215 0.188758 0)
(0.983473 0.184763 1.28878e-17)
(0.982381 0.180251 1.20418e-17)
(0.981069 0.175173 0)
(0.979751 0.169619 -1.07989e-17)
(0.978671 0.16369 0)
(0.978147 0.157452 0)
(0.97852 0.150933 9.34372e-18)
(0.980022 0.144141 8.67061e-18)
(0.982735 0.137107 -1.80187e-19)
(0.986525 0.130027 1.82438e-19)
(0.99112 0.123023 0)
(0.996202 0.115947 0)
(1.00136 0.108644 -7.43647e-18)
(1.00617 0.101094 -7.51871e-18)
(1.01032 0.0933985 1.10278e-17)
(1.01369 0.0857001 3.68162e-18)
(1.01627 0.0781587 3.66346e-18)
(1.01819 0.0709618 0)
(1.01967 0.0643038 -3.54984e-18)
(1.0211 0.0582955 0)
(1.02297 0.0528391 0)
(1.02573 0.0475385 -3.54901e-18)
(1.02959 0.041716 0)
(1.03438 0.034573 0)
(1.03946 0.0254423 0)
(1.04382 0.0141139 7.76406e-19)
(1.04629 0.000967317 -3.98597e-19)
(1.04584 -0.0131169 1.95648e-19)
(1.04183 -0.0268154 0)
(1.03432 -0.0387657 0)
(1.02399 -0.0479164 0)
(1.01198 -0.0536917 8.85512e-19)
(0.999686 -0.056002 9.6622e-19)
(0.988549 -0.0552097 -2.11864e-18)
(0.979887 -0.0520292 0)
(0.974749 -0.0474006 0)
(0.973849 -0.0423799 -4.92837e-18)
(0.977546 -0.038093 -2.49213e-18)
(0.985774 -0.0357564 0)
(0.997936 -0.036583 0)
(1.01298 -0.041577 2.19822e-18)
(1.02939 -0.0513573 9.31854e-20)
(1.04547 -0.0656846 0)
(1.05963 -0.0837323 0)
(1.07049 -0.104067 -1.39918e-18)
(1.07719 -0.124861 0)
(1.0795 -0.144286 0)
(1.07766 -0.160882 0)
(1.07216 -0.173806 0)
(1.06352 -0.182824 0)
(1.05228 -0.188206 -2.7996e-18)
(1.03904 -0.190528 0)
(1.0245 -0.190464 0)
(1.00935 -0.188644 6.40453e-20)
(0.994336 -0.185587 0)
(0.980094 -0.181706 0)
(0.96718 -0.17732 0)
(0.956031 -0.172679 1.30842e-17)
(0.946979 -0.16799 -7.1982e-18)
(0.940258 -0.163422 7.7867e-18)
(0.936026 -0.15912 9.56007e-20)
(0.934382 -0.155213 0)
(0.935387 -0.151819 9.08351e-18)
(0.93908 -0.149044 -9.18332e-18)
(0.9455 -0.146978 0)
(0.954693 -0.14569 0)
(0.966756 -0.145219 -8.15511e-20)
(0.981745 -0.145553 8.35642e-18)
(0.999934 -0.146603 7.52961e-18)
(1.0207 -0.14822 0)
(1.04597 -0.150007 -4.95483e-18)
(1.06745 -0.152089 0)
(1.10949 -0.15351 1.34141e-18)
(0.975986 0.216475 0)
(0.981693 0.20422 2.26479e-17)
(0.987772 0.199655 2.01751e-17)
(0.990446 0.198423 0)
(0.99013 0.196253 8.6287e-18)
(0.989283 0.192997 -8.33537e-18)
(0.988789 0.18942 0)
(0.988305 0.185504 -1.45727e-17)
(0.987643 0.181054 0)
(0.986895 0.176069 0)
(0.986097 0.17061 0)
(0.985223 0.164707 0)
(0.984313 0.158371 0)
(0.983492 0.151609 1.81336e-19)
(0.982915 0.144432 -1.02024e-17)
(0.982741 0.136887 -1.80372e-19)
(0.983122 0.129218 1.8204e-19)
(0.984158 0.121633 0)
(0.985825 0.114081 0)
(0.98795 0.106461 0)
(0.990274 0.0987635 -2.07733e-19)
(0.992566 0.0910611 2.12254e-19)
(0.994686 0.0834617 -4.21536e-18)
(0.996588 0.0760797 -4.19523e-18)
(0.998312 0.0690363 0)
(1.00001 0.062443 -4.28192e-18)
(1.00194 0.0563367 4.2713e-18)
(1.00445 0.050594 0)
(1.0078 0.0448789 2.05711e-18)
(1.01205 0.0386698 2.07404e-18)
(1.01693 0.0313849 0)
(1.02175 0.0225814 0)
(1.02556 0.0121645 9.79237e-19)
(1.02746 0.000431604 -2.22656e-20)
(1.02667 -0.0118788 -4.58416e-19)
(1.02278 -0.0237074 0)
(1.01593 -0.0340091 0)
(1.00675 -0.0419943 -1.01297e-18)
(0.996211 -0.0472514 0)
(0.98547 -0.0497636 -1.14497e-18)
(0.975737 -0.049868 -2.25365e-20)
(0.968133 -0.0481682 0)
(0.963582 -0.0454472 2.71466e-18)
(0.962733 -0.0426134 5.60428e-18)
(0.965905 -0.0406498 2.83537e-18)
(0.97304 -0.0405315 0)
(0.983663 -0.0431632 -5.51806e-18)
(0.99687 -0.0492861 0)
(1.01137 -0.0593235 -2.38139e-18)
(1.02576 -0.0730564 0)
(1.03877 -0.0897771 0)
(1.04945 -0.108293 0)
(1.05726 -0.127065 0)
(1.06207 -0.144519 0)
(1.06392 -0.159344 -3.11451e-18)
(1.06284 -0.170727 3.05611e-18)
(1.05878 -0.178429 0)
(1.05178 -0.182734 3.1716e-18)
(1.04212 -0.184261 -3.63896e-18)
(1.03031 -0.183734 0)
(1.01711 -0.181807 -4.58516e-18)
(1.00332 -0.17899 0)
(0.989716 -0.175651 0)
(0.976963 -0.17205 0)
(0.965608 -0.168376 -7.37271e-18)
(0.956064 -0.164772 8.0179e-18)
(0.948635 -0.161357 -8.64831e-18)
(0.943528 -0.158233 1.84984e-17)
(0.940882 -0.155501 -9.69232e-18)
(0.940781 -0.153254 0)
(0.943277 -0.151589 1.03843e-17)
(0.948415 -0.150591 -1.03874e-17)
(0.956254 -0.150338 0)
(0.966914 -0.150877 -4.83232e-20)
(0.980481 -0.152194 -9.3544e-18)
(0.99725 -0.15418 0)
(1.01663 -0.156602 0)
(1.04051 -0.159024 -5.61016e-18)
(1.06093 -0.161449 0)
(1.10121 -0.162516 -1.51998e-18)
(0.976761 0.214805 0)
(0.984937 0.202014 -1.30377e-17)
(0.992774 0.199212 -1.14711e-17)
(0.995655 0.199002 0)
(0.994992 0.196887 1.97816e-17)
(0.993971 0.193657 1.86787e-17)
(0.993408 0.190169 0)
(0.992855 0.186244 1.68038e-17)
(0.992197 0.181737 -1.59513e-17)
(0.991608 0.176732 0)
(0.99114 0.171295 0)
(0.990725 0.165436 0)
(0.990304 0.159149 0)
(0.989861 0.152419 -1.21301e-17)
(0.989394 0.145234 -1.18838e-17)
(0.98892 0.137615 1.09407e-17)
(0.988519 0.129783 -3.23202e-17)
(0.988312 0.121966 0)
(0.988359 0.114159 0)
(0.988624 0.10631 1.0313e-17)
(0.989001 0.0984334 2.01682e-17)
(0.989386 0.0906052 -9.88267e-18)
(0.989728 0.0829238 0)
(0.99003 0.0754826 0)
(0.990354 0.0683668 -4.98016e-18)
(0.990836 0.0616403 9.844e-18)
(0.991693 0.0553 -9.82377e-18)
(0.993185 0.0492177 0)
(0.995521 0.043112 0)
(0.998734 0.036574 -2.36748e-18)
(1.00259 0.0291723 0)
(1.00654 0.0206014 2.34582e-18)
(1.00984 0.0108116 -1.11522e-18)
(1.01174 7.42242e-05 -2.04139e-20)
(1.01153 -0.0109702 -1.04659e-20)
(1.00885 -0.0214597 0)
(1.00371 -0.0305643 0)
(0.996565 -0.037678 -3.12792e-20)
(0.988116 -0.0425187 1.24582e-18)
(0.979276 -0.0451395 3.94189e-18)
(0.971044 -0.0458868 5.57542e-18)
(0.964397 -0.0453217 2.95671e-18)
(0.960192 -0.0441392 -3.07962e-18)
(0.959078 -0.0431055 -3.1787e-18)
(0.961421 -0.0430047 3.2444e-18)
(0.967259 -0.0445993 0)
(0.976267 -0.0485985 6.24885e-18)
(0.987766 -0.0555729 -6.10855e-18)
(1.00077 -0.0658171 0)
(1.01419 -0.0791775 0)
(1.02703 -0.0950691 0)
(1.03855 -0.112496 0)
(1.04833 -0.130123 0)
(1.05612 -0.146481 0)
(1.06164 -0.160228 3.50684e-18)
(1.06433 -0.170459 -7.07056e-18)
(1.06359 -0.1769 -3.66278e-18)
(1.05904 -0.179908 3.84798e-18)
(1.0508 -0.180251 4.10463e-18)
(1.03947 -0.178797 -4.67871e-18)
(1.02597 -0.176287 5.28804e-18)
(1.01135 -0.173253 0)
(0.996551 -0.170033 6.74484e-18)
(0.982395 -0.166828 -7.52913e-18)
(0.96952 -0.163762 0)
(0.958403 -0.160915 -1.81722e-17)
(0.949382 -0.158353 9.82172e-18)
(0.942686 -0.156133 -2.08836e-17)
(0.938457 -0.154317 1.10164e-17)
(0.936771 -0.152974 0)
(0.937666 -0.152182 1.16696e-17)
(0.941172 -0.152023 1.18248e-17)
(0.94734 -0.152583 -1.16758e-17)
(0.956297 -0.15392 -1.13389e-17)
(0.968131 -0.156013 1.06659e-17)
(0.983159 -0.15874 0)
(1.0008 -0.161786 0)
(1.02307 -0.164759 6.41596e-18)
(1.04216 -0.167398 0)
(1.08108 -0.16833 1.74797e-18)
(0.977833 0.212618 1.71684e-17)
(0.988996 0.199654 0)
(0.998475 0.199066 -2.58349e-17)
(1.00126 0.199744 2.34572e-17)
(1.00019 0.197604 -2.23489e-17)
(0.999044 0.194454 2.14104e-17)
(0.99842 0.19106 0)
(0.997752 0.187095 1.59943e-19)
(0.996984 0.182504 1.80089e-17)
(0.996331 0.177433 0)
(0.995863 0.171945 0)
(0.995539 0.166047 0)
(0.99532 0.159738 2.96385e-17)
(0.995183 0.153009 0)
(0.995095 0.145844 2.64044e-17)
(0.995012 0.138246 0)
(0.994928 0.130412 4.92563e-17)
(0.994879 0.122563 0)
(0.994884 0.114707 0)
(0.994913 0.10681 -2.34646e-17)
(0.994898 0.0988954 -1.14908e-17)
(0.994783 0.0910355 0)
(0.99456 0.08332 0)
(0.994267 0.0758298 0)
(0.99399 0.0686305 5.62196e-18)
(0.993869 0.0617588 -5.61423e-18)
(0.994105 0.0551897 -9.87942e-20)
(0.994926 0.0487956 0)
(0.996514 0.0423327 5.64191e-18)
(0.998914 0.0354686 0)
(1.00195 0.0278758 0)
(1.00523 0.019341 -2.65764e-18)
(1.00814 0.00986571 1.33548e-18)
(1.01 -0.000260478 -1.93609e-20)
(1.0102 -0.0104706 3.13314e-19)
(1.00836 -0.0200406 0)
(1.00441 -0.0282883 0)
(0.998615 -0.0347434 1.33642e-18)