/*--------------------------------*- C++ -*----------------------------------*\
| =========                 |                                                 |
| \\      /  F ield         | OpenFOAM: The Open Source CFD Toolbox           |
|  \\    /   O peration     | Version:  v1912                                 |
|   \\  /    A nd           | Website:  www.openfoam.com                      |
|    \\/     M anipulation  |                                                 |
\*---------------------------------------------------------------------------*/
FoamFile
{
    version     2.0;
    format      ascii;
    class       surfaceScalarField;
    location    "275";
    object      phi;
}
// * * * * * * * * * * * * * * * * * * * * * * * * * * * * * * * * * * * * * //

dimensions      [0 3 -1 0 0 0 0];
oriented        oriented;


internalField   nonuniform List<scalar> 
3895
(
0.00081296
0.000383217
0.000495759
0.000317201
0.000248398
0.000247361
6.44895e-05
0.000183909
-5.6567e-05
0.000121057
-0.00011332
5.67532e-05
-0.000118892
5.57131e-06
-9.83825e-05
-2.05091e-05
-9.66224e-05
-1.76008e-06
-8.92015e-05
-7.42094e-06
-7.74191e-05
-1.17824e-05
-8.20124e-05
4.59338e-06
-9.81008e-05
1.60884e-05
-0.000108484
1.0383e-05
-0.000113347
4.86343e-06
-0.000120075
6.72789e-06
-0.000130318
1.02433e-05
-0.000142313
1.19941e-05
-0.000155243
1.29304e-05
-0.000169346
1.41034e-05
-0.00018522
1.58737e-05
-0.000203477
1.82567e-05
-0.000224683
2.12058e-05
-0.000249333
2.4651e-05
-0.000277756
2.8423e-05
-0.000309991
3.22343e-05
-0.000345713
3.57219e-05
-0.000384235
3.85218e-05
-0.000424504
4.02695e-05
-0.000465228
4.07243e-05
-0.000505041
3.98123e-05
-0.000542636
3.75951e-05
-0.000576878
3.42425e-05
-0.00060687
2.99916e-05
-0.000631971
2.51012e-05
-0.000651789
1.98181e-05
-0.000666152
1.43632e-05
-0.000675028
8.87602e-06
-0.000678257
3.22838e-06
-0.000676541
-1.71568e-06
-0.000671227
-5.31425e-06
-0.000662388
-8.83917e-06
-0.000650153
-1.22346e-05
-0.000634593
-1.55602e-05
-0.000615737
-1.88556e-05
-0.000593604
-2.2133e-05
-0.000568217
-2.5387e-05
-0.000539616
-2.86016e-05
-0.000507862
-3.17541e-05
-0.000473043
-3.48183e-05
-0.000435277
-3.77666e-05
-0.000394706
-4.05702e-05
-0.000351509
-4.31971e-05
-0.000305864
-4.56457e-05
-0.00025797
-4.78937e-05
-0.000208072
-4.98975e-05
-0.000156437
-5.16355e-05
-0.00010335
-5.30867e-05
-4.91207e-05
-5.42296e-05
5.91715e-06
-5.50379e-05
6.15456e-05
-5.56284e-05
0.000117622
-5.60764e-05
0.000173793
-5.61712e-05
0.000229741
-5.59477e-05
0.000285176
-5.54355e-05
0.000339836
-5.46593e-05
0.000393479
-5.36435e-05
0.000445894
-5.24149e-05
0.000496897
-5.1003e-05
0.000546339
-4.94416e-05
0.000594108
-4.77693e-05
0.000640142
-4.60338e-05
0.000684441
-4.42989e-05
0.000727095
-4.26544e-05
0.000768357
-4.12616e-05
0.000808718
-4.03618e-05
0.000849282
-4.05633e-05
0.000892178
-4.2896e-05
0.000940921
-4.87432e-05
-7.36903e-05
0.00108704
0.000351985
0.00104376
0.000360481
0.000925069
0.000366053
0.000762331
0.000346647
0.000579122
0.000304266
0.000384379
0.000251496
0.000193948
0.000196002
3.75426e-05
0.000135896
-4.68083e-05
8.25908e-05
-8.29498e-05
2.87205e-05
-9.24304e-05
-2.30174e-06
-8.19036e-05
-5.93348e-06
-8.56019e-05
1.97867e-05
-9.29663e-05
1.77473e-05
-9.83678e-05
1.02649e-05
-0.000109298
1.7658e-05
-0.000121763
2.27089e-05
-0.000134259
2.44897e-05
-0.00014643
2.51015e-05
-0.000158948
2.66215e-05
-0.000172206
2.91314e-05
-0.00018626
3.23106e-05
-0.000201044
3.59895e-05
-0.000216454
4.0061e-05
-0.00023233
4.4299e-05
-0.000248387
4.82918e-05
-0.000264182
5.15166e-05
-0.000279125
5.34654e-05
-0.000292607
5.37515e-05
-0.000304072
5.21891e-05
-0.000313083
4.88235e-05
-0.000319373
4.38845e-05
-0.000322852
3.77218e-05
-0.000323603
3.0743e-05
-0.000321859
2.33564e-05
-0.00031796
1.59198e-05
-0.000312339
8.74202e-06
-0.000305762
2.29917e-06
-0.000298345
-4.18872e-06
-0.000290002
-1.00587e-05
-0.000279934
-1.53823e-05
-0.00026813
-2.06436e-05
-0.000254408
-2.59558e-05
-0.000238632
-3.13363e-05
-0.000220714
-3.67736e-05
-0.000200609
-4.22386e-05
-0.000178304
-4.76918e-05
-0.000153818
-5.30876e-05
-0.000127195
-5.83773e-05
-9.85026e-05
-6.35106e-05
-6.78315e-05
-6.84376e-05
-3.52915e-05
-7.31102e-05
-1.00521e-06
-7.74834e-05
3.48574e-05
-8.15083e-05
7.21092e-05
-8.51454e-05
0.000110568
-8.83566e-05
0.00015004
-9.11071e-05
0.000190322
-9.33692e-05
0.000231216
-9.51235e-05
0.000272546
-9.63675e-05
0.000314041
-9.71234e-05
0.000355357
-9.73927e-05
0.000396339
-9.71533e-05
0.00043681
-9.64182e-05
0.000476591
-9.52168e-05
0.000515517
-9.35848e-05
0.000553436
-9.15629e-05
0.000590219
-8.91974e-05
0.000625756
-8.65407e-05
0.000659966
-8.36515e-05
0.000692794
-8.05968e-05
0.000724216
-7.74564e-05
0.00075425
-7.43323e-05
0.000782959
-7.13633e-05
0.000810461
-6.87642e-05
0.00083696
-6.686e-05
0.00086267
-6.62734e-05
0.000887634
-6.78601e-05
0.000911744
-7.28532e-05
-8.93009e-05
0.00097612
0.000307778
0.00102675
0.000309849
0.00105929
0.000333519
0.0010521
0.000353834
0.000998533
0.000357832
0.000903271
0.000346758
0.000775384
0.000323889
0.000621714
0.000289567
0.000458936
0.000245369
0.000292205
0.000195451
0.000143738
0.000146165
3.96335e-05
9.81714e-05
-3.78148e-06
6.32017e-05
-2.02591e-05
3.42249e-05
-3.02429e-05
2.02487e-05
-3.72147e-05
2.46299e-05
-4.61497e-05
3.16439e-05
-5.57682e-05
3.41082e-05
-6.45083e-05
3.38416e-05
-7.19359e-05
3.40492e-05
-7.82175e-05
3.54129e-05
-8.33922e-05
3.74853e-05
-8.72156e-05
3.98129e-05
-8.95574e-05
4.24028e-05
-9.04176e-05
4.51592e-05
-8.98766e-05
4.77508e-05
-8.80559e-05
4.96959e-05
-8.51069e-05
5.05164e-05
-8.12143e-05
4.98589e-05
-7.65848e-05
4.75597e-05
-7.14149e-05
4.36536e-05
-6.58653e-05
3.83348e-05
-6.00427e-05
3.18993e-05
-5.39864e-05
2.46866e-05
-4.76734e-05
1.70434e-05
-4.10251e-05
9.27143e-06
-3.37422e-05
1.45917e-06
-2.56075e-05
-5.83556e-06
-1.67799e-05
-1.30163e-05
-6.86582e-06
-1.99728e-05
4.50651e-06
-2.67546e-05
1.73607e-05
-3.34977e-05
3.16818e-05
-4.02769e-05
4.74546e-05
-4.71092e-05
6.46594e-05
-5.39784e-05
8.3269e-05
-6.08482e-05
0.000103247
-6.76699e-05
0.000124547
-7.43871e-05
0.000147108
-8.09392e-05
0.000170861
-8.72635e-05
0.000195721
-9.3297e-05
0.000221589
-9.89784e-05
0.000248354
-0.000104248
0.000275896
-0.00010905
0.00030408
-0.00011333
0.000332768
-0.000117045
0.000361815
-0.000120154
0.000391074
-0.000122628
0.000420399
-0.000124448
0.00044964
-0.000125609
0.000478633
-0.000126116
0.000507219
-0.000125979
0.000535275
-0.000125209
0.000562689
-0.000123832
0.000589358
-0.000121887
0.000615194
-0.00011942
0.00064012
-0.000116489
0.000664076
-0.000113154
0.00068702
-0.000109484
0.000708922
-0.000105554
0.000729771
-0.000101445
0.000749567
-9.72524e-05
0.000768323
-9.3088e-05
0.000786057
-8.90976e-05
0.000802773
-8.54803e-05
0.000818446
-8.25328e-05
0.00083285
-8.06779e-05
0.00084561
-8.06199e-05
0.000855544
-8.27872e-05
-9.15243e-05
0.000857367
0.000272969
0.000897592
0.000269624
0.000949746
0.000281365
0.00100253
0.000301053
0.00104093
0.000319427
0.00105506
0.000332635
0.00103974
0.000339207
0.000991885
0.000337419
0.000912113
0.00032514
0.00080483
0.000302735
0.000678027
0.000272968
0.000538879
0.000237319
0.000404001
0.00019808
0.000281808
0.000156418
0.00018413
0.000117927
0.000122037
8.67226e-05
9.16649e-05
6.2016e-05
7.78615e-05
4.79116e-05
6.95969e-05
4.21062e-05
6.32834e-05
4.03627e-05
5.87269e-05
3.99693e-05
5.65032e-05
3.97091e-05
5.68436e-05
3.94724e-05
5.97474e-05
3.9499e-05
6.50706e-05
3.98359e-05
7.25593e-05
4.02621e-05
8.18491e-05
4.04061e-05
9.24864e-05
3.9879e-05
0.000103979
3.83661e-05
0.000115861
3.5678e-05
0.000127747
3.17679e-05
0.000139369
2.67122e-05
0.000150588
2.06804e-05
0.000161389
1.38853e-05
0.000171871
6.56145e-06
0.000182247
-1.1043e-06
0.00019258
-8.87401e-06
0.000203409
-1.66646e-05
0.000214819
-2.44262e-05
0.000226974
-3.21271e-05
0.00023999
-3.97713e-05
0.000253889
-4.73962e-05
0.000268639
-5.5027e-05
0.000284192
-6.26621e-05
0.000300492
-7.02786e-05
0.000317481
-7.78369e-05
0.000335097
-8.52859e-05
0.000353276
-9.25661e-05
0.000371949
-9.96127e-05
0.000391044
-0.000106358
0.000410483
-0.000112735
0.00043018
-0.000118676
0.000450048
-0.000124116
0.000469994
-0.000128996
0.000489923
-0.000133259
0.000509739
-0.00013686
0.000529346
-0.000139761
0.000548651
-0.000141933
0.000567565
-0.000143363
0.000586002
-0.000144046
0.000603881
-0.000143994
0.000621129
-0.000143227
0.00063769
-0.000141771
0.000653524
-0.000139666
0.0006686
-0.000136962
0.000682899
-0.00013372
0.000696415
-0.000130004
0.000709149
-0.000125889
0.000721115
-0.00012145
0.00073233
-0.000116769
0.000742818
-0.000111933
0.000752601
-0.000107035
0.000761695
-0.000102182
0.000770099
-9.75014e-05
0.000777768
-9.31498e-05
0.000784588
-8.93521e-05
0.000790266
-8.63565e-05
0.00079432
-8.46739e-05
0.000795812
-8.42793e-05
-8.72666e-05
0.00075912
0.000239883
0.000789428
0.000239316
0.000826161
0.000244632
0.000871846
0.000255367
0.000923028
0.000268244
0.000973748
0.000281916
0.0010172
0.000295752
0.00104668
0.000307941
0.00105608
0.000315747
0.00104155
0.000317256
0.00100235
0.000312169
0.000938991
0.000300681
0.000854838
0.000282233
0.000754489
0.000256766
0.000645737
0.00022668
0.000537985
0.000194475
0.000444471
0.00015553
0.000371586
0.000120796
0.00032011
9.35828e-05
0.000286941
7.35311e-05
0.000267282
5.96283e-05
0.000256563
5.04289e-05
0.000251626
4.44086e-05
0.000250815
4.03108e-05
0.000253385
3.72653e-05
0.000258933
3.47144e-05
0.000267057
3.22819e-05
0.000277264
2.96724e-05
0.000288995
2.66352e-05
0.000301697
2.29757e-05
0.000314883
1.85815e-05
0.000328175
1.34202e-05
0.000341306
7.55024e-06
0.000354139
1.05168e-06
0.000366682
-5.98097e-06
0.000379007
-1.34292e-05
0.000391273
-2.11401e-05
0.000403615
-2.90067e-05
0.000416137
-3.69485e-05
0.000428924
-4.49147e-05
0.000442029
-5.28756e-05
0.000455453
-6.08203e-05
0.000469164
-6.8738e-05
0.000483109
-7.66074e-05
0.000497226
-8.43958e-05
0.000511449
-9.20592e-05
0.000525708
-9.95449e-05
0.000539934
-0.000106793
0.00055406
-0.000113738
0.000568015
-0.000120314
0.000581732
-0.000126452
0.00059514
-0.000132085
0.000608174
-0.00013715
0.000620768
-0.000141589
0.00063286
-0.000145351
0.000644392
-0.000148393
0.000655315
-0.000150684
0.000665585
-0.000152203
0.000675165
-0.000152943
0.00068403
-0.000152911
0.000692163
-0.000152127
0.000699557
-0.000150621
0.000706219
-0.000148433
0.000712169
-0.000145616
0.000717436
-0.000142229
0.000722056
-0.000138341
0.000726076
-0.000134024
0.000729543
-0.000129356
0.00073251
-0.000124416
0.000735027
-0.000119286
0.00073714
-0.000114047
0.00073889
-0.000108785
0.000740296
-0.000103589
0.000741353
-9.8559e-05
0.000742007
-9.38038e-05
0.000742128
-8.94726e-05
0.000741443
-8.56712e-05
0.000739495
-8.27266e-05
0.000735666
-8.04504e-05
-7.9194e-05
0.000671951
0.000208768
0.000700419
0.000210848
0.000729695
0.000215356
0.000762602
0.00022246
0.000800451
0.000230395
0.000843572
0.000238795
0.000890936
0.000248387
0.000939726
0.000259151
0.000985503
0.00026997
0.00102329
0.000279469
0.00104887
0.000286592
0.0010591
0.000290451
0.00105151
0.000289822
0.00102467
0.0002836
0.000979479
0.000271875
0.000918575
0.000255379
0.000849083
0.000225023
0.000777586
0.000192293
0.000709341
0.000161828
0.00064842
0.000134452
0.00059746
0.000110588
0.000557539
9.03497e-05
0.000528328
7.36191e-05
0.000508544
6.0095e-05
0.000496498
4.9311e-05
0.000490535
4.0678e-05
0.000489255
3.35613e-05
0.00049156
2.73676e-05
0.000496589
2.16061e-05
0.000503649
1.59159e-05
0.000512164
1.00665e-05
0.000521683
3.9014e-06
0.000531821
-2.58772e-06
0.000542267
-9.39507e-06
0.000552897
-1.66106e-05
0.000563585
-2.41169e-05
0.000574283
-3.18383e-05
0.000584976
-3.97001e-05
0.000595666
-4.76385e-05
0.000606354
-5.56026e-05
0.000617031
-6.35519e-05
0.000627666
-7.14555e-05
0.000638213
-7.92847e-05
0.000648611
-8.70061e-05
0.000658796
-9.45801e-05
0.000668696
-0.00010196
0.000678243
-0.000109092
0.000687368
-0.000115917
0.000696003
-0.000122374
0.000704088
-0.000128398
0.000711562
-0.000133926
0.000718372
-0.000138895
0.000724471
-0.000143249
0.000729818
-0.000146937
0.000734384
-0.000149916
0.000738145
-0.000152154
0.00074109
-0.000153629
0.000743221
-0.000154333
0.000744549
-0.000154271
0.000745097
-0.00015346
0.0007449
-0.00015193
0.000744003
-0.000149724
0.000742462
-0.000146892
0.000740341
-0.000143495
0.000737711
-0.000139598
0.000734645
-0.000135275
0.000731219
-0.000130598
0.000727508
-0.000125645
0.000723583
-0.000120491
0.000719509
-0.000115212
0.000715341
-0.000109879
0.000711122
-0.000104565
0.000706873
-9.934e-05
0.000702589
-9.42748e-05
0.000698217
-8.94313e-05
0.000693636
-8.48922e-05
0.000688619
-8.06537e-05
0.000682759
-7.68668e-05
0.000675662
-7.33531e-05
-6.89642e-05
0.00059375
0.000180655
0.000620765
0.000183833
0.000647712
0.000188409
0.000675586
0.000194586
0.000704954
0.000201027
0.000736704
0.000207046
0.000771998
0.000213094
0.00081147
0.000219679
0.000854623
0.000226816
0.000899814
0.000234279
0.00094462
0.000241785
0.000986223
0.000248848
0.00102147
0.000254571
0.00104725
0.000257825
0.00106121
0.000257911
0.00106206
0.000254536
0.00105001
0.00023707
0.00102717
0.000215132
0.000996187
0.000192811
0.000959885
0.000170753
0.000921018
0.000149455
0.000882094
0.000129274
0.000845248
0.000110465
0.000812147
9.31955e-05
0.000783917
7.75415e-05
0.000761113
6.34822e-05
0.000743765
5.09089e-05
0.000731489
3.96438e-05
0.000723633
2.94617e-05
0.000719435
2.01148e-05
0.000718141
1.136e-05
0.000719074
2.96858e-06
0.000721673
-5.18726e-06
0.000725499
-1.32206e-05
0.000730142
-2.12534e-05
0.000735344
-2.93191e-05
0.000740915
-3.74088e-05
0.000746708
-4.54939e-05
0.00075261
-5.35405e-05
0.000758524
-6.1516e-05
0.000764363
-6.93914e-05
0.000770047
-7.71396e-05
0.000775495
-8.47325e-05
0.000780626
-9.21373e-05
0.000785361
-9.93147e-05
0.000789621
-0.00010622
0.000793331
-0.000112802
0.000796422
-0.000119008
0.000798829
-0.000124781
0.000800495
-0.000130064
0.000801373
-0.000134803
0.000801424
-0.000138947
0.000800623
-0.000142448
0.000798956
-0.000145269
0.00079642
-0.000147381
0.000793029
-0.000148763
0.000788809
-0.000149409
0.000783799
-0.000149324
0.000778053
-0.000148524
0.000771633
-0.00014704
0.000764613
-0.00014491
0.000757075
-0.000142185
0.000749104
-0.000138922
0.000740792
-0.000135183
0.00073223
-0.000131036
0.000723505
-0.00012655
0.000714702
-0.000121796
0.0007059
-0.000116843
0.000697168
-0.000111759
0.000688566
-0.00010661
0.000680143
-0.000101456
0.000671931
-9.63541e-05
0.000663947
-9.13559e-05
0.000656179
-8.65069e-05
0.000648579
-8.1831e-05
0.000641042
-7.73552e-05
0.000633386
-7.29981e-05
0.000625254
-6.87344e-05
0.000616404
-6.45036e-05
-5.78064e-05
0.000524267
0.00015565
0.000548877
0.000159222
0.000573654
0.000163632
0.000599101
0.00016914
0.000625167
0.000174961
0.000651837
0.000180376
0.000679581
0.00018535
0.000709171
0.000190088
0.000741326
0.000194661
0.000776476
0.000199129
0.000814611
0.000203651
0.000855143
0.000208316
0.000896816
0.000212898
0.000937775
0.000216865
0.000975948
0.000219739
0.00100936
0.00022112
0.00103522
0.000211216
0.00105283
0.000197522
0.0010625
0.000183136
0.00106494
0.000168314
0.00106108
0.000153316
0.00105199
0.000138364
0.00103882
0.000123639
0.00102273
0.000109286
0.00100487
9.54027e-05
0.000986311
8.20384e-05
0.000968015
6.92047e-05
0.00095077
5.68886e-05
0.000935167
4.50648e-05
0.000921579
3.37033e-05
0.000910172
2.27669e-05
0.000900919
1.22215e-05
0.000893714
2.01767e-06
0.000888437
-7.94349e-06
0.000884763
-1.75795e-05
0.000882309
-2.68653e-05
0.000880727
-3.58264e-05
0.000879726
-4.44936e-05
0.000879078
-5.28922e-05
0.000878599
-6.1037e-05
0.00087814
-6.89319e-05
0.000877571
-7.65705e-05
0.000876775
-8.3937e-05
0.000875645
-9.10075e-05
0.000874082
-9.77511e-05
0.000871993
-0.000104131
0.000869298
-0.000110108
0.000865928
-0.000115637
0.000861824
-0.000120677
0.000856943
-0.000125183
0.000851255
-0.000129115
0.000844745
-0.000132437
0.000837415
-0.000135118
0.000829281
-0.000137135
0.000820374
-0.000138474
0.000810742
-0.000139131
0.000800446
-0.000139113
0.00078956
-0.000138437
0.000778166
-0.00013713
0.000766356
-0.000135229
0.000754224
-0.000132779
0.000741869
-0.00012983
0.000729387
-0.000126439
0.00071687
-0.000122666
0.000704406
-0.000118571
0.000692074
-0.000114218
0.000679945
-0.000109667
0.00066808
-0.000104978
0.00065653
-0.000100209
0.000645335
-9.54149e-05
0.000634524
-9.06444e-05
0.000624112
-8.59427e-05
0.000614102
-8.13453e-05
0.000604474
-7.68788e-05
0.000595183
-7.25403e-05
0.00058614
-6.83122e-05
0.00057721
-6.40679e-05
0.000568076
-5.96008e-05
0.000558618
-5.50448e-05
-4.66477e-05
0.000462816
0.000133509
0.000484788
0.00013725
0.000507026
0.000141393
0.000529984
0.000146182
0.000553646
0.000151298
0.000577784
0.000156238
0.000602319
0.000160815
0.000627371
0.000165036
0.000653198
0.000168834
0.000680192
0.000172135
0.000708834
0.000175009
0.000739551
0.000177599
0.00077251
0.000179939
0.000807473
0.000181903
0.000843833
0.000183378
0.000880702
0.000184252
0.000915439
0.000176478
0.00094677
0.000166191
0.000974146
0.00015576
0.000997275
0.000145184
0.00101608
0.000134508
0.00103067
0.000123781
0.00104124
0.000113062
0.00104813
0.000102402
0.00105169
9.18417e-05
0.00105233
8.13958e-05
0.00105048
7.10583e-05
0.00104656
6.0811e-05
0.00104099
5.0635e-05
0.00103417
4.05175e-05
0.00102648
3.04568e-05
0.00101824
2.04617e-05
0.00100968
1.0577e-05
0.00100095
7.90933e-07
0.000992338
-8.96988e-06
0.00098403
-1.85572e-05
0.000976124
-2.79206e-05
0.000968626
-3.69959e-05
0.00096147
-4.57355e-05
0.00095454
-5.4107e-05
0.000947697
-6.20895e-05
0.000940797
-6.96704e-05
0.0009337
-7.68403e-05
0.000926283
-8.35898e-05
0.000918438
-8.99062e-05
0.000910079
-9.57724e-05
0.000901139
-0.000101167
0.000891567
-0.000106066
0.000881333
-0.000110443
0.000870421
-0.000114272
0.000858835
-0.000117529
0.000846592
-0.000120195
0.000833729
-0.000122255
0.000820295
-0.000123701
0.000806355
-0.000124534
0.000791984
-0.000124761
0.000777269
-0.000124398
0.0007623
-0.000123469
0.000747174
-0.000122004
0.000731985
-0.00012004
0.000716825
-0.000117619
0.000701782
-0.000114787
0.000686935
-0.000111592
0.000672354
-0.000108085
0.0006581
-0.000104317
0.000644224
-0.000100342
0.000630766
-9.62089e-05
0.000617758
-9.19698e-05
0.000605221
-8.76728e-05
0.00059317
-8.33635e-05
0.000581609
-7.90834e-05
0.000570535
-7.48688e-05
0.000559936
-7.0746e-05
0.000549786
-6.6729e-05
0.000540045
-6.27995e-05
0.000530639
-5.89058e-05
0.000521477
-5.49061e-05
0.000512289
-5.04125e-05
0.000503049
-4.58047e-05
-3.61672e-05
0.000408523
0.00011395
0.000428003
0.000117771
0.000447764
0.000121632
0.000468177
0.00012577
0.000489297
0.000130178
0.000511009
0.000134525
0.000533214
0.000138611
0.000555827
0.000142423
0.000578766
0.000145895
0.000602009
0.000148892
0.000625667
0.000151351
0.000649975
0.00015329
0.000675217
0.000154697
0.000701616
0.000155503
0.000729307
0.000155687
0.00075828
0.000155279
0.000787035
0.000147723
0.000814847
0.000138379
0.000841345
0.000129262
0.000866194
0.000120335
0.000889127
0.000111575
0.000909952
0.000102957
0.000928552
9.44614e-05
0.000944881
8.6073e-05
0.000958948
7.77749e-05
0.000970802
6.95414e-05
0.000980522
6.13382e-05
0.000988205
5.31282e-05
0.000993961
4.48787e-05
0.000997911
3.65673e-05
0.00100018
2.81858e-05
0.0010009
1.9742e-05
0.00100021
1.12684e-05
0.000998162
2.83934e-06
0.000994736
-5.54387e-06
0.000989985
-1.38055e-05
0.000983999
-2.1935e-05
0.000976897
-2.98938e-05
0.000968798
-3.7637e-05
0.000959816
-4.51246e-05
0.000950047
-5.23208e-05
0.00093957
-5.91935e-05
0.000928443
-6.57133e-05
0.000916706
-7.18524e-05
0.000904384
-7.75846e-05
0.000891496
-8.28845e-05
0.000878058
-8.77283e-05
0.000864086
-9.20937e-05
0.000849604
-9.59611e-05
0.000834646
-9.93138e-05
0.000819256
-0.000102139
0.00080349
-0.000104428
0.000787412
-0.000106177
0.000771098
-0.000107387
0.000754628
-0.000108064
0.000738087
-0.00010822
0.00072156
-0.000107871
0.00070513
-0.000107039
0.000688876
-0.00010575
0.000672869
-0.000104033
0.000657172
-0.000101922
0.000641838
-9.94534e-05
0.000626913
-9.66666e-05
0.000612431
-9.36029e-05
0.000598418
-9.03052e-05
0.000584894
-8.68174e-05
0.000571869
-8.3184e-05
0.000559348
-7.94488e-05
0.00054733
-7.56548e-05
0.000535809
-7.18423e-05
0.000524774
-6.80485e-05
0.00051421
-6.43049e-05
0.000504097
-6.06332e-05
0.000494409
-5.70411e-05
0.000485114
-5.35038e-05
0.000476154
-4.99457e-05
0.000467479
-4.62311e-05
0.000458875
-4.18087e-05
0.000450381
-3.73113e-05
-2.68415e-05
0.000360569
9.67009e-05
0.000377775
0.000100564
0.000395283
0.000104124
0.00041336
0.000107692
0.000432047
0.000111491
0.000451305
0.000115268
0.000471105
0.00011881
0.000491405
0.000122124
0.000512109
0.000125191
0.000533096
0.000127904
0.000554271
0.000130177
0.00057559
0.000131971
0.000597063
0.000133224
0.000618736
0.000133831
0.000640694
0.00013373
0.000663044
0.000132928
0.000684882
0.000125884
0.000705958
0.000117303
0.000726249
0.000108971
0.000745688
0.000100896
0.000764181
9.30813e-05
0.000781629
8.55089e-05
0.000797937
7.81537e-05
0.000813023
7.0987e-05
0.000826822
6.39754e-05
0.000839285
5.70787e-05
0.000850372
5.02511e-05
0.000860054
4.34469e-05
0.000868307
3.66256e-05
0.000875116
2.97577e-05
0.000880475
2.28269e-05
0.000884384
1.58334e-05
0.000886857
8.79515e-06
0.000887941
1.75495e-06
0.000887653
-5.25575e-06
0.000886045
-1.21971e-05
0.000883142
-1.90326e-05
0.000878976
-2.57278e-05
0.000873585
-3.22456e-05
0.000867012
-3.8552e-05
0.000859309
-4.46174e-05
0.000850531
-5.04158e-05
0.000840742
-5.59238e-05
0.000830009
-6.11199e-05
0.000818408
-6.59837e-05
0.000806019
-7.04953e-05
0.000792926
-7.46357e-05
0.00077922
-7.8387e-05
0.000764991
-8.17324e-05
0.000750335
-8.46574e-05
0.000735345
-8.71493e-05
0.000720116
-8.91986e-05
0.000704738
-9.07988e-05
0.000689298
-9.19467e-05
0.000673877
-9.26431e-05
0.00065855
-9.28927e-05
0.000643383
-9.27046e-05
0.000628436
-9.20918e-05
0.000613758
-9.10722e-05
0.000599392
-8.96676e-05
0.000585375
-8.79041e-05
0.000571733
-8.58117e-05
0.000558489
-8.34233e-05
0.000545662
-8.07749e-05
0.000533261
-7.79044e-05
0.000521294
-7.48508e-05
0.000509764
-7.16541e-05
0.00049867
-6.83541e-05
0.000488004
-6.49895e-05
0.000477759
-6.15972e-05
0.000467921
-5.82108e-05
0.000458476
-5.48591e-05
0.000449404
-5.15612e-05
0.000440684
-4.83215e-05
0.000432295
-4.51145e-05
0.0004242
-4.18509e-05
0.000416375
-3.84067e-05
0.000408689
-3.41221e-05
0.000401154
-2.97765e-05
-1.89947e-05
0.000318219
8.15151e-05
0.000333377
8.54054e-05
0.000348866
8.86357e-05
0.000364863
9.16955e-05
0.000381373
9.4981e-05
0.000398383
9.82576e-05
0.000415891
0.000101302
0.00043388
0.000104135
0.000452306
0.000106765
0.000471096
0.000109114
0.000490161
0.000111112
0.000509406
0.000112726
0.000528734
0.000113896
0.000548044
0.00011452
0.000567258
0.000114516
0.000586337
0.000113849
0.000604465
0.000107757
0.000621487
0.000100281
0.00063749
9.29679e-05
0.000652537
8.585e-05
0.000666668
7.89497e-05
0.000679906
7.22713e-05
0.000692254
6.58053e-05
0.000703707
5.95344e-05
0.000714249
5.34335e-05
0.000723859
4.74689e-05
0.000732508
4.16013e-05
0.000740166
3.57898e-05
0.000746793
2.99979e-05
0.000752354
2.41974e-05
0.000756809
1.83713e-05
0.000760127
1.25156e-05
0.000762282
6.64032e-06
0.000763285
7.52012e-07
0.000763146
-5.11686e-06
0.000761903
-1.09542e-05
0.000759579
-1.67083e-05
0.000756202
-2.23507e-05
0.000751809
-2.78532e-05
0.000746446
-3.31885e-05
0.000740161
-3.83328e-05
0.00073301
-4.32647e-05
0.000725051
-4.79648e-05
0.000716346
-5.24147e-05
0.000706959
-5.65966e-05
0.000696957
-6.04927e-05
0.000686406
-6.40855e-05
0.000675377
-6.73577e-05
0.000663938
-7.02929e-05
0.000652156
-7.28755e-05
0.000640098
-7.50917e-05
0.000627829
-7.69292e-05
0.000615409
-7.83788e-05
0.000602896
-7.9434e-05
0.000590345
-8.00919e-05
0.000577806
-8.03536e-05
0.000565326
-8.02247e-05
0.000552949
-7.97151e-05
0.000540716
-7.88395e-05
0.000528666
-7.76168e-05
0.000516831
-7.60698e-05
0.000505245
-7.42251e-05
0.000493933
-7.21116e-05
0.000482919
-6.97607e-05
0.00047222
-6.72053e-05
0.000461848
-6.44793e-05
0.000451811
-6.16173e-05
0.000442112
-5.86544e-05
0.000432747
-5.56251e-05
0.000423713
-5.25629e-05
0.000415001
-4.9499e-05
0.000406602
-4.64602e-05
0.000398506
-4.34649e-05
0.000390701
-4.05171e-05
0.00038318
-3.75925e-05
0.000375931
-3.46021e-05
0.000368946
-3.14215e-05
0.000362205
-2.73817e-05
0.000355573
-2.31441e-05
-1.27297e-05
0.000280821
6.81677e-05
0.000294152
7.20742e-05
0.000307841
7.49462e-05
0.000321986
7.75509e-05
0.000336569
8.03982e-05
0.000351593
8.32331e-05
0.000367055
8.58402e-05
0.000382937
8.82528e-05
0.000399212
9.049e-05
0.000415841
9.24854e-05
0.000432773
9.4181e-05
0.000449945
9.55539e-05
0.000467277
9.65631e-05
0.000484667
9.71302e-05
0.000502001
9.71824e-05
0.000519171
9.66789e-05
0.000535368
9.15594e-05
0.000550407
8.52422e-05
0.000564338
7.90365e-05
0.00057722
7.29685e-05
0.000589107
6.7062e-05
0.000600052
6.13265e-05
0.000610097
5.57603e-05
0.000619277
5.03543e-05
0.000627619
4.50921e-05
0.000635138
3.99493e-05
0.000641844
3.48959e-05
0.000647734
2.98999e-05
0.0006528
2.49318e-05
0.000657028
1.99687e-05
0.000660404
1.49958e-05
0.000662911
1.00083e-05
0.00066454
5.01092e-06
0.000665291
1.52525e-09
0.000665163
-4.9889e-06
0.000664166
-9.9574e-06
0.000662316
-1.48583e-05
0.000659633
-1.96674e-05
0.000656142
-2.43622e-05
0.000651874
-2.89206e-05
0.000646863
-3.33224e-05
0.000641148
-3.75494e-05
0.000634768
-4.15846e-05
0.000627765
-4.54117e-05
0.000620183
-4.90143e-05
0.000612066
-5.23761e-05
0.000603461
-5.54806e-05
0.000594415
-5.83113e-05
0.000584974
-6.08523e-05
0.000575187
-6.30884e-05
0.000565101
-6.50058e-05
0.000554765
-6.65928e-05
0.000544226
-6.78403e-05
0.000533534
-6.87421e-05
0.000522738
-6.92958e-05
0.000511887
-6.95026e-05
0.00050103
-6.93677e-05
0.000490215
-6.89e-05
0.000479487
-6.81118e-05
0.000468889
-6.70185e-05
0.000458457
-6.56382e-05
0.000448224
-6.39913e-05
0.000438212
-6.21003e-05
0.000428441
-5.99896e-05
0.000418921
-5.76857e-05
0.000409659
-5.52172e-05
0.000400657
-5.26145e-05
0.000391912
-4.991e-05
0.000383424
-4.71368e-05
0.000375189
-4.43285e-05
0.000367207
-4.15167e-05
0.000359477
-3.87298e-05
0.000351999
-3.59877e-05
0.00034478
-3.32974e-05
0.000337824
-3.06363e-05
0.000331153
-2.79309e-05
0.000324767
-2.50365e-05
0.000318778
-2.13926e-05
0.000312889
-1.72546e-05
-7.74591e-06
0.000247797
5.64572e-05
0.00025951
6.0361e-05
0.000271604
6.28517e-05
0.0002841
6.50555e-05
0.000296973
6.75248e-05
0.000310243
6.99635e-05
0.000323901
7.21822e-05
0.000337924
7.423e-05
0.000352287
7.61265e-05
0.000366961
7.78118e-05
0.000381907
7.92353e-05
0.000397082
8.03785e-05
0.000412433
8.12115e-05
0.000427889
8.1675e-05
0.000443359
8.17116e-05
0.000458751
8.12875e-05
0.000473322
7.69886e-05
0.000486879
7.16851e-05
0.000499442
6.64731e-05
0.000511039
6.13714e-05
0.000521704
5.63975e-05
0.000531471
5.15587e-05
0.000540378
4.68533e-05
0.000548459
4.22741e-05
0.000555743
3.78081e-05
0.000562256
3.34361e-05
0.000568017
2.91343e-05
0.00057304
2.48771e-05
0.000577331
2.06412e-05
0.000580891
1.64082e-05
0.000583721
1.21664e-05
0.000585817
7.91191e-06
0.000587183
3.64545e-06
0.000587811
-6.26391e-07
0.000587703
-4.88143e-06
0.000586859
-9.11357e-06
0.000585292
-1.3291e-05
0.000583016
-1.7391e-05
0.000580048
-2.13948e-05
0.000576412
-2.5284e-05
0.00057213
-2.90413e-05
0.000567231
-3.26505e-05
0.000561744
-3.60968e-05
0.000555698
-3.93658e-05
0.000549126
-4.24428e-05
0.000542064
-4.53134e-05
0.000534546
-4.79629e-05
0.000526612
-5.03769e-05
0.000518301
-5.25416e-05
0.000509657
-5.44442e-05
0.000500724
-5.60734e-05
0.000491551
-5.74198e-05
0.000482187
-5.84762e-05
0.000472683
-5.92379e-05
0.00046309
-5.97023e-05
0.000453456
-5.98694e-05
0.00044383
-5.97411e-05
0.000434251
-5.93213e-05
0.000424755
-5.8616e-05
0.00041537
-5.76333e-05
0.000406116
-5.63836e-05
0.000397005
-5.48805e-05
0.000388045
-5.31407e-05
0.000379241
-5.11851e-05
0.000370594
-4.90388e-05
0.000362107
-4.67306e-05
0.000353786
-4.42934e-05
0.000345638
-4.17623e-05
0.000337676
-3.9174e-05
0.000329912
-3.65649e-05
0.000322364
-3.39692e-05
0.000315051
-3.14164e-05
0.00030799
-2.89269e-05
0.000301203
-2.65101e-05
0.000294708
-2.41411e-05
0.000288546
-2.17691e-05
0.000282721
-1.92115e-05
0.000277422
-1.60938e-05
0.000272261
-1.20937e-05
-3.68614e-06
0.000218637
4.62027e-05
0.000228927
5.00713e-05
0.000239611
5.21677e-05
0.00025064
5.40264e-05
0.000261999
5.61657e-05
0.000273715
5.82472e-05
0.000285776
6.0121e-05
0.000298158
6.18486e-05
0.000310838
6.34461e-05
0.00032379
6.486e-05
0.000336978
6.60469e-05
0.000350365
6.69913e-05
0.000363907
6.76697e-05
0.000377547
6.80349e-05
0.000391218
6.80405e-05
0.000404847
6.76593e-05
0.000417782
6.40531e-05
0.000429855
5.96127e-05
0.000441077
5.52503e-05
0.000451468
5.0981e-05
0.000461047
4.68188e-05
0.000469837
4.27687e-05
0.000477862
3.88281e-05
0.000485146
3.49901e-05
0.000491711
3.12431e-05
0.000497576
2.75708e-05
0.000502757
2.3953e-05
0.000507266
2.03686e-05
0.000511109
1.67982e-05
0.000514291
1.32267e-05
0.000516812
9.64473e-06
0.000518675
6.04945e-06
0.000519881
2.43936e-06
0.000520428
-1.17389e-06
0.00052032
-4.77364e-06
0.000519559
-8.35193e-06
0.000518154
-1.18858e-05
0.000516118
-1.5355e-05
0.000513466
-1.87436e-05
0.000510218
-2.2036e-05
0.000506394
-2.52173e-05
0.000502018
-2.82739e-05
0.000497114
-3.11927e-05
0.00049171
-3.39616e-05
0.000485835
-3.65683e-05
0.000479522
-3.90008e-05
0.000472807
-4.12474e-05
0.000465727
-4.32965e-05
0.000458322
-4.51373e-05
0.000450637
-4.67594e-05
0.000442717
-4.81533e-05
0.000434607
-4.93098e-05
0.000426352
-5.02206e-05
0.000417991
-5.08777e-05
0.000409563
-5.12738e-05
0.000401096
-5.14024e-05
0.000392613
-5.12584e-05
0.000384131
-5.08386e-05
0.000375658
-5.01431e-05
0.0003672
-4.91759e-05
0.000358763
-4.7946e-05
0.00035035
-4.64682e-05
0.000341973
-4.47631e-05
0.000333645
-4.28571e-05
0.000325387
-4.07816e-05
0.000317229
-3.8572e-05
0.000309202
-3.62663e-05
0.000301343
-3.39031e-05
0.000293689
-3.15205e-05
0.000286278
-2.91538e-05
0.000279143
-2.68343e-05
0.000272314
-2.45875e-05
0.000265816
-2.24283e-05
0.000259669
-2.03635e-05
0.000253889
-1.83614e-05
0.000248513
-1.63924e-05
0.000243535
-1.42342e-05
0.000239144
-1.17023e-05
0.000235007