# y+ ()       
# Time        	patch         	min           	max           	average       
1000          	plate	2.432043e+02	3.323390e+02	2.664725e+02
