# y+ ()       
# Time        	patch         	min           	max           	average       
1000          	plate	5.966132e+01	9.426928e+01	6.530081e+01
