/*--------------------------------*- C++ -*----------------------------------*\
| =========                 |                                                 |
| \\      /  F ield         | OpenFOAM: The Open Source CFD Toolbox           |
|  \\    /   O peration     | Version:  v1912                                 |
|   \\  /    A nd           | Website:  www.openfoam.com                      |
|    \\/     M anipulation  |                                                 |
\*---------------------------------------------------------------------------*/
FoamFile
{
    version     2.0;
    format      ascii;
    class       volScalarField;
    location    "625";
    object      p;
}
// * * * * * * * * * * * * * * * * * * * * * * * * * * * * * * * * * * * * * //

dimensions      [0 2 -2 0 0 0 0];


internalField   nonuniform List<scalar> 
2000
(
-0.0459843
0.071427
0.126007
0.119119
0.103291
0.0969854
0.0963803
0.097729
0.0979463
0.0977251
0.0978652
0.0975421
0.0972847
0.097229
0.0972868
0.0973089
0.0972662
0.0972448
0.0972393
0.0972429
0.0972466
0.0972401
0.0972188
0.0971841
0.0971427
0.0971008
0.0970637
0.097033
0.0970063
0.0969811
0.0969555
0.0969287
0.0969009
0.0968719
0.0968421
0.0968118
0.0967816
0.0967515
0.0967217
0.0966925
0.0966643
0.0966377
0.0966138
0.0965932
0.0965772
0.096566
0.0965605
0.0965617
0.0965712
0.0965886
0.0966032
0.0965721
0.0963758
0.095771
0.0943953
0.0918584
0.0878727
0.0823908
0.0758845
0.0697835
0.066194
0.0662187
0.0708423
0.0796561
0.0916919
0.105941
0.121556
0.137745
0.153596
0.16803
0.180005
0.18865
0.193131
0.192634
0.186366
0.17366
0.153389
0.12535
0.0838384
0.0415372
0.00726281
0.0924392
0.131257
0.118062
0.10032
0.0961226
0.0996642
0.102104
0.09935
0.096106
0.0956686
0.0969688
0.0974168
0.0972848
0.0975097
0.0974119
0.0972882
0.0971858
0.0971509
0.0971396
0.0971574
0.0971977
0.0972048
0.0971813
0.097146
0.0971084
0.0970729
0.0970414
0.0970146
0.0969895
0.0969617
0.0969328
0.0969037
0.0968748
0.0968456
0.096816
0.0967865
0.0967581
0.0967302
0.0967025
0.0966752
0.0966492
0.0966254
0.0966042
0.096586
0.0965714
0.0965614
0.09656
0.0965808
0.0966466
0.0967602
0.0968332
0.096584
0.0954533
0.0926691
0.0875703
0.0800065
0.0705856
0.0609488
0.0541952
0.0538852
0.0591874
0.0676395
0.078518
0.0913493
0.105772
0.12122
0.136929
0.151991
0.165402
0.176154
0.183271
0.185853
0.183168
0.174549
0.159457
0.136982
0.107292
0.066396
0.0294348
0.0583307
0.0921286
0.11482
0.113263
0.104065
0.0998897
0.099928
0.0992907
0.0973847
0.0966998
0.0982899
0.0998887
0.0989088
0.0964498
0.0955557
0.0964295
0.0973139
0.0974898
0.0973305
0.0972256
0.0971672
0.0971307
0.097112
0.0971239
0.0971315
0.0971202
0.0970895
0.0970446
0.0970086
0.0969739
0.0969477
0.096924
0.096901
0.0968796
0.0968593
0.0968377
0.0968131
0.0967861
0.0967579
0.0967298
0.0967035
0.0966799
0.0966583
0.0966365
0.096617
0.0966176
0.096672
0.0968132
0.0970701
0.0974521
0.0978988
0.0981872
0.0979011
0.0964216
0.0930774
0.0874573
0.0797961
0.0713069
0.0640402
0.0595696
0.0585746
0.0620479
0.0693418
0.0793252
0.0912205
0.10456
0.118774
0.133046
0.146426
0.157927
0.166602
0.171596
0.172195
0.167841
0.158057
0.142502
0.120585
0.0928392
0.0565508
0.0249958
0.0833179
0.0933316
0.105882
0.109961
0.107268
0.104249
0.102588
0.100856
0.0992341
0.0984168
0.0982299
0.0981326
0.097788
0.0970937
0.0965697
0.0975137
0.0987674
0.0980294
0.0968712
0.0964694
0.0964189
0.0965919
0.09688
0.0971039
0.0972332
0.0973109
0.0973536
0.0973289
0.0972431
0.0971435
0.0970481
0.0969678
0.09691
0.096881
0.0968669
0.0968537
0.0968327
0.0968089
0.096785
0.0967618
0.0967413
0.0967248
0.0967091
0.0966888
0.0966676
0.0966782
0.0967837
0.0970151
0.0974117
0.0979693
0.0986455
0.0990848
0.0989017
0.0975592
0.0945542
0.0896653
0.0831781
0.0759059
0.0690263
0.0644171
0.0631803
0.0660009
0.0724697
0.0815625
0.0924403
0.104495
0.117065
0.129334
0.140426
0.149496
0.155786
0.158644
0.157533
0.152035
0.141792
0.12658
0.106008
0.0806856
0.0487263
0.0208054
0.0956585
0.099259
0.106779
0.110749
0.10962
0.107292
0.105911
0.104872
0.103569
0.102118
0.100768
0.0996795
0.0989529
0.0981157
0.0971534
0.0971827
0.0977369
0.0979513
0.0978028
0.0973515
0.0970115
0.0968976
0.0969552
0.0971345
0.0973257
0.0974383
0.0973945
0.0972107
0.0970793
0.0969786
0.0969016
0.0968473
0.0968153
0.0968226
0.0968537
0.0968806
0.0968914
0.0968799
0.0968523
0.0968181
0.096783
0.0967485
0.0967106
0.096657
0.0965793
0.0964916
0.0964694
0.0966581
0.09705
0.0976126
0.0982428
0.0986692
0.0984872
0.0972131
0.0944381
0.090033
0.0843145
0.0781056
0.0726566
0.0693837
0.0691199
0.072083
0.0779164
0.0858991
0.0953027
0.105493
0.115834
0.125635
0.134194
0.140852
0.145024
0.146206
0.14397
0.137965
0.127881
0.11353
0.0945936
0.0716584
0.0432326
0.018186
0.1041
0.105934
0.109887
0.112058
0.111243
0.109635
0.108676
0.108001
0.107041
0.10585
0.104722
0.103732
0.102719
0.101398
0.100024
0.0993156
0.0991855
0.0990558
0.0984907
0.0976067
0.0969905
0.0967866
0.0968748
0.0970812
0.0972504
0.0973426
0.0973805
0.0973715
0.0972894
0.0971787
0.0970695
0.096977
0.0969088
0.0968798
0.0968434
0.0968056
0.0967804
0.0967644
0.0967398
0.0967136
0.0966943
0.0966835
0.0966781
0.0966739
0.0966747
0.0967085
0.0968388
0.0971378
0.0975957
0.0981516
0.09868
0.0989426
0.0986082
0.0973416
0.0949213
0.0913703
0.0870471
0.082643
0.0790485
0.0771292
0.077438
0.080118
0.0849501
0.0914449
0.0990175
0.107105
0.115168
0.122655
0.129016
0.13373
0.136323
0.136366
0.13348
0.12733
0.117611
0.104126
0.0865721
0.0654796
0.0395004
0.0165475
0.11091
0.111734
0.112971
0.113309
0.112522
0.111537
0.110878
0.110339
0.109672
0.108916
0.108191
0.107472
0.106612
0.105505
0.104338
0.103484
0.10297
0.102372
0.101403
0.100304
0.0994889
0.0990489
0.0988582
0.0987664
0.0986791
0.0985752
0.0984535
0.098288
0.0980689
0.0978527
0.0976726
0.0975304
0.0974183
0.0973635
0.0975214
0.0976029
0.097613
0.0976309
0.0976681
0.0977197
0.0977876
0.0978746
0.0979808
0.0981064
0.0982578
0.0984556
0.098734
0.0991242
0.0996134
0.100135
0.100567
0.100725
0.10038
0.0993254
0.0974566
0.0948435
0.0917766
0.0887485
0.0863639
0.0852031
0.0856659
0.0878716
0.0916702
0.096713
0.10256
0.108767
0.114899
0.120517
0.125178
0.128446
0.129909
0.129178
0.125892
0.11972
0.110347
0.0975622
0.0810491
0.0612847
0.0369595
0.0155084
0.116787
0.116733
0.115817
0.114609
0.113786
0.113268
0.112792
0.112321
0.111879
0.111442
0.11099
0.110493
0.109894
0.109153
0.108347
0.107655
0.107114
0.106486
0.105619
0.104666
0.103866
0.103298
0.102898
0.102584
0.102306
0.102042
0.10178
0.101506
0.101227
0.100979
0.100781
0.100636
0.100551
0.100551
0.100651
0.100717
0.100749
0.100798
0.100881
0.10099
0.101121
0.101276
0.101454
0.101656
0.101886
0.102153
0.102474
0.102855
0.103278
0.103679
0.103959
0.103984
0.103605
0.102701
0.101224
0.0992504
0.0970025
0.0948313
0.093158
0.0923831
0.0927876
0.0944656
0.097324
0.101127
0.10556
0.110277
0.114924
0.119135
0.122534
0.124739
0.125378
0.12409
0.120528
0.114363
0.105274
0.0930303
0.0772927
0.0584794
0.0352915
0.0148321
0.122191
0.121202
0.118238
0.115695
0.114939
0.11485
0.114516
0.114108
0.113843
0.113626
0.113356
0.113031
0.112642
0.112164
0.111627
0.111136
0.110723
0.11025
0.109616
0.108897
0.108246
0.10774
0.107355
0.10704
0.106756
0.106483
0.106212
0.105942
0.10568
0.105443
0.105248
0.105104
0.105018
0.104994
0.105001
0.105049
0.105106
0.105174
0.105265
0.105378
0.105512
0.105663
0.105833
0.10602
0.106226
0.106455
0.106711
0.106991
0.107271
0.107503
0.10761
0.107499
0.107072
0.106254
0.105026
0.103457
0.101713
0.100048
0.0987623
0.0981438
0.0984017
0.0996198
0.101747
0.104621
0.108002
0.111612
0.115152
0.118308
0.120751
0.122145
0.122153
0.12044
0.116673
0.11053
0.101682
0.0898745
0.0747358
0.0566204
0.0342271
0.014376
0.127421
0.125234
0.12004
0.116396
0.115932
0.116259
0.116031
0.115707
0.115622
0.11559
0.115468
0.115277
0.115035
0.114724
0.114363
0.114024
0.113733
0.1134
0.112947
0.112422
0.111936
0.111554
0.111265
0.111027
0.110808
0.110593
0.110378
0.110163
0.109954
0.109763
0.109604
0.109486
0.109415
0.109391
0.109351
0.109384
0.109438
0.109494
0.10956
0.109644
0.109742
0.109852
0.109974
0.110106
0.110248
0.110402
0.110565
0.11073
0.110877
0.110965
0.110938
0.110727
0.110265
0.109504
0.108439
0.107126
0.105694
0.104334
0.103271
0.102722
0.10285
0.103726
0.105318
0.107505
0.110097
0.112862
0.115545
0.117874
0.119563
0.120314
0.119821
0.117776
0.113862
0.107762
0.0991359
0.0877035
0.0730491
0.0554616
0.0336094
0.0141069
0.13266
0.12881
0.121118
0.116727
0.116819
0.11751
0.117339
0.117125
0.117228
0.117365
0.117376
0.117304
0.117183
0.116998
0.116763
0.116533
0.116328
0.116087
0.115754
0.115365
0.115002
0.114719
0.114507
0.114334
0.114175
0.114018
0.11386
0.1137
0.113544
0.113401
0.11328
0.113189
0.11313
0.113091
0.113061
0.113079
0.113116
0.113154
0.113198
0.113254
0.11332
0.113393
0.113473
0.113557
0.113645
0.113735
0.113824
0.113903
0.113953
0.113943
0.113827
0.113555
0.113079
0.112367
0.111419
0.110286
0.109069
0.107916
0.107002
0.106494
0.106519
0.107136
0.108322
0.10998
0.111953
0.114048
0.116045
0.117707
0.118785
0.119014
0.118121
0.11582
0.11181
0.105775
0.0973653
0.0862704
0.072022
0.0548451
0.0333265
0.0140246
0.138027
0.131858
0.121443
0.116784
0.117651
0.118614
0.118464
0.118388
0.118674
0.118956
0.119085
0.119127
0.119116
0.119043
0.118915
0.118776
0.118642
0.118471
0.118226
0.117932
0.117656
0.11744
0.117279
0.117151
0.117034
0.116918
0.1168
0.116681
0.116565
0.116456
0.116364
0.116293
0.116246
0.116212
0.116194
0.116203
0.116229
0.116258
0.11629
0.116328
0.116372
0.11642
0.116469
0.116518
0.116565
0.116608
0.116643
0.116659
0.116641
0.116562
0.116387
0.116078
0.115599
0.114929
0.114074
0.113074
0.112013
0.111008
0.110197
0.109712
0.109652
0.110062
0.110925
0.112158
0.113632
0.11518
0.116613
0.117727
0.118302
0.118108
0.116896
0.114404
0.110342
0.104395
0.0961976
0.0854129
0.0715128
0.0546652
0.0333043
0.0141433
0.143599
0.134271
0.121051
0.116689
0.118451
0.119568
0.119435
0.119522
0.119978
0.120379
0.120613
0.120757
0.120847
0.120872
0.120839
0.120783
0.120718
0.120612
0.120441
0.120226
0.120019
0.119855
0.119736
0.119642
0.119557
0.119472
0.119385
0.119296
0.119208
0.119125
0.119054
0.118998
0.118958
0.11894
0.118929
0.118933
0.118952
0.118974
0.118996
0.119021
0.119048
0.119076
0.119101
0.119122
0.119138
0.119144
0.119135
0.119104
0.119034
0.118905
0.118688
0.118354
0.117877
0.117242
0.116457
0.115558
0.114614
0.113718
0.112981
0.112505
0.112369
0.112607
0.113202
0.114085
0.115144
0.116238
0.117204
0.117866
0.118033
0.1175
0.116045
0.113419
0.109343
0.103498
0.0955073
0.0850063
0.0714072
0.0548332
0.033486
0.0144675
0.149418
0.135933
0.120038
0.116556
0.119217
0.120376
0.120281
0.12055
0.121153
0.121653
0.121979
0.122215
0.122393
0.122504
0.122555
0.122574
0.122573
0.122529
0.122424
0.122276
0.12213
0.122014
0.121932
0.12187
0.121813
0.121756
0.121695
0.121631
0.121567
0.121506
0.121452
0.12141
0.121382
0.121369
0.121361
0.121364
0.121377
0.121393
0.121407
0.121421
0.121434
0.121445
0.121451
0.121449
0.121437
0.121412
0.121369
0.121297
0.121186
0.121017
0.120767
0.120414
0.119938
0.119329
0.118598
0.117775
0.116916
0.116098
0.115408
0.114928
0.114719
0.114806
0.115172
0.115759
0.116471
0.117189
0.117773
0.11807
0.117915
0.117124
0.115492
0.112783
0.108721
0.102986
0.0951871
0.08494
0.0716001
0.0552642
0.0338226
0.0149784
0.155492
0.136736
0.118552
0.116478
0.119931
0.12105
0.121032
0.121485
0.122211
0.122794
0.123203
0.123521
0.123777
0.123962
0.124086
0.124171
0.124228
0.12424
0.124194
0.124106
0.124012
0.12394
0.123893
0.12386
0.12383
0.123797
0.12376
0.123718
0.123676
0.123635
0.123596
0.123566
0.123547
0.123538
0.123534
0.123536
0.123545
0.123555
0.123563
0.123567
0.123569
0.123565
0.123553
0.123531
0.123495
0.123443
0.123368
0.123263
0.123115
0.12291
0.122631
0.122258
0.121778
0.121186
0.120491
0.119719
0.118917
0.118148
0.11748
0.11698
0.116695
0.116645
0.116813
0.117151
0.117579
0.117994
0.118276
0.118294
0.117898
0.116921
0.115171
0.112418
0.10839
0.102763
0.0951358
0.0851099
0.0719908
0.0558729
0.0342699
0.0156319
0.1618
0.136603
0.116767
0.116502
0.120569
0.12161
0.121711
0.122338
0.123162
0.123818
0.124301
0.124693
0.125016
0.125267
0.125454
0.125599
0.125708
0.12577
0.125775
0.125738
0.125691
0.125658
0.125642
0.125635
0.12563
0.12562
0.125604
0.125583
0.12556
0.125535
0.12551
0.125491
0.125479
0.125474
0.125473
0.125475
0.125481
0.125486
0.125486
0.125481
0.125471
0.125452
0.125423
0.12538
0.12532
0.12524
0.125134
0.124994
0.12481
0.12457
0.124258
0.123861
0.123369
0.122779
0.1221
0.121355
0.120583
0.119835
0.119168
0.118634
0.118272
0.118099
0.118102
0.11824
0.118444
0.118629
0.118688
0.118504
0.11794
0.11684
0.115018
0.112251
0.108267
0.102741
0.0952611
0.085424
0.0724906
0.0565795
0.03479
0.0163736
0.168289
0.135525
0.114863
0.11664
0.121111
0.122079
0.122333
0.123114
0.124018
0.124736
0.125288
0.125744
0.126127
0.126436
0.126679
0.126875
0.127031
0.127137
0.127188
0.127196
0.127189
0.127189
0.127201
0.127218
0.127234
0.127244
0.127245
0.127241
0.127235
0.127223
0.127209
0.127198
0.127192
0.127189
0.127187
0.127186
0.127186
0.127182
0.127172
0.127154
0.127127
0.127089
0.127038
0.12697
0.126882
0.12677
0.126629
0.126451
0.126227
0.125948
0.1256
0.125174
0.124661
0.124061
0.123382
0.122644
0.12188
0.121133
0.120451
0.119877
0.119446
0.119172
0.119046
0.119032
0.119075
0.119095
0.119
0.118681
0.118009
0.116834
0.114977
0.112216
0.108279
0.102842
0.095487
0.0858089
0.0730309
0.0573182
0.0353491
0.0171529
0.174877
0.133522
0.113002
0.116872
0.121551
0.122482
0.122906
0.123815
0.124783
0.125558
0.126169
0.126681
0.127115
0.127473
0.127764
0.128005
0.128202
0.128346
0.128434
0.128479
0.128506
0.128533
0.128567
0.128603
0.128635
0.128659
0.128674
0.128681
0.128687
0.128681
0.128671
0.128663
0.128656
0.128648
0.12864
0.128629
0.128616
0.128597
0.128569
0.128531
0.128482
0.128419
0.12834
0.128242
0.128122
0.127975
0.127797
0.12758
0.127318
0.127
0.126617
0.126161
0.125624
0.125008
0.124321
0.123579
0.122812
0.122057
0.121355
0.120745
0.120258
0.119909
0.119689
0.119571
0.119503
0.119416
0.119223
0.11882
0.118084
0.116871
0.115001
0.112258
0.108368
0.103008
0.0957576
0.0862133
0.0735651
0.0580405
0.0359185
0.0179299
0.181471
0.130692
0.111293
0.117157
0.12189
0.122833
0.123428
0.124437
0.125451
0.126273
0.126932
0.127487
0.127961
0.128357
0.128685
0.12896
0.129187
0.12936
0.129476
0.129549
0.1296
0.129646
0.129694
0.129741
0.129782
0.129814
0.129834
0.129848
0.129851
0.129843
0.129832
0.129818
0.129803
0.129784
0.129763
0.129737
0.129705
0.129666
0.129617
0.129557
0.129483
0.129394
0.129287
0.12916
0.12901
0.128831
0.128621
0.128372
0.128077
0.127728
0.127317
0.126836
0.12628
0.12565
0.124953
0.124204
0.123431
0.122666
0.121946
0.121309
0.120783
0.120381
0.1201
0.119915
0.119778
0.119625
0.119373
0.118923
0.118156
0.116926
0.115059
0.112339
0.108494
0.1032
0.0960367
0.0866045
0.0740651
0.0587153
0.0364767
0.0186773
0.18798
0.127167
0.109808
0.117445
0.122136
0.123129
0.123873
0.124948
0.125992
0.126843
0.127534
0.128117
0.128616
0.129037
0.129388
0.129685
0.129932
0.130122
0.130256
0.130345
0.130409
0.130465
0.130519
0.13057
0.130614
0.130647
0.130667
0.130677
0.130672
0.13066
0.130643
0.130621
0.130594
0.130563
0.130527
0.130485
0.130437
0.13038
0.130312
0.130232
0.130138
0.130028
0.1299
0.129751
0.129578
0.129377
0.129144
0.128872
0.128555
0.128186
0.127756
0.127259
0.12669
0.12605
0.125345
0.124592
0.123813
0.12304
0.122308
0.121652
0.1211
0.120666
0.120347
0.120121
0.119944
0.119754
0.119471
0.118998
0.118217
0.116986
0.11513
0.112435
0.10863
0.103394
0.096303
0.0869651
0.0745173
0.0593265
0.0370096
0.0193802
0.194326
0.123103
0.108586
0.117699
0.122297
0.123352
0.124201
0.12531
0.126366
0.127233
0.12794
0.128538
0.12905
0.129483
0.129847
0.130155
0.130412
0.130611
0.130753
0.130851
0.130922
0.130981
0.131037
0.131088
0.131131
0.131162
0.131181
0.131183
0.131174
0.131158
0.131134
0.131103
0.131068
0.131027
0.130981
0.130928
0.130868
0.130799
0.130719
0.130626
0.130518
0.130395
0.130253
0.13009
0.129904
0.129689
0.129442
0.129158
0.128829
0.128447
0.128007
0.127501
0.126925
0.12628
0.125572
0.124816
0.124034
0.123256
0.122516
0.121848
0.12128
0.120826
0.120485
0.120236
0.120037
0.119828
0.119531
0.119049
0.118267
0.117042
0.115202
0.112531
0.108763
0.103576
0.0965462
0.0872877
0.0749181
0.0598683
0.0375088
0.020034
0.200509
0.11877
0.107654
0.117891
0.122381
0.123484
0.124394
0.125515
0.126575
0.127449
0.128164
0.128768
0.129287
0.129726
0.130095
0.130409
0.13067
0.130873
0.13102
0.131121
0.131195
0.131256
0.131312
0.131362
0.131404
0.131433
0.131448
0.13145
0.131438
0.131418
0.131389
0.131354
0.131313
0.131267
0.131215
0.131156
0.131089
0.131014
0.130926
0.130827
0.130712
0.130582
0.130433
0.130263
0.13007
0.129849
0.129595
0.129304
0.128969
0.128583
0.128138
0.127628
0.12705
0.126403
0.125694
0.124936
0.124152
0.123371
0.122626
0.121952
0.121374
0.120909
0.120557
0.120296
0.120086
0.119869
0.119567
0.119085
0.118307
0.117092
0.115268
0.112622
0.108886
0.103741
0.0967633
0.0875723
0.0752705
0.0603428
0.0379712
0.0206427
0.206672
0.114682
0.107019
0.118008
0.122398
0.123533
0.124472
0.125601
0.126663
0.12754
0.128258
0.128866
0.129387
0.12983
0.130202
0.130518
0.130782
0.130986
0.131135
0.131238
0.131312
0.131374
0.13143
0.13148
0.131521
0.131549
0.131564
0.131566
0.131552
0.13153
0.1315
0.131463
0.131419
0.131371
0.131316
0.131254
0.131185
0.131106
0.131016
0.130913
0.130796
0.130662
0.130511
0.130338
0.130142
0.129919
0.129663
0.12937
0.129033
0.128645
0.128199
0.127688
0.127109
0.126462
0.125753
0.124995
0.124211
0.123428
0.122681
0.122002
0.121419
0.120948
0.120589
0.120323
0.120109
0.119889
0.119588
0.119109
0.118338
0.117136
0.115328
0.112705
0.108998
0.103891
0.0969591
0.0878269
0.0755854
0.0607632
0.0384029
0.0212256
0.212769
0.111475
0.106623
0.118057
0.122378
0.123526
0.12448
0.125615
0.126681
0.127561
0.128281
0.128891
0.129414
0.129857
0.130231
0.130548
0.130813
0.131019
0.131168
0.131271
0.131347
0.131409
0.131465
0.131515
0.131555
0.131583
0.131598
0.1316
0.131586
0.131564
0.131533
0.131496
0.131452
0.131403
0.131347
0.131285
0.131214
0.131135
0.131044
0.13094
0.130822
0.130688
0.130536
0.130363
0.130166
0.129942
0.129686
0.129393
0.129056
0.128668
0.128223
0.127713
0.127135
0.126489
0.12578
0.125023
0.124238
0.123455
0.122706
0.122024
0.121438
0.120964
0.120602
0.120332
0.120118
0.119899
0.119601
0.119128
0.118366
0.117175
0.115385
0.112783
0.109104
0.104032
0.0971426
0.0880642
0.0758794
0.0611518
0.0388156
0.0218158
0.217496
0.109533
0.106398
0.118084
0.122356
0.123502
0.124464
0.125605
0.126674
0.127555
0.128277
0.128887
0.129411
0.129855
0.130229
0.130547
0.130812
0.131018
0.131168
0.131271
0.131347
0.131409
0.131466
0.131516
0.131557
0.131586
0.131601
0.131602
0.131589
0.131566
0.131535
0.131498
0.131454
0.131405
0.131349
0.131287
0.131217
0.131138
0.131047
0.130943
0.130826
0.130692
0.13054
0.130367
0.130171
0.129947
0.129691
0.129399
0.129062
0.128676
0.128231
0.127722
0.127145
0.1265
0.125793
0.125036
0.124252
0.123468
0.122717
0.122034
0.121446
0.12097
0.120606
0.120336
0.120121
0.119904
0.119609
0.119141
0.118388
0.11721
0.115434
0.112852
0.109198
0.104157
0.097305
0.0882738
0.0761378
0.0614947
0.0391746
0.0223778
)
;

boundaryField
{
    inlet
    {
        type            zeroGradient;
    }
    outlet
    {
        type            fixedValue;
        value           uniform 0;
    }
    fixedWalls
    {
        type            zeroGradient;
    }
    frontAndBack
    {
        type            empty;
    }
}


// ************************************************************************* //
