/*--------------------------------*- C++ -*----------------------------------*\
| =========                 |                                                 |
| \\      /  F ield         | OpenFOAM: The Open Source CFD Toolbox           |
|  \\    /   O peration     | Version:  v1912                                 |
|   \\  /    A nd           | Website:  www.openfoam.com                      |
|    \\/     M anipulation  |                                                 |
\*---------------------------------------------------------------------------*/
FoamFile
{
    version     2.0;
    format      ascii;
    class       volVectorField;
    location    "625";
    object      U;
}
// * * * * * * * * * * * * * * * * * * * * * * * * * * * * * * * * * * * * * //

dimensions      [0 1 -1 0 0 0 0];


internalField   nonuniform List<vector> 
2000
(
(0.84616 0.187394 0)
(0.515133 0.124089 0)
(0.223448 0.0684415 0)
(0.0598069 0.0174443 6.19506e-20)
(-0.00455619 -0.0232232 1.20695e-17)
(-0.0642032 -0.0384875 1.04246e-17)
(-0.0776006 -0.0372474 0)
(-0.0715946 -0.0166586 0)
(-0.0590604 0.0117136 0)
(-0.0421588 0.0254691 2.3672e-17)
(-0.0415856 0.0109803 -1.45028e-17)
(-0.0273679 -0.000617512 -1.36209e-17)
(-0.0163193 -0.00266277 0)
(-0.0200782 -0.00263953 0)
(-0.0219185 -0.00227073 -1.08207e-17)
(-0.0168944 0.000856522 0)
(-0.010607 0.00350253 9.7405e-18)
(-0.00965941 0.00623862 3.09158e-21)
(-0.0106672 0.00612914 9.41603e-18)
(-0.0114334 0.0048907 -4.64743e-18)
(-0.011295 0.00278544 9.18817e-18)
(-0.0101026 0.000808099 0)
(-0.00795251 -0.000196581 0)
(-0.00543313 -0.000628582 -7.10157e-23)
(-0.00313676 -0.000795292 0)
(-0.00130639 -0.000815573 -4.51745e-18)
(-7.88293e-05 -0.000754523 0)
(0.00062287 -0.000676029 4.52697e-18)
(0.0010259 -0.000663636 0)
(0.00132011 -0.000670809 0)
(0.00159982 -0.000595224 0)
(0.00188011 -0.000482316 1.14965e-18)
(0.002145 -0.000391095 0)
(0.00238389 -0.000350955 -5.83502e-19)
(0.00258304 -0.00034872 1.9474e-14)
(0.00271869 -0.000362923 1.94604e-14)
(0.00278307 -0.00039672 6.01766e-19)
(0.0027203 -0.000489072 -6.09264e-19)
(0.00253236 -0.000630231 0)
(0.00221848 -0.0007876 2.50622e-18)
(0.00175842 -0.000937478 0)
(0.00111763 -0.00106714 -2.58874e-18)
(0.000253803 -0.00116386 0)
(-0.000889758 -0.0012113 -5.35838e-18)
(-0.00236342 -0.0012298 2.72244e-18)
(-0.00420561 -0.00130833 0)
(-0.00650192 -0.00149423 0)
(-0.00940962 -0.00169828 -2.85674e-18)
(-0.0132497 -0.00161145 0)
(-0.0186357 -0.000642367 2.93415e-18)
(-0.0265464 0.00190723 0)
(-0.0382668 0.00633181 5.91475e-18)
(-0.0551858 0.0120832 -5.86386e-18)
(-0.0784446 0.0177628 5.74224e-18)
(-0.108389 0.0214811 -2.7423e-18)
(-0.144115 0.0213889 0)
(-0.183527 0.0162781 2.33079e-18)
(-0.2237 0.00599689 -2.07412e-18)
(-0.260891 -0.00841966 -4.08029e-18)
(-0.290264 -0.0247518 3.30359e-18)
(-0.306949 -0.0397661 -3.25857e-18)
(-0.309413 -0.0502568 3.48483e-18)
(-0.303009 -0.0562818 -3.97576e-18)
(-0.287994 -0.0591893 4.78134e-18)
(-0.265479 -0.0600152 -1.15387e-20)
(-0.236309 -0.0594944 7.1713e-18)
(-0.200905 -0.0578309 0)
(-0.159441 -0.0550143 0)
(-0.112179 -0.0510341 7.58721e-20)
(-0.059862 -0.0459303 0)
(-0.00375593 -0.0396385 1.99011e-17)
(0.0559436 -0.0318211 0)
(0.119508 -0.0223315 1.98847e-17)
(0.186453 -0.0113273 -4.88063e-19)
(0.256033 0.000948881 1.7166e-17)
(0.329559 0.0141946 2.98638e-17)
(0.40354 0.0280348 7.34403e-19)
(0.491163 0.0420143 -1.01479e-17)
(0.557071 0.0544808 -6.53019e-18)
(0.713617 0.0651999 0)
(1.0153 0.210384 0)
(0.944633 0.194211 0)
(0.804475 0.179983 -3.52915e-18)
(0.654422 0.152313 7.28872e-18)
(0.509224 0.111169 0)
(0.360042 0.0683704 -7.28973e-18)
(0.216493 0.0293251 0)
(0.0821323 -0.00530925 0)
(-0.0282883 -0.0180399 0)
(-0.0562027 -0.0189156 -1.73115e-17)
(-0.066731 -0.0249901 1.57489e-17)
(-0.0718817 -0.015979 1.44458e-17)
(-0.0637575 0.00640413 0)
(-0.0508729 0.0207287 6.3239e-18)
(-0.0544939 0.0100041 0)
(-0.0482839 -0.00292569 0)
(-0.037613 -0.00401588 0)
(-0.0329138 -0.00108999 5.2709e-18)
(-0.0366901 0.000903074 -1.03381e-17)
(-0.0388794 0.000903951 -5.09224e-18)
(-0.039576 7.31686e-05 0)
(-0.0384856 -0.00112543 0)
(-0.0357705 -0.00235174 0)
(-0.0325282 -0.00294373 -7.41444e-18)
(-0.0293691 -0.00274617 0)
(-0.0265586 -0.00194893 4.9517e-18)
(-0.0243406 -0.000887285 2.4833e-18)
(-0.0228832 -6.40047e-06 0)
(-0.0222516 0.000367009 0)
(-0.0223102 0.00040013 0)
(-0.0228806 0.000223984 0)
(-0.0237351 3.38031e-05 -6.32814e-19)
(-0.024701 -0.000122682 0)
(-0.0257194 -0.000213829 3.20307e-19)
(-0.0268102 -0.000202111 1.61371e-19)
(-0.0280423 -7.01162e-05 0)
(-0.0294581 0.000164803 0)
(-0.0310846 0.000470819 6.62884e-19)
(-0.0329837 0.000828568 0)
(-0.0351732 0.00123532 -1.35274e-18)
(-0.0376686 0.00169768 0)
(-0.0404761 0.00222791 -1.38252e-18)
(-0.0436029 0.0028346 0)
(-0.0470544 0.00351039 1.41356e-18)
(-0.0508215 0.00424086 1.43087e-18)
(-0.0548761 0.00506269 0)
(-0.0591901 0.00616066 0)
(-0.0637598 0.00791055 -2.97168e-18)
(-0.0685775 0.0108293 0)
(-0.0736101 0.0155168 1.42993e-20)
(-0.078879 0.0225045 0)
(-0.0845851 0.0319209 0)
(-0.09109 0.0430571 0)
(-0.098712 0.0542593 0)
(-0.107184 0.0631945 6.03132e-18)
(-0.114977 0.0674119 0)
(-0.119662 0.0649334 -5.48519e-18)
(-0.119304 0.0548705 2.65358e-18)
(-0.112454 0.0381995 -2.31037e-18)
(-0.0952201 0.0177267 -4.87977e-18)
(-0.0634282 -0.00478303 5.02566e-18)
(-0.045372 -0.0307281 -5.54324e-18)
(-0.02013 -0.0513505 6.48906e-18)
(0.00775412 -0.0660182 0)
(0.0386769 -0.0763294 -1.29371e-17)
(0.0731214 -0.0837469 -9.65575e-18)
(0.11186 -0.0889895 0)
(0.155081 -0.0920545 5.73735e-18)
(0.202418 -0.0926442 1.25577e-17)
(0.253286 -0.090546 0)
(0.307025 -0.085666 0)
(0.363055 -0.0779833 0)
(0.4209 -0.0676374 0)
(0.480298 -0.0549654 -1.36174e-17)
(0.541 -0.0405052 5.93591e-18)
(0.603861 -0.0249218 -1.17685e-17)
(0.667304 -0.00915315 1.01603e-17)
(0.73911 0.00576505 -3.46766e-18)
(0.796044 0.0173925 0)
(0.911741 0.0228973 0)
(0.978489 0.201538 0)
(0.978854 0.193006 -2.78594e-18)
(0.969154 0.205111 3.48162e-18)
(0.939083 0.208531 -3.06063e-18)
(0.878034 0.194606 2.88523e-18)
(0.785605 0.168719 2.84328e-18)
(0.669349 0.13808 0)
(0.541012 0.106021 0)
(0.40822 0.0750633 0)
(0.285943 0.0459345 6.86693e-18)
(0.173881 0.0180212 0)
(0.072178 -0.0064056 0)
(-0.0214771 -0.0141569 0)
(-0.0469137 -0.00386024 -7.18484e-18)
(-0.05083 -0.0116813 0)
(-0.0586844 -0.0181529 -6.05157e-18)
(-0.0592785 -0.0112547 0)
(-0.0480862 0.0090652 5.87667e-18)
(-0.0464536 0.016488 2.87304e-18)
(-0.0508771 0.0125933 0)
(-0.0532354 0.00615655 -2.79003e-18)
(-0.0550236 -0.000284281 0)
(-0.0556428 -0.00469148 0)
(-0.0547466 -0.00652824 5.43643e-18)
(-0.0532016 -0.00660777 0)
(-0.0520291 -0.00572969 1.35825e-18)
(-0.0518345 -0.00422485 -4.07742e-18)
(-0.052633 -0.00223564 0)
(-0.0539952 -0.000223441 0)
(-0.0554737 0.00123977 -6.81595e-19)
(-0.057076 0.00218706 0)
(-0.0587844 0.00270764 1.35292e-22)
(-0.0605228 0.00294619 0)
(-0.0622468 0.00306679 6.90854e-19)
(-0.0639633 0.00323223 8.69044e-20)
(-0.0657465 0.00349862 0)
(-0.0676561 0.00385354 1.76376e-19)
(-0.069708 0.00425848 -3.55672e-19)
(-0.0718854 0.00470598 -3.58851e-19)
(-0.0741574 0.00519799 -7.24612e-19)
(-0.0764865 0.0057396 7.32118e-19)
(-0.0788341 0.00633851 7.39679e-19)
(-0.0811696 0.00699581 0)
(-0.0834553 0.00769017 1.51662e-18)
(-0.0855834 0.00838909 -3.07607e-18)
(-0.087294 0.00911102 0)
(-0.0881691 0.0100325 -1.5915e-18)
(-0.0877354 0.0115453 3.24591e-18)
(-0.0854652 0.0141285 0)
(-0.0807059 0.0183654 -1.69816e-18)
(-0.072753 0.0247499 1.78205e-18)
(-0.0610977 0.0335423 -1.84877e-18)
(-0.0453802 0.0438461 -1.91724e-18)
(-0.0255676 0.0541105 0)
(-0.00187383 0.0621106 -3.94424e-18)
(0.0257505 0.0653169 -1.88616e-18)
(0.0572072 0.0614441 1.6365e-18)
(0.0906781 0.0496455 1.53139e-18)
(0.124604 0.0289534 2.5679e-18)
(0.156395 0.0021611 0)
(0.1865 -0.0242179 0)
(0.21416 -0.0462112 0)
(0.242326 -0.0645001 -1.31289e-18)
(0.273947 -0.0802029 0)
(0.309966 -0.0938657 3.22077e-18)
(0.34983 -0.105452 0)
(0.3926 -0.114614 -1.98805e-18)
(0.437396 -0.120886 -4.46448e-18)
(0.483419 -0.123846 0)
(0.529997 -0.123255 -2.4754e-18)
(0.576645 -0.119111 2.57957e-18)
(0.623105 -0.111681 0)
(0.669323 -0.101481 0)
(0.715487 -0.089204 0)
(0.76184 -0.075688 -5.41035e-18)
(0.809257 -0.0618517 0)
(0.857034 -0.0488795 -1.88533e-18)
(0.910117 -0.0378764 3.36941e-18)
(0.953004 -0.0312204 0)
(1.03533 -0.0302877 3.93312e-19)
(0.970611 0.209117 0)
(0.963917 0.194765 1.5252e-18)
(0.96643 0.198514 0)
(0.977152 0.206407 1.69446e-18)
(0.982034 0.208884 -3.00412e-18)
(0.968293 0.204266 -1.34099e-18)
(0.930748 0.193726 0)
(0.870758 0.177878 0)
(0.791131 0.156581 0)
(0.695412 0.131331 1.35097e-18)
(0.589481 0.105409 1.38275e-18)
(0.480051 0.0806998 0)
(0.369265 0.0579962 0)
(0.266647 0.0376059 0)
(0.17965 0.018539 0)
(0.100391 0.00267219 6.40054e-18)
(0.0300589 -0.00993334 -3.38717e-18)
(-0.0310533 -0.0093807 0)
(-0.0328107 0.00101127 -3.2827e-18)
(-0.03469 0.00246054 1.61841e-18)
(-0.0346254 0.00136486 3.21097e-18)
(-0.0358782 -0.00129321 0)
(-0.0390819 -0.00397258 0)
(-0.0434611 -0.00523015 -3.12009e-18)
(-0.0471727 -0.00435125 0)
(-0.0494693 -0.0016557 -1.54387e-18)
(-0.051152 0.0017333 1.5434e-18)
(-0.0536629 0.00424579 0)
(-0.0558065 0.00541748 0)
(-0.0580623 0.00596242 7.66933e-19)
(-0.0600161 0.00603006 0)
(-0.0616511 0.00576049 -7.69984e-19)
(-0.0629179 0.00531934 0)
(-0.0638003 0.00487914 -1.94775e-19)
(-0.0644264 0.00467704 -9.81246e-20)
(-0.0648855 0.00479662 -2.47544e-20)
(-0.065196 0.00518728 -2.99937e-19)
(-0.0652581 0.00577651 4.04262e-19)
(-0.0649889 0.00645822 4.0927e-19)
(-0.064317 0.0071688 1.24503e-18)
(-0.0631573 0.00788687 -4.21194e-19)
(-0.0614213 0.00860075 4.2848e-19)
(-0.0590481 0.00928439 0)
(-0.0559886 0.00986433 8.92243e-19)
(-0.0521325 0.0101632 9.13585e-19)
(-0.047173 0.00987601 0)
(-0.0406439 0.00862609 1.93642e-18)
(-0.0326573 0.00636317 1.00039e-18)
(-0.022464 0.0038308 0)
(-0.00986069 0.00163773 -3.26512e-18)
(0.00662355 0.000352233 -2.23433e-18)
(0.0280324 0.00056852 1.10817e-18)
(0.0542764 0.00211308 2.17034e-18)
(0.0859548 0.00410505 0)
(0.123084 0.00501195 9.82093e-19)
(0.164814 0.00303153 2.68463e-18)
(0.209851 -0.00339786 1.58711e-18)
(0.256103 -0.0147869 -1.39078e-18)
(0.30304 -0.0299972 -6.42692e-19)
(0.348931 -0.0474152 0)
(0.393267 -0.0662509 0)
(0.436047 -0.0852054 0)
(0.478139 -0.103207 1.71451e-18)
(0.520343 -0.119622 6.46378e-19)
(0.562594 -0.13397 0)
(0.604232 -0.145706 -1.56619e-18)
(0.644547 -0.154269 1.74189e-18)
(0.683038 -0.159222 -1.87573e-18)
(0.719455 -0.160348 -2.02343e-18)
(0.753781 -0.157689 1.27035e-19)
(0.786233 -0.151549 -2.42154e-18)
(0.817227 -0.142453 0)
(0.847321 -0.131093 0)
(0.877186 -0.118258 0)
(0.907432 -0.104807 0)
(0.93897 -0.0916195 0)
(0.971466 -0.0797461 3.67799e-18)
(1.00826 -0.0700305 -1.34593e-18)
(1.03849 -0.0643984 0)
(1.09571 -0.0626744 -4.24065e-19)
(0.972988 0.216082 0)
(0.965831 0.201808 1.87097e-18)
(0.959206 0.1956 2.49256e-19)
(0.961489 0.195546 1.9074e-18)
(0.972668 0.197536 0)
(0.985519 0.199235 -1.60762e-18)
(0.992497 0.199295 0)
(0.988452 0.196253 -3.6257e-19)
(0.970218 0.189032 0)
(0.935631 0.177562 -1.60594e-18)
(0.884731 0.162749 -1.24309e-18)
(0.819619 0.145667 -3.15469e-19)
(0.743325 0.126729 3.13157e-19)
(0.658088 0.106111 0)
(0.569158 0.0852832 3.13214e-19)
(0.479341 0.0662427 0)
(0.393492 0.0502674 2.65462e-18)
(0.314101 0.0363406 -3.51359e-19)
(0.247074 0.024275 0)
(0.192398 0.0147265 -1.89968e-18)
(0.147779 0.00792605 0)
(0.110717 0.00341261 0)
(0.0798855 0.00082537 0)
(0.0539969 -0.000614336 0)
(0.0324841 -0.00158252 -2.21703e-19)
(0.0157113 -0.00202749 0)
(0.00282181 -0.00138896 0)
(-0.00262924 0.000681646 1.15604e-19)
(-0.00510807 0.00210041 0)
(-0.00515556 0.00308813 0)
(-0.00382532 0.0036496 0)
(-0.00156765 0.00390533 -5.87561e-20)
(0.00102159 0.00397481 0)
(0.00448138 0.00377853 -2.67946e-19)
(0.00751295 0.00426665 0)
(0.0111731 0.00512497 3.01169e-20)
(0.0155792 0.005674 1.51361e-19)
(0.0209 0.00564824 3.03902e-20)
(0.0273143 0.0053098 -6.09848e-20)
(0.0348966 0.00478494 -4.89184e-19)
(0.0438165 0.00405689 -4.89758e-19)
(0.0542934 0.00309507 4.8961e-19)
(0.0665248 0.00187957 -1.22124e-19)
(0.0807025 0.000381497 -9.73038e-19)
(0.0970352 -0.00145482 9.66796e-19)
(0.115499 -0.00368997 -1.19882e-19)
(0.13632 -0.00641996 0)
(0.158954 -0.00971402 -9.39969e-19)
(0.183543 -0.0135253 0)
(0.210177 -0.0176986 9.19547e-19)
(0.23887 -0.0218929 0)
(0.269835 -0.0259811 8.97363e-19)
(0.303391 -0.0299343 0)
(0.339896 -0.0339639 -2.12149e-19)
(0.379571 -0.0385852 -8.05868e-19)
(0.422298 -0.0445372 -7.47586e-19)
(0.467484 -0.0525772 1.73664e-19)
(0.514064 -0.0632442 0)
(0.560625 -0.0768342 5.43691e-19)
(0.605745 -0.0928121 -1.37268e-19)
(0.648563 -0.110184 0)
(0.688678 -0.127592 1.37062e-19)
(0.725966 -0.143782 -5.34302e-19)
(0.76036 -0.157899 -5.90054e-19)
(0.791681 -0.169373 0)
(0.81971 -0.177755 1.47882e-18)
(0.844372 -0.182715 0)
(0.865841 -0.184108 1.83403e-18)
(0.884535 -0.182007 2.012e-18)
(0.901069 -0.176701 2.17667e-18)
(0.916191 -0.168653 2.70926e-19)
(0.930725 -0.158461 0)
(0.945492 -0.146806 0)
(0.961286 -0.13441 0)
(0.978719 -0.12201 -2.69752e-19)
(0.998538 -0.110333 0)
(1.02037 -0.100182 -1.67538e-18)
(1.04671 -0.0922085 1.64987e-18)
(1.06871 -0.087633 1.04002e-19)
(1.11233 -0.0863869 4.50961e-20)
(0.974194 0.218514 -1.23249e-18)
(0.970935 0.206364 1.1929e-18)
(0.965119 0.198172 -2.82055e-19)
(0.961139 0.194112 0)
(0.962197 0.191942 0)
(0.96826 0.190544 0)
(0.977772 0.189884 0)
(0.988502 0.189481 1.25253e-18)
(0.997432 0.188308 0)
(1.00093 0.185358 -1.11981e-18)
(0.995773 0.179955 -1.39593e-18)
(0.979839 0.171904 3.20059e-19)
(0.952675 0.161433 9.66947e-19)
(0.914337 0.148645 0)
(0.865647 0.133742 -1.47574e-18)
(0.808251 0.117845 0)
(0.746069 0.10247 -1.17975e-18)
(0.683645 0.0879745 2.95075e-19)
(0.622836 0.0743862 -1.2343e-18)
(0.565748 0.0621131 -9.50487e-19)
(0.513196 0.0513543 0)
(0.465535 0.0420964 0)
(0.422938 0.0342205 -6.83221e-19)
(0.385363 0.0276192 0)
(0.352671 0.0221577 -5.42469e-19)
(0.324653 0.0176576 0)
(0.300905 0.0138516 0)
(0.281201 0.0104743 -9.56041e-20)
(0.265397 0.00756045 0)
(0.253152 0.00511446 0)
(0.244116 0.00306797 0)
(0.238009 0.00134184 5.05367e-20)
(0.234516 -0.000138921 2.04855e-19)
(0.233676 -0.00136541 1.29075e-19)
(0.235262 -0.0027922 0)
(0.239368 -0.00439033 0)
(0.245945 -0.0060367 -2.59669e-20)
(0.254861 -0.00776412 -1.3007e-19)
(0.266073 -0.00966383 5.16787e-20)
(0.279498 -0.0118019 0)
(0.295043 -0.0142218 0)
(0.312631 -0.0169565 -2.03983e-19)
(0.332186 -0.0200341 1.00432e-19)
(0.353627 -0.0234889 -4.00717e-19)
(0.37685 -0.0273655 3.96592e-19)
(0.40171 -0.0317128 9.70524e-20)
(0.428005 -0.03655 0)
(0.455499 -0.0417601 3.84751e-19)
(0.484022 -0.0472108 0)
(0.513433 -0.0527531 0)
(0.543629 -0.0582233 0)
(0.574607 -0.0635213 0)
(0.606447 -0.0686788 0)
(0.639238 -0.0739233 1.78238e-19)
(0.672977 -0.0796897 0)
(0.707458 -0.086544 6.70097e-19)
(0.742194 -0.0950312 -1.52654e-19)
(0.77642 -0.105484 0)
(0.809202 -0.117841 5.80221e-19)
(0.839617 -0.13151 1.27755e-19)
(0.866942 -0.145582 5.66918e-19)
(0.890719 -0.159064 -1.3232e-19)
(0.910754 -0.171077 0)
(0.927071 -0.180975 -6.6227e-19)
(0.939853 -0.188329 0)
(0.949407 -0.192867 0)
(0.956198 -0.194464 -8.53663e-19)
(0.960859 -0.193155 0)
(0.964157 -0.189138 0)
(0.966929 -0.182758 -1.064e-18)
(0.970016 -0.174465 -2.9573e-19)
(0.974211 -0.164781 0)
(0.980206 -0.154267 0)
(0.988595 -0.143493 0)
(0.999762 -0.13303 3.01402e-19)
(1.01419 -0.123429 -1.03039e-18)
(1.03133 -0.115269 -2.40139e-19)
(1.05324 -0.109025 -1.88545e-19)
(1.07179 -0.105415 -1.1779e-19)
(1.11021 -0.104548 -2.40682e-19)
(0.974501 0.21901 4.35515e-18)
(0.973757 0.208036 -4.18184e-18)
(0.971714 0.200425 0)
(0.969159 0.196211 -2.53717e-18)
(0.967053 0.192937 0)
(0.966166 0.189312 -2.23716e-18)
(0.967419 0.185818 0)
(0.971669 0.183008 2.97919e-18)
(0.978977 0.18073 -3.69908e-18)
(0.988283 0.178484 1.68901e-18)
(0.99769 0.175773 1.57906e-18)
(1.00497 0.172151 0)
(1.00811 0.167265 -4.27136e-18)
(1.00544 0.160699 -2.72058e-18)
(0.995587 0.15211 3.82396e-18)
(0.977794 0.141796 0)
(0.953045 0.130625 1.17129e-18)
(0.923753 0.119347 0)
(0.891694 0.108146 1.16779e-18)
(0.858157 0.0970054 1.16749e-18)
(0.824182 0.0861323 0)
(0.79076 0.0758054 0)
(0.75877 0.0662292 -6.3938e-19)
(0.728887 0.0575094 0)
(0.701553 0.0496287 6.20942e-19)
(0.677003 0.042502 0)
(0.655358 0.0360339 0)
(0.63665 0.0301371 0)
(0.620908 0.0247218 0)
(0.608067 0.0197048 0)
(0.598051 0.0150082 0)
(0.590789 0.0105633 0)
(0.586205 0.00630016 1.77034e-19)
(0.584175 0.00215573 -8.59073e-20)
(0.584475 -0.00201415 4.39885e-20)
(0.587208 -0.00624318 0)
(0.59228 -0.0105135 0)
(0.599498 -0.0148363 8.62069e-20)
(0.608709 -0.0192575 -3.51891e-19)
(0.619779 -0.0238168 3.51398e-19)
(0.632559 -0.0285386 0)
(0.646889 -0.0334401 8.71135e-19)
(0.662605 -0.0385353 -6.98829e-19)
(0.67953 -0.0438367 -3.57653e-19)
(0.697479 -0.0493548 -3.38866e-19)
(0.716242 -0.0550882 0)
(0.735593 -0.0610048 0)
(0.755307 -0.0670227 -1.03429e-18)
(0.775188 -0.0730449 0)
(0.795086 -0.0789736 0)
(0.814907 -0.0847234 0)
(0.834625 -0.0902646 7.04365e-19)
(0.854263 -0.0956734 1.40668e-18)
(0.873842 -0.101155 0)
(0.893316 -0.107027 0)
(0.912498 -0.113654 -6.489e-19)
(0.931022 -0.121344 0)
(0.948351 -0.130222 1.29306e-18)
(0.963851 -0.14015 6.86228e-19)
(0.976906 -0.150703 0)
(0.987061 -0.161263 6.99585e-19)
(0.994108 -0.17115 1.3345e-18)
(0.998111 -0.179734 1.4059e-18)
(0.99937 -0.186526 7.14e-19)
(0.998349 -0.19121 -1.61595e-18)
(0.99562 -0.193626 1.74655e-18)
(0.991832 -0.193745 2.83272e-18)
(0.987691 -0.191661 0)
(0.983921 -0.187575 0)
(0.981217 -0.181781 1.19561e-18)
(0.980199 -0.174638 0)
(0.981398 -0.166552 2.49967e-18)
(0.985231 -0.15795 2.5324e-18)
(0.992033 -0.149274 0)
(1.00196 -0.140967 2.40246e-18)
(1.01532 -0.13346 -1.04105e-18)
(1.03145 -0.12719 0)
(1.05227 -0.122501 0)
(1.06992 -0.119839 0)
(1.10681 -0.119391 -1.93049e-19)
(0.974733 0.218938 -3.35491e-18)
(0.975458 0.208201 3.21162e-18)
(0.976056 0.201058 -6.23741e-18)
(0.975936 0.197366 2.86955e-18)
(0.974875 0.194459 0)
(0.9732 0.190785 2.53015e-18)
(0.971487 0.186584 -4.84342e-18)
(0.970472 0.182338 -4.49054e-18)
(0.970994 0.178129 -7.92489e-20)
(0.973704 0.17395 0)
(0.978806 0.169868 0)
(0.985964 0.165856 3.59686e-18)
(0.994363 0.161684 3.29206e-18)
(1.00283 0.156939 -3.27786e-18)
(1.00995 0.151228 -8.8988e-18)
(1.01427 0.144451 0)
(1.01489 0.136907 0)
(1.01186 0.128901 0)
(1.00564 0.120422 0)
(0.996715 0.11145 0)
(0.985582 0.102194 0)
(0.972869 0.0929297 0)
(0.95926 0.0838687 1.24022e-18)
(0.945385 0.0751254 -2.58678e-18)
(0.931769 0.066734 0)
(0.918818 0.0586946 0)
(0.906851 0.0509992 0)
(0.896109 0.0436188 0)
(0.886757 0.0364944 0)
(0.878895 0.0295836 -6.62316e-19)
(0.872587 0.0228594 0)
(0.867871 0.0162932 0)
(0.864751 0.00984951 1.26003e-20)
(0.863172 0.00346501 0)
(0.863041 -0.00273131 -4.10351e-20)
(0.864308 -0.00879952 0)
(0.866886 -0.0148251 1.70717e-19)
(0.870646 -0.0208387 0)
(0.875472 -0.0268553 6.72306e-19)
(0.881252 -0.0328884 -3.30474e-19)
(0.887865 -0.038947 -6.88581e-19)
(0.89518 -0.0450345 -6.64757e-19)
(0.903061 -0.0511507 6.67299e-19)
(0.911369 -0.0572927 6.70335e-19)
(0.919958 -0.0634542 1.40181e-18)
(0.928678 -0.069619 1.41095e-18)
(0.93738 -0.0757538 0)
(0.945928 -0.0818022 -7.44175e-19)
(0.954217 -0.0876965 0)
(0.962188 -0.0933752 0)
(0.969832 -0.0988006 -1.48027e-18)
(0.977179 -0.103985 -7.23195e-19)
(0.984287 -0.109017 4.78588e-20)
(0.991199 -0.114068 0)
(0.997895 -0.119377 0)
(1.00425 -0.125197 0)
(1.01002 -0.131729 1.49241e-18)
(1.01484 -0.139046 -1.39871e-18)
(1.01831 -0.147039 -1.38844e-18)
(1.02008 -0.15541 0)
(1.01994 -0.163711 -1.42764e-18)
(1.01789 -0.17144 9.48999e-20)
(1.01413 -0.17813 -1.57591e-18)
(1.00905 -0.183417 1.75715e-18)
(1.00313 -0.187073 -4.73969e-20)
(0.996904 -0.188987 -1.97902e-18)
(0.99092 -0.189144 -2.14283e-18)
(0.98571 -0.187611 0)
(0.981773 -0.184529 0)
(0.979545 -0.180106 0)
(0.979392 -0.174605 0)
(0.98161 -0.168333 -2.83674e-18)
(0.986422 -0.161633 -2.87204e-18)
(0.99402 -0.154872 0)
(1.00448 -0.148426 -2.72248e-18)
(1.01804 -0.14266 4.90738e-18)
(1.0341 -0.13793 0)
(1.05453 -0.134479 0)
(1.0718 -0.132624 0)
(1.10765 -0.132389 9.13349e-19)
(0.975035 0.218502 8.34097e-18)
(0.977127 0.207476 0)
(0.979623 0.200808 1.42765e-17)
(0.980942 0.19772 0)
(0.980747 0.195178 6.21422e-18)
(0.979837 0.191819 0)
(0.978655 0.187904 5.47335e-18)
(0.977181 0.183661 0)
(0.975604 0.178993 -5.03699e-18)
(0.974439 0.173897 0)
(0.97427 0.168549 8.88158e-18)
(0.975577 0.163112 -4.11142e-18)
(0.978659 0.15762 0)
(0.983536 0.151977 7.30815e-18)
(0.989865 0.146032 -1.87028e-19)
(0.99699 0.139703 -6.68243e-18)
(1.00405 0.133126 6.47658e-18)
(1.01036 0.12639 0)
(1.01554 0.119354 0)
(1.01936 0.111922 6.08687e-18)
(1.02166 0.104163 0)
(1.02251 0.0962152 -2.96117e-18)
(1.02211 0.0881969 0)
(1.02073 0.0801831 2.80468e-18)
(1.01865 0.072218 0)
(1.01612 0.0643295 2.8966e-18)
(1.01338 0.0565341 0)
(1.01062 0.048831 0)
(1.00799 0.0412103 1.44736e-18)
(1.00561 0.0336726 6.95667e-19)
(1.00357 0.0262258 0)
(1.00193 0.0188728 0)
(1.00072 0.0116146 -1.08744e-18)
(0.999972 0.004451 0)
(0.999644 -0.00252654 0)
(0.999706 -0.00937439 0)
(1.00014 -0.0161552 -1.77996e-19)
(1.00091 -0.0228803 0)
(1.00196 -0.0295425 -1.10515e-18)
(1.00322 -0.0361387 -7.50295e-19)
(1.00466 -0.0426671 7.24363e-19)
(1.00619 -0.0491236 0)
(1.00777 -0.055502 0)
(1.00933 -0.0617947 1.54327e-18)
(1.0108 -0.0679923 -1.49789e-18)
(1.01214 -0.0740798 -1.51456e-18)
(1.01328 -0.0800328 0)
(1.0142 -0.0858156 -5.80791e-20)
(1.01488 -0.0913893 1.63442e-18)
(1.01535 -0.0967253 0)
(1.01566 -0.10182 1.62687e-18)
(1.0159 -0.106711 1.70199e-18)
(1.01615 -0.111489 -1.66823e-18)
(1.01647 -0.116298 0)
(1.01687 -0.121322 0)
(1.01726 -0.126747 0)
(1.01748 -0.132714 -1.67989e-18)
(1.01729 -0.139266 0)
(1.01644 -0.146315 0)
(1.01473 -0.153638 0)
(1.01203 -0.160904 3.66011e-18)
(1.00841 -0.167741 -1.80325e-18)
(1.00405 -0.173794 0)
(0.999238 -0.178779 -2.00412e-18)
(0.994344 -0.182491 -2.22635e-18)
(0.989747 -0.184811 4.62001e-18)
(0.985814 -0.18569 -4.89508e-18)
(0.982884 -0.185143 -5.17621e-18)
(0.98126 -0.183251 0)
(0.981201 -0.180158 -5.69798e-18)
(0.982926 -0.17607 0)
(0.986625 -0.171247 0)
(0.992463 -0.165996 0)
(1.00061 -0.160655 5.9883e-18)
(1.01117 -0.155576 -5.73478e-18)
(1.02444 -0.151093 -7.99644e-18)
(1.03991 -0.147508 0)
(1.05946 -0.144988 3.60655e-18)
(1.07598 -0.143744 0)
(1.11028 -0.143583 -1.50365e-18)
(0.975434 0.21769 -9.46122e-18)
(0.979143 0.20609 -9.2097e-18)
(0.983423 0.200245 -1.64427e-17)
(0.98558 0.197996 0)
(0.985486 0.195678 -1.41296e-17)
(0.984786 0.192413 -6.7312e-18)
(0.9842 0.188725 0)
(0.983452 0.184719 1.19967e-17)
(0.982353 0.180193 1.11989e-17)
(0.981033 0.175095 0)
(0.979702 0.169516 -1.00445e-17)
(0.978603 0.163553 0)
(0.978049 0.157269 0)
(0.978376 0.15069 8.70949e-18)
(0.979803 0.14382 8.07231e-18)
(0.982395 0.13669 -1.82317e-19)
(0.986005 0.129512 1.84343e-19)
(0.990361 0.12244 0)
(0.995172 0.115375 0)
(1.00009 0.108199 -6.97467e-18)
(1.00479 0.100887 -7.06548e-18)
(1.00904 0.0934785 1.03553e-17)
(1.01274 0.0860179 3.45144e-18)
(1.01588 0.0785357 3.42319e-18)
(1.01848 0.0710494 0)
(1.02058 0.0635687 -3.27204e-18)
(1.02225 0.0560985 0)
(1.02353 0.0486396 0)
(1.02448 0.0411929 -3.30588e-18)
(1.02514 0.0337656 0)
(1.02554 0.026371 0)
(1.02573 0.0190231 0)
(1.02572 0.0117376 8.20283e-19)
(1.02555 0.00454563 -4.27704e-19)
(1.02528 -0.00253549 2.13707e-19)
(1.02489 -0.00950841 0)
(1.02443 -0.0163885 0)
(1.0239 -0.0231787 0)
(1.02328 -0.0298731 8.33827e-19)
(1.02258 -0.036467 8.3869e-19)
(1.02179 -0.0429579 -1.74991e-18)
(1.0209 -0.0493422 0)
(1.0199 -0.055615 0)
(1.0188 -0.0617712 -3.53096e-18)
(1.01758 -0.0678043 -1.81451e-18)
(1.01625 -0.0737048 0)
(1.01483 -0.0794581 0)
(1.01332 -0.0850448 1.82525e-18)
(1.01176 -0.0904457 5.64093e-20)
(1.01021 -0.0956521 0)
(1.00873 -0.100676 0)
(1.00742 -0.105561 -1.93592e-18)
(1.00634 -0.110386 0)
(1.00554 -0.11527 0)
(1.00502 -0.120352 0)
(1.00472 -0.125773 0)
(1.00451 -0.131633 0)
(1.00422 -0.13796 -4.16268e-18)
(1.00365 -0.144688 0)
(1.00266 -0.151644 0)
(1.00116 -0.158575 1.67036e-19)
(0.999169 -0.165187 0)
(0.996804 -0.171182 0)
(0.994258 -0.176303 0)
(0.991768 -0.180348 9.98796e-18)
(0.989581 -0.183176 -5.23386e-18)
(0.98793 -0.18471 5.53772e-18)
(0.987032 -0.184931 1.44574e-20)
(0.987082 -0.183887 0)
(0.988261 -0.18169 6.42793e-18)
(0.990739 -0.178524 -6.54625e-18)
(0.994697 -0.174633 0)
(1.00032 -0.170315 0)
(1.00784 -0.165907 -1.45921e-19)
(1.01742 -0.161753 6.48363e-18)
(1.02946 -0.158179 5.97521e-18)
(1.04358 -0.155437 0)
(1.06168 -0.153654 -4.09386e-18)
(1.07707 -0.152855 0)
(1.10953 -0.152775 1.13333e-18)
(0.975986 0.216474 0)
(0.981692 0.204215 2.12155e-17)
(0.987769 0.199647 1.88225e-17)
(0.990441 0.198411 0)
(0.990122 0.196236 8.02984e-18)
(0.989271 0.192974 -7.77046e-18)
(0.988772 0.189389 0)
(0.98828 0.185462 -1.35652e-17)
(0.987611 0.180998 0)
(0.986852 0.175995 0)
(0.986039 0.170512 0)
(0.985145 0.164577 0)
(0.984206 0.1582 0)
(0.983343 0.151385 1.82805e-19)
(0.982701 0.144141 -9.52895e-18)
(0.982426 0.13652 -1.82176e-19)
(0.982659 0.128776 1.83588e-19)
(0.983499 0.121145 0)
(0.984944 0.113609 0)
(0.986873 0.106091 0)
(0.989102 0.0985721 -2.02548e-19)
(0.991462 0.0910733 2.06469e-19)
(0.993841 0.0836203 -3.95237e-18)
(0.996165 0.0762231 -3.92121e-18)
(0.99838 0.0688788 0)
(1.00044 0.0615783 -3.98567e-18)
(1.00231 0.0543122 3.97315e-18)
(1.00396 0.0470726 0)
(1.00538 0.0398541 1.92526e-18)
(1.00654 0.0326577 1.98342e-18)
(1.00744 0.025492 0)
(1.00807 0.0183706 0)
(1.00845 0.0113072 1.00226e-18)
(1.00859 0.00433909 -1.48559e-20)
(1.00855 -0.00256762 -4.948e-19)
(1.00835 -0.00938461 0)
(1.008 -0.0161052 0)
(1.00754 -0.0227358 -1.01123e-18)
(1.00698 -0.0292774 0)
(1.0063 -0.0357275 -1.02124e-18)
(1.00554 -0.0420834 -5.90027e-20)
(1.00471 -0.0483424 0)
(1.00381 -0.0545011 2.08838e-18)
(1.00286 -0.0605556 4.15703e-18)
(1.00187 -0.0665012 2.07095e-18)
(1.00087 -0.072331 0)
(0.999861 -0.0780354 -4.35509e-18)
(0.998882 -0.0836024 0)
(0.997964 -0.089022 -2.17744e-18)
(0.997153 -0.094293 0)
(0.996507 -0.0994312 0)
(0.996084 -0.104477 0)
(0.995931 -0.109497 0)
(0.996077 -0.114589 0)
(0.996509 -0.119862 -4.77586e-18)
(0.997171 -0.125426 4.8083e-18)
(0.997957 -0.131357 0)
(0.998727 -0.137676 4.72379e-18)
(0.999328 -0.144326 -4.91595e-18)
(0.999631 -0.151167 0)
(0.999554 -0.157988 -4.91276e-18)
(0.999085 -0.164536 0)
(0.998279 -0.170545 0)
(0.997248 -0.175773 0)
(0.99613 -0.180017 -5.68476e-18)
(0.995076 -0.183125 6.02599e-18)
(0.994235 -0.184999 -6.29476e-18)
(0.993752 -0.185604 1.31463e-17)
(0.993779 -0.184971 -6.84271e-18)
(0.994483 -0.183206 0)
(0.996056 -0.18049 7.39208e-18)
(0.99873 -0.177074 -7.44396e-18)
(1.00277 -0.173269 0)
(1.00849 -0.169421 -1.17103e-19)
(1.01617 -0.165879 -7.10413e-18)
(1.02631 -0.162968 0)
(1.03863 -0.160892 0)
(1.05513 -0.159777 -4.56876e-18)
(1.06932 -0.159333 0)
(1.1004 -0.159521 -1.28561e-18)
(0.976761 0.214804 0)
(0.984936 0.20201 -1.22229e-17)
(0.992771 0.199204 -1.0704e-17)
(0.995649 0.198991 0)
(0.994983 0.196871 1.8427e-17)
(0.993957 0.193635 1.74009e-17)
(0.993389 0.19014 0)
(0.992828 0.186205 1.56657e-17)
(0.992161 0.181685 -1.48763e-17)
(0.99156 0.176662 0)
(0.991075 0.171202 0)
(0.990635 0.165313 0)
(0.990182 0.158987 0)
(0.989695 0.152209 -1.13226e-17)
(0.989164 0.144966 -1.11269e-17)
(0.988597 0.137281 1.02277e-17)
(0.988068 0.129389 -3.02758e-17)
(0.987699 0.12154 0)
(0.987571 0.113753 0)
(0.987689 0.10599 9.70214e-18)
(0.988002 0.0982517 1.89753e-17)
(0.988458 0.0905692 -9.29083e-18)
(0.989024 0.0829718 0)
(0.989681 0.0754703 0)
(0.990407 0.0680607 -4.65904e-18)
(0.991174 0.0607325 9.17863e-18)
(0.991952 0.0534741 -9.15591e-18)
(0.992712 0.0462748 0)
(0.993425 0.0391256 0)
(0.994066 0.0320228 -2.26033e-18)
(0.994615 0.0249699 0)
(0.995057 0.0179743 2.33067e-18)
(0.995386 0.0110493 -1.14213e-18)
(0.995623 0.00419197 -1.44937e-20)
(0.995778 -0.00260854 -7.26869e-21)
(0.995851 -0.00932811 0)
(0.995859 -0.0159595 0)
(0.995816 -0.0225099 -2.90116e-20)
(0.995728 -0.0289822 1.18334e-18)
(0.995601 -0.0353738 3.53937e-18)
(0.995444 -0.041682 4.72891e-18)
(0.995264 -0.0479044 2.41017e-18)
(0.995073 -0.0540384 -2.3713e-18)
(0.99488 -0.060081 -2.39248e-18)
(0.994696 -0.0660278 2.47317e-18)
(0.994533 -0.0718736 0)
(0.994404 -0.0776108 4.93756e-18)
(0.994328 -0.0832314 -5.10866e-18)
(0.99433 -0.0887294 0)
(0.994444 -0.0941071 0)
(0.994708 -0.0993808 0)
(0.99516 -0.104587 0)
(0.99583 -0.109784 0)
(0.996729 -0.115051 0)
(0.997838 -0.120481 5.39293e-18)
(0.999103 -0.126159 -1.0982e-17)
(1.00043 -0.132146 -5.59518e-18)
(1.00169 -0.138455 5.63952e-18)
(1.00276 -0.145033 5.54311e-18)
(1.0035 -0.151756 -5.76911e-18)
(1.00382 -0.158437 5.8694e-18)
(1.00367 -0.164845 0)
(1.00305 -0.170732 6.1675e-18)
(1.00198 -0.175862 -6.36832e-18)
(1.00053 -0.180031 0)
(0.998794 -0.183078 -1.36578e-17)
(0.996865 -0.184901 7.10626e-18)
(0.994881 -0.185462 -1.48611e-17)
(0.993018 -0.1848 7.74742e-18)
(0.991503 -0.183037 0)
(0.990619 -0.180373 8.22893e-18)
(0.990707 -0.177086 8.48205e-18)
(0.99215 -0.173506 -8.45589e-18)
(0.995379 -0.169997 -8.45732e-18)
(1.00077 -0.166909 8.14658e-18)
(1.0089 -0.16457 0)
(1.01955 -0.163122 0)
(1.03485 -0.162743 5.25878e-18)
(1.04824 -0.162667 0)
(1.07923 -0.163488 1.48343e-18)
(0.977833 0.212617 1.62075e-17)
(0.988995 0.19965 0)
(0.998472 0.199058 -2.40971e-17)
(1.00125 0.199733 2.18312e-17)
(1.00018 0.19759 -2.08186e-17)
(0.99903 0.194434 1.99677e-17)
(0.998399 0.191033 0)
(0.997724 0.187058 1.60213e-19)
(0.996946 0.182455 1.67953e-17)
(0.996278 0.177367 0)
(0.995791 0.171857 0)
(0.995442 0.165931 0)
(0.995188 0.159586 2.77102e-17)
(0.995003 0.152813 0)
(0.994847 0.145595 2.46931e-17)
(0.994671 0.13794 0)
(0.994464 0.130056 4.61857e-17)
(0.994267 0.122182 0)
(0.994122 0.114345 0)
(0.994032 0.10652 -2.20838e-17)
(0.993974 0.0987122 -1.08158e-17)
(0.993934 0.090955 0)
(0.993915 0.0832781 0)
(0.993934 0.0756961 0)
(0.994 0.0682099 5.26073e-18)
(0.994118 0.0608135 -5.24361e-18)
(0.994282 0.0534987 -1.07976e-19)
(0.994483 0.0462567 0)
(0.994711 0.0390788 5.33952e-18)
(0.994953 0.0319611 0)
(0.995196 0.024905 0)
(0.995431 0.0179142 -2.6344e-18)
(0.995654 0.0109956 1.35009e-18)