/*--------------------------------*- C++ -*----------------------------------*\
| =========                 |                                                 |
| \\      /  F ield         | OpenFOAM: The Open Source CFD Toolbox           |
|  \\    /   O peration     | Version:  v1912                                 |
|   \\  /    A nd           | Website:  www.openfoam.com                      |
|    \\/     M anipulation  |                                                 |
\*---------------------------------------------------------------------------*/
FoamFile
{
    version     2.0;
    format      ascii;
    class       volScalarField;
    location    "500";
    object      epsilon;
}
// * * * * * * * * * * * * * * * * * * * * * * * * * * * * * * * * * * * * * //

dimensions      [0 2 -3 0 0 0 0];


internalField   nonuniform List<scalar> 
12441
(
0.0102964
0.009085
0.0083271
0.00770263
0.00718364
0.00674895
0.00638219
0.00607083
0.00580477
0.00557624
0.00537861
0.00520345
0.00505419
0.00490844
0.00479261
0.00469026
0.00487936
0.0204707
0.277704
3.05003
20.9517
39.25
0.0101189
0.00892017
0.00818401
0.00757689
0.00707192
0.00664866
0.00629132
0.00598783
0.00572841
0.00550556
0.00531282
0.00514157
0.00499627
0.00485454
0.00474216
0.00464434
0.0048048
0.0202045
0.261428
3.04216
21.242
40.2318
0.00989689
0.00871741
0.00800033
0.0074091
0.00691748
0.00650554
0.0061579
0.00586281
0.00561076
0.00539447
0.00520771
0.00504185
0.00490177
0.004763
0.00465591
0.00456345
0.00464617
0.0182905
0.22108
3.01066
21.6209
41.3784
0.00967331
0.00851376
0.00781496
0.00723886
0.0067599
0.00635866
0.00602016
0.00573297
0.00548783
0.0052777
0.00509649
0.004936
0.00480077
0.00466999
0.00456744
0.00447992
0.00450166
0.01601
0.181883
2.98724
22.0881
42.5504
0.00942908
0.00828914
0.00760906
0.0070486
0.00658282
0.00619283
0.00586402
0.00558529
0.00534766
0.00514429
0.00496934
0.00481469
0.00468512
0.00455772
0.00446145
0.00438134
0.00435082
0.0139541
0.161782
2.99344
22.6058
43.6698
0.0092231
0.00809952
0.00743466
0.00688681
0.0064316
0.00605052
0.0057293
0.00545712
0.00522518
0.00502681
0.00485633
0.00470599
0.00458024
0.00446043
0.0043678
0.00429132
0.00427711
0.0140513
0.181169
3.10012
23.2377
44.7472
0.00900243
0.0078959
0.0072475
0.00671338
0.00626975
0.00589854
0.00558582
0.00532105
0.00509567
0.0049032
0.00473813
0.00459288
0.00447193
0.00435461
0.00426592
0.00419749
0.00602946
0.0230813
0.287023
3.40256
24.0853
45.7945
0.00882399
0.00773126
0.00709569
0.00657217
0.00613736
0.00577356
0.00546711
0.00520767
0.00498686
0.00479835
0.00463675
0.00449474
0.00437674
0.0042665
0.00418541
0.00516008
0.0342484
0.0791918
0.601688
4.04262
25.275
46.8732
0.00862984
0.00755204
0.006931
0.0064196
0.005995
0.00563991
0.00534095
0.00508805
0.004873
0.00468964
0.00453274
0.00439523
0.00428213
0.00413318
0.00538223
0.02678
0.172355
0.294006
1.29073
5.17475
26.9415
48.0153
0.00847515
0.00740916
0.0067991
0.00629675
0.00587967
0.00553084
0.00523716
0.00498871
0.00477745
0.00459734
0.00444325
0.00430848
0.00419808
0.00426524
0.0249765
0.145
0.500941
0.769345
2.37359
6.85907
29.1825
49.2846
0.0083057
0.00725269
0.00665536
0.00616364
0.00575552
0.00541433
0.00512722
0.00488449
0.00467827
0.00450263
0.00435258
0.00422274
0.00408642
0.00943831
0.109915
0.40304
0.953819
1.43693
3.62665
8.9874
32.0252
50.6975
0.00817069
0.00712799
0.00654023
0.00605636
0.00565472
0.00531893
0.00503633
0.00479739
0.00459436
0.00442146
0.00427376
0.00414751
0.00416094
0.0472396
0.296425
0.719898
1.36578
2.08876
4.78952
11.3356
35.413
52.295
0.00802154
0.00699032
0.00641391
0.0059395
0.00554585
0.00521686
0.0049401
0.00470622
0.00450765
0.00433867
0.00419449
0.00403427
0.00832557
0.15473
0.522348
0.982925
1.6655
2.60005
5.75033
13.6834
39.2321
54.0597
0.00790066
0.00687869
0.00631083
0.00584345
0.00545561
0.00513143
0.00485871
0.00462823
0.00443254
0.00426602
0.00412396
0.00387906
0.0360918
0.306186
0.70608
1.16434
1.86713
2.96643
6.51327
15.8827
43.3412
56.0037
0.00776926
0.00675732
0.00619949
0.00574047
0.00535967
0.00504148
0.00477389
0.00454786
0.00435604
0.00419293
0.00405389
0.00425791
0.105713
0.445149
0.834617
1.28568
2.00349
3.22624
7.12004
17.8628
47.6043
58.0812
0.0076602
0.00665666
0.00610655
0.00565387
0.0052783
0.00496446
0.00470052
0.00447756
0.00428835
0.00412749
0.00399044
0.00938946
0.199024
0.549855
0.92212
1.3691
2.09918
3.41583
7.61251
19.6049
51.9033
60.2902
0.00754424
0.00654957
0.00600839
0.00556313
0.00519378
0.00488522
0.00462578
0.00440669
0.00422083
0.00406287
0.00392882
0.0312818
0.287109
0.624596
0.983545
1.42905
2.16953
3.56049
8.0232
21.1187
56.15
62.571
0.00744274
0.006456
0.0059221
0.00548284
0.00511848
0.00481408
0.00455815
0.00434205
0.00415874
0.00400302
0.00387357
0.0757574
0.357443
0.67842
1.02865
1.47416
2.2238
3.67647
8.37533
22.4254
60.2817
64.9213
0.0073401
0.00636109
0.00583503
0.00540227
0.00504334
0.00474353
0.0044915
0.00427872
0.00409828
0.00394503
0.00380963
0.129464
0.410397
0.718642
1.06332
1.50966
2.26769
3.77405
8.6849
23.5493
64.2631
67.2818
0.00724548
0.00627395
0.00575474
0.00532763
0.00497342
0.00467757
0.0044289
0.004219
0.00404104
0.00388998
0.00427363
0.179159
0.450233
0.750016
1.09113
1.53879
2.30486
3.8598
8.96271
24.5139
68.0778
69.6617
0.00715524
0.00619043
0.00567809
0.00525664
0.00490712
0.0046152
0.00436982
0.00416269
0.0039871
0.00383812
0.00980933
0.220547
0.481077
0.775501
1.11432
1.56366
2.33777
3.9379
9.21588
25.3405
71.7297
72.0102
0.00706448
0.00610701
0.00560141
0.00518557
0.00484076
0.00455283
0.00431088
0.00410671
0.0039337
0.00378749
0.0272543
0.253886
0.505869
0.796963
1.13436
1.5857
2.3681
4.01087
9.44901
26.0477
75.2359
74.3523
0.00698517
0.00603339
0.00553368
0.00512264
0.00478179
0.00449713
0.0042579
0.00405601
0.00388492
0.00374241
0.0549401
0.280779
0.526544
0.81561
1.15225
1.60593
2.39707
4.08011
9.66501
26.6521
78.6291
76.6493
0.00689869
0.00595401
0.0054608
0.00505522
0.00471899
0.00443828
0.00420245
0.00400351
0.00383502
0.00370262
0.0843912
0.302815
0.544353
0.832266
1.16871
1.62508
2.42546
4.14629
9.86574
27.1681
81.9522
78.9445
0.0068304
0.0058905
0.00540226
0.00500067
0.00466764
0.00438952
0.00415579
0.00395855
0.00379147
0.00368403
0.11059
0.32132
0.560119
0.847511
1.18426
1.64367
2.45375
4.20971
10.0524
27.6087
85.2615
81.212
0.00674472
0.00581213
0.00533063
0.00493474
0.0046066
0.00433269
0.00410263
0.00390861
0.00374436
0.00364472
0.132641
0.337283
0.574397
0.861767
1.19928
1.66206
2.48209
4.2705
10.226
27.985
88.621
83.5114
0.00668555
0.00575679
0.00527933
0.00488661
0.00456096
0.00428903
0.00406053
0.00386775
0.00370456
0.00383576
0.151252
0.351406
0.587576
0.875342
1.21402
1.68047
2.51048
4.32879
10.3873
28.3069
92.1041
85.8273
0.00660184
0.00568037
0.00520964
0.00482268
0.004502
0.00423438
0.00400965
0.00382018
0.00365999
0.00574635
0.167335
0.364176
0.599934
0.888463
1.22868
1.69899
2.53878
4.38469
10.5369
28.5829
95.7863
88.2307
0.00655216
0.00563363
0.00516606
0.00478146
0.00446253
0.00419621
0.00397244
0.00378366
0.00362441
0.0109484
0.181607
0.375931
0.611674
0.901291
1.24334
1.71762
2.56688
4.43837
10.6757
28.8199
99.7449
90.7106
0.00646808
0.00555721
0.00509673
0.00471825
0.00440465
0.00414299
0.00392329
0.0037381
0.00358298
0.0201762
0.194552
0.38691
0.622948
0.913936
1.25805
1.73633
2.59464
4.48996
10.8042
29.0237
104.05
93.3406
0.00642583
0.00551704
0.00505887
0.00468201
0.00436952
0.0041086
0.0038894
0.00370452
0.00355186
0.0331117
0.20648
0.397285
0.633867
0.926465
1.27282
1.75503
2.62198
4.53958
10.9232
29.1996
108.762
96.1058
0.00634339
0.00544223
0.00499116
0.00462048
0.0043134
0.00405722
0.00384218
0.00366095
0.00351593
0.0485286
0.21759
0.407182
0.644508
0.938916
1.28762
1.77368
2.64884
4.58735
11.0334
29.3518
113.928
99.0732
0.00630968
0.00540985
0.00496027
0.00459044
0.00428376
0.00402767
0.00381253
0.00363108
0.00349482
0.0650364
0.228016
0.416692
0.654928
0.951302
1.3024
1.79219
2.67518
4.63332
11.1356
29.4848
119.583
102.217
0.00622522
0.00533359
0.00489166
0.00452855
0.0042278
0.00397693
0.00376637
0.00358895
0.00347367
0.0815163
0.237851
0.425884
0.66516
0.963617
1.31713
1.81052
2.70096
4.67754
11.2304
29.6025
125.747
105.592
0.00619836
0.00530728
0.00486602
0.00450303
0.004202
0.00395065
0.00373952
0.00356149
0.0034783
0.0972723
0.247163
0.434806
0.675223
0.975847
1.33175
1.8286
2.72616
4.72003
11.3185
29.7092
132.432
109.157
0.00611139
0.00522919
0.00479618
0.00444047
0.00414588
0.00390019
0.00369401
0.00352032
0.00354733
0.11191
0.255998
0.443491
0.685122
0.987966
1.34622
1.84642
2.75073
4.76076
11.4006
29.8083
139.646
112.957
0.00608783
0.00520581
0.00477306
0.00441705
0.00412183
0.00387535
0.00366836
0.00349389
0.00617517
0.125216
0.264387
0.45196
0.694852
0.999947
1.3605
1.86391
2.77466
4.79969
11.4775
29.9029
147.389
116.938
0.00599585
0.00512382
0.00470024
0.0043523
0.00406419
0.00382394
0.00362237
0.00345262
0.0250356
0.13701
0.272345
0.460221
0.704401
1.01176
1.37453
1.88104
2.7979
4.83674
11.5498
29.9945
155.644
121.137
0.00596753
0.00509634
0.00467354
0.00432573
0.00403735
0.00379664
0.00359458
0.00342489
0.0457407
0.146992
0.279876
0.468275
0.71375
1.02336
1.38829
1.89778
2.82041
4.87184
11.6183
30.0838
164.359
125.495
0.00586286
0.00500343
0.0045914
0.00425305
0.00397299
0.00373957
0.00354386
0.00338451
0.0569481
0.155161
0.286983
0.476114
0.722875
1.03471
1.40172
1.91408
2.84213
4.90488
11.6836
30.17
173.402
130.045
0.00582125
0.00496397
0.00455386
0.00421662
0.00393716
0.00370411
0.00350872
0.00334067
0.0630105
0.161787
0.293667
0.483726
0.731751
1.04577
1.41478
1.92989
2.86299
4.93578
11.7464
30.2516
182.503
134.727
0.00569964
0.00485643
0.00445881
0.00413227
0.0038621
0.00363715
0.00344885
0.00337212
0.0666198
0.167177
0.29993
0.491092
0.74035
1.0565
1.42742
1.94517
2.88292
4.96444
11.8067
30.3275
191.182
139.588
0.00561732
0.0047899
0.00440431
0.0040861
0.00382155
0.00360026
0.00341412
0.00366219
0.068948
0.171591
0.305782
0.498187
0.748645
1.06683
1.4396
1.95985
2.90185
4.99082
11.8645
30.3978
198.748
144.654
0.00525492
0.00446062
0.00411236
0.00382682
0.00358961
0.00339111
0.00322382
0.00379106
0.0705307
0.175223
0.31123
0.504985
0.75661
1.07673
1.45126
1.97387
2.91966
5.01492
11.9188
30.4641
204.394
150.447
95.0235
43.7119
27.8016
22.2428
22.7911
19.8219
19.2887
17.2188
16.1212
15.5171
14.7937
13.9565
14.73
17.0984
20.4515
23.4092
25.5278
27.6359
30.512
33.5093
36.0274
38.2003
39.4572
39.5757
39.1025
38.3457
37.6147
36.9362
36.0209
34.0708
32.9323
33.1632
28.2875
4.71875
2.91222
94.6475
43.7255
27.8218
22.4286
23.1923
20.1403
19.6114
17.4678
16.3458
15.7128
14.8966
14.0483
14.8139
17.1979
20.6221
23.6285
25.7743
27.8609
30.6711
33.7242
36.4337
38.8109
40.244
40.455
39.9557
39.0713
38.194
37.4156
36.4583
34.4517
33.254
33.4865
28.8436
4.73364
2.90969
93.9266
43.739
27.8609
22.8053
23.9925
20.7803
20.2436
17.9547
16.7917
16.1012
15.1111
14.2296
14.9733
17.4012
20.9461
24.0599
26.3098
28.378
31.0429
34.181
37.2437
40.0081
41.8161
42.2532
41.7439
40.6194
39.4311
38.422
37.3592
35.2305
33.9124
34.1596
29.0844
4.75852
2.90464
92.8104
43.7425
27.9228
23.3902
25.1809
21.7422
21.1609
18.6628
17.4499
16.6744
15.4629
14.5268
15.2347
17.7289
21.4628
24.7957
27.2782
29.3852
31.8061
34.9962
38.5254
41.8395
44.2279
45.0679
44.624
43.1709
41.4765
40.0537
38.7867
36.4539
34.9378
35.2293
29.2066
4.79478
2.89709
91.3035
43.7262
28.0138
24.1963
26.7393
23.0195
22.339
19.5817
18.3122
17.4262
15.9824
14.9763
15.6263
18.1993
22.2099
25.9344
28.8877
31.2295
33.3035
36.4011
40.4164
44.3992
47.5749
49.0473
48.8299
47.0068
44.5738
42.4719
40.8412
38.1923
36.378
36.7613
29.3715
4.84452
2.8871
89.3553
43.6804
28.1426
25.2392
28.6627
24.6144
23.7702
20.714
19.3807
18.36
16.7001
15.6154
16.1746
18.8188
23.1971
27.5421
31.3642
34.423
36.1308
38.803
43.1581
47.8513
52.0102
54.3989
54.684
52.5372
49.0985
45.9301
43.6766
40.5484
38.302
38.844
29.7069
4.9104
2.87471
87.0012
43.5963
28.322
26.5446
30.9641
26.5451
25.4668
22.0773
20.6714
19.4945
17.6508
16.4869
16.9096
19.5946
24.4199
29.6383
34.8799
39.5951
41.2563
42.8874
47.1545
52.4706
57.7731
61.4061
62.6114
60.3368
55.6153
50.8197
47.525
43.669
40.8055
41.5938
30.3196
4.99565
2.85996
84.2135
43.4651
28.57
28.148
33.6678
28.8421
27.4576
23.7017
22.2138
20.8631
18.8812
17.6475
17.8789
20.5534
25.887
32.222
39.5047
47.3112
50.1065
49.7731
53.0634
58.7002
65.2311
70.4551
73.1503
71.1766
64.9501
57.7348
52.7309
47.7623
44.0186
45.1602
31.3111
5.10408
2.84292
81.0699
43.2782
28.9113
30.0902
36.7984
31.5417
29.7831
25.6281
24.049
22.5133
20.4545
19.1748
19.1577
21.7549
27.6445
35.3164
45.2134
57.6995
64.2968
61.1573
61.9127
67.2228
74.927
82.058
86.9406
86.0121
78.2508
67.5511
59.7963
53.1196
48.1154
49.7304
32.7956
5.24016
2.82363
77.574
43.0266
29.3793
32.4086
40.3711
34.6787
32.4896
27.9058
26.227
24.5044
22.4496
21.1697
20.859
23.3009
29.7917
39.0046
51.9293
69.9696
84.1295
79.0188
75.1435
79.0044
87.5943
96.8313
104.626
105.82
96.9246
81.4725
69.4196
60.1378
53.3237
55.5277
34.9178
5.40912
2.80214
73.8369
42.7007
30.0179
35.1285
44.3851
38.2804
35.6242
30.5897
28.804
26.9052
24.9592
23.7518
23.1391
25.3459
32.5001
43.4683
59.5826
82.3008
105.62
103.598
94.1602
95.1511
104.034
115.32
126.536
131.051
122.13
100.863
82.4708
69.3232
59.9303
62.7966
37.8728
5.6169
2.7785
69.8857
42.2901
30.8824
38.2546
48.8203
42.3629
39.2289
33.7354
31.8374
29.7885
28.0771
27.0492
26.2026
28.111
36.0323
49.0123
68.1506
92.7336
120.966
129.38
118.565
116.198
124.626
137.5
152.015
160.461
153.255
126.398
99.7344
81.2267
68.2658
71.7556
41.9279
5.86996
2.75271
65.8489
41.7836
32.04
41.7678
53.638
46.929
43.3341
37.3945
35.3795
33.2243
31.8864
31.1686
30.2873
31.8944
40.7548
56.0787
77.6683
100.575
126.421
146.286
143.576
140.55
148.309
161.926
178.593
189.883
185.526
155.967
121.11
96.1957
78.6349
82.4927
47.4391
6.17446
2.72479
61.7626
41.1691
33.5652
45.6303
58.7852
51.9704
47.9551
41.6076
39.4699
37.2667
36.433
36.1551
35.6169
37.0794
47.1158
65.1487
88.1669
106.768
125.842
150.568
161.59
163.445
171.68
185.224
202.028
213.001
209.995
182.581
144.19
113.803
91.1354
94.7757
54.8409
6.53449
2.69468
57.7502
40.4347
35.5317
49.7968
64.1998
57.4737
53.0904
46.3964
44.1291
41.94
41.6924
41.9285
42.2871
44.0567
55.5524
76.4786
99.5422
112.942
124.903
148.035
169.374
179.479
190.041
203.165
218.1
224.978
219.396
197.061
163.59
132.058
105.314
107.801
64.5479
6.94858
2.66226
53.8399
39.5709
37.9982
54.227
69.8228
63.4114
58.7198
51.7644
49.3556
47.2307
47.5636
48.2628
50.0966
52.9969
66.1913
89.5626
111.31
120.307
126.878
145.691
170.473
187.066
200.514
213.112
224.87
225.233
213.86
195.787
173.588
147.28
119.756
120.035
76.6468
7.4037
2.62736
50.1273
38.5744
40.994
58.8866
75.6003
69.7394
64.8074
57.6989
55.1315
53.0935
53.8989
54.8135
58.4055
63.4527
78.3441
102.794
122.486
128.993
132.514
146.833
169.987
188.726
203.678
215.28
223.115
216.428
198.895
183.117
172.591
155.741
132.04
129.449
90.2779
7.8673
2.58971
46.6135
37.4562
44.5069
63.7231
81.4922
76.3928
71.2994
64.1705
61.4287
59.469
60.5557
61.2877
66.2785
74.0402
90.2009
114.017
131.87
137.928
140.725
151.511
170.537
187.653
201.969
211.655
214.994
201.967
180.166
165.873
163.728
156.123
139.567
134.281
102.995
8.28158
2.54896
43.349
36.2538
48.4712
68.6862
87.4484
83.2773
78.121
71.1312
68.2175
66.3102
67.479
67.5888
72.9425
82.8605
99.6454
122.088
138.863
145.463
149.045
157.721
171.975
185.458
197.509
204.299
202.679
184.632
161.208
148.682
151.421
150.026
140.951
133.884
111.169
8.56919
2.5048
40.3033
35.0432
52.7396
73.7406
93.4054
90.2672
85.1718
78.5069
75.4635
73.5958
74.7195
73.9285
78.3229
88.7864
105.765
127.556
143.929
150.598
154.861
162.576
172.691
182.232
191.353
194.564
187.835
166.389
143.693
133.481
138.735
140.261
136.692
128.923
112.079
8.65728
2.45698
37.4893
33.9336
57.1357
78.8311
99.2868
97.2149
92.3282
86.192
83.1222
81.3274
82.4188
80.7093
83.0941
92.3094
109.489
132.053
148.288
153.649
156.954
163.834
171.052
177.548
183.863
183.194
171.671
148.565
128.23
120.645
127.035
129.156
128.541
120.808
105.809
8.50899
2.40547
34.8769
33.0379
61.488
83.8843
105.01
103.969
99.4527
94.0515
91.1261
89.5053
90.7205
88.4068
88.3726
95.1522
112.665
137.105
153.078
155.738
156.015
161.115
166.516
171.265
175.221
170.66
155.131
132.006
114.903
109.916
116.629
118.047
118.404
110.969
94.7267
8.13849
2.3505
32.4767
32.4678
65.6481
88.8136
110.493
110.396
106.409
101.934
99.3823
98.1054
99.7119
97.3538
95.2058
99.2494
117.165
143.828
158.984
157.857
153.524
155.596
159.716
163.747
165.686
157.388
138.976
117.179
103.558
100.866
107.369
107.497
107.687
100.459
81.6085
7.6
2.29253
30.2708
32.3247
69.5111
93.525
115.66
116.389
113.075
109.688
107.775
107.065
109.375
107.705
104.319
106.23
124.434
152.88
166.231
160.456
150.686
148.861
151.837
155.615
155.573
143.823
123.797
104.249
93.9369
93.0799
98.9787
97.6622
97.1944
89.9209
68.473
6.96345
2.23218
28.2673
32.696
73.0227
97.9256
120.448
121.874
119.351
117.186
116.184
116.295
119.622
119.382
115.995
117.1
135.67
164.868
174.925
163.584
148.027
142.028
143.892
147.423
145.184
130.4
109.984
93.1714
85.755
86.2115
91.2054
88.5272
87.2936
79.7017
56.4351
6.29359
2.17016
26.4614
33.6526
76.1725
101.935
124.811
126.812
125.171
124.329
124.499
125.697
130.331
132.204
130.059
132.213
151.739
180.275
185.125
167.173
145.734
135.68
136.489
139.501
134.735
117.502
97.7355
83.7765
78.7353
79.9937
83.8679
80.0357
78.1006
69.9882
45.9674
5.63906
2.10715
24.8623
35.2483
78.9793
105.501
128.723
131.199
130.501
131.062
132.641
135.197
141.407
145.944
146.074
151.289
173.217
199.572
196.882
171.165
143.856
130.057
129.867
131.953
124.386
105.426
87.0802
75.8346
72.6322
74.2346
76.8631
72.1361
69.6139
60.8948
37.1674
5.03044
2.04375
23.4808
37.5178
81.4763
108.603
132.187
135.062
135.347
137.377
140.572
144.756
152.804
160.453
163.668
173.695
199.969
222.704
209.956
175.457
142.495
125.306
124.078
124.747
114.254
94.3755
77.9343
69.1035
67.2388
68.8062
70.1524
64.7938
61.7918
52.5055
29.9375
4.48306
1.98046
22.3333
40.474
83.6978
111.255
135.228
138.454
139.749
143.306
148.309
154.395
164.55
175.659
182.561
198.792
231.365
249.085
223.77
179.8
141.662
121.509
119.068
117.786
104.455
84.4553
70.1432
63.356
62.3898
63.6339
63.741
57.987
54.5892
44.884
24.0918
4.00149
1.9177
21.4546
44.1007
85.6721
113.497
137.889
141.445
143.771
148.92
155.915
164.197
176.758
191.635
202.68
226.22
266.371
277.178
237.226
183.762
141.303
118.698
114.75
110.969
95.0986
75.6897
63.5243
58.393
57.9589
58.6835
57.657
51.701
47.9729
38.0705
19.4165
3.58362
1.85577
20.8892
48.3425
87.42
115.379
140.224
144.109
147.495
154.318
163.507
174.324
189.66
208.6
224.163
255.989
304.124
305.022
248.973
186.772
141.166
116.779
110.976
104.214
86.2979
68.0375
57.8908
54.0485
53.8553
53.9502
51.9346
45.9221
41.9222
32.0758
15.7033
3.22384
1.79489
20.7351
53.0949
88.9565
116.958
142.291
146.522
151.015
159.627
171.263
185.049
203.665
227.049
247.499
288.588
343.676
330.153
257.512
188.234
140.944
115.551
107.571
97.4767
78.1459
61.4146
53.0692
50.1883
50.0175
49.4459
46.6025
40.6355
36.425
26.8798
12.7655
2.91509
1.73522
21.1259
58.2027
90.2968
118.291
144.15
148.761
154.435
165.012
179.442
196.811
219.473
247.87
273.659
325.053
383.979
350.238
261.65
187.645
140.237
114.684
104.302
90.7579
70.7115
55.7109
48.9055
46.7079
46.4079
45.1902
41.678
35.8236
31.4715
22.4358
10.444
2.65011
1.67685
22.2957
63.4722
91.4586
119.435
145.864
150.905
157.878
170.687
188.427
210.308
238.269
272.666
304.44
367.036
423.057
362.857
260.561
184.689
138.722
113.805
100.929
84.1008
64.0267
50.8063
45.2692
43.528
43.0058
41.2019
37.1656
31.4661
27.049
18.6776
8.60778
2.42211
1.61987
24.5223
68.698
92.4632
120.439
147.497
153.038
161.493
176.945
198.794
226.668
262.059
304.178
342.829
416.503
457.663
366.187
254.061
179.281
136.114
112.519
97.2188
77.5806
58.0907
46.5807
42.0521
40.5901
39.8019
37.4947
33.0582
27.5405
23.1382
15.5283
7.15131
2.22506
1.56429
28.1637
73.6942
93.3341
121.35
149.115
155.26
165.476
184.208
211.435
247.72
294.195
346.993
393.455
474.371
482.598
359.017
242.492
171.57
132.274
110.503
93.0069
71.2926
52.8696
42.9227
39.168
37.8525
36.7929
34.0742
29.3396
24.0229
19.7124
12.9078
5.99118
2.05378
1.51016
33.4954
78.3197
94.0943
122.211
150.796
157.696
170.103
193.11
227.77
276.465
340.104
407.959
461.814
536.735
491.708
341.559
226.789
161.902
127.143
107.512
88.2094
65.3281
48.3075
39.7323
36.5492
35.2865
33.9777
30.9377
25.9882
20.8877
16.738
10.7384
5.06206
1.90391
1.45747
40.701
82.4921
94.7648
123.063
152.633
160.522
175.778
204.64
250.111
317.758
407.535
494.259
549.052
589.503
479.761
315.276
208.178
150.771
120.807
103.415
82.8515
59.7596
44.3321
36.9247
34.1456
32.8733
31.3543
28.0751
22.9787
18.1087
14.1762
8.94848
4.31316
1.77182
1.40624
49.6321
86.1911
95.3641
123.952
154.752
163.995
183.135
220.407
282.31
378.952
503.038
601.955
637.009
609.276
445.892
282.992
188.065
138.749
113.421
98.1699
77.0242
54.6253
40.8647
34.4293
31.921
30.6014
28.9189
25.471
20.2849
15.6589
11.9855
7.4745
3.70522
1.65452
1.35648
59.8743
89.4572
95.9095
124.934
157.336
168.521
193.211
243.146
330.77
468.244
616.175
693.025
679.244
579.458
394.906
247.938
167.715
126.428
105.246
91.8369
70.8654
49.9282
37.8258
32.1903
29.8519
28.4646
26.6651
23.1063
17.8805
13.511
10.1237
6.26153
3.20786
1.54958
1.30818
70.5911
92.3639
96.4189
126.088
160.675
174.785
207.825
277.714
405.072
582.29
696.719
704.947
639.842
507.326
335.925
213.24
148.186
114.352
96.5859
84.5532
64.5117
45.6392
35.1406
30.1643
27.9245
26.4609
24.5846
20.9601
15.7401
11.6379
8.54973
5.26303
2.79764
1.45499
1.26137
80.9187
95.0021
96.9143
127.536
165.269
184.039
230.388
332.726
512.065
676.794
685.816
625.2
540.609
418.016
277.726
181.056
130.185
102.986
87.8027
76.5476
58.0922
41.7076
32.7407
28.3184
26.1322
24.5915
22.6686
19.0114
13.8397
10.0129
7.22484
4.44017
2.45643
1.36911
1.21605
89.3733
97.4752
97.4271
129.486
172.059
198.778
267.708
420.319
623.88
678.542
590.784
506.038
430.548
333.404
225.697
152.579
114.148
92.689
79.2603
68.1257
51.7134
38.0692
30.5657
26.6274
24.473
22.8599
20.9088
17.2406
12.1565
8.60973
6.11354
3.76089
2.17014
1.29061
1.17225
95.1437
99.9136
98.0111
132.333
183.022
224.455
332.776
533.528
648.752
578.663
467.534
396.199
338.039
262.606
181.545
128.075
100.184
83.6625
71.3099
59.6788
45.4763
34.6564
28.5616
25.0705
22.9474
21.2711
19.2986
15.63
10.6692
7.4035
5.18399
3.19888
1.92782
1.21836
1.12998
0.00337792
0.00250576
0.00227975
0.00216948
0.00212991
0.00213387
0.00216612
0.00383231
0.0713672
0.177473
0.315014
0.509781
0.762189
1.08357
1.45929
1.98349
2.93172
5.03098
11.9556
30.5143
206.636
160.179
0.00334451
0.00224271
0.00184322
0.00160827
0.00148834
0.00145152
0.00148443
0.00385604
0.071779
0.178693
0.317186
0.512426
0.765073
1.08695
1.46313
1.98803
2.93744
5.039
11.977
30.5519
207.551
170.322
0.00354055
0.00237585
0.00188226
0.00154499
0.00132389
0.00119406
0.00116406
0.00387338
0.0720491
0.179588
0.318882
0.514341
0.766904
1.08887
1.46513
1.99029
2.94028
5.04349
11.9919
30.5907
207.616
180.004
0.00367091
0.00251743
0.00200375
0.00162962
0.00135807
0.00116721
0.00103248
0.00388557
0.0721976
0.180179
0.320099
0.515514
0.767662
1.08932
1.46527
1.99023
2.94016
5.04427
11.9988
30.6312
206.895
189.094
0.00392266
0.00276389
0.0022261
0.00182159
0.00151359
0.00127948
0.000997572
0.00389356
0.0722364
0.180481
0.320832
0.515933
0.767332
1.08828
1.46351
1.98781
2.93701
5.0412
11.996
30.6739
205.432
198.052
0.00406033
0.00292973
0.00239822
0.00199151
0.00167439
0.00142427
0.000985997
0.00389801
0.0721722
0.180502
0.321078
0.515592
0.765906
1.08575
1.45986
1.98301
2.93076
5.03412
11.9823
30.7186
203.261
207.048
0.00434056
0.00320793
0.00265914
0.00223273
0.001895
0.0016234
0.00105467
0.00389931
0.0720091
0.180246
0.320837
0.51449
0.763385
1.08173
1.45432
1.97582
2.92137
5.02291
11.9562
30.7653
200.42
216.079
0.00447869
0.00337928
0.00284362
0.00242285
0.00208554
0.00181016
0.00118111
0.00389755
0.071749
0.179719
0.32011
0.512631
0.759778
1.07624
1.4469
1.96624
2.9088
5.00745
11.9166
30.8129
196.959
225.083
0.00478412
0.00368458
0.00313422
0.00269614
0.00234088
0.0020476
0.00130566
0.00389254
0.0713932
0.178923
0.318905
0.510026
0.755103
1.0693
1.43763
1.95428
2.89299
4.98763
11.8627
30.8601
192.934
233.99
0.00490881
0.00384889
0.00331925
0.00289404
0.00254592
0.00225515
0.00139616
0.00388394
0.0709418
0.177864
0.317233
0.50669
0.749388
1.06094
1.42655
1.93997
2.87393
4.96334
11.7935
30.9045
188.407
242.716
0.00522946
0.00417118
0.00362964
0.00318968
0.00282593
0.00251949
0.00151019
0.00387135
0.0703944
0.176546
0.31511
0.502647
0.742669
1.05121
1.41372
1.92334
2.85158
4.93448
11.7087
30.943
183.442
251.15
0.00533941
0.00432474
0.00380962
0.00338848
0.00303765
0.00273927
0.00162993
0.00385418
0.0697495
0.174976
0.312552
0.497925
0.73499
1.04016
1.3992
1.90445
2.82593
4.90094
11.6076
30.9715
178.106
259.157
0.00567215
0.00466085
0.00413633
0.00370257
0.00333792
0.00302559
0.00183427
0.00383177
0.0690043
0.173158
0.309581
0.49256
0.7264
1.02786
1.38307
1.88336
2.79698
4.8626
11.4902
30.9846
172.47
266.589
0.00575637
0.00479295
0.00430093
0.00389237
0.00354697
0.0032488
0.00211197
0.00380311
0.0681537
0.171098
0.306219
0.48659
0.716958
1.01437
1.36541
1.86017
2.76473
4.81933
11.3562
30.9762
166.598
273.294
0.00609212
0.00513323
0.00463392
0.00421478
0.00385749
0.0035473
0.0025162
0.00376705
0.0671896
0.1688
0.302486
0.480059
0.706723
0.999761
1.34632
1.83497
2.72923
4.771
11.2057
30.9392
160.558
279.122
0.00615228
0.00524301
0.00477997
0.00439051
0.00405726
0.0037662
0.00298224
0.00372146
0.0660986
0.166263
0.298402
0.473012
0.695762
0.984125
1.32589
1.80788
2.69054
4.71746
11.0387
30.8655
154.407
283.943
0.00648676
0.00558299
0.00511441
0.00471597
0.00437226
0.00407055
0.00349434
0.00366407
0.0648608
0.163483
0.293985
0.465496
0.684144
0.967541
1.30423
1.77902
2.64874
4.65855
10.8557
30.7466
148.201
287.646
0.00651846
0.00566552
0.00523634
0.00487147
0.00455609
0.00427798
0.00389107
0.00358996
0.0634457
0.160447
0.289247
0.45756
0.67194
0.950099
1.28145
1.74854
2.60396
4.59412
10.6568
30.5733
141.989
290.148
0.006839
0.00599236
0.00555944
0.00518743
0.0048634
0.00457648
0.00426776
0.0034991
0.0618081
0.157131
0.28419
0.449247
0.659223
0.931885
1.25766
1.71657
2.55633
4.524
10.4428
30.3367
135.811
291.393
0.00685359
0.0060558
0.00566217
0.00532456
0.00503041
0.00476915
0.00452341
0.00340016
0.0598821
0.153494
0.27881
0.440597
0.646067
0.912993
1.23298
1.68326
2.50603
4.44807
10.2143
30.0278
129.7
291.35
0.00716008
0.00636932
0.00597344
0.00563008
0.0053285
0.00505948
0.00481849
0.00335571
0.0575721
0.149472
0.273082
0.431642
0.632545
0.893512
1.20751
1.64878
2.45326
4.36621
9.97193
29.6387
123.686
290.006
0.00715672
0.00641257
0.00605543
0.00574688
0.00547625
0.00523445
0.00501931
0.00353568
0.054743
0.144965
0.266962
0.4224
0.618724
0.873537
1.18136
1.61326
2.39823
4.27836
9.71672
29.1622
117.787
287.368
0.00744654
0.00670958
0.00635111
0.00603779
0.00576064
0.00551192
0.00528835
0.00402653
0.0512098
0.139827
0.260371
0.412866
0.604667
0.853159
1.15465
1.57687
2.34118
4.1845
9.4496
28.593
112.02
283.452
0.00743063
0.00673707
0.00641563
0.00613624
0.00588987
0.0056687
0.00546777
0.00463297
0.0467332
0.13385
0.253185
0.403007
0.59042
0.832468
1.12747
1.53976
2.28237
4.08467
9.17159
27.9273
106.393
278.285
0.00770414
0.0070177
0.00669556
0.00641205
0.00615975
0.00593213
0.00572376
0.00523084
0.0410514
0.126735
0.245215
0.392746
0.576008
0.81155
1.09993
1.50208
2.22206
3.97901
8.88374
27.1641
100.911
271.901
0.00767679
0.00703045
0.00674334
0.00649253
0.0062704
0.00607023
0.00588597
0.00561307
0.0340018
0.118084
0.236183
0.381941
0.56142
0.790482
1.07214
1.46396
2.16055
3.86773
8.58711
26.3048
95.5748
264.344
0.00793326
0.00729368
0.00700614
0.00675162
0.00652395
0.00631762
0.00612721
0.00592106
0.0258247
0.107394
0.225689
0.370362
0.546591
0.769321
1.04419
1.42557
2.09813
3.75117
8.28272
25.3537
90.3813
255.664
0.00789957
0.00729642
0.0070413
0.00681752
0.00661861
0.0064388
0.00627248
0.00610848
0.0175244
0.0941498
0.213169
0.357656
0.531373
0.748089
1.01616
1.38702
2.03511
3.62977
7.97157
24.3178
85.3238
245.927
0.00814114
0.00754424
0.00728878
0.00706147
0.00685719
0.00667132
0.00649911
0.00633495
0.0109436
0.0780804
0.197864
0.343295
0.515503
0.726745
0.988112
1.34845
1.97182
3.50412
7.65461
23.2069
80.394
235.209
0.00810338
0.00753941
0.00731377
0.00711514
0.00693804
0.00677751
0.00662865
0.00648652
0.00744504
0.0596996
0.178831
0.326521
0.498551
0.70515
0.960086
1.30999
1.9086
3.37495
7.33277
22.0332
75.58
223.609
0.00833019
0.0077719
0.00754589
0.00734388
0.00716158
0.00699511
0.00684044
0.00669395
0.00652552
0.0408702
0.155122
0.306264
0.479862
0.683016
0.932033
1.27173
1.8458
3.24316
7.00701
20.8107
70.8696
211.24
0.00829266
0.0077638
0.00756481
0.00738909
0.00723199
0.00708925
0.00695662
0.0068302
0.00658329
0.0246198
0.12632
0.2811
0.458466
0.659837
0.903794
1.2337
1.78377
3.10982
6.67842
19.5549
66.2487
198.236
0.00850597
0.00798225
0.00778289
0.00760395
0.00744184
0.00729331
0.00715491
0.00702378
0.0068405
0.0137974
0.0936096
0.249352
0.43296
0.634813
0.875023
1.19587
1.72283
2.97615
6.34829
18.282
61.7055
184.749
0.00847102
0.00797347
0.00779841
0.00764338
0.00750442
0.00737787
0.00726006
0.00714764
0.00701956
0.00868253
0.0608883
0.209641
0.401389
0.606736
0.845113
1.15805
1.66321
2.8435
6.01824
17.0084
57.2304
170.946
0.00867161
0.00817871
0.00800327
0.00784519
0.00770147
0.00756935
0.00744589
0.00732867
0.00720942
0.00712307
0.0341127
0.162293
0.361248
0.573836
0.813086
1.11984
1.60504
2.71329
5.6903
15.7501
52.821
157.003
0.00864158
0.00817178
0.00801802
0.00788148
0.00775879
0.0076468
0.00754231
0.00744241
0.00734222
0.00695504
0.0175351
0.111443
0.309988
0.533604
0.777455
1.08052
1.54822
2.58686
5.36698
14.5222
48.4826
143.101
0.00883156
0.00836592
0.00821171
0.00807225
0.00794499
0.00782761
0.00771759
0.00761283
0.00751013
0.00720297
0.0102325
0.065691
0.246741
0.482731
0.736035
1.03895
1.49233
2.46534
5.05116
13.3387
44.2319
129.418
0.00880914
0.00836381
0.0082288
0.00810858
0.00800025
0.0079011