/*--------------------------------*- C++ -*----------------------------------*\
| =========                 |                                                 |
| \\      /  F ield         | OpenFOAM: The Open Source CFD Toolbox           |
|  \\    /   O peration     | Version:  v1912                                 |
|   \\  /    A nd           | Website:  www.openfoam.com                      |
|    \\/     M anipulation  |                                                 |
\*---------------------------------------------------------------------------*/
FoamFile
{
    version     2.0;
    format      ascii;
    class       volScalarField;
    location    "500";
    object      nut;
}
// * * * * * * * * * * * * * * * * * * * * * * * * * * * * * * * * * * * * * //

dimensions      [0 2 -1 0 0 0 0];


internalField   nonuniform List<scalar> 
12441
(
5.82186e-24
1.79047e-20
8.10469e-20
3.32533e-19
1.06828e-18
3.88827e-18
1.01057e-17
2.50052e-17
6.13857e-17
1.27536e-16
3.05686e-16
7.72134e-16
2.17711e-15
7.41533e-15
1.03772e-13
1.89577e-11
0.000193997
0.000930859
0.00299601
0.00261033
0.00364712
0.00775321
6.34181e-24
3.03335e-20
1.11727e-19
4.23929e-19
1.30205e-18
4.80716e-18
1.21983e-17
3.00099e-17
7.36109e-17
1.54458e-16
3.79837e-16
1.03019e-15
2.82267e-15
9.38991e-15
1.1319e-13
3.90152e-11
5.77228e-05
0.00112886
0.00343233
0.00284215
0.00400969
0.00781733
6.36457e-24
3.58937e-20
1.20773e-19
4.4811e-19
1.37768e-18
4.90654e-18
1.29286e-17
3.20404e-17
8.05143e-17
1.71775e-16
4.17919e-16
1.11856e-15
2.77896e-15
7.68003e-15
5.3596e-14
6.57719e-12
1.11017e-05
0.000829671
0.00137104
0.00268195
0.00416291
0.0078909
6.31903e-24
3.76898e-20
1.18528e-19
4.29288e-19
1.32529e-18
4.71335e-18
1.2513e-17
3.1326e-17
7.84936e-17
1.73676e-16
4.23786e-16
1.15509e-15
2.60527e-15
8.48704e-15
3.85443e-14
1.54358e-12
1.62569e-06
0.000579347
0.00102366
0.0026064
0.00432569
0.0079647
6.28501e-24
4.38809e-20
1.29772e-19
4.5829e-19
1.40262e-18
4.77908e-18
1.30903e-17
3.27934e-17
8.42959e-17
1.87525e-16
4.54188e-16
1.28589e-15
3.01241e-15
4.0798e-14
2.47545e-13
2.2988e-12
1.39727e-07
0.000409871
0.00100622
0.00259447
0.00446599
0.00803394
6.23482e-24
4.12859e-20
1.20533e-19
4.29165e-19
1.34264e-18
4.62181e-18
1.27498e-17
3.23916e-17
8.2892e-17
1.92687e-16
4.76971e-16
1.4469e-15
4.52383e-15
1.33085e-12
1.19092e-11
5.10486e-11
4.58775e-07
0.000378462
0.00107533
0.00265138
0.00459193
0.00809948
6.19993e-24
5.02614e-20
1.37788e-19
4.75742e-19
1.46006e-18
4.79216e-18
1.35924e-17
3.44518e-17
9.06992e-17
2.11122e-16
5.20862e-16
2.00193e-15
2.49681e-14
4.15368e-11
6.58754e-10
9.37984e-09
1.87634e-05
0.000401199
0.00126487
0.0028338
0.00473584
0.00816218
6.15014e-24
4.345e-20
1.23165e-19
4.40132e-19
1.40808e-18
4.72249e-18
1.35115e-17
3.4843e-17
9.13162e-17
2.23846e-16
5.72534e-16
5.441e-15
6.08618e-13
2.25659e-09
8.42429e-08
4.98482e-06
0.000196784
0.000466888
0.00171683
0.00320363
0.00492292
0.00822577
6.11737e-24
5.57015e-20
1.46123e-19
4.99647e-19
1.55402e-18
4.95831e-18
1.46108e-17
3.75682e-17
1.02069e-16
2.50942e-16
6.45364e-16
6.14048e-14
2.58458e-11
7.44077e-08
1.04615e-05
0.000156091
0.000821937
0.000845013
0.0026499
0.0038313
0.00518461
0.00829204
6.0705e-24
4.43473e-20
1.25429e-19
4.56603e-19
1.50744e-18
4.95328e-18
1.47465e-17
3.87229e-17
1.04874e-16
2.75117e-16
7.48644e-16
1.68349e-12
1.08111e-09
4.44369e-06
0.000194195
0.000640643
0.0018039
0.00163397
0.00438111
0.00479373
0.0055336
0.00836448
6.04135e-24
6.02572e-20
1.53426e-19
5.25875e-19
1.67261e-18
5.20556e-18
1.6024e-17
4.20317e-17
1.19288e-16
3.17363e-16
8.92091e-16
5.2353e-11
5.49016e-08
8.2876e-05
0.000756099
0.00186726
0.00413955
0.00335174
0.0073946
0.00619363
0.00598303
0.00844366
5.99592e-24
4.46267e-20
1.27729e-19
4.76913e-19
1.63358e-18
5.28057e-18
1.64011e-17
4.4062e-17
1.25493e-16
3.64622e-16
1.15863e-15
1.45798e-09
3.2422e-06
0.000359125
0.00174864
0.00444058
0.00904453
0.00690791
0.0121946
0.00808006
0.00652251
0.00853143
5.97034e-24
6.41465e-20
1.60442e-19
5.53776e-19
1.81484e-18
5.5415e-18
1.79072e-17
4.82183e-17
1.46695e-16
4.44714e-16
1.69457e-15
3.52489e-08
7.31026e-05
0.00117833
0.00458518
0.0103431
0.0186501
0.0135626
0.0189733
0.0104394
0.00714379
0.00862633
5.92634e-24
4.43231e-20
1.29663e-19
4.99282e-19
1.78307e-18
5.69149e-18
1.85311e-17
5.13801e-17
1.59843e-16
5.5914e-16
3.60142e-15
7.97233e-07
0.000358973
0.00323298
0.0107159
0.0214645
0.0348877
0.0243999
0.0274211
0.0131504
0.00781594
0.00872852
5.90399e-24
6.75127e-20
1.66646e-19
5.82586e-19
1.97786e-18
5.93967e-18
2.02675e-17
5.67781e-17
1.96044e-16
7.78683e-16
1.65171e-14
1.52219e-05
0.00123041
0.0080443
0.022143
0.039444
0.0586494
0.0395753
0.0367187
0.0160587
0.00851986
0.00883515
5.86028e-24
4.39568e-20
1.3199e-19
5.24774e-19
1.95767e-18
6.18508e-18
2.12006e-17
6.16745e-17
2.28155e-16
1.21623e-15
3.02162e-13
0.000139533
0.00324217
0.0172508
0.0404465
0.0648573
0.0890723
0.0577869
0.0458505
0.0189672
0.00921995
0.00894576
5.84123e-24
7.05374e-20
1.73496e-19
6.15086e-19
2.17046e-18
6.43906e-18
2.33089e-17
6.93729e-17
3.08214e-16
2.30486e-15
1.26024e-11
0.000549556
0.00778296
0.0323195
0.0657763
0.0969015
0.123202
0.0765072
0.0539144
0.0217374
0.00990204
0.00905718
5.79724e-24
4.35002e-20
1.34486e-19
5.53106e-19
2.16053e-18
6.77111e-18
2.46166e-17
7.72242e-17
4.08444e-16
5.44544e-15
5.4799e-10
0.00148128
0.0162357
0.0539906
0.0975091
0.133102
0.15646
0.0928824
0.0604423
0.0242464
0.0105394
0.00916919
5.78092e-24
7.32611e-20
1.8028e-19
6.491e-19
2.38787e-18
7.01118e-18
2.71807e-17
8.90646e-17
6.6169e-16
1.69224e-14
4.40888e-08
0.00380002
0.0299828
0.0814258
0.133138
0.169764
0.183919
0.104945
0.0653745
0.0264602
0.0111317
0.00927899
5.73635e-24
4.30515e-20
1.36865e-19
5.82375e-19
2.38674e-18
7.43767e-18
2.90055e-17
1.02309e-16
1.08037e-15
7.52688e-14
8.57379e-06
0.00844228
0.049411
0.113283
0.16991
0.202572
0.201842
0.112234
0.069005
0.0283475
0.0116652
0.00938714
5.72333e-24
7.57271e-20
1.86795e-19
6.8315e-19
2.62913e-18
7.67259e-18
3.23022e-17
1.22238e-16
2.19365e-15
7.80163e-13
0.00017106
0.0167634
0.0738427
0.147037
0.203926
0.227894
0.208931
0.115719
0.071712
0.0299435
0.0121528
0.00949146
5.67794e-24
4.24327e-20
1.38566e-19
6.10899e-19
2.63499e-18
8.19279e-18
3.49377e-17
1.46454e-16
4.33992e-15
1.34053e-11
0.000697244
0.0296679
0.10176
0.180563
0.232389
0.243544
0.206564
0.116984
0.0738742
0.0312595
0.012592
0.00959327
5.6676e-24
7.80206e-20
1.92464e-19
7.15457e-19
2.88975e-18
8.41786e-18
3.94311e-17
1.83571e-16
1.02752e-14
1.66096e-10
0.00193686
0.0472634
0.131274
0.211206
0.252767
0.249461
0.198002
0.11746
0.0757315
0.0323561
0.0130067
0.00969106
5.62167e-24
4.1963e-20
1.39787e-19
6.37976e-19
2.90247e-18
9.03709e-18
4.34986e-17
2.31476e-16
2.24191e-14
1.55799e-09
0.00467899
0.0689331
0.160545
0.237338
0.264703
0.247304
0.186927
0.117955
0.0774425
0.0332628
0.0134041
0.00978684
5.61487e-24
8.02736e-20
1.97573e-19
7.45793e-19
3.17108e-18
9.26694e-18
5.0262e-17
3.0641e-16
5.64377e-14
1.37803e-08
0.00979812
0.0932854
0.188028
0.257483
0.268687
0.239852
0.176201
0.118727
0.0790592
0.0340553
0.0138169
0.00987966
5.56714e-24
4.17909e-20
1.40759e-19
6.63844e-19
3.19188e-18
9.99193e-18
5.7149e-17
4.08432e-16
1.30474e-13
3.19001e-07
0.0180833
0.118928
0.212554
0.271537
0.266768
0.229908
0.167322
0.119694
0.0806075
0.0347787
0.0142586
0.00997203
5.56284e-24
8.24825e-20
2.02093e-19
7.73996e-19
3.47279e-18
1.02319e-17
6.84574e-17
5.73328e-16
3.92522e-13
1.87702e-05
0.0297001
0.144388
0.233365
0.279709
0.260871
0.219709
0.160644
0.120689
0.0820674
0.0355158
0.0147655
0.0100634
5.51397e-24
4.18586e-20
1.41218e-19
6.87499e-19
3.50138e-18
1.10683e-17
8.13241e-17
8.10337e-16
1.82984e-12
0.000215146
0.0444126
0.168656
0.250102
0.28318
0.253159
0.210556
0.15588
0.121556
0.0834258
0.036309
0.0153503
0.0101564
5.51305e-24
8.46744e-20
2.05794e-19
7.99201e-19
3.79616e-18
1.13438e-17
1.0251e-16
1.20433e-15
1.28009e-11
0.000740556
0.0614498
0.190883
0.262783
0.282994
0.244945
0.202999
0.152544
0.122209
0.0846483
0.0372226
0.0160428
0.0102507
5.46192e-24
4.20337e-20
1.40963e-19
7.08392e-19
3.83346e-18
1.23041e-17
1.28821e-16
1.79563e-15
7.40875e-11
0.00155704
0.080105
0.210615
0.27172
0.280503
0.237274
0.197055
0.150183
0.122608
0.0857157
0.0382687
0.0168431
0.0103488
5.46303e-24
8.68057e-20
2.08975e-19
8.21788e-19
4.14312e-18
1.26528e-17
1.72472e-16
2.80947e-15
3.5639e-10
0.00285436
0.0995364
0.227526
0.277426
0.276575
0.230477
0.192515
0.148459
0.12276
0.0865953
0.0394703
0.0177645
0.01045
5.41084e-24
4.22459e-20
1.39896e-19
7.26586e-19
4.19069e-18
1.37409e-17
2.30121e-16
4.38934e-15
1.38682e-09
0.00486386
0.119147
0.241585
0.280503
0.27208
0.224774
0.189082
0.147148
0.122687
0.08727
0.040798
0.0187863
0.0105565
5.41505e-24
8.89176e-20
2.11412e-19
8.42373e-19
4.52258e-18
1.4193e-17
3.26391e-16
7.08332e-15
4.74641e-09
0.00790728
0.138303
0.252843
0.281563
0.267417
0.220035
0.186492
0.146111
0.122425
0.0877123
0.0422384
0.0199008
0.010667
5.35939e-24
4.22784e-20
1.37806e-19
7.42855e-19
4.58477e-18
1.5453e-17
4.58232e-16
1.12951e-14
1.44522e-08
0.0123202
0.15665
0.261555
0.281159
0.262986
0.216202
0.184522
0.145274
0.12201
0.0879096
0.0437392
0.0210674
0.0107831
5.36554e-24
8.84572e-20
2.10337e-19
8.57229e-19
4.93654e-18
1.60477e-17
6.77968e-16
1.85066e-14
4.28094e-08
0.0184591
0.173873
0.267993
0.279765
0.258867
0.213068
0.183012
0.144599
0.121484
0.0878405
0.0452796
0.0222654
0.0109032
5.30584e-24
4.14857e-20
1.32573e-19
7.516e-19
5.00994e-18
1.74619e-17
9.80428e-16
2.99168e-14
2.19887e-07
0.0267861
0.189942
0.272539
0.277758
0.255217
0.210551
0.181842
0.144074
0.12088
0.0874988
0.0468186
0.0234468
0.0110282
5.31238e-24
8.52633e-20
2.03825e-19
8.62062e-19
5.38105e-18
1.81864e-17
1.47468e-15
5.74573e-14
1.1733e-05
0.0379028
0.204868
0.275531
0.275427
0.251987
0.208489
0.180939
0.143702
0.120239
0.086872
0.0483629
0.0245928
0.0111563
5.2459e-24
4.16147e-20
1.27323e-19
7.57675e-19
5.48245e-18
1.98562e-17
2.14225e-15
4.65006e-13
0.000248537
0.0527313
0.218861
0.277352
0.272985
0.249255
0.206844
0.180252
0.143496
0.119594
0.0859649
0.0499095
0.0256658
0.0112883
5.24934e-24
5.37901e-20
1.54722e-19
7.99483e-19
5.76881e-18
2.06388e-17
3.20147e-15
2.31285e-11
0.0021592
0.0723932
0.232067
0.278303
0.270581
0.24695
0.205512
0.179764
0.143476
0.118981
0.0847808
0.0515053
0.0266688
0.011422
5.1725e-24
4.32803e-20
1.14471e-19
7.24251e-19
5.94009e-18
2.35435e-17
4.66237e-15
1.03287e-09
0.00953176
0.0976423
0.24467
0.278699
0.268309
0.245151
0.204503
0.179466
0.143666
0.118432
0.0833444
0.0531752
0.0275934
0.0115584
5.16591e-24
1.93952e-21
1.12092e-20
4.00647e-19
5.44901e-18
2.44373e-17
7.2069e-15
1.84884e-07
0.0274467
0.12849
0.256661
0.278768
0.26622
0.243804
0.203755
0.179373
0.144094
0.117976
0.0816844
0.0549587
0.0284773
0.0116955
5.07773e-24
1.71165e-20
4.47724e-20
4.17366e-19
5.46196e-18
3.62048e-17
1.80044e-14
5.63585e-05
0.0604063
0.164405
0.267993
0.278752
0.264317
0.243019
0.203328
0.179505
0.144784
0.117631
0.0798569
0.0567989
0.0293343
0.0118345
5.03898e-24
6.72022e-22
8.45919e-23
2.35241e-19
5.06619e-18
8.28142e-17
3.70767e-13
0.00148459
0.111549
0.204405
0.278406
0.278814
0.26257
0.242748
0.203178
0.179905
0.145758
0.117408
0.0779254
0.0585223
0.0301648
0.011976
4.83818e-24
2.10323e-19
4.5813e-19
1.02951e-18
7.26027e-18
9.13514e-16
7.18196e-12
0.00991971
0.182229
0.247884
0.288072
0.279265
0.260946
0.243095
0.203365
0.180593
0.147016
0.117239
0.0759685
0.0596865
0.0306633
0.0121338
0.00987657
0.0338477
0.0378777
0.0141591
0.0103134
0.00997912
0.0100041
0.0104463
0.0104646
0.0111218
0.0162944
0.0158164
0.0148052
0.0145393
0.0152137
0.0169942
0.0192611
0.0205607
0.0191197
0.0150734
0.012377
0.0115886
0.0115468
0.0118744
0.0124767
0.0131333
0.0137024
0.0142016
0.0146913
0.0154942
0.016047
0.0159285
0.0187121
0.112048
0.181881
0.00986353
0.0344599
0.0368829
0.0138185
0.0102345
0.00987766
0.0101084
0.0105795
0.010511
0.0111569
0.0159577
0.0154087
0.0144523
0.0141715
0.0148075
0.0165844
0.0190064
0.0206206
0.0193999
0.0151802
0.0122659
0.0113896
0.0112994
0.0115891
0.0121807
0.0128574
0.0134627
0.0139893
0.0144899
0.0152932
0.0158633
0.0157448
0.0183203
0.111497
0.181753
0.00983842
0.0350265
0.0351507
0.0132342
0.0102273
0.00978807
0.0103718
0.0108647
0.0106472
0.0112577
0.0147822
0.0140821
0.0134105
0.0130787
0.0132661
0.0144052
0.0163528
0.0180813
0.0177427
0.014371
0.0117913
0.0109393
0.0107974
0.0110251
0.0115886
0.012294
0.0129682
0.0135547
0.0140843
0.0148896
0.0154923
0.0153689
0.0180996
0.110476
0.181437
0.00979929
0.0355372
0.0329473
0.0127148
0.0103462
0.00980515
0.0107595
0.0111764
0.010852
0.0114411
0.0135128
0.0126281
0.0122253
0.011974
0.0117834
0.0121165
0.0131914
0.0146163
0.0150949
0.012992
0.0110401
0.0102812
0.0100863
0.0102292
0.0107368
0.0114591
0.0122218
0.0129007
0.0134817
0.0142919
0.0149427
0.0148035
0.0179173
0.108968
0.180932
0.00974597
0.0358529
0.0304242
0.0122331
0.010474
0.00984225
0.0111326
0.0114005
0.0110198
0.0115941
0.0124358
0.0113989
0.0112695
0.0112172
0.0107731
0.0103587
0.0104718
0.011277
0.0121886
0.0113242
0.0100911
0.00946526
0.00922318
0.00926641
0.00968531
0.0103921
0.0112407
0.0120389
0.0126972
0.0135169
0.0142295
0.0140604
0.0176752
0.106963
0.18025
0.00967615
0.0358519
0.0276998
0.0117025
0.0105165
0.00981463
0.0113763
0.0114678
0.0110613
0.011595
0.0115241
0.0104063
0.010541
0.0107141
0.0101349
0.00914437
0.00842654
0.00851764
0.00946132
0.00956456
0.00901129
0.00854101
0.00826695
0.008209
0.0085114
0.00915536
0.0100599
0.0109898
0.0117522
0.0125885
0.0133735
0.0131602
0.0173041
0.104455
0.179416
0.00959042
0.0354529
0.0248985
0.0110925
0.0104504
0.00969652
0.0114425
0.0113606
0.0109389
0.0113834
0.0106728
0.00953479
0.00987943
0.0102259
0.00960766
0.00825319
0.00693945
0.00640512
0.00710438
0.00782798
0.00785144
0.00755203
0.0072706
0.00712508
0.00729772
0.00783067
0.00873552
0.009785
0.0106734
0.0115358
0.0123996
0.0121318
0.0167594
0.101448
0.178459
0.00948687
0.0345934
0.0221481
0.0104323
0.0103042
0.00950749
0.0113413
0.0111003
0.0106619
0.0109642
0.00981157
0.00869171
0.00915929
0.00959702
0.00900501
0.00748251
0.00582149
0.00484543
0.0051735
0.00617956
0.00665163
0.0065348
0.00627707
0.00607084
0.00612006
0.00650828
0.00734428
0.00847116
0.00949387
0.0103924
0.0113366
0.0110113
0.0160181
0.0979538
0.177412
0.00936733
0.0332606
0.0195576
0.00977824
0.0101263
0.00928739
0.0111153
0.0107284
0.0102647
0.0103829
0.00892911
0.00784391
0.00834474
0.00880371
0.00827341
0.00673285
0.00493678
0.00372648
0.00368851
0.00468425
0.00545445
0.00552241
0.00532001
0.00508772
0.0050383
0.00527328
0.00597745
0.00711193
0.0082544
0.00919514
0.0102157
0.00984009
0.0150755
0.0939961
0.176312
0.0092307
0.0314609
0.0172087
0.00918763
0.00996566
0.00907927
0.0108194
0.010294
0.00979377
0.00970191
0.00804937
0.00699929
0.00745817
0.00789562
0.00743876
0.00597993
0.0042108
0.00295566
0.00265526
0.00343286
0.00432031
0.004551
0.00442772
0.0042045
0.00409307
0.00419324
0.00472799
0.00578724
0.00700536
0.00798452
0.00907046
0.00866238
0.0139435
0.0896101
0.175194
0.00908003
0.0292488
0.0151518
0.00870627
0.00986318
0.00892168
0.0105086
0.00984537
0.00929605
0.00898464
0.00720907
0.00618413
0.00654303
0.00693976
0.00655367
0.00523355
0.00360566
0.00245323
0.00203559
0.00251494
0.00333151
0.00366553
0.00362786
0.00344173
0.00330768
0.00331135
0.00367458
0.00458558
0.00580755
0.00680453
0.00793549
0.00752236
0.0126498
0.0848452
0.174095
0.00891508
0.0266931
0.0134157
0.00836656
0.00985244
0.00884654
0.0102334
0.00942753
0.0088157
0.00828752
0.00644427
0.00542827
0.00564326
0.0059884
0.00566436
0.00450993
0.00309795
0.00214265
0.00173529
0.00195587
0.00256923
0.00291769
0.00294913
0.00281466
0.00269134
0.00264502
0.00286755
0.00358887
0.004729
0.00570265
0.00684655
0.00646108
0.0112371
0.0797702
0.173052
0.00874002
0.0239039
0.0120122
0.00818979
0.00996221
0.00887978
0.0100375
0.00907893
0.00839082
0.00765636
0.0057831
0.00475986
0.00479943
0.00507757
0.00480597
0.00382545
0.00267109
0.00195224
0.00163562
0.00169384
0.00206944
0.00235022
0.002416
0.00233202
0.00224045
0.00218698
0.0023202
0.00285285
0.00383526
0.00472764
0.00583981
0.00551376
0.00976371
0.0744785
0.172098
0.00855535
0.0209988
0.0109443
0.00818974
0.01022
0.00904361
0.00995744
0.00883155
0.00805349
0.00712606
0.00524511
0.00420082
0.00404793
0.00423329
0.00400701
0.00319909
0.00231279
0.00182107
0.00162711
0.00162057
0.00180029
0.00197378
0.00203756
0.00199108
0.00193857
0.00190886
0.00200882
0.0023912
0.00317332
0.00392368
0.00495038
0.00470755
0.0083018
0.0690971
0.17127
0.00836592
0.0181197
0.0102057
0.0083764
0.0106552
0.00935994
0.0100241
0.00871132
0.00782885
0.00672118
0.00484282
0.00376666
0.00341935
0.00348339
0.00329557
0.00265478
0.00201557
0.00170695
0.00162823
0.00162944
0.00168689
0.00175949
0.00179976
0.00177494
0.00175938
0.00177098
0.00188553
0.00217494
0.00275639
0.00332068
0.0042092
0.00405982
0.00693305
0.063794
0.170602
0.00817267
0.0154004
0.00978325
0.00876035
0.011302
0.00985769
0.0102666
0.00874037
0.00773691
0.00645772
0.00458235
0.0034646
0.00293394
0.00285777
0.00270005
0.00221664
0.00177646
0.00159038
0.00159459
0.0016408
0.00165022
0.00165597
0.00167046
0.00165667
0.00167373
0.00173516
0.00189841
0.00215036
0.00256122
0.00292522
0.00363797
0.00357713
0.00573995
0.0587841
0.170132
0.00798033
0.0129714
0.00966376
0.00935854
0.0122031
0.0105786
0.010718
0.00894148
0.00779472
0.00634615
0.00446574
0.00329666
0.00260005
0.00237989
0.00224249
0.00189689
0.00159472
0.00147354
0.00152012
0.00161601
0.00163265
0.00161317
0.00161298
0.00160781
0.0016565
0.00177307
0.00200506
0.00226005
0.00254132
0.00271904
0.00324403
0.00325531
0.00479217
0.0543247
0.169903
0.00778933
0.0109416
0.00985049
0.0102021
0.0134119
0.0115825
0.011421
0.00934451
0.00802123
0.00639594
0.00449545
0.00325975
0.0024142
0.00205804
0.00192876
0.00168808
0.00146735
0.0013705
0.00142561
0.00155592
0.00160788
0.00159709
0.00159777
0.0016054
0.00169005
0.00186756
0.00217615
0.00245436
0.00264437
0.00266756
0.00301884
0.00308108
0.00413203
0.0506935
0.169958
0.00760307
0.00937942
0.0103797
0.0113356
0.0149974
0.0129505
0.0124325
0.0099912
0.00844108
0.00661995
0.00467719
0.00335106
0.0023667
0.00188313
0.00174341
0.00156515
0.00138539
0.0012943
0.00134063
0.00148554
0.00157706
0.00159301
0.00160704
0.00163484
0.00176442
0.00201004
0.00239313
0.00269554
0.00282413
0.00273174
0.00294175
0.00303547
0.00376745
0.0481425
0.170344
0.00742066
0.0082946
0.0113397
0.0128156
0.0170441
0.0147836
0.013824
0.0109377
0.00908817
0.0070384
0.00502505
0.00356988
0.00244594
0.00183393
0.00165695
0.00149773
0.0013351
0.00124791
0.00128515
0.00143244
0.00155467
0.00160001
0.00163353
0.00168939
0.00187574
0.00219667
0.00264408
0.00295797
0.00304625
0.00287719
0.00298691
0.00309808
0.00367924
0.0468461
0.171099
0.00724378
0.0076453
0.0128661
0.0147182
0.0196501
0.0171972
0.0156783
0.0122526
0.0100056
0.00768018
0.00556323
0.00392462
0.00264449
0.00188649
0.00163641
0.00145956
0.00130271
0.00122526
0.00126348
0.00141252
0.00155457
0.00162235
0.00167609
0.00176774
0.00202402
0.00242518
0.00292028
0.00322639
0.00328968
0.00307866
0.00312937
0.00325117
0.00383905
0.0468773
0.172253
0.00707145
0.00736858
0.0151344
0.0171453
0.022929
0.0203161
0.0180851
0.0140114
0.0112434
0.00858121
0.00632619
0.00443385
0.00296193
0.00202046
0.00165563
0.00143544
0.0012799
0.00121764
0.00126819
0.00142685
0.00158226
0.00166287
0.00173569
0.00187147
0.00221089
0.00269278
0.00321448
0.00349355
0.00354502
0.00332098
0.00334893
0.00348253
0.00422624
0.0482266
0.17382
0.00690537
0.00740075
0.0183407
0.0202415
0.0270197
0.0242769
0.0211409
0.0162907
0.0128537
0.00977844
0.00735023
0.00512803
0.00341026
0.00222615
0.00169875
0.00142007
0.00126524
0.00122028
0.00128963
0.0014674
0.0016349
0.00172083
0.00181318
0.00200332
0.00243803
0.00299516
0.00352037
0.00375795
0.0038116
0.0035977
0.00363178
0.00378711
0.00483702
0.0508406
0.175796
0.00674534
0.00769174
0.0226769
0.0242185
0.0321033
0.0292398
0.0249527
0.0191641
0.0148843
0.0113008
0.00866024
0.00603655
0.00401025
0.0025079
0.00176335
0.00141635
0.0012625
0.001234
0.00132192
0.00152366
0.00170477
0.00179281
0.00190915
0.00216621
0.00270595
0.00332653
0.00383305
0.00402216
0.00409442
0.0039088
0.00397073
0.00416743
0.00568695
0.0546497
0.178165
0.00659312
0.00820166
0.0282982
0.0293746
0.0384121
0.0353907
0.0296362
0.0226949
0.0173687
0.0131571
0.0102514
0.00717221
0.00477755
0.00288677
0.00185838
0.00143038
0.00127713
0.00126367
0.00136566
0.00158828
0.00178379
0.00187496
0.00202437
0.00236294
0.0030135
0.00368018
0.0041495
0.0042914
0.00440181
0.00425858
0.00436475
0.00463348
0.0068095
0.0595775
0.180901
0.00644962
0.00890277
0.0352946
0.0360919
0.046212
0.0429106
0.0352904
0.026916
0.0203098
0.0153223
0.0120756
0.0085079
0.00570279
0.00338491
0.00200327
0.00147118
0.00131494
0.00131512
0.00142514
0.00165793
0.00186574
0.00196465
0.00216051
0.00259589
0.00335768
0.00404956
0.00446898
0.00457268
0.00474376
0.00465407
0.00481833
0.00520219
0.00825354
0.065539
0.183971
0.00631698
0.00977339
0.0436701
0.0447956
0.0557457
0.0518985
0.0419388
0.0317906
0.0236535
0.0177219
0.0140347
0.00996984
0.00673549
0.00399743
0.00221713
0.00154824
0.00138153
0.00139403
0.00150663
0.00173318
0.00194737
0.00206134
0.00232023
0.00286686
0.00373406
0.00442917
0.004793
0.00487392
0.00513091
0.00510407
0.00534094
0.00589698
0.0100806
0.072437
0.187344
0.00619775
0.0108063
0.0533856
0.0558896
0.0671486
0.0622675
0.0494525
0.0371654
0.0272619
0.0202215
0.0159841
0.0114385
0.00778159
0.00467204
0.00250464
0.00167136
0.00148323
0.00150548
0.00161551
0.00181628
0.0020276
0.00216653
0.00250721
0.00317671
0.00413726
0.00481539
0.0051251
0.00520347
0.00557404
0.00561874
0.00594661
0.00674737
0.0123622
0.080159
0.190987
0.00609509
0.0120082
0.0644392
0.0696866
0.0803591
0.073657
0.0574871
0.0427375
0.0308978
0.0226269
0.0177457
0.0127687
0.00872668
0.00532041
0.00283837
0.00184351
0.00162578
0.00165429
0.0017568
0.00191133
0.00210765
0.00228351
0.00272569
0.00352529
0.00456191
0.00520679
0.00547031
0.00556968
0.00608384
0.00620959
0.00665381
0.00778881
0.0151767
0.0885798
0.194869
0.00601408
0.0134152
0.0769496
0.0863269
0.0950339
0.0853949
0.0654675
0.0480582
0.0342365
0.0246991
0.019129
0.0138073
0.00945532
0.00584503
0.00316472
0.00205683
0.00181244
0.00184381
0.00193325
0.00202305
0.00219044
0.00241706
0.00298021
0.00391132
0.00500331
0.00560417
0.00583467
0.00598058
0.00667096
0.0068897
0.0074854
0.00906255
0.0186058
0.097565
0.198965
0.00596079
0.0150911
0.0911335
0.105618
0.110455
0.0965147
0.0726286
0.0525736
0.0368992
0.0261833
0.0199538
0.0144183
0.00987143
0.00616475
0.00342275
0.00228946
0.00204012
0.0020743
0.00214583
0.00215757
0.0022815
0.00257336
0.00327505
0.00433265
0.00545817
0.00601023
0.00622461
0.0064436
0.00734621
0.00767415
0.00846881
0.0106158
0.0227303
0.106979
0.203249
0.00594609
0.0171396
0.107186
0.126778
0.125453
0.105837
0.0781143
0.0557045
0.0385122
0.0268469
0.0200764
0.0144967
0.0099075
0.00622613
0.00356863
0.00251504
0.00229861
0.00234013
0.00239027
0.00232016
0.0023886
0.00275981
0.00361402
0.00478635
0.00592489
0.00642915
0.00664654
0.00696546
0.00812083
0.0085804
0.00963625
0.0125015
0.0276253
0.11669
0.207701
0.00598322
0.0196881
0.12502
0.148197
0.138442
0.112137
0.0811237
0.0569486
0.0387728
0.0265219
0.0194134
0.0139871
0.00953489
0.006012
0.00358481
0.00271074
0.00257202
0.00262961
0.00265762
0.00251452
0.00252229
0.00298503
0.0039998
0.0052692
0.00640377
0.00686598
0.00710631
0.00755198
0.00900687
0.00962885
0.0110252
0.0147789
0.033356
0.126581
0.212303
0.00609167
0.0228912
0.144002
0.167489
0.147653
0.114399
0.0810891
0.0559939
0.0375194
0.0251438
0.0179631
0.0128925
0.00876694
0.00554294
0.00348348
0.00286621
0.00284382
0.00292593
0.00293248
0.00273909
0.00269446
0.00325834
0.0044338
0.00577783
0.00689662
0.00732616
0.00760899
0.00820813
0.0100177
0.0108433
0.0126787
0.0175129
0.0399738
0.136551
0.217044
0.00628805
0.0268957
0.162814
0.181988
0.151576
0.112096
0.0778273
0.0528045
0.0347765
0.0227769
0.0158188
0.011287
0.00766561
0.00488056
0.00329897
0.00298215
0.00310026
0.00321173
0.00319816
0.00298735
0.00291745
0.00358922
0.00491542
0.00630892
0.00740649
0.00781497
0.00815854
0.00893806
0.0111683
0.0122513
0.0146464
0.0207746
0.0475142
0.146523
0.221917
0.00658505
0.0318425
0.179697
0.189559
0.149413
0.105357
0.0716104
0.0476509
0.0307684
0.0196164
0.01317
0.00931853
0.00634275
0.00412157
0.00307843
0.00306878
0.00333234
0.00347149
0.00343843
0.00324723
0.00320095
0.00398566
0.00544183
0.00685892
0.00793693
0.00833721
0.00875784
0.00974537
0.0124762
0.0138852
0.0169847
0.024641
0.0559966
0.156444
0.226924
0.00697682
0.0377828
0.192878
0.189241
0.141319
0.0949497
0.0631053
0.0410556
0.0258799
0.0159666
0.0102916
0.00721185
0.0049613
0.00338471
0.00286768
0.00313861
0.00353472
0.00369488
0.00364374
0.00350643
0.00354993
0.0044524
0.00600728
0.00742386
0.00849145
0.00889685
0.00940864
0.0106334
0.0139613
0.0157819
0.0197582
0.0291955
0.0654271
0.16629
0.232075
0.00744499
0.0446197
0.200988
0.181372
0.128299
0.0820573
0.0532102
0.0336805
0.0205877
0.0121981
0.00751564
0.00524535
0.00371511
0.00277678
0.00270211
0.0032034
0.00370411
0.00387551
0.00381001
0.00375483
0.00396169
0.00498803
0.00660294
0.00799879
0.00907272
0.00949684
0.010112
0.011606
0.015647
0.0179842
0.0230401
0.0345286
0.0758021
0.176063
0.237388
0.00795396
0.0518499
0.203083
0.16719
0.111841
0.0679767
0.0428504
0.026192
0.0153787
0.00869613
0.00517298
0.00368545
0.00277346
0.00235711
0.00260046
0.00326892
0.00383765
0.00401151
0.00394109
0.0039901
0.00442689
0.0055833
0.0072168
0.00857767
0.00968219
0.0101391
0.0108685
0.0126677
0.0175609
0.0205412
0.0269135
0.0407385
0.0871159
0.185792
0.242893
0.00846726
0.0584673
0.198573
0.148312
0.0935127
0.0538587
0.0328179
0.0191638
0.0106883
0.00580009
0.00349036
0.00266699
0.0021987
0.00212494
0.00256482
0.00333494
0.00393188
0.0041021
0.00404373
0.00421651
0.00493133
0.00622017
0.00783447
0.00915337
0.0103195
0.0108243
0.0116791
0.0138254
0.0197349
0.023509
0.0314724
0.0479335
0.0993674
0.195534
0.24863
0.00894498
0.062892
0.187099
0.126341
0.0746803
0.0405663
0.0236928
0.013029
0.00685754
0.00372511
0.00248401
0.00213102
0.00193062
0.0020399
0.00258101
0.00339387
0.0039826
0.00414785
0.00412815
0.00444716
0.00546187
0.00687496
0.00844079
0.00971844
0.0109824
0.0115521
0.0125455
0.0150884
0.0222066
0.0269512
0.0368221
0.0562328
0.112569
0.205367
0.254649
0.0093615
0.0634817
0.168644
0.102766
0.0564285
0.0286767
0.0158557
0.00808502
0.0040983
0.00247449
0.00197533
0.0019067
0.00185188
0.00204322
0.00262498
0.003435
0.0039849
0.0041475
0.0042022
0.00469962
0.00601071
0.0075233
0.0090226
0.0102662
0.0116667
0.0123206
0.0134702
0.0164698
0.0250201
0.0309401
0.0430798
0.0657689
0.126753
0.215391
0.261007
0.0096768
0.0588098
0.143579
0.0789928
0.0396569
0.0185858
0.00956051
0.00451477
0.0024268
0.00183231
0.0017409
0.00182397
0.00184648
0.00207749
0.00267298
0.00344724
0.00393417
0.00409962
0.00427227
0.00499658
0.00658155
0.00814855
0.00957193
0.0107923
0.0123669
0.0131261
0.0144564
0.0179868
0.0282269
0.0355566
0.050374
0.0766887
0.141978
0.225721
0.267764
0.00988074
0.0487036
0.113098
0.0563214
0.0251315
0.0105654
0.00496904
0.0023371
0.00158323
0.0015149
0.00160605
0.00175098
0.00182193
0.00209634
0.0027055
0.00341874
0.00382434
0.00399976
0.004338
0.0053591
0.00719113
0.0087471
0.0100891
0.0112964
0.013076
0.0139622
0.0155065
0.0196604
0.0318878
0.0408907
0.058843
0.0891543
0.158337
0.236487
0.274983
4.88224e-24
3.15088e-19
1.14007e-18
4.30225e-18
2.49289e-17
3.14481e-14
9.01044e-11
0.0373874
0.249253
0.28178
0.294538
0.279941
0.259824
0.243849
0.203791
0.181431
0.148271
0.117008
0.0745225
0.0598981
0.0302897
0.0121389
4.99588e-24
7.39289e-20
8.34654e-20
6.2349e-18
6.22569e-17
2.44948e-13
9.20107e-10
0.0711446
0.295051
0.302331
0.29754
0.280213
0.259135
0.244601
0.204372
0.182228
0.149419
0.116904
0.0738299
0.0596785
0.0298648
0.0121866
5.10206e-24
2.76607e-19
8.77692e-19
8.89432e-18
1.2205e-16
9.25775e-13
9.29138e-09
0.111525
0.336009
0.319201
0.299494
0.280349
0.258598
0.245495
0.205185
0.183202
0.150792
0.116896
0.073525
0.0590798
0.0293387
0.0123441
5.06177e-24
5.72567e-20
2.14768e-20
6.84909e-18
1.92174e-16
2.27563e-12
1.6947e-07
0.154145
0.371272
0.332809
0.301004
0.280507
0.258312
0.246594
0.206281
0.184328
0.152345
0.116995
0.0735971
0.0581349
0.0287457
0.0126004
5.16571e-24
2.21306e-19
6.32252e-19
7.23109e-18
2.88191e-16
3.60897e-12
6.55977e-06
0.192357
0.400671
0.34361
0.3025
0.280809
0.25837
0.247876
0.207628
0.18559
0.154026
0.117202
0.0740127
0.0569162
0.0281315
0.0129469
5.11385e-24
4.59222e-20
1.20676e-20
4.61566e-18
4.09771e-16
4.87131e-12
1.86747e-05
0.218946
0.424332
0.352122
0.304338
0.281386
0.258847
0.249417
0.209281
0.186969
0.155782
0.117512
0.0747353
0.0554826
0.0275061
0.0134008
5.22924e-24
1.78689e-19
4.73395e-19
4.63736e-18
5.80447e-16
5.06196e-12
3.45421e-05
0.230434
0.442604
0.358775
0.306715
0.282327
0.259806
0.251194
0.211207
0.188469
0.157561
0.117922
0.0757084
0.0539182
0.0268954
0.0139758
5.17006e-24
3.80395e-20
7.88076e-21
2.78012e-18
7.72245e-16
4.37636e-12
2.58377e-05
0.22783
0.455777
0.363979
0.309788
0.283733
0.261291
0.25329
0.213468
0.190091
0.159321
0.118418
0.076882
0.0522799
0.026297
0.0146897
5.29795e-24
1.46658e-19
3.69574e-19
2.86167e-18
9.86022e-16
2.88072e-12
2.74551e-05
0.214796
0.464112
0.367998
0.313587
0.285654
0.263333
0.25568
0.216031
0.19186
0.161035
0.11899
0.0781933
0.0506427
0.0257303
0.0155463
5.2234e-24
3.24406e-20
5.88762e-21
1.68691e-18
1.14788e-15
1.68895e-12
3.5334e-05
0.1948
0.467636
0.371029
0.318134
0.288155
0.265947
0.25844
0.218963
0.1938
0.162694
0.119623
0.0795955
0.0490487
0.0251863
0.0165491
5.35776e-24
1.21931e-19
2.97403e-19
1.84235e-18
1.25233e-15
8.52512e-13
4.01746e-05
0.170124
0.466242
0.373105
0.323343
0.291254
0.26914
0.261532
0.222228
0.195954
0.164312
0.120306
0.0810338
0.0475565
0.0246806
0.0176841
5.27105e-24
2.84269e-20
4.69189e-21
1.08055e-18
1.23877e-15
4.16461e-13
4.11264e-05
0.142875
0.459557
0.374175
0.329135
0.294988
0.272906
0.26502