/*--------------------------------*- C++ -*----------------------------------*\
| =========                 |                                                 |
| \\      /  F ield         | OpenFOAM: The Open Source CFD Toolbox           |
|  \\    /   O peration     | Version:  v1912                                 |
|   \\  /    A nd           | Website:  www.openfoam.com                      |
|    \\/     M anipulation  |                                                 |
\*---------------------------------------------------------------------------*/
FoamFile
{
    version     2.0;
    format      ascii;
    class       surfaceScalarField;
    location    "500";
    object      phi;
}
// * * * * * * * * * * * * * * * * * * * * * * * * * * * * * * * * * * * * * //

dimensions      [0 3 -1 0 0 0 0];
oriented        oriented;


internalField   nonuniform List<scalar> 
24588
(
6.81682e-05
1.99532e-08
6.81139e-05
5.47087e-08
6.80285e-05
8.50121e-08
6.79122e-05
1.1619e-07
6.77611e-05
1.50795e-07
6.75707e-05
1.90373e-07
6.73348e-05
2.35977e-07
6.70393e-05
2.95465e-07
6.66738e-05
3.65973e-07
6.62201e-05
4.52917e-07
6.56537e-05
5.6787e-07
6.4987e-05
6.91419e-07
6.40171e-05
8.77884e-07
6.29413e-05
1.17313e-06
6.14911e-05
1.43855e-06
5.91652e-05
2.31651e-06
5.6245e-05
2.91818e-06
5.14102e-05
4.83512e-06
4.46758e-05
6.73448e-06
3.34623e-05
1.12131e-05
1.98518e-05
1.36105e-05
1.98518e-05
6.81685e-05
4.03933e-08
6.81137e-05
1.09974e-07
6.80284e-05
1.69842e-07
6.79123e-05
2.32158e-07
6.77613e-05
3.01426e-07
6.75708e-05
3.80751e-07
6.7335e-05
4.7191e-07
6.70394e-05
5.91059e-07
6.66743e-05
7.31662e-07
6.62201e-05
9.06263e-07
6.56559e-05
1.13381e-06
6.49912e-05
1.38419e-06
6.40078e-05
1.75919e-06
6.29539e-05
2.32291e-06
6.14981e-05
2.88243e-06
5.92356e-05
4.56982e-06
5.6257e-05
5.89332e-06
5.13789e-05
9.71359e-06
4.47229e-05
1.33905e-05
3.33659e-05
2.25696e-05
1.98157e-05
2.71607e-05
3.96676e-05
6.81685e-05
6.08348e-08
6.81137e-05
1.65238e-07
6.80284e-05
2.54707e-07
6.79122e-05
3.48171e-07
6.77613e-05
4.52082e-07
6.75708e-05
5.71092e-07
6.73349e-05
7.07859e-07
6.70394e-05
8.8663e-07
6.66742e-05
1.09737e-06
6.62203e-05
1.35925e-06
6.56547e-05
1.70111e-06
6.49929e-05
2.07512e-06
6.40064e-05
2.63904e-06
6.29417e-05
3.50147e-06
6.14824e-05
4.32785e-06
5.92597e-05
6.78239e-06
5.62478e-05
8.90067e-06
5.13972e-05
1.45649e-05
4.46993e-05
2.00886e-05
3.3388e-05
3.38803e-05
1.98363e-05
4.07123e-05
5.95039e-05
6.81685e-05
8.12772e-08
6.81137e-05
2.20477e-07
6.80284e-05
3.39528e-07
6.79123e-05
4.6414e-07
6.77613e-05
6.02703e-07
6.75708e-05
7.61476e-07
6.7335e-05
9.43814e-07
6.70394e-05
1.18225e-06
6.66742e-05
1.46313e-06
6.622e-05
1.81262e-06
6.56554e-05
2.26755e-06
6.49895e-05
2.769e-06
6.40095e-05
3.51808e-06
6.29526e-05
4.65036e-06
6.14902e-05
5.77888e-06
5.9288e-05
8.97641e-06
5.62747e-05
1.19102e-05
5.14121e-05
1.94279e-05
4.46892e-05
2.68116e-05
3.34175e-05
4.51514e-05
1.98704e-05
5.42593e-05
7.93744e-05
6.81685e-05
1.01714e-07
6.81137e-05
2.75703e-07
6.80284e-05
4.24389e-07
6.79122e-05
5.80169e-07
6.77613e-05
7.5336e-07
6.75708e-05
9.5181e-07
6.73349e-05
1.17978e-06
6.70394e-05
1.47783e-06
6.66742e-05
1.82889e-06
6.62202e-05
2.26569e-06
6.56544e-05
2.83507e-06
6.49924e-05
3.45951e-06
6.40083e-05
4.39556e-06
6.29404e-05
5.83253e-06
6.1477e-05
7.22777e-06
5.92895e-05
1.11537e-05
5.62965e-05
1.48986e-05
5.14134e-05
2.43119e-05
4.47071e-05
3.35181e-05
3.34637e-05
5.63942e-05
1.99192e-05
6.78038e-05
9.92937e-05
6.81685e-05
1.22156e-07
6.81137e-05
3.30908e-07
6.80284e-05
5.09189e-07
6.79123e-05
6.96131e-07
6.77613e-05
9.03962e-07
6.75709e-05
1.14219e-06
6.7335e-05
1.41575e-06
6.70394e-05
1.77346e-06
6.66742e-05
2.1947e-06
6.62199e-05
2.71915e-06
6.56554e-05
3.40146e-06
6.49879e-05
4.15465e-06
6.40109e-05
5.27443e-06
6.2953e-05
6.97712e-06
6.14863e-05
8.68353e-06
5.92979e-05
1.33342e-05
5.6316e-05
1.78767e-05
5.14259e-05
2.92024e-05
4.47386e-05
4.02052e-05
3.35299e-05
6.76023e-05
1.99848e-05
8.13489e-05
0.000119278
6.81685e-05
1.42591e-07
6.81137e-05
3.86099e-07
6.80284e-05
5.94039e-07
6.79122e-05
8.12172e-07
6.77613e-05
1.0546e-06
6.75708e-05
1.3325e-06
6.7335e-05
1.65173e-06
6.70394e-05
2.06904e-06
6.66742e-05
2.56048e-06
6.62201e-05
3.17229e-06
6.56545e-05
3.96883e-06
6.49927e-05
4.8441e-06
6.40097e-05
6.15152e-06
6.29388e-05
8.164e-06
6.14728e-05
1.01336e-05
5.92854e-05
1.55118e-05
5.63287e-05
2.08296e-05
5.14476e-05
3.40844e-05
4.47873e-05
4.68657e-05
3.36237e-05
7.87654e-05
2.00702e-05
9.49023e-05
0.000139349
6.81685e-05
1.63032e-07
6.81137e-05
4.41274e-07
6.80284e-05
6.78819e-07
6.79123e-05
9.28124e-07
6.77614e-05
1.20518e-06
6.75709e-05
1.52288e-06
6.73351e-05
1.88769e-06
6.70395e-05
2.36467e-06
6.66743e-05
2.92631e-06
6.62199e-05
3.62579e-06
6.56557e-05
4.53496e-06
6.49862e-05
5.54088e-06
6.40114e-05
7.0329e-06
6.29524e-05
9.30335e-06
6.14752e-05
1.15986e-05
5.92795e-05
1.76996e-05
5.63499e-05
2.37564e-05
5.14983e-05
3.89363e-05
4.48716e-05
5.34923e-05
3.37575e-05
8.98791e-05
2.01797e-05
0.00010848
0.000159529
6.81685e-05
1.83465e-07
6.81137e-05
4.96432e-07
6.80284e-05
7.63659e-07
6.79123e-05
1.04417e-06
6.77613e-05
1.3558e-06
6.75709e-05
1.71317e-06
6.7335e-05
2.12367e-06
6.70395e-05
2.66025e-06
6.66743e-05
3.29207e-06
6.62202e-05
4.07901e-06
6.56547e-05
5.10209e-06
6.49935e-05
6.22849e-06
6.40108e-05
7.90994e-06
6.29299e-05
1.04983e-05
6.14376e-05
1.30773e-05
5.92744e-05
1.9856e-05
5.63584e-05
2.66705e-05
5.1608e-05
4.36873e-05
4.50147e-05
6.00859e-05
3.39439e-05
0.00010095
2.03178e-05
0.000122106
0.000179846
6.81684e-05
2.03905e-07
6.81137e-05
5.51577e-07
6.80285e-05
8.48421e-07
6.79123e-05
1.16011e-06
6.77614e-05
1.50635e-06
6.7571e-05
1.90353e-06
6.73351e-05
2.35962e-06
6.70395e-05
2.95588e-06
6.66744e-05
3.65787e-06
6.622e-05
4.53256e-06
6.56564e-05
5.66761e-06
6.49837e-05
6.92795e-06
6.40053e-05
8.80354e-06
6.29232e-05
1.16532e-05
6.14141e-05
1.45749e-05
5.93026e-05
2.19626e-05
5.63764e-05
2.95955e-05
5.17827e-05
4.8281e-05
4.52219e-05
6.66466e-05
3.4188e-05
0.000111983
2.04882e-05
0.000135806
0.000200335
6.81685e-05
2.24335e-07
6.81137e-05
6.06705e-07
6.80284e-05
9.33257e-07
6.79123e-05
1.27616e-06
6.77614e-05
1.65696e-06
6.75709e-05
2.09379e-06
6.73351e-05
2.59558e-06
6.70396e-05
3.25144e-06
6.66745e-05
4.02351e-06
6.62202e-05
4.98593e-06
6.56562e-05
6.23328e-06
6.49905e-05
7.61827e-06
6.40126e-05
9.68181e-06
6.29066e-05
1.28516e-05
6.13951e-05
1.608e-05
5.9339e-05
2.40168e-05
5.64188e-05
3.25151e-05
5.19904e-05
5.27099e-05
4.54671e-05
7.31701e-05
3.44815e-05
0.000122969
2.06923e-05
0.000149595
0.000221027
6.81684e-05
2.44774e-07
6.81137e-05
6.6182e-07
6.80285e-05
1.01801e-06
6.79124e-05
1.39208e-06
6.77615e-05
1.80747e-06
6.75711e-05
2.28414e-06
6.73352e-05
2.83151e-06
6.70396e-05
3.54707e-06
6.66746e-05
4.38918e-06
6.62199e-05
5.43981e-06
6.56588e-05
6.79624e-06
6.49741e-05
8.32741e-06
6.40034e-05
1.0584e-05
6.29048e-05
1.39938e-05
6.13903e-05
1.75882e-05
5.93714e-05
2.60338e-05
5.64722e-05
3.54139e-05
5.21829e-05
5.6999e-05
4.57152e-05
7.96377e-05
3.48073e-05
0.000133876
2.09288e-05
0.000163473
0.000241956
6.81685e-05
2.652e-07
6.81138e-05
7.16917e-07
6.80285e-05
1.10285e-06
6.79123e-05
1.50814e-06
6.77614e-05
1.95806e-06
6.7571e-05
2.47436e-06
6.73352e-05
3.06745e-06
6.70396e-05
3.84263e-06
6.66748e-05
4.75462e-06
6.62199e-05
5.89377e-06
6.56592e-05
7.35845e-06
6.49655e-05
9.04247e-06
6.40031e-05
1.14724e-05
6.29002e-05
1.51364e-05
6.13878e-05
1.91003e-05
5.93947e-05
2.80268e-05
5.65208e-05
3.82877e-05
5.23357e-05
6.11844e-05
4.59442e-05
8.60294e-05
3.51481e-05
0.000144672
2.11943e-05
0.000177427
0.00026315
6.81684e-05
2.85634e-07
6.81138e-05
7.72003e-07
6.80285e-05
1.18759e-06
6.79124e-05
1.62404e-06
6.77615e-05
2.10855e-06
6.75711e-05
2.66468e-06
6.73353e-05
3.30336e-06
6.70398e-05
4.13826e-06
6.66749e-05
5.12012e-06
6.62194e-05
6.34844e-06
6.56595e-05
7.9201e-06
6.49386e-05
9.78236e-06
6.39994e-05
1.23791e-05
6.2896e-05
1.62494e-05
6.1387e-05
2.06065e-05
5.941e-05
3.00028e-05
5.65588e-05
4.11387e-05
5.24505e-05
6.52925e-05
4.61473e-05
9.23325e-05
3.54913e-05
0.000155328
2.14841e-05
0.000191434
0.000284634
6.81684e-05
3.06054e-07
6.81138e-05
8.27069e-07
6.80285e-05
1.27244e-06
6.79123e-05
1.7401e-06
6.77614e-05
2.25912e-06
6.75711e-05
2.85487e-06
6.73353e-05
3.53926e-06
6.70397e-05
4.43382e-06
6.6675e-05
5.48539e-06
6.62194e-05
6.80321e-06
6.5658e-05
8.48288e-06
6.49222e-05
1.05331e-05
6.40074e-05
1.32647e-05
6.28926e-05
1.73787e-05
6.13866e-05
2.21134e-05
5.94195e-05
3.19702e-05
5.65865e-05
4.39717e-05
5.25369e-05
6.93424e-05
4.63252e-05
9.85443e-05
3.58291e-05
0.000165824
2.17935e-05
0.00020547
0.000306428
6.81684e-05
3.26484e-07
6.81138e-05
8.82125e-07
6.80285e-05
1.35719e-06
6.79124e-05
1.85599e-06
6.77616e-05
2.40957e-06
6.75712e-05
3.04516e-06
6.73355e-05
3.77511e-06
6.70399e-05
4.72944e-06
6.66751e-05
5.85079e-06
6.62191e-05
7.2585e-06
6.56527e-05
9.05081e-06
6.49153e-05
1.12815e-05
6.40116e-05
1.41622e-05
6.28907e-05
1.84993e-05
6.13865e-05
2.36158e-05
5.94254e-05
3.39307e-05
5.66062e-05
4.67908e-05
5.26038e-05
7.33447e-05
4.64814e-05
0.000104667
3.61578e-05
0.000176148
2.21185e-05
0.000219509
0.000328546
6.81684e-05
3.46897e-07
6.81138e-05
9.37162e-07
6.80285e-05
1.44204e-06
6.79123e-05
1.97205e-06
6.77615e-05
2.56013e-06
6.75712e-05
3.23531e-06
6.73354e-05
4.01095e-06
6.70399e-05
5.02497e-06
6.66752e-05
6.21609e-06
6.62196e-05
7.71315e-06
6.56424e-05
9.62929e-06
6.49167e-05
1.20131e-05
6.40134e-05
1.50542e-05
6.28894e-05
1.96302e-05
6.13866e-05
2.51198e-05
5.9429e-05
3.58886e-05
5.66202e-05
4.95997e-05
5.26577e-05
7.73073e-05
4.66199e-05
0.000110705
3.64763e-05
0.000186291
2.24559e-05
0.00023353
0.000351002
6.81684e-05
3.67321e-07
6.81138e-05
9.92188e-07
6.80285e-05
1.52679e-06
6.79125e-05
2.08792e-06
6.77616e-05
2.71055e-06
6.75713e-05
3.42557e-06
6.73356e-05
4.24673e-06
6.70402e-05
5.3205e-06
6.66751e-05
6.58172e-06
6.62203e-05
8.16727e-06
6.56309e-05
1.022e-05
6.49178e-05
1.27295e-05
6.40137e-05
1.59589e-05
6.28887e-05
2.07528e-05
6.13868e-05
2.66203e-05
5.94311e-05
3.7844e-05
5.66303e-05
5.24004e-05
5.27033e-05
8.12341e-05
4.67449e-05
0.000116663
3.67848e-05
0.000196251
2.28034e-05
0.000247511
0.000373806
6.81684e-05
3.87726e-07
6.81138e-05
1.04719e-06
6.80285e-05
1.61166e-06
6.79123e-05
2.20398e-06
6.77615e-05
2.86109e-06
6.75712e-05
3.61566e-06
6.73356e-05
4.48251e-06
6.70402e-05
5.61588e-06
6.66752e-05
6.94728e-06
6.62207e-05
8.62087e-06
6.56236e-05
1.08181e-05
6.49172e-05
1.3437e-05
6.40138e-05
1.68566e-05
6.28883e-05
2.18831e-05
6.13872e-05
2.81225e-05
5.94323e-05
3.97992e-05
5.6638e-05
5.51948e-05
5.2744e-05
8.51283e-05
4.68598e-05
0.000122547
3.70846e-05
0.000206027
2.31596e-05
0.000261436
0.000396965
6.81684e-05
4.08143e-07
6.81138e-05
1.10219e-06
6.80285e-05
1.69642e-06
6.79125e-05
2.31983e-06
6.77617e-05
3.01148e-06
6.75714e-05
3.80588e-06
6.73358e-05
4.71825e-06
6.70404e-05
5.9113e-06
6.66754e-05
7.31294e-06
6.62173e-05
9.07825e-06
6.56214e-05
1.1415e-05
6.49158e-05
1.41434e-05
6.4014e-05
1.77605e-05
6.28882e-05
2.30062e-05
6.13877e-05
2.96218e-05
5.94332e-05
4.17533e-05
5.66446e-05
5.79834e-05
5.27821e-05
8.89907e-05
4.69678e-05
0.000128361
3.73775e-05
0.000215617
2.35236e-05
0.00027529
0.000420489
6.81684e-05
4.28541e-07
6.81138e-05
1.15716e-06
6.80285e-05
1.7813e-06
6.79124e-05
2.43589e-06
6.77616e-05
3.162e-06
6.75713e-05
3.99594e-06
6.73357e-05
4.95395e-06
6.70404e-05
6.20664e-06
6.6676e-05
7.67788e-06
6.62088e-05
9.54456e-06
6.56234e-05
1.20008e-05
6.49145e-05
1.48526e-05
6.40142e-05
1.86567e-05
6.28882e-05
2.4136e-05
6.13885e-05
3.11225e-05
5.94342e-05
4.37079e-05
5.6651e-05
6.07667e-05
5.28194e-05
9.28224e-05
4.70714e-05
0.00013411
3.76656e-05
0.000225022
2.38955e-05
0.00028906
0.000444385
6.81684e-05
4.4895e-07
6.81138e-05
1.21213e-06
6.80286e-05
1.86606e-06
6.79125e-05
2.55172e-06
6.77617e-05
3.31235e-06
6.75715e-05
4.18614e-06
6.7336e-05
5.18956e-06
6.70406e-05
6.50215e-06
6.66769e-05
8.04209e-06
6.61984e-05
1.00224e-05
6.56257e-05
1.25739e-05
6.49135e-05
1.55651e-05
6.40146e-05
1.9558e-05
6.28885e-05
2.52594e-05
6.13896e-05
3.26203e-05
5.94357e-05
4.56615e-05
5.6658e-05
6.35444e-05
5.28574e-05
9.66228e-05
4.71728e-05
0.000139794
3.79511e-05
0.000234244
2.42754e-05
0.000302736
0.00046866
6.81684e-05
4.69339e-07
6.81138e-05
1.26707e-06
6.80285e-05
1.95096e-06
6.79124e-05
2.66777e-06
6.77616e-05
3.46285e-06
6.75714e-05
4.37617e-06
6.7336e-05
5.42511e-06
6.70405e-05
6.79765e-06
6.66779e-05
8.40523e-06
6.61908e-05
1.05085e-05
6.56266e-05
1.31382e-05
6.4913e-05
1.62788e-05
6.40151e-05
2.04526e-05
6.2889e-05
2.63887e-05
6.13912e-05
3.41191e-05
5.94382e-05
4.76148e-05
5.66662e-05
6.63164e-05
5.28968e-05
0.000100392
4.72735e-05
0.000145418
3.82365e-05
0.000243281
2.46642e-05
0.000316308
0.000493324
6.81684e-05
4.89741e-07
6.81138e-05
1.32201e-06
6.80286e-05
2.03572e-06
6.79126e-05
2.78358e-06
6.77618e-05
3.61315e-06
6.75716e-05
4.56634e-06
6.73363e-05
5.66058e-06
6.70407e-05
7.09325e-06
6.66785e-05
8.768e-06
6.61862e-05
1.10002e-05
6.56264e-05
1.36981e-05
6.49127e-05
1.69926e-05
6.40157e-05
2.1352e-05
6.28898e-05
2.7512e-05
6.13933e-05
3.56147e-05
5.94419e-05
4.9566e-05
5.66763e-05
6.90819e-05
5.29381e-05
0.00010413
4.73748e-05
0.000150981
3.8524e-05
0.000252132
2.50627e-05
0.000329769
0.000518387
6.81684e-05
5.10121e-07
6.81138e-05
1.37692e-06
6.80286e-05
2.12064e-06
6.79124e-05
2.89963e-06
6.77617e-05
3.76363e-06
6.75715e-05
4.75633e-06
6.73362e-05
5.89602e-06
6.70408e-05
7.38867e-06
6.66789e-05
9.13041e-06
6.61837e-05
1.14945e-05
6.56258e-05
1.42559e-05
6.49127e-05
1.77057e-05
6.40164e-05
2.22455e-05
6.28909e-05
2.86405e-05
6.13961e-05
3.71104e-05
5.94471e-05
5.15152e-05
5.66884e-05
7.18406e-05
5.29815e-05
0.000107837
4.74776e-05
0.000156485
3.8816e-05
0.000260793
2.54723e-05
0.000343113
0.000543859
6.81684e-05
5.30514e-07
6.81138e-05
1.43183e-06
6.80286e-05
2.20541e-06
6.79126e-05
3.01541e-06
6.77619e-05
3.9139e-06
6.75717e-05
4.94645e-06
6.73364e-05
6.13145e-06
6.70412e-05
7.68397e-06
6.66776e-05
9.49454e-06
6.61829e-05
1.19888e-05
6.56254e-05
1.48134e-05
6.49129e-05
1.84185e-05
6.40171e-05
2.31434e-05
6.28923e-05
2.97628e-05
6.13996e-05
3.86022e-05
5.94541e-05
5.34604e-05
5.67029e-05
7.45917e-05
5.30271e-05
0.000111513
4.75824e-05
0.00016193
3.91147e-05
0.000269261
2.58945e-05
0.000356333
0.000569754
6.81684e-05
5.50885e-07
6.81138e-05
1.48671e-06
6.80286e-05
2.29034e-06
6.79125e-05
3.13145e-06
6.77617e-05
4.06436e-06
6.75717e-05
5.13635e-06
6.73363e-05
6.36689e-06
6.70415e-05
7.97879e-06
6.66721e-05
9.86444e-06
6.61855e-05
1.24748e-05
6.56251e-05
1.53737e-05
6.49132e-05
1.91304e-05
6.40181e-05
2.40359e-05
6.28941e-05
3.08897e-05
6.14039e-05
4.00933e-05
5.94628e-05
5.54018e-05
5.67198e-05
7.73348e-05
5.30749e-05
0.000115158
4.76896e-05
0.000167315
3.94222e-05
0.000277529
2.63308e-05
0.000369424
0.000596085
6.81684e-05
5.7127e-07
6.81138e-05
1.54158e-06
6.80286e-05
2.37511e-06
6.79127e-05
3.2472e-06
6.7762e-05
4.21459e-06
6.75719e-05
5.32638e-06
6.73365e-05
6.6024e-06
6.70422e-05
8.27315e-06
6.6664e-05
1.02432e-05
6.61898e-05
1.29487e-05
6.5625e-05
1.59385e-05
6.49136e-05
1.9842e-05
6.40191e-05
2.49325e-05
6.28962e-05
3.20101e-05
6.14091e-05
4.15795e-05
5.94733e-05
5.73373e-05
5.67392e-05
8.00687e-05
5.31248e-05
0.000118772
4.77995e-05
0.00017264
3.97403e-05
0.000285588
2.67826e-05
0.000382382
0.000622867
6.81684e-05
5.91632e-07
6.81139e-05
1.59643e-06
6.80286e-05
2.46006e-06
6.79125e-05
3.36322e-06
6.77618e-05
4.36504e-06
6.75718e-05
5.51617e-06
6.73364e-05
6.83794e-06
6.70427e-05
8.56688e-06
6.66574e-05
1.06289e-05
6.61932e-05
1.34125e-05
6.56251e-05
1.65066e-05
6.49141e-05
2.0553e-05
6.40202e-05
2.58239e-05
6.28987e-05
3.31346e-05
6.1415e-05
4.30641e-05
5.94853e-05
5.92673e-05
5.67611e-05
8.27931e-05
5.3177e-05
0.000122357
4.79121e-05
0.000177905
4.00703e-05
0.000293429
2.72516e-05
0.000395201
0.000650119
6.81684e-05
6.12009e-07
6.81138e-05
1.65127e-06
6.80287e-05
2.54483e-06
6.79127e-05
3.47894e-06
6.77621e-05
4.51524e-06
6.75721e-05
5.70609e-06
6.73366e-05
7.07352e-06
6.70433e-05
8.86024e-06
6.66531e-05
1.10197e-05
6.61952e-05
1.38703e-05
6.56253e-05
1.70765e-05
6.49146e-05
2.12638e-05
6.40215e-05
2.67191e-05
6.29015e-05
3.42521e-05
6.14217e-05
4.45429e-05
5.9499e-05
6.11897e-05
5.67854e-05
8.55065e-05
5.32314e-05
0.000125911
4.80272e-05
0.000183109
4.04131e-05
0.000301044
2.77388e-05
0.000407875
0.000677858
6.81684e-05
6.32362e-07
6.81139e-05
1.70609e-06
6.80286e-05
2.62979e-06
6.79125e-05
3.59495e-06
6.77619e-05
4.66566e-06
6.7572e-05
5.89578e-06
6.73366e-05
7.30907e-06
6.70436e-05
9.15318e-06
6.66503e-05
1.14134e-05
6.61966e-05
1.43239e-05
6.56256e-05
1.76474e-05
6.49153e-05
2.19741e-05
6.40229e-05
2.76091e-05
6.29047e-05
3.53732e-05
6.14291e-05
4.60194e-05
5.9514e-05
6.31051e-05
5.68122e-05
8.82084e-05
5.32881e-05
0.000129435
4.81447e-05
0.000188253
4.07692e-05
0.000308419
2.82452e-05
0.000420399
0.000706103
6.81684e-05
6.5273e-07
6.81139e-05
1.7609e-06
6.80287e-05
2.71456e-06
6.79128e-05
3.71063e-06
6.77622e-05
4.81581e-06
6.75723e-05
6.08562e-06
6.73369e-05
7.54461e-06
6.70441e-05
9.44603e-06
6.66488e-05
1.18091e-05
6.61976e-05
1.4775e-05
6.56261e-05
1.8219e-05
6.4916e-05
2.26843e-05
6.40244e-05
2.85027e-05
6.29082e-05
3.6487e-05
6.14372e-05
4.74894e-05
5.95304e-05
6.50115e-05
5.68415e-05
9.08972e-05
5.33473e-05
0.000132929
4.82646e-05
0.000193336
4.11385e-05
0.000315545
2.87714e-05
0.000432766
0.000734874
6.81684e-05
6.73074e-07
6.81139e-05
1.8157e-06
6.80286e-05
2.79952e-06
6.79126e-05
3.82662e-06
6.7762e-05
4.9662e-06
6.75722e-05
6.27524e-06
6.73369e-05
7.78e-06
6.70442e-05
9.73871e-06
6.66478e-05
1.22059e-05
6.61985e-05
1.52242e-05
6.56266e-05
1.8791e-05
6.49168e-05
2.3394e-05
6.4026e-05
2.93911e-05
6.29119e-05
3.76041e-05
6.14458e-05
4.89565e-05
5.9548e-05
6.69096e-05
5.68732e-05
9.35721e-05
5.34091e-05
0.000136393
4.83867e-05
0.000198358
4.15207e-05
0.000322411
2.93178e-05
0.000444969
0.000764192
6.81684e-05
6.93435e-07
6.81139e-05
1.87048e-06
6.80287e-05
2.8843e-06
6.79129e-05
3.94227e-06
6.77623e-05
5.1163e-06
6.75725e-05
6.46503e-06
6.73373e-05
8.01531e-06
6.70445e-05
1.00315e-05
6.66475e-05
1.26033e-05
6.61994e-05
1.56722e-05
6.56271e-05
1.93633e-05
6.49176e-05
2.41036e-05
6.40278e-05
3.0283e-05
6.29159e-05
3.87133e-05
6.14549e-05
5.04165e-05
5.95669e-05
6.87973e-05
5.69075e-05
9.62314e-05
5.34737e-05
0.000139827
4.85112e-05
0.00020332
4.19154e-05
0.000329007
2.98846e-05
0.000457
0.000794077
6.81684e-05
7.13771e-07
6.81139e-05
1.92524e-06
6.80287e-05
2.96927e-06
6.79126e-05
4.05825e-06
6.77621e-05
5.26664e-06
6.75723e-05
6.65461e-06
6.73373e-05
8.25038e-06
6.70444e-05
1.03245e-05
6.66471e-05
1.30009e-05
6.62003e-05
1.61189e-05
6.56278e-05
1.99358e-05
6.49186e-05
2.48128e-05
6.40296e-05
3.11697e-05
6.29202e-05
3.98259e-05
6.14645e-05
5.18732e-05
5.95869e-05
7.06753e-05
5.69442e-05
9.88742e-05
5.35412e-05
0.00014323
4.86384e-05
0.000208223
4.23222e-05
0.000335323
3.04719e-05
0.00046885
0.000824548
6.81684e-05
7.34125e-07
6.81139e-05
1.97999e-06
6.80288e-05
3.05403e-06
6.79129e-05
4.17386e-06
6.77624e-05
5.41666e-06
6.75726e-05
6.84439e-06
6.73378e-05
8.48528e-06
6.70443e-05
1.06181e-05
6.66471e-05
1.33984e-05
6.62012e-05
1.65649e-05
6.56285e-05
2.05085e-05
6.49195e-05
2.55219e-05
6.40315e-05
3.20597e-05
6.29246e-05
4.09301e-05
6.14746e-05
5.33222e-05
5.9608e-05
7.25415e-05
5.69834e-05
0.000101499
5.36118e-05
0.000146602
4.87685e-05
0.000213067
4.27411e-05
0.00034135
3.10797e-05
0.000480512
0.000855628
6.81684e-05
7.54453e-07
6.81139e-05
2.03472e-06
6.80287e-05
3.139e-06
6.79127e-05
4.28982e-06
6.77622e-05
5.56693e-06
6.75724e-05
7.03399e-06
6.7338e-05
8.71976e-06
6.70406e-05
1.09155e-05
6.66492e-05
1.379e-05
6.6202e-05
1.7012e-05
6.56292e-05
2.10813e-05
6.49205e-05
2.62305e-05
6.40335e-05
3.29444e-05
6.29293e-05
4.20376e-05
6.1485e-05
5.47676e-05
5.96301e-05
7.43968e-05
5.7025e-05
0.000104104
5.36858e-05
0.000149941
4.89022e-05
0.00021785
4.31723e-05
0.00034708
3.17086e-05
0.000491975
0.000887337
6.81684e-05
7.748e-07
6.81139e-05
2.08944e-06
6.80288e-05
3.22375e-06
6.7913e-05
4.40541e-06
6.77626e-05
5.71683e-06
6.75727e-05
7.22388e-06
6.73389e-05
8.95368e-06
6.70287e-05
1.12257e-05
6.66568e-05
1.4162e-05
6.62028e-05
1.7466e-05
6.56299e-05
2.16543e-05
6.49215e-05
2.6939e-05
6.40356e-05
3.38324e-05
6.29341e-05
4.31364e-05
6.14958e-05
5.62047e-05
5.96532e-05
7.6239e-05
5.70688e-05
0.000106688
5.37634e-05
0.000153246
4.90397e-05
0.000222574
4.36161e-05
0.000352504
3.2359e-05
0.000503232
0.000919696
6.81684e-05
7.9512e-07
6.81139e-05
2.14415e-06
6.80287e-05
3.30871e-06
6.79127e-05
4.52136e-06
6.77624e-05
5.86699e-06
6.75725e-05
7.41362e-06
6.73391e-05
9.18706e-06
6.70213e-05
1.15435e-05
6.66612e-05
1.45221e-05
6.62036e-05
1.79235e-05
6.56307e-05
2.22271e-05
6.49226e-05
2.76471e-05
6.40377e-05
3.4715e-05
6.2939e-05
4.42382e-05
6.1507e-05
5.76379e-05
5.96772e-05
7.80692e-05
5.71149e-05
0.00010925
5.38449e-05
0.000156516
4.91815e-05
0.000227237
4.4073e-05
0.000357612
3.30316e-05
0.000514274
0.000952727
6.81684e-05
8.15459e-07
6.81139e-05
2.19883e-06
6.80288e-05
3.39345e-06
6.79131e-05
4.63691e-06
6.77627e-05
6.0168e-06
6.75728e-05
7.60352e-06
6.73396e-05
9.42041e-06
6.70191e-05
1.1864e-05
6.66623e-05
1.48788e-05
6.62043e-05
1.83815e-05
6.56315e-05
2.28e-05
6.49237e-05
2.83551e-05
6.40399e-05
3.56009e-05
6.29441e-05
4.5331e-05
6.15185e-05
5.90622e-05
5.97021e-05
7.98851e-05
5.71631e-05
0.000111789
5.39306e-05
0.000159749
4.93276e-05
0.00023184
4.45429e-05
0.000362397
3.37269e-05
0.00052509
0.000986454
6.81684e-05
8.35776e-07
6.81139e-05
2.25351e-06
6.80288e-05
3.47839e-06
6.79128e-05
4.75281e-06
6.77625e-05
6.16694e-06
6.75729e-05
7.79296e-06
6.73377e-05
9.65559e-06
6.70183e-05
1.21834e-05
6.66626e-05
1.52345e-05
6.6205e-05
1.88391e-05
6.56323e-05
2.33727e-05
6.49248e-05
2.90625e-05
6.40421e-05
3.64809e-05
6.29492e-05
4.64275e-05
6.15303e-05
6.04826e-05
5.97278e-05
8.1688e-05
5.72132e-05
0.000114304
5.40207e-05
0.000162941
4.94778e-05
0.000236383
4.50245e-05
0.00036685
3.44443e-05
0.00053567
0.0010209
6.81684e-05
8.56108e-07
6.81139e-05
2.30816e-06
6.80289e-05
3.56315e-06
6.79132e-05
4.86828e-06
6.77626e-05
6.31704e-06
6.75741e-05
7.98139e-06
6.73248e-05
9.905e-06
6.70215e-05
1.24868e-05
6.66627e-05
1.55932e-05
6.62056e-05
1.92962e-05
6.5633e-05
2.39453e-05
6.49259e-05
2.97698e-05
6.40443e-05
3.73648e-05
6.29545e-05
4.7514e-05
6.15424e-05
6.18934e-05
5.97542e-05
8.34757e-05
5.72651e-05
0.000116793
5.41158e-05
0.00016609
4.96317e-05
0.000240867
4.55132e-05
0.000370969
3.51806e-05
0.000546003
0.00105608
6.81684e-05
8.76415e-07
6.8114e-05
2.36279e-06
6.80288e-05
3.64813e-06
6.7913e-05
4.98404e-06
6.77622e-05
6.46765e-06
6.75748e-05
8.16863e-06
6.73156e-05
1.01642e-05
6.70237e-05
1.27787e-05
6.66627e-05
1.59542e-05
6.62061e-05
1.97529e-05
6.56337e-05
2.45176e-05
6.49269e-05
3.04766e-05
6.40465e-05
3.82425e-05
6.29598e-05
4.86043e-05
6.15547e-05
6.33001e-05
5.97812e-05
8.52496e-05
5.73184e-05
0.000119256
5.42161e-05
0.000169193
4.9789e-05
0.000245294
4.59996e-05
0.000374758
3.59281e-05
0.000556074
0.00109201
6.81683e-05
8.96693e-07
6.81139e-05
2.41738e-06
6.80289e-05
3.73283e-06
6.79133e-05
5.09933e-06
6.77625e-05
6.61791e-06
6.75754e-05
8.3557e-06
6.73132e-05
1.04264e-05
6.70238e-05
1.30682e-05
6.66627e-05
1.63153e-05
6.62064e-05
2.02091e-05
6.56344e-05
2.50896e-05
6.4928e-05
3.11831e-05
6.40487e-05
3.91241e-05
6.29651e-05
4.96847e-05
6.15671e-05
6.46968e-05
5.98088e-05
8.70074e-05
5.73728e-05
0.000121692
5.43227e-05
0.000172243
4.99489e-05
0.000249668
4.64807e-05
0.000378227
3.67664e-05
0.000565788
0.00112877
1.88899e-07
-1.88834e-07
-2.20032e-06
2.38923e-06
-3.14094e-06
9.4064e-07
-3.09253e-06
-4.83875e-08
-2.47995e-06
-6.12527e-07
-1.83991e-06
-6.39802e-07
-1.51505e-06
-3.24615e-07
-1.43196e-06
-8.27395e-08
-1.42282e-06
-6.78547e-09
-1.46364e-06
4.39808e-08
-1.61219e-06
1.76261e-07
-1.66606e-06
1.80276e-08
-1.54049e-06
-1.34153e-07
-9.80683e-07
-5.59586e-07
1.49746e-07
-1.12279e-06
1.75048e-06
-1.59264e-06
3.70632e-06
-1.95408e-06
6.09907e-06
-2.39343e-06
8.95119e-06
-2.85519e-06
1.21978e-05
-3.24842e-06
1.56887e-05
-3.49708e-06
1.92027e-05
-3.51045e-06
2.25812e-05
-3.37635e-06
2.57811e-05
-3.20163e-06
2.88412e-05
-3.06189e-06
3.18044e-05
-2.96257e-06
3.46674e-05
-2.86194e-06
3.74609e-05
-2.79298e-06
4.02936e-05
-2.82911e-06
4.29474e-05
-2.65725e-06
4.46319e-05
-1.68922e-06
5.04131e-05
-5.77972e-06
6.13878e-05
-1.09729e-05
6.74513e-05
-6.06382e-06
-4.379e-07
2.28402e-07
-4.17113e-07
-2.16134e-06
4.77899e-06
-3.09106e-06
1.87039e-06
-3.04987e-06
-8.95304e-08
-2.4357e-06
-1.22659e-06
-1.8099e-06
-1.26514e-06
-1.48878e-06
-6.45275e-07
-1.41563e-06
-1.5519e-07
-1.40657e-06
-1.14537e-08
-1.43821e-06
8.16861e-08
-1.56111e-06
3.43943e-07
-1.58796e-06
-1.54417e-08
-1.47812e-06
-2.60683e-07
-1.00525e-06
-1.03227e-06
4.63953e-08
-2.15925e-06
1.66836e-06
-3.19799e-06
3.7063e-06
-3.98831e-06
6.15083e-06
-4.83937e-06
8.99603e-06
-5.70663e-06
1.2188e-05
-6.44392e-06
1.563e-05
-6.95084e-06
1.91438e-05
-7.01748e-06
2.25424e-05
-6.77084e-06
2.57609e-05
-6.42333e-06
2.8828e-05
-6.13242e-06
3.179e-05
-5.92336e-06
3.46482e-05
-5.71809e-06
3.74332e-05
-5.57717e-06
4.02579e-05
-5.64704e-06
4.29281e-05
-5.33402e-06
4.46241e-05
-3.3939e-06
5.0134e-05
-1.12869e-05
6.10478e-05
-2.18833e-05
6.74055e-05
-1.24221e-05
-9.32576e-07
2.7094e-07
-6.87939e-07
-2.11633e-06
7.16628e-06
-3.03478e-06
2.78888e-06
-2.9842e-06
-1.40056e-07
-2.37305e-06
-1.83764e-06
-1.75789e-06
-1.87987e-06
-1.44652e-06
-9.56251e-07
-1.37834e-06
-2.22759e-07
-1.36525e-06
-2.05199e-08
-1.38481e-06
1.06789e-07
-1.48288e-06
4.87438e-07
-1.49409e-06
-6.68661e-08
-1.43488e-06
-3.36637e-07
-1.05935e-06
-1.40727e-06
-5.52696e-08
-3.14787e-06
1.61601e-06
-4.85176e-06
3.73991e-06
-6.10835e-06
6.22922e-06
-7.33017e-06
9.05918e-06
-8.54272e-06
1.22003e-05
-9.58855e-06
1.56009e-05
-1.03632e-05
1.91167e-05
-1.05265e-05
2.25414e-05
-1.01916e-05
2.57777e-05
-9.6629e-06
2.88499e-05
-9.20823e-06
3.18099e-05
-8.882e-06
3.4662e-05
-8.56815e-06
3.74368e-05
-8.35108e-06
4.02498e-05
-8.45313e-06
4.29311e-05
-8.02192e-06
4.46397e-05
-5.11127e-06
4.98965e-05
-1.65408e-05
6.07399e-05
-3.27234e-05
6.73613e-05
-1.90442e-05
-1.48119e-06
3.19133e-07
-1.00695e-06
-2.06632e-06
9.55176e-06
-2.96682e-06
3.68942e-06
-2.89813e-06
-2.08695e-07
-2.28742e-06
-2.44824e-06
-1.68515e-06
-2.48168e-06
-1.38524e-06
-1.25573e-06
-1.32147e-06
-2.85836e-07
-1.30383e-06
-3.40255e-08
-1.31289e-06
1.21781e-07
-1.3877e-06
6.01223e-07
-1.38823e-06
-1.24613e-07
-1.38639e-06
-3.57478e-07
-1.1078e-06
-1.68567e-06
-1.46425e-07
-4.09105e-06
1.57921e-06
-6.55516e-06
3.79681e-06
-8.32074e-06
6.33646e-06
-9.87181e-06
9.15338e-06
-1.13677e-05
1.22464e-05
-1.26858e-05
1.56085e-05
-1.37384e-05
1.91276e-05
-1.40379e-05
2.25793e-05
-1.36386e-05
2.58343e-05
-1.29217e-05
2.89113e-05
-1.22892e-05
3.18676e-05
-1.18368e-05
3.47116e-05
-1.14099e-05
3.74731e-05
-1.11116e-05
4.02703e-05
-1.12432e-05
4.29574e-05
-1.07162e-05
4.46799e-05
-6.84286e-06
4.97015e-05
-2.15594e-05
6.04632e-05
-4.34817e-05
6.73185e-05
-2.59002e-05
-2.08137e-06
3.73069e-07
-1.37991e-06
-2.01106e-06
1.19359e-05
-2.88615e-06
4.56455e-06
-2.79143e-06
-3.03355e-07
-2.17946e-06
-3.06012e-06
-1.59273e-06
-3.06799e-06
-1.30624e-06
-1.54187e-06
-1.24637e-06
-3.4514e-07
-1.22409e-06
-5.26208e-08
-1.22268e-06
1.25729e-07
-1.273e-06
6.86847e-07
-1.26661e-06
-1.87092e-07
-1.32855e-06
-3.14e-07
-1.14617e-06
-1.86728e-06
-2.21565e-07
-4.99818e-06
1.56511e-06
-8.31886e-06
3.88787e-06
-1.06379e-05
6.48708e-06
-1.24733e-05
9.29246e-06
-1.41817e-05
1.23365e-05
-1.57342e-05
1.566e-05
-1.70753e-05
1.91825e-05
-1.75523e-05
2.26622e-05
-1.71138e-05
2.59376e-05
-1.62011e-05
2.90191e-05
-1.53748e-05
3.19694e-05
-1.47856e-05
3.48019e-05
-1.424e-05
3.75462e-05
-1.38548e-05
4.03225e-05
-1.40121e-05
4.30094e-05
-1.34106e-05
4.47467e-05
-8.58947e-06
4.95488e-05
-2.63582e-05
6.02163e-05
-5.4146e-05
6.7277e-05
-3.29614e-05
-2.73086e-06
4.32777e-07
-1.81256e-06
-1.95017e-06
1.43189e-05
-2.79135e-06
5.40577e-06
-2.6633e-06
-4.31346e-07
-2.04905e-06
-3.67427e-06
-1.48091e-06
-3.63566e-06
-1.20988e-06
-1.81246e-06
-1.15346e-06
-4.0085e-07
-1.12688e-06
-7.5182e-08
-1.11427e-06
1.19154e-07
-1.13758e-06
7.40741e-07
-1.12703e-06
-2.51389e-07
-1.25736e-06
-2.0511e-07
-1.16825e-06
-1.95619e-06
-2.72405e-07
-5.87326e-06
1.58483e-06
-1.01471e-05
4.02874e-06
-1.30742e-05
6.70139e-06
-1.51492e-05
9.49596e-06
-1.69885e-05
1.24857e-05
-1.87298e-05
1.57665e-05
-2.03718e-05
1.92913e-05
-2.10677e-05
2.28006e-05
-2.06176e-05
2.60992e-05
-1.95046e-05
2.91851e-05
-1.84656e-05
3.21259e-05
-1.77246e-05
3.49417e-05
-1.70531e-05
3.76626e-05
-1.65746e-05
4.04114e-05
-1.67527e-05
4.30909e-05
-1.60986e-05
4.48432e-05
-1.03519e-05
4.94384e-05
-3.09499e-05
5.99977e-05
-6.47018e-05
6.72366e-05
-4.02009e-05
-3.4274e-06
4.98167e-07
-2.31062e-06
-1.88311e-06
1.67002e-05
-2.68048e-06
6.20319e-06
-2.5119e-06
-5.99872e-07
-1.89515e-06
-4.29092e-06
-1.3489e-06
-4.18148e-06
-1.09549e-06
-2.06554e-06
-1.04212e-06
-4.53636e-07
-1.01164e-06
-1.02094e-07
-9.86846e-07
9.99485e-08
-9.80174e-07
7.59309e-07
-9.67062e-07
-3.13722e-07
-1.16809e-06
-2.44554e-08
-1.168e-06
-1.9553e-06
-2.91878e-07
-6.73034e-06
1.64995e-06
-1.20605e-05
4.23933e-06
-1.56558e-05
7.0075e-06
-1.79212e-05
9.7917e-06
-1.97867e-05
1.27152e-05
-2.16597e-05
1.59441e-05
-2.36176e-05
1.94683e-05
-2.45815e-05
2.30099e-05
-2.41538e-05
2.63364e-05
-2.28365e-05
2.94276e-05
-2.15623e-05
3.23538e-05
-2.06486e-05
3.51441e-05
-1.98403e-05
3.78324e-05
-1.92617e-05
4.05444e-05
-1.94558e-05
4.32072e-05
-1.87705e-05
4.49741e-05
-1.21295e-05
4.93719e-05
-3.53437e-05
5.98062e-05
-7.51327e-05
6.71973e-05
-4.75927e-05
-4.16872e-06
5.68974e-07
-2.87946e-06
-1.80911e-06
1.90783e-05
-2.55113e-06
6.94528e-06
-2.33473e-06
-8.16197e-07
-1.71622e-06
-4.90933e-06
-1.19525e-06
-4.70196e-06
-9.61562e-07
-2.2988e-06
-9.10779e-07
-5.03647e-07
-8.76607e-07
-1.32137e-07
-8.38228e-07
6.81073e-08
-7.98219e-07
7.42033e-07
-7.82671e-07
-3.79102e-07
-1.05468e-06
2.23098e-07
-1.13969e-06
-1.87011e-06
-2.74365e-07
-7.57203e-06
1.77156e-06
-1.40705e-05
4.5439e-06
-1.84176e-05
7.44461e-06
-2.08275e-05
1.02206e-05
-2.25833e-05
1.30555e-05
-2.45034e-05
1.62159e-05
-2.67986e-05