/*--------------------------------*- C++ -*----------------------------------*\
| =========                 |                                                 |
| \\      /  F ield         | OpenFOAM: The Open Source CFD Toolbox           |
|  \\    /   O peration     | Version:  v1912                                 |
|   \\  /    A nd           | Website:  www.openfoam.com                      |
|    \\/     M anipulation  |                                                 |
\*---------------------------------------------------------------------------*/
FoamFile
{
    version     2.0;
    format      ascii;
    class       volVectorField;
    location    "500";
    object      U;
}
// * * * * * * * * * * * * * * * * * * * * * * * * * * * * * * * * * * * * * //

dimensions      [0 1 -1 0 0 0 0];


internalField   nonuniform List<vector> 
12441
(
(29.9988 1.7129e-05 0)
(29.9853 5.19612e-05 0)
(29.9559 9.04151e-05 0)
(29.9112 0.000138933 0)
(29.8526 0.000202619 0)
(29.7781 0.000287605 0)
(29.6856 0.000400006 0)
(29.5702 0.000563288 0)
(29.4267 0.000784585 0)
(29.248 0.00109146 0)
(29.032 0.00153448 0)
(28.7428 0.00211195 0)
(28.4285 0.00299313 0)
(27.9489 0.00449418 0)
(27.4144 0.00619955 0)
(26.6331 0.0112545 0)
(25.5914 0.0150682 0)
(23.9206 0.0315723 0)
(21.5637 0.0529828 0)
(17.8695 0.0913502 0)
(12.0873 0.122043 0)
(5.79695 0.196165 0)
(29.9988 5.08987e-05 0)
(29.9852 0.000155065 0)
(29.9558 0.000269553 0)
(29.9112 0.000414343 0)
(29.8527 0.000604743 0)
(29.7781 0.000858223 0)
(29.6856 0.00119645 0)
(29.5702 0.0016845 0)
(29.4268 0.00234471 0)
(29.248 0.00326413 0)
(29.0329 0.0045974 0)
(28.743 0.00629895 0)
(28.428 0.00900374 0)
(27.9501 0.0134316 0)
(27.4188 0.0186194 0)
(26.6394 0.0335184 0)
(25.593 0.0477672 0)
(23.9196 0.090627 0)
(21.5642 0.138393 0)
(17.8684 0.264314 0)
(12.0884 0.358581 0)
(5.8008 0.585883 0)
(29.9988 8.45355e-05 0)
(29.9852 0.00025816 0)
(29.9558 0.00044793 0)
(29.9112 0.000688596 0)
(29.8526 0.00100542 0)
(29.7781 0.00142823 0)
(29.6856 0.00199077 0)
(29.5702 0.0028041 0)
(29.4268 0.00390303 0)
(29.248 0.00543658 0)
(29.0332 0.00765007 0)
(28.742 0.0104959 0)
(28.431 0.0150088 0)
(27.9462 0.0223441 0)
(27.4137 0.0311002 0)
(26.6351 0.0549346 0)
(25.5914 0.0813318 0)
(23.9227 0.147801 0)
(21.5673 0.221277 0)
(17.8681 0.434965 0)
(12.0945 0.591635 0)
(5.80911 0.973671 0)
(29.9988 0.000118597 0)
(29.9852 0.000361987 0)
(29.9558 0.000627213 0)
(29.9112 0.000964165 0)
(29.8527 0.00140788 0)
(29.7781 0.0020002 0)
(29.6857 0.00278795 0)
(29.5703 0.00392701 0)
(29.4268 0.0054654 0)
(29.2481 0.00761353 0)
(29.0329 0.0107119 0)
(28.7429 0.0147025 0)
(28.4279 0.0210145 0)
(27.9515 0.0312903 0)
(27.4195 0.0436049 0)
(26.6403 0.0764088 0)
(25.5961 0.114119 0)
(23.928 0.207963 0)
(21.5757 0.328876 0)
(17.8725 0.613644 0)
(12.1069 0.828647 0)
(5.82213 1.36311 0)
(29.9988 0.000152721 0)
(29.9852 0.000465699 0)
(29.9558 0.000806303 0)
(29.9112 0.00123951 0)
(29.8526 0.00180999 0)
(29.7781 0.0025716 0)
(29.6857 0.00358445 0)
(29.5703 0.00504912 0)
(29.4269 0.00702682 0)
(29.2481 0.00978915 0)
(29.0332 0.0137732 0)
(28.7421 0.0189046 0)
(28.4316 0.0270119 0)
(27.947 0.0402307 0)
(27.4148 0.0561237 0)
(26.637 0.0976446 0)
(25.5965 0.146435 0)
(23.9321 0.2689 0)
(21.5864 0.419316 0)
(17.8827 0.788509 0)
(12.127 1.06544 0)
(5.84017 1.75383 0)
(29.9988 0.000186842 0)
(29.9852 0.000569347 0)
(29.9558 0.000985368 0)
(29.9112 0.00151486 0)
(29.8527 0.0022121 0)
(29.7781 0.00314307 0)
(29.6857 0.00438109 0)
(29.5703 0.0061714 0)
(29.4269 0.00858847 0)
(29.2482 0.0119654 0)
(29.0329 0.0168339 0)
(28.7434 0.0231127 0)
(28.4273 0.0330049 0)
(27.9531 0.049172 0)
(27.4212 0.0686518 0)
(26.6424 0.118756 0)
(25.6018 0.178467 0)
(23.9374 0.329301 0)
(21.5992 0.508213 0)
(17.8996 0.962055 0)
(12.1565 1.30193 0)
(5.86362 2.14566 0)
(29.9988 0.000220959 0)
(29.9852 0.000672961 0)
(29.9558 0.00116443 0)
(29.9112 0.00179024 0)
(29.8527 0.00261421 0)
(29.7782 0.00371452 0)
(29.6857 0.00517773 0)
(29.5703 0.00729368 0)
(29.4269 0.0101503 0)
(29.2482 0.0141418 0)
(29.0332 0.0198951 0)
(28.7426 0.0273148 0)
(28.4325 0.0390045 0)
(27.9473 0.0580846 0)
(27.4162 0.0811491 0)
(26.6394 0.139721 0)
(25.6034 0.209808 0)
(23.9416 0.387176 0)
(21.6167 0.599253 0)
(17.9268 1.1357 0)
(12.198 1.53852 0)
(5.89301 2.53889 0)
(29.9988 0.000255075 0)
(29.9852 0.000776548 0)
(29.9558 0.00134347 0)
(29.9112 0.00206561 0)
(29.8527 0.00301626 0)
(29.7782 0.00428594 0)
(29.6858 0.00597437 0)
(29.5704 0.00841594 0)
(29.427 0.0117119 0)
(29.2483 0.0163182 0)
(29.033 0.0229546 0)
(28.744 0.031524 0)
(28.4264 0.0449997 0)
(27.9542 0.0670034 0)
(27.4237 0.0934951 0)
(26.6447 0.160277 0)
(25.6107 0.242715 0)
(23.9479 0.446957 0)
(21.6481 0.691341 0)
(17.9714 1.30883 0)
(12.2549 1.77544 0)
(5.92894 2.93401 0)
(29.9988 0.00028919 0)
(29.9852 0.000880105 0)
(29.9558 0.0015225 0)
(29.9112 0.00234097 0)
(29.8527 0.0034183 0)
(29.7782 0.00485734 0)
(29.6857 0.006771 0)
(29.5704 0.0095382 0)
(29.427 0.0132737 0)
(29.2484 0.0184949 0)
(29.0332 0.0260146 0)
(28.7433 0.035727 0)
(28.4337 0.0510026 0)
(27.948 0.075984 0)
(27.4175 0.105905 0)
(26.6405 0.18119 0)
(25.6182 0.274063 0)
(23.9598 0.506115 0)
(21.7065 0.7831 0)
(18.0419 1.48115 0)
(12.3308 2.01297 0)
(5.97208 3.33156 0)
(29.9988 0.000323304 0)
(29.9852 0.000983634 0)
(29.9559 0.00170151 0)
(29.9112 0.00261633 0)
(29.8527 0.0038203 0)
(29.7782 0.00542871 0)
(29.6858 0.00756762 0)
(29.5704 0.0106604 0)
(29.4271 0.0148353 0)
(29.2484 0.0206714 0)
(29.0331 0.0290718 0)
(28.7449 0.0399367 0)
(28.4247 0.0570089 0)
(27.9537 0.0848236 0)
(27.4222 0.118996 0)
(26.6413 0.202463 0)
(25.6324 0.305992 0)
(23.988 0.563354 0)
(21.7943 0.874602 0)
(18.1413 1.65302 0)
(12.4282 2.25157 0)
(6.02312 3.73212 0)
(29.9988 0.000357415 0)
(29.9853 0.00108713 0)
(29.9559 0.00188052 0)
(29.9112 0.00289169 0)
(29.8527 0.00422228 0)
(29.7782 0.00600005 0)
(29.6858 0.00836421 0)
(29.5705 0.0117827 0)
(29.4271 0.0163967 0)
(29.2486 0.0228489 0)
(29.0332 0.0321268 0)
(28.7449 0.0441462 0)
(28.4323 0.0630575 0)
(27.9563 0.0935755 0)
(27.4221 0.131437 0)
(26.6415 0.222684 0)
(25.6514 0.338875 0)
(24.0343 0.619771 0)
(21.8953 0.965917 0)
(18.2627 1.82442 0)
(12.5479 2.4916 0)
(6.08274 4.13634 0)
(29.9988 0.000391525 0)
(29.9852 0.00119061 0)
(29.9559 0.00205952 0)
(29.9112 0.00316703 0)
(29.8528 0.00462421 0)
(29.7783 0.00657134 0)
(29.6859 0.00916075 0)
(29.5705 0.0129049 0)
(29.4272 0.017958 0)
(29.2487 0.0250256 0)
(29.0329 0.0351779 0)
(28.7476 0.0483665 0)
(28.4208 0.0689986 0)
(27.9636 0.102541 0)
(27.423 0.144943 0)
(26.6427 0.243127 0)
(25.6694 0.37137 0)
(24.0843 0.674324 0)
(21.9891 1.05621 0)
(18.3936 1.99482 0)
(12.6877 2.73324 0)
(6.15147 4.54489 0)
(29.9988 0.000425631 0)
(29.9853 0.00129405 0)
(29.9559 0.00223852 0)
(29.9112 0.00344237 0)
(29.8527 0.00502613 0)
(29.7783 0.0071426 0)
(29.6859 0.00995728 0)
(29.5705 0.0140271 0)
(29.4272 0.0195186 0)
(29.2489 0.0272053 0)
(29.0328 0.0382105 0)
(28.7491 0.0527062 0)
(28.421 0.0748464 0)
(27.9643 0.111548 0)
(27.4205 0.158637 0)
(26.6443 0.263028 0)
(25.6833 0.403181 0)
(24.126 0.726822 0)
(22.0667 1.14506 0)
(18.5228 2.16355 0)
(12.8441 2.97633 0)
(6.22961 4.95839 0)
(29.9988 0.000459734 0)
(29.9853 0.00139747 0)
(29.9559 0.00241751 0)
(29.9113 0.0037177 0)
(29.8528 0.005428 0)
(29.7783 0.00771381 0)
(29.6859 0.0107538 0)
(29.5706 0.0151493 0)
(29.4273 0.0210788 0)
(29.249 0.0293879 0)
(29.0324 0.0412485 0)
(28.7522 0.0571076 0)
(28.4102 0.0811148 0)
(27.9623 0.120576 0)
(27.4184 0.171809 0)
(26.646 0.282267 0)
(25.6926 0.434376 0)
(24.1567 0.777731 0)
(22.1282 1.23248 0)
(18.6435 2.33016 0)
(13.0125 3.22057 0)
(6.31716 5.37735 0)
(29.9988 0.000493833 0)
(29.9853 0.00150085 0)
(29.9559 0.00259651 0)
(29.9112 0.00399303 0)
(29.8527 0.00582984 0)
(29.7783 0.00828498 0)
(29.6859 0.0115502 0)
(29.5706 0.0162715 0)
(29.4273 0.022639 0)
(29.2492 0.0315707 0)
(29.0322 0.0442881 0)
(28.7549 0.0614643 0)
(28.407 0.0873999 0)
(27.9604 0.129361 0)
(27.4169 0.184798 0)
(26.6474 0.301283 0)
(25.6985 0.465251 0)
(24.1785 0.827577 0)
(22.1772 1.31859 0)
(18.753 2.49434 0)
(13.1888 3.46551 0)
(6.41387 5.80221 0)
(29.9988 0.000527927 0)
(29.9853 0.00160421 0)
(29.9559 0.00277552 0)
(29.9113 0.00426834 0)
(29.8528 0.00623165 0)
(29.7784 0.00885608 0)
(29.686 0.0123465 0)
(29.5707 0.0173938 0)
(29.4274 0.0241982 0)
(29.2492 0.0337587 0)
(29.032 0.0473242 0)
(28.7569 0.0659611 0)
(28.4035 0.0937132 0)
(27.9596 0.13797 0)
(27.4158 0.197686 0)
(26.6485 0.320236 0)
(25.7021 0.495956 0)
(24.1939 0.876715 0)
(22.2174 1.40349 0)
(18.8511 2.65592 0)
(13.3696 3.71073 0)
(6.51931 6.23332 0)
(29.9988 0.000562015 0)
(29.9853 0.00170754 0)
(29.9559 0.00295453 0)
(29.9113 0.00454365 0)
(29.8528 0.00663343 0)
(29.7784 0.00942716 0)
(29.686 0.0131427 0)
(29.5708 0.018516 0)
(29.4274 0.0257581 0)
(29.2493 0.0359426 0)
(29.0324 0.0504227 0)
(28.7566 0.0705154 0)
(28.4017 0.0999067 0)
(27.9593 0.146572 0)
(27.4151 0.210585 0)
(26.6493 0.339176 0)
(25.7041 0.52655 0)
(24.205 0.92534 0)
(22.2514 1.48727 0)
(18.9391 2.81478 0)
(13.5524 3.95581 0)
(6.63293 6.67094 0)
(29.9988 0.000596099 0)
(29.9853 0.00181084 0)
(29.9559 0.00313355 0)
(29.9113 0.00481894 0)
(29.8529 0.00703518 0)
(29.7784 0.00999814 0)
(29.6861 0.0139388 0)
(29.5709 0.0196379 0)
(29.4276 0.0273187 0)
(29.2492 0.0381189 0)
(29.0331 0.0535483 0)
(28.7539 0.0751012 0)
(28.4003 0.106047 0)
(27.9592 0.155157 0)
(27.4146 0.223496 0)
(26.6501 0.358111 0)
(25.705 0.557062 0)
(24.2132 0.973557 0)
(22.2815 1.56999 0)
(19.0184 2.97085 0)
(13.7358 4.20037 0)
(6.75419 7.11531 0)
(29.9988 0.000630176 0)
(29.9853 0.00191412 0)
(29.9559 0.00331258 0)
(29.9113 0.00509423 0)
(29.8528 0.00743689 0)
(29.7784 0.0105691 0)
(29.686 0.0147348 0)
(29.5709 0.0207597 0)
(29.4277 0.0288795 0)
(29.2493 0.0403018 0)
(29.034 0.0566724 0)
(28.7509 0.0795277 0)
(28.3996 0.112159 0)
(27.9592 0.163766 0)
(27.4143 0.236422 0)
(26.6508 0.377046 0)
(25.7054 0.587511 0)
(24.2197 1.02143 0)
(22.3092 1.65172 0)
(19.0909 3.12408 0)
(13.919 4.4441 0)
(6.88256 7.56658 0)
(29.9988 0.000664248 0)
(29.9853 0.00201736 0)
(29.9559 0.00349161 0)
(29.9113 0.0053695 0)
(29.8529 0.00783857 0)
(29.7785 0.0111399 0)
(29.6862 0.0155307 0)
(29.571 0.0218812 0)
(29.4278 0.0304418 0)
(29.2493 0.0424921 0)
(29.034 0.0598546 0)
(28.7484 0.0838413 0)
(28.3992 0.118272 0)
(27.9594 0.172382 0)
(27.414 0.24935 0)
(26.6515 0.395982 0)
(25.7054 0.617909 0)
(24.2253 1.06898 0)
(22.3359 1.7325 0)
(19.1582 3.27444 0)
(14.1019 4.68671 0)
(7.01757 8.02494 0)
(29.9988 0.000698313 0)
(29.9853 0.00212058 0)
(29.9559 0.00367066 0)
(29.9113 0.00564476 0)
(29.8528 0.00824021 0)
(29.7784 0.0117107 0)
(29.6861 0.0163265 0)
(29.571 0.0230022 0)
(29.4278 0.0320033 0)
(29.2499 0.0446983 0)
(29.0327 0.0630613 0)
(28.7466 0.0881307 0)
(28.399 0.12438 0)
(27.9595 0.181015 0)
(27.4139 0.262279 0)
(26.6523 0.414923 0)
(25.7055 0.64827 0)
(24.2307 1.11623 0)
(22.3622 1.81236 0)
(19.2218 3.42195 0)
(14.2847 4.92796 0)
(7.15887 8.49052 0)
(29.9988 0.000732371 0)
(29.9853 0.00222377 0)
(29.9559 0.00384972 0)
(29.9113 0.00592 0)
(29.8529 0.00864183 0)
(29.7785 0.0122815 0)
(29.6862 0.0171221 0)
(29.5711 0.0241239 0)
(29.4278 0.0335593 0)
(29.2507 0.0469634 0)
(29.03 0.0662609 0)
(28.7454 0.0924196 0)
(28.399 0.130496 0)
(27.9598 0.189651 0)
(27.414 0.275206 0)
(26.6532 0.433869 0)
(25.7059 0.678602 0)
(24.2363 1.16314 0)
(22.389 1.89133 0)
(19.2829 3.56659 0)
(14.4681 5.16765 0)
(7.30618 8.96348 0)
(29.9988 0.000766423 0)
(29.9853 0.00232693 0)
(29.9559 0.00402879 0)
(29.9113 0.00619523 0)
(29.8528 0.00904338 0)
(29.7785 0.0128523 0)
(29.6862 0.0179174 0)
(29.5712 0.0252458 0)
(29.4278 0.0351117 0)
(29.2516 0.0492761 0)
(29.0273 0.0694457 0)
(28.7447 0.0967239 0)
(28.3991 0.13661 0)
(27.9601 0.198293 0)
(27.4142 0.288129 0)
(26.6543 0.45282 0)
(25.7068 0.708908 0)
(24.2424 1.20968 0)
(22.4164 1.96943 0)
(19.3427 3.70837 0)
(14.6529 5.4056 0)
(7.45933 9.44398 0)
(29.9988 0.000800467 0)
(29.9853 0.00243006 0)
(29.9559 0.00420787 0)
(29.9113 0.00647044 0)
(29.8529 0.0094449 0)
(29.7786 0.0134229 0)
(29.6863 0.0187125 0)
(29.5713 0.026368 0)
(29.4279 0.0366592 0)
(29.252 0.0516219 0)
(29.0254 0.0725309 0)
(28.7442 0.101038 0)
(28.3992 0.142728 0)
(27.9604 0.206933 0)
(27.4145 0.301046 0)
(26.6557 0.471771 0)
(25.7086 0.739176 0)
(24.2493 1.25581 0)
(22.4447 2.04668 0)
(19.402 3.84727 0)
(14.8402 5.64168 0)
(7.61826 9.93222 0)
(29.9988 0.000834505 0)
(29.9853 0.00253316 0)
(29.9559 0.00438696 0)
(29.9113 0.00674564 0)
(29.8528 0.00984637 0)
(29.7786 0.0139936 0)
(29.6862 0.0195073 0)
(29.5713 0.0274904 0)
(29.428 0.0382025 0)
(29.2522 0.0539513 0)
(29.0242 0.0755463 0)
(28.744 0.105356 0)
(28.3994 0.148842 0)
(27.9608 0.215573 0)
(27.4151 0.313956 0)
(26.6575 0.490714 0)
(25.7113 0.769383 0)
(24.2571 1.30154 0)
(22.474 2.1231 0)
(19.4616 3.98327 0)
(15.0312 5.87576 0)
(7.783 10.4284 0)
(29.9988 0.000868535 0)
(29.9853 0.00263623 0)
(29.9559 0.00456606 0)
(29.9114 0.00702081 0)
(29.853 0.0102478 0)
(29.7786 0.0145641 0)
(29.6864 0.0203022 0)
(29.5715 0.0286112 0)
(29.4283 0.0397611 0)
(29.2519 0.0562605 0)
(29.0234 0.0785335 0)
(28.7439 0.109676 0)
(28.3996 0.154956 0)
(27.9612 0.224211 0)
(27.4159 0.326856 0)
(26.6597 0.509636 0)
(25.7151 0.799503 0)
(24.2659 1.34687 0)
(22.5041 2.1987 0)
(19.5221 4.1163 0)
(15.2271 6.10774 0)
(7.95366 10.9327 0)
(29.9988 0.000902558 0)
(29.9853 0.00273928 0)
(29.9559 0.00474517 0)
(29.9113 0.00729597 0)
(29.8529 0.0106492 0)
(29.7786 0.0151346 0)
(29.6864 0.0210971 0)
(29.5714 0.0297327 0)
(29.4286 0.0413295 0)
(29.251 0.0586697 0)
(29.0229 0.0815291 0)
(28.7438 0.113996 0)
(28.3999 0.161066 0)
(27.9618 0.232845 0)
(27.4168 0.339738 0)
(26.6624 0.528523 0)
(25.72 0.82952 0)
(24.2757 1.39181 0)
(22.5352 2.27348 0)
(19.5838 4.24627 0)
(15.4292 6.33751 0)
(8.13045 11.4454 0)
(29.9988 0.000936574 0)
(29.9853 0.00284229 0)
(29.9559 0.00492429 0)
(29.9114 0.00757109 0)
(29.853 0.0110506 0)
(29.7787 0.0157049 0)
(29.6865 0.0218917 0)
(29.5715 0.0308529 0)
(29.4292 0.0429092 0)
(29.2496 0.0610459 0)
(29.0227 0.0845502 0)
(28.7439 0.118315 0)
(28.4001 0.167173 0)
(27.9624 0.241473 0)
(27.4181 0.352599 0)
(26.6656 0.54736 0)
(25.7258 0.85943 0)
(24.2867 1.43638 0)
(22.567 2.34743 0)
(19.6471 4.37309 0)
(15.6387 6.565 0)
(8.31362 11.9669 0)
(29.9988 0.000970582 0)
(29.9853 0.00294527 0)
(29.9559 0.00510343 0)
(29.9113 0.00784619 0)
(29.8529 0.0114519 0)
(29.7787 0.016275 0)
(29.6865 0.022687 0)
(29.5714 0.0319679 0)
(29.4297 0.0445465 0)
(29.2483 0.0632796 0)
(29.0225 0.087598 0)
(28.744 0.122632 0)
(28.4005 0.173276 0)
(27.963 0.250093 0)
(27.4195 0.365431 0)
(26.6692 0.566137 0)
(25.7327 0.88923 0)
(24.2988 1.48057 0)
(22.5996 2.42055 0)
(19.7119 4.49661 0)
(15.8566 6.79011 0)
(8.5035 12.4974 0)
(29.9988 0.00100458 0)
(29.9853 0.00304823 0)
(29.9559 0.00528256 0)
(29.9114 0.00812126 0)
(29.8531 0.0118532 0)
(29.7788 0.016845 0)
(29.6867 0.0234824 0)
(29.5715 0.0330814 0)
(29.4302 0.0462094 0)
(29.2473 0.0654881 0)
(29.0225 0.0906649 0)
(28.7442 0.126947 0)
(28.4008 0.179375 0)
(27.9638 0.258703 0)
(27.4212 0.378231 0)
(26.6733 0.584846 0)
(25.7404 0.918916 0)
(24.3122 1.52439 0)
(22.633 2.49283 0)
(19.7783 4.61666 0)
(16.0836 7.01275 0)
(8.70042 13.0373 0)
(29.9988 0.00103858 0)
(29.9854 0.00315116 0)
(29.9559 0.00546171 0)
(29.9114 0.0083963 0)
(29.8529 0.0122545 0)
(29.7787 0.0174148 0)
(29.6866 0.0242776 0)
(29.5715 0.0341943 0)
(29.4304 0.0478838 0)
(29.2466 0.0676872 0)
(29.0226 0.0937422 0)
(28.7443 0.131261 0)
(28.4012 0.185469 0)
(27.9646 0.267299 0)
(27.4231 0.390993 0)
(26.6778 0.603481 0)
(25.7489 0.948481 0)
(24.3269 1.56785 0)
(22.6672 2.56428 0)
(19.8461 4.7331 0)
(16.3203 7.23282 0)
(8.90473 13.5869 0)
(29.9988 0.00107256 0)
(29.9853 0.00325405 0)
(29.956 0.00564086 0)
(29.9114 0.00867131 0)
(29.8531 0.0126557 0)
(29.7788 0.0179844 0)
(29.6868 0.0250729 0)
(29.5716 0.035306 0)
(29.4307 0.049569 0)
(29.2462 0.0698655 0)
(29.0227 0.096825 0)
(28.7446 0.135573 0)
(28.4016 0.191559 0)
(27.9655 0.275881 0)
(27.4252 0.403717 0)
(26.6826 0.622037 0)
(25.7583 0.977913 0)
(24.343 1.61094 0)
(22.7023 2.63489 0)
(19.9151 4.84574 0)
(16.5667 7.4502 0)
(9.11678 14.1467 0)
(29.9988 0.00110654 0)
(29.9854 0.00335692 0)
(29.956 0.00582001 0)
(29.9114 0.00894629 0)
(29.853 0.0130568 0)
(29.7788 0.018554 0)
(29.6867 0.0258678 0)
(29.5717 0.0364174 0)
(29.4307 0.0512607 0)
(29.2462 0.0720294 0)
(29.0229 0.0999109 0)
(28.7448 0.139883 0)
(28.402 0.197643 0)
(27.9665 0.284447 0)
(27.4275 0.416398 0)
(26.6877 0.640509 0)
(25.7684 1.0072 0)
(24.3604 1.65367 0)
(22.7382 2.70466 0)
(19.9851 4.95442 0)
(16.8229 7.66478 0)
(9.3369 14.717 0)
(29.9988 0.00114052 0)
(29.9854 0.00345976 0)
(29.956 0.00599917 0)
(29.9115 0.00922124 0)
(29.8532 0.013458 0)
(29.7789 0.0191235 0)
(29.6869 0.0266621 0)
(29.5719 0.037529 0)
(29.4307 0.0529564 0)
(29.2463 0.0741811 0)
(29.0231 0.102999 0)
(28.7451 0.144192 0)
(28.4025 0.203722 0)
(27.9675 0.292996 0)
(27.4299 0.429037 0)
(26.6932 0.658889 0)
(25.7792 1.03632 0)
(24.3793 1.69602 0)
(22.7752 2.77359 0)
(20.0563 5.05898 0)
(17.0885 7.87641 0)
(9.56537 15.2982 0)
(29.9988 0.00117448 0)
(29.9854 0.00356258 0)
(29.956 0.00617832 0)
(29.9114 0.00949618 0)
(29.853 0.0138589 0)
(29.7789 0.0196932 0)
(29.6868 0.027456 0)
(29.572 0.038636 0)
(29.4304 0.0546536 0)
(29.2466 0.0763244 0)
(29.0233 0.106089 0)
(28.7454 0.148499 0)
(28.4029 0.209794 0)
(27.9686 0.301526 0)
(27.4324 0.441629 0)
(26.6989 0.677172 0)
(25.7908 1.06527 0)
(24.3995 1.738 0)
(22.8134 2.84171 0)
(20.1286 5.15926 0)
(17.3633 8.08496 0)
(9.80245 15.8907 0)
(29.9988 0.00120845 0)
(29.9854 0.00366536 0)
(29.956 0.00635749 0)
(29.9115 0.00977103 0)
(29.8532 0.01426 0)
(29.779 0.0202619 0)
(29.687 0.0282531 0)
(29.5724 0.0397385 0)
(29.4302 0.0562657 0)
(29.2469 0.0784603 0)
(29.0236 0.109181 0)
(28.7457 0.152805 0)
(28.4034 0.21586 0)
(27.9697 0.310037 0)
(27.4351 0.454174 0)
(26.7048 0.695351 0)
(25.803 1.09403 0)
(24.4212 1.7796 0)
(22.8529 2.909 0)
(20.2023 5.25513 0)
(17.6471 8.29029 0)
(10.0484 16.495 0)
(29.9988 0.0012424 0)
(29.9854 0.00376813 0)
(29.956 0.00653663 0)
(29.9114 0.0100459 0)
(29.853 0.0146606 0)
(29.779 0.0208324 0)
(29.6869 0.0290396 0)
(29.5726 0.0409045 0)
(29.4293 0.0576262 0)
(29.2472 0.0805992 0)
(29.0239 0.112273 0)
(28.7461 0.157109 0)
(28.404 0.221919 0)
(27.9709 0.318529 0)
(27.4379 0.46667 0)
(26.711 0.71342 0)
(25.8159 1.12259 0)
(24.4443 1.8208 0)
(22.894 2.97547 0)
(20.2774 5.34645 0)
(17.94 8.49223 0)
(10.3034 17.1114 0)
(29.9988 0.00127635 0)
(29.9854 0.00387086 0)
(29.956 0.00671576 0)
(29.9115 0.0103208 0)
(29.8532 0.0150614 0)
(29.7791 0.0214011 0)
(29.6869 0.029836 0)
(29.5733 0.0420225 0)
(29.4275 0.0595768 0)
(29.2475 0.0827678 0)
(29.0242 0.115366 0)
(28.7464 0.161411 0)
(28.4045 0.227971 0)
(27.9721 0.326999 0)
(27.4408 0.479114 0)
(26.7174 0.731373 0)
(25.8294 1.15093 0)
(24.4688 1.8616 0)
(22.9368 3.04111 0)
(20.3543 5.43308 0)
(18.2421 8.69064 0)
(10.5677 17.7404 0)
(29.9988 0.00131029 0)
(29.9854 0.00397356 0)
(29.956 0.00689491 0)
(29.9115 0.0105955 0)
(29.8531 0.0154622 0)
(29.7791 0.0219701 0)
(29.6868 0.0306241 0)
(29.5736 0.0432026 0)
(29.4262 0.0613971 0)
(29.2479 0.0849613 0)
(29.0245 0.11846 0)
(28.7468 0.165712 0)
(28.4051 0.234016 0)
(27.9734 0.335447 0)
(27.4438 0.491506 0)
(26.7241 0.749203 0)
(25.8435 1.17903 0)
(24.4946 1.90198 0)
(22.9817 3.10592 0)
(20.4329 5.5149 0)
(18.5539 8.88537 0)
(10.8415 18.3824 0)
(29.9988 0.00134423 0)
(29.9854 0.00407623 0)
(29.956 0.00707398 0)
(29.9115 0.0108705 0)
(29.8533 0.0158617 0)
(29.7793 0.0225449 0)
(29.687 0.031389 0)
(29.5738 0.0444051 0)
(29.4256 0.062912 0)
(29.2482 0.0871611 0)
(29.0248 0.121553 0)
(28.7471 0.170011 0)
(28.4056 0.240054 0)
(27.9747 0.343873 0)
(27.4469 0.503843 0)
(26.7309 0.766906 0)
(25.8582 1.20688 0)
(24.5217 1.94191 0)
(23.0289 3.1699 0)
(20.5131 5.59176 0)
(18.8754 9.07624 0)
(11.125 19.0378 0)
(29.9988 0.00137816 0)
(29.9854 0.00417888 0)
(29.956 0.00725309 0)
(29.9115 0.011145 0)
(29.8532 0.0162629 0)
(29.7792 0.0231089 0)
(29.6871 0.0322239 0)
(29.573 0.045272 0)
(29.4252 0.0643688 0)
(29.2484 0.0893583 0)
(29.0251 0.124646 0)
(28.7475 0.174308 0)
(28.4062 0.246083 0)
(27.976 0.352278 0)
(27.45 0.516125 0)
(26.7379 0.784477 0)
(25.8733 1.23448 0)
(24.5499 1.98137 0)
(23.0789 3.23304 0)
(20.5942 5.66352 0)
(19.2059 9.26314 0)
(11.4186 19.707 0)
(29.9988 0.00141208 0)
(29.9854 0.00428156 0)
(29.956 0.00743222 0)
(29.9115 0.0114197 0)
(29.8534 0.0166632 0)
(29.7791 0.0236793 0)
(29.6883 0.0330279 0)
(29.5688 0.0466622 0)
(29.425 0.0658578 0)
(29.2486 0.0915524 0)
(29.0254 0.127738 0)
(28.7479 0.178602 0)
(28.4068 0.252104 0)
(27.9773 0.360659 0)
(27.4532 0.528349 0)
(26.7451 0.80191 0)
(25.8889 1.2618 0)
(24.5792 2.02032 0)
(23.1319 3.29536 0)
(20.6757 5.73011 0)
(19.5423 9.44606 0)
(11.7223 20.3912 0)
(29.9988 0.00144583 0)
(29.9854 0.00438413 0)
(29.956 0.00761151 0)
(29.9115 0.0116944 0)
(29.8533 0.0170647 0)
(29.7788 0.0242448 0)
(29.6891 0.0338553 0)
(29.5658 0.0480954 0)
(29.4248 0.0673809 0)
(29.2487 0.0937469 0)
(29.0257 0.130829 0)
(28.7482 0.182895 0)
(28.4074 0.258117 0)
(27.9787 0.369019 0)
(27.4564 0.540513 0)
(26.7525 0.8192 0)
(25.9048 1.28884 0)
(24.6094 2.05872 0)
(23.1886 3.35687 0)
(20.7568 5.7915 0)
(19.8776 9.6247 0)
(12.0358 21.0979 0)
(29.9988 0.00147909 0)
(29.9854 0.00448563 0)
(29.956 0.00778953 0)
(29.9116 0.0119675 0)
(29.8535 0.0174658 0)
(29.7789 0.0247984 0)
(29.6894 0.034745 0)
(29.5648 0.0492336 0)
(29.4246 0.0689109 0)
(29.2488 0.0959377 0)
(29.0259 0.133918 0)
(28.7486 0.187184 0)
(28.408 0.26412 0)
(27.98 0.37736 0)
(27.4597 0.552616 0)
(26.76 0.836344 0)
(25.9211 1.31558 0)
(24.6404 2.0965 0)
(23.2492 3.41759 0)
(20.8375 5.84778 0)
(20.2005 9.79702 0)
(12.4453 21.8485 0)
(0.730496 -0.00177369 0)
(-0.620762 0.0226103 0)
(-1.34269 0.00821535 0)
(-1.42806 -0.000420115 0)
(-1.28269 -0.00456142 0)
(-0.887213 -0.00440243 0)
(-0.723143 -0.00206352 0)
(-0.607368 -0.000476184 0)
(-0.653507 -7.34828e-06 0)
(-0.596681 0.0002566 0)
(-0.6946 0.000877594 0)
(-0.724965 3.15007e-05 0)
(-0.742147 -0.000670918 0)
(-0.610593 -0.00218618 0)
(-0.237926 -0.00380691 0)
(0.397065 -0.00491964 0)
(1.17554 -0.00563915 0)
(2.12355 -0.00646361 0)
(3.28931 -0.00715388 0)
(4.64119 -0.00746019 0)
(6.15266 -0.00733503 0)
(7.71653 -0.00674947 0)
(9.24233 -0.00599329 0)
(10.6864 -0.00525733 0)
(12.0556 -0.00463834 0)
(13.3772 -0.004138 0)
(14.6618 -0.00369039 0)
(15.8946 -0.00332782 0)
(17.1199 -0.00311175 0)
(18.3888 -0.00269026 0)
(19.4468 -0.00158657 0)
(19.8455 -0.00508586 0)
(24.7112 -0.00878235 0)
(29.5009 -0.00439535 0)
(29.8712 -0.000288407 0)
(0.746433 -0.00598451 0)
(-0.603926 0.0677129 0)
(-1.32391 0.0245306 0)
(-1.40576 -0.00110595 0)
(-1.26331 -0.0136434 0)
(-0.870659 -0.013089 0)
(-0.711339 -0.00617046 0)
(-0.598221 -0.00142523 0)
(-0.648182 -0.000109835 0)
(-0.588346 0.000648166 0)
(-0.679545 0.00241708 0)
(-0.691746 0.000114747 0)
(-0.701855 -0.00154812 0)
(-0.601747 -0.00589668 0)
(-0.278479 -0.0111142 0)
(0.347133 -0.0148359 0)
(1.16013 -0.0169698 0)
(2.14264 -0.0191633 0)
(3.31627 -0.0210066 0)
(4.65046 -0.0219385 0)
(6.1328 -0.0217651 0)
(7.68498 -0.0201994 0)
(9.22132 -0.0179442 0)
(10.6751 -0.0157156 0)
(12.0493 -0.0138838 0)
(13.3715 -0.0124082 0)
(14.6547 -0.0110684 0)
(15.8847 -0.00996958 0)
(17.1055 -0.009322 0)
(18.3718 -0.00810327 0)
(19.4476 -0.00475211 0)
(19.8375 -0.0148691 0)
(24.4636 -0.0262119 0)
(29.4577 -0.0135747 0)
(29.8759 -0.000915404 0)
(0.765515 -0.0110493 0)
(-0.585503 0.112711 0)
(-1.30267 0.0406332 0)
(-1.37735 -0.00180712 0)
(-1.23371 -0.0227672 0)
(-0.845299 -0.0216179 0)
(-0.691185 -0.0101808 0)
(-0.58121 -0.00222294 0)
(-0.63247 -0.000155375 0)
(-0.567483 0.000972606 0)
(-0.653247 0.00387394 0)
(-0.648294 -0.000329958 0)
(-0.66261 -0.00245789 0)
(-0.605091 -0.00900316 0)
(-0.325249 -0.0177571 0)
(0.304729 -0.0246472 0)
(1.15894 -0.0285187 0)
(2.17497 -0.0318719 0)
(3.35294 -0.0346249 0)
(4.66839 -0.0360739 0)
(6.12462 -0.0359872 0)
(7.66722 -0.0336362 0)
(9.21566 -0.0300125 0)
(10.6804 -0.0262857 0)
(12.0589 -0.0231571 0)
(13.3812 -0.0206469 0)
(14.6625 -0.0184042 0)
(15.889 -0.0165726 0)
(17.1041 -0.0154926 0)
(18.3659 -0.0135396 0)
(19.4568 -0.00795954 0)
(19.8419 -0.0241635 0)
(24.2411 -0.0436655 0)
(29.4164 -0.0231148 0)
(29.8803 -0.00162677 0)
(0.787985 -0.01705 0)
(-0.565605 0.157735 0)
(-1.27842 0.0565043 0)
(-1.34154 -0.00272548 0)
(-1.19346 -0.0318566 0)
(-0.810375 -0.0299837 0)
(-0.662418 -0.0140588 0)
(-0.556081 -0.00298503 0)
(-0.607607 -0.000280414 0)
(-0.538091 0.00116878 0)
(-0.619228 0.00507192 0)
(-0.597549 -0.000798608 0)
(-0.62019 -0.00285569 0)
(-0.607265 -0.0113948 0)
(-0.368396 -0.0242784 0)
(0.267914 -0.0350798 0)
(1.1665 -0.0408812 0)
(2.21945 -0.045099 0)
(3.40272 -0.0483746 0)
(4.70029 -0.050099 0)
(6.13221 -0.0500828 0)
(7.66611 -0.047103 0)
(9.22676 -0.0421718 0)
(10.7031 -0.0369058 0)
(12.0862 -0.032447 0)
(13.4079 -0.0288873 0)
(14.6865 -0.0257314 0)
(15.9084 -0.0231548 0)
(17.1163 -0.0216402 0)
(18.3714 -0.0189992 0)
(19.4749 -0.0111877 0)
(19.8591 -0.0330419 0)
(24.0437 -0.0609191 0)
(29.3766 -0.0330595 0)
(29.8841 -0.00240899 0)
(0.814029 -0.0240893 0)
(-0.544372 0.202723 0)
(-1.25077 0.0720055 0)
(-1.29777 -0.00400793 0)
(-1.14292 -0.0409246 0)
(-0.766098 -0.0381362 0)
(-0.625742 -0.01777 0)
(-0.523297 -0.00369934 0)
(-0.574305 -0.000454952 0)
(-0.501068 0.00126229 0)
(-0.576713 0.00600431 0)
(-0.53808 -0.00131911 0)
(-0.572783 -0.00277666 0)
(-0.606293 -0.0130696 0)
(-0.405625 -0.0305181 0)
(0.239136 -0.0458932 0)
(1.1864 -0.0538929 0)
(2.28221 -0.0586995 0)
(3.47231 -0.0621293 0)
(4.75156 -0.0639399 0)
(6.15918 -0.064033 0)
(7.68429 -0.0605839 0)
(9.25727 -0.0544341 0)
(10.7462 -0.0475995 0)
(12.1342 -0.0417588 0)
(13.4546 -0.0371178 0)
(14.7292 -0.0330345 0)
(15.9449 -0.0297017 0)
(17.1438 -0.0277481 0)
(18.3895 -0.0244674 0)
(19.5029 -0.0144438 0)
(19.8901 -0.0415285 0)
(23.8702 -0.0780227 0)
(29.3383 -0.0433344 0)
(29.8875 -0.00326057 0)
(0.84373 -0.0322877 0)
(-0.521891 0.247684 0)
(-1.21926 0.0869931 0)
(-1.24528 -0.00576941 0)
(-1.08212 -0.0500155 0)
(-0.712413 -0.0460504 0)
(-0.581429 -0.0212972 0)
(-0.482923 -0.00437144 0)
(-0.53289 -0.00067871 0)
(-0.456822 0.00125012 0)
(-0.525326 0.00665297 0)
(-0.469222 -0.00186481 0)
(-0.519133 -0.00217256 0)
(-0.599821 -0.0140292 0)
(-0.433699 -0.0364807 0)
(0.222552 -0.0570425 0)
(1.22413 -0.0675237 0)
(2.37175 -0.0726402 0)
(3.57109 -0.0758206 0)
(4.82986 -0.0775421 0)
(6.21096 -0.0778178 0)
(7.72603 -0.0740716 0)
(9.3115 -0.066797 0)
(10.8145 -0.058367 0)
(12.2083 -0.0510878 0)
(13.5264 -0.045328 0)
(14.7949 -0.0403007 0)
(16.0019 -0.0362001 0)
(17.1889 -0.0338023 0)
(18.4222 -0.0299296 0)
(19.5423 -0.0177298 0)
(19.936 -0.0496452 0)
(23.7193 -0.0949671 0)
(29.3014 -0.0538912 0)
(29.8904 -0.00417797 0)
(0.877015 -0.0417647 0)
(-0.498184 0.292621 0)
(-1.18333 0.10131 0)
(-1.18294 -0.00812403 0)
(-1.01058 -0.0591513 0)
(-0.648884 -0.0536923 0)
(-0.529239 -0.0246176 0)
(-0.434609 -0.00500533 0)
(-0.483159 -0.000946888 0)
(-0.405091 0.00112472 0)
(-0.464585 0.00699103 0)
(-0.390329 -0.0024054 0)
(-0.457661 -0.00102881 0)
(-0.585257 -0.0143285 0)
(-0.450017 -0.0422515 0)
(0.221992 -0.0685961 0)
(1.28609 -0.0818563 0)
(2.49948 -0.0869943 0)
(3.71254 -0.089442 0)
(4.94593 -0.0908618 0)
(6.29535 -0.0914103 0)
(7.79773 -0.0875563 0)
(9.39583 -0.0792652 0)
(10.9153 -0.0692181 0)
(12.3166 -0.0604343 0)
(13.6312 -0.0535063 0)
(14.8902 -0.0475129 0)
(16.0842 -0.0426321 0)
(17.2554 -0.0397851 0)
(18.472 -0.0353698 0)
(19.5948 -0.0210452 0)
(19.9991 -0.0574123 0)
(23.5899 -0.111729 0)
(29.266 -0.0646903 0)
(29.8929 -0.00515796 0)
(0.913608 -0.052635 0)
(-0.473214 0.337518 0)
(-1.14231 0.114773 0)
(-1.10927 -0.0111883 0)
(-0.927604 -0.0683283 0)
(-0.57485 -0.0610152 0)
(-0.468538 -0.0277031 0)
(-0.377657 -0.00560521 0)
(-0.424426 -0.00125443 0)
(-0.344986 0.000875297 0)
(-0.393463 0.00700431 0)
(-0.300115 -0.00294343 0)
(-0.385975 0.000656663 0)
(-0.559785 -0.0140116 0)
(-0.452595 -0.0479171 0)
(0.240563 -0.0806863 0)
(1.3792 -0.097072 0)
(2.68024 -0.101921 0)
(3.91664 -0.103019 0)
(5.11537 -0.103828 0)
(6.42343 -0.10476 0)
(7.90848 -0.101021 0)
(9.51926 -0.0918465 0)
(11.0585 -0.0801698 0)
(12.4708 -0.0698018 0)
(13.7813 -0.0616363 0)
(15.0255 -0.0546438 0)
(16.1997 -0.0489698 0)
(17.3485 -0.0456718 0)
(18.543 -0.0407673 0)
(19.6634 -0.0243884 0)
(20.0822 -0.0648439 0)
(23.4818 -0.128279 0)
(29.232 -0.075695 0)
(29.8948 -0.00619733 0)
(0.952983 -0.0650052 0)
(-0.446875 0.382334 0)
(-1.0954 0.127166 0)
(-1.02272 -0.0150801 0)
(-0.832563 -0.0775244 0)
(-0.489663 -0.0679711 0)
(-0.398484 -0.0305268 0)
(-0.311131 -0.00617756 0)
(-0.355627 -0.00160088 0)
(-0.275097 0.00048562 0)
(-0.310225 0.00665618 0)
(-0.196437 -0.00348335 0)
(-0.300819 0.00288073 0)
(-0.520148 -0.0130969 0)
(-0.439168 -0.053541 0)
(0.281651 -0.0934743 0)
(1.51117 -0.113448 0)
(2.93212 -0.117695 0)
(4.21297 -0.116625 0)
(5.36148 -0.116332 0)
(6.61121 -0.117778 0)
(8.07114 -0.114433 0)
(9.69417 -0.104552 0)
(11.258 -0.0912503 0)
(12.6871 -0.0792022 0)
(13.9946 -0.0696967 0)
(15.217 -0.0616513 0)
(16.3597 -0.0551686 0)
(17.4761 -0.0514255 0)
(18.6406 -0.0460941 0)
(19.7515 -0.0277555 0)
(20.1893 -0.071948 0)
(23.3956 -0.144578 0)
(29.1999 -0.0868677 0)
(29.8962 -0.00729268 0)
(0.994341 -0.0789701 0)
(-0.418993 0.426994 0)
(-1.04163 0.138243 0)
(-0.921942 -0.0199131 0)
(-0.725155 -0.0867006 0)
(-0.392937 -0.0745187 0)
(-0.318191 -0.0330683 0)
(-0.233966 -0.00673282 0)
(-0.275422 -0.00199261 0)
(-0.193594 -7.02671e-05 0)
(-0.212431 0.00591215 0)
(-0.0763618 -0.00406056 0)
(-0.198166 0.00562853 0)
(-0.462366 -0.0115928 0)
(-0.406392 -0.0591717 0)
(0.349995 -0.107134 0)
(1.6909 -0.131347 0)
(3.27277 -0.134748 0)
(4.63935 -0.130398 0)
(5.71825 -0.128212 0)
(6.88159 -0.130324 0)
(8.30361 -0.127743 0)
(9.93719 -0.117394 0)
(11.5316 -0.102506 0)
(12.9867 -0.0886679 0)
(14.296 -0.0776688 0)
(15.4885 -0.068473 0)
(16.5817 -0.0611575 0)
(17.6489 -0.0569906 0)
(18.7721 -0.0513107 0)
(19.8641 -0.0311388 0)
(20.3259 -0.0787267 0)
(23.3334 -0.160582 0)
(29.1697 -0.0981686 0)
(29.8971 -0.0084402 0)
(1.03658 -0.0946062 0)
(-0.389318 0.471385 0)