/*--------------------------------*- C++ -*----------------------------------*\
| =========                 |                                                 |
| \\      /  F ield         | OpenFOAM: The Open Source CFD Toolbox           |
|  \\    /   O peration     | Version:  v1912                                 |
|   \\  /    A nd           | Website:  www.openfoam.com                      |
|    \\/     M anipulation  |                                                 |
\*---------------------------------------------------------------------------*/
FoamFile
{
    version     2.0;
    format      ascii;
    class       volScalarField;
    location    "500";
    object      yPlus;
}
// * * * * * * * * * * * * * * * * * * * * * * * * * * * * * * * * * * * * * //

dimensions      [0 0 0 0 0 0 0];


internalField   uniform 0;

boundaryField
{
    inlet
    {
        type            calculated;
        value           uniform 0;
    }
    outlet
    {
        type            calculated;
        value           uniform 0;
    }
    lowerSymmetry
    {
        type            symmetryPlane;
    }
    obstical
    {
        type            calculated;
        value           nonuniform List<scalar> 
88
(
478.241
480.451
484.85
491.416
500.085
510.769
523.381
537.832
554.038
571.919
591.401
612.41
634.865
658.679
683.756
710.003
737.329
765.652
794.901
825.013
855.942
887.647
920.1
953.283
987.184
1021.8
1057.14
1093.2
1130.01
1167.58
1205.93
1245.09
1285.07
1325.89
1367.58
1410.16
1453.65
1498.07
1543.45
1589.8
1637.15
1685.56
1735.45
1790.74
75.322
76.7216
78.3955
80.3642
82.6427
85.2369
88.1395
91.3256
94.7503
98.3461
102.022
105.664
109.138
112.292
114.965
116.995
118.235
118.557
117.873
116.136
113.35
109.564
104.874
99.4217
93.3996
87.0613
80.7415
74.8835
70.0609
66.9494
66.1879
68.1378
72.7289
79.5574
88.1294
98.0446
109.074
121.165
134.428
149.238
165.995
185.02
206.601
231.56
)
;
    }
    obsticalTop
    {
        type            calculated;
        value           nonuniform List<scalar> 
20
(
53.4061
38.8281
47.1691
53.2474
56.0842
57.712
58.3085
57.9927
57.0346
55.565
53.558
50.9014
47.4981
43.1571
37.8482
30.9313
24.511
14.9712
13.4468
11.3074
)
;
    }
    top
    {
        type            calculated;
        value           uniform 0;
    }
    defaultFaces
    {
        type            empty;
    }
}


// ************************************************************************* //
