/*--------------------------------*- C++ -*----------------------------------*\
| =========                 |                                                 |
| \\      /  F ield         | OpenFOAM: The Open Source CFD Toolbox           |
|  \\    /   O peration     | Version:  v1912                                 |
|   \\  /    A nd           | Website:  www.openfoam.com                      |
|    \\/     M anipulation  |                                                 |
\*---------------------------------------------------------------------------*/
FoamFile
{
    version     2.0;
    format      ascii;
    class       volScalarField;
    location    "375";
    object      p;
}
// * * * * * * * * * * * * * * * * * * * * * * * * * * * * * * * * * * * * * //

dimensions      [0 2 -2 0 0 0 0];


internalField   nonuniform List<scalar> 
2000
(
-0.0461803
0.071231
0.125811
0.118923
0.103094
0.0967871
0.0961808
0.0975317
0.0977506
0.0975255
0.0976608
0.0973306
0.0970623
0.0970044
0.0970518
0.097015
0.0968937
0.096843
0.0968264
0.0968186
0.0967992
0.0967613
0.0967075
0.0966536
0.0966143
0.0965937
0.096589
0.0965955
0.0966101
0.0966316
0.0966581
0.096686
0.0967058
0.0967097
0.0966906
0.0966433
0.0965665
0.0964645
0.0963485
0.0962333
0.0961384
0.0960853
0.0960955
0.096183
0.0963535
0.0966039
0.096919
0.0972732
0.0976335
0.0979607
0.098204
0.0982835
0.0980562
0.0972669
0.0955384
0.0924588
0.0877328
0.0813344
0.0737908
0.0666349
0.0621239
0.0616228
0.0660898
0.0753351
0.0883664
0.104026
0.121251
0.139002
0.156136
0.171419
0.183789
0.192383
0.196459
0.195291
0.188235
0.174767
0.153853
0.125353
0.0836539
0.04129
0.00706465
0.0922417
0.13106
0.117865
0.100124
0.0959227
0.0994547
0.10189
0.0991444
0.0959142
0.0954713
0.0967634
0.0972188
0.0970903
0.0972463
0.0970628
0.0968788
0.0967635
0.0967397
0.0967345
0.0967497
0.0967492
0.0967088
0.0966527
0.096608
0.0965822
0.096577
0.0965863
0.0966035
0.0966281
0.0966627
0.0967014
0.0967391
0.0967644
0.0967639
0.096726
0.0966444
0.096521
0.0963651
0.0961955
0.0960373
0.0959204
0.0958769
0.0959366
0.0961186
0.0964221
0.0968272
0.097302
0.0978142
0.0983351
0.0988053
0.0990707
0.098808
0.0974298
0.094114
0.0881604
0.0794493
0.0686996
0.0577413
0.0498745
0.0486239
0.0533773
0.0619269
0.073446
0.0874847
0.103504
0.120732
0.138126
0.154538
0.168825
0.179949
0.186973
0.189106
0.18574
0.176357
0.160545
0.137484
0.107389
0.0663232
0.029292
0.05813
0.0919283
0.11462
0.113063
0.103864
0.0996867
0.0997215
0.0990856
0.0971895
0.0965222
0.0981059
0.099664
0.0986423
0.0961374
0.095225
0.0961023
0.0969842
0.0971222
0.0969434
0.0968371
0.0967627
0.0966841
0.0966359
0.0966247
0.0966092
0.0965854
0.0965566
0.0965278
0.0965245
0.0965475
0.0966009
0.0966803
0.0967726
0.0968584
0.0969152
0.0969164
0.0968379
0.0966713
0.0964269
0.0961316
0.0958234
0.0955498
0.0953718
0.0953566
0.0955624
0.0960096
0.0966895
0.0975801
0.098632
0.0997658
0.100825
0.101449
0.101142
0.0992356
0.0950321
0.0881311
0.0788758
0.0686732
0.0597747
0.0540376
0.0522556
0.0552967
0.062752
0.0734969
0.0867149
0.101777
0.117851
0.133836
0.148557
0.160914
0.16995
0.174879
0.175102
0.17019
0.159787
0.143649
0.121251
0.0931574
0.0566703
0.024984
0.083115
0.0931289
0.105679
0.109758
0.107065
0.104044
0.102383
0.100655
0.0990383
0.0982273
0.0980293
0.0979106
0.097553
0.0968116
0.0962523
0.0971787
0.0984047
0.0976665
0.096485
0.0960202
0.0959442
0.0961462
0.0964471
0.0966544
0.0967535
0.0967864
0.096787
0.0967439
0.0966669
0.0966165
0.0966217
0.0966954
0.0968317
0.0970051
0.0971682
0.0972565
0.0971997
0.0969704
0.0965823
0.0960849
0.0955401
0.0950098
0.0946037
0.0944534
0.0946897
0.0953263
0.0963602
0.0977966
0.0995058
0.101257
0.102951
0.103814
0.103551
0.101575
0.097401
0.090897
0.0825275
0.0733859
0.0649064
0.058807
0.0565649
0.0589989
0.065735
0.075687
0.087907
0.101605
0.115872
0.129656
0.141915
0.151737
0.158372
0.161237
0.15989
0.154012
0.143332
0.127695
0.106751
0.0811309
0.0489468
0.0208669
0.0954539
0.0990543
0.106574
0.110543
0.109414
0.107084
0.105703
0.104664
0.103363
0.101911
0.100552
0.0994503
0.0987078
0.0978339
0.0968331
0.0968447
0.0973861
0.0975783
0.0973875
0.0969112
0.0965486
0.096434
0.0965062
0.0967005
0.0968708
0.0969392
0.0968524
0.096628
0.096433
0.0963242
0.0963374
0.0964888
0.0967612
0.097104
0.0974375
0.0976928
0.0976986
0.0974107
0.0968511
0.0961136
0.0953078
0.0944534
0.0937307
0.0933466
0.0934806
0.0942529
0.0956206
0.0974536
0.0995664
0.101691
0.103497
0.104491
0.104226
0.102214
0.0981005
0.0919031
0.084158
0.0759412
0.0687095
0.0640067
0.0628675
0.0655762
0.0717333
0.0805314
0.0911181
0.102692
0.114428
0.125467
0.134996
0.142314
0.146849
0.148142
0.145829
0.139623
0.129272
0.114632
0.0954127
0.0722178
0.043546
0.0183079
0.103894
0.105727
0.10968
0.11185
0.111034
0.109425
0.108465
0.107788
0.106827
0.105632
0.104496
0.103492
0.102458
0.101104
0.0996995
0.0989739
0.0988302
0.0986758
0.0980801
0.0971756
0.0965402
0.0963418
0.0964541
0.0966669
0.0968022
0.0968242
0.0967681
0.0966573
0.0965034
0.09639
0.0964087
0.0966023
0.096947
0.0973631
0.0977267
0.0979304
0.0978952
0.097486
0.0967198
0.0957533
0.0947691
0.093894
0.0931787
0.0928758
0.0931972
0.0942081
0.0958262
0.0978833
0.100137
0.102274
0.103931
0.104701
0.104199
0.102124
0.0983568
0.0930873
0.0868887
0.0806757
0.0755296
0.0724418
0.0720485
0.0745253
0.0796204
0.086764
0.0952592
0.104415
0.113558
0.122028
0.1292
0.134517
0.137505
0.137759
0.134932
0.128727
0.118873
0.105204
0.087434
0.06611
0.0398726
0.0166986
0.110703
0.111526
0.112763
0.1131
0.112312
0.111325
0.110664
0.110122
0.109452
0.108691
0.107958
0.107223
0.106344
0.10521
0.104018
0.103143
0.102611
0.101991
0.100998
0.0998785
0.0990486
0.0986105
0.0984291
0.0983289
0.0982024
0.0980314
0.0978283
0.0975884
0.0973275
0.0971305
0.0970777
0.097193
0.0974487
0.0978215
0.0983908
0.0986652
0.0986205
0.0982501
0.0975965
0.0967857
0.0959643
0.0952459
0.0947575
0.0947111
0.0952541
0.0964014
0.0980491
0.100011
0.102047
0.103874
0.105193
0.105704
0.10515
0.103371
0.100362
0.0963336
0.0917433
0.0872515
0.0836042
0.0814791
0.0813332
0.0833085
0.0872324
0.0926973
0.099185
0.106164
0.113114
0.119518
0.124873
0.12871
0.130599
0.130158
0.127035
0.120919
0.111513
0.0986238
0.0819471
0.0619735
0.0373817
0.0156825
0.116579
0.116524
0.115608
0.114398
0.113573
0.113054
0.112575
0.112102
0.111655
0.111212
0.11075
0.110239
0.109622
0.108858
0.108029
0.107316
0.106756
0.106108
0.105219
0.104246
0.103433
0.10286
0.102458
0.102131
0.101818
0.1015
0.101177
0.100852
0.100555
0.100349
0.10029
0.100397
0.100656
0.101042
0.10139
0.101562
0.101481
0.101151
0.100618
0.0999833
0.0993696
0.0988965
0.0986797
0.0988443
0.0994717
0.100554
0.101997
0.103641
0.10529
0.106721
0.107705
0.108026
0.107514
0.106076
0.103738
0.100679
0.0972412
0.0938985
0.0911792
0.0895637
0.089383
0.0907546
0.0935803
0.0975946
0.102435
0.107699
0.112973
0.11783
0.121843
0.124593
0.125686
0.12475
0.121434
0.115413
0.106373
0.0940899
0.0782304
0.0592242
0.0357592
0.0150279
0.121982
0.120992
0.118028
0.115483
0.114726
0.114635
0.114298
0.113886
0.113616
0.113392
0.113112
0.112773
0.112367
0.111868
0.11131
0.110799
0.110366
0.109874
0.109221
0.108484
0.10782
0.107306
0.106914
0.106585
0.106272
0.105958
0.105645
0.105344
0.105083
0.104902
0.104837
0.104902
0.10508
0.105332
0.105507
0.105614
0.105556
0.105314
0.104928
0.104474
0.104048
0.103741
0.103639
0.103824
0.104349
0.105207
0.106327
0.107586
0.108831
0.10989
0.110588
0.110763
0.110291
0.109112
0.107254
0.104856
0.102171
0.0995444
0.0973617
0.0959784
0.0956525
0.0964974
0.0984715
0.101401
0.105022
0.109018
0.113046
0.116745
0.119744
0.121669
0.122154
0.120845
0.117395
0.111473
0.102744
0.090952
0.075725
0.0574272
0.0347419
0.0145972
0.127211
0.125024
0.119828
0.116183
0.115718
0.116042
0.11581
0.115483
0.115392
0.115353
0.115221
0.115016
0.114758
0.114428
0.114046
0.113687
0.113378
0.113026
0.112556
0.112015
0.111517
0.111125
0.110827
0.110574
0.110332
0.110087
0.109842
0.109612
0.109415
0.109281
0.109235
0.109285
0.109418
0.109591
0.10969
0.109758
0.109713
0.109521
0.109215
0.108854
0.108512
0.108261
0.108169
0.1083
0.10869
0.109337
0.110184
0.111138
0.11208
0.112871
0.113374
0.113459
0.113031
0.112041
0.110513
0.108552
0.106352
0.104174
0.102312
0.101045
0.100583
0.101032
0.102378
0.104502
0.107203
0.110227
0.113289
0.116081
0.11828
0.119553
0.119563
0.117973
0.114442
0.108631
0.100187
0.0888177
0.074102
0.056337
0.0341745
0.0143567
0.13245
0.128599
0.120906
0.116513
0.116603
0.117292
0.117117
0.116899
0.116996
0.117125
0.117126
0.117041
0.116904
0.116701
0.116447
0.116197
0.115974
0.115715
0.115366
0.114962
0.114587
0.114294
0.114072
0.113885
0.113707
0.113526
0.113347
0.113181
0.113043
0.112954
0.112932
0.112982
0.113087
0.113207
0.113286
0.113327
0.11328
0.113116
0.112858
0.112553
0.11226
0.112035
0.111937
0.112014
0.112296
0.112781
0.113429
0.114167
0.114897
0.115508
0.115884
0.115921
0.115537
0.114692
0.113403
0.111751
0.109888
0.108019
0.106376
0.105182
0.10461
0.104756
0.105621
0.10712
0.109097
0.111348
0.113635
0.115696
0.11725
0.118001
0.117639
0.115844
0.11228
0.1066
0.0984276
0.0874365
0.0731477
0.0557936
0.0339446
0.0143046
0.137816
0.131646
0.121231
0.11657
0.117435
0.118395
0.118241
0.11816
0.118441
0.118715
0.118834
0.118862
0.118836
0.118744
0.118598
0.11844
0.118289
0.118101
0.11784
0.117532
0.117245
0.117018
0.116847
0.116706
0.116572
0.116437
0.116305
0.116183
0.116087
0.116031
0.116026
0.116077
0.116168
0.116268
0.116342
0.116371
0.116326
0.116187
0.115966
0.115701
0.115438
0.115227
0.115116
0.115145
0.115342
0.115707
0.116211
0.116794
0.117378
0.117867
0.118165
0.118181
0.117845
0.11712
0.116016
0.114598
0.112984
0.111339
0.109851
0.1087
0.108032
0.107931
0.108407
0.109399
0.110785
0.112402
0.11405
0.11551
0.116538
0.11687
0.116222
0.114287
0.11073
0.105196
0.0972861
0.086639
0.0727141
0.0556862
0.033975
0.0144527
0.143388
0.134059
0.120838
0.116474
0.118234
0.119348
0.119211
0.119294
0.119743
0.120136
0.120359
0.120491
0.120565
0.120573
0.120523
0.120448
0.120365
0.120243
0.120057
0.119828
0.119609
0.119436
0.119307
0.119201
0.119101
0.119
0.118902
0.118813
0.118747
0.118713
0.118722
0.118774
0.118858
0.118952
0.119021
0.119046
0.119007
0.118887
0.118694
0.118456
0.118213
0.118007
0.117879
0.117867
0.117994
0.118265
0.118657
0.119124
0.119599
0.120002
0.120249
0.12026
0.11997
0.119346
0.118391
0.117154
0.11573
0.114253
0.112875
0.111746
0.110988
0.110676
0.110825
0.111392
0.112285
0.113372
0.114491
0.115458
0.116062
0.116067
0.115208
0.113187
0.109671
0.104291
0.0966291
0.0862929
0.07268
0.0559211
0.0342051
0.0148033
0.149206
0.135721
0.119825
0.116341
0.119
0.120156
0.120057
0.12032
0.120917
0.121409
0.121724
0.121948
0.122111
0.122205
0.122238
0.122239
0.122221
0.122161
0.122041
0.121881
0.121723
0.121598
0.121506
0.121432
0.121362
0.121291
0.121221
0.12116
0.121117
0.121102
0.121121
0.121176
0.121258
0.121347
0.121413
0.121439
0.121406
0.121302
0.12113
0.120912
0.120681
0.120474
0.120327
0.120276
0.120342
0.120533
0.120835
0.121209
0.1216
0.12194
0.122152
0.122165
0.12192
0.121381
0.120546
0.119452
0.118174
0.11682
0.115516
0.114388
0.11354
0.113038
0.112903
0.113109
0.113587
0.114234
0.114922
0.115495
0.115769
0.115529
0.114524
0.112463
0.109006
0.103779
0.096342
0.0862807
0.0729348
0.0564091
0.0345824
0.0153362
0.15528
0.136524
0.118338
0.116262
0.119713
0.120829
0.120807
0.121255
0.121974
0.122549
0.122947
0.123253
0.123494
0.123663
0.123769
0.123837
0.123877
0.123873
0.123812
0.123712
0.123607
0.123526
0.123469
0.123425
0.123383
0.123339
0.123294
0.123257
0.123235
0.123235
0.123263
0.123321
0.123402
0.123488
0.123555
0.123584
0.123559
0.123469
0.123313
0.12311
0.122885
0.122673
0.122506
0.122416
0.122427
0.122549
0.122773
0.12307
0.123394
0.123683
0.12387
0.123889
0.123681
0.12321
0.122469
0.121482
0.12031
0.119039
0.117776
0.116627
0.115683
0.115008
0.114627
0.114528
0.114665
0.114961
0.115311
0.115583
0.115613
0.115201
0.114104
0.112032
0.108645
0.103558
0.0963182
0.0864941
0.0733746
0.0570635
0.0350613
0.0160067
0.161587
0.136391
0.116553
0.116286
0.120351
0.121388
0.121485
0.122107
0.122924
0.123571
0.124045
0.124423
0.124732
0.124967
0.125137
0.125264
0.125357
0.125404
0.125395
0.125346
0.125288
0.125245
0.12522
0.125204
0.125188
0.125167
0.125145
0.125128
0.125124
0.125138
0.125173
0.125236
0.125317
0.125402
0.125471
0.125504
0.125487
0.125408
0.125265
0.12507
0.124848
0.124625
0.124435
0.124306
0.124264
0.124322
0.124476
0.124705
0.124969
0.125214
0.125378
0.125397
0.125216
0.124794
0.124118
0.123204
0.122098
0.120874
0.119621
0.118433
0.117393
0.116564
0.115977
0.115635
0.115507
0.115536
0.115637
0.115693
0.115554
0.115029
0.11388
0.111818
0.108501
0.103537
0.0964629
0.0868393
0.0739095
0.0578032
0.0356048
0.0167612
0.168077
0.135312
0.114649
0.116423
0.120892
0.121857
0.122106
0.122882
0.123779
0.124489
0.12503
0.125474
0.125842
0.126135
0.126362
0.126541
0.126681
0.126772
0.126808
0.126805
0.126788
0.126779
0.126781
0.126789
0.126795
0.126795
0.126791
0.126791
0.126802
0.126826
0.126868
0.126933
0.127014
0.127098
0.127166
0.127202
0.127189
0.127116
0.126978
0.126785
0.126556
0.126316
0.126095
0.125924
0.125827
0.125822
0.12591
0.126075
0.126284
0.126488
0.126627
0.12664
0.12647
0.126076
0.125439
0.124566
0.123496
0.12229
0.121027
0.119793
0.118667
0.117712
0.116966
0.116442
0.116123
0.115964
0.115893
0.115804
0.115556
0.114963
0.113789
0.111749
0.108496
0.103637
0.0967
0.0872433
0.074473
0.0585645
0.0361802
0.0175505
0.174665
0.133309
0.112787
0.116656
0.121332
0.122259
0.122679
0.123583
0.124544
0.12531
0.125911
0.12641
0.12683
0.127172
0.127447
0.127671
0.127851
0.12798
0.128055
0.128089
0.128106
0.128125
0.12815
0.128176
0.128199
0.128215
0.128224
0.128235
0.128258
0.128283
0.128326
0.128389
0.128465
0.128542
0.128605
0.128636
0.12862
0.128543
0.1284
0.128199
0.127953
0.127687
0.127431
0.127213
0.127063
0.127
0.127028
0.127136
0.127296
0.127462
0.127576
0.127578
0.12741
0.127028
0.12641
0.125557
0.124502
0.123298
0.122018
0.120742
0.119549
0.118502
0.117644
0.116996
0.116548
0.116266
0.116084
0.115905
0.115591
0.11496
0.113781
0.111766
0.10857
0.103798
0.0969743
0.0876577
0.0750209
0.059301
0.0367603
0.0183358
0.181259
0.130479
0.111079
0.11694
0.121671
0.12261
0.123201
0.124204
0.125212
0.126025
0.126673
0.127216
0.127676
0.128056
0.128367
0.128626
0.128837
0.128995
0.129099
0.129161
0.129201
0.129239
0.129278
0.129317
0.129349
0.129372
0.129387
0.129407
0.129422
0.129444
0.129483
0.129537
0.129602
0.129667
0.129718
0.129738
0.129711
0.129623
0.129468
0.12925
0.128983
0.12869
0.128399
0.128141
0.127946
0.127834
0.127815
0.12788
0.128001
0.128137
0.128231
0.128221
0.12805
0.127673
0.127062
0.126219
0.125169
0.123961
0.122666
0.12136
0.120121
0.119012
0.118083
0.117355
0.116827
0.116469
0.116221
0.115989
0.115639
0.114992
0.113816
0.111828
0.108682
0.103983
0.0972517
0.0880524
0.0755274
0.0599838
0.037325
0.0190909
0.187768
0.126953
0.109594
0.117228
0.121916
0.122906
0.123645
0.124715
0.125752
0.126595
0.127275
0.127846
0.128331
0.128736
0.129071
0.129351
0.129582
0.129758
0.129879
0.129957
0.130012
0.130059
0.130105
0.130148
0.130183
0.130207
0.130223
0.130236
0.130244
0.130261
0.130291
0.130334
0.130386
0.130438
0.130477
0.130484
0.130444
0.130344
0.130176
0.129942
0.129656
0.129341
0.129024
0.128737
0.12851
0.128366
0.128315
0.12835
0.128447
0.128562
0.128641
0.128623
0.128449
0.128072
0.127466
0.126627
0.125579
0.124369
0.123063
0.121738
0.12047
0.119324
0.118351
0.117576
0.117002
0.116601
0.116316
0.116056
0.115689
0.115037
0.113871
0.111909
0.108805
0.104167
0.0975128
0.0884114
0.0759811
0.0605987
0.0378616
0.0198018
0.194113
0.12289
0.108371
0.117482
0.122078
0.123129
0.123973
0.125076
0.126126
0.126984
0.127681
0.128266
0.128765
0.129183
0.12953
0.129821
0.130063
0.130247
0.130377
0.130464
0.130525
0.130576
0.130624
0.130667
0.1307
0.130724
0.130738
0.130742
0.130746
0.130758
0.13078
0.130814
0.130857
0.130899
0.130927
0.130925
0.130876
0.130766
0.130588
0.130344
0.130046
0.129716
0.129384
0.12908
0.128835
0.128672
0.128603
0.128621
0.128702
0.128805
0.128876
0.128852
0.128676
0.128301
0.127697
0.126861
0.125814
0.124603
0.123291
0.121955
0.120671
0.119504
0.118506
0.117706
0.117106
0.116682
0.116379
0.116106
0.115733
0.115084
0.113931
0.111993
0.108926
0.104339
0.0977482
0.0887293
0.07638
0.0611414
0.0383631
0.0204641
0.200296
0.118556
0.107439
0.117674
0.122161
0.123261
0.124166
0.125282
0.126335
0.1272
0.127904
0.128497
0.129001
0.129425
0.129778
0.130076
0.130321
0.13051
0.130644
0.130734
0.130798
0.130851
0.130899
0.130941
0.130974
0.130996
0.131007
0.131009
0.13101
0.131018
0.131035
0.131064
0.131101
0.131138
0.13116
0.131152
0.131097
0.130982
0.130798
0.130548
0.130244
0.129907
0.129567
0.129255
0.129001
0.128829
0.12875
0.12876
0.128834
0.128931
0.128997
0.128971
0.128795
0.12842
0.127818
0.126985
0.125939
0.124728
0.123414
0.122073
0.120779
0.119602
0.118591
0.117778
0.117166
0.116731
0.11642
0.116142
0.11577
0.115127
0.113988
0.112072
0.109037
0.104493
0.0979566
0.0890076
0.0767284
0.0616151
0.038827
0.021082
0.206459
0.114468
0.106804
0.117791
0.122178
0.123309
0.124245
0.125367
0.126422
0.127291
0.127999
0.128595
0.129102
0.129529
0.129885
0.130185
0.130433
0.130623
0.130759
0.130851
0.130916
0.13097
0.131018
0.13106
0.131092
0.131111
0.131122
0.131125
0.131125
0.13113
0.131146
0.131172
0.131207
0.131241
0.131261
0.13125
0.131193
0.131075
0.130889
0.130636
0.130329
0.129989
0.129646
0.129331
0.129073
0.128898
0.128816
0.128822
0.128893
0.128987
0.129052
0.129025
0.128849
0.128476
0.127877
0.127045
0.126002
0.124791
0.123476
0.122132
0.120835
0.119652
0.118635
0.117815
0.117198
0.116759
0.116445
0.116169
0.1158
0.115166
0.114041
0.112145
0.109139
0.104633
0.0981434
0.0892551
0.0770385
0.0620336
0.0392599
0.0216747
0.212556
0.111262
0.106408
0.11784
0.122158
0.123303
0.124252
0.125382
0.12644
0.127311
0.128022
0.128619
0.129128
0.129556
0.129914
0.130215
0.130464
0.130655
0.130792
0.130885
0.130951
0.131004
0.131052
0.131094
0.131125
0.131146
0.131156
0.131159
0.131159
0.131164
0.131179
0.131205
0.131239
0.131273
0.131292
0.131281
0.131222
0.131104
0.130917
0.130663
0.130356
0.130016
0.129672
0.129355
0.129097
0.128921
0.128838
0.128843
0.128913
0.129007
0.129072
0.129046
0.128871
0.1285
0.127903
0.127074
0.126032
0.124822
0.123508
0.122163
0.120863
0.119677
0.118657
0.117834
0.117214
0.116775
0.116462
0.116187
0.115825
0.1152
0.11409
0.112215
0.109236
0.104764
0.0983188
0.0894861
0.0773283
0.062421
0.0396746
0.0222759
0.217283
0.109319
0.106183
0.117867
0.122136
0.123278
0.124236
0.125371
0.126433
0.127306
0.128017
0.128616
0.129125
0.129554
0.129912
0.130214
0.130463
0.130655
0.130792
0.130885
0.130951
0.131005
0.131053
0.131095
0.131127
0.131148
0.131159
0.131161
0.131161
0.131166
0.131181
0.131208
0.131242
0.131275
0.131294
0.131283
0.131225
0.131106
0.13092
0.130666
0.130359
0.130019
0.129675
0.129359
0.129101
0.128925
0.128842
0.128847
0.128917
0.129011
0.129076
0.129052
0.128879
0.12851
0.127915
0.127088
0.126048
0.12484
0.123526
0.12218
0.120879
0.119691
0.118669
0.117845
0.117224
0.116784
0.116472
0.116201
0.115844
0.115228
0.114131
0.112275
0.109321
0.104881
0.0984745
0.0896908
0.0775838
0.0627639
0.0400363
0.022849
)
;

boundaryField
{
    inlet
    {
        type            zeroGradient;
    }
    outlet
    {
        type            fixedValue;
        value           uniform 0;
    }
    fixedWalls
    {
        type            zeroGradient;
    }
    frontAndBack
    {
        type            empty;
    }
}


// ************************************************************************* //
