/*--------------------------------*- C++ -*----------------------------------*\
| =========                 |                                                 |
| \\      /  F ield         | OpenFOAM: The Open Source CFD Toolbox           |
|  \\    /   O peration     | Version:  v1912                                 |
|   \\  /    A nd           | Website:  www.openfoam.com                      |
|    \\/     M anipulation  |                                                 |
\*---------------------------------------------------------------------------*/
FoamFile
{
    version     2.0;
    format      ascii;
    class       surfaceScalarField;
    location    "375";
    object      phi;
}
// * * * * * * * * * * * * * * * * * * * * * * * * * * * * * * * * * * * * * //

dimensions      [0 3 -1 0 0 0 0];
oriented        oriented;


internalField   nonuniform List<scalar> 
3895
(
0.000814744
0.000381432
0.000499358
0.000315387
0.000251559
0.000247798
6.48566e-05
0.000186703
-6.22065e-05
0.000127063
-0.000127358
6.51517e-05
-0.000137689
1.03304e-05
-0.00011367
-2.40183e-05
-9.02332e-05
-2.3437e-05
-8.47173e-05
-5.51595e-06
-6.59565e-05
-1.87608e-05
-4.44905e-05
-2.1466e-05
-3.96432e-05
-4.84733e-06
-4.64561e-05
6.8129e-06
-4.0412e-05
-6.04409e-06
-2.32943e-05
-1.71177e-05
-1.3879e-05
-9.41532e-06
-1.2902e-05
-9.76974e-07
-1.44748e-05
1.5728e-06
-1.43353e-05
-1.39504e-07
-1.17325e-05
-2.60279e-06
-6.52317e-06
-5.20933e-06
-7.49303e-07
-5.77386e-06
3.86072e-06
-4.61002e-06
6.28566e-06
-2.42494e-06
6.72152e-06
-4.35863e-07
5.65003e-06
1.07149e-06
4.11636e-06
1.53368e-06
2.91113e-06
1.20523e-06
2.34089e-06
5.7024e-07
2.33099e-06
9.89961e-09
2.85981e-06
-5.28816e-07
3.64216e-06
-7.82349e-07
4.52351e-06
-8.81348e-07
5.34004e-06
-8.16538e-07
5.91438e-06
-5.74331e-07
6.11675e-06
-2.02369e-07
5.80803e-06
3.08713e-07
4.97068e-06
8.37353e-07
3.58628e-06
1.3844e-06
1.6782e-06
1.90808e-06
-7.01672e-07
2.37987e-06
-3.51368e-06
2.81201e-06
-6.72871e-06
3.21503e-06
-1.03502e-05
3.62151e-06
-1.44526e-05
4.10235e-06
-1.93971e-05
4.94457e-06
-2.60346e-05
6.63745e-06
-3.59578e-05
9.9232e-06
-5.1581e-05
1.56232e-05
-7.60019e-05
2.44209e-05
-0.000112501
3.64987e-05
-0.000163933
5.14321e-05
-0.00023195
6.80176e-05
-0.000315346
8.3396e-05
-0.000408996
9.36493e-05
-0.000504813
9.58171e-05
-0.000593573
8.87602e-05
-0.000666251
7.26784e-05
-0.000713804
4.75531e-05
-0.00072506
1.12554e-05
-0.000709186
-1.58737e-05
-0.000671128
-3.80583e-05
-0.000614187
-5.69405e-05
-0.000542251
-7.19361e-05
-0.00045872
-8.35319e-05
-0.000365995
-9.27244e-05
-0.000266171
-9.98244e-05
-0.000161376
-0.000104795
-5.37057e-05
-0.00010767
5.45277e-05
-0.000108233
0.000161314
-0.000106786
0.000265103
-0.000103789
0.000364779
-9.96765e-05
0.000459708
-9.49282e-05
0.000550032
-9.03241e-05
0.000636176
-8.61445e-05
0.000721403
-8.52262e-05
0.000806075
-8.46729e-05
-0.000105399
0.00108795
0.000349295
0.00104738
0.00035595
0.000933271
0.000361909
0.000775733
0.000344242
0.000598409
0.000304387
0.00041037
0.000253191
0.000221249
0.000199451
5.38712e-05
0.00014336
-6.05343e-05
9.09684e-05
-0.000110361
4.43112e-05
-0.00013214
3.01784e-06
-0.000124617
-2.89895e-05
-0.000107353
-2.21112e-05
-0.00011026
9.71988e-06
-0.000107333
-8.97111e-06
-9.55475e-05
-2.89029e-05
-8.09333e-05
-2.40295e-05
-8.10906e-05
-8.19701e-07
-8.75641e-05
8.04627e-06
-9.18376e-05
4.13402e-06
-9.13865e-05
-3.05383e-06
-8.60043e-05
-1.05916e-05
-7.81595e-05
-1.36187e-05
-6.98055e-05
-1.2964e-05
-6.17711e-05
-1.04593e-05
-5.50351e-05
-7.17187e-06
-4.99945e-05
-3.9691e-06
-4.70614e-05
-1.39948e-06
-4.60557e-05
1.99545e-07
-4.68728e-05
1.38738e-06
-4.86514e-05
1.78843e-06
-5.10333e-05
1.85311e-06
-5.36827e-05
1.86706e-06
-5.66392e-05
2.07513e-06
-6.01176e-05
2.66193e-06
-6.4355e-05
3.66303e-06
-6.95633e-05
5.0059e-06
-7.58136e-05
6.559e-06
-8.3132e-05
8.15579e-06
-9.13945e-05
9.64691e-06
-0.000100374
1.08874e-05
-0.000109748
1.17536e-05
-0.000119117
1.2181e-05
-0.000128118
1.22162e-05
-0.000136519
1.20226e-05
-0.000144312
1.18959e-05
-0.000151642
1.22744e-05
-0.00015887
1.3865e-05
-0.000166525
1.75782e-05
-0.000175176
2.4275e-05
-0.000185442
3.46865e-05
-0.000198028
4.90846e-05
-0.000213181
6.65854e-05
-0.000229998
8.4834e-05
-0.000246131
9.95294e-05
-0.000257604
0.000105122
-0.000259197
9.741e-05
-0.000246116
7.56795e-05
-0.000216294
4.28564e-05
-0.00017784
9.09913e-06
-0.000133379
-3.32054e-05
-8.2861e-05
-6.63921e-05
-2.85764e-05
-9.23428e-05
2.87957e-05
-0.000114313
9.07247e-05
-0.000133865
0.000158123
-0.00015093
0.000230243
-0.000164845
0.00030548
-0.000175061
0.000381887
-0.000181203
0.000457463
-0.000183246
0.000530714
-0.000181485
0.000600445
-0.000176517
0.000665776
-0.00016912
0.000726248
-0.000160149
0.000781845
-0.000150525
0.000832815
-0.000141295
0.00088013
-0.00013346
0.00092391
-0.000129006
0.000966865
-0.000127628
-0.000139107
0.000975282
0.000305927
0.00102604
0.000305192
0.00106097
0.000326982
0.00105861
0.000346597
0.00101216
0.000350836
0.000925032
0.000340323
0.000805726
0.000318758
0.000661723
0.000287362
0.00050483
0.000247862
0.000345671
0.00020347
0.000190091
0.000158598
4.72698e-05
0.000113831
-4.93789e-05
7.45375e-05
-8.62746e-05
4.66156e-05
-0.000107822
1.25758e-05
-0.000118283
-1.84412e-05
-0.000109247
-3.30661e-05
-0.000101042
-9.02452e-06
-0.000109059
1.60636e-05
-0.000118965
1.40404e-05
-0.000125649
3.62964e-06
-0.000130298
-5.94302e-06
-0.000130762
-1.31542e-05
-0.00012721
-1.65158e-05
-0.000122827
-1.4842e-05
-0.000119683
-1.03161e-05
-0.000118726
-4.92639e-06
-0.000120534
4.08349e-07
-0.000123419
3.08459e-06
-0.000126794
4.76272e-06
-0.000130531
5.52558e-06
-0.000134398
5.71997e-06
-0.000138273
5.74185e-06
-0.000142171
5.9729e-06
-0.000146267
6.75836e-06
-0.000150828
8.22363e-06
-0.000156099
1.02771e-05
-0.00016217
1.26306e-05
-0.000168943
1.49283e-05
-0.000176164
1.68683e-05
-0.000183492
1.82149e-05
-0.000190466
1.87283e-05
-0.000196488
1.82023e-05
-0.00020084
1.65689e-05
-0.000202805
1.39874e-05
-0.000201968
1.10585e-05
-0.000197809
8.1154e-06
-0.000189787
5.84336e-06
-0.000177288
5.07879e-06
-0.000159582
6.56952e-06
-0.00013555
1.06536e-05
-0.000105157
1.86916e-05
-6.767e-05
2.90989e-05
-2.22246e-05
3.93885e-05
3.11775e-05
4.61273e-05
9.02757e-05
4.60242e-05
0.000151102
3.65836e-05
0.000208592
1.81895e-05
0.000260346
-8.89724e-06
0.000309959
-4.05141e-05
0.000351917
-7.51634e-05
0.000393534
-0.000108009
0.000438696
-0.000137504
0.000488305
-0.000163922
0.000541309
-0.000186869
0.000595887
-0.000205508
0.000650111
-0.000219069
0.000702199
-0.000227149
0.000750772
-0.000229776
0.000794897
-0.00022737
0.000834082
-0.00022067
0.000868191
-0.000210626
0.000897372
-0.000198301
0.000922004
-0.00018478
0.000942614
-0.000171135
0.00095974
-0.00015842
0.000974001
-0.00014772
0.000985276
-0.000140281
0.000994639
-0.000136991
-0.000141761
0.000857109
0.000271376
0.000897356
0.000264945
0.000950166
0.000274173
0.00100471
0.000292054
0.00104637
0.000309171
0.0010653
0.000321395
0.00105662
0.000327438
0.0010179
0.000326084
0.000949483
0.000316278
0.00085498
0.000297973
0.000740769
0.000272809
0.000611755
0.000242846
0.000476431
0.000209861
0.000348295
0.000174752
0.000223454
0.000137416
0.000101921
0.000103092
-7.16049e-07
6.95714e-05
-5.39274e-05
4.41868e-05
-6.76212e-05
2.97574e-05
-7.16781e-05
1.80973e-05
-7.69514e-05
8.9029e-06
-8.47642e-05
1.86984e-06
-9.40163e-05
-3.90211e-06
-0.000103936
-6.59589e-06
-0.000111633
-7.14545e-06
-0.00011666
-5.28855e-06
-0.000120583
-1.00418e-06
-0.000124427
4.25303e-06
-0.00012878
7.43695e-06
-0.000132757
8.73961e-06
-0.000135917
8.6865e-06
-0.000138098
7.90024e-06
-0.000139325
6.96959e-06
-0.000139691
6.33844e-06
-0.000139531
6.5988e-06
-0.000139258
7.95024e-06
-0.000139197
1.02156e-05
-0.000139309
1.27426e-05
-0.000139296
1.49154e-05
-0.00013867
1.62423e-05
-0.000137108
1.6653e-05
-0.000134252
1.58725e-05
-0.000129513
1.34634e-05
-0.000122173
9.22844e-06
-0.000111293
3.1073e-06
-9.73829e-05
-2.85133e-06
-7.98003e-05
-9.46717e-06
-5.82325e-05
-1.57245e-05
-3.22876e-05
-2.08661e-05
-1.21276e-06
-2.45053e-05
3.52525e-05
-2.58116e-05
7.9582e-05
-2.5638e-05
0.00013266
-2.39791e-05
0.000194129
-2.20806e-05
0.00026215
-2.18939e-05
0.000333856
-2.56816e-05
0.00040583
-3.53906e-05
0.000475972
-5.19519e-05
0.000542194
-7.51198e-05
0.000604376
-0.000102696
0.000661442
-0.000132229
0.000714656
-0.000161223
0.000764877
-0.000187725
0.00081153
-0.000210575
0.000853549
-0.000228888
0.00088997
-0.000241929
0.00092018
-0.000249279
0.000943982
-0.000250951
0.000961576
-0.00024737
0.000973486
-0.00023928
0.000980445
-0.000227629
0.000983291
-0.000213472
0.000982864
-0.000197875
0.000979942
-0.000181858
0.000975176
-0.000166368
0.000969031
-0.000152275
0.00096176
-0.00014045
0.000953164
-0.000131685
0.000943092
-0.000126919
-0.000127367
0.000759397
0.000238012
0.000790536
0.000233806
0.000828352
0.000236356
0.000874988
0.000245419
0.000927005
0.000257153
0.000978875
0.000269526
0.00102441
0.000281899
0.00105754
0.000292957
0.00107316
0.000300655
0.00106782
0.000303319
0.00104035
0.000300279
0.000991441
0.000291752
0.00092308
0.000278222
0.00083868
0.000259152
0.000741339
0.000234757
0.000636431
0.000208
0.000531935
0.000174068
0.000433693
0.000142428
0.000348404
0.000115046
0.000275128
9.13741e-05
0.000212246
7.1785e-05
0.000158252
5.58633e-05
0.000111049
4.33014e-05
7.07273e-05
3.37254e-05
3.71903e-05
2.63916e-05
1.11171e-05
2.07846e-05
-6.47162e-06
1.65845e-05
-1.58085e-05
1.359e-05
-1.93109e-05
1.09393e-05
-1.88722e-05
8.30093e-06
-1.57539e-05
5.5682e-06
-1.0754e-05
2.90033e-06
-4.41031e-06
6.25909e-07
2.79387e-06
-8.65743e-07
1.06264e-05
-1.23373e-06
1.94309e-05
-8.54256e-07
2.91699e-05
4.76613e-07
4.00688e-05
1.84373e-06
5.25915e-05
2.39267e-06
6.76744e-05
1.15949e-06
8.55227e-05
-1.19535e-06
0.000106062
-4.66708e-06
0.000129784
-1.02582e-05
0.000156775
-1.77622e-05
0.000186576
-2.66938e-05
0.000219758
-3.60338e-05
0.000255402
-4.51108e-05
0.000292947
-5.32692e-05
0.000332123
-6.00425e-05
0.000372828
-6.52102e-05
0.000415735
-6.87192e-05
0.000461048
-7.09507e-05
0.000509615
-7.25459e-05
0.000562015
-7.44808e-05
0.000618188
-7.80669e-05
0.000677178
-8.46713e-05
0.000737153
-9.53659e-05
0.000795745
-0.000110544
0.000850375
-0.000129749
0.000899348
-0.000151669
0.00094165
-0.000174531
0.000976868
-0.000196441
0.00100483
-0.00021569
0.00102532
-0.000231065
0.00103826
-0.000241829
0.00104393
-0.000247598
0.00104298
-0.000248329
0.00103635
-0.000244324
0.00102517
-0.000236183
0.00101059
-0.000224703
0.000993741
-0.00021078
0.000975602
-0.000195332
0.000956964
-0.000179237
0.000938406
-0.0001633
0.000920283
-0.000148246
0.000902723
-0.000134715
0.000885613
-0.00012334
0.000868542
-0.000114614
0.000850872
-0.000109248
-0.000107568
0.000672434
0.000206415
0.000702275
0.000203965
0.000733372
0.000205259
0.000767841
0.00021095
0.000806617
0.000218376
0.000850042
0.000226101
0.000897308
0.000234633
0.000946039
0.000244226
0.000992647
0.000254046
0.00103306
0.000262911
0.00106349
0.000269848
0.00108115
0.000274084
0.00108441
0.000274969
0.001072
0.000271557
0.00104358
0.000263182
0.00100086
0.000250717
0.000948822
0.000226106
0.000891434
0.000199816
0.000831663
0.000174816
0.000771914
0.000151124
0.000714311
0.000129387
0.000660146
0.000110029
0.000610267
9.31809e-05
0.000565297
7.86952e-05
0.000525477
6.62115e-05
0.000490864
5.53972e-05
0.000461462
4.5987e-05
0.000437398
3.76541e-05
0.000418326
3.00106e-05
0.000403725
2.29026e-05
0.000393012
1.62811e-05
0.000385738
1.01742e-05
0.000381826
4.53748e-06
0.00038171
-7.49762e-07
0.00038515
-4.67354e-06
0.000392606
-8.31004e-06
0.000404507
-1.14246e-05
0.000420898
-1.45469e-05
0.000441509
-1.82188e-05
0.000465446
-2.27771e-05
0.000492534
-2.82837e-05
0.000522783
-3.4916e-05
0.000555388
-4.28638e-05
0.000589459
-5.18332e-05
0.000624065
-6.12998e-05
0.000658631
-7.05998e-05
0.000692669
-7.91486e-05
0.000725916
-8.65157e-05
0.000758322
-9.24489e-05
0.000790025
-9.69127e-05
0.000821389
-0.000100084
0.000852821
-0.000102382
0.000884712
-0.000104437
0.000917266
-0.000107035
0.000950275
-0.000111076
0.000983011
-0.000117407
0.00101425
-0.000126602
0.00104247
-0.000138763
0.00106614
-0.000153423
0.00108404
-0.000169572
0.00109535
-0.00018584
0.0010997
-0.000200786
0.00109716
-0.000213153
0.00108816
-0.000222065
0.00107339
-0.000227057
0.00105378
-0.000227992
0.00103046
-0.000225007
0.00100461
-0.000218474
0.000977373
-0.000208945
0.000949757
-0.000197086
0.00092258
-0.000183604
0.000896447
-0.000169199
0.000871742
-0.000154532
0.000848648
-0.000140207
0.00082717
-0.000126767
0.000807139
-0.000114685
0.000788228
-0.000104428
0.000769898
-9.62845e-05
0.000751511
-9.08606e-05
-8.78757e-05
0.000594386
0.000177666
0.00062317
0.00017518
0.000652324
0.000176105
0.000682116
0.000181158
0.000712927
0.000187566
0.000745617
0.000193411
0.000781187
0.000199062
0.000820203
0.00020521
0.000862426
0.000211824
0.000906729
0.000218607
0.000951248
0.00022533
0.000993704
0.000231628
0.00103177
0.000236908
0.00106303
0.000240289
0.00108533
0.000240881
0.00109753
0.000238521
0.00109973
0.000223904
0.00109361
0.000205937
0.00108072
0.000187713
0.00106254
0.000169303
0.00104074
0.000151183
0.00101689
0.000133884
0.000992334
0.000117732
0.000968199
0.000102831
0.000945288
8.9122e-05
0.000924203
7.64825e-05
0.000905413
6.47769e-05
0.000889234
5.38326e-05
0.000875769
4.34757e-05
0.000865038
3.36343e-05
0.000856994
2.43246e-05
0.000851574
1.55945e-05
0.000848634
7.4776e-06
0.000847562
3.22193e-07
0.000849375
-6.48709e-06
0.000853614
-1.25486e-05
0.000860545
-1.83555e-05
0.000870212
-2.42138e-05
0.000882467
-3.04742e-05
0.000897049
-3.73591e-05
0.000913687
-4.49214e-05
0.000931905
-5.31341e-05
0.000950946
-6.19045e-05
0.000970053
-7.09409e-05
0.000988547
-7.97937e-05
0.00100593
-8.79785e-05
0.00102187
-9.50946e-05
0.00103625
-0.000100893
0.00104909
-0.000105294
0.00106058
-0.000108395
0.00107096
-0.000110468
0.00108052
-0.000111941
0.00108945
-0.000113367
0.00109779
-0.000115371
0.0011053
-0.000118591
0.00111146
-0.000123571
0.00111548
-0.000130623
0.00111644
-0.000139715
0.00111343
-0.000150415
0.00110579
-0.000161937
0.00109322
-0.000173267
0.0010758
-0.000183369
0.00105401
-0.00019136
0.00102857
-0.000196624
0.00100036
-0.000198843
0.000970318
-0.000197954
0.000939404
-0.000194093
0.000908483
-0.000187553
0.000878284
-0.000178747
0.000849363
-0.000168165
0.000822093
-0.000156334
0.000796678
-0.000143784
0.000773176
-0.00013103
0.000751523
-0.000118554
0.000731555
-0.000106799
0.00071301
-9.61394e-05
0.000695537
-8.69558e-05
0.000678622
-7.93692e-05
0.000661787
-7.40252e-05
-6.99209e-05
0.000525111
0.000151817
0.000551937
0.000148355
0.000579147
0.000148895
0.000606469
0.000153836
0.000634009
0.000160026
0.000661957
0.000165463
0.000690634
0.000170386
0.000720613
0.000175231
0.000752548
0.000179889
0.000786895
0.00018426
0.000823757
0.000188467
0.000862783
0.000192602
0.000903157
0.000196534
0.000943586
0.00019986
0.000982425
0.000202042
0.00101815
0.000202794
0.00104845
0.00019361
0.00107289
0.000181489
0.00109172
0.000168889
0.00110532
0.000155704
0.00111432
0.000142174
0.00111953
0.000128675
0.00112177
0.000115494
0.00112183
0.000102778
0.00112038
9.05643e-05
0.00111804
7.88294e-05
0.00111528
6.7533e-05
0.00111249
5.66226e-05
0.00110991
4.60525e-05
0.00110772
3.58297e-05
0.00110602
2.60225e-05
0.00110489
1.67247e-05
0.00110434
8.03161e-06
0.00110448
1.76795e-07
0.00110539
-7.39355e-06
0.0011071
-1.42587e-05
0.00110963
-2.08901e-05
0.00111296
-2.75389e-05
0.00111692
-3.44354e-05
0.00112127
-4.17148e-05
0.00112573
-4.93791e-05
0.00112993
-5.73361e-05
0.00113346
-6.54296e-05
0.00113592
-7.33978e-05
0.00113701
-8.08885e-05
0.00113658
-8.75526e-05
0.00113462
-9.31279e-05
0.00113121
-9.74841e-05
0.00112655
-0.000100634
0.00112089
-0.000102732
0.00111447
-0.000104054
0.00110752
-0.000104985
0.00110013
-0.000105979
0.00109228
-0.000107518
0.00108375
-0.000110064
0.00107416
-0.000113979
0.00106298
-0.000119447
0.00104967
-0.000126398
0.00103374
-0.000134486
0.00101492
-0.000143123
0.000993222
-0.000151567
0.000968911
-0.000159058
0.000942484
-0.000164933
0.00091457
-0.00016871
0.00088584
-0.000170113
0.000856939
-0.000169054
0.000828445
-0.000165598
0.000800826
-0.000159934
0.00077443
-0.000152351
0.00074948
-0.000143215
0.000726087
-0.000132941
0.000704274
-0.00012197
0.000683992
-0.000110748
0.00066514
-9.97012e-05
0.000647567
-8.92254e-05
0.000631066
-7.96386e-05
0.000615373
-7.12629e-05
0.000600081
-6.40774e-05
0.00058485
-5.87938e-05
-5.36695e-05
0.00046394
0.000128552
0.00048864
0.000123655
0.000513481
0.000124054
0.00053816
0.000129157
0.000563125
0.000135062
0.000588449
0.000140139
0.000613976
0.000144859
0.000639772
0.000149435
0.000666094
0.000153566
0.000693263
0.000157092
0.000721638
0.000160092
0.000751563
0.000162678
0.000783234
0.000164863
0.000816563
0.000166531
0.000851114
0.00016749
0.000886254
0.000167655
0.000919848
0.000160016
0.000951013
0.000150324
0.000979375
0.000140527
0.00100467
0.000130412
0.00102681
0.000120028
0.00104592
0.000109566
0.00106222
9.91943e-05
0.001076
8.89985e-05
0.00108756
7.90007e-05
0.0010972
6.91914e-05
0.00110518
5.95563e-05
0.00111172
5.00849e-05
0.00111699
4.07799e-05
0.00112114
3.16812e-05
0.00112429
2.2873e-05
0.00112656
1.44566e-05
0.00112806
6.52377e-06
0.00112898
-7.4508e-07
0.00112931
-7.71768e-06
0.0011292
-1.41528e-05
0.00112869
-2.03796e-05
0.00112775
-2.65951e-05
0.00112627
-3.29541e-05
0.00112409
-3.95376e-05
0.00112104
-4.63276e-05
0.00111693
-5.32261e-05
0.00111158
-6.00791e-05
0.00110485
-6.6672e-05
0.00109671
-7.27442e-05
0.00108721
-7.80511e-05
0.0010765
-8.24221e-05
0.00106481
-8.57922e-05
0.00105238
-8.82087e-05
0.00103948
-8.98243e-05
0.00102631
-9.08844e-05
0.00101303
-9.17062e-05
0.0009997
-9.26517e-05
0.000986275
-9.40935e-05
0.000972585
-9.63738e-05
0.000958357
-9.97517e-05
0.000943257
-0.000104347
0.00092695
-0.000110092
0.00090918
-0.000116716
0.000889827
-0.00012377
0.000868946
-0.000130685
0.00084675
-0.000136863
0.000823579
-0.000141762
0.000799831
-0.000144961
0.000775904
-0.000146186
0.000752161
-0.000145311
0.0007289
-0.000142337
0.00070635
-0.000137384
0.000684668
-0.00013067
0.000663951
-0.000122498
0.000644244
-0.000113234
0.000625559
-0.000103285
0.00060788
-9.30689e-05
0.000591166
-8.29875e-05
0.000575351
-7.34097e-05
0.000560324
-6.46125e-05
0.000545921
-5.6859e-05
0.000531857
-5.00142e-05
0.000517836
-4.47724e-05
-3.8833e-05
0.000410014
0.000107502
0.000432754
0.000100915
0.000455183
0.000101625
0.000477154
0.000107186
0.000499457
0.000112758
0.000522206
0.00011739
0.000545208
0.000121857
0.000568448
0.000126195
0.000591951
0.000130064
0.000615702
0.00013334
0.000639746
0.000136049
0.000664224
0.0001382
0.00068933
0.000139757
0.00071522
0.000140641
0.000741953
0.000140757
0.0007695
0.000140107
0.000796573
0.000132943
0.000822688
0.000124209
0.000847621
0.000115594
0.000871104
0.000106929
0.000892921
9.82108e-05
0.000912948
8.95395e-05
0.000931138
8.1004e-05
0.000947498
7.26382e-05
0.000962065
6.44344e-05
0.000974887
5.63685e-05
0.000986024
4.84197e-05
0.000995531
4.0578e-05
0.00100346
3.28504e-05
0.00100987
2.5274e-05
0.00101482
1.79185e-05
0.00101841
1.08682e-05
0.00102073
4.20046e-06
0.001022
-2.01348e-06
0.00102221
-7.92963e-06
0.00102157
-1.35084e-05
0.0010201
-1.89081e-05
0.00101779
-2.42895e-05
0.0010146
-2.97642e-05
0.00101045
-3.5381e-05
0.00100523
-4.11163e-05
0.000998892
-4.68832e-05
0.000991363
-5.25502e-05
0.000982639
-5.79482e-05
0.000972779
-6.28844e-05
0.000961911
-6.71827e-05
0.000950215
-7.07259e-05
0.000937901
-7.34789e-05
0.000925188
-7.54948e-05
0.000912273
-7.69092e-05
0.000899317
-7.79286e-05
0.000886424
-7.88133e-05
0.000873626
-7.98543e-05
0.000860879
-8.1346e-05
0.000848057
-8.35523e-05
0.000834973
-8.66675e-05
0.000821401
-9.07743e-05
0.000807119
-9.58101e-05
0.000791957
-0.000101554
0.000775827
-0.00010764
0.000758748
-0.000113606
0.000740836
-0.000118951
0.000722277
-0.000123203
0.000703293
-0.000125977
0.000684103
-0.000126997
0.000664906
-0.000126113
0.000645865
-0.000123296
0.000627111
-0.000118631
0.000608749
-0.000112308
0.000590862
-0.000104611
0.00057352
-9.58921e-05
0.000556783
-8.65485e-05
0.000540702
-7.6988e-05
0.000525313
-6.75983e-05
0.000510625
-5.87218e-05
0.000496612
-5.05993e-05
0.000483176
-4.34234e-05
0.000470144
-3.69815e-05
0.000457181
-3.18098e-05
-2.53687e-05
0.000362528
8.82941e-05
0.000383496
7.99462e-05
0.000403597
8.15236e-05
0.000423065
8.77186e-05
0.000442882
9.29409e-05
0.000463081
9.71906e-05
0.000483529
0.000101409
0.000504304
0.00010542
0.000525431
0.000108937
0.000546821
0.00011195
0.000568389
0.000114481
0.000590089
0.000116499
0.000611907
0.000117939
0.000633839
0.000118709
0.000655884
0.000118712
0.000678058
0.000117934
0.000699453
0.000111548
0.000719876
0.000103786
0.000739336
9.61335e-05
0.000757771
8.84947e-05
0.000775101
8.08813e-05
0.000791264
7.33759e-05
0.000806221
6.60474e-05
0.000819942
5.89169e-05
0.000832406
5.197e-05
0.000843596
4.51792e-05
0.000853495
3.852e-05
0.000862095
3.19784e-05
0.000869389
2.55562e-05
0.000875385
1.92786e-05
0.000880108
1.31954e-05
0.000883611
7.36539e-06
0.000885978
1.83293e-06
0.000887335
-3.37018e-06
0.000887737
-8.33216e-06
0.000887303
-1.3074e-05
0.000886077
-1.76819e-05
0.000884063
-2.22761e-05
0.00088124
-2.69408e-05
0.000877565
-3.17059e-05
0.000872994
-3.65452e-05
0.000867493
-4.13824e-05
0.000861048
-4.61052e-05
0.000853675
-5.05758e-05
0.000845435
-5.46444e-05
0.00083643
-5.81777e-05
0.000826796
-6.10912e-05
0.000816684
-6.33675e-05
0.000806251
-6.50615e-05
0.000795637
-6.62954e-05
0.000784957
-6.72482e-05
0.000774284
-6.81403e-05
0.000763643
-6.92138e-05
0.000753006
-7.07085e-05
0.000742288
-7.28344e-05
0.000731361
-7.57406e-05
0.00072007
-7.94828e-05
0.000708257
-8.39975e-05
0.000695794
-8.90909e-05
0.000682603
-9.44494e-05
0.000668669
-9.96719e-05
0.000654037
-0.000104318
0.000638796
-0.000107963
0.000623061
-0.000110241
0.00060695
-0.000110886
0.000590577
-0.000109741
0.000574053
-0.000106771
0.000557482
-0.00010206
0.000540976
-9.58014e-05
0.000524648
-8.82833e-05
0.00050862
-7.98638e-05
0.00049301
-7.09386e-05
0.000477929
-6.19068e-05
0.000463468
-5.31371e-05
0.000449685
-4.49391e-05
0.000436603
-3.75166e-05
0.00042416
-3.09806e-05
0.000412263
-2.50847e-05
0.000400505
-2.00523e-05
-1.34721e-05
0.000320758
7.05693e-05
0.000340087
6.06169e-05
0.000357963
6.3648e-05
0.000375207
7.0474e-05
0.000392821
7.53265e-05
0.000410693
7.9319e-05
0.000428762
8.33403e-05
0.000447169
8.70124e-05
0.000465949
9.01574e-05
0.000485038
9.28611e-05
0.000504367
9.51517e-05
0.000523874
9.69921e-05
0.000543484
9.83301e-05
0.000563105
9.90876e-05
0.000582641
9.91754e-05
0.000602018
9.85575e-05
0.000620387
9.31789e-05
0.000637593
8.658e-05
0.0006537
8.00268e-05
0.000668733
7.34615e-05
0.000682706
6.6908e-05
0.000695637
6.04448e-05
0.000707546
5.41383e-05
0.00071845
4.80133e-05
0.000728358
4.2062e-05
0.000737274
3.62634e-05
0.000745195
3.05984e-05
0.000752118
2.50554e-05
0.00075804
1.96347e-05
0.000762963
1.43551e-05
0.000766905
9.25336e-06
0.0007699
4.37045e-06
0.000772009
-2.7635e-07
0.000773305
-4.66554e-06
0.000773837
-8.8642e-06
0.000773669
-1.29061e-05
0.000772841
-1.68545e-05
0.000771363
-2.07978e-05
0.000769222
-2.47996e-05
0.000766393
-2.88767e-05
0.000762846
-3.29986e-05
0.000758558
-3.70943e-05
0.000753517
-4.10635e-05
0.00074773
-4.47888e-05
0.000741234
-4.81485e-05
0.000734095
-5.10392e-05
0.000726404
-5.34004e-05
0.000718267
-5.523e-05
0.000709793
-5.65875e-05
0.000701086
-5.75888e-05
0.000692235
-5.83962e-05
0.000683297
-5.92033e-05
0.000674301
-6.02176e-05
0.000665232
-6.16395e-05
0.000656037
-6.3639e-05
0.000646626
-6.633e-05
0.000636888
-6.97446e-05
0.000626703
-7.38126e-05
0.000615964
-7.8352e-05
0.000604592
-8.30768e-05
0.000592542
-8.76225e-05
0.00057981
-9.15865e-05
0.000566422
-9.45747e-05
0.000552428
-9.6247e-05
0.000537896
-9.63536e-05
0.000522912
-9.47571e-05
0.000507583
-9.14425e-05
0.000492039
-8.6516e-05
0.00047643
-8.01933e-05
0.000460926
-7.27792e-05
0.0004457
-6.4637e-05
0.000430916
-5.61552e-05
0.000416722
-4.77122e-05
0.00040323
-3.96452e-05
0.000390511
-3.22202e-05
0.000378597
-2.56029e-05
0.000367434
-1.98175e-05
0.000356983
-1.46341e-05
0.00034676
-9.82887e-06
-3.45792e-06
0.000284047
5.39957e-05
0.000301804
4.28595e-05
0.000317587
4.78647e-05
0.000332894
5.51676e-05
0.000348561
5.96597e-05
0.000364359
6.35211e-05
0.000380325
6.7374e-05
0.000396617
7.07199e-05
0.000413246
7.3529e-05
0.000430159
7.59475e-05
0.000447321
7.79905e-05
0.000464689
7.96236e-05
0.000482205
8.08146e-05
0.000499784
8.15085e-05
0.000517325
8.16343e-05
0.000534726
8.11562e-05
0.00055118
7.67246e-05
0.000566509
7.12517e-05
0.000580751
6.57847e-05
0.000593932
6.02809e-05
0.000606075
5.47642e-05
0.000617216
4.93042e-05
0.000627392
4.39627e-05
0.000636639
3.87659e-05
0.000644989
3.37118e-05
0.000652466
2.87866e-05
0.000659087
2.39778e-05
0.000664863
1.92785e-05
0.000669808
1.469e-05
0.000673934
1.02297e-05
0.000677259
5.9278e-06
0.000679817
1.81249e-06
0.000681645
-2.10402e-06
0.000682795
-5.81609e-06
0.000683305
-9.37354e-06
0.000683217
-1.28186e-05
0.000682566
-1.62032e-05
0.000681362
-1.95938e-05
0.0006796
-2.30372e-05
0.000677262
-2.65395e-05
0.000674329
-3.00654e-05
0.00067078
-3.35455e-05
0.000666604
-3.68869e-05
0.000661801
-3.99857e-05
0.000656392
-4.27396e-05
0.000650419
-4.50665e-05
0.000643944
-4.69251e-05
0.00063704
-4.83264e-05
0.000629788
-4.93359e-05
0.000622267
-5.00678e-05
0.000614545
-5.06739e-05
0.000606671
-5.13293e-05
0.000598669
-5.22159e-05
0.000590533
-5.35032e-05
0.000582223
-5.53285e-05
0.000573668
-5.77756e-05
0.000564777
-6.08536e-05
0.000555445
-6.44802e-05
0.000545567
-6.84747e-05
0.000535056
-7.25651e-05
0.000523844
-7.64109e-05
0.000511897
-7.96395e-05
0.000499213
-8.18906e-05
0.000485826
-8.28602e-05
0.000471808
-8.23358e-05
0.000457271
-8.02196e-05
0.000442363
-7.65351e-05
0.00042727
-7.14225e-05
0.000412197
-6.51199e-05
0.000397358
-5.79406e-05
0.000382959
-5.02382e-05
0.000369181
-4.23768e-05
0.000356165
-3.46965e-05
0.00034401
-2.74899e-05
0.000332761
-2.09716e-05
0.000322431
-1.52732e-05
0.000312947
-1.03331e-05
0.000304309
-5.99596e-06
0.000295978
-1.49822e-06
4.40415e-06
0.000251798
3.82838e-05
0.000267991
2.66663e-05
0.000281861
3.39947e-05
0.000295502
4.15269e-05
0.000309434
4.57272e-05
0.000323393
4.95626e-05
0.000337523
5.3244e-05
0.000351966
5.62771e-05
0.0003667
5.87945e-05
0.000381682
6.0966e-05
0.000396885
6.27877e-05
0.000412278
6.42299e-05
0.000427816
6.52765e-05
0.000443436
6.58887e-05
0.000459058
6.60121e-05
0.000474596
6.5618e-05
0.000489321
6.2e-05
0.000503056
5.75164e-05
0.000515825
5.30163e-05
0.000527639
4.84666e-05
0.000538515
4.38885e-05
0.000548476
3.93429e-05
0.000557554
3.48846e-05
0.000565782
3.05385e-05
0.000573188
2.6305e-05
0.0005798
2.21747e-05
0.000585638
1.81398e-05
0.00059072
1.41967e-05
0.000595063
1.03474e-05
0.000598683
6.60909e-06
0.000601602
3.00878e-06
0.000603848
-4.32985e-07
0.000605453
-3.70907e-06
0.00060646
-6.82308e-06
0.000606902
-9.8156e-06
0.000606814
-1.27308e-05
0.000606225
-1.56142e-05
0.000605148
-1.85164e-05
0.000603581
-2.14705e-05
0.000601515
-2.44734e-05
0.000598934
-2.74843e-05
0.000595821
-3.04325e-05
0.000592163
-3.32291e-05
0.000587955
-3.57781e-05
0.000583206
-3.79904e-05
0.00057794
-3.97998e-05
0.000572194
-4.118e-05
0.000566022
-4.21543e-05
0.000559482
-4.27957e-05
0.000552634
-4.32195e-05
0.000545531
-4.35713e-05
0.000538214
-4.40123e-05
0.000530702
-4.47034e-05
0.000522986
-4.57877e-05
0.000515031
-4.73735e-05
0.000506772
-4.95167e-05
0.000498122
-5.22033e-05
0.00048898
-5.53378e-05
0.000479243
-5.87378e-05
0.000468821
-6.21434e-05
0.000457649
-6.52392e-05
0.000445699
-6.7689e-05
0.000432986
-6.91775e-05
0.000419577
-6.94512e-05
0.00040559
-6.83493e-05
0.000391193
-6.58223e-05
0.000376591
-6.19331e-05
0.000362016
-5.68471e-05
0.000347706
-5.081e-05
0.000333888
-4.4123e-05
0.00032076
-3.71104e-05
0.000308477
-3.00933e-05
0.000297142
-2.33616e-05
0.000286809
-1.71566e-05
0.000277478
-1.16409e-05
0.000269126
-6.92141e-06
0.000261651
-2.85726e-06
0.000255083
5.71275e-07
0.000248885
4.69982e-06
1.00154e-05
0.000223468
2.31981e-05
0.000238065
1.20697e-05
0.000250246
2.18134e-05
0.000262461
2.93122e-05
0.000274841
3.33474e-05
0.000287179
3.72239e-05
0.00029971
4.07131e-05
0.000312536
4.34515e-05
0.000325614
4.57167e-05
0.000338907
4.76726e-05
0.000352395
4.92995e-05
0.000366049
5.05759e-05
0.000379828
5.14978e-05
0.000393679
5.20377e-05
0.000407539
5.21526e-05
0.000421336
5.18208e-05
0.000434424
4.89114e-05
0.000446647
4.52939e-05
0.000458022
4.16409e-05
0.000468561
3.79275e-05
0.000478276
3.41743e-05
0.000487183
3.04359e-05
0.000495305
2.67617e-05
0.000502669
2.3175e-05
0.000509297
1.96772e-05
0.00051521
1.62615e-05
0.000520426
1.29237e-05
0.000524961
9.66201e-06
0.000528831
6.47741e-06
0.000532051
3.38858e-06
0.000534642
4.18115e-07
0.000536629
-2.42022e-06
0.000538042
-5.12171e-06
0.000538914
-7.69491e-06
0.000539274
-1.01757e-05
0.00053915
-1.2607e-05
0.000538565
-1.50291e-05
0.000537529
-1.74808e-05
0.000536042
-1.99832e-05
0.000534093
-2.25241e-05
0.000531664
-2.50562e-05
0.000528738
-2.75062e-05
0.000525295
-2.97864e-05
0.000521324
-3.18071e-05
0.000516824
-3.34897e-05
0.000511807
-3.47827e-05
0.000506301
-3.56745e-05
0.000500349
-3.62017e-05
0.000493999
-3.6446e-05
0.000487304
-3.65251e-05
0.000480313
-3.65797e-05
0.000473058
-3.6758e-05
0.000465556
-3.72011e-05
0.000457795
-3.80269e-05
0.000449739
-3.93167e-05
0.000441323
-4.11006e-05
0.000432465
-4.33452e-05
0.000423072
-4.59449e-05
0.000413055
-4.87212e-05
0.000402344
-5.14328e-05
0.000390903
-5.37974e-05
0.000378739
-5.55249e-05
0.000365915
-5.63538e-05
0.00035255
-5.60862e-05
0.000338814
-5.46131e-05
0.000324918
-5.19263e-05
0.000311099
-4.8114e-05
0.0002976
-4.33487e-05
0.000284653
-3.7863e-05
0.000272458
-3.19278e-05
0.00026117
-2.58228e-05
0.000250895
-1.98176e-05
0.000241681
-1.41476e-05
0.000233529
-9.00559e-06
0.000226396
-4.50712e-06
0.000220224
-7.49194e-07
0.000214881
2.48545e-06
0.000210423
5.02887e-06
0.000206392
8.7306e-06
1.34584e-05
0.00019856
8.56713e-06
0.000211522
-8.91445e-07
0.000222268
1.10667e-05
0.000233251