/*--------------------------------*- C++ -*----------------------------------*\
| =========                 |                                                 |
| \\      /  F ield         | OpenFOAM: The Open Source CFD Toolbox           |
|  \\    /   O peration     | Version:  v1912                                 |
|   \\  /    A nd           | Website:  www.openfoam.com                      |
|    \\/     M anipulation  |                                                 |
\*---------------------------------------------------------------------------*/
FoamFile
{
    version     2.0;
    format      ascii;
    class       volScalarField;
    location    "250";
    object      epsilon;
}
// * * * * * * * * * * * * * * * * * * * * * * * * * * * * * * * * * * * * * //

dimensions      [0 2 -3 0 0 0 0];


internalField   nonuniform List<scalar> 
12441
(
0.0102961
0.00908475
0.00832691
0.00770251
0.00718361
0.00674904
0.00638239
0.00607111
0.00580514
0.00557659
0.00537925
0.00520796
0.00504315
0.0049125
0.00479471
0.0046909
0.00480846
0.0194529
0.264891
2.98485
20.959
39.25
0.0101185
0.00891974
0.00818366
0.00757661
0.00707173
0.00664859
0.00629137
0.00598797
0.00572863
0.00550575
0.00531333
0.00514641
0.00498423
0.00485721
0.0047428
0.00464359
0.0047554
0.019187
0.249537
2.97748
21.2511
40.2318
0.00989646
0.00871697
0.00799995
0.00740878
0.00691723
0.0065054
0.00615786
0.00586284
0.00561086
0.00539455
0.00520807
0.00504671
0.00488902
0.00476728
0.00465791
0.00456381
0.00462226
0.0174177
0.211736
2.94776
21.6322
41.3784
0.00967286
0.00851331
0.00781456
0.00723851
0.0067596
0.00635846
0.00602005
0.00573292
0.00548785
0.00527769
0.00509676
0.00494057
0.00478924
0.00467207
0.00456776
0.00447911
0.00449115
0.0152851
0.174526
2.92616
22.1005
42.5504
0.00942867
0.00828871
0.00760867
0.00704824
0.0065825
0.00619258
0.00586383
0.00558515
0.00534757
0.00514418
0.00496946
0.00481917
0.00467262
0.00456145
0.00446294
0.00438121
0.00434688
0.0133723
0.155656
2.93365
22.6167
43.6698
0.00922267
0.00809907
0.00743425
0.00688643
0.00643125
0.00605024
0.00572909
0.00545695
0.00522505
0.00502667
0.00485643
0.00471025
0.00456956
0.00446206
0.00436784
0.00429031
0.00427292
0.0135718
0.175456
3.03928
23.2416
44.7472
0.00900205
0.00789549
0.0072471
0.006713
0.00626938
0.00589822
0.00558555
0.0053208
0.00509545
0.00490296
0.0047381
0.00459697
0.00445994
0.00435856
0.00426718
0.00419711
0.00602937
0.0227204
0.280304
3.33462
24.0717
45.7945
0.00882357
0.00773082
0.00709527
0.00657178
0.00613699
0.00577323
0.00546683
0.00520741
0.00498663
0.00479811
0.00463672
0.00449871
0.0043671
0.00427008
0.00418681
0.00516667
0.0345865
0.079566
0.58988
3.95356
25.2252
46.8732
0.00862947
0.00755164
0.0069306
0.0064192
0.00599461
0.00563954
0.00534062
0.00508773
0.0048727
0.00468932
0.0045326
0.00439895
0.00427018
0.00414183
0.00539887
0.0271618
0.178376
0.30131
1.26686
5.03936
26.8266
48.0153
0.00847475
0.00740873
0.00679868
0.00629634
0.00587927
0.00553048
0.00523683
0.0049884
0.00477716
0.00459704
0.00444314
0.00431218
0.00418829
0.00427368
0.0254281
0.152161
0.541504
0.810264
2.34386
6.64837
28.9657
49.2846
0.00830535
0.00725229
0.00665497
0.00616324
0.00575511
0.00541394
0.00512685
0.00488412
0.00467791
0.00450226
0.00435238
0.00422616
0.00407161
0.00956088
0.116399
0.450027
1.09567
1.57017
3.62985
8.68655
31.668
50.6975
0.00817029
0.00712757
0.00653981
0.00605594
0.00565431
0.00531855
0.00503597
0.00479704
0.00459403
0.00442112
0.00427359
0.00415124
0.00415501
0.0493096
0.334872
0.8661
1.663
2.36931
4.87248
10.9532
34.8838
52.295
0.0080212
0.00698994
0.00641352
0.0059391
0.00554544
0.00521645
0.0049397
0.00470583
0.00450726
0.00433827
0.00419425
0.00403887
0.00839927
0.171328
0.638256
1.26298
2.11959
3.03878
5.93698
13.2448
38.5113
54.0597
0.00790028
0.00687827
0.00631042
0.00584304
0.00545519
0.00513103
0.00485833
0.00462786
0.00443217
0.00426564
0.00412374
0.00388399
0.0376582
0.365178
0.922063
1.56904
2.44949
3.54156
6.80568
15.4188
42.4226
56.0037
0.00776893
0.00675695
0.00619911
0.00574008
0.00535925
0.00504106
0.00477349
0.00454745
0.00435563
0.00419251
0.00405362
0.00426904
0.117192
0.568631
1.14478
1.79068
2.68347
3.90922
7.51069
17.4019
46.4935
58.0812
0.00765982
0.00665625
0.00610614
0.00565345
0.00527787
0.00496405
0.00470013
0.00447716
0.00428796
0.00412708
0.0039902
0.00955516
0.236986
0.741164
1.30983
1.95166
2.85296
4.18294
8.09197
19.1703
50.6149
60.2902
0.00754393
0.00654922
0.00600803
0.00556274
0.00519337
0.00488481
0.00462538
0.00440627
0.00422041
0.00406244
0.00392856
0.0331239
0.364744
0.876552
1.43305
2.0719
2.9802
4.39462
8.58308
20.7281
54.7043
62.571
0.00744237
0.0064556
0.0059217
0.00548242
0.00511804
0.00481366
0.00455774
0.00434162
0.00415833
0.00400259
0.00387338
0.0853045
0.478464
0.981372
1.52769
2.16491
3.07971
4.56587
9.00887
22.0919
58.7024
64.9213
0.00733981
0.00636075
0.00583468
0.00540189
0.00504293
0.00474312
0.00449109
0.00427829
0.00409785
0.0039446
0.00381002
0.155931
0.572234
1.06418
1.60295
2.23953
3.16084
4.71083
9.38686
23.2827
62.5748
67.2818
0.00724512
0.00627356
0.00575434
0.00532721
0.00497298
0.00467713
0.00442847
0.00421855
0.0040406
0.00388954
0.00428966
0.228939
0.648202
1.13161
1.66488
2.30158
3.22979
4.83868
9.72897
24.3211
66.3054
69.6617
0.00715496
0.0061901
0.00567775
0.00525628
0.00490673
0.00461479
0.00436942
0.00416227
0.00398668
0.00383769
0.0100907
0.295851
0.710637
1.18831
1.71754
2.35503
3.29082
4.9553
10.0431
25.2264
69.8968
72.0102
0.00706413
0.00610663
0.00560101
0.00518515
0.00484032
0.00455238
0.00431044
0.00410626
0.00393324
0.00378705
0.0295049
0.354287
0.763344
1.23742
1.76374
2.40266
3.34694
5.0643
10.3342
26.0156
73.3648
74.3523
0.0069849
0.00603308
0.00553336
0.0051223
0.00478141
0.00449674
0.00425751
0.00405559
0.00388449
0.00374203
0.0635876
0.404849
0.809132
1.28111
1.80549
2.44649
3.40032
5.16766
10.6055
26.7041
76.74
76.6493
0.00689835
0.00595364
0.00546041
0.0050548
0.00471854
0.00443782
0.00420199
0.00400304
0.00383454
0.00370236
0.104276
0.448917
0.849988
1.32093
1.84425
2.48801
3.45241
5.26633
10.859
27.3052
80.0637
78.9445
0.00683014
0.00589021
0.00540196
0.00500034
0.00466728
0.00438914
0.00415542
0.00395815
0.00379106
0.00368413
0.144518
0.48798
0.887294
1.35804
1.88117
2.52835
3.5041
5.36075
11.0958
27.8312
83.39
81.212
0.00674439
0.00581176
0.00533024
0.00493431
0.00460614
0.00433222
0.00410216
0.00390812
0.00374388
0.00364608
0.1816
0.523323
0.922037
1.39329
1.91706
2.5683
3.55577
5.45112
11.3169
28.2926
86.7811
83.5114
0.00668531
0.00575651
0.00527904
0.0048863
0.00456062
0.00428867
0.00406017
0.00386735
0.00370414
0.0038524
0.215395
0.555951
0.954935
1.42737
1.95257
2.60835
3.60748
5.53767
11.523
28.6989
90.3087
85.8273
0.00660152
0.00568001
0.00520925
0.00482225
0.00450153
0.0042339
0.00400917
0.00381968
0.00365949
0.00588048
0.246608
0.586615
0.986532
1.46079
1.98812
2.64878
3.65912
5.62063
11.7148
29.0577
94.0472
88.2307
0.00655193
0.00563337
0.00516579
0.00478117
0.00446221
0.00419587
0.0039721
0.00378328
0.00362402
0.0116192
0.276007
0.615866
1.01724
1.49391
2.02398
2.68969
3.71057
5.70029
11.893
29.3757
98.0723
90.7106
0.00646777
0.00555685
0.00509634
0.00471782
0.00440418
0.00414249
0.00392279
0.00373758
0.0035825
0.0225113
0.304192
0.644112
1.04739
1.52703
2.0603
2.73107
3.76173
5.77693
12.0582
29.6582
102.453
93.3406
0.00642562
0.00551679
0.00505861
0.00468174
0.00436922
0.00410828
0.00388906
0.00370414
0.00355154
0.0392324
0.331572
0.671657
1.07721
1.56032
2.09714
2.77286
3.81256
5.85083
12.2114
29.9099
107.251
96.1058
0.00634308
0.00544188
0.00499077
0.00462004
0.00431291
0.00405671
0.00384167
0.00366042
0.00351559
0.0613882
0.358412
0.698733
1.10691
1.5939
2.13451
2.81501
3.86308
5.92228
12.3531
30.1346
112.512
99.0732
0.00630948
0.00540962
0.00496003
0.00459019
0.00428348
0.00402737
0.00381222
0.00363073
0.00349484
0.0879526
0.384871
0.725516
1.1366
1.62784
2.17235
2.85746
3.91334
5.99151
12.4843
30.3364
118.27
102.217
0.00622492
0.00533324
0.00489126
0.00452811
0.00422729
0.0039764
0.00376584
0.0035884
0.00347388
0.117671
0.411041
0.752133
1.16639
1.66214
2.21063
2.90018
3.96342
6.05876
12.6057
30.5189
124.546
105.592
0.00619817
0.00530706
0.0048658
0.00450279
0.00420174
0.00395036
0.00373921
0.00356115
0.00347934
0.149406
0.43696
0.778677
1.19631
1.69681
2.24929
2.94315
4.01339
6.12422
12.7183
30.6859
131.354
109.157
0.0061111
0.00522883
0.00479578
0.00444001
0.00414536
0.00389965
0.00369346
0.00351975
0.00355326
0.182156
0.462619
0.805204
1.22639
1.73181
2.28827
2.98636
4.06335
6.18809
12.8228
30.8407
138.701
112.957
0.00608764
0.0052056
0.00477284
0.00441682
0.00412157
0.00387507
0.00366805
0.00349354
0.00645707
0.215003
0.487964
0.831741
1.25661
1.76711
2.32753
3.02982
4.11339
6.25052
12.9202
30.9862
146.587
116.938
0.00599556
0.00512345
0.00469981
0.00435181
0.00406363
0.00382336
0.00362178
0.00345202
0.0316717
0.24694
0.512904
0.858285
1.28695
1.80263
2.36701
3.07352
4.16359
6.31167
13.0116
31.1239
154.995
121.137
0.00596734
0.00509612
0.00467331
0.00432548
0.00403706
0.00379632
0.00359422
0.00342459
0.072665
0.276474
0.537317
0.884808
1.31734
1.83831
2.40666
3.11747
4.21402
6.37166
13.0979
31.254
163.874
125.495
0.00586257
0.00500306
0.00459095
0.00425252
0.00397237
0.0037389
0.00354318
0.00338443
0.102634
0.302493
0.56107
0.911257
1.34772
1.87407
2.44642
3.16165
4.26473
6.43062
13.1802
31.3757
173.089
130.045
0.00582107
0.00496374
0.00455359
0.0042163
0.00393678
0.00370367
0.00350823
0.00337174
0.121901
0.324876
0.584042
0.937559
1.378
1.90981
2.48623
3.20605
4.31576
6.48868
13.2597
31.4873
182.369
134.727
0.00569936
0.00485605
0.00445832
0.00413166
0.00386137
0.00363634
0.003448
0.00399398
0.134695
0.343978
0.606134
0.963622
1.40809
1.94539
2.52598
3.25061
4.36709
6.54598
13.3371
31.5875
191.23
139.588
0.00561715
0.00478965
0.004404
0.00408571
0.00382106
0.0035997
0.00341355
0.00532645
0.143584
0.360261
0.627277
0.989336
1.43789
1.9807
2.5656
3.29527
4.4187
6.60269
13.4129
31.6765
198.972
144.654
0.00525459
0.00446014
0.00411181
0.00382624
0.00358899
0.00339046
0.00322358
0.00604127
0.14996
0.374125
0.647416
1.01457
1.46731
2.01554
2.60494
3.33993
4.47052
6.65907
13.4869
31.7561
204.783
150.447
95.0235
70.7958
46.7564
36.4475
31.872
26.1097
24.8804
22.5533
21.4039
20.8318
20.922
20.8256
23.9521
30.0204
34.9198
36.4069
35.2748
35.079
36.1144
36.6026
36.7378
36.8725
36.5978
35.821
35.0544
35.9718
47.3122
12.5615
4.78374
4.44063
4.64015
4.76633
4.7487
4.34563
3.79078
94.6475
71.0346
47.16
37.3254
32.8862
26.7919
25.544
23.0904
21.9181
21.2923
21.1545
20.9502
24.139
30.4957
35.6694
37.2968
35.9509
35.3336
36.2268
36.8449
37.183
37.4578
37.2434
36.4284
35.526
36.3133
47.7942
12.775
4.78572
4.43658
4.63523
4.76033
4.74222
4.33916
3.78539
93.9266
71.4114
47.9243
39.0862
34.9075
28.1658
26.8475
24.139
22.9148
22.1223
21.5543
21.1777
24.4903
31.1009
36.8725
39.0777
37.4662
35.9894
36.4884
37.268
37.968
38.5231
38.4642
37.6142
36.4482
36.9676
46.9421
12.9443
4.78855
4.42846
4.62538
4.74836
4.72928
4.32626
3.77463
92.8104
71.8908
49.0808
41.8179
37.9302
30.2419
28.748
25.6632
24.3614
23.2989
22.1945
21.6
25.0573
31.9977
38.7851
42.0245
40.2683
37.4214
37.0988
37.9867
39.1802
40.1489
40.3527
39.5021
37.9604
38.0722
45.714
13.1251
4.79279
4.41631
4.61063
4.73043
4.7099
4.30694
3.75854
91.3035
72.4387
50.6693
45.5663
41.9137
33.0137
31.2049
27.6511
26.2587
24.8476
23.1651
22.3109
25.9582
33.4093
41.639
46.4421
45.0228
40.3076
38.4626
39.23
40.9678
42.4524
43.0317
42.2518
40.2437
39.7938
44.7962
13.3731
4.79939
4.40013
4.59098
4.70656
4.68414
4.28126
3.73715
89.3553
73.0245
52.7394
50.3393
46.8197
36.4851
34.2069
30.1207
28.6373
26.8235
24.5687
23.4202
27.3279
35.5512
45.646
52.5506
52.4573
45.7307
41.317
41.4156
43.5853
45.6213
46.6797
46.0788
43.5428
42.3484
44.6458
13.7442
4.80963
4.37998
4.56644
4.67677
4.65202
4.24925
3.71051
87.0012
73.6209
55.3481
56.0788
52.6035
40.6746
37.7754
33.1193
31.5598
29.3196
26.5372
25.0609
29.3268
38.6694
51.036
60.4289
62.9943
55.1605
46.9099
45.2693
47.4672
49.9653
51.5685
51.2826
48.195
46.0286
45.6235
14.2969
4.82507
4.35587
4.53703
4.64109
4.6136
4.21097
3.67868
84.2135
74.2031
58.5542
62.5895
59.1748
45.5941
41.9501
36.7138
35.1114
32.4672
29.2546
27.4181
32.1797
43.1167
58.1701
70.0727
76.2305
69.9153
57.1726
52.0102
53.3462
55.9961
58.1227
58.2914
54.6716
51.2368
48.1225
15.0975
4.84751
4.32785
4.50278
4.59954
4.56896
4.1665
3.64176
81.0699
74.7475
62.4104
69.4785
66.3605
51.2167
46.7667
40.9764
39.3833
36.4264
32.9693
30.7547
36.2191
49.4424
67.5586
81.4617
90.6752
89.4165
74.4183
63.5664
62.4231
64.5408
67.0025
67.7227
63.6286
58.521
52.6826
16.2252
4.87889
4.29596
4.46373
4.55219
4.51818
4.11594
3.59983
77.574
75.2302
66.9623
76.2046
73.9032
57.4491
52.2307
45.9641
44.4452
41.3636
37.9837
35.436
41.9109
58.2917
79.5807
94.4267
104.398
109.242
99.0251
82.371
76.4992
76.8539
79.1856
80.4375
75.9435
68.5899
60.0889
17.7768
4.92107
4.26025
4.41993
4.49911
4.46138
4.05941
3.55301
73.8369
75.6245
72.26
82.2848
81.5074
64.1257
58.2942
51.6899
50.3081
47.4003
44.5816
41.9061
49.8107
69.9793
93.7057
108.278
116.28
123.697
124.931
109.185
97.5442
94.5234
95.9237
97.4781
92.6371
82.2263
71.3976
19.8638
4.97548
4.22076
4.37144
4.44039
4.39872
3.99708
3.50147
69.8857
75.8976
78.3764
87.5264
88.9185
71.0397
64.8418
58.0925
56.8816
54.5352
52.8653
50.5726
60.3278
83.4926
107.652
121.425
126.296
131.606
141.965
138.273
125.388
118.515
118.189
119.584
114.386
99.8985
87.6405
22.5956
5.0425
4.17751
4.31836
4.37616
4.33037
3.92914
3.44538
65.8489
76.0047
85.396
92.0827
95.9906
78.0079
71.7048
65.0174
63.9502
62.5509
62.5055
61.4768
73.1484
95.9295
118.242
131.783
134.574
135.902
147.44
158.252
153.833
146.587
145
145.815
140.161
120.771
108.652
26.0285
5.12058
4.13052
4.26081
4.30658
4.25655
3.85581
3.38495
61.7626
75.8807
93.3102
96.2968
102.705
84.9365
78.7068
72.2324
71.2114
70.9584
72.63
73.8276
86.3524
104.411
123.963
138.084
140.766
139.105
146.842
164.194
172.596
171.338
171.289
171.703
165.337
141.346
130.853
30.0704
5.20523
4.07976
4.19892
4.23184
4.17752
3.77738
3.32042
57.7502
75.4338
101.78
100.502
109.138
91.8518
85.7305
79.5019
78.359
79.0916
81.9745
85.7725
96.9465
108.616
126.108
140.881
144.49
141.678
145.109
161.277
177.552
184.851
189.325
189.988
182.341
155.735
146.825
34.384
5.28832
4.02519
4.13287
4.15218
4.09356
3.69416
3.25206
53.8399
74.5484
109.852
104.91
115.411
98.8926
92.7647
86.6719
85.2099
86.4035
89.5181
95.1711
103.125
110.236
126.992
141.891
146.019
143.069
143.628
155.823
173.326
186.122
194.931
195.731
185.981
159.469
150.647
38.4018
5.35837
3.96674
4.06284
4.06786
4.00501
3.60648
3.18016
50.1273
73.1168
116.007
109.595
121.683
106.189
99.8987
93.7628
91.7931
92.7431
95.0351
100.946
105.495
111.19
128.29
142.715
146.231
142.937
141.906
150.508
165.906
179.968
190.286
189.9
177.491
153.075
143.325
41.4903
5.40217
3.90436
3.98905
3.97917
3.91223
3.51475
3.10506
46.6135
71.1064
119.224
114.511
128.078
113.865
107.289
100.955
98.3434
98.4517
99.2297
103.844
106.115
112.74
130.621
144.093
145.993
141.531
139.344
145.526
158.299
171.125
180.088
176.954
162.039
140.694
130.193
43.1308
5.40737
3.83803
3.91174
3.88645
3.81561
3.41937
3.02709
43.349
68.6346
119.683
119.534
134.67
121.995
115.099
108.508
105.212
104.153
103.255
105.69
107.091
115.754
134.144
146.11
145.72
139.323
135.804
140.448
151.159
161.866
167.76
161.027
144.418
126.456
115.754
43.042
5.36524
3.76782
3.83117
3.79005
3.71556
3.3208
2.94662
40.3033
66.0088
118.598
124.545
141.465
130.575
123.439
116.667
112.758
110.528
108.289
108.46
110.065
120.869
138.897
148.575
145.428
136.657
131.519
135.032
144.303
152.735
154.873
144.603
127.43
112.803
102.165
41.2567
5.27281
3.69388
3.74761
3.69035
3.61253
3.21948
2.86402
37.4893
63.7056
117.216
129.496
148.415
139.517
132.331
125.59
121.257
118.11
115.174
113.6
116.198
128.779
145.145
151.457
145.026
133.672
126.775
129.314
137.497
143.649
141.976
128.897
112.259
100.692
90.0217
38.1115
5.13352
3.61647
3.66136
3.58776
3.50697
3.11591
2.77967
34.8769
62.2071
116.258
134.391
155.433
148.665
141.712
135.311
130.865
127.24
124.432
122.068
126.383
140.167
153.256
154.911
144.567
130.494
121.852
123.471
130.654
134.477
129.305
114.465
99.1993
90.258
79.2726
34.1216
4.95599
3.53593
3.57273
3.48269
3.39934
3.01057
2.69396
32.4767
61.6687
116.042
139.226
162.414
157.833
151.442
145.748
141.601
138.039
136.219
134.361
141.29
155.856
163.798
159.298
144.288
127.325
116.992
117.7
123.797
125.202
117.069
101.543
88.1455
81.3007
69.6955
29.8106
4.75168
3.45269
3.48202
3.37556
3.2901
2.90394
2.60727
30.2708
62.1197
116.463
143.965
169.241
166.825
161.341
156.734
153.369
150.468
150.474
150.672
161.31
176.532
177.296
164.97
144.524
124.49
112.479
112.185
116.993
115.92
105.499
90.1948
78.8417
73.5249
61.0863
25.5896
4.53229
3.36722
3.38956
3.26681
3.17971
2.7965
2.51998
28.2673
63.3931
117.317
148.538
175.801
175.464
171.21
168.059
165.993
164.344
166.897
170.597
186.343
202.638
194.259
172.253
145.588
122.307
108.567
107.072
110.311
106.784
94.7979
80.3708
70.9963
66.6516
53.308
21.7163
4.308
3.27999
3.29566
3.15686
3.06862
2.68873
2.43243
26.4614
65.0747
118.428
152.856
181.986
183.599
180.863
179.507
179.256
179.431
185.14
193.646
215.766
233.69
214.669
181.205
147.664
121.029
105.477
102.465
103.809
97.9565
85.1045
71.9487
64.3338
60.4543
46.2839
18.3143
4.08657
3.19146
3.20064
3.04614
2.95727
2.58107
2.34498
24.8623
66.568
119.669
156.831
187.714
191.13
190.148
190.888
192.94
195.461
204.793
219.149
248.568
268.317
237.824
191.592
150.737
120.736
103.294
98.4066
97.5275
89.5838
76.4756
64.7654
58.6128
54.7685
39.9754
15.4126
3.87326
3.10205
3.10482
2.93506
2.84608
2.47395
2.25795
23.4808
67.365
120.963
160.398
192.933
198.011
198.967
202.07
206.867
212.209
225.538
246.517
283.654
304.274
261.874
202.626
154.55
121.343
101.989
94.8729
91.4905
81.7761
68.8964
58.6439
53.6328
49.4865
34.3592
12.9849
3.6712
3.01217
3.00849
2.82402
2.73544
2.36777
2.17163
22.3333
67.389
122.262
163.523
197.628
204.248
207.288
212.989
220.925
229.506
247.11
275.241
320.07
339.432
284.495
213.164
158.611
122.577
101.365
91.7706
85.7092
74.6012
62.3001
53.4126
49.2331
44.5477
29.411
10.9781
3.48188
2.92214
2.91195
2.71339
2.62573
2.26289
2.08631
21.4546
67.0652
123.534
166.202
201.818
209.896
215.138
223.659
235.1
247.311
269.422
305.085
357.128
371.799
303.321
221.819
162.28
124.051
101.144
88.9516
80.1851
68.0885
56.5892
48.9163
45.2892
39.9262
25.0977
9.33043
3.30563
2.83228
2.81548
2.60355
2.51728
2.15966
2.00224
20.8892
67.0258
124.749
168.456
205.546
215.035
222.602
234.174
249.498
265.734
292.57
336.071
394.413
399.946
316.818
227.508
164.898
125.306
100.966
86.2361
74.9165
62.2336
51.6541
45.0211
41.7071
35.6181
21.3749
7.98139
3.14209
2.74285
2.71934
2.49481
2.41041
2.05836
1.91962
20.7351
67.763
125.88
170.323
208.875
219.77
229.812
244.73
264.4
285.158
317.017
368.708
431.719
422.489
323.978
229.502
165.927
125.924
100.504
83.4501
69.9041
57.0097
47.3849
41.6156
38.4188
31.6302
18.1891
6.87672
2.99044
2.65408
2.62379
2.3875
2.3054
1.95927
1.83867
21.1259
69.4888
126.897
171.85
211.881
224.225
236.964
255.652
280.351
306.362
343.72
404.028
468.842
438.278
324.485
227.593
165.024
125.564
99.4802
80.4607
65.1543
52.3737
43.6795
38.609
35.3758
27.971
15.4817
5.96998
2.84968
2.56616
2.52905
2.28189
2.20251
1.86261
1.75954
22.2957
72.1722
127.78
173.091
214.652
228.548
244.332
267.47
298.317
330.81
374.497
443.842
505.153
445.928
318.27
221.83
162.036
124.02
97.737
77.2011
60.6794
48.2744
40.4467
35.9286
32.5454
24.6446
13.1927
5.2226
2.71877
2.47928
2.43535
2.17823
2.10194
1.76859
1.68238
24.5223
75.6313
128.517
174.099
217.288
232.928
252.321
281.037
319.959
361.037
412.354
490.554
538.819
444.174
305.742
212.562
156.976
121.187
95.1957
73.6681
56.4921
44.6552
37.6075
33.517
29.9052
21.6482
11.2642
4.60314
2.59665
2.39358
2.34289
2.07676
2.0039
1.67737
1.60732
28.1637
79.6152
129.107
174.928
219.907
237.616
261.535
297.735
348.071
401.279
461.918
546.416
565.771
431.778
287.552
200.268
149.984
117.067
91.8645
69.9016
52.6
41.4587
35.0948
31.3285
27.4403
18.9707
9.64256
4.08633
2.48237
2.30918
2.25184
1.97769
1.90856
1.58908
1.53445
33.4954
83.8648
129.551
175.626
222.658
242.972
272.911
319.805
387.222
457.945
528.687
610.215
579.105
408.311
264.832
185.631
141.308
111.722
87.7797
65.9551
48.9985
38.627
32.8521
29.3276
25.1399
16.5947
8.27953
3.65194
2.37505
2.22621
2.16241
1.88119
1.81606
1.50387
1.46386
40.701
88.1533
129.858
176.245
225.737
249.531
287.925
350.868
444.342
538.472
614.402
670.78
570.486
374.469
238.95
169.402
131.291
105.285
83.0109
61.8767
45.6696
36.1047
30.833
27.4862
22.9956
14.4976
7.133
3.28391
2.27393
2.14478
2.07474
1.78745
1.72655
1.42181
1.39563
49.6321
92.3142
130.034
176.848
229.425
258.122
308.943
396.608
527.578
643.049
703.247
701.98
534.405
332.71
211.554
152.421
120.346
97.9295
77.631
57.7014
42.5833
33.8392
28.9992
25.7823
21.0001
12.6542
6.16684
2.96945
2.17833
2.06499
1.989
1.69662
1.64013
1.343
1.32981
59.8743
96.2533
130.089
177.515
234.152
270.075
339.805
464.927
637.339
743.639
750.126
676.311
473.181
286.76
184.209
135.468
108.936
89.8875
71.7378
53.4545
39.7026
31.7835
27.32
24.1993
19.1466
11.0381
5.35053
2.69842
2.0877
1.98692
1.90536
1.60886
1.55692
1.26751
1.26646
70.5911
99.9434
130.031
178.368
240.604
287.605
386.626
561.73
741.897
777.242
711.606
593.001
397.545
240.883
158.307
119.243
97.5264
81.425
65.4437
49.1581
36.9885
29.8959
25.7714
22.7246
17.4288
9.6239
4.65856
2.46277
2.00154
1.9107
1.82396
1.52429
1.47699
1.1954
1.20563
80.9187
103.406
129.872
179.599
249.958
314.554
457.708
670.976
770.638
707.745
601.16
481.782
320.886
198.464
134.788
104.262
86.549
72.8427
58.8981
44.8387
34.4041
28.1408
24.3343
21.3494
15.8409
8.38754
4.06982
2.25608
1.91946
1.83641
1.74495
1.44305
1.40044
1.12671
1.14734
89.3733
106.694
129.625
181.542
264.369
357.577
555.045
725.656
689.008
575.048
471.726
374.295
252.399
161.439
114.192
90.8808
76.3615
64.446
52.2771
40.5327
31.9159
26.4874
22.9939
20.068
14.3782
7.30743
3.56692
2.07323
1.8411
1.76416
1.6685
1.36527
1.32732
1.06148
1.09164
95.1437
109.89
129.312
184.814
288.078
425.438
637.688
661.026
544.978
439.618
360.394
285.53
195.479
130.309
96.6197
79.2277
67.2016
56.522
45.7948
36.2911
29.4948
24.9091
21.7385
18.8766
13.0366
6.36451
3.13556
1.91013
1.76619
1.69407
1.59473
1.29103
1.25769
0.999713
1.03853
0.0033776
0.00250203
0.0022721
0.00215822
0.00211564
0.00211827
0.00215187
0.00626107
0.153463
0.382951
0.661686
1.03284
1.48865
2.04066
2.63347
3.37257
4.50881
6.70105
13.5406
31.8133
207.14
160.099
0.00334409
0.00224134
0.0018398
0.00160188
0.00147829
0.00143816
0.00147022
0.00635973
0.155202
0.387722
0.669877
1.04317
1.50032
2.05404
2.64858
3.39014
4.5304
6.72622
13.5756
31.8567
208.148
170.199
0.00354023
0.00237562
0.00188164
0.0015432
0.00131997
0.00118731
0.0011563
0.00642144
0.15635
0.391186
0.676237
1.05091
1.50857
2.06305
2.65861
3.40211
4.54629
6.74647
13.6053
31.9021
208.307
179.849
0.00367051
0.00251728
0.00200382
0.0016296
0.00135741
0.00116518
0.00103135
0.00645828
0.156985
0.393414
0.680737
1.05602
1.51331
2.0676
2.66345
3.40837
4.5563
6.76154
13.6283
31.9504
207.679
188.909
0.00392238
0.00276405
0.0022268
0.00182274
0.00151495
0.00128052
0.00100098
0.00647623
0.157155
0.394455
0.683351
1.05843
1.51448
2.06765
2.66304
3.40881
4.56024
6.7712
13.643
32.0024
206.309
197.843
0.00405994
0.00292967
0.00239868
0.00199254
0.00167601
0.00142624
0.000991294
0.00647843
0.15689
0.394344
0.684067
1.05813
1.51206
2.06318
2.65736
3.40338
4.55797
6.77517
13.6478
32.0583
204.229
206.822
0.00434031
0.00320817
0.00266004
0.00223437
0.00189741
0.00162642
0.00106144
0.00646634
0.15621
0.393111
0.682891
1.05511
1.50605
2.05423
2.64641
3.39204
4.54936
6.77321
13.6414
32.1183
201.477
215.847
0.00447832
0.00337924
0.00284413
0.00242405
0.00208758
0.00181301
0.0011887
0.00644013
0.155131
0.390788
0.679856
1.04941
1.49651
2.04085
2.63026
3.37481
4.53429
6.76505
13.6222
32.1817
198.102
224.858
0.0047839
0.00368488
0.00313525
0.002698
0.00234368
0.00205125
0.00131377
0.00639908
0.153664
0.387412
0.675016
1.04111
1.48353
2.02316
2.60903
3.35171
4.51266
6.75043
13.589
32.2473
194.16
233.784
0.00490846
0.00384885
0.00331975
0.00289529
0.0025481
0.0022583
0.00140372
0.00634196
0.151823
0.383027
0.66845
1.03029
1.46724
2.00131
2.58284
3.32282
4.4844
6.72908
13.5409
32.313
189.71
242.543
0.00522928
0.00417153
0.00363074
0.00319167
0.00282895
0.0025235
0.00151756
0.00626731
0.149617
0.377681
0.660257
1.01709
1.44781
1.97548
2.5519
3.28826
4.44942
6.70072
13.4767
32.3758
184.818
251.025
0.00533908
0.0043247
0.00381011
0.0033897
0.00303985
0.00274255
0.00163645
0.00617303
0.147056
0.371432
0.650551
1.00166
1.42543
1.94588
2.51642
3.24819
4.40769
6.66508
13.3958
32.4318
179.551
259.099
0.005672
0.00466124
0.00413749
0.00370466
0.0033411
0.00302983
0.0018408
0.00605655
0.144145
0.364336
0.639457
0.984175
1.40033
1.91278
2.47668
3.2028
4.35919
6.62183
13.2974
32.4757
173.978
266.615
0.00575607
0.00479289
0.00430136
0.00389352
0.0035491
0.00325206
0.00211816
0.00591402
0.140886
0.356454
0.627104
0.964835
1.37276
1.87644
2.43296
3.15236
4.30396
6.57068
13.1809
32.5014
168.166
273.421
0.00609201
0.00513364
0.00463508
0.00421688
0.0038607
0.00355161
0.00252324
0.00574076
0.13727
0.347841
0.613623
0.943843
1.34296
1.83717
2.38558
3.09714
4.24207
6.5113
13.0459
32.5018
162.18
279.369
0.00615201
0.00524294
0.00478033
0.00439154
0.00405924
0.0037693
0.0029892
0.0055297
0.133276
0.33854
0.599136
0.921415
1.31123
1.79526
2.33488
3.03748
4.17367
6.44336
12.892
32.4686
156.079
284.326
0.00648669
0.00558342
0.00511558
0.00471805
0.00437545
0.00407483
0.00350211
0.005273
0.128866
0.328584
0.583756
0.897764
1.27783
1.75105
2.28121
2.97374
4.09897
6.36654
12.7191
32.393
149.921
288.181
0.00651822
0.00566543
0.00523662
0.00487235
0.00455786
0.00428084
0.00389723
0.00495936
0.123976
0.31798
0.567577
0.873099
1.24305
1.70485
2.22495
2.90631
4.01821
6.28054
12.5269
32.2656
143.752
290.849
0.00683897
0.00599279
0.00556056
0.0051894
0.00486643
0.00458055
0.00427417
0.00458869
0.118513
0.306705
0.550668
0.847619
1.20716
1.65698
2.16644
2.83559
3.93175
6.18507
12.3157
32.077
137.616
292.27
0.00685338
0.00605571
0.00566239
0.00532532
0.00503198
0.00477172
0.00452795
0.00418163
0.112342
0.294692
0.533066
0.821498
1.17044
1.60778
2.10607
2.76201
3.83996
6.07992
12.0856
31.8175
131.546
292.409
0.00716008
0.00636974
0.0059745
0.00563196
0.00533137
0.00506332
0.00482386
0.00384236
0.105278
0.281821
0.51476
0.79488
1.13314
1.55755
2.04419
2.68599
3.7433
5.96492
11.8369
31.4781
125.572
291.251
0.00715654
0.00641247
0.00605559
0.0057475
0.0054776
0.00523672
0.00502304
0.00379094
0.0970908
0.267898
0.495682
0.767868
1.0955
1.5066
1.98114
2.60798
3.64225
5.84001
11.5702
31.0509
119.713
288.798
0.00744656
0.00670999
0.00635212
0.00603954
0.00576331
0.00551548
0.00529319
0.00413568
0.0875094
0.252646
0.475685
0.740503
1.05774
1.45523
1.91727
2.52838
3.53736
5.70523
11.2861
30.5289
113.985
285.062
0.00743048
0.00673698
0.00641574
0.00613675
0.00589101
0.00567068
0.00547101
0.00467276
0.0762803
0.235688
0.45452
0.712748
1.02001
1.40371
1.8529
2.44762
3.42918
5.56072
10.9855
29.9072
108.399
280.067
0.00770419
0.00701811
0.00669651
0.00641368
0.00616223
0.00593542
0.0057282
0.00524711
0.0633065
0.216547
0.431808
0.684458
0.982424
1.3523
1.78834
2.3661
3.31831
5.40677
10.669
29.183
102.96
273.843
0.00767666
0.00703036
0.00674341
0.00649294
0.00627136
0.00607193
0.00588877
0.00562101
0.0489292
0.19469
0.407017
0.655346
0.944987
1.30122
1.72388
2.2842
3.20536
5.24384
10.3378
28.3558
97.6664
266.43
0.00793333
0.00729408
0.00700703
0.00675313
0.00652621
0.00632064
0.00613123
0.00592764
0.03429
0.169645
0.379434
0.624938
0.907582
1.25064
1.65979
2.20229
3.09095
5.07252
9.9929
27.4282
92.5167
257.876
0.00789946
0.00729633
0.00704135
0.00681785
0.00661941
0.00644026
0.0062749
0.0061127
0.0213778
0.141289
0.34817
0.592527
0.869912
1.20065
1.5963
2.12073
2.97572
4.89359
9.6353
26.4054
87.5028
248.244
0.00814123
0.00754462
0.00728961
0.00706287
0.00685927
0.00667408
0.00650275
0.00633983
0.0123402
0.110321
0.312227
0.557122
0.831435
1.15117
1.53361
2.03983
2.86032
4.70801
9.26616
25.2954
82.6153
237.61
0.0081033
0.00753934
0.0073138
0.00711541
0.00693872
0.00677877
0.00663075
0.00648979
0.00787775
0.0788188
0.270726
0.517409
0.791297
1.10194
1.4718
1.95988
2.74541
4.51694
8.88664
24.109
77.8403
226.07
0.0083303
0.00777227
0.00754668
0.00734518
0.00716349
0.00699765
0.00684375
0.00669821
0.00664863
0.0502632
0.223432
0.471756
0.748251
1.0524
1.41081
1.8811
2.63165
4.32175
8.49803
22.8592
73.1633
213.738
0.0082926
0.00776375
0.00756484
0.00738933
0.00723258
0.00709034
0.00695846
0.00683302
0.00661488
0.0283288
0.171658
0.418388
0.700575
1.00158
1.35036
1.80362
2.51965
4.12404
8.1018
21.5608
68.5674
200.748
0.00850608
0.00798261
0.00778363
0.00760515
0.0074436
0.00729563
0.00715792
0.0070276
0.00685078
0.0150122
0.119278
0.35592
0.646002
0.947999
1.28982
1.72737
2.40998
3.92558
7.6997
20.23
64.0374
187.252
0.00847098
0.00797343
0.00779845
0.00764359
0.00750495
0.00737885
0.00726168
0.00715013
0.0070242
0.00904331
0.0727292
0.284562
0.5818
0.88957
1.22806
1.65202
2.30306
3.72833
7.29393
18.8834
59.5599
173.42
0.00867173
0.00817906
0.00800397
0.00784631
0.00770309
0.00757149
0.00744865
0.00733214
0.00721381
0.00722947
0.0384947
0.207971
0.505231
0.823462
1.16337
1.57687
2.19906
3.5343
6.88721
17.5381
55.1286
159.429
0.00864156
0.00817177
0.00801807
0.00788169
0.00775927
0.00764768
0.00754377
0.00744464
0.00734531
0.00698734
0.0189018
0.134482
0.414941
0.7461
1.09328
1.50065
2.09777
3.3454
6.48288
16.211
50.7451
145.461
0.00883169
0.00836627
0.00821238
0.0080733
0.0079465
0.0078296
0.00772013
0.00761601
0.00751388
0.00721461
0.0106228
0.0750791
0.313667
0.653625
1.01437
1.42146
1.99849
3.16318
6.08477
14.9181
46.4235
131.696
0.00880913
0.00836382
0.00822887
0.00810879
0.00800072
0.00790193
0.00780971
0.00772147
0.00763404
0.00745816
0.00808241
0.036877
0.21111
0.543406
0.92227
1.33657
1.89986
2.98858
5.69695