/*--------------------------------*- C++ -*----------------------------------*\
| =========                 |                                                 |
| \\      /  F ield         | OpenFOAM: The Open Source CFD Toolbox           |
|  \\    /   O peration     | Version:  v1912                                 |
|   \\  /    A nd           | Website:  www.openfoam.com                      |
|    \\/     M anipulation  |                                                 |
\*---------------------------------------------------------------------------*/
FoamFile
{
    version     2.0;
    format      ascii;
    class       volScalarField;
    location    "250";
    object      nut;
}
// * * * * * * * * * * * * * * * * * * * * * * * * * * * * * * * * * * * * * //

dimensions      [0 2 -1 0 0 0 0];


internalField   nonuniform List<scalar> 
12441
(
5.82201e-24
1.79052e-20
8.10488e-20
3.32538e-19
1.06829e-18
3.88822e-18
1.01053e-17
2.50041e-17
6.13817e-17
1.27528e-16
3.0565e-16
7.71465e-16
2.18188e-15
7.4092e-15
1.03727e-13
1.89551e-11
0.000196858
0.000979566
0.00314094
0.00266733
0.00364584
0.00775321
6.34209e-24
3.0335e-20
1.11731e-19
4.23945e-19
1.30208e-18
4.80721e-18
1.21982e-17
3.00092e-17
7.3608e-17
1.54453e-16
3.798e-16
1.02922e-15
2.82949e-15
9.38475e-15
1.13175e-13
3.90215e-11
5.83224e-05
0.00118873
0.0035959
0.00290389
0.00400797
0.00781733
6.36485e-24
3.58955e-20
1.20778e-19
4.48129e-19
1.37773e-18
4.90665e-18
1.29287e-17
3.20403e-17
8.05128e-17
1.71773e-16
4.1789e-16
1.11748e-15
2.7862e-15
7.67312e-15
5.3573e-14
6.57668e-12
1.11591e-05
0.000871246
0.00143155
0.00273918
0.00416075
0.0078909
6.31932e-24
3.76918e-20
1.18534e-19
4.29308e-19
1.32534e-18
4.71349e-18
1.25132e-17
3.13263e-17
7.84934e-17
1.73676e-16
4.23763e-16
1.15402e-15
2.61154e-15
8.48327e-15
3.85416e-14
1.54386e-12
1.6295e-06
0.000606822
0.00106681
0.0026608
0.00432326
0.0079647
6.28528e-24
4.38832e-20
1.29779e-19
4.58313e-19
1.40269e-18
4.77928e-18
1.30907e-17
3.27942e-17
8.42974e-17
1.87529e-16
4.54176e-16
1.2847e-15
3.02047e-15
4.07646e-14
2.47462e-13
2.29887e-12
1.39854e-07
0.000427705
0.00104582
0.00264735
0.00446385
0.00803394
6.23511e-24
4.12882e-20
1.2054e-19
4.29189e-19
1.34272e-18
4.62203e-18
1.27502e-17
3.23926e-17
8.2894e-17
1.92692e-16
4.76961e-16
1.44559e-15
4.5344e-15
1.33036e-12
1.19091e-11
5.10606e-11
4.59225e-07
0.000391834
0.00111034
0.00270445
0.00459117
0.00809948
6.2002e-24
5.02641e-20
1.37796e-19
4.75769e-19
1.46015e-18
4.79242e-18
1.3593e-17
3.44534e-17
9.07031e-17
2.11133e-16
5.20866e-16
2.00015e-15
2.50353e-14
4.14991e-11
6.5856e-10
9.3807e-09
1.87637e-05
0.000407572
0.00129519
0.00289154
0.00473852
0.00816218
6.15043e-24
4.34524e-20
1.23172e-19
4.40158e-19
1.40816e-18
4.72276e-18
1.35122e-17
3.48447e-17
9.13203e-17
2.23857e-16
5.72537e-16
5.43619e-15
6.09962e-13
2.2547e-09
8.42148e-08
4.97846e-06
0.00019486
0.000464692
0.00175119
0.0032758
0.00493264
0.00822577
6.11763e-24
5.57045e-20
1.46131e-19
4.99678e-19
1.55412e-18
4.95863e-18
1.46117e-17
3.75706e-17
1.02076e-16
2.50959e-16
6.45384e-16
6.13528e-14
2.59181e-11
7.42523e-08
1.04292e-05
0.000153897
0.000794195
0.000824528
0.00269983
0.00393423
0.0052068
0.00829204
6.07079e-24
4.43499e-20
1.25436e-19
4.56633e-19
1.50754e-18
4.95361e-18
1.47474e-17
3.87253e-17
1.0488e-16
2.75135e-16
7.48663e-16
1.68205e-12
1.08364e-09
4.43492e-06
0.000190746
0.000610494
0.00166877
0.00155146
0.00443667
0.00494566
0.00557502
0.00836448
6.04161e-24
6.02605e-20
1.53435e-19
5.25909e-19
1.67273e-18
5.20594e-18
1.60251e-17
4.20348e-17
1.19297e-16
3.17389e-16
8.92133e-16
5.23106e-11
5.51014e-08
8.18136e-05
0.000713981
0.0016723
0.00360361
0.00306731
0.00738808
0.00640814
0.00605051
0.00844366
5.99621e-24
4.46294e-20
1.27737e-19
4.76946e-19
1.6337e-18
5.28095e-18
1.64023e-17
4.40652e-17
1.25503e-16
3.64651e-16
1.15868e-15
1.45667e-09
3.24683e-06
0.000344049
0.00154787
0.00369098
0.00742804
0.00608994
0.011987
0.00836213
0.00662145
0.00853143
5.97059e-24
6.415e-20
1.60451e-19
5.53813e-19
1.81498e-18
5.54193e-18
1.79086e-17
4.82224e-17
1.46708e-16
4.44755e-16
1.69467e-15
3.52088e-08
7.24612e-05
0.00106418
0.0037525
0.00804959
0.0146546
0.0116045
0.0183768
0.010785
0.0072775
0.00862633
5.92663e-24
4.43258e-20
1.29671e-19
4.99318e-19
1.78321e-18
5.69193e-18
1.85326e-17
5.13843e-17
1.59856e-16
5.59189e-16
3.6016e-15
7.96221e-07
0.000344042
0.00271072
0.00820585
0.0159281
0.0265932
0.0204374
0.0262429
0.013546
0.00798518
0.00872852
5.90424e-24
6.75164e-20
1.66656e-19
5.82626e-19
1.97802e-18
5.94016e-18
2.02692e-17
5.67833e-17
1.96062e-16
7.78761e-16
1.65182e-14
1.51822e-05
0.00110989
0.00629743
0.0161436
0.0283202
0.0437878
0.0326611
0.0348089
0.016484
0.00872341
0.00883515
5.86057e-24
4.39595e-20
1.31999e-19
5.24812e-19
1.95782e-18
6.1856e-18
2.12024e-17
6.168e-17
2.28176e-16
1.21635e-15
3.0218e-13
0.000137114
0.00272282
0.012798
0.0284742
0.0454978
0.0655387
0.0471893
0.0431338
0.0193972
0.00945463
0.00894576
5.84147e-24
7.05412e-20
1.73506e-19
6.15129e-19
2.17063e-18
6.4396e-18
2.3311e-17
6.93795e-17
3.08245e-16
2.3051e-15
1.26032e-11
0.000518993
0.00612637
0.0230295
0.0451442
0.0668359
0.0896887
0.0619856
0.0503975
0.0221471
0.0101637
0.00905718
5.79753e-24
4.35029e-20
1.34495e-19
5.53148e-19
2.16071e-18
6.7717e-18
2.46189e-17
7.72317e-17
4.08485e-16
5.44601e-15
5.48017e-10
0.00131549
0.0121291
0.0373236
0.0656561
0.0906344
0.112977
0.0747895
0.0561918
0.0246124
0.0108229
0.00916919
5.78115e-24
7.3265e-20
1.80291e-19
6.49146e-19
2.38806e-18
7.01179e-18
2.71832e-17
8.90734e-17
6.6176e-16
1.69243e-14
4.40842e-08
0.00315502
0.0215032
0.0549871
0.0883171
0.114438
0.13195
0.0840756
0.0604857
0.0267632
0.011432
0.00927899
5.73664e-24
4.30542e-20
1.36874e-19
5.8242e-19
2.38695e-18
7.43837e-18
2.90083e-17
1.0232e-16
1.08048e-15
7.52772e-14
8.54175e-06
0.0066066
0.0343203
0.0750823
0.111356
0.135435
0.14404
0.0895285
0.0635701
0.0285722
0.011977
0.00938714
5.72355e-24
7.57311e-20
1.86806e-19
6.83197e-19
2.62934e-18
7.67326e-18
3.23052e-17
1.2225e-16
2.19388e-15
7.80251e-13
0.000166291
0.0124966
0.049989
0.0959575
0.132305
0.151313
0.148423
0.0919597
0.0658055
0.0300789
0.0124715
0.00949146
5.67822e-24
4.24354e-20
1.38576e-19
6.10948e-19
2.63523e-18
8.1936e-18
3.49413e-17
1.4647e-16
4.34043e-15
1.34069e-11
0.000644059
0.0212603
0.0674366
0.116292
0.149463
0.160733
0.146153
0.0926499
0.0675462
0.0312981
0.0129131
0.00959327
5.66782e-24
7.80246e-20
1.92475e-19
7.15505e-19
2.88998e-18
8.41859e-18
3.94347e-17
1.8359e-16
1.02763e-14
1.66112e-10
0.00167346
0.032779
0.0854267
0.134463
0.161315
0.163752
0.139582
0.0927401
0.0690154
0.0322931
0.0133269
0.00969106
5.62194e-24
4.19656e-20
1.39797e-19
6.38029e-19
2.90274e-18
9.03802e-18
4.35033e-17
2.31504e-16
2.24218e-14
1.5581e-09
0.00378674
0.0464985
0.102817
0.149537
0.167744
0.16153
0.131324
0.0928685
0.070359
0.0330958
0.0137203
0.00978684
5.61507e-24
8.02775e-20
1.97584e-19
7.45842e-19
3.17132e-18
9.26773e-18
5.02666e-17
3.06441e-16
5.64439e-14
1.37799e-08
0.00749784
0.0614256
0.118696
0.160688
0.169148
0.155927
0.123385
0.0932341
0.0716251
0.033783
0.014127
0.00987966
5.56741e-24
4.17936e-20
1.40769e-19
6.639e-19
3.1922e-18
9.99301e-18
5.71555e-17
4.08483e-16
1.30491e-13
3.18882e-07
0.013208
0.0766494
0.132414
0.167948
0.166884
0.148784
0.116798
0.0937701
0.0728376
0.0344005
0.0145609
0.00997203
5.56304e-24
8.24865e-20
2.02104e-19
7.74046e-19
3.47305e-18
1.02328e-17
6.84636e-17
5.73386e-16
3.92566e-13
1.86891e-05
0.0208556
0.0912651
0.143591
0.171532
0.162198
0.141551
0.111794
0.0943422
0.0739789
0.0350308
0.0150591
0.0100634
5.51424e-24
4.18613e-20
1.41228e-19
6.8756e-19
3.50174e-18
1.10696e-17
8.1334e-17
8.10444e-16
1.83009e-12
0.000210239
0.030136
0.104703
0.152093
0.172233
0.156454
0.135055
0.108153
0.0948268
0.0750377
0.0357157
0.0156341
0.0101564
5.51324e-24
8.46784e-20
2.05805e-19
7.9925e-19
3.79643e-18
1.13448e-17
1.02518e-16
1.20446e-15
1.28023e-11
0.000697799
0.0404328
0.116517
0.158013
0.170733
0.150471
0.129634
0.105526
0.0951547
0.0759841
0.0365183
0.0163164
0.0102507
5.46218e-24
4.20364e-20
1.40973e-19
7.08456e-19
3.83387e-18
1.23055e-17
1.28837e-16
1.79588e-15
7.40975e-11
0.00139553
0.0512328
0.126514
0.161609
0.167883
0.144884
0.125282
0.103588
0.0952941
0.0768011
0.03745
0.0171055
0.0103488
5.46321e-24
8.68096e-20
2.08986e-19
8.21837e-19
4.14341e-18
1.26538e-17
1.72487e-16
2.80975e-15
3.56422e-10
0.00240905
0.0619844
0.134582
0.163246
0.164221
0.139884
0.121849
0.102099
0.0952482
0.0774602
0.0385329
0.0180148
0.01045
5.4111e-24
4.22486e-20
1.39907e-19
7.26655e-19
4.19116e-18
1.37426e-17
2.30152e-16
4.38998e-15
1.38695e-09
0.00384498
0.0723334
0.140782
0.163325
0.160274
0.135593
0.119136
0.100896
0.0950321
0.0779467
0.0397381
0.0190229
0.0105565
5.41523e-24
8.89214e-20
2.11422e-19
8.4242e-19
4.52288e-18
1.4194e-17
3.26418e-16
7.08401e-15
4.74639e-09
0.00584702
0.0819371
0.145217
0.162241
0.156278
0.131919
0.116967
0.0998824
0.0946728
0.0782364
0.0410527
0.0201218
0.010667
5.35964e-24
4.22812e-20
1.37818e-19
7.42929e-19
4.58531e-18
1.5455e-17
4.58297e-16
1.12968e-14
1.44513e-08
0.00853478
0.0906462
0.148102
0.160338
0.152465
0.128817
0.115193
0.0990005
0.0941955
0.0783181
0.0424259
0.0212705
0.0107831
5.36571e-24
8.84609e-20
2.10347e-19
8.57274e-19
4.93685e-18
1.60488e-17
6.78023e-16
1.85084e-14
4.27967e-08
0.012018
0.0983496
0.149645
0.157906
0.148876
0.126153
0.113707
0.0982214
0.0936293
0.0781727
0.0438385
0.0224481
0.0109032
5.3061e-24
4.14885e-20
1.32584e-19
7.51678e-19
5.01057e-18
1.74644e-17
9.80574e-16
2.99216e-14
2.1952e-07
0.0164564
0.105108
0.150109
0.155169
0.145596
0.12387
0.11243
0.0975328
0.0929984
0.0777945
0.0452513
0.0236067
0.0110282
5.31254e-24
8.52667e-20
2.03834e-19
8.62108e-19
5.38139e-18
1.81877e-17
1.47481e-15
5.74631e-14
1.12208e-05
0.0220742
0.111001
0.149721
0.152299
0.142591
0.121867
0.111311
0.0969333
0.0923299
0.0771716
0.0466721
0.0247274
0.0111563
5.24616e-24
4.16177e-20
1.27334e-19
7.5776e-19
5.4832e-18
1.98592e-17
2.1426e-15
4.65086e-13
0.000196462
0.029257
0.116212
0.148719
0.149416
0.139898
0.120115
0.110317
0.0964281
0.0916468
0.0763076
0.0480985
0.0257733
0.0112883
5.2495e-24
5.37923e-20
1.5473e-19
7.99529e-19
5.76922e-18
2.06405e-17
3.20179e-15
2.31305e-11
0.00135916
0.0384892
0.120878
0.147289
0.146604
0.137473
0.11855
0.109432
0.0960271
0.0909743
0.0752039
0.0495769
0.0267479
0.011422
5.17276e-24
4.32836e-20
1.14482e-19
7.24342e-19
5.94102e-18
2.35477e-17
4.66327e-15
1.0329e-09
0.00528887
0.0500848
0.125147
0.145615
0.143913
0.135352
0.117173
0.108649
0.095743
0.0903325
0.0738809
0.0511318
0.0276432
0.0115584
5.16608e-24
1.93961e-21
1.12098e-20
4.00677e-19
5.44954e-18
2.44402e-17
7.20791e-15
1.8318e-07
0.0141872
0.0639877
0.129054
0.143828
0.141369
0.133502
0.115946
0.107974
0.0955894
0.0897415
0.0723617
0.0528019
0.0284982
0.0116955
5.07798e-24
1.71178e-20
4.47773e-20
4.17427e-19
5.46299e-18
3.62128e-17
1.80088e-14
4.75836e-05
0.0298768
0.0799024
0.13261
0.14206
0.138973
0.131978
0.1149
0.107416
0.0955787
0.0892111
0.0706937
0.0545333
0.0293271
0.0118345
5.03914e-24
6.72057e-22
8.4598e-23
2.35264e-19
5.06683e-18
8.28271e-17
3.70828e-13
0.00102073
0.0535651
0.0973573
0.135716
0.140399
0.136708
0.130747
0.114006
0.106998
0.0957221
0.0887463
0.0689297
0.05616
0.0301308
0.011976
4.83848e-24
2.10345e-19
4.58191e-19
1.02966e-18
7.26151e-18
9.13689e-16
7.18248e-12
0.00622488
0.0857079
0.116097
0.138484
0.139
0.134555
0.129864
0.113298
0.106729
0.0960151
0.0882926
0.0671361
0.0572581
0.0306051
0.0121338
0.00987657
0.0208988
0.0225222
0.00864085
0.00737494
0.00757591
0.0077558
0.00797542
0.00788187
0.00828439
0.0115216
0.0105996
0.00910492
0.00828101
0.00891024
0.0109271
0.0139389
0.0161981
0.0161537
0.0137996
0.0121377
0.0120059
0.0124489
0.013119
0.0139175
0.0139999
0.0108938
0.0417589
0.110623
0.118879
0.11389
0.110827
0.111466
0.121669
0.139728
0.00986353
0.0212119
0.0217589
0.00830343
0.00721768
0.00742535
0.00776072
0.00800336
0.00783874
0.00823331
0.0112371
0.0103324
0.00886922
0.00799191
0.00856088
0.0105066
0.0136262
0.0162596
0.0164248
0.0138945
0.0120187
0.011801
0.0122097
0.0128701
0.0136994
0.0138339
0.0107585
0.0409723
0.110386
0.118757
0.113806
0.110757
0.111429
0.121634
0.139707
0.00983842
0.0214535
0.0204349
0.00772169
0.00702937
0.00722149
0.00782051
0.00808122
0.00780216
0.00819367
0.0103634
0.00946195
0.00819914
0.00731766
0.00753606
0.00886918
0.0114833
0.0142572
0.0150948
0.0131806
0.0115663
0.011361
0.0117383
0.0123848
0.0132724
0.0135084
0.0108932
0.0402338
0.109882
0.118454
0.113587
0.110564
0.11131
0.121514
0.139619
0.00979929
0.0216229
0.0187442
0.00711184
0.00686858
0.00704936
0.00791983
0.00812767
0.00777323
0.00818811
0.00941436
0.00849289
0.00743288
0.0066344
0.00652069
0.00714912
0.00893597
0.0114775
0.0129414
0.0119692
0.0108556
0.0107141
0.011055
0.0116705
0.0126215
0.0129938
0.0110889
0.0393691
0.109104
0.117971
0.113231
0.110247
0.111107
0.121311
0.139463
0.00974597
0.0216419
0.0168208
0.00649591
0.00668199
0.00686271
0.0079696
0.00807349
0.00768496
0.00813122
0.00857987
0.00765158
0.006784
0.00611042
0.00574629
0.00578454
0.00671898
0.00873722
0.0105537
0.0105076
0.00995531
0.0098993
0.0101969
0.0107568
0.0117517
0.0122757
0.0111849
0.0382346
0.108049
0.117324
0.112752
0.109821
0.110831
0.121035
0.139251
0.00967615
0.0214452
0.0147811
0.00586739
0.00643813
0.00662137
0.00790535
0.0078864
0.00748586
0.00793648
0.00783331
0.00693841
0.00623889
0.00567145
0.00515054
0.00479262
0.00503822
0.00641151
0.00827371
0.0089612
0.00892298
0.0089585
0.00921098
0.00969124
0.0106892
0.0113581
0.0110633
0.0367253
0.106722
0.11654
0.112173
0.109305
0.110501
0.120708
0.139002
0.00959042
0.0209942
0.0127408
0.00525057
0.00615143
0.00632816
0.0077141
0.00757295
0.0071649
0.00756879
0.00709886
0.00627266
0.00569641
0.00518167
0.0045971
0.00404791
0.00384237
0.00459769
0.00624816
0.0074161
0.00779971
0.0079307
0.00814537
0.00853162
0.00948066
0.0102649
0.0106486
0.0347817
0.105128
0.11565
0.111521
0.108727
0.110139
0.120352
0.138741
0.00948687
0.0202634
0.0108066
0.00469164
0.00586262
0.0060143
0.00742323
0.00716616
0.0067454
0.00704547
0.00633249
0.00559438
0.00508888
0.00457483
0.00400743
0.00344073
0.00301686
0.00327887
0.00453409
0.00591376
0.00661637
0.00685036
0.00704476
0.00733765
0.00818861
0.0090411
0.00991244
0.0323949
0.103274
0.114691
0.110825
0.108114
0.109772
0.119996
0.138496
0.00936733
0.0192576
0.00905997
0.00423482
0.00561529
0.00571962
0.00707871
0.00670991
0.006268
0.00641712
0.0055397
0.00489048
0.00441387
0.00387367
0.00338542
0.00291892
0.00246163
0.00240466
0.00318684
0.00450673
0.00540985
0.0057519
0.00594922
0.00616466
0.00688422
0.00775048
0.00887847
0.0296094
0.101167
0.113698
0.110117
0.107498
0.109427
0.11967
0.138295
0.0092307
0.0179935
0.00755021
0.00390735
0.00544395
0.00548062
0.00673007
0.0062497
0.00577927
0.00574756
0.00475744
0.00418142
0.00371191
0.00315611
0.00278476
0.00247011
0.00209452
0.00189311
0.00225585
0.00329316
0.00424374
0.00467834
0.0048979
0.00506142
0.00563893
0.00646931
0.00762634
0.0265235
0.0988218
0.11271
0.10943
0.106911
0.109132
0.119404
0.13817
0.00908003
0.0165151
0.00629429
0.00371683
0.00537103
0.00532588
0.00642191
0.00582642
0.00532248
0.00509983
0.00403602
0.00350507
0.00303951
0.00251353
0.00227302
0.00210101
0.00184757
0.00163224
0.00172094
0.00238626
0.00321593
0.00368987
0.0039346
0.0040717
0.00451808
0.00527756
0.00628559
0.0232845
0.0962627
0.11176
0.108792
0.106382
0.108914
0.119229
0.138149
0.00891508
0.0148734
0.00528616
0.00365671
0.00540943
0.00527543
0.00619114
0.00547474
0.00493427
0.00452686
0.00342259
0.00290336
0.00245108
0.00201623
0.00189593
0.0018204
0.00167168
0.00150977
0.00147861
0.00183008
0.00242942
0.00286066
0.00310976
0.00323633
0.0035767
0.00424854
0.0050144
0.0200758
0.0935338
0.110881
0.108232
0.105942
0.108801
0.119173
0.138261
0.00874002
0.0131412
0.00450691
0.00371481
0.00556672
0.00534201
0.00606604
0.00522171
0.0046421
0.00406673
0.00295018
0.00241324
0.00198722
0.00168818
0.00165648
0.00162787
0.0015416
0.00144476
0.00140245
0.00156576
0.00193146
0.00225343
0.00247114
0.00258968
0.00285479
0.0034385
0.0039618
0.0170948
0.0907099
0.110102
0.107776
0.105616
0.108816
0.119265
0.138534
0.00855535
0.0113929
0.00393686
0.00388071
0.00584964
0.00553355
0.00606695
0.00508718
0.00446376
0.00374254
0.00263108
0.00205724
0.00166961
0.00150336
0.00152298
0.00150935
0.00144859
0.00139774
0.00139442
0.00148609
0.00168549
0.00188285
0.00204221
0.00214787
0.00236876
0.00287656
0.00322378
0.0145188
0.087904
0.109449
0.107445
0.10543
0.108983
0.119531
0.138993
0.00836592
0.0097127
0.00356284
0.00415032
0.00626787
0.00585673
0.00620762
0.00508383
0.00440894
0.00356404
0.00246307
0.00184127
0.00149149
0.00141293
0.00145175
0.00144117
0.00138857
0.00136074
0.00140151
0.00149566
0.0016092
0.00170835
0.00180656
0.00189805
0.00210441
0.00255838
0.0028175
0.012465
0.085267
0.108945
0.107259
0.105403
0.109321
0.119994
0.139661
0.00817267
0.00817467
0.00338405
0.00452817
0.00683765
0.0063209
0.00649876
0.00522015
0.00448141
0.00352998
0.00243474
0.00175696
0.00142526
0.0013739
0.00140734
0.00139916
0.00135419
0.00133736
0.00140864
0.00153411
0.00162306
0.00166436
0.0017183
0.00180378
0.00202371
0.00245074
0.00269501
0.0109634
0.0829724
0.10861
0.107233
0.105554
0.10985
0.120677
0.140559
0.00798033
0.00684335
0.00341492
0.00502845
0.00758163
0.00694748
0.00695311
0.00550232
0.00468156
0.00363304
0.00253273
0.00179008
0.00143947
0.00135813
0.00136944
0.00136628
0.00133577
0.00132979
0.00141951
0.00157655
0.00167281
0.00169168
0.00172649
0.00182269
0.0020823
0.00250688
0.00278245
0.00997467
0.0811911
0.10846
0.10738
0.1059
0.110583
0.121599
0.141704
0.00778933
0.00576364
0.00367723
0.00567727
0.00853358
0.00777079
0.00758986
0.00593972
0.00501034
0.00386342
0.00274338
0.00192388
0.0015079
0.00135159
0.00133191
0.00133573
0.0013254
0.00133561
0.00143973
0.0016199
0.00173218
0.00175135
0.0017919
0.00192022
0.00224235
0.0026809
0.00301145
0.009439
0.0800679
0.108511
0.107709
0.106454
0.111537
0.122778
0.143114
0.00760307
0.00495434
0.00420371
0.0065136
0.00973861
0.00884033
0.00843828
0.00654964
0.00547303
0.00421468
0.00305663
0.002143
0.00161202
0.00134801
0.00129504
0.00130782
0.0013202
0.00135134
0.00147135
0.00166825
0.00179424
0.00182519
0.00189202
0.00207416
0.00247621
0.00293476
0.00333285
0.00931135
0.0797044
0.108771
0.108229
0.107228
0.112721
0.12423
0.144802
0.00742066
0.0044035
0.00504266
0.00758792
0.0112537
0.0102199
0.00953849
0.00736014
0.00608229
0.00468654
0.00346729
0.00243329
0.00174055
0.00134715
0.00126171
0.00128584
0.00132134
0.00137522
0.00151324
0.00172462
0.00186051
0.00190901
0.00201831
0.00227309
0.00276488
0.00324017
0.00371886
0.00957016
0.0801512
0.10925
0.108946
0.108232
0.114149
0.125971
0.146782
0.00724378
0.00407236
0.00627147
0.00895977
0.0131455
0.011983
0.0109388
0.00840891
0.00685883
0.00528839
0.00398108
0.00278832
0.00189109
0.00135224
0.00123441
0.00127256
0.00133201
0.00140837
0.00156426
0.00178958
0.00193396
0.00200519
0.00217058
0.00251238
0.00309522
0.00357822
0.00415974
0.0102134
0.0814068
0.109949
0.109864
0.109474
0.115829
0.128013
0.149064
0.00707145
0.00391342
0.00800447
0.0107018
0.0154907
0.0142081
0.0126921
0.009739
0.00782919
0.00603633
0.00461229
0.00321118
0.00207111
0.00137159
0.00121713
0.00127045
0.00135525
0.0014532
0.00162375
0.00186188
0.00201657
0.00211778
0.00235203
0.00279024
0.00345746
0.00393831
0.00465926
0.0112538
0.0834248
0.110871
0.110987
0.110964
0.117769
0.130371
0.151659
0.00690537
0.0038964
0.0103758
0.0129123
0.0183819
0.0169805
0.0148544
0.0113935
0.00902134
0.00694961
0.00538034
0.0037156
0.00229794
0.00141761
0.00121513
0.00128216
0.00139411
0.0015129
0.00169234
0.00193986
0.00210926
0.00225062
0.00256616
0.00310507
0.00384396
0.00431694
0.00523077
0.0127152
0.0861267
0.112012
0.112318
0.112707
0.119979
0.133057
0.154574
0.00674534
0.00400249
0.0135347
0.0157332
0.0219395
0.0203997
0.0174879
0.0134118
0.0104594
0.00804105
0.00629488
0.00431513
0.00259341
0.00150915
0.0012376
0.00131255
0.00145212
0.00159053
0.00177096
0.00202179
0.0022125
0.00240673
0.00281533
0.0034542
0.00424888
0.00471658
0.00589437
0.0146303
0.0894161
0.11337
0.113859
0.114711
0.122465
0.136081
0.157818
0.00659312
0.00423013
0.0176139
0.0193656
0.0263177
0.0245817
0.0206595
0.0158249
0.0121569
0.00931038
0.00734757
0.00501902
0.00297393
0.00166819
0.00129788
0.00136906
0.00153449
0.00169014
0.00186203
0.00210681
0.0023268
0.00258854
0.00310034
0.00383382
0.00466839
0.00514448
0.00667518
0.0170364
0.0931914
0.11494
0.115611
0.116982
0.125234
0.139455
0.161396
0.00644962
0.00460396
0.0227014
0.0240687
0.0316933
0.0296383
0.0244236
0.0186424
0.0141058
0.0107337
0.00850074
0.00580843
0.00343751
0.00191505
0.00141601
0.00146363
0.00164852
0.00181653
0.00196907
0.00219537
0.00245309
0.00279787
0.00342046
0.00423944
0.00510097
0.00561181
0.00760234
0.0199727
0.0973553
0.116715
0.117575
0.119526
0.128292
0.143188
0.165313
0.00631698
0.00517509
0.0288215
0.0301342
0.0382271
0.0356249
0.0287832
0.0218272
0.0162611
0.0122579
0.00969075
0.00663948
0.00395819
0.00225393
0.00161483
0.00161273
0.00180446
0.0019763
0.00209825
0.00229061
0.0025931
0.00303627
0.0037738
0.00466673
0.00554764
0.0061328
0.0087085
0.0234751
0.101821
0.118692
0.119751
0.122347
0.131644
0.147291
0.169571
0.00619775
0.00601838
0.0359587
0.0378419
0.0460066
0.0424722
0.0336401
0.0252668
0.0185253
0.0137939
0.0108293
0.00744509
0.00448996
0.00266704
0.00191256
0.00183697
0.00201498
0.00217686
0.00225713
0.00239892
0.00274981
0.00330496
0.00415783
0.00511227
0.00601188
0.00672427
0.0100295
0.0275728
0.106513
0.120863
0.122138
0.12545
0.135296
0.151771
0.174174
0.00609509
0.00721215
0.0441137
0.0474124
0.0549862
0.04993
0.0387566
0.0287553
0.020742
0.0152218
0.0118169
0.00814899
0.00497749
0.00311596
0.0023083
0.00215417
0.00229366
0.00242657
0.0024552
0.0025307
0.00292797
0.00360539
0.00457
0.00557414
0.00649942
0.00740512
0.0116042
0.0322842
0.111374
0.123223
0.124736
0.12884
0.13925
0.156636
0.179121
0.00601408
0.00882156
0.0533655
0.0589515
0.0649306
0.0575461
0.0437502
0.0319989
0.0227051
0.0163984
0.0125498
0.0086729
0.00536616
0.00355639
0.0027792
0.00257016
0.00264948
0.00273131
0.00270084
0.00269959
0.00313465
0.00393927
0.00500826
0.00605211
0.00701782
0.00819624
0.0134742
0.0376147
0.116355
0.125766
0.127544
0.132518
0.143511
0.161894
0.184411
0.00596079
0.0108845
0.0638631
0.0723399
0.0753524
0.0646808
0.0481235
0.0346452
0.0241816
0.0171764
0.0129352
0.0089495
0.00561038
0.0039458
0.00328561
0.0030695
0.00308029
0.00309181
0.00300022
0.00292174
0.00337966
0.00430923
0.0054716
0.00654765
0.00757611
0.00912019
0.0156833
0.0435555
0.121423
0.128484
0.130557
0.136487
0.148082
0.167552
0.190043
0.00594609
0.0134295
0.0757465
0.0870566
0.0854617
0.0705623
0.0513306
0.0363337
0.0249459
0.0174219
0.0128979
0.00892703
0.00567984
0.00425286
0.00378561
0.00361804
0.00356734
0.00349809
0.00335206
0.00321266
0.00367568
0.00471879
0.00596013
0.0070635
0.00818427
0.0102013
0.0182771
0.050084
0.126554
0.131371
0.133776
0.140749
0.152967
0.173617
0.196015
0.00598322
0.0164904
0.0889613
0.102011
0.0941868
0.0743967
0.0528702
0.0367579
0.024817
0.017038
0.0123959
0.00858104
0.00556545
0.00445886
0.00424208
0.00417149
0.00407802
0.00392972
0.00374643
0.00358406
0.00403779
0.00517273
0.00647516
0.0076032
0.00885292
0.0114653
0.0213019
0.0571652
0.13173
0.134418
0.137197
0.145308
0.158171
0.180099
0.202326
0.00609167
0.0201318
0.10307
0.11557
0.100336
0.0755351
0.0523965
0.0357328
0.0236985
0.0159849
0.0114288
0.00792027
0.00528356
0.0045623
0.00463038
0.00468839
0.00457298
0.00435726
0.00416218
0.00403778
0.00448174
0.00567648
0.00701865
0.00817037
0.00959289
0.0129396
0.0248039
0.0647553
0.136942
0.137618
0.14082
0.150167
0.163699
0.187009
0.208979
0.00628805
0.0244301
0.117139
0.125896
0.102891
0.0736489
0.0498118
0.0332464
0.021607
0.0142999
0.0100531
0.0069987
0.00487732
0.00457651
0.00493821
0.00513745
0.00501766
0.00475136
0.00457283
0.0045628
0.00502072
0.00623564
0.00759263
0.00876792
0.0104149
0.014653
0.028828
0.0728047
0.142185
0.140964
0.144647
0.155335
0.169564
0.194366
0.215977
0.00658505
0.0294743
0.129907
0.1315
0.101314
0.068841
0.0453088
0.0294815
0.0186902
0.0121098
0.00838793
0.00591758
0.00441095
0.00452815
0.00516653
0.00550135
0.00538768
0.00508773
0.00495092
0.00513334
0.0056599
0.00685374
0.00819801
0.00939729
0.0113291
0.0166353
0.0334171
0.0812626
0.147458
0.14445
0.148682
0.160825
0.17578
0.202194
0.223332
0.00697682
0.0352846
0.14009
0.131686
0.0957093
0.0616253
0.0393329
0.0247909
0.0152229
0.00963918
0.00662058
0.00482148
0.00395644
0.00444928
0.00532436
0.00577502
0.00567293
0.00535441
0.00527772
0.00571577
0.00639076
0.00753013
0.00883342
0.0100577
0.0123452
0.018918
0.0386114
0.0900818
0.152766
0.148076
0.152937
0.166656
0.18237
0.210525
0.231062
0.00744499
0.0417542
0.146673
0.126643
0.0867501
0.0527872
0.0324849
0.0196438
0.0115884
0.00719822
0.00498515
0.00386499
0.00357553
0.0043713
0.00542527
0.00596189
0.00587333
0.00554983
0.00554478
0.00627547
0.00718709
0.00825607
0.0094938
0.0107455
0.0134719
0.0215341
0.0444489
0.0992229
0.158118
0.151844
0.157427
0.172859
0.189364
0.219404
0.239193
0.00795396
0.0484107
0.148937
0.117183
0.0754387
0.0431883
0.0254007
0.0145557
0.00822921
0.00512467
0.00370027
0.00316031
0.00330596
0.00431647
0.00548099
0.00606921
0.00599708
0.00568362
0.00575802
0.00678853
0.0080073
0.00901289
0.0101697
0.0114545
0.0147173
0.0245192
0.0509669
0.10866
0.163529
0.155765
0.162178
0.179474
0.196803
0.228888
0.247763
0.00846726
0.0543392
0.1464
0.104381
0.0628349
0.0336066
0.01866
0.0100223
0.0055471
0.00365211
0.00286708
0.00273291
0.00315619
0.00429387
0.00549847
0.00610371
0.00605342
0.00576966
0.00593254
0.00724413
0.00880195
0.00977116
0.0108472
0.012176
0.0160893
0.0279132
0.0582045
0.118386
0.169023
0.15986
0.167222
0.186553
0.204736
0.239048
0.25682
0.00894498
0.0581225
0.138736
0.0893106
0.0498714
0.0246532
0.0127357
0.00644142
0.00374418
0.00279076
0.00243204
0.00253331
0.0031073
0.00429626
0.00547685
0.0060692
0.00605133
0.00582517
0.00609258
0.00764924
0.00952606
0.0104953
0.0115094
0.0129001
0.017596
0.0317626
0.0662063
0.128414
0.174633
0.164158
0.172603
0.194159
0.213222
0.249964
0.266422
0.0093615
0.0583226
0.125847
0.0729754
0.03731
0.0167781
0.00798099
0.00400923
0.0027232
0.00236627
0.0022535
0.00247429
0.00311993
0.00430356
0.00540867
0.005965
0.00599401
0.0058638
0.00626445
0.00802308
0.0101492
0.0111503
0.0121395
0.0136173
0.0192461
0.0361229
0.0750281
0.138787
0.1804
0.168698
0.178369
0.202366
0.22233
0.26173
0.276637
0.0096768
0.0537283
0.107915
0.0563423
0.0258099
0.0103319
0.00461119
0.00261508
0.00219741
0.00216207
0.00218028
0.00246596
0.00314976
0.00429041
0.00528308
0.00578754
0.00588094
0.00589626
0.00647743
0.00839803
0.0106641
0.0117116
0.0127239
0.0143199
0.0210496
0.0410624
0.0847415
0.149575
0.186377
0.173529
0.184576
0.211254
0.232131
0.274445
0.287537
0.00988074
0.0442818
0.0857218
0.040328
0.0159666
0.00557417
0.00259308
0.00188633
0.00188471
0.00199404
0.0020835
0.00242965
0.00315063
0.00422466
0.00508354
0.00552655
0.00570132
0.00592034
0.00675497
0.00881275
0.0110876
0.01217
0.0132557
0.0150031
0.0230166
0.0466636
0.0954386
0.160875
0.192627
0.178702
0.191281
0.220904
0.242702
0.28821
0.299197
4.88271e-24
3.15557e-19
1.14391e-18
4.3247e-18
2.50971e-17
3.16796e-14
9.07011e-11
0.0228843
0.115914
0.130587
0.140223
0.138171
0.13303
0.129481
0.112928
0.106704
0.0964091
0.0878467
0.0657992
0.0574524
0.030216
0.012145
4.9965e-24
7.3974e-20
8.36203e-20
6.25977e-18
6.26799e-17
2.47223e-13
9.29e-10
0.0431365
0.136458
0.139338
0.140885
0.137647
0.132143
0.129437
0.1129
0.106861
0.096881
0.0875794
0.0651363
0.0572342
0.0297791
0.0121954
5.10252e-24
2.76634e-19
8.77979e-19
8.90462e-18
1.22413e-16
9.31034e-13
9.35375e-09
0.0672714
0.15484
0.14654
0.141227
0.137209
0.131462
0.129571
0.113075
0.107176
0.0975235
0.0873888
0.0648061
0.0566513
0.0292414
0.0123548
5.06233e-24
5.72601e-20
2.1476e-20
6.84918e-18
1.92268e-16
2.27961e-12
1.69655e-07
0.0927399
0.170749
0.152423
0.141539
0.136934
0.131035
0.129918
0.113483
0.107634
0.0983074
0.0872811
0.0647972
0.0557347
0.0286372
0.0126128
5.16609e-24
2.21293e-19
6.32054e-19
7.22654e-18
2.87932e-16
3.60603e-12
6.53746e-06
0.115647
0.184168
0.157218
0.142023
0.13688
0.130906
0.130466
0.114105
0.108224
0.0992
0.0872576
0.065078
0.0545534
0.0280119
0.0129606
5.11434e-24
4.59231e-20
1.20653e-20
4.61327e-18
4.09375e-16
4.86459e-12
1.85749e-05
0.131738
0.1952
0.161176
0.142846
0.137111
0.131114
0.131255
0.114972
0.108939
0.100167
0.0873147
0.0656147
0.053164
0.0273757
0.0134154
5.22955e-24
1.78676e-19
4.73235e-19
4.63396e-18
5.79709e-16
5.05258e-12
3.43219e-05
0.138955
0.204029
0.164503
0.144101
0.137668
0.13169
0.132275
0.116068
0.10978
0.101178
0.0874493
0.0663559
0.0516468
0.0267542
0.0139907
5.17048e-24
3.80399e-20
7.87935e-21
2.77874e-18
7.71491e-16
4.36949e-12
2.56728e-05
0.137882
0.2108
0.16739
0.145863
0.138602
0.132657
0.133572
0.117428
0.110751
0.102206
0.0876525
0.0672562
0.0500563
0.0261452
0.0147044
5.2982e-24
1.46646e-19
3.69453e-19
2.85969e-18
9.84844e-16
2.87559e-12
2.72855e-05
0.13066
0.215629
0.169957
0.148151
0.139938
0.134034
0.135134
0.119038
0.111868
0.103237
0.0879175
0.0682595
0.0484643
0.0255679
0.01556
5.22377e-24
3.24409e-20
5.88672e-21
1.68618e-18
1.1469e-15
1.68659e-12
3.51437e-05
0.119299
0.218511
0.172293
0.15098
0.141713
0.135832
0.137005
0.120937
0.113147
0.104266
0.0882334
0.0693243
0.0469108
0.0250133
0.0165609
5.35794e-24
1.21921e-19
2.97313e-19
1.8412e-18
1.25099e-15
8.51161e-13
3.99795e-05
0.105087
0.219366
0.174407
0.154316
0.143938
0.138058
0.139169
0.123112
0.114615
0.105306
0.0885944
0.0704027
0.0454519
0.0244968
0.0176928
5.27137e-24
2.84271e-20
4.6913e-21
1.08016e-18
1.23788e-15
4.15964e-13
4.09625e-05
0.0892052
0.217972
0.176268
0.15813
0.146639
0.140718
0.141665
0.125601
0.116297
0.106379
0.0889933
0.0714676
0.0441105
0.0240052
0.01894
5.41235e-24
1.02856e-19
2.48085e-19
1.26218e-18
1.14713e-15
1.89078e-13
3.48129e-05
0.0726396
0.214043
0.177756
0.16234
0.149818