/*--------------------------------*- C++ -*----------------------------------*\
| =========                 |                                                 |
| \\      /  F ield         | OpenFOAM: The Open Source CFD Toolbox           |
|  \\    /   O peration     | Version:  v1912                                 |
|   \\  /    A nd           | Website:  www.openfoam.com                      |
|    \\/     M anipulation  |                                                 |
\*---------------------------------------------------------------------------*/
FoamFile
{
    version     2.0;
    format      ascii;
    class       volScalarField;
    location    "250";
    object      p;
}
// * * * * * * * * * * * * * * * * * * * * * * * * * * * * * * * * * * * * * //

dimensions      [0 2 -2 0 0 0 0];


internalField   nonuniform List<scalar> 
12441
(
8.50989
8.8015
9.63444
10.929
12.6112
14.7328
17.3825
20.6656
24.7748
29.8632
36.179
44.0146
53.7839
65.3617
81.2461
100.932
128.877
163.562
219.781
281.964
373.342
437.53
8.50988
8.80149
9.63443
10.9289
12.6112
14.7328
17.3825
20.6655
24.7747
29.863
36.1787
44.014
53.7829
65.36
81.243
100.926
128.862
163.538
219.699
281.888
373.292
437.331
8.50987
8.80147
9.63441
10.9289
12.6111
14.7327
17.3824
20.6653
24.7744
29.8625
36.1779
44.0128
53.7809
65.3566
81.237
100.912
128.837
163.482
219.529
281.706
373.158
436.971
8.50984
8.80144
9.63437
10.9289
12.6111
14.7326
17.3822
20.665
24.7739
29.8618
36.1768
44.011
53.778
65.3515
81.2279
100.892
128.805
163.396
219.35
281.427
372.913
436.412
8.50981
8.80141
9.63433
10.9288
12.6109
14.7324
17.3819
20.6646
24.7733
29.8608
36.1753
44.0086
53.7741
65.3446
81.2159
100.865
128.763
163.29
219.184
281.077
372.569
435.648
8.50978
8.80137
9.63427
10.9287
12.6108
14.7322
17.3816
20.6641
24.7726
29.8596
36.1735
44.0055
53.7692
65.3361
81.2009
100.832
128.711
163.165
218.997
280.654
372.131
434.682
8.50973
8.80131
9.6342
10.9286
12.6107
14.732
17.3813
20.6635
24.7717
29.8582
36.1713
44.0018
53.7634
65.3258
81.183
100.793
128.649
163.018
218.779
280.161
371.604
433.512
8.50968
8.80125
9.63412
10.9285
12.6105
14.7317
17.3808
20.6629
24.7707
29.8565
36.1687
43.9976
53.7565
65.3139
81.1622
100.748
128.582
162.851
218.541
279.61
370.992
432.136
8.50962
8.80118
9.63403
10.9283
12.6103
14.7314
17.3804
20.6621
24.7695
29.8546
36.1658
43.9927
53.7487
65.3003
81.1388
100.698
128.512
162.671
218.304
279.015
370.299
430.55
8.50955
8.8011
9.63393
10.9282
12.6101
14.731
17.3798
20.6612
24.7681
29.8524
36.1625
43.9872
53.7399
65.2852
81.1142
100.649
128.446
162.489
218.091
278.386
369.527
428.749
8.50947
8.80102
9.63381
10.928
12.6098
14.7307
17.3792
20.6602
24.7666
29.85
36.1588
43.9811
53.7302
65.2688
81.0895
100.603
128.396
162.32
217.931
277.733
368.673
426.724
8.50939
8.80092
9.63369
10.9278
12.6095
14.7302
17.3786
20.6591
24.765
29.8474
36.1547
43.9744
53.7195
65.2521
81.0678
100.57
128.389
162.197
217.851
277.06
367.732
424.468
8.5093
8.80082
9.63355
10.9276
12.6092
14.7297
17.3778
20.6579
24.7632
29.8445
36.1503
43.9671
53.7082
65.2371
81.0571
100.569
128.463
162.162
217.859
276.358
366.695
421.969
8.5092
8.80071
9.6334
10.9274
12.6089
14.7292
17.3771
20.6567
24.7613
29.8414
36.1455
43.9592
53.6968
65.2279
81.0701
100.622
128.654
162.247
217.926
275.61
365.552
419.215
8.50909
8.80058
9.63324
10.9272
12.6085
14.7287
17.3762
20.6553
24.7592
29.838
36.1403
43.9508
53.6868
65.2315
81.1205
100.747
128.978
162.454
217.992
274.787
364.295
416.194
8.50898
8.80045
9.63307
10.9269
12.6081
14.7281
17.3753
20.6538
24.7569
29.8344
36.1348
43.942
53.6807
65.2565
81.2189
100.949
129.416
162.735
217.988
273.866
362.913
412.891
8.50886
8.80032
9.63288
10.9266
12.6077
14.7275
17.3743
20.6522
24.7545
29.8306
36.1288
43.9335
53.6829
65.3091
81.3668
101.218
129.908
163.004
217.857
272.826
361.401
409.294
8.50873
8.80017
9.63269
10.9263
12.6073
14.7268
17.3733
20.6506
24.752
29.8265
36.1224
43.9261
53.6983
65.3921
81.5565
101.524
130.367
163.165
217.572
271.657
359.751
405.387
8.50859
8.80001
9.63248
10.926
12.6068
14.7261
17.3722
20.6488
24.7493
29.8221
36.1156
43.9217
53.7309
65.5006
81.7699
101.826
130.699
163.156
217.138
270.357
357.961
401.156
8.50845
8.79985
9.63226
10.9257
12.6063
14.7253
17.3711
20.6469
24.7465
29.8175
36.1085
43.9228
53.7809
65.6273
81.9844
102.075
130.834
162.965
216.576
268.929
356.028
396.586
8.50829
8.79967
9.63204
10.9254
12.6058
14.7246
17.3699
20.645
24.7435
29.8127
36.1013
43.9325
53.8459
65.759
82.1729
102.234
130.751
162.629
215.917
267.38
353.952
391.661
8.50813
8.79949
9.63179
10.925
12.6053
14.7237
17.3686
20.6429
24.7404
29.8075
36.0945
43.9526
53.9185
65.8859
82.3139
102.278
130.478
162.2
215.186
265.719
351.734
386.365
8.50797
8.7993
9.63154
10.9246
12.6047
14.7229
17.3673
20.6407
24.7371
29.8021
36.0889
43.9829
53.9939
65.9943
82.391
102.207
130.077
161.728
214.401
263.955
349.374
380.68
8.50779
8.7991
9.63128
10.9242
12.6041
14.722
17.3659
20.6385
24.7336
29.7964
36.0856
44.0207
54.0635
66.0782
82.4016
102.042
129.62
161.242
213.572
262.097
346.876
374.589
8.50761
8.79889
9.631
10.9238
12.6035
14.721
17.3645
20.6361
24.73
29.7905
36.0863
44.0626
54.1249
66.1292
82.3508
101.814
129.16
160.75
212.703
260.154
344.241
368.073
8.50742
8.79868
9.63072
10.9234
12.6029
14.72
17.363
20.6337
24.7262
29.7842
36.0918
44.1045
54.1718
66.1497
82.2537
101.552
128.726
160.252
211.796
258.135
341.474
361.111
8.50722
8.79845
9.63042
10.923
12.6022
14.719
17.3614
20.6311
24.7223
29.7779
36.1025
44.1434
54.2051
66.1386
82.1249
101.284
128.326
159.741
210.849
256.052
338.575
353.68
8.50702
8.79822
9.63011
10.9225
12.6015
14.7179
17.3598
20.6284
24.7182
29.7715
36.1176
44.1768
54.2211
66.1045
81.9802
101.022
127.954
159.212
209.863
253.91
335.548
345.756
8.50681
8.79798
9.62978
10.922
12.6008
14.7168
17.3581
20.6257
24.7139
29.7654
36.1355
44.2034
54.2236
66.05
81.8292
100.773
127.6
158.663
208.838
251.718
332.392
337.315
8.50659
8.79773
9.62945
10.9215
12.6001
14.7157
17.3564
20.6228
24.7095
29.7595
36.1542
44.2221
54.2106
65.9845
81.6798
100.537
127.256
158.094
207.771
249.48
329.105
328.327
8.50636
8.79747
9.62911
10.921
12.5993
14.7145
17.3546
20.6199
24.7049
29.7539
36.1724
44.2329
54.1875
65.9093
81.5337
100.313
126.915
157.503
206.664
247.197
325.682
318.763
8.50612
8.7972
9.62875
10.9205
12.5985
14.7133
17.3527
20.6168
24.7001
29.749
36.1891
44.2359
54.1533
65.8315
81.3932
100.095
126.572
156.893
205.517
244.87
322.117
308.589
8.50588
8.79692
9.62838
10.92
12.5977
14.712
17.3508
20.6136
24.6952
29.745
36.2033
44.2315
54.1134
65.75
81.2565
99.8821
126.224
156.265
204.33
242.5
318.401
297.772
8.50563
8.79664
9.628
10.9194
12.5968
14.7107
17.3488
20.6104
24.69
29.7421
36.2147
44.2205
54.0664
65.6696
81.1239
99.6709
125.871
155.619
203.104
240.084
314.523
286.274
8.50537
8.79634
9.62761
10.9188
12.596
14.7094
17.3467
20.607
24.6848
29.7405
36.2229
44.2039
54.0172
65.5877
80.9931
99.4597
125.512
154.957
201.838
237.624
310.47
274.056
8.50511
8.79604
9.62721
10.9182
12.5951
14.708
17.3446
20.6035
24.6793
29.7405
36.2281
44.1826
53.9639
65.508
80.8642
99.2473
125.145
154.279
200.534
235.12
306.232
261.077
8.50483
8.79573
9.6268
10.9176
12.5941
14.7066
17.3425
20.5999
24.6738
29.7427
36.2306
44.1574
53.9104
65.4273
80.7352
99.0328
124.772
153.588
199.192
232.575
301.797
247.293
8.50455
8.79541
9.62637
10.917
12.5932
14.7052
17.3403
20.5962
24.6684
29.7481
36.2307
44.1293
53.8545
65.3487
80.6068
98.8157
124.392
152.883
197.813
229.994
297.155
232.659
8.50426
8.79508
9.62593
10.9163
12.5922
14.7037
17.338
20.5924
24.6641
29.7573
36.2288
44.0991
53.7995
65.2691
80.4772
98.5958
124.005
152.165
196.4
227.381
292.298
217.124
8.50397
8.79474
9.62548
10.9157
12.5912
14.7021
17.3356
20.5885
24.663
29.7706
36.2254
44.0672
53.743
65.1916
80.3475
98.3731
123.613
151.436
194.955
224.743
287.221
200.637
8.50367
8.7944
9.62502
10.915
12.5902
14.7006
17.3332
20.5845
24.6682
29.7878
36.2206
44.0345
53.6878
65.1131
80.2162
98.1477
123.215
150.695
193.481
222.084
281.922
183.145
8.50336
8.79404
9.62455
10.9143
12.5892
14.699
17.3308
20.5805
24.6827
29.8085
36.2143
44.0012
53.6309
65.0369
80.0847
97.9198
122.812
149.942
191.983
219.406
276.399
164.6
8.50304
8.79368
9.62407
10.9136
12.5881
14.6973
17.3282
20.5774
24.7083
29.8319
36.2064
43.9679
53.5753
64.9597
79.9516
97.6896
122.405
149.178
190.464
216.705
270.628
144.915
8.50271
8.79331
9.62357
10.9128
12.587
14.6956
17.3256
20.5779
24.7444
29.8568
36.1969
43.9347
53.5177
64.8856
79.8189
97.458
121.993
148.399
188.932
213.97
264.527
123.35
-17.7925
-27.5387
-31.8479
-24.3772
-18.4486
-14.6737
-11.7643
-8.87341
-5.85719
-3.61604
-5.28136
-9.60095
-11.8013
-4.03055
9.26404
19.6102
21.9732
19.8424
17.0276
15.1396
12.7
10.96
9.20066
7.34337
5.51909
4.23308
0.489759
-1.17305
2.56411
9.22376
6.00863
4.27089
2.84975
1.55762
0.686408
-17.8108
-27.5401
-31.8715
-24.3745
-18.4434
-14.6702
-11.7642
-8.87439
-5.85851
-3.61636
-5.28275
-9.59509
-11.7942
-4.02393
9.27293
19.6248
21.99
19.8544
17.033
15.1424
12.7023
10.9621
9.20288
7.34574
5.52123
4.23983
0.487235
-1.18773
2.53273
9.22108
6.00903
4.27108
2.84978
1.55764
0.68641
-17.8406
-27.5587
-31.9162
-24.3709
-18.4369
-14.6653
-11.764
-8.87531
-5.85904
-3.61496
-5.28104
-9.59034
-11.7874
-4.01455
9.29114
19.6554
22.0269
19.8862
17.0525
15.1517
12.7075
10.9665
9.2071
7.34991
5.52486
4.24731
0.482135
-1.20032
2.50214
9.21878
6.00951
4.2713
2.84983
1.55767
0.686418
-17.8822
-27.6027
-31.9823
-24.3697
-18.43
-14.6597
-11.7634
-8.87607
-5.85908
-3.61295
-5.2794
-9.58751
-11.7818
-4.00527
9.3122
19.6928
22.0759
19.9336
17.0854
15.1678
12.7157
10.9731
9.21344
7.35613
5.53003
4.25519
0.47552
-1.19932
2.47514
9.21665
6.01006
4.27155
2.84989
1.55771
0.686432
-17.9352
-27.6763
-32.0669
-24.3721
-18.4218
-14.6529
-11.7618
-8.87637
-5.85822
-3.61022
-5.27876
-9.5865
-11.7796
-3.99939
9.32922
19.7249
22.1206
19.9808
17.1216
15.1867
12.7259
10.9815
9.22161
7.36428
5.53697
4.26363
0.471215
-1.18547
2.45364
9.2148
6.01069
4.27182
2.84996
1.55777
0.686451
-17.9984
-27.7836
-32.1664
-24.3778
-18.4115
-14.6447
-11.7589
-8.87611
-5.8562
-3.60681
-5.2788
-9.58722
-11.7808
-3.99674
9.34112
19.7479
22.1546
20.0197
17.1543
15.2057
12.7371
10.991
9.23105
7.37395
5.54562
4.27291
0.472306
-1.15944
2.43797
9.2132
6.01138
4.27211
2.85005
1.55784
0.686473
-18.0706
-27.9271
-32.2766
-24.3864
-18.3989
-14.6353
-11.7547
-8.87535
-5.85299
-3.60262
-5.2793
-9.58927
-11.7846
-3.99558
9.34964
19.7629
22.1775
20.0488
17.1817
15.2237
12.7488
11.0012
9.24118
7.38458
5.55562
4.28316
0.480513
-1.12126
2.42795
9.21188
6.01216
4.2724
2.85013
1.55792
0.686497
-18.1507
-28.1072
-32.393
-24.3985
-18.3851
-14.6252
-11.7496
-8.87433
-5.84885
-3.59792
-5.2803
-9.59263
-11.7901
-3.99431
9.35634
19.7717
22.1911
20.0687
17.2036
15.2402
12.7607
11.0115
9.25144
7.39551
5.56647
4.29434
0.496283
-1.07129
2.42353
9.21075
6.01299
4.27269
2.85022
1.558
0.686519
-18.2372
-28.3219
-32.5114
-24.4148
-18.3714
-14.6154
-11.7442
-8.87331
-5.84413
-3.59287
-5.28168
-9.59733
-11.7966
-3.99273
9.36165
19.7755
22.1968
20.0806
17.22
15.2551
12.7724
11.0216
9.26129
7.40611
5.57751
4.30616
0.519038
-1.01084
2.42467
9.20982
6.01389
4.27298
2.85029
1.55807
0.686539
-18.3288
-28.5665
-32.6277
-24.4356
-18.3589
-14.6067
-11.7391
-8.87264
-5.83937
-3.58792
-5.28366
-9.60318
-11.8038
-3.99129
9.36528
19.7751
22.196
20.0853
17.2307
15.2676
12.7833
11.031
9.27024
7.41571
5.588
4.31819
0.547278
-0.942269
2.43162
9.209
6.01484
4.27325
2.85035
1.55813
0.686554
-18.4241
-28.8338
-32.7388
-24.4602
-18.3488
-14.5999
-11.7351
-8.87261
-5.83499
-3.58336
-5.28594
-9.60998
-11.8111
-3.99099
9.36663
19.7712
22.1903
20.084
17.2359
15.2766
12.7926
11.0389
9.27775
7.42373
5.59721
4.32988
0.578787
-0.868912
2.44465
9.20831
6.01585
4.27351
2.85039
1.55818
0.686561
-18.5216
-29.1143
-32.8426
-24.4878
-18.3417
-14.5956
-11.7329
-8.87355
-5.83153
-3.57967
-5.28869
-9.61707
-11.818
-3.99231
9.36526
19.7644
22.1809
20.0781
17.2361
15.2815
12.7992
11.0449
9.28331
7.42969
5.6045
4.34067
0.611028
-0.794864
2.46442
9.20766
6.0169
4.27373
2.8504
1.55821
0.686559
-18.6198
-29.397
-32.9378
-24.517
-18.3382
-14.5942
-11.7328
-8.8757
-5.82926
-3.57707
-5.29164
-9.62395
-11.8243
-3.99528
9.36103
19.7547
22.1689
20.069
17.2324
15.2824
12.8027
11.0482
9.28656
7.43332
5.60949
4.35016
0.641799
-0.724583
2.49154
9.20709
6.018
4.27393
2.85039
1.55822
0.686547
-18.7171
-29.6699
-33.0236
-24.5459
-18.3386
-14.5959
-11.7353
-8.87934
-5.82843
-3.57588
-5.295
-9.63002
-11.8294
-3.99911
9.35423
19.7419
22.1545
20.0578
17.2261
15.2801
12.8031
11.049
9.28743
7.43465
5.61214
4.35815
0.669846
-0.662389
2.5268
9.20655
6.01913
4.27409
2.85033
1.55819
0.686521
-18.812
-29.9211
-33.0993
-24.5725
-18.3428
-14.6011
-11.7406
-8.88462
-5.82905
-3.57611
-5.29861
-9.6352
-11.833
-4.00295
9.34536
19.7258
22.1376
20.0448
17.2183
15.2757
12.8012
11.0474
9.28613
7.43399
5.61275
4.36476
0.695122
-0.611779
2.57049
9.20611
6.0203
4.27421
2.85024
1.55814
0.686482
-18.9026
-30.1398
-33.1644
-24.5949
-18.3509
-14.6102
-11.7489
-8.89172
-5.83123
-3.57789
-5.3028
-9.63942
-11.8348
-4.00579
9.33514
19.7063
22.1176
20.03
17.2093
15.2701
12.7977
11.044
9.28311
7.43175
5.61181
4.37031
0.718523
-0.574625
2.62229
9.20573
6.02149
4.27428
2.85011
1.55805
0.686428
-18.987
-30.3176
-33.2189
-24.6109
-18.3632
-14.6235
-11.7604
-8.90076
-5.83489
-3.58102
-5.30751
-9.64313
-11.8349
-4.0071
9.32415
19.6834
22.0942
20.013
17.1992
15.2637
12.7933
11.0394
9.2788
7.42838
5.60984
4.37526
0.741293
-0.550591
2.68069
9.20553
6.0227
4.27431
2.84993
1.55793
0.686358
-19.0632
-30.4509
-33.2633
-24.619
-18.3807
-14.6414
-11.7754
-8.91205
-5.84011
-3.58552
-5.31318
-9.64665
-11.8333
-4.00635
9.31283
19.6573
22.0671
19.9936
17.188
15.2566
12.7885
11.0341
9.27356
7.42422
5.60724
4.37999
0.764419
-0.537393
2.74345
9.20546
6.02392
4.27427
2.84971
1.55777
0.686271
-19.1289
-30.5405
-33.2996
-24.6196
-18.4037
-14.6642
-11.7944
-8.92595
-5.8468
-3.59105
-5.31973
-9.65075
-11.8303
-4.00354
9.30134
19.6279
22.0364
19.9716
17.1754
15.2489
12.7833
11.0282
9.26765
7.41951
5.60427
4.3848
0.788379
-0.531885
2.80778
9.20561
6.02516
4.27419
2.84943
1.55756
0.686169
-19.1822
-30.591
-33.3305
-24.6144
-18.4319
-14.6925
-11.8181
-8.94316
-5.85526
-3.59769
-5.32764
-9.65582
-11.8263
-3.99852
9.28972
19.5952
22.0019
19.9468
17.1613
15.2404
12.7777
11.0219
9.2612
7.41441
5.6011
4.38982
0.8132
-0.531221
2.87139
9.2059
6.02638
4.27405
2.84911
1.55732
0.686049
-19.2217
-30.6083
-33.3582
-24.6057
-18.4646
-14.727
-11.8475
-8.96447
-5.86569
-3.60513
-5.33677
-9.66274
-11.8218
-3.99174
9.27772
19.5589
21.9636
19.9194
17.1458
15.2312
12.7718
11.0151
9.25428
7.40901
5.59781
4.39514
0.838723
-0.533398
2.93255
9.2064
6.02761
4.27385
2.84874
1.55704
0.685914
-19.2488
-30.5985
-33.3813
-24.5954
-18.5013
-14.7683
-11.8838
-8.99101
-5.87872
-3.61356
-5.34771
-9.672
-11.8173
-3.98358
9.26497
19.5189
21.9212
19.8892
17.1287
15.2212
12.7655
11.0079
9.24692
7.40339
5.59448
4.40076
0.864746
-0.537209
2.99062
9.20699
6.02881
4.27357
2.84832
1.55671
0.685761
-19.2664
-30.5651
-33.3957
-24.5846
-18.5416
-14.8173
-11.9281
-9.02387
-5.89469
-3.62262
-5.36019
-9.6848
-11.8144
-3.97535
9.25065
19.4747
21.8747
19.8563
17.1103
15.2104
12.7588
11.0003
9.23915
7.3976
5.59113
4.40671
0.891121
-0.541925
3.04553
9.20774
6.03001
4.27324
2.84784
1.55634
0.685592
-19.275
-30.5096
-33.3963
-24.5739
-18.5852
-14.8751
-11.982
-9.06446
-5.91436
-3.63252
-5.37481
-9.70184
-11.8143
-3.96844
9.23377
19.4259
21.8239
19.8205
17.0904
15.199
12.7517
10.9921
9.23098
7.39168
5.5878
4.413
0.9177
-0.547047
3.09796
9.20853
6.03117
4.27283
2.84732
1.55593
0.685407
-19.2739
-30.4342
-33.3731
-24.5628
-18.632
-14.9433
-12.0473
-9.11385
-5.93784
-3.64247
-5.39078
-9.72447
-11.8189
-3.9651
9.21286
19.3719
21.7688
19.782
17.0691
15.1868
12.7443
10.9835
9.22245
7.38566
5.58453
4.41963
0.944364
-0.552139
3.14859
9.20947
6.03231
4.27234
2.84674
1.55547
0.685208
-19.2621
-30.3425
-33.3111
-24.5498
-18.6823
-15.0233
-12.1258
-9.1733
-5.96554
-3.65234
-5.4082
-9.75281
-11.8291
-3.96685
9.18648
19.3122
21.7093
19.7408
17.0464
15.1741
12.7365
10.9743
9.21358
7.37957
5.58136
4.4266
0.970947
-0.556831
3.19843
9.21043
6.03341
4.27178
2.84611
1.55498
0.684992
-19.2394
-30.2388
-33.1939
-24.5322
-18.7365
-15.1168
-12.2187
-9.24296
-5.99657
-3.66057
-5.42538
-9.78726
-11.8457
-3.97507
9.15319
19.2464
21.6456
19.6971
17.0224
15.1608
12.7284
10.9647
9.20439
7.37345
5.57833
4.4339
0.997299
-0.560782
3.24815
9.21158
6.03449
4.27113
2.84544
1.55444
0.684764
-19.2054
-30.129
-33.0108
-24.5059
-18.7955
-15.2246
-12.3265
-9.32227
-6.03
-3.66637
-5.44184
-9.82637
-11.8672
-3.98913
9.11257
19.1741
21.5776
19.6509
16.997
15.1468
12.7199
10.9546
9.19491
7.36733
5.5755
4.44149
1.02321
-0.563743
3.29863
9.21282
6.03553
4.2704
2.84471
1.55386
0.684521
-19.1608
-30.0203
-32.7629
-24.4668
-18.8601
-15.3461
-12.4471
-9.40831
-6.06291
-3.66719
-5.45527
-9.869
-11.8922
-4.00789
9.06506
19.0953
21.5058
19.6025
16.9702
15.132
12.711
10.9439
9.18516
7.36124
5.57294
4.44937
1.04849
-0.56549
3.35031
9.21432
6.03655
4.26958
2.84393
1.55324
0.684267
-19.1077
-29.9205
-32.463
-24.4114
-18.9318
-15.4793
-12.5762
-9.49686
-6.09237
-3.66171
-5.46514
-9.91209
-11.9173
-4.02847
9.01263
19.0109
21.4305
19.5521
16.942
15.1161
12.7014
10.9327
9.17514
7.35522
5.57071
4.45748
1.07288
-0.565899
3.40386
9.216
6.03752
4.26867
2.8431
1.55259
0.684
-19.0498
-29.8376
-32.129
-24.3385
-19.0122
-15.6197
-12.7067
-9.58116
-6.11358
-3.64712
-5.46931
-9.9532
-11.9397
-4.04868
8.95754
18.9222
21.3523
19.4999
16.9122
15.0989
12.691
10.9209
9.16486
7.3493
5.56887
4.46581
1.09616
-0.564842
3.45952
9.21804
6.03848
4.26767
2.84222
1.55189
0.683724
-18.9921
-29.7796
-31.779
-24.2514
-19.1031
-15.761
-12.8298
-9.65418
-6.12273
-3.62269
-5.4678
-9.98819
-11.9555
-4.06523
8.90255
18.8309
21.2719
19.4462
16.8809
15.08
12.6795
10.9083
9.15432
7.34352
5.5675
4.47432
1.11797
-0.562281
3.51781
9.22035
6.0394
4.26656
2.8413
1.55116
0.683436
-18.9399
-29.7558
-31.4293
-24.1603
-19.2059
-15.8952
-12.9354
-9.70799
-6.11531
-3.58691
-5.45919
-10.0142
-11.9625
-4.07653
8.84943
18.7388
21.1904
19.3915
16.8483
15.0592
12.6666
10.8948
9.14352
7.33794
5.56667
4.483
1.13803
-0.558141
3.5788
9.22313
6.04031
4.26536
2.84033
1.55039
0.68314
-18.8978
-29.7784
-31.0961
-24.082
-19.3211
-16.0139
-13.0149
-9.73684
-6.08936
-3.54118
-5.44427
-10.0278
-11.9582
-4.08024
8.79972
18.6472
21.1084
19.336
16.8145
15.0363
12.6519
10.8804
9.13246
7.33261
5.56645
4.49182
1.15592
-0.55244
3.64292
9.22628
6.04118
4.26405
2.8393
1.54959
0.682834
-18.8693
-29.8637
-30.7969
-24.0377
-19.4478
-16.11
-13.0621
-9.73671
-6.04386
-3.48687
-5.42293
-10.0284
-11.9427
-4.0763
8.7536
18.5565
21.0267
19.2803
16.78
15.0114
12.6352
10.8649
9.12115
7.32756
5.56693
4.50078
1.17126
-0.54512
3.71014
9.23
6.04206
4.26264
2.83823
1.54875
0.682521
-18.8555
-30.0328
-30.5475
-24.0462
-19.5836
-16.1795
-13.0752
-9.70774
-5.98155
-3.4282
-5.39767
-10.0166
-11.9158
-4.06395
8.71122
18.467
20.9451
19.2244
16.7449
14.9847
12.6164
10.8481
9.10959
7.32287
5.56819
4.50987
1.18352
-0.536229
3.78086
9.23418
6.0429
4.26111
2.83711
1.54787
0.682199
-18.8545
-30.3098
-30.3578
-24.1189
-19.7247
-16.2216
-13.0562
-9.65298
-5.90691
-3.36956
-5.37144
-9.99683
-11.8795
-4.04458
8.67164
18.3782
20.8637
19.1684
16.7096
14.9564
12.5954
10.8302
9.09782
7.31859
5.57032
4.5191
1.19224
-0.525719
3.85495
9.23902
6.04374
4.25947
2.83594
1.54695
0.681869
-18.8617
-30.716
-30.2294
-24.2568
-19.8666
-16.2392
-13.011
-9.57917
-5.82754
-3.31767
-5.34976
-9.97317
-11.8345
-4.01837
8.63437
18.2893
20.7817
19.112
16.6741
14.9268
12.5724
10.811
9.08589
7.3148
5.57342
4.52845
1.19674
-0.513645
3.93283
9.24439
6.04455
4.25769
2.8347
1.54599
0.681529
-18.8709
-31.258
-30.1563
-24.4519
-20.0046
-16.2369
-12.9471
-9.49467
-5.75218
-3.27925
-5.33753
-9.94983
-11.7824
-3.98718
8.59793
18.1994
20.6986
19.0549
16.6385
14.8965
12.5476
10.7906
9.07386
7.31152
5.57757
4.53788
1.19647
-0.499846
4.01445
9.25051
6.04536
4.25578
2.83341
1.54498
0.681181
-18.8753
-31.9085
-30.1278
-24.6912
-20.1347
-16.2199
-12.8726
-9.40937
-5.69101
-3.26055
-5.338
-9.92754
-11.723
-3.95164
8.56105
18.1072
20.6134
18.9968
16.6029
14.8658
12.5214
10.7694
9.06173
7.30875
5.58281
4.54731
1.19071
-0.484117
4.10026
9.25722
6.04612
4.2537
2.83204
1.54391
0.680819
-18.8667
-32.5843
-30.1304
-24.959
-20.2527
-16.1924
-12.7944
-9.33356
-5.65194
-3.2633
-5.35003
-9.90564
-11.6576
-3.91487
8.52088
18.0113
20.5262
18.9384
16.5678
14.8351
12.4941
10.7471
9.04941
7.30639
5.58916
4.55678
1.17934
-0.466319
4.18952
9.26465
6.04687
4.25147
2.83061
1.5428
0.680447
-18.8325
-33.1323
-30.1483
-25.2377
-20.3543
-16.1572
-12.7193
-9.27734
-5.6369
-3.284
-5.36953
-9.88172
-11.5879
-3.88032
8.47496
17.9116
20.4379
18.8809
16.5336
14.8043
12.4656
10.7237
9.03663
7.30435
5.59684
4.56701
1.16236
-0.44819
4.28031
9.27225
6.04756
4.24907
2.82909
1.5416
0.680055
-18.77
-33.3455
-30.1644
-25.5102
-20.4344
-16.1155
-12.6555
-9.24524
-5.63937
-3.31438
-5.39036
-9.85584
-11.5211
-3.85511
8.42169
17.8113
20.3526
18.8263
16.5004
14.7723
12.4345
10.6985
9.02328
7.30289
5.60668
4.57934
1.13925
-0.432721
4.37043
9.28035
6.04824
4.24653
2.82749
1.54033
0.679643
-18.7737
-33.0535
-30.1697
-25.7691
-20.494
-16.071
-12.6112
-9.23263
-5.65094
-3.3483
-5.41065
-9.83184
-11.4644
-3.84042
8.36671
17.7173
20.2742
18.7752
16.4654
14.7348
12.3978
10.6708
9.01037
7.30373
5.62032
4.59115
1.10016
-0.412032
4.47958
9.29254
6.04884
4.2435
2.82573
1.53897
0.679224
8.50245
8.79301
9.62318
10.9123
12.5861
14.6943
17.3235
20.5883
24.7788
29.8757
36.1877
43.9083
53.4738
64.8296
79.7168
97.2781
121.671
147.779
187.738
211.805
259.487
101.678
8.50226
8.79279
9.62289
10.9118
12.5855
14.6933
17.322
20.6055
24.8041
29.887
36.1791
43.8883
53.4397
64.7942
79.6459
97.1487
121.438
147.324
186.871
210.23
255.637
98.7658
8.50206
8.79256
9.62258
10.9114
12.5848
14.6922
17.3203
20.627
24.8255
29.8946
36.169
43.8677
53.4075
64.7562
79.5729
97.0154
121.195
146.85
185.982
208.595
251.629
100.458
8.50185
8.79232
9.62226
10.9109
12.5841
14.6911
17.3186
20.6488
24.8429
29.8991
36.1581
43.8469
53.3732
64.7194
79.4991
96.8774
120.943
146.357
185.068
206.893
247.508
100.36
8.50162
8.79207
9.62192
10.9104
12.5833
14.6899
17.3168
20.6678
24.8566
29.9011
36.1473
43.8262
53.3412
64.679
79.4221
96.7338
120.679
145.843
184.124
205.123
243.264
98.5769
8.50139
8.7918
9.62156
10.9099
12.5825
14.6887
17.3149
20.6807
24.8669
29.9012
36.1367
43.8056
53.3076
64.6397
79.3439
96.5842
120.402
145.306
183.146
203.286
238.892
96.5387
8.50114
8.79151
9.62118
10.9093
12.5817
14.6874
17.3129
20.6852
24.874
29.8998
36.1268
43.7855
53.2762
64.5971
79.2621
96.428
120.11
144.747
182.126
201.385
234.397
94.6407
8.50088
8.79121
9.62078
10.9087
12.5808
14.686
17.3108
20.6817
24.8782
29.897
36.1174
43.7656
53.2434
64.5555
79.1787
96.2649
119.802
144.163
181.06
199.42
229.784
92.7205
8.5006
8.7909
9.62036
10.9081
12.5798
14.6845
17.3085
20.6721
24.8794
29.8932
36.1089
43.7463
53.2128
64.5105
79.0915
96.0944
119.476
143.553
179.941
197.39
225.057
90.68
8.50031
8.79056
9.61991
10.9075
12.5789
14.683
17.3062
20.6582
24.8777
29.8884
36.1009
43.7274
53.1807
64.4664
79.0022
95.9165
119.132
142.916
178.763
195.297
220.221
88.5434
8.5
8.79021
9.61944
10.9068
12.5778
14.6814
17.3037
20.6413
24.873
29.8828
36.0936
43.709
53.1506
64.4189
78.9087
95.7307
118.768
142.25
177.522
193.139
215.28
86.3458
8.49967
8.78984
9.61894
10.906
12.5767
14.6796
17.3011
20.6224
24.8649
29.8761
36.0866
43.691
53.1188
64.3719
78.8126
95.5368
118.385
141.554
176.212
190.915
210.24
84.0981
8.49933
8.78944
9.61842
10.9053
12.5755
14.6778
17.2983
20.6024
24.853
29.8682
36.0799
43.6734
53.0886
64.3212
78.7116
95.3344
117.98
140.825
174.83
188.624
205.105
81.8043
8.49897
8.78903
9.61786
10.9045
12.5743
14.6758
17.2953
20.5824
24.8368
29.8586
36.0729
43.656
53.0566
64.2706
78.6076
95.1232
117.556
140.063
173.372
186.264
199.881
79.4734
8.49858
8.78858
9.61727
10.9036
12.573
14.6738
17.2921
20.5633
24.8158
29.8469
36.0654
43.639
53.0259
64.2161
78.4979
94.9027
117.109
139.266
171.836
183.834
194.571
77.1175
8.49817
8.78812
9.61665
10.9027
12.5716
14.6716
17.2888
20.546
24.7897
29.8324
36.0567
43.6219
52.9931
64.161
78.3844
94.6725
116.642
138.432
170.219
181.333
189.182
74.7499
8.49774
8.78762
9.61599
10.9017
12.5702
14.6693
17.2852
20.5309
24.7583
29.8142
36.0462
43.6047
52.9613
64.1015
78.2645
94.4319
116.151
137.559
168.52
178.759
183.717
72.3845
8.49728
8.7871
9.61529
10.9007
12.5686
14.6668
17.2815
20.5181
24.7222
29.7915
36.0328
43.5871
52.9273
64.0409
78.1397
94.1802
115.637
136.648
166.738
176.111
178.181
70.0354
8.4968
8.78655
9.61455
10.8996
12.567
14.6642
17.2775
20.5074
24.6823
29.7633
36.0153
43.5684
52.8941
63.9752
78.0076
93.9166
115.098
135.695
164.872
173.386
172.577
67.7153
8.49629
8.78596
9.61376
10.8985
12.5652
14.6614
17.2733
20.4983
24.6403
29.7286
35.9921
43.548
52.8582
63.9078
77.8694
93.6404
114.534
134.699
162.921
170.584
166.91
65.4346
8.49574
8.78534
9.61293
10.8972
12.5634
14.6585
17.2688
20.4902
24.5983
29.6871
35.9614
43.5247
52.8226
63.8347
77.7226
93.3506
113.942
133.66
160.885
167.704
161.184
63.2002
8.49516
8.78468
9.61205
10.8959
12.5614
14.6554
17.264
20.4824
24.5584
29.6391
35.921
43.4965
52.7836
63.7593
77.5686
93.0464
113.321
132.574
158.763
164.743
155.404
61.0151
8.49455
8.78398
9.61111
10.8946
12.5594
14.6521
17.2589
20.4746
24.5222
29.5856
35.8688
43.461
52.7434
63.6775
77.4045
92.7268
112.67
131.44
156.555
161.7
149.578
58.8771
8.4939
8.78323
9.61011
10.8931
12.5572
14.6486
17.2535
20.4666
24.4907
29.5286
35.8034
43.4145
52.6971
63.5925
77.2319
92.3908
111.987
130.256
154.26
158.574
143.711
56.7791
8.49321
8.78244
9.60906
10.8916
12.5548
14.6449
17.2477
20.458
24.4637
29.4707
35.7248
43.3525
52.6451
63.5001
77.0478
92.0374
111.27
129.021
151.877
155.363
137.812
54.7092
8.49247
8.7816
9.60793
10.8899
12.5523
14.6409
17.2416
20.4489
24.4404
29.4143
35.6347
43.2701
52.5798
63.4025
76.8536
91.6656
110.518
127.732
149.406
152.066
131.89
52.6506
8.49169
8.78071
9.60674
10.8882
12.5497
14.6367
17.2351
20.4392
24.4195
29.3615
35.5368
43.1634
52.4972
63.294
76.6462
91.2743
109.73
126.387
146.847
148.68
125.957
50.5832
8.49086
8.77976
9.60547
10.8863
12.5469
14.6323
17.2282
20.4289
24.3999
29.3131
35.4359
43.0311
52.3854
63.1735
76.426
90.8625
108.903
124.984
144.198
145.204
120.025
48.4846
8.48998
8.77876
9.60412
10.8843
12.5439
14.6276
17.2209
20.4178
24.3806
29.269
35.337
42.8765
52.2366
63.0305
76.1883
90.4289
108.038
123.522
141.461
141.637
114.105
46.331
8.48904
8.77768
9.60268
10.8822
12.5407
14.6226
17.2131
20.406
24.3609
29.2284
35.2436
42.7071
52.0408
62.8567
75.9301
89.9717
107.132
121.998
138.635
137.977
108.213
44.099
8.48804
8.77654
9.60115
10.88
12.5373
14.6172
17.2048
20.3934
24.3405
29.1898
35.1574
42.5329
51.7988
62.6344
75.641
89.4878
106.185
120.411
135.72
134.224
102.362
41.7667
8.48698
8.77533
9.59952
10.8776
12.5338
14.6116
17.196
20.3799
24.3189
29.1519
35.0783
42.3634
51.5179
62.3514
75.3088
88.9722
105.195
118.76
132.718
130.377
96.5671
39.3153
8.48585
8.77404
9.59779
10.8751
12.5299
14.6055
17.1866
20.3656
24.2961
29.1135
35.0045
42.2046
51.2161
61.9974
74.913
88.4158
104.16
117.043
129.629
126.436
90.8425
36.7295
8.48464
8.77266
9.59594
10.8724
12.5258
14.5991
17.1766
20.3504
24.2717
29.0737
34.9335
42.0585
50.9124
61.579
74.4348
87.8049
103.075
115.258
126.455
122.404
85.2025
33.9993
8.48335
8.77119
9.59397
10.8695
12.5215
14.5923
17.166
20.3342
24.2458
29.0321
34.8629
41.9231
50.623
61.1147
73.8592
87.1206
101.933
113.405
123.198
118.281
79.6609
31.1201
8.48198
8.76963
9.59187
10.8664
12.5169
14.585
17.1547
20.3169
24.2183
28.988
34.7906
41.7942
50.355
60.634
73.19
86.3426
100.722
111.481
119.861
114.072
74.2309
28.0933
8.48051
8.76796
9.58963
10.8632
12.5119
14.5773
17.1427
20.2985
24.1889
28.9413
34.7152
41.6672
50.1075
60.1626
72.4493
85.4562
99.4282
109.484
116.449
109.783
68.9251
24.9264
8.47895
8.76618
9.58724
10.8597
12.5067
14.5691
17.1299
20.2789
24.1577
28.8916
34.6359
41.538
49.8734
59.7165
71.6754
84.4615
98.0361
107.413
112.968
105.419
63.7553
21.6332
8.47728
8.76428
9.58469
10.8559
12.5011
14.5603
17.1163
20.258
24.1245
28.8388
34.5519
41.4036
49.6441
59.2972
70.9053
83.3782
96.5361
105.268
109.429
100.992
58.7336
18.2328
8.4755
8.76225
9.58196
10.852
12.4951
14.5509
17.1017
20.2357
24.0891
28.7827
34.4628
41.2622
49.4114
58.8958
70.1631
82.2414
94.9301
103.049
105.849
96.5139
53.8723
14.7495
8.47359
8.76009
9.57906
10.8477
12.4887
14.541
17.0863
20.2119
24.0514
28.723
34.3682
41.1127
49.1698
58.4988
69.4521
81.0883
93.2341
100.764
102.252
92.0055
49.1853
11.2118
8.47156
8.75778
9.57595
10.8432
12.4818
14.5303
17.0698
20.1865
24.0112
28.6595
34.2677
40.9543
48.9158
58.0938
68.7598
79.9438
91.4753
98.4209
98.6659
87.4923
44.6886
7.65209
8.46939
8.75531
9.57263
10.8383
12.4745
14.519
17.0522
20.1595
23.9685
28.5919
34.1608
40.7864
48.6477
57.6717
68.0664
78.8132
89.6812
96.0322
95.1248
83.008
40.4007
4.10612
8.46707
8.75267
9.56909
10.8332
12.4667
14.5069
17.0334
20.1306
23.9229
28.52
34.0473
40.6082
48.3643
57.2276
67.3534
77.6845
87.8704
93.6041
91.6568
78.593
36.3429
0.612546
8.46458
8.74985
9.5653
10.8276
12.4584
14.4939
17.0134
20.0999
23.8743
28.4434
33.9266
40.419
48.0646
56.7592
66.6081
76.5372
86.0479
91.1343
88.2748
74.2899
32.5372
-2.78766
8.46192
8.74683
9.56124
10.8217
12.4495
14.4802
16.992
20.067
23.8226
28.362
33.7984
40.2183
47.7474
56.2653
65.8246
75.351
84.2054
88.6137
84.9661
70.1349
29.0039
-6.05233
8.45908
8.74361
9.55691
10.8154
12.44
14.4654
16.9692
20.032
23.7675
28.2753
33.6621
40.0053
47.4119
55.7445
65.0011
74.1124
82.3252
86.0348
81.6905
66.1464
25.7572
-9.13993
8.45604
8.74015
9.55227
10.8086
12.4298
14.4497
16.9449
19.9946
23.7087
28.183
33.5173
39.7794
47.057
55.1954
64.1375
72.816
80.3883
83.3945
78.3962
62.3121
22.7978
-12.0123
8.45278
8.73646
9.5473
10.8014
12.4189
14.4329
16.919
19.9546
23.6461
28.0847
33.3634
39.5398
46.6818
54.6166
63.2332
71.4619
78.3823
80.6904
75.0441
58.5881
20.1062
-14.6386
8.44929
8.73251
9.54199
10.7936
12.4073
14.415
16.8912
19.912
23.5793
27.9802