/*--------------------------------*- C++ -*----------------------------------*\
| =========                 |                                                 |
| \\      /  F ield         | OpenFOAM: The Open Source CFD Toolbox           |
|  \\    /   O peration     | Version:  v1912                                 |
|   \\  /    A nd           | Website:  www.openfoam.com                      |
|    \\/     M anipulation  |                                                 |
\*---------------------------------------------------------------------------*/
FoamFile
{
    version     2.0;
    format      ascii;
    class       volVectorField;
    location    "250";
    object      U;
}
// * * * * * * * * * * * * * * * * * * * * * * * * * * * * * * * * * * * * * //

dimensions      [0 1 -1 0 0 0 0];


internalField   nonuniform List<vector> 
12441
(
(29.9989 1.64614e-05 0)
(29.9859 4.99844e-05 0)
(29.9576 8.6917e-05 0)
(29.9145 0.000133829 0)
(29.858 0.000195685 0)
(29.7858 0.000278804 0)
(29.6957 0.000390145 0)
(29.5832 0.000552429 0)
(29.4418 0.000772721 0)
(29.2652 0.0010892 0)
(29.0434 0.00151076 0)
(28.7788 0.00218162 0)
(28.4059 0.00300205 0)
(28.0063 0.00435196 0)
(27.4315 0.00624251 0)
(26.6381 0.0112019 0)
(25.608 0.0147573 0)
(23.9822 0.0307194 0)
(21.6896 0.0519538 0)
(18.0565 0.0907377 0)
(12.2797 0.123021 0)
(5.9076 0.199454 0)
(29.9989 4.89143e-05 0)
(29.9858 0.000149281 0)
(29.9576 0.000259006 0)
(29.9145 0.00039915 0)
(29.8581 0.000583873 0)
(29.7859 0.000831658 0)
(29.6957 0.00116627 0)
(29.5834 0.00164953 0)
(29.4421 0.0023121 0)
(29.2652 0.00325774 0)
(29.0427 0.00451716 0)
(28.7796 0.00656752 0)
(28.407 0.00895331 0)
(28.0043 0.0131142 0)
(27.4253 0.0187778 0)
(26.6359 0.0334154 0)
(25.6075 0.0469819 0)
(23.9808 0.088026 0)
(21.6889 0.135607 0)
(18.0545 0.262551 0)
(12.2801 0.36145 0)
(5.91063 0.595567 0)
(29.9989 8.12385e-05 0)
(29.9858 0.000248544 0)
(29.9576 0.000430478 0)
(29.9145 0.000663354 0)
(29.8581 0.000970366 0)
(29.7859 0.00138354 0)
(29.6957 0.00194103 0)
(29.5834 0.00274501 0)
(29.4421 0.00384861 0)
(29.2653 0.00542516 0)
(29.0426 0.0075278 0)
(28.7804 0.0109303 0)
(28.4036 0.0148972 0)
(28.0099 0.021913 0)
(27.4317 0.0313339 0)
(26.6399 0.0547517 0)
(25.6102 0.0799279 0)
(23.9855 0.143523 0)
(21.6918 0.216736 0)
(18.0534 0.432044 0)
(12.2851 0.596429 0)
(5.91805 0.989652 0)
(29.9989 0.000113972 0)
(29.9858 0.000348516 0)
(29.9576 0.000602794 0)
(29.9145 0.00092879 0)
(29.8581 0.00135851 0)
(29.7859 0.00193741 0)
(29.6957 0.0027185 0)
(29.5834 0.00384356 0)
(29.4421 0.00538923 0)
(29.2653 0.0075974 0)
(29.0429 0.0105443 0)
(28.7799 0.0153055 0)
(28.4075 0.0208653 0)
(28.0035 0.0307166 0)
(27.4257 0.0438987 0)
(26.6373 0.0761663 0)
(25.6106 0.112134 0)
(23.9896 0.202039 0)
(21.6998 0.322608 0)
(18.0573 0.609546 0)
(12.2966 0.835381 0)
(5.93032 1.38539 0)
(29.9989 0.000146765 0)
(29.9858 0.000448372 0)
(29.9576 0.000774917 0)
(29.9145 0.001194 0)
(29.8581 0.00174632 0)
(29.7859 0.0024908 0)
(29.6957 0.00349532 0)
(29.5834 0.0049413 0)
(29.4421 0.00692892 0)
(29.2654 0.0097687 0)
(29.0428 0.0135587 0)
(28.7804 0.0196795 0)
(28.4031 0.0268462 0)
(28.0094 0.0395059 0)
(27.4322 0.0565016 0)
(26.6404 0.0973486 0)
(25.6139 0.143828 0)
(23.9943 0.2613 0)
(21.7106 0.411256 0)
(18.0672 0.783235 0)
(12.316 1.07409 0)
(5.94769 1.78242 0)
(29.9989 0.000179555 0)
(29.9858 0.000548157 0)
(29.9576 0.00094701 0)
(29.9145 0.00145921 0)
(29.8581 0.00213409 0)
(29.7859 0.00304423 0)
(29.6958 0.00427226 0)
(29.5835 0.00603929 0)
(29.4422 0.00846897 0)
(29.2654 0.0119399 0)
(29.0431 0.0165738 0)
(28.7799 0.0240513 0)
(28.4089 0.032838 0)
(28.0027 0.0482897 0)
(27.4262 0.0690983 0)
(26.6384 0.118423 0)
(25.6151 0.175256 0)
(23.998 0.319994 0)
(21.7229 0.49834 0)
(18.0835 0.955624 0)
(12.3446 1.31248 0)
(5.97052 2.18052 0)
(29.9989 0.000212341 0)
(29.9858 0.000647905 0)
(29.9576 0.0011191 0)
(29.9145 0.00172444 0)
(29.8581 0.00252184 0)
(29.7859 0.00359767 0)
(29.6958 0.00504923 0)
(29.5835 0.00713729 0)
(29.4422 0.010009 0)
(29.2655 0.0141116 0)
(29.043 0.0195899 0)
(28.7802 0.0284237 0)
(28.4032 0.0388248 0)
(28.0106 0.0570509 0)
(27.4337 0.0817182 0)
(26.642 0.139355 0)
(25.6193 0.206003 0)
(24.0027 0.376252 0)
(21.7391 0.587604 0)
(18.1085 1.12812 0)
(12.3845 1.55093 0)
(5.99928 2.58002 0)
(29.9989 0.000245127 0)
(29.9858 0.00074762 0)
(29.9576 0.00129117 0)
(29.9145 0.00198964 0)
(29.8582 0.00290949 0)
(29.786 0.00415106 0)
(29.6959 0.00582616 0)
(29.5836 0.00823533 0)
(29.4423 0.0115492 0)
(29.2655 0.0162826 0)
(29.0433 0.0226062 0)
(28.78 0.0327899 0)
(28.4112 0.0448192 0)
(28.0028 0.0657821 0)
(27.4272 0.0941675 0)
(26.6398 0.159937 0)
(25.6234 0.238297 0)
(24.0079 0.434571 0)
(21.7649 0.678032 0)
(18.1475 1.30013 0)
(12.4385 1.78965 0)
(6.03451 2.98135 0)
(29.9989 0.000277911 0)
(29.9858 0.000847302 0)
(29.9576 0.00146323 0)
(29.9145 0.00225484 0)
(29.8581 0.0032971 0)
(29.786 0.00470445 0)
(29.6958 0.00660311 0)
(29.5835 0.00933339 0)
(29.4423 0.0130893 0)
(29.2656 0.0184539 0)
(29.0433 0.0256241 0)
(28.7799 0.0371626 0)
(28.403 0.0508036 0)
(28.0112 0.0746221 0)
(27.4356 0.106761 0)
(26.6439 0.180937 0)
(25.6302 0.269114 0)
(24.0153 0.492451 0)
(21.8076 0.768177 0)
(18.2059 1.47123 0)
(12.5095 2.02884 0)
(6.07681 3.38502 0)
(29.9989 0.000310693 0)
(29.9858 0.000946951 0)
(29.9576 0.00163527 0)
(29.9145 0.00252001 0)
(29.8582 0.00368462 0)
(29.786 0.0052578 0)
(29.6959 0.00738003 0)
(29.5836 0.0104314 0)
(29.4424 0.0146296 0)
(29.2657 0.0206249 0)
(29.0436 0.0286426 0)
(28.7797 0.0415188 0)
(28.4157 0.0568116 0)
(28.0051 0.0832161 0)
(27.432 0.119999 0)
(26.6421 0.202251 0)
(25.6366 0.300384 0)
(24.028 0.548504 0)
(21.868 0.857937 0)
(18.2857 1.64157 0)
(12.5993 2.2688 0)
(6.12679 3.79156 0)
(29.9989 0.000343474 0)
(29.9858 0.00104657 0)
(29.9576 0.0018073 0)
(29.9145 0.00278518 0)
(29.8582 0.0040721 0)
(29.786 0.00581113 0)
(29.6959 0.00815693 0)
(29.5836 0.0115295 0)
(29.4424 0.0161698 0)
(29.2658 0.0227955 0)
(29.0438 0.0316649 0)
(28.7794 0.0458725 0)
(28.4054 0.0628758 0)
(28.0037 0.0918521 0)
(27.4329 0.132535 0)
(26.6388 0.222462 0)
(25.6437 0.332695 0)
(24.0498 0.60394 0)
(21.9372 0.947411 0)
(18.382 1.81102 0)
(12.7085 2.50977 0)
(6.185 4.20156 0)
(29.9989 0.000376251 0)
(29.9859 0.00114615 0)
(29.9576 0.00197934 0)
(29.9146 0.00305032 0)
(29.8582 0.0044595 0)
(29.7861 0.00636442 0)
(29.696 0.00893379 0)
(29.5837 0.0126274 0)
(29.4425 0.0177101 0)
(29.2658 0.0249646 0)
(29.044 0.0346923 0)
(28.7783 0.050205 0)
(28.4208 0.0689667 0)
(27.9961 0.100767 0)
(27.4279 0.145951 0)
(26.6351 0.243036 0)
(25.651 0.36499 0)
(24.0763 0.657899 0)
(22.0031 1.03594 0)
(18.486 1.97909 0)
(12.8352 2.75184 0)
(6.25187 4.61562 0)
(29.9989 0.000409023 0)
(29.9859 0.0012457 0)
(29.9576 0.00215137 0)
(29.9145 0.00331546 0)
(29.8582 0.00484687 0)
(29.786 0.0069177 0)
(29.6959 0.0097106 0)
(29.5837 0.0137253 0)
(29.4426 0.0192509 0)
(29.2658 0.027134 0)
(29.0442 0.0377223 0)
(28.7779 0.0545451 0)
(28.4187 0.0750785 0)
(27.9919 0.109846 0)
(27.4242 0.159714 0)
(26.6328 0.263297 0)
(25.6573 0.396905 0)
(24.1008 0.710132 0)
(22.0592 1.12321 0)
(18.5892 2.14529 0)
(12.9763 2.99485 0)
(6.3276 5.03426 0)
(29.9989 0.000441792 0)
(29.9859 0.00134522 0)
(29.9576 0.0023234 0)
(29.9146 0.00358057 0)
(29.8583 0.00523418 0)
(29.7861 0.00747093 0)
(29.6961 0.0104873 0)
(29.5838 0.0148231 0)
(29.4427 0.0207918 0)
(29.2658 0.0293046 0)
(29.0444 0.0407765 0)
(28.7764 0.0588452 0)
(28.4327 0.0815685 0)
(27.9882 0.119063 0)
(27.4207 0.17318 0)
(26.6317 0.28297 0)
(25.6617 0.428353 0)
(24.12 0.760963 0)
(22.1048 1.20925 0)
(18.6863 2.30933 0)
(13.1281 3.23854 0)
(6.41214 5.45799 0)
(29.9989 0.000474555 0)
(29.9859 0.00144471 0)
(29.9576 0.00249545 0)
(29.9146 0.00384568 0)
(29.8582 0.00562144 0)
(29.7861 0.00802415 0)
(29.696 0.011264 0)
(29.5838 0.0159206 0)
(29.4427 0.0223337 0)
(29.2659 0.0314734 0)
(29.0443 0.0438613 0)
(28.7751 0.0629816 0)
(28.4318 0.087931 0)
(27.9848 0.12808 0)
(27.4183 0.186538 0)
(26.6312 0.30242 0)
(25.6644 0.459557 0)
(24.1341 0.810836 0)
(22.1419 1.29418 0)
(18.7751 2.471 0)
(13.2871 3.48254 0)
(6.50525 5.88718 0)
(29.9989 0.000507312 0)
(29.9859 0.00154416 0)
(29.9576 0.0026675 0)
(29.9146 0.00411076 0)
(29.8583 0.00600865 0)
(29.7862 0.00857731 0)
(29.6961 0.0120406 0)
(29.5839 0.0170179 0)
(29.4429 0.0238741 0)
(29.2661 0.0336474 0)
(29.0444 0.0469663 0)
(28.7734 0.0672448 0)
(28.4314 0.094222 0)
(27.9814 0.136978 0)
(27.4165 0.199818 0)
(26.6311 0.321807 0)
(25.6658 0.49064 0)
(24.1441 0.860082 0)
(22.1726 1.37809 0)
(18.8552 2.63019 0)
(13.4505 3.72649 0)
(6.60651 6.32218 0)
(29.9989 0.000540063 0)
(29.9859 0.00164358 0)
(29.9576 0.00283957 0)
(29.9146 0.00437584 0)
(29.8582 0.00639583 0)
(29.7861 0.00913048 0)
(29.696 0.0128171 0)
(29.5839 0.0181148 0)
(29.443 0.0254146 0)
(29.2663 0.0358182 0)
(29.0443 0.0501472 0)
(28.7716 0.0715236 0)
(28.4286 0.100462 0)
(27.9791 0.145826 0)
(27.4152 0.213088 0)
(26.631 0.341176 0)
(25.6663 0.521651 0)
(24.1513 0.908887 0)
(22.1991 1.46108 0)
(18.9275 2.78683 0)
(13.6163 3.97003 0)
(6.71545 6.76323 0)
(29.9989 0.000572806 0)
(29.9859 0.00174297 0)
(29.9576 0.00301165 0)
(29.9146 0.0046409 0)
(29.8583 0.00678297 0)
(29.7862 0.00968359 0)
(29.6962 0.0135936 0)
(29.584 0.019211 0)
(29.4432 0.0269545 0)
(29.2666 0.0379856 0)
(29.0446 0.0533565 0)
(28.7704 0.0758523 0)
(28.427 0.10661 0)
(27.9774 0.154674 0)
(27.4143 0.226366 0)
(26.6311 0.360544 0)
(25.6661 0.55261 0)
(24.1565 0.957354 0)
(22.2229 1.5432 0)
(18.9932 2.94084 0)
(13.7831 4.21284 0)
(6.83158 7.21055 0)
(29.9989 0.000605542 0)
(29.9859 0.00184232 0)
(29.9576 0.00318375 0)
(29.9146 0.00490595 0)
(29.8582 0.00717007 0)
(29.7862 0.0102367 0)
(29.6961 0.0143699 0)
(29.584 0.0203072 0)
(29.4433 0.0284932 0)
(29.2667 0.0401649 0)
(29.0448 0.0565544 0)
(28.7694 0.0800842 0)
(28.4255 0.112775 0)
(27.9762 0.163515 0)
(27.4136 0.239646 0)
(26.6313 0.379913 0)
(25.6657 0.583532 0)
(24.1606 1.00554 0)
(22.2453 1.62447 0)
(19.0538 3.0922 0)
(13.9505 4.45463 0)
(6.95445 7.66433 0)
(29.9989 0.000638272 0)
(29.9859 0.00194165 0)
(29.9576 0.00335586 0)
(29.9146 0.00517098 0)
(29.8584 0.00755713 0)
(29.7863 0.0107897 0)
(29.6963 0.0151461 0)
(29.5842 0.0214031 0)
(29.4434 0.0300327 0)
(29.267 0.0423533 0)
(29.0452 0.0598111 0)
(28.7686 0.0842525 0)
(28.4246 0.118924 0)
(27.9753 0.172374 0)
(27.4131 0.252928 0)
(26.6316 0.399287 0)
(25.6651 0.614425 0)
(24.1642 1.05347 0)
(22.2673 1.70495 0)
(19.1106 3.24088 0)
(14.1182 4.69518 0)
(7.08366 8.12472 0)
(29.9989 0.000670992 0)
(29.9859 0.00204094 0)
(29.9576 0.00352799 0)
(29.9146 0.005436 0)
(29.8583 0.00794416 0)
(29.7862 0.0113427 0)
(29.6962 0.0159223 0)
(29.5841 0.0224985 0)
(29.4435 0.0315719 0)
(29.2672 0.0445583 0)
(29.0455 0.0630616 0)
(28.7681 0.0884292 0)
(28.4238 0.125101 0)
(27.9748 0.181233 0)
(27.4128 0.266203 0)
(26.6321 0.418667 0)
(25.6647 0.645299 0)
(24.1678 1.10114 0)
(22.2897 1.78462 0)
(19.1649 3.38689 0)
(14.2868 4.93426 0)
(7.21893 8.5919 0)
(29.9989 0.000703705 0)
(29.9859 0.00214019 0)
(29.9577 0.00370013 0)
(29.9146 0.00570099 0)
(29.8584 0.00833116 0)
(29.7864 0.0118956 0)
(29.6964 0.0166984 0)
(29.5843 0.0235943 0)
(29.4436 0.0331072 0)
(29.2676 0.0468233 0)
(29.0455 0.0662476 0)
(28.7677 0.0926329 0)
(28.4233 0.131278 0)
(27.9743 0.190102 0)
(27.4126 0.279474 0)
(26.6327 0.438055 0)
(25.6648 0.676163 0)
(24.1719 1.14852 0)
(22.313 1.86352 0)
(19.2177 3.53022 0)
(14.4568 5.17171 0)
(7.36002 9.06603 0)
(29.9989 0.000736408 0)
(29.9859 0.00223942 0)
(29.9577 0.0038723 0)
(29.9146 0.00596598 0)
(29.8583 0.00871811 0)
(29.7863 0.0124485 0)
(29.6962 0.0174744 0)
(29.5842 0.0246899 0)
(29.4436 0.0346413 0)
(29.2679 0.0491278 0)
(29.0453 0.0693967 0)
(28.7675 0.0968792 0)
(28.4229 0.137472 0)
(27.9741 0.198965 0)
(27.4127 0.292736 0)
(26.6337 0.457448 0)
(25.6654 0.707016 0)
(24.1768 1.19557 0)
(22.3374 1.94166 0)
(19.2701 3.67087 0)
(14.629 5.40737 0)
(7.50684 9.54729 0)
(29.9989 0.000769104 0)
(29.9859 0.00233861 0)
(29.9577 0.00404447 0)
(29.9147 0.00623094 0)
(29.8584 0.00910503 0)
(29.7864 0.0130013 0)
(29.6964 0.0182504 0)
(29.5844 0.0257855 0)
(29.4438 0.0361725 0)
(29.2683 0.0514582 0)
(29.0451 0.0724513 0)
(28.7674 0.101155 0)
(28.4227 0.143665 0)
(27.974 0.20783 0)
(27.4129 0.305992 0)
(26.6349 0.476844 0)
(25.6669 0.737846 0)
(24.1826 1.24226 0)
(22.3632 2.01903 0)
(19.3229 3.80881 0)
(14.8046 5.64113 0)
(7.65936 10.0359 0)
(29.9989 0.00080179 0)
(29.9859 0.00243776 0)
(29.9577 0.00421667 0)
(29.9146 0.00649589 0)
(29.8583 0.0094919 0)
(29.7863 0.0135541 0)
(29.6963 0.019026 0)
(29.5843 0.026881 0)
(29.4439 0.0377007 0)
(29.2682 0.0537682 0)
(29.045 0.0754357 0)
(28.7674 0.105451 0)
(28.4225 0.149865 0)
(27.9741 0.21669 0)
(27.4133 0.319238 0)
(26.6366 0.496233 0)
(25.6694 0.768625 0)
(24.1894 1.28857 0)
(22.3903 2.09566 0)
(19.3766 3.944 0)
(14.9846 5.87288 0)
(7.81765 10.532 0)
(29.9989 0.000834468 0)
(29.9859 0.00253689 0)
(29.9577 0.00438888 0)
(29.9147 0.00676081 0)
(29.8585 0.00987877 0)
(29.7865 0.0141068 0)
(29.6965 0.0198019 0)
(29.5845 0.0279749 0)
(29.4442 0.0392437 0)
(29.2682 0.0560587 0)
(29.0449 0.0783893 0)
(28.7674 0.109758 0)
(28.4224 0.156063 0)
(27.9742 0.225547 0)
(27.414 0.332471 0)
(26.6387 0.515603 0)
(25.6729 0.799328 0)
(24.1974 1.3345 0)
(22.4186 2.17155 0)
(19.4318 4.07638 0)
(15.1704 6.10252 0)
(7.98185 11.0359 0)
(29.9989 0.000867136 0)
(29.9859 0.00263598 0)
(29.9577 0.00456112 0)
(29.9146 0.00702572 0)
(29.8583 0.0102656 0)
(29.7864 0.0146594 0)
(29.6964 0.0205777 0)
(29.5844 0.0290698 0)
(29.4444 0.0407944 0)
(29.2676 0.0584422 0)
(29.0449 0.0813498 0)
(28.7675 0.114071 0)
(28.4224 0.162262 0)
(27.9745 0.234398 0)
(27.4149 0.345687 0)
(26.6412 0.534939 0)
(25.6776 0.829935 0)
(24.2065 1.38006 0)
(22.4481 2.24668 0)
(19.4888 4.20586 0)
(15.3631 6.32998 0)
(8.1522 11.5479 0)
(29.9989 0.000899796 0)
(29.9859 0.00273504 0)
(29.9577 0.00473336 0)
(29.9147 0.00729059 0)
(29.8585 0.0106524 0)
(29.7865 0.0152119 0)
(29.6967 0.0213532 0)
(29.5846 0.0301639 0)
(29.4448 0.0423557 0)
(29.2671 0.0607806 0)
(29.045 0.0843361 0)
(28.7676 0.118389 0)
(28.4225 0.168459 0)
(27.9749 0.243242 0)
(27.416 0.358879 0)
(26.6443 0.554227 0)
(25.6832 0.860442 0)
(24.2168 1.42527 0)
(22.4787 2.32104 0)
(19.5479 4.33232 0)
(15.5639 6.55518 0)
(8.32899 12.0683 0)
(29.9989 0.000932446 0)
(29.9859 0.00283406 0)
(29.9577 0.00490562 0)
(29.9147 0.00755544 0)
(29.8583 0.0110391 0)
(29.7864 0.0157642 0)
(29.6965 0.0221293 0)
(29.5845 0.031254 0)
(29.445 0.0439693 0)
(29.2665 0.0629768 0)
(29.0451 0.0873508 0)
(28.7677 0.122708 0)
(28.4226 0.174653 0)
(27.9754 0.252077 0)
(27.4174 0.372042 0)
(26.6479 0.573456 0)
(25.6899 0.890846 0)
(24.2284 1.47011 0)
(22.5104 2.39463 0)
(19.609 4.45561 0)
(15.7738 6.77803 0)
(8.51254 12.5973 0)
(29.9989 0.000965088 0)
(29.9859 0.00293305 0)
(29.9577 0.0050779 0)
(29.9147 0.00782025 0)
(29.8586 0.0114259 0)
(29.7866 0.0163164 0)
(29.6968 0.0229052 0)
(29.5847 0.0323436 0)
(29.4454 0.0456036 0)
(29.2661 0.065147 0)
(29.0453 0.0903873 0)
(28.7679 0.127028 0)
(28.4228 0.180845 0)
(27.976 0.260899 0)
(27.4191 0.385172 0)
(26.6518 0.592619 0)
(25.6974 0.921142 0)
(24.2413 1.5146 0)
(22.543 2.46743 0)
(19.6722 4.57557 0)
(15.9935 6.99845 0)
(8.70321 13.1355 0)
(29.9989 0.00099772 0)
(29.986 0.00303201 0)
(29.9577 0.00525018 0)
(29.9147 0.00808505 0)
(29.8584 0.0118125 0)
(29.7865 0.0168686 0)
(29.6966 0.0236809 0)
(29.5846 0.0334333 0)
(29.4455 0.0472459 0)
(29.266 0.0673076 0)
(29.0455 0.093437 0)
(28.768 0.131349 0)
(28.423 0.187032 0)
(27.9768 0.269707 0)
(27.421 0.398265 0)
(26.6563 0.611711 0)
(25.7057 0.951321 0)
(24.2555 1.55872 0)
(22.5766 2.53943 0)
(19.7371 4.69202 0)
(16.2234 7.21636 0)
(8.90137 13.6831 0)
(29.9989 0.00103034 0)
(29.986 0.00313094 0)
(29.9577 0.00542248 0)
(29.9147 0.00834981 0)
(29.8586 0.0121991 0)
(29.7867 0.0174206 0)
(29.6969 0.0244566 0)
(29.5848 0.0345222 0)
(29.4457 0.0488965 0)
(29.266 0.0694468 0)
(29.0458 0.0964943 0)
(28.7683 0.13567 0)
(28.4234 0.193215 0)
(27.9777 0.278499 0)
(27.4232 0.411319 0)
(26.661 0.630727 0)
(25.7149 0.981373 0)
(24.2711 1.60248 0)
(22.6112 2.61062 0)
(19.8037 4.80478 0)
(16.4637 7.43164 0)
(9.10737 14.2405 0)
(29.9989 0.00106296 0)
(29.986 0.00322983 0)
(29.9577 0.00559479 0)
(29.9147 0.00861454 0)
(29.8584 0.0125857 0)
(29.7866 0.0179726 0)
(29.6967 0.025232 0)
(29.5848 0.0356111 0)
(29.4457 0.0505517 0)
(29.2662 0.0715716 0)
(29.0461 0.0995568 0)
(28.7685 0.139991 0)
(28.4237 0.199392 0)
(27.9787 0.287274 0)
(27.4256 0.42433 0)
(26.6662 0.649662 0)
(25.7248 1.01128 0)
(24.2881 1.64588 0)
(22.6469 2.68101 0)
(19.8717 4.91369 0)
(16.7143 7.64417 0)
(9.32154 14.8083 0)
(29.9989 0.00109557 0)
(29.986 0.0033287 0)
(29.9577 0.00576711 0)
(29.9148 0.00887924 0)
(29.8586 0.0129723 0)
(29.7868 0.0185245 0)
(29.697 0.0260069 0)
(29.5851 0.0367 0)
(29.4458 0.0522094 0)
(29.2666 0.0736844 0)
(29.0464 0.102623 0)
(28.7688 0.144311 0)
(28.4241 0.205563 0)
(27.9797 0.29603 0)
(27.4281 0.437299 0)
(26.6716 0.668509 0)
(25.7354 1.04104 0)
(24.3066 1.68891 0)
(22.6837 2.75059 0)
(19.9412 5.01856 0)
(16.9749 7.85384 0)
(9.54419 15.3867 0)
(29.9989 0.00112816 0)
(29.986 0.00342753 0)
(29.9577 0.00593943 0)
(29.9147 0.00914392 0)
(29.8584 0.0133586 0)
(29.7866 0.0190764 0)
(29.6968 0.0267814 0)
(29.5851 0.0377859 0)
(29.4456 0.0538657 0)
(29.267 0.0757889 0)
(29.0467 0.105693 0)
(28.7691 0.14863 0)
(28.4246 0.211726 0)
(27.981 0.304766 0)
(27.4309 0.450223 0)
(26.6774 0.687262 0)
(25.7468 1.07063 0)
(24.3264 1.73156 0)
(22.7217 2.81937 0)
(20.0122 5.11925 0)
(17.2452 8.0605 0)
(9.77557 15.9762 0)
(29.9989 0.00116076 0)
(29.986 0.00352634 0)
(29.9577 0.00611176 0)
(29.9148 0.00940853 0)
(29.8587 0.0137451 0)
(29.7869 0.0196278 0)
(29.6971 0.0275578 0)
(29.5854 0.0388696 0)
(29.4455 0.0554613 0)
(29.2675 0.0778861 0)
(29.0471 0.108765 0)
(28.7695 0.152948 0)
(28.4252 0.217883 0)
(27.9823 0.31348 0)
(27.4338 0.4631 0)
(26.6835 0.705917 0)
(25.7589 1.10003 0)
(24.3477 1.77383 0)
(22.7611 2.88733 0)
(20.0848 5.2156 0)
(17.525 8.26402 0)
(10.0159 16.5772 0)
(29.9989 0.00119334 0)
(29.986 0.00362511 0)
(29.9577 0.00628408 0)
(29.9147 0.00967315 0)
(29.8585 0.0141313 0)
(29.7867 0.0201801 0)
(29.6969 0.0283283 0)
(29.5855 0.0399908 0)
(29.4453 0.056892 0)
(29.268 0.0799859 0)
(29.0475 0.111839 0)
(28.7698 0.157265 0)
(28.4258 0.22403 0)
(27.9837 0.322172 0)
(27.4369 0.475928 0)
(26.6899 0.724467 0)
(25.7716 1.12924 0)
(24.3704 1.81571 0)
(22.8021 2.95448 0)
(20.1592 5.30747 0)
(17.8144 8.46424 0)
(10.2655 17.1902 0)
(29.9989 0.00122592 0)
(29.986 0.00372386 0)
(29.9577 0.0064564 0)
(29.9148 0.00993771 0)
(29.8587 0.0145175 0)
(29.787 0.0207313 0)
(29.6972 0.0291043 0)
(29.5858 0.0410918 0)
(29.4451 0.0586495 0)
(29.2685 0.0821145 0)
(29.0478 0.114915 0)
(28.7702 0.16158 0)
(28.4264 0.230169 0)
(27.9852 0.330841 0)
(27.4402 0.488705 0)
(26.6966 0.742906 0)
(25.785 1.15823 0)
(24.3945 1.85718 0)
(22.8448 3.02081 0)
(20.2355 5.39471 0)
(18.1134 8.66103 0)
(10.5245 17.8155 0)
(29.9989 0.00125848 0)
(29.986 0.00382257 0)
(29.9577 0.00662874 0)
(29.9148 0.0102022 0)
(29.8585 0.0149038 0)
(29.7868 0.0212821 0)
(29.697 0.0298771 0)
(29.5857 0.0422273 0)
(29.4449 0.0604019 0)
(29.269 0.084273 0)
(29.0482 0.117992 0)
(28.7706 0.165893 0)
(28.4271 0.236299 0)
(27.9868 0.339488 0)
(27.4437 0.501429 0)
(26.7036 0.761228 0)
(25.7991 1.187 0)
(24.4199 1.89823 0)
(22.8895 3.08631 0)
(20.3138 5.47718 0)
(18.4225 8.85421 0)
(10.7931 18.4537 0)
(29.9989 0.00129105 0)
(29.986 0.00392125 0)
(29.9577 0.00680104 0)
(29.9149 0.0104668 0)
(29.8588 0.0152892 0)
(29.7871 0.0218369 0)
(29.6974 0.0306335 0)
(29.5859 0.0433837 0)
(29.4449 0.0619111 0)
(29.2694 0.0864444 0)
(29.0486 0.121069 0)
(28.7711 0.170204 0)
(28.4279 0.24242 0)
(27.9884 0.34811 0)
(27.4473 0.514099 0)
(26.7109 0.77943 0)
(25.8137 1.21553 0)
(24.4466 1.93884 0)
(22.9364 3.15097 0)
(20.3938 5.55474 0)
(18.7418 9.04364 0)
(11.0717 19.1051 0)
(29.9989 0.00132361 0)
(29.986 0.0040199 0)
(29.9577 0.00697335 0)
(29.9148 0.0107311 0)
(29.8586 0.0156755 0)
(29.7869 0.0223848 0)
(29.6973 0.0314357 0)
(29.5855 0.0443074 0)
(29.4448 0.0633487 0)
(29.2697 0.0886172 0)
(29.049 0.124146 0)
(28.7716 0.174512 0)
(28.4287 0.248533 0)
(27.9902 0.356704 0)
(27.451 0.52671 0)
(26.7184 0.797505 0)
(25.8289 1.24381 0)
(24.4744 1.97897 0)
(22.9859 3.2148 0)
(20.4749 5.62724 0)
(19.0704 9.22918 0)
(11.3604 19.7701 0)
(29.9989 0.00135616 0)
(29.986 0.00411858 0)
(29.9578 0.0071457 0)
(29.9149 0.0109956 0)
(29.8589 0.0160615 0)
(29.787 0.022936 0)
(29.6979 0.0322253 0)
(29.5845 0.0455343 0)
(29.4447 0.0648121 0)
(29.27 0.090788 0)
(29.0494 0.127222 0)
(28.7721 0.178817 0)
(28.4295 0.254635 0)
(27.992 0.365271 0)
(27.4549 0.539262 0)
(26.7263 0.815448 0)
(25.8448 1.27183 0)
(24.5034 2.01862 0)
(23.0384 3.27779 0)
(20.5565 5.69459 0)
(19.4053 9.41085 0)
(11.6594 20.45 0)
(29.9989 0.00138855 0)
(29.986 0.00421716 0)
(29.9578 0.00731808 0)
(29.9148 0.0112603 0)
(29.8587 0.0164481 0)
(29.7868 0.0234872 0)
(29.6979 0.0330197 0)
(29.5836 0.0468947 0)
(29.4447 0.0663126 0)
(29.2702 0.0929585 0)
(29.0498 0.130296 0)
(28.7726 0.18312 0)
(28.4304 0.260728 0)
(27.9939 0.373808 0)
(27.459 0.55175 0)
(26.7345 0.833254 0)
(25.8611 1.29957 0)
(24.5333 2.05772 0)
(23.0943 3.33996 0)
(20.6378 5.75676 0)
(19.7394 9.58833 0)
(11.9683 21.1522 0)
(29.9989 0.00142044 0)
(29.986 0.00431504 0)
(29.9578 0.00748906 0)
(29.9149 0.0115231 0)
(29.859 0.0168336 0)
(29.7871 0.0240301 0)
(29.6984 0.0338616 0)
(29.5832 0.0480219 0)
(29.4446 0.0678247 0)
(29.2703 0.0951232 0)
(29.0502 0.133367 0)
(28.7731 0.187427 0)
(28.4313 0.266814 0)
(27.9958 0.382304 0)
(27.4632 0.564174 0)
(26.7429 0.850922 0)
(25.8779 1.32704 0)
(24.5642 2.09622 0)
(23.154 3.40135 0)
(20.7189 5.81383 0)
(20.0613 9.75961 0)
(12.3731 21.8982 0)
(-1.18088 0.0567032 0)
(-3.779 0.0424268 0)
(-5.04504 0.00575407 0)
(-4.27018 -0.0188946 0)
(-2.98327 -0.0169469 0)
(-2.29357 -0.00877285 0)
(-1.86783 -0.00402007 0)
(-1.74071 -0.00187293 0)
(-1.57135 -0.00173066 0)
(-1.4391 -0.000370707 0)
(-1.51417 0.00041215 0)
(-1.59719 -0.000959216 0)
(-1.35555 -0.00483144 0)
(-0.562158 -0.00936409 0)
(0.953256 -0.0125411 0)
(2.72928 -0.0127559 0)
(4.51958 -0.0118806 0)
(6.30326 -0.010944 0)
(8.06479 -0.00972509 0)
(9.71224 -0.00831587 0)
(11.2641 -0.00725603 0)
(12.7667 -0.00650256 0)
(14.2368 -0.00590814 0)
(15.6931 -0.00555639 0)
(17.2192 -0.00510349 0)
(18.6472 -0.00611536 0)
(21.0236 -0.0120327 0)
(26.9715 -0.0108695 0)
(29.101 -0.0030449 0)
(29.3862 -0.00039367 0)
(29.4365 -0.000135999 0)
(29.514 -0.000155614 0)
(29.5942 -0.000132397 0)
(29.6591 -0.000101606 0)
(29.715 -4.50194e-05 0)
(-1.15364 0.168033 0)
(-3.72201 0.126439 0)
(-4.98489 0.0174913 0)
(-4.21844 -0.056001 0)
(-2.94579 -0.0505388 0)
(-2.26871 -0.0262096 0)
(-1.84736 -0.0121626 0)
(-1.72222 -0.00589326 0)
(-1.54032 -0.00560966 0)
(-1.37581 -0.00129839 0)
(-1.43633 0.00192915 0)
(-1.53301 -0.00169954 0)
(-1.37833 -0.0130436 0)
(-0.685208 -0.0275441 0)
(0.832114 -0.0373361 0)
(2.68206 -0.0378225 0)
(4.52508 -0.035075 0)
(6.30498 -0.0320793 0)
(8.0353 -0.0284797 0)
(9.65419 -0.024581 0)
(11.1917 -0.021641 0)
(12.6918 -0.0194496 0)
(14.1668 -0.0176755 0)
(15.6268 -0.0166171 0)
(17.1501 -0.0152346 0)
(18.5753 -0.0176618 0)
(20.7295 -0.0358391 0)
(26.7691 -0.0336885 0)
(29.0801 -0.00945404 0)
(29.3901 -0.00121345 0)
(29.4391 -0.000402351 0)
(29.5147 -0.000463719 0)
(29.5947 -0.00039678 0)
(29.6595 -0.000304767 0)
(29.7155 -0.000135081 0)
(-1.11825 0.277238 0)
(-3.65792 0.209629 0)
(-4.91664 0.0292876 0)
(-4.14966 -0.0930137 0)
(-2.88751 -0.0837882 0)
(-2.22503 -0.0433389 0)
(-1.80593 -0.0201644 0)
(-1.68031 -0.0100121 0)
(-1.47954 -0.0100152 0)
(-1.28774 -0.00288951 0)
(-1.35109 0.00286941 0)
(-1.48264 -0.00177589 0)
(-1.42047 -0.0197128 0)
(-0.798898 -0.0446204 0)
(0.747519 -0.0627705 0)
(2.66886 -0.0638238 0)
(4.55289 -0.0581665 0)
(6.32193 -0.0524995 0)
(8.01866 -0.0465965 0)
(9.60959 -0.0404697 0)
(11.1348 -0.0359146 0)
(12.6333 -0.0324301 0)
(14.113 -0.0295068 0)
(15.5768 -0.0276969 0)
(17.0973 -0.0253768 0)
(18.5219 -0.0286475 0)
(20.4874 -0.0592296 0)
(26.58 -0.0568574 0)
(29.0594 -0.0164377 0)
(29.394 -0.00210463 0)
(29.4418 -0.000661518 0)
(29.5157 -0.000767448 0)
(29.5953 -0.000660393 0)
(29.66 -0.000507739 0)
(29.7159 -0.000225086 0)
(-1.07742 0.383995 0)
(-3.5873 0.292128 0)
(-4.83616 0.0409268 0)
(-4.05482 -0.130117 0)
(-2.80373 -0.116576 0)
(-2.16017 -0.0601932 0)
(-1.74539 -0.0281509 0)
(-1.62145 -0.0143971 0)
(-1.40316 -0.0149489 0)
(-1.19089 -0.00464316 0)
(-1.25725 0.00441871 0)
(-1.42702 -0.000490701 0)
(-1.45239 -0.0250032 0)
(-0.888514 -0.0616627 0)
(0.690714 -0.089363 0)
(2.68086 -0.0911473 0)
(4.60492 -0.0820342 0)
(6.35938 -0.0731198 0)
(8.01891 -0.0646625 0)
(9.58107 -0.0562924 0)
(11.0947 -0.050162 0)
(12.5916 -0.045428 0)
(14.0755 -0.0413672 0)
(15.543 -0.0387779 0)
(17.0608 -0.0354987 0)
(18.4867 -0.0390554 0)
(20.2969 -0.0820871 0)
(26.4035 -0.0806884 0)
(29.0387 -0.0238927 0)
(29.3979 -0.00304911 0)
(29.4445 -0.000914427 0)
(29.5167 -0.0010671 0)
(29.596 -0.000923199 0)
(29.6606 -0.000710384 0)
(29.7164 -0.000314942 0)
(-1.03107 0.488077 0)
(-3.50993 0.373637 0)
(-4.74075 0.0519502 0)
(-3.92979 -0.167366 0)
(-2.69368 -0.148715 0)
(-2.07368 -0.0765729 0)
(-1.66692 -0.0359943 0)
(-1.54667 -0.0189519 0)
(-1.31243 -0.0202888 0)
(-1.08548 -0.00655549 0)
(-1.15203 0.00642735 0)
(-1.36196 0.00193509 0)
(-1.4692 -0.0290482 0)
(-0.948 -0.078514 0)
(0.671384 -0.116742 0)
(2.73084 -0.119401 0)
(4.69509 -0.106254 0)
(6.42856 -0.0935165 0)
(8.04326 -0.082415 0)
(9.57309 -0.071927 0)
(11.0743 -0.0643513 0)
(12.5686 -0.0584387 0)
(14.0558 -0.0532639 0)
(15.5268 -0.0498697 0)
(17.0419 -0.0456206 0)
(18.4702 -0.0490401 0)
(20.1537 -0.104491 0)
(26.2381 -0.104894 0)
(29.018 -0.0318028 0)
(29.4017 -0.0040503 0)
(29.4473 -0.00116157 0)
(29.518 -0.00136272 0)
(29.5968 -0.00118505 0)
(29.6613 -0.000912553 0)
(29.7169 -0.00040456 0)
(-0.979002 0.589177 0)
(-3.42545 0.453928 0)
(-4.62727 0.0618622 0)
(-3.76982 -0.205009 0)
(-2.55597 -0.1801 0)
(-1.96447 -0.0923632 0)
(-1.57069 -0.0436179 0)
(-1.45584 -0.023637 0)
(-1.20733 -0.0259595 0)
(-0.970359 -0.00860879 0)
(-1.03321 0.0088448 0)
(-1.28352 0.00545149 0)
(-1.46503 -0.0320216 0)
(-0.970647 -0.0952823 0)
(0.700102 -0.144765 0)
(2.83493 -0.148316 0)
(4.84363 -0.130575 0)
(6.54756 -0.113435 0)
(8.10409 -0.0996651 0)
(9.59359 -0.0872892 0)
(11.0785 -0.0784543 0)
(12.568 -0.071446 0)
(14.0573 -0.0651862 0)
(15.5311 -0.0609667 0)
(17.0428 -0.0557453 0)
(18.4741 -0.058684 0)
(20.0532 -0.126455 0)
(26.0828 -0.129338 0)
(28.9974 -0.0401355 0)
(29.4055 -0.00510814 0)
(29.4502 -0.0014035 0)
(29.5193 -0.00165441 0)
(29.5978 -0.00144583 0)
(29.6621 -0.0011141 0)
(29.7174 -0.000493851 0)
(-0.921006 0.686979 0)
(-3.33329 0.53271 0)
(-4.492 0.0700883 0)
(-3.56953 -0.243313 0)
(-2.38862 -0.210528 0)
(-1.83069 -0.107421 0)
(-1.45571 -0.0509236 0)
(-1.34771 -0.0284081 0)
(-1.08645 -0.0318918 0)
(-0.842899 -0.010806 0)
(-0.897819 0.0115988 0)
(-1.18696 0.00995019 0)
(-1.43363 -0.0341783 0)
(-0.950609 -0.11222 0)
(0.785649 -0.173619 0)
(3.00836 -0.177988 0)
(5.07516 -0.154978 0)
(6.74325 -0.132738 0)
(8.22057 -0.11625 0)
(9.6547 -0.10228 0)
(11.1154 -0.0924259 0)
(12.596 -0.0844277 0)
(14.0853 -0.0771223 0)
(15.5611 -0.0720614 0)
(17.0679 -0.0658691 0)
(18.5018 -0.0680471 0)
(19.9921 -0.147941 0)
(25.9366 -0.153913 0)
(28.977 -0.0488643 0)
(29.409 -0.00622252 0)
(29.4532 -0.00164079 0)
(29.5209 -0.00194225 0)
(29.5988 -0.00170541 0)
(29.6629 -0.00131487 0)
(29.718 -0.000582726 0)
(-0.856861 0.781154 0)
(-3.23276 0.609609 0)
(-4.33067 0.0759659 0)
(-3.32436 -0.282465 0)
(-2.19 -0.239695 0)
(-1.67011 -0.121574 0)
(-1.32011 -0.0578017 0)
(-1.22005 -0.0332286 0)
(-0.947198 -0.0380331 0)
(-0.699273 -0.013168 0)
(-0.741382 0.0146053 0)
(-1.06627 0.0153093 0)
(-1.36776 -0.0357724 0)
(-0.88013 -0.12961 0)
(0.937811 -0.203622 0)
(3.2637 -0.208731 0)
(5.41252 -0.179616 0)
(7.05185 -0.151331 0)
(8.42171 -0.131964 0)
(9.77445 -0.116739 0)
(11.1967 -0.106186 0)
(12.6619 -0.0973481 0)
(14.1483 -0.0890556 0)
(15.6249 -0.0831408 0)
(17.1246 -0.0759809 0)
(18.5589 -0.0771637 0)
(19.9705 -0.168896 0)
(25.7991 -0.178521 0)
(28.9568 -0.0579655 0)
(29.4124 -0.00739316 0)
(29.4562 -0.00187415 0)
(29.5226 -0.00222635 0)
(29.6 -0.00196364 0)
(29.6638 -0.00151472 0)
(29.7185 -0.000671096 0)
(-0.786365 0.871353 0)
(-3.12296 0.684159 0)
(-4.13869 0.0787783 0)
(-3.03298 -0.322563 0)
(-1.95989 -0.267264 0)
(-1.48094 -0.134661 0)
(-1.16161 -0.0641465 0)
(-1.07 -0.0380738 0)
(-0.786105 -0.0443501 0)
(-0.53465 -0.0157357 0)
(-0.557696 0.0177614 0)
(-0.913688 0.0213836 0)
(-1.25775 -0.0370593 0)
(-0.745997 -0.147724 0)
(1.17114 -0.23511 0)
(3.61137 -0.240913 0)
(5.86622 -0.204799 0)
(7.50985 -0.169181 0)
(8.74954 -0.146553 0)
(9.98013 -0.130421 0)
(11.3404 -0.119605 0)
(12.7795 -0.110151 0)
(14.2587 -0.100962 0)
(15.7351 -0.0941858 0)
(17.224 -0.0860596 0)
(18.6541 -0.086046 0)
(19.9929 -0.189249 0)
(25.6708 -0.203052 0)
(28.937 -0.0674163 0)
(29.4156 -0.00861938 0)
(29.4593 -0.00210431 0)
(29.5244 -0.00250681 0)
(29.6013 -0.00222042 0)
(29.6648 -0.0017135 0)
(29.7191 -0.000758873 0)
(-0.709341 0.957196 0)
(-3.00284 0.7558 0)
(-3.91145 0.0778424 0)
(-2.69971 -0.363591 0)
(-1.70044 -0.292947 0)
(-1.26275 -0.146574 0)
(-0.978162 -0.0698786 0)
(-0.894369 -0.0429387 0)
(-0.599235 -0.0508357 0)
(-0.343407 -0.0185899 0)
(-0.338969 0.0209146 0)
(-0.719377 0.0279823 0)
(-1.09012 -0.0383461 0)
(-0.527155 -0.166868 0)
(1.50537 -0.268353 0)
(4.05935 -0.274764 0)
(6.42705 -0.230903 0)
(8.12677 -0.186457 0)
(9.2526 -0.15974 0)
(10.3119 -0.142983 0)
(11.5733 -0.132484 0)
(12.9694 -0.122752 0)
(14.4347 -0.112811 0)
(15.9094 -0.105173 0)
(17.3833 -0.0960692 0)
(18.8009 -0.0946841 0)
(20.0691 -0.208912 0)
(25.5536 -0.227378 0)
(28.9178 -0.0771907 0)
(29.4185 -0.00990011 0)
(29.4624 -0.00233213 0)
(29.5264 -0.00278377 0)
(29.6027 -0.00247559 0)
(29.6659 -0.00191105 0)
(29.7198 -0.000845969 0)
(-0.62565 1.03828 0)
(-2.87121 0.823882 0)
(-3.64464 0.0726255 0)
(-2.33484 -0.405371 0)
(-1.41646 -0.31658 0)
(-1.01725 -0.157287 0)
(-0.768615 -0.0749732 0)
(-0.690291 -0.0478485 0)