/*--------------------------------*- C++ -*----------------------------------*\
| =========                 |                                                 |
| \\      /  F ield         | OpenFOAM: The Open Source CFD Toolbox           |
|  \\    /   O peration     | Version:  v1912                                 |
|   \\  /    A nd           | Website:  www.openfoam.com                      |
|    \\/     M anipulation  |                                                 |
\*---------------------------------------------------------------------------*/
FoamFile
{
    version     2.0;
    format      ascii;
    class       volScalarField;
    location    "875";
    object      p;
}
// * * * * * * * * * * * * * * * * * * * * * * * * * * * * * * * * * * * * * //

dimensions      [0 2 -2 0 0 0 0];


internalField   nonuniform List<scalar> 
2000
(
-0.0460072
0.0714041
0.125984
0.119096
0.103268
0.0969626
0.0963574
0.0977061
0.0979235
0.0977022
0.0978423
0.0975192
0.0972616
0.0972059
0.0972636
0.0972852
0.0972421
0.0972205
0.097215
0.0972185
0.0972223
0.0972158
0.0971946
0.09716
0.0971188
0.0970771
0.0970402
0.0970094
0.0969825
0.0969567
0.0969301
0.0969024
0.0968738
0.0968445
0.096815
0.0967857
0.0967574
0.0967299
0.0967031
0.0966766
0.0966503
0.0966245
0.0965994
0.0965755
0.0965541
0.0965358
0.096522
0.0965146
0.0965162
0.0965277
0.0965394
0.0965093
0.0963187
0.0957247
0.0943646
0.0918478
0.0878851
0.0824268
0.0759407
0.0698519
0.0662624
0.0662725
0.0708667
0.0796409
0.0916322
0.105839
0.12142
0.13759
0.153441
0.167891
0.179895
0.188577
0.193095
0.192632
0.18639
0.173701
0.153435
0.125393
0.0838696
0.0415523
0.00723997
0.0924164
0.131234
0.118039
0.100297
0.0960998
0.0996413
0.102081
0.099327
0.0960832
0.0956457
0.0969459
0.097394
0.0972619
0.0974862
0.097388
0.097264
0.0971614
0.0971265
0.0971152
0.0971331
0.0971734
0.0971805
0.0971571
0.0971221
0.0970849
0.0970498
0.0970185
0.0969914
0.0969657
0.0969366
0.0969062
0.0968757
0.0968457
0.0968163
0.0967877
0.0967605
0.0967355
0.0967118
0.0966885
0.0966651
0.0966415
0.0966178
0.0965936
0.0965691
0.0965451
0.0965234
0.0965095
0.0965182
0.0965743
0.0966823
0.096756
0.0965151
0.0954015
0.0926429
0.0875769
0.0800491
0.0706616
0.0610472
0.0542952
0.0539694
0.0592486
0.0676703
0.0785069
0.0912901
0.105666
0.121076
0.136765
0.151826
0.165254
0.176037
0.183192
0.185813
0.183161
0.174566
0.159488
0.137018
0.107325
0.0664185
0.0294433
0.0583078
0.0921058
0.114797
0.11324
0.104042
0.0998669
0.0999051
0.0992677
0.0973618
0.0966771
0.0982672
0.0998657
0.0988854
0.096426
0.0955318
0.0964057
0.0972902
0.0974658
0.0973062
0.097201
0.0971425
0.097106
0.0970873
0.0970996
0.0971077
0.0970973
0.0970675
0.097023
0.0969869
0.0969516
0.0969238
0.0968975
0.0968713
0.0968469
0.0968248
0.0968033
0.0967815
0.0967598
0.096739
0.0967195
0.0967016
0.0966848
0.0966666
0.0966431
0.0966158
0.0966022
0.0966364
0.0967553
0.0969907
0.0973551
0.0977915
0.0980806
0.0978085
0.0963563
0.0930506
0.0874759
0.07986
0.0714067
0.0641629
0.059697
0.0586914
0.0621399
0.0693965
0.0793321
0.0911732
0.10446
0.118633
0.132884
0.146262
0.157779
0.166482
0.171511
0.172144
0.16782
0.158058
0.142515
0.120604
0.0928578
0.0565643
0.0250005
0.083295
0.0933088
0.105859
0.109938
0.107246
0.104226
0.102566
0.100834
0.0992112
0.098394
0.0982071
0.0981095
0.0977649
0.0970701
0.096546
0.0974901
0.0987438
0.0980055
0.0968469
0.0964445
0.0963935
0.0965666
0.0968549
0.0970792
0.0972093
0.0972882
0.0973322
0.0973092
0.0972242
0.097124
0.0970262
0.0969415
0.0968779
0.0968428
0.0968236
0.0968083
0.0967909
0.0967758
0.0967642
0.0967558
0.096751
0.0967486
0.0967418
0.0967218
0.0966903
0.0966785
0.096749
0.0969463
0.0973091
0.0978381
0.0984959
0.0989363
0.098773
0.0974679
0.0945134
0.0896813
0.0832486
0.0760195
0.0691629
0.0645634
0.0633181
0.0661101
0.0725359
0.0815768
0.0923999
0.104405
0.116938
0.129189
0.140279
0.149364
0.155677
0.158562
0.157479
0.152004
0.141779
0.12658
0.106014
0.0806938
0.0487327
0.0208076
0.0956357
0.0992361
0.106756
0.110726
0.109598
0.107269
0.105888
0.104849
0.103546
0.102095
0.100745
0.0996564
0.0989297
0.0980923
0.0971298
0.0971591
0.0977133
0.0979274
0.0977783
0.0973263
0.0969857
0.0968715
0.0969292
0.097109
0.0973013
0.0974159
0.097375
0.0971937
0.0970647
0.0969642
0.0968843
0.0968235
0.0967818
0.0967788
0.0968002
0.0968208
0.0968357
0.0968357
0.096826
0.0968147
0.0968041
0.096792
0.0967693
0.0967194
0.0966303
0.0965158
0.0964504
0.0965787
0.0969244
0.0974518
0.0980603
0.0984868
0.0983283
0.0970981
0.0943806
0.0900379
0.0843774
0.0782135
0.0727905
0.0695246
0.0692482
0.0721814
0.0779731
0.0859086
0.0952653
0.105415
0.115727
0.125514
0.134071
0.140739
0.144927
0.14613
0.143914
0.137927
0.127858
0.113518
0.0945898
0.0716586
0.0432337
0.0181864
0.104077
0.105911
0.109864
0.112035
0.11122
0.109612
0.108653
0.107978
0.107019
0.105827
0.104699
0.103709
0.102696
0.101374
0.0999999
0.0992919
0.0991618
0.0990317
0.098466
0.0975814
0.0969646
0.0967603
0.0968486
0.0970554
0.0972259
0.0973206
0.0973621
0.0973571
0.0972783
0.0971679
0.0970546
0.096953
0.0968722
0.0968292
0.0967827
0.0967381
0.0967153
0.0967168
0.096716
0.0967172
0.0967272
0.0967426
0.0967542
0.0967521
0.0967368
0.096736
0.0968158
0.0970565
0.0974656
0.0979862
0.0984962
0.0987626
0.0984547
0.0972325
0.094867
0.0913729
0.0871004
0.0827341
0.0791605
0.0772448
0.0775413
0.0801961
0.0849941
0.0914511
0.098987
0.107044
0.115083
0.122557
0.128915
0.133634
0.136237
0.136294
0.133423
0.127288
0.117582
0.104108
0.086562
0.065475
0.0394986
0.0165468
0.110887
0.111711
0.112948
0.113286
0.112499
0.111514
0.110855
0.110316
0.109649
0.108893
0.108168
0.107449
0.106589
0.105481
0.104314
0.10346
0.102946
0.102348
0.101378
0.100279
0.0994632
0.099023
0.0988325
0.0987415
0.0986556
0.0985542
0.0984359
0.0982738
0.0980569
0.0978404
0.097656
0.0975055
0.0973825
0.0973166
0.0974593
0.0975361
0.0975512
0.0975851
0.0976451
0.0977236
0.0978196
0.0979302
0.0980497
0.0981734
0.0983062
0.0984699
0.0987033
0.0990448
0.0994922
0.0999855
0.100406
0.10057
0.100248
0.0992316
0.0974074
0.0948395
0.0918126
0.0888144
0.0864467
0.0852895
0.0857436
0.0879305
0.0917035
0.0967175
0.102537
0.108718
0.114831
0.120436
0.125092
0.128361
0.12983
0.129109
0.125835
0.119675
0.110315
0.0975398
0.0810351
0.0612769
0.0369558
0.0155068
0.116764
0.11671
0.115795
0.114586
0.113763
0.113245
0.112769
0.112298
0.111856
0.111418
0.110967
0.11047
0.109871
0.109129
0.108324
0.107632
0.10709
0.106462
0.105595
0.104641
0.103841
0.103272
0.102873
0.10256
0.102283
0.102021
0.101762
0.10149
0.101213
0.100963
0.100761
0.100608
0.100513
0.100502
0.100594
0.100658
0.100696
0.100761
0.100864
0.100996
0.10115
0.101321
0.101507
0.101705
0.101917
0.102155
0.10244
0.102784
0.103174
0.103554
0.103825
0.103855
0.103494
0.102618
0.101175
0.0992362
0.0970197
0.0948729
0.0932146
0.0924446
0.0928445
0.0945099
0.0973496
0.101131
0.105541
0.110237
0.114866
0.119065
0.122457
0.124661
0.125303
0.124023
0.120471
0.114317
0.105239
0.0930051
0.0772761
0.0584696
0.0352868
0.0148299
0.122168
0.121179
0.118215
0.115672
0.114916
0.114827
0.114493
0.114085
0.11382
0.113602
0.113333
0.113007
0.112619
0.11214
0.111603
0.111112
0.110699
0.110226
0.109592
0.108872
0.108221
0.107715
0.107331
0.107016
0.106733
0.106462
0.106193
0.105925
0.105663
0.105425
0.105226
0.105075
0.104981
0.104951
0.104952
0.104999
0.105062
0.105142
0.105249
0.10538
0.10553
0.105693
0.105868
0.106051
0.106244
0.10645
0.106679
0.10693
0.107185
0.107399
0.107499
0.10739
0.106976
0.106179
0.104977
0.103436
0.101717
0.100073
0.0988015
0.0981893
0.0984456
0.0996551
0.101768
0.104624
0.107986
0.111577
0.115101
0.118244
0.12068
0.122072
0.122081
0.120374
0.116615
0.110482
0.101645
0.0898475
0.0747177
0.0566095
0.0342219
0.0143735
0.127398
0.125211
0.120017
0.116373
0.115909
0.116236
0.116008
0.115684
0.115599
0.115567
0.115445
0.115253
0.115012
0.114701
0.114339
0.114
0.113709
0.113375
0.112923
0.112398
0.111912
0.11153
0.11124
0.111003
0.110785
0.110572
0.110359
0.110145
0.109935
0.109743
0.10958
0.109457
0.109381
0.109351
0.109307
0.10934
0.1094
0.109465
0.109544
0.109641
0.109752
0.109871
0.109997
0.110126
0.110257
0.110393
0.110534
0.110677
0.110802
0.110876
0.110841
0.110631
0.110178
0.109434
0.108389
0.107099
0.10569
0.104349
0.103299
0.102757
0.102885
0.103755
0.105337
0.107509
0.110083
0.112831
0.115499
0.117816
0.119496
0.120243
0.11975
0.11771
0.113804
0.107713
0.0990977
0.0876754
0.0730302
0.0554501
0.0336039
0.0141043
0.132637
0.128788
0.121095
0.116704
0.116796
0.117487
0.117316
0.117102
0.117205
0.117342
0.117352
0.117281
0.11716
0.116975
0.11674
0.11651
0.116304
0.116062
0.11573
0.11534
0.114978
0.114694
0.114483
0.11431
0.114152
0.113997
0.113839
0.113681
0.113524
0.113379
0.113256
0.113161
0.113097
0.113054
0.113021
0.113039
0.113081
0.113126
0.113181
0.113248
0.113324
0.113406
0.113488
0.11357
0.113649
0.113725
0.113795
0.113855
0.113887
0.113863
0.11374
0.113468
0.112998
0.112299
0.111369
0.110256
0.109059
0.107923
0.107022
0.106522
0.106549
0.107162
0.108339
0.109983
0.111941
0.11402
0.116002
0.117652
0.11872
0.118945
0.118051
0.115754
0.111751
0.105726
0.0973261
0.0862417
0.0720028
0.0548336
0.0333211
0.0140221
0.138004
0.131835
0.12142
0.116761
0.117628
0.118591
0.118441
0.118365
0.118651
0.118933
0.119062
0.119103
0.119093
0.119019
0.118891
0.118752
0.118618
0.118447
0.118201
0.117908
0.117632
0.117415
0.117255
0.117127
0.117011
0.116896
0.11678
0.116661
0.116544
0.116434
0.116339
0.116265
0.116214
0.116176
0.116156
0.116166
0.116196
0.116231
0.116272
0.11632
0.116373
0.116428
0.116479
0.116526
0.116566
0.116597
0.116615
0.116615
0.11658
0.116489
0.116307
0.115997
0.115523
0.114863
0.114023
0.113041
0.111998
0.11101
0.110212
0.109735
0.109678
0.110086
0.11094
0.112162
0.113621
0.115154
0.116573
0.117674
0.11824
0.118039
0.116827
0.114338
0.110282
0.104344
0.0961577
0.0853838
0.0714934
0.0546537
0.033299
0.0141412
0.143576
0.134248
0.121029
0.116666
0.118429
0.119545
0.119412
0.119499
0.119955
0.120356
0.12059
0.120734
0.120823
0.120848
0.120816
0.120759
0.120694
0.120588
0.120417
0.120201
0.119994
0.119831
0.119712
0.119618
0.119534
0.11945
0.119364
0.119275
0.119187
0.119103
0.11903
0.118971
0.118927
0.118906
0.118893
0.118898
0.11892
0.118947
0.118977
0.119011
0.119046
0.11908
0.119108
0.119128
0.119137
0.119132
0.11911
0.119062
0.118978
0.118837
0.118613
0.118276
0.117803
0.117177
0.116405
0.115523
0.114595
0.113716
0.112991
0.112524
0.112392
0.112629
0.113218
0.11409
0.115136
0.116214
0.117166
0.117814
0.117971
0.117432
0.115975
0.113352
0.109282
0.103447
0.0954668
0.084977
0.071388
0.0548221
0.0334808
0.0144657
0.149395
0.13591
0.120015
0.116533
0.119194
0.120353
0.120258
0.120527
0.12113
0.12163
0.121956
0.122192
0.12237
0.122481
0.122532
0.12255
0.122549
0.122505
0.1224
0.122252
0.122105
0.12199
0.121908
0.121846
0.121791
0.121734
0.121673
0.121609
0.121545
0.121483
0.121428
0.121383
0.121351
0.121336
0.121327
0.12133
0.121346
0.121366
0.121388
0.12141
0.12143
0.121447
0.121455
0.121452
0.121435
0.121401
0.121344
0.121259
0.121134
0.120953
0.120695
0.120339
0.119865
0.119264
0.118545
0.117737
0.116895
0.116092
0.115415
0.114945
0.11474
0.114827
0.115188
0.115765
0.116464
0.117167
0.117736
0.11802
0.117854
0.117056
0.115421
0.112715
0.108659
0.102934
0.0951462
0.0849106
0.0715811
0.0552534
0.0338176
0.014977
0.155469
0.136713
0.118529
0.116455
0.119908
0.121027
0.121009
0.121462
0.122188
0.122771
0.12318
0.123498
0.123753
0.123939
0.124062
0.124148
0.124205
0.124216
0.124169
0.124081
0.123988
0.123916
0.123869
0.123836
0.123807
0.123775
0.123738
0.123697
0.123655
0.123612
0.123571
0.123539
0.123517
0.123506
0.1235
0.123503
0.123514
0.123529
0.123543
0.123555
0.123563
0.123564
0.123555
0.123533
0.123493
0.123432
0.123345
0.123226
0.123065
0.122849
0.122561
0.122185
0.121706
0.121121
0.120436
0.119679
0.118893
0.118139
0.117485
0.116995
0.116715
0.116665
0.116829
0.117158
0.117573
0.117974
0.118242
0.118245
0.117838
0.116854
0.1151
0.112349
0.108327
0.102711
0.0950946
0.0850805
0.071972
0.0558624
0.034265
0.0156309
0.161777
0.13658
0.116744
0.116479
0.120546
0.121587
0.121688
0.122315
0.123139
0.123794
0.124278
0.124669
0.124993
0.125244
0.125431
0.125575
0.125684
0.125746
0.125751
0.125714
0.125667
0.125634
0.125618
0.125612
0.125607
0.125598
0.125582
0.125561
0.125538
0.125512
0.125485
0.125464
0.12545
0.125443
0.12544
0.125442
0.12545
0.125459
0.125465
0.125467
0.125463
0.12545
0.125424
0.125381
0.125318
0.12523
0.125113
0.12496
0.124763
0.124511
0.12419
0.123789
0.123298
0.122713
0.122044
0.121313
0.120557
0.119824
0.11917
0.118647
0.118291
0.11812
0.118119
0.118248
0.11844
0.11861
0.118654
0.118456
0.11788
0.116772
0.114947
0.112182
0.108204
0.102688
0.0952198
0.0853947
0.0724719
0.0565692
0.0347851
0.0163727
0.168266
0.135502
0.11484
0.116617
0.121088
0.122056
0.12231
0.12309
0.123994
0.124713
0.125265
0.125721
0.126103
0.126412
0.126655
0.126851
0.127007
0.127113
0.127163
0.127172
0.127165
0.127165
0.127177
0.127195
0.127211
0.127221
0.127224
0.12722
0.127213
0.1272
0.127185
0.127172
0.127163
0.127158
0.127155
0.127154
0.127155
0.127155
0.12715
0.127139
0.127118
0.127086
0.127038
0.12697
0.126879
0.12676
0.126609
0.126418
0.126182
0.125891
0.125534
0.125102
0.124589
0.123994
0.123325
0.1226
0.121852
0.121121
0.120452
0.119889
0.119465
0.119192
0.119062
0.119041
0.119071
0.119077
0.118968
0.118634
0.11795
0.116767
0.114906
0.112147
0.108216
0.102788
0.0954455
0.0857796
0.0730123
0.057308
0.0353443
0.0171522
0.174854
0.133499
0.112979
0.116849
0.121528
0.122459
0.122883
0.123792
0.12476
0.125535
0.126146
0.126658
0.127092
0.12745
0.12774
0.127981
0.128178
0.128321
0.12841
0.128455
0.128482
0.128509
0.128543
0.128579
0.128612
0.128637
0.128652
0.128659
0.128665
0.128658
0.128647
0.128637
0.128627
0.128618
0.128608
0.128597
0.128585
0.128569
0.128547
0.128515
0.128472
0.128415
0.12834
0.128243
0.128119
0.127966
0.127778
0.127549
0.127274
0.126944
0.126552
0.12609
0.125553
0.124941
0.124263
0.123534
0.122783
0.122043
0.121355
0.120756
0.120276
0.119929
0.119706
0.11958
0.119501
0.119399
0.119191
0.118773
0.118026
0.116804
0.114931
0.112188
0.108305
0.102955
0.0957161
0.0861839
0.0735465
0.0580303
0.0359136
0.0179292
0.181449
0.130669
0.11127
0.117134
0.121867
0.12281
0.123405
0.124414
0.125428
0.126249
0.126908
0.127464
0.127937
0.128333
0.128661
0.128936
0.129164
0.129336
0.129452
0.129525
0.129576
0.129622
0.12967
0.129717
0.129759
0.129791
0.129812
0.129826
0.12983
0.12982
0.129807
0.129792
0.129774
0.129754
0.129731
0.129704
0.129674
0.129638
0.129594
0.12954
0.129473
0.129389
0.129286
0.12916
0.129007
0.128823
0.128603
0.128342
0.128034
0.127673
0.127252
0.126766
0.126209
0.125583
0.124894
0.124159
0.123401
0.122651
0.121946
0.12132
0.1208
0.120401
0.120117
0.119924
0.119776
0.119609
0.119342
0.118877
0.118097
0.11686
0.114989
0.11227
0.108431
0.103147
0.0959952
0.0865751
0.0740464
0.0587051
0.0364716
0.0186766
0.187957
0.127144
0.109785
0.117422
0.122113
0.123106
0.12385
0.124925
0.125969
0.12682
0.127511
0.128094
0.128593
0.129013
0.129364
0.129661
0.129908
0.130098
0.130232
0.130321
0.130385
0.130441
0.130496
0.130547
0.130591
0.130624
0.130646
0.130656
0.13065
0.130637
0.130619
0.130595
0.130565
0.130532
0.130495
0.130453
0.130406
0.130352
0.130289
0.130215
0.130127
0.130023
0.129899
0.129751
0.129576
0.129369
0.129126
0.128843
0.128513
0.128131
0.127692
0.127188
0.126618
0.125982
0.125287
0.124546
0.123782
0.123025
0.122307
0.121662
0.121117
0.120685
0.120364
0.12013
0.119941
0.119737
0.11944
0.118952
0.118159
0.11692
0.11506
0.112366
0.108567
0.10334
0.0962615
0.0869356
0.0744986
0.0593161
0.0370044
0.0193795
0.194303
0.12308
0.108563
0.117676
0.122274
0.123329
0.124178
0.125287
0.126343
0.12721
0.127917
0.128514
0.129027
0.12946
0.129823
0.130131
0.130388
0.130587
0.130729
0.130827
0.130897
0.130957
0.131013
0.131065
0.131108
0.131139
0.131159
0.131161
0.131152
0.131135
0.13111
0.131078
0.13104
0.130997
0.130949
0.130896
0.130837
0.130771
0.130695
0.130608
0.130507
0.13039
0.130252
0.13009
0.129902
0.129681
0.129425
0.129129
0.128787
0.128393
0.127943
0.127431
0.126854
0.126213
0.125514
0.12477
0.124003
0.12324
0.122514
0.121857
0.121296
0.120845
0.120502
0.120245
0.120035
0.119812
0.1195
0.119004
0.11821
0.116976
0.115132
0.112463
0.1087
0.103522
0.0965045
0.087258
0.0748992
0.0598577
0.0375034
0.0200333
0.200486
0.118747
0.107631
0.117868
0.122358
0.123461
0.124371
0.125492
0.126552
0.127426
0.12814
0.128745
0.129263
0.129702
0.130072
0.130385
0.130646
0.130849
0.130996
0.131097
0.13117
0.131232
0.131288
0.131339
0.131381
0.131411
0.131426
0.131429
0.131416
0.131395
0.131365
0.131328
0.131285
0.131237
0.131183
0.131124
0.131058
0.130985
0.130903
0.130809
0.130701
0.130577
0.130432
0.130263
0.130068
0.129841
0.129578
0.129275
0.128928
0.128529
0.128074
0.127559
0.126979
0.126336
0.125635
0.12489
0.124121
0.123355
0.122624
0.121961
0.12139
0.120928
0.120573
0.120304
0.120084
0.119853
0.119536
0.11904
0.11825
0.117027
0.115199
0.112553
0.108823
0.103687
0.0967216
0.0875426
0.0752514
0.0603321
0.0379657
0.020642
0.206649
0.114659
0.106996
0.117985
0.122375
0.12351
0.124449
0.125578
0.12664
0.127517
0.128235
0.128843
0.129364
0.129806
0.130178
0.130494
0.130758
0.130962
0.131111
0.131214
0.131288
0.13135
0.131407
0.131457
0.131498
0.131527
0.131542
0.131544
0.13153
0.131507
0.131476
0.131437
0.131391
0.13134
0.131284
0.131222
0.131154
0.131078
0.130993
0.130896
0.130785
0.130657
0.13051
0.130339
0.13014
0.129911
0.129646
0.129341
0.128991
0.128591
0.128135
0.127619
0.127039
0.126395
0.125695
0.124949
0.124179
0.123412
0.122678
0.122011
0.121435
0.120966
0.120605
0.120331
0.120106
0.119873
0.119557
0.119065
0.118282
0.11707
0.115259
0.112637
0.108936
0.103837
0.0969173
0.087797
0.0755662
0.0607523
0.0383972
0.0212249
0.212746
0.111453
0.1066
0.118034
0.122355
0.123503
0.124457
0.125592
0.126658
0.127537
0.128258
0.128867
0.12939
0.129834
0.130207
0.130525
0.130789
0.130995
0.131144
0.131247
0.131322
0.131385
0.131441
0.131491
0.131532
0.131561
0.131576
0.131578
0.131564
0.131541
0.131509
0.13147
0.131424
0.131372
0.131315
0.131252
0.131183
0.131107
0.131021
0.130923
0.130811
0.130683
0.130535
0.130363
0.130164
0.129934
0.129669
0.129364
0.129014
0.128615
0.128159
0.127644
0.127064
0.126422
0.125722
0.124977
0.124207
0.123438
0.122703
0.122033
0.121454
0.120982
0.120617
0.120341
0.120115
0.119883
0.11957
0.119083
0.118309
0.11711
0.115316
0.112715
0.109042
0.103978
0.0971007
0.0880342
0.07586
0.0611407
0.0388097
0.0218151
0.217473
0.10951
0.106375
0.118061
0.122333
0.123479
0.124441
0.125582
0.12665
0.127532
0.128254
0.128864
0.129388
0.129832
0.130206
0.130523
0.130788
0.130994
0.131143
0.131247
0.131323
0.131385
0.131442
0.131493
0.131534
0.131563
0.131579
0.131581
0.131567
0.131543
0.131511
0.131472
0.131426
0.131374
0.131318
0.131255
0.131186
0.131109
0.131024
0.130926
0.130815
0.130687
0.130538
0.130367
0.130168
0.129939
0.129674
0.12937
0.129021
0.128622
0.128168
0.127653
0.127075
0.126433
0.125734
0.12499
0.12422
0.123451
0.122715
0.122043
0.121462
0.120988
0.120621
0.120344
0.120118
0.119888
0.119578
0.119097
0.118332
0.117145
0.115366
0.112784
0.109136
0.104103
0.097263
0.0882437
0.0761182
0.0614835
0.0391687
0.0223771
)
;

boundaryField
{
    inlet
    {
        type            zeroGradient;
    }
    outlet
    {
        type            fixedValue;
        value           uniform 0;
    }
    fixedWalls
    {
        type            zeroGradient;
    }
    frontAndBack
    {
        type            empty;
    }
}


// ************************************************************************* //
