/*--------------------------------*- C++ -*----------------------------------*\
| =========                 |                                                 |
| \\      /  F ield         | OpenFOAM: The Open Source CFD Toolbox           |
|  \\    /   O peration     | Version:  v1912                                 |
|   \\  /    A nd           | Website:  www.openfoam.com                      |
|    \\/     M anipulation  |                                                 |
\*---------------------------------------------------------------------------*/
FoamFile
{
    version     2.0;
    format      ascii;
    class       surfaceScalarField;
    location    "875";
    object      phi;
}
// * * * * * * * * * * * * * * * * * * * * * * * * * * * * * * * * * * * * * //

dimensions      [0 3 -1 0 0 0 0];
oriented        oriented;


internalField   nonuniform List<scalar> 
3895
(
0.000814746
0.00038143
0.000499361
0.000315385
0.000251565
0.000247796
6.4863e-05
0.000186702
-6.21962e-05
0.000127059
-0.000127327
6.51304e-05
-0.000137639
1.0312e-05
-0.000113632
-2.40063e-05
-9.03514e-05
-2.32808e-05
-8.49475e-05
-5.4039e-06
-6.61299e-05
-1.88176e-05
-4.4746e-05
-2.1384e-05
-4.04648e-05
-4.28115e-06
-4.86701e-05
8.20531e-06
-4.57109e-05
-2.95919e-06
-3.20512e-05
-1.36597e-05
-2.51394e-05
-6.91177e-06
-2.59221e-05
7.82645e-07
-2.89437e-05
3.02162e-06
-3.04875e-05
1.5438e-06
-2.9186e-05
-1.30145e-06
-2.49002e-05
-4.28583e-06
-1.85795e-05
-6.32074e-06
-1.19746e-05
-6.60483e-06
-6.19924e-06
-5.7754e-06
-1.89543e-06
-4.30381e-06
8.48868e-07
-2.7443e-06
2.45821e-06
-1.60934e-06
3.51204e-06
-1.05383e-06
4.41756e-06
-9.05522e-07
5.30307e-06
-8.85505e-07
6.14495e-06
-8.41882e-07
6.92572e-06
-7.80767e-07
7.61065e-06
-6.84937e-07
8.12873e-06
-5.18077e-07
8.41429e-06
-2.85555e-07
8.41697e-06
-2.68601e-09
8.04248e-06
3.74499e-07
7.29767e-06
7.44809e-07
6.13741e-06
1.16026e-06
4.47789e-06
1.65951e-06
2.20607e-06
2.27183e-06
-8.05802e-07
3.01187e-06
-4.6839e-06
3.8781e-06
-9.5425e-06
4.8586e-06
-1.55249e-05
5.9824e-06
-2.29498e-05
7.42493e-06
-3.25063e-05
9.55646e-06
-4.55032e-05
1.29969e-05
-6.4077e-05
1.85738e-05
-9.11216e-05
2.70446e-05
-0.000129673
3.85518e-05
-0.00018207
5.23962e-05
-0.000249244
6.7174e-05
-0.000329854
8.06108e-05
-0.000419475
8.9621e-05
-0.000510795
9.13199e-05
-0.000594931
8.41358e-05
-0.000663013
6.80818e-05
-0.000706298
4.32856e-05
-0.000713819
7.52024e-06
-0.000696068
-1.77503e-05
-0.000657371
-3.86978e-05
-0.0006013
-5.60704e-05
-0.000531753
-6.95474e-05
-0.000451763
-7.99896e-05
-0.000363308
-8.8455e-05
-0.000267921
-9.53875e-05
-0.000167199
-0.000100721
-6.28375e-05
-0.000104362
4.31945e-05
-0.000106032
0.000148919
-0.000105724
0.000252744
-0.000103825
0.0003533
-0.000100556
0.000449687
-9.6387e-05
0.000541819
-9.21323e-05
0.000629942
-8.81226e-05
0.000717182
-8.72404e-05
0.000803892
-8.67103e-05
-0.00010745
0.00108795
0.000349294
0.00104738
0.000355946
0.000933278
0.000361903
0.000775747
0.000344233
0.000598431
0.000304375
0.000410383
0.000253178
0.000221248
0.000199447
5.3877e-05
0.000143365
-6.04246e-05
9.10208e-05
-0.000110188
4.43598e-05
-0.000131882
2.87637e-06
-0.000123968
-2.92983e-05
-0.000105671
-2.25783e-05
-0.000107783
1.03173e-05
-0.000103374
-7.36775e-06
-9.07474e-05
-2.62865e-05
-7.67534e-05
-2.09057e-05
-7.88643e-05
2.89345e-06
-8.71307e-05
1.12881e-05
-9.26314e-05
7.04451e-06
-9.45867e-05
6.53792e-07
-9.096e-05
-7.9125e-06
-8.48056e-05
-1.24752e-05
-7.8066e-05
-1.33444e-05
-7.15004e-05
-1.2341e-05
-6.58391e-05
-9.9651e-06
-6.17011e-05
-6.88234e-06
-5.95464e-05
-3.76394e-06
-5.92525e-05
-1.34782e-06
-6.03227e-05
1.64726e-07
-6.25554e-05
1.34722e-06
-6.52686e-05
1.87133e-06
-6.8153e-05
2.10357e-06
-7.11254e-05
2.28752e-06
-7.43128e-05
2.66933e-06
-7.78627e-05
3.26426e-06
-8.1894e-05
4.02867e-06
-8.64456e-05
4.92613e-06
-9.16321e-05
5.93122e-06
-9.75024e-05
7.03064e-06
-0.000104069
8.22632e-06
-0.00011133
9.53213e-06
-0.000119272
1.09542e-05
-0.000127861
1.24677e-05
-0.000137018
1.4015e-05
-0.000146611
1.55754e-05
-0.000156525
1.73394e-05
-0.000166754
1.97849e-05
-0.000177414
2.36572e-05
-0.000188644
2.98041e-05
-0.000200661
3.9061e-05
-0.000213789
5.16802e-05
-0.000228069
6.66761e-05
-0.000242669
8.17741e-05
-0.000255428
9.33693e-05
-0.000262491
9.66839e-05
-0.000259053
8.78819e-05
-0.000240984
6.60673e-05
-0.000207018
3.4116e-05
-0.000166076
2.34292e-06
-0.000119502
-3.90532e-05
-6.7562e-05
-6.96905e-05
-1.30514e-05
-9.32084e-05
4.3085e-05
-0.000112207
0.000102451
-0.000128914
0.000166282
-0.00014382
0.000234497
-0.00015667
0.000306076
-0.000166967
0.000379495
-0.00017414
0.000452972
-0.000177839
0.000524966
-0.000178026
0.000594227
-0.000174985
0.000659674
-0.000169272
0.000720727
-0.000161609
0.000777218
-0.000152878
0.000829251
-0.000144165
0.000877688
-0.000136559
0.00092256
-0.000132112
0.000966585
-0.000130735
-0.000142021
0.000975282
0.000305926
0.00102604
0.000305187
0.00106097
0.000326974
0.00105862
0.000346584
0.00101217
0.00035082
0.000925048
0.000340304
0.000805752
0.000318743
0.000661765
0.000287352
0.000504928
0.000247857
0.000345844
0.000203445
0.000190168
0.000158552
4.70572e-05
0.000113812
-4.98375e-05
7.43164e-05
-8.59848e-05
4.64646e-05
-0.00010587
1.25171e-05
-0.000113874
-1.82823e-05
-0.00010187
-3.29093e-05
-9.15499e-05
-7.42694e-06
-9.9002e-05
1.87402e-05
-0.000108459
1.65018e-05
-0.000114965
7.15992e-06
-0.000119603
-3.2747e-06
-0.000121683
-1.03954e-05
-0.000120589
-1.44379e-05
-0.000118967
-1.3963e-05
-0.000118704
-1.02288e-05
-0.000120397
-5.18887e-06
-0.000124217
5.60145e-08
-0.000128298
2.7332e-06
-0.000132809
4.67577e-06
-0.000137346
5.88437e-06
-0.000141947
6.47137e-06
-0.000146486
6.64341e-06
-0.000150871
6.67197e-06
-0.000155157
6.95558e-06
-0.000159503
7.6103e-06
-0.000164005
8.53094e-06
-0.000168649
9.56992e-06
-0.000173364
1.06462e-05
-0.00017807
1.17365e-05
-0.000182677
1.28337e-05
-0.000187091
1.39456e-05
-0.000191201
1.50641e-05
-0.000194821
1.60876e-05
-0.000197593
1.67874e-05
-0.000198853
1.68356e-05
-0.000197568
1.60537e-05
-0.000192721
1.4938e-05
-0.000183327
1.42639e-05
-0.000168315
1.47916e-05
-0.000146297
1.70434e-05
-0.000116542
2.1925e-05
-7.82097e-05
2.83437e-05
-3.07066e-05
3.42711e-05
2.56462e-05
3.70166e-05
8.82659e-05
3.40641e-05
0.000152621
2.35268e-05
0.000212463
6.22507e-06
0.000267166
-2.05865e-05
0.000319178
-4.96696e-05
0.000361597
-8.14725e-05
0.000402697
-0.00011079
0.00044597
-0.000136481
0.000492998
-0.000159235
0.000543306
-0.000179222
0.000595533
-0.000196048
0.000647973
-0.00020911
0.000698913
-0.000217907
0.000746939
-0.000222165
0.000791015
-0.000221916
0.000830509
-0.00021752
0.000865148
-0.000209624
0.000894961
-0.000199086
0.000920247
-0.000186895
0.000941484
-0.000174115
0.000959177
-0.000161858
0.000973929
-0.000151311
0.000985617
-0.000143801
0.000995307
-0.000140425
-0.000144851
0.000857109
0.000271374
0.000897355
0.000264941
0.000950164
0.000274165
0.00100471
0.000292042
0.00104637
0.000309153
0.00106531
0.000321372
0.00105664
0.000327411
0.00101794
0.000326054
0.000949552
0.000316241
0.00085508
0.000297917
0.000740895
0.000272737
0.000611932
0.000242776
0.000476494
0.000209754
0.000348327
0.000174632
0.000223535
0.00013731
0.000102247
0.000103006
-1.42802e-07
6.948e-05
-5.16325e-05
4.40627e-05
-6.28829e-05
2.99906e-05
-6.47482e-05
1.83671e-05
-6.70998e-05
9.51152e-06
-7.30062e-05
2.63173e-06
-8.04691e-05
-2.93259e-06
-8.89928e-05
-5.91418e-06
-9.63388e-05
-6.61697e-06
-0.000101832
-4.73591e-06
-0.000106785
-2.35144e-07
-0.000112143
5.41343e-06
-0.000117726
8.31609e-06
-0.000122873
9.82276e-06
-0.000127253
1.02645e-05
-0.000130796
1.00147e-05
-0.00013357
9.41689e-06
-0.000135403
8.50489e-06
-0.00013662
8.17327e-06
-0.000137315
8.30476e-06
-0.000137531
8.7472e-06
-0.000136983
9.02153e-06
-0.000135515
9.17888e-06
-0.00013301
9.23122e-06
-0.000129328
9.15132e-06
-0.000124308
8.92553e-06
-0.000117815
8.57125e-06
-0.000109673
7.94643e-06
-9.96365e-05
6.75049e-06
-8.74844e-05
4.68351e-06
-7.22988e-05
8.6807e-07
-5.41573e-05
-3.20347e-06
-3.19585e-05
-7.93485e-06
-4.18148e-06
-1.29855e-05
3.0461e-05
-1.75991e-05
7.39549e-05
-2.15689e-05
0.000127091
-2.47921e-05
0.00018922
-2.78587e-05
0.000258247
-3.20104e-05
0.000331162
-3.88509e-05
0.000404587
-4.98977e-05
0.000476901
-6.60892e-05
0.000543799
-8.74841e-05
0.000605989
-0.000111859
0.000661999
-0.000137483
0.000713532
-0.000162323
0.000761909
-0.000184857
0.000807048
-0.000204374
0.000848193
-0.000220367
0.000884468
-0.000232323
0.000915174
-0.000239816
0.000939917
-0.00024265
0.000958674
-0.000240921
0.000971764
-0.000235006
0.000979775
-0.000225531
0.000983458
-0.000213307
0.00098363
-0.000199258
0.000981084
-0.000184349
0.000976514
-0.000169545
0.000970435
-0.000155779
0.000963142
-0.000144019
0.00095447
-0.000135128
0.000944275
-0.000130231
-0.000130305
0.000759397
0.000238011
0.000790536
0.000233802
0.000828351
0.000236349
0.000874985
0.000245408
0.000927002
0.000257137
0.000978871
0.000269503
0.00102441
0.000281869
0.00105755
0.000292918
0.00107319
0.000300602
0.00106786
0.000303244
0.00104042
0.000300179
0.000991565
0.000291629
0.000923239
0.000278079
0.00083886
0.000259011
0.000741525
0.000234645
0.000636635
0.000207896
0.00053215
0.000173965
0.0004339
0.000142313
0.000348944
0.000114947
0.000276029
9.12813e-05
0.000213746
7.17947e-05
0.000160426
5.59518e-05
0.000114127
4.33669e-05
7.45211e-05
3.36914e-05
4.16988e-05
2.62054e-05
1.65711e-05
2.03918e-05
3.22295e-07
1.60137e-05
-7.29488e-06
1.30306e-05
-9.52293e-06
1.05441e-05
-8.29586e-06
8.59569e-06
-4.98552e-06
6.95419e-06
-4.41173e-07
5.47037e-06
4.92849e-06
4.04723e-06
1.07956e-05
2.63779e-06
1.71673e-05
1.80155e-06
2.46992e-05
7.72848e-07
3.392e-05
-4.73637e-07
4.47662e-05
-1.82465e-06
5.75393e-05
-3.59423e-06
7.25055e-05
-5.73496e-06
8.99383e-05
-8.28145e-06
0.000110127
-1.12629e-05
0.000133398
-1.46999e-05
0.000159995
-1.86507e-05
0.000189972
-2.32262e-05
0.000223216
-2.85609e-05
0.0002588
-3.4716e-05
0.000297005
-4.14083e-05
0.000337542
-4.84715e-05
0.000380227
-5.56705e-05
0.000425275
-6.26479e-05
0.000472886
-6.91798e-05
0.000523418
-7.53235e-05
0.000577025
-8.1466e-05
0.000633365
-8.83504e-05
0.000691431
-9.69171e-05
0.00074956
-0.000108026
0.000805583
-0.000122113
0.000857088
-0.000138989
0.000902909
-0.00015768
0.000942274
-0.000176848
0.000975037
-0.000195086
0.00100129
-0.000211111
0.00102097
-0.000224052
0.00103398
-0.000233383
0.00104044
-0.000238782
0.00104073
-0.000240104
0.00103551
-0.000237428
0.00102565
-0.000231063
0.00101216
-0.000221518
0.000996084
-0.00020945
0.000978384
-0.000195606
0.000959897
-0.000180771
0.00094127
-0.000165722
0.000922932
-0.000151207
0.000905076
-0.000137922
0.000887634
-0.000126577
0.000870231
-0.000117725
0.000852224
-0.000112225
-0.000110206
0.000672433
0.000206414
0.000702275
0.000203961
0.000733372
0.000205252
0.000767839
0.00021094
0.000806614
0.000218362
0.000850036
0.000226081
0.000897301
0.000234604
0.000946031
0.000244187
0.000992641
0.000253992
0.00103305
0.000262834
0.00106349
0.000269743
0.00108117
0.000273948
0.00108444
0.000274805
0.00107207
0.000271381
0.0010437
0.000263018
0.00100103
0.000250564
0.000949032
0.000225965
0.000891656
0.000199689
0.0008319
0.000174702
0.000772157
0.000151025
0.000714624
0.000129327
0.000660589
0.000109987
0.000610855
9.31011e-05
0.000566011
7.85356e-05
0.000526258
6.59575e-05
0.000491577
5.50728e-05
0.00046194
4.56515e-05
0.000437559
3.74109e-05
0.000418096
3.0007e-05
0.00040333
2.33622e-05
0.000392943
1.73406e-05
0.000386594
1.18201e-05
0.000384002
6.63866e-06
0.000385351
1.2887e-06
0.000390339
-3.18583e-06
0.000398997
-7.88497e-06
0.000411174
-1.26507e-05
0.000426781
-1.7432e-05
0.00044555
-2.23633e-05
0.000467292
-2.74775e-05
0.000491798
-3.27873e-05
0.000518849
-3.83135e-05
0.000548228
-4.40786e-05
0.00057969
-5.0113e-05
0.00061292
-5.6456e-05
0.000647493
-6.31339e-05
0.000682897
-7.01206e-05
0.000718766
-7.72774e-05
0.000754716
-8.44211e-05
0.000790408
-9.13629e-05
0.000825677
-9.79167e-05
0.000860487
-0.00010399
0.000894843
-0.000109679
0.000928677
-0.0001153
0.000961694
-0.000121368
0.000993268
-0.000128491
0.00102243
-0.000137188
0.00104801
-0.000147692
0.00106884
-0.000159818
0.00108407
-0.00017291
0.0010932
-0.00018598
0.00109608
-0.000197971
0.00109291
-0.00020794
0.00108408
-0.000215215
0.00107011
-0.000219419
0.00105173
-0.000220396
0.00102978
-0.000218158
0.00100524
-0.000212884
0.000979077
-0.000204905
0.000952233
-0.000194674
0.000925509
-0.000182727
0.000899546
-0.000169643
0.000874792
-0.000156017
0.000851498
-0.000142428
0.000829728
-0.000129438
0.000809364
-0.000117558
0.000790108
-0.000107321
0.000771442
-9.90594e-05
0.000752728
-9.35111e-05
-9.02225e-05
0.000594386
0.000177665
0.00062317
0.000175177
0.000652323
0.000176099
0.000682115
0.000181149
0.000712924
0.000187552
0.000745613
0.000193392
0.000781181
0.000199036
0.000820193
0.000205175
0.000862411
0.000211774
0.000906707
0.000218538
0.000951215
0.000225234
0.000993659
0.000231504
0.00103171
0.000236754
0.00106298
0.000240113
0.0010853
0.000240697
0.00109753
0.000238336
0.00109977
0.000223726
0.00109369
0.000205769
0.00108083
0.000187563
0.00106268
0.000169174
0.00104092
0.000151081
0.00101711
0.000133796
0.00099259
0.000117626
0.00096844
0.000102686
0.00094545
8.89472e-05
0.000924198
7.63245e-05
0.000905135
6.47149e-05
0.00088858
5.39655e-05
0.000874672
4.39156e-05
0.00086355
3.4484e-05
0.000855293
2.5598e-05
0.000849943
1.717e-05
0.000847488
9.09353e-06
0.000847362
1.41493e-06
0.000850285
-6.10964e-06
0.000855726
-1.33251e-05
0.000863505
-2.04304e-05
0.000873479
-2.74055e-05
0.000885389
-3.42732e-05
0.000898974
-4.1063e-05
0.000913975
-4.77878e-05
0.000930118
-5.44566e-05
0.000947119
-6.10801e-05
0.000964677
-6.76709e-05
0.000982461
-7.42395e-05
0.00100011
-8.07813e-05
0.00101724
-8.72563e-05
0.00103354
-9.3569e-05
0.00104871
-9.95913e-05
0.00106255
-0.000105204
0.00107495
-0.000110325
0.00108591
-0.000114948
0.00109543
-0.0001192
0.00110349
-0.000123351
0.00110991
-0.000127789
0.00111435
-0.000132935
0.00111629
-0.000139127
0.00111509
-0.000146494
0.00111014
-0.000154869
0.00110101
-0.000163775
0.00108754
-0.000172511
0.00106989
-0.00018032
0.00104848
-0.00018653
0.00102392
-0.000190652
0.000996902
-0.000192406
0.000968194
-0.000191688
0.000938563
-0.000188528
0.000908753
-0.000183074
0.00087942
-0.000175572
0.000851104
-0.000166357
0.000824197
-0.00015582
0.000798946
-0.000144393
0.000775459
-0.000132529
0.000753714
-0.000120684
0.000733584
-0.000109308
0.000714832
-9.88062e-05
0.000697127
-8.96149e-05
0.000679964
-8.18965e-05
0.000662874
-7.6421e-05
-7.20153e-05
0.000525111
0.000151816
0.000551936
0.000148352
0.000579146
0.000148889
0.000606467
0.000153827
0.000634006
0.000160013
0.000661953
0.000165445
0.000690628
0.000170362
0.000720605
0.000175198
0.000752535
0.000179845
0.000786873
0.000184199
0.000823722
0.000188386
0.00086273
0.000192496
0.00090308
0.000196403
0.000943486
0.000199707
0.000982309
0.000201875
0.00101803
0.000202617
0.00104832
0.000193431
0.00107278
0.000181313
0.00109162
0.000168723
0.00110524
0.000155555
0.00111427
0.000142044
0.00111951
0.000128558
0.00112176
0.000115376
0.00112179
0.000102653
0.00112029
9.04513e-05
0.00111783
7.87798e-05
0.00111493
6.76216e-05
0.00111196
5.69338e-05
0.00110921
4.666e-05
0.00110693
3.67672e-05
0.00110529
2.72379e-05
0.00110441
1.8047e-05
0.00110433
9.18126e-06
0.00110496
7.86705e-07
0.0011064
-7.55728e-06
0.00110848
-1.54051e-05
0.00111107
-2.30215e-05
0.00111407
-3.04053e-05
0.00111735
-3.75494e-05
0.00112075
-4.44654e-05
0.00112413
-5.11613e-05
0.00112731
-5.76401e-05
0.00113014
-6.39058e-05
0.00113243
-6.9964e-05
0.00113401
-7.58172e-05
0.00113468
-8.14568e-05
0.00113428
-8.68522e-05
0.00113265
-9.19447e-05
0.00112972
-9.66604e-05
0.00112546
-0.000100939
0.00111989
-0.000104758
0.0011131
-0.000108158
0.00110517
-0.000111272
0.00109615
-0.000114325
0.00108597
-0.000117611
0.00107447
-0.000121432
0.00106136
-0.000126019
0.00104631
-0.00013145
0.00102904
-0.000137592
0.00100937
-0.000144104
0.000987338
-0.000150484
0.000963198
-0.000156179
0.00093735
-0.000160682
0.0009103
-0.000163602
0.000882585
-0.00016469
0.000854726
-0.000163828
0.000827201
-0.000161004
0.00080042
-0.000156293
0.000774703
-0.000149856
0.000750273
-0.000141927
0.000727258
-0.000132804
0.000705699
-0.000122834
0.000685568
-0.000112398
0.000666778
-0.000101894
0.00064919
-9.17202e-05
0.00063261
-8.2226e-05
0.000616782
-7.37869e-05
0.000601313
-6.64269e-05
0.000585873
-6.09816e-05
-5.55319e-05
0.00046394
0.000128551
0.000488639
0.000123652
0.00051348
0.000124049
0.000538159
0.000129148
0.000563122
0.00013505
0.000588445
0.000140122
0.00061397
0.000144837
0.000639764
0.000149404
0.000666083
0.000153526
0.000693245
0.000157037
0.00072161
0.00016002
0.00075152
0.000162587
0.00078317
0.000164753
0.000816474
0.000166403
0.000850999
0.00016735
0.000886112
0.000167504
0.000919682
0.000159861
0.000950826
0.00015017
0.000979171
0.000140378
0.00100445
0.000130274
0.00102659
0.000119902
0.0010457
0.000109452
0.00106199
9.90856e-05
0.00107575
8.88976e-05
0.00108727
7.89302e-05
0.00109685
6.91965e-05
0.00110477
5.96985e-05
0.00111128
5.04269e-05
0.00111657
4.13659e-05
0.00112083
3.25122e-05
0.00112419
2.3878e-05
0.00112676
1.54769e-05
0.00112861
7.327e-06
0.00112982
-4.18679e-07
0.00113032
-8.06177e-06
0.00113018
-1.52658e-05
0.00112937
-2.22092e-05
0.00112787
-2.89e-05
0.00112565
-3.53298e-05
0.00112268
-4.1499e-05
0.00111893
-4.74114e-05
0.00111436
-5.30693e-05
0.00110893
-5.84757e-05
0.0011026
-6.36348e-05
0.00109533
-6.85486e-05
0.00108709
-7.32116e-05
0.00107784
-7.76056e-05
0.00106759
-8.16976e-05
0.00105638
-8.54489e-05
0.00104428
-8.8834e-05
0.00103138
-9.18599e-05
0.0010178
-9.45825e-05
0.00100365
-9.71207e-05
0.000988982
-9.9656e-05
0.000973783
-0.000102411
0.000957958
-0.000105608
0.000941348
-0.000109409
0.000923764
-0.000113866
0.000905047
-0.000118876
0.000885127
-0.000124183
0.000864052
-0.000129409
0.000841995
-0.000134122
0.000819222
-0.000137909
0.000796049
-0.000140429
0.000772797
-0.000141438
0.00074976
-0.000140792
0.00072719
-0.000138433
0.000705285
-0.000134387
0.000684187
-0.000128757
0.000663983
-0.000121724
0.000644716
-0.000113537
0.000626391
-0.000104508
0.000608984
-9.49911e-05
0.000592451
-8.53603e-05
0.000576722
-7.59913e-05
0.000561693
-6.71976e-05
0.000547207
-5.93005e-05
0.000532998
-5.22181e-05
0.000518783
-4.67668e-05
-4.04667e-05
0.000410014
0.000107501
0.000432754
0.000100912
0.000455183
0.00010162
0.000477152
0.000107179
0.000499455
0.000112747
0.000522203
0.000117374
0.000545203
0.000121836
0.00056844
0.000126167
0.00059194
0.000130026
0.000615686
0.00013329
0.000639722
0.000135985
0.000664189
0.000138119
0.000689281
0.000139662
0.000715152
0.000140532
0.000741864
0.000140638
0.000769388
0.000139981
0.000796435
0.000132815
0.000822522
0.000124082
0.000847429
0.000115472
0.000870887
0.000106815
0.000892682
9.81077e-05
0.000912687
8.94467e-05
0.000930853
8.09202e-05
0.000947182
7.25687e-05
0.000961713
6.43992e-05
0.000974505
5.64039e-05
0.000985632
4.8572e-05
0.000995168
4.0891e-05
0.00100318
3.33492e-05
0.00100975
2.59464e-05
0.00101493
1.86968e-05
0.00101879
1.1622e-05
0.00102136
4.74966e-06
0.0010228
-1.8542e-06
0.00102303
-8.29674e-06
0.00102222
-1.44521e-05
0.00102037
-2.03616e-05
0.00101752
-2.60471e-05
0.0010137
-3.15058e-05
0.00100893
-3.67344e-05
0.00100325
-4.17349e-05
0.000996696
-4.65102e-05
0.000989283
-5.10632e-05
0.000981046
-5.53971e-05
0.00097201
-5.95133e-05
0.000962207
-6.3408e-05
0.000951671
-6.70695e-05
0.000940451
-7.04779e-05
0.000928614
-7.36122e-05
0.000916243
-7.64629e-05
0.00090343
-7.90469e-05
0.000890267
-8.14192e-05
0.000876826
-8.36804e-05
0.000863146
-8.59753e-05
0.000849211
-8.84759e-05
0.000834952
-9.13494e-05
0.00082026
-9.47171e-05
0.000805007
-9.86125e-05
0.000789084
-0.000102953
0.000772435
-0.000107534
0.00075508
-0.000112053
0.000737111
-0.000116154
0.000718681
-0.00011948
0.000699971
-0.000121719
0.000681163
-0.000122631
0.000662424
-0.000122052
0.000643892
-0.000119901
0.000625677
-0.000116172
0.000607861
-0.000110942
0.000590505
-0.000104367
0.000573652
-9.66843e-05
0.000557337
-8.81936e-05
0.000541589
-7.92428e-05
0.000526428
-7.01992e-05
0.000511858
-6.14218e-05
0.000497859
-5.31983e-05
0.000484345
-4.57865e-05
0.000471164
-3.90374e-05
0.000457999
-3.36019e-05
-2.67689e-05
0.000362528
8.82933e-05
0.000383496
7.99438e-05
0.000403597
8.15192e-05
0.000423064
8.77118e-05
0.00044288
9.29311e-05
0.000463078
9.71768e-05
0.000483524
0.00010139
0.000504297
0.000105394
0.00052542
0.000108903
0.000546805
0.000111905
0.000568367
0.000114423
0.000590058
0.000116428
0.000611865
0.000117854
0.000633785
0.000118613
0.000655814
0.000118608
0.000677971
0.000117824
0.000699348
0.000111438
0.00071975
0.000103679
0.00073919
9.60324e-05
0.000757603
8.84024e-05
0.00077491
8.08e-05
0.000791051
7.33059e-05
0.000805982
6.59894e-05
0.000819674
5.88769e-05
0.000832108
5.19649e-05
0.000843275
4.52368e-05
0.000853173
3.8674e-05
0.000861806
3.22584e-05
0.000869181
2.59742e-05
0.000875311
1.98163e-05
0.000880216
1.37922e-05
0.000883921
7.91636e-06
0.000886471
2.2e-06
0.000887935
-3.31795e-06
0.000888331
-8.69265e-06
0.000887746
-1.38674e-05
0.00088622
-1.88359e-05
0.000883789
-2.36157e-05
0.000880493
-2.82097e-05
0.000876374
-3.26154e-05
0.000871472
-3.68336e-05
0.000865829
-4.08668e-05
0.000859483
-4.4717e-05
0.000852472
-4.83859e-05
0.000844831
-5.18731e-05
0.000836598
-5.51746e-05
0.000827809
-5.82808e-05
0.000818509
-6.11779e-05
0.00080875
-6.38529e-05
0.000798591
-6.63037e-05
0.000788094
-6.85498e-05
0.000777316
-7.06415e-05
0.0007663
-7.26647e-05
0.000755063
-7.47382e-05
0.000743587
-7.70002e-05
0.000731821
-7.95829e-05
0.000719684
-8.25803e-05
0.000707087
-8.60153e-05
0.00069395
-8.98166e-05
0.000680228
-9.38124e-05
0.00066592
-9.77455e-05
0.000651074
-0.000101307
0.000635771
-0.000104177
0.000620117
-0.000106065
0.000604219
-0.000106732
0.000588176
-0.000106009
0.000572078
-0.000103803
0.000556006
-0.000100101
0.000540038
-9.49729e-05
0.000524248
-8.85779e-05
0.000508718
-8.11539e-05
0.00049353
-7.30056e-05
0.000478768
-6.44811e-05
0.00046451
-5.59413e-05
0.000450814
-4.77255e-05
0.000437712
-4.00962e-05
0.000425161
-3.32358e-05
0.000413095
-2.69708e-05
0.000401119
-2.16265e-05
-1.46377e-05
0.000320758
7.05686e-05
0.000340087
6.06147e-05
0.000357962
6.3644e-05
0.000375206
7.04679e-05
0.000392819
7.53176e-05
0.00041069
7.93065e-05
0.000428757
8.33231e-05
0.000447162
8.69891e-05
0.000465939
9.01263e-05
0.000485023
9.28205e-05
0.000504347
9.50997e-05
0.000523846
9.69281e-05
0.000543446
9.82545e-05
0.000563056
9.90022e-05
0.000582581
9.90828e-05
0.000601945
9.84602e-05
0.000620301
9.30824e-05
0.000637492
8.64873e-05
0.000653584
7.99405e-05
0.000668602
7.33845e-05
0.00068256
6.68425e-05
0.000695474
6.03921e-05
0.000707363
5.41003e-05
0.000718243
4.79964e-05
0.000728128
4.20802e-05
0.000737026
3.63387e-05
0.000744945
3.07551e-05
0.000751891
2.53124e-05
0.00075787
1.9995e-05
0.000762891
1.47959e-05
0.000766964
9.71914e-06
0.000770105
4.7751e-06
0.00077235
-4.47311e-08
0.000773729
-4.69694e-06
0.000774264
-9.2282e-06
0.000773997
-1.35999e-05
0.000772962
-1.7801e-05
0.000771188
-2.18415e-05
0.000768705
-2.57266e-05
0.000765545
-2.94557e-05
0.00076174
-3.30285e-05
0.00075732
-3.64469e-05
0.000752315
-3.97121e-05
0.000746753
-4.28244e-05
0.000740662
-4.57821e-05
0.000734069
-4.85808e-05
0.000727
-5.12122e-05
0.000719488
-5.36655e-05
0.000711567
-5.59325e-05
0.000703278
-5.80146e-05
0.00069466
-5.9932e-05
0.00068575
-6.17308e-05
0.000676571
-6.3486e-05
0.000667131
-6.52984e-05
0.000657414
-6.72833e-05
0.000647381
-6.95491e-05
0.000636971
-7.21708e-05
0.000626119
-7.51628e-05
0.000614761
-7.8459e-05
0.000602855
-8.19062e-05
0.000590385
-8.52754e-05
0.000577365
-8.82875e-05
0.000563836
-9.06483e-05
0.000549855
-9.20833e-05
0.000535487
-9.23646e-05
0.000520808
-9.13298e-05
0.000505897
-8.88929e-05
0.000490848
-8.50512e-05
0.000475765
-7.98899e-05
0.000460767
-7.35804e-05
0.000445985
-6.63715e-05
0.000431551
-5.85714e-05
0.000417591
-5.05217e-05
0.000404217
-4.25667e-05
0.000391506
-3.5015e-05
0.00037951
-2.81004e-05
0.000368196
-2.19211e-05
0.000357551
-1.63257e-05
0.000347101
-1.11767e-05
-4.3989e-06
0.000284047
5.3995e-05
0.000301804
4.28575e-05
0.000317587
4.78611e-05
0.000332893
5.51619e-05
0.000348559
5.96515e-05
0.000364356
6.35097e-05
0.00038032
6.73584e-05
0.000396611
7.06988e-05
0.000413236
7.35008e-05
0.000430146
7.59107e-05
0.000447302
7.79438e-05
0.000464664
7.95663e-05
0.000482171
8.07472e-05
0.000499741
8.14325e-05
0.000517271
8.15521e-05
0.000534662
8.10699e-05
0.000551105
7.66394e-05
0.000566422
7.11704e-05
0.000580652
6.57098e-05
0.000593821
6.02155e-05
0.000605953
5.47106e-05
0.000617081
4.92646e-05
0.000627241
4.39398e-05
0.000636472
3.87661e-05
0.000644804
3.37474e-05
0.000652268
2.88749e-05
0.000658887
2.41364e-05
0.00066468
1.95187e-05
0.000669667
1.5008e-05
0.000673864
1.05992e-05
0.000677287
6.29649e-06
0.000679956
2.10575e-06
0.000681885
-1.974e-06
0.000683107
-5.91822e-06
0.000683627
-9.74912e-06
0.000683476
-1.34486e-05
0.00068268
-1.70049e-05
0.000681261
-2.0423e-05
0.000679243
-2.37086e-05
0.00067665
-2.68619e-05
0.000673504
-2.98829e-05
0.000669829
-3.27724e-05
0.000665648
-3.55309e-05
0.000660982
-3.8158e-05
0.000655851
-4.06509e-05
0.000650275
-4.30047e-05
0.000644274
-4.52113e-05
0.00063787
-4.72617e-05
0.000631087
-4.91495e-05
0.00062395
-5.08775e-05
0.000616483
-5.24651e-05
0.000608706
-5.39541e-05
0.000600631
-5.54107e-05
0.000592255
-5.69227e-05
0.00058356
-5.85882e-05
0.000574509
-6.04984e-05
0.000565052
-6.27135e-05
0.00055513
-6.52402e-05
0.000544684
-6.80137e-05
0.00053367
-7.08921e-05
0.00052206
-7.36652e-05
0.000509849
-7.6077e-05
0.000497058
-7.78572e-05
0.000483729
-7.87541e-05
0.000469926
-7.85617e-05
0.000455736
-7.71396e-05
0.000441268
-7.44251e-05
0.000426656
-7.04394e-05
0.000412055
-6.52881e-05
0.00039763
-5.91563e-05
0.000383555
-5.22958e-05
0.000369989
-4.50055e-05
0.000357072
-3.7605e-05
0.000344912
-3.04067e-05
0.000333574
-2.36767e-05
0.000323092
-1.76183e-05
0.000313414
-1.22439e-05
0.000304566
-7.47689e-06
0.000296014
-2.62474e-06
3.66383e-06
0.000251798
3.82832e-05
0.000267991
2.66645e-05
0.000281861
3.39914e-05
0.000295501
4.15218e-05
0.000309433
4.57198e-05
0.00032339
4.95522e-05
0.000337519
5.32298e-05
0.00035196
5.62579e-05
0.000366692
5.87689e-05
0.00038167
6.09326e-05
0.000396868
6.27456e-05
0.000412256
6.41785e-05
0.000427787
6.52162e-05
0.000443398
6.5821e-05
0.000459011
6.5939e-05
0.00047454
6.55414e-05
0.000489254
6.19247e-05
0.00050298
5.74451e-05
0.000515738
5.29515e-05
0.000527543
4.84111e-05
0.000538408
4.38451e-05
0.000548359
3.93141e-05
0.000557425
3.48738e-05
0.000565639
3.05521e-05
0.000573032
2.63538e-05
0.000579635
2.22724e-05
0.000585472
1.82988e-05
0.000590568
1.44227e-05
0.000594945
1.06315e-05
0.000598622
6.92238e-06
0.000601617
3.30132e-06
0.00060395
-2.26913e-07
0.000605636
-3.66033e-06
0.000606701
-6.98368e-06
0.000607158
-1.02056e-05
0.000607027
-1.33178e-05
0.000606332
-1.63099e-05
0.000605093
-1.91835e-05
0.000603327
-2.19432e-05
0.000601055
-2.45897e-05
0.000598295
-2.71225e-05
0.000595064
-2.95413e-05
0.000591378
-3.18455e-05
0.000587254
-3.40332e-05
0.000582703
-3.61003e-05
0.000577739
-3.80405e-05
0.000572372
-3.98451e-05
0.000566616
-4.15051e-05
0.000560481
-4.30145e-05
0.00055398
-4.43763e-05
0.000547123
-4.56087e-05
0.000539919
-4.67498e-05
0.000532368
-4.78594e-05
0.00052446
-4.90152e-05
0.000516175
-5.03032e-05
0.000507478
-5.1801e-05
0.000498322
-5.35579e-05
0.000488656
-5.55739e-05
0.000478427
-5.77851e-05
0.000467594
-6.00592e-05
0.000456133
-6.22038e-05
0.000444043
-6.39874e-05
0.000431355
-6.51688e-05
0.000418128
-6.55273e-05
0.000404456
-6.48893e-05
0.000390462
-6.31463e-05
0.000376302
-6.0265e-05
0.000362153
-5.62901e-05
0.000348207
-5.13417e-05
0.000334657
-4.56064e-05
0.000321685
-3.93236e-05
0.000309445
-3.27658e-05
0.000298055
-2.62152e-05
0.00028759
-1.99415e-05
0.000278075
-1.41619e-05
0.000269511
-9.05381e-06
0.000261813
-4.54631e-06
0.000255032
-6.95369e-07
0.000248628
3.77914e-06
9.44411e-06
0.000223468
2.31975e-05
0.000238065
1.2068e-05
0.000250245
2.18105e-05
0.00026246
2.93075e-05
0.000274839
3.33406e-05
0.000287177
3.72144e-05
0.000299706
4.07001e-05
0.00031253
4.34339e-05
0.000325606
4.56933e-05
0.000338896
4.76424e-05
0.00035238
4.92613e-05
0.000366029
5.05295e-05
0.000379802
5.14436e-05
0.000393646
5.19771e-05
0.000407498
5.20873e-05
0.000421286
5.17527e-05
0.000434366
4.88447e-05
0.00044658
4.52313e-05
0.000457947
4.15848e-05
0.000468477
3.78807e-05
0.000478183
3.41397e-05
0.00048708
3.04164e-05
0.000495193
2.67612e-05
0.000502545
2.31996e-05
0.000509163
1.97364e-05
0.000515069
1.63663e-05
0.000520286
1.30821e-05
0.000524833
9.87558e-06
0.000528731
6.7334e-06
0.000531997
3.65612e-06
0.000534649
6.49108e-07
0.000536707
-2.28448e-06
0.000538186
-5.13978e-06
0.000539108
-7.9049e-06
0.000539483
-1.05816e-05
0.00053933
-1.31645e-05
0.000538665
-1.56446e-05
0.000537502
-1.80208e-05
0.000535855
-2.02958e-05
0.000533735
-2.247e-05
0.000531154
-2.45419e-05
0.000528123
-2.65098e-05
0.000524649
-2.83716e-05
0.00052074
-3.01238e-05
0.000516401
-3.17613e-05
0.000511637
-3.32767e-05
0.000506453
-3.46611e-05
0.000500854
-3.59059e-05
0.000494845
-3.70061e-05
0.000488435
-3.79658e-05
0.000481629
-3.88029e-05
0.000474433
-3.95539e-05
0.000466848
-4.02741e-05
0.000458866
-4.10339e-05
0.000450473
-4.19098e-05
0.000441641
-4.29687e-05
0.000432334
-4.42508e-05
0.000422511
-4.57514e-05
0.000412135
-4.74092e-05
0.000401179
-4.91028e-05
0.000389635
-5.06604e-05
0.000377526
-5.18786e-05
0.000364907
-5.25497e-05
0.000351869
-5.24893e-05
0.000338539
-5.1559e-05
0.000325075
-4.96819e-05
0.000311659
-4.68493e-05
0.000298489
-4.31202e-05
0.000285764
-3.86162e-05
0.000273668
-3.35112e-05
0.000262363
-2.80178e-05
0.000251968
-2.23708e-05
0.00024256
-1.68071e-05
0.000234168
-1.15504e-05
0.000226776
-6.76964e-06
0.000220348
-2.62605e-06
0.00021477
1.03202e-06
0.000210104
3.97086e-06
0.000205887
7.99632e-06
1.30251e-05
0.00019856
8.56662e-06
0.000211521
-8.92926e-07
0.000222268
1.1064e-05
0.00023325