/*--------------------------------*- C++ -*----------------------------------*\
| =========                 |                                                 |
| \\      /  F ield         | OpenFOAM: The Open Source CFD Toolbox           |
|  \\    /   O peration     | Version:  v1912                                 |
|   \\  /    A nd           | Website:  www.openfoam.com                      |
|    \\/     M anipulation  |                                                 |
\*---------------------------------------------------------------------------*/
FoamFile
{
    version     2.0;
    format      ascii;
    class       volVectorField;
    location    "875";
    object      U;
}
// * * * * * * * * * * * * * * * * * * * * * * * * * * * * * * * * * * * * * //

dimensions      [0 1 -1 0 0 0 0];


internalField   nonuniform List<vector> 
2000
(
(0.84616 0.187394 0)
(0.515133 0.124089 0)
(0.223448 0.0684415 0)
(0.0598068 0.0174443 6.19506e-20)
(-0.00455616 -0.0232232 1.20668e-17)
(-0.0642033 -0.0384872 1.04221e-17)
(-0.0776009 -0.0372471 0)
(-0.0715949 -0.016659 0)
(-0.0590606 0.0117118 0)
(-0.0421582 0.0254666 2.36664e-17)
(-0.0415844 0.0109778 -1.44994e-17)
(-0.0273671 -0.000621449 -1.36177e-17)
(-0.0163175 -0.00266727 0)
(-0.0200715 -0.00264046 0)
(-0.0219062 -0.00226998 -1.08182e-17)
(-0.0168723 0.000848262 0)
(-0.010573 0.00349408 9.7384e-18)
(-0.00962169 0.00623775 3.09637e-21)
(-0.01063 0.0061283 9.41407e-18)
(-0.0113962 0.00488893 -4.64647e-18)
(-0.0112577 0.00278253 9.18627e-18)
(-0.0100657 0.000804738 0)
(-0.00791405 -0.000199123 0)
(-0.0053953 -0.000629682 -7.20987e-23)
(-0.00310086 -0.000794856 0)
(-0.00127382 -0.000813813 -4.51654e-18)
(-5.09335e-05 -0.000750715 0)
(0.000646006 -0.000669945 4.52575e-18)
(0.00104349 -0.000655048 0)
(0.00133182 -0.000660045 0)
(0.00160511 -0.000585175 0)
(0.0018791 -0.000473785 1.14934e-18)
(0.00213845 -0.000384118 0)
(0.00237293 -0.000345573 -5.83341e-19)
(0.00257015 -0.000346057 1.94688e-14)
(0.00270589 -0.000363952 1.94554e-14)
(0.00277398 -0.0004013 6.01622e-19)
(0.00271875 -0.000496566 -6.09126e-19)
(0.00254026 -0.000639356 0)
(0.00223681 -0.00079709 2.50576e-18)
(0.00178679 -0.000945931 0)
(0.00115418 -0.00107284 -2.58825e-18)
(0.000295167 -0.0011649 0)
(-0.000848697 -0.0012063 -5.35775e-18)
(-0.00232899 -0.00121847 2.72186e-18)
(-0.00418469 -0.0012914 0)
(-0.00650121 -0.00147309 0)
(-0.00943389 -0.00167504 -2.85513e-18)
(-0.0133009 -0.00158899 0)
(-0.0187115 -0.000624391 2.93171e-18)
(-0.0266404 0.00191615 0)
(-0.038368 0.00632809 5.9101e-18)
(-0.0552807 0.0120667 -5.85978e-18)
(-0.0785192 0.0177311 5.73917e-18)
(-0.108427 0.0214335 -2.74151e-18)
(-0.144103 0.0213383 0)
(-0.183462 0.0162442 2.33191e-18)
(-0.22359 0.00599258 -2.07604e-18)
(-0.260751 -0.00839328 -4.08407e-18)
(-0.290113 -0.0247055 3.30873e-18)
(-0.306808 -0.0397183 -3.26321e-18)
(-0.309301 -0.0502192 3.48854e-18)
(-0.302924 -0.0562505 -3.97776e-18)
(-0.287957 -0.0591617 4.78065e-18)
(-0.265498 -0.0599919 -1.15207e-20)
(-0.236391 -0.0594777 7.16345e-18)
(-0.201048 -0.0578251 0)
(-0.159634 -0.055023 0)
(-0.112407 -0.051059 7.62852e-20)
(-0.0601038 -0.0459707 0)
(-0.00398954 -0.0396919 1.98876e-17)
(0.0557333 -0.031883 0)
(0.119341 -0.0223952 1.98842e-17)
(0.186338 -0.011386 -4.88382e-19)
(0.255976 0.000900197 1.71678e-17)
(0.329559 0.0141591 2.98681e-17)
(0.403591 0.0280138 7.34764e-19)
(0.491253 0.0420077 -1.015e-17)
(0.557197 0.0544855 -6.53172e-18)
(0.713763 0.0652195 0)
(1.0153 0.210384 0)
(0.944633 0.194211 0)
(0.804475 0.179983 -3.52849e-18)
(0.654422 0.152313 7.28732e-18)
(0.509224 0.111169 0)
(0.360042 0.0683704 -7.288e-18)
(0.216493 0.0293252 0)
(0.0821323 -0.00530893 0)
(-0.0282879 -0.0180399 0)
(-0.0562034 -0.0189155 -1.73074e-17)
(-0.0667325 -0.0249882 1.57452e-17)
(-0.0718835 -0.0159767 1.44424e-17)
(-0.0637616 0.00640349 0)
(-0.0508837 0.02072 6.32233e-18)
(-0.0545098 0.00998896 0)
(-0.048304 -0.00293958 0)
(-0.0376343 -0.00402715 0)
(-0.0329311 -0.00109692 5.2695e-18)
(-0.0367021 0.000899562 -1.03353e-17)
(-0.038889 0.000901273 -5.09093e-18)
(-0.0395832 7.11323e-05 0)
(-0.0384912 -0.00112643 0)
(-0.0357726 -0.00235181 0)
(-0.0325273 -0.00294196 -7.41261e-18)
(-0.0293645 -0.00274238 0)
(-0.0265503 -0.00194374 4.95056e-18)
(-0.024329 -0.000881606 2.48277e-18)
(-0.0228684 -9.1802e-07 0)
(-0.0222343 0.000372259 0)
(-0.0222937 0.000405742 0)
(-0.0228673 0.000232769 0)
(-0.0237251 4.49562e-05 -6.32647e-19)
(-0.0246964 -0.000110878 0)
(-0.0257206 -0.000203868 3.20221e-19)
(-0.0268156 -0.000196904 1.61323e-19)
(-0.0280488 -7.2233e-05 0)
(-0.029463 0.000153556 0)
(-0.0310827 0.000450427 6.62754e-19)
(-0.0329703 0.000800972 0)
(-0.0351453 0.00120404 -1.35263e-18)
(-0.0376254 0.00166768 0)
(-0.0404198 0.00220498 -1.38264e-18)
(-0.0435388 0.00282433 0)
(-0.0469898 0.00351756 1.41326e-18)
(-0.0507659 0.00426904 1.43078e-18)
(-0.0548401 0.00511264 0)
(-0.0591839 0.00622835 0)
(-0.0637898 0.0079862 -2.96961e-18)
(-0.0686448 0.0109016 0)
(-0.073711 0.0155726 1.37168e-20)
(-0.0790045 0.0225315 0)
(-0.0847186 0.0319127 0)
(-0.0912101 0.0430136 0)
(-0.0988004 0.054182 0)
(-0.107228 0.0630898 6.03e-18)
(-0.114974 0.0672979 0)
(-0.119616 0.0648337 -5.48893e-18)
(-0.119219 0.0548005 2.65607e-18)
(-0.112341 0.0381609 -2.3149e-18)
(-0.0951137 0.0177236 -4.88735e-18)
(-0.0633165 -0.00473945 5.03316e-18)
(-0.0452012 -0.0306378 -5.54988e-18)
(-0.0199982 -0.0512405 6.49357e-18)
(0.00786039 -0.0658877 0)
(0.0387367 -0.0761856 -1.29305e-17)
(0.0731269 -0.0836061 -9.64807e-18)
(0.111811 -0.0888731 0)
(0.154987 -0.0919812 5.73167e-18)
(0.202296 -0.0926245 1.25468e-17)
(0.253155 -0.0905804 0)
(0.306904 -0.0857472 0)
(0.362956 -0.0780979 0)
(0.420831 -0.0677696 0)
(0.480263 -0.055099 -1.36161e-17)
(0.540997 -0.0406268 5.93569e-18)
(0.603886 -0.0250224 -1.177e-17)
(0.667351 -0.00922792 1.01623e-17)
(0.739171 0.00571727 -3.46829e-18)
(0.796115 0.0173669 0)
(0.911808 0.0229009 0)
(0.978489 0.201538 0)
(0.978854 0.193006 -2.78525e-18)
(0.969154 0.205111 3.48097e-18)
(0.939083 0.208532 -3.06e-18)
(0.878034 0.194606 2.8846e-18)
(0.785605 0.168719 2.84264e-18)
(0.669349 0.138081 0)
(0.541012 0.106021 0)
(0.40822 0.0750633 0)
(0.285943 0.0459344 6.86532e-18)
(0.173879 0.0180211 0)
(0.0721777 -0.00640545 0)
(-0.0214749 -0.0141536 0)
(-0.046911 -0.00385646 -7.18313e-18)
(-0.0508322 -0.0116815 0)
(-0.0586946 -0.0181544 -6.05e-18)
(-0.0592958 -0.011255 0)
(-0.0481134 0.00906254 5.87507e-18)
(-0.0464828 0.0164832 2.87225e-18)
(-0.0509066 0.0125883 0)
(-0.0532648 0.0061498 -2.78924e-18)
(-0.0550536 -0.000292253 0)
(-0.0556706 -0.00469849 0)
(-0.0547699 -0.00653356 5.43489e-18)
(-0.0532184 -0.00661159 0)
(-0.0520381 -0.00573207 1.35791e-18)
(-0.0518358 -0.00422534 -4.07647e-18)
(-0.0526282 -0.00223408 0)
(-0.0539857 -0.000218501 0)
(-0.0554593 0.00124969 -6.81449e-19)
(-0.057063 0.0022029 0)
(-0.0587776 0.00272827 1.36126e-22)
(-0.0605254 0.00296902 0)
(-0.06226 0.00308748 6.90593e-19)
(-0.063986 0.00324543 8.68663e-20)
(-0.0657743 0.00349801 0)
(-0.0676823 0.00383431 1.76308e-19)
(-0.0697245 0.00422189 -3.55573e-19)
(-0.0718855 0.0046567 -3.58799e-19)
(-0.0741361 0.00514266 -7.24618e-19)
(-0.0764413 0.00568715 7.32234e-19)
(-0.0787661 0.00629956 7.3964e-19)
(-0.0810845 0.00698113 0)
(-0.0833629 0.00770927 1.51672e-18)
(-0.0854973 0.00844861 -3.0762e-18)
(-0.0872308 0.00921313 0)
(-0.0881472 0.0101676 -1.59072e-18)
(-0.0877639 0.0116857 3.24343e-18)
(-0.0855439 0.0142598 0)
(-0.0808301 0.018468 -1.69671e-18)
(-0.0729132 0.0248054 1.77923e-18)
(-0.0612757 0.033531 -1.84597e-18)
(-0.0455523 0.0437669 -1.91483e-18)
(-0.0257125 0.0539718 0)
(-0.00197554 0.0619289 -3.94382e-18)
(0.0257033 0.0651172 -1.887e-18)
(0.0572168 0.0612584 1.63755e-18)
(0.0907353 0.0494991 1.53359e-18)
(0.124711 0.0288697 2.5719e-18)
(0.156551 0.00214476 0)
(0.186683 -0.0241812 0)
(0.214343 -0.0461245 0)
(0.242472 -0.0643549 -1.314e-18)
(0.274039 -0.080004 0)
(0.310002 -0.0936343 3.21937e-18)
(0.349823 -0.105221 0)
(0.392568 -0.114417 -1.98608e-18)
(0.437354 -0.120749 -4.45948e-18)
(0.48338 -0.123784 0)
(0.52997 -0.123265 -2.47308e-18)
(0.576633 -0.119183 2.57755e-18)
(0.623108 -0.111794 0)
(0.669337 -0.101615 0)
(0.715509 -0.0893402 0)
(0.761863 -0.0758109 -5.41011e-18)
(0.809278 -0.0619519 0)
(0.85705 -0.0489529 -1.88545e-18)
(0.910126 -0.0379232 3.37018e-18)
(0.953007 -0.0312455 0)
(1.03533 -0.0302882 3.93377e-19)
(0.970611 0.209117 0)
(0.963917 0.194765 1.52481e-18)
(0.96643 0.198514 0)
(0.977152 0.206407 1.69411e-18)
(0.982034 0.208884 -3.00347e-18)
(0.968293 0.204266 -1.34068e-18)
(0.930748 0.193726 0)
(0.870757 0.177878 0)
(0.79113 0.156581 0)
(0.695411 0.131331 1.35067e-18)
(0.58948 0.10541 1.38243e-18)
(0.48005 0.0807 0)
(0.369265 0.0579964 0)
(0.266647 0.0376063 0)
(0.17965 0.0185391 0)
(0.100391 0.002672 6.39898e-18)
(0.0300552 -0.00993296 -3.38636e-18)
(-0.031055 -0.00937942 0)
(-0.0328207 0.00101173 -3.28185e-18)
(-0.0347031 0.00246184 1.61797e-18)
(-0.0346438 0.00136474 3.21008e-18)
(-0.0359009 -0.00129597 0)
(-0.0391104 -0.00397776 0)
(-0.0434935 -0.0052377 -3.11916e-18)
(-0.0472064 -0.00436137 0)
(-0.049499 -0.00166803 -1.54344e-18)
(-0.0511748 0.00172038 1.54301e-18)
(-0.0536771 0.00423651 0)
(-0.0558132 0.00541533 0)
(-0.0580645 0.00597133 7.66754e-19)
(-0.0600186 0.00605031 0)
(-0.0616588 0.00579055 -7.69736e-19)
(-0.0629355 0.0053553 0)
(-0.0638311 0.00491284 -1.947e-19)
(-0.0644714 0.00469797 -9.80773e-20)
(-0.064943 0.00479623 -2.47392e-20)
(-0.0652555 0.00515953 -2.99802e-19)
(-0.0653062 0.00572348 4.04145e-19)
(-0.0650168 0.00638338 4.09212e-19)
(-0.0643183 0.00708111 1.24507e-18)
(-0.0631275 0.00779957 -4.21222e-19)
(-0.0613603 0.00852977 4.28528e-19)
(-0.058961 0.00924671 0)
(-0.0558853 0.00987357 8.92777e-19)
(-0.0520262 0.0102255 9.13466e-19)
(-0.0470845 0.00998768 0)
(-0.0406239 0.00878543 1.93525e-18)
(-0.0326761 0.00657365 9.99572e-19)
(-0.0225215 0.00403052 0)
(-0.00994515 0.00179075 -3.26045e-18)
(0.00651466 0.000429389 -2.23141e-18)
(0.0279081 0.000547445 1.10736e-18)
(0.0541566 0.00198701 2.16824e-18)
(0.0858484 0.00388523 0)
(0.122998 0.00472633 9.81656e-19)
(0.164755 0.00271927 2.68517e-18)
(0.209822 -0.00369391 1.58841e-18)
(0.256107 -0.0150305 -1.39275e-18)
(0.303073 -0.0301626 -6.43837e-19)
(0.348961 -0.0474929 0)
(0.393271 -0.0662363 0)
(0.436012 -0.0851005 0)
(0.478064 -0.103025 1.71634e-18)
(0.520237 -0.119387 6.46636e-19)
(0.562479 -0.133717 0)
(0.604128 -0.145474 -1.56526e-18)
(0.64447 -0.154089 1.74015e-18)
(0.682997 -0.159114 -1.87387e-18)
(0.719448 -0.160316 -2.02142e-18)
(0.753801 -0.157727 1.26766e-19)
(0.786268 -0.15164 -2.41958e-18)
(0.817266 -0.142576 0)
(0.847351 -0.131228 0)
(0.877202 -0.118388 0)
(0.907429 -0.104921 0)
(0.938947 -0.0917105 0)
(0.971425 -0.0798119 3.67821e-18)
(1.0082 -0.0700726 -1.34603e-18)
(1.03842 -0.0644215 0)
(1.09564 -0.0626776 -4.2415e-19)
(0.972988 0.216082 0)
(0.965831 0.201808 1.87053e-18)
(0.959206 0.1956 2.49204e-19)
(0.961489 0.195546 1.90701e-18)
(0.972668 0.197536 0)
(0.985519 0.199235 -1.60727e-18)
(0.992497 0.199295 0)
(0.988452 0.196253 -3.62492e-19)
(0.970218 0.189033 0)
(0.935631 0.177562 -1.60558e-18)
(0.884731 0.162749 -1.24281e-18)
(0.819618 0.145667 -3.15397e-19)
(0.743324 0.126729 3.13085e-19)
(0.658088 0.106111 0)
(0.569157 0.0852833 3.13139e-19)
(0.47934 0.0662428 0)
(0.393491 0.0502677 2.65398e-18)
(0.314099 0.0363413 -3.51274e-19)
(0.247072 0.0242765 0)
(0.192397 0.0147285 -1.89919e-18)
(0.147778 0.00792765 0)
(0.110715 0.00341328 0)
(0.079882 0.000825059 0)
(0.0539904 -0.000617492 0)
(0.0324748 -0.00159047 -2.2165e-19)
(0.0156993 -0.00204076 0)
(0.0028114 -0.00140606 0)
(-0.00263842 0.00066681 1.15588e-19)
(-0.00511708 0.00209345 0)
(-0.00515953 0.00309601 0)
(-0.00382741 0.00367581 0)
(-0.00157364 0.00394732 -5.87379e-20)
(0.00100797 0.00402525 0)
(0.00445624 0.00382887 -2.67825e-19)
(0.00746676 0.00431046 0)
(0.0111306 0.00514048 3.01028e-20)
(0.015526 0.00561932 1.51291e-19)
(0.0208439 0.00553759 3.0378e-20)
(0.0272665 0.00518103 -6.09725e-20)
(0.034861 0.00465352 -4.89177e-19)
(0.0437958 0.00393278 -4.89844e-19)
(0.0542847 0.00299774 4.89782e-19)
(0.0665201 0.00183327 -1.22209e-19)
(0.0806967 0.000405667 -9.73519e-19)
(0.0970218 -0.00135066 9.67175e-19)
(0.115478 -0.00351202 -1.19916e-19)
(0.136294 -0.00618975 0)
(0.158974 -0.00945473 -9.39417e-19)
(0.183568 -0.0132753 0)
(0.21022 -0.0175015 9.1821e-19)
(0.238956 -0.0217848 0)
(0.269971 -0.0259783 8.95652e-19)
(0.303569 -0.0300375 0)
(0.340099 -0.0341577 -2.1182e-19)
(0.379776 -0.03884 -8.05114e-19)
(0.422481 -0.044815 -7.474e-19)
(0.467625 -0.0528376 1.73735e-19)
(0.514148 -0.0634515 0)
(0.560646 -0.0769647 5.44712e-19)
(0.605702 -0.0928502 -1.37518e-19)
(0.648464 -0.110127 0)
(0.68854 -0.127452 1.37252e-19)
(0.725813 -0.143582 -5.34874e-19)
(0.760216 -0.157671 -5.90281e-19)
(0.79157 -0.169151 0)
(0.819646 -0.177569 1.47783e-18)
(0.844361 -0.182585 0)
(0.865877 -0.184044 1.83209e-18)
(0.884605 -0.182008 2.0099e-18)
(0.901153 -0.176755 2.17461e-18)
(0.916273 -0.168743 2.70719e-19)
(0.930791 -0.158571 0)
(0.945532 -0.14692 0)
(0.961294 -0.134515 0)
(0.978696 -0.1221 -2.69687e-19)
(0.998488 -0.110403 0)
(1.0203 -0.100233 -1.67545e-18)
(1.04663 -0.0922413 1.65002e-18)
(1.06861 -0.0876522 1.04007e-19)
(1.11224 -0.0863919 4.50985e-20)
(0.974194 0.218514 -1.23223e-18)
(0.970935 0.206364 1.19265e-18)
(0.965119 0.198172 -2.81996e-19)
(0.961139 0.194112 0)
(0.962197 0.191942 0)
(0.96826 0.190544 0)
(0.977772 0.189885 0)
(0.988502 0.189481 1.25226e-18)
(0.997432 0.188308 0)
(1.00093 0.185358 -1.11957e-18)
(0.995773 0.179955 -1.39562e-18)
(0.979839 0.171905 3.19986e-19)
(0.952675 0.161434 9.66733e-19)
(0.914336 0.148646 0)
(0.865647 0.133742 -1.4754e-18)
(0.80825 0.117845 0)
(0.746068 0.102471 -1.17948e-18)
(0.683643 0.0879753 2.95003e-19)
(0.622835 0.0743871 -1.234e-18)
(0.565747 0.0621139 -9.50246e-19)
(0.513197 0.0513549 0)
(0.465537 0.0420965 0)
(0.422942 0.0342199 -6.83039e-19)
(0.385368 0.0276172 0)
(0.352677 0.0221533 -5.42339e-19)
(0.324657 0.0176502 0)
(0.300903 0.0138413 0)
(0.281189 0.0104623 -9.55912e-20)
(0.265372 0.00755118 0)
(0.253115 0.00511426 0)
(0.244076 0.00308266 0)
(0.237978 0.00137353 5.0523e-20)
(0.234507 -9.52794e-05 2.04769e-19)
(0.23369 -0.00131862 1.29001e-19)
(0.235296 -0.00274693 0)
(0.239442 -0.00436772 0)
(0.246041 -0.00605169 -2.59473e-20)
(0.254943 -0.0078254 -1.29989e-19)
(0.266135 -0.00976762 5.16579e-20)
(0.279534 -0.0119314 0)
(0.295041 -0.0143541 0)
(0.312575 -0.0170671 -2.04108e-19)
(0.33207 -0.0200994 1.00515e-19)
(0.353456 -0.0234904 -4.01104e-19)
(0.376643 -0.0272951 3.96934e-19)
(0.401492 -0.0315754 9.71109e-20)
(0.427812 -0.0363645 0)
(0.455361 -0.0415675 3.84527e-19)
(0.483955 -0.0470449 0)
(0.513449 -0.0526423 0)
(0.543731 -0.0581904 0)
(0.574782 -0.0635758 0)
(0.60667 -0.0688144 0)
(0.639478 -0.0741196 1.77972e-19)
(0.673203 -0.0799161 0)
(0.707643 -0.0867655 6.69914e-19)
(0.742319 -0.0952146 -1.5273e-19)
(0.776477 -0.105603 0)
(0.809193 -0.117881 5.8091e-19)
(0.839553 -0.131469 1.2799e-19)
(0.866844 -0.145468 5.6763e-19)
(0.890612 -0.158896 -1.32496e-19)
(0.910662 -0.17088 0)
(0.927017 -0.180775 -6.62402e-19)
(0.93985 -0.188151 0)
(0.949459 -0.19273 0)
(0.956298 -0.194378 -8.53075e-19)
(0.960992 -0.193121 0)
(0.964305 -0.189152 0)
(0.967073 -0.182808 -1.06313e-18)
(0.970141 -0.174539 -2.95502e-19)
(0.974306 -0.164866 0)
(0.980266 -0.154351 0)
(0.98862 -0.14357 0)
(0.999753 -0.133095 3.0133e-19)
(1.01415 -0.12348 -1.03018e-18)
(1.03127 -0.115307 -2.40124e-19)
(1.05317 -0.10905 -1.88546e-19)
(1.07171 -0.105431 -1.17794e-19)
(1.11013 -0.104554 -2.40679e-19)
(0.974501 0.21901 4.35425e-18)
(0.973757 0.208036 -4.18099e-18)
(0.971714 0.200425 0)
(0.969159 0.196211 -2.53666e-18)
(0.967053 0.192937 0)
(0.966166 0.189312 -2.2367e-18)
(0.967419 0.185818 0)
(0.971669 0.183008 2.97858e-18)
(0.978978 0.18073 -3.69831e-18)
(0.988283 0.178484 1.68865e-18)
(0.99769 0.175773 1.57872e-18)
(1.00497 0.172151 0)
(1.00811 0.167265 -4.27042e-18)
(1.00544 0.1607 -2.71998e-18)
(0.995587 0.152111 3.8231e-18)
(0.977795 0.141797 0)
(0.953044 0.130626 1.17102e-18)
(0.923753 0.119347 0)
(0.891693 0.108147 1.1675e-18)
(0.858158 0.0970058 1.1672e-18)
(0.824184 0.0861321 0)
(0.790762 0.0758044 0)
(0.758774 0.0662272 -6.39228e-19)
(0.72889 0.0575061 0)
(0.701556 0.0496241 6.20792e-19)
(0.677005 0.0424964 0)
(0.655355 0.0360288 0)
(0.636639 0.0301345 0)
(0.620887 0.0247245 0)
(0.608036 0.019715 0)
(0.598014 0.015026 0)
(0.590752 0.0105863 0)
(0.586175 0.00632329 1.76966e-19)
(0.584163 0.00217264 -8.58622e-20)
(0.584494 -0.00200891 4.3961e-20)
(0.58726 -0.00625808 0)
(0.59236 -0.0105542 0)
(0.599592 -0.014897 8.61548e-20)
(0.608803 -0.0193281 -3.51777e-19)
(0.619855 -0.0238857 3.51381e-19)
(0.632598 -0.028592 0)
(0.646878 -0.0334629 8.71602e-19)
(0.662538 -0.0385146 -6.99314e-19)
(0.679417 -0.0437659 -3.57854e-19)
(0.697336 -0.0492368 -3.39123e-19)
(0.716095 -0.0549365 0)
(0.73547 -0.0608428 0)
(0.755229 -0.0668801 -1.03363e-18)
(0.775168 -0.0729473 0)
(0.795127 -0.0789397 0)
(0.815001 -0.0847631 0)
(0.834753 -0.090376 7.03268e-19)
(0.854401 -0.0958422 1.40472e-18)
(0.873965 -0.101357 0)
(0.893401 -0.107234 0)
(0.91253 -0.113839 -6.48821e-19)
(0.930996 -0.121482 0)
(0.948272 -0.130298 1.29385e-18)
(0.963733 -0.140158 6.86583e-19)
(0.976769 -0.150648 0)
(0.986927 -0.161156 7.00009e-19)
(0.994 -0.17101 1.33545e-18)
(0.998047 -0.17958 1.40651e-18)
(0.99936 -0.186377 7.14103e-19)
(0.998396 -0.191083 -1.61568e-18)
(0.995718 -0.193532 1.74583e-18)
(0.991968 -0.193689 2.8309e-18)
(0.987849 -0.191642 0)
(0.984084 -0.187588 0)
(0.98137 -0.181818 1.19464e-18)
(0.980331 -0.174691 0)
(0.981502 -0.166611 2.49807e-18)
(0.985305 -0.158009 2.53101e-18)
(0.992076 -0.149328 0)
(1.00198 -0.141013 2.40162e-18)
(1.01531 -0.133497 -1.04072e-18)
(1.03143 -0.127217 0)
(1.05223 -0.12252 0)
(1.06987 -0.119851 0)
(1.10675 -0.119396 -1.93019e-19)
(0.974733 0.218938 -3.35423e-18)
(0.975458 0.208201 3.21098e-18)
(0.976056 0.201058 -6.23619e-18)
(0.975936 0.197366 2.86897e-18)
(0.974875 0.19446 0)
(0.9732 0.190786 2.52964e-18)
(0.971487 0.186584 -4.84244e-18)
(0.970473 0.182339 -4.48961e-18)
(0.970994 0.17813 -7.9248e-20)
(0.973704 0.17395 0)
(0.978806 0.169868 0)
(0.985964 0.165856 3.59611e-18)
(0.994363 0.161685 3.29134e-18)
(1.00283 0.15694 -3.27718e-18)
(1.00995 0.151228 -8.89685e-18)
(1.01427 0.144451 0)
(1.01489 0.136908 0)
(1.01186 0.128902 0)
(1.00564 0.120422 0)
(0.996717 0.111451 0)
(0.985584 0.102193 0)
(0.972871 0.0929283 0)
(0.959261 0.0838663 1.23991e-18)
(0.945387 0.0751221 -2.58619e-18)
(0.931769 0.0667301 0)
(0.918815 0.058691 0)
(0.906845 0.0509974 0)
(0.896098 0.0436207 0)
(0.886741 0.0365018 0)
(0.878876 0.0295974 -6.62203e-19)
(0.872569 0.0228789 0)
(0.867858 0.0163154 0)
(0.864749 0.00986985 1.25995e-20)
(0.863186 0.00347782 0)
(0.863072 -0.00273522 -4.1009e-20)
(0.864354 -0.00882486 0)
(0.866937 -0.0148717 1.70626e-19)
(0.870694 -0.0209006 0)
(0.875504 -0.0269224 6.72145e-19)
(0.881259 -0.0329486 -3.3048e-19)
(0.887842 -0.0389865 -6.88737e-19)
(0.895127 -0.0450408 -6.65125e-19)
(0.902984 -0.0511156 6.67764e-19)
(0.911281 -0.0572157 6.70798e-19)
(0.919877 -0.063343 1.40231e-18)
(0.928623 -0.0694892 1.41109e-18)
(0.937365 -0.0756265 0)
(0.945961 -0.0816999 -7.43809e-19)
(0.954297 -0.087638 0)
(0.962304 -0.0933719 0)
(0.969966 -0.0988549 -1.47837e-18)
(0.97731 -0.10409 -7.22083e-19)
(0.984392 -0.109159 4.81005e-20)
(0.991259 -0.114227 0)
(0.997899 -0.11953 0)
(1.00419 -0.125324 0)
(1.00991 -0.131816 1.4926e-18)
(1.01469 -0.139084 -1.39963e-18)
(1.01814 -0.147027 -1.38967e-18)
(1.01991 -0.155353 0)
(1.01979 -0.16362 -1.42892e-18)
(1.01778 -0.171329 9.47239e-20)
(1.01407 -0.178013 -1.57656e-18)
(1.00904 -0.183308 1.75733e-18)
(1.00317 -0.186982 -4.74665e-20)
(0.996986 -0.188921 -1.97819e-18)
(0.991032 -0.189105 -2.14155e-18)
(0.98584 -0.187598 0)
(0.981908 -0.184539 0)
(0.979675 -0.180132 0)
(0.979509 -0.174642 0)
(0.981708 -0.168375 -2.83495e-18)
(0.986499 -0.161676 -2.87048e-18)
(0.994075 -0.154911 0)
(1.00451 -0.148459 -2.72151e-18)
(1.01806 -0.142686 4.90596e-18)
(1.0341 -0.137949 0)
(1.05451 -0.134492 0)
(1.07177 -0.132633 0)
(1.10761 -0.132392 9.13238e-19)
(0.975035 0.218502 8.33944e-18)
(0.977127 0.207476 0)
(0.979623 0.200809 1.42737e-17)
(0.980942 0.19772 0)
(0.980747 0.195178 6.21299e-18)
(0.979838 0.19182 0)
(0.978655 0.187904 5.47224e-18)
(0.977181 0.183662 0)
(0.975604 0.178993 -5.03599e-18)
(0.974439 0.173897 0)
(0.97427 0.168549 8.87978e-18)
(0.975577 0.163112 -4.11056e-18)
(0.978659 0.157621 0)
(0.983537 0.151978 7.30659e-18)
(0.989866 0.146033 -1.87028e-19)
(0.996991 0.139703 -6.68101e-18)
(1.00405 0.133126 6.47519e-18)
(1.01036 0.126391 0)
(1.01555 0.119355 0)
(1.01936 0.111922 6.0855e-18)
(1.02167 0.104162 0)
(1.02251 0.096214 -2.96051e-18)
(1.02211 0.0881949 0)
(1.02073 0.0801805 2.80405e-18)
(1.01864 0.0722153 0)
(1.01612 0.0643276 2.89605e-18)
(1.01338 0.0565343 0)
(1.01061 0.0488348 0)
(1.00799 0.0412187 1.44711e-18)
(1.00561 0.0336858 6.95543e-19)
(1.00357 0.0262423 0)
(1.00193 0.0188893 0)
(1.00073 0.0116264 -1.08705e-18)
(0.999998 0.00445268 0)
(0.999677 -0.00253983 0)
(0.99974 -0.00940436 0)
(1.00017 -0.0161997 -1.77905e-19)
(1.00092 -0.0229329 0)
(1.00194 -0.0295936 -1.10496e-18)
(1.00319 -0.0361775 -7.50292e-19)
(1.0046 -0.0426837 7.24546e-19)
(1.00612 -0.0491106 0)
(1.00769 -0.0554567 0)
(1.00926 -0.0617202 1.54377e-18)
(1.01076 -0.0678974 -1.49837e-18)
(1.01214 -0.0739781 -1.51464e-18)
(1.01332 -0.0799403 0)
(1.01428 -0.0857482 -5.82102e-20)
(1.015 -0.0913589 1.63312e-18)
(1.01549 -0.0967378 0)
(1.0158 -0.101875 1.62479e-18)
(1.01602 -0.106801 1.70017e-18)
(1.01624 -0.111601 -1.66639e-18)
(1.01651 -0.116418 0)
(1.01684 -0.121434 0)
(1.01718 -0.126838 0)
(1.01736 -0.132773 -1.68013e-18)
(1.01714 -0.139289 0)
(1.01628 -0.146302 0)
(1.01457 -0.153594 0)
(1.0119 -0.160837 3.66202e-18)
(1.00831 -0.16766 -1.8042e-18)
(1.00398 -0.173711 0)
(0.999212 -0.178701 -2.00432e-18)
(0.994357 -0.182427 -2.22617e-18)
(0.989794 -0.184765 4.61865e-18)
(0.985887 -0.185663 -4.89285e-18)
(0.982976 -0.185136 -5.17323e-18)
(0.981363 -0.18326 0)
(0.981306 -0.18018 -5.69408e-18)
(0.983028 -0.1761 0)
(0.986719 -0.171281 0)
(0.992544 -0.166029 0)
(1.00068 -0.160685 5.9853e-18)
(1.01122 -0.1556 -5.73239e-18)
(1.02447 -0.151111 -7.99384e-18)
(1.03992 -0.14752 0)
(1.05945 -0.144996 3.60584e-18)
(1.07597 -0.143747 0)
(1.11025 -0.143582 -1.50342e-18)
(0.975434 0.21769 -9.45949e-18)
(0.979143 0.20609 -9.20804e-18)
(0.983423 0.200245 -1.64395e-17)
(0.98558 0.197996 0)
(0.985486 0.195678 -1.41268e-17)
(0.984786 0.192413 -6.72987e-18)
(0.9842 0.188726 0)
(0.983452 0.184719 1.19944e-17)
(0.982353 0.180193 1.11967e-17)
(0.981033 0.175095 0)
(0.979702 0.169516 -1.00425e-17)
(0.978603 0.163553 0)
(0.97805 0.15727 0)
(0.978376 0.150691 8.70771e-18)
(0.979804 0.14382 8.07061e-18)
(0.982396 0.13669 -1.82316e-19)
(0.986006 0.129512 1.84342e-19)
(0.990363 0.12244 0)
(0.995174 0.115376 0)
(1.0001 0.108199 -6.97311e-18)
(1.00479 0.100887 -7.06394e-18)
(1.00904 0.0934775 1.0353e-17)
(1.01274 0.0860164 3.45071e-18)
(1.01588 0.0785338 3.42248e-18)
(1.01847 0.0710477 0)
(1.02058 0.0635678 -3.27141e-18)
(1.02224 0.0560995 0)
(1.02352 0.0486435 0)
(1.02447 0.0412002 -3.30529e-18)
(1.02514 0.0337762 0)
(1.02555 0.0263833 0)
(1.02575 0.0190344 0)
(1.02575 0.0117441 8.2e-19)
(1.02558 0.00454456 -4.27547e-19)
(1.02531 -0.00254738 2.13621e-19)
(1.02492 -0.00953218 0)
(1.02444 -0.016422 0)
(1.02389 -0.0232166 0)
(1.02326 -0.0299079 8.33695e-19)
(1.02253 -0.0364912 8.38698e-19)
(1.02173 -0.0429648 -1.75009e-18)
(1.02083 -0.0493275 0)
(1.01983 -0.0555778 0)
(1.01874 -0.0617144 -3.5319e-18)
(1.01756 -0.067735 -1.81473e-18)
(1.01627 -0.0736329 0)
(1.01488 -0.0793951 0)
(1.01341 -0.0850013 1.82424e-18)
(1.01188 -0.0904296 5.65739e-20)
(1.01034 -0.0956669 0)
(1.00886 -0.100721 0)
(1.00752 -0.105629 -1.93389e-18)
(1.00641 -0.110469 0)
(1.00557 -0.115356 0)
(1.005 -0.120432 0)
(1.00466 -0.125835 0)
(1.00442 -0.131671 0)
(1.0041 -0.137972 -4.16338e-18)
(1.00352 -0.144673 0)
(1.00253 -0.151606 0)
(1.00104 -0.158521 1.66765e-19)
(0.999068 -0.165123 0)
(0.996728 -0.171117 0)
(0.994213 -0.176244 0)
(0.991754 -0.1803 9.98708e-18)
(0.989595 -0.183143 -5.23237e-18)
(0.987971 -0.184693 5.53526e-18)
(0.987095 -0.184931 1.42634e-20)
(0.987162 -0.1839 0)
(0.988351 -0.181713 6.42357e-18)
(0.990835 -0.178552 -6.54185e-18)
(0.994791 -0.174663 0)
(1.00041 -0.170343 0)
(1.00791 -0.16593 -1.45977e-19)
(1.01747 -0.16177 6.48096e-18)
(1.0295 -0.158189 5.97324e-18)
(1.0436 -0.155443 0)
(1.06169 -0.153655 -4.09308e-18)
(1.07706 -0.152853 0)
(1.1095 -0.15277 1.13315e-18)
(0.975986 0.216474 0)
(0.981692 0.204215 2.12117e-17)
(0.987769 0.199647 1.88189e-17)
(0.990441 0.198411 0)
(0.990122 0.196236 8.02826e-18)
(0.989271 0.192974 -7.76896e-18)
(0.988772 0.189389 0)
(0.988281 0.185463 -1.35625e-17)
(0.987611 0.180999 0)
(0.986852 0.175995 0)
(0.98604 0.170512 0)
(0.985145 0.164577 0)
(0.984206 0.1582 0)
(0.983343 0.151386 1.82805e-19)
(0.982702 0.144142 -9.52703e-18)
(0.982426 0.13652 -1.82176e-19)
(0.98266 0.128777 1.83588e-19)
(0.9835 0.121146 0)
(0.984945 0.113609 0)
(0.986875 0.106091 0)
(0.989103 0.0985718 -2.02557e-19)
(0.991463 0.0910725 2.0648e-19)
(0.993841 0.0836191 -3.95153e-18)
(0.996165 0.0762218 -3.92039e-18)
(0.998378 0.0688776 0)
(1.00044 0.0615779 -3.98493e-18)
(1.00231 0.0543133 3.97244e-18)
(1.00396 0.0470759 0)
(1.00538 0.0398598 1.92491e-18)
(1.00654 0.0326656 1.98302e-18)
(1.00745 0.0255007 0)
(1.00809 0.0183781 0)
(1.00847 0.0113109 1.00196e-18)
(1.00862 0.00433636 -1.48656e-20)
(1.00858 -0.00257869 -4.94612e-19)
(1.00837 -0.00940425 0)
(1.00801 -0.0161312 0)
(1.00753 -0.0227638 -1.01097e-18)
(1.00695 -0.0293021 0)
(1.00626 -0.0357432 -1.02119e-18)
(1.00549 -0.0420855 -5.89234e-20)
(1.00465 -0.0483282 0)
(1.00375 -0.0544703 2.08875e-18)
(1.00281 -0.0605111 4.15779e-18)
(1.00185 -0.0664486 2.07118e-18)
(1.00088 -0.0722781 0)
(0.999905 -0.0779907 -4.35406e-18)
(0.998956 -0.0835736 0)
(0.99806 -0.0890146 -2.17596e-18)
(0.997262 -0.094309 0)
(0.996615 -0.0994693 0)
(0.996179 -0.104532 0)
(0.996003 -0.109563 0)
(0.996117 -0.114655 0)
(0.996514 -0.119922 -4.7735e-18)
(0.997141 -0.125471 4.80688e-18)
(0.997895 -0.131383 0)
(0.998639 -0.13768 4.72454e-18)
(0.999224 -0.144309 -4.91716e-18)
(0.999519 -0.151132 0)
(0.999444 -0.157941 -4.91482e-18)
(0.998985 -0.164482 0)
(0.998196 -0.170492 0)
(0.997187 -0.175727 0)
(0.996096 -0.179982 -5.68431e-18)
(0.99507 -0.183104 6.02463e-18)
(0.994257 -0.184993 -6.29236e-18)
(0.9938 -0.185613 1.31394e-17)
(0.993849 -0.184992 -6.83855e-18)
(0.994568 -0.183234 0)
(0.99615 -0.180521 7.38711e-18)
(0.998825 -0.177103 -7.43909e-18)
(1.00286 -0.173293 0)
(1.00856 -0.169438 -1.17165e-19)
(1.01623 -0.165889 -7.10104e-18)
(1.02635 -0.162971 0)
(1.03865 -0.16089 0)
(1.05513 -0.159772 -4.56789e-18)
(1.06931 -0.159325 0)
(1.10037 -0.159513 -1.28545e-18)
(0.976761 0.214804 0)
(0.984936 0.20201 -1.22207e-17)
(0.992771 0.199204 -1.0702e-17)
(0.995649 0.198991 0)
(0.994983 0.196871 1.84234e-17)
(0.993957 0.193635 1.73975e-17)
(0.993389 0.19014 0)
(0.992829 0.186205 1.56626e-17)
(0.992161 0.181685 -1.48734e-17)
(0.99156 0.176662 0)
(0.991075 0.171202 0)
(0.990636 0.165313 0)
(0.990183 0.158988 0)
(0.989696 0.15221 -1.13203e-17)
(0.989165 0.144966 -1.11247e-17)
(0.988598 0.137281 1.02256e-17)
(0.988069 0.12939 -3.02696e-17)
(0.9877 0.121541 0)
(0.987573 0.113753 0)
(0.987691 0.10599 9.70014e-18)
(0.988004 0.0982514 1.89714e-17)
(0.988459 0.0905687 -9.28888e-18)
(0.989025 0.082971 0)
(0.989681 0.0754693 0)
(0.990406 0.0680599 -4.65816e-18)
(0.991172 0.0607324 9.17693e-18)
(0.991949 0.0534752 -9.15427e-18)
(0.992709 0.0462776 0)
(0.993424 0.0391301 0)
(0.994069 0.0320286 -2.25988e-18)
(0.994622 0.0249761 0)
(0.99507 0.0179792 2.33009e-18)
(0.995404 0.0110509 -1.1418e-18)
(0.995644 0.0041884 -1.45011e-20)
(0.995798 -0.00261815 -7.27323e-21)
(0.995867 -0.00934345 0)
(0.995866 -0.0159788 0)
(0.99581 -0.0225299 -2.90169e-20)
(0.995707 -0.0289987 1.18316e-18)
(0.995566 -0.0353827 3.53917e-18)
(0.995397 -0.0416801 4.72912e-18)
(0.995213 -0.04789 2.41041e-18)
(0.995024 -0.0540119 -2.37171e-18)
(0.994842 -0.060045 -2.39284e-18)
(0.994676 -0.0659873 2.47329e-18)
(0.994536 -0.0718346 0)
(0.994434 -0.0775799 4.9364e-18)
(0.994383 -0.0832142 -5.10669e-18)
(0.994406 -0.0887297 0)
(0.994534 -0.0941258 0)
(0.994801 -0.0994161 0)
(0.995247 -0.104634 0)
(0.995902 -0.109837 0)
(0.996778 -0.115104 0)
(0.997859 -0.120525 5.39028e-18)
(0.999092 -0.126189 -1.09787e-17)
(1.00039 -0.132159 -5.5945e-18)
(1.00162 -0.138449 5.63983e-18)
(1.00267 -0.14501 5.54446e-18)
(1.0034 -0.151719 -5.7708e-18)
(1.00372 -0.158391 5.87132e-18)
(1.00357 -0.164795 0)
(1.00296 -0.170686 6.16888e-18)
(1.00191 -0.175825 -6.36895e-18)
(1.00049 -0.180006 0)
(0.998778 -0.183069 -1.36547e-17)
(0.996879 -0.184907 7.10346e-18)
(0.994923 -0.185481 -1.48534e-17)
(0.993084 -0.184829 7.74264e-18)
(0.991585 -0.18307 0)
(0.99071 -0.180406 8.22331e-18)
(0.990799 -0.177114 8.47655e-18)
(0.992234 -0.173526 -8.45078e-18)
(0.99545 -0.170008 -8.45302e-18)
(1.00082 -0.166912 8.14316e-18)
(1.00893 -0.164566 0)
(1.01957 -0.163113 0)
(1.03485 -0.162732 5.25784e-18)
(1.04823 -0.162655 0)
(1.0792 -0.163477 1.48324e-18)
(0.977833 0.212617 1.6205e-17)
(0.988995 0.19965 0)
(0.998472 0.199058 -2.40925e-17)
(1.00125 0.199733 2.18269e-17)
(1.00018 0.19759 -2.08145e-17)
(0.99903 0.194434 1.99639e-17)
(0.998399 0.191033 0)
(0.997724 0.187058 1.60212e-19)
(0.996946 0.182455 1.6792e-17)
(0.996278 0.177367 0)
(0.995792 0.171857 0)
(0.995442 0.165931 0)
(0.995188 0.159586 2.77048e-17)
(0.995003 0.152813 0)
(0.994848 0.145595 2.46882e-17)
(0.994672 0.13794 0)
(0.994465 0.130056 4.61765e-17)
(0.994268 0.122182 0)
(0.994123 0.114345 0)
(0.994033 0.10652 -2.20793e-17)
(0.993975 0.098712 -1.08135e-17)
(0.993935 0.0909545 0)
(0.993916 0.0832774 0)
(0.993933 0.0756955 0)
(0.993999 0.0682095 5.25973e-18)
(0.994116 0.0608137 -5.24264e-18)
(0.994279 0.0534999 -1.07965e-19)
(0.994481 0.0462591 0)
(0.994711 0.0390825 5.33854e-18)
(0.994955 0.0319656 0)
(0.995202 0.0249094 0)
(0.995442 0.0179172 -2.63375e-18)
(0.995669 0.0109957 1.34973e-18)