/*--------------------------------*- C++ -*----------------------------------*\
| =========                 |                                                 |
| \\      /  F ield         | OpenFOAM: The Open Source CFD Toolbox           |
|  \\    /   O peration     | Version:  v1912                                 |
|   \\  /    A nd           | Website:  www.openfoam.com                      |
|    \\/     M anipulation  |                                                 |
\*---------------------------------------------------------------------------*/
FoamFile
{
    version     2.0;
    format      ascii;
    class       volScalarField;
    location    "400";
    object      k;
}
// * * * * * * * * * * * * * * * * * * * * * * * * * * * * * * * * * * * * * //

dimensions      [0 2 -2 0 0 0 0];


internalField   nonuniform List<scalar> 
10000
(
1e-15
1e-15
1e-15
1.0106e-15
1.15691e-15
1.28103e-15
1.83716e-15
2.14982e-15
3.28007e-15
3.95955e-15
6.35328e-15
7.91013e-15
1.30073e-14
1.64651e-14
2.80376e-14
3.63648e-14
6.2775e-14
8.44972e-14
9.57554e-13
1.61333e-07
1e-15
1e-15
1.03468e-15
1.0863e-15
1.49995e-15
1.69972e-15
2.68281e-15
3.27604e-15
5.1306e-15
6.24203e-15
1.03731e-14
1.3261e-14
2.13568e-14
2.4976e-14
4.21432e-14
5.95204e-14
9.8253e-14
1.43042e-13
3.27176e-13
1.62377e-08
1e-15
1e-15
1e-15
1e-15
1e-15
1e-15
1e-15
1e-15
1e-15
1e-15
1e-15
1.0713e-15
1.39782e-15
1.79575e-15
3.62206e-15
5.36734e-15
1.11185e-14
3.66418e-14
8.27005e-14
2.21271e-07
1e-15
1e-15
1e-15
1e-15
1e-15
1e-15
1e-15
1e-15
1e-15
1e-15
1e-15
1e-15
1e-15
1e-15
1e-15
1e-15
1e-15
1e-15
1e-15
1e-15
1e-15
1e-15
1e-15
1e-15
1e-15
1e-15
1e-15
1e-15
1e-15
1e-15
1e-15
1e-15
1e-15
1e-15
1e-15
1e-15
1e-15
1e-15
1e-15
1e-15
1e-15
1e-15
1e-15
1e-15
1e-15
1e-15
1e-15
1e-15
1e-15
1e-15
1e-15
1e-15
1e-15
1e-15
1.00914e-15
1e-15
1e-15
1e-15
1e-15
1e-15
1e-15
1e-15
1e-15
1e-15
1e-15
1e-15
1e-15
1e-15
1e-15
1e-15
1e-15
1e-15
1e-15
1e-15
1e-15
1e-15
1e-15
1e-15
1e-15
1e-15
1e-15
1e-15
1e-15
1e-15
1e-15
1e-15
1e-15
1.00507e-15
1e-15
1e-15
1e-15
1e-15
1e-15
1.00206e-15
1e-15
1e-15
1e-15
1e-15
1e-15
1e-15
1e-15
1e-15
1e-15
1e-15
1e-15
1e-15
1e-15
1e-15
1e-15
1e-15
1e-15
1.00782e-15
1e-15
1e-15
1.00255e-15
1e-15
1e-15
1e-15
1e-15
1e-15
1e-15
1e-15
1e-15
1e-15
1e-15
1e-15
1e-15
1e-15
1e-15
1e-15
1.01261e-15
1e-15
1e-15
1e-15
1e-15
1e-15
1e-15
1e-15
1e-15
1e-15
1e-15
1e-15
1e-15
1e-15
1e-15
1e-15
1e-15
1e-15
1e-15
1e-15
1e-15
1.0098e-15
1e-15
1e-15
1e-15
1e-15
1e-15
1e-15
1e-15
1e-15
1e-15
1e-15
1e-15
1e-15
1e-15
1e-15
1e-15
1e-15
1e-15
1e-15
1e-15
1e-15
1.01065e-15
1e-15
1e-15
1e-15
1e-15
1e-15
1e-15
1e-15
1e-15
1e-15
1e-15
1e-15
1e-15
1e-15
1e-15
1e-15
1.01207e-15
1e-15
1e-15
1e-15
1e-15
1e-15
1e-15
1e-15
1e-15
1e-15
1e-15
1e-15
1e-15
1e-15
1e-15
1e-15
1e-15
1e-15
1e-15
1.01077e-15
1e-15
1e-15
1e-15
1e-15
1e-15
1e-15
1e-15
1e-15
1e-15
1e-15
1e-15
1e-15
1e-15
1e-15
1e-15
1e-15
1e-15
1e-15
1e-15
1e-15
1.0139e-15
1e-15
1e-15
1e-15
1e-15
1e-15
1e-15
1e-15
1.00928e-15
1e-15
1e-15
1e-15
1e-15
1e-15
1e-15
1e-15
1e-15
1e-15
1e-15
1e-15
1e-15
1.01531e-15
1e-15
1e-15
1e-15
1e-15
1e-15
1e-15
1e-15
1.00329e-15
1e-15
1e-15
1e-15
1e-15
1e-15
1e-15
1e-15
1e-15
1e-15
1e-15
1e-15
1.01537e-15
1e-15
1e-15
1e-15
1e-15
1e-15
1e-15
1e-15
1e-15
1.01411e-15
1e-15
1e-15
1e-15
1e-15
1e-15
1e-15
1e-15
1e-15
1e-15
1.01434e-15
1e-15
1e-15
1e-15
1e-15
1e-15
1e-15
1e-15
1e-15
1e-15
1e-15
1.01487e-15
1e-15
1e-15
1e-15
1e-15
1e-15
1e-15
1e-15
1.01224e-15
1e-15
1e-15
1e-15
1e-15
1e-15
1e-15
1e-15
1e-15
1e-15
1.01467e-15
1e-15
1e-15
1e-15
1e-15
1e-15
1e-15
1e-15
1e-15
1.00825e-15
1e-15
1e-15
1e-15
1e-15
1e-15
1e-15
1e-15
1e-15
1e-15
1.01559e-15
1e-15
1e-15
1e-15
1e-15
1e-15
1e-15
1e-15
1e-15
1e-15
1e-15
1.01298e-15
1e-15
1e-15
1e-15
1e-15
1e-15
1e-15
1e-15
1.01531e-15
1e-15
1e-15
1e-15
1e-15
1e-15
1e-15
1e-15
1e-15
1e-15
1e-15
1.0087e-15
1e-15
1e-15
1e-15
1e-15
1e-15
1e-15
1e-15
1.01596e-15
1e-15
1e-15
1e-15
1e-15
1e-15
1e-15
1e-15
1e-15
1e-15
1e-15
1e-15
1e-15
1.01337e-15
1e-15
1e-15
1e-15
1e-15
1e-15
1.00659e-15
1e-15
1e-15
1e-15
1e-15
1e-15
1e-15
1e-15
1e-15
1e-15
1e-15
1e-15
1e-15
1.00908e-15
1e-15
1e-15
1e-15
1e-15
1e-15
1.006e-15
1e-15
1e-15
1e-15
1e-15
1e-15
1e-15
1e-15
1e-15
1e-15
1e-15
1e-15
1e-15
1e-15
1e-15
1.01382e-15
1e-15
1e-15
1e-15
1e-15
1e-15
1e-15
1e-15
1e-15
1e-15
1e-15
1e-15
1e-15
1e-15
1e-15
1e-15
1e-15
1e-15
1e-15
1e-15
1e-15
1e-15
1e-15
1.0169e-15
1e-15
1e-15
1e-15
1e-15
1e-15
1e-15
1e-15
1e-15
1e-15
1e-15
1e-15
1e-15
1e-15
1e-15
1e-15
1.00944e-15
1e-15
1e-15
1e-15
1e-15
1e-15
1e-15
1e-15
1e-15
1e-15
1e-15
1e-15
1e-15
1e-15
1e-15
1e-15
1e-15
1e-15
1e-15
1.00055e-15
1e-15
1e-15
1e-15
1e-15
1e-15
1e-15
1.0142e-15
1e-15
1e-15
1e-15
1e-15
1e-15
1e-15
1.0143e-15
1e-15
1e-15
1e-15
1e-15
1e-15
1e-15
1e-15
1e-15
1e-15
1e-15
1e-15
1e-15
1e-15
1.0173e-15
1e-15
1e-15
1e-15
1e-15
1e-15
1e-15
1e-15
1e-15
1e-15
1e-15
1e-15
1e-15
1e-15
1e-15
1e-15
1e-15
1e-15
1e-15
1e-15
1.01727e-15
1e-15
1e-15
1e-15
1e-15
1e-15
1e-15
1e-15
1e-15
1e-15
1e-15
1e-15
1e-15
1e-15
1e-15
1e-15
1e-15
1e-15
1e-15
1.01678e-15
1e-15
1e-15
1e-15
1e-15
1e-15
1e-15
1e-15
1e-15
1e-15
1e-15
1e-15
1e-15
1e-15
1e-15
1e-15
1e-15
1e-15
1e-15
1e-15
1e-15
1e-15
1e-15
1e-15
1e-15
1.0153e-15
1e-15
1e-15
1e-15
1e-15
1e-15
1e-15
1e-15
1e-15
1e-15
1.01436e-15
1e-15
1e-15
1e-15
1e-15
1e-15
1.01746e-15
1e-15
1e-15
1e-15
1e-15
1e-15
1e-15
1e-15
1e-15
1e-15
1e-15
1e-15
1e-15
1.01011e-15
1e-15
1e-15
1e-15
1e-15
1e-15
1.00683e-15
1e-15
1e-15
1e-15
1e-15
1e-15
1.00928e-15
1e-15
1e-15
1e-15
1e-15
1e-15
1e-15
1e-15
1e-15
1.01449e-15
1e-15
1e-15
1e-15
1e-15
1e-15
1.01768e-15
1e-15
1e-15
1e-15
1e-15
1e-15
1e-15
1e-15
1e-15
1e-15
1e-15
1e-15
1.00128e-15
1e-15
1e-15
1e-15
1e-15
1e-15
1.00538e-15
1e-15
1e-15
1e-15
1e-15
1e-15
1e-15
1e-15
1e-15
1e-15
1e-15
1e-15
1e-15
1e-15
1e-15
1e-15
1e-15
1e-15
1e-15
1.00324e-15
1e-15
1e-15
1e-15
1e-15
1e-15
1.00931e-15
1e-15
1e-15
1e-15
1e-15
1e-15
1e-15
1e-15
1e-15
1e-15
1e-15
1e-15
1e-15
1e-15
1.00335e-15
1e-15
1e-15
1e-15
1e-15
1e-15
1.00957e-15
1e-15
1e-15
1e-15
1e-15
1e-15
1e-15
1e-15
1e-15
1e-15
1e-15
1e-15
1e-15
1e-15
1.0033e-15
1e-15
1e-15
1e-15
1e-15
1e-15
1.00939e-15
1e-15
1e-15
1e-15
1e-15
1e-15
1e-15
1e-15
1e-15
1.00156e-15
1e-15
1e-15
1e-15
1e-15
1e-15
1e-15
1e-15
1.01693e-15
1e-15
1e-15
1e-15
1e-15
1e-15
1e-15
1e-15
1e-15
1e-15
1e-15
1e-15
1e-15
1.01036e-15
1e-15
1e-15
1e-15
1e-15
1e-15
1.00686e-15
1e-15
1e-15
1e-15
1e-15
1e-15
1.00963e-15
1e-15
1e-15
1e-15
1e-15
1e-15
1e-15
1.00155e-15
1e-15
1e-15
1e-15
1e-15
1e-15
1.00549e-15
1e-15
1e-15
1e-15
1e-15
1e-15
1.00941e-15
1e-15
1e-15
1e-15
1e-15
1e-15
1e-15
1e-15
1e-15
1e-15
1e-15
1e-15
1e-15
1.00332e-15
1e-15
1e-15
1e-15
1e-15
1e-15
1.00922e-15
1e-15
1e-15
1e-15
1e-15
1e-15
1e-15
1e-15
1e-15
1.00164e-15
1e-15
1e-15
1e-15
1e-15
1e-15
1e-15
1e-15
1e-15
1e-15
1.006e-15
1e-15
1e-15
1e-15
1e-15
1e-15
1e-15
1e-15
1e-15
1e-15
1e-15
1.01041e-15
1e-15
1e-15
1e-15
1.01375e-15
1e-15
1e-15
1e-15
1e-15
1e-15
1.00948e-15
1e-15
1e-15
1e-15
1e-15
1e-15
1e-15
1e-15
1e-15
1e-15
1e-15
1.0148e-15
1e-15
1e-15
1e-15
1.01452e-15
1e-15
1e-15
1e-15
1e-15
1e-15
1.00955e-15
1e-15
1e-15
1e-15
1e-15
1e-15
1e-15
1e-15
1e-15
1.01049e-15
1e-15
1e-15
1e-15
1e-15
1e-15
1.00692e-15
1e-15
1e-15
1e-15
1e-15
1e-15
1.00958e-15
1e-15
1e-15
1e-15
1e-15
1e-15
1e-15
1e-15
1e-15
1e-15
1e-15
1e-15
1e-15
1e-15
1e-15
1.01723e-15
1e-15
1e-15
1e-15
1e-15
1e-15
1.00913e-15
1e-15
1e-15
1e-15
1e-15
1e-15
1e-15
1.01045e-15
1e-15
1e-15
1e-15
1e-15
1e-15
1.00702e-15
1e-15
1e-15
1e-15
1e-15
1e-15
1.00976e-15
1e-15
1e-15
1e-15
1e-15
1e-15
1e-15
1e-15
1e-15
1e-15
1e-15
1e-15
1e-15
1e-15
1e-15
1.01727e-15
1e-15
1e-15
1e-15
1e-15
1e-15
1.00921e-15
1e-15
1e-15
1e-15
1e-15
1e-15
1e-15
1.01046e-15
1e-15
1e-15
1e-15
1e-15
1e-15
1.00707e-15
1e-15
1e-15
1e-15
1e-15
1e-15
1.00972e-15
1e-15
1e-15
1e-15
1e-15
1e-15
1e-15
1e-15
1.01056e-15
1e-15
1e-15
1e-15
1e-15
1e-15
1.0071e-15
1e-15
1e-15
1e-15
1e-15
1e-15
1.0097e-15
1e-15
1e-15
1e-15
1e-15
1e-15
1e-15
1e-15
1e-15
1.01489e-15
1e-15
1e-15
1e-15
1e-15
1e-15
1e-15
1e-15
1e-15
1e-15
1.00703e-15
1e-15
1e-15
1e-15
1e-15
1e-15
1e-15
1e-15
1e-15
1.01053e-15
1e-15
1e-15
1e-15
1e-15
1e-15
1.00699e-15
1e-15
1e-15
1e-15
1e-15
1e-15
1.00967e-15
1e-15
1e-15
1e-15
1e-15
1e-15
1e-15
1e-15
1e-15
1.01489e-15
1e-15
1e-15
1e-15
1e-15
1e-15
1.01787e-15
1e-15
1e-15
1e-15
1e-15
1e-15
1.00932e-15
1e-15
1e-15
1e-15
1e-15
1e-15
1e-15
1.01045e-15
1e-15
1e-15
1e-15
1e-15
1e-15
1.00698e-15
1e-15
1e-15
1e-15
1e-15
1e-15
1.00969e-15
1e-15
1e-15
1e-15
1e-15
1e-15
1e-15
1e-15
1e-15
1e-15
1e-15
1e-15
1.00335e-15
1e-15
1e-15
1e-15
1e-15
1e-15
1e-15
1e-15
1.00899e-15
1e-15
1e-15
1e-15
1e-15
1e-15
1e-15
1e-15
1e-15
1e-15
1e-15
1.01735e-15
1e-15
1e-15
1e-15
1e-15
1e-15
1e-15
1e-15
1e-15
1.00356e-15
1e-15
1e-15
1e-15
1e-15
1e-15
1e-15
1e-15
1e-15
1e-15
1.01689e-15
1e-15
1e-15
1e-15
1e-15
1e-15
1e-15
1e-15
1e-15
1e-15
1.01637e-15
1e-15
1e-15
1e-15
1e-15
1e-15
1e-15
1e-15
1e-15
1.01353e-15
1e-15
1e-15
1e-15
1e-15
1e-15
1.00775e-15
1e-15
1e-15
1e-15
1.01509e-15
1e-15
1e-15
1e-15
1e-15
1e-15
1e-15
1e-15
1e-15
1.0105e-15
1e-15
1e-15
1e-15
1e-15
1e-15
1.00698e-15
1e-15
1e-15
1e-15
1e-15
1e-15
1.00966e-15
1e-15
1e-15
1e-15
1e-15
1e-15
1e-15
1.00174e-15
1e-15
1e-15
1e-15
1e-15
1e-15
1.00562e-15
1e-15
1e-15
1e-15
1e-15
1e-15
1.00952e-15
1e-15
1e-15
1e-15
1e-15
1e-15
1e-15
1e-15
1e-15
1e-15
1e-15
1e-15
1e-15
1.00344e-15
1e-15
1e-15
1e-15
1e-15
1e-15
1.0094e-15
1e-15
1e-15
1e-15
1e-15
1e-15
1e-15
1e-15
1e-15
1e-15
1e-15
1e-15
1e-15
1e-15
1e-15
1.00522e-15
1e-15
1e-15
1e-15
1e-15
1e-15
1.00951e-15
1e-15
1e-15
1e-15
1e-15
1e-15
1e-15
1e-15
1e-15
1.01049e-15
1e-15
1e-15
1e-15
1e-15
1e-15
1.007e-15
1e-15
1e-15
1e-15
1e-15
1e-15
1.00961e-15
1e-15
1e-15
1e-15
1e-15
1e-15
1e-15
1e-15
1e-15
1.01352e-15
1e-15
1e-15
1e-15
1e-15
1e-15
1.00773e-15
1e-15
1e-15
1e-15
1e-15
1e-15
1.00966e-15
1e-15
1e-15
1e-15
1e-15
1e-15
1e-15
1e-15
1e-15
1.01691e-15
1e-15
1e-15
1e-15
1e-15
1e-15
1.00834e-15
1e-15
1e-15
1e-15
1e-15
1e-15
1e-15
1e-15
1e-15
1e-15
1e-15
1e-15
1e-15
1e-15
1e-15
1e-15
1e-15
1e-15
1e-15
1e-15
1e-15
1e-15
1e-15
1.01602e-15
1e-15
1e-15
1e-15
1e-15
1e-15
1e-15
1e-15
1e-15
1e-15
1e-15
1e-15
1e-15
1.00341e-15
1e-15
1e-15
1e-15
1e-15
1e-15
1.00928e-15
1e-15
1e-15
1e-15
1e-15
1e-15
1e-15
1e-15
1e-15
1.00175e-15
1e-15
1e-15
1e-15
1e-15
1e-15
1e-15
1e-15
1e-15
1e-15
1e-15
1.0141e-15
1e-15
1e-15
1e-15
1e-15
1e-15
1e-15
1e-15
1e-15
1e-15
1e-15
1e-15
1.00967e-15
1e-15
1e-15
1e-15
1e-15
1e-15
1.00872e-15
1e-15
1e-15
1e-15
1e-15
1e-15
1e-15
1e-15
1e-15
1e-15
1e-15
1e-15
1e-15
1e-15
1e-15
1e-15
1e-15
1e-15
1e-15
1.00353e-15
1e-15
1e-15
1e-15
1e-15
1e-15
1.00973e-15
1e-15
1e-15
1e-15
1e-15
1e-15
1e-15
1e-15
1e-15
1e-15
1e-15
1e-15
1e-15
1.00503e-15
1e-15
1e-15
1e-15
1e-15
1e-15
1.00971e-15
1e-15
1e-15
1e-15
1e-15
1e-15
1e-15
1e-15
1e-15
1.01489e-15
1e-15
1e-15
1e-15
1.01452e-15
1e-15
1e-15
1e-15
1e-15
1e-15
1.00952e-15
1e-15
1e-15
1e-15
1e-15
1e-15
1e-15
1e-15
1e-15
1e-15
1e-15
1e-15
1e-15
1e-15
1.01783e-15
1e-15
1e-15
1e-15
1e-15
1e-15
1.00903e-15
1e-15
1e-15
1e-15
1e-15
1e-15
1e-15
1e-15
1e-15
1e-15
1e-15
1e-15
1e-15
1.00261e-15
1e-15
1e-15
1e-15
1e-15
1e-15
1.00927e-15
1e-15
1e-15
1e-15
1e-15
1e-15
1e-15
1e-15
1e-15
1e-15
1e-15
1e-15
1e-15
1e-15
1.00342e-15
1e-15
1e-15
1e-15
1e-15
1e-15
1.00934e-15
1e-15
1e-15
1e-15
1e-15
1e-15
1e-15
1e-15
1e-15
1.00175e-15
1e-15
1e-15
1e-15
1e-15
1e-15
1.00563e-15
1e-15
1e-15
1e-15
1e-15
1e-15
1.00952e-15
1e-15
1e-15
1e-15
1e-15
1e-15
1e-15
1e-15
1e-15
1e-15
1e-15
1e-15
1e-15
1e-15
1e-15
1.01754e-15
1e-15
1e-15
1e-15
1e-15
1e-15
1.0091e-15
1e-15
1e-15
1e-15
1e-15
1e-15
1e-15
1e-15
1e-15
1e-15
1e-15
1.01772e-15
1e-15
1e-15
1.00625e-15
1e-15
1e-15
1e-15
1e-15
1e-15
1.00982e-15
1e-15
1e-15
1e-15
1e-15
1e-15
1e-15
1e-15
1e-15
1e-15
1.01691e-15
1e-15
1e-15
1e-15
1e-15
1e-15
1.00832e-15
1e-15
1e-15
1e-15
1e-15
1e-15
1e-15
1e-15
1e-15
1e-15
1e-15
1e-15
1e-15
1.01488e-15
1e-15
1e-15
1e-15
1e-15
1e-15
1.00783e-15
1e-15
1e-15
1e-15
1e-15
1e-15
1.00961e-15
1e-15
1e-15
1e-15
1e-15
1e-15
1e-15
1e-15
1e-15
1.0169e-15
1e-15
1e-15
1e-15
1e-15
1e-15
1e-15
1e-15
1e-15
1e-15
1.01563e-15
1e-15
1e-15
1e-15
1e-15
1e-15
1e-15
1e-15
1e-15
1e-15
1e-15
1e-15
1e-15
1e-15
1e-15
1.0172e-15
1e-15
1e-15
1e-15
1e-15
1e-15
1.00909e-15
1e-15
1e-15
1e-15
1e-15
1e-15
1e-15
1e-15
1e-15
1.01692e-15
1e-15
1e-15
1e-15
1e-15
1e-15
1.00833e-15
1e-15
1e-15
1e-15
1e-15
1e-15
1e-15
1e-15
1e-15
1e-15
1e-15
1e-15
1e-15
1.01488e-15
1e-15
1e-15
1e-15
1e-15
1e-15
1.01353e-15
1e-15
1e-15
1e-15
1e-15
1e-15
1.00984e-15
1e-15
1e-15
1e-15
1e-15
1e-15
1e-15
1.01051e-15
1e-15
1e-15
1e-15
1e-15
1e-15
1.00697e-15
1e-15
1e-15
1e-15
1e-15
1e-15
1.0096e-15
1e-15
1e-15
1e-15
1e-15
1e-15
1e-15
1.00175e-15
1e-15
1e-15
1e-15
1e-15
1e-15
1.00563e-15
1e-15
1e-15
1e-15
1e-15
1e-15
1.00951e-15
1e-15
1e-15
1e-15
1e-15
1e-15
1e-15
1e-15
1e-15
1e-15
1e-15
1e-15
1e-15
1.00339e-15
1e-15
1e-15
1e-15
1e-15
1e-15
1.00932e-15
1e-15
1e-15
1e-15
1e-15
1e-15
1e-15
1e-15
1e-15
1.00175e-15
1e-15
1e-15
1e-15
1e-15
1e-15
1.00563e-15
1e-15
1e-15
1e-15
1e-15
1e-15
1.00955e-15
1e-15
1e-15
1e-15
1e-15
1e-15
1e-15
1e-15
1e-15
1e-15
1e-15
1e-15
1e-15
1e-15
1.01782e-15
1e-15
1e-15
1e-15
1e-15
1e-15
1.00905e-15
1e-15
1e-15
1e-15
1e-15
1e-15
1e-15
1e-15
1e-15
1.01052e-15
1e-15
1e-15
1e-15
1e-15
1e-15
1.00697e-15
1e-15
1e-15
1e-15
1e-15
1e-15
1.00961e-15
1e-15
1e-15
1e-15
1e-15
1e-15
1e-15
1e-15
1e-15
1.01488e-15
1e-15
1e-15
1e-15
1e-15
1e-15
1.01353e-15
1e-15
1e-15
1e-15
1e-15
1e-15
1.00985e-15
1e-15
1e-15
1e-15
1e-15
1e-15
1e-15
1e-15
1e-15
1.01623e-15
1e-15
1e-15
1e-15
1e-15
1e-15
1.00827e-15
1e-15
1e-15
1e-15
1e-15
1e-15
1e-15
1e-15
1e-15
1e-15
1e-15
1e-15
1e-15
1e-15
1e-15
1e-15
1e-15
1e-15
1e-15
1e-15
1e-15
1.00898e-15
1e-15
1e-15
1e-15
1e-15
1e-15
1e-15
1e-15
1e-15
1e-15
1e-15
1e-15
1e-15
1.01691e-15
1e-15
1e-15
1e-15
1e-15
1e-15
1.00833e-15
1e-15
1e-15
1e-15
1e-15
1e-15
1e-15
1e-15
1e-15
1e-15
1e-15
1e-15
1e-15
1e-15
1e-15
1e-15
1e-15
1e-15
1e-15
1e-15
1e-15
1.00894e-15
1e-15
1e-15
1e-15
1.01466e-15
1e-15
1e-15
1e-15
1e-15
1e-15
1e-15
1e-15
1e-15
1.01691e-15
1e-15
1e-15
1e-15
1e-15
1e-15
1.00833e-15
1e-15
1e-15
1e-15
1e-15
1e-15
1e-15
1e-15
1e-15
1e-15
1e-15
1e-15
1e-15
1.01488e-15
1e-15
1e-15
1e-15
1e-15
1e-15
1.01784e-15
1e-15
1e-15
1e-15
1e-15
1e-15
1.00928e-15
1e-15
1e-15
1e-15
1e-15
1e-15
1e-15
1.01051e-15
1e-15
1e-15
1e-15
1e-15
1e-15
1.00697e-15
1e-15
1e-15
1e-15
1e-15
1e-15
1.0096e-15
1e-15
0.00790751
0.00792192
0.00689309
0.00615082
0.00588332
0.0057551
0.00570502
0.00565161
0.0056046
0.00553437
0.00546793
0.00539474
0.00532921
0.00526004
0.00520228
0.00514144
0.00509286
0.00503924
0.00499724
0.00494924
0.00491234
0.00486956
0.00483737
0.00479906
0.0047705
0.00473538
0.00470977
0.00467749
0.00465458
0.00462479
0.00460431
0.00457671
0.00455816
0.00453221
0.00451525
0.00449084
0.00447541
0.0044524
0.00443836
0.00441662
0.0044038
0.00438307
0.00437128
0.00435144
0.0043406
0.00432162
0.00431165
0.00429347
0.00428432
0.0042668
0.00425835
0.00424145
0.00423359
0.00421734
0.00420999
0.00419434
0.0041875
0.00417242
0.00416604
0.00415142
0.00414546
0.00413125
0.00412569
0.00411188
0.00410672
0.00409328
0.00408849
0.00407538
0.00407095
0.00405813
0.00405404
0.00404147
0.0040377
0.00402534
0.0040219
0.00400973
0.00400663
0.00399458
0.00399195
0.00397931
0.000737365
0.00161407
0.00338388
0.00520301
0.00605444
0.00639532
0.00653936
0.0065212
0.00646826
0.00636514
0.00628279
0.00619574
0.00612199
0.0060502
0.00599433
0.00593662
0.00589097
0.00583784
0.00579755
0.00574873
0.00571353
0.00567041
0.00563989
0.0056003
0.00557189
0.00553487
0.00550924
0.005475
0.00545202
0.00542042
0.00539987
0.00537002
0.00535085
0.00532239
0.00530484
0.00527803
0.00526208
0.00523678
0.00522228
0.00519821
0.00518473
0.00516154
0.00514908
0.00512681
0.00511536
0.00509402
0.00508352
0.00506309
0.00505331
0.00503358
0.0050243
0.00500545
0.00499659
0.00497862
0.00497018
0.00495304
0.004945
0.00492858
0.00492087
0.00490499
0.00489763
0.00488228
0.00487529
0.00486045
0.00485384
0.00483948
0.00483324
0.00481927
0.00481336
0.0047997
0.00479419
0.00478067
0.00477577
0.00476221
0.00475792
0.00474438
0.00474057
0.00472733
0.00472352
0.00471021
3.48109e-05
0.000218388
0.000470975
0.00121878
0.00233779
0.00343497
0.00417277
0.00456284
0.00477773
0.00485952
0.00491012
0.00492321
0.00492552
0.00492039
0.00491625
0.00490501
0.00489726
0.00487988
0.00486981
0.0048495
0.00483905
0.00481989
0.00480926
0.00478962
0.00477749
0.0047577
0.00474587
0.00472665
0.00471554
0.00469719
0.00468678
0.00466849
0.00465804
0.00463985
0.00462995
0.00461246
0.00460324
0.00458646
0.00457791
0.00456161
0.00455332
0.00453726
0.00452939
0.00451376
0.00450634
0.00449129
0.00448431
0.00446988
0.00446314
0.00444904
0.00444251
0.00442886
0.00442257
0.00440944
0.00440338
0.00439079
0.00438496
0.0043728
0.00436711
0.00435526
0.00434975
0.00433822
0.00433293
0.00432175
0.0043167
0.00430586
0.00430102
0.00429046
0.00428581
0.00427543
0.004271
0.00426074
0.00425664
0.00424646
0.00424269
0.00423261
0.00422912
0.0042193
0.00421582
0.00420574
8.87312e-06
2.52153e-05
3.81143e-05
0.000192822
0.00042082
0.00097146
0.00193574
0.00274034
0.00327817
0.0036259
0.00385697
0.00398754
0.00407903
0.00414199
0.00419251
0.00422477
0.00425675
0.004273
0.00429256
0.00429888
0.00431166
0.00431406
0.00432088
0.00431935
0.0043213
0.00431721
0.00431706
0.00431139
0.00431012
0.00430346
0.00430118
0.00429304
0.00428953
0.00428029
0.00427646
0.00426698
0.00426301
0.0042535
0.00424945
0.00423973
0.00423532
0.00422526
0.00422079
0.0042107
0.00420628
0.00419632
0.00419203
0.00418227
0.00417791
0.0041681
0.00416373
0.00415404
0.00414973
0.00414026
0.00413606
0.00412685
0.00412273
0.0041137
0.00410958
0.00410062
0.00409657
0.00408776
0.00408382
0.00407521
0.0040714
0.00406302
0.00405931
0.00405108
0.00404744
0.00403928
0.00403575
0.00402767
0.00402432
0.0040163
0.00401314
0.00400522
0.00400223
0.00399447
0.00399153
0.00398347
3.55986e-09
5.12438e-07
4.498e-06
1.62054e-05
2.72104e-05
0.000160673
0.000373959
0.000883387
0.00160988
0.00222691
0.00267066
0.00298636
0.00322172
0.0033869
0.00351642
0.00361173
0.00369212
0.00374695
0.00379981
0.0038355
0.00387358
0.00389766
0.00392473
0.00394055
0.00396021
0.00396988
0.00398447
0.00399004
0.00400131
0.00400442
0.00401215
0.00401282
0.00401743
0.00401654
0.00401944
0.0040175
0.00401922
0.00401653
0.00401728
0.0040137
0.00401337
0.00400906
0.00400811
0.00400326
0.00400194
0.00399677
0.00399524
0.00398981
0.00398788
0.00398206
0.0039799
0.00397389
0.00397158
0.00396552
0.00396315
0.0039571
0.00395464
0.00394848
0.0039459
0.0039396
0.00393698
0.00393066
0.00392804
0.00392176
0.00391918
0.00391299
0.0039104
0.00390423
0.00390162
0.0038954
0.00389282
0.00388658
0.00388408
0.00387785
0.00387545
0.00386925
0.00386697
0.00386083
0.00385858
0.00385223
1.13778e-10
1.55238e-08
2.24654e-08
1.06124e-06
6.89987e-06
1.45859e-05
2.21749e-05
0.000135514
0.000323566
0.000730787
0.00129399
0.00178917
0.00217538
0.0024723
0.00271883
0.00290654
0.0030606
0.00317502
0.00327748
0.00335439
0.00342634
0.00347942
0.00353184
0.0035688
0.00360799
0.00363386
0.00366441
0.0036832
0.00370782
0.00372147
0.00374079
0.00375039
0.00376566
0.00377221
0.00378439
0.00378881
0.00379844
0.00380145
0.00380895
0.00381049
0.00381597
0.00381651
0.00382052
0.00382033
0.00382318
0.00382238
0.00382446
0.00382301
0.00382423
0.0038222
0.00382278
0.00382036
0.00382046
0.0038178
0.00381755
0.00381465
0.00381408
0.00381081
0.00380995
0.00380637
0.00380532
0.00380155
0.00380037
0.00379649
0.00379522
0.00379128
0.00378988
0.00378582
0.0037843
0.00378006
0.00377848
0.00377414
0.00377256
0.00376813
0.00376659
0.0037621
0.0037606
0.00375606
0.00375456
0.00374997
1e-15
3.88628e-09
2.80382e-09
4.89429e-08
4.11363e-09
4.8309e-07
1.90482e-06
9.03152e-06
1.92058e-05
0.000109687
0.000251339
0.00056173
0.000977869
0.00139214
0.00174861
0.00202913
0.00227668
0.00247741
0.00264954
0.00278419
0.00290469
0.00299982
0.00308865
0.00315631
0.00322195
0.00327066
0.00332205
0.0033586
0.00339959
0.00342706
0.00345968
0.00348013
0.00350694
0.0035224
0.00354445
0.00355629
0.00357467
0.0035839
0.00359925
0.0036061
0.00361882
0.00362397
0.00363455
0.00363845
0.00364709
0.00364997
0.0036571
0.00365904
0.00366471
0.00366594
0.00367044
0.0036711
0.00367465
0.0036749
0.00367771
0.00367757
0.00367965
0.00367902
0.00368051
0.00367948
0.00368052
0.00367921
0.00367989
0.00367836
0.00367876
0.00367703
0.00367711
0.00367519
0.00367497
0.00367277
0.00367239
0.00367
0.0036695
0.00366694
0.00366639
0.00366367
0.00366309
0.00366022
0.00365953
0.00365684
1e-15
1e-15
7.14277e-10
2.14536e-09
6.46256e-11
1.20053e-07
4.77114e-07
4.591e-07
1.48646e-06
7.05444e-06
1.43494e-05
7.59156e-05
0.00017021
0.000383946
0.000684195
0.00103311
0.00136058
0.00163407
0.00187058
0.0020738
0.00225906
0.00241134
0.00254874
0.00265901
0.00276225
0.00284395
0.00292414
0.00298544
0.0030483
0.00309506
0.00314587
0.00318148
0.00322286
0.0032503
0.00328454
0.00330631
0.00333509
0.00335248
0.00337655
0.00338996
0.00341049
0.00342124
0.00343891
0.0034475
0.0034626
0.00346944
0.00348248
0.00348795
0.0034991
0.00350349
0.00351293
0.00351647
0.00352449
0.00352736
0.00353422
0.00353648
0.00354221
0.00354386
0.0035486
0.0035498
0.00355376
0.0035546
0.00355789
0.00355841
0.00356116
0.00356139
0.00356355
0.0035635
0.00356515
0.00356482
0.00356612
0.00356555
0.00356656
0.00356577
0.00356657
0.00356555
0.00356617
0.00356497
0.00356522
0.00356462
1e-15
1e-15
6.91136e-13
8.02263e-11
2.00391e-10
1.76729e-12
1.46418e-10
1.70204e-08
6.99363e-08
2.89879e-07
1.04536e-06
4.58679e-06
9.35572e-06
4.60314e-05
9.78086e-05
0.00022545
0.000444443
0.000703846
0.000997878
0.00126127
0.00149654
0.00169506
0.00188169
0.00204255
0.00219486
0.00231843
0.00243604
0.00253101
0.00262434
0.00269833
0.00277406
0.00283092
0.00289192
0.00293621
0.00298672
0.00302211
0.00306426
0.00309266
0.00312801
0.00315055
0.00318075
0.00319907
0.00322512
0.00324001
0.00326256
0.00327478
0.00329445
0.0033043
0.00332143
0.00332953
0.00334452
0.00335122
0.0033644
0.00337005
0.00338159
0.00338635
0.00339638
0.00340037
0.00340908
0.00341247
0.00342005
0.00342291
0.00342951
0.00343191
0.00343767
0.00343966
0.0034446
0.00344621
0.00345043
0.0034517
0.00345533
0.00345633
0.00345945
0.0034602
0.00346288
0.0034634
0.00346562
0.00346608
0.00346739
0.00346919
1e-15
1e-15
2.45729e-14
2.59929e-12
1.08897e-11
1.81822e-13
2.64051e-15
4.21372e-09
1.74304e-08
1.28231e-08
4.72605e-08
1.04664e-07
6.7973e-07
2.51758e-06
4.42481e-06
2.21438e-05
4.87165e-05
0.000120134
0.000244416
0.000433995
0.000664702
0.000901946
0.00113861
0.00133668
0.00152357
0.00168166
0.00183864
0.00197261
0.00210363
0.00221028
0.0023168
0.00240166
0.00248904
0.00255676
0.00262924
0.00268344
0.00274358
0.00278727
0.00283786
0.00287325
0.00291614
0.00294488
0.0029816
0.00300509
0.003037
0.0030565
0.0030844
0.00310036
0.00312465
0.00313787
0.00315933
0.00317043
0.00318948
0.00319887
0.00321578
0.00322367
0.0032386
0.00324523
0.00325852
0.00326427
0.00327604
0.00328103
0.00329146
0.00329581
0.00330508
0.00330889
0.00331711
0.00332044
0.00332771
0.00333061
0.00333704
0.00333958
0.00334527
0.00334751
0.0033525
0.00335455
0.00335869
0.00336106
0.00336343
0.003368
1e-15
1e-15
1e-15
6.47342e-13
4.61652e-13
5.56056e-13
3.88875e-13
9.29043e-13
6.60392e-12
5.39162e-10
3.32519e-09
6.65652e-09
1.81323e-08
7.42428e-08
2.56209e-07
9.52372e-07
1.58346e-06
9.66534e-06
1.90606e-05
5.45957e-05
0.000113967
0.00022031
0.000388902
0.000578997
0.000786126
0.000987562
0.00117693
0.00133666
0.00149386
0.00162661
0.00176379
0.00187955
0.00199757
0.0020925
0.002191
0.00226874
0.00235202
0.00241605
0.00248668
0.00253943
0.00259913
0.00264225
0.00269322
0.00272882
0.0027731
0.00280265
0.00284121
0.00286563
0.0028991
0.00291947
0.00294902
0.00296617
0.00299239
0.00300688
0.00303021
0.00304248
0.00306327
0.00307366
0.00309225
0.00310122
0.00311786
0.00312562
0.00314056
0.00314733
0.00316081
0.00316672
0.00317874
0.00318395
0.00319472
0.00319935
0.00320902
0.00321318
0.00322184
0.00322566
0.00323326
0.00323712
0.00324319
0.00324788
0.00325143
0.00325908
1e-15
1e-15
1e-15
1e-15
1.15239e-13
6.80941e-14
1.63726e-12
3.97031e-12
6.17993e-12
3.50673e-11
1.15517e-10
5.02849e-10
1.05005e-09
2.0565e-09
6.36404e-08
4.1959e-08
3.62282e-08
3.05719e-07
3.49141e-07
3.22218e-06
5.98916e-06
1.99705e-05
4.2884e-05
9.11435e-05
0.000181394
0.000309513
0.00047767
0.000648162
0.000830448
0.000997825
0.00115794
0.00129294
0.00143062
0.00154627
0.00166853
0.00177082
0.00187944
0.00196634
0.0020592
0.00213224
0.00221241
0.00227384
0.0023431
0.00239464
0.00245485
0.0024978
0.00255017
0.00258616
0.00263178
0.00266213
0.00270225
0.00272779
0.00276322
0.00278479
0.00281628
0.0028347
0.00286282
0.00287849
0.00290359
0.00291703
0.00293953
0.00295116
0.00297146
0.00298161
0.003
0.00300886
0.00302539
0.00303313
0.00304805
0.00305494
0.00306842
0.00307468
0.00308675
0.00309268
0.00310311
0.00310922
0.0031175
0.00312473
0.00312976
0.00314081
1e-15
1e-15
1e-15
1e-15
1e-15
2.01341e-14
2.48427e-13
5.7238e-13
1.16202e-12
2.8256e-12
2.86558e-11
1.99488e-11
8.0977e-11
1.23292e-10
1.47146e-10
1.1316e-09
9.04432e-09
1.13053e-08
7.75897e-09
1.31289e-07
2.93758e-07
7.99553e-07
1.47029e-06
6.01195e-06
1.21578e-05
3.25586e-05
6.7197e-05
0.000127849
0.000228278
0.00035506
0.000510595
0.000660337
0.000819773
0.000962132
0.00110348
0.00122145
0.00134463
0.00144802
0.00155833
0.00165058
0.00175161
0.00183268
0.0019216
0.00199062
0.00206887
0.00212797
0.0021971
0.0022477
0.00230855
0.00235179
0.00240528
0.00244196
0.00248923
0.00252046
0.00256256
0.00258939
0.00262692
0.00264988
0.0026833
0.00270298
0.00273292
0.00274999
0.00277699
0.00279187
0.00281629
0.0028293
0.00285127
0.00286265
0.00288248
0.00289265
0.00291053
0.00291983
0.00293574
0.00294463
0.00295828
0.00296746
0.00297821
0.0029888
0.00299555
0.00301072
1e-15
1e-15
1e-15
1e-15
1e-15
1.22989e-15
2.15051e-14
4.93378e-14
1.18388e-13
2.46041e-13
1.67764e-14
1.16315e-12
2.7666e-12
6.37843e-12
8.96561e-12
2.13653e-11
5.33749e-12
2.47532e-10
4.26686e-10
4.30372e-09
9.12922e-09
1.62489e-08
6.32707e-08
1.94571e-07
2.8315e-07
1.62668e-06
2.95072e-06
9.04115e-06
1.84468e-05
4.13884e-05
8.36348e-05
0.000145153
0.000243902
0.000358462
0.000498678
0.000630992
0.000772179
0.000895841
0.00102492
0.00113027
0.00124273
0.00133603
0.0014384
0.00152142
0.00161611
0.00169168
0.0017779
0.0018439
0.0019207
0.0019781
0.00204685
0.00209688
0.00215844
0.00220178
0.00225689
0.00229441
0.0023436
0.00237607
0.00242002
0.00244814
0.00248761
0.00251212
0.00254761
0.00256901
0.00260094
0.00261974
0.00264845
0.00266509
0.00269091
0.00270585
0.00272896
0.0027427
0.00276306
0.00277622
0.00279354
0.00280704
0.00282065
0.0028357
0.00284458
0.0028649
1e-15
1e-15
1e-15
1e-15
1e-15
1e-15
2.06141e-15
4.20149e-15
8.64023e-15
1.90261e-14
1.58742e-15
3.26839e-14
6.809e-13
2.25112e-13
4.36501e-13
8.36869e-13
1.21987e-12
6.26413e-12
1.39512e-11
9.31711e-11
2.41563e-10
2.7807e-10
1.5561e-08
6.12019e-09
9.10412e-09
2.31122e-08
1.55774e-08
3.47836e-07
5.46625e-07
2.10147e-06
3.9876e-06
1.02136e-05
2.11628e-05
4.29449e-05
8.62054e-05
0.000140063
0.000231569
0.000328285
0.000454691
0.000571485
0.000699549
0.000808889
0.00092735
0.00102444
0.00112886
0.00121377
0.00130984
0.0013865
0.00147492
0.00154482
0.00162799
0.00169146
0.00176741
0.00182319
0.00189191
0.00194117
0.00200352
0.00204722
0.00210359
0.00214208
0.00219299
0.00222686
0.00227264
0.00230254
0.00234371
0.0023703
0.00240732
0.0024312
0.00246433
0.00248597
0.00251533
0.00253541
0.00256097
0.00258028
0.00260186
0.00262144
0.00263842
0.0026594
0.00267104
0.00269794
1e-15
1e-15
1e-15
1.00584e-15
1e-15
1e-15
1e-15
1e-15
1.11786e-15
1.77092e-15
1e-15
1.54387e-15
1.00677e-15
5.5783e-14
7.29325e-15
2.20841e-14
1.3785e-13
2.38597e-13
4.63197e-13
4.72439e-12
9.39354e-12
1.31859e-11
1.72957e-12
1.25618e-10
4.42254e-10
6.50566e-10
5.00421e-10
8.51305e-08
1.76196e-08
5.51245e-08
7.57164e-08
3.7247e-07
6.30554e-07
2.04944e-06
4.11327e-06
9.71108e-06
2.01419e-05
3.88275e-05
7.59398e-05
0.000119272
0.000197634
0.000277891
0.00038668
0.00049027
0.00060757
0.000706603
0.000816029
0.000905136
0.00100516
0.0010836
0.00117424
0.00124545
0.00133015
0.00139453
0.00147373
0.00153364
0.00160835
0.00166319
0.00173166
0.00178071
0.00184315
0.0018873
0.00194427
0.00198428
0.00203589
0.00207214
0.00211861
0.0021517
0.00219314
0.00222364
0.00226016
0.00228885
0.00232043
0.0023482
0.00237473
0.00240249
0.00242355
0.00245222
0.00246742
0.00250281
1e-15
1e-15
1e-15
1e-15
1.00803e-15
1e-15
1e-15
1e-15
1e-15
1e-15
1e-15
1e-15
1e-15
1e-15
1e-15
1e-15
3.34553e-15
7.24233e-15
2.22538e-14
1.02458e-13
2.45919e-13
7.87995e-13
6.05965e-14
3.41057e-12
1.07234e-11
2.64441e-11
2.08656e-11
3.91564e-12
2.77452e-10
1.16755e-09
1.78255e-09
3.98438e-09
3.65364e-09
5.59299e-08
9.06484e-08
2.94916e-07
6.31298e-07
1.21706e-06
3.69245e-06
6.79246e-06
1.62287e-05
2.78885e-05
5.88416e-05
8.93145e-05
0.000152763
0.000214161
0.000306607
0.000391996
0.000500001
0.000590777
0.000694211
0.000776503
0.000871314
0.000945983
0.00103279
0.00109968
0.00118012
0.00124193
0.00131725
0.00137391
0.00144465
0.00149844
0.00156513
0.0016155
0.00167646
0.00172295
0.00177808
0.0018215
0.00187108
0.00191225
0.00195613
0.00199555
0.00203348
0.00207189
0.00210377
0.00214176
0.00216751
0.00220577
0.00222539
0.00227135
1e-15
1e-15
1e-15
1e-15
1e-15
1.0095e-15
1e-15
1e-15
1e-15
1e-15
1e-15
1e-15
1e-15
1e-15
1e-15
1e-15
1e-15
1e-15
1.32054e-15
2.92909e-15
9.1993e-15
3.09117e-14
2.06537e-14
1.24207e-13
7.956e-13
1.39074e-12
4.45465e-12
6.93633e-14
6.73655e-11
2.25908e-12
3.77194e-11
2.74857e-10
3.5187e-10
9.3317e-10
2.72741e-10
9.5349e-09
1.8547e-08
2.33338e-08
1.08555e-07
1.65459e-07
5.56161e-07
9.17342e-07
2.61895e-06
4.50665e-06
1.07562e-05
1.84879e-05
3.85894e-05
5.86565e-05
0.000105378
0.000147839
0.000221859
0.000289915
0.000381831
0.000463564
0.000560882
0.000639925
0.000730115
0.000801257
0.000883982
0.000949793
0.00102568
0.0010864
0.00115654
0.00121408
0.00127902
0.00133362
0.00139344
0.00144683
0.0015023
0.00155466
0.00160421
0.00165504
0.00169804
0.00174787
0.00178455
0.001834
0.0018646
0.00191381
0.0019384
0.00199668
1.00699e-15
1e-15
1e-15