/*--------------------------------*- C++ -*----------------------------------*\
| =========                 |                                                 |
| \\      /  F ield         | OpenFOAM: The Open Source CFD Toolbox           |
|  \\    /   O peration     | Version:  v1912                                 |
|   \\  /    A nd           | Website:  www.openfoam.com                      |
|    \\/     M anipulation  |                                                 |
\*---------------------------------------------------------------------------*/
FoamFile
{
    version     2.0;
    format      ascii;
    class       volScalarField;
    location    "400";
    object      nut;
}
// * * * * * * * * * * * * * * * * * * * * * * * * * * * * * * * * * * * * * //

dimensions      [0 2 -1 0 0 0 0];


internalField   nonuniform List<scalar> 
10000
(
1.6245e-18
2.28038e-18
2.64942e-18
3.19837e-18
3.81985e-18
4.53477e-18
6.45984e-18
7.72942e-18
1.14653e-17
1.39448e-17
2.15378e-17
2.68219e-17
4.21769e-17
5.33484e-17
8.64898e-17
1.10902e-16
1.83116e-16
2.4332e-16
2.6435e-15
4.34926e-10
1.58903e-18
2.14939e-18
2.52949e-18
3.06519e-18
4.31536e-18
5.22386e-18
8.17727e-18
1.01396e-17
1.5546e-17
1.90461e-17
3.08061e-17
3.9504e-17
6.17623e-17
7.23149e-17
1.1832e-16
1.67125e-16
2.6737e-16
3.89019e-16
8.62217e-16
4.27497e-11
1.67341e-18
2.38836e-18
3.14646e-18
3.84628e-18
4.61624e-18
5.2395e-18
5.99484e-18
6.52733e-18
7.2424e-18
7.70163e-18
8.35127e-18
9.39708e-18
1.30391e-17
1.75077e-17
3.68937e-17
5.71028e-17
1.21545e-16
4.1874e-16
9.5757e-16
2.65928e-09
1.67556e-18
2.41742e-18
3.19177e-18
3.98242e-18
4.78374e-18
5.59114e-18
6.39748e-18
7.2152e-18
8.01248e-18
8.84315e-18
9.61726e-18
1.04684e-17
1.12033e-17
1.20857e-17
1.27635e-17
1.36936e-17
1.43034e-17
1.52558e-17
1.58245e-17
1.69166e-17
1.67563e-18
2.41799e-18
3.19216e-18
3.985e-18
4.78661e-18
5.59859e-18
6.408e-18
7.23248e-18
8.03938e-18
8.87831e-18
9.67317e-18
1.05321e-17
1.13058e-17
1.21907e-17
1.29289e-17
1.38679e-17
1.45363e-17
1.55459e-17
1.60815e-17
1.74976e-17
1.67565e-18
2.41797e-18
3.19223e-18
3.98482e-18
4.78711e-18
5.59792e-18
6.40981e-18
7.23051e-18
8.04438e-18
8.87365e-18
9.68401e-18
1.05242e-17
1.13244e-17
1.21809e-17
1.30823e-17
1.38393e-17
1.46038e-17
1.54995e-17
1.624e-17
1.72056e-17
1.67566e-18
2.41792e-18
3.19226e-18
3.98457e-18
4.7874e-18
5.59708e-18
6.41094e-18
7.22833e-18
8.04736e-18
8.86882e-18
9.69056e-18
1.05147e-17
1.13375e-17
1.21641e-17
1.2987e-17
1.38143e-17
1.46396e-17
1.54644e-17
1.62931e-17
1.7123e-17
1.67564e-18
2.41785e-18
3.19223e-18
3.98435e-18
4.78752e-18
5.59642e-18
6.41158e-18
7.26335e-18
8.0492e-18
8.86531e-18
9.69475e-18
1.05078e-17
1.1346e-17
1.21767e-17
1.30022e-17
1.37949e-17
1.46636e-17
1.54358e-17
1.63312e-17
1.70735e-17
1.6756e-18
2.41778e-18
3.19214e-18
3.98426e-18
4.78738e-18
5.59635e-18
6.41136e-18
7.22672e-18
8.04878e-18
8.86561e-18
9.69396e-18
1.05908e-17
1.13445e-17
1.21535e-17
1.30328e-17
1.37986e-17
1.46595e-17
1.54423e-17
1.63244e-17
1.70859e-17
1.67561e-18
2.41776e-18
3.19209e-18
3.98426e-18
4.78718e-18
5.59652e-18
6.4108e-18
7.22736e-18
8.04748e-18
8.86726e-18
9.81345e-18
1.05121e-17
1.13395e-17
1.216e-17
1.29908e-17
1.38099e-17
1.46448e-17
1.54608e-17
1.63021e-17
1.71128e-17
1.67563e-18
2.41775e-18
3.19203e-18
3.98425e-18
4.78701e-18
5.59658e-18
6.41038e-18
7.22769e-18
8.04658e-18
8.86814e-18
9.68951e-18
1.0617e-17
1.13364e-17
1.21635e-17
1.29857e-17
1.38157e-17
1.46366e-17
1.54704e-17
1.62892e-17
1.71278e-17
1.67562e-18
2.41771e-18
3.19197e-18
3.98416e-18
4.7869e-18
5.59644e-18
6.41024e-18
7.22747e-18
8.04643e-18
8.86783e-18
9.6894e-18
1.05135e-17
1.14571e-17
1.21627e-17
1.29859e-17
1.38145e-17
1.46374e-17
1.54684e-17
1.62906e-17
1.71248e-17
1.67562e-18
2.41767e-18
3.19192e-18
3.98407e-18
4.78681e-18
5.5963e-18
6.41014e-18
7.22725e-18
8.14347e-18
8.86746e-18
9.68937e-18
1.0513e-17
1.13365e-17
1.21619e-17
1.29863e-17
1.38132e-17
1.46382e-17
1.54666e-17
1.62919e-17
1.71222e-17
1.67561e-18
2.41763e-18
3.19186e-18
3.98399e-18
4.7867e-18
5.59618e-18
6.40998e-18
7.30493e-18
8.04612e-18
8.8673e-18
9.68907e-18
1.05128e-17
1.13361e-17
1.21618e-17
1.29857e-17
1.38133e-17
1.46373e-17
1.54669e-17
1.62907e-17
1.71229e-17
1.67562e-18
2.41759e-18
3.19181e-18
3.98392e-18
4.78661e-18
5.59606e-18
6.40984e-18
7.22694e-18
8.15775e-18
8.8671e-18
9.68882e-18
1.05126e-17
1.13357e-17
1.21615e-17
1.29853e-17
1.3813e-17
1.47727e-17
1.54667e-17
1.62901e-17
1.71227e-17
1.67563e-18
2.41757e-18
3.19176e-18
3.98385e-18
4.78652e-18
5.59592e-18
6.40973e-18
7.22672e-18
8.04582e-18
9.00256e-18
9.68875e-18
1.05121e-17
1.13358e-17
1.21608e-17
1.29855e-17
1.3812e-17
1.46373e-17
1.55161e-17
1.6291e-17
1.71205e-17
1.67563e-18
2.41753e-18
3.19172e-18
3.98377e-18
4.78643e-18
5.59579e-18
6.40961e-18
7.22652e-18
8.04569e-18
9.00275e-18
9.68865e-18
1.05117e-17
1.13358e-17
1.21602e-17
1.29857e-17
1.3811e-17
1.46377e-17
1.54638e-17
1.65216e-17
1.71186e-17
1.67563e-18
2.4175e-18
3.19166e-18
3.98369e-18
4.78633e-18
5.59567e-18
6.40946e-18
7.22635e-18
8.1609e-18
8.86627e-18
9.6884e-18
1.05114e-17
1.13355e-17
1.21599e-17
1.29853e-17
1.38107e-17
1.46373e-17
1.54635e-17
1.62912e-17
1.73729e-17
1.67563e-18
2.41746e-18
3.1916e-18
3.98361e-18
4.78622e-18
5.59556e-18
6.40929e-18
7.31465e-18
8.04524e-18
8.86614e-18
9.68803e-18
1.05113e-17
1.13349e-17
1.21599e-17
1.29845e-17
1.38109e-17
1.46362e-17
1.56908e-17
1.62897e-17
1.71191e-17
1.67562e-18
2.41742e-18
3.19154e-18
3.98353e-18
4.78611e-18
5.59543e-18
6.46198e-18
7.22605e-18
8.04502e-18
8.86594e-18
9.68774e-18
1.05111e-17
1.13346e-17
1.21597e-17
1.29841e-17
1.38106e-17
1.48637e-17
1.54636e-17
1.6289e-17
1.71187e-17
1.67559e-18
2.41736e-18
3.19146e-18
3.98343e-18
4.78598e-18
5.59529e-18
6.40896e-18
7.31964e-18
8.0448e-18
8.86568e-18
9.68748e-18
1.05108e-17
1.13342e-17
1.21593e-17
1.29837e-17
1.40216e-17
1.46353e-17
1.5463e-17
1.62887e-17
1.71179e-17
1.67556e-18
2.41729e-18
3.19137e-18
3.98331e-18
4.78583e-18
5.59512e-18
6.46451e-18
7.22563e-18
8.0445e-18
8.8654e-18
9.68707e-18
1.05104e-17
1.13337e-17
1.21588e-17
1.31902e-17
1.38095e-17
1.46343e-17
1.54622e-17
1.62875e-17
1.71168e-17
1.67545e-18
2.41715e-18
3.19122e-18
3.98314e-18
4.78566e-18
5.59492e-18
6.40856e-18
7.32199e-18
8.04432e-18
8.86515e-18
9.68692e-18
1.05102e-17
1.13336e-17
1.22386e-17
1.2983e-17
1.38093e-17
1.46345e-17
1.5462e-17
1.62878e-17
1.71166e-17
1.67548e-18
2.41716e-18
3.19121e-18
3.9831e-18
4.78563e-18
5.59481e-18
6.46668e-18
7.22521e-18
8.04426e-18
8.86482e-18
9.68687e-18
1.05096e-17
1.14016e-17
1.21577e-17
1.2983e-17
1.38082e-17
1.46346e-17
1.54605e-17
1.62879e-17
1.71146e-17
1.67563e-18
2.4173e-18
3.19134e-18
3.98321e-18
4.78572e-18
5.59487e-18
6.40855e-18
7.32502e-18
8.04423e-18
8.86468e-18
9.68676e-18
1.05093e-17
1.13334e-17
1.21572e-17
1.29827e-17
1.38074e-17
1.46341e-17
1.54593e-17
1.62872e-17
1.71131e-17
1.67575e-18
2.41741e-18
3.19145e-18
3.98332e-18
4.78582e-18
5.59499e-18
6.40865e-18
7.22535e-18
8.04437e-18
8.86493e-18
9.85068e-18
1.05097e-17
1.13336e-17
1.21578e-17
1.29831e-17
1.38082e-17
1.46346e-17
1.54605e-17
1.62879e-17
1.71145e-17
1.6758e-18
2.41746e-18
3.19148e-18
3.98336e-18
4.78584e-18
5.59503e-18
6.46915e-18
7.2254e-18
8.04437e-18
8.86501e-18
9.68694e-18
1.05099e-17
1.13336e-17
1.21581e-17
1.29831e-17
1.38086e-17
1.46346e-17
1.5461e-17
1.62879e-17
1.71153e-17
1.67581e-18
2.41746e-18
3.19147e-18
3.98334e-18
4.78581e-18
5.59809e-18
6.40862e-18
7.22536e-18
8.04431e-18
8.86497e-18
9.68686e-18
1.05098e-17
1.14945e-17
1.2158e-17
1.29829e-17
1.38086e-17
1.46344e-17
1.5461e-17
1.62877e-17
1.736e-17
1.67582e-18
2.41746e-18
3.19146e-18
3.98332e-18
4.78578e-18
5.59496e-18
6.40857e-18
7.22531e-18
8.04424e-18
8.86489e-18
9.68676e-18
1.05097e-17
1.13334e-17
1.23682e-17
1.29828e-17
1.38084e-17
1.46342e-17
1.54609e-17
1.62874e-17
1.7115e-17
1.67582e-18
2.41746e-18
3.19144e-18
3.9833e-18
4.78575e-18
5.59491e-18
6.40852e-18
7.22524e-18
8.04417e-18
8.86482e-18
9.68668e-18
1.05096e-17
1.13333e-17
1.23678e-17
1.29827e-17
1.38083e-17
1.46341e-17
1.54607e-17
1.62872e-17
1.71147e-17
1.67582e-18
2.41745e-18
3.19143e-18
3.98328e-18
4.78572e-18
5.59488e-18
6.40847e-18
7.22519e-18
8.04411e-18
8.86474e-18
9.6866e-18
1.05096e-17
1.15234e-17
1.21577e-17
1.29825e-17
1.38082e-17
1.46339e-17
1.54605e-17
1.6287e-17
1.71145e-17
1.67583e-18
2.41745e-18
3.19142e-18
3.98325e-18
4.78569e-18
5.59484e-18
6.40842e-18
7.22513e-18
8.04405e-18
8.86468e-18
9.68652e-18
1.05095e-17
1.13331e-17
1.21576e-17
1.29824e-17
1.38081e-17
1.46338e-17
1.56968e-17
1.62868e-17
1.71143e-17
1.67583e-18
2.41745e-18
3.1914e-18
3.98324e-18
4.78567e-18
5.59481e-18
6.40839e-18
7.32886e-18
8.04399e-18
8.86461e-18
9.68645e-18
1.05094e-17
1.1333e-17
1.23697e-17
1.29823e-17
1.38079e-17
1.46336e-17
1.54602e-17
1.62866e-17
1.7114e-17
1.67583e-18
2.41744e-18
3.19139e-18
3.98322e-18
4.78564e-18
5.59477e-18
6.47317e-18
7.22504e-18
8.04394e-18
8.86456e-18
9.68638e-18
1.05093e-17
1.14103e-17
1.21574e-17
1.29822e-17
1.38078e-17
1.46335e-17
1.546e-17
1.64376e-17
1.71138e-17
1.67583e-18
2.41744e-18
3.19138e-18
3.9832e-18
4.78562e-18
5.59475e-18
6.40831e-18
7.3297e-18
8.04389e-18
8.8645e-18
9.68632e-18
1.05092e-17
1.13329e-17
1.23722e-17
1.29821e-17
1.38077e-17
1.46334e-17
1.54599e-17
1.62862e-17
1.71135e-17
1.67583e-18
2.41744e-18
3.19137e-18
3.98319e-18
4.7856e-18
5.60189e-18
6.40828e-18
7.22496e-18
8.04385e-18
8.86445e-18
9.68627e-18
1.05657e-17
1.13328e-17
1.21572e-17
1.2982e-17
1.38076e-17
1.46333e-17
1.54597e-17
1.62861e-17
1.71133e-17
1.67583e-18
2.41744e-18
3.19137e-18
3.98317e-18
4.78558e-18
5.5947e-18
6.40825e-18
7.22493e-18
8.04381e-18
8.8644e-18
9.71756e-18
1.05091e-17
1.13327e-17
1.21571e-17
1.29819e-17
1.38075e-17
1.47693e-17
1.54596e-17
1.62859e-17
1.71131e-17
1.67583e-18
2.41744e-18
3.19136e-18
3.98316e-18
4.78556e-18
5.59467e-18
6.40822e-18
7.22489e-18
8.04377e-18
8.86436e-18
9.7186e-18
1.05091e-17
1.13327e-17
1.21571e-17
1.29819e-17
1.38074e-17
1.4773e-17
1.54594e-17
1.62857e-17
1.71128e-17
1.67584e-18
2.41744e-18
3.19135e-18
3.98315e-18
4.78555e-18
5.59465e-18
6.4082e-18
7.22487e-18
8.04374e-18
8.86432e-18
9.71813e-18
1.0509e-17
1.13326e-17
1.2157e-17
1.29818e-17
1.38073e-17
1.47703e-17
1.54593e-17
1.62855e-17
1.71126e-17
1.67584e-18
2.41744e-18
3.19135e-18
3.98314e-18
4.78554e-18
5.60335e-18
6.40818e-18
7.22484e-18
8.04371e-18
8.86428e-18
9.68608e-18
1.0509e-17
1.13325e-17
1.23627e-17
1.29817e-17
1.38072e-17
1.46328e-17
1.54592e-17
1.62853e-17
1.71124e-17
1.67584e-18
2.41744e-18
3.19135e-18
3.98313e-18
4.78553e-18
5.59462e-18
6.47452e-18
7.22482e-18
8.04368e-18
8.86424e-18
9.68603e-18
1.05089e-17
1.14102e-17
1.21569e-17
1.29816e-17
1.38071e-17
1.46327e-17
1.5459e-17
1.64419e-17
1.71122e-17
1.67584e-18
2.41744e-18
3.19134e-18
3.98313e-18
4.78551e-18
5.60327e-18
6.40814e-18
7.22479e-18
8.04365e-18
8.86421e-18
9.686e-18
1.05666e-17
1.13324e-17
1.21568e-17
1.29815e-17
1.3807e-17
1.46326e-17
1.56044e-17
1.6285e-17
1.7112e-17
1.67584e-18
2.41744e-18
3.19134e-18
3.98312e-18
4.78551e-18
5.59459e-18
6.40813e-18
7.22477e-18
8.04362e-18
8.86418e-18
9.71808e-18
1.05088e-17
1.13324e-17
1.21567e-17
1.29815e-17
1.38069e-17
1.47673e-17
1.54587e-17
1.62848e-17
1.71118e-17
1.67584e-18
2.41744e-18
3.19134e-18
3.98311e-18
4.7855e-18
5.60376e-18
6.40811e-18
7.22475e-18
8.0436e-18
8.86415e-18
9.68593e-18
1.05088e-17
1.13323e-17
1.21567e-17
1.29814e-17
1.38897e-17
1.46323e-17
1.54586e-17
1.62846e-17
1.71115e-17
1.67584e-18
2.41744e-18
3.19134e-18
3.98311e-18
4.78549e-18
5.59457e-18
6.47481e-18
7.22473e-18
8.04358e-18
8.86413e-18
9.81911e-18
1.05087e-17
1.13323e-17
1.21566e-17
1.29813e-17
1.38067e-17
1.47709e-17
1.54584e-17
1.62844e-17
1.71113e-17
1.67584e-18
2.41744e-18
3.19133e-18
3.98311e-18
4.78548e-18
5.59456e-18
6.40808e-18
7.33163e-18
8.04356e-18
8.8641e-18
9.68586e-18
1.06612e-17
1.13322e-17
1.21566e-17
1.29812e-17
1.38066e-17
1.46321e-17
1.56059e-17
1.62843e-17
1.71111e-17
1.67584e-18
2.41744e-18
3.19133e-18
3.9831e-18
4.78548e-18
5.59455e-18
6.4753e-18
7.2247e-18
8.04354e-18
8.86407e-18
9.68583e-18
1.05087e-17
1.14106e-17
1.21565e-17
1.29812e-17
1.38065e-17
1.4632e-17
1.54581e-17
1.644e-17
1.71109e-17
1.67584e-18
2.41744e-18
3.19133e-18
3.9831e-18
4.78547e-18
5.59454e-18
6.40806e-18
7.22468e-18
8.04352e-18
8.86405e-18
9.6858e-18
1.05086e-17
1.13321e-17
1.23659e-17
1.29811e-17
1.38064e-17
1.46319e-17
1.5458e-17
1.62839e-17
1.72669e-17
1.67584e-18
2.41744e-18
3.19133e-18
3.9831e-18
4.78547e-18
5.59454e-18
6.475e-18
7.22467e-18
8.0435e-18
8.86403e-18
9.68577e-18
1.05086e-17
1.14116e-17
1.21564e-17
1.2981e-17
1.38063e-17
1.46317e-17
1.54579e-17
1.64427e-17
1.71104e-17
1.67584e-18
2.41744e-18
3.19133e-18
3.98309e-18
4.78546e-18
5.59453e-18
6.40804e-18
7.22466e-18
8.04348e-18
8.86401e-18
9.68574e-18
1.05085e-17
1.1332e-17
1.23663e-17
1.29809e-17
1.38063e-17
1.46316e-17
1.54577e-17
1.62835e-17
1.72678e-17
1.67584e-18
2.41744e-18
3.19133e-18
3.98309e-18
4.78546e-18
5.59452e-18
6.47505e-18
7.22465e-18
8.04347e-18
8.86398e-18
9.68571e-18
1.05085e-17
1.14121e-17
1.21563e-17
1.29808e-17
1.38062e-17
1.46315e-17
1.54576e-17
1.64416e-17
1.711e-17
1.67584e-18
2.41744e-18
3.19133e-18
3.98309e-18
4.78546e-18
5.59452e-18
6.47568e-18
7.22463e-18
8.04345e-18
8.86396e-18
9.68568e-18
1.05085e-17
1.14124e-17
1.21562e-17
1.29808e-17
1.3806e-17
1.46314e-17
1.54574e-17
1.64412e-17
1.71098e-17
1.67584e-18
2.41744e-18
3.19133e-18
3.98309e-18
4.78545e-18
5.59451e-18
6.40801e-18
7.33219e-18
8.04343e-18
8.86394e-18
9.68565e-18
1.05084e-17
1.13319e-17
1.21561e-17
1.29807e-17
1.38059e-17
1.46312e-17
1.5566e-17
1.6283e-17
1.71095e-17
1.67584e-18
2.41744e-18
3.19133e-18
3.98309e-18
4.78545e-18
5.59451e-18
6.47548e-18
7.22461e-18
8.04342e-18
8.86391e-18
9.68562e-18
1.05084e-17
1.14111e-17
1.21561e-17
1.29806e-17
1.38058e-17
1.46311e-17
1.54571e-17
1.64402e-17
1.71093e-17
1.67584e-18
2.41744e-18
3.19133e-18
3.98309e-18
4.78545e-18
5.5945e-18
6.408e-18
7.3322e-18
8.0434e-18
8.86389e-18
9.68559e-18
1.05084e-17
1.13318e-17
1.23733e-17
1.29805e-17
1.38057e-17
1.4631e-17
1.5457e-17
1.62826e-17
1.72686e-17
1.67584e-18
2.41744e-18
3.19133e-18
3.98309e-18
4.78544e-18
5.5945e-18
6.47495e-18
7.22459e-18
8.04338e-18
8.86387e-18
9.68555e-18
1.05083e-17
1.14109e-17
1.21559e-17
1.29804e-17
1.38056e-17
1.46308e-17
1.54568e-17
1.64402e-17
1.71089e-17
1.67584e-18
2.41744e-18
3.19133e-18
3.98309e-18
4.78544e-18
5.59449e-18
6.40798e-18
7.22458e-18
8.04337e-18
8.86385e-18
9.71794e-18
1.05083e-17
1.13317e-17
1.21559e-17
1.29803e-17
1.38055e-17
1.46307e-17
1.54567e-17
1.64287e-17
1.71087e-17
1.67584e-18
2.41744e-18
3.19133e-18
3.98308e-18
4.78544e-18
5.59449e-18
6.40798e-18
7.22457e-18
8.04335e-18
9.01762e-18
9.68549e-18
1.05082e-17
1.13316e-17
1.21558e-17
1.29803e-17
1.38054e-17
1.46306e-17
1.54565e-17
1.634e-17
1.71086e-17
1.67584e-18
2.41744e-18
3.19133e-18
3.98308e-18
4.78544e-18
5.59449e-18
6.40797e-18
7.22456e-18
8.1792e-18
8.86381e-18
9.68546e-18
1.05082e-17
1.13316e-17
1.21557e-17
1.29802e-17
1.38053e-17
1.46305e-17
1.54564e-17
1.65484e-17
1.71084e-17
1.67584e-18
2.41744e-18
3.19133e-18
3.98308e-18
4.78544e-18
5.59448e-18
6.40796e-18
7.32231e-18
8.04332e-18
8.86378e-18
9.68543e-18
1.05082e-17
1.13315e-17
1.22499e-17
1.29801e-17
1.38052e-17
1.46303e-17
1.56895e-17
1.62817e-17
1.71082e-17
1.67584e-18
2.41744e-18
3.19133e-18
3.98308e-18
4.78543e-18
5.59448e-18
6.47526e-18
7.22454e-18
8.0433e-18
8.86376e-18
9.6854e-18
1.05081e-17
1.14106e-17
1.21556e-17
1.298e-17
1.38051e-17
1.46302e-17
1.54561e-17
1.64389e-17
1.7108e-17
1.67584e-18
2.41744e-18
3.19133e-18
3.98308e-18
4.78543e-18
5.60422e-18
6.40795e-18
7.22452e-18
8.04329e-18
8.86374e-18
9.68537e-18
1.05671e-17
1.13314e-17
1.21555e-17
1.29799e-17
1.38051e-17
1.46301e-17
1.56031e-17
1.62814e-17
1.71078e-17
1.67584e-18
2.41744e-18
3.19133e-18
3.98308e-18
4.78543e-18
5.59447e-18
6.40794e-18
7.22451e-18
8.04327e-18
8.86372e-18
9.71868e-18
1.0508e-17
1.13314e-17
1.21555e-17
1.29799e-17
1.3805e-17
1.47675e-17
1.54558e-17
1.62813e-17
1.71077e-17
1.67584e-18
2.41744e-18
3.19133e-18
3.98308e-18
4.78543e-18
5.59447e-18
6.40794e-18
7.2245e-18
8.04326e-18
8.8637e-18
9.68532e-18
1.05629e-17
1.13313e-17
1.21554e-17
1.29798e-17
1.38049e-17
1.46299e-17
1.56027e-17
1.62812e-17
1.71075e-17
1.67584e-18
2.41744e-18
3.19133e-18
3.98308e-18
4.78543e-18
5.59446e-18
6.47515e-18
7.2245e-18
8.04324e-18
8.86368e-18
9.68529e-18
1.0508e-17
1.14106e-17
1.21554e-17
1.29797e-17
1.38048e-17
1.46298e-17
1.54556e-17
1.64375e-17
1.71074e-17
1.67584e-18
2.41744e-18
3.19133e-18
3.98308e-18
4.78542e-18
5.59446e-18
6.40792e-18
7.32219e-18
8.04323e-18
8.86366e-18
9.68527e-18
1.05079e-17
1.13312e-17
1.22493e-17
1.29797e-17
1.38047e-17
1.46297e-17
1.54555e-17
1.62809e-17
1.72726e-17
1.67584e-18
2.41744e-18
3.19133e-18
3.98308e-18
4.78542e-18
5.59446e-18
6.40792e-18
7.22448e-18
8.17925e-18
8.86364e-18
9.68525e-18
1.05079e-17
1.13312e-17
1.21553e-17
1.30878e-17
1.38047e-17
1.46297e-17
1.54554e-17
1.62808e-17
1.71071e-17
1.67584e-18
2.41744e-18
3.19133e-18
3.98308e-18
4.78542e-18
5.59445e-18
6.40791e-18
7.22447e-18
8.04321e-18
8.86363e-18
9.68522e-18
1.05079e-17
1.13312e-17
1.21552e-17
1.29796e-17
1.38046e-17
1.46296e-17
1.57029e-17
1.62807e-17
1.71071e-17
1.67584e-18
2.41744e-18
3.19132e-18
3.98308e-18
4.78542e-18
5.59445e-18
6.40791e-18
7.22446e-18
8.0432e-18
8.86361e-18
9.71823e-18
1.05079e-17
1.13311e-17
1.21552e-17
1.29795e-17
1.38046e-17
1.47653e-17
1.54553e-17
1.62807e-17
1.7107e-17
1.67584e-18
2.41744e-18
3.19132e-18
3.98308e-18
4.78542e-18
5.60422e-18
6.40791e-18
7.22446e-18
8.04319e-18
8.8636e-18
9.68519e-18
1.05078e-17
1.13311e-17
1.21552e-17
1.29795e-17
1.38045e-17
1.48357e-17
1.54552e-17
1.62806e-17
1.71069e-17
1.67584e-18
2.41744e-18
3.19132e-18
3.98308e-18
4.78542e-18
5.59445e-18
6.4079e-18
7.22445e-18
8.12095e-18
8.86359e-18
9.68517e-18
1.05078e-17
1.13311e-17
1.21551e-17
1.30926e-17
1.38045e-17
1.46294e-17
1.54552e-17
1.62805e-17
1.71068e-17
1.67584e-18
2.41744e-18
3.19132e-18
3.98307e-18
4.78542e-18
5.59444e-18
6.4079e-18
7.22445e-18
8.04317e-18
8.86358e-18
9.68516e-18
1.05078e-17
1.13311e-17
1.2198e-17
1.29794e-17
1.38044e-17
1.46294e-17
1.54551e-17
1.62805e-17
1.72732e-17
1.67584e-18
2.41744e-18
3.19132e-18
3.98307e-18
4.78542e-18
5.59444e-18
6.4079e-18
7.22444e-18
8.04317e-18
8.86357e-18
9.68515e-18
1.05078e-17
1.1388e-17
1.21551e-17
1.29794e-17
1.38044e-17
1.46294e-17
1.54551e-17
1.64386e-17
1.71068e-17
1.67584e-18
2.41744e-18
3.19132e-18
3.98307e-18
4.78542e-18
5.59444e-18
6.40789e-18
7.33199e-18
8.04316e-18
8.86356e-18
9.68514e-18
1.06604e-17
1.1331e-17
1.21551e-17
1.29794e-17
1.38044e-17
1.46294e-17
1.56022e-17
1.62804e-17
1.71067e-17
1.67584e-18
2.41744e-18
3.19132e-18
3.98307e-18
4.78541e-18
5.59444e-18
6.40789e-18
7.22444e-18
8.04316e-18
8.86356e-18
9.68514e-18
1.06951e-17
1.1331e-17
1.21551e-17
1.29794e-17
1.38044e-17
1.46293e-17
1.55947e-17
1.62804e-17
1.71067e-17
1.67584e-18
2.41744e-18
3.19132e-18
3.98307e-18
4.78541e-18
5.59444e-18
6.40789e-18
7.22443e-18
8.04316e-18
8.86356e-18
9.71041e-18
1.05078e-17
1.1331e-17
1.2155e-17
1.29794e-17
1.38043e-17
1.47649e-17
1.5455e-17
1.62804e-17
1.71067e-17
1.67584e-18
2.41744e-18
3.19132e-18
3.98307e-18
4.78541e-18
5.59444e-18
6.40789e-18
7.22443e-18
8.04316e-18
8.86356e-18
9.71827e-18
1.05078e-17
1.1331e-17
1.2155e-17
1.29793e-17
1.38044e-17
1.47659e-17
1.5455e-17
1.62804e-17
1.71067e-17
1.67584e-18
2.41744e-18
3.19132e-18
3.98307e-18
4.78541e-18
5.60423e-18
6.40789e-18
7.22443e-18
8.04315e-18
8.86355e-18
9.68513e-18
1.05669e-17
1.1331e-17
1.2155e-17
1.29793e-17
1.38044e-17
1.46293e-17
1.56021e-17
1.62804e-17
1.71067e-17
1.67584e-18
2.41744e-18
3.19132e-18
3.98307e-18
4.78541e-18
5.59444e-18
6.40789e-18
7.22443e-18
8.04315e-18
8.86355e-18
9.68513e-18
1.05078e-17
1.15298e-17
1.2155e-17
1.29793e-17
1.38044e-17
1.46293e-17
1.5455e-17
1.64285e-17
1.71067e-17
1.67584e-18
2.41744e-18
3.19132e-18
3.98307e-18
4.78541e-18
5.59444e-18
6.40789e-18
7.22443e-18
8.04316e-18
9.02063e-18
9.68513e-18
1.05078e-17
1.14019e-17
1.21551e-17
1.29794e-17
1.38044e-17
1.46293e-17
1.54551e-17
1.64403e-17
1.71067e-17
1.67584e-18
2.41744e-18
3.19132e-18
3.98307e-18
4.78541e-18
5.59444e-18
6.40789e-18
7.22443e-18
8.17915e-18
8.86356e-18
9.68513e-18
1.05078e-17
1.1331e-17
1.21551e-17
1.30873e-17
1.38044e-17
1.46293e-17
1.54551e-17
1.62804e-17
1.71068e-17
1.67584e-18
2.41744e-18
3.19132e-18
3.98307e-18
4.78541e-18
5.59444e-18
6.40789e-18
7.33191e-18
8.04316e-18
8.86356e-18
9.68513e-18
1.05078e-17
1.1331e-17
1.22502e-17
1.29794e-17
1.38044e-17
1.46293e-17
1.54551e-17
1.62805e-17
1.72712e-17
1.67584e-18
2.41744e-18
3.19132e-18
3.98307e-18
4.78541e-18
5.59444e-18
6.40789e-18
7.22444e-18
8.17912e-18
8.86356e-18
9.68514e-18
1.05078e-17
1.1331e-17
1.21551e-17
1.29794e-17
1.38044e-17
1.46294e-17
1.54551e-17
1.65349e-17
1.71068e-17
1.67584e-18
2.41744e-18
3.19132e-18
3.98307e-18
4.78541e-18
5.59444e-18
6.40789e-18
7.22444e-18
8.04316e-18
8.86356e-18
9.68514e-18
1.05078e-17
1.1331e-17
1.23642e-17
1.29794e-17
1.38044e-17
1.46294e-17
1.54551e-17
1.62805e-17
1.72624e-17
1.67584e-18
2.41744e-18
3.19132e-18
3.98307e-18
4.78541e-18
5.59444e-18
6.40789e-18
7.22444e-18
8.17924e-18
8.86357e-18
9.68514e-18
1.05078e-17
1.1331e-17
1.21551e-17
1.30876e-17
1.38044e-17
1.46294e-17
1.54551e-17
1.62805e-17
1.71069e-17
1.67584e-18
2.41744e-18
3.19132e-18
3.98307e-18
4.78541e-18
5.59444e-18
6.40789e-18
7.33196e-18
8.04316e-18
8.86357e-18
9.68515e-18
1.05078e-17
1.1331e-17
1.23196e-17
1.29794e-17
1.38044e-17
1.46294e-17
1.54552e-17
1.62806e-17
1.72753e-17
1.67584e-18
2.41744e-18
3.19132e-18
3.98307e-18
4.78541e-18
5.59444e-18
6.47527e-18
7.22444e-18
8.04317e-18
8.86357e-18
9.68515e-18
1.05078e-17
1.14101e-17
1.21551e-17
1.29794e-17
1.38045e-17
1.46294e-17
1.54552e-17
1.64369e-17
1.71069e-17
1.67584e-18
2.41744e-18
3.19132e-18
3.98307e-18
4.78541e-18
5.60423e-18
6.40789e-18
7.22444e-18
8.04317e-18
8.86358e-18
9.68516e-18
1.05669e-17
1.13311e-17
1.21551e-17
1.29794e-17
1.38045e-17
1.46295e-17
1.56022e-17
1.62806e-17
1.7107e-17
1.67584e-18
2.41744e-18
3.19132e-18
3.98307e-18
4.78541e-18
5.59444e-18
6.4079e-18
7.22444e-18
8.04317e-18
8.86358e-18
9.71796e-18
1.05078e-17
1.13311e-17
1.21551e-17
1.29795e-17
1.38045e-17
1.47659e-17
1.54552e-17
1.62806e-17
1.7107e-17
1.67584e-18
2.41744e-18
3.19132e-18
3.98307e-18
4.78541e-18
5.60421e-18
6.4079e-18
7.22444e-18
8.04317e-18
8.86358e-18
9.68516e-18
1.05669e-17
1.13311e-17
1.21551e-17
1.29795e-17
1.38045e-17
1.46295e-17
1.56028e-17
1.62807e-17
1.7107e-17
1.67584e-18
2.41744e-18
3.19132e-18
3.98307e-18
4.78541e-18
5.59444e-18
6.4079e-18
7.22444e-18
8.04317e-18
8.86358e-18
9.68517e-18
1.0695e-17
1.13311e-17
1.21551e-17
1.29795e-17
1.38045e-17
1.46295e-17
1.55951e-17
1.62807e-17
1.7107e-17
1.67584e-18
2.41744e-18
3.19132e-18
3.98307e-18
4.78541e-18
5.59444e-18
6.47528e-18
7.22445e-18
8.04318e-18
8.86359e-18
9.68517e-18
1.05078e-17
1.14101e-17
1.21552e-17
1.29795e-17
1.38045e-17
1.46295e-17
1.54553e-17
1.64371e-17
1.71071e-17
1.67584e-18
2.41744e-18
3.19132e-18
3.98307e-18
4.78541e-18
5.59444e-18
6.4079e-18
7.33197e-18
8.04318e-18
8.86359e-18
9.68517e-18
1.05078e-17
1.13311e-17
1.23197e-17
1.29795e-17
1.38045e-17
1.46295e-17
1.54553e-17
1.62807e-17
1.72755e-17
1.67584e-18
2.41744e-18
3.19132e-18
3.98307e-18
4.78541e-18
5.59444e-18
6.4079e-18
7.22445e-18
8.1737e-18
8.86359e-18
9.68518e-18
1.05078e-17
1.13311e-17
1.21552e-17
1.30868e-17
1.38045e-17
1.46296e-17
1.54553e-17
1.62808e-17
1.71071e-17
1.67584e-18
2.41744e-18
3.19132e-18
3.98307e-18
4.78541e-18
5.59444e-18
6.4079e-18
7.22445e-18
8.04318e-18
8.86359e-18
9.68518e-18
1.05078e-17
1.13311e-17
1.21552e-17
1.29795e-17
1.39285e-17
1.46296e-17
1.54553e-17
1.62808e-17
1.71071e-17
1.67584e-18
2.41744e-18
3.19132e-18
3.98307e-18
4.78541e-18
5.59444e-18
6.4079e-18
7.22445e-18
8.1792e-18
8.86359e-18
9.68518e-18
1.05078e-17
1.13311e-17
1.21552e-17
1.30876e-17
1.38046e-17
1.46296e-17
1.54554e-17
1.62808e-17
1.71072e-17
1.67584e-18
2.41744e-18
3.19132e-18
3.98307e-18
4.78541e-18
5.59444e-18
6.4079e-18
7.22445e-18
8.04318e-18
8.86359e-18
9.68518e-18
1.05078e-17
1.13311e-17
1.21552e-17
1.29795e-17
1.3928e-17
1.46296e-17
1.54554e-17
1.62808e-17
1.73579e-17
1.67584e-18
2.41744e-18
3.19132e-18
3.98307e-18
4.78541e-18
5.59444e-18
6.4079e-18
7.22445e-18
8.1792e-18
8.86359e-18
9.68519e-18
1.05078e-17
1.13311e-17
1.21552e-17
1.30876e-17
1.38046e-17
1.46296e-17
1.54554e-17
1.62808e-17
1.71072e-17
1.67584e-18
2.41744e-18
3.19132e-18
3.98307e-18
4.78541e-18
5.59444e-18
6.4079e-18
7.33197e-18
8.04318e-18
8.86359e-18
9.68519e-18
1.05078e-17
1.13311e-17
1.23721e-17
1.29795e-17
1.38046e-17
1.46296e-17
1.54554e-17
1.62809e-17
1.7266e-17
1.67584e-18
2.41743e-18
3.19132e-18
3.98307e-18
4.78541e-18
5.59444e-18
6.47526e-18
7.22445e-18
8.04318e-18
8.8636e-18
9.68519e-18
1.05078e-17
1.14101e-17
1.21552e-17
1.29795e-17
1.38046e-17
1.46296e-17
1.54554e-17
1.64372e-17
1.71072e-17
5.89449e-07
6.44612e-07
6.06315e-07
5.72718e-07
5.67908e-07
5.69666e-07
5.73246e-07
5.75167e-07
5.76193e-07
5.74928e-07
5.7317e-07
5.70771e-07
5.68451e-07
5.65847e-07
5.63646e-07
5.61247e-07
5.59355e-07
5.57178e-07
5.55502e-07
5.53497e-07
5.51984e-07
5.50169e-07
5.4883e-07
5.47181e-07
5.45969e-07
5.44429e-07
5.43322e-07
5.41886e-07
5.40884e-07
5.39544e-07
5.3864e-07
5.37385e-07
5.36557e-07
5.3536e-07
5.34591e-07
5.33455e-07
5.3275e-07
5.31671e-07
5.31024e-07
5.29997e-07
5.29403e-07
5.28415e-07
5.27862e-07
5.26909e-07
5.26396e-07
5.25481e-07
5.25004e-07
5.24125e-07
5.23682e-07
5.22833e-07
5.22416e-07
5.21598e-07
5.21196e-07
5.20421e-07
5.20029e-07
5.19293e-07
5.18911e-07
5.18213e-07
5.17839e-07
5.17173e-07
5.16805e-07
5.1617e-07
5.15807e-07
5.15202e-07
5.14846e-07
5.14269e-07
5.13918e-07
5.13369e-07
5.13023e-07
5.12498e-07
5.12156e-07
5.11653e-07
5.11317e-07
5.10832e-07
5.10502e-07
5.10034e-07
5.09713e-07
5.09257e-07
5.08953e-07
5.08449e-07
6.25724e-07
1.02891e-06
1.72287e-06
2.52309e-06
3.0773e-06
3.52057e-06
3.8651e-06
4.10579e-06
4.27542e-06
4.36156e-06
4.41863e-06
4.45408e-06
4.47647e-06
4.49099e-06
4.50288e-06
4.51045e-06
4.51935e-06
4.52247e-06
4.528e-06
4.52756e-06
4.5305e-06
4.52912e-06
4.5309e-06
4.52884e-06
4.52898e-06
4.52558e-06
4.52479e-06
4.52082e-06
4.51963e-06
4.51542e-06
4.51414e-06
4.50964e-06
4.50789e-06
4.50279e-06
4.5007e-06
4.4955e-06
4.49336e-06
4.48818e-06
4.48609e-06
4.48097e-06
4.47882e-06
4.47351e-06
4.47124e-06
4.46591e-06
4.46357e-06
4.45838e-06
4.456e-06
4.45106e-06
4.44858e-06
4.44382e-06
4.44103e-06
4.43665e-06
4.4335e-06
4.42957e-06
4.42609e-06
4.42268e-06
4.41889e-06
4.41594e-06
4.41183e-06
4.40925e-06
4.40482e-06
4.40262e-06
4.39788e-06
4.39612e-06
4.39109e-06
4.38978e-06
4.38447e-06
4.3836e-06
4.37799e-06
4.3775e-06
4.37162e-06
4.37141e-06
4.36544e-06
4.36537e-06
4.35938e-06
4.35943e-06
4.3535e-06
4.35357e-06
4.34808e-06
4.34624e-06
1.35969e-07
4.03467e-07
6.17408e-07
1.26269e-06
2.27518e-06
3.43129e-06
4.54858e-06
5.27339e-06
5.7893e-06
6.14655e-06
6.42253e-06
6.62392e-06
6.77769e-06
6.90323e-06
7.00674e-06
7.09327e-06
7.16964e-06
7.2294e-06
7.28621e-06
7.32829e-06
7.3719e-06
7.40519e-06
7.43888e-06
7.46467e-06
7.48968e-06
7.50908e-06
7.52866e-06
7.54375e-06
7.5596e-06
7.57155e-06
7.58436e-06
7.59319e-06
7.60292e-06
7.60885e-06
7.61645e-06
7.62076e-06
7.62682e-06
7.62998e-06
7.6348e-06
7.63685e-06
7.64036e-06
7.64114e-06
7.64359e-06
7.64356e-06
7.64514e-06
7.6447e-06
7.64552e-06
7.64489e-06
7.64496e-06
7.64384e-06
7.64315e-06
7.64184e-06
7.64051e-06
7.63919e-06
7.63731e-06
7.63611e-06
7.63371e-06
7.63257e-06
7.62963e-06
7.62841e-06
7.62502e-06
7.62382e-06
7.62005e-06
7.619e-06
7.61491e-06
7.61404e-06
7.60962e-06
7.60891e-06
7.60415e-06
7.60347e-06
7.59856e-06
7.59765e-06
7.59313e-06
7.59155e-06
7.58754e-06
7.58541e-06
7.58184e-06
7.57941e-06
7.5758e-06
7.57303e-06
1.09399e-07
2.14136e-07
1.5947e-07
5.16116e-07
7.76337e-07
1.4703e-06
2.85845e-06
4.00567e-06
5.06136e-06
6.01036e-06
6.72612e-06
7.21916e-06
7.6176e-06
7.94597e-06
8.22959e-06
8.47057e-06
8.68509e-06
8.86112e-06
9.02449e-06
9.15916e-06
9.28796e-06
9.39785e-06
9.49962e-06
9.5904e-06
9.67028e-06
9.74494e-06
9.81025e-06
9.87301e-06
9.92756e-06
9.98077e-06
1.00262e-05
1.00711e-05
1.01084e-05
1.01458e-05
1.01771e-05
1.02094e-05
1.02359e-05
1.02643e-05
1.02866e-05
1.03116e-05
1.033e-05
1.03515e-05
1.03668e-05
1.03855e-05
1.03983e-05
1.0415e-05
1.04256e-05
1.04406e-05
1.04492e-05
1.04622e-05
1.04692e-05
1.04806e-05
1.04862e-05
1.04964e-05
1.05009e-05
1.05102e-05
1.05136e-05
1.05219e-05
1.05243e-05
1.05315e-05
1.05331e-05
1.05395e-05
1.05403e-05
1.05461e-05
1.05464e-05
1.05518e-05
1.05515e-05
1.05563e-05
1.05554e-05
1.05597e-05
1.05584e-05
1.05621e-05
1.05606e-05
1.05636e-05
1.05621e-05
1.05645e-05
1.0563e-05
1.0565e-05
1.05628e-05
1.0566e-05
6.39143e-11
9.77875e-09
5.36283e-08
1.60686e-07
1.49412e-07
5.86546e-07
9.206e-07
1.82029e-06
3.1001e-06
4.15093e-06
5.19046e-06
6.14943e-06
6.97701e-06
7.68117e-06
8.33235e-06
8.88825e-06
9.30254e-06
9.65314e-06
9.9776e-06
1.02553e-05
1.05166e-05
1.07451e-05
1.09602e-05
1.11487e-05
1.13241e-05
1.148e-05
1.16271e-05
1.17594e-05
1.18846e-05
1.19995e-05
1.21049e-05
1.22051e-05
1.22923e-05
1.23801e-05
1.2454e-05
1.25319e-05
1.25955e-05
1.26654e-05
1.27198e-05
1.27826e-05
1.28287e-05
1.28851e-05
1.29245e-05
1.29751e-05
1.30091e-05
1.30549e-05
1.30844e-05
1.31262e-05
1.31516e-05
1.31893e-05
1.32112e-05
1.32453e-05
1.32644e-05
1.32956e-05
1.33122e-05
1.33409e-05
1.33554e-05
1.33814e-05
1.3394e-05
1.34175e-05
1.34284e-05
1.34498e-05
1.34594e-05
1.3479e-05
1.34875e-05
1.35056e-05
1.35128e-05
1.35294e-05
1.35357e-05
1.35507e-05
1.3556e-05
1.35697e-05
1.35744e-05
1.35868e-05
1.35909e-05
1.36022e-05
1.36058e-05
1.36163e-05
1.36183e-05
1.36326e-05
2.03631e-12
3.00822e-10
4.37016e-10
2.03659e-08
1.08576e-07
1.97407e-07
1.5847e-07
6.27786e-07
1.02427e-06
1.92943e-06
3.2064e-06
4.12581e-06
5.08352e-06
6.01951e-06
6.92828e-06
7.7185e-06
8.45861e-06
9.13691e-06
9.74937e-06
1.02839e-05
1.07857e-05
1.12437e-05
1.16429e-05
1.19642e-05
1.22686e-05
1.25388e-05
1.27988e-05
1.30307e-05
1.32547e-05
1.34572e-05
1.36506e-05
1.38259e-05
1.39917e-05
1.41451e-05
1.4289e-05
1.44259e-05
1.45511e-05
1.4675e-05
1.4784e-05
1.48959e-05
1.49898e-05
1.50917e-05
1.5173e-05
1.52663e-05
1.53369e-05
1.54227e-05
1.54848e-05
1.55638e-05