/*--------------------------------*- C++ -*----------------------------------*\
| =========                 |                                                 |
| \\      /  F ield         | OpenFOAM: The Open Source CFD Toolbox           |
|  \\    /   O peration     | Version:  v1912                                 |
|   \\  /    A nd           | Website:  www.openfoam.com                      |
|    \\/     M anipulation  |                                                 |
\*---------------------------------------------------------------------------*/
FoamFile
{
    version     2.0;
    format      ascii;
    class       volScalarField;
    location    "400";
    object      p;
}
// * * * * * * * * * * * * * * * * * * * * * * * * * * * * * * * * * * * * * //

dimensions      [0 2 -2 0 0 0 0];


internalField   nonuniform List<scalar> 
10000
(
0.00141236
0.00263451
0.00236103
0.00221755
0.00220938
0.00224716
0.00225826
0.00229673
0.00231652
0.00237564
0.00240897
0.0024926
0.00254238
0.00266548
0.00274222
0.0029402
0.00307216
0.00346473
0.00377088
0.00509282
0.0014283
0.00261815
0.00235877
0.00221693
0.00220903
0.00224701
0.00225811
0.00229671
0.0023164
0.00237569
0.00240882
0.00249272
0.00254216
0.00266571
0.00274185
0.00294062
0.00307151
0.00346524
0.0037706
0.00507045
0.00144942
0.00259601
0.00235784
0.00221717
0.00220931
0.00224706
0.00225835
0.00229665
0.00231663
0.00237552
0.00240911
0.00249242
0.00254256
0.00266521
0.00274246
0.00293975
0.00307256
0.00346315
0.00377361
0.00502569
0.00147201
0.00257403
0.0023575
0.00221763
0.00220919
0.00224715
0.00225813
0.00229677
0.00231636
0.0023757
0.00240877
0.00249269
0.00254212
0.00266557
0.00274189
0.00294016
0.00307185
0.00346292
0.00377285
0.00497772
0.00149549
0.00255151
0.00235678
0.00221756
0.00220915
0.00224689
0.00225826
0.00229656
0.00231656
0.00237545
0.00240901
0.00249238
0.0025424
0.00266519
0.00274215
0.00293967
0.00307199
0.00346173
0.00377111
0.00493077
0.00151958
0.00252862
0.00235553
0.00221788
0.00220899
0.002247
0.00225815
0.00229669
0.00231642
0.00237556
0.00240885
0.00249244
0.00254224
0.00266513
0.00274207
0.00293927
0.00307211
0.00345969
0.00376967
0.00488262
0.00154441
0.00250513
0.00235423
0.00221809
0.00220899
0.00224683
0.0022582
0.00229654
0.00231646
0.00237541
0.00240887
0.00249228
0.00254223
0.00266494
0.00274199
0.00293886
0.00307205
0.00345735
0.00376788
0.00483282
0.00156983
0.0024814
0.00235247
0.00221846
0.00220882
0.00224677
0.00225813
0.00229653
0.00231641
0.00237535
0.00240884
0.00249215
0.00254221
0.00266467
0.00274197
0.00293824
0.00307201
0.00345452
0.00376547
0.00478177
0.00159592
0.0024573
0.00235043
0.0022188
0.00220871
0.00224663
0.00225812
0.00229645
0.00231639
0.00237524
0.00240879
0.00249198
0.00254214
0.00266436
0.0027419
0.00293748
0.00307197
0.00345105
0.00376252
0.00472958
0.00162245
0.00243308
0.002348
0.00221923
0.00220855
0.00224648
0.00225807
0.00229636
0.00231635
0.00237511
0.00240875
0.00249178
0.00254208
0.00266399
0.00274181
0.00293658
0.00307188
0.00344696
0.00375897
0.00467628
0.00164942
0.00240876
0.00234519
0.0022197
0.00220838
0.0022463
0.00225802
0.00229626
0.00231631
0.00237495
0.00240869
0.00249152
0.00254201
0.00266353
0.00274171
0.00293549
0.00307173
0.00344218
0.00375473
0.00462191
0.00167678
0.00238443
0.00234196
0.00222021
0.00220819
0.00224608
0.00225796
0.00229613
0.00231626
0.00237477
0.00240862
0.00249123
0.00254192
0.00266298
0.00274158
0.00293419
0.00307151
0.00343668
0.00374971
0.00456658
0.00170446
0.00236017
0.0023383
0.00222076
0.00220799
0.00224582
0.00225789
0.00229598
0.00231619
0.00237454
0.00240854
0.00249087
0.00254181
0.00266234
0.00274143
0.00293267
0.00307119
0.00343039
0.00374384
0.00451037
0.00173234
0.00233613
0.00233418
0.00222134
0.00220777
0.00224552
0.0022578
0.0022958
0.00231612
0.00237428
0.00240844
0.00249046
0.00254168
0.00266158
0.00274123
0.0029309
0.00307076
0.00342327
0.00373703
0.00445337
0.0017603
0.00231242
0.00232961
0.00222194
0.00220753
0.00224517
0.00225769
0.00229559
0.00231603
0.00237397
0.00240833
0.00248998
0.00254152
0.0026607
0.002741
0.00292884
0.00307017
0.00341529
0.00372917
0.00439569
0.00178824
0.00228917
0.00232458
0.00222254
0.00220729
0.00224477
0.00225757
0.00229534
0.00231592
0.00237361
0.00240819
0.00248941
0.00254134
0.00265968
0.00274071
0.00292648
0.00306941
0.00340639
0.00372017
0.00433744
0.00181605
0.00226649
0.00231908
0.00222314
0.00220703
0.00224432
0.00225742
0.00229505
0.0023158
0.0023732
0.00240803
0.00248876
0.00254112
0.00265851
0.00274036
0.00292379
0.00306842
0.00339655
0.00370993
0.00427872
0.00184361
0.00224451
0.00231312
0.0022237
0.00220676
0.0022438
0.00225724
0.00229471
0.00231565
0.00237272
0.00240784
0.00248801
0.00254086
0.00265716
0.00273993
0.00292072
0.00306717
0.00338571
0.00369834
0.00421966
0.00187076
0.00222338
0.00230672
0.00222422
0.0022065
0.00224322
0.00225704
0.00229432
0.00231548
0.00237217
0.00240762
0.00248715
0.00254055
0.00265562
0.0027394
0.00291726
0.0030656
0.00337386
0.0036853
0.00416037
0.0018973
0.00220328
0.0022999
0.00222466
0.00220622
0.00224255
0.0022568
0.00229388
0.00231528
0.00237154
0.00240737
0.00248617
0.00254019
0.00265387
0.00273877
0.00291337
0.00306364
0.00336096
0.00367069
0.00410097
0.00192299
0.00218444
0.00229271
0.00222501
0.00220595
0.00224182
0.00225652
0.00229336
0.00231505
0.00237082
0.00240707
0.00248506
0.00253976
0.00265188
0.00273799
0.00290901
0.00306125
0.00334699
0.00365441
0.00404156
0.00194741
0.00216722
0.00228515
0.00222522
0.00220569
0.00224101
0.0022562
0.00229278
0.00231479
0.00237
0.00240672
0.00248379
0.00253925
0.00264965
0.00273706
0.00290416
0.00305833
0.00333195
0.00363637
0.00398227
0.00197001
0.00215234
0.00227727
0.00222523
0.00220541
0.0022401
0.00225582
0.0022921
0.00231448
0.00236906
0.00240632
0.00248236
0.00253865
0.00264714
0.00273593
0.00289877
0.00305482
0.00331581
0.00361646
0.00392317
0.00198919
0.00214089
0.00226933
0.00222506
0.00220515
0.0022391
0.00225539
0.00229134
0.00231412
0.00236801
0.00240584
0.00248075
0.00253794
0.00264433
0.00273457
0.00289283
0.00305063
0.00329857
0.00359463
0.00386437
0.00200465
0.00213314
0.00226146
0.00222472
0.0022049
0.00223802
0.00225489
0.00229048
0.00231371
0.00236683
0.00240529
0.00247894
0.0025371
0.0026412
0.00273293
0.0028863
0.00304566
0.00328026
0.00357075
0.00380598
0.00201766
0.00212805
0.00225349
0.00222407
0.00220463
0.00223682
0.00225432
0.0022895
0.00231323
0.00236549
0.00240464
0.00247692
0.00253611
0.00263773
0.00273098
0.00287915
0.00303981
0.00326088
0.00354478
0.00374807
0.00202944
0.00212444
0.00224539
0.00222312
0.00220435
0.00223552
0.00225367
0.0022884
0.00231267
0.002364
0.00240389
0.00247467
0.00253493
0.00263388
0.00272864
0.00287136
0.00303298
0.00324045
0.00351668
0.00369069
0.00204041
0.00212168
0.00223728
0.00222188
0.00220405
0.00223411
0.00225292
0.00228715
0.00231202
0.00236232
0.00240301
0.00247216
0.00253355
0.00262965
0.00272588
0.00286291
0.00302507
0.00321896
0.00348644
0.00363385
0.00205068
0.00211962
0.00222927
0.00222033
0.00220371
0.00223259
0.00225207
0.00228576
0.00231127
0.00236046
0.00240198
0.00246938
0.00253191
0.00262499
0.0027226
0.00285375
0.00301596
0.00319645
0.00345405
0.00357757
0.00206021
0.00211819
0.00222142
0.00221845
0.00220332
0.00223094
0.0022511
0.0022842
0.00231041
0.00235838
0.00240078
0.00246631
0.00252999
0.0026199
0.00271875
0.00284388
0.00300556
0.00317293
0.00341954
0.00352184
0.00206902
0.00211732
0.00221377
0.00221624
0.00220284
0.00222916
0.00225001
0.00228246
0.0023094
0.00235608
0.00239938
0.00246292
0.00252773
0.00261433
0.00271425
0.00283327
0.00299376
0.00314841
0.00338298
0.00346666
0.00207707
0.00211695
0.00220639
0.00221368
0.00220227
0.00222724
0.00224877
0.00228052
0.00230823
0.00235354
0.00239774
0.0024592
0.00252509
0.00260828
0.00270901
0.0028219
0.00298047
0.00312291
0.00334444
0.00341197
0.00208437
0.00211701
0.00219931
0.00221078
0.00220156
0.00222518
0.00224737
0.00227836
0.00230688
0.00235073
0.00239584
0.00245513
0.002522
0.00260171
0.00270294
0.00280973
0.00296561
0.00309645
0.00330403
0.00335774
0.00209089
0.00211741
0.00219256
0.00220756
0.0022007
0.00222296
0.00224579
0.00227597
0.00230531
0.00234764
0.00239363
0.00245068
0.00251841
0.0025946
0.00269597
0.00279677
0.00294911
0.00306902
0.00326189
0.00330391
0.00209667
0.00211806
0.00218619
0.00220401
0.00219966
0.00222057
0.00224401
0.00227333
0.0023035
0.00234425
0.00239105
0.00244582
0.00251425
0.00258692
0.00268799
0.00278296
0.00293092
0.00304063
0.00321817
0.00325041
0.00210169
0.00211886
0.00218019
0.00220015
0.0021984
0.002218
0.002242
0.00227041
0.0023014
0.00234054
0.00238808
0.00244055
0.00250945
0.00257864
0.00267893
0.00276828
0.002911
0.00301127
0.00317307
0.00319719
0.00210599
0.00211973
0.00217458
0.00219601
0.00219688
0.00221523
0.00223975
0.00226721
0.00229898
0.00233649
0.00238464
0.00243482
0.00250393
0.00256973
0.0026687
0.00275269
0.00288935
0.00298091
0.00312678
0.00314419
0.00210954
0.00212054
0.00216934
0.0021916
0.00219507
0.00221224
0.00223722
0.00226369
0.00229619
0.00233207
0.00238069
0.00242861
0.00249762
0.00256016
0.00265723
0.00273616
0.00286597
0.00294955
0.0030795
0.00309136
0.0021124
0.00212123
0.00216444
0.00218696
0.00219294
0.00220902
0.00223438
0.00225985
0.00229299
0.00232725
0.00237615
0.00242189
0.00249046
0.00254987
0.00264446
0.00271864
0.0028409
0.00291717
0.00303144
0.00303867
0.00211455
0.00212169
0.00215984
0.00218208
0.00219044
0.00220553
0.00223119
0.00225564
0.00228931
0.00232202
0.00237098
0.00241462
0.00248236
0.00253883
0.00263035
0.00270007
0.00281419
0.00288375
0.00298282
0.0029861
0.00211604
0.00212184
0.00215549
0.00217701
0.00218755
0.00220175
0.00222762
0.00225106
0.00228511
0.00231633
0.00236509
0.00240676
0.00247326
0.00252698
0.00261484
0.00268039
0.00278593
0.00284927
0.00293383
0.00293365
0.00211682
0.00212161
0.0021513
0.00217174
0.00218423
0.00219765
0.00222362
0.00224607
0.00228034
0.00231015
0.00235845
0.00239827
0.00246311
0.00251426
0.00259793
0.00265956
0.00275619
0.00281374
0.00288465
0.00288134
0.00211695
0.00212093
0.0021472
0.0021663
0.00218044
0.0021932
0.00221914
0.00224064
0.00227492
0.00230344
0.00235096
0.00238908
0.00245184
0.00250059
0.0025796
0.00263752
0.0027251
0.00277716
0.00283545
0.00282923
0.00211639
0.00211973
0.00214309
0.00216066
0.00217614
0.00218836
0.00221414
0.00223473
0.00226881
0.00229616
0.00234259
0.00237915
0.00243941
0.00248592
0.00255987
0.00261421
0.00269276
0.00273956
0.00278634
0.00277737
0.00211516
0.00211798
0.00213887
0.00215483
0.00217131
0.00218308
0.00220856
0.00222832
0.00226195
0.00228824
0.00233328
0.00236839
0.0024258
0.00247016
0.00253875
0.0025896
0.00265928
0.00270099
0.00273745
0.00272584
0.00211321
0.00211563
0.00213443
0.00214878
0.0021659
0.00217733
0.00220235
0.00222134
0.00225428
0.00227963
0.00232297
0.00235674
0.00241097
0.00245324
0.00251629
0.00256366
0.00262477
0.00266151
0.00268885
0.0026747
0.00211055
0.00211263
0.00212967
0.00214246
0.00215989
0.00217105
0.00219546
0.00221376
0.00224575
0.00227025
0.00231162
0.00234411
0.0023949
0.0024351
0.00249251
0.00253637
0.00258935
0.0026212
0.0026406
0.00262405
0.00210712
0.00210894
0.00212447
0.00213582
0.00215324
0.0021642
0.00218783
0.00220551
0.00223632
0.00226004
0.0022992
0.00233044
0.0023776
0.00241567
0.00246746
0.00250775
0.00255311
0.00258016
0.00259272
0.00257395
0.00210292
0.00210454
0.00211873
0.0021288
0.0021459
0.0021567
0.00217941
0.00219653
0.00222592
0.00224891
0.00228567
0.00231563
0.00235905
0.0023949
0.00244119
0.00247782
0.00251614
0.0025385
0.00254525
0.00252447
0.00209787
0.00209936
0.00211236
0.00212132
0.00213783
0.00214851
0.00217014
0.00218674
0.00221454
0.00223679
0.00227101
0.00229962
0.00233925
0.00237277
0.00241374
0.00244662
0.0024785
0.00249633
0.00249818
0.00247565
0.00209195
0.00209337
0.00210527
0.00211329
0.00212899
0.00213954
0.00215997
0.00217606
0.00220212
0.00222358
0.00225517
0.00228235
0.00231821
0.00234924
0.00238515
0.00241423
0.00244027
0.00245377
0.00245151
0.00242751
0.00208509
0.0020865
0.00209735
0.00210461
0.00211933
0.00212972
0.00214886
0.00216442
0.00218862
0.00220923
0.00223815
0.00226375
0.00229593
0.00232433
0.00235547
0.00238072
0.0024015
0.00241092
0.00240524
0.00238008
0.00207725
0.00207871
0.00208854
0.00209517
0.00210879
0.00211898
0.00213673
0.00215172
0.00217401
0.00219365
0.00221991
0.00224379
0.0022724
0.00229805
0.00232472
0.00234617
0.00236225
0.00236788
0.00235935
0.00233333
0.00206835
0.0020699
0.00207876
0.00208487
0.0020973
0.00210722
0.00212355
0.0021379
0.00215824
0.00217679
0.00220044
0.00222244
0.00224763
0.00227044
0.00229296
0.0023107
0.00232256
0.00232474
0.00231385
0.00228725
0.00205836
0.00206002
0.00206793
0.00207359
0.00208482
0.00209437
0.00210926
0.00212286
0.00214127
0.00215858
0.00217969
0.00219969
0.00222163
0.00224153
0.00226021
0.00227437
0.00228248
0.00228156
0.00226873
0.0022418
0.00204717
0.00204898
0.00205598
0.00206123
0.00207125
0.00208035
0.0020938
0.00210655
0.00212306
0.00213899
0.00215765
0.00217554
0.0021944
0.0022114
0.00222652
0.0022373
0.00224207
0.00223841
0.00222398
0.00219695
0.00203475
0.00203669
0.00204284
0.00204768
0.00205652
0.00206507
0.0020771
0.0020889
0.00210355
0.002118
0.00213429
0.00215
0.00216595
0.00218008
0.00219194
0.00219955
0.00220135
0.00219531
0.00217958
0.00215263
0.002021
0.00202307
0.00202842
0.00203285
0.00204057
0.00204846
0.00205911
0.00206984
0.0020827
0.00209556
0.0021096
0.00212309
0.00213629
0.00214766
0.0021565
0.0021612
0.00216038
0.00215229
0.00213553
0.00210881
0.00200588
0.00200804
0.00201266
0.00201664
0.00202329
0.00203045
0.00203976
0.00204935
0.00206048
0.00207168
0.00208355
0.00209484
0.00210546
0.00211418
0.00212026
0.00212232
0.00211919
0.00210937
0.00209181
0.00206544
0.00198927
0.00199151
0.00199547
0.00199897
0.00200462
0.00201098
0.00201899
0.00202736
0.00203683
0.00204635
0.00205615
0.00206528
0.00207348
0.00207971
0.00208327
0.00208296
0.00207781
0.00206654
0.00204839
0.00202245
0.00197113
0.00197342
0.00197678
0.00197976
0.00198447
0.00198997
0.00199674
0.00200386
0.00201172
0.00201956
0.0020274
0.00203444
0.00204037
0.00204429
0.00204558
0.00204316
0.00203627
0.00202381
0.00200523
0.00197981
0.00195137
0.00195367
0.0019565
0.00195894
0.00196277
0.00196739
0.00197296
0.00197882
0.00198514
0.00199133
0.00199729
0.00200236
0.00200619
0.00200799
0.00200723
0.00200296
0.00199458
0.00198116
0.00196232
0.00193746
0.00192993
0.00193222
0.00193457
0.00193646
0.00193946
0.00194318
0.00194761
0.00195221
0.00195706
0.00196165
0.00196586
0.00196906
0.00197097
0.00197085
0.00196826
0.00196238
0.00195274
0.00193858
0.0019196
0.00189534
0.00190674
0.00190901
0.00191092
0.00191225
0.00191446
0.0019173
0.00192063
0.00192402
0.00192747
0.00193055
0.00193311
0.00193459
0.00193474
0.00193289
0.0019287
0.00192145
0.00191077
0.00189603
0.00187704
0.00185342
0.00188175
0.00188398
0.00188549
0.00188627
0.00188774
0.00188973
0.00189202
0.00189424
0.00189638
0.00189804
0.00189907
0.00189898
0.00189754
0.00189417
0.00188858
0.00188017
0.00186864
0.00185349
0.00183459
0.00181163
0.0018549
0.00185709
0.00185823
0.00185848
0.00185927
0.00186043
0.00186175
0.00186287
0.00186378
0.00186413
0.00186377
0.00186226
0.00185941
0.00185471
0.00184792
0.00183854
0.00182636
0.00181094
0.0017922
0.00176992
0.00182617
0.00182831
0.00182911
0.00182887
0.00182901
0.00182941
0.00182981
0.00182992
0.0018297
0.00182885
0.00182723
0.00182447
0.00182037
0.00181453
0.00180673
0.00179658
0.00178388
0.00176832
0.00174983
0.00172824
0.00179553
0.00179762
0.00179811
0.00179741
0.00179695
0.00179664
0.00179621
0.00179539
0.00179415
0.00179222
0.00178949
0.00178562
0.00178045
0.00177364
0.00176502
0.00175425
0.0017412
0.00172561
0.00170743
0.00168653
0.00176297
0.00176501
0.00176522
0.00176409
0.0017631
0.00176215
0.00176096
0.0017593
0.00175715
0.00175428
0.00175056
0.00174574
0.00173967
0.00173206
0.00172278
0.00171155
0.00169828
0.00168275
0.00166494
0.00164475
0.00172848
0.00173049
0.00173045
0.00172894
0.00172745
0.00172593
0.00172407
0.00172168
0.00171873
0.00171503
0.00171049
0.00170487
0.00169805
0.0016898
0.00168001
0.00166847
0.00165508
0.0016397
0.00162231
0.00160284
0.0016921
0.00169407
0.0016938
0.00169195
0.00169004
0.00168802
0.00168558
0.00168255
0.00167892
0.00167453
0.00166929
0.00166301
0.00165559
0.00164686
0.0016367
0.00162496
0.00161158
0.00159642
0.00157949
0.00156074
0.00165384
0.00165578
0.00165532
0.00165318
0.00165091
0.00164846
0.00164552
0.00164196
0.00163775
0.00163279
0.00162699
0.00162019
0.00161232
0.00160323
0.00159284
0.00158102
0.00156772
0.00155286
0.00153643
0.0015184
0.00161376
0.00161567
0.00161505
0.00161267
0.00161009
0.00160729
0.00160394
0.00159994
0.00159527
0.00158986
0.00158362
0.00157644
0.00156824
0.00155892
0.0015484
0.00153661
0.00152349
0.00150898
0.00149308
0.00147577
0.00157192
0.00157381
0.00157305
0.00157048
0.00156765
0.00156456
0.00156089
0.00155654
0.00155152
0.00154577
0.00153921
0.00153175
0.00152335
0.00151391
0.00150338
0.0014917
0.00147882
0.00146472
0.00144938
0.0014328
0.00152838
0.00153025
0.00152939
0.00152666
0.00152364
0.00152033
0.00151642
0.00151181
0.00150654
0.00150055
0.00149378
0.00148617
0.00147766
0.0014682
0.00145775
0.00144626
0.0014337
0.00142005
0.0014053
0.00138945
0.00148323
0.00148507
0.00148414
0.0014813
0.00147814
0.00147468
0.0014706
0.00146582
0.00146038
0.00145424
0.00144736
0.00143969
0.00143118
0.0014218
0.00141151
0.00140028
0.00138808
0.00137492
0.00136077
0.00134566
0.00143654
0.00143837
0.00143738
0.00143447
0.00143123
0.00142767
0.00142348
0.00141861
0.00141309
0.00140689
0.00139999
0.00139234
0.00138391
0.00137468
0.00136462
0.00135371
0.00134194
0.00132929
0.00131577
0.00130139
0.00138841
0.00139023
0.00138921
0.00138627
0.00138298
0.00137938
0.00137515
0.00137025
0.00136472
0.00135854
0.00135169
0.00134414
0.00133587
0.00132686
0.00131709
0.00130655
0.00129523
0.00128313
0.00127025
0.0012566
0.00133894
0.00134074
0.00133971
0.00133677
0.00133348
0.00132988
0.00132566
0.0013208
0.00131532
0.00130922
0.0013025
0.00129511
0.00128706
0.00127833
0.0012689
0.00125877
0.00124794
0.00123641
0.00122418
0.00121126
0.00128822
0.00129
0.00128898
0.00128606
0.00128281
0.00127925
0.0012751
0.00127031
0.00126494
0.00125899
0.00125243
0.00124527
0.00123749
0.00122908
0.00122004
0.00121036
0.00120005
0.0011891
0.00117752
0.00116533
0.00123634
0.0012381
0.00123711
0.00123424
0.00123105
0.00122757
0.00122351
0.00121885
0.00121363
0.00120787
0.00120154
0.00119464
0.00118718
0.00117913
0.00117051
0.0011613
0.00115152
0.00114117
0.00113025
0.00111878
0.0011834
0.00118514
0.00118418
0.00118138
0.00117828
0.0011749
0.00117098
0.00116648
0.00116145
0.00115591
0.00114985
0.00114325
0.00113613
0.00112848
0.0011203
0.00111159
0.00110235
0.0010926
0.00108234
0.00107158
0.00112948
0.0011312
0.00113028
0.00112757
0.00112457
0.00112133
0.00111756
0.00111325
0.00110844
0.00110315
0.00109738
0.00109112
0.00108437
0.00107713
0.00106941
0.0010612
0.00105253
0.00104338
0.00103377
0.00102371
0.00107466
0.00107635
0.00107548
0.00107287
0.00107
0.0010669
0.00106331
0.00105921
0.00105464
0.00104963
0.00104417
0.00103826
0.0010319
0.00102509
0.00101784
0.00101015
0.00100203
0.000993488
0.000984524
0.000975151
0.00101901
0.00102066
0.00101985
0.00101735
0.00101462
0.00101168
0.00100828
0.0010044
0.0010001
0.00099538
0.000990246
0.000984696
0.000978735
0.000972366
0.000965595
0.000958424
0.000950861
0.000942912
0.000934584
0.000925885
0.000962585
0.000964198
0.000963436
0.000961066
0.000958476
0.000955707
0.000952513
0.000948871
0.000944834
0.000940419
0.000935622
0.000930443
0.000924888
0.000918962
0.000912669
0.000906014
0.000899002
0.00089164
0.000883935
0.000875894
0.000905421
0.000906987
0.000906286
0.000904046
0.00090161
0.000899018
0.000896033
0.000892635
0.000888874
0.000884767
0.000880311
0.000875506
0.00087036
0.000864875
0.000859057
0.000852911
0.000846442
0.000839656
0.000832559
0.000825159
0.000847566
0.000849072
0.000848426
0.000846322
0.000844044
0.000841633
0.000838862
0.000835711
0.000832228
0.000828432
0.000824317
0.000819887
0.000815146
0.000810099
0.00080475
0.000799104
0.000793167
0.000786943
0.000780439
0.00077366
0.000788994
0.000790443
0.000789859
0.000787898
0.000785783
0.000783555
0.000781
0.000778097
0.000774894
0.000771406
0.000767632
0.000763572
0.000759231
0.000754614
0.000749726
0.00074457
0.000739152
0.000733475
0.000727546
0.00072137
0.000729755
0.000731123
0.00073059
0.000728771
0.000726819
0.000724775
0.000722435
0.00071978
0.000716854
0.000713674
0.000710235
0.000706539
0.000702592
0.000698397
0.000693958
0.00068928
0.000684366
0.000679221
0.000673849
0.000668256
0.000669729
0.000671031
0.000670562
0.000668895
0.000667113
0.000665254
0.000663129
0.000660721
0.00065807
0.000655191
0.000652083
0.000648745
0.000645183
0.000641401
0.000637401
0.000633188
0.000628764
0.000624134
0.000619302
0.000614273
0.000608988
0.000610184
0.000609759
0.000608237
0.000606619
0.000604943
0.000603031
0.000600866
0.000598486
0.000595905
0.000593121
0.000590133
0.000586947
0.000583566
0.000579993
0.00057623
0.000572282
0.000568151
0.000563841
0.000559356
0.000547273
0.000548393
0.000548036
0.000546677
0.000545235
0.000543745
0.000542045
0.000540122
0.000538011
0.000535723
0.000533256
0.000530612
0.000527794
0.000524806
0.000521649
0.000518326
0.000514841
0.000511196
0.000507393
0.000503437
0.000484682
0.000485673
0.000485351
0.000484139
0.000482862
0.00048155
0.000480058
0.000478372
0.000476523
0.000474521
0.000472366
0.000470057
0.000467597
0.000464989
0.000462236
0.00045934
0.000456302
0.000453127
0.000449815
0.00044637
0.00042081
0.000421705
0.000421444
0.0004204
0.000419299
0.000418172
0.000416891
0.000415442
0.000413855
0.000412139
0.000410292
0.000408314
0.000406209
0.000403978
0.000401624
0.000399148
0.000396553
0.00039384
0.00039101
0.000388068
0.000355635
0.000356388
0.000356161
0.000355272
0.00035434
0.000353388
0.00035231
0.000351092
0.00034976
0.00034832
0.000346772
0.000345117
0.000343355
0.000341489
0.000339521
0.000337452
0.000335284
0.000333018
0.000330656
0.000328201
0.000288822
0.000289454
0.000289281
0.000288562
0.000287809
0.000287044
0.000286177
0.000285198
0.000284128
0.000282973
0.000281732
0.000280404
0.000278993
0.000277498
0.000275922
0.000274265
0.000272529
0.000270715
0.000268825
0.000266859
0.000220045
0.000220515
0.000220371
0.000219812
0.00021923
0.000218639
0.00021797
0.000217218
0.000216397
0.000215513
0.000214564
0.000213551
0.000212474
0.000211336
0.000210136
0.000208877
0.000207557
0.00020618
0.000204745
0.000203254
0.000149015
0.000149354
0.000149272
0.000148901
0.000148513
0.000148123
0.000147681
0.000147183
0.000146639
0.000146052
0.000145422
0.000144749
0.000144033
0.000143276
0.000142477
0.000141638
0.000140758
0.00013984
0.000138883
0.000137888
7.48471e-05
7.49866e-05
7.49124e-05
7.47064e-05
7.44942e-05
7.42782e-05
7.40358e-05
7.37662e-05
7.34738e-05
7.3161e-05
7.2827e-05
7.24724e-05
7.2097e-05
7.1702e-05
7.1287e-05
7.08528e-05
7.03991e-05
6.99268e-05
6.94356e-05
6.89265e-05
0.00553478
0.00317168
0.00204868
0.00181067
0.0017846
0.00173651
0.00169444
0.00165557
0.00159469
0.00152212
0.0014483
0.00138069
0.00131297
0.00125124
0.00119408
0.00114302
0.00109722
0.00105248
0.00101071
0.000972208
0.000934427
0.000899275
0.000867167
0.000836369
0.000805314
0.000776699
0.000749493
0.000722561
0.000696204
0.000672206
0.000649122
0.00062587
0.000602864
0.000581356
0.000560468
0.000539945
0.000519598
0.000500527
0.000482243
0.000464505
0.000446331
0.000428958
0.000411926
0.00039575
0.000379364
0.000363348
0.000347644
0.000332558
0.000317675
0.000303276
0.000288657
0.000274537
0.000260469
0.00024711
0.000233992
0.000221199
0.00020836
0.000195991
0.000183707
0.000172056
0.000160362
0.00014895
0.000137577
0.000126458
0.000115434
0.000104797
9.46469e-05
8.45391e-05
7.47644e-05
6.48566e-05
5.58142e-05
4.62501e-05
3.80641e-05
2.89505e-05
2.19153e-05
1.28451e-05
7.23608e-06
-1.6132e-06
-4.13648e-06
-1.15857e-05
0.00551211
0.0031913
0.00207749
0.00183779
0.00180471
0.00175103
0.00170472
0.0016634
0.00160088
0.00152728
0.00145291
0.00138491
0.00131688
0.00125486
0.00119744
0.00114613
0.00110011
0.00105517
0.00101323
0.00097457
0.000936647
0.000901361
0.000869133
0.000838221
0.000807069
0.000778365
0.000751079
0.000724069
0.000697644
0.000673579
0.000650434
0.000627123
0.000604068
0.000582512
0.000561581
0.000541015
0.00052063
0.000501521
0.000483203
0.000465429
0.000447226
0.000429822
0.000412766
0.000396562
0.000380154
0.000364112
0.000348389
0.000333279
0.00031838
0.000303957
0.000289325
0.000275183
0.000261103
0.000247725
0.000234597
0.000221783
0.000208937
0.000196548
0.000184257
0.000172588
0.000160889
0.00014946
0.000138083
0.000126946
0.00011592
0.000105266
9.51138e-05
8.49895e-05
7.52133e-05
6.52898e-05
5.62468e-05
4.66675e-05
3.84817e-05
2.93542e-05
2.23187e-05
1.32352e-05
7.62658e-06
-1.23426e-06
-3.77303e-06
-1.12105e-05
0.00546106
0.00319925
0.00209857
0.00186023
0.00182543
0.00176906
0.00171891
0.00167382
0.00160904
0.00153421
0.00145911
0.00139054
0.0013221
0.00125971
0.00120194
0.00115034
0.00110405
0.00105885
0.00101668
0.000977812
0.000939707
0.000904243
0.000871859
0.000840796
0.000809513
0.000780691
0.000753296
0.000726182
0.000699664
0.00067551
0.000652281
0.000628889
0.000605764
0.000584144
0.000563154
0.000542527
0.000522091
0.000502929
0.000484565
0.00046674
0.000448496
0.000431049
0.000413959
0.000397716
0.000381277
0.000365199
0.00034945
0.000334305
0.000319383
0.000304929
0.000290275
0.000276105
0.000262008
0.000248603
0.000235459
0.000222619
0.000209759
0.000197345
0.000185042
0.000173349
0.000161642
0.000150188
0.000138804
0.000127644
0.000116613
0.000105937
9.57811e-05
8.56338e-05
7.58551e-05
6.59093e-05
5.68651e-05
4.72639e-05
3.90789e-05
2.99313e-05
2.28955e-05
1.37929e-05
8.18479e-06
-6.9297e-07
-3.2526e-06
-1.06713e-05
0.005416
0.00320817
0.00210911
0.00186691
0.00183201
0.00177877
0.00172971
0.00168173
0.00161599
0.00154026
0.00146422
0.00139503
0.00132633
0.00126375
0.00120581
0.00115402
0.0011075
0.0010621
0.00101976
0.000980719
0.000942473
0.00090686
0.000874359
0.000843167
0.000811773
0.000782849
0.000755361
0.000728156
0.000701555
0.000677325
0.000654022
0.000630559
0.000607368
0.000585691
0.000564647
0.000543967
0.000523483
0.000504273
0.000485866
0.000467997
0.000449712
0.000432227
0.000415103
0.000398825
0.000382358
0.000366247
0.000350471
0.000335295
0.00032035
0.00030587
0.000291193
0.000276998
0.000262882
0.000249454
0.000236294
0.00022343
0.000210556
0.000198119
0.000185803
0.000174089
0.000162371
0.000150897
0.000139504
0.000128323
0.000117286
0.000106591
9.64293e-05
8.62619e-05
7.64788e-05
6.65132e-05
5.7466e-05
4.78445e-05
3.96591e-05
3.04935e-05
2.3456e-05
1.4336e-05
8.72654e-06
-1.65574e-07
-2.74796e-06
-1.0164e-05
0.00537023
0.0032156
0.0021206
0.0018757
0.00183578
0.00178088
0.00173234
0.00168645
0.00162225
0.00154544
0.00146887
0.00139902
0.00133005
0.00126743
0.00120948
0.00115739
0.00111055
0.00106504
0.0010226
0.000983453
0.000945119
0.000909403
0.000876809
0.000845496
0.000814001
0.000784988
0.00075742
0.000730131
0.000703457
0.000679154
0.000655791
0.000632255
0.000609004
0.000587271
0.000566175
0.000545443
0.000524912
0.000505655
0.000487208
0.000469296
0.00045097
0.000433447
0.000416288
0.000399976
0.000383479
0.000367336
0.000351533
0.000336327
0.000321357
0.000306851
0.00029215
0.00027793
0.000263794
0.000250346
0.000237166
0.000224281
0.000211389
0.000198931
0.000186599
0.000174865
0.000163135
0.000151643
0.000140237
0.000129037
0.000117992
0.00010728
9.71095e-05
8.69235e-05
7.71336e-05
6.71495e-05
5.80967e-05
4.8456e-05
4.02683e-05
3.1086e-05
2.40443e-05
1.49083e-05
9.29469e-06
3.90826e-07
-2.22108e-06
-9.65191e-06
0.00532131
0.00322241
0.00213324
0.00188513
0.00184115
0.00178408
0.00173236
0.00168606
0.00162338
0.00154906
0.00147378
0.00140285
0.00133381
0.00127116
0.00121299
0.00116051
0.0011135
0.00106795
0.00102539
0.000986189
0.000947834
0.000912031
0.000879269
0.000847809
0.000816245
0.000787174
0.00075955
0.000732192
0.000705461
0.000681095
0.000657672
0.000634059
0.000610752
0.000588961
0.000567819
0.00054703
0.000526456
0.000507151
0.000488667
0.000470706
0.000452342
0.000434776
0.000417582
0.000401233
0.000384704
0.000368528
0.000352696
0.00033746
0.000322463
0.000307931
0.000293203
0.000278958
0.000264799
0.000251329
0.000238128
0.00022522
0.000212309
0.00019983
0.000187479
0.000175725
0.00016398
0.000152468
0.000141048
0.000129828
0.000118774
0.000108044
9.78632e-05
8.76585e-05
7.78594e-05
6.78569e-05
5.87957e-05
4.9136e-05
4.09436e-05
3.17453e-05
2.46968e-05
1.55448e-05
9.92456e-06
1.00988e-06
-1.63855e-06
-9.09684e-06
0.00527033
0.00322946
0.00214642
0.00189485
0.00184695
0.00178719
0.00173378
0.00168648
0.00162261
0.0015489
0.00147457
0.00140535
0.00133781
0.00127474
0.00121596
0.00116352
0.00111652
0.0010708
0.00102805
0.000988871
0.000950533
0.000914605
0.000881652
0.000850089
0.0008185
0.00078939
0.000761719
0.000734306
0.000707545
0.000683096
0.000659559
0.000635885
0.000612537
0.000590704
0.000569531
0.000548695
0.000528086
0.000508734
0.000490213
0.000472201
0.000453802
0.000436189
0.000418964
0.000402574
0.000386019
0.000369807
0.000353951
0.00033868
0.00032366
0.000309096
0.000294342
0.000280067
0.000265889
0.000252394
0.000239172
0.000226239
0.000213309
0.000200807
0.000188435
0.00017666
0.0001649
0.000153368
0.000141931
0.000130691
0.000119625
0.000108878
9.86856e-05
8.8462e-05
7.86514e-05
6.86308e-05
5.95586e-05
4.98803e-05
4.16811e-05
3.24675e-05
2.54097e-05
1.62418e-05
1.06127e-05
1.6876e-06
-1.00302e-06
-8.50088e-06
0.00521753
0.00323626
0.00215986
0.0019049
0.0018528
0.0017906
0.0017355
0.00168702
0.00162301
0.0015492
0.00147406
0.00140522
0.00133846
0.00127636
0.00121904
0.00116703
0.00111923
0.00107317
0.00103053
0.000991431
0.000953022
0.000916928
0.000883934
0.000852405
0.000820789
0.000791576
0.000763863
0.000736406
0.000709632
0.000685094
0.000661435
0.000637709
0.000614341
0.00059249
0.000571296
0.000550421
0.000529781
0.000510365
0.00049177
0.000473719
0.000455293
0.000437642
0.000420393
0.000403971