/*--------------------------------*- C++ -*----------------------------------*\
| =========                 |                                                 |
| \\      /  F ield         | OpenFOAM: The Open Source CFD Toolbox           |
|  \\    /   O peration     | Version:  v1912                                 |
|   \\  /    A nd           | Website:  www.openfoam.com                      |
|    \\/     M anipulation  |                                                 |
\*---------------------------------------------------------------------------*/
FoamFile
{
    version     2.0;
    format      ascii;
    class       surfaceScalarField;
    location    "400";
    object      phi;
}
// * * * * * * * * * * * * * * * * * * * * * * * * * * * * * * * * * * * * * //

dimensions      [0 3 -1 0 0 0 0];
oriented        oriented;


internalField   nonuniform List<scalar> 
19800
(
2.28521e-07
-1.3977e-08
2.2853e-07
-8.75113e-12
2.28672e-07
-1.4277e-10
2.28515e-07
1.57615e-10
2.28695e-07
-1.81154e-10
2.28515e-07
1.7983e-10
2.28697e-07
-1.82113e-10
2.28505e-07
1.92951e-10
2.28691e-07
-1.87103e-10
2.28485e-07
2.06338e-10
2.28677e-07
-1.91172e-10
2.28456e-07
2.20667e-10
2.28649e-07
-1.92777e-10
2.28412e-07
2.36457e-10
2.28599e-07
-1.86992e-10
2.28346e-07
2.53929e-10
2.28502e-07
-1.56958e-10
2.28238e-07
2.63662e-10
2.28175e-07
6.3316e-11
5.01178e-10
2.27674e-07
2.42204e-07
-1.70895e-08
2.42473e-07
-2.77959e-10
2.42305e-07
2.49668e-11
2.4244e-07
2.25949e-11
2.42293e-07
-3.47734e-11
2.42429e-07
4.33271e-11
2.42263e-07
-1.57621e-11
2.42411e-07
4.49653e-11
2.42227e-07
-3.08975e-12
2.42387e-07
4.57122e-11
2.42183e-07
1.33503e-11
2.42358e-07
4.61834e-11
2.42128e-07
3.73777e-11
2.42317e-07
4.73415e-11
2.4205e-07
7.96707e-11
2.42255e-07
4.94751e-11
2.41921e-07
1.76468e-10
2.4215e-07
3.45161e-11
2.41534e-07
6.78936e-10
4.19329e-10
2.41616e-07
2.55714e-07
-1.67758e-08
2.55917e-07
-4.80641e-10
2.55845e-07
9.65182e-11
2.55899e-07
-3.11466e-11
2.55859e-07
5.16073e-12
2.55899e-07
2.78511e-12
2.55852e-07
3.14011e-11
2.55887e-07
9.60516e-12
2.55837e-07
4.69692e-11
2.55867e-07
1.54261e-11
2.55813e-07
6.78705e-11
2.55837e-07
2.17954e-11
2.55775e-07
9.95331e-11
2.55793e-07
3.00431e-11
2.55714e-07
1.5823e-10
2.55723e-07
4.0764e-11
2.55599e-07
2.99757e-10
2.55603e-07
3.06412e-11
2.55232e-07
1.04996e-09
6.11229e-10
2.5504e-07
2.70137e-07
-1.60968e-08
2.70304e-07
-6.48028e-10
2.70269e-07
1.31685e-10
2.70286e-07
-4.80354e-11
2.70279e-07
1.11452e-11
2.70285e-07
-2.77457e-12
2.7027e-07
4.60028e-11
2.70272e-07
7.4663e-12
2.70252e-07
6.65471e-11
2.70252e-07
1.65345e-11
2.70225e-07
9.42143e-11
2.70221e-07
2.61213e-11
2.70184e-07
1.36815e-10
2.70176e-07
3.82307e-11
2.70118e-07
2.16504e-10
2.70105e-07
5.38394e-11
2.69995e-07
4.09152e-10
2.69979e-07
4.62587e-11
2.69618e-07
1.41088e-09
8.29732e-10
2.69399e-07
2.85463e-07
-1.54964e-08
2.85623e-07
-8.08079e-10
2.85594e-07
1.607e-10
2.85604e-07
-5.8016e-11
2.85602e-07
1.3527e-11
2.85601e-07
-2.60258e-12
2.85589e-07
5.80347e-11
2.85586e-07
1.08028e-11
2.85568e-07
8.40287e-11
2.85563e-07
2.22935e-11
2.85537e-07
1.1956e-10
2.85529e-07
3.4729e-11
2.85491e-07
1.74275e-10
2.85479e-07
5.03919e-11
2.85419e-07
2.76558e-10
2.85402e-07
7.04576e-11
2.85288e-07
5.23999e-10
2.85266e-07
6.77565e-11
2.84899e-07
1.77756e-09
1.06449e-09
2.84664e-07
3.01666e-07
-1.49013e-08
3.01825e-07
-9.66812e-10
3.01797e-07
1.8886e-10
3.01807e-07
-6.81608e-11
3.01803e-07
1.73313e-11
3.01804e-07
-3.57702e-12
3.01789e-07
7.20827e-11
3.01787e-07
1.28465e-11
3.01767e-07
1.04382e-10
3.01762e-07
2.71686e-11
3.01734e-07
1.48162e-10
3.01726e-07
4.24791e-11
3.01685e-07
2.15741e-10
3.01673e-07
6.18641e-11
3.01608e-07
3.41939e-10
3.01591e-07
8.70514e-11
3.01469e-07
6.46448e-10
3.01444e-07
9.21238e-11
3.0107e-07
2.15129e-09
1.31053e-09
3.00824e-07
3.18789e-07
-1.4299e-08
3.18944e-07
-1.12216e-09
3.18918e-07
2.14798e-10
3.18927e-07
-7.73611e-11
3.18923e-07
2.14857e-11
3.18923e-07
-4.34821e-12
3.18909e-07
8.6941e-11
3.18906e-07
1.55418e-11
3.18885e-07
1.25384e-10
3.1888e-07
3.23603e-11
3.1885e-07
1.78093e-10
3.18842e-07
5.07762e-11
3.18798e-07
2.59308e-10
3.18786e-07
7.41467e-11
3.18717e-07
4.106e-10
3.18699e-07
1.04757e-10
3.18571e-07
7.75139e-10
3.18541e-07
1.21923e-10
3.18163e-07
2.52838e-09
1.5702e-09
3.17904e-07
3.36883e-07
-1.36691e-08
3.37034e-07
-1.27315e-09
3.3701e-07
2.38268e-10
3.37018e-07
-8.5765e-11
3.37014e-07
2.59826e-11
3.37015e-07
-5.32299e-12
3.36999e-07
1.02512e-10
3.36996e-07
1.8021e-11
3.36974e-07
1.47928e-10
3.36968e-07
3.80346e-11
3.36937e-07
2.09773e-10
3.36928e-07
5.97167e-11
3.36882e-07
3.05286e-10
3.36869e-07
8.7362e-11
3.36796e-07
4.83029e-10
3.36777e-07
1.24237e-10
3.36642e-07
9.09724e-10
3.36607e-07
1.57173e-10
3.36227e-07
2.90797e-09
1.8433e-09
3.35954e-07
3.56003e-07
-1.29833e-08
3.56148e-07
-1.41898e-09
3.56127e-07
2.59544e-10
3.56135e-07
-9.37498e-11
3.56129e-07
3.1678e-11
3.56131e-07
-6.8087e-12
3.56113e-07
1.19749e-10
3.56111e-07
2.04518e-11
3.56087e-07
1.71966e-10
3.56082e-07
4.32172e-11
3.56048e-07
2.43733e-10
3.56039e-07
6.84201e-11
3.5599e-07
3.54371e-10
3.55977e-07
1.00686e-10
3.559e-07
5.59752e-10
3.5588e-07
1.44319e-10
3.55738e-07
1.05153e-09
3.55697e-07
1.98122e-10
3.55316e-07
3.28947e-09
2.12954e-09
3.55029e-07
3.76209e-07
-1.22995e-08
3.76347e-07
-1.55771e-09
3.76329e-07
2.77299e-10
3.76336e-07
-1.00422e-10
3.7633e-07
3.73916e-11
3.76331e-07
-8.10655e-12
3.76313e-07
1.37283e-10
3.76311e-07
2.30636e-11
3.76285e-07
1.9725e-10
3.76279e-07
4.93999e-11
3.76244e-07
2.79148e-10
3.76234e-07
7.83019e-11
3.76183e-07
4.05613e-10
3.76168e-07
1.15557e-10
3.76088e-07
6.39987e-10
3.76066e-07
1.67148e-10
3.75918e-07
1.19851e-09
3.7587e-07
2.46406e-10
3.75489e-07
3.66979e-09
2.43038e-09
3.75189e-07
3.97563e-07
-1.1622e-08
3.97693e-07
-1.68786e-09
3.97679e-07
2.91735e-10
3.97684e-07
-1.0589e-10
3.97678e-07
4.38612e-11
3.97679e-07
-9.19845e-12
3.9766e-07
1.55965e-10
3.97657e-07
2.64732e-11
3.9763e-07
2.23372e-10
3.97624e-07
5.58527e-11
3.97587e-07
3.16247e-10
3.97576e-07
8.88082e-11
3.97523e-07
4.59392e-10
3.97507e-07
1.31513e-10
3.97423e-07
7.23943e-10
3.97398e-07
1.91821e-10
3.97244e-07
1.35195e-09
3.97188e-07
3.0274e-10
3.96809e-07
4.04863e-09
2.7452e-09
3.96494e-07
4.2013e-07
-1.09348e-08
4.2025e-07
-1.80834e-09
4.20239e-07
3.02608e-10
4.20243e-07
-1.10403e-10
4.20236e-07
5.0967e-11
4.20237e-07
-1.05965e-11
4.20218e-07
1.75491e-10
4.20215e-07
2.95187e-11
4.20186e-07
2.51491e-10
4.2018e-07
6.29117e-11
4.2014e-07
3.55564e-10
4.20129e-07
1.00111e-10
4.20073e-07
5.16149e-10
4.20055e-07
1.4873e-10
4.19967e-07
8.12282e-10
4.1994e-07
2.19327e-10
4.19781e-07
1.51101e-09
4.19716e-07
3.67351e-10
4.1934e-07
4.42429e-09
3.07359e-09
4.19012e-07
4.43977e-07
-1.02339e-08
4.44086e-07
-1.91751e-09
4.44079e-07
3.0985e-10
4.44082e-07
-1.13791e-10
4.44074e-07
5.91712e-11
4.44076e-07
-1.18981e-11
4.44055e-07
1.96404e-10
4.44051e-07
3.33427e-11
4.44022e-07
2.80622e-10
4.44014e-07
7.0165e-11
4.43973e-07
3.96808e-10
4.43961e-07
1.12043e-10
4.43902e-07
5.75711e-10
4.43883e-07
1.67176e-10
4.43791e-07
9.0455e-10
4.43761e-07
2.49199e-10
4.43596e-07
1.67631e-09
4.43521e-07
4.41602e-10
4.4315e-07
4.79532e-09
3.41559e-09
4.42808e-07
4.69178e-07
-9.52476e-09
4.69275e-07
-2.01413e-09
4.69271e-07
3.13069e-10
4.69274e-07
-1.1614e-10
4.69265e-07
6.81344e-11
4.69266e-07
-1.3445e-11
4.69244e-07
2.18137e-10
4.6924e-07
3.68668e-11
4.69209e-07
3.11855e-10
4.69201e-07
7.82453e-11
4.69158e-07
4.40353e-10
4.69145e-07
1.25056e-10
4.69083e-07
6.38334e-10
4.69063e-07
1.87327e-10
4.68966e-07
1.00121e-09
4.68933e-07
2.82837e-10
4.68762e-07
1.84655e-09
4.68678e-07
5.25873e-10
4.68313e-07
5.15969e-09
3.77069e-09
4.67958e-07
4.9581e-07
-8.81841e-09
4.95892e-07
-2.09651e-09
4.95893e-07
3.12329e-10
4.95894e-07
-1.17294e-10
4.95884e-07
7.83932e-11
4.95885e-07
-1.47725e-11
4.95862e-07
2.41326e-10
4.95858e-07
4.14052e-11
4.95826e-07
3.44052e-10
4.95817e-07
8.66453e-11
4.95772e-07
4.85854e-10
4.95758e-07
1.38933e-10
4.95692e-07
7.03793e-10
4.9567e-07
2.09127e-10
4.9557e-07
1.1017e-09
4.95532e-07
3.19707e-10
4.95357e-07
2.02234e-09
4.95261e-07
6.21601e-10
4.94905e-07
5.516e-09
4.13856e-09
4.94537e-07
5.23953e-07
-8.12327e-09
5.2402e-07
-2.16345e-09
5.24025e-07
3.0733e-10
5.24025e-07
-1.17399e-10
5.24014e-07
8.95608e-11
5.24015e-07
-1.62723e-11
5.23991e-07
2.65313e-10
5.23986e-07
4.56944e-11
5.23952e-07
3.785e-10
5.23943e-07
9.6133e-11
5.23895e-07
5.33765e-10
5.2388e-07
1.54232e-10
5.23811e-07
7.72404e-10
5.23787e-07
2.33175e-10
5.23683e-07
1.20654e-09
5.23641e-07
3.61472e-10
5.23461e-07
2.20215e-09
5.23354e-07
7.29103e-10
5.23007e-07
5.86237e-09
4.5181e-09
5.22627e-07
5.53694e-07
-7.43426e-09
5.53744e-07
-2.21342e-09
5.53753e-07
2.98368e-10
5.53752e-07
-1.16403e-10
5.53739e-07
1.02324e-10
5.5374e-07
-1.75078e-11
5.53715e-07
2.90901e-10
5.5371e-07
5.11306e-11
5.53674e-07
4.13991e-10
5.53664e-07
1.0603e-10
5.53614e-07
5.83763e-10
5.53597e-07
1.70608e-10
5.53526e-07
8.43957e-10
5.535e-07
2.5932e-10
5.53391e-07
1.31514e-09
5.53344e-07
4.0746e-10
5.5316e-07
2.38666e-09
5.5304e-07
8.49746e-10
5.52705e-07
6.19759e-09
4.90837e-09
5.52314e-07
5.85122e-07
-6.75159e-09
5.85153e-07
-2.24541e-09
5.85166e-07
2.85233e-10
5.85164e-07
-1.14487e-10
5.8515e-07
1.16246e-10
5.85151e-07
-1.8876e-11
5.85125e-07
3.17343e-10
5.85119e-07
5.63513e-11
5.85082e-07
4.5192e-10
5.85071e-07
1.1723e-10
5.85018e-07
6.36316e-10
5.85e-07
1.88735e-10
5.84926e-07
9.18756e-10
5.84897e-07
2.88303e-10
5.84784e-07
1.42795e-09
5.84732e-07
4.59583e-10
5.84545e-07
2.57405e-09
5.84411e-07
9.83787e-10
5.84088e-07
6.51971e-09
5.30789e-09
5.83689e-07
6.18332e-07
-6.06461e-09
6.18345e-07
-2.25813e-09
6.18362e-07
2.68381e-10
6.18359e-07
-1.11596e-10
6.18343e-07
1.32049e-10
6.18344e-07
-1.98531e-11
6.18316e-07
3.45492e-10
6.1831e-07
6.29503e-11
6.18271e-07
4.90884e-10
6.18259e-07
1.28999e-10
6.18204e-07
6.90988e-10
6.18184e-07
2.08261e-10
6.18107e-07
9.96459e-10
6.18075e-07
3.2e-10
6.17959e-07
1.54419e-09
6.179e-07
5.17148e-10
6.1771e-07
2.76487e-09
6.17561e-07
1.13257e-09
6.17254e-07
6.82763e-09
5.71533e-09
6.16846e-07
6.53427e-07
-5.37151e-09
6.53419e-07
-2.25087e-09
6.5344e-07
2.47686e-10
6.53436e-07
-1.07907e-10
6.53419e-07
1.49171e-10
6.5342e-07
-2.08044e-11
6.5339e-07
3.74464e-10
6.53384e-07
6.94636e-11
6.53342e-07
5.32394e-10
6.53329e-07
1.42429e-10
6.53272e-07
7.48255e-10
6.5325e-07
2.30046e-10
6.5317e-07
1.07735e-09
6.53135e-07
3.55364e-10
6.53015e-07
1.66426e-09
6.5295e-07
5.82379e-10
6.52757e-07
2.95701e-09
6.52593e-07
1.29622e-09
6.52301e-07
7.11963e-09
6.12861e-09
6.51888e-07
6.90511e-07
-4.6242e-09
6.90483e-07
-2.223e-09
6.90507e-07
2.23951e-10
6.90503e-07
-1.03494e-10
6.90483e-07
1.68462e-10
6.90484e-07
-2.12375e-11
6.90453e-07
4.05262e-10
6.90446e-07
7.75504e-11
6.90403e-07
5.74993e-10
6.90388e-07
1.56633e-10
6.90329e-07
8.07696e-10
6.90305e-07
2.53623e-10
6.90221e-07
1.16109e-09
6.90182e-07
3.94185e-10
6.90059e-07
1.78734e-09
6.89986e-07
6.54417e-10
6.89793e-07
3.15112e-09
6.89613e-07
1.47576e-09
6.89338e-07
7.39503e-09
6.54575e-09
6.88921e-07
7.29698e-07
-3.8081e-09
7.29649e-07
-2.17454e-09
7.29676e-07
1.97199e-10
7.29671e-07
-9.84123e-11
7.2965e-07
1.89123e-10
7.2965e-07
-2.1319e-11
7.29618e-07
4.36772e-10
7.29609e-07
8.58588e-11
7.29564e-07
6.20122e-10
7.29548e-07
1.73008e-10
7.29487e-07
8.69646e-10
7.2946e-07
2.80163e-10
7.29374e-07
1.24779e-09
7.2933e-07
4.37746e-10
7.29204e-07
1.91367e-09
7.29123e-07
7.35815e-10
7.28929e-07
3.34491e-09
7.28733e-07
1.67114e-09
7.28476e-07
7.65269e-09
6.96393e-09
7.28057e-07
7.71102e-07
-2.73097e-09
7.71035e-07
-2.10795e-09
7.71063e-07
1.69523e-10
7.71058e-07
-9.36353e-11
7.71035e-07
2.1274e-10
7.71035e-07
-2.12537e-11
7.71001e-07
4.70726e-10
7.70992e-07
9.54258e-11
7.70945e-07
6.66846e-10
7.70928e-07
1.89874e-10
7.70863e-07
9.3421e-10
7.70835e-07
3.08448e-10
7.70745e-07
1.33757e-09
7.70697e-07
4.85129e-10
7.70568e-07
2.04268e-09
7.70478e-07
8.24966e-10
7.70285e-07
3.53911e-09
7.70073e-07
1.88261e-09
7.69835e-07
7.89152e-09
7.38141e-09
7.69417e-07
8.1485e-07
-1.7046e-09
8.14768e-07
-2.02677e-09
8.14796e-07
1.41218e-10
8.14792e-07
-8.89945e-11
8.14767e-07
2.3774e-10
8.14766e-07
-2.067e-11
8.14731e-07
5.05178e-10
8.14721e-07
1.05416e-10
8.14672e-07
7.15828e-10
8.14653e-07
2.09391e-10
8.14586e-07
1.00075e-09
8.14555e-07
3.40479e-10
8.14463e-07
1.42933e-09
8.1441e-07
5.38556e-10
8.1428e-07
2.17304e-09
8.14179e-07
9.2551e-10
8.13989e-07
3.72913e-09
8.1376e-07
2.1112e-09
8.13545e-07
8.10678e-09
7.79879e-09
8.13127e-07
8.61073e-07
-1.04914e-09
8.60981e-07
-1.93419e-09
8.61008e-07
1.14073e-10
8.61003e-07
-8.43362e-11
8.60977e-07
2.64422e-10
8.60974e-07
-1.84113e-11
8.60939e-07
5.40759e-10
8.60927e-07
1.18252e-10
8.60877e-07
7.6498e-10
8.60855e-07
2.31128e-10
8.60787e-07
1.06832e-09
8.60751e-07
3.76288e-10
8.60658e-07
1.52227e-09
8.60599e-07
5.98317e-10
8.60468e-07
2.30355e-09
8.60356e-07
1.0368e-09
8.6017e-07
3.9159e-09
8.59924e-07
2.35734e-09
8.5973e-07
8.30032e-09
8.21188e-09
8.59317e-07
9.09912e-07
-7.02379e-10
9.09812e-07
-1.83412e-09
9.09836e-07
8.96829e-11
9.09832e-07
-8.06246e-11
9.09804e-07
2.92565e-10
9.09801e-07
-1.53323e-11
9.09764e-07
5.77085e-10
9.09751e-07
1.31739e-10
9.09699e-07
8.16725e-10
9.09674e-07
2.55907e-10
9.09605e-07
1.13822e-09
9.09565e-07
4.1644e-10
9.0947e-07
1.61751e-09
9.09403e-07
6.65031e-10
9.09271e-07
2.43559e-09
9.09148e-07
1.16045e-09
9.08965e-07
4.09869e-09
9.08704e-07
2.61867e-09
9.08529e-07
8.47473e-09
8.61433e-09
9.08126e-07
9.61517e-07
-4.98559e-10
9.61412e-07
-1.72872e-09
9.61432e-07
6.95684e-11
9.61429e-07
-7.78542e-11
9.61399e-07
3.22959e-10
9.61395e-07
-1.07229e-11
9.61357e-07
6.15231e-10
9.61341e-07
1.47866e-10
9.61288e-07
8.69317e-10
9.61261e-07
2.82825e-10
9.61189e-07
1.20976e-09
9.61145e-07
4.60538e-10
9.61048e-07
1.71438e-09
9.60974e-07
7.38564e-10
9.60842e-07
2.56796e-09
9.60706e-07
1.29525e-09
9.60527e-07
4.27823e-09
9.60251e-07
2.89483e-09
9.60095e-07
8.63097e-09
9.00298e-09
9.59707e-07
1.01605e-06
-3.48427e-10
1.01594e-06
-1.61986e-09
1.01595e-06
5.39845e-11
1.01595e-06
-7.61887e-11
1.01592e-06
3.54745e-10
1.01591e-06
-4.94616e-12
1.01587e-06
6.54076e-10
1.01586e-06
1.65004e-10
1.0158e-06
9.2435e-10
1.01577e-06
3.13365e-10
1.0157e-06
1.2833e-09
1.01565e-06
5.0985e-10
1.01555e-06
1.8129e-09
1.01547e-06
8.2027e-10
1.01534e-06
2.70066e-09
1.01519e-06
1.44347e-09
1.01502e-06
4.45201e-09
1.01473e-06
3.18412e-09
1.01459e-06
8.76852e-09
9.37499e-09
1.01422e-06
1.07367e-06
-2.2315e-10
1.07356e-06
-1.50843e-09
1.07357e-06
4.37018e-11
1.07356e-06
-7.5125e-11
1.07353e-06
3.88383e-10
1.07352e-06
2.97206e-12
1.07348e-06
6.94422e-10
1.07346e-06
1.85402e-10
1.07341e-06
9.79785e-10
1.07337e-06
3.46902e-10
1.0733e-06
1.35778e-09
1.07324e-06
5.64272e-10
1.07315e-06
1.91198e-09
1.07306e-06
9.10261e-10
1.07292e-06
2.8321e-09
1.07276e-06
1.60394e-09
1.07259e-06
4.62046e-09
1.07229e-06
3.4859e-09
1.07217e-06
8.88831e-09
9.72789e-09
1.07182e-06
1.13455e-06
-1.16342e-10
1.13444e-06
-1.39598e-09
1.13445e-06
3.86895e-11
1.13444e-06
-7.46801e-11
1.13441e-06
4.2297e-10
1.1344e-06
1.26795e-11
1.13436e-06
7.35155e-10
1.13434e-06
2.0749e-10
1.13428e-06
1.03718e-09
1.13424e-06
3.84951e-10
1.13417e-06
1.43361e-09
1.13411e-06
6.25063e-10
1.13401e-06
2.01173e-09
1.13391e-06
1.00977e-09
1.13378e-06
2.96248e-09
1.1336e-06
1.77845e-09
1.13344e-06
4.78169e-09
1.13313e-06
3.7976e-09
1.13303e-06
8.99106e-09
1.00584e-08
1.1327e-06
1.19889e-06
-2.56423e-11
1.19878e-06
-1.28334e-09
1.19878e-06
3.95521e-11
1.19878e-06
-7.42069e-11
1.19874e-06
4.58944e-10
1.19873e-06
2.51526e-11
1.19869e-06
7.77135e-10
1.19866e-06
2.33437e-10
1.1986e-06
1.09461e-09
1.19856e-06
4.26865e-10
1.19848e-06
1.50975e-09
1.19842e-06
6.92083e-10
1.19832e-06
2.11113e-09
1.19821e-06
1.11875e-09
1.19808e-06
3.0904e-09
1.19789e-06
1.96539e-09
1.19774e-06
4.93661e-09
1.19742e-06
4.1177e-09
1.19733e-06
9.07868e-09
1.03639e-08
1.19703e-06
1.26687e-06
4.98398e-11
1.26676e-06
-1.17208e-09
1.26675e-06
4.6039e-11
1.26675e-06
-7.36011e-11
1.26672e-06
4.95365e-10
1.2667e-06
4.00677e-11
1.26666e-06
8.19205e-10
1.26663e-06
2.61839e-10
1.26657e-06
1.15346e-09
1.26653e-06
4.74196e-10
1.26645e-06
1.58658e-09
1.26637e-06
7.66541e-10
1.26628e-06
2.21031e-09
1.26616e-06
1.23821e-09
1.26603e-06
3.21627e-09
1.26583e-06
2.16586e-09
1.26568e-06
5.08394e-09
1.26536e-06
4.44286e-09
1.26528e-06
9.15251e-09
1.06416e-08
1.26501e-06
1.33871e-06
1.1186e-10
1.3386e-06
-1.06293e-09
1.33859e-06
5.84879e-11
1.33859e-06
-7.20647e-11
1.33855e-06
5.32595e-10
1.33853e-06
5.84111e-11
1.33849e-06
8.62212e-10
1.33846e-06
2.94772e-10
1.3384e-06
1.21194e-09
1.33834e-06
5.26318e-10
1.33827e-06
1.66306e-09
1.33819e-06
8.48268e-10
1.33809e-06
2.30833e-09
1.33796e-06
1.36789e-09
1.33783e-06
3.33889e-09
1.33762e-06
2.37783e-09
1.33748e-06
5.22491e-09
1.33715e-06
4.77094e-09
1.33709e-06
9.21485e-09
1.08894e-08
1.33684e-06
1.41462e-06
1.61456e-10
1.41451e-06
-9.57317e-10
1.41449e-06
7.63481e-11
1.41449e-06
-6.93758e-11
1.41445e-06
5.69673e-10
1.41443e-06
7.98757e-11
1.41439e-06
9.04958e-10
1.41435e-06
3.30991e-10
1.41429e-06
1.27121e-09
1.41423e-06
5.84768e-10
1.41416e-06
1.73954e-09
1.41407e-06
9.38348e-10
1.41397e-06
2.40536e-09
1.41383e-06
1.50847e-09
1.41371e-06
3.45889e-09
1.41349e-06
2.60159e-09
1.41335e-06
5.35881e-09
1.41303e-06
5.09806e-09
1.41297e-06
9.26723e-09
1.11053e-08
1.41276e-06
1.49483e-06
2.0053e-10
1.49473e-06
-8.55753e-10
1.4947e-06
9.96305e-11
1.4947e-06
-6.46212e-11
1.49466e-06
6.06904e-10
1.49463e-06
1.05432e-10
1.49459e-06
9.4829e-10
1.49455e-06
3.72403e-10
1.49449e-06
1.32969e-09
1.49443e-06
6.48879e-10
1.49435e-06
1.81506e-09
1.49425e-06
1.03648e-09
1.49416e-06
2.50061e-09
1.49401e-06
1.65933e-09
1.49389e-06
3.57538e-09
1.49366e-06
2.83459e-09
1.49353e-06
5.48715e-09
1.49321e-06
5.42167e-09
1.49316e-06
9.31199e-09
1.12884e-08
1.49298e-06
1.57958e-06
2.30203e-10
1.57949e-06
-7.59324e-10
1.57946e-06
1.27481e-10
1.57945e-06
-5.74888e-11
1.57942e-06
6.43356e-10
1.57939e-06
1.34789e-10
1.57934e-06
9.90976e-10
1.5793e-06
4.17994e-10
1.57924e-06
1.38831e-09
1.57917e-06
7.20125e-10
1.57909e-06
1.89e-09
1.57899e-06
1.14352e-09
1.57889e-06
2.59442e-09
1.57873e-06
1.82066e-09
1.57862e-06
3.68931e-09
1.57838e-06
3.07625e-09
1.57825e-06
5.60982e-09
1.57794e-06
5.73767e-09
1.5779e-06
9.35053e-09
1.14377e-08
1.57775e-06
1.66914e-06
2.52325e-10
1.66905e-06
-6.68189e-10
1.66902e-06
1.59593e-10
1.66901e-06
-4.70195e-11
1.66897e-06
6.7934e-10
1.66894e-06
1.68885e-10
1.6689e-06
1.03389e-09
1.66885e-06
4.69475e-10
1.66879e-06
1.44567e-09
1.66871e-06
7.97678e-10
1.66864e-06
1.96346e-09
1.66852e-06
1.25887e-09
1.66843e-06
2.68619e-09
1.66826e-06
1.99131e-09
1.66815e-06
3.80012e-09
1.6679e-06
3.32348e-09
1.66778e-06
5.72849e-09
1.66748e-06
6.0435e-09
1.66744e-06
9.38485e-09
1.15536e-08
1.66733e-06
1.76378e-06
2.67861e-10
1.7637e-06
-5.83028e-10
1.76366e-06
1.94818e-10
1.76365e-06
-3.2932e-11
1.76361e-06
7.13955e-10
1.76357e-06
2.07317e-10
1.76353e-06
1.07578e-09
1.76348e-06
5.25838e-10
1.76342e-06
1.50269e-09
1.76333e-06
8.82901e-10
1.76326e-06
2.03606e-09
1.76314e-06
1.38311e-09
1.76305e-06
2.77659e-09
1.76287e-06
2.17101e-09
1.76276e-06
3.90915e-09
1.76251e-06
3.57506e-09
1.76239e-06
5.84336e-09
1.7621e-06
6.33523e-09
1.76207e-06
9.4158e-09
1.16364e-08
1.76199e-06
1.86378e-06
2.78419e-10
1.8637e-06
-5.03558e-10
1.86367e-06
2.32615e-10
1.86365e-06
-1.43142e-11
1.86361e-06
7.47575e-10
1.86357e-06
2.50972e-10
1.86353e-06
1.11754e-09
1.86347e-06
5.88593e-10
1.86341e-06
1.55815e-09
1.86332e-06
9.74721e-10
1.86325e-06
2.10702e-09
1.86312e-06
1.51518e-09
1.86303e-06
2.86524e-09
1.86284e-06
2.35791e-09
1.86273e-06
4.01614e-09
1.86248e-06
3.82741e-09
1.86237e-06
5.95604e-09
1.86209e-06
6.61071e-09
1.86206e-06
9.44471e-09
1.16877e-08
1.86201e-06
1.96946e-06
2.84661e-10
1.96938e-06
-4.30013e-10
1.96934e-06
2.7167e-10
1.96932e-06
8.97797e-12
1.96929e-06
7.79419e-10
1.96924e-06
2.99302e-10
1.9692e-06
1.15807e-09
1.96913e-06
6.56678e-10
1.96908e-06
1.61304e-09
1.96898e-06
1.07418e-09
1.96891e-06
2.17728e-09
1.96877e-06
1.65527e-09
1.96868e-06
2.95318e-09
1.96849e-06
2.55126e-09
1.96838e-06
4.12267e-09
1.96813e-06
4.07894e-09
1.96802e-06
6.06678e-09
1.96776e-06
6.86678e-09
1.96773e-06
9.47163e-09
1.1709e-08
1.96771e-06
2.08112e-06
2.87832e-10
2.08105e-06
-3.61688e-10
2.08101e-06
3.1136e-10
2.08098e-06
3.76874e-11
2.08095e-06
8.09983e-10
2.0809e-06
3.53076e-10
2.08086e-06
1.19827e-09
2.08078e-06
7.31305e-10
2.08073e-06
1.6664e-09
2.08062e-06
1.17991e-09
2.08055e-06
2.2462e-09
2.08041e-06
1.80178e-09
2.08032e-06
3.04025e-09
2.08012e-06
2.74861e-09
2.08002e-06
4.22862e-09
2.07977e-06
4.3259e-09
2.07966e-06
6.17678e-09
2.07942e-06
7.10205e-09
2.0794e-06
9.49701e-09
1.1703e-08
2.0794e-06
2.19911e-06
2.88202e-10
2.19905e-06
-2.98464e-10
2.19901e-06
3.50375e-10
2.19897e-06
7.16873e-11
2.19894e-06
8.38648e-10
2.19889e-06
4.11545e-10
2.19885e-06
1.23725e-09
2.19877e-06
8.11246e-10
2.19871e-06
1.71935e-09
2.1986e-06
1.29253e-09
2.19853e-06
2.31508e-09
2.19838e-06
1.95449e-09
2.19829e-06
3.1278e-09
2.19809e-06
2.94883e-09
2.19799e-06
4.3356e-09
2.19775e-06
4.56672e-09
2.19764e-06
6.28596e-09
2.19742e-06
7.31449e-09
2.1974e-06
9.52003e-09
1.16721e-08
2.19743e-06
2.32379e-06
2.86634e-10
2.32373e-06
-2.39346e-10
2.32369e-06
3.882e-10
2.32365e-06
1.11428e-10
2.32363e-06
8.66055e-10
2.32356e-06
4.75266e-10
2.32353e-06
1.27591e-09
2.32344e-06
8.97313e-10
2.32339e-06
1.77124e-09
2.32327e-06
1.41036e-09
2.3232e-06
2.3835e-09
2.32304e-06
2.11129e-09
2.32296e-06
3.2158e-09
2.32276e-06
3.14907e-09
2.32265e-06
4.44343e-09
2.32242e-06
4.79792e-09
2.32231e-06
6.39483e-09
2.32212e-06
7.50375e-09
2.3221e-06
9.54033e-09
1.16194e-08
2.32215e-06
2.45554e-06
2.83071e-10
2.45549e-06
-1.84031e-10
2.45545e-06
4.23756e-10
2.45541e-06
1.56429e-10
2.45538e-06
8.91832e-10
2.45531e-06
5.43277e-10
2.45527e-06
1.31374e-09
2.45518e-06
9.88069e-10
2.45513e-06
1.82334e-09
2.45501e-06
1.53347e-09
2.45494e-06
2.45296e-09
2.45478e-06
2.27157e-09
2.45469e-06
3.30568e-09
2.45449e-06
3.34804e-09
2.45438e-06
4.55332e-09
2.45416e-06
5.01833e-09
2.45405e-06
6.50273e-09
2.45389e-06
7.66912e-09
2.45387e-06
9.55641e-09
1.15477e-08
2.45394e-06
2.59476e-06
2.78087e-10
2.59471e-06
-1.3146e-10
2.59468e-06
4.56818e-10
2.59463e-06
2.06754e-10
2.5946e-06
9.16751e-10
2.59453e-06
6.15826e-10
2.59449e-06
1.35164e-09
2.5944e-06
1.08382e-09
2.59434e-06
1.87537e-09
2.59422e-06
1.65997e-09
2.59415e-06
2.52325e-09
2.59399e-06
2.43293e-09
2.59389e-06
3.39734e-09
2.5937e-06
3.54293e-09
2.59359e-06
4.66474e-09
2.59338e-06
5.22521e-09
2.59327e-06
6.60931e-09
2.59313e-06
7.81123e-09
2.59312e-06
9.56738e-09
1.14602e-08
2.59321e-06
2.74188e-06
2.7146e-10
2.74183e-06
-8.13611e-11
2.7418e-06
4.86724e-10
2.74174e-06
2.61556e-10
2.74172e-06
9.4071e-10
2.74164e-06
6.91771e-10
2.7416e-06
1.38944e-09
2.7415e-06
1.18298e-09
2.74145e-06
1.92858e-09
2.74132e-06
1.7894e-09
2.74125e-06
2.59583e-09
2.74109e-06
2.59449e-09
2.74099e-06
3.49195e-09
2.7408e-06
3.73253e-09
2.74069e-06
4.77821e-09
2.7405e-06
5.41799e-09
2.74039e-06
6.71329e-09
2.74027e-06
7.93055e-09
2.74027e-06
9.57152e-09
1.13593e-08
2.74037e-06
2.89733e-06
2.6364e-10
2.89728e-06
-3.28568e-11
2.89725e-06
5.13656e-10
2.8972e-06
3.20489e-10
2.89717e-06
9.6457e-10
2.89709e-06
7.70989e-10
2.89705e-06
1.42807e-09
2.89695e-06
1.28532e-09
2.8969e-06
1.98301e-09
2.89677e-06
1.91981e-09
2.89669e-06
2.67052e-09
2.89653e-06
2.7539e-09
2.89644e-06
3.58911e-09
2.89625e-06
3.91446e-09
2.89614e-06
4.89264e-09
2.89596e-06
5.59499e-09
2.89586e-06
6.81355e-09
2.89576e-06
8.02842e-09
2.89577e-06
9.56784e-09
1.12478e-08
2.89588e-06
3.0616e-06
2.54439e-10
3.06155e-06
1.40948e-11
3.06153e-06
5.37447e-10
3.06146e-06
3.82403e-10
3.06144e-06
9.88448e-10
3.06136e-06
8.52213e-10
3.06132e-06
1.46762e-09
3.06122e-06
1.38919e-09
3.06116e-06
2.03971e-09
3.06103e-06
2.05041e-09
3.06095e-06
2.74843e-09
3.06079e-06
2.91025e-09
3.06069e-06
3.68938e-09
3.06052e-06
4.08791e-09
3.06041e-06
5.00771e-09
3.06024e-06
5.75631e-09
3.06015e-06
6.90846e-09
3.06007e-06
8.10604e-09
3.06009e-06
9.55491e-09
1.11274e-08
3.06021e-06
3.23518e-06
2.44353e-10
3.23513e-06
6.00176e-11
3.23511e-06
5.58677e-10
3.23505e-06
4.46628e-10
3.23502e-06
1.0132e-09
3.23494e-06
9.34993e-10
3.2349e-06
1.50893e-09
3.23479e-06
1.49399e-09
3.23473e-06
2.09881e-09
3.23461e-06
2.1794e-09
3.23452e-06
2.8292e-09
3.23437e-06
3.06155e-09
3.23427e-06
3.79185e-09
3.23411e-06
4.25118e-09
3.23399e-06
5.12173e-09
3.23385e-06
5.90124e-09
3.23376e-06
6.99645e-09
3.2337e-06
8.16497e-09
3.23372e-06
9.53203e-09
1.10001e-08
3.23385e-06
3.4186e-06
2.33366e-10
3.41856e-06
1.04634e-10
3.41854e-06
5.77608e-10
3.41847e-06
5.1187e-10
3.41845e-06
1.03903e-09
3.41836e-06
1.01804e-09
3.41832e-06
1.55216e-09
3.41822e-06
1.59816e-09
3.41815e-06
2.16096e-09
3.41803e-06
2.30592e-09
3.41794e-06
2.9133e-09
3.4178e-06
3.20712e-09
3.41769e-06
3.89629e-09
3.41754e-06
4.40397e-09
3.41743e-06
5.23367e-09
3.4173e-06
6.03041e-09
3.41722e-06
7.07593e-09
3.41718e-06
8.20662e-09
3.41721e-06
9.49841e-09
1.08668e-08
3.41734e-06
3.61242e-06
2.22097e-10
3.61238e-06
1.48087e-10
3.61236e-06
5.95059e-10
3.6123e-06
5.77306e-10
3.61227e-06
1.06664e-09
3.61219e-06
1.10073e-09
3.61214e-06
1.59791e-09
3.61204e-06
1.70094e-09
3.61197e-06
2.22608e-09
3.61185e-06
2.42857e-09
3.61176e-06
2.99995e-09
3.61162e-06
3.34557e-09
3.61152e-06
4.00124e-09
3.61138e-06
4.54533e-09
3.61127e-06
5.34153e-09
3.61116e-06
6.14375e-09
3.61109e-06
7.14539e-09
3.61106e-06
8.23238e-09
3.61111e-06
9.45389e-09
1.07285e-08
3.61124e-06
3.81723e-06
2.1072e-10
3.81719e-06
1.89844e-10
3.81717e-06
6.1151e-10
3.81711e-06
6.41722e-10
3.81708e-06
1.09615e-09
3.817e-06
1.18189e-09
3.81695e-06
1.64616e-09
3.81685e-06
1.80109e-09
3.81678e-06
2.2942e-09
3.81666e-06
2.54667e-09
3.81657e-06
3.08884e-09
3.81644e-06
3.47653e-09
3.81634e-06
4.10575e-09
3.81621e-06
4.67533e-09
3.81611e-06
5.4439e-09
3.81601e-06
6.24208e-09
3.81595e-06
7.20364e-09
3.81594e-06
8.24343e-09
3.816e-06
9.39834e-09
1.05858e-08
3.81614e-06
4.03365e-06
1.99913e-10
4.03361e-06
2.29795e-10
4.0336e-06
6.27764e-10
4.03353e-06
7.04369e-10
4.0335e-06
1.12796e-09
4.03342e-06
1.26093e-09
4.03337e-06
1.69709e-09
4.03328e-06
1.89794e-09
4.03321e-06
2.36483e-09
4.03309e-06
2.65929e-09
4.033e-06
3.17873e-09
4.03288e-06
3.59919e-09
4.03278e-06
4.20801e-09
4.03266e-06
4.79354e-09
4.03256e-06
5.53885e-09
4.03248e-06
6.3256e-09
4.03244e-06
7.24966e-09
4.03244e-06
8.24076e-09
4.0325e-06
9.33207e-09
1.04391e-08
4.03265e-06
4.26235e-06
1.8992e-10
4.26231e-06
2.67347e-10
4.26229e-06
6.44235e-10
4.26223e-06
7.64323e-10
4.2622e-06
1.16191e-09
4.26212e-06
1.33696e-09
4.26207e-06
1.7503e-09
4.26198e-06
1.99066e-09
4.2619e-06
2.43735e-09
4.2618e-06
2.76604e-09
4.26171e-06
3.26865e-09
4.26159e-06
3.71345e-09
4.26149e-06
4.30665e-09
4.26139e-06
4.9002e-09
4.2613e-06
5.62508e-09
4.26123e-06
6.39497e-09
4.2612e-06
7.28284e-09
4.26121e-06
8.22521e-09
4.26129e-06
9.25547e-09
1.02885e-08
4.26144e-06
4.504e-06
1.81313e-10
4.50397e-06
3.02353e-10
4.50395e-06
6.61443e-10
4.50389e-06
8.21095e-10
4.50386e-06
1.19794e-09
4.50379e-06
1.40957e-09
4.50373e-06
1.80543e-09
4.50364e-06
2.07882e-09
4.50357e-06
2.51078e-09
4.50347e-06
2.86639e-09
4.50338e-06
3.35705e-09
4.50327e-06
3.81884e-09
4.50318e-06
4.39988e-09
4.50309e-06
4.99507e-09
4.50301e-06
5.70108e-09
4.50295e-06
6.4504e-09
4.50293e-06
7.30276e-09
4.50296e-06
8.1974e-09
4.50305e-06
9.16909e-09
1.01342e-08
4.5032e-06
4.75936e-06
1.74222e-10
4.75933e-06
3.3438e-10
4.75931e-06
6.79511e-10
4.75926e-06
8.74171e-10
4.75922e-06
1.23559e-09
4.75915e-06
1.47823e-09
4.7591e-06
1.86168e-09
4.75901e-06
2.16196e-09
4.75894e-06
2.58403e-09
4.75885e-06
2.96012e-09
4.75876e-06
3.44262e-09
4.75866e-06
3.9153e-09
4.75858e-06
4.48633e-09
4.75849e-06
5.07828e-09
4.75843e-06
5.76592e-09
4.75839e-06
6.49228e-09
4.75838e-06
7.30939e-09
4.75842e-06
8.15787e-09
4.75852e-06
9.0735e-09
9.9762e-09
4.75867e-06
5.0292e-06
1.6895e-10
5.02917e-06
3.6343e-10
5.02915e-06
6.98528e-10
5.0291e-06
9.23383e-10
5.02906e-06
1.27435e-09
5.029e-06
1.54271e-09
5.02894e-06
1.91823e-09
5.02886e-06
2.23985e-09
5.02879e-06
2.65585e-09
5.0287e-06
3.04691e-09
5.02862e-06
3.5238e-09
5.02854e-06
4.00249e-09
5.02846e-06
4.56451e-09
5.02839e-06
5.14961e-09
5.02833e-06
5.81869e-09
5.02831e-06
6.52073e-09
5.02831e-06
7.30275e-09
5.02836e-06
8.10706e-09
5.02847e-06
8.96927e-09
9.81461e-09
5.02863e-06
5.31433e-06
1.65387e-10
5.31431e-06
3.89343e-10
5.31429e-06
7.18253e-10
5.31424e-06
9.68584e-10
5.3142e-06
1.31347e-09
5.31414e-06
1.60277e-09
5.31409e-06
1.97402e-09
5.31401e-06
2.31219e-09
5.31395e-06
2.72493e-09
5.31387e-06
3.12652e-09
5.31379e-06
3.59928e-09
5.31371e-06
4.0802e-09
5.31364e-06
4.63336e-09
5.31358e-06
5.209e-09
5.31354e-06
5.85894e-09
5.31353e-06
6.53599e-09
5.31355e-06
7.28316e-09
5.31361e-06
8.04539e-09
5.31372e-06
8.85695e-09
9.64948e-09
5.31389e-06
5.61563e-06
1.63517e-10
5.61561e-06
4.12322e-10
5.61559e-06
7.38385e-10
5.61555e-06
1.00983e-09
5.61551e-06
1.35217e-09
5.61546e-06
1.65829e-09
5.6154e-06
2.02802e-09
5.61534e-06
2.37879e-09
5.61527e-06
2.79003e-09
5.6152e-06
3.1986e-09
5.61513e-06
3.66778e-09
5.61506e-06
4.14805e-09
5.615e-06
4.69187e-09
5.61496e-06
5.25621e-09
5.61493e-06
5.88628e-09
5.61493e-06
6.53815e-09
5.61496e-06
7.25094e-09
5.61503e-06
7.97325e-09
5.61515e-06
8.737e-09
9.48089e-09
5.61532e-06
5.93402e-06
1.63011e-10
5.934e-06
4.32437e-10
5.93398e-06
7.58435e-10
5.93394e-06
1.04716e-09
5.9339e-06
1.38959e-09
5.93385e-06
1.7091e-09
5.9338e-06
2.07913e-09
5.93374e-06
2.43934e-09
5.93368e-06
2.84997e-09
5.93362e-06
3.26278e-09
5.93356e-06
3.72826e-09
5.9335e-06
4.2057e-09
5.93345e-06
4.73937e-09
5.93342e-06
5.29108e-09
5.9334e-06
5.90062e-09
5.93341e-06
6.52742e-09
5.93346e-06
7.20653e-09
5.93354e-06
7.89104e-09
5.93367e-06
8.60987e-09
9.30891e-09
5.93384e-06
6.27045e-06
1.63634e-10
6.27044e-06
4.4999e-10
6.27042e-06
7.77904e-10
6.27038e-06
1.08068e-09
6.27035e-06
1.42494e-09
6.2703e-06
1.75507e-09
6.27026e-06
2.12638e-09
6.2702e-06
2.49354e-09
6.27015e-06
2.90372e-09
6.27009e-06
3.31863e-09
6.27004e-06
3.7798e-09
6.26999e-06
4.25272e-09
6.26996e-06
4.77529e-09
6.26993e-06
5.31344e-09
6.26993e-06
5.90194e-09
6.26996e-06
6.504e-09
6.27001e-06
7.15036e-09
6.2701e-06
7.79917e-09
6.27024e-06