/*--------------------------------*- C++ -*----------------------------------*\
| =========                 |                                                 |
| \\      /  F ield         | OpenFOAM: The Open Source CFD Toolbox           |
|  \\    /   O peration     | Version:  v1912                                 |
|   \\  /    A nd           | Website:  www.openfoam.com                      |
|    \\/     M anipulation  |                                                 |
\*---------------------------------------------------------------------------*/
FoamFile
{
    version     2.0;
    format      ascii;
    class       volVectorField;
    location    "400";
    object      U;
}
// * * * * * * * * * * * * * * * * * * * * * * * * * * * * * * * * * * * * * //

dimensions      [0 1 -1 0 0 0 0];


internalField   nonuniform List<vector> 
10000
(
(0.934899 -0.000807547 0)
(1.06049 -8.48051e-05 0)
(0.932602 -0.00010701 0)
(1.06245 2.35172e-05 0)
(0.931268 -8.39696e-05 0)
(1.06402 4.86554e-05 0)
(0.929642 -8.35945e-05 0)
(1.06565 6.55159e-05 0)
(0.927913 -9.07753e-05 0)
(1.06734 8.21212e-05 0)
(0.926052 -0.000103015 0)
(1.06908 0.000101399 0)
(0.924043 -0.000120825 0)
(1.07086 0.000126091 0)
(0.921854 -0.00014643 0)
(1.07265 0.000160485 0)
(0.919412 -0.000184433 0)
(1.07431 0.000211849 0)
(0.91647 -0.000233088 0)
(1.07508 0.000256316 0)
(0.986066 -0.00157559 0)
(1.01525 -0.000149911 0)
(0.986016 1.35127e-05 0)
(1.01454 -2.00281e-05 0)
(0.987176 3.3122e-05 0)
(1.01332 -2.09283e-05 0)
(0.988245 4.08729e-05 0)
(1.01199 -2.92313e-05 0)
(0.989421 4.8605e-05 0)
(1.01053 -3.95298e-05 0)
(0.990686 5.88681e-05 0)
(1.00891 -5.19387e-05 0)
(0.992042 7.26705e-05 0)
(1.00711 -6.71642e-05 0)
(0.993477 9.16071e-05 0)
(1.00507 -8.62361e-05 0)
(0.994937 0.000119567 0)
(1.00261 -0.000113401 0)
(0.996198 0.000195525 0)
(0.998819 -0.000238938 0)
(0.999313 -0.00171365 0)
(1.00021 -1.25513e-05 0)
(0.998722 7.14901e-06 0)
(1.00029 3.84377e-05 0)
(0.999195 -2.31849e-05 0)
(0.999965 3.42821e-05 0)
(0.999456 -3.12617e-05 0)
(0.999639 3.63115e-05 0)
(0.999689 -3.65625e-05 0)
(0.9993 4.10484e-05 0)
(0.999864 -4.05573e-05 0)
(0.998944 4.67641e-05 0)
(0.999973 -4.31284e-05 0)
(0.998557 5.22269e-05 0)
(0.999984 -4.17595e-05 0)
(0.998097 5.48864e-05 0)
(0.999828 -2.78063e-05 0)
(0.997424 4.50713e-05 0)
(0.999259 6.04159e-05 0)
(0.995748 -4.33829e-05 0)
(1.00035 -0.00161906 0)
(0.998565 -7.19779e-05 0)
(0.9995 2.93399e-05 0)
(0.998895 -3.41418e-05 0)
(0.999686 1.68494e-05 0)
(0.998843 -2.95178e-05 0)
(0.999669 2.56326e-05 0)
(0.998779 -2.76387e-05 0)
(0.999638 3.14427e-05 0)
(0.998689 -2.66918e-05 0)
(0.999568 3.59184e-05 0)
(0.998567 -2.5212e-05 0)
(0.999451 3.9208e-05 0)
(0.998392 -2.12116e-05 0)
(0.999263 4.14802e-05 0)
(0.99812 -1.14747e-05 0)
(0.99894 4.50683e-05 0)
(0.997603 8.71432e-06 0)
(0.998242 9.74687e-05 0)
(0.996098 9.99293e-05 0)
(1 -0.00159192 0)
(0.998926 -5.90295e-05 0)
(0.999134 -2.62101e-06 0)
(0.999266 1.08015e-05 0)
(0.999274 -1.21852e-05 0)
(0.999243 1.89179e-05 0)
(0.999216 -7.982e-06 0)
(0.999202 1.94334e-05 0)
(0.999149 -6.0709e-06 0)
(0.999131 1.84467e-05 0)
(0.999048 -2.05673e-06 0)
(0.999024 1.62208e-05 0)
(0.998905 5.8135e-06 0)
(0.998861 1.22359e-05 0)
(0.998694 2.08318e-05 0)
(0.998597 5.85522e-06 0)
(0.998352 5.17281e-05 0)
(0.998085 -3.81497e-06 0)
(0.997639 0.000165429 0)
(0.996626 0.000106252 0)
(0.999964 -0.00150977 0)
(0.999026 -9.91147e-05 0)
(0.999125 2.79067e-05 0)
(0.999336 -1.51707e-05 0)
(0.999269 1.12515e-05 0)
(0.999306 -1.0138e-05 0)
(0.999217 1.40846e-05 0)
(0.999256 -8.26754e-06 0)
(0.999157 1.52714e-05 0)
(0.999176 -5.05637e-06 0)
(0.999063 1.71801e-05 0)
(0.999058 -6.45778e-07 0)
(0.998928 2.0517e-05 0)
(0.998884 4.81133e-06 0)
(0.998727 2.88598e-05 0)
(0.998607 1.01704e-05 0)
(0.998394 5.55007e-05 0)
(0.998084 8.02996e-06 0)
(0.997694 0.000200914 0)
(0.996653 0.000114338 0)
(0.999972 -0.00146607 0)
(0.999072 -9.86156e-05 0)
(0.999159 1.47849e-05 0)
(0.999358 -2.12051e-06 0)
(0.999302 -3.31816e-06 0)
(0.999329 3.7942e-06 0)
(0.99925 4.17728e-06 0)
(0.999279 4.95242e-06 0)
(0.999189 9.54313e-06 0)
(0.9992 5.33118e-06 0)
(0.999095 1.61017e-05 0)
(0.999083 5.50305e-06 0)
(0.998959 2.49404e-05 0)
(0.998909 6.45464e-06 0)
(0.998756 3.92148e-05 0)
(0.998634 9.50684e-06 0)
(0.998422 7.10217e-05 0)
(0.998113 1.2585e-05 0)
(0.997722 0.000233062 0)
(0.996732 0.000143604 0)
(1.00005 -0.00139464 0)
(0.999051 -0.000123311 0)
(0.999261 2.51615e-05 0)
(0.999313 -1.07e-05 0)
(0.999402 4.41867e-06 0)
(0.999284 -2.01381e-06 0)
(0.99935 1.08664e-05 0)
(0.999234 8.91364e-07 0)
(0.999289 1.40644e-05 0)
(0.999155 3.26571e-06 0)
(0.999194 1.89501e-05 0)
(0.999038 5.58138e-06 0)
(0.999058 2.74739e-05 0)
(0.998865 7.95514e-06 0)
(0.998855 4.43831e-05 0)
(0.99859 1.05756e-05 0)
(0.998521 8.47342e-05 0)
(0.998071 1.28235e-05 0)
(0.997823 0.000271641 0)
(0.996737 0.000171261 0)
(1.0002 -0.00133364 0)
(0.998945 -0.000133623 0)
(0.999441 2.36675e-05 0)
(0.99918 -8.06027e-06 0)
(0.999583 2.23087e-06 0)
(0.999148 -1.7572e-07 0)
(0.999535 1.0815e-05 0)
(0.999095 1.9135e-06 0)
(0.999477 1.59936e-05 0)
(0.999012 3.89443e-06 0)
(0.999386 2.28525e-05 0)
(0.998892 6.37583e-06 0)
(0.999254 3.30882e-05 0)
(0.998715 9.71138e-06 0)
(0.999055 5.20463e-05 0)
(0.998436 1.3901e-05 0)
(0.998725 9.82172e-05 0)
(0.997917 1.75265e-05 0)
(0.998034 0.000310706 0)
(0.996628 0.000199507 0)
(1.00018 -0.00126303 0)
(0.999005 -0.000149166 0)
(0.999456 2.73101e-05 0)
(0.999217 -9.84084e-06 0)
(0.999594 3.60469e-06 0)
(0.999188 -7.80376e-07 0)
(0.999543 1.2857e-05 0)
(0.999137 2.26e-06 0)
(0.999483 1.8452e-05 0)
(0.999057 4.71246e-06 0)
(0.99939 2.61944e-05 0)
(0.998939 7.28784e-06 0)
(0.999255 3.81171e-05 0)
(0.998765 1.06428e-05 0)
(0.999053 6.00551e-05 0)
(0.99849 1.54507e-05 0)
(0.998721 0.000112432 0)
(0.997977 2.18567e-05 0)
(0.99803 0.000348372 0)
(0.996742 0.000228312 0)
(1.00017 -0.00119576 0)
(0.99907 -0.000162226 0)
(0.999473 2.83055e-05 0)
(0.999258 -1.03409e-05 0)
(0.999608 4.00818e-06 0)
(0.99923 -9.39911e-07 0)
(0.999556 1.46816e-05 0)
(0.99918 2.42398e-06 0)
(0.999496 2.10249e-05 0)
(0.9991 5.23925e-06 0)
(0.999402 2.97167e-05 0)
(0.998983 8.3537e-06 0)
(0.999267 4.32092e-05 0)
(0.998809 1.23202e-05 0)
(0.999065 6.82598e-05 0)
(0.998535 1.78379e-05 0)
(0.998732 0.000127717 0)
(0.998026 2.71036e-05 0)
(0.998045 0.000386477 0)
(0.99684 0.000259311 0)
(1.00021 -0.00112728 0)
(0.999088 -0.000175027 0)
(0.999539 2.95887e-05 0)
(0.999251 -1.07559e-05 0)
(0.999671 4.69333e-06 0)
(0.999223 -9.33535e-07 0)
(0.999619 1.65621e-05 0)
(0.999172 2.83928e-06 0)
(0.99956 2.37407e-05 0)
(0.999092 5.96702e-06 0)
(0.999466 3.35893e-05 0)
(0.998974 9.49365e-06 0)
(0.999332 4.87537e-05 0)
(0.998801 1.40872e-05 0)
(0.99913 7.67759e-05 0)
(0.998527 2.05927e-05 0)
(0.998798 0.000143208 0)
(0.998021 3.32036e-05 0)
(0.998116 0.000424037 0)
(0.996884 0.000291697 0)
(1.00025 -0.00105784 0)
(0.999093 -0.000186558 0)
(0.999617 3.05743e-05 0)
(0.999231 -1.12259e-05 0)
(0.999746 5.52257e-06 0)
(0.999204 -1.17165e-06 0)
(0.999694 1.86257e-05 0)
(0.999153 3.09594e-06 0)
(0.999635 2.66407e-05 0)
(0.999072 6.5968e-06 0)
(0.999542 3.76718e-05 0)
(0.998954 1.05275e-05 0)
(0.999407 5.46673e-05 0)
(0.998781 1.56916e-05 0)
(0.999206 8.59397e-05 0)
(0.998508 2.32781e-05 0)
(0.998874 0.000159575 0)
(0.998006 3.9952e-05 0)
(0.998198 0.000461605 0)
(0.99692 0.000325071 0)
(1.00029 -0.000987382 0)
(0.999107 -0.000196647 0)
(0.999687 3.10129e-05 0)
(0.99922 -1.14325e-05 0)
(0.999812 6.28887e-06 0)
(0.999194 -1.23263e-06 0)
(0.99976 2.06793e-05 0)
(0.999142 3.56057e-06 0)
(0.999701 2.9573e-05 0)
(0.999062 7.47955e-06 0)
(0.999608 4.18014e-05 0)
(0.998944 1.19173e-05 0)
(0.999473 6.06494e-05 0)
(0.998771 1.77773e-05 0)
(0.999272 9.5261e-05 0)
(0.998499 2.66061e-05 0)
(0.99894 0.00017622 0)
(0.998003 4.80491e-05 0)
(0.998271 0.000498219 0)
(0.996966 0.000360174 0)
(1.00031 -0.000916508 0)
(0.99914 -0.00020558 0)
(0.999737 3.12403e-05 0)
(0.999229 -1.16932e-05 0)
(0.999858 7.35963e-06 0)
(0.999204 -1.46999e-06 0)
(0.999806 2.30396e-05 0)
(0.999152 3.85278e-06 0)
(0.999747 3.28662e-05 0)
(0.999072 8.17677e-06 0)
(0.999653 4.63882e-05 0)
(0.998955 1.31251e-05 0)
(0.999519 6.71954e-05 0)
(0.998782 1.97326e-05 0)
(0.999318 0.000105268 0)
(0.998511 2.9974e-05 0)
(0.998986 0.00019369 0)
(0.998021 5.68852e-05 0)
(0.998324 0.000534411 0)
(0.997035 0.000396264 0)
(1.00032 -0.000846526 0)
(0.999184 -0.000212949 0)
(0.999777 3.08155e-05 0)
(0.999249 -1.16607e-05 0)
(0.999893 8.30931e-06 0)
(0.999225 -1.50897e-06 0)
(0.999841 2.52724e-05 0)
(0.999174 4.40471e-06 0)
(0.999782 3.60663e-05 0)
(0.999093 9.18328e-06 0)
(0.999688 5.09222e-05 0)
(0.998977 1.46937e-05 0)
(0.999554 7.3761e-05 0)
(0.998805 2.21317e-05 0)
(0.999352 0.000115398 0)
(0.998535 3.40072e-05 0)
(0.999021 0.00021134 0)
(0.998052 6.71514e-05 0)
(0.998367 0.000569406 0)
(0.997115 0.000433836 0)
(1.00034 -0.000777208 0)
(0.999213 -0.000218956 0)
(0.999832 3.02207e-05 0)
(0.999255 -1.17239e-05 0)
(0.999943 9.63139e-06 0)
(0.999232 -1.7576e-06 0)
(0.999891 2.78854e-05 0)
(0.99918 4.78774e-06 0)
(0.999831 3.97082e-05 0)
(0.9991 1.00591e-05 0)
(0.999738 5.59687e-05 0)
(0.998983 1.61891e-05 0)
(0.999604 8.09235e-05 0)
(0.998812 2.45528e-05 0)
(0.999403 0.000126228 0)
(0.998543 3.83009e-05 0)
(0.999072 0.000229719 0)
(0.998067 7.84724e-05 0)
(0.998428 0.000603631 0)
(0.99718 0.000472327 0)
(1.00036 -0.000708755 0)
(0.999237 -0.000222993 0)
(0.999891 2.89704e-05 0)
(0.999256 -1.14593e-05 0)
(0.999996 1.08286e-05 0)
(0.999235 -1.78911e-06 0)
(0.999944 3.03258e-05 0)
(0.999183 5.39876e-06 0)
(0.999884 4.32064e-05 0)
(0.999103 1.11785e-05 0)
(0.999791 6.09233e-05 0)
(0.998987 1.79726e-05 0)
(0.999656 8.80765e-05 0)
(0.998816 2.73617e-05 0)
(0.999456 0.000137149 0)
(0.998549 4.32486e-05 0)
(0.999126 0.000248181 0)
(0.998081 9.12635e-05 0)
(0.998492 0.000636355 0)
(0.997241 0.00051196 0)
(1.00041 -0.00064019 0)
(0.999241 -0.000225395 0)
(0.999969 2.76146e-05 0)
(0.999239 -1.13272e-05 0)
(1.00007 1.25126e-05 0)
(0.999218 -1.96278e-06 0)
(1.00002 3.32846e-05 0)
(0.999166 5.9463e-06 0)
(0.999956 4.72795e-05 0)
(0.999086 1.22798e-05 0)
(0.999863 6.65029e-05 0)
(0.99897 1.98e-05 0)
(0.999729 9.5907e-05 0)
(0.998799 3.03334e-05 0)
(0.999528 0.000148794 0)
(0.998535 4.86643e-05 0)
(0.9992 0.000267271 0)
(0.998075 0.000105356 0)
(0.998577 0.000667999 0)
(0.997282 0.000552343 0)
(1.00045 -0.000571414 0)
(0.999241 -0.000225696 0)
(1.00005 2.55312e-05 0)
(0.999218 -1.10059e-05 0)
(1.00014 1.38305e-05 0)
(0.999198 -2.08854e-06 0)
(1.00009 3.58337e-05 0)
(0.999146 6.61194e-06 0)
(1.00003 5.10315e-05 0)
(0.999067 1.3581e-05 0)
(0.999936 7.18558e-05 0)
(0.998951 2.19276e-05 0)
(0.999802 0.000103616 0)
(0.998782 3.3758e-05 0)
(0.999601 0.000160414 0)
(0.998519 5.48727e-05 0)
(0.999274 0.000286249 0)
(0.998068 0.000121066 0)
(0.998664 0.00069782 0)
(0.997322 0.000593547 0)
(1.00057 -0.000499618 0)
(0.999171 -0.000224386 0)
(1.0002 2.38526e-05 0)
(0.999129 -1.03786e-05 0)
(1.00028 1.61006e-05 0)
(0.99911 -2.10486e-06 0)
(1.00023 3.91517e-05 0)
(0.999057 7.30463e-06 0)
(1.00017 5.55133e-05 0)
(0.998978 1.48765e-05 0)
(1.00008 7.79439e-05 0)
(0.998862 2.40773e-05 0)
(0.999943 0.000112091 0)
(0.998693 3.73239e-05 0)
(0.999743 0.000172815 0)
(0.998433 6.15753e-05 0)
(0.999418 0.000305796 0)
(0.997991 0.000138099 0)
(0.998823 0.000726358 0)
(0.997289 0.000635051 0)
(1.00069 -0.000421041 0)
(0.99909 -0.000222142 0)
(1.00035 2.04107e-05 0)
(0.999031 -1.00767e-05 0)
(1.00043 1.77827e-05 0)
(0.999014 -2.06317e-06 0)
(1.00038 4.20452e-05 0)
(0.998961 8.25272e-06 0)
(1.00032 5.96992e-05 0)
(0.998882 1.65585e-05 0)
(1.00022 8.3814e-05 0)
(0.998767 2.67541e-05 0)
(1.00009 0.000120407 0)
(0.9986 4.16313e-05 0)
(0.999888 0.000185066 0)
(0.998342 6.94585e-05 0)
(0.999564 0.000324945 0)
(0.997909 0.000157126 0)
(0.998984 0.000752708 0)
(0.99725 0.000677158 0)
(1.00105 -0.000325782 0)
(0.998769 -0.000215638 0)
(1.00074 1.7479e-05 0)
(0.998693 -9.98964e-06 0)
(1.00081 1.9919e-05 0)
(0.998675 -2.34291e-06 0)
(1.00076 4.53343e-05 0)
(0.998621 8.9207e-06 0)
(1.0007 6.43624e-05 0)
(0.99854 1.8015e-05 0)
(1.00061 9.02495e-05 0)
(0.998424 2.92913e-05 0)
(1.00048 0.000129378 0)
(0.998256 4.59607e-05 0)
(1.00028 0.000198025 0)
(0.997999 7.77375e-05 0)
(0.99996 0.000344598 0)
(0.997576 0.000177192 0)
(0.999398 0.000777877 0)
(0.99696 0.000718567 0)
(1.00097 -0.000221607 0)
(0.998872 -0.000203388 0)
(1.00069 1.59948e-05 0)
(0.998786 -8.78661e-06 0)
(1.00076 2.27045e-05 0)
(0.998769 -1.95059e-06 0)
(1.00071 4.89005e-05 0)
(0.998715 1.01415e-05 0)
(1.00065 6.92129e-05 0)
(0.998636 2.00227e-05 0)
(1.00055 9.68274e-05 0)
(0.998522 3.24654e-05 0)
(1.00042 0.000138454 0)
(0.998357 5.11392e-05 0)
(1.00022 0.000210979 0)
(0.998106 8.73498e-05 0)
(0.999906 0.000363776 0)
(0.997699 0.000199365 0)
(0.999359 0.000800496 0)
(0.997133 0.000760526 0)
(1.00052 -0.000137416 0)
(0.999347 -0.000193135 0)
(1.00027 1.3247e-05 0)
(0.999255 -8.62623e-06 0)
(1.00032 2.51596e-05 0)
(0.99924 -2.07762e-06 0)
(1.00027 5.23123e-05 0)
(0.999188 1.10599e-05 0)
(1.00021 7.40681e-05 0)
(0.99911 2.18971e-05 0)
(1.00012 0.000103506 0)
(0.998998 3.56957e-05 0)
(0.999982 0.000147674 0)
(0.998836 5.66633e-05 0)
(0.999783 0.000224003 0)
(0.998591 9.78502e-05 0)
(0.999467 0.000382548 0)
(0.998198 0.000223146 0)
(0.998937 0.000820709 0)
(0.997677 0.000802286 0)
(1.00018 -8.69015e-05 0)
(0.999709 -0.000185497 0)
(0.999944 9.82012e-06 0)
(0.999612 -8.39464e-06 0)
(0.999991 2.77346e-05 0)
(0.999599 -1.72234e-06 0)
(0.999939 5.58537e-05 0)
(0.999546 1.2517e-05 0)
(0.999879 7.90877e-05 0)
(0.999469 2.43696e-05 0)
(0.999785 0.000110362 0)
(0.999357 3.96318e-05 0)
(0.999652 0.00015707 0)
(0.999196 6.31105e-05 0)
(0.999454 0.000237122 0)
(0.998954 0.000109712 0)
(0.999142 0.000401007 0)
(0.998572 0.000248684 0)
(0.998633 0.00083903 0)
(0.998086 0.000843256 0)
(1.00004 -5.94758e-05 0)
(0.999863 -0.000177132 0)
(0.999825 7.64382e-06 0)
(0.999763 -8.00876e-06 0)
(0.999864 3.08681e-05 0)
(0.99975 -1.34164e-06 0)
(0.999813 5.96987e-05 0)
(0.999696 1.39335e-05 0)
(0.999753 8.43841e-05 0)
(0.999619 2.68611e-05 0)
(0.99966 0.000117494 0)
(0.999508 4.37381e-05 0)
(0.999527 0.000166729 0)
(0.999347 7.00121e-05 0)
(0.999331 0.000250393 0)
(0.999108 0.00012253 0)
(0.999024 0.000419168 0)
(0.998738 0.000275503 0)
(0.998537 0.000855605 0)
(0.998286 0.000882685 0)
(1.00001 -4.22294e-05 0)
(0.999914 -0.000166886 0)
(0.999807 5.99168e-06 0)
(0.999812 -7.66935e-06 0)
(0.999839 3.38967e-05 0)
(0.999799 -7.94014e-07 0)
(0.999788 6.34458e-05 0)
(0.999745 1.56308e-05 0)
(0.999728 8.96833e-05 0)
(0.999668 2.97839e-05 0)
(0.999635 0.000124685 0)
(0.999557 4.84704e-05 0)
(0.999503 0.000176449 0)
(0.999398 7.78469e-05 0)
(0.999309 0.000263601 0)
(0.999162 0.000136779 0)
(0.999008 0.000436768 0)
(0.998805 0.000303952 0)
(0.998543 0.000870195 0)
(0.998387 0.000920847 0)
(0.999998 -2.85631e-05 0)
(0.999933 -0.000155986 0)
(0.999818 4.82323e-06 0)
(0.999831 -7.65103e-06 0)
(0.999842 3.72152e-05 0)
(0.999817 -1.88755e-07 0)
(0.999792 6.74852e-05 0)
(0.999763 1.74458e-05 0)
(0.999732 9.5298e-05 0)
(0.999687 3.29236e-05 0)
(0.99964 0.000132178 0)
(0.999577 5.35844e-05 0)
(0.999508 0.00018642 0)
(0.99942 8.63519e-05 0)
(0.999316 0.000276894 0)
(0.999188 0.000152143 0)
(0.99902 0.000453943 0)
(0.998844 0.000333501 0)
(0.998579 0.000883089 0)
(0.99846 0.00095703 0)
(0.999997 -1.70731e-05 0)
(0.999946 -0.000144723 0)
(0.999835 3.99943e-06 0)
(0.999844 -7.52994e-06 0)
(0.999851 4.05761e-05 0)
(0.99983 7.66229e-07 0)
(0.999802 7.14845e-05 0)
(0.999776 1.96327e-05 0)
(0.999741 0.000100877 0)
(0.999699 3.656e-05 0)
(0.999649 0.000139628 0)
(0.99959 5.94026e-05 0)
(0.999519 0.000196295 0)
(0.999435 9.58929e-05 0)
(0.999328 0.000289912 0)
(0.999209 0.000168986 0)
(0.999039 0.000470333 0)
(0.998878 0.000364341 0)
(0.998622 0.000894097 0)
(0.998526 0.000991291 0)
(0.999997 -7.16867e-06 0)
(0.999955 -0.000133529 0)
(0.999851 3.87377e-06 0)
(0.999855 -7.55113e-06 0)
(0.99986 4.41751e-05 0)
(0.99984 1.80853e-06 0)
(0.999812 7.56828e-05 0)
(0.999786 2.19624e-05 0)
(0.999751 0.000106686 0)
(0.999711 4.04867e-05 0)
(0.999659 0.000147301 0)
(0.999603 6.57242e-05 0)
(0.99953 0.000206329 0)
(0.99945 0.000106255 0)
(0.999341 0.000302896 0)
(0.999228 0.000187024 0)
(0.99906 0.000486183 0)
(0.998911 0.000395964 0)
(0.998668 0.000903638 0)
(0.99859 0.00102302 0)
(0.999997 1.05316e-06 0)
(0.999964 -0.000122278 0)
(0.999866 4.21166e-06 0)
(0.999866 -7.45152e-06 0)
(0.999869 4.77413e-05 0)
(0.999851 3.23024e-06 0)
(0.999821 7.98327e-05 0)
(0.999796 2.47326e-05 0)
(0.99976 0.000112452 0)
(0.999721 4.50034e-05 0)
(0.999669 0.0001549 0)
(0.999614 7.28538e-05 0)
(0.99954 0.000216206 0)
(0.999464 0.000117742 0)
(0.999354 0.000315521 0)
(0.999248 0.000206491 0)
(0.999081 0.000501204 0)
(0.998945 0.000428386 0)
(0.998714 0.000911609 0)
(0.998653 0.00105222 0)
(0.999997 7.95113e-06 0)
(0.999971 -0.000111312 0)
(0.999881 5.23577e-06 0)
(0.999876 -7.40712e-06 0)
(0.999877 5.14793e-05 0)
(0.99986 4.84005e-06 0)
(0.99983 8.41432e-05 0)
(0.999806 2.77435e-05 0)
(0.999769 0.000118376 0)
(0.999732 4.99191e-05 0)
(0.999678 0.000162623 0)
(0.999626 8.06098e-05 0)
(0.99955 0.00022612 0)
(0.999478 0.000130159 0)
(0.999368 0.000327987 0)
(0.999267 0.000227107 0)
(0.999103 0.000515637 0)
(0.998979 0.000461099 0)
(0.998762 0.000918436 0)
(0.998715 0.0010784 0)
(0.999997 1.34648e-05 0)
(0.999977 -0.000100541 0)
(0.999894 6.73529e-06 0)
(0.999886 -7.16097e-06 0)
(0.999884 5.51551e-05 0)
(0.999869 6.87259e-06 0)
(0.999838 8.83921e-05 0)
(0.999815 3.12391e-05 0)
(0.999777 0.000124226 0)
(0.999741 5.54889e-05 0)
(0.999687 0.000170233 0)
(0.999637 8.92464e-05 0)
(0.999561 0.000235829 0)
(0.999491 0.000143733 0)
(0.999381 0.000340059 0)
(0.999287 0.000248991 0)
(0.999126 0.0005293 0)
(0.999013 0.000494001 0)
(0.998811 0.000924105 0)
(0.998775 0.00110157 0)
(0.999997 1.7918e-05 0)
(0.999982 -9.02379e-05 0)
(0.999906 8.86091e-06 0)
(0.999895 -6.83469e-06 0)
(0.999891 5.89119e-05 0)
(0.999877 9.18435e-06 0)
(0.999845 9.2738e-05 0)
(0.999823 3.508e-05 0)
(0.999784 0.000130156 0)
(0.99975 6.15782e-05 0)
(0.999695 0.000177874 0)
(0.999647 9.86259e-05 0)
(0.99957 0.000245477 0)
(0.999505 0.000158292 0)
(0.999395 0.000351901 0)
(0.999307 0.000271853 0)
(0.99915 0.000542411 0)
(0.999047 0.000526595 0)
(0.99886 0.000928984 0)
(0.998834 0.0011214 0)
(0.999997 2.131e-05 0)
(0.999987 -8.03294e-05 0)
(0.999917 1.14166e-05 0)
(0.999904 -6.21453e-06 0)
(0.999897 6.25673e-05 0)
(0.999885 1.19605e-05 0)
(0.999852 9.70131e-05 0)
(0.999831 3.94577e-05 0)
(0.999791 0.000135986 0)
(0.999759 6.83776e-05 0)
(0.999703 0.000185367 0)
(0.999658 0.000108924 0)
(0.99958 0.000254893 0)
(0.999518 0.000173961 0)
(0.999409 0.000363368 0)
(0.999326 0.000295682 0)
(0.999175 0.000554897 0)
(0.999081 0.000558689 0)
(0.99891 0.000933121 0)
(0.998893 0.00113795 0)
(0.999997 2.39192e-05 0)
(0.99999 -7.10063e-05 0)
(0.999927 1.44711e-05 0)
(0.999912 -5.36385e-06 0)
(0.999903 6.62163e-05 0)
(0.999892 1.51076e-05 0)
(0.999859 0.000101322 0)
(0.999839 4.42851e-05 0)
(0.999798 0.000141812 0)
(0.999767 7.5797e-05 0)
(0.999711 0.00019281 0)
(0.999668 0.000120035 0)
(0.99959 0.000264184 0)
(0.999531 0.000190574 0)
(0.999423 0.000374601 0)
(0.999346 0.000320173 0)
(0.999201 0.000566956 0)
(0.999116 0.00058983 0)
(0.998961 0.000936798 0)
(0.99895 0.00115108 0)
(0.999997 2.57796e-05 0)
(0.999993 -6.22038e-05 0)
(0.999936 1.78457e-05 0)
(0.99992 -4.1157e-06 0)
(0.999908 6.97262e-05 0)
(0.999898 1.87554e-05 0)
(0.999865 0.000105546 0)
(0.999846 4.9697e-05 0)
(0.999804 0.000147511 0)
(0.999775 8.39628e-05 0)
(0.999718 0.000200089 0)
(0.999677 0.000132053 0)
(0.9996 0.000273258 0)
(0.999544 0.000208151 0)
(0.999438 0.000385546 0)
(0.999366 0.000345202 0)
(0.999228 0.000578591 0)
(0.999151 0.000619783 0)
(0.999012 0.000940071 0)
(0.999007 0.0011609 0)
(0.999997 2.71055e-05 0)
(0.999995 -5.40257e-05 0)
(0.999943 2.15391e-05 0)
(0.999928 -2.49352e-06 0)
(0.999913 7.3153e-05 0)
(0.999904 2.28465e-05 0)
(0.999871 0.000109746 0)
(0.999852 5.56417e-05 0)
(0.99981 0.000153148 0)
(0.999783 9.28117e-05 0)
(0.999726 0.000207273 0)
(0.999687 0.000144881 0)
(0.99961 0.000282205 0)
(0.999557 0.000226516 0)
(0.999454 0.000396331 0)
(0.999386 0.000370456 0)
(0.999256 0.000589965 0)
(0.999186 0.000648173 0)
(0.999063 0.000943114 0)
(0.999062 0.00116746 0)
(0.999997 2.79422e-05 0)
(0.999997 -4.64014e-05 0)
(0.99995 2.53913e-05 0)
(0.999935 -3.78871e-07 0)
(0.999918 7.64119e-05 0)
(0.99991 2.7462e-05 0)
(0.999876 0.000113849 0)
(0.999859 6.22011e-05 0)
(0.999816 0.00015865 0)
(0.99979 0.000102403 0)
(0.999733 0.000214311 0)
(0.999696 0.00015853 0)
(0.99962 0.000291002 0)
(0.99957 0.00024559 0)
(0.99947 0.000406969 0)
(0.999407 0.000395725 0)
(0.999284 0.000601121 0)
(0.999222 0.000674783 0)
(0.999114 0.000945944 0)
(0.999117 0.00117096 0)
(0.999997 2.84366e-05 0)
(0.999998 -3.93572e-05 0)
(0.999956 2.93549e-05 0)
(0.999941 2.22277e-06 0)
(0.999922 7.95373e-05 0)
(0.999915 3.25647e-05 0)
(0.999881 0.000117892 0)
(0.999865 6.93392e-05 0)
(0.999822 0.000164062 0)
(0.999798 0.000112675 0)
(0.99974 0.000221262 0)
(0.999706 0.000172888 0)
(0.99963 0.000299735 0)
(0.999584 0.000265172 0)
(0.999487 0.000417576 0)
(0.999428 0.000420702 0)
(0.999314 0.000612171 0)
(0.999258 0.00069935 0)
(0.999164 0.00094862 0)
(0.999171 0.00117158 0)
(0.999997 2.86238e-05 0)
(0.999999 -3.28119e-05 0)
(0.999961 3.32942e-05 0)
(0.999948 5.37961e-06 0)
(0.999927 8.24867e-05 0)
(0.99992 3.81921e-05 0)
(0.999886 0.000121841 0)
(0.99987 7.7087e-05 0)
(0.999827 0.00016936 0)
(0.999805 0.000123623 0)
(0.999748 0.000228128 0)
(0.999715 0.000187893 0)
(0.999641 0.000308437 0)
(0.999597 0.000285108 0)
(0.999505 0.000428201 0)
(0.99945 0.000445146 0)
(0.999345 0.000623145 0)
(0.999294 0.000721728 0)
(0.999214 0.000951094 0)
(0.999224 0.0011696 0)
(0.999997 2.85878e-05 0)
(1 -2.67358e-05 0)
(0.999965 3.71455e-05 0)
(0.999953 9.08039e-06 0)
(0.99993 8.5288e-05 0)
(0.999925 4.43087e-05 0)
(0.99989 0.000125721 0)
(0.999876 8.54025e-05 0)
(0.999833 0.000174592 0)
(0.999811 0.00013517 0)
(0.999755 0.000234976 0)
(0.999724 0.000203407 0)
(0.999653 0.000317196 0)
(0.999611 0.000305178 0)
(0.999523 0.000438936 0)
(0.999472 0.000468783 0)
(0.999376 0.000634081 0)
(0.999331 0.000741784 0)
(0.999263 0.000953322 0)
(0.999276 0.00116529 0)
(0.999997 2.83474e-05 0)
(1 -2.10434e-05 0)
(0.999969 4.08085e-05 0)
(0.999958 1.33426e-05 0)
(0.999934 8.79356e-05 0)
(0.999929 5.09126e-05 0)
(0.999895 0.000129533 0)
(0.999881 9.42678e-05 0)
(0.999838 0.000179772 0)
(0.999818 0.000147253 0)
(0.999763 0.000241848 0)
(0.999734 0.000219306 0)
(0.999664 0.00032607 0)
(0.999625 0.000325187 0)
(0.999542 0.000449821 0)
(0.999495 0.000491393 0)
(0.999408 0.00064496 0)
(0.999368 0.000759478 0)
(0.999312 0.000955194 0)
(0.999328 0.00115895 0)
(0.999997 2.794e-05 0)
(1 -1.56778e-05 0)
(0.999972 4.42322e-05 0)
(0.999963 1.81316e-05 0)
(0.999938 9.04628e-05 0)
(0.999933 5.79561e-05 0)
(0.999899 0.00013331 0)
(0.999887 0.000103618 0)
(0.999844 0.000184963 0)
(0.999825 0.000159766 0)
(0.999771 0.000248818 0)
(0.999743 0.000235428 0)
(0.999677 0.000335136 0)
(0.99964 0.000344918 0)
(0.999562 0.0004609 0)
(0.999518 0.000512769 0)
(0.99944 0.000655734 0)
(0.999405 0.000774802 0)
(0.99936 0.000956595 0)
(0.999378 0.00115089 0)
(0.999996 2.73738e-05 0)
(1 -1.05639e-05 0)
(0.999974 4.73628e-05 0)
(0.999967 2.34162e-05 0)
(0.999941 9.28947e-05 0)
(0.999937 6.54017e-05 0)
(0.999903 0.000137081 0)
(0.999892 0.000113392 0)
(0.99985 0.000190206 0)
(0.999831 0.000172599 0)
(0.999779 0.000255945 0)
(0.999753 0.000251613 0)
(0.99969 0.000344444 0)
(0.999655 0.000364174 0)
(0.999582 0.000472167 0)
(0.999542 0.000532756 0)
(0.999472 0.000666318 0)
(0.999443 0.00078782 0)
(0.999406 0.000957387 0)
(0.999427 0.00114139 0)
(0.999996 2.66636e-05 0)
(1 -5.64776e-06 0)
(0.999976 5.01841e-05 0)
(0.999971 2.91303e-05 0)
(0.999944 9.52753e-05 0)
(0.999941 7.31815e-05 0)
(0.999907 0.00014089 0)
(0.999896 0.000123498 0)
(0.999855 0.000195572 0)
(0.999838 0.000185624 0)
(0.999788 0.000263297 0)
(0.999763 0.000267694 0)
(0.999703 0.000354038 0)
(0.99967 0.000382771 0)
(0.999603 0.000483596 0)
(0.999567 0.000551235 0)
(0.999505 0.000676587 0)
(0.99948 0.000798623 0)
(0.999452 0.000957435 0)
(0.999476 0.0011307 0)
(0.999996 2.58201e-05 0)
(1 -8.8227e-07 0)
(0.999978 5.26933e-05 0)
(0.999974 3.52013e-05 0)
(0.999948 9.76504e-05 0)
(0.999944 8.12272e-05 0)
(0.999911 0.000144784 0)
(0.999901 0.000133838 0)
(0.999861 0.000201115 0)
(0.999845 0.000198706 0)
(0.999797 0.000270924 0)
(0.999773 0.000283509 0)
(0.999717 0.000363925 0)
(0.999686 0.000400552 0)
(0.999625 0.000495113 0)
(0.999592 0.000568135 0)
(0.999538 0.000686401 0)
(0.999518 0.000807342 0)
(0.999496 0.000956614 0)
(0.999522 0.00111905 0)
(0.999996 2.48583e-05 0)
(1 3.76099e-06 0)
(0.999979 5.49161e-05 0)
(0.999977 4.15352e-05 0)
(0.999951 0.000100072 0)
(0.999947 8.94514e-05 0)
(0.999916 0.000148815 0)
(0.999906 0.000144301 0)
(0.999867 0.000206898 0)
(0.999852 0.000211711 0)
(0.999806 0.000278862 0)
(0.999784 0.000298909 0)
(0.999731 0.000374086 0)
(0.999703 0.00041739 0)
(0.999647 0.000506615 0)
(0.999618 0.000583424 0)
(0.99957 0.000695595 0)
(0.999555 0.000814119 0)
(0.999539 0.000954821 0)
(0.999568 0.00110662 0)
(0.999996 2.38042e-05 0)
(1 8.2912e-06 0)
(0.999981 5.6894e-05 0)
(0.999979 4.80334e-05 0)
(0.999954 0.000102592 0)
(0.999951 9.77656e-05 0)
(0.99992 0.000153033 0)
(0.999911 0.000154773 0)
(0.999874 0.000212959 0)
(0.999859 0.000224507 0)
(0.999815 0.000287118 0)
(0.999794 0.000313765 0)
(0.999746 0.000384464 0)
(0.99972 0.00043319 0)
(0.999669 0.000517963 0)
(0.999644 0.000597105 0)
(0.999603 0.000704009 0)
(0.999593 0.000819103 0)
(0.999581 0.000951981 0)
(0.999611 0.00109355 0)
(0.999996 2.26861e-05 0)
(1 1.27029e-05 0)
(0.999982 5.86848e-05 0)
(0.999982 5.45888e-05 0)
(0.999956 0.000105258 0)
(0.999954 0.000106073 0)
(0.999924 0.000157478 0)
(0.999916 0.000165143 0)
(0.99988 0.000219328 0)
(0.999866 0.00023698 0)
(0.999825 0.000295676 0)
(0.999806 0.00032797 0)
(0.999761 0.000394972 0)
(0.999737 0.000447888 0)
(0.999692 0.000529002 0)
(0.99967 0.000609206 0)
(0.999635 0.000711485 0)
(0.999629 0.000822434 0)
(0.999622 0.000948049 0)
(0.999654 0.00107994 0)
(0.999996 2.15481e-05 0)
(1 1.69715e-05 0)
(0.999983 6.03541e-05 0)
(0.999983 6.10981e-05 0)
(0.999959 0.000108112 0)
(0.999957 0.000114283 0)
(0.999928 0.000162179 0)
(0.99992 0.000175304 0)
(0.999887 0.000226003 0)
(0.999874 0.000249026 0)
(0.999835 0.00030448 0)
(0.999818 0.000341441 0)
(0.999776 0.000405487 0)
(0.999755 0.000461445 0)
(0.999715 0.000539558 0)
(0.999697 0.000619767 0)
(0.999667 0.00071789 0)
(0.999665 0.00082424 0)
(0.999661 0.000943013 0)
(0.999694 0.00106587 0)
(0.999996 2.04306e-05 0)
(1 2.10668e-05 0)
(0.999984 6.19687e-05 0)
(0.999985 6.7463e-05 0)
(0.999962 0.000111179 0)
(0.99996 0.000122307 0)
(0.999932 0.000167145 0)
(0.999925 0.000185164 0)
(0.999893 0.000232961 0)
(0.999882 0.000260565 0)
(0.999846 0.000313452 0)
(0.99983 0.000354117 0)
(0.999791 0.000415868 0)
(0.999774 0.000473844 0)
(0.999737 0.000549462 0)
(0.999724 0.000628839 0)
(0.999698 0.00072311 0)
(0.9997 0.000824631 0)
(0.999699 0.000936886 0)
(0.999733 0.00105138 0)
(0.999996 1.93851e-05 0)
(1 2.4948e-05 0)
(0.999984 6.35895e-05 0)
(0.999986 7.3599e-05 0)
(0.999964 0.000114473 0)
(0.999963 0.000130068 0)
(0.999936 0.000172366 0)
(0.99993 0.000194647 0)
(0.9999 0.000240144 0)
(0.99989 0.000271532 0)
(0.999856 0.000322479 0)
(0.999842 0.000365957 0)
(0.999807 0.000425954 0)
(0.999792 0.000485077 0)
(0.99976 0.000558552 0)
(0.99975 0.000636468 0)
(0.999729 0.000727068 0)
(0.999735 0.000823694 0)
(0.999736 0.000929704 0)
(0.99977 0.00103649 0)
(0.999996 1.84498e-05 0)
(1 2.85809e-05 0)
(0.999985 6.52651e-05 0)
(0.999988 7.94361e-05 0)
(0.999967 0.000117983 0)
(0.999965 0.000137505 0)
(0.999941 0.000177802 0)
(0.999935 0.000203692 0)
(0.999907 0.000247471 0)
(0.999898 0.000281884 0)
(0.999867 0.000331432 0)
(0.999855 0.000376933 0)
(0.999823 0.000435584 0)
(0.999811 0.000495145 0)
(0.999783 0.000566683 0)
(0.999777 0.000642694 0)
(0.999759 0.000729712 0)
(0.999768 0.000821501 0)
(0.999771 0.000921517 0)
(0.999806 0.00102122 0)
(0.999996 1.76645e-05 0)
(1 3.19318e-05 0)
(0.999986 6.70264e-05 0)
(0.999989 8.49242e-05 0)
(0.999969 0.000121681 0)
(0.999968 0.000144567 0)
(0.999945 0.000183393 0)
(0.99994 0.000212254 0)
(0.999914 0.000254837 0)
(0.999906 0.000291585 0)
(0.999878 0.000340165 0)
(0.999868 0.000387022 0)
(0.999839 0.000444598 0)
(0.99983 0.000504044 0)
(0.999805 0.000573738 0)
(0.999803 0.000647547 0)
(0.999788 0.000731022 0)
(0.9998 0.000818109 0)
(0.999804 0.000912382 0)
(0.99984 0.00100559 0)
(0.999996 1.70474e-05 0)
(1 3.49828e-05 0)
(0.999987 6.88843e-05 0)
(0.99999 9.00309e-05 0)
(0.999971 0.000125518 0)
(0.999971 0.000151222 0)
(0.999949 0.000189059 0)
(0.999946 0.000220302 0)
(0.999921 0.000262121 0)
(0.999915 0.000300608 0)
(0.999888 0.000348533 0)
(0.999881 0.000396202 0)
(0.999855 0.000452852 0)
(0.999849 0.000511766 0)
(0.999827 0.000579622 0)
(0.999828 0.000651051 0)
(0.999816 0.000731 0)
(0.999831 0.000813567 0)
(0.999836 0.000902356 0)
(0.999872 0.000989585 0)
(0.999996 1.66116e-05 0)
(1 3.77231e-05 0)
(0.999987 7.0829e-05 0)
(0.999991 9.47412e-05 0)
(0.999973 0.000129431 0)
(0.999974 0.000157444 0)
(0.999953 0.000194701 0)
(0.999951 0.00022781 0)
(0.999928 0.000269195 0)
(0.999923 0.000308927 0)
(0.999899 0.000356393 0)
(0.999894 0.000404448 0)
(0.999871 0.00046022 0)
(0.999868 0.0005183 0)
(0.999849 0.000584272 0)
(0.999853 0.000653223 0)
(0.999843 0.000729664 0)
(0.99986 0.000807917 0)
(0.999866 0.000891497 0)
(0.999902 0.000973228 0)
(0.999996 1.63467e-05 0)
(1 4.01591e-05 0)
(0.999988 7.28327e-05 0)
(0.999992 9.90526e-05 0)
(0.999976 0.00013334 0)
(0.999977 0.000163218 0)
(0.999957 0.000200215 0)
(0.999956 0.000234756 0)
(0.999935 0.000275929 0)
(0.999932 0.000316512 0)
(0.99991 0.000363613 0)
(0.999907 0.000411727 0)
(0.999886 0.000466598 0)
(0.999886 0.000523626 0)
(0.99987 0.000587643 0)
(0.999876 0.000654078 0)
(0.999869 0.000727048 0)
(0.999888 0.0008012 0)