/*--------------------------------*- C++ -*----------------------------------*\
| =========                 |                                                 |
| \\      /  F ield         | OpenFOAM: The Open Source CFD Toolbox           |
|  \\    /   O peration     | Version:  v1912                                 |
|   \\  /    A nd           | Website:  www.openfoam.com                      |
|    \\/     M anipulation  |                                                 |
\*---------------------------------------------------------------------------*/
FoamFile
{
    version     2.0;
    format      ascii;
    class       volScalarField;
    location    "160";
    object      epsilon;
}
// * * * * * * * * * * * * * * * * * * * * * * * * * * * * * * * * * * * * * //

dimensions      [0 2 -3 0 0 0 0];


internalField   nonuniform List<scalar> 
12441
(
0.0102961
0.00908384
0.0083261
0.00770176
0.00718241
0.00674732
0.00638083
0.00606969
0.00580332
0.00557486
0.00537772
0.00520814
0.00504857
0.00492254
0.00479748
0.00469552
0.00472809
0.0184404
0.252404
2.92301
20.9745
39.25
0.0101184
0.0089185
0.0081825
0.00757554
0.00707006
0.00664627
0.00628923
0.005986
0.00572617
0.00550342
0.00531125
0.00514623
0.00498983
0.00486737
0.00474564
0.0046482
0.0047043
0.018194
0.237992
2.91621
21.267
40.2318
0.00989636
0.00871579
0.00799882
0.0074077
0.0069156
0.00650315
0.00615576
0.00586088
0.00560844
0.00539223
0.00520598
0.00504648
0.00489467
0.00477816
0.00466082
0.00456865
0.00460021
0.0165714
0.202669
2.88832
21.6491
41.3784
0.00967277
0.00851215
0.00781342
0.00723741
0.00675793
0.00635618
0.0060179
0.0057309
0.00548536
0.00527533
0.00509464
0.00494018
0.00479439
0.00468153
0.00457055
0.00448343
0.00448552
0.0146025
0.16748
2.86873
22.1182
42.5504
0.00942858
0.00828766
0.00760761
0.00704719
0.00658094
0.00619048
0.00586185
0.00558328
0.00534525
0.00514198
0.00496748
0.00481882
0.00467788
0.00457168
0.0044655
0.00438553
0.00434758
0.0128324
0.149906
2.87797
22.6332
43.6698
0.00922258
0.00809801
0.00743317
0.00688537
0.00642962
0.00604808
0.00572704
0.005455
0.00522265
0.00502441
0.00485442
0.00470977
0.00457426
0.00447064
0.00437068
0.00429437
0.00427369
0.0131356
0.170229
2.98347
23.2524
44.7472
0.00900196
0.00789454
0.00724611
0.006712
0.00626788
0.00589626
0.00558368
0.00531901
0.00509323
0.00490087
0.00473622
0.00459653
0.0044648
0.00436783
0.00427054
0.00420156
0.00603167
0.0223846
0.274406
3.27365
24.0678
45.7945
0.00882347
0.00772984
0.00709425
0.00657075
0.00613541
0.00577118
0.00546487
0.00520554
0.00498433
0.00479596
0.00463481
0.00449819
0.00437133
0.00427559
0.00419054
0.00517761
0.0348403
0.079835
0.580731
3.87659
25.1906
46.8732
0.00862938
0.00755078
0.00692966
0.00641823
0.00599317
0.0056377
0.00533885
0.00508602
0.00487057
0.00468733
0.00453082
0.00439842
0.0042747
0.00414479
0.00540519
0.0274415
0.182569
0.307227
1.25197
4.92829
26.7372
48.0153
0.00847465
0.00740781
0.0067977
0.00629535
0.00587774
0.00552852
0.00523496
0.0049866
0.00477495
0.00459498
0.00444132
0.00431161
0.00419195
0.00427718
0.0256905
0.15681
0.570158
0.843824
2.333
6.4841
28.7919
49.2846
0.00830526
0.00725151
0.00665408
0.00616232
0.00575373
0.00541221
0.00512518
0.00488249
0.00467588
0.00450036
0.00435068
0.00422546
0.00407535
0.00960526
0.120147
0.480954
1.20104
1.68102
3.65578
8.46115
31.3805
50.6975
0.0081702
0.00712672
0.00653888
0.00605499
0.00565283
0.00531668
0.00503418
0.00479531
0.00459191
0.00441915
0.00427185
0.00415008
0.00415686
0.0502809
0.358435
0.969204
1.9001
2.61047
4.97298
10.6754
34.4597
52.295
0.00802112
0.00698922
0.00641268
0.00593823
0.00554412
0.00521482
0.00493812
0.00470428
0.00450533
0.00433646
0.00419262
0.00403627
0.00843759
0.180331
0.715638
1.47758
2.50636
3.43041
6.13239
12.9347
37.9377
54.0597
0.00790018
0.00687748
0.00630953
0.00584213
0.00545376
0.00512925
0.00485662
0.00462621
0.00443014
0.00426377
0.00412208
0.00388167
0.0384336
0.400813
1.07925
1.9012
2.97057
4.07123
7.09823
15.0991
41.697
56.0037
0.00776885
0.00675629
0.00619833
0.00573925
0.005358
0.00503954
0.004772
0.00454598
0.0043538
0.00419079
0.00405207
0.00427472
0.123273
0.650178
1.38662
2.22675
3.31341
4.55258
7.89355
17.0933
45.6221
58.0812
0.00765972
0.00665551
0.0061053
0.00565258
0.0052765
0.00496236
0.00469849
0.00447558
0.00428603
0.00412531
0.00398859
0.00964817
0.258444
0.87691
1.62813
2.47341
3.5683
4.91679
8.55578
18.889
49.6107
60.2902
0.00754386
0.00654862
0.00600729
0.00556196
0.00519219
0.00488338
0.00462397
0.00440488
0.00421867
0.00406081
0.00392705
0.0340245
0.411969
1.06547
1.81631
2.66294
3.76248
5.20066
9.11871
20.486
53.584
62.571
0.00744227
0.00645491
0.0059209
0.00548158
0.00511672
0.00481204
0.00455618
0.00434011
0.00415649
0.00400091
0.00387183
0.0900028
0.556882
1.21828
1.9653
2.81207
3.91502
5.43048
9.60821
21.8974
57.4848
64.9213
0.00733973
0.0063602
0.00583399
0.00540115
0.00504181
0.00474177
0.00448977
0.00427698
0.00409621
0.00394306
0.00380886
0.16977
0.682602
1.3432
2.08612
2.9326
4.03883
5.62391
10.0427
23.1412
61.2795
67.2818
0.00724503
0.00627292
0.00575357
0.00532641
0.0049717
0.0046756
0.00442698
0.00421711
0.00403886
0.00388795
0.00429578
0.256736
0.788824
1.4475
2.18665
3.03272
4.14267
5.79252
10.4346
24.2355
64.9514
69.6617
0.00715489
0.0061896
0.00567712
0.00525559
0.00490568
0.00461354
0.00436818
0.00416104
0.00398513
0.00383624
0.0102137
0.340386
0.879116
1.53673
2.27241
3.11814
4.2326
5.94369
10.7922
25.1977
68.5021
72.0102
0.00706403
0.00610604
0.00560029
0.00518437
0.00483908
0.00455092
0.00430902
0.00410488
0.00393159
0.00378554
0.0305084
0.416571
0.957397
1.61484
2.34738
3.19297
4.31286
6.0818
11.1204
26.0434
71.9459
74.3523
0.00698483
0.00603263
0.00553277
0.00512165
0.00478041
0.00449557
0.00425635
0.00405443
0.00388303
0.00374068
0.0676754
0.48496
1.02683
1.68468
2.41447
3.26019
4.38642
6.20917
11.4224
26.7864
75.3119
76.6493
0.00689825
0.00595308
0.00545971
0.00505405
0.00471735
0.00443642
0.00420064
0.00400172
0.00383298
0.003701
0.114383
0.546537
1.08979
1.74838
2.47586
3.322
4.45521
6.32685
11.6998
27.439
78.6394
78.9445
0.00683008
0.00588979
0.00540142
0.00499975
0.00466635
0.00438805
0.00415433
0.00395706
0.00378969
0.00368304
0.162964
0.602706
1.14799
1.80753
2.53319
3.37999
4.52035
6.43529
11.9537
28.0123
81.981
81.212
0.00674429
0.00581125
0.00532957
0.00493359
0.00460499
0.00433089
0.00410087
0.00390686
0.00374239
0.00364545
0.209811
0.654826
1.20269
1.86337
2.58771
3.43527
4.58233
6.53475
12.1849
28.5158
85.3971
83.5114
0.00668525
0.00575613
0.00527854
0.00488575
0.00455975
0.00428765
0.00405915
0.00386633
0.00370285
0.00385797
0.254259
0.704033
1.25483
1.91686
2.64032
3.48854
4.64128
6.6255
12.3941
28.958
88.9581
85.8273
0.00660143
0.00567953
0.00520861
0.00482155
0.00450042
0.00423263
0.00400793
0.00381847
0.00365808
0.00593513
0.296825
0.751221
1.30517
1.96875
2.69166
3.54022
4.69717
6.70792
12.5819
29.3455
92.7366
88.2307
0.00655186
0.00563302
0.00516534
0.00478067
0.0044614
0.00419492
0.00397115
0.00378232
0.00362282
0.0119124
0.338282
0.797076
1.35426
2.01962
2.74215
3.59052
4.75001
6.78243
12.7492
29.684
96.8074
90.7106
0.00646768
0.00555641
0.00509572
0.00471713
0.0044031
0.00414128
0.00392161
0.00373643
0.00358118
0.0235984
0.379314
0.842126
1.40259
2.06988
2.79206
3.63954
4.79983
6.84951
12.8967
29.9778
101.238
93.3406
0.00642555
0.00551648
0.0050582
0.00468128
0.00436845
0.00410739
0.00388817
0.00370324
0.00355044
0.0422935
0.420438
0.886785
1.45053
2.11985
2.84155
3.68738
4.84679
6.90967
13.0255
30.2306
106.09
96.1058
0.00634299
0.00544147
0.00499018
0.00461938
0.00431187
0.00405555
0.00384053
0.00365931
0.00351442
0.0683476
0.462015
0.931381
1.49837
2.16975
2.89074
3.73411
4.8911
6.96343
13.1367
30.4455
111.407
99.0732
0.00630941
0.00540933
0.00495966
0.00458978
0.00428277
0.00402654
0.00381139
0.00362988
0.00349393
0.101423
0.504287
0.976176
1.54634
2.21974
2.9397
3.77988
4.93302
7.01133
13.2314
30.6253
117.222
102.217
0.00622483
0.00533286
0.00489069
0.00452745
0.00422628
0.00397529
0.00376475
0.00358734
0.00347298
0.140765
0.547401
1.02138
1.59463
2.26994
2.98852
3.82482
4.97286
7.05395
13.3108
30.7731
123.557
105.592
0.00619811
0.0053068
0.00486547
0.00450242
0.00420108
0.00394959
0.00373843
0.00356034
0.00347886
0.185528
0.591418
1.06713
1.64336
2.32044
3.03729
3.86914
5.011
7.09188
13.3764
30.8919
130.422
109.157
0.00611101
0.00522848
0.00479521
0.00443936
0.00414436
0.00389857
0.00369241
0.00351872
0.00355476
0.234786
0.636312
1.11356
1.69261
2.37131
3.08614
3.91307
5.04781
7.12573
13.4294
30.9842
137.822
112.957
0.00608757
0.00520536
0.00477254
0.00441647
0.00412094
0.00387434
0.00366731
0.00349277
0.00658163
0.287447
0.681957
1.1607
1.74243
2.42264
3.13517
3.95685
5.08373
7.15615
13.4713
31.052
145.756
116.938
0.00599546
0.00512313
0.00469925
0.00435115
0.00406264
0.00382231
0.00362075
0.00345101
0.0352245
0.341987
0.728134
1.20858
1.79285
2.47446
3.18453
4.00076
5.11919
7.18382
13.5038
31.0962
154.203
121.137
0.00596728
0.00509591
0.00467302
0.00432513
0.00403645
0.00379562
0.00359351
0.00342388
0.0924039
0.395723
0.774531
1.25716
1.84385
2.52683
3.23436
4.04509
5.15467
7.20947
13.5285
31.1167
163.106
125.495
0.00586248
0.00500276
0.00459037
0.00425182
0.00397137
0.00373787
0.00354216
0.00338372
0.143434
0.44586
0.820789
1.30636
1.89539
2.57978
3.28481
4.09012
5.19063
7.23385
13.5472
31.1122
172.322
130.045
0.005821
0.00496354
0.00455327
0.0042159
0.00393613
0.00370296
0.00350749
0.00338986
0.180951
0.491113
0.866549
1.35606
1.94742
2.63332
3.33602
4.13615
5.22756
7.2578
13.5616
31.0814
181.57
134.727
0.00569927
0.0048558
0.00445772
0.00413091
0.00386036
0.00363534
0.00344698
0.00446494
0.208248
0.531318
0.911494
1.4061
1.99985
2.68741
3.3881
4.18346
5.26592
7.28217
13.5733
31.0237
190.353
139.588
0.00561709
0.0047895
0.00440365
0.00408525
0.00382038
0.00359897
0.0034128
0.00711736
0.228501
0.566783
0.955367
1.45629
2.05261
2.74201
3.44117
4.23232
5.30619
7.30793
13.5837
30.9399
197.957
144.654
0.00525448
0.00445986
0.00411093
0.00382548
0.00358844
0.00339011
0.00322322
0.00889304
0.243754
0.597893
0.997953
1.50637
2.1056
2.797
3.49529
4.28295
5.34879
7.33611
13.5939
30.8314
203.558
150.447
95.0235
102.609
66.9823
51.1971
42.6244
35.4422
34.0465
31.9291
31.017
30.2452
28.9203
25.8134
27.1919
31.6623
35.7606
39.1546
42.6109
45.0142
46.1408
46.0475
45.0116
39.4691
29.3683
21.3549
14.832
8.3295
5.54015
4.93167
4.79764
4.98236
5.33714
5.54768
5.52235
4.97854
4.2693
94.6475
103.375
68.3767
53.6838
44.9442
37.0188
35.5331
33.2105
32.3507
31.6231
29.8769
26.3811
27.5358
32.139
36.4523
39.7528
42.955
45.2225
46.3388
46.3323
45.5135
40.2088
29.9114
21.6414
14.9356
8.34887
5.53622
4.92602
4.79235
4.97698
5.33095
5.54013
5.51418
4.97053
4.26276
93.9266
104.582
70.8021
58.0716
49.1515
39.954
38.3675
35.7243
35.0267
34.3197
31.7361
27.505
28.3525
32.9954
37.4884
40.6241
43.3296
45.2513
46.2767
46.3019
45.5855
40.6838
30.6222
22.1582
15.0866
8.35023
5.52524
4.91473
4.78179
4.96623
5.3186
5.52504
5.49789
4.95456
4.2497
92.8104
106.101
74.261
64.3952
55.237
44.3249
42.5387
39.43
38.9926
38.2557
34.8255
29.5707
29.9617
34.5816
39.3678
42.3141
44.2395
45.5
46.2851
46.3358
45.719
41.2494
31.6185
22.9564
15.3211
8.34312
5.5078
4.89786
4.76598
4.95015
5.30012
5.50245
5.4735
4.93065
4.23016
91.3035
107.825
78.7251
72.3356
63.0118
50.0942
47.9659
44.2774
44.2002
43.4967
39.6739
33.1449
32.8312
37.401
42.69
45.522
46.4074
46.5666
46.8304
46.8805
46.3869
42.2484
33.0321
24.1032
15.6782
8.33685
5.48448
4.87544
4.74498
4.92877
5.27553
5.47239
5.44108
4.89886
4.20419
89.3553
109.651
84.0836
81.2064
72.1575
57.1755
54.5762
50.2224
50.5694
50.0964
46.8839
39.0336
37.5967
42.0209
48.1207
51.1426
50.9104
49.4474
48.6893
48.5638
48.1191
44.0568
35.0336
25.6911
16.2038
8.34089
5.45593
4.84754
4.71884
4.90212
5.24487
5.43488
5.40067
4.85924
4.17185
87.0012
111.473
90.1065
90.0345
82.187
65.3925
62.2813
57.1935
57.9405
57.9944
56.8916
48.2682
45.1046
49.1054
56.3748
60.1953
59.1736
55.6747
53.1215
52.3251
51.6111
47.1579
37.8666
27.8513
16.955
8.36511
5.42281
4.81421
4.68764
4.87027
5.20819
5.38997
5.35236
4.81186
4.13321
84.2135
113.189
96.4452
97.8749
92.4458
74.4003
70.9093
65.0328
65.9874
66.8375
69.3
61.6023
56.2572
59.3636
68.14
73.6435
72.7471
67.3103
62.0482
59.596
57.8796
52.2511
41.8995
30.7724
18.005
8.42013
5.38588
4.77555
4.65146
4.83325
5.16553
5.33771
5.29623
4.75682
4.08838
81.0699
114.707
102.717
104.261
102.252
83.6492
80.1317
73.4436
74.179
75.8569
81.9628
77.728
70.9876
72.9423
83.5066
91.6515
92.2871
86.1638
77.9241
72.4474
68.4389
60.3938
47.6999
34.7281
19.4504
8.5177
5.3459
4.73165
4.61039
4.79115
5.11695
5.27818
5.23242
4.69424
4.03747
77.574
115.95
108.634
109.418
111.142
92.4797
89.4339
81.974
81.844
83.9643
91.344
91.4532
86.2109
87.9561
100.638
111.985
115.203
110.777
101.833
93.0062
85.2261
73.0962
56.1186
40.1094
21.4195
8.67079
5.30369
4.68265
4.56457
4.74404
5.06256
5.21145
5.16108
4.62429
3.98063
73.8369
116.865
114.215
114.033
119.044
100.357
98.1954
90.0873
88.4059
90.1304
95.089
97.0564
96.0702
99.9705
115.31
129.624
134.997
133.47
128.511
120.26
109.243
91.9417
68.2835
47.4406
24.0775
8.89361
5.26005
4.62869
4.51414
4.69204
5.00244
5.13767
5.08239
4.54716
3.91806
69.8857
117.422
119.878
118.847
126.234
107.106
105.883
97.3031
93.6085
93.9424
94.0397
94.6128
97.6119
105.463
123.897
140.434
146.586
146.401
146.773
145.516
136.681
116.619
85.1272
57.2947
27.6216
9.20084
5.21575
4.56996
4.45927
4.63527
4.93673
5.05699
4.9966
4.4631
3.84997
65.8489
117.593
126.284
124.372
133.139
112.974
112.273
103.375
97.6303
95.8532
90.9014
88.7413
93.6717
105.39
126.768
144.755
150.722
149.868
152.094
158.119
157.228
141.305
105.732
69.8961
32.2406
9.60577
5.1714
4.50663
4.40014
4.57388
4.86559
4.96961
4.90398
4.3724
3.77662
61.7626
117.321
133.973
130.823
140.139
118.487
117.546
108.377
100.995
96.8381
88.0209
83.4325
88.7086
103.223
126.902
145.633
150.986
148.646
149.533
157.66
163.332
155.882
124.995
84.1651
37.9992
10.1164
5.12739
4.43893
4.33698
4.50805
4.7892
4.87576
4.80486
4.2754
3.69832
57.7502
116.488
142.887
138.168
147.467
124.238
122.203
112.751
104.306
97.9271
86.6565
80.3334
85.302
101.646
126.848
145.585
149.94
145.975
144.523
150.824
157.786
155.896
135.252
96.7707
44.6228
10.7292
5.08375
4.36707
4.27001
4.43796
4.70776
4.77573
4.69961
4.1725
3.61539
53.8399
114.904
152.068
146.215
155.193
130.725
126.897
117.075
108.107
99.9201
87.3242
79.8475
84.3361
101.809
127.72
145.645
148.494
142.827
139.135
142.449
147.24
145.931
133.361
103.32
51.2893
11.422
5.04005
4.29127
4.19947
4.36383
4.62153
4.66984
4.58865
4.06413
3.52821
50.1273
112.357
159.942
154.672
163.379
138.153
132.201
121.965
112.853
103.355
90.2129
81.9322
85.9352
103.997
129.733
145.956
146.719
139.2
133.547
134.066
135.691
132.277
122.991
101.926
56.7229
12.1499
4.99536
4.21176
4.12562
4.28589
4.53075
4.55846
4.47244
3.95079
3.43718
46.6135
108.725
165.29
163.219
171.964
146.614
138.531
127.912
118.88
108.565
95.438
86.6078
90.1387
108.205
132.75
146.359
144.492
134.958
127.543
125.741
124.413
118.405
109.463
94.573
59.7571
12.8512
4.94829
4.12876
4.04871
4.20438
4.43571
4.44198
4.35148
3.83301
3.34274
43.349
104.093
168.09
171.487
180.856
156.103
146.132
135.258
126.445
115.768
103.117
93.9505
97.0473
114.46
136.658
146.748
141.777
130.109
121.053
117.326
113.594
105.505
96.0653
84.6605
59.9779
13.4617
4.89717
4.04248
3.96903
4.11956
4.33672
4.32087
4.2263
3.71136
3.24533
40.3033
98.8007
169.407
179.185
189.907
166.515
155.082
144.175
135.7
125.096
113.402
104.223
106.965
122.901
141.428
147.107
138.649
124.792
114.196
108.827
103.249
93.845
84.0949
74.6503
57.8435
13.9308
4.84027
3.95315
3.88682
4.03169
4.2341
4.19558
4.09746
3.58642
3.14542
37.4893
93.4506
170.265
186.21
198.956
177.653
165.314
154.689
146.721
136.624
126.421
117.707
120.301
133.843
147.198
147.556
135.287
119.231
107.191
100.401
93.466
83.4521
73.8376
65.6772
54.2499
14.2297
4.77596
3.86097
3.80236
3.94104
4.12818
4.06662
3.96555
3.45883
3.04351
34.8769
88.9126
171.064
192.607
207.85
189.249
176.638
166.68
159.469
150.338
142.247
134.759
137.61
147.746
154.206
148.283
131.917
113.68
100.282
92.2579
84.3847
74.3035
65.202
58.0453
50.0391
14.3502
4.70292
3.76618
3.71591
3.84789
4.01934
3.93452
3.83116
3.32919
2.94007
32.4767
85.7163
171.96
198.461
216.452
201.004
188.781
179.923
173.819
166.135
160.81
155.534
159.333
165.164
162.809
149.544
128.793
108.387
93.6929
84.5962
76.1311
66.3527
57.988
51.6905
45.7767
14.298
4.62015
3.669
3.62772
3.75252
3.90791
3.79982
3.69488
3.19815
2.83558
30.2708
83.9463
172.913
203.824
224.636
212.613
201.415
194.103
189.542
183.816
181.897
180.028
185.671
186.515
173.312
151.547
126.125
103.555
87.6012
77.5638
68.779
59.5233
51.9803
46.4289
41.7581
14.0872
4.52708
3.56968
3.53806
3.65521
3.79428
3.66308
3.55732
3.06633
2.73052
28.2673
83.7117
173.772
208.707
232.288
223.792
214.203
208.878
206.366
203.117
205.163
207.836
216.188
211.735
185.848
154.412
124.046
99.3122
82.1213
71.2474
62.3408
53.7127
46.9797
42.0621
38.0965
13.7358
4.4235
3.46847
3.44717
3.55624
3.67882
3.52485
3.41906
2.93434
2.62534
26.4614
84.9998
174.476
213.09
239.305
234.299
226.82
223.909
223.991
223.76
230.253
238.433
249.91
239.8
200.022
158.01
122.545
95.6823
77.2986
65.6761
56.779
48.8022
42.8111
38.4128
34.8053
13.2635
4.30963
3.36566
3.3553
3.45589
3.56191
3.38571
3.28069
2.80276
2.52048
24.8623
87.5942
175.037
216.935
245.605
243.958
239.005
238.924
242.184
245.544
256.891
271.162
285.407
268.715
214.771
161.942
121.466
92.5918
73.1114
60.8318
52.0226
44.6693
39.3254
35.3333
31.8517
12.6911
4.18606
3.26153
3.26267
3.35445
3.44392
3.24621
3.14274
2.67215
2.41635
23.4808
90.9485
175.488
220.204
251.14
252.675
250.584
253.751
260.823
268.434
285.046
305.657
321.373
296.059
228.355
165.507
120.519
89.8894
69.4878
56.6638
47.9833
41.1967
36.3976
32.7044
29.1876
12.0398
4.05375
3.15639
3.16954
3.25218
3.32523
3.10688
3.00576
2.54305
2.31332
22.3333
94.1493
175.86
222.875
255.9
260.444
261.506
268.38
280.009
292.683
315.02
341.8
356.71
319.849
239.056
167.942
119.374
87.3973
66.327
53.1016
44.5678
38.2779
33.9243
30.4307
26.7638
11.3306
3.91395
3.05057
3.07612
3.14937
3.20621
2.96825
2.87022
2.41592
2.21176
21.4546
96.2193
176.173
224.944
259.917
267.34
271.841
282.983
300.131
318.968
347.643
380.02
390.769
338.804
245.719
168.627
117.744
84.9556
63.5251
50.0661
41.6857
35.8198
31.8209
28.4361
24.5371
10.5843
3.76814
2.94439
2.98263
3.04628
3.0872
2.83083
2.7366
2.29121
2.11196
20.8892
96.7356
176.435
226.424
263.253
273.498
281.79
297.966
322.003
348.584
384.384
421.092
423.015
352.311
248.043
167.323
115.468
82.4574
60.992
47.4768
39.2533
33.7428
30.0183
26.66
22.4726
9.8204
3.61795
2.83819
2.88929
2.94317
2.96857
2.69508
2.60529
2.16932
2.01421
20.7351
96.1885
176.643
227.348
265.997
279.104
291.678
314.008
346.996
383.672
427.536
466.149
452.876
360.041
246.192
164.068
112.504
79.8493
58.6581
45.2564
37.1961
31.9799
28.4601
25.054
20.5439
9.0566
3.46504
2.73232
2.79631
2.84029
2.85065
2.56145
2.47668
2.05057
1.91876
21.1259
95.592
176.777
227.756
268.257
284.388
301.969
332.139
377.241
427.428
480.018
515.818
479.063
361.749
240.574
159.086
108.899
77.1172
56.4708
43.333
35.4481
30.4754
27.1007
23.58
18.7325
8.30818
3.31104
2.6271
2.70389
2.73789
2.73376
2.43033
2.3511
1.93528
1.82581
22.2957
95.8042
176.807
227.697
270.158
289.629
313.284
353.82
415.779
483.955
544.353
568.867
499.097
357.038
231.571
152.604
104.719
74.2601
54.3874
41.6407
33.9514
29.1827
25.9026
22.2074
17.0268
7.58754
3.15747
2.52285
2.61221
2.6362
2.6182
2.30209
2.22886
1.82369
1.73554
24.5223
97.2021
176.695
227.215
271.842
295.166
326.444
381.046
466.51
556.809
619.247
619.223
508.72
345.442
219.565
144.845
100.03
71.2756
52.3681
40.1199
32.6551
28.0632
24.8351
20.9127
15.4201
6.90401
3.00564
2.41987
2.52146
2.53544
2.50426
2.17708
2.11019
1.71601
1.6481
28.1637
99.7548
176.407
226.353
273.47
301.412
342.516
416.404
533.222
644.335
693.351
653.913
502.7
326.629
204.919
135.987
94.8754
68.1519
50.3732
38.7171
31.5144
27.0841
23.8728
19.6778
13.9098
6.26393
2.85666
2.31844
2.43181
2.43583
2.39222
2.05558
1.99534
1.61241
1.56361
33.4954
103.211
175.914
225.148
275.236
308.894
362.898
462.958
616.393
731.269
741.312
655.908
477.113
300.945
188.112
126.227
89.2975
64.8709
48.3627
37.3848
30.49
26.2175
22.9944
18.4889
12.4955
5.67088
2.71141
2.21882
2.34342
2.33756
2.28234
1.93788
1.88448
1.51304
1.48217
40.701
107.254
175.192
223.635
277.383
318.298
389.412
523.512
706.208
785.442
735.806
615.987
432.828
269.799
169.762
115.779
83.3407
61.4137
46.2981
36.0818
29.5476
25.4394
22.1822
17.3364
11.1779
5.12611
2.57053
2.12124
2.25645
2.24084
2.17487
1.82419
1.77777
1.418
1.40385
49.6321
111.594
174.225
221.857
280.24
330.564
424.426
598.15
775.915
776.619
672.236
542.107
376.218
235.634
150.662
104.913
77.0734
57.77
44.1463
34.773
28.658
24.7289
21.4213
16.2138
9.9579
4.62901
2.43448
2.02592
2.17106
2.14586
2.07005
1.71475
1.67536
1.32737
1.32873
59.8743
116.025
172.998
219.869
284.268
347.052
470.772
678.005
791.053
704.931
573.852
454.011
316.133
201.206
131.65
93.9319
70.591
53.9458
41.8838
33.4304
27.7964
24.0681
20.699
15.117
8.83565
4.17764
2.30351
1.93303
2.08737
2.05281
1.96811
1.60973
1.57735
1.2412
1.25683
70.5911
120.446
171.495
217.748
290.172
369.846
530.584
736.935
738.221
598.405
469.449
368.903
259.532
168.789
113.499
83.1589
64.0221
49.9709
39.5017
32.0346
26.9431
23.4414
20.0047
14.0444
7.81044
3.76918
2.17776
1.84277
2.00555
1.96188
1.86927
1.50931
1.48384
1.15954
1.18821
80.9187
124.861
169.695
215.61
299.106
402.147
599.695
737.709
636.003
486.369
376.013
295.218
209.928
139.724
96.7753
72.8901
57.5153
45.901
37.0102
30.576
26.083
22.8364
19.3299
12.9962
6.8804
3.40033
2.05727
1.7553
1.92572
1.87326
1.77374
1.41363
1.39488
1.0824
1.12287
89.3733
129.382
167.564
213.642
313.084
447.844
652.923
664.705
514.584
385.205
298.564
234.474
168.035
114.499
81.8242
63.373
51.2283
41.8159
34.4408
29.0572
25.2062
22.2428
18.6678
11.9744
6.04256
3.06765
1.942
1.67077
1.84804
1.78713
1.68172
1.3228
1.31053
1.00977
1.06083
95.1437
134.287
165.039
212.178
335.642
504.605
639.56
540.602
397.024
300.214
236.259
185.356
133.284
93.0556
68.7699
54.7662
45.2997
37.8088
31.8449
27.4934
24.308
21.6536
18.0133
10.9824
5.29302
2.76772
1.83186
1.58932
1.77263
1.7037
1.59339
1.23691
1.23081
0.941606
1.00208
0.00337749
0.00250336
0.00226154
0.00214431
0.00210867
0.00211663
0.00214819
0.00948685
0.252442
0.618201
1.02868
1.5433
2.14479
2.83747
3.53555
4.32127
5.38205
7.35971
13.6026
30.7357
205.7
159.965
0.00334396
0.00224152
0.00183554
0.00159425
0.0014726
0.00143547
0.00146632
0.00974359
0.256798
0.629224
1.04643
1.56447
2.16659
2.85926
3.55704
4.34215
5.40172
7.37573
13.6119
30.6773
206.533
169.959
0.00354013
0.0023754
0.00188105
0.00154121
0.00131764
0.0011857
0.00115429
0.00989825
0.259697
0.637229
1.0603
1.58069
2.18246
2.87429
3.57159
4.35687
5.41756
7.39117
13.6238
30.6331
206.52
179.504
0.00367038
0.00251689
0.00200411
0.00162972
0.00135669
0.00116428
0.00103138
0.00998519
0.261319
0.642352
1.07018
1.59179
2.19227
2.88245
3.57914
4.3654
5.42955
7.40613
13.6376
30.6041
205.726
188.453
0.00392228
0.00276368
0.00222792
0.00182427
0.00151542
0.00128036
0.00100262
0.0100208
0.261775
0.644692
1.07598
1.59766
2.19588
2.88371
3.57964
4.36768
5.43761
7.42064
13.6523
30.5914
204.197
197.27
0.00405981
0.00292925
0.00239949
0.00199393
0.00167643
0.00142604
0.000993562
0.0100136
0.261143
0.644332
1.07768
1.59824
2.19326
2.87804
3.57309
4.36366
5.44158
7.43459
13.6669
30.5958
201.967
206.129
0.00434022
0.00320781
0.00266146
0.00223652
0.00189841
0.0016266
0.00106435
0.00996761
0.259481
0.64136
1.0753
1.59353
2.18442
2.86551
3.5595
4.35329
5.44127
7.4478
13.6802
30.6179
199.079
215.032
0.0044782
0.00337884
0.00284503
0.00242566
0.00208816
0.00181289
0.00119192
0.0098837
0.25684
0.635878
1.06893
1.58362
2.16947
2.8462
3.53892
4.33646
5.43637
7.45996
13.6911
30.6579
195.583
223.919
0.00478383
0.00368454
0.00313685
0.00270044
0.00234488
0.00205154
0.00131728
0.0097608
0.253272
0.628009
1.05871
1.56866
2.14856
2.82028
3.51145
4.3131
5.42654
7.47065
13.6982
30.7152
191.536
232.722
0.00490834
0.00384847
0.00332067
0.00289695
0.00254871
0.00225818
0.00140694
0.00959705
0.248828
0.617898
1.04487
1.54886
2.12193
2.78794
3.47721
4.28311
5.41135
7.47929
13.7003
30.7889
187.001
241.361
0.00522921
0.00417123
0.00363244
0.00319428
0.00283026
0.00252386
0.00152076
0.00939034
0.24356
0.605712
1.02767
1.52452
2.08986
2.74943
3.43635
4.24642
5.39033
7.4852
13.6961
30.8769
182.045
249.726
0.00533897
0.00432435
0.00381098
0.00339133
0.00304044
0.00274241
0.0016392
0.00913763
0.23752
0.591635
1.00741
1.49598
2.05273
2.70507
3.38909
4.20298
5.36296
7.48755
13.6842
30.9763
176.737
257.69
0.00567195
0.00466098
0.00413925
0.00370736
0.00334251
0.00303027
0.00184359
0.00883519
0.230757
0.575859
0.984419
1.46362
2.01092
2.65521
3.33568
4.15277
5.32871
7.48538
13.6632
31.083
171.146
265.106
0.00575596
0.00479259
0.00430213
0.00389503
0.00354963
0.00325189
0.00212066
0.0084773
0.223306
0.558576
0.959029
1.42787
1.96489
2.60024
3.27639
4.0958
5.28705
7.47759
13.6317
31.1919
165.341
271.826
0.00609197
0.00513344
0.00463684
0.00421958
0.00386215
0.00355211
0.00252607
0.00805752
0.215191
0.539966
0.931577
1.38919
1.91509
2.5406
3.21158
4.03216
5.23745
7.46298
13.5881
31.2964
159.389
277.704
0.00615191
0.00524267
0.00478099
0.00439288
0.00405968
0.0037691
0.00299174
0.00756668
0.206409
0.520193
0.90238
1.34802
1.86204
2.47673
3.14161
3.96199
5.17946
7.44021
13.5308
31.389
153.35
282.613
0.00648666
0.00558327
0.00511729
0.00472069
0.0043769
0.00407537
0.00350488
0.00699675
0.196931
0.499384
0.871729
1.30483
1.80623
2.40914
3.06689
3.8855
5.1127
7.40791
13.4583
31.4609
147.281
286.445
0.00651813
0.0056652
0.00523715
0.00487349
0.0045582
0.00428061
0.00389901
0.00633904
0.186687
0.477623
0.839873
1.26005
1.74818
2.33832
2.98788
3.80295
5.03688
7.36464
13.3687
31.5022
141.231
289.118
0.00683895
0.00599268
0.00556216
0.00519186
0.00486783
0.00458111
0.00427605
0.0056079
0.175562
0.454936
0.807012
1.2141
1.6884
2.26478
2.90503
3.7147
4.95186
7.30897
13.2605
31.5024
135.241
290.578
0.0068533
0.00605551
0.00566281
0.00532626
0.00503222
0.00477147
0.00452881
0.00485256
0.163389
0.431274
0.773278
1.16735
1.62738
2.18904
2.81886
3.62115
4.85763
7.23951
13.1319
31.4502
129.346
290.791
0.00716007
0.00636968
0.00597598
0.00563424
0.00533271
0.0050639
0.00482522
0.00422575
0.149956
0.406502
0.738721
1.1201
1.56559
2.11162
2.72987
3.52276
4.75432
7.15503
12.9813
31.3343
123.575
289.746
0.00715647
0.0064123
0.0060559
0.00574826
0.00547776
0.00523645
0.00502353
0.00397899
0.135018
0.380384
0.703289
1.07257
1.50348
2.03302
2.63859
3.42006
4.64224
7.05443
12.8071
31.1431
117.947
287.444
0.00744656
0.00670997
0.00635347
0.00604162
0.00576458
0.00551607
0.0052944
0.00421308
0.11835
0.352574
0.666805
1.0249
1.44142
1.95374
2.54553
3.3136
4.52185
6.93688
12.6081
30.866
112.477
283.898
0.00743042
0.00673684
0.00641596
0.00613735
0.0058911
0.0056704
0.00547135
0.00469942
0.0998592
0.322633
0.62894
0.977062
1.37972
1.87426
2.45123
3.20399
4.39374
6.80183
12.383
30.4929
107.172
279.127
0.0077042
0.00701811
0.00669772
0.00641557
0.00616343
0.00593603
0.00572932
0.00525591
0.0798014
0.290062
0.589191
0.928882
1.31858
1.79502
2.35621
3.09186
4.25864
6.64908
12.131
30.0155
102.036
273.16
0.00767661
0.00703025
0.00674356
0.0064934
0.00627139
0.00607165
0.00588902
0.00562389
0.0591027
0.254416
0.546868
0.879962
1.25808
1.71641
2.26097
2.97783
4.11743
6.47878
11.8514
29.4273
97.0661
266.03
0.00793335
0.0072941
0.0070081
0.0067548
0.00652732
0.00632124
0.00613226
0.00592966
0.0395802
0.215527
0.501108
0.82964
1.19807
1.63874
2.166
2.86257
3.97106
6.2915
11.5442
28.7247
92.2546
257.778
0.00789942
0.00729624
0.00704144
0.00681819
0.00661939
0.00644
0.00627508
0.00611356
0.0236202
0.173889
0.450941
0.776949
1.13815
1.56218
2.07175
2.74672
3.82059
6.08821
11.2096
27.9065
87.5894
248.459
0.00814125
0.00754467
0.00729054
0.00706434
0.00686029
0.00667466
0.00650368
0.00634114
0.0131287
0.131126
0.395468
0.720587
1.07756
1.48671
1.97856
2.63091
3.66716
5.87026
10.8481
26.975
83.0548
238.14
0.00810326
0.00753926
0.00731386
0.00711567
0.00693867
0.00677852
0.00663087
0.00649034
0.00812905
0.0903423
0.334255
0.658934
1.01514
1.41199
1.8867
2.51572
3.51195
5.63945
10.4609
25.9359
78.6301
226.909
0.00833032
0.00777233
0.00754748
0.00734646
0.00716442
0.0069982
0.00684459
0.00669931
0.00672555
0.055627
0.268021
0.590176
0.949203
1.33729
1.79617
2.40167
3.35617
5.39793
10.0497
24.7983
74.2925
214.869
0.00829257
0.00776368
0.00756488
0.00738953
0.00723252
0.00709012
0.00695854
0.00683345
0.00663528
0.0304114
0.199541
0.512675
0.877551
1.26131
1.70668
2.2891
3.20103
5.14826
9.61658
23.5745
70.0155
202.15
0.00850611
0.00798268
0.00778432
0.00760627
0.00744444
0.00729615
0.00715868
0.00702857
0.00685536
0.015726
0.134267
0.4258
0.797467
1.18211
1.61743
2.17813
3.04764
4.89332
9.16438
22.2796
65.774
188.896
0.00847095
0.00797338
0.00779848
0.00764377
0.00750489
0.00737865
0.00726175
0.00715049
0.00702498
0.00928241
0.0794777
0.331374
0.706013
1.09702
1.52701
2.06847
2.89691
4.63624
8.6967
20.9311
61.5439
175.272
0.00867177
0.00817914
0.00800457
0.00784729
0.00770385
0.00757198
0.00744933
0.007333
0.00721435
0.00731518
0.0410732
0.235351
0.600857
1.00261
1.4332
1.95931
2.74941
4.38027
8.21796
19.5485
57.309
161.451
0.00864154
0.00817173
0.0080181
0.00788184
0.00775923
0.00764752
0.00754384
0.00744495
0.00734547
0.00702074
0.0198029
0.148072
0.482131
0.894892
1.3329
1.84913
2.60517
4.12849
7.73345
18.1522
53.0624
147.614
0.00883173
0.00836635
0.0082129
0.00807415
0.00794719
0.00783006
0.00772076
0.00761678
0.00751431
0.00722647
0.0109322
0.0808228
0.355317
0.770173
1.22201
1.73554
2.46351
3.88354
7.24914
16.7634
48.8125
133.938
0.00880912
0.00836379
0.00822891
0.00810894
0.0080007
0.00790181
0.00780978
0.00772175
0.00763419
0.0074608
0.00818791
0.0390676
0.233253
0.627194
1.0956
1.61519
2.32285
3.64718
6.77135
15.4027
44.5826
120.591
0.00898975
0.00854844