/*--------------------------------*- C++ -*----------------------------------*\
| =========                 |                                                 |
| \\      /  F ield         | OpenFOAM: The Open Source CFD Toolbox           |
|  \\    /   O peration     | Version:  v1912                                 |
|   \\  /    A nd           | Website:  www.openfoam.com                      |
|    \\/     M anipulation  |                                                 |
\*---------------------------------------------------------------------------*/
FoamFile
{
    version     2.0;
    format      ascii;
    class       volScalarField;
    location    "160";
    object      nut;
}
// * * * * * * * * * * * * * * * * * * * * * * * * * * * * * * * * * * * * * //

dimensions      [0 2 -1 0 0 0 0];


internalField   nonuniform List<scalar> 
12441
(
5.82204e-24
1.7907e-20
8.10567e-20
3.3257e-19
1.06847e-18
3.88922e-18
1.01078e-17
2.50099e-17
6.14011e-17
1.27568e-16
3.05737e-16
7.71439e-16
2.17953e-15
7.39409e-15
1.03667e-13
1.89364e-11
0.000200204
0.00103335
0.00329632
0.00272376
0.00364316
0.00775321
6.34215e-24
3.03392e-20
1.11747e-19
4.24005e-19
1.30239e-18
4.80889e-18
1.22024e-17
3.00191e-17
7.36395e-17
1.54518e-16
3.79949e-16
1.02926e-15
2.82631e-15
9.36516e-15
1.13107e-13
3.89828e-11
5.89559e-05
0.00125361
0.00377034
0.0029649
0.00400497
0.00781733
6.36491e-24
3.59004e-20
1.20795e-19
4.48194e-19
1.37805e-18
4.90835e-18
1.29331e-17
3.2051e-17
8.05476e-17
1.71847e-16
4.18058e-16
1.11753e-15
2.78299e-15
7.65565e-15
5.35396e-14
6.56971e-12
1.12126e-05
0.00091574
0.00149559
0.00279555
0.0041575
0.0078909
6.31939e-24
3.76969e-20
1.18551e-19
4.29373e-19
1.32567e-18
4.71519e-18
1.25177e-17
3.13373e-17
7.8529e-17
1.73754e-16
4.2394e-16
1.15411e-15
2.60873e-15
8.46611e-15
3.85181e-14
1.54237e-12
1.63154e-06
0.000635188
0.0011117
0.00271407
0.0043198
0.0079647
6.28534e-24
4.38888e-20
1.29797e-19
4.58382e-19
1.40302e-18
4.7809e-18
1.30951e-17
3.28053e-17
8.4334e-17
1.87609e-16
4.54357e-16
1.28479e-15
3.01708e-15
4.06733e-14
2.4732e-13
2.2966e-12
1.39831e-07
0.000445699
0.00108593
0.00269856
0.0044606
0.00803394
6.23517e-24
4.12936e-20
1.20557e-19
4.29255e-19
1.34306e-18
4.62368e-18
1.27548e-17
3.24042e-17
8.2932e-17
1.92779e-16
4.77159e-16
1.44574e-15
4.52974e-15
1.32781e-12
1.19013e-11
5.10124e-11
4.59142e-07
0.000404844
0.00114443
0.00275504
0.00458903
0.00809948
6.20026e-24
5.02701e-20
1.37815e-19
4.7584e-19
1.4605e-18
4.79401e-18
1.35976e-17
3.4465e-17
9.07427e-17
2.11223e-16
5.21071e-16
2.00034e-15
2.5008e-14
4.14111e-11
6.58041e-10
9.37076e-09
1.87565e-05
0.000413686
0.00132303
0.00294539
0.00473927
0.00816218
6.1505e-24
4.34579e-20
1.2319e-19
4.40227e-19
1.40852e-18
4.72444e-18
1.3517e-17
3.48572e-17
9.13624e-17
2.23958e-16
5.72773e-16
5.43682e-15
6.09373e-13
2.25179e-09
8.414e-08
4.96794e-06
0.000193441
0.000463127
0.00177878
0.00334084
0.00493942
0.00822577
6.11769e-24
5.57108e-20
1.46151e-19
4.99753e-19
1.55449e-18
4.96025e-18
1.46166e-17
3.75832e-17
1.0212e-16
2.51065e-16
6.45637e-16
6.13602e-14
2.58907e-11
7.41993e-08
1.0417e-05
0.000152329
0.000775951
0.000808648
0.00273194
0.0040229
0.00522422
0.00829204
6.07086e-24
4.43554e-20
1.25454e-19
4.56704e-19
1.50794e-18
4.95536e-18
1.47527e-17
3.87393e-17
1.04928e-16
2.75258e-16
7.4897e-16
1.68227e-12
1.0827e-09
4.43129e-06
0.000188798
0.000592396
0.00158491
0.00148975
0.00445733
0.00507096
0.00560868
0.00836448
6.04167e-24
6.0267e-20
1.53455e-19
5.25988e-19
1.67313e-18
5.20761e-18
1.60304e-17
4.20488e-17
1.19349e-16
3.17522e-16
8.92481e-16
5.23193e-11
5.50508e-08
8.14355e-05
0.000691713
0.00156476
0.00328746
0.00286505
0.00733568
0.00657884
0.00610595
0.00844366
5.99628e-24
4.46347e-20
1.27755e-19
4.7702e-19
1.63413e-18
5.28281e-18
1.64081e-17
4.40811e-17
1.2556e-16
3.64813e-16
1.15915e-15
1.45708e-09
3.24539e-06
0.000337403
0.00144612
0.00329834
0.00650115
0.00552733
0.0117447
0.00857972
0.00670294
0.00853143
5.97065e-24
6.41566e-20
1.60472e-19
5.53895e-19
1.81541e-18
5.54366e-18
1.79143e-17
4.82382e-17
1.46771e-16
4.4494e-16
1.69532e-15
3.52314e-08
7.2132e-05
0.00101105
0.00334675
0.0068805
0.0123931
0.0102796
0.0177913
0.0110436
0.00738754
0.00862633
5.9267e-24
4.43309e-20
1.29689e-19
4.99395e-19
1.78368e-18
5.69391e-18
1.85391e-17
5.14026e-17
1.59929e-16
5.59434e-16
3.60306e-15
7.96696e-07
0.000337101
0.00246972
0.00701072
0.0131453
0.0219284
0.0177785
0.0251614
0.0138328
0.00812415
0.00872852
5.9043e-24
6.75229e-20
1.66677e-19
5.8271e-19
1.97848e-18
5.94196e-18
2.02756e-17
5.68016e-17
1.96145e-16
7.7908e-16
1.65245e-14
1.5162e-05
0.00105514
0.00550759
0.013328
0.0227742
0.035463
0.0280455
0.0331205
0.0167816
0.00889002
0.00883515
5.86064e-24
4.39644e-20
1.32017e-19
5.24893e-19
1.95833e-18
6.18771e-18
2.12098e-17
6.17018e-17
2.28279e-16
1.21688e-15
3.02302e-13
0.000135792
0.00249675
0.0108169
0.0229076
0.0359004
0.0524
0.0401461
0.0407955
0.0196861
0.00964602
0.00894576
5.84153e-24
7.05477e-20
1.73527e-19
6.15216e-19
2.17113e-18
6.44149e-18
2.33181e-17
6.94013e-17
3.08371e-16
2.30603e-15
1.26081e-11
0.000505256
0.00542408
0.0189461
0.0356183
0.0520016
0.0710411
0.0523786
0.0474371
0.0224088
0.0103762
0.00905718
5.7976e-24
4.35076e-20
1.34513e-19
5.53233e-19
2.16127e-18
6.77398e-18
2.46273e-17
7.72586e-17
4.08666e-16
5.44831e-15
5.48236e-10
0.00124682
0.0104211
0.0300657
0.0510367
0.069776
0.0888721
0.062882
0.0526866
0.024831
0.0110522
0.00916919
5.78121e-24
7.32714e-20
1.80312e-19
6.49234e-19
2.38859e-18
7.01377e-18
2.71912e-17
8.91007e-17
6.62024e-16
1.69309e-14
4.40976e-08
0.00289784
0.0180264
0.0435646
0.0678617
0.0873923
0.103265
0.0704254
0.0565358
0.0269269
0.0116737
0.00927899
5.73671e-24
4.30586e-20
1.36892e-19
5.82508e-19
2.38757e-18
7.44081e-18
2.9018e-17
1.02355e-16
1.08095e-15
7.53082e-14
8.52958e-06
0.00589132
0.0282021
0.0586968
0.0847846
0.102784
0.112299
0.074786
0.059271
0.0286732
0.0122267
0.00938714
5.72361e-24
7.57372e-20
1.86827e-19
6.83287e-19
2.62991e-18
7.67534e-18
3.23144e-17
1.22286e-16
2.19473e-15
7.80547e-13
0.000164287
0.0108616
0.0404088
0.0742015
0.0999996
0.114282
0.115398
0.0766675
0.0612376
0.0301132
0.0127254
0.00949146
5.67829e-24
4.24395e-20
1.38594e-19
6.11039e-19
2.6359e-18
8.19624e-18
3.49528e-17
1.46519e-16
4.34225e-15
1.34122e-11
0.000622874
0.0180816
0.053768
0.0891124
0.112301
0.120949
0.11342
0.0771493
0.0627706
0.0312648
0.0131678
0.00959327
5.66788e-24
7.80306e-20
1.92496e-19
7.15595e-19
2.89058e-18
8.42079e-18
3.94455e-17
1.83643e-16
1.02802e-14
1.66172e-10
0.00157237
0.0273642
0.0673152
0.102252
0.120628
0.122881
0.108203
0.0771841
0.0640799
0.032194
0.0135796
0.00969106
5.62202e-24
4.19695e-20
1.39815e-19
6.38123e-19
2.90347e-18
9.04086e-18
4.35173e-17
2.3158e-16
2.2431e-14
1.55867e-09
0.00345213
0.0381932
0.0801924
0.112978
0.124951
0.120978
0.101765
0.0773017
0.0653028
0.0329344
0.0139688
0.00978684
5.61513e-24
8.02833e-20
1.97604e-19
7.4593e-19
3.17196e-18
9.27004e-18
5.02797e-17
3.06525e-16
5.64643e-14
1.3784e-08
0.00664919
0.0497331
0.0917412
0.120728
0.125611
0.116639
0.0956457
0.0776662
0.0664847
0.0335647
0.0143698
0.00987966
5.56749e-24
4.17973e-20
1.40787e-19
6.63998e-19
3.193e-18
9.99609e-18
5.71735e-17
4.08615e-16
1.30542e-13
3.18937e-07
0.0114322
0.0612566
0.101515
0.12558
0.123633
0.111235
0.0906325
0.0782206
0.0676488
0.0341313
0.0147969
0.00997203
5.5631e-24
8.24919e-20
2.02123e-19
7.74133e-19
3.47371e-18
1.02352e-17
6.84808e-17
5.73538e-16
3.92703e-13
1.86621e-05
0.0176678
0.072069
0.109273
0.12773
0.119948
0.105836
0.0868928
0.0788522
0.0687794
0.0347173
0.0152877
0.0100634
5.51432e-24
4.18648e-20
1.41246e-19
6.8766e-19
3.50261e-18
1.10729e-17
8.1359e-17
8.107e-16
1.83079e-12
0.000208303
0.0250376
0.0817606
0.114962
0.127794
0.115561
0.101048
0.084252
0.0794563
0.0698662
0.0353654
0.0158551
0.0101564
5.5133e-24
8.46836e-20
2.05823e-19
7.99333e-19
3.79712e-18
1.13473e-17
1.02543e-16
1.20476e-15
1.28065e-11
0.000680627
0.0329895
0.0900274
0.11869
0.126291
0.111062
0.0971101
0.082434
0.0799727
0.0708811
0.036139
0.0165295
0.0102507
5.46226e-24
4.20397e-20
1.4099e-19
7.08559e-19
3.83481e-18
1.23091e-17
1.28876e-16
1.79643e-15
7.41247e-11
0.00133124
0.0410863
0.0967659
0.120682
0.123853
0.106912
0.0940097
0.0811843
0.0803717
0.0718079
0.0370507
0.0173108
0.0103488
5.46327e-24
8.68146e-20
2.09003e-19
8.21918e-19
4.14413e-18
1.26566e-17
1.72527e-16
2.81044e-15
3.56532e-10
0.00223469
0.0488831
0.101933
0.121233
0.120875
0.103238
0.0916287
0.0803123
0.0806524
0.0726185
0.038124
0.0182119
0.01045
5.41118e-24
4.22518e-20
1.39924e-19
7.26759e-19
4.19217e-18
1.37465e-17
2.30219e-16
4.3913e-15
1.38741e-09
0.00345347
0.0561132
0.105616
0.120656
0.117737
0.100121
0.0898124
0.0796898
0.0808232
0.0732973
0.0393324
0.0192115
0.0105565
5.41528e-24
8.89261e-20
2.11438e-19
8.42495e-19
4.52363e-18
1.41969e-17
3.26489e-16
7.08567e-15
4.74762e-09
0.00507044
0.0625342
0.107929
0.119251
0.114606
0.0974843
0.0884233
0.0792364
0.0809023
0.0738189
0.0406654
0.0203015
0.010667
5.35972e-24
4.22842e-20
1.37834e-19
7.43036e-19
4.58641e-18
1.54594e-17
4.58429e-16
1.13001e-14
1.44551e-08
0.00713454
0.0680658
0.109061
0.117278
0.111641
0.0952867
0.0873454
0.0789043
0.0809061
0.0741695
0.0420754
0.0214408
0.0107831
5.36577e-24
8.84653e-20
2.10361e-19
8.57345e-19
4.93763e-18
1.6052e-17
6.78164e-16
1.85126e-14
4.28026e-08
0.00967811
0.0726641
0.109194
0.11495
0.108865
0.093423
0.0864938
0.0786671
0.0808539
0.0743268
0.0435461
0.0226086
0.0109032
5.30618e-24
4.14913e-20
1.326e-19
7.51789e-19
5.01178e-18
1.74692e-17
9.80854e-16
2.99304e-14
2.19427e-07
0.0127675
0.0764165
0.108543
0.112429
0.106332
0.0918456
0.0858038
0.0785112
0.0807612
0.0742807
0.0450418
0.0237571
0.0110282
5.3126e-24
8.52707e-20
2.03847e-19
8.62175e-19
5.38221e-18
1.81912e-17
1.4751e-15
5.74758e-14
1.10084e-05
0.0165109
0.079425
0.107288
0.109836
0.104008
0.090473
0.0852326
0.0784315
0.0806454
0.0740146
0.0465732
0.0248683
0.0111563
5.24624e-24
4.16203e-20
1.27349e-19
7.57874e-19
5.48453e-18
1.98647e-17
2.14321e-15
4.65222e-13
0.000176647
0.0211257
0.081861
0.105614
0.107254
0.101915
0.0892798
0.0847494
0.0784277
0.0805204
0.073526
0.0481413
0.0259057
0.0112883
5.24955e-24
5.37945e-20
1.54739e-19
7.99593e-19
5.7701e-18
2.06443e-17
3.20243e-15
2.31353e-11
0.00106882
0.0268906
0.0838572
0.103664
0.104741
0.100014
0.088212
0.0843373
0.0785036
0.0804022
0.0728099
0.0497957
0.0268739
0.011422
5.17284e-24
4.32861e-20
1.14496e-19
7.2446e-19
5.94251e-18
2.35542e-17
4.66461e-15
1.03312e-09
0.00378443
0.03398
0.0855472
0.101574
0.102329
0.0983261
0.0872671
0.0839858
0.0786645
0.0803022
0.0718796
0.0515648
0.0277664
0.0115584
5.16614e-24
1.93968e-21
1.12106e-20
4.00715e-19
5.45044e-18
2.44449e-17
7.20944e-15
1.82201e-07
0.00955744
0.0423285
0.0869805
0.0994402
0.100033
0.096822
0.086411
0.083694
0.0789165
0.0802314
0.070751
0.0534914
0.0286236
0.0116955
5.07806e-24
1.71187e-20
4.47834e-20
4.17504e-19
5.46442e-18
3.62228e-17
1.80142e-14
4.25645e-05
0.0193243
0.0517292
0.0881841
0.097356
0.0978506
0.0955374
0.0856629
0.0834638
0.0792645
0.0801922
0.0694636
0.0555242
0.0294622
0.0118345
5.03919e-24
6.72078e-22
8.46047e-23
2.3529e-19
5.06773e-18
8.28439e-17
3.7091e-13
0.000763888
0.0336589
0.0618826
0.0891087
0.0953806
0.0957667
0.0944456
0.0849986
0.083308
0.0797121
0.080182
0.0680629
0.0574969
0.0302853
0.011976
4.83858e-24
2.10359e-19
4.5829e-19
1.02987e-18
7.26262e-18
9.13782e-16
7.1833e-12
0.00422872
0.0527284
0.0726465
0.0898405
0.0936191
0.0937662
0.0935812
0.0844377
0.0832295
0.0802494
0.0801442
0.0666075
0.0589753
0.0307893
0.0121338
0.00987657
0.0144192
0.0157215
0.00615148
0.00551454
0.00558106
0.00566777
0.00563349
0.00543903
0.00570599
0.00833515
0.00855145
0.00802009
0.00785159
0.00870075
0.0101603
0.0115391
0.012623
0.0126435
0.0109691
0.00990657
0.0112161
0.0155134
0.0220061
0.032893
0.0604602
0.0930319
0.106364
0.110303
0.105954
0.0990165
0.0952181
0.0958502
0.106202
0.124066
0.00986353
0.0145758
0.0150073
0.00577323
0.00528126
0.00537401
0.00557903
0.00556452
0.00531087
0.00554361
0.00795652
0.00820537
0.00777515
0.00758328
0.008377
0.00985754
0.0114044
0.0127041
0.0128406
0.0110493
0.00981889
0.0109937
0.0152026
0.0216639
0.0325857
0.0601704
0.0928782
0.106256
0.110234
0.105863
0.098954
0.0951674
0.0958298
0.106183
0.124062
0.00983842
0.014649
0.0138319
0.00519722
0.00499227
0.00509083
0.00547239
0.0054605
0.00510425
0.00528159
0.00703854
0.00728529
0.00708224
0.00689749
0.00741225
0.00853157
0.00992941
0.0113391
0.011902
0.010609
0.00963357
0.0107576
0.0147443
0.0210236
0.0320652
0.0598036
0.0925481
0.105967
0.110038
0.105627
0.0987819
0.0950212
0.0957487
0.106105
0.124011
0.00979929
0.014651
0.0123885
0.00461839
0.00471652
0.00480961
0.00535229
0.00528994
0.00485648
0.00498681
0.00599983
0.00620364
0.00621622
0.00613868
0.00642418
0.0071002
0.00813382
0.00943962
0.0103729
0.00981249
0.00930299
0.0104283
0.0141087
0.0200819
0.0312718
0.0592946
0.0920367
0.1055
0.109717
0.105249
0.0985004
0.0947792
0.0956065
0.105965
0.123914
0.00974597
0.0145393
0.0108263
0.00409196
0.00444467
0.00452275
0.00518474
0.00504187
0.00456553
0.00464498
0.0050097
0.00515053
0.00536383
0.00545828
0.00560483
0.00590146
0.00651851
0.00756285
0.00866795
0.00879287
0.00879229
0.00994711
0.0132838
0.0188561
0.030165
0.058595
0.0913563
0.104876
0.109288
0.104741
0.0981213
0.0944523
0.0954126
0.105776
0.123781
0.00967615
0.014282
0.00927106
0.00363716
0.00417741
0.00422526
0.00495486
0.00472985
0.00423922
0.00424948
0.0041049
0.00416306
0.00453487
0.00479825
0.00488566
0.00492456
0.0051913
0.00592958
0.00702095
0.00764217
0.00808225
0.00927661
0.012273
0.0173819
0.0287239
0.0576673
0.0905305
0.104127
0.108776
0.104127
0.0976633
0.0940584
0.0951829
0.105555
0.12363
0.00959042
0.0138654
0.00782603
0.00327037
0.0039372
0.00393615
0.00467882
0.00438531
0.00390266
0.00382647
0.00331127
0.00325677
0.00370378
0.00408045
0.00416175
0.00406362
0.00409046
0.00455523
0.00551755
0.00641608
0.00717348
0.00840282
0.0110927
0.0157093
0.026949
0.056482
0.0895897
0.103292
0.10821
0.103435
0.0971495
0.09362
0.0949372
0.105323
0.123484
0.00948687
0.013284
0.00656095
0.00300023
0.00375268
0.00368569
0.0043916
0.0040456
0.00358918
0.00342243
0.00267323
0.00248996
0.00291089
0.00332277
0.00342108
0.0032739
0.00316132
0.00340576
0.00417781
0.00516102
0.00609814
0.00734136
0.00977243
0.0138995
0.0248645
0.0550154
0.0885671
0.102414
0.107627
0.102698
0.096606
0.0931623
0.0946981
0.105105
0.123367
0.00936733
0.012549
0.00550481
0.00282203
0.00364427
0.00350201
0.0041313
0.00374367
0.00332782
0.0030815
0.00222833
0.00193502
0.00225203
0.00262569
0.00273888
0.0025944
0.00241863
0.00249543
0.00304347
0.00395426
0.00493432
0.00614686
0.00835669
0.0120216
0.0225205
0.0532498
0.0874952
0.101533
0.107059
0.101947
0.0960599
0.0927122
0.0944896
0.104927
0.123305
0.0092307
0.0116745
0.00465398
0.0027213
0.00361991
0.0034046
0.00393047
0.0035043
0.00313842
0.00283144
0.0019783
0.00162021
0.00180452
0.00209167
0.00220208
0.00208283
0.00189807
0.00186687
0.00219364
0.00291659
0.00380919
0.00491884
0.00691113
0.0101504
0.019993
0.0511752
0.0864037
0.100691
0.10654
0.101216
0.0955388
0.0922971
0.0943365
0.104818
0.123327
0.00908003
0.0106871
0.0039822
0.00268202
0.00367744
0.00340311
0.00381239
0.00334305
0.0030288
0.00268204
0.00189225
0.00151339
0.00157593
0.00175947
0.00184716
0.00175502
0.0015914
0.00151272
0.001673
0.0021665
0.00287154
0.00379348
0.00552727
0.00836628
0.0173831
0.0487939
0.0853178
0.0999239
0.106101
0.100534
0.0950689
0.0919441
0.0942632
0.104805
0.12346
0.00891508
0.00961362
0.0034561
0.00269302
0.00381038
0.00349901
0.00379141
0.00326856
0.00299833
0.00262792
0.00192404
0.00155191
0.00151486
0.00159619
0.00164733
0.00157399
0.0014403
0.0013572
0.00143018
0.00173898
0.00222869
0.00290715
0.00431752
0.0067548
0.0148118
0.0461287
0.0842572
0.0992625
0.105767
0.099931
0.0946751
0.0916788
0.0942936
0.104915
0.123732
0.00874002
0.00849361
0.00304767
0.00275037
0.00401351
0.00368862
0.00387417
0.00328418
0.00304069
0.00265382
0.0020286
0.00167181
0.00155182
0.00153664
0.00154507
0.001482
0.00137644
0.00131013
0.00135954
0.00156708
0.00188975
0.00233765
0.0033889
0.0054025
0.0124107
0.0432314
0.0832378
0.0987326
0.105562
0.0994296
0.0943797
0.0915254
0.09445
0.105174
0.124167
0.00855535
0.00736866
0.00274197
0.00285654
0.00428706
0.00396669
0.00406232
0.00339058
0.00314739
0.00274236
0.00217102
0.00182041
0.00162526
0.00152067
0.00148771
0.00143111
0.00135054
0.00130802
0.00136932
0.00154768
0.0017811
0.00206954
0.00279857
0.00438181
0.0103066
0.0401911
0.0822721
0.0983543
0.105502
0.099051
0.0942026
0.0915061
0.0947536
0.105607
0.124791
0.00836592
0.00628962
0.00253784
0.0030189
0.00463876
0.00433
0.00435491
0.00358467
0.00331217
0.00287853
0.00232999
0.00196593
0.00169509
0.00150981
0.00144328
0.00139461
0.0013381
0.00132068
0.00140719
0.00159932
0.00181079
0.00202566
0.00252883
0.00372639
0.00859918
0.0371351
0.0813727
0.0981428
0.105602
0.0988121
0.0941611
0.0916408
0.0952236
0.106238
0.125626
0.00817267
0.00530365
0.0024446
0.00324897
0.00508488
0.00478173
0.00475075
0.00386452
0.00353225
0.00305247
0.00249591
0.00209414
0.00174279
0.00148761
0.00139931
0.0013631
0.00133162
0.00133962
0.00145412
0.00167814
0.00191061
0.00212275
0.00251161
0.00341712
0.00733821
0.0342161
0.0805537
0.0981091
0.10587
0.0987266
0.0942699
0.0919476
0.0958776
0.107088
0.126693
0.00798033
0.00445334
0.00247687
0.00356297
0.00564673
0.00534007
0.00525415
0.00423002
0.00380793
0.00326003
0.00266812
0.0022055
0.00176711
0.00145207
0.00135421
0.00133595
0.00133133
0.00136549
0.00150837
0.0017699
0.0020453
0.00230158
0.00267114
0.00339591
0.00651572
0.0315839
0.0798332
0.0982609
0.106313
0.0988051
0.0945412
0.0924427
0.0967318
0.108178
0.128012
0.00778933
0.00376942
0.00265241
0.00398305
0.00635575
0.00603504
0.00587818
0.00468792
0.0041448
0.00350352
0.00285238
0.00230675
0.00177515
0.00140823
0.00131055
0.00131505
0.00133917
0.00140066
0.00157295
0.00187479
0.00220396
0.00253113
0.00294804
0.0035929
0.00608043
0.0293502
0.0792333
0.0986039
0.106937
0.0990556
0.0949858
0.0931408
0.0978011
0.109528
0.1296
0.00760307
0.0032667
0.00299312
0.00454028
0.00725162
0.00690875
0.0066463
0.00525428
0.00455398
0.00379182
0.00306071
0.00241078
0.00177886
0.00136325
0.00127122
0.00130213
0.00135691
0.00144704
0.00165064
0.00199702
0.00238759
0.00280022
0.00330405
0.00394513
0.00596236
0.0275685
0.0787786
0.0991418
0.107743
0.0994843
0.0956121
0.0940553
0.0990993
0.111157
0.131474
0.00742066
0.00294198
0.00353024
0.00527406
0.00838311
0.00801411
0.00759223
0.00595587
0.00505397
0.00414077
0.00331097
0.00253223
0.00179099
0.00132488
0.00123913
0.00129868
0.00138595
0.00150597
0.00174278
0.0021399
0.00260028
0.00310697
0.00371699
0.00440313
0.00609109
0.026237
0.0784948
0.0998781
0.108732
0.100096
0.0964282
0.0951988
0.100639
0.113082
0.13365
0.00724378
0.00277615
0.00431748
0.00623091
0.00980616
0.00941065
0.00875637
0.00682709
0.00566847
0.00457175
0.0036269
0.00269104
0.0018266
0.00130108
0.0012172
0.00130621
0.0014279
0.00157895
0.00185005
0.00230495
0.00284503
0.00345161
0.00417363
0.00493077
0.00640492
0.0253199
0.0784066
0.100816
0.109906
0.100894
0.0974403
0.0965834
0.102434
0.115322
0.136142
0.00707145
0.00273799
0.00543996
0.00746714
0.0115842
0.0111612
0.0101825
0.0079061
0.00642489
0.00510893
0.00403462
0.00290877
0.00190214
0.00130123
0.00120962
0.00132723
0.00148521
0.00166814
0.001973
0.00249179
0.00312227
0.00383281
0.00466441
0.00550235
0.00685418
0.0247707
0.0785368
0.101959
0.111266
0.101882
0.098655
0.0982209
0.104495
0.117894
0.138964
0.00690537
0.00280327
0.00700181
0.00905834
0.0137928
0.0133334
0.0119163
0.00922935
0.0073492
0.00577431
0.00455759
0.00320979
0.00203773
0.00133772
0.0012225
0.00136579
0.00156183
0.00177724
0.00211318
0.00269896
0.00342987
0.00424671
0.00518069
0.00609975
0.00740175
0.0245468
0.0789067
0.103311
0.112811
0.103062
0.100078
0.100123
0.106835
0.120816
0.142129
0.00674534
0.00296181
0.0091161
0.0111127
0.0165293
0.0160065
0.0140084
0.0108298
0.00846332
0.00658222
0.00520742
0.00361148
0.00225314
0.00142838
0.00126605
0.0014288
0.00166396
0.00191206
0.00227388
0.00292423
0.00376346
0.00468704
0.00571397
0.00671028
0.00802212
0.0246171
0.0795359
0.104878
0.114543
0.104438
0.101714
0.102302
0.109465
0.124106
0.145649
0.00659312
0.00320339
0.0118916
0.0137826
0.0199179
0.0192733
0.0165129
0.0127325
0.00977857
0.00753313
0.00597715
0.00411973
0.00256338
0.00159652
0.00135663
0.00152724
0.00180097
0.00208148
0.00246165
0.00316616
0.00411725
0.00514614
0.00625602
0.00732553
0.00869997
0.0249631
0.0804432
0.106666
0.116463
0.106011
0.10357
0.104769
0.112398
0.127782
0.149536
0.00644962
0.00352473
0.0154088
0.0172651
0.0241021
0.0232249
0.019475
0.0149455
0.0112886
0.0086073
0.00683518
0.00471736
0.00296786
0.00186626
0.0015197
0.00167849
0.00198644
0.00229774
0.00268687
0.00342512
0.00448499
0.00561593
0.00679955
0.00794065
0.0094286
0.0255783
0.0816466
0.108682
0.118573
0.107785
0.10565
0.107538
0.115645
0.131862
0.153802
0.00631698
0.00393285
0.0197046
0.0217852
0.0292167
0.0279106
0.0228993
0.0174389
0.0129547
0.00975766
0.00772543
0.00536593
0.00344729
0.00225059
0.00178816
0.00190799
0.0022393
0.002577
0.00296448
0.00370549
0.00486133
0.0060892
0.00733886
0.00855404
0.0102086
0.0264661
0.0831632
0.110934
0.120876
0.109761
0.107959
0.11062
0.119217
0.136366
0.158455
0.00619775
0.00445778
0.024786
0.0275642
0.0353436
0.0332837
0.0267106
0.0201208
0.014693
0.0109047
0.00856852
0.00600458
0.00396298
0.00274104
0.0021933
0.00224896
0.00258394
0.00293857
0.00331284
0.00401653
0.00524311
0.00656041
0.0078703
0.00916705
0.011047
0.0276384
0.085009
0.113431
0.123372
0.111943
0.110504
0.114029
0.123128
0.14131
0.163506
0.00609509
0.00516223
0.0306688
0.0347863
0.0424651
0.0391566
0.0307212
0.0228205
0.0163653
0.0119361
0.00926944
0.00656214
0.00446623
0.00330674
0.00274706
0.00273423
0.00304756
0.00340332
0.00375221
0.00437357
0.00563084
0.00702668
0.00839254
0.00978383
0.011956
0.0291142
0.0871987
0.116182
0.126065
0.114332
0.113288
0.117777
0.127388
0.146714
0.168961
0.00601408
0.00614865
0.0374202
0.043557
0.0504167
0.0451809
0.0346244
0.0252907
0.0177855
0.0127145
0.00972607
0.00696271
0.00490419
0.00390273
0.00343071
0.00338089
0.00365164
0.00398822
0.00430026
0.00479631
0.0060297
0.00748801
0.00890652
0.0104109
0.0129531
0.0309179
0.0897448
0.119197
0.128956
0.116931
0.116318
0.121878
0.13201
0.152598
0.17483
0.00596079
0.00754158
0.0451548
0.0538198
0.0588346
0.0508545
0.0380154
0.027228
0.0187367
0.013094
0.00984545
0.00714254
0.00523104
0.0044793
0.0041966
0.00417357
0.00439892
0.00469843
0.00496654
0.005307
0.00645022
0.00794775
0.00941527
0.0110571
0.0140606
0.0330785
0.0926571
0.122484
0.132047
0.119739
0.119596
0.126345
0.137006
0.158982
0.181118
0.00594609
0.00946086
0.0539787
0.0652204
0.0671091
0.0555617
0.0404432
0.0283176
0.019008
0.0129485
0.00956376
0.00706097
0.00541449
0.00499051
0.0049817
0.005061
0.00526132
0.00551655
0.00574336
0.00592396
0.00690785
0.00841207
0.00992337
0.0117327
0.0153053
0.0356279
0.0959422
0.126052
0.135339
0.122758
0.12313
0.131191
0.142389
0.165887
0.187833
0.00598322
0.0119874
0.0638595
0.0769704
0.0743928
0.0586579
0.0414889
0.028293
0.0184431
0.0122121
0.00887616
0.00672132
0.0054467
0.00540214
0.0057217
0.00596788
0.00617975
0.00639847
0.00659979
0.00665489
0.00742154
0.00888965
0.0104363
0.0124492
0.0167185
0.0386
0.0996027
0.129906
0.138833
0.125987
0.126924
0.136433
0.148174
0.173336
0.194983
0.00609167
0.0151659
0.0744894
0.0878539
0.0797211
0.0596052
0.0408644
0.0270122
0.0170034
0.0109265
0.00786267
0.00617955
0.00534767
0.00569815
0.00636398
0.00681519
0.00707595
0.00727696
0.00747967
0.00748597
0.00800995
0.00939011
0.0109596
0.0132186
0.018336
0.0420285
0.103637
0.134051
0.142528
0.129427
0.130986
0.142088
0.154378
0.181359
0.202578
0.00628805
0.0190087
0.0851994
0.0964653
0.0822424
0.0581195
0.0385014
0.0245206
0.0148193
0.00927208
0.00669432
0.00554443
0.0051659
0.00588454
0.00687639
0.0075393
0.0078742
0.00807854
0.00831257
0.0083782
0.00868567
0.00992239
0.0114974
0.0140524
0.0201982
0.0459458
0.108039
0.138491
0.146425
0.133077
0.135326
0.148178
0.161022
0.189989
0.210632
0.00658505
0.0235237
0.0950746
0.101624
0.0814706
0.0542703
0.0345964
0.0210797
0.0122004
0.00754172
0.00558813
0.00494479
0.00496436
0.00598584
0.00724991
0.00810184
0.00851714
0.00873937
0.00902889
0.00926797
0.00944682
0.0104913
0.0120517
0.0149612
0.0223492
0.0503811
0.112798
0.143228
0.150524
0.13694
0.139958
0.15473
0.168135
0.199268
0.219167
0.00697682
0.0286707
0.103169
0.102721
0.0774262
0.0484737
0.0295796
0.0171252
0.00956317
0.00603637
0.00472165
0.00448559
0.00480221
0.00603662
0.00749585
0.0084928
0.00897711
0.00922151
0.00957922
0.0100839
0.0102702
0.0110944
0.0126203
0.0159537
0.0248374
0.0553597
0.117903
0.148265
0.154828
0.141022
0.1449
0.161782
0.175749
0.209248
0.228207
0.00744499
0.0343182
0.108718
0.0998065
0.0705979
0.0413828
0.0240188
0.0131656
0.00729134
0.00493485
0.00416263
0.00420879
0.0047127
0.00606717
0.00763638
0.00872312
0.00925254
0.00951438
0.0099416
0.0107618
0.0111086
0.0117174
0.0131962
0.0170365
0.0277147
0.0609025
0.123342
0.153607
0.159342
0.145334
0.150179
0.169378
0.183908
0.219994
0.237791
0.00795396
0.0400471
0.11116
0.0934097
0.0617599
0.0337237
0.0184894
0.00965124
0.0055954
0.00424328
0.00387097
0.00409232
0.004696
0.00609477
0.0076962
0.00881754
0.00936415
0.00963465
0.0101254
0.0112647
0.0118982
0.0123333
0.0137672
0.0182143
0.0310371
0.0670273
0.129106
0.159266
0.164077
0.149894
0.155828
0.177577
0.192665
0.231584
0.247965
0.00846726
0.0450794
0.110088
0.0842741
0.0517572
0.0261525
0.0134689
0.00687255
0.00446921
0.00385265
0.00374779
0.00407103
0.00472413
0.00611966
0.00769362
0.00880273
0.00934163
0.00961373
0.0101612
0.0115832
0.0125722
0.0129035
0.0143169
0.0194913
0.0348652
0.0737522
0.135196
0.16526
0.16905
0.154729
0.16189
0.186451
0.202083
0.244115
0.258788
0.00894498
0.0482287
0.105192
0.0731587
0.0413523
0.0191712
0.00928023
0.00490999
0.00376283
0.0036248
0.00368657
0.00407222
0.00475969
0.00613127
0.00763906
0.00870274
0.00921813
0.00949181
0.0100938
0.011738
0.0130777
0.0133852
0.0148272
0.0208731
0.0392651
0.0810999
0.141625
0.171619
0.174284
0.159875
0.168418
0.196086
0.212238
0.257694
0.270329
0.0093615
0.0483007
0.0963137
0.0607873
0.0311793
0.0131236
0.00609137
0.00364656
0.00329966
0.00344331
0.00360283
0.00403793
0.00476898
0.00611275
0.00753318
0.00853238
0.00901978
0.00930556
0.00996927
0.0117656
0.0133871
0.0137403
0.0152823
0.0223698
0.0443109
0.0891038
0.148425
0.178383
0.179813
0.16538
0.175474
0.206578
0.223215
0.272444
0.282666
0.0096768
0.0443069
0.083481
0.0478766
0.021794
0.0082494
0.00391995
0.00285487
0.00294225
0.00322762
0.0034448
0.00393646
0.00473112
0.00604931
0.00737294
0.0082997
0.0087662
0.00908721
0.00983199
0.0117147
0.0135028
0.0139465
0.0156726
0.0239987
0.0500871
0.0978147
0.155647
0.185605
0.185678
0.171299
0.183124
0.218035
0.235105
0.288499
0.295887
0.00988074
0.0362369
0.0671655
0.035127
0.013704
0.00469964
0.00258549
0.00230652
0.00258706
0.00291997
0.00317821
0.00374272
0.00462082
0.00591594
0.00714222
0.00799501
0.00845786
0.00885059
0.00971402
0.0116328
0.0134534
0.0139997
0.0159971
0.0257872
0.0566896
0.107305
0.163361
0.193347
0.191927
0.177693
0.191441
0.230569
0.248004
0.305996
0.31008
4.88286e-24
3.15389e-19
1.14925e-18
4.35275e-18
2.51801e-17
3.17043e-14
9.08561e-11
0.015103
0.0704658
0.0808935
0.0901971
0.0924699
0.092333
0.093121
0.0841145
0.0832782
0.0807666
0.0799849
0.0654996
0.0594666
0.0304276
0.0121551
4.9967e-24
7.3968e-20
8.38146e-20
6.28972e-18
6.29221e-17
2.47687e-13
9.31473e-10
0.0281556
0.0824713
0.0858589
0.0901879
0.0917808
0.0915065
0.0929849
0.0840652
0.0834321
0.0812537
0.0798671
0.0649625
0.0594345
0.030012
0.0122126
5.10267e-24
2.76659e-19
8.78255e-19
8.91617e-18
1.22629e-16
9.32299e-13
9.37007e-09
0.0436419
0.0932206
0.0899592
0.0900719
0.0912229
0.0908697
0.0930008
0.0841705
0.0836896
0.0818395
0.0797662
0.0647181
0.0589981
0.0294944
0.0123785
5.06251e-24
5.72689e-20
2.14728e-20
6.84869e-18
1.9237e-16
2.28137e-12
1.69651e-07
0.0599829
0.102576
0.0933528
0.0900328
0.0908443
0.0904528
0.0931912
0.0844494
0.0840369
0.0824963
0.0796846
0.064753
0.0581865
0.0289091
0.0126433
5.16621e-24
2.21323e-19
6.31734e-19
7.22045e-18
2.87842e-16
3.60649e-12
6.52671e-06
0.0747402
0.110564
0.0961937
0.0901981
0.0906815
0.0902854
0.0935458
0.0848874
0.084465
0.0831939
0.079621
0.0650336
0.0570696
0.0283017
0.0129983
5.11451e-24
4.59296e-20
1.20612e-20
4.61007e-18
4.09272e-16
4.86528e-12
1.85325e-05
0.0852296
0.117273
0.0986426
0.0906724
0.090775
0.0903917
0.0940932
0.0855064
0.0849656
0.0839018
0.0795702
0.0655231
0.0557053
0.0276822
0.0134605
5.22965e-24
1.78696e-19
4.72982e-19
4.62951e-18
5.79404e-16
5.05202e-12
3.42281e-05
0.0901452
0.122828
0.100829
0.091514
0.0911525
0.0907937
0.0948258
0.0862937
0.08554
0.0845931
0.0795285
0.0661673
0.0541776
0.0270765
0.0140438
5.17063e-24
3.80444e-20
7.87684e-21
2.7769e-18
7.71276e-16
4.36977e-12
2.56034e-05
0.0898426
0.127322
0.102872
0.0927715
0.0918466
0.0915074
0.0957769
0.0872769
0.086191
0.0852466
0.0794874
0.0669176
0.0525442
0.026482
0.014766
5.29828e-24
1.4666e-19
3.69265e-19
2.85711e-18
9.84342e-16
2.87518e-12
2.72128e-05
0.0856591
0.130825
0.104844
0.0944584
0.0928761
0.0925474
0.0969398
0.0884456
0.0869325
0.0858509
0.0794416
0.0677154
0.0508816
0.0259182
0.015631
5.2239e-24
3.24441e-20
5.8851e-21
1.68522e-18
1.14663e-15
1.68668e-12
3.50633e-05
0.0788358
0.133325
0.106802
0.0965883
0.0942662
0.0939229
0.0983483
0.0898312
0.0877788
0.0864059
0.0793831
0.0685175
0.0492329
0.0253757
0.0166421
5.35801e-24
1.2193e-19
2.97174e-19
1.8397e-18
1.25041e-15
8.51038e-13
3.98954e-05
0.0701372
0.134755
0.108749
0.0991448
0.0960289
0.0956434
0.0999934
0.0914249
0.0887534
0.0869243
0.0793094
0.069275
0.0476584
0.0248699
0.0177848
5.27148e-24
2.84294e-20
4.69022e-21
1.07964e-18
1.23764e-15
4.15985e-13
4.08937e-05
0.0602636
0.134952
0.110662
0.102115
0.0981848
0.0977152
0.101906
0.0932593
0.0898776
0.0874299
0.0792177
0.0699613
0.0461831