/*--------------------------------*- C++ -*----------------------------------*\
| =========                 |                                                 |
| \\      /  F ield         | OpenFOAM: The Open Source CFD Toolbox           |
|  \\    /   O peration     | Version:  v1912                                 |
|   \\  /    A nd           | Website:  www.openfoam.com                      |
|    \\/     M anipulation  |                                                 |
\*---------------------------------------------------------------------------*/
FoamFile
{
    version     2.0;
    format      ascii;
    class       volScalarField;
    location    "160";
    object      p;
}
// * * * * * * * * * * * * * * * * * * * * * * * * * * * * * * * * * * * * * //

dimensions      [0 2 -2 0 0 0 0];


internalField   nonuniform List<scalar> 
12441
(
8.27584
8.55235
9.34782
10.6954
12.4021
14.3896
16.9828
20.3485
24.51
29.5463
35.8209
43.5782
53.2402
64.966
80.6933
100.269
127.771
161.636
216.472
278.159
370.379
436.978
8.27584
8.55235
9.34782
10.6954
12.402
14.3896
16.9828
20.3484
24.5099
29.5461
35.8205
43.5776
53.2392
64.9644
80.6903
100.262
127.756
161.612
216.388
278.082
370.326
436.77
8.27582
8.55233
9.3478
10.6954
12.402
14.3895
16.9827
20.3482
24.5095
29.5456
35.8198
43.5764
53.2372
64.9609
80.6843
100.249
127.733
161.557
216.214
277.897
370.185
436.396
8.27579
8.5523
9.34778
10.6953
12.4019
14.3894
16.9825
20.3478
24.5091
29.5449
35.8188
43.5746
53.2343
64.9558
80.6755
100.229
127.701
161.474
216.033
277.615
369.93
435.815
8.27576
8.55227
9.34775
10.6952
12.4017
14.3893
16.9823
20.3474
24.5084
29.544
35.8174
43.5722
53.2303
64.949
80.6637
100.203
127.661
161.37
215.866
277.26
369.572
435.023
8.27572
8.55223
9.34772
10.6951
12.4016
14.3891
16.9821
20.3469
24.5076
29.5428
35.8156
43.5692
53.2253
64.9405
80.649
100.172
127.611
161.248
215.677
276.831
369.118
434.022
8.27567
8.55218
9.34768
10.695
12.4014
14.3889
16.9817
20.3463
24.5066
29.5414
35.8135
43.5656
53.2193
64.9303
80.6314
100.134
127.552
161.104
215.456
276.331
368.571
432.811
8.27561
8.55213
9.34763
10.6948
12.4011
14.3887
16.9814
20.3456
24.5055
29.5398
35.8111
43.5613
53.2123
64.9184
80.611
100.09
127.488
160.941
215.216
275.774
367.936
431.386
8.27555
8.55207
9.34758
10.6947
12.4009
14.3884
16.981
20.3448
24.5042
29.5379
35.8083
43.5565
53.2043
64.9049
80.5881
100.043
127.421
160.765
214.975
275.173
367.219
429.746
8.27547
8.55199
9.34752
10.6945
12.4005
14.3881
16.9805
20.3438
24.5028
29.5358
35.8051
43.5511
53.1953
64.8899
80.5638
99.9946
127.356
160.584
214.757
274.538
366.421
427.883
8.27539
8.55191
9.34745
10.6943
12.4002
14.3878
16.98
20.3428
24.5011
29.5334
35.8016
43.5451
53.1853
64.8735
80.5393
99.9494
127.303
160.413
214.585
273.881
365.54
425.791
8.2753
8.55183
9.34738
10.694
12.3998
14.3874
16.9794
20.3417
24.4994
29.5309
35.7977
43.5384
53.1744
64.8568
80.517
99.914
127.282
160.277
214.485
273.205
364.571
423.463
8.2752
8.55173
9.3473
10.6938
12.3994
14.3871
16.9788
20.3404
24.4974
29.5281
35.7935
43.5312
53.1628
64.8413
80.5033
99.9023
127.323
160.21
214.46
272.5
363.505
420.887
8.2751
8.55163
9.34721
10.6935
12.399
14.3866
16.9781
20.3391
24.4953
29.525
35.789
43.5234
53.1511
64.8305
80.508
99.9312
127.452
160.24
214.485
271.748
362.334
418.052
8.27498
8.55152
9.34712
10.6932
12.3985
14.3862
16.9774
20.3376
24.4931
29.5218
35.784
43.515
53.1405
64.83
80.541
100.013
127.679
160.365
214.505
270.921
361.047
414.945
8.27486
8.5514
9.34702
10.6929
12.398
14.3857
16.9766
20.3361
24.4906
29.5183
35.7787
43.5063
53.1332
64.846
80.6094
100.149
127.988
160.546
214.455
269.995
359.636
411.555
8.27473
8.55128
9.34691
10.6926
12.3975
14.3852
16.9758
20.3344
24.4881
29.5145
35.7731
43.4977
53.1327
64.883
80.7133
100.331
128.334
160.711
214.285
268.95
358.092
407.867
8.27459
8.55114
9.3468
10.6922
12.3969
14.3846
16.9749
20.3327
24.4853
29.5106
35.767
43.4901
53.1429
64.9423
80.8459
100.537
128.647
160.783
213.971
267.777
356.412
403.868
8.27444
8.551
9.34667
10.6918
12.3963
14.3841
16.974
20.3308
24.4824
29.5063
35.7605
43.485
53.1668
65.0197
80.9933
100.735
128.858
160.71
213.517
266.473
354.591
399.544
8.27429
8.55086
9.34654
10.6914
12.3956
14.3834
16.973
20.3288
24.4794
29.5019
35.7536
43.4846
53.2039
65.1088
81.1384
100.891
128.913
160.486
212.944
265.042
352.627
394.88
8.27412
8.5507
9.34641
10.691
12.395
14.3828
16.972
20.3267
24.4761
29.4972
35.7467
43.4913
53.2518
65.1999
81.2613
100.975
128.799
160.14
212.28
263.492
350.52
389.861
8.27395
8.55053
9.34626
10.6905
12.3943
14.3821
16.9709
20.3245
24.4728
29.4922
35.74
43.5064
53.3049
65.2851
81.3464
100.972
128.538
159.717
211.55
261.83
348.27
384.472
8.27377
8.55036
9.34611
10.6901
12.3935
14.3814
16.9697
20.3223
24.4692
29.4869
35.7343
43.5293
53.3587
65.3547
81.3824
100.883
128.179
159.258
210.769
260.067
345.881
378.694
8.27359
8.55018
9.34595
10.6896
12.3928
14.3807
16.9685
20.3199
24.4655
29.4814
35.7307
43.5575
53.4071
65.4041
81.3679
100.723
127.777
158.786
209.946
258.211
343.353
372.512
8.27339
8.55
9.34578
10.6891
12.392
14.3799
16.9673
20.3174
24.4616
29.4756
35.7302
43.588
53.448
65.4281
81.3073
100.515
127.371
158.309
209.087
256.272
340.691
365.906
8.27319
8.5498
9.3456
10.6885
12.3911
14.3791
16.966
20.3148
24.4576
29.4695
35.7336
43.6176
53.477
65.428
81.2123
100.284
126.986
157.825
208.191
254.26
337.897
358.856
8.27298
8.5496
9.34542
10.688
12.3903
14.3783
16.9646
20.3121
24.4534
29.4633
35.7408
43.6438
53.4948
65.4043
81.0938
100.047
126.626
157.33
207.259
252.183
334.974
351.341
8.27276
8.54939
9.34523
10.6874
12.3894
14.3774
16.9632
20.3093
24.449
29.4571
35.7513
43.6648
53.499
65.3629
80.9638
99.8153
126.286
156.82
206.291
250.05
331.923
343.336
8.27254
8.54917
9.34503
10.6868
12.3884
14.3765
16.9617
20.3064
24.4444
29.451
35.7632
43.6795
53.4923
65.3066
80.8292
99.5935
125.961
156.293
205.285
247.867
328.745
334.816
8.2723
8.54894
9.34482
10.6862
12.3875
14.3755
16.9602
20.3033
24.4397
29.4451
35.7752
43.6875
53.4738
65.2417
80.6957
99.3811
125.641
155.748
204.241
245.639
325.437
325.754
8.27206
8.54871
9.3446
10.6856
12.3865
14.3746
16.9586
20.3002
24.4348
29.4394
35.7859
43.6888
53.4473
65.1701
80.5647
99.1766
125.323
155.185
203.159
243.367
321.996
316.119
8.27181
8.54847
9.34437
10.6849
12.3855
14.3736
16.957
20.297
24.4297
29.4341
35.7945
43.6835
53.4124
65.0961
80.4375
98.9769
125.002
154.604
202.04
241.054
318.414
305.88
8.27156
8.54821
9.34414
10.6842
12.3844
14.3725
16.9553
20.2936
24.4244
29.4294
35.8004
43.6723
53.3729
65.0197
80.3129
98.7799
124.677
154.007
200.882
238.697
314.682
295.001
8.27129
8.54796
9.34389
10.6836
12.3833
14.3714
16.9535
20.2902
24.419
29.4253
35.8033
43.6558
53.3283
64.9437
80.191
98.5835
124.346
153.394
199.688
236.297
310.79
283.448
8.27102
8.54769
9.34364
10.6828
12.3822
14.3703
16.9517
20.2866
24.4133
29.422
35.8032
43.6349
53.2816
64.8668
80.0698
98.3865
124.009
152.767
198.456
233.853
306.725
271.179
8.27074
8.54742
9.34338
10.6821
12.3811
14.3692
16.9499
20.283
24.4075
29.4195
35.8002
43.6102
53.2319
64.7908
79.9494
98.1874
123.665
152.125
197.187
231.367
302.477
258.156
8.27045
8.54714
9.34311
10.6813
12.3799
14.368
16.948
20.2792
24.4016
29.4182
35.7947
43.5826
53.1818
64.7142
79.8284
97.986
123.315
151.471
195.882
228.842
298.033
244.334
8.27016
8.54685
9.34283
10.6806
12.3787
14.3668
16.946
20.2753
24.3958
29.4186
35.7872
43.5527
53.1298
64.6385
79.7071
97.7815
122.957
150.803
194.542
226.281
293.384
229.667
8.26986
8.54655
9.34254
10.6798
12.3775
14.3656
16.9439
20.2713
24.3906
29.4212
35.7779
43.5212
53.0782
64.5619
79.5841
97.5738
122.593
150.124
193.169
223.689
288.522
214.108
8.26955
8.54624
9.34224
10.679
12.3762
14.3643
16.9419
20.2672
24.3876
29.4261
35.7674
43.4886
53.0253
64.4861
79.4601
97.3627
122.223
149.433
191.765
221.072
283.442
197.604
8.26923
8.54593
9.34193
10.6781
12.3749
14.363
16.9397
20.263
24.3885
29.433
35.7558
43.4552
52.973
64.4094
79.3342
97.1484
121.847
148.73
190.333
218.434
278.143
180.102
8.26891
8.54561
9.34162
10.6773
12.3736
14.3616
16.9375
20.2588
24.3949
29.4418
35.7432
43.4214
52.9193
64.3336
79.2071
96.9307
121.465
148.017
188.877
215.777
272.623
161.556
8.26857
8.54528
9.34129
10.6764
12.3722
14.3602
16.9352
20.2552
24.4079
29.4519
35.7294
43.3875
52.8659
64.2568
79.0779
96.7102
121.078
147.291
187.402
213.097
266.858
141.878
8.26823
8.54494
9.34095
10.6755
12.3709
14.3588
16.9329
20.2539
24.427
29.4625
35.7145
43.3538
52.8114
64.1817
78.9482
96.4873
120.686
146.552
185.913
210.382
260.766
120.336
-15.8123
-40.7913
-47.3337
-30.0038
-20.3732
-15.8591
-13.3789
-9.67404
-3.57983
2.92395
5.18289
4.4904
4.02953
8.86408
15.8348
21.3477
22.8269
21.6359
19.2175
16.3454
13.452
11.3495
9.4365
7.02511
2.04972
2.09854
6.69331
9.53987
7.3191
5.44101
3.96862
3.07033
2.18623
1.20586
0.64437
-15.8737
-40.8358
-47.3815
-30.0009
-20.3607
-15.852
-13.376
-9.67308
-3.57902
2.92512
5.18714
4.50006
4.03985
8.87512
15.848
21.3632
22.8402
21.6439
19.2212
16.3481
13.4535
11.3488
9.43387
7.02475
2.05157
2.09321
6.68088
9.5356
7.31896
5.44129
3.96868
3.07032
2.18623
1.20588
0.644369
-15.9726
-40.9347
-47.4645
-29.9968
-20.3431
-15.842
-13.3732
-9.67312
-3.57776
2.9288
5.19745
4.51381
4.05396
8.89103
15.8703
21.3925
22.8699
21.668
19.2356
16.3547
13.4558
11.349
9.43349
7.02766
2.05569
2.088
6.66851
9.53149
7.31892
5.44163
3.96876
3.07032
2.18623
1.20591
0.644374
-16.1147
-41.0925
-47.578
-29.9971
-20.323
-15.8304
-13.3704
-9.67384
-3.57624
2.93344
5.20909
4.52837
4.0691
8.90798
15.8956
21.4284
22.9105
21.7051
19.2604
16.3658
13.4599
11.3517
9.4367
7.03455
2.06407
2.08639
6.6586
9.52789
7.31897
5.44201
3.96888
3.07036
2.18626
1.20595
0.644384
-16.2979
-41.3089
-47.7191
-30.0055
-20.3007
-15.8178
-13.3675
-9.67522
-3.57437
2.93893
5.21947
4.54139
4.08214
8.92207
15.9169
21.4597
22.9482
21.7426
19.2879
16.379
13.466
11.3571
9.44362
7.04566
2.07763
2.08858
6.65117
9.5249
7.31914
5.44245
3.96903
3.07041
2.18629
1.20601
0.6444
-16.5181
-41.5838
-47.8828
-30.0224
-20.2767
-15.8044
-13.3646
-9.67732
-3.57224
2.94505
5.22829
4.55225
4.09278
8.93373
15.9339
21.4842
22.9783
21.7741
19.3134
16.3932
13.4743
11.3653
9.45393
7.06063
2.09672
2.09479
6.64586
9.52244
7.3194
5.44291
3.96919
3.07049
2.18633
1.20608
0.64442
-16.771
-41.9143
-48.0633
-30.0471
-20.2523
-15.7908
-13.362
-9.68038
-3.57028
2.95121
5.23543
4.56137
4.10192
8.94475
15.9487
21.5032
23.0012
21.799
19.3357
16.4079
13.4852
11.3765
9.46713
7.07888
2.12142
2.10543
6.64234
9.52041
7.31975
5.4434
3.96937
3.07057
2.18638
1.20615
0.644442
-17.0526
-42.2945
-48.2552
-30.0788
-20.2293
-15.7782
-13.3601
-9.6846
-3.56919
2.95634
5.24059
4.56871
4.10984
8.95546
15.9618
21.5176
23.0177
21.8177
19.3545
16.4229
13.4984
11.3903
9.48258
7.09962
2.15148
2.12096
6.64033
9.51872
7.32016
5.4439
3.96954
3.07065
2.18643
1.20622
0.644464
-17.3582
-42.7151
-48.4539
-30.1166
-20.2093
-15.7674
-13.3595
-9.69012
-3.56966
2.95952
5.24337
4.57409
4.11598
8.96446
15.9717
21.5261
23.0271
21.8298
19.3691
16.4373
13.5129
11.406
9.49944
7.12195
2.18637
2.14177
6.63955
9.51727
7.32062
5.44438
3.96971
3.07073
2.18647
1.20628
0.644485
-17.6828
-43.1642
-48.6557
-30.159
-20.1934
-15.7593
-13.3607
-9.69694
-3.57217
2.9602
5.24365
4.57747
4.11984
8.9703
15.9766
21.5279
23.0286
21.8342
19.3778
16.449
13.5271
11.422
9.51662
7.14486
2.22517
2.16825
6.63979
9.51596
7.32109
5.44485
3.96985
3.07079
2.1865
1.20634
0.644502
-18.0211
-43.6289
-48.857
-30.2049
-20.1823
-15.7545
-13.364
-9.70499
-3.57689
2.95848
5.24183
4.57914
4.12147
8.97248
15.9762
21.5228
23.0226
21.831
19.3796
16.4562
13.5387
11.4364
9.53276
7.16724
2.26662
2.20068
6.64084
9.51469
7.32156
5.44529
3.96996
3.07083
2.18651
1.20639
0.644514
-18.3675
-44.0957
-49.0543
-30.2534
-20.1762
-15.7534
-13.3696
-9.71422
-3.58356
2.95466
5.23836
4.5796
4.12141
8.97174
15.9714
21.5122
23.0105
21.8213
19.3749
16.4578
13.546
11.4475
9.54637
7.18796
2.30914
2.23919
6.64263
9.51339
7.32202
5.44567
3.97003
3.07084
2.18651
1.20642
0.644519
-18.7161
-44.5515
-49.2437
-30.3037
-20.1754
-15.7562
-13.3777
-9.72467
-3.59171
2.94928
5.23395
4.57922
4.1203
8.96922
15.9634
21.4974
22.994
21.8071
19.3653
16.4543
13.5486
11.4541
9.55609
7.20602
2.35098
2.28356
6.64512
9.51199
7.32245
5.44601
3.97005
3.07081
2.18647
1.20643
0.644515
-19.0611
-44.9835
-49.4214
-30.3545
-20.18
-15.7631
-13.3884
-9.73641
-3.60087
2.94271
5.22893
4.57827
4.1187
8.96615
15.9536
21.4794
22.9743
21.7899
19.3525
16.4473
13.5473
11.4562
9.56123
7.22061
2.39034
2.33309
6.64844
9.51045
7.32284
5.44629
3.97002
3.07073
2.18641
1.20641
0.644502
-19.3963
-45.379
-49.5834
-30.4044
-20.1903
-15.7743
-13.4019
-9.74946
-3.61076
2.93538
5.22375
4.57678
4.11696
8.96324
15.9426
21.4587
22.9517
21.7703
19.3376
16.4381
13.5435
11.4548
9.56203
7.23149
2.4257
2.38632
6.65272
9.50874
7.32318
5.44649
3.96992
3.0706
2.18631
1.20637
0.644479
-19.7154
-45.7264
-49.7263
-30.4516
-20.2061
-15.7906
-13.4184
-9.76397
-3.62134
2.92738
5.21829
4.57474
4.11536
8.96103
15.9311
21.4356
22.9263
21.7485
19.3212
16.4276
13.5382
11.4513
9.55949
7.23899
2.45616
2.44103
6.65821
9.50685
7.32348
5.44663
3.96976
3.07042
2.18618
1.20629
0.644444
-20.0121
-46.0158
-49.8472
-30.4938
-20.2273
-15.8125
-13.4383
-9.78028
-3.63275
2.91886
5.21268
4.57197
4.114
8.95961
15.9188
21.4099
22.898
21.7243
19.3032
16.4163
13.5322
11.4466
9.55478
7.24393
2.48176
2.49439
6.66509
9.5048
7.32372
5.44669
3.96953
3.07018
2.18602
1.20619
0.644397
-20.2802
-46.2409
-49.9444
-30.5277
-20.2558
-15.8405
-13.4622
-9.79895
-3.64533
2.9096
5.20646
4.56832
4.11301
8.95915
15.906
21.3814
22.8664
21.6977
19.2837
16.4041
13.5258
11.4413
9.54883
7.24716
2.50347
2.54362
6.67354
9.50261
7.32391
5.44667
3.96922
3.06988
2.18581
1.20604
0.644339
-20.5137
-46.4003
-50.0179
-30.55
-20.2938
-15.8752
-13.491
-9.8208
-3.6596
2.89948
5.1996
4.56351
4.11229
8.95947
15.8923
21.35
22.8317
21.6685
19.2626
16.391
13.519
11.4356
9.54225
7.24933
2.52271
2.58661
6.68353
9.50033
7.32405
5.44657
3.96884
3.06952
2.18556
1.20587
0.644268
-20.7075
-46.4967
-50.0697
-30.5612
-20.3413
-15.9174
-13.5261
-9.84704
-3.67631
2.88797
5.19139
4.55721
4.11172
8.96047
15.8777
21.3156
22.7935
21.6368
19.2399
16.3771
13.5118
11.4298
9.53542
7.25085
2.54076
2.62247
6.69496
9.498
7.32415
5.44638
3.96837
3.06909
2.18527
1.20565
0.644185
-20.8575
-46.5357
-50.1025
-30.563
-20.3968
-15.9677
-13.5687
-9.87913
-3.69638
2.87481
5.18171
4.54893
4.11078
8.9616
15.8619
21.278
22.752
21.6026
19.2157
16.3624
13.5042
11.4237
9.52851
7.252
2.55853
2.65139
6.70755
9.49568
7.32421
5.44612
3.96784
3.06859
2.18494
1.2054
0.64409
-20.9612
-46.5247
-50.1175
-30.5574
-20.459
-16.0269
-13.6208
-9.91888
-3.72094
2.85929
5.16971
4.53801
4.10873
8.96224
15.8443
21.237
22.707
21.566
19.1901
16.347
13.4962
11.4175
9.52165
7.25294
2.57648
2.67435
6.72099
9.49343
7.32423
5.44577
3.96722
3.06802
2.18457
1.20511
0.643984
-21.0212
-46.4699
-50.1111
-30.5455
-20.5262
-16.0961
-13.6843
-9.9683
-3.75112
2.84129
5.15538
4.52353
4.1042
8.96103
15.824
21.1923
22.6586
21.5269
19.163
16.3309
13.4879
11.4111
9.51487
7.25387
2.59475
2.6926
6.73488
9.49133
7.32424
5.44533
3.96651
3.06738
2.18415
1.20477
0.643866
-21.0475
-46.3668
-50.0785
-30.5274
-20.597
-16.1765
-13.7615
-10.0297
-3.78818
2.82032
5.13808
4.50457
4.0956
8.95636
15.8002
21.1434
22.6067
21.4854
19.1347
16.3142
13.4792
11.4046
9.50822
7.25489
2.61333
2.70734
6.74892
9.48941
7.32421
5.44481
3.96573
3.06667
2.1837
1.2044
0.643738
-21.048
-46.2079
-50.0143
-30.502
-20.6701
-16.2696
-13.8552
-10.1054
-3.83315
2.79676
5.1185
4.48028
4.08106
8.9459
15.7711
21.09
22.5512
21.4416
19.105
16.2969
13.4703
11.3979
9.5017
7.25611
2.63218
2.7195
6.76277
9.48775
7.32418
5.4442
3.96487
3.06589
2.1832
1.20399
0.6436
-21.0226
-45.9937
-49.9077
-30.4661
-20.7443
-16.3776
-13.9683
-10.1977
-3.88692
2.77065
5.09672
4.4504
4.05939
8.92773
15.7352
21.0313
22.4922
21.3955
19.0739
16.279
13.4611
11.3911
9.49535
7.25757
2.65122
2.72977
6.77625
9.48639
7.32414
5.4435
3.96392
3.06504
2.18266
1.20353
0.643453
-20.9703
-45.7292
-49.7424
-30.4144
-20.8184
-16.502
-14.1036
-10.3082
-3.9495
2.74334
5.07444
4.41529
4.03005
8.90026
15.6909
20.9668
22.4296
21.3473
19.0416
16.2604
13.4517
11.3842
9.48915
7.25933
2.67043
2.73857
6.78917
9.48539
7.3241
5.4427
3.96289
3.06412
2.18208
1.20304
0.643297
-20.8916
-45.4211
-49.4986
-30.3394
-20.8918
-16.6444
-14.2623
-10.4372
-4.01998
2.71589
5.05245
4.37628
3.99397
8.86369
15.6374
20.896
22.3635
21.297
19.0078
16.2411
13.4419
11.3772
9.48312
7.26139
2.68975
2.7462
6.80148
9.4848
7.32407
5.44181
3.96177
3.06312
2.18146
1.2025
0.643135
-20.7881
-45.0777
-49.1584
-30.2321
-20.964
-16.8044
-14.4433
-10.5822
-4.09561
2.69101
5.03323
4.33535
3.95284
8.81911
15.575
20.8187
22.2938
21.2447
18.9726
16.2209
13.4317
11.3701
9.47725
7.26381
2.70918
2.75276
6.8131
9.48467
7.32405
5.44082
3.96057
3.06206
2.1808
1.20193
0.642965
-20.6618
-44.7112
-48.7121
-30.0844
-21.0356
-16.9804
-14.6426
-10.7384
-4.17208
2.67095
5.01783
4.29526
3.90958
8.76939
15.5059
20.7357
22.221
21.1907
18.9361
16.1998
13.4211
11.3628
9.47155
7.26658
2.72869
2.75833
6.82412
9.48505
7.32406
5.43973
3.95929
3.06092
2.1801
1.20131
0.64279
-20.5159
-44.3372
-48.1619
-29.8909
-21.1081
-17.1678
-14.8521
-10.8976
-4.24309
2.65931
5.00869
4.25882
3.86717
8.71729
15.4325
20.6485
22.1458
21.1353
18.8984
16.1776
13.41
11.3553
9.46602
7.26977
2.7483
2.76287
6.83455
9.48601
7.32411
5.43854
3.95792
3.05971
2.17936
1.20065
0.64261
-20.3561
-43.9733
-47.524
-29.6543
-21.1846
-17.3602
-15.0608
-11.0493
-4.30158
2.65819
5.00615
4.2288
3.82897
8.66648
15.3584
20.5595
22.0692
21.0791
18.8596
16.1544
13.3982
11.3476
9.46065
7.27338
2.76796
2.76634
6.84455
9.4876
7.3242
5.43724
3.95646
3.05843
2.17859
1.19994
0.642427
-20.1906
-43.6355
-46.8229
-29.3881
-21.2685
-17.5483
-15.2553
-11.1815
-4.34024
2.66968
5.01098
4.20671
3.79723
8.61922
15.286
20.4707
21.9925
21.0227
18.8202
16.13
13.3857
11.3397
9.45544
7.27748
2.78766
2.76861
6.85421
9.4899
7.32434
5.43585
3.95492
3.05708
2.17778
1.1992
0.64224
-20.0305
-43.3376
-46.0881
-29.1192
-21.3641
-17.7227
-15.4229
-11.2832
-4.35394
2.69253
5.02076
4.1926
3.7736
8.57787
15.2174
20.3842
21.917
20.9668
18.7807
16.1047
13.3724
11.3315
9.4504
7.28207
2.80736
2.76959
6.86375
9.49297
7.32455
5.43434
3.95329
3.05566
2.17694
1.19841
0.642052
-19.8866
-43.0902
-45.3511
-28.8823
-21.4741
-17.874
-15.5528
-11.346
-4.34099
2.72348
5.03217
4.1842
3.75774
8.54249
15.1529
20.3006
21.8436
20.9121
18.7415
16.0788
13.3583
11.323
9.44555
7.28727
2.82703
2.76907
6.8733
9.49692
7.32483
5.43272
3.95158
3.05416
2.17606
1.19758
0.641861
-19.7675
-42.9051
-44.645
-28.7121
-21.6001
-17.9967
-15.6396
-11.3671
-4.30538
2.75521
5.03885
4.17798
3.74857
8.51307
15.0926
20.2204
21.7726
20.8588
18.703
16.0525
13.3435
11.3142
9.44088
7.29308
2.84659
2.76694
6.88312
9.5018
7.32518
5.43099
3.94977
3.0526
2.17514
1.1967
0.64167
-19.6775
-42.7973
-43.9996
-28.6323
-21.7404
-18.0888
-15.6832
-11.3492
-4.25612
2.7794
5.03519
4.1697
3.74357
8.48758
15.0352
20.1426
21.7035
20.8069
18.6654
16.0263
13.328
11.3051
9.43641
7.29962
2.866
2.76297
6.89333
9.50774
7.32564
5.42915
3.94786
3.05095
2.17418
1.19577
0.641477
-19.6159
-42.7847
-43.4375
-28.652
-21.8921
-18.1528
-15.6883
-11.3013
-4.20584
2.78782
5.0165
4.15628
3.74071
8.46492
14.98
20.0664
21.6358
20.756
18.6286
16.0005
13.3121
11.2958
9.43218
7.30692
2.88515
2.75698
6.90421
9.51481
7.32619
5.42719
3.94585
3.04923
2.17318
1.19478
0.641284
-19.5773
-42.8803
-42.9698
-28.7662
-22.0504
-18.1933
-15.6619
-11.2363
-4.16644
2.77634
4.98199
4.13605
3.73809
8.44303
14.925
19.9905
21.5686
20.7056
18.5925
15.9752
13.296
11.2862
9.42822
7.31514
2.90397
2.7487
6.91594
9.52317
7.32685
5.42509
3.94372
3.04741
2.17213
1.19373
0.641089
-19.5544
-43.0792
-42.5996
-28.9618
-22.2107
-18.2154
-15.6117
-11.17
-4.14538
2.74491
4.933
4.10968
3.7357
8.42161
14.8697
19.9141
21.5011
20.6551
18.5567
15.9504
13.2799
11.2766
9.42456
7.32427
2.9222
2.73796
6.92889
9.53292
7.32762
5.42285
3.94147
3.04549
2.17103
1.19262
0.640894
-19.5428
-43.3388
-42.3234
-29.2214
-22.3679
-18.221
-15.5464
-11.1169
-4.14305
2.69742
4.87384
4.07985
3.73421
8.39939
14.8123
19.8358
21.4326
20.6044
18.5211
15.9262
13.2641
11.2669
9.42114
7.33436
2.93979
2.7246
6.94303
9.544
7.32847
5.42045
3.93908
3.04346
2.16987
1.19142
0.640695
-19.5421
-43.5601
-42.1325
-29.5243
-22.5149
-18.2082
-15.4795
-11.0838
-4.15441
2.63967
4.81051
4.05129
3.73476
8.37543
14.7515
19.7554
21.3631
20.5532
18.4855
15.9025
13.2485
11.2571
9.41772
7.34532
2.9569
2.70869
6.95735
9.55573
7.32932
5.41792
3.93654
3.04128
2.16864
1.19014
0.640491
-19.5191
-43.5853
-42.0053
-29.8459
-22.6407
-18.1773
-15.427
-11.0671
-4.17229
2.58031
4.7518
4.02767
3.73431
8.34479
14.6846
19.6725
21.2929
20.5019
18.45
15.8788
13.2325
11.2467
9.41416
7.35774
2.97423
2.68961
6.9701
9.56769
7.33021
5.41524
3.93384
3.03895
2.16733
1.18876
0.640276
-19.3249
-43.2712
-41.9105
-30.1682
-22.7367
-18.1416
-15.3972
-11.0598
-4.19175
2.52533
4.70042
4.00556
3.7247
8.30261
14.6124
19.5905
21.2249
20.452
18.4149
15.8548
13.2159
11.2359
9.41175
7.37335
2.98957
2.66464
6.98969
9.58643
7.33205
5.41214
3.93085
3.03649
2.16597
1.18729
0.640083
8.26796
8.54467
9.34067
10.6748
12.3698
14.3576
16.931
20.2592
24.4456
29.4704
35.7019
43.3281
52.7709
64.1247
78.8477
96.3123
120.378
145.959
184.747
208.228
255.737
98.7066
8.26776
8.54448
9.34047
10.6743
12.369
14.3568
16.9296
20.2693
24.4595
29.4748
35.6919
43.3099
52.7418
64.0871
78.777
96.1845
120.15
145.519
183.895
206.659
251.896
95.8371
8.26755
8.54427
9.34026
10.6737
12.3682
14.3558
16.9281
20.2821
24.4712
29.4768
35.6809
43.2915
52.714
64.0479
78.7041
96.0527
119.913
145.059
183.019
205.027
247.897
97.5591
8.26733
8.54405
9.34003
10.6731
12.3673
14.3549
16.9266
20.2952
24.4804
29.4769
35.6695
43.2728
52.6846
64.0085
78.6297
95.9154
119.665
144.579
182.119
203.329
243.784
97.4883
8.2671
8.54382
9.3398
10.6725
12.3664
14.3539
16.925
20.3065
24.4874
29.4756
35.6582
43.2541
52.656
63.9665
78.5518
95.7721
119.405
144.079
181.19
201.564
239.548
95.734
8.26685
8.54358
9.33955
10.6719
12.3654
14.3529
16.9232
20.3138
24.4925
29.4732
35.6471
43.2353
52.6261
63.9242
78.4718
95.6221
119.131
143.555
180.224
199.733
235.185
93.7226
8.2666
8.54332
9.3393
10.6712
12.3644
14.3518
16.9214
20.3159
24.4958
29.4698
35.6364
43.2166
52.5972
63.8793
78.3881
95.4651
118.841
143.007
179.218
197.839
230.7
91.8501
8.26632
8.54306
9.33903
10.6704
12.3633
14.3506
16.9195
20.3128
24.4973
29.4657
35.6262
43.198
52.567
63.834
78.3018
95.3005
118.535
142.434
178.165
195.883
226.097
89.9544
8.26603
8.54277
9.33874
10.6697
12.3621
14.3494
16.9174
20.3057
24.4971
29.461
35.6165
43.1796
52.5377
63.7859
78.2113
95.1281
118.21
141.835
177.059
193.865
221.382
87.938
8.26573
8.54247
9.33844
10.6688
12.3609
14.3481
16.9152
20.2957
24.4952
29.4558
35.6072
43.1612
52.5071
63.7373
78.1178
94.9474
117.866
141.208
175.895
191.785
216.559
85.8252
8.26541
8.54215
9.33812
10.668
12.3595
14.3468
16.913
20.2838
24.4915
29.45
35.5982
43.143
52.4772
63.6857
78.0197
94.7583
117.502
140.552
174.668
189.643
211.633
83.6513
8.26507
8.54182
9.33779
10.6671
12.3581
14.3453
16.9105
20.2702
24.4857
29.4436
35.5896
43.1248
52.4459
63.6334
77.9181
94.5602
117.118
139.865
173.374
187.438
206.609
81.4272
8.26471
8.54146
9.33744
10.6661
12.3567
14.3438
16.908
20.2558
24.4774
29.4364
35.5809
43.1067
52.4149
63.5778
77.8112
94.3529
116.713
139.145
172.008
185.169
201.493
79.1572
8.26434
8.54109
9.33706
10.6651
12.3551
14.3422
16.9052
20.2411
24.4663
29.4281
35.5722
43.0886
52.3824
63.5211
77.7002
94.136
116.287
138.392
170.569
182.835
196.29
76.8502
8.26394
8.54069
9.33666
10.664
12.3535
14.3405
16.9023
20.2267
24.452
29.4183
35.563
43.0704
52.3501
63.4608
77.5834
93.909
115.84
137.605
169.053
180.433
191.005
74.5189
8.26352
8.54027
9.33624
10.6629
12.3517
14.3388
16.8993
20.2131
24.434
29.4067
35.553
43.052
52.3159
63.3988
77.4617
93.6714
115.37
136.78
167.459
177.964
185.643
72.1767
8.26307
8.53982
9.33579
10.6617
12.3499
14.3369
16.896
20.2008
24.4122
29.3924
35.5416
43.0333
52.2817
63.3328
77.3333
93.4226
114.877
135.918
165.786
175.425
180.209
69.838
8.2626
8.53935
9.33531
10.6604
12.3479
14.3348
16.8926
20.1897
24.3868
29.3749
35.5282
43.0139
52.2455
63.2647
77.1992
93.1618
114.36
135.017
164.033
172.815
174.707
67.5168
8.2621
8.53885
9.3348
10.6591
12.3458
14.3327
16.889
20.1799
24.3582
29.3534
35.5118
42.9937
52.2091
63.1919
77.0575
92.8884
113.818
134.076
162.2
170.132
169.142
65.2265
8.26157
8.53832
9.33425
10.6576
12.3436
14.3304
16.8851
20.171
24.3274
29.3271
35.4912
42.9719
52.1704
63.1165
76.909
92.6016
113.25
133.092
160.286
167.376
163.517
62.9777
8.26101
8.53775
9.33367
10.6562
12.3413
14.328
16.881
20.1627
24.2958
29.2955
35.4651
42.9477
52.131
63.036
76.7519
92.3006
112.654
132.065
158.291
164.544
157.837
60.7775
8.26041
8.53715
9.33305
10.6546
12.3388
14.3254
16.8767
20.1545
24.2647
29.2586
35.4316
42.9197
52.0888
62.9521
76.5869
91.9845
112.029
130.992
156.215
161.636
152.109
58.629
8.25978
8.53651
9.33238
10.6529
12.3362
14.3227
16.872
20.1461
24.2355
29.2169
35.3892
42.886
52.0449
62.8626
76.4121
91.6524
111.373
129.872
154.056
158.649
146.337
56.5298
8.25912
8.53583
9.33167
10.6511
12.3335
14.3198
16.8671
20.1375
24.2087
29.1718
35.3364
42.8437
51.996
62.7691
76.2282
91.3034
110.686
128.702
151.814
155.583
140.529
54.4725
8.25841
8.53511
9.33091
10.6493
12.3306
14.3167
16.8618
20.1283
24.1846
29.1248
35.273
42.7894
51.9419
62.6689
76.0331
90.9366
109.964
127.48
149.488
152.435
134.693
52.4444
8.25766
8.53434
9.33009
10.6473
12.3275
14.3134
16.8562
20.1186
24.1625
29.0778
35.1997
42.719
51.8773
62.5632
75.8276
90.5509
109.207
126.205
147.078
149.204
128.839
50.4279
8.25686
8.53352
9.32921
10.6452
12.3242
14.3098
16.8503
20.1083
24.1417
29.0323
35.1191
42.6291
51.7985
62.4479
75.6093
90.1455
108.414
124.874
144.582
145.888
122.978
48.402
8.25602
8.53265
9.32827
10.643
12.3207
14.3061
16.8439
20.0972
24.1215
28.9889
35.0344
42.5181
51.6964
62.3218
75.3784
89.7194
107.582
123.486
141.999
142.486
117.121
46.3427
8.25512
8.53172
9.32726
10.6407
12.3171
14.302
16.8371
20.0855
24.1012
28.9479
34.9491
42.3879
51.5642
62.1769
75.1312
89.2714
106.711
122.037
139.329
138.994
111.282
44.2249
8.25416
8.53073
9.32618
10.6382
12.3132
14.2977
16.8299
20.073
24.0803
28.9087
34.8662
42.2435
51.3938
62.0062
74.8651
88.7999
105.799
120.527
136.572
135.413
105.475
42.024
8.25315
8.52968
9.32501
10.6356
12.3091
14.2931
16.8223
20.0597
24.0584
28.8706
34.7871
42.0924
51.1844
61.7959
74.5719
88.3024
104.846
118.954
133.727
131.74
99.7121
39.7168
8.25207
8.52855
9.32376
10.6328
12.3047
14.2882
16.8141
20.0455
24.0354
28.8325
34.7119
41.9417
50.9408
61.5351
74.2416
87.7746
103.85
117.315
130.794
127.976
94.0091
37.2836
8.25092
8.52735
9.32241
10.6299
12.3001
14.2829
16.8054
20.0305
24.011
28.7935
34.6395
41.7965
50.676
61.215
73.8576
87.2095
102.807
115.61
127.775
124.119
88.3797
34.7087
8.2497
8.52607
9.32096
10.6268
12.2952
14.2773
16.7961
20.0145
23.9851
28.7529
34.5684
41.6584
50.4047
60.8393
73.4042
86.5958
101.716
113.836
124.669
120.171
82.8375
31.982
8.24839
8.5247
9.3194
10.6235
12.29
14.2713
16.7862
19.9975
23.9575
28.7102
34.4967
41.5265
50.1397
60.4214
72.8684
85.9182
100.569
111.993
121.479
116.134
77.3953
29.0993
8.24701
8.52324
9.31772
10.62
12.2845
14.2648
16.7757
19.9794
23.9283
28.6652
34.4228
41.3979
49.8871
59.9835
72.2515
85.1599
99.3579
110.079
118.206
112.01
72.065
26.0631
8.24553
8.52168
9.31592
10.6163
12.2787
14.2579
16.7645
19.9602
23.8972
28.6174
34.3455
41.2691
49.6471
59.5461
71.5693
84.308
98.0703
108.092
114.855
107.803
66.8575
22.8828
8.24396
8.52002
9.31397
10.6123
12.2725
14.2505
16.7525
19.9397
23.8641
28.5665
34.2642
41.1369
49.4148
59.1225
70.8509
83.3612
96.6945
106.031
111.431
103.52
61.783
19.5736
8.24228
8.51823
9.31188
10.6082
12.266
14.2425
16.7397
19.9179
23.829
28.5125
34.1783
40.9989
49.1837
58.7148
70.1256
82.3332
95.2222
103.894
107.945
99.1699
56.8514
16.1571
8.24049
8.51633
9.30962
10.6037
12.259
14.234
16.726
19.8947
23.7917
28.4551
34.0871
40.8537
48.9473
58.317
69.413
81.2504
93.6542
101.686
104.41
94.764
52.073
12.6596
8.23858
8.51429
9.30719
10.599
12.2516
14.2249
16.7114
19.8701
23.752
28.394
33.9904
40.7004
48.7011
57.9185
68.7173
80.1417
92.0022
99.4111
100.848
90.3203
47.4597
9.11152
8.23654
8.51211
9.30457
10.594
12.2438
14.2151
16.6958
19.8438
23.7099
28.3291
33.8877
40.538
48.4422
57.5095
68.0292
79.0269
90.2862
97.079
97.2855
85.8627
43.0253
5.54654
8.23437
8.50977
9.30176
10.5887
12.2355
14.2046
16.6791
19.8159
23.665
28.26
33.7786
40.366
48.1691
57.0826
67.3333
77.9112
88.5272
94.6995
93.753
81.4226
38.7871
2.00116
8.23204
8.50727
9.29872
10.5831
12.2266
14.1933
16.6613
19.7861
23.6173
28.1864
33.6627
40.1836
47.8805
56.6334
66.6149
76.7857
86.74
92.2775
90.2774
77.0379
34.7648
-1.48593
8.22956
8.5046
9.29545
10.577
12.2172
14.1812
16.6423
19.7544
23.5665
28.1082
33.5397
39.9902
47.5755
56.1599
65.8636
75.6344
84.9291
89.8102
86.8728
72.749
30.9802
-4.87437
8.22691
8.50173
9.29192
10.5706
12.2072
14.1683
16.622
19.7206
23.5126
28.025
33.409
39.7851
47.253
55.6607
65.0741
74.4412
83.0882
87.2896
83.5305
68.5914
27.4536
-8.12313
8.22408
8.49866
9.28813
10.5638
12.1966
14.1544
16.6002
19.6846
23.4551
27.9364
33.2703
39.5678
46.912
55.1345
64.245
73.1954
81.2035
84.7089
80.218
64.5838
24.2
-11.1921
8.22104
8.49537
9.28403
10.5566
12.1853
14.1394
16.577
19.6462
23.394
27.8422
33.1229
39.3374
46.5515
54.5799
63.3759
71.8924
79.2602
82.0651
76.8916
60.7183
21.2217
-14.0445
8.2178
8.49184
9.27963
10.5489
12.1733
14.1234
16.5521
19.6053
23.3289
27.742
32.9664
39.0933
46.1705
53.9955
62.4661
70.5325
77.2485
79.3563
73.5179
56.9584
18.502
-16.6508
8.21433
8.48806
9.27487
10.5406
12.1605
14.1062
16.5255
19.5617
23.2596
27.6353
32.8002
38.8347
45.7682
53.3802
61.5145
69.117
75.1672
76.58
70.0854
53.2527
15.9992
-18.9925
8.21062
8.48401
9.26976
10.5319
12.1469
14.0878
16.497
19.5152
23.1859
27.5218
32.6238
38.5608
45.3435
52.7327
60.5201
67.647
73.0208
73.7363
66.6012
49.5593
13.6519
-21.0669
8.20665
8.47966
9.26425
10.5225
12.1324
14.068
16.4665
19.4657
23.1075
27.4011