/*--------------------------------*- C++ -*----------------------------------*\
| =========                 |                                                 |
| \\      /  F ield         | OpenFOAM: The Open Source CFD Toolbox           |
|  \\    /   O peration     | Version:  v1912                                 |
|   \\  /    A nd           | Website:  www.openfoam.com                      |
|    \\/     M anipulation  |                                                 |
\*---------------------------------------------------------------------------*/
FoamFile
{
    version     2.0;
    format      ascii;
    class       surfaceScalarField;
    location    "160";
    object      phi;
}
// * * * * * * * * * * * * * * * * * * * * * * * * * * * * * * * * * * * * * //

dimensions      [0 3 -1 0 0 0 0];
oriented        oriented;


internalField   nonuniform List<scalar> 
24588
(
6.81681e-05
2.03788e-08
6.8118e-05
5.42176e-08
6.80353e-05
7.72592e-08
6.79244e-05
1.08386e-07
6.7783e-05
1.44089e-07
6.75982e-05
1.8822e-07
6.73673e-05
2.27909e-07
6.70777e-05
2.85417e-07
6.67196e-05
3.61955e-07
6.62651e-05
4.55528e-07
6.57022e-05
5.6211e-07
6.4988e-05
6.92009e-07
6.41752e-05
8.80016e-07
6.29717e-05
1.13651e-06
6.1537e-05
1.45806e-06
5.92559e-05
2.27321e-06
5.64587e-05
2.79913e-06
5.19056e-05
4.55262e-06
4.5437e-05
6.46858e-06
3.4364e-05
1.10733e-05
2.05325e-05
1.38316e-05
2.05325e-05
6.81678e-05
4.2102e-08
6.81166e-05
1.10885e-07
6.80361e-05
1.50373e-07
6.79268e-05
2.14263e-07
6.77827e-05
2.91917e-07
6.75972e-05
3.78071e-07
6.73679e-05
4.53286e-07
6.70797e-05
5.68577e-07
6.67208e-05
7.25512e-07
6.62646e-05
9.1296e-07
6.57028e-05
1.12288e-06
6.49804e-05
1.38928e-06
6.41821e-05
1.75133e-06
6.29614e-05
2.29129e-06
6.15366e-05
2.90698e-06
5.93212e-05
4.48138e-06
5.64731e-05
5.65069e-06
5.18703e-05
9.15485e-06
4.5473e-05
1.2866e-05
3.42621e-05
2.22846e-05
2.04818e-05
2.7612e-05
4.10142e-05
6.81678e-05
6.3731e-08
6.81167e-05
1.67448e-07
6.80359e-05
2.24078e-07
6.79266e-05
3.20304e-07
6.77827e-05
4.39313e-07
6.75973e-05
5.6768e-07
6.73679e-05
6.78978e-07
6.70796e-05
8.51827e-07
6.67209e-05
1.08882e-06
6.62647e-05
1.37038e-06
6.57024e-05
1.68421e-06
6.49819e-05
2.0838e-06
6.41835e-05
2.6287e-06
6.29662e-05
3.42963e-06
6.15331e-05
4.36691e-06
5.93486e-05
6.65645e-06
5.64691e-05
8.53449e-06
5.18881e-05
1.37348e-05
4.54415e-05
1.93126e-05
3.42736e-05
3.34531e-05
2.0496e-05
4.13896e-05
6.15102e-05
6.81678e-05
8.54175e-08
6.81168e-05
2.23848e-07
6.80363e-05
2.97018e-07
6.7927e-05
4.26272e-07
6.77828e-05
5.87223e-07
6.75974e-05
7.5733e-07
6.73681e-05
9.04321e-07
6.70798e-05
1.13528e-06
6.67208e-05
1.45253e-06
6.62647e-05
1.82767e-06
6.57027e-05
2.2452e-06
6.49804e-05
2.78084e-06
6.41794e-05
3.5015e-06
6.29604e-05
4.58535e-06
6.1529e-05
5.82142e-06
5.93724e-05
8.80605e-06
5.64947e-05
1.1416e-05
5.19031e-05
1.83257e-05
4.54243e-05
2.57915e-05
3.4295e-05
4.4583e-05
2.05246e-05
5.51599e-05
8.20349e-05
6.81679e-05
1.06934e-07
6.81169e-05
2.8001e-07
6.80361e-05
3.70718e-07
6.79267e-05
5.3251e-07
6.77829e-05
7.34584e-07
6.75976e-05
9.46617e-07
6.73681e-05
1.13005e-06
6.70798e-05
1.41886e-06
6.67209e-05
1.81604e-06
6.62647e-05
2.28504e-06
6.57022e-05
2.80677e-06
6.49825e-05
3.47502e-06
6.41822e-05
4.3821e-06
6.29687e-05
5.71961e-06
6.15301e-05
7.28732e-06
5.93778e-05
1.0949e-05
5.6519e-05
1.4279e-05
5.1903e-05
2.29406e-05
4.54394e-05
3.2255e-05
3.43347e-05
5.56883e-05
2.05684e-05
6.89262e-05
0.000102603
6.81678e-05
1.2857e-07
6.8117e-05
3.36078e-07
6.80367e-05
4.43331e-07
6.79272e-05
6.38578e-07
6.7783e-05
8.82686e-07
6.75978e-05
1.13605e-06
6.73685e-05
1.35527e-06
6.708e-05
1.70258e-06
6.67209e-05
2.18002e-06
6.62648e-05
2.7422e-06
6.57028e-05
3.36772e-06
6.49809e-05
4.17207e-06
6.41773e-05
5.25467e-06
6.296e-05
6.87745e-06
6.15236e-05
8.74556e-06
5.93809e-05
1.30851e-05
5.65382e-05
1.71254e-05
5.19118e-05
2.75665e-05
4.54682e-05
3.86988e-05
3.43942e-05
6.67628e-05
2.0629e-05
8.26914e-05
0.000123232
6.8168e-05
1.49993e-07
6.81171e-05
3.91839e-07
6.80364e-05
5.16874e-07
6.79269e-05
7.45007e-07
6.77831e-05
1.03012e-06
6.75979e-05
1.32501e-06
6.73685e-05
1.58094e-06
6.708e-05
1.98642e-06
6.6721e-05
2.54378e-06
6.62649e-05
3.19952e-06
6.57025e-05
3.92917e-06
6.49837e-05
4.8661e-06
6.41815e-05
6.13696e-06
6.29709e-05
8.00749e-06
6.15272e-05
1.0217e-05
5.93728e-05
1.52303e-05
5.65538e-05
1.9948e-05
5.1926e-05
3.2193e-05
4.55088e-05
4.51159e-05
3.44778e-05
7.77944e-05
2.07081e-05
9.64611e-05
0.00014394
6.81678e-05
1.71583e-07
6.81172e-05
4.47591e-07
6.8037e-05
5.89146e-07
6.79275e-05
8.51154e-07
6.77833e-05
1.17843e-06
6.75981e-05
1.51423e-06
6.73689e-05
1.80603e-06
6.70803e-05
2.27037e-06
6.6721e-05
2.90801e-06
6.62651e-05
3.65651e-06
6.57033e-05
4.48985e-06
6.49816e-05
5.56318e-06
6.41754e-05
7.00803e-06
6.29597e-05
9.16816e-06
6.15137e-05
1.16842e-05
5.93633e-05
1.73754e-05
5.65722e-05
2.27419e-05
5.19574e-05
3.68075e-05
4.55678e-05
5.15058e-05
3.45912e-05
8.87714e-05
2.08086e-05
0.000110244
0.000164749
6.8168e-05
1.92918e-07
6.81173e-05
5.03007e-07
6.80367e-05
6.6258e-07
6.79271e-05
9.57709e-07
6.77833e-05
1.32591e-06
6.75983e-05
1.70292e-06
6.73689e-05
2.03168e-06
6.70803e-05
2.55443e-06
6.67211e-05
3.27199e-06
6.6265e-05
4.11378e-06
6.57027e-05
5.05126e-06
6.4985e-05
6.25712e-06
6.41796e-05
7.89531e-06
6.2965e-05
1.03037e-05
6.15007e-05
1.31722e-05
5.93594e-05
1.951e-05
5.65627e-05
2.55403e-05
5.20129e-05
4.13562e-05
4.56492e-05
5.78693e-05
3.47395e-05
9.96814e-05
2.09331e-05
0.00012405
0.000185682
6.81679e-05
2.14453e-07
6.81173e-05
5.58464e-07
6.80373e-05
7.34591e-07
6.79277e-05
1.06392e-06
6.77834e-05
1.4744e-06
6.75984e-05
1.89193e-06
6.73692e-05
2.25668e-06
6.70806e-05
2.83856e-06
6.67211e-05
3.63642e-06
6.62654e-05
4.57053e-06
6.57042e-05
5.61141e-06
6.49827e-05
6.95452e-06
6.41668e-05
8.769e-06
6.29418e-05
1.14801e-05
6.14653e-05
1.46638e-05
5.93592e-05
2.1614e-05
5.65235e-05
2.83776e-05
5.2083e-05
4.57968e-05
4.57537e-05
6.41989e-05
3.49242e-05
0.000110511
2.1084e-05
0.00013789
0.000206766
6.81681e-05
2.35688e-07
6.81175e-05
6.13531e-07
6.80369e-05
8.07987e-07
6.79273e-05
1.17062e-06
6.77835e-05
1.62191e-06
6.75986e-05
2.08032e-06
6.73692e-05
2.48235e-06
6.70805e-05
3.12279e-06
6.67213e-05
4.00056e-06
6.62654e-05
5.02758e-06
6.57035e-05
6.17241e-06
6.49847e-05
7.65105e-06
6.41632e-05
9.66925e-06
6.29384e-05
1.26395e-05
6.14345e-05
1.61803e-05
5.93439e-05
2.37009e-05
5.64753e-05
3.12467e-05
5.2159e-05
5.01123e-05
4.58758e-05
7.04819e-05
3.5141e-05
0.000121246
2.1262e-05
0.000151769
0.000228028
6.81679e-05
2.57153e-07
6.81175e-05
6.68701e-07
6.80375e-05
8.79839e-07
6.79279e-05
1.27689e-06
6.77836e-05
1.77055e-06
6.75986e-05
2.26913e-06
6.73695e-05
2.70731e-06
6.70808e-05
3.40705e-06
6.67212e-05
4.36518e-06
6.62659e-05
5.48397e-06
6.57055e-05
6.73169e-06
6.49808e-05
8.35356e-06
6.41395e-05
1.05558e-05
6.2928e-05
1.38221e-05
6.13949e-05
1.772e-05
5.93213e-05
2.57747e-05
5.64402e-05
3.41285e-05
5.2234e-05
5.43188e-05
4.60052e-05
7.67109e-05
3.53808e-05
0.000131871
2.14663e-05
0.000165684
0.000249494
6.81681e-05
2.78275e-07
6.81177e-05
7.23465e-07
6.8037e-05
9.53344e-07
6.79274e-05
1.3837e-06
6.77836e-05
1.918e-06
6.75988e-05
2.45725e-06
6.73694e-05
2.93307e-06
6.70808e-05
3.69138e-06
6.67213e-05
4.72958e-06
6.62661e-05
5.94025e-06
6.57046e-05
7.29242e-06
6.49798e-05
9.05897e-06
6.41201e-05
1.14795e-05
6.29212e-05
1.49889e-05
6.13587e-05
1.9287e-05
5.92999e-05
2.78316e-05
5.64215e-05
3.70069e-05
5.22994e-05
5.84404e-05
4.61316e-05
8.28785e-05
3.56334e-05
0.000142369
2.16944e-05
0.000179623
0.000271189
6.81679e-05
2.99656e-07
6.81176e-05
7.78357e-07
6.80377e-05
1.02515e-06
6.79281e-05
1.49002e-06
6.77837e-05
2.06673e-06
6.75989e-05
2.64585e-06
6.73697e-05
3.15806e-06
6.70811e-05
3.97571e-06
6.67212e-05
5.09447e-06
6.62665e-05
6.39595e-06
6.57041e-05
7.85386e-06
6.49746e-05
9.77099e-06
6.40989e-05
1.23749e-05
6.29039e-05
1.61772e-05
6.13287e-05
2.08641e-05
5.9284e-05
2.9877e-05
5.64133e-05
3.9878e-05
5.23521e-05
6.25018e-05
4.62493e-05
8.89815e-05
3.58906e-05
0.000152728
2.19431e-05
0.00019357
0.000293132
6.81682e-05
3.2065e-07
6.81178e-05
8.32796e-07
6.80372e-05
1.09882e-06
6.79274e-05
1.59697e-06
6.77838e-05
2.21412e-06
6.75991e-05
2.83367e-06
6.73696e-05
3.38392e-06
6.70811e-05
4.2601e-06
6.67212e-05
5.45915e-06
6.62667e-05
6.85156e-06
6.57019e-05
8.41795e-06
6.49693e-05
1.04898e-05
6.40829e-05
1.32933e-05
6.28857e-05
1.73599e-05
6.1307e-05
2.24445e-05
5.92719e-05
3.19108e-05
5.64095e-05
4.27402e-05
5.23936e-05
6.65173e-05
4.63563e-05
9.50186e-05
3.61473e-05
0.000162937
2.22091e-05
0.000207509
0.000315341
6.8168e-05
3.41933e-07
6.81178e-05
8.87411e-07
6.80379e-05
1.17065e-06
6.79282e-05
1.70336e-06
6.77839e-05
2.36291e-06
6.75991e-05
3.02206e-06
6.73699e-05
3.60896e-06
6.70813e-05
4.5445e-06
6.67212e-05
5.82419e-06
6.62661e-05
7.30769e-06
6.56969e-05
8.98629e-06
6.49667e-05
1.12094e-05
6.40667e-05
1.4194e-05
6.28688e-05
1.85587e-05
6.12911e-05
2.40228e-05
5.92625e-05
3.39401e-05
5.64072e-05
4.55959e-05
5.24266e-05
7.04982e-05
4.6453e-05
0.000100992
3.64003e-05
0.00017299
2.24894e-05
0.00022142
0.00033783
6.81683e-05
3.6279e-07
6.8118e-05
9.41569e-07
6.80372e-05
1.24462e-06
6.79274e-05
1.81042e-06
6.77839e-05
2.51016e-06
6.75993e-05
3.20962e-06
6.73698e-05
3.83499e-06
6.70813e-05
4.82895e-06
6.67213e-05
6.18897e-06
6.62661e-05
7.76397e-06
6.56886e-05
9.56313e-06
6.49676e-05
1.19245e-05
6.40519e-05
1.51268e-05
6.28553e-05
1.97475e-05
6.12796e-05
2.55992e-05
5.92548e-05
3.59639e-05
5.64049e-05
4.84456e-05
5.24538e-05
7.4449e-05
4.65411e-05
0.000106905
3.66488e-05
0.000182882
2.27817e-05
0.000235287
0.000360612
6.81681e-05
3.83966e-07
6.81179e-05
9.95917e-07
6.8038e-05
1.31656e-06
6.79283e-05
1.91687e-06
6.7784e-05
2.65895e-06
6.75993e-05
3.39779e-06
6.73701e-05
4.06012e-06
6.70816e-05
5.1134e-06
6.67212e-05
6.55422e-06
6.6266e-05
8.22009e-06
6.56788e-05
1.01495e-05
6.4967e-05
1.26325e-05
6.40391e-05
1.605e-05
6.28445e-05
2.09449e-05
6.12708e-05
2.71731e-05
5.92483e-05
3.79871e-05
5.64026e-05
5.12916e-05
5.24774e-05
7.83744e-05
4.66227e-05
0.00011276
3.68926e-05
0.000192612
2.30843e-05
0.000249095
0.000383697
6.81684e-05
4.0468e-07
6.81181e-05
1.04977e-06
6.80373e-05
1.39084e-06
6.79274e-05
2.02406e-06
6.7784e-05
2.80607e-06
6.75995e-05
3.58506e-06
6.737e-05
4.28634e-06
6.70815e-05
5.39786e-06
6.67213e-05
6.91919e-06
6.62663e-05
8.67607e-06
6.56721e-05
1.07432e-05
6.49636e-05
1.33396e-05
6.40287e-05
1.69954e-05
6.28359e-05
2.21322e-05
6.1264e-05
2.87454e-05
5.92427e-05
4.00076e-05
5.64002e-05
5.4134e-05
5.24992e-05
8.22751e-05
4.66998e-05
0.000118559
3.71329e-05
0.000202179
2.33963e-05
0.000262831
0.000407093
6.81681e-05
4.25741e-07
6.8118e-05
1.10385e-06
6.80382e-05
1.46293e-06
6.79283e-05
2.13058e-06
6.7784e-05
2.95487e-06
6.75995e-05
3.77301e-06
6.73703e-05
4.51159e-06
6.70819e-05
5.68229e-06
6.67213e-05
7.28459e-06
6.6263e-05
9.1352e-06
6.56699e-05
1.13358e-05
6.49584e-05
1.40498e-05
6.40202e-05
1.79279e-05
6.28289e-05
2.33265e-05
6.12585e-05
3.03158e-05
5.92378e-05
4.20289e-05
5.63981e-05
5.69739e-05
5.2521e-05
8.61524e-05
4.67746e-05
0.000124305
3.73709e-05
0.000211583
2.37172e-05
0.000276485
0.00043081
6.81685e-05
4.46308e-07
6.81182e-05
1.15745e-06
6.80373e-05
1.5376e-06
6.79274e-05
2.23786e-06
6.77841e-05
3.10179e-06
6.75997e-05
3.96e-06
6.73701e-05
4.73804e-06
6.70818e-05
5.96669e-06
6.67216e-05
7.64942e-06
6.6256e-05
9.60179e-06
6.56725e-05
1.19192e-05
6.49529e-05
1.4769e-05
6.40132e-05
1.88758e-05
6.28231e-05
2.45122e-05
6.12542e-05
3.1885e-05
5.92338e-05
4.40486e-05
5.63968e-05
5.98107e-05
5.25438e-05
9.00052e-05
4.68489e-05
0.00013
3.76085e-05
0.000220823
2.40471e-05
0.000290047
0.000454857
6.81682e-05
4.67251e-07
6.81182e-05
1.21127e-06
6.80383e-05
1.60987e-06
6.79284e-05
2.34444e-06
6.77841e-05
3.25055e-06
6.75997e-05
4.14772e-06
6.73704e-05
4.96343e-06
6.70822e-05
6.2511e-06
6.6722e-05
8.01425e-06
6.62474e-05
1.00773e-05
6.56753e-05
1.2491e-05
6.49478e-05
1.54959e-05
6.40074e-05
1.98106e-05
6.28183e-05
2.57044e-05
6.12508e-05
3.34525e-05
5.92307e-05
4.60692e-05
5.63968e-05
6.26448e-05
5.25687e-05
9.38334e-05
4.69242e-05
0.000135645
3.78475e-05
0.0002299
2.43864e-05
0.000303508
0.000479244
6.81686e-05
4.87671e-07
6.81184e-05
1.26458e-06
6.80373e-05
1.6849e-06
6.79274e-05
2.45185e-06
6.77841e-05
3.39731e-06
6.75999e-05
4.33443e-06
6.73703e-05
5.19006e-06
6.70821e-05
6.53554e-06
6.67227e-05
8.37808e-06
6.6241e-05
1.056e-05
6.56764e-05
1.30556e-05
6.49432e-05
1.6229e-05
6.40025e-05
2.07581e-05
6.28142e-05
2.68888e-05
6.12481e-05
3.50189e-05
5.92287e-05
4.80879e-05
5.63983e-05
6.54751e-05
5.25962e-05
9.76353e-05
4.70016e-05
0.000141239
3.809e-05
0.000238812
2.4736e-05
0.000316862
0.00050398
6.81683e-05
5.08492e-07
6.81183e-05
1.31815e-06
6.80383e-05
1.75738e-06
6.79284e-05
2.55849e-06
6.77842e-05
3.54602e-06
6.75999e-05
4.52193e-06
6.73706e-05
5.41557e-06
6.70824e-05
6.82003e-06
6.67231e-05
8.74189e-06
6.62365e-05
1.10474e-05
6.56756e-05
1.36164e-05
6.49392e-05
1.6965e-05
6.39983e-05
2.16935e-05
6.28108e-05
2.80793e-05
6.12462e-05
3.65835e-05
5.9228e-05
5.01067e-05
5.64017e-05
6.83015e-05
5.26265e-05
0.000101411
4.7082e-05
0.000146784
3.8338e-05
0.000247556
2.5097e-05
0.000330103
0.000529076
6.81687e-05
5.28764e-07
6.81185e-05
1.37122e-06
6.80373e-05
1.83285e-06
6.79273e-05
2.66599e-06
6.77842e-05
3.69254e-06
6.76001e-05
4.70839e-06
6.73705e-05
5.6424e-06
6.70823e-05
7.10453e-06
6.67236e-05
9.1049e-06
6.6234e-05
1.1538e-05
6.56738e-05
1.41766e-05
6.49355e-05
1.77034e-05
6.39947e-05
2.26404e-05
6.28079e-05
2.92624e-05
6.1245e-05
3.81466e-05
5.92287e-05
5.21223e-05
5.64073e-05
7.11228e-05
5.26598e-05
0.000105158
4.71659e-05
0.000152278
3.85937e-05
0.000256128
2.54706e-05
0.000343226
0.000554547
6.81683e-05
5.49463e-07
6.81184e-05
1.42454e-06
6.80384e-05
1.90557e-06
6.79284e-05
2.77269e-06
6.77843e-05
3.84118e-06
6.76e-05
4.89567e-06
6.73708e-05
5.86802e-06
6.70827e-05
7.38897e-06
6.67226e-05
9.46947e-06
6.62332e-05
1.2028e-05
6.56717e-05
1.4738e-05
6.49323e-05
1.84425e-05
6.39915e-05
2.35762e-05
6.28055e-05
3.04513e-05
6.12445e-05
3.97076e-05
5.92309e-05
5.41366e-05
5.64151e-05
7.39387e-05
5.26959e-05
0.000108877
4.72537e-05
0.00015772
3.88592e-05
0.000264522
2.58583e-05
0.000356227
0.000580405
6.81688e-05
5.69591e-07
6.81186e-05
1.47736e-06
6.80373e-05
1.98143e-06
6.79273e-05
2.88031e-06
6.77843e-05
3.9875e-06
6.76003e-05
5.08186e-06
6.73707e-05
6.09503e-06
6.70827e-05
7.67331e-06
6.67179e-05
9.83851e-06
6.62366e-05
1.251e-05
6.56697e-05
1.5305e-05
6.49294e-05
1.91829e-05
6.39886e-05
2.45225e-05
6.28036e-05
3.16328e-05
6.12448e-05
4.12665e-05
5.92346e-05
5.61461e-05
5.64253e-05
7.67479e-05
5.27346e-05
0.000112568
4.73455e-05
0.000163109
3.91362e-05
0.000272732
2.62618e-05
0.000369101
0.000606667
6.81684e-05
5.90171e-07
6.81185e-05
1.53044e-06
6.80385e-05
2.05437e-06
6.79285e-05
2.98706e-06
6.77844e-05
4.13608e-06
6.76002e-05
5.26893e-06
6.7371e-05
6.32079e-06
6.70833e-05
7.95749e-06
6.6711e-05
1.0215e-05
6.62417e-05
1.29795e-05
6.56676e-05
1.5879e-05
6.49267e-05
1.99235e-05
6.39861e-05
2.54582e-05
6.28021e-05
3.28196e-05
6.12458e-05
4.28229e-05
5.92397e-05
5.81528e-05
5.64377e-05
7.95501e-05
5.27759e-05
0.00011623
4.74414e-05
0.000168444
3.94263e-05
0.000280747
2.66824e-05
0.000381845
0.00063335
6.81688e-05
6.10157e-07
6.81187e-05
1.58303e-06
6.80373e-05
2.13067e-06
6.79272e-05
3.09475e-06
6.77844e-05
4.28216e-06
6.76005e-05
5.45487e-06
6.73708e-05
6.54801e-06
6.70833e-05
8.24149e-06
6.67056e-05
1.05966e-05
6.62455e-05
1.34401e-05
6.56657e-05
1.64588e-05
6.49242e-05
2.06651e-05
6.39839e-05
2.64039e-05
6.2801e-05
3.39991e-05
6.12474e-05
4.43766e-05
5.92461e-05
6.01534e-05
5.64523e-05
8.23438e-05
5.28196e-05
0.000119862
4.75412e-05
0.000173722
3.97309e-05
0.000288557
2.71217e-05
0.000394454
0.000660471
6.81685e-05
6.3062e-07
6.81186e-05
1.63588e-06
6.80386e-05
2.20384e-06
6.79285e-05
3.20156e-06
6.77845e-05
4.43066e-06
6.76004e-05
5.64171e-06
6.73712e-05
6.77392e-06
6.70839e-05
8.52532e-06
6.67023e-05
1.09822e-05
6.62476e-05
1.38949e-05
6.56639e-05
1.70423e-05
6.4922e-05
2.14068e-05
6.39819e-05
2.73392e-05
6.28002e-05
3.51836e-05
6.12497e-05
4.59272e-05
5.92537e-05
6.215e-05
5.6469e-05
8.51287e-05
5.28655e-05
0.000123466
4.76445e-05
0.000178943
4.00506e-05
0.000296151
2.75807e-05
0.000406924
0.000688052
6.81689e-05
6.50472e-07
6.81188e-05
1.68823e-06
6.80373e-05
2.2805e-06
6.79272e-05
3.30937e-06
6.77845e-05
4.57655e-06
6.76007e-05
5.82737e-06
6.73711e-05
7.0013e-06
6.7084e-05
8.80891e-06
6.67001e-05
1.13698e-05
6.62486e-05
1.43467e-05
6.56622e-05
1.76288e-05
6.49199e-05
2.21492e-05
6.39802e-05
2.82841e-05
6.27999e-05
3.63604e-05
6.12525e-05
4.74746e-05
5.92625e-05
6.41393e-05
5.64878e-05
8.79032e-05
5.29137e-05
0.00012704
4.77512e-05
0.000184105
4.03858e-05
0.000303517
2.80605e-05
0.00041925
0.000716112
6.81685e-05
6.70823e-07
6.81187e-05
1.74086e-06
6.80386e-05
2.35389e-06
6.79285e-05
3.41623e-06
6.77846e-05
4.72499e-06
6.76006e-05
6.014e-06
6.73714e-05
7.22733e-06
6.70845e-05
9.09244e-06
6.66988e-05
1.17591e-05
6.6249e-05
1.47965e-05
6.56606e-05
1.82172e-05
6.49179e-05
2.28916e-05
6.39786e-05
2.92188e-05
6.27997e-05
3.75421e-05
6.12558e-05
4.90186e-05
5.92722e-05
6.61236e-05
5.65087e-05
9.06669e-05
5.29641e-05
0.000130585
4.78608e-05
0.000189209
4.07361e-05
0.000310641
2.85616e-05
0.000431424
0.000744674
6.8169e-05
6.90546e-07
6.81189e-05
1.79301e-06
6.80373e-05
2.43096e-06
6.79272e-05
3.52412e-06
6.77846e-05
4.87065e-06
6.76009e-05
6.19941e-06
6.73713e-05
7.45489e-06
6.70845e-05
9.37583e-06
6.66978e-05
1.21493e-05
6.62491e-05
1.52455e-05
6.56591e-05
1.88072e-05
6.49161e-05
2.36347e-05
6.39772e-05
3.01627e-05
6.28e-05
3.87159e-05
6.12596e-05
5.0559e-05
5.92829e-05
6.80995e-05
5.65315e-05
9.34182e-05
5.30166e-05
0.000134099
4.79732e-05
0.000194252
4.11011e-05
0.000317513
2.90842e-05
0.000443441
0.000773758
6.81686e-05
7.10792e-07
6.81188e-05
1.84544e-06
6.80387e-05
2.50454e-06
6.79286e-05
3.63101e-06
6.77847e-05
5.01902e-06
6.76008e-05
6.38584e-06
6.73717e-05
7.681e-06
6.70851e-05
9.65915e-06
6.66974e-05
1.25404e-05
6.62488e-05
1.5694e-05
6.56576e-05
1.93984e-05
6.49144e-05
2.43776e-05
6.3976e-05
3.10967e-05
6.28004e-05
3.98945e-05
6.12639e-05
5.20957e-05
5.92945e-05
7.00695e-05
5.65562e-05
9.61567e-05
5.30714e-05
0.000137584
4.80882e-05
0.000199235
4.14803e-05
0.000324121
2.96285e-05
0.000455293
0.000803387
6.81691e-05
7.30401e-07
6.81189e-05
1.89742e-06
6.80373e-05
2.58197e-06
6.79271e-05
3.73895e-06
6.77847e-05
5.16448e-06
6.76011e-05
6.57102e-06
6.73715e-05
7.9087e-06
6.7085e-05
9.94242e-06
6.66968e-05
1.29317e-05
6.62484e-05
1.61426e-05
6.56562e-05
1.99907e-05
6.49129e-05
2.5121e-05
6.3975e-05
3.20392e-05
6.28012e-05
4.10646e-05
6.12685e-05
5.36284e-05
5.9307e-05
7.20302e-05
5.65828e-05
9.88807e-05
5.31283e-05
0.000141039
4.82059e-05
0.000204157
4.18731e-05
0.000330454
3.01946e-05
0.000466971
0.000833581
6.81687e-05
7.50551e-07
6.81189e-05
1.94963e-06
6.80388e-05
2.65568e-06
6.79286e-05
3.84589e-06
6.77848e-05
5.31284e-06
6.76011e-05
6.75724e-06
6.7372e-05
8.13483e-06
6.70853e-05
1.02259e-05
6.66968e-05
1.33232e-05
6.62479e-05
1.65916e-05
6.56548e-05
2.05837e-05
6.49114e-05
2.58641e-05
6.39742e-05
3.29721e-05
6.28021e-05
4.22396e-05
6.12736e-05
5.51571e-05
5.93202e-05
7.39843e-05
5.66112e-05
0.00010159
5.31876e-05
0.000144462
4.83264e-05
0.000209019
4.22793e-05
0.000336501
3.07825e-05
0.000478468
0.000864364
6.81691e-05
7.70056e-07
6.8119e-05
2.0014e-06
6.80373e-05
2.73335e-06
6.79272e-05
3.95391e-06
6.77848e-05
5.45817e-06
6.76014e-05
6.94218e-06
6.73719e-05
8.36258e-06
6.70834e-05
1.05111e-05
6.66987e-05
1.37099e-05
6.62473e-05
1.70432e-05
6.56535e-05
2.11775e-05
6.491e-05
2.66076e-05
6.39735e-05
3.39133e-05
6.28034e-05
4.34059e-05
6.1279e-05
5.66815e-05
5.93342e-05
7.59283e-05
5.66412e-05
0.000104283
5.32492e-05
0.000147854
4.84499e-05
0.000213818
4.26987e-05
0.000342252
3.13926e-05
0.000489774
0.000895756
6.81687e-05
7.90123e-07
6.8119e-05
2.05339e-06
6.80389e-05
2.8071e-06
6.79287e-05
4.06091e-06
6.77849e-05
5.60658e-06
6.76013e-05
7.12817e-06
6.73723e-05
8.58877e-06
6.70764e-05
1.08039e-05
6.67051e-05
1.40823e-05
6.62466e-05
1.75017e-05
6.56522e-05
2.17718e-05
6.49088e-05
2.73508e-05
6.39729e-05
3.48448e-05
6.28049e-05
4.45771e-05
6.12848e-05
5.82017e-05
5.93489e-05
7.78649e-05
5.66729e-05
0.000106959
5.33133e-05
0.000151214
4.85767e-05
0.000218555
4.31316e-05
0.000347697
3.20253e-05
0.000500881
0.000927782
6.81692e-05
8.09521e-07
6.81191e-05
2.10495e-06
6.80374e-05
2.88504e-06
6.79272e-05
4.16908e-06
6.77849e-05
5.75176e-06
6.76017e-05
7.3128e-06
6.73722e-05
8.81655e-06
6.70695e-05
1.11037e-05
6.67104e-05
1.44417e-05
6.62458e-05
1.79664e-05
6.5651e-05
2.23667e-05
6.49076e-05
2.80943e-05
6.39725e-05
3.57847e-05
6.28066e-05
4.57393e-05
6.12911e-05
5.97171e-05
5.93644e-05
7.97907e-05
5.67061e-05
0.000109617
5.338e-05
0.00015454
4.87065e-05
0.000223228
4.35781e-05
0.000352826
3.26812e-05
0.000511778
0.000960463
6.81688e-05
8.29504e-07
6.81191e-05
2.15673e-06
6.8039e-05
2.95888e-06
6.79288e-05
4.27614e-06
6.7785e-05
5.90016e-06
6.76016e-05
7.49857e-06
6.73726e-05
9.04273e-06
6.70667e-05
1.14069e-05
6.67121e-05
1.47964e-05
6.6245e-05
1.84334e-05
6.56498e-05
2.29619e-05
6.49065e-05
2.88374e-05
6.39722e-05
3.67143e-05
6.28085e-05
4.69063e-05
6.12977e-05
6.12283e-05
5.93806e-05
8.17087e-05
5.67407e-05
0.000112257
5.34493e-05
0.000157832
4.88394e-05
0.000227838
4.40379e-05
0.000357627
3.33607e-05
0.000522455
0.000993824
6.81692e-05
8.4886e-07
6.81192e-05
2.20815e-06
6.80375e-05
3.03672e-06
6.79273e-05
4.38426e-06
6.7785e-05
6.04546e-06
6.7602e-05
7.68296e-06
6.73713e-05
9.27188e-06
6.70658e-05
1.17103e-05
6.67123e-05
1.515e-05
6.62442e-05
1.89016e-05
6.56486e-05
2.35574e-05
6.49055e-05
2.95807e-05
6.39721e-05
3.76534e-05
6.28108e-05
4.80634e-05
6.13048e-05
6.2734e-05
5.93974e-05
8.36151e-05
5.67765e-05
0.000114878
5.35216e-05
0.000161086
4.89745e-05
0.000232385
4.45092e-05
0.000362093
3.40631e-05
0.000532901
0.00102789
6.81688e-05
8.68705e-07
6.81192e-05
2.25973e-06
6.8039e-05
3.11105e-06
6.79287e-05
4.49144e-06
6.7785e-05
6.19363e-06
6.76021e-05
7.86805e-06
6.73644e-05
9.50705e-06
6.707e-05
1.20036e-05
6.6712e-05
1.5508e-05
6.62433e-05
1.93703e-05
6.56475e-05
2.41532e-05
6.49045e-05
3.03234e-05
6.39721e-05
3.85808e-05
6.28132e-05
4.9226e-05
6.13123e-05
6.42353e-05
5.9415e-05
8.55132e-05
5.68134e-05
0.00011748
5.35969e-05
0.000164303
4.91111e-05
0.000236871
4.49871e-05
0.000366217
3.47851e-05
0.000543103
0.00106267
6.81693e-05
8.87935e-07
6.81193e-05
2.31094e-06
6.80374e-05
3.18939e-06
6.79272e-05
4.59977e-06
6.7785e-05
6.33867e-06
6.76026e-05
8.0517e-06
6.7357e-05
9.75125e-06
6.70753e-05
1.2285e-05
6.67115e-05
1.58718e-05
6.62424e-05
1.98395e-05
6.56464e-05
2.47492e-05
6.49036e-05
3.10662e-05
6.39723e-05
3.9518e-05
6.2816e-05
5.0378e-05
6.13202e-05
6.57307e-05
5.94332e-05
8.73993e-05
5.68513e-05
0.000120061
5.36756e-05
0.000167478
4.92485e-05
0.000241298
4.54616e-05
0.000370004
3.55186e-05
0.000553046
0.00109819
6.81687e-05
9.07859e-07
6.81192e-05
2.36245e-06
6.80396e-05
3.26248e-06
6.79295e-05
4.70648e-06
6.77853e-05
6.48781e-06
6.76027e-05
8.23678e-06
6.73546e-05
9.99662e-06
6.70773e-05
1.25622e-05
6.6711e-05
1.62381e-05
6.62415e-05
2.0309e-05
6.56453e-05
2.53454e-05
6.49028e-05
3.18084e-05
6.39725e-05
4.04432e-05
6.28189e-05
5.15352e-05
6.13286e-05
6.72215e-05
5.94521e-05
8.92766e-05
5.68896e-05
0.000122624
5.37587e-05
0.000170609
4.93854e-05
0.000245671
4.5929e-05
0.00037346
3.63423e-05
0.000562633
0.00113453
-9.76876e-06
9.76868e-06
-1.66778e-05
6.909e-06
-1.70822e-05
4.04295e-07
-1.33718e-05
-3.71019e-06
-1.0317e-05
-3.05558e-06
-8.80835e-06
-1.5077e-06
-7.88614e-06
-9.21501e-07
-6.93631e-06
-9.48333e-07
-5.64153e-06
-1.28316e-06
-4.43995e-06
-1.19301e-06
-3.26785e-06
-1.15615e-06
-1.44007e-06
-1.86906e-06
1.45894e-06
-2.91399e-06
5.60367e-06
-4.13525e-06
1.06337e-05
-5.02173e-06
1.60076e-05
-5.37016e-06
2.13673e-05
-5.35926e-06
2.64016e-05
-5.03421e-06
3.09415e-05
-4.53984e-06
3.51814e-05
-4.24052e-06
3.95571e-05
-4.37627e-06
4.39719e-05
-4.41432e-06
4.77405e-05
-3.76787e-06
5.1453e-05
-3.71314e-06
5.68632e-05
-5.41078e-06
6.23881e-05
-5.52444e-06
6.52316e-05
-2.84335e-06
6.60868e-05
-8.55223e-07
6.6405e-05
-3.1826e-07
6.66726e-05
-2.67522e-07
6.69219e-05
-2.49313e-07
6.71295e-05
-2.07593e-07
6.72927e-05
-1.6319e-07
6.74292e-05
-1.36526e-07
-6.3262e-08
-9.60906e-06
1.93776e-05
-1.64394e-05
1.37392e-05
-1.68018e-05
7.66551e-07
-1.30561e-05
-7.45544e-06
-1.00522e-05
-6.06105e-06
-8.59752e-06
-2.96049e-06
-7.75037e-06
-1.76724e-06
-6.8784e-06
-1.81727e-06
-5.58944e-06
-2.55006e-06
-4.28605e-06
-2.47972e-06
-3.04023e-06
-2.38095e-06
-1.28549e-06
-3.69288e-06
1.40561e-06
-5.63401e-06
5.33635e-06
-8.04739e-06
1.02871e-05
-9.95611e-06
1.56704e-05
-1.07459e-05
2.10317e-05
-1.07195e-05
2.60566e-05
-1.0059e-05
3.05744e-05
-9.05753e-06
3.47557e-05
-8.42294e-06
3.90727e-05
-8.69439e-06
4.35405e-05
-8.88112e-06
4.74668e-05
-7.69292e-06
5.12548e-05
-7.50236e-06
5.66498e-05
-1.08069e-05
6.22416e-05
-1.11154e-05
6.51919e-05
-5.79318e-06
6.60886e-05
-1.75204e-06
6.64095e-05
-6.39202e-07
6.66741e-05
-5.32163e-07
6.69227e-05
-4.97906e-07
6.71306e-05
-4.15469e-07
6.72939e-05
-3.26493e-07
6.74303e-05
-2.7293e-07
-1.2656e-07
-9.44404e-06
2.88215e-05
-1.61431e-05
2.04382e-05
-1.64393e-05
1.06262e-06
-1.26799e-05
-1.12145e-05
-9.74467e-06
-8.99784e-06
-8.36399e-06
-4.33927e-06
-7.58387e-06
-2.54609e-06
-6.7335e-06
-2.66489e-06
-5.38145e-06
-3.88069e-06
-4.00156e-06
-3.84345e-06
-2.75642e-06
-3.60302e-06
-1.12804e-06
-5.39518e-06
1.34427e-06
-8.13614e-06
5.11545e-06
-1.17994e-05
1.00213e-05
-1.48449e-05
1.54021e-05
-1.61188e-05
2.07525e-05
-1.60688e-05
2.57636e-05
-1.507e-05
3.02633e-05
-1.35571e-05
3.4398e-05
-1.25588e-05
3.86596e-05
-1.29571e-05
4.31608e-05
-1.33813e-05
4.72217e-05
-1.17526e-05
5.10782e-05
-1.136e-05
5.64558e-05
-1.61856e-05
6.21054e-05
-1.67641e-05
6.51548e-05
-8.84218e-06
6.60911e-05
-2.68836e-06
6.64144e-05
-9.62676e-07
6.66762e-05
-7.9393e-07
6.69241e-05
-7.45745e-07
6.71322e-05
-6.23556e-07
6.72955e-05
-4.89802e-07
6.74317e-05
-4.09114e-07
-1.89793e-07
-9.24645e-06
3.80678e-05
-1.57955e-05
2.69872e-05
-1.59952e-05
1.26221e-06
-1.2206e-05
-1.50032e-05
-9.35735e-06
-1.18481e-05
-8.05778e-06
-5.63676e-06
-7.3398e-06
-3.26258e-06
-6.50017e-06
-3.50126e-06
-5.08724e-06
-5.27042e-06
-3.64615e-06
-5.26643e-06
-2.41078e-06
-4.82524e-06
-9.10678e-07
-6.9667e-06
1.35114e-06
-1.04325e-05
4.96929e-06
-1.53953e-05
9.8212e-06
-1.96767e-05
1.51863e-05
-2.14738e-05
2.05156e-05
-2.13968e-05
2.55092e-05
-2.00633e-05
2.99987e-05
-1.80466e-05
3.41048e-05
-1.6666e-05
3.83183e-05
-1.71719e-05
4.28327e-05
-1.78946e-05
4.70029e-05
-1.59215e-05
5.09216e-05
-1.52801e-05
5.62803e-05
-2.15454e-05
6.19786e-05
-2.24615e-05
6.512e-05
-1.19832e-05
6.60941e-05
-3.66251e-06
6.64199e-05
-1.28856e-06
6.66788e-05
-1.05283e-06
6.69259e-05
-9.9279e-07
6.71341e-05
-8.31768e-07
6.72973e-05
-6.5301e-07
6.74332e-05
-5.44961e-07
-2.52871e-07
-9.01735e-06
4.7085e-05
-1.53907e-05
3.33604e-05
-1.54553e-05
1.32668e-06
-1.16222e-05
-1.88359e-05
-8.88056e-06
-1.45913e-05
-7.67057e-06
-6.84468e-06
-7.0132e-06
-3.91865e-06
-6.17626e-06
-4.33536e-06
-4.70602e-06
-6.71822e-06
-3.20885e-06
-6.7457e-06
-1.97932e-06
-6.04301e-06
-6.07715e-07
-8.41362e-06
1.44977e-06
-1.25267e-05
4.92275e-06
-1.88449e-05
9.71569e-06
-2.44488e-05
1.50499e-05
-2.67972e-05
2.03411e-05
-2.66865e-05
2.53054e-05
-2.50274e-05
2.97875e-05
-2.25286e-05
3.38795e-05
-2.07593e-05
3.80505e-05
-2.13442e-05
4.25578e-05
-2.24008e-05
4.68112e-05
-2.01735e-05
5.07845e-05
-1.92547e-05
5.61223e-05
-2.68843e-05
6.18608e-05
-2.81991e-05
6.50876e-05
-1.52097e-05
6.60979e-05
-4.67285e-06
6.64259e-05
-1.61673e-06
6.6682e-05
-1.30886e-06
6.69282e-05
-1.23899e-06
6.71365e-05
-1.04002e-06
6.72995e-05
-8.1601e-07
6.74349e-05
-6.80354e-07
-3.15707e-07
-8.757e-06
5.58418e-05
-1.49226e-05
3.95259e-05
-1.48096e-05
1.21355e-06
-1.09208e-05
-2.27242e-05
-8.30465e-06
-1.72091e-05
-7.19264e-06
-7.95435e-06
-6.59673e-06
-4.51295e-06
-5.75607e-06
-5.17231e-06
-4.23208e-06
-8.21687e-06
-2.67422e-06
-8.28284e-06
-1.43399e-06
-7.28131e-06
-1.87776e-07
-9.74054e-06
1.66962e-06
-1.44288e-05
5.00631e-06
-2.21536e-05
9.74366e-06
-2.9161e-05
1.50389e-05
-3.20785e-05
2.02723e-05
-3.19179e-05
2.51851e-05
-2.99399e-05
2.96509e-05
-2.69942e-05
3.37337e-05
-2.48436e-05
3.7862e-05
-2.54739e-05
4.23405e-05
-2.68781e-05
4.66498e-05
-2.44812e-05
5.06678e-05
-2.32744e-05
5.59815e-05
-3.21993e-05
6.17518e-05
-3.39685e-05
6.50575e-05
-1.85149e-05
6.61023e-05
-5.71772e-06
6.64325e-05
-1.94706e-06
6.66857e-05
-1.56203e-06
6.6931e-05
-1.4843e-06
6.71392e-05
-1.24823e-06
6.73019e-05
-9.78691e-07
6.74368e-05
-8.15175e-07
-3.78211e-07
-8.46523e-06
6.4307e-05
-1.43856e-05
4.54462e-05
-1.40548e-05
8.82543e-07
-1.01026e-05
-2.66759e-05
-7.6225e-06
-1.96907e-05
-6.61392e-06
-8.96061e-06
-6.08128e-06
-5.04424e-06
-5.23124e-06
-6.01913e-06
-3.65491e-06
-9.76892e-06
-2.01974e-06
-9.89678e-06
-7.36986e-07
-8.56561e-06
3.92194e-07
-1.09592e-05
2.04978e-06
-1.6136e-05
5.25626e-06
-2.53291e-05
9.94971e-06
-3.3828e-05
1.52125e-05
-3.73262e-05
2.03741e-05
-3.70774e-05
2.52038e-05
-3.47692e-05
2.96265e-05
-3.14166e-05
3.36892e-05
-2.89081e-05
3.7765e-05
-2.95513e-05
4.21899e-05
-3.13016e-05
4.6525e-05
-2.88146e-05
5.05741e-05
-2.73252e-05
5.58582e-05
-3.74845e-05
6.16516e-05
-3.9761e-05
6.50297e-05
-2.18926e-05
6.61073e-05
-6.79541e-06
6.64396e-05
-2.27942e-06
6.669e-05
-1.81235e-06
6.69343e-05
-1.72868e-06
6.71424e-05
-1.4563e-06
6.73047e-05
-1.14094e-06
6.74388e-05
-9.49305e-07
-4.40294e-07
-8.14166e-06
7.24485e-05
-1.37761e-05
5.10805e-05
-1.31976e-05
3.03831e-07
-9.18145e-06
-3.06915e-05
-6.83431e-06
-2.20395e-05
-5.92722e-06
-9.86509e-06
-5.45823e-06
-5.51141e-06
-4.59351e-06
-6.8795e-06
-2.96266e-06
-1.13718e-05
-1.21881e-06
-1.16162e-05
1.58831e-07
-9.95521e-06
1.19055e-06
-1.2095e-05
2.64554e-06
-1.76542e-05
5.7235e-06
-2.83688e-05
1.03914e-05
-3.84626e-05
1.56461e-05
-4.25613e-05
2.07364e-05
-4.21646e-05
2.54454e-05
-3.94776e-05
2.97752e-05
-3.57464e-05
3.37837e-05
-3.29188e-05
3.77834e-05
-3.35528e-05
4.21225e-05
-3.56391e-05
4.64481e-05
-3.31382e-05
5.05087e-05