/*--------------------------------*- C++ -*----------------------------------*\
| =========                 |                                                 |
| \\      /  F ield         | OpenFOAM: The Open Source CFD Toolbox           |
|  \\    /   O peration     | Version:  v1912                                 |
|   \\  /    A nd           | Website:  www.openfoam.com                      |
|    \\/     M anipulation  |                                                 |
\*---------------------------------------------------------------------------*/
FoamFile
{
    version     2.0;
    format      ascii;
    class       volVectorField;
    location    "160";
    object      U;
}
// * * * * * * * * * * * * * * * * * * * * * * * * * * * * * * * * * * * * * //

dimensions      [0 1 -1 0 0 0 0];


internalField   nonuniform List<vector> 
12441
(
(29.9993 1.76281e-05 0)
(29.985 5.11434e-05 0)
(29.9583 7.97735e-05 0)
(29.916 0.000131528 0)
(29.8596 0.00019812 0)
(29.7879 0.0002816 0)
(29.6989 0.000383401 0)
(29.5872 0.000545526 0)
(29.4441 0.000778091 0)
(29.2687 0.00109682 0)
(29.0495 0.00151703 0)
(28.7671 0.00210686 0)
(28.441 0.00300695 0)
(27.9939 0.0043837 0)
(27.4547 0.00625379 0)
(26.6491 0.0110228 0)
(25.6414 0.0143683 0)
(24.0614 0.0298386 0)
(21.8337 0.0509633 0)
(18.26 0.0902142 0)
(12.4826 0.12408 0)
(6.02679 0.202986 0)
(29.9994 5.28271e-05 0)
(29.9842 0.000154778 0)
(29.9581 0.000241274 0)
(29.917 0.000385512 0)
(29.8602 0.000583813 0)
(29.7873 0.000847943 0)
(29.6987 0.00114992 0)
(29.5879 0.0016241 0)
(29.4447 0.00232593 0)
(29.2687 0.00328656 0)
(29.05 0.00455166 0)
(28.7656 0.00631818 0)
(28.4406 0.00898366 0)
(27.9927 0.0131522 0)
(27.4538 0.0188112 0)
(26.6516 0.0329003 0)
(25.6446 0.0457999 0)
(24.0594 0.0854106 0)
(21.8296 0.132858 0)
(18.2538 0.261 0)
(12.4806 0.36448 0)
(6.02799 0.605861 0)
(29.9994 8.83424e-05 0)
(29.9843 0.000261047 0)
(29.9581 0.00039546 0)
(29.9168 0.000634666 0)
(29.8601 0.000974693 0)
(29.7874 0.00141808 0)
(29.6987 0.00191158 0)
(29.5879 0.00269702 0)
(29.4447 0.00387155 0)
(29.2688 0.00547765 0)
(29.05 0.00757432 0)
(28.7655 0.0105399 0)
(28.442 0.0149462 0)
(27.9939 0.0219456 0)
(27.457 0.0313791 0)
(26.6494 0.0538956 0)
(25.6453 0.0780016 0)
(24.0633 0.13925 0)
(21.8304 0.212343 0)
(18.2503 0.42947 0)
(12.4823 0.601447 0)
(6.03308 1.00661 0)
(29.9994 0.000124438 0)
(29.9843 0.00036731 0)
(29.9582 0.000550268 0)
(29.917 0.000885975 0)
(29.8602 0.00136947 0)
(29.7874 0.00198924 0)
(29.6988 0.00267366 0)
(29.588 0.00377196 0)
(29.4448 0.00542326 0)
(29.2688 0.00767554 0)
(29.0501 0.010607 0)
(28.7658 0.0147665 0)
(28.4405 0.0209208 0)
(27.9931 0.0307573 0)
(27.4533 0.043957 0)
(26.6526 0.0749869 0)
(25.6485 0.10945 0)
(24.0683 0.196151 0)
(21.8371 0.316602 0)
(18.2525 0.60593 0)
(12.491 0.842397 0)
(6.0432 1.40893 0)
(29.9994 0.000160518 0)
(29.9844 0.000472959 0)
(29.9582 0.000704885 0)
(29.9169 0.0011379 0)
(29.8602 0.00176415 0)
(29.7875 0.00255806 0)
(29.6988 0.00343409 0)
(29.588 0.00484755 0)
(29.4448 0.00697598 0)
(29.2689 0.0098721 0)
(29.0501 0.0136371 0)
(28.7657 0.0189878 0)
(28.4424 0.0269082 0)
(27.995 0.0395525 0)
(27.4589 0.0565735 0)
(26.6516 0.0958217 0)
(25.6501 0.140382 0)
(24.0724 0.253799 0)
(21.8476 0.403604 0)
(18.2611 0.778595 0)
(12.508 1.08309 0)
(6.05861 1.81246 0)
(29.9994 0.000196531 0)
(29.9843 0.000578289 0)
(29.9584 0.000859358 0)
(29.9172 0.00139 0)
(29.8603 0.00215848 0)
(29.7876 0.00312617 0)
(29.699 0.00419509 0)
(29.5882 0.00592477 0)
(29.4449 0.00852957 0)
(29.2689 0.0120673 0)
(29.0503 0.0166672 0)
(28.7662 0.0232124 0)
(28.4407 0.0328905 0)
(27.9937 0.0483472 0)
(27.4531 0.0691706 0)
(26.6541 0.116579 0)
(25.6533 0.17105 0)
(24.0771 0.310847 0)
(21.8601 0.489052 0)
(18.2762 0.95001 0)
(12.5343 1.32344 0)
(6.07962 2.21699 0)
(29.9994 0.000232476 0)
(29.9845 0.000683237 0)
(29.9584 0.00101357 0)
(29.917 0.00164225 0)
(29.8602 0.00255301 0)
(29.7877 0.00369409 0)
(29.6991 0.00495627 0)
(29.5882 0.00700237 0)
(29.4449 0.010083 0)
(29.2691 0.0142626 0)
(29.0503 0.0196968 0)
(28.7662 0.0274342 0)
(28.4431 0.0388857 0)
(27.9962 0.0571121 0)
(27.4603 0.0817969 0)
(26.6541 0.13716 0)
(25.6553 0.201061 0)
(24.0811 0.365565 0)
(21.8753 0.576731 0)
(18.2988 1.12158 0)
(12.5714 1.56385 0)
(6.10663 2.62282 0)
(29.9994 0.000268372 0)
(29.9843 0.00078791 0)
(29.9585 0.00116752 0)
(29.9174 0.00189455 0)
(29.8604 0.00294768 0)
(29.7877 0.00426175 0)
(29.6992 0.00571727 0)
(29.5884 0.00808014 0)
(29.4451 0.011637 0)
(29.2691 0.016457 0)
(29.0506 0.0227265 0)
(28.7669 0.0316581 0)
(28.4409 0.0448666 0)
(27.9945 0.0658637 0)
(27.4536 0.0942253 0)
(26.6573 0.157473 0)
(25.6598 0.232591 0)
(24.0866 0.422459 0)
(21.896 0.665664 0)
(18.3318 1.2927 0)
(12.6216 1.80447 0)
(6.14011 3.0304 0)
(29.9994 0.000304203 0)
(29.9845 0.000892246 0)
(29.9585 0.00132125 0)
(29.9171 0.002147 0)
(29.8603 0.00334258 0)
(29.7878 0.00482907 0)
(29.6992 0.00647807 0)
(29.5884 0.00915828 0)
(29.4451 0.0131914 0)
(29.2693 0.0186523 0)
(29.0504 0.0257554 0)
(28.7667 0.0358807 0)
(28.4439 0.0508617 0)
(27.9985 0.0747217 0)
(27.4581 0.106793 0)
(26.6604 0.178223 0)
(25.6618 0.262707 0)
(24.0881 0.47902 0)
(21.9236 0.754353 0)
(18.3782 1.46285 0)
(12.6867 2.04543 0)
(6.18058 3.44018 0)
(29.9994 0.000339979 0)
(29.9844 0.000996319 0)
(29.9586 0.00147481 0)
(29.9175 0.00239952 0)
(29.8605 0.00373756 0)
(29.7878 0.00539596 0)
(29.6994 0.0072388 0)
(29.5885 0.0102368 0)
(29.4452 0.0147464 0)
(29.2692 0.0208462 0)
(29.0509 0.0287835 0)
(28.7677 0.040104 0)
(28.4412 0.0568507 0)
(27.9966 0.0833933 0)
(27.4488 0.119932 0)
(26.6589 0.199338 0)
(25.6576 0.293281 0)
(24.0842 0.533918 0)
(21.9585 0.842578 0)
(18.4393 1.63198 0)
(12.7685 2.28691 0)
(6.22859 3.85265 0)
(29.9994 0.000375681 0)
(29.9846 0.00110005 0)
(29.9586 0.00162822 0)
(29.9172 0.00265221 0)
(29.8604 0.00413277 0)
(29.788 0.00596255 0)
(29.6994 0.00799944 0)
(29.5885 0.0113157 0)
(29.4453 0.0163017 0)
(29.2694 0.0230403 0)
(29.0508 0.03181 0)
(28.7675 0.0443281 0)
(28.4439 0.0628906 0)
(28.0017 0.0921335 0)
(27.4473 0.132455 0)
(26.648 0.219438 0)
(25.6473 0.325053 0)
(24.0801 0.588392 0)
(21.9984 0.930394 0)
(18.5125 1.79983 0)
(12.8669 2.529 0)
(6.28456 4.26835 0)
(29.9994 0.000411317 0)
(29.9844 0.00120353 0)
(29.9587 0.00178156 0)
(29.9176 0.00290497 0)
(29.8606 0.004528 0)
(29.7879 0.00652869 0)
(29.6995 0.00876012 0)
(29.5887 0.0123948 0)
(29.4454 0.0178573 0)
(29.2693 0.0252328 0)
(29.0514 0.034837 0)
(28.7689 0.0485529 0)
(28.4413 0.0688757 0)
(28.001 0.101169 0)
(27.4359 0.145884 0)
(26.632 0.240076 0)
(25.6372 0.357074 0)
(24.0815 0.641592 0)
(22.0386 1.01724 0)
(18.5923 1.96599 0)
(12.9809 2.77175 0)
(6.34882 4.6878 0)
(29.9993 0.000446864 0)
(29.9847 0.00130671 0)
(29.9586 0.00193493 0)
(29.9173 0.00315787 0)
(29.8604 0.0049233 0)
(29.7881 0.00709456 0)
(29.6996 0.00952089 0)
(29.5886 0.0134741 0)
(29.4454 0.0194135 0)
(29.2694 0.0274239 0)
(29.0516 0.0378556 0)
(28.7691 0.0528393 0)
(28.4438 0.0748683 0)
(27.9992 0.110329 0)
(27.4227 0.159835 0)
(26.6164 0.260585 0)
(25.6298 0.388907 0)
(24.0868 0.693225 0)
(22.0749 1.10289 0)
(18.6727 2.13012 0)
(13.1076 3.01501 0)
(6.42149 5.11151 0)
(29.9994 0.000482334 0)
(29.9845 0.00140964 0)
(29.9588 0.00208835 0)
(29.9177 0.00341084 0)
(29.8606 0.00531857 0)
(29.788 0.00765995 0)
(29.6997 0.0102818 0)
(29.5888 0.0145537 0)
(29.4456 0.0209701 0)
(29.2693 0.0296149 0)
(29.0521 0.0408892 0)
(28.7708 0.0571302 0)
(28.443 0.0812031 0)
(27.99 0.119685 0)
(27.4087 0.173575 0)
(26.605 0.280564 0)
(25.6248 0.420345 0)
(24.0929 0.743554 0)
(22.1057 1.18743 0)
(18.7494 2.29205 0)
(13.2442 3.25856 0)
(6.5025 5.5399 0)
(29.9993 0.000517705 0)
(29.9848 0.00151226 0)
(29.9587 0.00224184 0)
(29.9173 0.00366396 0)
(29.8604 0.00571392 0)
(29.7882 0.0082251 0)
(29.6997 0.0110428 0)
(29.5887 0.0156331 0)
(29.4457 0.0225281 0)
(29.2694 0.0318009 0)
(29.0523 0.0439342 0)
(28.7728 0.0613377 0)
(28.4408 0.0875038 0)
(27.9799 0.128926 0)
(27.3983 0.187249 0)
(26.597 0.300303 0)
(25.6209 0.451558 0)
(24.098 0.792979 0)
(22.1315 1.27099 0)
(18.8203 2.45167 0)
(13.3877 3.5021 0)
(6.59161 5.97336 0)
(29.9993 0.000552989 0)
(29.9846 0.00161462 0)
(29.9589 0.00239545 0)
(29.9178 0.00391717 0)
(29.8607 0.0061092 0)
(29.7881 0.00878972 0)
(29.6998 0.0118039 0)
(29.5889 0.0167128 0)
(29.4458 0.0240852 0)
(29.2693 0.0339927 0)
(29.0519 0.0469741 0)
(28.7754 0.0656764 0)
(28.4354 0.0938373 0)
(27.9707 0.138087 0)
(27.3903 0.200827 0)
(26.5914 0.319955 0)
(25.6177 0.482661 0)
(24.1017 0.841822 0)
(22.1534 1.35368 0)
(18.885 2.6089 0)
(13.5356 3.74533 0)
(6.68844 6.4122 0)
(29.9993 0.000588162 0)
(29.9849 0.00171671 0)
(29.9587 0.0025493 0)
(29.9173 0.00417051 0)
(29.8605 0.00650441 0)
(29.7884 0.00935416 0)
(29.6998 0.0125653 0)
(29.5888 0.0177927 0)
(29.4458 0.0256433 0)
(29.2694 0.0361823 0)
(29.0519 0.0500718 0)
(28.7772 0.0700709 0)
(28.4293 0.100211 0)
(27.9634 0.147217 0)
(27.3845 0.214389 0)
(26.5872 0.339566 0)
(25.6147 0.513697 0)
(24.1041 0.890266 0)
(22.1727 1.43558 0)
(18.944 2.76371 0)
(13.6864 3.98792 0)
(6.79258 6.85667 0)
(29.9993 0.000623242 0)
(29.9846 0.00181855 0)
(29.9589 0.00270336 0)
(29.9179 0.00442394 0)
(29.8607 0.00689949 0)
(29.7882 0.00991801 0)
(29.6999 0.0133269 0)
(29.589 0.0188725 0)
(29.446 0.0272021 0)
(29.2693 0.0383675 0)
(29.0521 0.0531863 0)
(28.7767 0.0745143 0)
(28.4235 0.106546 0)
(27.9578 0.156339 0)
(27.38 0.227942 0)
(26.5841 0.359161 0)
(25.6119 0.544689 0)
(24.1055 0.938415 0)
(22.1904 1.51674 0)
(18.9981 2.91604 0)
(13.8388 4.22962 0)
(6.90359 7.30699 0)
(29.9993 0.000658205 0)
(29.985 0.00192012 0)
(29.9588 0.00285763 0)
(29.9174 0.00467749 0)
(29.8605 0.00729456 0)
(29.7885 0.0104817 0)
(29.6999 0.0140887 0)
(29.5889 0.0199525 0)
(29.4461 0.0287605 0)
(29.2693 0.0405626 0)
(29.0529 0.0562958 0)
(28.7746 0.0788901 0)
(28.4187 0.112921 0)
(27.9534 0.16545 0)
(27.3765 0.241492 0)
(26.5817 0.378745 0)
(25.6093 0.575651 0)
(24.1063 0.986322 0)
(22.2075 1.59718 0)
(19.0486 3.06586 0)
(13.9924 4.47017 0)
(7.02109 7.76335 0)
(29.9993 0.000693072 0)
(29.9847 0.00202142 0)
(29.959 0.00301215 0)
(29.9179 0.00493116 0)
(29.8607 0.00768949 0)
(29.7883 0.0110448 0)
(29.7 0.0148508 0)
(29.5891 0.0210325 0)
(29.4463 0.0303209 0)
(29.2692 0.0427605 0)
(29.0535 0.0594777 0)
(28.772 0.0832156 0)
(28.4147 0.119291 0)
(27.9499 0.17457 0)
(27.3736 0.255033 0)
(26.5798 0.398327 0)
(25.6068 0.606593 0)
(24.107 1.03401 0)
(22.2249 1.67691 0)
(19.0964 3.21317 0)
(14.1473 4.70938 0)
(7.14473 8.22592 0)
(29.9993 0.000727816 0)
(29.9851 0.00212249 0)
(29.9588 0.00316699 0)
(29.9173 0.00518491 0)
(29.8605 0.00808427 0)
(29.7886 0.0116078 0)
(29.7 0.0156132 0)
(29.589 0.0221119 0)
(29.4464 0.0318817 0)
(29.2695 0.04497 0)
(29.0538 0.0626748 0)
(28.7694 0.0875603 0)
(28.4115 0.125692 0)
(27.947 0.183687 0)
(27.3713 0.268566 0)
(26.5783 0.41791 0)
(25.6047 0.637527 0)
(24.108 1.08148 0)
(22.2431 1.75594 0)
(19.1428 3.35794 0)
(14.3036 4.94704 0)
(7.27428 8.69488 0)
(29.9993 0.000762461 0)
(29.9848 0.0022233 0)
(29.959 0.00332215 0)
(29.918 0.00543879 0)
(29.8607 0.00847889 0)
(29.7884 0.01217 0)
(29.7001 0.0163759 0)
(29.5891 0.0231919 0)
(29.4465 0.0334386 0)
(29.2698 0.0472332 0)
(29.0531 0.0658293 0)
(28.767 0.0919327 0)
(28.4088 0.132094 0)
(27.9446 0.192806 0)
(27.3693 0.282089 0)
(26.5772 0.437498 0)
(25.603 0.66846 0)
(24.1095 1.1287 0)
(22.2625 1.83427 0)
(19.1886 3.50018 0)
(14.4622 5.18302 0)
(7.40956 9.17042 0)
(29.9992 0.000796983 0)
(29.9852 0.00232387 0)
(29.9588 0.00347756 0)
(29.9173 0.00569274 0)
(29.8605 0.0088734 0)
(29.7887 0.0127323 0)
(29.7001 0.017139 0)
(29.5891 0.0242715 0)
(29.4466 0.0349938 0)
(29.2704 0.0495349 0)
(29.052 0.0689773 0)
(28.765 0.0963474 0)
(28.4065 0.138512 0)
(27.9426 0.20192 0)
(27.3677 0.295604 0)
(26.5764 0.457092 0)
(25.602 0.699394 0)
(24.1118 1.17561 0)
(22.2835 1.91189 0)
(19.2347 3.63987 0)
(14.6238 5.41719 0)
(7.55051 9.65271 0)
(29.9993 0.000831407 0)
(29.9849 0.00242417 0)
(29.959 0.00363331 0)
(29.918 0.00594683 0)
(29.8607 0.00926775 0)
(29.7885 0.0132937 0)
(29.7002 0.0179022 0)
(29.5892 0.0253516 0)
(29.4467 0.0365453 0)
(29.2707 0.0518625 0)
(29.0506 0.072058 0)
(28.7633 0.100792 0)
(28.4045 0.14493 0)
(27.9409 0.211032 0)
(27.3663 0.309111 0)
(26.576 0.476689 0)
(25.6017 0.730315 0)
(24.1151 1.22218 0)
(22.3059 1.98882 0)
(19.2817 3.77697 0)
(14.7895 5.64943 0)
(7.69714 10.142 0)
(29.9992 0.000865702 0)
(29.9853 0.00252427 0)
(29.9588 0.00378941 0)
(29.9173 0.00620097 0)
(29.8605 0.00966186 0)
(29.7888 0.0138553 0)
(29.7002 0.0186656 0)
(29.5892 0.026432 0)
(29.4467 0.0380928 0)
(29.2711 0.054175 0)
(29.0495 0.0750877 0)
(28.7617 0.105257 0)
(28.4028 0.151355 0)
(27.9394 0.220139 0)
(27.3653 0.32261 0)
(26.5759 0.496283 0)
(25.6023 0.761198 0)
(24.1193 1.26838 0)
(22.3299 2.06504 0)
(19.3303 3.91144 0)
(14.9603 5.87966 0)
(7.84955 10.6385 0)
(29.9992 0.0008999 0)
(29.985 0.00262411 0)
(29.9591 0.00394589 0)
(29.918 0.00645527 0)
(29.8608 0.0100558 0)
(29.7886 0.014416 0)
(29.7003 0.0194295 0)
(29.5894 0.0275114 0)
(29.447 0.0396534 0)
(29.2712 0.0564731 0)
(29.0484 0.0780989 0)
(28.7604 0.109736 0)
(28.4012 0.157778 0)
(27.9381 0.229242 0)
(27.3644 0.336099 0)
(26.5763 0.515864 0)
(25.6038 0.792015 0)
(24.1247 1.31423 0)
(22.3553 2.14056 0)
(19.3809 4.04321 0)
(15.1376 6.10779 0)
(8.0079 11.1424 0)
(29.9992 0.000933973 0)
(29.9854 0.00272375 0)
(29.9589 0.00410264 0)
(29.9173 0.00670959 0)
(29.8604 0.0104496 0)
(29.789 0.0149769 0)
(29.7003 0.0201936 0)
(29.5893 0.0285924 0)
(29.4471 0.0412194 0)
(29.2715 0.0588677 0)
(29.0475 0.0811288 0)
(28.7591 0.114224 0)
(28.3999 0.164203 0)
(27.937 0.238341 0)
(27.3638 0.349574 0)
(26.577 0.535417 0)
(25.6062 0.822748 0)
(24.1311 1.35972 0)
(22.3819 2.21535 0)
(19.4337 4.17218 0)
(15.3225 6.33375 0)
(8.17246 11.6541 0)
(29.9992 0.000967953 0)
(29.9851 0.00282312 0)
(29.9591 0.00425974 0)
(29.918 0.00696408 0)
(29.8608 0.0108432 0)
(29.7888 0.0155369 0)
(29.7004 0.0209575 0)
(29.5895 0.0296732 0)
(29.4474 0.042794 0)
(29.2713 0.0612136 0)
(29.0467 0.0841957 0)
(28.758 0.118718 0)
(28.3986 0.170626 0)
(27.936 0.247434 0)
(27.3634 0.363031 0)
(26.5781 0.554931 0)
(25.6094 0.853391 0)
(24.1386 1.40486 0)
(22.4096 2.2894 0)
(19.489 4.29821 0)
(15.5161 6.55748 0)
(8.34352 12.1739 0)
(29.9992 0.00100181 0)
(29.9855 0.00292232 0)
(29.9589 0.00441721 0)
(29.9173 0.00721857 0)
(29.8604 0.0112365 0)
(29.7891 0.0160971 0)
(29.7004 0.0217224 0)
(29.5894 0.0307503 0)
(29.4475 0.0444188 0)
(29.2713 0.0634221 0)
(29.046 0.0873015 0)
(28.757 0.123217 0)
(28.3975 0.177049 0)
(27.9351 0.25652 0)
(27.3632 0.376464 0)
(26.5796 0.574396 0)
(25.6135 0.883942 0)
(24.1472 1.44964 0)
(22.4383 2.36268 0)
(19.5466 4.42114 0)
(15.7194 6.77889 0)
(8.52144 12.7021 0)
(29.9992 0.00103557 0)
(29.9852 0.00302126 0)
(29.9591 0.00457504 0)
(29.9181 0.00747326 0)
(29.8608 0.0116296 0)
(29.7889 0.0166563 0)
(29.7006 0.0224873 0)
(29.5896 0.0318276 0)
(29.4479 0.0460619 0)
(29.2711 0.065611 0)
(29.0453 0.0904382 0)
(28.756 0.127719 0)
(28.3965 0.18347 0)
(27.9344 0.265597 0)
(27.3632 0.389872 0)
(26.5815 0.593808 0)
(25.6182 0.914397 0)
(24.157 1.49407 0)
(22.4679 2.43517 0)
(19.6066 4.5408 0)
(15.9332 6.99792 0)
(8.70657 13.2392 0)
(29.9991 0.00106921 0)
(29.9856 0.00312003 0)
(29.9589 0.00473311 0)
(29.9172 0.00772791 0)
(29.8605 0.0120227 0)
(29.7892 0.0172158 0)
(29.7005 0.0232524 0)
(29.5895 0.0329047 0)
(29.448 0.0477122 0)
(29.271 0.0677969 0)
(29.0447 0.0935954 0)
(28.7551 0.132225 0)
(28.3955 0.18989 0)
(27.9338 0.274665 0)
(27.3635 0.403251 0)
(26.5836 0.613161 0)
(25.6236 0.944747 0)
(24.1679 1.53814 0)
(22.4983 2.50687 0)
(19.6686 4.65701 0)
(16.1577 7.21446 0)
(8.89929 13.7854 0)
(29.9992 0.00110277 0)
(29.9852 0.00321853 0)
(29.9592 0.00489155 0)
(29.9181 0.00798279 0)
(29.8608 0.0124155 0)
(29.789 0.0177743 0)
(29.7007 0.0240178 0)
(29.5897 0.0339811 0)
(29.4483 0.0493707 0)
(29.2708 0.0699659 0)
(29.0441 0.0967663 0)
(28.7542 0.136732 0)
(28.3946 0.196307 0)
(27.9333 0.283721 0)
(27.3638 0.4166 0)
(26.586 0.632453 0)
(25.6296 0.974984 0)
(24.1799 1.58184 0)
(22.5296 2.57775 0)
(19.7324 4.76957 0)
(16.3931 7.42842 0)
(9.09997 14.3413 0)
(29.9991 0.00113622 0)
(29.9857 0.0033169 0)
(29.9589 0.00505029 0)
(29.9172 0.00823762 0)
(29.8605 0.0128081 0)
(29.7893 0.0183331 0)
(29.7006 0.0247834 0)
(29.5896 0.0350571 0)
(29.4484 0.0510353 0)
(29.2707 0.0721253 0)
(29.0435 0.0999471 0)
(28.7534 0.141242 0)
(28.3938 0.202721 0)
(27.9328 0.292766 0)
(27.3644 0.429917 0)
(26.5887 0.65168 0)
(25.6362 1.0051 0)
(24.1931 1.62519 0)
(22.5616 2.64781 0)
(19.7978 4.87829 0)
(16.6393 7.63969 0)
(9.30895 14.9072 0)
(29.9992 0.00116958 0)
(29.9853 0.00341502 0)
(29.9592 0.00520937 0)
(29.9181 0.00849265 0)
(29.8608 0.0132005 0)
(29.7891 0.0188908 0)
(29.7008 0.0255491 0)
(29.5898 0.0361329 0)
(29.4487 0.0527035 0)
(29.2705 0.0742775 0)
(29.043 0.103135 0)
(28.7527 0.145753 0)
(28.3931 0.209133 0)
(27.9325 0.301797 0)
(27.3651 0.443202 0)
(26.5916 0.670837 0)
(25.6433 1.03507 0)
(24.2074 1.66817 0)
(22.5945 2.71704 0)
(19.8648 4.983 0)
(16.8959 7.84813 0)
(9.52653 15.4836 0)
(29.9991 0.00120284 0)
(29.9858 0.00351304 0)
(29.9589 0.00536869 0)
(29.9172 0.00874757 0)
(29.8605 0.0135927 0)
(29.7894 0.0194491 0)
(29.7008 0.0263151 0)
(29.5897 0.0372054 0)
(29.4487 0.0543715 0)
(29.2704 0.0764272 0)
(29.0425 0.10633 0)
(28.752 0.150265 0)
(28.3924 0.215539 0)
(27.9322 0.310815 0)
(27.3659 0.456453 0)
(26.5947 0.689921 0)
(25.6508 1.06489 0)
(24.2228 1.71077 0)
(22.6283 2.78543 0)
(19.9332 5.08351 0)
(17.1627 8.05362 0)
(9.75297 16.0709 0)
(29.9992 0.00123603 0)
(29.9854 0.00361079 0)
(29.9592 0.00552831 0)
(29.9181 0.00900273 0)
(29.8609 0.0139849 0)
(29.7892 0.0200058 0)
(29.7009 0.0270827 0)
(29.5899 0.0382766 0)
(29.449 0.0559868 0)
(29.2702 0.0785759 0)
(29.042 0.10953 0)
(28.7513 0.154778 0)
(28.3918 0.221943 0)
(27.9321 0.319819 0)
(27.3669 0.46967 0)
(26.598 0.708928 0)
(25.6589 1.09456 0)
(24.2393 1.75301 0)
(22.663 2.85299 0)
(20.0031 5.17967 0)
(17.4393 8.25601 0)
(9.98853 16.6696 0)
(29.9991 0.00126912 0)
(29.9858 0.00370843 0)
(29.9589 0.005688 0)
(29.9172 0.00925775 0)
(29.8605 0.0143769 0)
(29.7895 0.0205639 0)
(29.7009 0.0278469 0)
(29.5899 0.0393743 0)
(29.4493 0.0574767 0)
(29.27 0.0807329 0)
(29.0414 0.112734 0)
(28.7506 0.159292 0)
(28.3913 0.228341 0)
(27.932 0.328808 0)
(27.368 0.482852 0)
(26.6016 0.727853 0)
(25.6674 1.12406 0)
(24.2567 1.79485 0)
(22.6988 2.91969 0)
(20.0746 5.27131 0)
(17.7258 8.45514 0)
(10.2334 17.28 0)
(29.9991 0.00130215 0)
(29.9854 0.00380579 0)
(29.9593 0.00584794 0)
(29.9182 0.00951309 0)
(29.8609 0.0147688 0)
(29.7893 0.0211199 0)
(29.7011 0.0286155 0)
(29.5901 0.04046 0)
(29.4495 0.0592072 0)
(29.2698 0.0829215 0)
(29.0409 0.115942 0)
(28.75 0.163806 0)
(28.3908 0.234735 0)
(27.932 0.337782 0)
(27.3692 0.495996 0)
(26.6053 0.746694 0)
(25.6764 1.15337 0)
(24.2752 1.83631 0)
(22.7357 2.98553 0)
(20.1478 5.35828 0)
(18.0223 8.65086 0)
(10.4879 17.9026 0)
(29.9991 0.00133508 0)
(29.9859 0.00390299 0)
(29.9589 0.00600797 0)
(29.9172 0.00976845 0)
(29.8605 0.0151609 0)
(29.7896 0.0216758 0)
(29.7011 0.0293823 0)
(29.59 0.0415733 0)
(29.4493 0.0609599 0)
(29.2695 0.0851437 0)
(29.0405 0.119153 0)
(28.7494 0.168319 0)
(28.3903 0.241123 0)
(27.932 0.34674 0)
(27.3706 0.509102 0)
(26.6093 0.765446 0)
(25.6857 1.1825 0)
(24.2945 1.87736 0)
(22.774 3.0505 0)
(20.2224 5.44042 0)
(18.329 8.84301 0)
(10.7522 18.5378 0)
(29.9991 0.00136797 0)
(29.9855 0.00399991 0)
(29.9593 0.00616808 0)
(29.9183 0.0100244 0)
(29.8609 0.015553 0)
(29.7894 0.0222329 0)
(29.7013 0.0301351 0)
(29.5902 0.0427065 0)
(29.449 0.0625098 0)
(29.2692 0.0873834 0)
(29.04 0.122366 0)
(28.7488 0.172832 0)
(28.3899 0.247507 0)
(27.9322 0.355682 0)
(27.3721 0.522168 0)
(26.6135 0.784109 0)
(25.6955 1.21143 0)
(24.3146 1.918 0)
(22.8139 3.11459 0)
(20.298 5.51757 0)
(18.6461 9.03142 0)
(11.0265 19.1862 0)
(29.9991 0.0014008 0)
(29.9859 0.00409692 0)
(29.959 0.00632792 0)
(29.9173 0.0102789 0)
(29.8606 0.0159465 0)
(29.7897 0.0227887 0)
(29.7013 0.03092 0)
(29.5898 0.0436668 0)
(29.4488 0.0639861 0)
(29.2689 0.0896293 0)
(29.0395 0.125581 0)
(28.7483 0.177345 0)
(28.3895 0.253887 0)
(27.9324 0.364605 0)
(27.3738 0.535193 0)
(26.6179 0.802676 0)
(25.7056 1.24015 0)
(24.3354 1.9582 0)
(22.8555 3.17781 0)
(20.3741 5.58957 0)
(18.9725 9.21594 0)
(11.3111 19.848 0)
(29.9991 0.00143349 0)
(29.9856 0.00419386 0)
(29.9593 0.00648882 0)
(29.9182 0.0105322 0)
(29.861 0.0163375 0)
(29.7894 0.0233491 0)
(29.7017 0.0317066 0)
(29.589 0.0448213 0)
(29.4486 0.0654821 0)
(29.2686 0.0918774 0)
(29.039 0.128797 0)
(28.7478 0.181856 0)
(28.3892 0.260259 0)
(27.9327 0.373511 0)
(27.3756 0.548175 0)
(26.6226 0.821147 0)
(25.7161 1.26866 0)
(24.3568 1.99794 0)
(22.8992 3.24017 0)
(20.4496 5.6563 0)
(19.3052 9.39655 0)
(11.6061 20.5246 0)
(29.9991 0.00146577 0)
(29.986 0.00429055 0)
(29.959 0.00665295 0)
(29.9172 0.0107859 0)
(29.8606 0.016718 0)
(29.7898 0.0239113 0)
(29.7018 0.0325024 0)
(29.5885 0.046142 0)
(29.4485 0.0670137 0)
(29.2682 0.094129 0)
(29.0385 0.132015 0)
(28.7473 0.186366 0)
(28.3889 0.266624 0)
(27.9331 0.382392 0)
(27.3775 0.561111 0)
(26.6275 0.839519 0)
(25.7269 1.29696 0)
(24.3787 2.0372 0)
(22.9452 3.30169 0)
(20.5237 5.71773 0)
(19.6369 9.57293 0)
(11.9112 21.2232 0)
(29.9991 0.00149844 0)
(29.9855 0.00438203 0)
(29.9594 0.00682604 0)
(29.9186 0.0110539 0)
(29.8612 0.0170832 0)
(29.7895 0.0244469 0)
(29.7021 0.0333422 0)
(29.5884 0.0472945 0)
(29.4483 0.0685581 0)
(29.2679 0.0963769 0)
(29.038 0.135234 0)
(28.7468 0.190875 0)
(28.3887 0.272983 0)
(27.9335 0.391247 0)
(27.3796 0.574005 0)
(26.6326 0.857797 0)
(25.738 1.32505 0)
(24.401 2.07593 0)
(22.9939 3.36243 0)
(20.5961 5.77391 0)
(19.9558 9.74304 0)
(12.312 21.9656 0)
(-2.25872 0.100546 0)
(-6.55742 0.0660167 0)
(-8.18264 0.00385462 0)
(-6.7618 -0.0298585 0)
(-4.93856 -0.0228998 0)
(-4.11419 -0.0105475 0)
(-3.62279 -0.00596303 0)
(-3.30569 -0.00550477 0)
(-2.77434 -0.00670624 0)
(-2.16071 -0.00576366 0)
(-1.73245 -0.00549819 0)
(-1.12129 -0.00833668 0)
(-0.108735 -0.0118617 0)
(1.45707 -0.0152017 0)
(3.55986 -0.0170125 0)
(5.8914 -0.0168987 0)
(8.2898 -0.0156282 0)
(10.6049 -0.0135904 0)
(12.7121 -0.0113016 0)
(14.5911 -0.00967682 0)
(16.442 -0.00909741 0)
(18.4482 -0.00836435 0)
(20.3218 -0.00656474 0)
(21.7467 -0.00607429 0)
(23.6054 -0.0082028 0)
(26.5517 -0.00766287 0)
(28.4245 -0.00361548 0)
(29.0024 -0.00100199 0)
(29.1603 -0.000349167 0)
(29.281 -0.000272373 0)
(29.3954 -0.000233686 0)
(29.5 -0.000179427 0)
(29.577 -0.000130288 0)
(29.6432 -0.000100702 0)
(29.6967 -4.30639e-05 0)
(-2.23662 0.298614 0)
(-6.46885 0.195482 0)
(-8.05774 0.0104089 0)
(-6.61579 -0.0896043 0)
(-4.81205 -0.067777 0)
(-4.01124 -0.0307964 0)
(-3.54822 -0.0172527 0)
(-3.2723 -0.0163418 0)
(-2.76144 -0.0206663 0)
(-2.11152 -0.0180883 0)
(-1.63357 -0.0161685 0)
(-1.01988 -0.0237358 0)
(-0.0847459 -0.0339316 0)
(1.36821 -0.0445166 0)
(3.414 -0.0502426 0)
(5.74182 -0.0499113 0)
(8.14299 -0.0461553 0)
(10.4547 -0.0400842 0)
(12.558 -0.0333269 0)
(14.4212 -0.0286126 0)
(16.2357 -0.0272441 0)
(18.2277 -0.0255059 0)
(20.1653 -0.0202214 0)
(21.6658 -0.0182995 0)
(23.5111 -0.0245232 0)
(26.458 -0.0231868 0)
(28.392 -0.0110704 0)
(29.0012 -0.00307854 0)
(29.1631 -0.00104983 0)
(29.282 -0.000812382 0)
(29.3958 -0.000700163 0)
(29.5004 -0.000538775 0)
(29.5776 -0.000391054 0)
(29.6437 -0.000302022 0)
(29.6972 -0.00012928 0)
(-2.19855 0.493258 0)
(-6.3574 0.32304 0)
(-7.90962 0.0162883 0)
(-6.43908 -0.149799 0)
(-4.66045 -0.112132 0)
(-3.89398 -0.0503205 0)
(-3.46173 -0.0275157 0)
(-3.21361 -0.0262406 0)
(-2.69249 -0.0345511 0)
(-1.99477 -0.0313353 0)
(-1.49808 -0.0274838 0)
(-0.906837 -0.0388154 0)
(-0.0640129 -0.0543514 0)
(1.28857 -0.0720531 0)
(3.29805 -0.0827819 0)
(5.62498 -0.0826137 0)
(8.02359 -0.0760731 0)
(10.3278 -0.0659821 0)
(12.4268 -0.0549489 0)
(14.2782 -0.0471907 0)
(16.0627 -0.0450289 0)
(18.0364 -0.0426844 0)
(20.0245 -0.0343346 0)
(21.5938 -0.0308048 0)
(23.4272 -0.0407897 0)
(26.371 -0.0388478 0)
(28.3613 -0.0187878 0)
(29.0004 -0.00525837 0)
(29.1661 -0.00175797 0)
(29.2832 -0.00134626 0)
(29.3963 -0.00116501 0)
(29.501 -0.000898458 0)
(29.5784 -0.000651894 0)
(29.6443 -0.00050307 0)
(29.6978 -0.000215466 0)
(-2.14922 0.684243 0)
(-6.22869 0.448129 0)
(-7.73398 0.0207341 0)
(-6.21533 -0.210635 0)
(-4.47088 -0.155233 0)
(-3.74478 -0.0687344 0)
(-3.34335 -0.0369882 0)
(-3.11854 -0.0360778 0)
(-2.5819 -0.0492699 0)
(-1.8438 -0.0452845 0)
(-1.33394 -0.0387682 0)
(-0.768311 -0.0527634 0)
(-0.01671 -0.0732577 0)
(1.24223 -0.0988725 0)
(3.21465 -0.115612 0)
(5.53379 -0.116027 0)
(7.92444 -0.106671 0)
(10.2176 -0.0923752 0)
(12.3127 -0.076806 0)
(14.1592 -0.0657047 0)
(15.9228 -0.0626338 0)
(17.8751 -0.0600013 0)
(19.8984 -0.0489265 0)
(21.5297 -0.0435195 0)
(23.353 -0.0570003 0)
(26.2905 -0.0546755 0)
(28.3323 -0.0267615 0)
(29 -0.00753058 0)
(29.1694 -0.00247104 0)
(29.2847 -0.00187428 0)
(29.3971 -0.00162847 0)
(29.5018 -0.00125849 0)
(29.5793 -0.000912677 0)
(29.645 -0.000703712 0)
(29.6983 -0.000301511 0)
(-2.08946 0.870963 0)
(-6.08284 0.570142 0)
(-7.5255 0.0231816 0)
(-5.93765 -0.271949 0)
(-4.23939 -0.196791 0)
(-3.55903 -0.0859282 0)
(-3.19041 -0.0456748 0)
(-2.98546 -0.0458329 0)
(-2.42943 -0.0645981 0)
(-1.65811 -0.0597421 0)
(-1.13164 -0.049978 0)
(-0.592587 -0.0656212 0)
(0.0680374 -0.0905758 0)
(1.23915 -0.124573 0)
(3.1758 -0.148042 0)
(5.48137 -0.149385 0)
(7.85618 -0.137274 0)
(10.1309 -0.118805 0)
(12.2196 -0.09872 0)
(14.0664 -0.0841561 0)
(15.8168 -0.0800487 0)
(17.7445 -0.0773204 0)
(19.788 -0.0638642 0)
(21.4737 -0.0564335 0)
(23.288 -0.073157 0)
(26.2161 -0.0706299 0)
(28.3049 -0.0349664 0)
(29 -0.00989149 0)
(29.1729 -0.00318932 0)
(29.2865 -0.00239646 0)
(29.3981 -0.0020904 0)
(29.5029 -0.00161868 0)
(29.5803 -0.00117322 0)
(29.6458 -0.000903776 0)
(29.699 -0.000387286 0)
(-2.01984 1.05269 0)
(-5.91954 0.688537 0)
(-7.27894 0.0229189 0)
(-5.60249 -0.33401 0)
(-3.96238 -0.236598 0)
(-3.33175 -0.101815 0)
(-2.99944 -0.0535919 0)
(-2.81144 -0.0556013 0)
(-2.23304 -0.0805172 0)
(-1.43463 -0.0747339 0)
(-0.880213 -0.0611755 0)
(-0.365812 -0.0773677 0)
(0.20374 -0.10625 0)
(1.29158 -0.149064 0)
(3.19627 -0.179815 0)
(5.4874 -0.182275 0)
(7.83966 -0.16747 0)
(10.0848 -0.144978 0)
(12.1588 -0.120571 0)
(14.0068 -0.102554 0)
(15.7477 -0.097284 0)
(17.6465 -0.0945622 0)
(19.6949 -0.0790479 0)
(21.4265 -0.0695144 0)
(23.2321 -0.0892478 0)
(26.1477 -0.0866838 0)
(28.2791 -0.0433825 0)
(29.0003 -0.0123366 0)
(29.1766 -0.00391254 0)
(29.2885 -0.00291284 0)
(29.3993 -0.00255071 0)
(29.5041 -0.00197887 0)
(29.5815 -0.00143335 0)
(29.6468 -0.00110308 0)
(29.6997 -0.00047267 0)
(-1.94077 1.22876 0)
(-5.73828 0.80267 0)
(-6.98986 0.0191911 0)
(-5.21183 -0.397083 0)
(-3.63815 -0.274462 0)
(-3.0582 -0.116313 0)
(-2.76629 -0.0607217 0)
(-2.59261 -0.0654473 0)
(-1.98925 -0.0969977 0)
(-1.1675 -0.0903796 0)
(-0.5651 -0.0726455 0)
(-0.0689732 -0.0881112 0)
(0.408798 -0.120355 0)
(1.41507 -0.172462 0)
(3.29265 -0.211052 0)
(5.57507 -0.214698 0)
(7.90401 -0.19711 0)
(10.1074 -0.170695 0)
(12.151 -0.142242 0)
(13.9928 -0.12088 0)
(15.722 -0.114324 0)
(17.5856 -0.111642 0)
(19.623 -0.0943755 0)
(21.3902 -0.0827231 0)
(23.1855 -0.105259 0)
(26.0852 -0.102814 0)
(28.255 -0.0519933 0)
(29.0009 -0.0148619 0)
(29.1805 -0.00464038 0)
(29.2907 -0.00342344 0)
(29.4008 -0.00300932 0)
(29.5056 -0.0023389 0)
(29.5828 -0.00169287 0)
(29.6479 -0.00130146 0)
(29.7004 -0.000557541 0)
(-1.85254 1.39855 0)
(-5.53844 0.911801 0)
(-6.65565 0.0113526 0)
(-4.77495 -0.461245 0)
(-3.26916 -0.310313 0)
(-2.73577 -0.129384 0)
(-2.4871 -0.0670386 0)
(-2.32516 -0.0754297 0)
(-1.69458 -0.114036 0)
(-0.849774 -0.106935 0)
(-0.169385 -0.0848165 0)
(0.323206 -0.0980621 0)
(0.708904 -0.132974 0)
(1.63205 -0.194904 0)
(3.48749 -0.242013 0)
(5.77305 -0.246908 0)
(8.08725 -0.226247 0)
(10.2396 -0.195811 0)
(12.2284 -0.163553 0)
(14.045 -0.139036 0)
(15.7521 -0.131101 0)
(17.5699 -0.128454 0)
(19.5782 -0.109732 0)
(21.3682 -0.0960068 0)
(23.1491 -0.121169 0)
(26.0285 -0.118996 0)
(28.2327 -0.0607825 0)
(29.002 -0.0174632 0)
(29.1847 -0.00537255 0)
(29.2933 -0.00392827 0)
(29.4025 -0.00346612 0)
(29.5073 -0.00269861 0)
(29.5843 -0.00195161 0)
(29.6491 -0.00149874 0)
(29.7012 -0.000641779 0)
(-1.75539 1.56141 0)
(-5.31947 1.01515 0)
(-6.27627 -0.00100272 0)
(-4.30677 -0.526384 0)
(-2.86334 -0.344299 0)
(-2.36615 -0.141123 0)
(-2.16 -0.072557 0)
(-2.00688 -0.0856045 0)
(-1.34807 -0.131676 0)
(-0.476798 -0.12479 0)
(0.317603 -0.098324 0)
(0.835223 -0.107476 0)
(1.13327 -0.144133 0)
(1.97144 -0.216453 0)
(3.81018 -0.272967 0)
(6.11559 -0.27928 0)
(8.43465 -0.255105 0)
(10.5375 -0.220258 0)
(12.4414 -0.184272 0)
(14.1974 -0.156824 0)
(15.8597 -0.147481 0)
(17.6142 -0.144855 0)
(19.5708 -0.124977 0)
(21.3663 -0.109289 0)
(23.1249 -0.136942 0)
(25.9777 -0.135201 0)
(28.2122 -0.069734 0)
(29.0034 -0.020136 0)
(29.189 -0.00610874 0)
(29.296 -0.00442741 0)
(29.4044 -0.00392105 0)
(29.5092 -0.00305783 0)
(29.5859 -0.00220938 0)
(29.6504 -0.00169472 0)
(29.702 -0.000725262 0)
(-1.64949 1.71666 0)
(-5.08093 1.11197 0)
(-5.85403 -0.0179719 0)
(-3.8228 -0.592224 0)
(-2.43285 -0.376776 0)
(-1.9568 -0.151792 0)
(-1.78681 -0.0773715 0)
(-1.63881 -0.0960083 0)
(-0.953379 -0.149984 0)
(-0.0497966 -0.144349 0)
(0.884196 -0.113889 0)
(1.46633 -0.116798 0)
(1.69582 -0.153909 0)
(2.4546 -0.237141 0)
(4.28438 -0.304121 0)
(6.62791 -0.312171 0)
(8.97875 -0.283979 0)
(11.0544 -0.244017 0)
(12.8555 -0.204108 0)
(14.5024 -0.173928 0)
(16.081 -0.163237 0)
(17.7437 -0.160643 0)
(19.6166 -0.139922 0)
(21.3932 -0.122454 0)
(23.1156 -0.152515 0)
(25.9333 -0.151392 0)
(28.1937 -0.0788306 0)
(29.0052 -0.0228757 0)
(29.1936 -0.00684861 0)
(29.2991 -0.00492092 0)
(29.4066 -0.00437401 0)
(29.5113 -0.00341639 0)
(29.5877 -0.00246598 0)
(29.6518 -0.00188925 0)
(29.7028 -0.000807867 0)
(-1.53499 1.86365 0)
(-4.82252 1.20159 0)
(-5.39209 -0.039384 0)
(-3.33441 -0.658314 0)
(-1.99097 -0.408161 0)
(-1.52038 -0.161802 0)
(-1.37436 -0.0816878 0)
(-1.22637 -0.106656 0)
(-0.51981 -0.169006 0)
(0.420044 -0.165855 0)
(1.49155 -0.131917 0)
(2.16546 -0.126523 0)
(2.36578 -0.162611 0)