/*--------------------------------*- C++ -*----------------------------------*\
| =========                 |                                                 |
| \\      /  F ield         | OpenFOAM: The Open Source CFD Toolbox           |
|  \\    /   O peration     | Version:  v1912                                 |
|   \\  /    A nd           | Website:  www.openfoam.com                      |
|    \\/     M anipulation  |                                                 |
\*---------------------------------------------------------------------------*/
FoamFile
{
    version     2.0;
    format      ascii;
    class       volScalarField;
    location    "1000";
    object      mag(U);
}
// * * * * * * * * * * * * * * * * * * * * * * * * * * * * * * * * * * * * * //

dimensions      [0 1 -1 0 0 0 0];


internalField   nonuniform List<scalar> 
2000
(
0.865582
0.528609
0.233512
0.062991
0.0311738
0.0742945
0.0771619
0.0632917
0.0586094
0.0549357
0.0440048
0.0378453
0.0432072
0.0477066
0.0488152
0.0495426
0.0517237
0.0548118
0.0582263
0.0619539
0.0661951
0.0711646
0.0770548
0.0840334
0.0922195
0.101645
0.11223
0.123781
0.135999
0.148507
0.160903
0.172801
0.18386
0.193807
0.202441
0.209638
0.215343
0.21952
0.222119
0.223158
0.223007
0.221957
0.21993
0.21694
0.212964
0.207974
0.201932
0.194804
0.186554
0.177149
0.166566
0.154788
0.141809
0.127627
0.112263
0.0957753
0.0782998
0.0601722
0.0424028
0.0286383
0.0289429
0.045133
0.06783
0.0934051
0.120895
0.149963
0.180472
0.212374
0.245676
0.280419
0.316679
0.354577
0.394276
0.436053
0.480143
0.527554
0.577407
0.637562
0.687116
0.806163
1.03704
0.962995
0.819753
0.663619
0.508857
0.351579
0.199727
0.0588609
0.0298523
0.0422546
0.0545232
0.0494059
0.0494282
0.0490322
0.0482919
0.0508033
0.0549872
0.0591723
0.0630995
0.0670329
0.0712398
0.0757993
0.0807024
0.0859217
0.0913987
0.0970104
0.102556
0.107775
0.1124
0.116206
0.119043
0.120849
0.121643
0.121505
0.120559
0.118961
0.116906
0.114604
0.112126
0.109648
0.106985
0.103737
0.0999468
0.09557
0.0905702
0.0849393
0.0787043
0.0719407
0.0648017
0.0575775
0.0508017
0.0454121
0.0428269
0.0444861
0.0508693
0.0613059
0.0748127
0.0906464
0.10835
0.127659
0.148408
0.170467
0.193734
0.218191
0.243834
0.270674
0.298722
0.328016
0.358609
0.390577
0.424025
0.459087
0.495941
0.534823
0.576018
0.619982
0.666831
0.718701
0.76707
0.847075
0.999744
0.999463
0.991645
0.959898
0.89236
0.790491
0.664053
0.525038
0.383087
0.257168
0.139231
0.0402477
0.000733182
0.00437096
0.0146872
0.0215827
0.0275434
0.0312814
0.0342107
0.0370993
0.0398391
0.0422806
0.0443295
0.0459497
0.0471284
0.0478239
0.0479457
0.0473763
0.0460163
0.0438297
0.040862
0.0372337
0.0331211
0.0287302
0.024279
0.0199687
0.0159789
0.0126065
0.0103735
0.010134
0.0123081
0.0165149
0.0221504
0.0288506
0.0364461
0.0448591
0.0540526
0.0640094
0.0747216
0.0861869
0.0984057
0.111379
0.125109
0.139598
0.154845
0.170852
0.18762
0.205155
0.223465
0.242561
0.262455
0.283151
0.304662
0.327018
0.350261
0.374439
0.399614
0.425858
0.453259
0.481929
0.511995
0.543614
0.576971
0.612284
0.649786
0.68979
0.732267
0.778455
0.821703
0.888728
0.993334
0.984612
0.988089
0.999383
1.00249
0.984533
0.940808
0.872896
0.782137
0.67451
0.557331
0.436523
0.320988
0.222782
0.142927
0.0870474
0.0598253
0.0491555
0.0433215
0.0392588
0.0365797
0.035064
0.0347035
0.0355343
0.0375056
0.0404517
0.0441342
0.0482957
0.0527069
0.0571959
0.0616607
0.0660664
0.0704303
0.0748074
0.0792693
0.083918
0.0888318
0.0941424
0.0999864
0.106405
0.113452
0.121173
0.12957
0.138635
0.14835
0.158702
0.169675
0.181249
0.193408
0.206133
0.219404
0.233204
0.247513
0.262314
0.277591
0.293332
0.309526
0.32617
0.343266
0.360824
0.378859
0.397392
0.416455
0.436097
0.456378
0.477371
0.499165
0.521861
0.545581
0.570458
0.596647
0.624323
0.653679
0.684928
0.718271
0.75396
0.791858
0.833046
0.871263
0.930741
0.996997
0.986935
0.978462
0.979812
0.990517
1.00288
1.00856
1.00175
0.978267
0.935532
0.874377
0.797415
0.706917
0.608889
0.509197
0.41325
0.329778
0.264695
0.218109
0.187294
0.168096
0.156496
0.149643
0.145926
0.144572
0.1452
0.147527
0.151254
0.156057
0.161616
0.167656
0.173971
0.180419
0.186925
0.193483
0.20016
0.20705
0.214233
0.221791
0.22979
0.238277
0.247284
0.256819
0.266873
0.277427
0.288462
0.299955
0.311877
0.324204
0.336905
0.34995
0.363312
0.376962
0.390871
0.405017
0.419378
0.433943
0.448703
0.463661
0.47883
0.494234
0.509907
0.525898
0.54227
0.559105
0.576499
0.594561
0.613418
0.633214
0.654105
0.676265
0.699885
0.725164
0.752318
0.78153
0.813041
0.846639
0.8835
0.91728
0.971436
0.998681
0.99245
0.983378
0.976571
0.975796
0.981195
0.990877
1.00197
1.01061
1.01216
1.00273
0.98033
0.943992
0.893783
0.831233
0.75894
0.682438
0.608102
0.539872
0.480159
0.430357
0.390832
0.360977
0.339473
0.32472
0.315208
0.309701
0.307259
0.307174
0.308914
0.312053
0.316266
0.321294
0.326928
0.333068
0.339646
0.346621
0.35399
0.361765
0.36996
0.378587
0.387645
0.397126
0.407008
0.417263
0.427858
0.438758
0.449924
0.461319
0.472902
0.484636
0.496481
0.508402
0.520369
0.532355
0.544339
0.556313
0.568275
0.580238
0.592228
0.604282
0.616456
0.628819
0.641455
0.654469
0.667976
0.682108
0.697011
0.712845
0.729784
0.748012
0.767729
0.789139
0.812459
0.837864
0.865608
0.895414
0.92866
0.958698
1.00889
0.999085
0.995209
0.989169
0.982801
0.977821
0.97509
0.975445
0.979726
0.987827
0.998135
1.00799
1.01457
1.01533
1.00789
0.990626
0.962935
0.926222
0.883272
0.836579
0.788378
0.740733
0.69542
0.653842
0.617002
0.585506
0.559566
0.539035
0.523476
0.512266
0.504711
0.500142
0.497962
0.497713
0.499004
0.501525
0.505041
0.5094
0.514487
0.520224
0.526539
0.533375
0.540682
0.548406
0.556498
0.564902
0.573566
0.582434
0.59145
0.60056
0.609711
0.618852
0.627941
0.636937
0.645808
0.654533
0.663101
0.671514
0.679785
0.687947
0.696047
0.704146
0.712322
0.720671
0.729299
0.73833
0.747898
0.758151
0.769246
0.781351
0.794643
0.809311
0.82555
0.843565
0.863568
0.885728
0.910324
0.937009
0.967423
0.994481
1.04189
0.999273
0.996321
0.99197
0.987385
0.983264
0.979459
0.976021
0.973797
0.973912
0.977058
0.983228
0.991751
1.00139
1.01037
1.01672
1.01865
1.01507
1.00581
0.991367
0.972505
0.950158
0.925305
0.898896
0.871839
0.844982
0.81909
0.794824
0.772715
0.75314
0.73632
0.722315
0.711067
0.702344
0.696066
0.691979
0.689732
0.688996
0.689499
0.691025
0.693408
0.69651
0.700218
0.704428
0.709049
0.713986
0.719153
0.724468
0.729855
0.735241
0.740564
0.745771
0.750815
0.755665
0.760299
0.76471
0.768908
0.772917
0.77678
0.780554
0.784313
0.788148
0.79216
0.796464
0.801186
0.80646
0.812426
0.819234
0.827038
0.836001
0.84629
0.858082
0.871563
0.886921
0.904362
0.924042
0.946275
0.97064
0.999074
1.02395
1.06978
0.999414
0.996881
0.993141
0.989335
0.986199
0.98346
0.980579
0.977514
0.974714
0.972799
0.972403
0.974082
0.978139
0.984424
0.992311
1.00085
1.00882
1.01509
1.01904
1.0204
1.01914
1.0154
1.00944
1.00158
0.992133
0.981469
0.969932
0.957857
0.945568
0.933363
0.921518
0.91026
0.899805
0.890154
0.88149
0.873979
0.867697
0.862638
0.858732
0.855862
0.853883
0.852641
0.851984
0.85177
0.85187
0.852173
0.85258
0.853009
0.853392
0.853673
0.85381
0.853778
0.853566
0.853182
0.852646
0.852
0.851301
0.850619
0.850042
0.849666
0.849599
0.849954
0.850851
0.852413
0.854767
0.858039
0.862363
0.867875
0.874711
0.88302
0.892953
0.904676
0.918359
0.934195
0.952325
0.973101
0.996029
1.02337
1.04688
1.09233
0.999505
0.997195
0.993714
0.990158
0.987317
0.985109
0.983075
0.980957
0.978716
0.976393
0.974142
0.972309
0.971374
0.97177
0.97376
0.977425
0.982489
0.988386
0.994557
1.00054
1.00597
1.01063
1.01436
1.01713
1.01891
1.01974
1.01972
1.0189
1.01738
1.01526
1.01264
1.0096
1.00626
1.00271
0.998859
0.994692
0.990242
0.985577
0.980769
0.975894
0.97101
0.966164
0.961381
0.956666
0.952009
0.947389
0.942779
0.938152
0.933486
0.928768
0.923995
0.919181
0.914354
0.909555
0.904842
0.900283
0.895958
0.891955
0.888368
0.885292
0.882828
0.881072
0.880127
0.88009
0.881059
0.883137
0.886427
0.891036
0.897077
0.904672
0.913951
0.925058
0.938144
0.953398
0.97094
0.99117
1.01351
1.0406
1.06347
1.10969
0.99956
0.997334
0.993965
0.990537
0.987778
0.985645
0.983835
0.982211
0.980723
0.979255
0.977671
0.97593
0.974138
0.972489
0.97122
0.970605
0.970873
0.972078
0.974114
0.976808
0.979976
0.983432
0.987013
0.990578
0.994014
0.99723
1.00016
1.00274
1.00494
1.00671
1.00801
1.00882
1.00913
1.00895
1.00828
1.00715
1.00553
1.00344
1.00088
0.997843
0.994338
0.990381
0.98599
0.981192
0.976018
0.970507
0.964704
0.95866
0.952434
0.946091
0.939701
0.933339
0.927083
0.921015
0.915215
0.909768
0.904751
0.900245
0.896328
0.893076
0.890562
0.888865
0.888057
0.888218
0.889431
0.891779
0.895354
0.900252
0.906578
0.914441
0.923965
0.935284
0.948543
0.963929
0.981554
1.00187
1.02423
1.05163
1.07432
1.12225
0.999587
0.997338
0.993963
0.990619
0.98794
0.985814
0.983997
0.982437
0.981155
0.980095
0.979138
0.978166
0.977104
0.975914
0.974591
0.973199
0.971907
0.970881
0.970209
0.969924
0.970031
0.970507
0.971311
0.972385
0.973664
0.975081
0.976564
0.978041
0.979433
0.980665
0.981661
0.982347
0.982664
0.982548
0.982018
0.98107
0.979698
0.977901
0.975684
0.973057
0.970041
0.966659
0.96294
0.958915
0.954623
0.950104
0.945402
0.940564
0.935641
0.930684
0.92575
0.920892
0.916169
0.911636
0.907352
0.903373
0.89976
0.896575
0.893882
0.891751
0.890253
0.889467
0.889475
0.890362
0.892218
0.895134
0.899206
0.90453
0.911214
0.919367
0.929112
0.940586
0.953934
0.969358
0.986975
1.0073
1.02964
1.05737
1.07996
1.12999
0.999592
0.997228
0.993762
0.990467
0.987868
0.985769
0.983946
0.982376
0.981092
0.980076
0.979263
0.978592
0.978004
0.977434
0.976801
0.976044
0.975179
0.974263
0.973348
0.972478
0.971697
0.971044
0.970544
0.970206
0.970029
0.97
0.970093
0.97027
0.970489
0.970694
0.970831
0.970845
0.970687
0.970311
0.969697
0.968815
0.967648
0.966185
0.964427
0.962376
0.960038
0.957429
0.954564
0.951462
0.948145
0.944638
0.940967
0.93716
0.933252
0.929273
0.925261
0.921257
0.917302
0.913446
0.909742
0.906251
0.903038
0.900177
0.897747
0.89583
0.894511
0.893876
0.894009
0.894989
0.896897
0.89981
0.903804
0.908963
0.915377
0.923147
0.932395
0.943263
0.955909
0.970558
0.987354
1.00688
1.02848
1.0558
1.07797
1.12936
0.999574
0.997016
0.993408
0.990141
0.987609
0.985532
0.983718
0.982162
0.980881
0.979851
0.979027
0.978371
0.977864
0.977472
0.977145
0.976824
0.976483
0.976112
0.975705
0.975265
0.974808
0.974355
0.97393
0.973554
0.973237
0.972987
0.972801
0.972665
0.972557
0.972448
0.972303
0.972086
0.971762
0.971301
0.970661
0.96981
0.968724
0.967389
0.965799
0.963948
0.961837
0.959469
0.95685
0.95399
0.950901
0.947597
0.944096
0.940421
0.936598
0.932661
0.928647
0.924602
0.920582
0.916648
0.912868
0.909318
0.906074
0.903215
0.900814
0.898939
0.89765
0.897001
0.897035
0.897797
0.89933
0.901685
0.904925
0.909128
0.9144
0.920864
0.928674
0.938011
0.949079
0.96215
0.977416
0.995534
1.01587
1.04232
1.06387
1.11558
0.999532
0.99671
0.992934
0.98969
0.987211
0.985144
0.983334
0.981795
0.980533
0.979514
0.978689
0.978023
0.9775
0.977099
0.976793
0.976552
0.976357
0.9762
0.976065
0.975936
0.975813
0.975697
0.975594
0.975514
0.97546
0.975433
0.975428
0.975434
0.975429
0.975391
0.975291
0.975095
0.974775
0.974299
0.973634
0.972752
0.971628
0.970249
0.968604
0.966689
0.964501
0.962042
0.959319
0.956339
0.953114
0.949663
0.946008
0.942179
0.938211
0.934151
0.93005
0.925965
0.921958
0.918091
0.914422
0.911003
0.907875
0.905068
0.9026
0.900483
0.898723
0.897329
0.896323
0.895743
0.895653
0.89614
0.897325
0.899358
0.902414
0.906698
0.91243
0.91986
0.92924
0.94089
0.955025
0.972352
0.99221
1.01872
1.04045
1.09388
0.999464
0.996321
0.992365
0.989147
0.986708
0.984642
0.982828
0.9813
0.980054
0.979049
0.978237
0.977581
0.97706
0.976653
0.976332
0.976073
0.975869
0.975717
0.975612
0.975541
0.975499
0.975488
0.975509
0.975561
0.975643
0.97575
0.97587
0.975987
0.976078
0.976116
0.97607
0.975908
0.9756
0.975116
0.974428
0.97351
0.972342
0.970908
0.969199
0.967212
0.964947
0.962408
0.959606
0.956555
0.953277
0.9498
0.946156
0.942383
0.938524
0.934615
0.930695
0.926791
0.922921
0.919088
0.915286
0.911494
0.907688
0.903846
0.899957
0.896029
0.892098
0.888235
0.884543
0.881167
0.878279
0.876079
0.874787
0.874636
0.875861
0.878703
0.883397
0.890183
0.899292
0.911009
0.925501
0.943464
0.964125
0.991881
1.01458
1.07093
0.999371
0.995855
0.991726
0.988536
0.986126
0.984052
0.982232
0.980709
0.979469
0.978469
0.977665
0.977022
0.976514
0.976116
0.9758
0.975541
0.97533
0.975165
0.975043
0.974957
0.974905
0.974888
0.974909
0.974966
0.975058
0.975177
0.975311
0.975441
0.975543
0.975587
0.975543
0.975377
0.975061
0.974564
0.97386
0.972925
0.97174
0.970292
0.968575
0.966592
0.964349
0.961859
0.959139
0.956208
0.953085
0.949784
0.946318
0.942683
0.938869
0.934846
0.93058
0.92602
0.921118
0.915829
0.910121
0.903989
0.897458
0.890592
0.883495
0.87631
0.869214
0.862409
0.856115
0.850555
0.845954
0.842528
0.840482
0.840007
0.841286
0.844495
0.849807
0.857404
0.867464
0.880237
0.895852
0.91502
0.936865
0.96612
0.989836
1.04936
0.999254
0.995325
0.991038
0.987879
0.985485
0.983397
0.981569
0.980044
0.978803
0.977802
0.976999
0.976359
0.975856
0.975465
0.975158
0.974908
0.974704
0.974542
0.97442
0.974332
0.974274
0.974249
0.974261
0.974307
0.974388
0.974494
0.974615
0.97473
0.974817
0.974847
0.974789
0.974609
0.974278
0.973775
0.973071
0.972151
0.971001
0.969613
0.967984
0.966113
0.963994
0.961611
0.958946
0.955962
0.952615
0.948845
0.944588
0.939772
0.934338
0.928233
0.92143
0.91393
0.905769
0.897024
0.887808
0.878266
0.868571
0.858911
0.849482
0.840481
0.832095
0.824501
0.817868
0.812352
0.808101
0.805261
0.803975
0.804384
0.806636
0.810881
0.817273
0.825987
0.837191
0.851133
0.867924
0.888312
0.911314
0.942026
0.966644
1.02932
0.999114
0.994745
0.99032
0.98719
0.984801
0.982696
0.980854
0.979324
0.978078
0.97707
0.976261
0.975616
0.97511
0.974718
0.974411
0.974164
0.973962
0.973804
0.973686
0.973602
0.973547
0.973525
0.973536
0.973582
0.973659
0.973761
0.973874
0.973981
0.974058
0.974077
0.974007
0.973809
0.97347
0.972977
0.972294
0.97138
0.970185
0.968654
0.966718
0.964309
0.961346
0.957749
0.953448
0.948379
0.942499
0.93579
0.928259
0.919947
0.910923
0.901283
0.891145
0.88064
0.86991
0.859095
0.848333
0.837756
0.827491
0.817658
0.808375
0.799761
0.791937
0.78503
0.779166
0.774481
0.771109
0.769192
0.768867
0.770277
0.773563
0.778876
0.786364
0.796192
0.808526
0.823611
0.841541
0.863097
0.887186
0.919271
0.944652
1.01044
0.998953
0.994126
0.989587
0.986486
0.984092
0.981963
0.980106
0.978561
0.977303
0.976285
0.975464
0.974809
0.974294
0.973893
0.973577
0.97332
0.973112
0.972948
0.972826
0.972743
0.972693
0.972677
0.972696
0.972748
0.972823
0.972906
0.972972
0.97299
0.972915
0.972698
0.972275
0.971584
0.970537
0.969032
0.966972
0.964271
0.960857
0.956683
0.951725
0.945985
0.939485
0.932273
0.924407
0.915959
0.907009
0.897633
0.887908
0.877904
0.867685
0.857312
0.846838
0.836325
0.825832
0.815426
0.805186
0.795197
0.785556
0.776369
0.767753
0.759829
0.752726
0.746575
0.741511
0.737668
0.735188
0.734202
0.73485
0.737267
0.741593
0.747966
0.756533
0.767451
0.780877
0.797057
0.816064
0.83872
0.863807
0.897166
0.923163
0.992007
0.998775
0.993485
0.988854
0.985771
0.983369
0.981219
0.979343
0.977782
0.976506
0.975468
0.974635
0.973973
0.973462
0.973073
0.972775
0.972527
0.97229
0.97203
0.971705
0.971272
0.970685
0.969909
0.968913
0.967667
0.966144
0.964318
0.962166
0.959661
0.95678
0.953498
0.949793
0.94565
0.94104
0.935983
0.930515
0.924668
0.918475
0.911965
0.905158
0.898065
0.890693
0.883039
0.875098
0.866866
0.858341
0.849526
0.840433
0.831082
0.821505
0.811741
0.801843
0.791872
0.781898
0.772004
0.76228
0.752823
0.743742
0.735152
0.727172
0.719929
0.713556
0.708184
0.703946
0.700978
0.699413
0.699383
0.701019
0.70445
0.709807
0.717224
0.726837
0.738799
0.753258
0.770458
0.790456
0.814109
0.840075
0.874572
0.901007
0.972809
0.998588
0.992846
0.988151
0.985064
0.982631
0.980455
0.978563
0.976976
0.975625
0.974397
0.97315
0.971728
0.969969
0.967729
0.964889
0.96136
0.957244
0.952725
0.947929
0.942949
0.937869
0.932766
0.927702
0.922726
0.917872
0.913156
0.908578
0.904125
0.899766
0.895464
0.891172
0.886843
0.882436
0.877904
0.873199
0.868272
0.863079
0.857581
0.851752
0.845573
0.839029
0.832116
0.824833
0.817187
0.80919
0.800858
0.792218
0.7833
0.774146
0.764803
0.755332
0.745798
0.736281
0.726867
0.717654
0.708745
0.700254
0.6923
0.685007
0.678503
0.672916
0.668379
0.665021
0.66297
0.662355
0.663299
0.665925
0.670354
0.676709
0.685113
0.695698
0.708608
0.723982
0.742063
0.762889
0.787355
0.813994
0.849399
0.876012
0.950538
0.998591
0.992594
0.98767
0.983864
0.98003
0.975596
0.97032
0.963992
0.956487
0.947895
0.938513
0.928745
0.91899
0.909566
0.900674
0.892399
0.88492
0.878319
0.872472
0.867225
0.862459
0.858082
0.854027
0.850241
0.846677
0.843292
0.840043
0.836887
0.83377
0.830644
0.827454
0.824151
0.820686
0.817037
0.813178
0.809062
0.804642
0.799876
0.794734
0.789196
0.78325
0.776893
0.770128
0.762964
0.755421
0.747522
0.7393
0.730794
0.722054
0.713138
0.70411
0.695047
0.686035
0.677164
0.668537
0.660262
0.652453
0.645228
0.638712
0.633027
0.628301
0.624657
0.622217
0.621102
0.62143
0.623315
0.626868
0.632202
0.639428
0.648662
0.660023
0.673649
0.689667
0.708318
0.729614
0.754487
0.781341
0.817118
0.84342
0.919853
1.00542
0.99478
0.975535
0.953136
0.930529
0.908696
0.888367
0.870108
0.85426
0.840901
0.829837
0.820696
0.813051
0.806511
0.800768
0.795596
0.790957
0.786836
0.783141
0.77978
0.776686
0.773818
0.771141
0.768628
0.766254
0.763987
0.761796
0.759642
0.75748
0.755262
0.752938
0.750444
0.74783
0.74513
0.742231
0.739016
0.735408
0.731364
0.726865
0.721906
0.71649
0.710624
0.704326
0.697615
0.690518
0.683068
0.675306
0.667278
0.65904
0.650656
0.642196
0.63374
0.625374
0.617196
0.609304
0.601806
0.594812
0.588438
0.582799
0.578009
0.574186
0.57144
0.569884
0.569624
0.570763
0.573402
0.577638
0.583569
0.59129
0.600905
0.612514
0.626241
0.642194
0.660597
0.681429
0.70562
0.731483
0.766043
0.791177
0.866161
0.942723
0.862208
0.807127
0.769423
0.741402
0.720158
0.704398
0.693056
0.684984
0.679097
0.674544
0.670763
0.667434
0.664403
0.661609
0.659001
0.656757
0.654784
0.652985
0.651325
0.649775
0.648318
0.646941
0.645628
0.644363
0.643129
0.641898
0.640644
0.63933
0.637916
0.63635
0.634629
0.632493
0.629716
0.62634
0.622445
0.618089
0.613311
0.608136
0.602587
0.596682
0.590445
0.583903
0.57709
0.570039
0.562791
0.555391
0.547888
0.540338
0.532804
0.525353
0.518057
0.510996
0.504251
0.497908
0.492056
0.486784
0.482184
0.478345
0.475356
0.473301
0.472266
0.472327
0.473561
0.476039
0.479834
0.485008
0.491623
0.499743
0.509437
0.520771
0.533835
0.548697
0.565565
0.584344
0.606123
0.62871
0.66059
0.679752
0.745205
)
;

boundaryField
{
    inlet
    {
        type            calculated;
        value           uniform 1;
    }
    outlet
    {
        type            calculated;
        value           nonuniform List<scalar> 
25
(
0.806163
0.847075
0.888728
0.930741
0.971436
1.00889
1.04189
1.06978
1.09233
1.10969
1.12225
1.12999
1.12936
1.11558
1.09388
1.07093
1.04936
1.02932
1.01044
0.992007
0.972809
0.950538
0.919853
0.866161
0.745205
)
;
    }
    fixedWalls
    {
        type            calculated;
        value           uniform 0;
    }
    frontAndBack
    {
        type            empty;
    }
}


// ************************************************************************* //
