/*--------------------------------*- C++ -*----------------------------------*\
| =========                 |                                                 |
| \\      /  F ield         | OpenFOAM: The Open Source CFD Toolbox           |
|  \\    /   O peration     | Version:  v1912                                 |
|   \\  /    A nd           | Website:  www.openfoam.com                      |
|    \\/     M anipulation  |                                                 |
\*---------------------------------------------------------------------------*/
FoamFile
{
    version     2.0;
    format      ascii;
    class       volScalarField;
    location    "1332";
    object      mag(U);
}
// * * * * * * * * * * * * * * * * * * * * * * * * * * * * * * * * * * * * * //

dimensions      [0 1 -1 0 0 0 0];


internalField   nonuniform List<scalar> 
2490
(
29.981
29.8043
29.4548
28.9329
28.2172
27.1682
25.6387
23.1102
18.6041
12.5098
29.981
29.8045
29.4554
28.9343
28.2222
27.1781
25.6907
23.231
19.2613
14.2923
29.981
29.8048
29.4565
28.9368
28.2318
27.1958
25.7951
23.4252
20.6978
17.3054
0.818164
1.748
2.33849
2.98461
3.87223
5.35597
7.7283
11.0055
14.7088
18.0156
20.188
20.9387
20.1208
16.8722
10.347
1.8974
5.53104
10.8771
13.8817
17.6967
1.05048
1.75477
2.23019
2.80477
3.6137
4.99372
7.22285
10.3126
13.7873
16.84
18.7593
19.2954
18.3055
14.8319
8.09693
0.629372
7.26321
12.3086
15.1889
18.7326
1.43459
1.75737
2.01524
2.4577
3.1199
4.30974
6.28148
9.04367
12.1403
14.8121
16.4019
16.7196
15.6155
11.9401
4.96965
3.36791
9.92517
14.6324
17.3559
20.5217
29.9811
29.8052
29.4583
28.9411
28.2466
27.2248
25.9526
23.6971
22.7863
22.6521
29.9812
29.8059
29.4607
28.9478
28.266
27.2759
26.1259
24.1979
24.1338
25.4089
29.9812
29.8069
29.4637
28.9571
28.2881
27.3501
26.2885
24.839
24.7218
26.6885
29.9813
29.8081
29.4674
28.9688
28.3142
27.4404
26.4551
25.4579
25.2093
27.3402
29.9814
29.8095
29.4718
28.9826
28.3456
27.5384
26.6425
25.9755
25.8238
27.6936
29.9816
29.8111
29.4772
28.9984
28.383
27.64
26.851
26.4013
26.4586
27.9608
29.9817
29.813
29.4833
29.0159
28.4256
27.7443
27.0697
26.7698
27.0068
28.2306
29.9819
29.815
29.4904
29.0353
28.4729
27.8516
27.2882
27.1036
27.4517
28.4948
29.9821
29.8174
29.4984
29.0568
28.524
27.9618
27.5001
27.4111
27.8169
28.7294
29.9823
29.82
29.5072
29.08
28.5783
28.0742
27.7034
27.6933
28.125
28.9299
29.9826
29.8229
29.517
29.1052
28.6353
28.1875
27.8973
27.9507
28.3896
29.1028
29.9829
29.8261
29.5275
29.1321
28.6944
28.3008
28.0816
28.1847
28.6192
29.254
29.9833
29.8294
29.5389
29.1605
28.7554
28.4133
28.2561
28.3971
28.8199
29.3874
29.9836
29.8331
29.5511
29.1905
28.8177
28.5241
28.4207
28.5904
28.9966
29.5061
29.9839
29.837
29.564
29.2217
28.8811
28.6328
28.5757
28.7662
29.1534
29.6123
29.9843
29.8412
29.5776
29.254
28.9449
28.7387
28.7212
28.9263
29.2934
29.708
29.9847
29.8457
29.592
29.2874
29.0089
28.8415
28.8575
29.0722
29.419
29.7949
29.9851
29.8504
29.6069
29.3215
29.0727
28.9409
28.9851
29.2054
29.5322
29.874
29.9856
29.8553
29.6224
29.3563
29.1362
29.0367
29.1044
29.327
29.6346
29.9465
29.986
29.8604
29.6385
29.3915
29.1989
29.1286
29.2158
29.4381
29.7276
30.0131
29.9865
29.8658
29.655
29.4272
29.2605
29.2166
29.3196
29.54
29.812
30.0743
29.987
29.8713
29.6719
29.4629
29.3208
29.3006
29.4163
29.6331
29.889
30.1307
29.9876
29.8769
29.6892
29.4986
29.3798
29.3804
29.5063
29.7186
29.9593
30.1825
29.9881
29.8829
29.7066
29.5341
29.437
29.4563
29.5898
29.7969
30.0234
30.2302
29.9887
29.8888
29.7242
29.5694
29.4925
29.528
29.6673
29.8685
30.0819
30.2742
29.9892
29.8948
29.7419
29.6041
29.5461
29.5957
29.7391
29.934
30.1352
30.3143
29.9898
29.9009
29.7596
29.6381
29.5975
29.6593
29.8053
29.9939
30.1837
30.351
29.9904
29.9071
29.7771
29.6715
29.6468
29.719
29.8664
30.0485
30.2277
30.3842
29.9909
29.9134
29.7946
29.704
29.6938
29.7748
29.9227
30.0982
30.2674
30.4142
29.9916
29.9195
29.8119
29.7355
29.7384
29.8269
29.9742
30.143
30.3031
30.441
29.9922
29.9257
29.8288
29.7659
29.7807
29.8752
30.0212
30.1836
30.335
30.4647
29.9927
29.9318
29.8454
29.7953
29.8207
29.9198
30.064
30.2198
30.3632
30.4853
29.9933
29.9378
29.8615
29.8232
29.858
29.9608
30.1026
30.2521
30.3879
30.5029
29.9939
29.9437
29.8772
29.85
29.8929
29.9985
30.1373
30.2805
30.409
30.5176
29.9944
29.9493
29.8922
29.8752
29.9254
30.0327
30.1682
30.3053
30.4271
30.5295
29.995
29.9549
29.9067
29.899
29.9553
30.0634
30.1955
30.3266
30.4418
30.5386
29.9955
29.9603
29.9205
29.9213
29.9827
30.0912
30.2193
30.3444
30.4535
30.5448
29.9961
29.9655
29.9335
29.942
30.0076
30.1156
30.2396
30.359
30.4622
30.5484
29.9966
29.9704
29.9458
29.9612
30.0301
30.137
30.2568
30.3704
30.4679
30.5493
29.997
29.9751
29.9573
29.9788
30.0501
30.1555
30.2707
30.3788
30.4709
30.5476
29.9975
29.9795
29.968
29.9947
30.0678
30.171
30.2816
30.3842
30.4711
30.5433
29.9979
29.9835
29.9778
30.009
30.0831
30.1837
30.2896
30.3868
30.4686
30.5364
29.9983
29.9874
29.9868
30.0217
30.0961
30.1937
30.2948
30.3865
30.4635
30.5272
29.9986
29.9909
29.9948
30.0326
30.1068
30.2011
30.2971
30.3837
30.4559
30.5155
29.999
29.994
30.0019
30.0421
30.1153
30.206
30.297
30.3783
30.4458
30.5016
29.9993
29.9968
30.0081
30.0499
30.1217
30.2084
30.2943
30.3705
30.4335
30.4854
29.9995
29.9993
30.0134
30.0562
30.1259
30.2085
30.2891
30.3602
30.4188
30.4671
29.9998
30.0015
30.0178
30.0609
30.1283
30.2062
30.2816
30.3477
30.4019
30.4465
30
30.0033
30.0213
30.0642
30.1286
30.2018
30.2719
30.333
30.383
30.4239
30.0002
30.0048
30.0239
30.066
30.127
30.1952
30.2601
30.3162
30.3619
30.3995
30.0003
30.006
30.0258
30.0664
30.1237
30.1869
30.2462
30.2975
30.339
30.3731
30.0004
30.0069
30.0268
30.0655
30.1187
30.1764
30.2304
30.2767
30.3143
30.3449
30.0005
30.0073
30.027
30.0633
30.112
30.1643
30.2128
30.2542
30.2877
30.315
30.0006
30.0076
30.0265
30.06
30.1039
30.1505
30.1934
30.23
30.2594
30.2834
30.0006
30.0076
30.0253
30.0555
30.0944
30.1351
30.1724
30.2041
30.2295
30.2503
30.0006
30.0074
30.0235
30.0501
30.0835
30.1183
30.1499
30.1767
30.1982
30.2156
30.0006
30.0069
30.0211
30.0436
30.0715
30.1002
30.1261
30.1478
30.1653
30.1795
30.0006
30.0063
30.0182
30.0365
30.0584
30.0808
30.1009
30.1177
30.1312
30.1421
30.0006
30.0055
30.0149
30.0286
30.0446
30.0605
30.0746
30.0863
30.0957
30.1033
30.0005
30.0044
30.0112
30.0199
30.0292
30.0381
30.0458
30.052
30.057
30.0609
24.7784
23.3704
19.3476
14.3853
8.76902
2.94347
0.806537
1.74488
1.90915
1.77981
29.7833
31.4477
31.2809
29.7312
26.0848
19.5373
11.2022
2.95043
1.80652
2.92412
30.3476
32.1784
32.6698
32.9135
32.5882
30.0965
24.1919
14.9816
5.56898
2.23624
30.4636
32.2321
32.7301
32.9432
33.3496
33.3986
31.5232
25.7678
16.7073
5.18931
30.2117
31.792
32.3652
32.6019
32.9043
33.3709
33.6366
31.768
26.3707
15.2907
29.9735
31.3751
31.9887
32.2776
32.5375
32.81
33.3703
33.5565
32.0719
24.4349
29.8606
31.0934
31.7173
32.0311
32.296
32.4813
32.7793
33.2712
34.0309
30.2411
29.8315
30.9046
31.5133
31.8444
32.1125
32.3088
32.4751
32.6417
33.8473
32.7877
29.8382
30.7683
31.3475
31.6903
31.9614
32.1745
32.3518
32.3188
33.0823
33.2888
29.861
30.668
31.2113
31.5576
31.8316
32.051
32.2548
32.2462
32.5325
32.9855
29.8941
30.5968
31.1012
31.4439
31.7175
31.941
32.1465
32.2303
32.3076
32.6138
29.9337
30.5485
31.0137
31.3479
31.6179
31.8446
32.0424
32.1854
32.2487
32.4031
29.9768
30.5178
30.9452
31.2673
31.5318
31.7591
31.953
32.1153
32.2206
32.3194
30.0214
30.5
30.8923
31.2002
31.4577
31.6826
31.8768
32.0419
32.1777
32.2813
30.0661
30.4922
30.8523
31.1446
31.394
31.6147
31.8092
31.9757
32.1232
32.2449
30.1105
30.4919
30.8226
31.0991
31.3396
31.5549
31.748
31.9167
32.0678
32.2023
30.154
30.4971
30.8014
31.0622
31.293
31.5023
31.6926
31.8629
32.0162
32.1573
30.1962
30.5065
30.787
31.0326
31.2534
31.4562
31.6427
31.8132
31.9683
32.1132
30.2371
30.519
30.778
31.0089
31.2197
31.4156
31.5979
31.7669
31.9233
32.0708
30.2763
30.5334
30.7731
30.9903
31.1912
31.3798
31.5574
31.7242
31.8804
32.0296
30.3138
30.5493
30.7715
30.9758
31.1668
31.3482
31.5206
31.6844
31.8397
31.9896
30.3496
30.5658
30.7724
30.9644
31.1461
31.3201
31.4871
31.6473
31.8008
31.9504
30.3834
30.5827
30.775
30.9556
31.1281
31.2948
31.4563
31.6126
31.7635
31.9121
30.4152
30.5993
30.7786
30.9488
31.1125
31.2721
31.4277
31.5796
31.7275
31.8742
30.4448
30.6155
30.7829
30.9431
31.0986
31.251
31.4009
31.5482
31.6925
31.8369
30.4724
30.6308
30.7875
30.9384
31.0859
31.2315
31.3756
31.5181
31.6585
31.7999
30.4977
30.6451
30.7917
30.9341
31.0739
31.2129
31.3511
31.4888
31.6251
31.7631
30.5207
30.6582
30.7955
30.9298
31.0625
31.1949
31.3275
31.46
31.5919
31.7262
30.5416
30.6698
30.7987
30.9253
31.0511
31.1773
31.3041
31.4316
31.559
31.6893
30.56
30.6798
30.8008
30.9202
31.0395
31.1597
31.2809
31.4032
31.5259
31.6521
30.576
30.6881
30.8017
30.9144
31.0274
31.1418
31.2575
31.3748
31.4927
31.6144
30.5896
30.6946
30.8011
30.9076
31.0147
31.1233
31.2336
31.3459
31.4591
31.5763
30.6008
30.6991
30.7992
30.8996
31.001
31.1042
31.2093
31.3164
31.4249
31.5374
30.6095
30.7016
30.7957
30.8904
30.9862
31.0842
31.1841
31.2864
31.3899
31.4978
30.6158
30.7021
30.7904
30.8797
30.9704
31.0632
31.1581
31.2554
31.3542
31.4575
30.6196
30.7005
30.7834
30.8675
30.9532
31.041
31.131
31.2236
31.3176
31.4162
30.621
30.6967
30.7745
30.8537
30.9346
31.0176
31.1029
31.1906
31.2801
31.3739
30.6199
30.6908
30.7638
30.8382
30.9144
30.9929
31.0735
31.1567
31.2415
31.3307
30.6164
30.6828
30.7511
30.821
30.8928
30.9668
31.0429
31.1215
31.2018
31.2863
30.6105
30.6725
30.7365
30.8021
30.8696
30.9392
31.011
31.0852
31.1609
31.2409
30.6022
30.6602
30.72
30.7814
30.8447
30.9102
30.9777
31.0475
31.1189
31.1943
30.5916
30.6457
30.7015
30.7589
30.8183
30.8797
30.9429
31.0086
31.0757
31.1468
30.5787
30.6291
30.6811
30.7347
30.7901
30.8476
30.9069
30.9684
31.0314
31.098
30.5636
30.6104
30.6587
30.7087
30.7605
30.814
30.8694
30.9269
30.9857
31.0481
30.5464
30.5898
30.6345
30.681
30.729
30.7789
30.8305
30.8841
30.939
30.9971
30.527
30.567
30.6085
30.6514
30.6961
30.7424
30.7902
30.84
30.891
30.945
30.5054
30.5424
30.5806
30.6203
30.6615
30.7044
30.7486
30.7946
30.8418
30.8918
30.482
30.5159
30.551
30.5875
30.6254
30.6649
30.7056
30.748
30.7914
30.8375
30.4565
30.4875
30.5196
30.5531
30.5878
30.6239
30.6613
30.7001
30.7399
30.7822
30.4292
30.4574
30.4865
30.517
30.5486
30.5815
30.6156
30.6509
30.6871
30.7257
30.4
30.4255
30.4519
30.4794
30.508
30.5378
30.5685
30.6005
30.6333
30.6682
30.369
30.392
30.4156
30.4403
30.466
30.4926
30.5202
30.5488
30.5783
30.6095
30.3365
30.3569
30.3778
30.3996
30.4224
30.4461
30.4706
30.496
30.522
30.5498
30.3023
30.3202
30.3385
30.3576
30.3776
30.3983
30.4197
30.442
30.4647
30.4889
30.2665
30.2819
30.2977
30.3142
30.3313
30.3491
30.3676
30.3867
30.4062
30.427
30.2293
30.2423
30.2555
30.2693
30.2838
30.2987
30.3142
30.3301
30.3465
30.3639
30.1907
30.2011
30.2119
30.2232
30.2348
30.2469
30.2594
30.2723
30.2855
30.2995
30.1507
30.1589
30.1672
30.1758
30.1847
30.194
30.2035
30.2134
30.2233
30.234
30.1093
30.1151
30.1209
30.1269
30.1332
30.1396
30.1462
30.153
30.1599
30.1671
30.064
30.0669
30.0699
30.0729
30.0761
30.0793
30.0826
30.0859
30.0893
30.0928
2.07817
1.70622
1.67857
1.94015
2.39253
3.30806
4.90851
7.21796
9.84018
12.0995
13.3899
13.572
12.4743
8.66832
1.96182
6.72761
13.0158
17.4413
20.0191
22.8103
2.22965
1.38831
1.19279
1.27672
1.50666
2.1098
3.2396
4.97047
7.03639
8.87335
9.88604
9.9875
9.03822
5.16139
3.30615
10.3153
16.288
20.4203
22.826
25.2703
1.86811
0.638349
0.597041
0.637348
0.882396
1.36965
1.96066
2.82498
4.10905
5.45001
6.14264
6.12883
5.52143
2.11828
6.93337
13.8938
19.4541
23.2193
25.3848
27.481
0.157216
1.20015
1.40272
1.25339
1.46429
2.09445
2.62317
2.57022
2.167
2.22371
2.33798
2.03866
2.02238
3.65489
10.7978
17.4093
22.4066
25.6959
27.5405
29.2633
9.3715
7.139
5.47559
4.06744
3.34044
3.5519
4.38252
4.71661
4.04786
2.68977
1.69188
1.94013
2.46338
7.4852
14.7573
20.7717
25.0203
27.7247
29.1862
30.5297
19.8126
17.0021
14.1507
11.078
8.31707
6.50269
6.40058
7.14058
7.16752
6.21708
5.46839
5.61542
6.25198
11.6859
18.7222
23.8449
27.1625
29.2083
30.2679
31.2712
27.6175
25.6719
23.3017
20.2122
16.6461
12.9783
10.2901
9.72544
10.0706
9.7729
9.30789
9.26934
10.1939
16.1108
22.557
26.4685
28.7282
30.1122
30.8094
31.5582
31.7865
30.9392
29.6894
27.7164
24.9506
21.3593
17.2808
14.2129
13.1922
12.9625
12.8232
12.7489
14.4024
20.7113
26.0592
28.4878
29.6806
30.4912
30.9204
31.5262
33.1592
33.0342
32.7196
31.973
30.6145
28.4018
25.0846
21.1264
18.1164
16.6819
16.2787
16.3348
19.1736
25.307
28.9689
29.8121
30.0856
30.4903
30.7722
31.3379
33.1323
33.2762
33.4219
33.4384
33.1985
32.4893
30.9195
28.1416
24.7809
22.1521
20.9077
21.0813
24.6153
29.4879
31.0502
30.475
30.1095
30.3021
30.5429
31.132
32.7598
32.9113
33.1448
33.4183
33.6978
33.9139
33.8351
32.9445
30.951
28.5611
26.9559
27.119
30.0592
32.7108
32.2232
30.6493
29.9634
30.0983
30.3583
30.9875
32.4967
32.5916
32.7645
33.0196
33.3765
33.8803
34.5176
35.0078
34.7799
33.7329
32.6773
32.7821
34.2869
34.6091
32.6371
30.5797
29.8208
29.9752
30.266
30.9195
32.3914
32.4554
32.5691
32.7497
33.0262
33.4775
34.2069
35.2117
36.1159
36.4282
36.2873
36.3742
36.5379
35.2625
32.6029
30.4756
29.7644
29.9464
30.2511
30.904
32.361
32.4267
32.5213
32.6635
32.8737
33.2158
33.8012
34.7493
35.964
36.9944
37.521
37.6314
37.0556
35.1462
32.4332
30.4408
29.7918
29.9772
30.2745
30.9096
32.341
32.4216
32.5227
32.6624
32.8546
33.1417
33.6031
34.3486
35.4161
36.5454
37.3062
37.4442
36.6856
34.7922
32.3102
30.4804
29.8628
30.0271
30.305
30.9162
32.3117
32.4069
32.5202
32.6701
32.8691
33.1472
33.5583
34.1702
35.0233
35.9826
36.6983
36.8446
36.1665
34.5034
32.2696
30.557
29.9415
30.0743
30.3299
30.9174
32.2755
32.3812
32.5043
32.6634
32.8718
33.1541
33.5527
34.1099
34.8356
35.6282
36.2321
36.3698
35.8011
34.333
32.2749
30.6375
30.0127
30.1135
30.3484
30.9143
32.2373
32.3505
32.4805
32.6453
32.8584
33.1424
33.5332
34.0647
34.7308
35.4309
35.9572
36.0818
35.5758
34.2248
32.2877
30.7088
30.0756
30.1478
30.3641
30.9094
32.1993
32.3182
32.4534
32.6217
32.8362
33.1171
33.4957
34.0016
34.6276
35.2765
35.7604
35.8742
35.3989
34.1265
32.2922
30.771
30.1337
30.1802
30.3789
30.9039
32.1615
32.2848
32.4241
32.5947
32.809
33.0848
33.4486
33.9258
34.5105
35.1159
35.5688
35.674
35.2221
34.0215
32.2882
30.8273
30.1894
30.212
30.3935
30.8979
32.1236
32.2502
32.3926
32.5647
32.778
33.0478
33.3966
33.8452
34.3878
34.9485
35.3702
35.4676
35.0402
33.9124
32.2793
30.8795
30.2428
30.2429
30.4078
30.8914
32.0855
32.2142
32.3586
32.5313
32.7427
33.0062
33.3406
33.7625
34.2655
34.7824
35.1727
35.262
34.86
33.8035
32.2675
30.9277
30.2941
30.2728
30.4214
30.884
32.0472
32.1769
32.3223
32.4948
32.7036
32.9603
33.2805
33.6776
34.1443
34.6209
34.9809
35.0622
34.6845
33.6962
32.2526
30.9718
30.3426
30.3013
30.4341
30.876
32.0087
32.1386
32.2839
32.4552
32.6606
32.91
33.2165
33.5903
34.0238
34.4632
34.7949
34.8686
34.5139
33.59
32.2347
31.0117
30.3885
30.3284
30.4459
30.8672
31.97
32.0991
32.2436
32.4129
32.6143
32.856
33.1489
33.501
33.9037
34.3089
34.614
34.6804
34.3478
33.485
32.2136
31.0474
30.4315
30.3542
30.457
30.8575
31.9308
32.0587
32.2015
32.3681
32.5647
32.7984
33.0781
33.4095
33.7839
34.1575
34.438
34.4975
34.1857
33.3807
32.1895
31.0787
30.4718
30.3785
30.4671
30.8471
31.8915
32.0172
32.1576
32.3209
32.5123
32.7379
33.0045
33.3165
33.6646
34.0089
34.2666
34.3194
34.0275
33.2774
32.1624
31.1058
30.5091
30.4013
30.4764
30.8359
31.8516
31.9747
32.1122
32.2716
32.4574
32.6745
32.9286
33.222
33.5457
33.8633
34.0995
34.1463
33.8731
33.1748
32.1324
31.1289
30.5436
30.4224
30.4846
30.8239
31.8112
31.9312
32.0653
32.2203
32.4001
32.6087
32.8504
33.1264
33.4274
33.7201
33.9367
33.9779
33.7226
33.0733
32.0996
31.1478
30.575
30.4419
30.4917
30.8111
31.7703
31.8868
32.0171
32.1672
32.3407
32.5406
32.7702
33.0297
33.3098
33.5796
33.7779
33.8139
33.5756
32.9724
32.0641
31.1626
30.6034
30.4598
30.4978
30.7975
31.7286
31.8414
31.9675
32.1124
32.2794
32.4706
32.6884
32.9322
33.1928
33.4416
33.6231
33.6544
33.432
32.8724
32.026
31.1734
30.6288
30.4758
30.5028
30.7829
31.6863
31.7951
31.9166
32.0561
32.2163
32.3988
32.6052
32.8342
33.0765
33.3059
33.472
33.4989
33.2918
32.7731
31.9855
31.1802
30.6511
30.4901
30.5066
30.7677
31.6433
31.7478
31.8646
31.9984
32.1517
32.3255
32.5208
32.7357
32.961
33.1726
33.3244
33.3476
33.1548
32.6746
31.9424
31.1832
30.6704
30.5026
30.5093
30.7516
31.5993
31.6995
31.8113
31.9395
32.0857
32.2509
32.4354
32.6369
32.8463
33.0414
33.1802
33.2001
33.0209
32.5769
31.897
31.1823
30.6866
30.5131
30.5108
30.7347
31.5544
31.6501
31.757
31.8792
32.0185
32.1753
32.3492
32.5379
32.7326
32.9124
33.0394
33.0562
32.89
32.4798
31.8496
31.1778
30.6997
30.5218
30.5111
30.717
31.5086
31.5998
31.7015
31.8179
31.9502
32.0985
32.2624
32.4389
32.6198
32.7855
32.9016
32.9159
32.7618
32.3835
31.7998
31.1697
30.7098
30.5285
30.5102
30.6984
31.4618
31.5484
31.6451
31.7555
31.8808
32.021
32.175
32.3401
32.508
32.6607
32.7668
32.7789
32.6363
32.2879
31.7482
31.158
30.7167
30.5333
30.5079
30.6791
31.4141
31.4962
31.5878
31.6923
31.8106
31.9427
32.0873
32.2413
32.3971
32.5378
32.6349
32.6451
32.5134
32.1928
31.6946
31.1429
30.7206
30.5361
30.5043
30.6589
31.3652
31.4429
31.5294
31.6281
31.7397
31.8638
31.9993
32.1429
32.2872
32.4169
32.5056
32.5143
32.3929
32.0985
31.6392
31.1245
30.7214
30.5369
30.4995
30.6379
31.3154
31.3886
31.4702
31.563
31.6681
31.7845
31.9111
32.0448
32.1784
32.2979
32.3789
32.3864
32.2747
32.0047
31.582
31.1028
30.7192
30.5358
30.4933
30.6162
31.2646
31.3334
31.41
31.4972
31.5956
31.7046
31.8228
31.9471
32.0708
32.1806
32.2547
32.2611
32.1585
31.9114
31.5233
31.078
30.7141
30.5326
30.4859
30.5937
31.2127
31.2772
31.349
31.4307
31.5228
31.6245
31.7346
31.8499
31.964
32.065
32.1327
32.1383
32.0444
31.8187
31.4629
31.0503
30.7061
30.5274
30.4771
30.5704
31.1598
31.2201
31.2871
31.3634
31.4493
31.5441
31.6463
31.753
31.8583
31.9511
32.013
32.0179
31.9322
31.7265
31.4011
31.0196
30.6952
30.5203
30.4671
30.5463
31.1058
31.1621
31.2246
31.2955
31.3755
31.4635
31.5581
31.6567
31.7537
31.8386
31.8952
31.8997
31.8218
31.6348
31.3379
30.9862
30.6816
30.5111
30.4558
30.5215
31.0508
31.1031
31.1611
31.227
31.301
31.3825
31.47
31.5609
31.65
31.7277
31.7794
31.7836
31.713
31.5435
31.2733
30.9502
30.6651
30.5001
30.4431
30.4959
30.9948
31.0433
31.0969
31.1579
31.2263
31.3015
31.382
31.4655
31.5471
31.6183
31.6654
31.6693
31.6056
31.4524
31.2075
30.9117
30.646
30.487
30.4292
30.4697
30.9378
30.9826
31.0319
31.088
31.1511
31.2202
31.2941
31.3706
31.4451
31.5101
31.5529
31.5567
31.4996
31.3617
31.1404
30.8707
30.6244
30.4721
30.414
30.4426
30.8799
30.9209
30.9662
31.0177
31.0754
31.1387
31.2062
31.276
31.344
31.4029
31.4419
31.4456
31.3947
31.2712
31.0722
30.8273
30.6001
30.4551
30.3976
30.4148
30.8209
30.8583
30.8997
30.9468
30.9994
31.057
31.1185
31.1819
31.2434
31.2969
31.3323
31.336
31.2908
31.1809
31.0028
30.7818
30.5736
30.4365
30.38
30.3864
30.7609
30.7949
30.8326
30.8751
30.9228
30.975
31.0307
31.088
31.1436
31.1917
31.2237
31.2274
31.1878
31.0905
30.9324
30.7342
30.5446
30.4161
30.3612
30.3572
30.7
30.7307
30.7646
30.8029
30.8459
30.8928
30.9428
30.9942
31.044
31.0873
31.1162
31.1199
31.0854
31.0003
30.8609
30.6846
30.5135
30.3938
30.3413
30.3273
30.6381
30.6654
30.6957
30.73
30.7684
30.8103
30.8548
30.9007
30.9449
30.9834
31.0093
31.0132
30.9836
30.9098
30.7882
30.633
30.4802
30.37
30.3203
30.2967
30.575
30.5994
30.6261
30.6564
30.6903
30.7273
30.7666
30.8069
30.846
30.8799
30.903
30.907
30.8821
30.819
30.7144
30.5796
30.4449
30.3445
30.2983
30.2653
30.511
30.5322
30.5556
30.582
30.6115
30.6438
30.6779
30.7131
30.7471
30.7768
30.7969
30.8011
30.7807
30.728
30.6397
30.5245
30.4076
30.3176
30.2753
30.2333
30.4459
30.4641
30.4841
30.5067
30.532
30.5596
30.5889
30.6189
30.648
30.6734
30.6909
30.6951
30.6791
30.6363
30.5638
30.4678
30.3687
30.2892
30.2516
30.2011
30.3797
30.3949
30.4117
30.4306
30.4516
30.4747
30.4991
30.5242
30.5485
30.5698
30.5847
30.5889
30.5771
30.544
30.4866
30.4092
30.3278
30.2596
30.2281
30.1705
30.3123
30.3245
30.338
30.3533
30.3703
30.3889
30.4086
30.4287
30.4484
30.4656
30.4779
30.4821
30.4745
30.4505
30.4078
30.3488
30.2858
30.2301
30.2061
30.1388
30.2437
30.253
30.2633
30.2749
30.2879
30.302
30.317
30.3324
30.3473
30.3605
30.3702
30.3745
30.3712
30.3574
30.331
30.2925
30.2486
30.2028
30.1822
30.0864
30.1738
30.1802
30.1874
30.1955
30.2044
30.2141
30.2245
30.2351
30.2454
30.2544
30.2611
30.2657
30.2682
30.2667
30.2579
30.2374
30.2047
30.1596
30.1329
30.0039
30.0959
30.0991
30.1025
30.1064
30.1107
30.1155
30.1205
30.1259
30.1312
30.136
30.1407
30.1413
30.1388
30.1323
30.1199
30.1
30.0741
30.0455
30.0291
29.9617
)
;

boundaryField
{
    inlet
    {
        type            calculated;
        value           uniform 30;
    }
    outlet
    {
        type            calculated;
        value           nonuniform List<scalar> 
63
(
17.6967
18.7326
20.5217
22.8103
25.2703
27.481
29.2633
30.5297
31.2712
31.5582
31.5262
31.3379
31.132
30.9875
30.9195
30.904
30.9096
30.9162
30.9174
30.9143
30.9094
30.9039
30.8979
30.8914
30.884
30.876
30.8672
30.8575
30.8471
30.8359
30.8239
30.8111
30.7975
30.7829
30.7677
30.7516
30.7347
30.717
30.6984
30.6791
30.6589
30.6379
30.6162
30.5937
30.5704
30.5463
30.5215
30.4959
30.4697
30.4426
30.4148
30.3864
30.3572
30.3273
30.2967
30.2653
30.2333
30.2011
30.1705
30.1388
30.0864
30.0039
29.9617
)
;
    }
    lowerSymmetry
    {
        type            symmetryPlane;
    }
    obstical
    {
        type            calculated;
        value           uniform 0;
    }
    top
    {
        type            calculated;
        value           nonuniform List<scalar> 
40
(
30.0005
30.0044
30.0112
30.0199
30.0292
30.0381
30.0458
30.052
30.057
30.0609
30.064
30.0669
30.0699
30.0729
30.0761
30.0793
30.0826
30.0859
30.0893
30.0928
30.0959
30.0991
30.1025
30.1064
30.1107
30.1155
30.1205
30.1259
30.1312
30.136
30.1407
30
30
30
30
30
30
30
30
30
)
;
    }
    defaultFaces
    {
        type            empty;
    }
}


// ************************************************************************* //
