/*--------------------------------*- C++ -*----------------------------------*\
| =========                 |                                                 |
| \\      /  F ield         | OpenFOAM: The Open Source CFD Toolbox           |
|  \\    /   O peration     | Version:  v1912                                 |
|   \\  /    A nd           | Website:  www.openfoam.com                      |
|    \\/     M anipulation  |                                                 |
\*---------------------------------------------------------------------------*/
FoamFile
{
    version     2.0;
    format      ascii;
    class       volScalarField;
    location    "1332";
    object      p;
}
// * * * * * * * * * * * * * * * * * * * * * * * * * * * * * * * * * * * * * //

dimensions      [0 2 -2 0 0 0 0];


internalField   nonuniform List<scalar> 
2490
(
30.2631
34.4081
44.5748
59.3936
79.3336
106.342
145.603
201.349
288.865
385.501
30.258
34.3998
44.5567
59.3525
79.2299
106.067
144.757
198.429
280.829
361.901
30.2484
34.384
44.5227
59.2744
79.032
105.538
143.135
192.907
265.181
304.98
-48.0473
-48.8685
-49.9604
-51.1705
-53.5165
-59.3685
-74.0432
-104.662
-152.761
-205.787
-241.86
-250.164
-228.088
-148.291
-17.5006
64.9944
67.4752
42.7072
20.5163
9.60641
-48.3386
-49.0052
-50.0162
-51.1812
-53.5109
-59.3918
-74.1534
-104.908
-153.121
-206.183
-242.194
-250.376
-228.302
-148.561
-17.723
64.8432
67.3815
42.6573
20.4961
9.59378
-48.954
-49.2404
-50.1038
-51.1943
-53.498
-59.4273
-74.3409
-105.334
-153.741
-206.86
-242.753
-250.718
-228.666
-149.031
-18.1293
64.5567
67.178
42.5523
20.4541
9.57054
30.2328
34.3585
44.4681
59.1489
78.7155
104.7
140.613
184.886
240.46
201.987
30.2098
34.3211
44.3881
58.9648
78.2545
103.494
137.093
174.898
211.046
168.974
30.1796
34.2722
44.284
58.7252
77.6609
101.972
132.864
164.506
185.544
159.156
30.1416
34.2113
44.1543
58.4278
76.9337
100.155
128.146
154.166
164.782
140.732
30.0954
34.1375
43.9978
58.071
76.0744
98.076
123.106
143.954
147.067
120.337
30.0405
34.0502
43.8133
57.6534
75.0867
95.7681
117.86
133.999
131.586
104.103
29.9763
33.9487
43.5996
57.1742
73.9758
93.263
112.499
124.458
118.166
91.4642
29.9023
33.8324
43.3559
56.6331
72.7485
90.5922
107.105
115.431
106.554
81.0624
29.8178
33.7004
43.0812
56.0302
71.4123
87.7866
101.741
106.962
96.4274
72.4021
29.7224
33.5521
42.7746
55.366
69.9757
84.8758
96.4562
99.0616
87.5358
65.1981
29.6154
33.3868
42.4356
54.6416
68.4475
81.8873
91.2888
91.7241
79.6955
59.1356
29.4962
33.204
42.0637
53.8585
66.8368
78.846
86.2674
84.9303
72.7521
53.9481
29.3642
33.0028
41.6585
53.0185
65.1532
75.7749
81.4133
78.6523
66.5735
49.4423
29.2188
32.7828
41.2197
52.1239
63.406
72.6942
76.7408
72.857
61.0494
45.4761
29.0593
32.5434
40.7474
51.1771
61.6046
69.6217
72.2595
67.5093
56.088
41.9416
28.8852
32.284
40.2416
50.1811
59.7582
66.5731
67.9742
62.5735
51.6117
38.7571
28.6957
32.0042
39.7026
49.1388
57.8757
63.5617
63.8863
58.0151
47.5547
35.8609
28.4904
31.7035
39.1308
48.0535
55.9656
60.599
59.9948
53.8012
43.8615
33.2057
28.2685
31.3814
38.5268
46.9287
54.0361
57.6945
56.2962
49.9012
40.4854
30.755
28.0294
31.0378
37.8912
45.7679
52.0949
54.856
52.7857
46.2867
37.3866
28.4803
27.7726
30.6721
37.2249
44.5747
50.1492
52.0899
49.4572
42.932
34.5317
26.359
27.4975
30.2844
36.5289
43.3528
48.2057
49.401
46.3038
39.8136
31.8924
24.3732
27.2036
29.8742
35.8043
42.106
46.2707
46.7933
43.3182
36.9108
29.4448
22.5087
26.8902
29.4416
35.0523
40.838
44.3498
44.2693
40.4929
34.2047
27.1687
20.754
26.557
28.9864
34.2742
39.5524
42.4482
41.831
37.8204
31.6787
25.0471
19.0996
26.2034
28.5087
33.4713
38.2528
40.5705
39.4793
35.2931
29.3178
23.0656
17.5381
25.829
28.0085
32.6453
36.9429
38.721
37.2148
32.9037
27.1091
21.212
16.0632
25.4335
27.4859
31.7976
35.626
36.9033
35.0371
30.6452
25.0408
19.476
14.67
25.0163
26.9412
30.9298
34.3055
35.1207
32.9458
28.511
23.1028
17.8488
13.3542
24.5773
26.3744
30.0435
32.9845
33.376
30.9399
26.4947
21.2859
16.3229
12.1125
24.1161
25.786
29.1405
31.666
31.6716
29.0182
24.5904
19.5821
14.8919
10.9418
23.6326
25.1762
28.2225
30.3529
30.0096
27.179
22.7925
17.9842
13.5502
9.83986
23.1264
24.5454
27.291
29.0478
28.3916
25.4208
21.0959
16.4861
12.2931
8.80443
22.5976
23.8941
26.3477
27.7533
26.8191
23.7417
19.4956
15.0819
11.1164
7.83367
22.0459
23.2226
25.3943
26.4716
25.293
22.1399
17.9871
13.7667
10.0164
6.92588
21.4714
22.5315
24.4325
25.2049
23.8141
20.6132
16.5662
12.536
8.98985
6.07952
20.874
21.8213
23.4636
23.955
22.3829
19.1597
15.2289
11.3855
8.03371
5.29308
20.2538
21.0924
22.4892
22.7235
20.9997
17.7772
13.9715
10.3116
7.14528
4.56513
19.6109
20.3455
21.5108
21.5121
19.6645
16.4636
12.7904
9.31074
6.32201
3.89424
18.9453
19.5811
20.5295
20.3218
18.3772
15.2167
11.6825
8.37968
5.5615
3.27895
18.2573
18.7997
19.5466
19.1539
17.1372
14.0343
10.6443
7.51538
4.86145
2.7178
17.547
18.0019
18.5631
18.009
15.9441
12.9142
9.67301
6.71494
4.21961
2.20926
16.8146
17.1881
17.5801
16.8878
14.7971
11.8541
8.76554
5.97559
3.63381
1.75176
16.0603
16.3588
16.5984
15.7907
13.6951
10.8517
7.91904
5.29462
3.10187
1.34365
15.2844
15.5145
15.6185
14.7178
12.6372
9.90468
7.13068
4.66939
2.62161
0.98324
14.487
14.6556
14.6411
13.6691
11.6219
9.01064
6.39767
4.0973
2.19085
0.668738
13.6684
13.7823
13.6665
12.6443
10.6479
8.16712
5.71721
3.57575
1.80736
0.398298
12.8288
12.8949
12.6947
11.6427
9.71331
7.37159
5.08653
3.10215
1.4689
0.169996
11.9683
11.9937
11.7258
10.6637
8.81642
6.62141
4.50278
2.67385
1.17317
-0.0181658
11.0871
11.0785
10.7596
9.70605
7.95513
5.91387
3.96311
2.28821
0.917801
-0.16826
10.1851
10.1495
9.79547
8.76854
7.12714
5.2461
3.46457
1.94248
0.70037
-0.28244
9.26252
9.2064
8.83277
7.84951
6.32997
4.61511
3.00411
1.63388
0.51837
-0.362942
8.31915
8.24887
7.87049
6.94705
5.56082
4.0177
2.5786
1.35949
0.369201
-0.412093
7.35484
7.27646
6.90739
6.05889
4.81666
3.45051
2.18471
1.11629
0.250154
-0.432317
6.36934
6.28849
5.9419
5.18241
4.09412
2.9099
1.81897
0.901092
0.158366
-0.426176
5.36225
5.28413
4.97214
4.31461
3.38945
2.39197
1.47766
0.710554
0.0908275
-0.396482
4.33309
4.26231
3.99586
3.45204
2.69853
1.89244
1.15677
0.541114
0.0446345
-0.34522
3.2812
3.22176
3.01043
2.59076
2.01674
1.40667
0.851795
0.388176
0.0144555
-0.279102
2.20585
2.16094
2.01276
1.72625
1.33902
0.930055
0.559581
0.251057
0.00326612
-0.190941
1.10615
1.07812
0.999292
0.852938
0.657991
0.453273
0.268032
0.113428
-0.0111128
-0.108489
-83.7762
-121.453
-95.0968
-84.4886
-83.3667
-79.9969
-72.0329
-62.2566
-56.3241
-54.872
-33.7123
-89.8432
-77.7557
-73.6497
-78.4733
-78.6251
-70.9599
-61.9214
-56.1001
-54.7217
3.05301
-65.7384
-66.5248
-64.1728
-69.976
-72.2941
-67.5438
-61.7306
-55.0806
-55.4099
19.4878
-48.1881
-56.269
-55.299
-61.4541
-65.2258
-62.5251
-59.8117
-53.4548
-58.6368
27.8627
-31.7466
-44.6682
-46.2879
-53.2038
-58.9421
-58.2162
-56.9387
-52.0994
-66.869
32.9785
-18.3885
-34.7914
-39.1968
-46.3225
-53.1682
-54.5042
-54.7279
-51.1273
-72.1946
35.5392
-8.56239
-26.6247
-33.217
-40.3982
-47.6884
-50.7172
-52.6666
-49.6292
-68.8764
36.2505
-1.38962
-19.6958
-27.8164
-35.157
-42.6291
-46.8113
-50.0914
-47.7595
-61.1655
35.9065
3.85703
-13.9138
-23.0515
-30.6292
-38.147
-43.0517
-47.0856
-46.1031
-54.2364
34.9859
7.6169
-9.21476
-18.9277
-26.7177
-34.2006
-39.5939
-44.0001
-44.6588
-49.6097
33.7391
10.234
-5.46263
-15.3854
-23.3073
-30.7094
-36.4544
-41.094
-43.1523
-46.7532
32.3174
11.9912
-2.51171
-12.3773
-20.339
-27.6353
-33.6115
-38.4612
-41.4967
-44.8337
30.8129
13.1029
-0.232247
-9.86057
-17.7722
-24.9461
-31.0444
-36.0887
-39.7712
-43.2774
29.2772
13.7275
1.49014
-7.78677
-15.5679
-22.6021
-28.7374
-33.9369
-38.0614
-41.8187
27.7381
13.9834
2.75477
-6.10501
-13.6905
-20.5659
-26.6776
-31.9792
-36.4126
-40.3962
26.2114
13.9593
3.64558
-4.76565
-12.1079
-18.8051
-24.8501
-30.2018
-34.8466
-39.0236
24.706
13.722
4.23243
-3.72208
-10.7892
-17.2904
-23.2367
-28.5947
-33.3746
-37.7136
23.2274
13.3224
4.57302
-2.93151
-9.70491
-15.9954
-21.8181
-27.1464
-32.0009
-36.4647
21.779
12.7998
4.71493
-2.35544
-8.82666
-14.8956
-20.5753
-25.8438
-30.7249
-35.2723
20.3636
12.1848
4.69732
-1.95971
-8.12794
-13.9684
-19.4902
-24.6739
-29.543
-34.1337
18.9833
11.5017
4.55258
-1.7143
-7.58411
-13.1926
-18.5452
-23.6236
-28.4498
-33.048
17.6402
10.7701
4.30752
-1.59301
-7.1725
-12.5486
-17.724
-22.6806
-27.4386
-32.0136
16.3361
10.0058
3.9845
-1.57303
-6.8725
-12.0181
-17.0108
-21.8327
-26.502
-31.0277
15.0725
9.22184
3.60227
-1.63456
-6.6655
-11.5843
-16.3912
-21.0684
-25.6323
-30.0868
13.8512
8.42916
3.17656
-1.76045
-6.53483
-11.2318
-15.8515
-20.3765
-24.8218
-29.1867
12.6735
7.63681
2.72072
-1.93582
-6.46561
-10.9466
-15.3792
-19.7466
-24.0627
-28.3231
11.5408
6.8524
2.24606
-2.14777
-6.44465
-10.716
-14.9628
-19.169
-23.3478
-27.4914
10.4543
6.08239
1.76219
-2.38515
-6.46029
-10.5287
-14.5918
-18.6348
-22.6699
-26.687
9.41514
5.33224
1.27732
-2.6383
-6.50229
-10.3744
-14.2567
-18.1355
-22.0226
-25.9055
8.42429
4.60657
0.79842
-2.89888
-6.56165
-10.2442
-13.949
-17.6637
-21.3996
-25.1425
7.48257
3.90927
0.33145
-3.15972
-6.63055
-10.13
-13.661
-17.2125
-20.7954
-24.394
6.59066
3.24363
-0.118551
-3.41468
-6.70218
-10.0249
-13.3861
-16.7759
-20.2049
-23.6563
5.74909
2.61236
-0.547332
-3.65851
-6.77067
-9.92272
-13.1182
-16.3484
-19.6237
-22.9261
4.95824
2.0177
-0.951333
-3.88676
-6.83101
-9.81828
-12.8522
-15.9253
-19.0475
-22.2003
4.2183
1.46145
-1.32761
-4.0957
-6.87894
-9.70706
-12.5837
-15.5025
-18.473
-21.4763
3.52932
0.945003
-1.67377
-4.28224
-6.91088
-9.58523
-12.3089
-15.0763
-17.897
-20.7516
2.89117
0.469401
-1.9879
-4.44386
-6.92389
-9.44963
-12.0245
-14.6439
-17.317
-20.0244
2.30358
0.0353551
-2.26854
-4.57853
-6.91555
-9.29761
-11.7279
-14.2028
-16.7309
-19.2928
1.76608
-0.356721
-2.51461
-4.6847
-6.88396
-9.12708
-11.417
-13.7507
-16.1367
-18.5557
1.27806
-0.70669
-2.72538
-4.76121
-6.82766
-8.93636
-11.09
-13.2862
-15.5332
-17.8118
0.838753
-1.01466
-2.90044
-4.80727
-6.74556
-8.72418
-10.7456
-12.8079
-14.919
-17.0602
0.447239
-1.28098
-3.03968
-4.82242
-6.63693
-8.48966
-10.3827
-12.3149
-14.2935
-16.3004
0.102458
-1.50619
-3.14323
-4.80646
-6.50135
-8.23218
-10.0008
-11.8063
-13.6558
-15.5318
-0.196786
-1.69103
-3.21143
-4.75947
-6.33866
-7.95143
-9.59933
-11.2819
-13.0057
-14.7542
-0.451816
-1.8364
-3.24484
-4.68172
-6.14893
-7.6473
-9.17812
-10.7412
-12.3429
-13.9671
-0.664071
-1.94335
-3.24419
-4.5737
-5.93244
-7.3199
-8.73714
-10.1843
-11.6671
-13.1707
-0.835099
-2.0131
-3.21035
-4.43603
-5.68961
-6.9695
-8.27652
-9.61101
-10.9785
-12.3647
-0.966551
-2.04694
-3.14435
-4.26949
-5.42103
-6.59649
-7.79651
-9.02161
-10.2769
-11.5491
-1.06017
-2.0463
-3.04732
-4.07498
-5.12738
-6.20137
-7.29744
-8.41624
-9.56249
-10.724
-1.11779
-2.01271
-2.92048
-3.85349
-4.80945
-5.78474
-6.77972
-7.79514
-8.83535
-9.88911
-1.14134
-1.94777
-2.76516
-3.6061
-4.4681
-5.34724
-6.24379
-7.15857
-8.09553
-9.04448
-1.1328
-1.85318
-2.58275
-3.33396
-4.10424
-4.88957
-5.69014
-6.5068
-7.34311
-8.18996
-1.09428
-1.73072
-2.37473
-3.03826
-3.71881
-4.41241
-5.11917
-5.83996
-6.57796
-7.32511
-1.02795
-1.58224
-2.14266
-2.72033
-3.31292
-3.91665
-4.53159
-5.15857
-5.80038
-6.45005
-0.936063
-1.4096
-1.88795
-2.38117
-2.88714
-3.40244
-3.92709
-4.4619
-5.00921
-5.56315
-0.821352
-1.21542
-1.61315
-2.02326
-2.44393
-2.87218
-3.30803
-3.75217
-4.20657
-4.6664
-0.684833
-0.999727
-1.31735
-1.64485
-1.98073
-2.32257
-2.67037
-3.02468
-3.38703
-3.75364
-0.534336
-0.770888
-1.00925
-1.25487
-1.50667
-1.76286
-2.02343
-2.28879
-2.56003
-2.83442
-0.36009
-0.517678
-0.6764
-0.839737
-1.00711
-1.17739
-1.35052
-1.52671
-1.70662
-1.88858
-0.191682
-0.269608
-0.348086
-0.428793
-0.511573
-0.595917
-0.681765
-0.769125
-0.858108
-0.947398
-50.0848
-49.5397
-50.1936
-51.2005
-53.4752
-59.4738
-74.598
-105.913
-154.569
-207.748
-243.482
-251.164
-229.169
-149.677
-18.7671
64.0617
66.7966
42.3618
20.3803
9.53027
-50.3555
-49.7345
-50.2366
-51.1902
-53.444
-59.5255
-74.8883
-106.564
-155.483
-208.718
-244.277
-251.656
-229.769
-150.457
-19.6562
63.269
66.1627
42.0509
20.2624
9.46798
-50.2477
-49.7219
-50.2162
-51.1645
-53.4207
-59.5874
-75.1653
-107.158
-156.297
-209.561
-244.957
-252.082
-230.332
-151.291
-20.7343
62.1273
65.2503
41.6088
20.0978
9.38414
-49.2178
-49.6821
-50.2894
-51.1268
-53.4216
-59.6851
-75.4371
-107.644
-156.892
-210.123
-245.369
-252.332
-230.715
-152.115
-21.9655
60.579
64.027
41.0242
19.8844
9.27951
-46.1675
-49.125
-50.5609
-51.151
-53.4825
-59.8879
-75.7591
-108.017
-157.203
-210.297
-245.409
-252.336
-230.842
-152.766
-23.3341
58.58
62.4774
40.2968
19.6243
9.15712
-39.9579
-47.4023
-51.2085
-51.2865
-53.5704
-60.2486
-76.2434
-108.363
-157.203
-209.974
-244.981
-252.016
-230.583
-153.065
-24.8307
56.1081
60.6123
39.4408
19.3245
9.02177
-37.2582
-45.6917
-51.8331
-51.7745
-53.9363
-60.8811
-76.9902
-108.812
-156.988
-209.13
-243.962
-251.222
-229.767
-152.886
-26.4451
53.1778
58.4752
38.484
18.9952
8.87877
-39.8989
-45.3205
-51.7769
-52.398
-54.7404
-62.0023
-78.1687
-109.463
-156.659
-207.853
-242.354
-249.871
-228.252
-152.113
-28.1559
49.8524
56.1401
37.4624
18.6476
8.73245
-44.0241
-45.7843
-51.1188
-52.9781
-55.9061
-63.5382
-79.7119
-110.269
-156.152
-206.149
-240.203
-247.876
-225.893
-150.604
-29.9152
46.2473
53.6971
36.4112
18.2905
8.58495
-46.65
-46.4277
-50.4526
-53.5059
-57.2291
-65.2217
-81.2706
-110.814
-155.065
-203.653
-237.235
-244.876
-222.316
-148.168
-31.647
42.5085
51.2296
35.3547
17.9282
8.43626
-47.3625
-46.9482
-50.0878
-53.9304
-58.4429
-66.7695
-82.5478
-110.688
-152.795
-199.628
-232.632
-240.058
-216.946
-144.7
-33.2756
38.7739
48.7931
34.3024
17.5607
8.28506
-46.8883
-47.1926
-49.9425
-54.1992
-59.3868
-68.0083
-83.4235
-109.885
-149.215
-193.614
-225.643
-232.796
-209.653
-140.391
-34.7566
35.1398
46.4093
33.2521
17.1856
8.12988
-45.9234
-47.1182
-49.8475
-54.3232
-60.0475
-68.9061
-83.9101
-108.652
-144.857
-186.115
-216.583
-223.545
-201.125
-135.666
-36.0787
31.6508
44.0757
32.197
16.8003
7.96977
-44.8323
-46.7751
-49.6973
-54.332
-60.4631
-69.4953
-84.0658
-107.203
-140.355
-178.196
-206.701
-213.542
-192.324
-130.905
-37.2466
28.3128
41.7809
31.1318
16.4038
7.80448
-43.7394
-46.2432
-49.4473
-54.2357
-60.6624
-69.8062
-83.9343
-105.621
-136.016
-170.599
-197.067
-203.759
-183.836
-126.292
-38.2669
25.1152
39.5167
30.0549
15.9962
7.63413
-42.6632
-45.5858
-49.0846
-54.0298
-60.6627
-69.8578
-83.5379
-103.902
-131.857
-163.507
-188.038
-194.509
-175.792
-121.847
-39.1432
22.0486
37.2812
28.968
15.5782
7.45899
-41.5966
-44.8422
-48.6123
-53.7093
-60.4791
-69.6678
-82.8937
-102.032
-127.797
-156.81
-179.533
-185.722
-168.113
-117.534
-39.8779
19.1096
35.0772
27.8734
15.1508
7.27925
-40.5354
-44.0359
-48.0396
-53.2731
-60.1258
-69.256
-82.0217
-100.011
-123.782
-150.388
-171.404
-177.274
-160.716
-113.324
-40.474
16.2994
32.9087
26.7737
14.7146
7.0951
-39.4819
-43.1827
-47.3778
-52.7238
-59.6156
-68.6422
-80.9442
-97.8547
-119.797
-144.185
-163.583
-169.114
-153.567
-109.21
-40.9359
13.6205
30.7794
25.6707
14.2702
6.90668
-38.4402
-42.2936
-46.6373
-52.0669
-58.9605
-67.8458
-79.6824
-95.5805
-115.845
-138.192
-156.056
-161.235
-146.662
-105.191
-41.2683
11.0747
28.6925
24.5663
13.8185
6.7142
-37.4136
-41.3766
-45.828
-51.3096
-58.172
-66.8846
-78.2564
-93.2041
-111.93
-132.404
-148.823
-153.643
-139.999
-101.267
-41.4761
8.66323
26.6507
23.4623
13.36
6.51787
-36.404
-40.4381
-44.9586
-50.4604
-57.2617
-65.7758
-76.6846
-90.7393
-108.054
-126.81
-141.875
-146.333
-133.574
-97.4391
-41.5646
6.38664
24.6568
22.3608
12.8957
6.31793
-35.4122
-39.4827
-44.0371
-49.5282
-56.2411
-64.5353
-74.9847
-88.199
-104.217
-121.4
-135.201
-139.299
-127.379
-93.7036
-41.539
4.24526
22.7138
21.2635
12.4263
6.11463
-34.4387
-38.5144
-43.0705
-48.5218
-55.1214
-63.1782
-73.1731
-85.5956
-100.421
-116.165
-128.789
-132.535
-121.408
-90.0594
-41.4047
2.23902
20.8243
20.1724
11.9527
5.90827
-33.4828
-37.5362
-42.065
-47.4498
-53.9139
-61.7189
-71.2653
-82.9411
-96.6686
-111.094
-122.629
-126.034
-115.655
-86.5046
-41.1674
0.367548
18.991
19.0896
11.4757
5.69915
-32.5435
-36.5504
-41.026
-46.3204
-52.629
-60.1707
-69.2759
-80.2467
-92.9618
-106.182
-116.709
-119.787
-110.114
-83.0376
-40.8326
-1.36996
17.2165
18.0169
10.9963
5.48757
-31.6193
-35.5588
-39.9586
-45.1412
-51.277
-58.5462
-67.2183
-77.523
-89.3037
-101.422
-111.019
-113.788
-104.778
-79.6564
-40.406
-2.97464
15.5033
16.9563
10.5152
5.27388
-30.7085
-34.5626
-38.867
-43.9194
-49.8674
-56.857
-65.105
-74.7798
-85.697
-96.8067
-105.55
-108.027
-99.641
-76.3594
-39.8933
-4.44802
13.8538
15.9097
10.0335
5.05842
-29.8092
-33.5628
-37.755
-42.6613
-48.4091
-55.1141
-62.9474
-72.0262
-82.1447
-92.3317
-100.292
-102.498
-94.6973
-73.1449
-39.3
-5.79197
12.2702
14.8791
9.552
4.84156
-28.9191
-32.5599
-36.6258
-41.3729
-46.9104
-53.3275
-60.7561
-69.2707
-78.6494
-87.9922
-95.2353
-97.1914
-89.9404
-70.011
-38.6317
-7.00874
10.7545
13.8664
9.07165
4.62367
-28.0364
-31.5542
-35.4825
-40.0595
-45.3787
-51.5064
-58.5407
-66.5209
-75.2138
-83.7838
-90.3718
-92.0987
-85.364
-66.9562
-37.8938
-8.10087
9.30861
12.8734
8.59333
4.40511
-27.1591
-30.546
-34.3276
-38.7261
-43.8211
-49.6591
-56.3101
-63.7838
-71.8402
-79.7026
-85.6929
-87.2119
-80.9618
-63.9786
-37.0916
-9.07127
7.93428
11.902
8.11794
4.18627
-26.2851
-29.5352
-33.1631
-37.3768
-42.2437
-47.7934
-54.0722
-61.0658
-68.5309
-75.7449
-81.1909
-82.5223
-76.7273
-61.0766
-36.2302
-9.9231
6.63297
10.954
7.64635
3.96752
-25.413
-28.5219
-31.9912
-36.0157
-40.6521
-45.9161
-51.8339
-58.3725
-65.2876
-71.9072
-76.8579
-78.0216
-72.6542
-58.2483
-35.3146
-10.6598
5.40593
10.0312
7.17939
3.74922
-24.5411
-27.5061
-30.8134
-34.646
-39.0513
-44.0333
-49.6018
-55.7088
-62.1121
-68.1863
-72.6867
-73.7016
-68.7361
-55.492
-34.3495
-11.285
4.25417
9.13523
6.71791
3.53174
-23.668
-26.4877
-29.6313
-33.2707
-37.4456
-42.1503
-47.3812
-53.079
-59.0055
-64.579
-68.6703
-69.5541
-64.9665
-52.8059
-33.3395
-11.8027
3.17846
8.2678
6.26268
3.31541
-22.7927
-25.4667
-28.4461
-31.8926
-35.839
-40.2719
-45.1772
-50.4868
-55.9687
-61.0821
-64.8019
-65.5711
-61.339
-50.188
-32.2888
-12.217
2.17926
7.43045
5.81447
3.10054
-21.9142
-24.443
-27.2589
-30.5138
-34.2349
-38.4023
-42.9937
-47.9353
-53.0023
-57.6926
-61.075
-61.7447
-57.8472
-47.6364
-31.2017
-12.5319
1.25679
6.62463
5.374
2.88742
-21.0317
-23.4168
-26.0707
-29.1364
-32.636
-36.5449
-40.8344
-45.427
-50.1065
-54.4072
-57.4832
-58.0673
-54.4848
-45.149
-30.0819
-12.752
0.410952
5.8517
4.94193
2.67631
-20.1446
-22.3881
-24.8824
-27.7621
-31.0448
-34.7026
-38.702
-42.9638
-47.281
-51.2227
-54.0204
-54.5313
-51.2453
-42.7236
-28.933
-12.8815
-0.35863
5.11288
4.51889
2.46742
-19.2524
-21.3569
-23.6947
-26.3922
-29.4634
-32.8778
-36.5989
-40.547
-44.5254
-48.1358
-50.6804
-51.1293
-48.1226
-40.3581
-27.7585
-12.925
-1.05263
4.40927
4.10544
2.26091
-18.3549
-20.3233
-22.5082
-25.0278
-27.8934
-31.0725
-34.5268
-38.1775
-41.8387
-45.143
-47.4573
-47.854
-45.1104
-38.05
-26.5613
-12.887
-1.67203
3.74179
3.70207
2.0569
-17.4516
-19.2875
-21.3234
-23.6699
-26.3359
-29.288
-32.4869
-35.8557
-39.2197
-42.2407
-44.3452
-44.6983
-42.2024
-35.7968
-25.3441
-12.772
-2.21809
3.11118
3.3092
1.85545
-16.5426
-18.2495
-20.1406
-22.3192
-24.7919
-27.5253
-30.4799
-33.5815
-36.6667
-39.4252
-41.3381
-41.6552
-39.3926
-33.5961
-24.1097
-12.5844
-2.69237
2.518
2.92717
1.65653
-15.6277
-17.2093
-18.9601
-20.9761
-23.2621
-25.785
-28.506
-31.3542
-34.1777
-36.6926
-38.4302
-38.7177
-36.6749
-31.4451
-22.86
-12.3286
-3.09671
1.96257
2.55619
1.46005
-14.7068
-16.1671
-17.782
-19.6407
-21.7465
-24.0672
-26.565
-29.1728
-31.7503
-34.0387
-35.6157
-35.8789
-34.043
-29.3409
-21.5971
-12.009
-3.43324
1.44499
2.1964
1.26584
-13.7799
-15.1226
-16.6063
-18.313
-20.2453
-22.3717
-24.6562
-27.036
-29.3819
-31.4591
-32.8884
-33.1319
-31.4909
-27.2805
-20.3226
-11.6298
-3.70433
0.965089
1.84776
1.0736
-12.8469
-14.0759
-15.4328
-16.993
-18.7579
-20.6978
-22.7785
-24.9417
-27.0693
-28.9493
-30.2423
-30.4699
-29.0125
-25.2609
-19.0379
-11.195
-3.91264
0.522427
1.51011
0.882952
-11.9077
-13.0267
-14.2612
-15.6799
-17.2837
-19.0446
-20.9304
-22.8876
-24.8091
-26.5044
-27.6711
-27.8859
-26.6015
-23.2786
-17.744
-10.7087
-4.06105
0.116276
1.18313
0.693403
-10.9621
-11.9747
-13.091
-14.3733
-15.8219
-17.4107
-19.1101
-20.8712
-22.5975
-24.1192
-25.1686
-25.3729
-24.2517
-21.3303
-16.4417
-10.1747
-4.15273
-0.254422
0.866272
0.504354
-10.0098
-10.9194
-11.9214
-13.072
-14.371
-15.7944
-17.3151
-18.8891
-20.4303
-21.7882
-22.7279
-22.9235
-21.9566
-19.4122
-15.1315
-9.59679
-4.1911
-0.591164
0.558564
0.314736
-9.05045
-9.86029
-10.7519
-11.7751
-12.9296
-14.1938
-15.5429
-16.938
-18.3029
-19.5058
-20.3424
-20.5305
-19.7097
-17.5203
-13.8137
-8.9785
-4.17979
-0.895738
0.258824
0.123254
-8.08344
-8.79638
-9.58089
-10.4809
-11.4957
-12.606
-13.7902
-15.0136
-16.2101
-17.2656
-18.0044
-18.186
-17.5038
-15.6504
-12.488
-8.32312
-4.12214
-1.1692
-0.0327342
-0.0692562
-7.10863
-7.72729
-8.40779
-9.18805
-10.0674
-11.029
-12.0537
-13.112
-14.1469
-15.0613
-15.7068
-15.8822
-15.3321
-13.7983
-11.1545
-7.63433
-4.02255
-1.41413
-0.317734
-0.263421
-6.12394
-6.65061
-7.2298
-7.89355
-8.64121
-9.45834
-10.3288
-11.2274
-12.1064
-12.885
-13.4407
-13.6098
-13.1863
-11.9588
-9.81304
-6.91795
-3.89146
-1.64358
-0.612117
-0.476401
-5.1312
-5.56769
-6.04766
-6.59741
-7.21633
-7.89252
-8.61263
-9.35599
-10.0837
-10.7304
-11.1986
-11.3608
-11.0589
-10.1261
-8.46103
-6.17396
-3.72814
-1.85338
-0.909792
-0.703356
-4.12356
-4.47157
-4.85439
-5.29248
-5.78539
-6.32379
-6.89711
-7.48905
-8.06914
-8.58698
-8.96878
-9.12381
-8.94017
-8.29082
-7.08316
-5.37062
-3.47454
-1.9592
-1.11075
-0.845762
-3.11053
-3.37048
-3.65661
-3.98384
-4.35191
-4.75407
-5.1825
-5.62516
-6.05962
-6.44954
-6.74374
-6.89204
-6.83102
-6.46956
-5.72303
-4.59208
-3.26093
-2.12433
-1.39408
-1.06066
-2.0713
-2.24495
-2.43623
-2.65436
-2.89947
-3.16742
-3.45313
-3.74872
-4.03945
-4.30214
-4.50324
-4.64025
-4.72744
-4.73454
-4.59281
-4.22484
-3.62352
-2.95814
-2.37446
-1.87002
-1.03606
-1.12132
-1.21543
-1.32276
-1.44369
-1.57642
-1.71857
-1.8665
-2.0129
-2.14734
-2.24826
-2.32906
-2.44229
-2.59823
-2.7574
-2.82932
-2.72407
-2.46215
-2.12398
-1.69157
)
;

boundaryField
{
    inlet
    {
        type            freestreamPressure;
        freestreamValue uniform 0;
        value           nonuniform List<scalar> 
63
(
30.2631
30.258
30.2484
30.2328
30.2098
30.1796
30.1416
30.0954
30.0405
29.9763
29.9023
29.8178
29.7224
29.6154
29.4962
29.3642
29.2188
29.0593
28.8852
28.6957
28.4904
28.2685
28.0294
27.7726
27.4975
27.2036
26.8902
26.557
26.2034
25.829
25.4335
25.0163
24.5773
24.1161
23.6326
23.1264
22.5976
22.0459
21.4714
20.874
20.2538
19.6109
18.9453
18.2573
17.547
16.8146
16.0603
15.2844
14.487
13.6684
12.8288
11.9683
11.0871
10.1851
9.26252
8.31915
7.35484
6.36934
5.36225
4.33309
3.2812
2.20585
1.10615
)
;
    }
    outlet
    {
        type            freestreamPressure;
        freestreamValue uniform 0;
        value           nonuniform List<scalar> 
63
(
6.66219e-06
5.24235e-05
0.000113306
0.000168849
0.000214513
0.000250822
0.000281152
0.000307535
0.000331607
0.000355007
0.00037928
0.000405483
0.000433794
0.000463493
0.000493455
0.00052278
0.000551071
0.000578286
0.000604426
0.000629383
0.000652949
0.00067489
0.000694983
0.000713029
0.00072884
0.000742242
0.000753076
0.000761198
0.000766485
0.000768834
0.000768169
0.000764435
0.000757604
0.000747677
0.000734678
0.000718659
0.000699699
0.0006779
0.000653385
0.000626298
0.000596802
0.00056507
0.000531289
0.00049565
0.000458347
0.000419571
0.000379507
0.000338332
0.000296205
0.000253267
0.000209638
0.000165412
0.000120665
7.53922e-05
2.95166e-05
-1.65277e-05
-6.2392e-05
-0.000112925
-0.000167052
-0.000185366
-0.000228326
-0.000599995
-0.000256814
)
;
    }
    lowerSymmetry
    {
        type            symmetryPlane;
    }
    obstical
    {
        type            zeroGradient;
    }
    top
    {
        type            freestreamPressure;
        freestreamValue uniform 0;
        value           nonuniform List<scalar> 
40
(
0.550162
0.531258
0.489052
0.415466
0.319562
0.219768
0.129843
0.0549284
-0.00538094
-0.0525333
-0.0928277
-0.130588
-0.168639
-0.207801
-0.248009
-0.289023
-0.330824
-0.373426
-0.416891
-0.460591
-0.504067
-0.546003
-0.592436
-0.645579
-0.705728
-0.772151
-0.843871
-0.919331
-0.995207
-1.06658
-1.12292
-1.16453
-1.22115
-1.29911
-1.3787
-1.41466
-1.36203
-1.23108
-1.06199
-0.845785
)
;
    }
    defaultFaces
    {
        type            empty;
    }
}


// ************************************************************************* //
