/*--------------------------------*- C++ -*----------------------------------*\
| =========                 |                                                 |
| \\      /  F ield         | OpenFOAM: The Open Source CFD Toolbox           |
|  \\    /   O peration     | Version:  v1912                                 |
|   \\  /    A nd           | Website:  www.openfoam.com                      |
|    \\/     M anipulation  |                                                 |
\*---------------------------------------------------------------------------*/
FoamFile
{
    version     2.0;
    format      ascii;
    class       volVectorField;
    location    "1332";
    object      U;
}
// * * * * * * * * * * * * * * * * * * * * * * * * * * * * * * * * * * * * * //

dimensions      [0 1 -1 0 0 0 0];


internalField   nonuniform List<vector> 
2490
(
(29.981 0.0014777 0)
(29.8043 0.00492225 0)
(29.4548 0.0100801 0)
(28.9329 0.0186487 0)
(28.2172 0.0345138 0)
(27.1681 0.0674244 0)
(25.6384 0.133689 0)
(23.1077 0.343075 0)
(18.587 0.798516 0)
(12.3492 1.99781 0)
(29.981 0.00433307 0)
(29.8045 0.0145625 0)
(29.4554 0.0297748 0)
(28.9342 0.0551036 0)
(28.222 0.101934 0)
(27.1774 0.1992 0)
(25.6877 0.393949 0)
(23.2091 1.00814 0)
(19.1237 2.29798 0)
(12.9071 6.13816 0)
(29.981 0.00716572 0)
(29.8048 0.0241316 0)
(29.4565 0.049203 0)
(28.9367 0.091016 0)
(28.2313 0.168495 0)
(27.1938 0.327782 0)
(25.7869 0.649155 0)
(23.3693 1.61803 0)
(20.3904 3.55371 0)
(13.3069 11.0636 0)
(-0.788418 0.218607 0)
(-1.74326 0.128586 0)
(-2.33678 0.0892841 0)
(-2.98316 0.0929333 0)
(-3.87022 0.124645 0)
(-5.35318 0.17289 0)
(-7.72522 0.218098 0)
(-11.0029 0.237778 0)
(-14.7072 0.215645 0)
(-18.0149 0.155072 0)
(-20.1879 0.0742086 0)
(-20.9387 -0.00185406 0)
(-20.1207 -0.0604977 0)
(-16.8717 -0.133193 0)
(-10.3449 -0.208009 0)
(-1.88715 -0.197004 0)
(5.52961 -0.125863 0)
(10.8769 -0.0730129 0)
(13.8816 -0.0517824 0)
(17.6967 -0.0294749 0)
(-0.81956 0.657139 0)
(-1.71525 0.370297 0)
(-2.21533 0.257039 0)
(-2.79173 0.270155 0)
(-3.59533 0.363944 0)
(-4.96806 0.5056 0)
(-7.19457 0.638558 0)
(-10.2891 0.695723 0)
(-13.773 0.628363 0)
(-16.8341 0.447493 0)
(-18.7582 0.206884 0)
(-19.2954 -0.0185274 0)
(-18.3045 -0.191269 0)
(-14.8262 -0.410651 0)
(-8.07204 -0.634394 0)
(0.216365 -0.591012 0)
(7.25349 -0.375658 0)
(12.3067 -0.217235 0)
(15.1881 -0.152522 0)
(18.7324 -0.0875783 0)
(-0.946471 1.07807 0)
(-1.66388 0.565566 0)
(-1.97671 0.3922 0)
(-2.42139 0.420907 0)
(-3.06669 0.573743 0)
(-4.23396 0.804623 0)
(-6.19769 1.02255 0)
(-8.97463 1.11536 0)
(-12.0988 1.00252 0)
(-14.7953 0.705821 0)
(-16.3989 0.313228 0)
(-16.7195 -0.0538526 0)
(-15.6119 -0.334868 0)
(-11.9194 -0.703458 0)
(-4.85358 -1.06781 0)
(3.22557 -0.968766 0)
(9.90628 -0.611983 0)
(14.6281 -0.352944 0)
(17.3542 -0.24502 0)
(20.5212 -0.141221 0)
(29.9811 0.0102675 0)
(29.8052 0.0344421 0)
(29.4582 0.0700329 0)
(28.9408 0.129327 0)
(28.2456 0.239799 0)
(27.2209 0.460943 0)
(25.9364 0.918102 0)
(23.5982 2.16225 0)
(22.3363 4.50592 0)
(17.9846 13.7722 0)
(29.9812 0.0136073 0)
(29.8059 0.0454679 0)
(29.4606 0.0922407 0)
(28.9473 0.169923 0)
(28.2642 0.315478 0)
(27.2694 0.596305 0)
(26.0986 1.19347 0)
(24.0597 2.58254 0)
(23.5894 5.09725 0)
(22.05 12.6258 0)
(29.9812 0.017048 0)
(29.8068 0.056747 0)
(29.4635 0.114865 0)
(28.9563 0.21109 0)
(28.2854 0.391321 0)
(27.3404 0.728158 0)
(26.2488 1.44336 0)
(24.6723 2.87265 0)
(24.1439 5.31419 0)
(24.5147 10.5501 0)
(29.9813 0.0205757 0)
(29.808 0.0682566 0)
(29.4671 0.137825 0)
(28.9677 0.252738 0)
(28.3104 0.466171 0)
(27.427 0.856488 0)
(26.4034 1.65275 0)
(25.2694 3.09202 0)
(24.6484 5.28812 0)
(25.7641 9.14862 0)
(29.9814 0.0241827 0)
(29.8094 0.07998 0)
(29.4714 0.161061 0)
(28.9811 0.294697 0)
(28.3405 0.539356 0)
(27.521 0.979416 0)
(26.58 1.82345 0)
(25.77 3.26068 0)
(25.2978 5.18564 0)
(26.4473 8.21446 0)
(29.9816 0.0278665 0)
(29.811 0.0919054 0)
(29.4766 0.18453 0)
(28.9964 0.33675 0)
(28.3764 0.610569 0)
(27.6183 1.09452 0)
(26.779 1.96466 0)
(26.1849 3.37305 0)
(25.9676 5.07371 0)
(26.9564 7.42675 0)
(29.9817 0.0316252 0)
(29.8128 0.104018 0)
(29.4826 0.208189 0)
(29.0134 0.378664 0)
(28.4175 0.679547 0)
(27.7183 1.20021 0)
(26.9895 2.08249 0)
(26.5488 3.43244 0)
(26.5501 4.94581 0)
(27.4091 6.76074 0)
(29.9819 0.035456 0)
(29.8148 0.116299 0)
(29.4895 0.231988 0)
(29.0323 0.420219 0)
(28.4631 0.745968 0)
(27.8214 1.29589 0)
(27.201 2.17923 0)
(26.8829 3.45201 0)
(27.0295 4.79621 0)
(27.8069 6.22331 0)
(29.9821 0.0393556 0)
(29.8171 0.12873 0)
(29.4973 0.255867 0)
(29.0531 0.461215 0)
(28.5125 0.809488 0)
(27.9276 1.38155 0)
(27.4074 2.25631 0)
(27.1939 3.44386 0)
(27.4283 4.63363 0)
(28.1418 5.78074 0)
(29.9823 0.0433198 0)
(29.8197 0.141292 0)
(29.5059 0.279761 0)
(29.0757 0.501469 0)
(28.5651 0.869785 0)
(28.0363 1.45743 0)
(27.6065 2.31545 0)
(27.4818 3.41582 0)
(27.768 4.46706 0)
(28.4208 5.40365 0)
(29.9826 0.0473438 0)
(29.8225 0.153962 0)
(29.5154 0.3036 0)
(29.1002 0.540808 0)
(28.6203 0.926591 0)
(28.1463 1.52387 0)
(27.7974 2.35858 0)
(27.7464 3.37307 0)
(28.0619 4.30138 0)
(28.6565 5.07703 0)
(29.9829 0.0514222 0)
(29.8256 0.166716 0)
(29.5257 0.327312 0)
(29.1263 0.579069 0)
(28.6777 0.979702 0)
(28.2566 1.5813 0)
(27.9799 2.38764 0)
(27.9885 3.3195 0)
(28.3183 4.13946 0)
(28.859 4.79105 0)
(29.9832 0.0555489 0)
(29.8289 0.179528 0)
(29.5368 0.350824 0)
(29.154 0.616101 0)
(28.737 1.02898 0)
(28.3665 1.63018 0)
(28.1536 2.40443 0)
(28.2096 3.25816 0)
(28.5433 3.98317 0)
(29.035 4.53764 0)
(29.9835 0.0597172 0)
(29.8325 0.192372 0)
(29.5487 0.37406 0)
(29.1832 0.651761 0)
(28.7977 1.07432 0)
(28.4751 1.67102 0)
(28.3183 2.41063 0)
(28.4117 3.19142 0)
(28.7421 3.83357 0)
(29.1895 4.31065 0)
(29.9838 0.0639196 0)
(29.8363 0.205218 0)
(29.5613 0.396948 0)
(29.2136 0.685924 0)
(28.8595 1.11569 0)
(28.582 1.70435 0)
(28.4741 2.40776 0)
(28.5964 3.12105 0)
(28.9188 3.69107 0)
(29.3263 4.10556 0)
(29.9842 0.0681481 0)
(29.8404 0.218036 0)
(29.5746 0.419411 0)
(29.2452 0.718477 0)
(28.9219 1.15308 0)
(28.6865 1.7307 0)
(28.621 2.39716 0)
(28.7652 3.04841 0)
(29.0768 3.55569 0)
(29.4484 3.91886 0)
(29.9846 0.0723942 0)
(29.8448 0.230794 0)
(29.5887 0.441379 0)
(29.2778 0.749321 0)
(28.9846 1.18653 0)
(28.7883 1.75061 0)
(28.7592 2.38003 0)
(28.9196 2.97453 0)
(29.2187 3.42725 0)
(29.5582 3.74782 0)
(29.985 0.0766486 0)
(29.8494 0.243459 0)
(29.6033 0.462781 0)
(29.3112 0.778372 0)
(29.0473 1.21608 0)
(28.8871 1.76459 0)
(28.8891 2.35741 0)
(29.061 2.90019 0)
(29.3466 3.30539 0)
(29.6575 3.59018 0)
(29.9855 0.0809015 0)
(29.8542 0.255999 0)
(29.6185 0.483548 0)
(29.3452 0.805563 0)
(29.1097 1.24183 0)
(28.9825 1.77316 0)
(29.011 2.33021 0)
(29.1905 2.82596 0)
(29.4624 3.18969 0)
(29.7478 3.44415 0)
(29.9859 0.0851427 0)
(29.8592 0.268378 0)
(29.6342 0.503616 0)
(29.3798 0.830839 0)
(29.1715 1.2639 0)
(29.0744 1.7768 0)
(29.1252 2.29921 0)
(29.3092 2.75225 0)
(29.5676 3.07971 0)
(29.8302 3.3082 0)
(29.9864 0.0893615 0)
(29.8645 0.280562 0)
(29.6504 0.522924 0)
(29.4148 0.854159 0)
(29.2324 1.28239 0)
(29.1626 1.77597 0)
(29.232 2.26509 0)
(29.4182 2.67939 0)
(29.6632 2.975 0)
(29.9056 3.18106 0)
(29.9869 0.0935466 0)
(29.8699 0.292516 0)
(29.667 0.541416 0)
(29.4499 0.875496 0)
(29.2921 1.29746 0)
(29.247 1.7711 0)
(29.3318 2.22842 0)
(29.5182 2.60756 0)
(29.7504 2.87512 0)
(29.9747 3.06166 0)
(29.9874 0.0976868 0)
(29.8754 0.304207 0)
(29.6839 0.559039 0)
(29.485 0.894838 0)
(29.3506 1.30926 0)
(29.3275 1.7626 0)
(29.4249 2.18968 0)
(29.6101 2.53693 0)
(29.8301 2.77968 0)
(30.0381 2.94909 0)
(29.9879 0.10177 0)
(29.8812 0.3156 0)
(29.701 0.575746 0)
(29.52 0.912181 0)
(29.4075 1.31794 0)
(29.4042 1.75085 0)
(29.5116 2.14929 0)
(29.6945 2.46758 0)
(29.9028 2.68829 0)
(30.0963 2.84258 0)
(29.9885 0.105785 0)
(29.887 0.326663 0)
(29.7183 0.591496 0)
(29.5548 0.927536 0)
(29.4628 1.32367 0)
(29.4769 1.73619 0)
(29.5923 2.10761 0)
(29.772 2.39957 0)
(29.9693 2.60062 0)
(30.1498 2.74144 0)
(29.989 0.10972 0)
(29.8929 0.337362 0)
(29.7357 0.606252 0)
(29.5891 0.940925 0)
(29.5163 1.32663 0)
(29.5457 1.71895 0)
(29.6673 2.06492 0)
(29.843 2.33291 0)
(30.03 2.51636 0)
(30.1987 2.64512 0)
(29.9896 0.113563 0)
(29.8989 0.347668 0)
(29.7531 0.619985 0)
(29.6228 0.952377 0)
(29.5677 1.32698 0)
(29.6106 1.69942 0)
(29.7367 2.02148 0)
(29.9081 2.26762 0)
(30.0853 2.43523 0)
(30.2434 2.55312 0)
(29.9902 0.117302 0)
(29.905 0.357551 0)
(29.7704 0.63267 0)
(29.6559 0.961934 0)
(29.6172 1.32489 0)
(29.6716 1.67788 0)
(29.8009 1.97751 0)
(29.9676 2.20369 0)
(30.1357 2.35699 0)
(30.284 2.46503 0)
(29.9907 0.120926 0)
(29.9111 0.366984 0)
(29.7876 0.644289 0)
(29.6882 0.969645 0)
(29.6644 1.32054 0)
(29.7288 1.65458 0)
(29.8602 1.93318 0)
(30.0219 2.1411 0)
(30.1813 2.28142 0)
(30.3209 2.38049 0)
(29.9913 0.124423 0)
(29.9171 0.375942 0)
(29.8047 0.65483 0)
(29.7195 0.975565 0)
(29.7094 1.31409 0)
(29.7823 1.62975 0)
(29.9146 1.88866 0)
(30.0712 2.07984 0)
(30.2225 2.20834 0)
(30.354 2.2992 0)
(29.9919 0.127785 0)
(29.9232 0.384402 0)
(29.8214 0.664287 0)
(29.7498 0.979759 0)
(29.7521 1.3057 0)
(29.8321 1.6036 0)
(29.9645 1.84408 0)
(30.1159 2.01988 0)
(30.2596 2.1376 0)
(30.3836 2.2209 0)
(29.9924 0.131 0)
(29.9292 0.392345 0)
(29.8378 0.67266 0)
(29.7791 0.982297 0)
(29.7925 1.29555 0)
(29.8782 1.57633 0)
(30.0101 1.79957 0)
(30.1561 1.96122 0)
(30.2926 2.06904 0)
(30.4097 2.14537 0)
(29.993 0.13406 0)
(29.9351 0.399754 0)
(29.8538 0.679957 0)
(29.807 0.983254 0)
(29.8304 1.28378 0)
(29.9208 1.54811 0)
(30.0514 1.75523 0)
(30.1921 1.90383 0)
(30.3218 2.00255 0)
(30.4324 2.07244 0)
(29.9936 0.136956 0)
(29.9409 0.406615 0)
(29.8693 0.686189 0)
(29.8338 0.982711 0)
(29.8659 1.27055 0)
(29.96 1.51912 0)
(30.0887 1.71115 0)
(30.2241 1.84772 0)
(30.3472 1.93805 0)
(30.4519 2.00196 0)
(29.9941 0.139682 0)
(29.9465 0.412917 0)
(29.8842 0.691375 0)
(29.8591 0.980754 0)
(29.899 1.25603 0)
(29.9957 1.48951 0)
(30.1221 1.66743 0)
(30.2522 1.79286 0)
(30.3692 1.87545 0)
(30.4682 1.93379 0)
(29.9947 0.142231 0)
(29.952 0.418654 0)
(29.8986 0.695541 0)
(29.883 0.977471 0)
(29.9296 1.24034 0)
(30.028 1.45942 0)
(30.1518 1.62416 0)
(30.2767 1.73928 0)
(30.3877 1.8147 0)
(30.4814 1.86785 0)
(29.9952 0.144597 0)
(29.9573 0.423821 0)
(29.9123 0.698715 0)
(29.9055 0.972956 0)
(29.9577 1.22364 0)
(30.0572 1.429 0)
(30.1779 1.5814 0)
(30.2975 1.68697 0)
(30.4028 1.75574 0)
(30.4915 1.80406 0)
(29.9957 0.146778 0)
(29.9624 0.42842 0)
(29.9253 0.700934 0)
(29.9264 0.967304 0)
(29.9834 1.20606 0)
(30.0831 1.39837 0)
(30.2004 1.53925 0)
(30.3149 1.63595 0)
(30.4148 1.69856 0)
(30.4987 1.74237 0)
(29.9962 0.148771 0)
(29.9673 0.432455 0)
(29.9376 0.702238 0)
(29.9458 0.960614 0)
(30.0066 1.18775 0)
(30.106 1.36767 0)
(30.2197 1.49777 0)
(30.3289 1.58624 0)
(30.4236 1.64313 0)
(30.5029 1.68272 0)
(29.9966 0.150574 0)
(29.9719 0.435934 0)
(29.9491 0.702675 0)
(29.9636 0.952988 0)
(30.0274 1.16883 0)
(30.1258 1.33701 0)
(30.2356 1.45704 0)
(30.3398 1.53787 0)
(30.4294 1.58944 0)
(30.5043 1.6251 0)
(29.9971 0.152189 0)
(29.9763 0.438869 0)
(29.9598 0.702295 0)
(29.9798 0.944528 0)
(30.0458 1.14945 0)
(30.1427 1.3065 0)
(30.2484 1.41714 0)
(30.3476 1.49087 0)
(30.4323 1.5375 0)
(30.5029 1.5695 0)
(29.9975 0.153617 0)
(29.9803 0.441277 0)
(29.9696 0.701154 0)
(29.9944 0.93534 0)
(30.0619 1.12972 0)
(30.1567 1.27628 0)
(30.2582 1.37815 0)
(30.3524 1.44529 0)
(30.4323 1.48733 0)
(30.4988 1.5159 0)
(29.9979 0.154861 0)
(29.9841 0.443178 0)
(29.9786 0.699313 0)
(30.0074 0.925531 0)
(30.0756 1.10978 0)
(30.168 1.24644 0)
(30.2651 1.34014 0)
(30.3542 1.40116 0)
(30.4295 1.43895 0)
(30.4921 1.46434 0)
(29.9982 0.155927 0)
(29.9876 0.444597 0)
(29.9867 0.696837 0)
(30.0187 0.91521 0)
(30.0871 1.08975 0)
(30.1766 1.2171 0)
(30.2691 1.30319 0)
(30.3533 1.35855 0)
(30.4241 1.39238 0)
(30.4827 1.41482 0)
(29.9986 0.156821 0)
(29.9907 0.445561 0)
(29.9939 0.693795 0)
(30.0285 0.904486 0)
(30.0963 1.06976 0)
(30.1826 1.18837 0)
(30.2705 1.26738 0)
(30.3497 1.3175 0)
(30.416 1.34768 0)
(30.4709 1.36737 0)
(29.9989 0.157551 0)
(29.9935 0.446104 0)
(30.0002 0.690259 0)
(30.0366 0.893472 0)
(30.1034 1.04994 0)
(30.1861 1.16036 0)
(30.2692 1.23281 0)
(30.3436 1.27807 0)
(30.4055 1.30488 0)
(30.4567 1.32203 0)
(29.9991 0.158127 0)
(29.996 0.44626 0)
(30.0056 0.686306 0)
(30.0432 0.882281 0)
(30.1083 1.0304 0)
(30.1872 1.13318 0)
(30.2653 1.19956 0)
(30.3349 1.24035 0)
(30.3925 1.26405 0)
(30.4402 1.27885 0)
(29.9994 0.158559 0)
(29.9982 0.446069 0)
(30.0101 0.682016 0)
(30.0483 0.871027 0)
(30.1113 1.01128 0)
(30.1859 1.10695 0)
(30.2591 1.16771 0)
(30.3238 1.20439 0)
(30.3772 1.22523 0)
(30.4213 1.23787 0)
(29.9996 0.158861 0)
(30 0.445574 0)
(30.0137 0.677471 0)
(30.0519 0.859826 0)
(30.1122 0.992694 0)
(30.1824 1.08177 0)
(30.2505 1.13737 0)
(30.3104 1.17027 0)
(30.3597 1.1885 0)
(30.4003 1.19916 0)
(29.9998 0.159045 0)
(30.0015 0.44482 0)
(30.0164 0.672757 0)
(30.054 0.848795 0)
(30.1112 0.974773 0)
(30.1767 1.05777 0)
(30.2398 1.10864 0)
(30.2948 1.13809 0)
(30.34 1.15393 0)
(30.3773 1.16278 0)
(29.9999 0.159126 0)
(30.0027 0.443855 0)
(30.0184 0.667963 0)
(30.0547 0.838053 0)
(30.1085 0.957643 0)
(30.1691 1.03506 0)
(30.2269 1.08162 0)
(30.2772 1.10793 0)
(30.3183 1.1216 0)
(30.3521 1.12882 0)
(30 0.15912 0)
(30.0036 0.442731 0)
(30.0195 0.663177 0)
(30.0541 0.82772 0)
(30.104 0.941434 0)
(30.1594 1.01377 0)
(30.2119 1.05642 0)
(30.2574 1.0799 0)
(30.2946 1.09161 0)
(30.3251 1.09734 0)
(30.0001 0.159043 0)
(30.0041 0.441499 0)
(30.0198 0.658494 0)
(30.0522 0.817917 0)
(30.0978 0.926276 0)
(30.1479 0.994015 0)
(30.1951 1.03315 0)
(30.2358 1.05409 0)
(30.269 1.06405 0)
(30.2962 1.06846 0)
(30.0002 0.158912 0)
(30.0044 0.440213 0)
(30.0194 0.654005 0)
(30.0491 0.808767 0)
(30.0901 0.912305 0)
(30.1347 0.975937 0)
(30.1764 1.01194 0)
(30.2124 1.03063 0)
(30.2416 1.03903 0)
(30.2655 1.04226 0)
(30.0002 0.158744 0)
(30.0044 0.438928 0)
(30.0183 0.649805 0)
(30.0448 0.800396 0)
(30.0809 0.899658 0)
(30.1198 0.959669 0)
(30.1561 0.992927 0)
(30.1872 1.00963 0)
(30.2124 1.01667 0)
(30.2331 1.01888 0)
(30.0002 0.158556 0)
(30.0042 0.437699 0)
(30.0165 0.645988 0)
(30.0396 0.792927 0)
(30.0704 0.888475 0)
(30.1035 0.945356 0)
(30.1341 0.976244 0)
(30.1604 0.991243 0)
(30.1817 0.997108 0)
(30.1991 0.998418 0)
(30.0002 0.158365 0)
(30.0037 0.436579 0)
(30.0142 0.642649 0)
(30.0333 0.786489 0)
(30.0587 0.878902 0)
(30.0857 0.933148 0)
(30.1107 0.962047 0)
(30.132 0.975622 0)
(30.1494 0.980516 0)
(30.1635 0.981104 0)
(30.0002 0.158185 0)
(30.0031 0.435621 0)
(30.0114 0.639881 0)
(30.0263 0.781213 0)
(30.0458 0.871089 0)
(30.0666 0.923192 0)
(30.0859 0.950452 0)
(30.1023 0.962824 0)
(30.1157 0.966864 0)
(30.1266 0.966791 0)
(30.0002 0.15803 0)
(30.0023 0.434869 0)
(30.0081 0.637769 0)
(30.0185 0.77724 0)
(30.0321 0.865262 0)
(30.0465 0.915833 0)
(30.0598 0.941964 0)
(30.0712 0.953555 0)
(30.0805 0.957089 0)
(30.0881 0.956648 0)
(30.0001 0.157925 0)
(30.0013 0.434371 0)
(30.0045 0.63635 0)
(30.0099 0.774487 0)
(30.0169 0.861083 0)
(30.0243 0.910379 0)
(30.0312 0.935475 0)
(30.0371 0.94627 0)
(30.042 0.949222 0)
(30.0459 0.948344 0)
(21.8038 11.7713 -8.30371e-15)
(21.7185 8.63025 5.74289e-18)
(18.4514 5.82037 9.71463e-16)
(14.0024 3.29684 5.58032e-15)
(8.68462 1.21372 1.76459e-15)
(2.94284 -0.0608411 -2.76743e-15)
(-0.752806 -0.289456 1.51937e-14)
(-1.74468 0.0263102 -2.93849e-14)
(-1.88555 0.299273 0)
(-1.58786 0.804014 2.53572e-14)
(27.6107 11.1666 1.27639e-15)
(30.1857 8.81952 0)
(30.4049 7.35082 6.29973e-15)
(29.1087 6.05198 1.28427e-18)
(25.6952 4.49169 -1.41375e-15)
(19.3523 2.68227 8.20679e-16)
(11.1574 1.00039 -4.58635e-15)
(2.94808 0.117765 1.63577e-14)
(-1.78606 0.271096 -2.94874e-14)
(-2.62045 1.29758 2.54996e-14)
(28.7367 9.75596 -1.20196e-15)
(31.1366 8.12181 0)
(31.8915 7.08853 2.19318e-18)
(32.2953 6.34932 -1.94656e-18)
(32.1067 5.58108 5.22842e-16)
(29.7578 4.50277 -5.29519e-16)
(24.0093 2.9667 1.08507e-18)
(14.9087 1.47636 0)
(5.55918 0.330174 9.70453e-15)
(-1.7711 1.36527 -1.75606e-14)
(29.0565 9.15159 4.83879e-19)
(31.2249 7.9945 -4.80897e-19)
(31.9694 7.01556 0)
(32.3433 6.25803 0)
(32.8704 5.63327 0)
(33.0099 5.08075 -7.58503e-19)
(31.2353 4.2508 7.42008e-19)
(25.5873 3.04447 0)
(16.6481 1.40468 3.92336e-15)
(4.85183 1.84083 0)
(29.0123 8.42824 0)
(30.8995 7.47991 0)
(31.6889 6.58168 0)
(32.0579 5.93084 7.31962e-19)
(32.4615 5.37967 -6.46858e-19)
(32.9953 4.99292 0)
(33.3111 4.66809 0)
(31.5027 4.09665 1.11985e-18)
(26.228 2.73921 -2.51589e-15)
(15.0661 2.61095 -1.86106e-18)
(28.9769 7.66466 -2.13882e-15)
(30.5944 6.95564 -8.48158e-19)
(31.378 6.22084 -1.06282e-15)
(31.7726 5.68713 0)
(32.1182 5.20662 2.89224e-16)
(32.4563 4.80475 -2.99423e-16)
(33.0528 4.59234 0)
(33.2567 4.4755 0)
(31.8528 3.74274 0)
(24.2175 3.25232 0)
(29.0256 7.01194 2.02903e-15)
(30.4025 6.5183 4.23782e-19)
(31.1573 5.93376 1.8568e-15)
(31.5582 5.48387 0)
(31.8939 5.08017 -2.88166e-16)
(32.1408 4.69059 2.99422e-16)
(32.4795 4.42285 1.07352e-18)
(32.9785 4.40355 -2.86323e-18)
(33.7695 4.21019 1.75491e-18)
(30.0261 3.59959 -2.33785e-15)
(29.1206 6.4735 0)
(30.2902 6.13162 7.34041e-17)
(30.9999 5.66502 -7.81221e-16)
(31.4036 5.28003 -6.93977e-19)
(31.7298 4.94302 0)
(31.9782 4.6103 0)
(32.1863 4.3215 -1.00685e-18)
(32.3703 4.2003 -9.30704e-16)
(33.5775 4.26522 0)
(32.5749 3.72981 2.15019e-15)
(29.226 6.01313 5.3176e-19)
(30.2212 5.77621 -7.12893e-17)
(30.8774 5.40873 -3.79419e-16)
(31.2797 5.08496 0)
(31.5985 4.80277 0)
(31.8545 4.52662 0)
(32.0683 4.2737 0)
(32.0634 4.05538 1.81364e-15)
(32.8219 4.1423 1.56836e-15)
(33.0756 3.76129 7.8972e-19)
(29.3288 5.6128 5.48342e-19)
(30.1795 5.45183 5.08961e-16)
(30.7805 5.16763 1.34346e-16)
(31.1749 4.89999 6.57352e-19)
(31.488 4.66424 1.62233e-16)
(31.7431 4.43197 -1.88713e-16)
(31.9764 4.22862 -1.71363e-18)
(31.9981 3.99265 -1.68809e-15)
(32.2849 4.00617 -1.57989e-15)
(32.7701 3.76333 1.54759e-15)
(29.427 5.26367 -1.674e-15)
(30.159 5.15766 -1.11084e-15)
(30.7062 4.94085 2.27191e-16)
(31.0873 4.7223 -4.05842e-16)
(31.3929 4.52611 -2.10756e-17)
(31.6461 4.33033 1.81837e-17)
(31.8756 4.16453 7.28859e-16)
(31.9856 3.96422 8.11403e-16)
(32.07 3.91131 1.47552e-15)
(32.3964 3.75925 -3.02334e-15)
(29.5203 4.95736 1.62481e-15)
(30.1545 4.89063 5.98886e-16)
(30.6513 4.72734 0)
(31.0157 4.55137 8.0032e-17)
(31.3118 4.38903 -1.39603e-16)
(31.5629 4.22616 3.18028e-16)
(31.7809 4.08541 -5.65494e-17)
(31.9445 3.9308 -7.0526e-16)
(32.0182 3.8491 -2.87561e-15)
(32.1855 3.74911 1.46905e-15)
(29.6082 4.68621 0)
(30.1618 4.64765 0)
(30.6123 4.52659 1.80479e-17)
(30.958 4.3872 3.18993e-16)
(31.2435 4.25403 -3.41373e-19)
(31.4907 4.1206 -1.49125e-16)
(31.7017 3.99984 -5.0014e-17)
(31.88 3.8805 1.35441e-15)
(31.996 3.79768 1.40061e-15)
(32.1038 3.72716 0)
(29.6906 4.44411 0)
(30.1772 4.42591 0)
(30.5862 4.338 -1.77392e-17)
(30.9122 4.2295 1.72532e-19)
(31.1865 4.12162 0)
(31.4274 4.01346 0)
(31.6359 3.91169 -6.08516e-16)
(31.8138 3.81649 -3.69178e-17)
(31.9592 3.74354 -1.20404e-18)
(32.0696 3.69107 0)
(29.7676 4.22624 -9.30774e-19)
(30.1984 4.22281 1.01984e-18)
(30.5704 4.16082 8.92601e-20)
(30.8765 4.07801 -9.00738e-20)
(31.1392 3.99203 7.99622e-17)
(31.3726 3.90514 -1.09583e-16)
(31.5788 3.82148 -5.21343e-16)
(31.7557 3.74422 -3.34349e-17)
(31.9114 3.68282 0)
(32.0385 3.64295 -1.25311e-15)
(29.8398 4.02873 1.13372e-15)
(30.2236 4.03602 -6.7428e-16)
(30.5627 3.99423 -2.83851e-20)
(30.8495 3.93255 -1.97403e-19)
(31.1003 3.86539 -7.8823e-17)
(31.3257 3.79643 1.08963e-16)
(31.5282 3.7291 3.51018e-17)
(31.7054 3.66688 -3.20099e-17)
(31.8633 3.61608 -1.21973e-18)
(32.002 3.58625 2.45087e-15)
(29.9074 3.84844 -1.10945e-15)
(30.2514 3.8635 1.30254e-15)
(30.5614 3.83739 1.15589e-16)
(30.8298 3.79293 0)
(31.0685 3.74175 6.19954e-17)
(31.2857 3.68799 0)
(31.4835 3.63482 4.77062e-16)
(31.6605 3.58572 -1.0406e-15)
(31.8194 3.54454 -1.01658e-18)
(31.9637 3.5233 -1.197e-15)
(29.9708 3.68281 0)
(30.2809 3.70344 -1.23737e-15)
(30.5651 3.68946 6.21142e-18)
(30.8161 3.65891 0)
(31.0429 3.62115 -1.16522e-16)
(31.2518 3.58025 0)
(31.4442 3.53916 -9.40216e-19)
(31.6199 3.50137 5.0387e-16)
(31.7795 3.46891 0)
(31.9268 3.45519 -1.11261e-15)
(30.0304 3.52977 -8.81622e-16)
(30.3113 3.5543 2.58728e-17)
(30.5726 3.54965 -1.16114e-16)
(30.8073 3.53024 0)
(31.0225 3.50361 1.04516e-16)
(31.223 3.47352 0)
(31.4098 3.44265 8.8292e-19)
(31.5829 3.41441 -8.11774e-19)
(31.7428 3.38972 0)
(31.8919 3.38248 1.10616e-15)
(30.0862 3.38758 8.64696e-16)
(30.3419 3.41475 1.08527e-15)
(30.5828 3.41721 -4.03802e-19)
(30.8025 3.40663 0)
(31.0065 3.38912 -4.92324e-17)
(31.1985 3.36801 0)
(31.3795 3.34573 -8.31811e-19)
(31.5494 3.32548 1.70641e-18)
(31.7084 3.30746 -8.71472e-19)
(31.8586 3.30571 0)
(30.1386 3.25483 -7.36845e-16)
(30.3723 3.28364 -5.1772e-16)
(30.595 3.29144 0)
(30.8008 3.28779 4.18154e-17)
(30.994 3.27765 1.03738e-19)
(31.1778 3.26393 6.7013e-17)
(31.3527 3.24877 -7.862e-19)
(31.5188 3.23512 1.62078e-18)
(31.6762 3.22272 -8.31067e-19)
(31.8266 3.2255 0)
(30.1877 3.13031 1.39623e-15)
(30.402 3.16 -5.9445e-19)
(30.6085 3.17173 0)
(30.8014 3.17342 -4.09583e-17)
(30.9844 3.16916 -1.92646e-19)
(31.1601 3.16142 -3.02196e-18)
(31.3289 3.15207 -1.63258e-16)
(31.4908 3.14381 1.02015e-18)
(31.6458 3.13603 -1.58808e-18)
(31.7955 3.14243 -9.54667e-16)
(30.2336 3.01302 -6.60186e-16)
(30.4309 3.04298 1.11429e-18)
(30.6227 3.05751 -6.24263e-19)
(30.8037 3.06325 2.01156e-19)
(30.977 3.06358 -1.82747e-19)
(31.1448 3.0606 -6.17613e-17)
(31.3075 3.05592 1.61708e-16)
(31.4649 3.05198 -3.70955e-16)
(31.6169 3.0479 -9.04664e-19)
(31.7653 3.05709 9.4954e-16)
(30.2764 2.90212 0)
(30.4585 2.93187 -3.62245e-16)
(30.6371 2.94829 -6.02803e-19)
(30.8072 2.95701 -2.02782e-17)
(30.9713 2.96085 -3.60325e-17)
(31.1315 2.96157 0)
(31.2879 2.96054 -1.49597e-16)
(31.4406 2.95997 3.68152e-16)
(31.5892 2.95879 -8.6944e-19)
(31.7355 2.97 8.14021e-19)
(30.3161 2.79687 4.97696e-16)
(30.4848 2.82604 3.55751e-16)
(30.6513 2.84364 -5.56399e-19)
(30.8112 2.85446 -1.69977e-18)
(30.9667 2.86088 5.38593e-19)
(31.1195 2.86439 5.22589e-19)
(31.2698 2.86614 2.88047e-16)
(31.4176 2.86813 3.41651e-16)
(31.5624 2.86911 0)
(31.7062 2.88165 -8.54258e-16)
(30.3528 2.69668 -4.88836e-16)
(30.5094 2.72497 -2.86054e-16)
(30.665 2.74316 -3.98968e-19)
(30.8155 2.75536 2.1415e-17)
(30.9628 2.7636 3.41505e-17)
(31.1085 2.76913 5.22418e-17)
(31.2528 2.77291 -1.40467e-16)
(31.3955 2.77672 -3.38562e-16)
(31.5363 2.77923 5.40889e-19)
(31.6771 2.79251 2.5769e-17)
(30.3866 2.60103 3.25982e-19)
(30.5322 2.62821 5.3159e-16)
(30.6778 2.64652 -4.72396e-21)
(30.8196 2.65951 -2.55193e-17)
(30.9591 2.66893 0)
(31.098 2.67583 -5.19877e-17)
(31.2363 2.68099 1.32952e-16)
(31.374 2.68602 2.72671e-19)
(31.5105 2.6895 -7.18425e-16)
(31.6479 2.70297 8.17804e-16)
(30.4174 2.50947 -5.7645e-19)
(30.5532 2.53538 -3.54233e-16)
(30.6895 2.55343 0)
(30.8231 2.56675 -2.69895e-18)
(30.9554 2.57681 0)
(31.0877 2.58452 -4.64186e-19)
(31.2202 2.59052 -2.55602e-16)
(31.3527 2.59624 3.01634e-16)
(31.4847 2.60021 1.05624e-15)
(31.6184 2.61343 0)
(30.4454 2.42163 3.12713e-16)
(30.5721 2.44613 1.99479e-16)
(30.7 2.46364 5.25342e-20)
(30.826 2.47689 5.66451e-17)
(30.9513 2.48718 0)
(31.0773 2.49524 4.48343e-19)
(31.204 2.50162 1.25018e-16)
(31.3314 2.50758 -3.00791e-16)
(31.4589 2.51165 -6.72075e-16)
(31.5886 2.52423 -1.35255e-18)
(30.4705 2.33721 -3.07185e-16)
(30.5889 2.3602 -9.16113e-17)
(30.7089 2.37694 0)
(30.8277 2.38982 2.73469e-18)
(30.9466 2.39997 -3.2451e-17)
(31.0665 2.40802 4.33666e-19)
(31.1876 2.4144 -1.18914e-16)
(31.3098 2.42024 2.81018e-16)
(31.4326 2.42406 3.29494e-16)
(31.5582 2.43568 0)
(30.4927 2.25592 -3.78108e-19)
(30.6035 2.27735 4.01224e-19)
(30.7162 2.29314 2.09049e-18)
(30.8283 2.30542 -3.10126e-17)
(30.9409 2.31515 3.186e-17)
(31.055 2.32288 0)
(31.1706 2.32894 1.15933e-16)
(31.2878 2.33436 -2.78139e-16)
(31.4058 2.33766 3.0936e-16)
(31.5271 2.34807 0)
(30.512 2.17754 0)
(30.6158 2.19738 0)
(30.7216 2.2121 -1.91854e-18)
(30.8275 2.22358 -1.37617e-19)
(30.9342 2.23268 3.19374e-17)
(31.0426 2.23985 -4.0663e-19)
(31.1528 2.24535 -1.11373e-16)
(31.265 2.25009 9.28508e-19)
(31.3783 2.25265 -3.05327e-16)
(31.4952 2.26165 0)
(30.5285 2.1019 2.68814e-19)
(30.6258 2.12013 -4.05063e-17)
(30.7252 2.13368 -1.50668e-19)
(30.8251 2.14424 1.60158e-19)
(30.9262 2.15253 2.99927e-19)
(31.0292 2.15894 0)
(31.1342 2.16368 1.09263e-16)
(31.2413 2.16756 1.09469e-18)
(31.3499 2.16921 -2.26282e-18)
(31.4622 2.17665 -6.30566e-16)
(30.5422 2.02883 -2.20775e-19)
(30.6334 2.04546 3.9701e-17)
(30.7269 2.05779 -2.04524e-17)
(30.8211 2.06731 0)
(30.9167 2.07466 -6.23325e-17)
(31.0145 2.08018 4.23962e-17)
(31.1144 2.08402 -3.60053e-19)
(31.2167 2.0869 0)
(31.3204 2.08749 -1.17691e-18)
(31.4282 2.09328 6.27626e-16)
(30.5531 1.95822 0)
(30.6386 1.97327 2.01882e-17)
(30.7264 1.98433 4.65401e-17)
(30.8153 1.99275 -1.99978e-19)
(30.9058 1.99908 3.08842e-17)
(30.9985 2.0036 -4.1324e-17)
(31.0934 2.00643 0)
(31.1908 2.0082 -2.31524e-16)
(31.2899 2.00765 2.63052e-16)
(31.3931 2.0117 -1.07441e-18)
(30.5612 1.88995 0)
(30.6414 1.90346 -1.9832e-17)
(30.7239 1.91325 -2.57326e-17)
(30.8077 1.92053 3.93866e-17)
(30.8932 1.92578 1.91927e-19)
(30.981 1.92923 3.56025e-19)
(31.0711 1.93096 -1.18333e-18)
(31.1638 1.93155 4.54714e-16)
(31.2581 1.92981 -2.60006e-16)
(31.3567 1.9321 5.55424e-16)
(30.5666 1.82396 -4.00819e-17)
(30.6417 1.83596 0)
(30.7192 1.84449 -3.62844e-17)
(30.7981 1.85061 -3.90827e-17)
(30.8789 1.85474 3.82271e-19)
(30.962 1.85708 -1.91796e-17)
(31.0474 1.85768 -9.24799e-17)
(31.1353 1.85705 -8.33123e-18)
(31.2251 1.85408 1.76763e-18)
(31.319 1.8546 -2.8562e-16)
(30.5693 1.76018 3.94603e-17)
(30.6397 1.77074 -2.51341e-18)
(30.7124 1.77802 3.55846e-17)
(30.7866 1.78298 -2.33076e-19)
(30.8628 1.78599 1.45632e-17)
(30.9413 1.78719 3.24112e-19)
(31.0221 1.78664 1.79127e-16)
(31.1055 1.78478 -2.10547e-16)
(31.1907 1.78056 9.85468e-19)
(31.2801 1.77934 -2.64422e-16)
(30.5692 1.69858 4.1465e-20)
(30.6352 1.70774 2.6008e-18)
(30.7033 1.71382 4.67679e-20)
(30.7731 1.71763 -2.3972e-19)
(30.8449 1.71951 -1.42752e-17)
(30.919 1.71959 3.60608e-17)
(30.9953 1.71789 -8.82038e-17)
(31.0742 1.71479 1.96203e-16)
(31.1549 1.70935 0)
(31.2397 1.70641 -2.41453e-16)
(30.5666 1.63912 1.67185e-20)
(30.6283 1.64696 1.87547e-19)
(30.6921 1.65186 -6.81027e-19)
(30.7576 1.65456 4.04123e-17)
(30.8252 1.65534 0)
(30.8949 1.65431 -1.69332e-17)
(30.967 1.65147 8.35339e-19)
(31.0415 1.64717 -1.94297e-16)
(31.1177 1.64052 2.08523e-16)
(31.198 1.63594 2.39161e-16)
(30.5613 1.58178 0)
(30.619 1.58837 1.72635e-17)
(30.6787 1.59215 0)
(30.7401 1.59378 -3.9061e-17)
(30.8035 1.59349 -1.32968e-17)
(30.8692 1.59137 1.58419e-17)
(30.937 1.58743 5.57389e-19)
(31.0072 1.58196 -8.99774e-17)
(31.0791 1.57415 -6.92279e-18)
(31.1549 1.56798 0)
(30.5535 1.52658 -2.29887e-20)
(30.6074 1.53198 -1.69435e-17)
(30.6631 1.53469 2.32922e-17)
(30.7206 1.53529 3.85991e-17)
(30.7801 1.53398 5.85952e-19)
(30.8417 1.53082 -1.01336e-18)
(30.9053 1.52581 -7.17298e-17)
(30.9714 1.51922 2.24566e-18)
(31.039 1.5103 -1.95463e-16)
(31.1105 1.50263 0)
(30.5432 1.47351 -6.3737e-19)
(30.5934 1.4778 2.63926e-19)
(30.6454 1.47951 -4.75427e-17)
(30.6991 1.47913 -3.76456e-17)
(30.7547 1.47684 1.25314e-17)
(30.8124 1.47269 -1.59136e-17)
(30.8721 1.46666 7.2892e-17)
(30.934 1.459 8.26381e-17)
(30.9975 1.44903 -1.74788e-16)
(31.0646 1.43995 -1.94779e-16)
(30.5305 1.42259 6.27676e-19)
(30.5772 1.42584 -2.73608e-19)
(30.6255 1.4266 3.66205e-19)
(30.6756 1.42531 -4.764e-19)
(30.7276 1.42209 0)
(30.7814 1.417 -1.4097e-17)
(30.8372 1.41002 0)
(30.8951 1.40135 7.44075e-17)
(30.9545 1.3904 1.75597e-16)
(31.0174 1.37999 1.89962e-16)
(30.5155 1.37385 0)
(30.5588 1.37614 -2.65611e-17)
(30.6036 1.37601 2.34287e-17)
(30.6502 1.37386 0)
(30.6985 1.36978 0)
(30.7487 1.36381 1.43067e-17)
(30.8007 1.35593 6.18242e-19)
(30.8547 1.34632 -5.89274e-18)
(30.9102 1.33445 -1.62679e-19)
(30.9689 1.32281 1.70935e-16)
(30.4981 1.32731 -1.36368e-19)
(30.5381 1.32871 2.62524e-17)
(30.5797 1.32777 0)
(30.6228 1.32481 -3.01008e-19)
(30.6677 1.31993 2.94203e-19)
(30.7143 1.31314 4.36983e-19)
(30.7626 1.30443 -1.4244e-18)
(30.8128 1.29394 -1.33872e-16)
(30.8644 1.28122 -1.4325e-16)
(30.919 1.26845 -1.67836e-16)
(30.4784 1.28303 1.4677e-19)
(30.5154 1.28361 -1.50963e-19)
(30.5537 1.28192 4.17313e-19)
(30.5936 1.27822 -1.60651e-17)
(30.6351 1.27259 0)
(30.6783 1.26504 4.0724e-19)
(30.723 1.25556 -2.71414e-17)
(30.7695 1.24427 1.24377e-16)
(30.8172 1.23077 1.42522e-16)
(30.8678 1.21697 1.46293e-16)
(30.4567 1.24105 0)
(30.4907 1.24088 2.70781e-19)
(30.5259 1.23849 2.09547e-17)
(30.5626 1.23412 1.53052e-17)
(30.6008 1.2278 9.06822e-18)
(30.6406 1.21956 0)
(30.6818 1.20938 2.63028e-17)
(30.7247 1.19735 -3.80867e-18)
(30.7687 1.18315 -6.16371e-17)
(30.8154 1.16839 -1.44671e-16)
(30.4328 1.20143 1.37962e-17)
(30.4639 1.20057 4.20505e-19)
(30.4961 1.19755 -1.01979e-18)
(30.5298 1.19256 0)
(30.5648 1.18562 -8.87891e-18)
(30.6013 1.17675 -3.47225e-19)
(30.6391 1.16592 -2.23146e-17)
(30.6784 1.15323 -1.05744e-16)
(30.7188 1.13838 6.08383e-17)
(30.7617 1.12277 1.23305e-16)
(30.4069 1.16422 -1.37418e-17)
(30.4352 1.16275 0)
(30.4645 1.15915 -3.88451e-17)
(30.4952 1.15359 -1.23989e-17)
(30.5271 1.14609 -3.60017e-18)
(30.5604 1.13665 -4.17983e-18)
(30.5949 1.12524 4.25684e-17)
(30.6307 1.11195 9.72839e-17)
(30.6675 1.09653 -7.86135e-19)
(30.7067 1.08015 -1.21891e-16)
(30.379 1.12951 1.49942e-19)
(30.4046 1.12747 8.05826e-20)
(30.4312 1.12336 3.52162e-17)
(30.4589 1.1173 1.1779e-18)
(30.4878 1.10929 3.74279e-18)
(30.518 1.09933 4.69863e-18)
(30.5492 1.0874 -1.32398e-18)
(30.5817 1.07358 -3.83759e-18)
(30.615 1.05764 8.7976e-20)
(30.6505 1.04059 -7.82311e-19)
(30.3492 1.09736 -1.42779e-19)
(30.3723 1.09482 -1.10489e-17)
(30.3961 1.09025 -1.70228e-17)
(30.421 1.08373 1.11217e-17)
(30.447 1.07527 0)
(30.474 1.06485 0)
(30.502 1.05246 -1.8245e-17)
(30.5312 1.03816 -4.10336e-17)
(30.5612 1.02178 4.10153e-17)
(30.593 1.00411 0)
(30.3177 1.06787 0)
(30.3382 1.06489 2.11862e-17)
(30.3593 1.0599 -7.05919e-18)
(30.3814 1.05298 -3.30378e-19)
(30.4045 1.04412 3.04517e-18)
(30.4286 1.0333 -4.54091e-19)
(30.4535 1.02051 -6.70033e-20)
(30.4794 1.00579 5.05994e-19)