/*--------------------------------*- C++ -*----------------------------------*\
| =========                 |                                                 |
| \\      /  F ield         | OpenFOAM: The Open Source CFD Toolbox           |
|  \\    /   O peration     | Version:  v1912                                 |
|   \\  /    A nd           | Website:  www.openfoam.com                      |
|    \\/     M anipulation  |                                                 |
\*---------------------------------------------------------------------------*/
FoamFile
{
    version     2.0;
    format      ascii;
    class       volScalarField;
    location    "340";
    object      epsilon;
}
// * * * * * * * * * * * * * * * * * * * * * * * * * * * * * * * * * * * * * //

dimensions      [0 2 -3 0 0 0 0];


internalField   nonuniform List<scalar> 
12441
(
0.0102963
0.00908477
0.00832691
0.00770248
0.00718356
0.00674885
0.00638219
0.0060709
0.005805
0.00557643
0.00537916
0.00520777
0.00504839
0.00491679
0.00480153
0.0046954
0.0048453
0.0199437
0.270984
3.01629
20.9547
39.25
0.0101187
0.00891982
0.00818371
0.00757663
0.00707173
0.00664844
0.0062912
0.0059878
0.00572855
0.00550565
0.00531332
0.00514628
0.0049899
0.00486197
0.00475022
0.0046488
0.00478095
0.0196807
0.255241
3.00872
21.2456
40.2318
0.00989668
0.00871705
0.00800001
0.00740882
0.00691725
0.00650527
0.00615772
0.0058627
0.00561081
0.00539447
0.00520808
0.00504657
0.00489509
0.00477236
0.00466581
0.00456909
0.00463713
0.0178429
0.216266
2.97823
21.6255
41.3784
0.00967309
0.00851341
0.00781463
0.00723856
0.00675965
0.00635838
0.00601995
0.00573282
0.00548784
0.00527765
0.00509682
0.00494048
0.00479464
0.00467676
0.004575
0.00448434
0.00450022
0.0156364
0.178116
2.95588
22.0934
42.5504
0.00942888
0.0082888
0.00760875
0.0070483
0.00658256
0.00619251
0.00586376
0.00558508
0.00534759
0.00514416
0.00496954
0.00481908
0.00467855
0.00456653
0.00447076
0.00438649
0.00435362
0.0136538
0.158646
2.96287
22.6106
43.6698
0.0092229
0.00809918
0.00743434
0.00688651
0.00643133
0.00605021
0.00572905
0.00545691
0.0052251
0.00502667
0.00485653
0.00471019
0.00457455
0.00446651
0.00437471
0.00429539
0.00427929
0.0138021
0.178237
3.06916
23.2393
44.7472
0.00900224
0.00789558
0.00724719
0.00671308
0.00626946
0.00589819
0.00558552
0.00532078
0.00509552
0.00490298
0.00473821
0.00459692
0.0044656
0.00436338
0.00427471
0.00420218
0.00603394
0.0228959
0.283577
3.36815
24.0787
45.7945
0.00882378
0.00773093
0.00709537
0.00657187
0.00613708
0.00577323
0.00546683
0.00520742
0.00498672
0.00479814
0.00463686
0.00449868
0.00437161
0.00427358
0.00419274
0.00516872
0.0344541
0.0794186
0.595608
3.99759
25.2508
46.8732
0.00862965
0.00755174
0.00693069
0.00641929
0.00599471
0.00563955
0.00534063
0.00508774
0.0048728
0.00468937
0.00453275
0.00439893
0.00427574
0.00414489
0.00540046
0.0270241
0.175894
0.298139
1.27822
5.10593
26.8852
48.0153
0.00847496
0.00740884
0.00679879
0.00629644
0.00587938
0.00553051
0.00523686
0.00498843
0.00477727
0.0045971
0.0044433
0.00431217
0.00419224
0.00427391
0.0252438
0.149255
0.524061
0.791925
2.35739
6.75093
29.0752
49.2846
0.00830553
0.00725239
0.00665506
0.00616334
0.00575522
0.00541396
0.00512688
0.00488416
0.00467803
0.00450232
0.00435254
0.00422613
0.00407639
0.00950608
0.113699
0.430107
1.03232
1.50874
3.62669
8.83157
31.847
50.6975
0.0081705
0.00712769
0.00653993
0.00605605
0.00565443
0.00531859
0.00503602
0.00479709
0.00459416
0.00442119
0.00427376
0.00415105
0.00415509
0.0484372
0.318606
0.80165
1.52577
2.23695
4.83004
11.1361
35.1473
52.295
0.00802137
0.00699004
0.00641361
0.0059392
0.00554555
0.00521649
0.00493975
0.00470588
0.00450739
0.00433834
0.00419441
0.00403809
0.00836527
0.164452
0.587724
1.13523
1.90469
2.82829
5.84352
13.4533
38.8686
54.0597
0.00790048
0.0068784
0.00631054
0.00584315
0.00545531
0.00513109
0.0048584
0.00462793
0.00443231
0.00426573
0.00412392
0.0038828
0.0370239
0.340223
0.82503
1.37984
2.1693
3.2625
6.65998
15.6381
42.8764
56.0037
0.0077691
0.00675705
0.00619921
0.00574018
0.00535937
0.00504112
0.00477355
0.00454751
0.00435577
0.00419259
0.00405379
0.00426458
0.112643
0.514906
1.00218
1.55059
2.35272
3.57534
7.31633
17.6185
47.0408
58.0812
0.00766002
0.00665637
0.00610626
0.00565357
0.005278
0.00496413
0.00470021
0.00447725
0.00428811
0.00412718
0.00399036
0.00948653
0.221416
0.655897
1.12858
1.67148
2.48361
3.80608
7.8536
19.373
51.2485
60.2902
0.00754409
0.00654932
0.00600812
0.00556284
0.00519349
0.00488487
0.00462544
0.00440634
0.00422055
0.00406252
0.00392869
0.0323924
0.331866
0.762145
1.22037
1.7602
2.58098
3.98351
8.30492
20.9084
55.4143
62.571
0.00744256
0.00645573
0.00592182
0.00548255
0.00511818
0.00481374
0.00455783
0.00434172
0.00415849
0.00400269
0.00387349
0.0814817
0.425888
0.841859
1.28948
1.82803
2.65675
4.12663
8.69441
22.2436
59.4771
64.9213
0.00733995
0.00636084
0.00583477
0.00540199
0.00504305
0.00474318
0.00449116
0.00427837
0.004098
0.00394468
0.00380987
0.145054
0.500529
0.903324
1.34364
1.88206
2.71845
4.24765
9.03889
23.4011
63.402
67.2818
0.00724531
0.00627369
0.00575446
0.00532734
0.00497312
0.00467723
0.00442857
0.00421867
0.00404078
0.00388964
0.00428359
0.207934
0.559132
0.952454
1.38775
1.92682
2.77099
4.35448
9.34979
24.403
67.173
69.6617
0.0071551
0.0061902
0.00567785
0.00525638
0.00490685
0.00461486
0.00436949
0.00416236
0.00398682
0.00383777
0.00998278
0.263356
0.606083
0.993169
1.425
1.96536
2.81769
4.45217
9.63465
25.2696
70.7931
72.0102
0.00706431
0.00610676
0.00560114
0.00518528
0.00484046
0.0045525
0.00431055
0.00410638
0.00393342
0.00378715
0.0286236
0.310161
0.644892
1.02803
1.45755
1.99975
2.86093
4.54379
9.89835
26.0186
74.2786
74.3523
0.00698503
0.00603317
0.00553345
0.00512239
0.00478152
0.00449681
0.00425758
0.00405568
0.00388464
0.00374211
0.0600963
0.349486
0.678022
1.05876
1.48688
2.03152
2.90237
4.63107
10.1439
26.6661
77.6614
76.6493
0.00689852
0.00595377
0.00546054
0.00505494
0.00471869
0.00443794
0.00420212
0.00400317
0.00383473
0.00370239
0.0959913
0.382875
0.707142
1.08657
1.51411
2.06178
2.94317
4.71484
10.3734
27.2259
80.9834
78.9445
0.00683027
0.00589029
0.00540204
0.00500043
0.00466739
0.00438921
0.00415549
0.00395824
0.0037912
0.00368405
0.129996
0.411793
0.733386
1.11233
1.54005
2.09135
2.98399
4.79545
10.5879
27.7107
84.2998
81.212
0.00674456
0.0058119
0.00533037
0.00493445
0.00460629
0.00433236
0.0041023
0.00390826
0.00374407
0.00364563
0.160175
0.437423
0.757543
1.13669
1.5653
2.12079
3.02514
4.87308
10.7885
28.1314
87.6736
83.5114
0.00668543
0.00575659
0.00527912
0.00488639
0.00456073
0.00428874
0.00406024
0.00386744
0.00370429
0.00384669
0.186801
0.460648
0.780177
1.16013
1.59031
2.15047
3.0666
4.94791
10.9759
28.4977
91.1774
85.8273
0.00660169
0.00568014
0.00520939
0.0048224
0.00450169
0.00423404
0.00400932
0.00381983
0.00365969
0.00583104
0.210702
0.482107
0.801704
1.18302
1.61537
2.18055
3.10826
5.02011
11.1508
28.8177
94.8861
88.2307
0.00655204
0.00563345
0.00516586
0.00478125
0.00446231
0.00419594
0.00397217
0.00378337
0.00362416
0.0113607
0.232639
0.502257
0.822434
1.20563
1.64067
2.21109
3.14995
5.08989
11.3139
29.0982
98.8761
90.7106
0.00646793
0.00555699
0.00509648
0.00471797
0.00440434
0.00414265
0.00392295
0.00373774
0.00358268
0.0215804
0.253167
0.521426
0.842603
1.22815
1.66628
2.24203
3.19155
5.15747
11.466
29.345
103.217
93.3406
0.00642572
0.00551687
0.00505869
0.00468181
0.00436931
0.00410834
0.00388913
0.00370423
0.00355165
0.0367121
0.272649
0.539858
0.862388
1.2507
1.69224
2.2733
3.23298
5.22303
11.6078
29.5628
107.97
96.1058
0.00634324
0.00544202
0.00499091
0.0046202
0.00431308
0.00405688
0.00384183
0.00366059
0.00351573
0.0559189
0.291317
0.557732
0.881917
1.27334
1.71851
2.3048
3.27419
5.28675
11.7401
29.756
113.181
99.0732
0.00630958
0.00540969
0.0049601
0.00459026
0.00428356
0.00402743
0.00381228
0.00363082
0.00349483
0.0778922
0.309317
0.575181
0.901279
1.29611
1.74504
2.33647
3.31515
5.34879
11.8636
29.9288
118.885
102.217
0.00622508
0.00533338
0.00489141
0.00452827
0.00422747
0.00397658
0.00376602
0.00358858
0.00347382
0.101314
0.326739
0.592303
0.920531
1.319
1.77177
2.36822
3.35587
5.40925
11.9791
30.0851
125.102
105.592
0.00619827
0.00530713
0.00486586
0.00450286
0.00420182
0.00395042
0.00373928
0.00356123
0.00347896
0.125152
0.343639
0.609169
0.939703
1.34199
1.79862
2.4
3.39634
5.46823
12.0873
30.229
131.846
109.157
0.00611125
0.00522898
0.00479593
0.00444018
0.00414555
0.00389983
0.00369365
0.00351993
0.00355101
0.14863
0.36004
0.62582
0.958802
1.36505
1.82553
2.43177
3.43657
5.52577
12.1891
30.364
139.124
112.957
0.00608773
0.00520566
0.0047729
0.00441689
0.00412165
0.00387512
0.00366812
0.00349362
0.00634607
0.171152
0.37594
0.642282
0.977816
1.38813
1.85244
2.46347
3.47655
5.58192
12.2854
30.4933
146.935
116.938
0.00599571
0.00512361
0.00469998
0.00435199
0.00406383
0.00382356
0.00362198
0.00345221
0.0288611
0.192138
0.391313
0.658558
0.996718
1.41116
1.87928
2.49505
3.51626
5.63667
12.3769
30.6186
155.265
121.137
0.00596743
0.00509619
0.00467338
0.00432556
0.00403715
0.00379639
0.00359431
0.00342465
0.0599167
0.210759
0.406119
0.674636
1.01547
1.4341
1.90598
2.52648
3.55569
5.69001
12.4646
30.7406
164.06
125.495
0.00586272
0.00500322
0.00459113
0.00425272
0.00397259
0.00373914
0.00354341
0.00338442
0.0797073
0.226593
0.420312
0.69049
1.03402
1.45686
1.93247
2.55769
3.5948
5.74191
12.5496
30.8586
173.189
130.045
0.00582116
0.00496382
0.00455368
0.0042164
0.00393691
0.00370379
0.00350837
0.00335788
0.0914214
0.239832
0.433852
0.706082
1.05231
1.47936
1.95868
2.58863
3.6335
5.79232
12.6325
30.9713
182.379
134.727
0.00569951
0.00485622
0.00445852
0.0041319
0.00386164
0.00363663
0.00344829
0.00369394
0.0987968
0.250868
0.446711
0.721361
1.07029
1.50152
1.98452
2.61921
3.67173
5.84121
12.7142
31.0777
191.153
139.588
0.00561723
0.00478974
0.00440411
0.00408585
0.00382124
0.00359988
0.00341372
0.00444442
0.103736
0.260092
0.458873
0.73627
1.08789
1.52323
2.0099
2.64934
3.70937
5.8886
12.7949
31.1781
198.813
144.654
0.00525476
0.00446037
0.00411203
0.00382645
0.00358918
0.00339067
0.00322357
0.0048046
0.107186
0.267815
0.470328
0.750736
1.10504
1.54438
2.03471
2.67891
3.74628
5.93453
12.874
31.2745
204.551
150.447
95.0235
55.3717
37.3813
29.4286
27.4642
22.7377
21.6333
19.375
18.1917
17.5692
17.2129
16.8079
18.399
21.9064
26.2003
29.6748
33.0052
35.9072
37.2695
37.421
37.1676
36.9348
36.7279
36.537
36.5871
36.4071
35.2599
34.9218
39.5253
25.8171
5.30684
4.22969
4.15443
3.8349
3.39319
94.6475
55.4311
37.5437
29.9167
28.1644
23.2213
22.0919
19.7268
18.5043
17.8331
17.3433
16.9304
18.5825
22.2072
26.6383
30.0145
33.0877
36.0319
37.5932
37.9959
37.9812
37.8237
37.5291
37.1762
37.0983
36.8543
35.6808
35.3148
39.8012
26.6929
5.31942
4.22544
4.14931
3.82975
3.38883
93.9266
55.5187
37.856
30.8959
29.5481
24.1813
22.9792
20.4075
19.1205
18.3569
17.6167
17.1899
18.9636
22.8479
27.5582
30.7579
33.3289
36.2255
38.1005
39.0459
39.6165
39.6957
39.2638
38.5735
38.1975
37.7773
36.5215
36.1163
40.3078
27.0308
5.33802
4.21688
4.13908
3.81946
3.38011
92.8104
55.6182
38.3324
32.4081
31.5981
25.6199
24.2648
21.3984
20.0328
19.137
18.0707
17.6286
19.5943
23.9177
29.1325
32.1823
33.959
36.599
38.8746
40.6683
42.2031
42.7497
42.1797
40.9561
40.0475
39.28
37.8512
37.3675
41.2296
27.1379
5.36422
4.2041
4.12376
3.80405
3.36708
91.3035
55.7139
38.9939
34.4858
34.2865
27.5322
25.9214
22.6916
21.237
20.1707
18.7485
18.2985
20.5338
25.5075
31.5723
34.6821
35.3844
37.4069
40.0802
43.0321
45.9461
47.2849
46.6606
44.6916
42.9166
41.5282
39.7725
39.1326
42.7575
27.2733
5.40095
4.18717
4.10338
3.78356
3.34975
89.3553
55.792
39.8695
37.1626
37.6
29.9259
27.9445
24.2984
22.7444
21.4692
19.6933
19.2518
21.8291
27.6723
35.0632
38.719
38.2019
39.1186
42.0292
46.4228
51.1556
53.7233
53.2665
50.3518
47.2368
44.7869
42.4419
41.5071
45.1071
27.6297
5.45191
4.16617
4.07797
3.75803
3.32816
87.0012
55.8401
40.9966
40.4771
41.5401
32.827
30.3563
26.2512
24.5873
23.0664
20.9557
20.5447
23.5225
30.4514
39.7734
44.8054
43.1791
42.4671
45.2655
51.3084
58.2971
62.6416
62.7786
58.7994
53.6948
49.4778
46.0991
44.6287
48.5409
28.3499
5.52127
4.1412
4.04757
3.72749
3.30236
84.2135
55.8471
42.4221
44.4541
46.102
36.2701
33.1984
28.6004
26.8189
25.0212
22.606
22.2521
25.6762
33.8963
45.8661
53.4818
51.2219
48.4348
50.6333
58.419
68.0557
74.7985
76.2165
71.2775
63.3579
56.2656
51.1095
48.6947
53.3933
29.5547
5.61351
4.11234
4.01224
3.692
3.27242
81.0699
55.8028
44.2018
49.0635
51.2484
40.2819
36.522
31.4096
29.5099
27.4183
24.7452
24.4828
28.3966
38.0858
53.4066
65.0627
63.1525
58.1066
59.2532
68.7796
81.3564
91.0868
94.7213
89.3872
77.7966
66.1695
58.0231
53.9846
60.091
31.3711
5.7334
4.07968
3.97204
3.65163
3.2384
77.574
55.6971
46.3995
54.1767
56.8932
44.8652
40.3763
34.7492
32.7434
30.3661
27.512
27.3916
31.8474
43.1088
62.1569
78.9236
78.8239
72.0419
72.1604
83.4821
99.1339
112.195
119.023
114.588
98.9765
80.6327
67.632
60.8842
69.1502
33.9594
5.88588
4.04329
3.92706
3.60648
3.2004
73.8369
55.5188
49.0864
59.5509
62.903
49.988
44.796
38.6858
36.605
33.9915
31.0834
31.187
36.2581
49.0239
71.3439
92.6437
95.5169
88.7596
89.1393
102.743
121.453
137.626
148.092
146.48
128.196
101.258
80.9502
69.8927
81.1034
37.5414
6.07595
4.00321
3.87741
3.55667
3.15854
69.8857
55.2554
52.3391
64.8772
69.1206
55.5849
49.7891
43.2686
41.167
38.4273
35.6651
36.1238
41.9095
55.7647
79.6578
102.513
107.981
103.761
107.11
124.211
145.946
164.279
177.491
179.928
162.978
128.447
98.8769
81.5577
96.2628
42.4246
6.3081
3.95945
3.82321
3.50233
3.11294
65.8489
54.8913
56.2302
69.8907
75.3993
61.5724
55.3301
48.5126
46.4649
43.7829
41.454
42.4661
49.0148
63.0681
85.7678
106.183
112.557
112.497
121.156
142.914
167.551
186.652
200.294
205.215
193.805
158.347
121.099
96.217
114.213
49.0031
6.58511
3.91195
3.76463
3.44365
3.06377
61.7626
54.4078
60.7944
74.4755
81.6356
67.8756
61.3628
54.3882
52.4742
50.0999
48.5691
50.3783
57.5228
70.396
89.1446
104.583
110.565
114.75
128.986
155.139
181.868
200.314
211.827
215.298
208.918
181.369
144.272
113.404
133.132
57.678
6.90536
3.86059
3.70186
3.38083
3.0112
57.7502
53.7831
65.957
78.6902
87.7826
74.4528
67.8197
60.8216
59.0984
57.3009
56.9427
59.7208
66.8924
77.0725
90.3541
100.547
105.943
113.773
132.494
161.479
188.597
204.964
212.621
211.429
205.639
188.823
161.846
131.073
149.607
68.5821
7.25805
3.80514
3.6351
3.3141
2.95545
53.8399
52.9958
71.442
82.7064
93.8521
81.3106
74.6402
67.71
66.1878
65.1658
66.2183
69.8655
76.0587
82.5627
90.5476
96.5951
101.814
112.719
134.723
164.78
190.317
203.204
206.146
199.4
190.932
181.4
168.401
145.589
159.877
80.9858
7.6163
3.74526
3.5646
3.24372
2.89673
50.1273
52.0353
76.7404
86.719
99.9023
88.4589
81.7903
74.9667
73.5843
73.3737
75.7917
79.8174
83.9263
86.7564
90.779
94.1066
99.63
113.211
137.532
167.161
189.436
197.67
195.582
184.065
172.624
166.413
164.246
153.473
161.992
92.608
7.93151
3.68053
3.49061
3.16998
2.83531
46.6135
50.9209
81.2561
90.8403
106.008
95.9149
89.2641
82.5516
81.1834
81.6246
85.0393
88.6785
90.0605
89.9731
91.7188
93.6211
99.8268
115.723
141.395
169.229
186.955
189.799
182.81
167.98
154.965
150.218
153.898
153.66
156.745
99.896
8.13787
3.61053
3.41344
3.09319
2.77143
43.349
49.7212
84.6157
95.1118
112.218
103.671
97.0655
90.4734
88.9709
89.7493
93.6063
96.2184
94.9631
92.8683
93.6956
95.2126
102.366
120.133
146.007
170.66
182.892
180.128
168.828
152.265
139.37
135.742
141.724
147.754
146.567
100.109
8.17426
3.53497
3.33338
3.0137
2.70538
40.3033
48.5772
86.859
99.5459
118.536
111.671
105.181
98.7649
97.0183
97.8058
101.615
102.939
99.6704
96.22
96.876
98.7748
107.045
126.052
150.726
170.841
176.991
168.919
154.316
137.457
125.989
123.637
130.066
138.36
133.903
93.3737
8.01318
3.45383
3.25077
2.93184
2.63744
37.4893
47.6989
88.3792
104.12
124.921
119.805
113.558
107.441
105.434
106.016
109.552
109.785
105.329
100.871
101.433
104.124
113.548
132.974
154.912
169.293
169.18
156.54
139.887
123.882
114.584
113.633
119.649
127.584
120.422
82.1944
7.67272
3.36748
3.16595
2.84798
2.56792
34.8769
47.2373
89.6503
108.787
131.299
127.927
122.1
116.47
114.307
114.649
118.011
117.689
112.892
107.635
107.694
111.15
121.562
140.391
158.041
165.802
159.677
143.531
126.103
111.735
104.849
105.234
110.422
116.631
107.031
69.4459
7.20352
3.27661
3.07927
2.76249
2.4971
32.4767
47.1751
91.0045
113.48
137.573
135.874
130.673
125.757
123.665
123.916
127.446
127.374
123.133
117.381
116.212
119.906
130.831
147.908
159.851
160.461
148.954
130.507
113.399
101.085
96.4948
97.9709
102.084
106.022
94.1606
57.1222
6.66552
3.18213
2.99109
2.67574
2.42529
30.2708
47.3966
92.535
118.109
143.641
143.493
139.129
135.168
133.467
133.919
138.104
139.234
136.571
130.966
127.804
130.735
141.307
155.311
160.299
153.588
137.597
118.028
102.037
91.8833
89.2659
91.4677
94.334
95.9235
82.0247
46.2206
6.11049
3.08504
2.90177
2.5881
2.35278
28.2673
47.7306
94.2099
122.571
149.404
150.652
147.322
144.55
143.618
144.662
150.045
153.442
153.572
149.267
143.5
144.23
153.108
162.553
159.572
145.668
126.206
106.509
92.1034
83.9989
82.9346
85.4503
86.9541
86.3559
70.7539
37.0639
5.57486
2.98627
2.81167
2.49991
2.27984
26.4614
48.0488
95.9611
126.763
154.774
157.257
155.128
153.764
154.005
156.101
163.264
170.037
174.355
172.976
164.429
161.158
166.483
169.661
157.933
137.226
115.279
96.1919
83.5578
77.2534
77.3017
79.732
79.8278
77.3113
60.4499
29.6141
5.07986
2.88669
2.72111
2.41153
2.20676
24.8623
48.3652
97.7266
130.594
159.688
163.253
162.462
162.709
164.535
168.197
177.773
189.125
199.23
202.624
191.523
182.169
181.533
176.594
155.674
128.761
105.184
87.1616
76.2716
71.4555
72.199
74.2006
72.921
68.7894
51.1881
23.6737
4.63503
2.787
2.63043
2.32328
2.13378
23.4808
48.8548
99.4624
134.01
164.116
168.636
169.29
171.339
175.165
180.957
193.676
210.929
228.638
238.509
225.112
207.487
198.075
183.146
152.957
120.638
96.1179
79.3827
70.0776
66.4215
67.4902
68.8036
66.2558
60.8079
43.0085
18.9959
4.24213
2.68778
2.53994
2.23548
2.06115
22.3333
49.7697
101.138
136.989
168.06
173.442
175.63
179.669
185.916
194.468
211.188
235.875
263.217
280.735
264.475
236.359
215.335
188.897
149.836
113.081
88.1486
72.7444
64.7967
61.9885
63.0729
63.5352
59.8819
53.3931
35.9071
15.3387
3.89844
2.58949
2.44993
2.14841
1.98909
21.4546
51.3326
102.729
139.542
171.55
177.738
181.544
187.773
196.886
208.906
230.661
264.546
303.572
328.704
307.568
266.811
231.985
193.243
146.194
106.149
81.2294
67.0976
60.2597
58.0194
58.8772
58.421
53.8549
46.5726
29.8381
12.4885
3.59902
2.49248
2.36066
2.06234
1.9178
20.8892
53.6717
104.213
141.703
174.636
181.61
187.128
195.773
208.246
224.556
252.592
297.713
350.082
380.59
350.798
295.607
246.162
195.51
141.885
99.797
75.2536
62.282
56.3148
54.4054
54.863
53.5042
48.2208
40.3648
24.7219
10.2675
3.3382
2.39701
2.27238
1.97749
1.84747
20.7351
56.8062
105.571
143.516
177.379
185.153
192.502
203.838
220.249
241.833
277.676
336.284
402.427
432.656
389.24
319.029
256.045
195.134
136.751
93.9069
70.0772
58.1431
52.8336
51.0634
51.0147
48.832
43.0088
34.7763
20.4577
8.53253
3.11034
2.30328
2.18531
1.8941
1.77826
21.1259
60.6555
106.789
145.035
179.849
188.464
197.806
212.183
233.251
261.335
306.875
381.325
459.135
479.427
417.533
333.75
260.244
191.825
130.759
88.3597
65.5543
54.5412
49.7096
47.9348
47.3345
44.4462
38.2302
29.7986
16.9352
7.17131
2.91027
2.21144
2.09964
1.81234
1.71031
22.2957
65.0603
107.861
146.314
182.122
191.648
203.208
221.092
247.753
283.936
341.564
433.883
516.762
514.453
431.522
337.971
258.314
185.643
123.958
83.0515
61.5444
51.3559
46.8586
44.98
43.835
40.3759
33.8805
25.4096
14.0448
6.09689
2.73345
2.12162
2.01556
1.73237
1.64374
24.5223
69.8113
108.788
147.409
184.276
194.82
208.912
230.946
264.476
310.938
383.679
494.476
569.28
532.129
429.568
331.684
250.605
176.933
116.509
77.92
57.9283
48.4866
44.2148
42.1752
40.5324
36.6357
29.944
21.5761
11.6837
5.24263
2.57601
2.03391
1.93323
1.65436
1.57867
28.1637
74.6835
109.582
148.367
186.397
198.113
215.183
242.287
284.514
344.331
435.776
561.449
607.92
529.2
412.883
316.517
238.136
166.211
108.587
72.9273
54.6051
45.8523
41.7293
39.507
37.4405
33.226
26.3976
18.2562
9.75966
4.55773
2.43471
1.94838
1.85277
1.57842
1.5152
33.4954
79.4694
110.255
149.234
188.58
201.695
222.394
255.928
309.569
387.106
500.345
627.884
623.149
505.931
384.68
294.815
222.108
154.037
100.388
68.0596
51.4983
43.3901
39.3667
36.9688
34.5678
30.1352
23.2143
15.4033
8.19302
4.00354
2.30686
1.8651
1.77433
1.50466
1.45339
40.701
84.0057
110.821
150.056
190.946
205.801
231.106
273.162
342.368
443.4
576.834
678.449
608.433
465.846
349.015
269.061
203.747
140.937
92.0717
63.3122
48.5504
41.0543
37.1035
34.5569
31.9151
27.3433
20.3663
12.9685
6.91628
3.55064
2.19025
1.78414
1.69801
1.43318
1.39334
49.6321
88.1908
111.293
150.879
193.656
210.782
242.214
296.13
387.226
517.22
654.332
692.896
564.308
414.862
309.782
241.332
184.065
127.365
83.7904
58.6928
45.7248
38.8139
34.9254
32.2689
29.4759
24.8248
17.8262
10.9029
5.87345
3.17661
2.08311
1.70555
1.62392
1.36408
1.3351
59.8743
91.988
111.682
151.764
196.948
217.215
257.246
328.504
450.254
606.055
704.964
659.087
498.748
359.438
270.216
213.293
163.915
113.706
75.6693
54.216
42.9991
36.6516
32.8266
30.1021
27.2376
22.5517
15.5677
9.15965
5.01876
2.86429
1.98399
1.6294
1.55217
1.29743
1.27873
70.5911
95.4139
112
152.795
201.208
226.104
278.95
376.504
536.147
686.086
696.95
583.814
423.705
305.133
232.652
186.142
143.943
100.28
67.8302
49.9067
40.3653
34.5602
30.8071
28.0544
25.1835
20.4959
13.5664
7.69495
4.31512
2.60047
1.8917
1.55576
1.48284
1.23331
1.2243
80.9187
98.5175
112.26
154.107
207.117
239.339
312.46
448.908
632.341
709.013
625.064
487.561
349.856
255.55
198.569
160.764
124.684
87.3522
60.3759
45.7943
37.8237
32.5407
28.8729
26.1246
23.2952
18.6302
11.7992
6.46889
3.73278
2.37496
1.80533
1.48471
1.41602
1.17178
1.17184
89.3733
101.365
112.483
155.932
215.973
260.694
366.966
546.795
683.853
645.803
515.649
390.912
283.821
212.447
168.725
137.753
106.538
75.1359
53.3985
41.9118
35.3819
30.5992
27.0334
24.3141
21.5553
16.9301
10.2441
5.44567
3.24797
2.17985
1.72409
1.41633
1.3518
1.11292
1.12141
95.1437
104.038
112.7
158.718
230.493
297.887
452.266
622.771
630.752
522.953
401.668
306.059
228.058
176.104
143.293
117.461
89.8416
63.8054
46.9643
38.2866
33.0496
28.7445
25.3007
22.6276
19.9497
15.374
8.88065
4.59369
2.84176
2.00894
1.64738
1.35069
1.29024
1.05676
1.07306
0.00337775
0.00250415
0.00227543
0.0021626
0.00212074
0.00212397
0.00215656
0.00491331
0.109044
0.272666
0.478364
0.761086
1.11731
1.55937
2.05236
2.70003
3.77277
5.96766
12.9315
31.3482
206.862
160.138
0.0033443
0.00224208
0.0018413
0.00160439
0.00148192
0.00144307
0.00147495
0.00496543
0.109963
0.275288
0.482972
0.766871
1.12388
1.56716
2.06144
2.711
3.78708
5.98665
12.968
31.4034
207.834
170.26
0.00354039
0.00237569
0.00188189
0.0015439
0.00132138
0.00118977
0.00115878
0.0049997
0.110567
0.2772
0.486554
0.771146
1.12835
1.57216
2.06711
2.71796
3.7968
6.00085
12.9978
31.4598
207.957
179.927
0.00367071
0.00251731
0.00200378
0.00162961
0.00135765
0.00116592
0.00103153
0.00502146
0.1109
0.278443
0.489099
0.773877
1.13068
1.57431
2.06931
2.72084
3.8018
6.01003
13.0193
31.5182
207.296
189.003
0.00392251
0.0027639
0.00222646
0.00182227
0.00151446
0.00128012
0.000999536
0.00503354
0.110987
0.279045
0.490595
0.77504
1.13084
1.57359
2.068
2.71956
3.80195
6.01395
13.0309
31.579
205.895
197.95
0.00406014
0.00292964
0.00239846
0.00199214
0.00167544
0.00142552
0.000989148
0.00503753
0.110845
0.279026
0.491035
0.774622
1.1288
1.56999
2.06315
2.71409
3.79715
6.01239
13.0309
31.6424
203.785
206.939
0.00434043
0.00320797
0.00265961
0.00223371
0.00189656
0.00162529
0.00105871
0.00503423
0.110482
0.278398
0.490422
0.772624
1.12458
1.56352
2.05478
2.7044
3.7873
6.00517
13.0179
31.7081
201.005
215.969
0.00447851
0.00337921
0.00284389
0.00242358
0.00208687
0.00181197
0.00118564
0.00502371
0.109906
0.277176
0.488765
0.769062
1.11819
1.55422
2.04294
2.69051
3.77236
5.99208
12.9904
31.7752
197.605
224.98
0.00478401
0.00368465
0.00313476
0.00269726
0.0023427
0.00204989
0.00131047
0.00500556
0.109121
0.275374
0.486091
0.763966
1.1097
1.54215
2.02767
2.67245
3.75226
5.97298
12.9473
31.8425
193.641
233.9
0.00490864
0.00384882
0.00331952
0.0028948
0.00254735
0.00225715
0.00140062
0.00497902
0.10813
0.273008
0.482432
0.757384
1.09917
1.52739
2.00909
2.65027
3.72697
5.94768
12.8878
31.9074
189.171
242.647
0.00522937
0.00417127
0.00363022
0.00319087
0.00282789
0.002522
0.00151452
0.00494321
0.106935
0.270099
0.477835
0.74938
1.08668
1.51006
1.98731
2.62407
3.69647
5.91605
12.8109
31.9669
184.263
251.111
0.00533925
0.00432467
0.00380988
0.00338922
0.00303909
0.00274136
0.00163376
0.00489683
0.105538
0.266667
0.472351
0.740029
1.07235
1.49028
1.96247
2.59396
3.66077
5.87792
12.7163
32.0166
178.982
259.159
0.00567207
0.00466096
0.00413694
0.00370382
0.00333999
0.00302824
0.00183813
0.00483832
0.103938
0.262735
0.466039
0.729423
1.0563
1.46819
1.93474
2.5601
3.61988
5.83315
12.6033
32.0512
173.397
266.641
0.00575623
0.00479288
0.00430116
0.00389307
0.00354837
0.00325087
0.0021157
0.00476531
0.102129
0.258326
0.458958
0.717659
1.03866
1.44395
1.9043
2.52266
3.57387
5.78156
12.4717
32.0644
167.574
273.406
0.00609206
0.00513336
0.00463453
0.00421603
0.00385958
0.00355
0.00252056
0.00467493
0.100101
0.253461
0.451171
0.704847
1.01958
1.41775
1.87137
2.48184
3.52283
5.72299
12.3214
32.0487
161.579
279.305
0.00615215
0.00524294
0.00478016
0.00439114
0.00405857
0.00376817
0.00298668
0.00456252
0.0978342
0.248152
0.442736
0.691096
0.999211
1.38975
1.83614
2.43789
3.4669
5.65728
12.1523
31.996
155.472
284.205
0.00648672
0.00558314
0.00511503
0.00471721
0.00437433
0.00407322
0.00349936
0.00442272
0.0952977
0.242406
0.433703
0.676523
0.977706
1.36016
1.79886
2.39105
3.40626
5.58425
11.9648
31.8974
149.306
287.997
0.00651835
0.00566545
0.00523649
0.00487201
0.00455726
0.00427979
0.00389512
0.00424663
0.0924435
0.236212
0.424114
0.66124
0.955229
1.32916
1.75974
2.3416
3.34115
5.50375
11.7589
31.7434
143.131
290.596
0.00683898
0.00599251
0.00556003
0.0051886
0.00486537
0.00457902
0.00427193
0.00403237
0.0892
0.229543
0.413997
0.645353
0.931939
1.29695
1.71902
2.28982
3.27182
5.41563
11.5353
31.5248
136.986
291.943
0.0068535
0.00605574
0.00566229
0.00532502
0.00503144
0.00477078
0.00452641
0.00379168
0.0854642
0.222339
0.403358
0.628957
0.907997
1.26372
1.67693
2.23599
3.1986
5.31978
11.2945
31.2323
130.907
292.004
0.00716008
0.00636947
0.005974
0.00563119
0.00533036
0.00506187
0.00482197
0.0036051
0.0810922
0.214504
0.392174
0.61213
0.883555
1.22966
1.6337
2.18042
3.12182
5.21616
11.0372
30.8573
124.921
290.766
0.00715664
0.0064125
0.00605551
0.00574726
0.00547714
0.00523588
0.00502176
0.00366844
0.0758907
0.205887
0.380383
0.594924
0.858757
1.19497
1.58955
2.12338
3.04187
5.10473
10.7643
30.3925
119.048
288.233
0.00744655
0.00670973
0.00635164
0.00603882
0.00576237
0.00551412
0.00529148
0.00408351
0.0696153
0.19627
0.367869
0.577351
0.833729
1.15983
1.5447
2.06518
2.95915
4.98559
10.4768
29.8317
113.304
284.417
0.00743057
0.00673701
0.00641569
0.00613655
0.00589062
0.00566994
0.00546988
0.00465393
0.0619903
0.185349
0.354441
0.559372
0.808572
1.12442
1.49936
2.00608
2.87407
4.85887
10.1759
29.171
107.697
279.344
0.00770416
0.00701786
0.00669606
0.00641301
0.00616135
0.00593417
0.00572662
0.00524014
0.0527947
0.172716
0.339812
0.540873
0.783344
1.0889
1.45372
1.94636
2.78706
4.72483
9.86248
28.4087
102.233
273.045
0.00767674
0.0070304
0.00674338
0.00649278
0.00627104
0.00607129
0.00588779
0.00561805
0.0420767
0.157868
0.323566
0.521638
0.758041
1.05341
1.40798
1.88627
2.69859
4.58383
9.53787
27.5455
96.9113
265.563
0.0079333
0.00729384
0.00700661
0.0067525
0.00652541
0.00631948
0.00612979
0.00592536
0.0305257
0.140264
0.305128
0.501314
0.732572
1.01808
1.36231
1.82607
2.6091
4.43636
9.20316
26.5855
91.7298
256.945
0.00789953
0.00729637
0.00704133
0.00681772
0.00661914
0.00643971
0.00627405
0.00611127
0.0197139
0.119517
0.283736
0.479364
0.706712
0.982935
1.31687
1.76599
2.51906
4.28304
8.8595
25.535
86.6812
247.257
0.00814119
0.0075444
0.00728922
0.00706228
0.00685853
0.00667302
0.00650144
0.00633816
0.0117482
0.0957961
0.258454
0.455017
0.680059
0.947937
1.27178
1.70624
2.42895
4.12466
8.50799
24.4036
81.7567
236.575
0.00810336
0.00753938
0.00731379
0.0071153
0.00693848
0.00677829
0.00663
0.00648868
0.00769454
0.0704301
0.228282
0.427202
0.651966
0.912878
1.22709
1.64704
2.33925
3.96214
8.14972
23.2031
76.9439
224.995
0.00833025
0.00777206
0.00754631
0.00734463
0.00716281
0.00699667
0.00684255
0.00669674
0.00659581
0.0462388
0.192537
0.394515
0.62147
0.877328
1.18276
1.58851
2.25045
3.79661
7.78583
21.9476
72.2297
212.633
0.00829265
0.00776378
0.00756483
0.00738924
0.00723238
0.00708993
0.0069578
0.00683205
0.00660127
0.0267611
0.151627
0.355258
0.587196
0.840544
1.13855
1.53074
2.16303
3.62937
7.41759
20.6524
67.599
199.622
0.00850602
0.00798241
0.00778328
0.00760464
0.00744297
0.00729473
0.00715682
0.00702627
0.00684682
0.0144964
0.108197
0.307777
0.547253
0.801374
1.09397
1.47367
2.07739
3.4619
7.04649
19.3341
63.0391
186.117
0.00847101
0.00797345
0.00779844
0.00764351
0.00750477
0.00737848
0.0072611
0.00714927
0.00702264
0.00888563
0.0677049
0.251392
0.499196
0.758132
1.04816
1.41704
1.99385
3.29582
6.67439
18.0094
58.5392
172.284
0.00867167
0.00817886
0.00800364
0.00784583
0.00770251
0.00757066
0.00744764
0.00733092
0.00721239
0.00718013
0.0366419
0.188159
0.440264
0.708458
0.999725
1.36026
1.91254
3.1328
6.30362
16.6949
54.0955
158.301
0.00864159
0.00817178
0.00801805
0.00788161
0.0077591
0.00764734
0.00754324
0.00744387
0.00734432
0.00697092
0.0183145
0.124649
0.36836
0.649202
0.946656
1.30233
1.83328
2.97443
5.937
15.4066
49.7124
144.351
0.00883163
0.00836608
0.00821207
0.00807285
0.00794596
0.00782882
0.0077192
0.00761489
0.00751266
0.00720877
0.0104488
0.0710958
0.284438
0.576625
0.886084
1.24171
1.75549
2.82201
5.57781
14.1594
45.4057
130.613
0.00880915
0.00836382
0.00822885
0.00810871
0.00800055
0.00790161
0.00780921
0.00772076
0.00763315