/*--------------------------------*- C++ -*----------------------------------*\
| =========                 |                                                 |
| \\      /  F ield         | OpenFOAM: The Open Source CFD Toolbox           |
|  \\    /   O peration     | Version:  v1912                                 |
|   \\  /    A nd           | Website:  www.openfoam.com                      |
|    \\/     M anipulation  |                                                 |
\*---------------------------------------------------------------------------*/
FoamFile
{
    version     2.0;
    format      ascii;
    class       volScalarField;
    location    "340";
    object      nut;
}
// * * * * * * * * * * * * * * * * * * * * * * * * * * * * * * * * * * * * * //

dimensions      [0 2 -1 0 0 0 0];


internalField   nonuniform List<scalar> 
12441
(
5.82193e-24
1.79051e-20
8.10488e-20
3.32539e-19
1.06829e-18
3.88833e-18
1.01057e-17
2.50049e-17
6.13833e-17
1.27532e-16
3.05655e-16
7.71494e-16
2.17961e-15
7.40273e-15
1.03579e-13
1.89369e-11
0.00019536
0.000955459
0.00307031
0.00263953
0.0036466
0.00775321
6.34195e-24
3.03347e-20
1.11731e-19
4.23944e-19
1.30208e-18
4.80732e-18
1.21986e-17
3.001e-17
7.3609e-17
1.54456e-16
3.79801e-16
1.02925e-15
2.82627e-15
9.37557e-15
1.12998e-13
3.89777e-11
5.80107e-05
0.00115891
0.00351554
0.00287373
0.004009
0.00781733
6.36471e-24
3.58952e-20
1.20777e-19
4.48127e-19
1.37772e-18
4.90675e-18
1.2929e-17
3.20411e-17
8.05136e-17
1.71775e-16
4.17889e-16
1.11751e-15
2.78275e-15
7.66496e-15
5.34823e-14
6.56907e-12
1.11234e-05
0.000850485
0.00140156
0.00271115
0.00416203
0.0078909
6.31917e-24
3.76914e-20
1.18533e-19
4.29305e-19
1.32533e-18
4.71356e-18
1.25134e-17
3.13268e-17
7.84935e-17
1.73678e-16
4.23759e-16
1.15404e-15
2.60859e-15
8.47476e-15
3.84806e-14
1.54206e-12
1.62621e-06
0.00059319
0.00104531
0.00263405
0.00432466
0.0079647
6.28514e-24
4.38827e-20
1.29778e-19
4.58309e-19
1.40267e-18
4.77933e-18
1.30909e-17
3.27947e-17
8.42971e-17
1.8753e-16
4.54169e-16
1.28472e-15
3.01664e-15
4.07192e-14
2.47029e-13
2.2961e-12
1.39637e-07
0.000418887
0.00102611
0.00262123
0.00446505
0.00803394
6.23496e-24
4.12877e-20
1.20538e-19
4.29184e-19
1.3427e-18
4.62205e-18
1.27503e-17
3.23929e-17
8.28932e-17
1.92692e-16
4.76951e-16
1.44561e-15
4.52945e-15
1.32903e-12
1.18904e-11
5.10004e-11
4.58541e-07
0.000385295
0.00109301
0.00267812
0.00459161
0.00809948
6.20007e-24
5.02635e-20
1.37794e-19
4.75763e-19
1.46013e-18
4.79244e-18
1.35931e-17
3.44535e-17
9.0702e-17
2.11132e-16
5.20853e-16
2.00017e-15
2.50035e-14
4.14533e-11
6.574e-10
9.36938e-09
1.87495e-05
0.000404449
0.00128024
0.00286275
0.00473714
0.00816218
6.15028e-24
4.34518e-20
1.2317e-19
4.40152e-19
1.40814e-18
4.72276e-18
1.35122e-17
3.48447e-17
9.13187e-17
2.23856e-16
5.72519e-16
5.43623e-15
6.09334e-13
2.25285e-09
8.40957e-08
4.97648e-06
0.000195609
0.000465555
0.00173435
0.00323972
0.00492763
0.00822577
6.1175e-24
5.57038e-20
1.46129e-19
4.99671e-19
1.5541e-18
4.95863e-18
1.46117e-17
3.75705e-17
1.02074e-16
2.50956e-16
6.45363e-16
6.13531e-14
2.58844e-11
7.41975e-08
1.04262e-05
0.000154681
0.000805397
0.000833297
0.00267583
0.00388294
0.00519546
0.00829204
6.07064e-24
4.43492e-20
1.25434e-19
4.56625e-19
1.50752e-18
4.95359e-18
1.47474e-17
3.87251e-17
1.04877e-16
2.75132e-16
7.48635e-16
1.68205e-12
1.08262e-09
4.43468e-06
0.000192139
0.00062238
0.00172432
0.00158739
0.00441122
0.00487053
0.00555402
0.00836448
6.04148e-24
6.02597e-20
1.53433e-19
5.25901e-19
1.6727e-18
5.20592e-18
1.6025e-17
4.20345e-17
1.19294e-16
3.17384e-16
8.921e-16
5.23111e-11
5.50368e-08
8.22852e-05
0.000730939
0.00174975
0.00382475
0.0031922
0.00739452
0.00630291
0.00601651
0.00844366
5.99606e-24
4.46286e-20
1.27735e-19
4.76937e-19
1.63367e-18
5.28091e-18
1.64021e-17
4.40647e-17
1.25499e-16
3.64645e-16
1.15863e-15
1.45673e-09
3.24676e-06
0.000350246
0.0016269
0.00398773
0.00809615
0.00645029
0.0120923
0.00822478
0.00657181
0.00853143
5.97046e-24
6.4149e-20
1.60449e-19
5.53804e-19
1.81494e-18
5.54189e-18
1.79084e-17
4.82219e-17
1.46704e-16
4.44747e-16
1.6946e-15
3.52156e-08
7.27556e-05
0.00110868
0.00407514
0.00895541
0.016308
0.0124681
0.0186708
0.0106179
0.00721061
0.00862633
5.92648e-24
4.4325e-20
1.29669e-19
4.99308e-19
1.78317e-18
5.69187e-18
1.85323e-17
5.13835e-17
1.59851e-16
5.59178e-16
3.60145e-15
7.96465e-07
0.000349936
0.00290955
0.00917095
0.0181122
0.0300281
0.0221856
0.026817
0.0133561
0.00790068
0.00872852
5.90412e-24
6.75154e-20
1.66653e-19
5.82616e-19
1.97797e-18
5.9401e-18
2.0269e-17
5.67825e-17
1.96056e-16
7.78746e-16
1.65175e-14
1.51981e-05
0.00115471
0.0069545
0.0184407
0.0327053
0.0499437
0.0357111
0.0357335
0.0162814
0.00862192
0.00883515
5.86042e-24
4.39587e-20
1.31996e-19
5.24801e-19
1.95778e-18
6.1855e-18
2.1202e-17
6.16788e-17
2.28168e-16
1.21632e-15
3.02168e-13
0.000138106
0.00291428
0.0144618
0.0330472
0.0531243
0.0752853
0.0518618
0.044443
0.0191943
0.00933774
0.00894576
5.84135e-24
7.05401e-20
1.73503e-19
6.15118e-19
2.17058e-18
6.43953e-18
2.33107e-17
6.93784e-17
3.08234e-16
2.30506e-15
1.26028e-11
0.000530713
0.00673332
0.0264865
0.0530116
0.078671
0.103562
0.0683827
0.0520855
0.0219561
0.0100335
0.00905718
5.79738e-24
4.35021e-20
1.34492e-19
5.53135e-19
2.16065e-18
6.77158e-18
2.46184e-17
7.723e-17
4.08469e-16
5.44588e-15
5.48001e-10
0.00137721
0.0136264
0.0435089
0.0777854
0.107337
0.130963
0.0827503
0.0582241
0.0244445
0.0106819
0.00916919
5.78104e-24
7.32639e-20
1.80288e-19
6.49133e-19
2.388e-18
7.01169e-18
2.71828e-17
8.90718e-17
6.61736e-16
1.69239e-14
4.4086e-08
0.0033916
0.0245837
0.0647785
0.105362
0.136174
0.153422
0.0932436
0.0628142
0.0266277
0.0112829
0.00927899
5.73649e-24
4.30533e-20
1.36871e-19
5.82406e-19
2.38688e-18
7.43821e-18
2.90076e-17
1.02317e-16
1.08044e-15
7.52753e-14
8.55386e-06
0.00727399
0.0397875
0.0892051
0.133593
0.161777
0.167889
0.0994836
0.0661482
0.0284763
0.0118223
0.00938714
5.72344e-24
7.573e-20
1.86803e-19
6.83184e-19
2.62928e-18
7.67315e-18
3.23046e-17
1.22248e-16
2.1938e-15
7.80234e-13
0.000168088
0.0140385
0.0586125
0.114812
0.159466
0.181315
0.173345
0.102352
0.068595
0.0300275
0.0123136
0.00949146
5.67807e-24
4.24345e-20
1.38573e-19
6.10932e-19
2.63515e-18
8.1934e-18
3.49403e-17
1.46466e-16
4.34023e-15
1.34065e-11
0.00066389
0.024285
0.0798231
0.139978
0.180861
0.193118
0.170981
0.103263
0.0705206
0.0312945
0.0127542
0.00959327
5.66771e-24
7.80235e-20
1.92472e-19
7.15492e-19
2.88991e-18
8.41847e-18
3.9434e-17
1.83586e-16
1.02759e-14
1.66109e-10
0.00177067
0.0379717
0.101946
0.162701
0.195881
0.197201
0.16353
0.103486
0.072156
0.0323392
0.0131688
0.00969106
5.6218e-24
4.19647e-20
1.39794e-19
6.38012e-19
2.90265e-18
9.03777e-18
4.3502e-17
2.31496e-16
2.24208e-14
1.55808e-09
0.00411356
0.0545191
0.123586
0.181791
0.204319
0.194923
0.154047
0.103731
0.0736529
0.0331922
0.0135645
0.00978684
5.61497e-24
8.02764e-20
1.97581e-19
7.45828e-19
3.17125e-18
9.26759e-18
5.02657e-17
3.06434e-16
5.64417e-14
1.37802e-08
0.00833542
0.0727901
0.143605
0.196183
0.206614
0.188509
0.14489
0.104225
0.0750611
0.0339299
0.0139746
0.00987966
5.56727e-24
4.17926e-20
1.40766e-19
6.63881e-19
3.19209e-18
9.9927e-18
5.71536e-17
4.08469e-16
1.30484e-13
3.18921e-07
0.0149748
0.0917016
0.161166
0.205863
0.204387
0.180179
0.137286
0.104893
0.0764053
0.0345977
0.0144127
0.00997203
5.56295e-24
8.24853e-20
2.02101e-19
7.74032e-19
3.47297e-18
1.02326e-17
6.84624e-17
5.73373e-16
3.9255e-13
1.87169e-05
0.0240481
0.110147
0.175755
0.211046
0.199145
0.171691
0.131512
0.105587
0.0776668
0.035278
0.0149156
0.0100634
5.5141e-24
4.18603e-20
1.41224e-19
6.87539e-19
3.50162e-18
1.10692e-17
8.1331e-17
8.10412e-16
1.82999e-12
0.000212022
0.0352717
0.1274
0.187157
0.212671
0.192556
0.164056
0.127321
0.10617
0.0788334
0.0360132
0.0154959
0.0101564
5.51315e-24
8.46772e-20
2.05802e-19
7.99236e-19
3.79635e-18
1.13446e-17
1.02517e-16
1.20443e-15
1.28018e-11
0.00071368
0.0479702
0.142873
0.195441
0.211557
0.185626
0.157694
0.124307
0.106566
0.079873
0.0368665
0.0161837
0.0102507
5.46205e-24
4.20354e-20
1.4097e-19
7.08434e-19
3.83373e-18
1.23051e-17
1.28832e-16
1.7958e-15
7.40936e-11
0.00145573
0.0615586
0.156281
0.200886
0.208737
0.179144
0.152608
0.122095
0.10674
0.0807678
0.0378498
0.016979
0.0103488
5.46312e-24
8.68085e-20
2.08983e-19
8.21824e-19
4.14332e-18
1.26536e-17
1.72484e-16
2.80968e-15
3.56411e-10
0.00257444
0.07538
0.167438
0.203912
0.204875
0.173354
0.148626
0.120402
0.106697
0.0814876
0.0389853
0.0178948
0.01045
5.41096e-24
4.22476e-20
1.39903e-19
7.2663e-19
4.19099e-18
1.3742e-17
2.30142e-16
4.38978e-15
1.3869e-09
0.00422105
0.0889928
0.176373
0.204993
0.200622
0.168415
0.145509
0.119043
0.106456
0.0820167
0.0402438
0.0189104
0.0105565
5.41514e-24
8.89203e-20
2.11419e-19
8.42407e-19
4.52279e-18
1.41938e-17
3.26412e-16
7.08385e-15
4.7464e-09
0.00660221
0.101951
0.183173
0.204602
0.196276
0.164222
0.143049
0.117905
0.106049
0.0823297
0.0416118
0.0200177
0.010667
5.35951e-24
4.22801e-20
1.37813e-19
7.42902e-19
4.58512e-18
1.54543e-17
4.58276e-16
1.12962e-14
1.44516e-08
0.00991271
0.114034
0.188066
0.203161
0.192129
0.160725
0.141068
0.116924
0.105506
0.0824151
0.0430376
0.021176
0.0107831
5.36563e-24
8.84598e-20
2.10344e-19
8.57262e-19
4.93676e-18
1.60486e-17
6.78011e-16
1.8508e-14
4.28013e-08
0.0143471
0.125058
0.191285
0.201025
0.188238
0.157762
0.13944
0.116066
0.104862
0.0822533
0.0445011
0.0223644
0.0109032
5.30596e-24
4.14874e-20
1.3258e-19
7.5165e-19
5.01035e-18
1.74635e-17
9.80525e-16
2.99201e-14
2.19659e-07
0.0201684
0.135054
0.193136
0.198475
0.184715
0.155269
0.138071
0.115321
0.104145
0.0818386
0.0459617
0.0235349
0.0110282
5.31246e-24
8.52657e-20
2.03832e-19
8.62095e-19
5.38128e-18
1.81875e-17
1.47478e-15
5.74617e-14
1.14171e-05
0.0277299
0.144077
0.193885
0.195723
0.181521
0.153121
0.136902
0.11469
0.103389
0.0811596
0.0474265
0.0246687
0.0111563
5.24602e-24
4.16164e-20
1.2733e-19
7.57728e-19
5.48293e-18
1.98581e-17
2.14248e-15
4.6506e-13
0.000215595
0.0376017
0.152322
0.193822
0.192924
0.178707
0.151289
0.135894
0.11418
0.102622
0.0802206
0.0488922
0.0257285
0.0112883
5.24942e-24
5.37916e-20
1.54727e-19
7.99515e-19
5.76909e-18
2.06401e-17
3.20171e-15
2.31301e-11
0.00164834
0.0504902
0.159928
0.193174
0.190185
0.176221
0.149692
0.135031
0.113806
0.101873
0.0790244
0.0504049
0.0267175
0.011422
5.17262e-24
4.32822e-20
1.14477e-19
7.24307e-19
5.94068e-18
2.35462e-17
4.66297e-15
1.0329e-09
0.00681011
0.0668611
0.167057
0.192172
0.187573
0.174114
0.148337
0.134305
0.113586
0.101168
0.0775937
0.0519886
0.0276274
0.0115584
5.166e-24
1.93958e-21
1.12096e-20
4.00667e-19
5.44936e-18
2.44394e-17
7.20763e-15
1.83936e-07
0.0189171
0.0866776
0.173729
0.19098
0.185123
0.172347
0.147175
0.133727
0.113538
0.10053
0.0759541
0.0536816
0.0284965
0.0116955
5.07785e-24
1.71172e-20
4.47753e-20
4.17404e-19
5.46261e-18
3.621e-17
1.80073e-14
5.14486e-05
0.0407327
0.109558
0.179936
0.18977
0.182836
0.170992
0.14625
0.13331
0.11368
0.0999748
0.0741569
0.0554278
0.0293389
0.0118345
5.03906e-24
6.72044e-22
8.45958e-23
2.35255e-19
5.06659e-18
8.2823e-17
3.7081e-13
0.0012233
0.0741411
0.134852
0.185523
0.188656
0.180691
0.170014
0.145527
0.133085
0.114027
0.0995083
0.0722592
0.0570577
0.0301549
0.011976
4.83833e-24
2.10335e-19
4.58167e-19
1.02961e-18
7.26112e-18
9.13633e-16
7.18251e-12
0.00782711
0.119911
0.162182
0.190626
0.187849
0.178666
0.169484
0.14505
0.133065
0.114577
0.0990721
0.070332
0.0581399
0.0306398
0.0121338
0.00987657
0.0267203
0.0281708
0.0107017
0.00855856
0.00869943
0.00891991
0.00928371
0.00927359
0.00982277
0.0140043
0.0131332
0.0118529
0.0113482
0.0118756
0.013406
0.0148974
0.0158245
0.015653
0.0134978
0.0119973
0.0119857
0.0124048
0.012862
0.0133345
0.0138325
0.0146175
0.0150208
0.0133887
0.0204476
0.0995819
0.124889
0.127411
0.137873
0.1561
0.00986353
0.0271829
0.0273321
0.0103597
0.00842773
0.0085671
0.00897341
0.00936801
0.00928488
0.00983038
0.0137065
0.0127856
0.0115213
0.0109748
0.0114632
0.0130558
0.0148054
0.0159445
0.0158278
0.0134736
0.0117661
0.0116869
0.0121168
0.0126113
0.0131188
0.0136308
0.014411
0.0148215
0.0132729
0.0197384
0.0991686
0.124778
0.127352
0.137813
0.156055
0.00983842
0.0275947
0.0258698
0.00976866
0.00830436
0.0084114
0.00913702
0.00955886
0.00935045
0.00987435
0.0126797
0.011657
0.0105887
0.00996091
0.0100831
0.0112683
0.0129089
0.0141643
0.0144561
0.0125805
0.0110851
0.0110253
0.0114993
0.0120768
0.0126646
0.0132189
0.0140014
0.01442
0.013054
0.0194064
0.0984226
0.124499
0.127182
0.137638
0.155915
0.00979929
0.0279492
0.0240002
0.00917678
0.008245
0.0083211
0.00938313
0.00974754
0.00945282
0.00996882
0.0115628
0.0104062
0.00950523
0.00887567
0.00868122
0.00933552
0.0105962
0.0117354
0.0123503
0.0111799
0.010078
0.0100623
0.0105761
0.0112561
0.0119637
0.0125942
0.0133924
0.0138281
0.0126829
0.0191981
0.0973234
0.12405
0.126899
0.137348
0.155677
0.00974597
0.0281385
0.0218572
0.00858308
0.00816842
0.00822904
0.00959405
0.00983805
0.00950214
0.0100166
0.0106011
0.0093294
0.00857613
0.00800335
0.00757849
0.00774596
0.00854916
0.00941474
0.0101278
0.00957922
0.00887664
0.0088876
0.00940391
0.0101695
0.0110198
0.011763
0.0125977
0.0130662
0.0121282
0.0189285
0.0958428
0.123444
0.126517
0.136957
0.155355
0.00967615
0.028069
0.0195524
0.00794779
0.00801679
0.00807265
0.00967693
0.00977613
0.0094254
0.00991577
0.00977257
0.00844072
0.00781049
0.00728623
0.00670508
0.00650469
0.00691829
0.00749521
0.00813351
0.00799464
0.00760249
0.00760746
0.00807197
0.0088688
0.00985328
0.0107397
0.0116377
0.0121608
0.0113795
0.0184744
0.0939545
0.122702
0.126056
0.136485
0.154971
0.00959042
0.0276793
0.0172009
0.00727438
0.00778975
0.00784095
0.00959944
0.00955426
0.00919672
0.00962066
0.00898963
0.00765153
0.00710204
0.00658007
0.00589886
0.0054594
0.00560566
0.00597195
0.00647515
0.00654321
0.00635076
0.00632582
0.0066909
0.00744095
0.00850957
0.00954929
0.0105388
0.0111424
0.01045
0.0177693
0.0916407
0.121851
0.125541
0.135962
0.154552
0.00948687
0.0269236
0.0149161
0.00660562
0.00752503
0.0075604
0.00938015
0.00919905
0.00883111
0.00914213
0.00819492
0.00689315
0.00637784
0.00581926
0.00508246
0.0045081
0.00448981
0.00473302
0.00511967
0.005265
0.00518631
0.00512836
0.00537233
0.00600079
0.00706597
0.00823305
0.00933313
0.0100438
0.00937609
0.0167947
0.0888963
0.120922
0.125003
0.135418
0.154127
0.00936733
0.0257954
0.0127921
0.0059969
0.00727112
0.00727226
0.00906434
0.00875363
0.00836515
0.00852544
0.00738083
0.00614329
0.00562978
0.00502874
0.00428252
0.00365463
0.00353444
0.00370037
0.00400247
0.00416514
0.00415087
0.00407559
0.00420827
0.00467055
0.00563049
0.00685461
0.00806128
0.00889919
0.00821392
0.0155698
0.0857317
0.119948
0.124472
0.134886
0.15373
0.0092307
0.0243039
0.0108962
0.00549606
0.00707159
0.00701785
0.00870601
0.00826671
0.00784466
0.00782912
0.00656823
0.00540943
0.00488485
0.00426769
0.00356539
0.00295532
0.00277408
0.00287064
0.00309569
0.00324932
0.00327479
0.00320468
0.00325856
0.00355297
0.00432668
0.00550309
0.00677576
0.00774423
0.00703265
0.0141396
0.0821747
0.118963
0.12398
0.1344
0.153393
0.00908003
0.0224959
0.00926582
0.00513575
0.00695957
0.00683215
0.00835698
0.00778494
0.00731495
0.00711159
0.00578869
0.00470979
0.00417563
0.00358794
0.00298547
0.00245558
0.00224918
0.00227472
0.00241194
0.00253589
0.00258286
0.00253426
0.00254857
0.00270959
0.00326486
0.00428563
0.00554385
0.00661752
0.00590546
0.0125651
0.078272
0.118
0.123557
0.133993
0.153148
0.00891508
0.0204298
0.00791588
0.0049333
0.00695883
0.0067422
0.0080629
0.0073504
0.00681782
0.00642441
0.00507321
0.00406464
0.00352827
0.00301875
0.00256221
0.00215624
0.00195523
0.00191495
0.00195976
0.00203726
0.00208722
0.00206375
0.00207074
0.00215094
0.00251031
0.00330428
0.00444456
0.00556202
0.00489955
0.0109183
0.0740929
0.117092
0.123233
0.133696
0.153027
0.00874002
0.0181958
0.00684457
0.00489435
0.00708698
0.00676795
0.00786126
0.00699822
0.00638898
0.00580997
0.00444836
0.00349357
0.00296567
0.0025678
0.00228368
0.00202035
0.00184315
0.00174534
0.00170671
0.0017338
0.00177333
0.00176973
0.00178894
0.00184009
0.0020646
0.00262254
0.00355458
0.00462446
0.00406685
0.00928061
0.069735
0.116271
0.123035
0.13354
0.153057
0.00855535
0.0158893
0.00604248
0.00501776
0.00735935
0.00692443
0.00778176
0.00675623
0.00605766
0.0053007
0.0039345
0.00301481
0.0025064
0.00222978
0.00211783
0.00199285
0.00184427
0.0016944
0.00158746
0.00157283
0.00159956
0.00161049
0.00165139
0.00171295
0.00187463
0.00224178
0.00292394
0.00384983
0.0034369
0.00774171
0.0653341
0.115568
0.122986
0.133551
0.153267
0.00836592
0.0136226
0.0054979
0.00530076
0.00779269
0.00722539
0.00784702
0.00664524
0.00584585
0.00491939
0.00354582
0.00264448
0.00216159
0.0019912
0.00202622
0.0020193
0.0018938
0.00169448
0.00153495
0.00149379
0.00151496
0.00154071
0.00160863
0.00170556
0.00186599
0.00211007
0.002556
0.0032699
0.00301403
0.00639415
0.0610754
0.115016
0.123109
0.133755
0.153678
0.00817267
0.0114992
0.00520347
0.00574378
0.00840831
0.00768767
0.00807682
0.00668204
0.00576934
0.00468041
0.00329143
0.00239334
0.00193246
0.0018344
0.00197377
0.00205526
0.00194214
0.00169745
0.00150174
0.00145072
0.00147816
0.00152445
0.00162482
0.00177059
0.00197124
0.00215444
0.00241088
0.00289178
0.00278087
0.00531978
0.0572024
0.114646
0.123422
0.134173
0.154312
0.00798033
0.00961584
0.0051623
0.00635493
0.00923459
0.00833998
0.00849252
0.0068819
0.00584003
0.00459211
0.00317579
0.00226393
0.00180941
0.00174063
0.00193531
0.002072
0.00196056
0.00167895
0.00146466
0.00141949
0.00146503
0.00154018
0.00167974
0.00188048
0.00214102
0.00230596
0.00242804
0.00269658
0.0027076
0.00457269
0.0540052
0.114493
0.12394
0.134824
0.155186
0.00778933
0.00804839
0.00539548
0.00715663
0.0103102
0.00922506
0.0091225
0.00726384
0.00606939
0.00465987
0.00320117
0.00225289
0.00177669
0.00169359
0.00189684
0.00205584
0.00193835
0.00163348
0.00141886
0.00139301
0.00146668
0.00157903
0.00176522
0.00202281
0.00234472
0.00251092
0.00254759
0.00264944
0.00276218
0.00416901
0.0517739
0.11459
0.124678
0.135725
0.156316
0.00760307
0.00683893
0.00594587
0.00818612
0.0116871
0.0104029
0.010006
0.00785519
0.00647211
0.00489107
0.0033717
0.00235396
0.0018179
0.0016802
0.00185411
0.00200694
0.00187932
0.00156721
0.00136853
0.00137292
0.00148293
0.00164015
0.00188005
0.00219352
0.00256591
0.002734
0.00272214
0.00271247
0.00291767
0.00409384
0.0507254
0.114966
0.125645
0.136889
0.157714
0.00742066
0.00598366
0.00688529
0.00949345
0.0134306
0.01195
0.0111942
0.00869425
0.00706902
0.00529617
0.00369501
0.00256381
0.00192206
0.00169225
0.00180899
0.00193414
0.00179513
0.00149091
0.0013204
0.00136314
0.00151689
0.00172612
0.00202559
0.00239125
0.00279651
0.00295625
0.00292111
0.00285367
0.00315618
0.00432195
0.0509518
0.115644
0.126852
0.138329
0.159391
0.00724378
0.00543897
0.00831773
0.0111435
0.0156178
0.0139545
0.0127472
0.00982931
0.00788821
0.00589167
0.00418534
0.00288521
0.00208624
0.00172637
0.00176638
0.00185106
0.00170128
0.00141577
0.00128014
0.00136697
0.00157177
0.00184007
0.00220301
0.0026141
0.0030324
0.0031707
0.0031297
0.00305092
0.00347031
0.00483765
0.0524262
0.116636
0.128305
0.140056
0.161356
0.00707145
0.0051536
0.0103801
0.0132205
0.0183381
0.0165114
0.0147307
0.0113145
0.0089633
0.00669927
0.00486322
0.00333068
0.00231861
0.00178613
0.00173206
0.00177063
0.00161173
0.00135075
0.00125193
0.00138652
0.00165004
0.00198418
0.00241174
0.00285843
0.00327116
0.00337783
0.0033449
0.00329241
0.00386293
0.00564513
0.0550464
0.117943
0.13001
0.142079
0.163615
0.00690537
0.00509349
0.0132304
0.0158418
0.0217011
0.0197247
0.0172153
0.0132046
0.0103297
0.00774169
0.0057507
0.00391942
0.0026368
0.00188228
0.00171269
0.00170339
0.0015375
0.00130236
0.00123859
0.00142291
0.00175303
0.00215912
0.00264921
0.00311915
0.00351136
0.00358239
0.00357117
0.00357519
0.00434626
0.00677046
0.0586743
0.119558
0.131973
0.144404
0.166173
0.00674534
0.0052458
0.0170345
0.0191775
0.0258496
0.0237168
0.0202798
0.0155516
0.0120191
0.00903474
0.00685873
0.00466962
0.00306319
0.00203422
0.00171686
0.00165626
0.00148518
0.00127489
0.00124265
0.00147677
0.0018812
0.00236375
0.00291086
0.00339073
0.0037527
0.00379135
0.00381692
0.00390292
0.00494071
0.00825913
0.063159
0.12147
0.134195
0.147039
0.169033
0.00659312
0.00561822
0.0219341
0.0234682
0.0309675
0.0286301
0.0240095
0.0183986
0.014051
0.0105771
0.00817282
0.00558016
0.00360854
0.00226467
0.00175698
0.00163506
0.00145912
0.00127168
0.00126685
0.0015486
0.00203377
0.00259522
0.00319104
0.00366823
0.00399638
0.00401272
0.00409228
0.00428422
0.00567416
0.0101716
0.0683452
0.123664
0.136679
0.149988
0.172198
0.00644962
0.00623536
0.0280163
0.029023
0.0372656
0.0346031
0.0284754
0.0217635
0.0164187
0.0123379
0.00963975
0.00661489
0.00425395
0.00258723
0.00184867
0.00164569
0.00146218
0.00129584
0.00131506
0.00163925
0.00220901
0.0028492
0.00348377
0.00394834
0.00424525
0.00425498
0.00440782
0.00473133
0.00658147
0.0125782
0.0740798
0.126128
0.139426
0.153255
0.175667
0.00631698
0.00712278
0.0352927
0.0361882
0.044936
0.0417083
0.0336881
0.0256074
0.0190684
0.0142448
0.0111637
0.00769352
0.0049384
0.00298468
0.00200522
0.00169614
0.00149834
0.00135118
0.00139225
0.00175063
0.00240436
0.00312064
0.00378389
0.0042298
0.0045037
0.0045267
0.00477401
0.00525972
0.00770448
0.0155526
0.0802161
0.128847
0.142437
0.156843
0.179439
0.00619775
0.00829864
0.0437318
0.0452934
0.0540846
0.0498706
0.0395372
0.0297987
0.0218781
0.0161762
0.0126109
0.00870127
0.00557035
0.00340244
0.00222489
0.00179394
0.0015722
0.00144227
0.00150501
0.00188657
0.00261743
0.00340461
0.00408775
0.00451365
0.0047775
0.00483637
0.00520113
0.00588791
0.00909199
0.0191651
0.0866196
0.131809
0.145709
0.160752
0.18351
0.00609509
0.00976538
0.0533275
0.0565959
0.0646603
0.0587986
0.0457425
0.034088
0.0246478
0.0179644
0.0138269
0.00950903
0.0060526
0.00376746
0.00248304
0.00194278
0.00168947
0.00157462
0.00166096
0.00205378
0.00284695
0.00369742
0.00439392
0.00480297
0.00507329
0.0051921
0.00569941
0.00663794
0.0107998
0.0234749
0.0931723
0.135004
0.149242
0.164983
0.187876
0.00601408
0.0115252
0.0641733
0.0702142
0.0763868
0.0679577
0.051846
0.0381142
0.027112
0.0194131
0.0146587
0.0100019
0.00631285
0.00402264
0.00274082
0.00213675
0.00185338
0.00175335
0.00186858
0.00226222
0.00309435
0.00399744
0.0047032
0.00510255
0.00539822
0.00560149
0.00627929
0.0075358
0.0128905
0.0285225
0.0997761
0.138423
0.153033
0.169534
0.192529
0.00596079
0.0135926
0.0764481
0.0859978
0.0886898
0.0765849
0.0572461
0.0414409
0.0289719
0.0203262
0.0149824
0.0101026
0.00632082
0.00414648
0.00296734
0.00236237
0.00206341
0.00198159
0.00213496
0.00252472
0.00336452
0.00430588
0.00501875
0.00541826
0.0057594
0.00607137
0.00695195
0.00861229
0.0154326
0.0343232
0.106354
0.142056
0.157078
0.174404
0.197464
0.00594609
0.0160198
0.0903174
0.103318
0.100637
0.0837551
0.0612794
0.0436227
0.0299466
0.020543
0.0147253
0.00978777
0.00609326
0.00415292
0.00315089
0.00260274
0.00231178
0.00225739
0.00246357
0.00285493
0.0036666
0.00462681
0.00534547
0.0057566
0.00616351
0.00660771
0.00772965
0.00990368
0.0184992
0.0408635
0.11285
0.145896
0.161374
0.179591
0.202674
0.00598322
0.0188919
0.105712
0.120871
0.110962
0.0885135
0.0633364
0.0442883
0.0298282
0.0199736
0.0138842
0.00909193
0.0056831
0.00407615
0.00329672
0.00284466
0.00258591
0.0025723
0.00285024
0.00326366
0.00401316
0.00496717
0.00568968
0.00612398
0.0066163
0.00721537
0.00862641
0.0114527
0.0221662
0.0480999
0.119226
0.149937
0.165919
0.185095
0.20815
0.00609167
0.0223325
0.122104
0.13672
0.118257
0.0900786
0.0630003
0.0432283
0.0285351
0.0186238
0.0125308
0.00810206
0.00516486
0.0039546
0.00341514
0.00307727
0.00286856
0.0029109
0.00328175
0.00375335
0.00441875
0.00533588
0.00605826
0.00652624
0.00712225
0.0078981
0.00965836
0.0133095
0.0265089
0.055962
0.125463
0.154174
0.170714
0.190919
0.213891
0.00628805
0.0264668
0.138382
0.148692
0.121323
0.0880549
0.0601621
0.0404574
0.0261398
0.0166039
0.0108044
0.00694319
0.00461635
0.00382007
0.00351473
0.00329236
0.00314301
0.00325436
0.00373631
0.00431382
0.00489624
0.0057429
0.00645802
0.00696794
0.00768419
0.00865849
0.0108444
0.0155325
0.0316001
0.0643585
0.131557
0.158608
0.175763
0.197069
0.219896
0.00658505
0.0314207
0.153053
0.155042
0.119529
0.0825676
0.0550687
0.0362284
0.0228654
0.0141125
0.00889111
0.00575913
0.00410512
0.00369455
0.00359823
0.00348085
0.0033933
0.00358342
0.00418847
0.00492036
0.00545207
0.00619702
0.00689461
0.00745194
0.00830314
0.0094981
0.0122067
0.0181892
0.0375061
0.073186
0.137515
0.163244
0.181073
0.20356
0.22617
0.00697682
0.0372362
0.164607
0.154974
0.113004
0.0742368
0.0482673
0.0309784
0.0190415
0.0114031
0.00699561
0.0046858
0.0036768
0.00359079
0.00366554
0.00363625
0.00360921
0.00388353
0.00461485
0.00553902
0.00608055
0.00670352
0.00737162
0.00797882
0.00897818
0.0104177
0.013771
0.0213573
0.044285
0.0823392
0.14336
0.168094
0.18666
0.210414
0.232726
0.00744499
0.0438157
0.171868
0.148746
0.102556
0.0640038
0.0404715
0.0252318
0.01504
0.00874162
0.00530982
0.0038213
0.00335253
0.00351386
0.00371436
0.00375363
0.00378466
0.00414593
0.00499911
0.00613318
0.00676064
0.0072607
0.00788934
0.00854686
0.0097068
0.0114175
0.0155676
0.0251254
0.0519859
0.0917219
0.149124
0.173181
0.192547
0.217663
0.239586
0.00795396
0.0506742
0.174017
0.137352
0.0893728
0.0528879
0.0323986
0.0194945
0.0112119
0.00637139
0.00397689
0.00320174
0.00313077
0.00346171
0.00374303
0.00383322
0.00392104
0.00437008
0.00533475
0.00667386
0.00745717
0.00785772
0.00844406
0.00915195
0.0104853
0.0124984
0.0176317
0.0295939
0.0606493
0.101257
0.154851
0.178535
0.198767
0.225352
0.246782
0.00846726
0.0568587
0.170529
0.122092
0.0747047
0.0417849
0.0246487
0.0141843
0.00785198
0.0044812
0.00305076
0.00280432
0.0029944
0.00342566
0.00374835
0.00387662
0.00402302
0.00456108
0.00562431
0.00714238
0.00812716
0.00847335
0.0090276
0.00978833
0.01131
0.0136624
0.0200045
0.0348762
0.0703102
0.110893
0.160595
0.184201
0.205362
0.233536
0.254356
0.00894498
0.0608816
0.161071
0.104258
0.0596362
0.0313589
0.0176517
0.00961037
0.00518103
0.00316155
0.00248319
0.00257318
0.00291545
0.00339162
0.00372669
0.00388795
0.00409999
0.00472992
0.00587822
0.00753451
0.00872914
0.00907887
0.00962811
0.0104493
0.0121777
0.0149142
0.0227345
0.0410989
0.0810022
0.120615
0.166421
0.190232
0.212381
0.242281
0.26236
0.0093615
0.0612164
0.14559
0.0850471
0.0450273
0.0220508
0.011691
0.00599254
0.00331877
0.00236204
0.00216732
0.00244496
0.00286158
0.0033422
0.00367139
0.00386856
0.00416073
0.0048898
0.00611112
0.00785565
0.00923165
0.00964266
0.0102313
0.0111283
0.0130876
0.016263
0.0258791
0.0484032
0.0927644
0.130444
0.172404
0.196688
0.219882
0.251662
0.270853
0.0096768
0.0565531
0.12436
0.0655959
0.0315935
0.0141716
0.00697454
0.00347049
0.00221398
0.00192519
0.00199456
0.00236114
0.00280105
0.0032603
0.00357555
0.00381826
0.00421517
0.00505737
0.00634141
0.00812171
0.00961945
0.0101378
0.0108226
0.0118191
0.0140408
0.0177235
0.0295063
0.0569449
0.105647
0.140438
0.178624
0.203637
0.227928
0.26176
0.279901
0.00988074
0.0467727
0.0983576
0.0469584
0.0199556
0.00796095
0.00365621
0.0020022
0.00162841
0.00167628
0.00186941
0.00226668
0.00270056
0.00312605
0.00342772
0.00372767
0.0042646
0.00524454
0.00658676
0.00835342
0.00989502
0.0105462
0.0113894
0.012516
0.0150408
0.0193177
0.0336973
0.0668942
0.11972
0.150694
0.185167
0.211147
0.23658
0.272652
0.289571
4.88248e-24
3.1529e-19
1.14224e-18
4.31594e-18
2.50368e-17
3.15946e-14
9.05037e-11
0.0291616
0.163131
0.183406
0.19396
0.187507
0.177243
0.169445
0.144902
0.133283
0.115218
0.0986426
0.0688985
0.0583047
0.0302567
0.012142
4.99619e-24
7.39497e-20
8.35522e-20
6.24996e-18
6.25266e-17
2.46383e-13
9.26023e-10
0.0552493
0.192596
0.196247
0.195406
0.187239
0.176404
0.169649
0.145056
0.133632
0.115897
0.0983987
0.0681882
0.0580603
0.0298242
0.012191
5.1023e-24
2.76626e-19
8.77861e-19
8.90062e-18
1.22282e-16
9.29114e-13
9.33377e-09
0.0864009
0.218954
0.206799
0.196285
0.186988
0.175761
0.170028
0.145431
0.134154
0.116775
0.098247
0.0678351
0.0574476
0.0292905
0.0123494
5.06205e-24
5.72595e-20
2.14765e-20
6.84914e-18
1.92233e-16
2.27816e-12
1.69627e-07
0.119276
0.241704
0.21536
0.196997
0.186858
0.175378
0.170626
0.146066
0.134831
0.117817
0.098195
0.0678279
0.0564989
0.02869
0.0126065
5.1659e-24
2.21305e-19
6.32148e-19
7.22837e-18
2.88024e-16
3.60717e-12
6.54688e-06
0.148793
0.260777
0.222241
0.197824
0.18693
0.175318
0.171429
0.146938
0.135653
0.118985
0.0982447
0.0681347
0.0552847
0.0280683
0.0129536
5.1141e-24
4.59235e-20
1.20664e-20
4.61421e-18
4.09512e-16
4.86705e-12
1.86152e-05
0.169419
0.276287
0.227788
0.199
0.187291
0.175631
0.172488
0.148085
0.136606
0.120237
0.0983921
0.068721
0.0538628
0.0274353
0.0134078
5.2294e-24
1.78687e-19
4.73311e-19
4.63532e-18
5.7997e-16
5.05607e-12
3.44104e-05
0.178485
0.288476
0.232286
0.200655
0.188001
0.176362
0.17379
0.149487
0.137694
0.121536
0.0986338
0.069534
0.052315
0.026817
0.0139829
5.17026e-24
3.80403e-20
7.88001e-21
2.77928e-18
7.71751e-16
4.37199e-12
2.57391e-05
0.176757
0.297541
0.236001
0.202891
0.189127
0.177539
0.175394
0.151188
0.138919
0.12285
0.0989594
0.0705272
0.0506965
0.0262109
0.0146964
5.29808e-24
1.46656e-19
3.69511e-19
2.86049e-18
9.85258e-16
2.8775e-12
2.73543e-05
0.167035
0.30365
0.239105
0.205732
0.190703
0.179187
0.177284
0.153167
0.140302
0.124158
0.0993609
0.0716426
0.0490803
0.0256364
0.0155522
5.22358e-24
3.24412e-20
5.88714e-21
1.68647e-18
1.14724e-15
1.68745e-12
3.52215e-05
0.151956
0.306808
0.241724
0.209195
0.192776
0.181317
0.179514
0.155474
0.141859
0.125456
0.0998253
0.0728374
0.047507
0.0250845
0.0165538
5.35785e-24
1.21929e-19
2.97356e-19
1.84166e-18
1.25146e-15
8.51664e-13
4.00597e-05
0.133236
0.306923
0.243875
0.213229
0.195359
0.183938
0.182062
0.158087
0.143626
0.126756
0.100345
0.0740615
0.0460333
0.0245706
0.0176868
5.2712e-24
2.84273e-20
4.69158e-21
1.08032e-18
1.23818e-15
4.16145e-13
4.10301e-05
0.112454
0.303718
0.245518
0.217787
0.198481
0.18705
0.184975
0.161055
0.145628
0.128083
0.100911
0.0752868
0.0446825
0.0240816
0.0189357
5.41229e-24
1.02863e-19