/*--------------------------------*- C++ -*----------------------------------*\
| =========                 |                                                 |
| \\      /  F ield         | OpenFOAM: The Open Source CFD Toolbox           |
|  \\    /   O peration     | Version:  v1912                                 |
|   \\  /    A nd           | Website:  www.openfoam.com                      |
|    \\/     M anipulation  |                                                 |
\*---------------------------------------------------------------------------*/
FoamFile
{
    version     2.0;
    format      ascii;
    class       volScalarField;
    location    "340";
    object      p;
}
// * * * * * * * * * * * * * * * * * * * * * * * * * * * * * * * * * * * * * //

dimensions      [0 2 -2 0 0 0 0];


internalField   nonuniform List<scalar> 
12441
(
8.75035
9.04665
9.89266
11.2108
12.9196
15.0688
17.7449
21.0588
25.1897
30.294
36.6137
44.4139
54.2055
66.1496
81.7582
101.264
129.428
164.527
221.41
283.858
374.946
438.001
8.75034
9.04664
9.89265
11.2108
12.9196
15.0687
17.7448
21.0587
25.1896
30.2938
36.6133
44.4134
54.2045
66.1478
81.7553
101.258
129.412
164.502
221.329
283.783
374.898
437.805
8.75033
9.04662
9.89263
11.2107
12.9195
15.0686
17.7447
21.0585
25.1893
30.2933
36.6125
44.4122
54.2026
66.1442
81.7493
101.244
129.387
164.446
221.159
283.602
374.766
437.452
8.75031
9.0466
9.89259
11.2107
12.9194
15.0685
17.7445
21.0582
25.1888
30.2926
36.6114
44.4104
54.1997
66.1389
81.7405
101.223
129.354
164.36
220.981
283.325
374.527
436.902
8.75027
9.04656
9.89255
11.2106
12.9193
15.0684
17.7443
21.0578
25.1882
30.2917
36.6099
44.408
54.1959
66.1317
81.7288
101.196
129.311
164.252
220.816
282.977
374.189
436.152
8.75023
9.04652
9.89249
11.2105
12.9192
15.0682
17.744
21.0573
25.1875
30.2905
36.608
44.4051
54.191
66.1228
81.7142
101.162
129.258
164.126
220.63
282.556
373.76
435.202
8.75019
9.04646
9.89242
11.2104
12.919
15.0679
17.7436
21.0567
25.1866
30.289
36.6057
44.4015
54.1853
66.112
81.6967
101.123
129.195
163.977
220.412
282.066
373.242
434.053
8.75013
9.0464
9.89234
11.2103
12.9189
15.0677
17.7432
21.056
25.1856
30.2874
36.603
44.3973
54.1785
66.0995
81.6764
101.077
129.126
163.808
220.175
281.518
372.641
432.7
8.75007
9.04633
9.89225
11.2101
12.9186
15.0673
17.7427
21.0552
25.1844
30.2855
36.6
44.3926
54.1708
66.0853
81.6536
101.027
129.055
163.626
219.938
280.925
371.96
431.141
8.75
9.04625
9.89215
11.21
12.9184
15.067
17.7422
21.0544
25.183
30.2833
36.5966
44.3873
54.1621
66.0694
81.6297
100.977
128.988
163.442
219.726
280.297
371.201
429.37
8.74992
9.04616
9.89204
11.2098
12.9182
15.0666
17.7416
21.0534
25.1815
30.2809
36.5928
44.3813
54.1525
66.0522
81.6059
100.932
128.941
163.275
219.57
279.645
370.36
427.378
8.74984
9.04607
9.89191
11.2096
12.9179
15.0662
17.7409
21.0523
25.1799
30.2783
36.5886
44.3748
54.142
66.0347
81.5856
100.902
128.945
163.161
219.5
278.971
369.432
425.158
8.74974
9.04596
9.89177
11.2094
12.9176
15.0657
17.7402
21.0511
25.1781
30.2755
36.584
44.3677
54.1309
66.019
81.5781
100.911
129.042
163.144
219.524
278.27
368.408
422.698
8.74964
9.04585
9.89162
11.2092
12.9172
15.0652
17.7394
21.0498
25.1762
30.2724
36.5791
44.36
54.1198
66.0099
81.5985
100.985
129.278
163.264
219.612
277.52
367.279
419.985
8.74953
9.04572
9.89146
11.2089
12.9168
15.0646
17.7386
21.0485
25.1741
30.2691
36.5738
44.3517
54.1103
66.0157
81.6637
101.146
129.672
163.522
219.703
276.698
366.035
417.006
8.74942
9.04559
9.89129
11.2087
12.9165
15.064
17.7377
21.047
25.1719
30.2655
36.568
44.3431
54.1053
66.0464
81.7871
101.402
130.203
163.867
219.723
275.777
364.667
413.748
8.74929
9.04545
9.89111
11.2084
12.916
15.0634
17.7368
21.0454
25.1695
30.2617
36.5619
44.3347
54.1099
66.1104
81.9714
101.74
130.802
164.202
219.613
274.736
363.168
410.196
8.74916
9.0453
9.89092
11.2081
12.9156
15.0627
17.7357
21.0437
25.167
30.2576
36.5553
44.3277
54.1304
66.2108
82.2074
102.126
131.366
164.421
219.344
273.567
361.532
406.335
8.74902
9.04514
9.89071
11.2078
12.9151
15.062
17.7347
21.042
25.1643
30.2533
36.5483
44.324
54.1718
66.3432
82.4748
102.512
131.787
164.453
218.921
272.266
359.756
402.151
8.74887
9.04497
9.89049
11.2075
12.9146
15.0613
17.7335
21.0401
25.1615
30.2487
36.541
44.327
54.2352
66.4979
82.7451
102.839
131.983
164.286
218.366
270.838
357.837
397.628
8.74871
9.0448
9.89027
11.2071
12.9141
15.0605
17.7324
21.0381
25.1586
30.2439
36.5337
44.3404
54.3171
66.6611
82.9873
103.059
131.926
163.957
217.711
269.287
355.774
392.75
8.74855
9.04461
9.89002
11.2068
12.9136
15.0596
17.7311
21.0361
25.1554
30.2388
36.5268
44.3666
54.4109
66.8185
83.1731
103.144
131.648
163.528
216.981
267.624
353.569
387.501
8.74838
9.04442
9.88977
11.2064
12.913
15.0588
17.7298
21.0339
25.1522
30.2335
36.5212
44.4057
54.5084
66.9565
83.2842
103.093
131.222
163.052
216.196
265.856
351.221
381.862
8.7482
9.04422
9.88951
11.206
12.9124
15.0579
17.7284
21.0316
25.1487
30.2278
36.5185
44.4551
54.6021
67.0641
83.3149
102.929
130.731
162.56
215.366
263.993
348.734
375.817
8.74801
9.04401
9.88924
11.2056
12.9118
15.0569
17.727
21.0293
25.1451
30.2219
36.5205
44.5105
54.6857
67.1349
83.2729
102.689
130.236
162.064
214.495
262.045
346.11
369.345
8.74782
9.04379
9.88895
11.2051
12.9111
15.0559
17.7255
21.0268
25.1414
30.2157
36.5287
44.5676
54.7549
67.167
83.1741
102.41
129.773
161.561
213.584
260.021
343.352
362.425
8.74761
9.04356
9.88865
11.2047
12.9104
15.0549
17.724
21.0243
25.1375
30.2094
36.5433
44.6224
54.8068
67.1635
83.038
102.121
129.35
161.045
212.633
257.931
340.462
355.035
8.7474
9.04332
9.88834
11.2042
12.9097
15.0538
17.7223
21.0216
25.1334
30.2031
36.5639
44.6719
54.8404
67.1301
82.8819
101.841
128.96
160.511
211.642
255.783
337.442
347.151
8.74719
9.04307
9.88802
11.2037
12.909
15.0527
17.7207
21.0189
25.1292
30.1971
36.5886
44.7141
54.856
67.0744
82.7192
101.577
128.593
159.956
210.61
253.583
334.292
338.746
8.74696
9.04282
9.88769
11.2032
12.9083
15.0516
17.7189
21.016
25.1248
30.1914
36.6153
44.7478
54.8551
67.0032
82.558
101.33
128.239
159.379
209.536
251.336
331.009
329.793
8.74673
9.04255
9.88734
11.2027
12.9075
15.0504
17.7172
21.0131
25.1202
30.1863
36.6424
44.7724
54.8401
66.9226
82.4021
101.096
127.889
158.78
208.421
249.044
327.591
320.261
8.74649
9.04228
9.88699
11.2022
12.9067
15.0492
17.7153
21.01
25.1154
30.182
36.6684
44.788
54.8135
66.837
82.2527
100.873
127.539
158.16
207.264
246.708
324.028
310.116
8.74624
9.042
9.88662
11.2016
12.9059
15.0479
17.7134
21.0068
25.1105
30.1789
36.6925
44.7949
54.7779
66.7492
82.1093
100.655
127.184
157.521
206.066
244.327
320.313
299.325
8.74598
9.04171
9.88624
11.201
12.905
15.0466
17.7114
21.0036
25.1054
30.1774
36.7138
44.794
54.7356
66.6611
81.9707
100.44
126.825
156.863
204.827
241.9
316.435
287.85
8.74572
9.04141
9.88585
11.2004
12.9041
15.0453
17.7094
21.0002
25.1001
30.1778
36.732
44.7862
54.6887
66.5736
81.8356
100.226
126.459
156.19
203.548
239.428
312.382
275.651
8.74544
9.0411
9.88545
11.1998
12.9032
15.0439
17.7073
20.9967
25.0947
30.1807
36.747
44.7726
54.6385
66.487
81.7029
100.011
126.087
155.5
202.23
236.912
308.142
262.688
8.74516
9.04079
9.88503
11.1992
12.9023
15.0425
17.7052
20.9931
25.0892
30.1869
36.7591
44.7542
54.5863
66.4017
81.5715
99.7953
125.709
154.796
200.873
234.355
303.703
248.916
8.74488
9.04046
9.88461
11.1986
12.9013
15.041
17.703
20.9894
25.0839
30.1978
36.7686
44.7321
54.5329
66.3175
81.4406
99.5772
125.324
154.079
199.478
231.76
299.056
234.289
8.74458
9.04013
9.88417
11.1979
12.9003
15.0395
17.7007
20.9856
25.08
30.2146
36.776
44.7072
54.4789
66.2344
81.3099
99.3567
124.933
153.349
198.048
229.133
294.193
218.757
8.74428
9.03978
9.88372
11.1972
12.8993
15.038
17.6984
20.9817
25.0806
30.2375
36.7816
44.6803
54.4246
66.1525
81.179
99.1339
124.537
152.607
196.585
226.48
289.108
202.27
8.74397
9.03943
9.88326
11.1966
12.8983
15.0364
17.696
20.9777
25.09
30.2664
36.7856
44.6521
54.3703
66.0718
81.0478
98.9089
124.137
151.854
195.093
223.806
283.8
184.772
8.74365
9.03907
9.88279
11.1958
12.8972
15.0348
17.6936
20.9738
25.1129
30.301
36.7877
44.6231
54.316
65.9926
80.9161
98.682
123.732
151.09
193.576
221.112
278.267
166.216
8.74332
9.0387
9.88231
11.1951
12.8961
15.0331
17.691
20.9709
25.1519
30.34
36.788
44.5941
54.2616
65.9147
80.7842
98.4535
123.323
150.313
192.038
218.395
272.483
146.515
8.74299
9.03832
9.88181
11.1944
12.895
15.0314
17.6884
20.9727
25.2063
30.3818
36.7862
44.5655
54.2068
65.8386
80.6524
98.2243
122.911
149.521
190.487
215.644
266.368
124.927
-19.5623
-23.1642
-25.1345
-22.4657
-18.568
-16.3587
-14.7085
-13.571
-12.3054
-10.7317
-9.53669
-8.23098
-4.83351
1.02777
6.14154
7.10944
6.15353
7.86223
12.3238
15.0836
15.3593
12.9257
10.9825
8.88527
7.13141
6.08852
5.75495
2.81502
1.22519
-1.68432
-2.98129
7.73796
4.10797
2.44977
0.866663
-19.5657
-23.1526
-25.1616
-22.467
-18.5664
-16.3563
-14.7081
-13.5704
-12.3049
-10.7309
-9.5357
-8.22867
-4.83142
1.02932
6.14574
7.11967
6.16733
7.87319
12.329
15.0863
15.3623
12.9289
10.9854
8.88768
7.13348
6.09036
5.75583
2.81693
1.22946
-1.67877
-3.02489
7.73279
4.10868
2.45
0.866676
-19.571
-23.1456
-25.2049
-22.4693
-18.5645
-16.353
-14.7076
-13.5699
-12.3044
-10.7299
-9.53425
-8.22682
-4.82879
1.03318
6.15506
7.1392
6.19611
7.90323
12.3499
15.0974
15.3693
12.9348
10.9903
8.89173
7.13691
6.09349
5.75784
2.81992
1.23403
-1.67659
-3.0661
7.72785
4.10946
2.45025
0.866691
-19.5786
-23.1505
-25.2638
-22.4736
-18.5632
-16.3494
-14.7067
-13.5693
-12.304
-10.7286
-9.53285
-8.22517
-4.82546
1.038
6.16573
7.16176
6.23286
7.9475
12.386
15.1171
15.3807
12.944
10.9979
8.89788
7.14198
6.0981
5.7612
2.82301
1.24108
-1.67415
-3.09671
7.72287
4.11028
2.45052
0.86671
-19.5885
-23.1718
-25.3347
-22.48
-18.5615
-16.345
-14.705
-13.5687
-12.3035
-10.7274
-9.53199
-8.22444
-4.82271
1.04229
6.1748
7.18049
6.26488
7.98998
12.4252
15.1406
15.3951
12.9557
11.0079
8.90605
7.14867
6.1041
5.7658
2.82651
1.25122
-1.67018
-3.11459
7.71814
4.11116
2.4508
0.866734
-19.6004
-23.214
-25.4142
-22.4873
-18.5579
-16.3393
-14.702
-13.5681
-12.303
-10.7262
-9.53188
-8.22472
-4.82083
1.04602
6.18225
7.19446
6.28855
8.02341
12.4599
15.1639
15.4106
12.9688
11.0194
8.91589
7.1568
6.1113
5.77144
2.83052
1.26443
-1.66245
-3.11997
7.71374
4.1121
2.45108
0.866759
-19.614
-23.2806
-25.4992
-22.495
-18.5522
-16.3321
-14.6979
-13.5675
-12.3025
-10.7253
-9.53255
-8.22584
-4.81953
1.05004
6.18943
7.20555
6.30566
8.04788
12.4878
15.1849
15.4258
12.9822
11.0315
8.92683
7.16609
6.11951
5.77792
2.83495
1.28032
-1.64906
-3.11346
7.70968
4.11311
2.45136
0.866785
-19.629
-23.3737
-25.5862
-22.5031
-18.5447
-16.3238
-14.6927
-13.5672
-12.302
-10.7248
-9.53399
-8.22753
-4.81835
1.05488
6.197
7.21516
6.31875
8.06591
12.5093
15.2028
15.4395
12.9944
11.0432
8.938
7.17606
6.12845
5.78501
2.83967
1.29836
-1.62935
-3.09544
7.70591
4.11418
2.45163
0.866807
-19.6452
-23.4936
-25.6723
-22.5121
-18.5363
-16.3152
-14.6871
-13.5672
-12.3017
-10.7248
-9.53613
-8.22972
-4.81721
1.06038
6.2048
7.22361
6.32915
8.07951
12.5256
15.2169
15.4507
13.0044
11.0532
8.94838
7.18604
6.13773
5.79243
2.84454
1.31797
-1.60381
-3.06631
7.70244
4.11531
2.45189
0.866823
-19.6621
-23.6387
-25.7544
-22.5224
-18.5277
-16.3068
-14.6814
-13.5676
-12.3017
-10.7255
-9.53894
-8.23227
-4.81619
1.06581
6.2119
7.2304
6.33712
8.08944
12.5371
15.2269
15.4585
13.0114
11.0606
8.95696
7.19522
6.14686
5.79987
2.84945
1.33844
-1.57362
-3.02637
7.69924
4.11651
2.45214
0.866832
-19.6796
-23.8057
-25.8303
-22.5343
-18.5193
-16.2993
-14.6762
-13.5684
-12.3021
-10.7268
-9.54232
-8.23521
-4.81554
1.07043
6.21744
7.23513
6.3425
8.0957
12.5438
15.2322
15.4624
13.0149
11.0649
8.96299
7.2028
6.15524
5.80696
2.85426
1.35908
-1.54029
-2.97611
7.69634
4.11777
2.45237
0.86683
-19.6974
-23.9894
-25.8982
-22.5476
-18.5117
-16.2932
-14.6719
-13.5698
-12.3031
-10.7288
-9.54621
-8.23843
-4.81534
1.07373
6.22086
7.2376
6.34538
8.09846
12.5459
15.2329
15.4622
13.0149
11.0659
8.96618
7.20824
6.1623
5.81326
2.85883
1.37929
-1.50554
-2.91599
7.69376
4.1191
2.45259
0.866814
-19.7152
-24.1828
-25.9572
-22.5619
-18.5053
-16.2887
-14.6689
-13.572
-12.3047
-10.7317
-9.55055
-8.24193
-4.81564
1.0756
6.22221
7.23814
6.34616
8.09834
12.5441
15.2293
15.4583
13.0118
11.0642
8.96672
7.21137
6.16763
5.81835
2.86302
1.3987
-1.47118
-2.84682
7.69161
4.1205
2.45278
0.866784
-19.7328
-24.3774
-26.0071
-22.5766
-18.5004
-16.2862
-14.6675
-13.575
-12.3072
-10.7354
-9.55535
-8.2456
-4.81632
1.07626
6.22185
7.23713
6.34544
8.09629
12.5395
15.2222
15.4511
13.0063
11.0603
8.96512
7.21242
6.1711
5.82192
2.86672
1.41724
-1.43908
-2.76969
7.68998
4.12195
2.45294
0.866737
-19.7502
-24.5642
-26.0483
-22.5905
-18.4973
-16.2858
-14.668
-13.579
-12.3107
-10.7402
-9.56066
-8.24948
-4.81729
1.07607
6.22041
7.23516
6.34374
8.09317
12.533
15.2125
15.4413
12.9988
11.0549
8.96207
7.2119
6.17289
5.82386
2.86984
1.43508
-1.41093
-2.68648
7.68907
4.12346
2.45307
0.866671
-19.7671
-24.7341
-26.0818
-22.6021
-18.4962
-16.2878
-14.6706
-13.5844
-12.3152
-10.746
-9.56659
-8.25352
-4.81842
1.07542
6.2184
7.2326
6.34149
8.08968
12.5256
15.2009
15.4292
12.9897
11.0484
8.95816
7.21039
6.17343
5.82434
2.87235
1.45257
-1.3879
-2.59987
7.68902
4.12502
2.45317
0.866587
-19.7836
-24.8797
-26.1087
-22.6098
-18.4971
-16.2925
-14.6755
-13.5912
-12.3212
-10.7532
-9.57328
-8.25788
-4.81972
1.07459
6.21633
7.22981
6.33894
8.08623
12.5175
15.1877
15.4152
12.9792
11.0411
8.95379
7.20837
6.17317
5.82366
2.87433
1.47002
-1.37019
-2.51365
7.69006
4.12662
2.45324
0.866481
-19.7995
-24.9961
-26.1306
-22.6121
-18.5006
-16.3
-14.6829
-13.5997
-12.3287
-10.7618
-9.58095
-8.26265
-4.82115
1.0737
6.21428
7.22679
6.33627
8.08307
12.509
15.173
15.3993
12.9674
11.033
8.94911
7.20613
6.17247
5.82217
2.87592
1.48761
-1.35714
-2.43192
7.69224
4.12826
2.45327
0.866355
-19.8147
-25.0818
-26.1492
-22.6088
-18.5065
-16.3105
-14.6931
-13.6105
-12.338
-10.7722
-9.58997
-8.26826
-4.82287
1.07276
6.21229
7.22348
6.33352
8.08025
12.5
15.1566
15.3813
12.9542
11.0242
8.94414
7.20378
6.17156
5.82017
2.87728
1.50542
-1.3476
-2.35837
7.69561
4.12993
2.45326
0.866207
-19.8293
-25.1387
-26.1666
-22.6008
-18.5142
-16.324
-14.7065
-13.624
-12.3497
-10.7845
-9.60087
-8.2751
-4.82507
1.07161
6.20995
7.21952
6.33066
8.07779
12.4904
15.1384
15.3613
12.9397
11.0146
8.93885
7.20133
6.17057
5.81787
2.87858
1.52351
-1.34041
-2.2949
7.69999
4.13163
2.45321
0.866038
-19.8431
-25.172
-26.1829
-22.5898
-18.5231
-16.3409
-14.7239
-13.6411
-12.3644
-10.7994
-9.61439
-8.28401
-4.8283
1.06998
6.20701
7.21463
6.32762
8.07555
12.48
15.1185
15.3391
12.9238
11.0042
8.93322
7.19872
6.16954
5.8154
2.87994
1.54193
-1.33467
-2.24146
7.70521
4.13334
2.45311
0.865846
-19.8557
-25.189
-26.1957
-22.5773
-18.5325
-16.3612
-14.7459
-13.6625
-12.3826
-10.8174
-9.6314
-8.29584
-4.83326
1.06734
6.20287
7.20836
6.3243
8.07346
12.4688
15.0966
15.3149
12.9067
10.9932
8.92722
7.19592
6.16848
5.81283
2.88145
1.56071
-1.32979
-2.19616
7.711
4.13507
2.45296
0.865634
-19.8666
-25.1956
-26.2014
-22.5645
-18.5417
-16.3853
-14.7732
-13.6895
-12.4054
-10.8391
-9.65294
-8.31197
-4.84116
1.06302
6.19724
7.20051
6.32056
8.0713
12.4564
15.0728
15.2886
12.8885
10.9815
8.92088
7.19292
6.16739
5.8102
2.88315
1.57983
-1.32542
-2.15638
7.71719
4.13681
2.45277
0.8654
-19.8751
-25.1958
-26.195
-22.5519
-18.55
-16.4135
-14.8068
-13.723
-12.4337
-10.8653
-9.67982
-8.33348
-4.85325
1.05598
6.18945
7.19074
6.31631
8.06894
12.4429
15.0471
15.2605
12.8692
10.9693
8.91423
7.18973
6.16628
5.8075
2.88506
1.59923
-1.32139
-2.11933
7.7236
4.13855
2.45252
0.865146
-19.8806
-25.193
-26.1693
-22.5392
-18.557
-16.4464
-14.848
-13.7645
-12.4684
-10.8966
-9.71261
-8.36158
-4.87079
1.04515
6.17909
7.17898
6.31143
8.0661
12.4278
15.0195
15.2306
12.849
10.9567
8.90729
7.18638
6.16514
5.80474
2.88718
1.61877
-1.31762
-2.08282
7.73022
4.14029
2.45222
0.86487
-19.8823
-25.1911
-26.1167
-22.5253
-18.5622
-16.4845
-14.8978
-13.8148
-12.5101
-10.9329
-9.75104
-8.39626
-4.89411
1.0296
6.16527
7.16486
6.30582
8.06263
12.4111
14.9899
15.1991
12.8281
10.9437
8.90011
7.18289
6.16396
5.80186
2.88951
1.63828
-1.31408
-2.04501
7.737
4.14202
2.45185
0.864575
-19.88
-25.1944
-26.0324
-22.508
-18.5652
-16.5283
-14.9571
-13.8744
-12.5592
-10.9742
-9.79419
-8.43704
-4.92253
1.00937
6.14754
7.14816
6.29925
8.0582
12.3924
14.9584
15.1661
12.8066
10.9303
8.89273
7.1793
6.16273
5.79886
2.89201
1.65756
-1.3108
-2.00482
7.74404
4.14375
2.45143
0.864261
-19.8738
-25.2077
-25.9169
-22.4841
-18.5656
-16.5777
-15.0256
-13.9428
-12.6146
-11.0189
-9.83996
-8.48156
-4.95372
0.985686
6.12542
7.1283
6.29147
8.05262
12.3716
14.9249
15.1319
12.7845
10.9166
8.88521
7.17565
6.16143
5.79569
2.89465
1.67638
-1.3078
-1.96132
7.75137
4.14546
2.45094
0.863929
-19.8647
-25.2359
-25.7757
-22.4499
-18.5633
-16.6317
-15.1017
-14.0176
-12.6743
-11.065
-9.88575
-8.5272
-4.98473
0.96103
6.09968
7.10508
6.28207
8.0455
12.3481
14.8891
15.0963
12.7619
10.9028
8.87758
7.17197
6.16003
5.79233
2.89742
1.69451
-1.30514
-1.91411
7.75917
4.14717
2.45039
0.863578
-19.8542
-25.2843
-25.6176
-22.4017
-18.5585
-16.6884
-15.1816
-14.0947
-12.7346
-11.1093
-9.92808
-8.56993
-5.01203
0.937863
6.07129
7.07834
6.27078
8.03669
12.3221
14.8509
15.0595
12.7389
10.8888
8.86992
7.16828
6.1585
5.78872
2.90027
1.71166
-1.30288
-1.86271
7.76744
4.14886
2.44976
0.863211
-19.8437
-25.3587
-25.4513
-22.3364
-18.5518
-16.7444
-15.2597
-14.1683
-12.7908
-11.1482
-9.96377
-8.60652
-5.03308
0.918067
6.04189
7.04874
6.25748
8.02594
12.2933
14.8103
15.0214
12.7156
10.8746
8.86226
7.1646
6.15681
5.78487
2.90318
1.72755
-1.30109
-1.80705
7.77637
4.15054
2.44907
0.862828
-19.8347
-25.4661
-25.2844
-22.2537
-18.5448
-16.7955
-15.3287
-14.2317
-12.8375
-11.1777
-9.98968
-8.63341
-5.04623
0.901931
6.01211
7.01688
6.24244
8.01346
12.2621
14.7673
14.982
12.692
10.8604
8.85466
7.16095
6.1549
5.78069
2.90611
1.74178
-1.29986
-1.74684
7.78597
4.15221
2.4483
0.86243
-19.8282
-25.6156
-25.1229
-22.1568
-18.5391
-16.8368
-15.3814
-14.2779
-12.8698
-11.1952
-10.0039
-8.64892
-5.05175
0.888817
5.98238
6.98373
6.22612
7.99938
12.2285
14.722
14.9414
12.6681
10.8462
8.84717
7.15731
6.15276
5.77619
2.90903
1.75399
-1.29926
-1.6822
7.79643
4.15387
2.44746
0.862016
-19.8246
-25.8188
-24.9714
-22.0539
-18.5369
-16.8635
-15.4114
-14.3016
-12.8838
-11.1987
-10.0055
-8.65211
-5.05096
0.877285
5.95202
6.94963
6.20916
7.98427
12.1933
14.6748
14.8996
12.644
10.8321
8.83985
7.15371
6.15032
5.77127
2.91191
1.76367
-1.2994
-1.61294
7.80771
4.15552
2.44653
0.86159
-19.8239
-26.0902
-24.8321
-21.9568
-18.5403
-16.8726
-15.415
-14.3003
-12.8784
-11.1886
-9.99517
-8.64465
-5.04624
0.866199
5.92084
6.91508
6.19198
7.96839
12.1568
14.6261
14.857
12.6197
10.8181
8.83274
7.15012
6.14756
5.76593
2.91474
1.77035
-1.30034
-1.53927
7.82
4.15715
2.44553
0.861149
-19.8247
-26.4473
-24.7046
-21.8787
-18.5505
-16.8632
-15.3921
-14.2745
-12.8546
-11.1664
-9.97459
-8.62952
-5.03952
0.854716
5.88814
6.87987
6.1749
7.95224
12.1197
14.5766
14.8137
12.5954
10.8042
8.82589
7.14657
6.14443
5.76005
2.91749
1.77338
-1.30215
-1.46103
7.83325
4.15877
2.44444
0.860695
-19.8245
-26.9079
-24.586
-21.8299
-18.5679
-16.8372
-15.3465
-14.2284
-12.8161
-11.1354
-9.94744
-8.61146
-5.03223
0.842659
5.85402
6.84407
6.15789
7.93584
12.0821
14.5268
14.7701
12.5712
10.7907
8.81933
7.14303
6.14091
5.75363
2.92015
1.77218
-1.30489
-1.37847
7.84766
4.16038
2.44327
0.860225
-19.8201
-27.4847
-24.4713
-21.8157
-18.5921
-16.7985
-15.2844
-14.168
-12.7676
-11.0989
-9.91879
-8.59405
-5.02453
0.829867
5.81786
6.80709
6.14089
7.91953
12.0447
14.4771
14.7267
12.5473
10.7776
8.8131
7.13949
6.13693
5.74652
2.92271
1.76599
-1.30866
-1.29134
7.86317
4.16198
2.44198
0.859742
-19.8083
-28.1713
-24.3544
-21.8362
-18.6217
-16.7519
-15.2128
-14.1
-12.7141
-11.0616
-9.89439
-8.57927
-5.01643
0.816086
5.77941
6.76877
6.12383
7.90333
12.0072
14.4279
14.6838
12.5238
10.7648
8.80718
7.13592
6.13249
5.73874
2.92517
1.75406
-1.3135
-1.19976
7.87999
4.16355
2.4406
0.859241
-19.787
-28.9227
-24.229
-21.8875
-18.655
-16.7021
-15.1385
-14.0301
-12.66
-11.029
-9.87757
-8.56649
-5.00782
0.800357
5.73753
6.72875
6.10718
7.88784
11.9701
14.3793
14.6415
12.5009
10.7524
8.80158
7.13234
6.12758
5.73016
2.92741
1.73539
-1.31932
-1.10324
7.89805
4.1651
2.4391
0.858724
-19.749
-29.6378
-24.0889
-21.9632
-18.6898
-16.6524
-15.0662
-13.9619
-12.6109
-11.0064
-9.8681
-8.55491
-4.99968
0.781431
5.69212
6.68817
6.09199
7.87317
11.9325
14.3307
14.5999
12.4783
10.7404
8.79634
7.12885
6.12231
5.72082
2.92925
1.70944
-1.32585
-1.00248
7.91737
4.16662
2.43749
0.858184
-19.673
-30.156
-23.9288
-22.0545
-18.7226
-16.6045
-14.9981
-13.8994
-12.5734
-10.9949
-9.86325
-8.5439
-4.99331
0.758333
5.64397
6.64904
6.07954
7.85879
11.8935
14.2812
14.5584
12.4563
10.729
8.79175
7.12574
6.11675
5.71041
2.93064
1.67678
-1.33346
-0.899861
7.93732
4.16814
2.43577
0.857625
-19.5651
-30.2822
-23.7429
-22.1517
-18.7488
-16.558
-14.935
-13.8488
-12.5504
-10.9911
-9.86096
-8.53456
-4.99048
0.732318
5.59755
6.61509
6.06919
7.84107
11.8498
14.2296
14.5171
12.4351
10.7188
8.78838
7.12329
6.11074
5.69874
2.93205
1.63876
-1.34371
-0.798582
7.95815
4.16971
2.43396
0.857037
-19.6511
-29.8636
-23.5223
-22.2482
-18.7683
-16.5134
-14.8802
-13.8152
-12.5388
-10.9921
-9.86105
-8.52799
-4.99081
0.706646
5.55658
6.58612
6.05621
7.81454
11.7996
14.1769
14.4786
12.4175
10.7118
8.78696
7.12087
6.10263
5.68413
2.93214
1.58374
-1.35687
-0.677698
7.98576
4.17112
2.43172
0.85641
8.74272
9.03802
9.88141
11.1938
12.8941
15.0301
17.6863
20.9873
25.2579
30.4143
36.7833
44.5437
54.1634
65.7812
80.5511
98.0471
122.591
148.892
189.278
213.465
261.317
103.227
8.74253
9.0378
9.88112
11.1934
12.8935
15.0291
17.6848
21.0103
25.296
30.4347
36.7795
44.5279
54.1311
65.741
80.479
97.9205
122.359
148.43
188.403
211.882
257.457
100.295
8.74232
9.03757
9.88082
11.1929
12.8928
15.028
17.6832
21.039
25.3288
30.4501
36.7735
44.5114
54.0985
65.7
80.4058
97.7902
122.119
147.95
187.506
210.239
253.44
101.973
8.7421
9.03732
9.88049
11.1924
12.892
15.0269
17.6815
21.068
25.3558
30.4609
36.7664
44.4944
54.0661
65.6581
80.3311
97.655
121.87
147.45
186.584
208.528
249.309
101.861
8.74187
9.03706
9.88015
11.1919
12.8913
15.0257
17.6797
21.0933
25.3775
30.4682
36.759
44.4774
54.0342
65.6154
80.2547
97.5143
121.608
146.929
185.634
206.748
245.054
100.064
8.74163
9.03679
9.8798
11.1914
12.8905
15.0245
17.6778
21.1106
25.3943
30.4725
36.7518
44.4604
54.0028
65.5718
80.1763
97.3677
121.333
146.386
184.649
204.903
240.671
98.0137
8.74138
9.0365
9.87942
11.1908
12.8896
15.0232
17.6758
21.117
25.4064
30.4744
36.7451
44.4436
53.9721
65.5274
80.0961
97.2145
121.044
145.82
183.624
202.992
236.165
96.1045
8.74111
9.0362
9.87902
11.1902
12.8887
15.0218
17.6737
21.1129
25.4141
30.4744
36.7393
44.4274
53.942
65.4821
80.0135
97.0546
120.737
145.229
182.551
201.017
231.54
94.1737
8.74083
9.03587
9.8786
11.1896
12.8878
15.0203
17.6714
21.1009
25.4175
30.4728
36.7344
44.4117
53.9127
65.436
79.9286
96.8874
120.412
144.612
181.426
198.978
226.801
92.1231
8.74053
9.03553
9.87815
11.1889
12.8868
15.0188
17.6691
21.0834
25.4167
30.4697
36.7303
44.3966
53.8841
65.389
79.8409
96.7128
120.069
143.968
180.242
196.875
221.953
89.9771
8.74021
9.03518
9.87768
11.1882
12.8857
15.0171
17.6666
21.0621
25.4115
30.4652
36.7269
44.3821
53.856
65.3409
79.7506
96.5306
119.705
143.295
178.994
194.706
216.999
87.7706
8.73988
9.0348
9.87718
11.1875
12.8846
15.0154
17.6639
21.0383
25.4014
30.4592
36.724
44.3683
53.8283
65.2917
79.657
96.3406
119.321
142.591
177.676
192.471
211.946
85.5145
8.73952
9.0344
9.87665
11.1867
12.8834
15.0135
17.6612
21.0134
25.3861
30.4514
36.7213
44.355
53.801
65.2412
79.5602
96.1423
118.916
141.854
176.285
190.168
206.797
83.2127
8.73915
9.03397
9.8761
11.1859
12.8822
15.0116
17.6582
20.9886
25.3647
30.4413
36.7183
44.3423
53.7737
65.1891
79.4595
95.9358
118.491
141.084
174.818
187.796
201.559
80.8742
8.73875
9.03352
9.87551
11.185
12.8809
15.0095
17.655
20.9654
25.3369
30.4281
36.7144
44.3299
53.7465
65.1352
79.3548
95.7202
118.043
140.279
173.27
185.354
196.235
78.5109
8.73834
9.03305
9.87488
11.1841
12.8795
15.0073
17.6517
20.9446
25.3021
30.4112
36.709
44.3178
53.7191
65.0792
79.2455
95.4954
117.574
139.436
171.641
182.84
190.831
76.1362
8.73789
9.03255
9.87422
11.1831
12.878
15.0049
17.6482
20.9268
25.2606
30.3893
36.7011
44.3056
53.6914
65.0208
79.1312
95.2606
117.083
138.556
169.928
180.252
185.351
73.7639
8.73743
9.03201
9.87352
11.182
12.8764
15.0025
17.6444
20.9123
25.213
30.3613
36.6893
44.2929
53.6634
64.9596
79.0113
95.0151
116.568
137.635
168.13
177.59
179.799
71.408
8.73693
9.03145
9.87278
11.1809
12.8748
14.9998
17.6404
20.9005
25.161
30.3261
36.6721
44.2791
53.6348
64.8954
78.8853
94.7581
116.029
136.673
166.247
174.851
174.178
69.0812
8.7364
9.03085
9.872
11.1798
12.873
14.997
17.6362
20.8909
25.1069
30.2827
36.6474
44.2632
53.6054
64.8276
78.7524
94.4889
115.464
135.669
164.277
172.033
168.494
66.7939
8.73585
9.03022
9.87116
11.1785
12.8711
14.9941
17.6317
20.8825
25.0536
30.2306
36.6129
44.2436
53.5749
64.7561
78.6121
94.2064
114.872
134.621
162.22
169.137
162.751
64.5531
8.73526
9.02955
9.87027
11.1772
12.8691
14.991
17.6269
20.8747
25.0039
30.1705
36.5658
44.218
53.5426
64.6804
78.4635
93.9098
114.251
133.526
160.076
166.159
156.953
62.3616
8.73463
9.02884
9.86933
11.1758
12.867
14.9876
17.6218
20.867
24.9599
30.104
36.5038
44.1831
53.5073
64.6003
78.3061
93.598
113.6
132.383
157.844
163.099
151.107
60.2175
8.73396
9.02808
9.86834
11.1743
12.8648
14.9841
17.6164
20.859
24.9228
30.034
36.4252
44.1344
53.467
64.5152
78.139
93.2701
112.917
131.191
155.524
159.954
145.221
58.1138
8.73325
9.02728
9.86728
11.1728
12.8624
14.9804
17.6107
20.8505
24.8921
29.964
36.3304
44.0664
53.4181
64.4243
77.9615
92.9248
112.2
129.947
153.115
156.724
139.301
56.0385
8.7325
9.02642
9.86615
11.1711
12.8599
14.9764
17.6045
20.8414
24.8667
29.8974
36.222
43.973
53.3552
64.3261
77.7726
92.5614
111.449
128.65
150.616
153.407
133.358
53.9751
8.7317
9.02552
9.86495
11.1693
12.8573
14.9722
17.598
20.8318
24.8448
29.8364
36.1052
43.8497
53.2697
64.2179
77.5714
92.1785
110.661
127.297
148.028
150
127.402
51.9038
8.73086
9.02455
9.86368
11.1675
12.8544
14.9677
17.5911
20.8214
24.8247
29.7822
35.9863
43.6956
53.1503
64.0945
77.3559
91.7752
109.835
125.886
145.35
146.502
121.446
49.8021
8.72995
9.02353
9.86232
11.1654
12.8514
14.963
17.5838
20.8104
24.8053
29.7343
35.8717
43.5153
52.985
63.947
77.1232
91.3501
108.971
124.417
142.582
142.913
115.502
47.6465
8.72899
9.02244
9.86088
11.1633
12.8482
14.9579
17.5759
20.7986
24.7857
29.6916
35.7659
43.319
52.7648
63.762
76.8673
90.9011
108.067
122.886
139.725
139.229
109.583
45.4138
8.72797
9.02128
9.85934
11.1611
12.8448
14.9526
17.5676
20.786
24.7653
29.652
35.6709
43.1196
52.4895
63.5219
76.5783
90.4249
107.122
121.293
136.78
135.451
103.705
43.0822
8.72688
9.02004
9.8577
11.1586
12.8411
14.9468
17.5588
20.7726
24.7439
29.6138
35.5861
42.9288
52.1708
63.2098
76.2397
89.9155
106.135
119.636
133.747
131.578
97.8821
40.6329
8.72572
9.01873
9.85596
11.1561
12.8373
14.9408
17.5494
20.7583
24.7211
29.5753
35.509
42.7542
51.8305
62.817
75.8297
89.3626
105.102
117.913
130.628
127.611
92.1282
38.0509
8.72449
9.01733
9.8541
11.1533
12.8331
14.9343
17.5394
20.7431
24.6968
29.5356
35.4364
42.5975
51.4932
62.3511
75.3249
88.7502
104.02
116.124
127.425
123.551
86.458
35.3257
8.72317
9.01584
9.85212
11.1504
12.8287
14.9275
17.5288
20.7269
24.671
29.494
35.365
42.4559
51.1778
61.8371
74.7106
88.0566
102.878
114.266
124.139
119.4
80.8858
32.4527
8.72177
9.01424
9.85001
11.1473
12.8241
14.9201
17.5175
20.7097
24.6435
29.45
35.2924
42.324
50.8928
61.3102
73.9915
87.2587
101.666
112.339
120.775
115.163
75.425
29.4328
8.72027
9.01255
9.84775
11.144
12.8191
14.9124
17.5054
20.6913
24.6142
29.4033
35.2168
42.1958
50.6359
60.8022
73.1966
86.3405
100.364
110.339
117.336
110.845
70.0886
26.2734
8.71867
9.01074
9.84535
11.1405
12.8137
14.9041
17.4926
20.6716
24.583
29.3537
35.1372
42.0663
50.3983
60.3307
72.3716
85.3036
98.9581
108.265
113.832
106.454
64.8893
22.9875
8.71697
9.00881
9.84278
11.1367
12.8081
14.8952
17.4789
20.6507
24.5498
29.3009
35.053
41.9319
50.1688
59.8968
71.5608
84.1728
97.4355
106.117
110.273
102
59.8398
19.5936
8.71514
9.00674
9.84004
11.1327
12.802
14.8858
17.4644
20.6284
24.5145
29.2448
34.9637
41.7906
49.9376
59.4887
70.7916
82.9905
95.7995
103.894
106.676
97.4984
54.9533
16.1155
8.7132
9.00454
9.83711
11.1284
12.7955
14.8758
17.4489
20.6047
24.4769
29.1852
34.8689
41.6412
49.698
59.0897
70.0668
81.8006
94.07
101.604
103.068
92.9687
50.2446
12.5813
8.71112
9.00219
9.83398
11.1238
12.7886
14.8651
17.4323
20.5793
24.4368
29.1217
34.7681
41.483
49.4461
58.6849
69.3704
80.6317
92.2792
99.2577
99.4784
88.4384
45.7305
9.02282
8.7089
8.99968
9.83063
11.1189
12.7812
14.8536
17.4147
20.5523
24.3941
29.0541
34.6611
41.3152
49.1801
58.2637
68.6785
79.4887
90.4594
96.8661
95.9418
83.9427
41.4305
5.47571
8.70653
8.997
9.82706
11.1136
12.7734
14.8414
17.3959
20.5234
24.3485
28.9822
34.5474
41.1371
48.8987
57.8205
67.9694
78.357
88.6321
94.4374
92.4874
79.523
37.366
1.97864
8.70399
8.99413
9.82324
11.108
12.765
14.8284
17.3758
20.4926
24.3
28.9057
34.4266
40.9481
48.6011
57.353
67.2284
77.2121
86.8023
91.9693
89.1276
75.2233
33.5598
-1.42719
8.70128
8.99106
9.81915
11.102
12.756
14.8145
17.3544
20.4598
24.2483
28.8243
34.2982
40.7476
48.286
56.86
66.4486
76.0304
84.96
89.4521
85.847
71.0806
30.032
-4.69919
8.69838
8.98778
9.81477
11.0956
12.7463
14.7997
17.3315
20.4247
24.1932
28.7376
34.1618
40.5348
47.9526
56.3402
65.6285
74.7964
83.0846
86.8776
82.6009
67.1126
26.7966
-7.7953
8.69527
8.98426
9.81009
11.0888
12.7361
14.7839
17.3072
20.3872
24.1345
28.6453
34.0168
40.3091
47.5997
55.7922
64.7682
73.5038
81.154
84.2428
79.3321
63.3051
23.8536
-10.6768
8.69194
8.98051
9.80508
11.0814
12.7251
14.767
17.2811
20.3473
24.0719
28.547
33.8628
40.0698
47.2265
55.2146
63.8671
72.153
79.1535
81.545
75.9982
59.6097
21.1824
-13.3125
8.68838
8.97648
9.79971
11.0736
12.7133
14.7489
17.2533
20.3046
24.0051
28.4425
33.6992
39.816
46.832
54.6061
62.9242
70.7461
77.0801
78.7794
72.5879
55.9606