/*--------------------------------*- C++ -*----------------------------------*\
| =========                 |                                                 |
| \\      /  F ield         | OpenFOAM: The Open Source CFD Toolbox           |
|  \\    /   O peration     | Version:  v1912                                 |
|   \\  /    A nd           | Website:  www.openfoam.com                      |
|    \\/     M anipulation  |                                                 |
\*---------------------------------------------------------------------------*/
FoamFile
{
    version     2.0;
    format      ascii;
    class       surfaceScalarField;
    location    "340";
    object      phi;
}
// * * * * * * * * * * * * * * * * * * * * * * * * * * * * * * * * * * * * * //

dimensions      [0 3 -1 0 0 0 0];
oriented        oriented;


internalField   nonuniform List<scalar> 
24588
(
6.81684e-05
1.96737e-08
6.81154e-05
5.39395e-08
6.80318e-05
8.29401e-08
6.79181e-05
1.13537e-07
6.77694e-05
1.47569e-07
6.75827e-05
1.87057e-07
6.735e-05
2.31781e-07
6.7059e-05
2.90871e-07
6.66972e-05
3.6132e-07
6.62472e-05
4.50189e-07
6.56866e-05
5.59892e-07
6.49545e-05
7.14336e-07
6.41447e-05
8.75079e-07
6.29262e-05
1.15561e-06
6.14583e-05
1.45792e-06
5.91712e-05
2.31026e-06
5.62774e-05
2.89346e-06
5.15152e-05
4.76193e-06
4.48514e-05
6.66371e-06
3.36778e-05
1.11737e-05
2.00144e-05
1.36635e-05
2.00143e-05
6.81687e-05
3.98795e-08
6.81152e-05
1.08594e-07
6.80316e-05
1.6558e-07
6.79182e-05
2.26768e-07
6.77696e-05
2.948e-07
6.75831e-05
3.73993e-07
6.73502e-05
4.6349e-07
6.70595e-05
5.81358e-07
6.66978e-05
7.22398e-07
6.62488e-05
8.99364e-07
6.56868e-05
1.12103e-06
6.49514e-05
1.42977e-06
6.41577e-05
1.74103e-06
6.29164e-05
2.33623e-06
6.14471e-05
2.91686e-06
5.9233e-05
4.54639e-06
5.62918e-05
5.83412e-06
5.14848e-05
9.5685e-06
4.48971e-05
1.32512e-05
3.35816e-05
2.24894e-05
1.99754e-05
2.72697e-05
3.99897e-05
6.81687e-05
6.00899e-08
6.81152e-05
1.63245e-07
6.80316e-05
2.48256e-07
6.79182e-05
3.40037e-07
6.77695e-05
4.42079e-07
6.7583e-05
5.60976e-07
6.73501e-05
6.95269e-07
6.70594e-05
8.71837e-07
6.66977e-05
1.08351e-06
6.62487e-05
1.34852e-06
6.56872e-05
1.68169e-06
6.49509e-05
2.14525e-06
6.41596e-05
2.60814e-06
6.29217e-05
3.49998e-06
6.14468e-05
4.38087e-06
5.92666e-05
6.75281e-06
5.62889e-05
8.81112e-06
5.15054e-05
1.43517e-05
4.4873e-05
1.98832e-05
3.36022e-05
3.37604e-05
1.99956e-05
4.08764e-05
5.99852e-05
6.81687e-05
8.02918e-08
6.81152e-05
2.1784e-07
6.80317e-05
3.30884e-07
6.79182e-05
4.53263e-07
6.77696e-05
5.89261e-07
6.75831e-05
7.4786e-07
6.73503e-05
9.26962e-07
6.70596e-05
1.16234e-06
6.66979e-05
1.44463e-06
6.62487e-05
1.79781e-06
6.56867e-05
2.24283e-06
6.49516e-05
2.86038e-06
6.4154e-05
3.47719e-06
6.29157e-05
4.68009e-06
6.1442e-05
5.8448e-06
5.92846e-05
8.93093e-06
5.63119e-05
1.17832e-05
5.15203e-05
1.91428e-05
4.48621e-05
2.65409e-05
3.36309e-05
4.49919e-05
2.00295e-05
5.44778e-05
8.00147e-05
6.81687e-05
1.00492e-07
6.81152e-05
2.72415e-07
6.80317e-05
4.13545e-07
6.79182e-05
5.66537e-07
6.77696e-05
7.36493e-07
6.75831e-05
9.34806e-07
6.73502e-05
1.15874e-06
6.70595e-05
1.45284e-06
6.66977e-05
1.80579e-06
6.62486e-05
2.24708e-06
6.5687e-05
2.80362e-06
6.49507e-05
3.57622e-06
6.41563e-05
4.34763e-06
6.29216e-05
5.83998e-06
6.14418e-05
7.31376e-06
5.92937e-05
1.11055e-05
5.63371e-05
1.47392e-05
5.15221e-05
2.39574e-05
4.48803e-05
3.31823e-05
3.36765e-05
5.6196e-05
2.0078e-05
6.80764e-05
0.000100093
6.81687e-05
1.20687e-07
6.81153e-05
3.26944e-07
6.80317e-05
4.96144e-07
6.79183e-05
6.79745e-07
6.77697e-05
8.83595e-07
6.75833e-05
1.12163e-06
6.73504e-05
1.39039e-06
6.70597e-05
1.74335e-06
6.6698e-05
2.16691e-06
6.62487e-05
2.69645e-06
6.56867e-05
3.36477e-06
6.49524e-05
4.29074e-06
6.4151e-05
5.21839e-06
6.29154e-05
7.02109e-06
6.14387e-05
8.78153e-06
5.9293e-05
1.32711e-05
5.63524e-05
1.7679e-05
5.15324e-05
2.8777e-05
4.49115e-05
3.98028e-05
3.37419e-05
6.73658e-05
2.01432e-05
8.16751e-05
0.000120236
6.81687e-05
1.40881e-07
6.81153e-05
3.81453e-07
6.80317e-05
5.78783e-07
6.79182e-05
7.93015e-07
6.77696e-05
1.03075e-06
6.75832e-05
1.30853e-06
6.73503e-05
1.62213e-06
6.70596e-05
2.03385e-06
6.66978e-05
2.52808e-06
6.62487e-05
3.14575e-06
6.56869e-05
3.92571e-06
6.49509e-05
5.00687e-06
6.41544e-05
6.09049e-06
6.29227e-05
8.176e-06
6.14388e-05
1.02559e-05
5.92879e-05
1.54474e-05
5.6368e-05
2.05982e-05
5.15526e-05
3.35921e-05
4.49587e-05
4.63964e-05
3.3834e-05
7.84907e-05
2.0228e-05
9.52813e-05
0.000140464
6.81687e-05
1.6107e-07
6.81153e-05
4.35922e-07
6.80317e-05
6.61357e-07
6.79183e-05
9.06199e-07
6.77698e-05
1.17776e-06
6.75834e-05
1.49529e-06
6.73506e-05
1.85373e-06
6.70599e-05
2.32437e-06
6.66981e-05
2.88919e-06
6.62489e-05
3.59513e-06
6.56869e-05
4.48676e-06
6.4954e-05
5.72034e-06
6.41487e-05
6.96169e-06
6.29149e-05
9.35937e-06
6.14286e-05
1.17355e-05
5.92736e-05
1.76207e-05
5.63848e-05
2.34863e-05
5.15976e-05
3.8379e-05
4.50371e-05
5.29566e-05
3.39635e-05
8.95644e-05
2.0336e-05
0.000108909
0.0001608
6.81687e-05
1.81258e-07
6.81153e-05
4.9037e-07
6.80317e-05
7.43976e-07
6.79183e-05
1.01946e-06
6.77697e-05
1.32484e-06
6.75833e-05
1.68214e-06
6.73504e-05
2.08543e-06
6.70598e-05
2.61485e-06
6.6698e-05
3.25035e-06
6.62488e-05
4.04445e-06
6.56869e-05
5.04784e-06
6.49511e-05
6.43719e-06
6.4149e-05
7.83943e-06
6.2921e-05
1.0511e-05
6.14146e-05
1.32338e-05
5.92756e-05
1.97775e-05
5.63912e-05
2.63705e-05
5.16948e-05
4.30752e-05
4.51654e-05
5.94859e-05
3.41412e-05
0.000100589
2.04714e-05
0.000122579
0.000181271
6.81687e-05
2.0144e-07
6.81153e-05
5.44783e-07
6.80318e-05
8.26534e-07
6.79184e-05
1.13261e-06
6.77699e-05
1.47176e-06
6.75836e-05
1.86883e-06
6.73507e-05
2.31698e-06
6.70601e-05
2.90536e-06
6.66984e-05
3.6114e-06
6.62492e-05
4.49371e-06
6.56875e-05
5.60862e-06
6.49567e-05
7.14891e-06
6.41388e-05
8.71697e-06
6.29057e-05
1.16983e-05
6.13949e-05
1.47436e-05
5.92979e-05
2.18841e-05
5.63974e-05
2.92705e-05
5.18439e-05
4.76285e-05
4.53465e-05
6.59831e-05
3.43708e-05
0.000111565
2.06376e-05
0.000136312
0.000201908
6.81687e-05
2.2162e-07
6.81153e-05
5.99174e-07
6.80317e-05
9.09151e-07
6.79183e-05
1.24586e-06
6.77698e-05
1.61877e-06
6.75834e-05
2.05564e-06
6.73506e-05
2.54864e-06
6.70599e-05
3.19584e-06
6.66982e-05
3.97247e-06
6.6249e-05
4.94303e-06
6.56868e-05
6.16999e-06
6.49509e-05
7.86711e-06
6.41206e-05
9.6188e-06
6.28984e-05
1.2857e-05
6.13839e-05
1.62535e-05
5.93274e-05
2.39478e-05
5.64212e-05
3.21768e-05
5.20189e-05
5.20308e-05
4.55597e-05
7.24421e-05
3.46449e-05
0.00012248
2.08357e-05
0.000150121
0.000222744
6.81687e-05
2.41792e-07
6.81153e-05
6.53532e-07
6.80318e-05
9.91707e-07
6.79184e-05
1.35899e-06
6.777e-05
1.76561e-06
6.75837e-05
2.24226e-06
6.73509e-05
2.78014e-06
6.70602e-05
3.48634e-06
6.66986e-05
4.3334e-06
6.62496e-05
5.39219e-06
6.56877e-05
6.73097e-06
6.49565e-05
8.58086e-06
6.40966e-05
1.05266e-05
6.28938e-05
1.4032e-05
6.13802e-05
1.77696e-05
5.93537e-05
2.59771e-05
5.64563e-05
3.50739e-05
5.2182e-05
5.6305e-05
4.57763e-05
7.88478e-05
3.49483e-05
0.000133308
2.10644e-05
0.000164005
0.000243808
6.81687e-05
2.61961e-07
6.81153e-05
7.07868e-07
6.80318e-05
1.07433e-06
6.79184e-05
1.47223e-06
6.77699e-05
1.91256e-06
6.75835e-05
2.42902e-06
6.73507e-05
3.01179e-06
6.70601e-05
3.77683e-06
6.66986e-05
4.69421e-06
6.62497e-05
5.84121e-06
6.56866e-05
7.29331e-06
6.49508e-05
9.30125e-06
6.40694e-05
1.14623e-05
6.29011e-05
1.51708e-05
6.13817e-05
1.92852e-05
5.93735e-05
2.79876e-05
5.64913e-05
3.79562e-05
5.23131e-05
6.04833e-05
4.59779e-05
8.5183e-05
3.52658e-05
0.00014402
2.13206e-05
0.00017795
0.000265129
6.81687e-05
2.82121e-07
6.81154e-05
7.62171e-07
6.80318e-05
1.1569e-06
6.79185e-05
1.58534e-06
6.77701e-05
2.05933e-06
6.75838e-05
2.61557e-06
6.73511e-05
3.24325e-06
6.70604e-05
4.06736e-06
6.6699e-05
5.05492e-06
6.62504e-05
6.28994e-06
6.56854e-05
7.85743e-06
6.49511e-05
1.0022e-05
6.40611e-05
1.23751e-05
6.29064e-05
1.63195e-05
6.13835e-05
2.08108e-05
5.93865e-05
2.99851e-05
5.652e-05
4.08225e-05
5.24125e-05
6.45908e-05
4.6158e-05
9.14374e-05
3.5586e-05
0.000154592
2.16e-05
0.000191936
0.000286729
6.81687e-05
3.02277e-07
6.81154e-05
8.16452e-07
6.80318e-05
1.23954e-06
6.79184e-05
1.69857e-06
6.77699e-05
2.20622e-06
6.75836e-05
2.80228e-06
6.73509e-05
3.47487e-06
6.70602e-05
4.35788e-06
6.66989e-05
5.4155e-06
6.62504e-05
6.73859e-06
6.56813e-05
8.42585e-06
6.49431e-05
1.07492e-05
6.40556e-05
1.32858e-05
6.29089e-05
1.74541e-05
6.13848e-05
2.23323e-05
5.93946e-05
3.19762e-05
5.65415e-05
4.36757e-05
5.24876e-05
6.86447e-05
4.63167e-05
9.76083e-05
3.5902e-05
0.000165007
2.18983e-05
0.00020594
0.000308627
6.81687e-05
3.22422e-07
6.81154e-05
8.70702e-07
6.80319e-05
1.32213e-06
6.79185e-05
1.81166e-06
6.77701e-05
2.35294e-06
6.75839e-05
2.98877e-06
6.73512e-05
3.70629e-06
6.70605e-05
4.64847e-06
6.66992e-05
5.77617e-06
6.62504e-05
7.18748e-06
6.56737e-05
9.0018e-06
6.49418e-05
1.14731e-05
6.40532e-05
1.41783e-05
6.29092e-05
1.8599e-05
6.13856e-05
2.38582e-05
5.93994e-05
3.39625e-05
5.65569e-05
4.65181e-05
5.2546e-05
7.26555e-05
4.64567e-05
0.000103698
3.62102e-05
0.000175253
2.22117e-05
0.000219938
0.000330839
6.81687e-05
3.42562e-07
6.81154e-05
9.24929e-07
6.80318e-05
1.40481e-06
6.79184e-05
1.92489e-06
6.777e-05
2.49979e-06
6.75837e-05
3.17542e-06
6.7351e-05
3.93789e-06
6.70603e-05
4.93903e-06
6.66989e-05
6.13686e-06
6.62501e-05
7.63644e-06
6.56619e-05
9.58931e-06
6.4944e-05
1.21865e-05
6.40509e-05
1.50814e-05
6.29093e-05
1.97343e-05
6.13863e-05
2.5379e-05
5.94022e-05
3.59471e-05
5.65677e-05
4.93528e-05
5.25933e-05
7.663e-05
4.65815e-05
0.000109709
3.65097e-05
0.000185325
2.25373e-05
0.000233911
0.000353376
6.81687e-05
3.62692e-07
6.81154e-05
9.79125e-07
6.80319e-05
1.48742e-06
6.79186e-05
2.03795e-06
6.77702e-05
2.64644e-06
6.7584e-05
3.36183e-06
6.73514e-05
4.16928e-06
6.70606e-05
5.22964e-06
6.66991e-05
6.49775e-06
6.62504e-05
8.08529e-06
6.56513e-05
1.01877e-05
6.49474e-05
1.28878e-05
6.40495e-05
1.59782e-05
6.29092e-05
2.08772e-05
6.13869e-05
2.69032e-05
5.94038e-05
3.793e-05
5.65756e-05
5.21809e-05
5.26334e-05
8.05721e-05
4.66946e-05
0.000115648
3.68005e-05
0.000195219
2.2873e-05
0.000247838
0.000376249
6.81687e-05
3.82815e-07
6.81154e-05
1.0333e-06
6.80318e-05
1.57013e-06
6.79184e-05
2.15117e-06
6.77701e-05
2.79326e-06
6.75838e-05
3.54844e-06
6.73512e-05
4.40086e-06
6.70605e-05
5.52016e-06
6.6699e-05
6.85863e-06
6.62498e-05
8.53456e-06
6.5645e-05
1.0792e-05
6.49489e-05
1.35829e-05
6.40486e-05
1.68838e-05
6.29092e-05
2.20122e-05
6.13875e-05
2.8423e-05
5.94047e-05
3.99132e-05
5.65816e-05
5.50041e-05
5.26695e-05
8.44842e-05
4.67992e-05
0.000121519
3.7084e-05
0.000204934
2.32174e-05
0.000261705
0.000399467
6.81687e-05
4.02927e-07
6.81154e-05
1.08744e-06
6.80319e-05
1.65277e-06
6.79186e-05
2.26422e-06
6.77703e-05
2.93986e-06
6.75842e-05
3.73478e-06
6.73516e-05
4.63221e-06
6.70609e-05
5.81069e-06
6.66993e-05
7.21953e-06
6.62461e-05
8.98792e-06
6.56447e-05
1.13929e-05
6.49493e-05
1.42776e-05
6.40483e-05
1.77825e-05
6.29093e-05
2.31539e-05
6.13882e-05
2.99458e-05
5.94054e-05
4.18959e-05
5.65868e-05
5.78226e-05
5.27037e-05
8.83672e-05
4.68981e-05
0.000127324
3.73619e-05
0.00021447
2.357e-05
0.000275497
0.000423037
6.81687e-05
4.23033e-07
6.81154e-05
1.14156e-06
6.80319e-05
1.73552e-06
6.79185e-05
2.37743e-06
6.77701e-05
3.08663e-06
6.75839e-05
3.92133e-06
6.73513e-05
4.86376e-06
6.70607e-05
6.10117e-06
6.66995e-05
7.58006e-06
6.62371e-05
9.45044e-06
6.56492e-05
1.19807e-05
6.49492e-05
1.49774e-05
6.40483e-05
1.86872e-05
6.29096e-05
2.4289e-05
6.13892e-05
3.14645e-05
5.94063e-05
4.38792e-05
5.65921e-05
6.06369e-05
5.27377e-05
9.22215e-05
4.69938e-05
0.000133068
3.76361e-05
0.000223828
2.39307e-05
0.000289202
0.000446967
6.81687e-05
4.43126e-07
6.81154e-05
1.19565e-06
6.80319e-05
1.8182e-06
6.79186e-05
2.49045e-06
6.77704e-05
3.23318e-06
6.75843e-05
4.10762e-06
6.73518e-05
5.09502e-06
6.70611e-05
6.39175e-06
6.67003e-05
7.94017e-06
6.62273e-05
9.92357e-06
6.56544e-05
1.25534e-05
6.49491e-05
1.56824e-05
6.40486e-05
1.95854e-05
6.29101e-05
2.54301e-05
6.13905e-05
3.29856e-05
5.94077e-05
4.58619e-05
5.65982e-05
6.34463e-05
5.27728e-05
9.60468e-05
4.70882e-05
0.000138753
3.79088e-05
0.000233007
2.42997e-05
0.000302811
0.000471267
6.81687e-05
4.63213e-07
6.81154e-05
1.24972e-06
6.80319e-05
1.90099e-06
6.79185e-05
2.60366e-06
6.77702e-05
3.37992e-06
6.7584e-05
4.29413e-06
6.73516e-05
5.32646e-06
6.70608e-05
6.6823e-06
6.67007e-05
8.29974e-06
6.62199e-05
1.04045e-05
6.56577e-05
1.31155e-05
6.49492e-05
1.63908e-05
6.4049e-05
2.04888e-05
6.29108e-05
2.65651e-05
6.13923e-05
3.45025e-05
5.94102e-05
4.78443e-05
5.66057e-05
6.62509e-05
5.28097e-05
9.98429e-05
4.71826e-05
0.00014438
3.81822e-05
0.000242008
2.46779e-05
0.000316316
0.000495945
6.81687e-05
4.83288e-07
6.81155e-05
1.30375e-06
6.8032e-05
1.98369e-06
6.79187e-05
2.71665e-06
6.77705e-05
3.52641e-06
6.75844e-05
4.48035e-06
6.73521e-05
5.55763e-06
6.70613e-05
6.97292e-06
6.67014e-05
8.65904e-06
6.62157e-05
1.08902e-05
6.56592e-05
1.3672e-05
6.49494e-05
1.71004e-05
6.40496e-05
2.13863e-05
6.29118e-05
2.77055e-05
6.13946e-05
3.60212e-05
5.9414e-05
4.98248e-05
5.66152e-05
6.90495e-05
5.28489e-05
0.000103609
4.72784e-05
0.00014995
3.84588e-05
0.000250827
2.50664e-05
0.000329708
0.000521011
6.81687e-05
5.03356e-07
6.81154e-05
1.35777e-06
6.80319e-05
2.06652e-06
6.79185e-05
2.82985e-06
6.77703e-05
3.67311e-06
6.75841e-05
4.66681e-06
6.73518e-05
5.78904e-06
6.70611e-05
7.26338e-06
6.67013e-05
9.01826e-06
6.62133e-05
1.13783e-05
6.56598e-05
1.42254e-05
6.49498e-05
1.78104e-05
6.40504e-05
2.22886e-05
6.29131e-05
2.88398e-05
6.13976e-05
3.75351e-05
5.94194e-05
5.18033e-05
5.66269e-05
7.18421e-05
5.28905e-05
0.000107346
4.73762e-05
0.000155464
3.87406e-05
0.000259463
2.54663e-05
0.000342982
0.000546477
6.81687e-05
5.23412e-07
6.81155e-05
1.41175e-06
6.8032e-05
2.14926e-06
6.79187e-05
2.94282e-06
6.77706e-05
3.81956e-06
6.75846e-05
4.85294e-06
6.73523e-05
6.02019e-06
6.70617e-05
7.55374e-06
6.67003e-05
9.37905e-06
6.6213e-05
1.18657e-05
6.56602e-05
1.47783e-05
6.49503e-05
1.85201e-05
6.40513e-05
2.31855e-05
6.29147e-05
2.99788e-05
6.14014e-05
3.90498e-05
5.94265e-05
5.3778e-05
5.66411e-05
7.46274e-05
5.29345e-05
0.000111052
4.74766e-05
0.000160922
3.903e-05
0.00026791
2.58791e-05
0.000356133
0.000572356
6.81687e-05
5.4346e-07
6.81155e-05
1.46572e-06
6.80319e-05
2.23213e-06
6.79185e-05
3.05601e-06
6.77704e-05
3.96624e-06
6.75843e-05
5.03931e-06
6.73519e-05
6.25164e-06
6.70617e-05
7.84375e-06
6.66949e-05
9.74534e-06
6.62159e-05
1.23447e-05
6.56605e-05
1.53336e-05
6.49509e-05
1.92297e-05
6.40523e-05
2.40867e-05
6.29167e-05
3.11117e-05
6.1406e-05
4.05589e-05
5.94355e-05
5.57488e-05
5.66578e-05
7.74052e-05
5.2981e-05
0.000114729
4.75799e-05
0.000166324
3.93289e-05
0.000276161
2.63064e-05
0.000369156
0.000598663
6.81687e-05
5.63497e-07
6.81155e-05
1.51965e-06
6.8032e-05
2.3149e-06
6.79188e-05
3.16894e-06
6.77707e-05
4.11264e-06
6.75848e-05
5.22533e-06
6.73524e-05
6.48285e-06
6.70626e-05
8.13342e-06
6.66876e-05
1.01197e-05
6.62209e-05
1.28115e-05
6.56609e-05
1.58936e-05
6.49517e-05
1.99389e-05
6.40535e-05
2.49827e-05
6.2919e-05
3.22485e-05
6.14115e-05
4.20679e-05
5.94463e-05
5.77139e-05
5.66771e-05
8.01743e-05
5.303e-05
0.000118376
4.76864e-05
0.000171667
3.96391e-05
0.000284208
2.67497e-05
0.000382045
0.000625413
6.81687e-05
5.83526e-07
6.81155e-05
1.57356e-06
6.80319e-05
2.39781e-06
6.79186e-05
3.28211e-06
6.77704e-05
4.2593e-06
6.75844e-05
5.4116e-06
6.7352e-05
6.71441e-06
6.70626e-05
8.42264e-06
6.66815e-05
1.05003e-05
6.62246e-05
1.32684e-05
6.56614e-05
1.64568e-05
6.49525e-05
2.06478e-05
6.40549e-05
2.58827e-05
6.29218e-05
3.33788e-05
6.14179e-05
4.35704e-05
5.94587e-05
5.96733e-05
5.66989e-05
8.29341e-05
5.30813e-05
0.000121994
4.77959e-05
0.000176953
3.99619e-05
0.000292042
2.72105e-05
0.000394797
0.000652623
6.81687e-05
6.03543e-07
6.81155e-05
1.62744e-06
6.8032e-05
2.48062e-06
6.79188e-05
3.39502e-06
6.77708e-05
4.40566e-06
6.75849e-05
5.5975e-06
6.73526e-05
6.94567e-06
6.70634e-05
8.7116e-06
6.66779e-05
1.08854e-05
6.62271e-05
1.37191e-05
6.5662e-05
1.70219e-05
6.49533e-05
2.13564e-05
6.40564e-05
2.67776e-05
6.2925e-05
3.45126e-05
6.1425e-05
4.50718e-05
5.94727e-05
6.16255e-05
5.67233e-05
8.56835e-05
5.31351e-05
0.000125582
4.79084e-05
0.000182179
4.02981e-05
0.000299652
2.769e-05
0.000407405
0.000680313
6.81687e-05
6.23554e-07
6.81155e-05
1.68131e-06
6.8032e-05
2.56356e-06
6.79186e-05
3.50817e-06
6.77705e-05
4.55228e-06
6.75846e-05
5.78368e-06
6.73522e-05
7.17724e-06
6.70634e-05
9.00029e-06
6.66754e-05
1.12729e-05
6.62289e-05
1.41656e-05
6.56627e-05
1.75882e-05
6.49543e-05
2.20648e-05
6.40581e-05
2.76762e-05
6.29286e-05
3.56392e-05
6.14329e-05
4.65659e-05
5.94882e-05
6.35705e-05
5.67502e-05
8.84216e-05
5.31914e-05
0.00012914
4.80237e-05
0.000187347
4.06482e-05
0.000307028
2.8189e-05
0.000419864
0.000708502
6.81687e-05
6.43553e-07
6.81155e-05
1.73513e-06
6.80321e-05
2.64639e-06
6.79189e-05
3.62104e-06
6.77709e-05
4.69859e-06
6.75851e-05
5.96948e-06
6.73529e-05
7.40845e-06
6.7064e-05
9.28894e-06
6.66742e-05
1.16621e-05
6.62304e-05
1.46094e-05
6.56634e-05
1.81552e-05
6.49553e-05
2.27728e-05
6.40599e-05
2.85696e-05
6.29326e-05
3.6769e-05
6.14416e-05
4.80584e-05
5.95052e-05
6.55068e-05
5.67797e-05
9.11469e-05
5.32504e-05
0.00013267
4.81416e-05
0.000192456
4.1012e-05
0.000314157
2.87082e-05
0.000432168
0.00073721
6.81687e-05
6.63544e-07
6.81155e-05
1.78895e-06
6.8032e-05
2.72937e-06
6.79187e-05
3.73418e-06
6.77706e-05
4.84518e-06
6.75847e-05
6.1556e-06
6.73525e-05
7.63992e-06
6.70638e-05
9.57751e-06
6.66734e-05
1.2052e-05
6.62317e-05
1.50511e-05
6.56643e-05
1.87226e-05
6.49565e-05
2.34806e-05
6.40619e-05
2.94664e-05
6.29369e-05
3.78912e-05
6.14508e-05
4.95428e-05
5.95234e-05
6.74344e-05
5.68118e-05
9.38586e-05
5.33121e-05
0.000136169
4.82621e-05
0.000197506
4.13892e-05
0.00032103
2.9248e-05
0.000444309
0.000766458
6.81687e-05
6.83526e-07
6.81156e-05
1.84273e-06
6.80321e-05
2.81222e-06
6.79189e-05
3.84701e-06
6.7771e-05
4.99143e-06
6.75853e-05
6.34134e-06
6.73533e-05
7.87093e-06
6.70643e-05
9.86627e-06
6.66734e-05
1.24425e-05
6.6233e-05
1.54915e-05
6.56652e-05
1.92904e-05
6.49576e-05
2.41881e-05
6.40641e-05
3.0358e-05
6.29415e-05
3.90164e-05
6.14607e-05
5.10251e-05
5.95429e-05
6.93521e-05
5.68464e-05
9.65551e-05
5.33766e-05
0.000139639
4.83853e-05
0.000202497
4.17794e-05
0.000327636
2.98084e-05
0.00045628
0.000796266
6.81687e-05
7.03501e-07
6.81155e-05
1.89651e-06
6.8032e-05
2.89522e-06
6.79187e-05
3.96013e-06
6.77707e-05
5.13797e-06
6.75849e-05
6.52743e-06
6.73529e-05
8.10216e-06
6.70639e-05
1.01552e-05
6.66732e-05
1.28327e-05
6.62343e-05
1.59304e-05
6.56662e-05
1.98585e-05
6.49589e-05
2.48954e-05
6.40664e-05
3.12527e-05
6.29464e-05
4.01332e-05
6.14711e-05
5.24988e-05
5.95637e-05
7.12598e-05
5.68835e-05
9.92353e-05
5.34443e-05
0.000143078
4.85114e-05
0.00020743
4.21823e-05
0.000333965
3.03897e-05
0.000468073
0.000826656
6.81687e-05
7.23467e-07
6.81156e-05
1.95025e-06
6.80321e-05
2.97809e-06
6.7919e-05
4.07292e-06
6.77712e-05
5.28413e-06
6.75854e-05
6.71312e-06
6.73538e-05
8.33284e-06
6.70641e-05
1.04447e-05
6.66737e-05
1.32228e-05
6.62355e-05
1.63686e-05
6.56672e-05
2.04268e-05
6.49602e-05
2.56022e-05
6.40688e-05
3.21422e-05
6.29516e-05
4.1253e-05
6.14821e-05
5.39698e-05
5.95856e-05
7.31562e-05
5.69232e-05
0.000101898
5.35152e-05
0.000146486
4.86408e-05
0.000212304
4.25977e-05
0.000340008
3.09919e-05
0.000479678
0.000857648
6.81687e-05
7.43427e-07
6.81156e-05
2.00398e-06
6.80321e-05
3.06111e-06
6.79188e-05
4.18602e-06
6.77709e-05
5.43059e-06
6.7585e-05
6.89921e-06
6.73535e-05
8.56366e-06
6.70607e-05
1.07373e-05
6.6676e-05
1.36073e-05
6.62367e-05
1.68078e-05
6.56683e-05
2.09953e-05
6.49616e-05
2.63089e-05
6.40714e-05
3.30346e-05
6.29571e-05
4.23641e-05
6.14936e-05
5.54317e-05
5.96087e-05
7.50413e-05
5.69654e-05
0.000104541
5.35895e-05
0.000149862
4.87738e-05
0.00021712
4.30257e-05
0.000345757
3.16154e-05
0.000491089
0.000889263
6.81687e-05
7.63378e-07
6.81156e-05
2.05767e-06
6.80322e-05
3.144e-06
6.79191e-05
4.29876e-06
6.77713e-05
5.57666e-06
6.75856e-05
7.08489e-06
6.73544e-05
8.79386e-06
6.70514e-05
1.10402e-05
6.66847e-05
1.39738e-05
6.62379e-05
1.72547e-05
6.56694e-05
2.15638e-05
6.49631e-05
2.70151e-05
6.40741e-05
3.39217e-05
6.29629e-05
4.34781e-05
6.15055e-05
5.68907e-05
5.96329e-05
7.69138e-05
5.70101e-05
0.000107164
5.36675e-05
0.000153205
4.8911e-05
0.000221876
4.34668e-05
0.000351201
3.22607e-05
0.000502295
0.000921524
6.81687e-05
7.83323e-07
6.81156e-05
2.11136e-06
6.80321e-05
3.22703e-06
6.79188e-05
4.41185e-06
6.7771e-05
5.72305e-06
6.75852e-05
7.27095e-06
6.7354e-05
9.02437e-06
6.70444e-05
1.13497e-05
6.66911e-05
1.4327e-05
6.6239e-05
1.77068e-05
6.56705e-05
2.21323e-05
6.49646e-05
2.7721e-05
6.40769e-05
3.48117e-05
6.29688e-05
4.4583e-05
6.1518e-05
5.83398e-05
5.96581e-05
7.87739e-05
5.70571e-05
0.000109765
5.37495e-05
0.000156513
4.90525e-05
0.000226573
4.39214e-05
0.000356332
3.29285e-05
0.000513288
0.000954452
6.81687e-05
8.03259e-07
6.81156e-05
2.165e-06
6.80322e-05
3.30993e-06
6.79191e-05
4.52455e-06
6.77715e-05
5.86905e-06
6.75859e-05
7.45651e-06
6.73548e-05
9.2545e-06
6.70426e-05
1.16617e-05
6.66934e-05
1.46762e-05
6.62401e-05
1.81602e-05
6.56717e-05
2.27006e-05
6.49662e-05
2.84264e-05
6.40798e-05
3.5696e-05
6.2975e-05
4.56907e-05
6.15309e-05
5.97857e-05
5.96844e-05
8.06202e-05
5.71063e-05
0.000112343
5.38358e-05
0.000159783
4.91985e-05
0.000231211
4.43894e-05
0.000361141
3.36193e-05
0.000524058
0.000988072
6.81687e-05
8.23195e-07
6.81156e-05
2.21865e-06
6.80321e-05
3.39296e-06
6.79189e-05
4.63756e-06
6.77711e-05
6.01537e-06
6.75856e-05
7.64231e-06
6.73529e-05
9.48658e-06
6.70421e-05
1.19725e-05
6.66942e-05
1.50241e-05
6.6241e-05
1.86134e-05
6.56729e-05
2.32688e-05
6.49678e-05
2.91315e-05
6.40828e-05
3.65837e-05
6.29814e-05
4.67885e-05
6.15442e-05
6.12208e-05
5.97117e-05
8.2453e-05
5.71576e-05
0.000114897
5.39266e-05
0.000163014
4.93488e-05
0.000235788
4.48694e-05
0.00036562
3.43325e-05
0.000534595
0.0010224
6.81687e-05
8.43119e-07
6.81156e-05
2.27225e-06
6.80322e-05
3.47588e-06
6.79192e-05
4.75021e-06
6.77714e-05
6.16148e-06
6.75866e-05
7.82715e-06
6.73433e-05
9.72896e-06
6.70474e-05
1.22683e-05
6.66947e-05
1.53768e-05
6.62419e-05
1.90662e-05
6.5674e-05
2.38366e-05
6.49695e-05
2.9836e-05
6.40859e-05
3.7465e-05
6.2988e-05
4.78896e-05
6.15579e-05
6.26528e-05
5.97399e-05
8.4271e-05
5.72109e-05
0.000117426
5.40224e-05
0.000166203
4.9503e-05
0.000240308
4.53569e-05
0.000369766
3.50649e-05
0.000544887
0.00105747
6.81687e-05
8.63034e-07
6.81156e-05
2.32584e-06
6.80322e-05
3.55895e-06
6.7919e-05
4.86318e-06
6.7771e-05
6.30804e-06
6.75865e-05
8.0119e-06
6.7335e-05
9.9799e-06
6.70515e-05
1.25519e-05
6.66949e-05
1.57335e-05
6.62426e-05
1.95185e-05
6.56752e-05
2.4404e-05
6.49711e-05
3.054e-05
6.4089e-05
3.83497e-05
6.29948e-05
4.89802e-05
6.15721e-05
6.40732e-05
5.97689e-05
8.60744e-05
5.72659e-05
0.000119929
5.41236e-05
0.000169345
4.96606e-05
0.000244771
4.58424e-05
0.000373585
3.58087e-05
0.00055492
0.00109328
6.81686e-05
8.82918e-07
6.81156e-05
2.37939e-06
6.80323e-05
3.64181e-06
6.79194e-05
4.97561e-06
6.77717e-05
6.45391e-06
6.75875e-05
8.19603e-06
6.73332e-05
1.02333e-05
6.70524e-05
1.28326e-05
6.6695e-05
1.60909e-05
6.62432e-05
1.99702e-05
6.56763e-05
2.49709e-05
6.49728e-05
3.12434e-05
6.40922e-05
3.9228e-05
6.30017e-05
5.00739e-05
6.15866e-05
6.54903e-05
5.97987e-05
8.78622e-05
5.73223e-05
0.000122405
5.42313e-05
0.000172436
4.9821e-05
0.000249181
4.63229e-05
0.000377083
3.66434e-05
0.0005646
0.00112992
-2.87217e-06
2.87206e-06
-6.06197e-06
3.18978e-06
-7.07887e-06
1.01685e-06
-5.89628e-06
-1.18263e-06
-4.32845e-06
-1.56797e-06
-3.329e-06
-9.99762e-07
-2.88983e-06
-4.39457e-07
-2.7953e-06
-9.47901e-08
-2.69006e-06
-1.06954e-07
-2.61174e-06
-8.03669e-08
-2.59915e-06
-3.52722e-08
-2.32975e-06
-2.43659e-07
-1.63386e-06
-6.89549e-07
-6.25817e-07
-1.00438e-06
7.74497e-07
-1.40325e-06
2.9849e-06
-2.21574e-06
6.34604e-06
-3.36483e-06
1.05729e-05
-4.22681e-06
1.49333e-05
-4.35758e-06
1.89057e-05
-3.97118e-06
2.24582e-05
-3.54784e-06
2.56913e-05
-3.23597e-06
2.87098e-05
-3.01916e-06
3.16148e-05
-2.9043e-06
3.44984e-05
-2.88168e-06
3.75356e-05
-3.03609e-06
4.03901e-05
-2.85416e-06
4.25767e-05
-2.19087e-06
5.05584e-05
-7.99731e-06
6.22952e-05
-1.17268e-05
6.70677e-05
-4.77151e-06
6.73649e-05
-2.97612e-07
6.73907e-05
-2.57314e-08
6.75049e-05
-1.14231e-07
-6.74043e-08
-2.81211e-06
5.68398e-06
-5.98216e-06
6.35977e-06
-6.99078e-06
2.02539e-06
-5.8164e-06
-2.35707e-06
-4.25065e-06
-3.13397e-06
-3.25856e-06
-1.99245e-06
-2.82472e-06
-8.73818e-07
-2.7413e-06
-1.78714e-07
-2.64898e-06
-2.0247e-07
-2.58696e-06
-1.46307e-07
-2.59522e-06
-6.35408e-08
-2.35105e-06
-4.45361e-07
-1.65966e-06
-1.36851e-06
-5.91733e-07
-2.06476e-06
8.78529e-07
-2.87928e-06
3.0684e-06
-4.41648e-06
6.30911e-06
-6.6131e-06
1.04258e-05
-8.34335e-06
1.47622e-05
-8.68806e-06
1.8784e-05
-7.99055e-06
2.23955e-05
-7.15043e-06
2.56606e-05
-6.50643e-06
2.8688e-05
-6.04796e-06
3.15835e-05
-5.79851e-06
3.44434e-05
-5.73796e-06
3.74539e-05
-6.04456e-06
4.03293e-05
-5.72897e-06
4.24691e-05
-4.33874e-06
5.00944e-05
-1.56513e-05
6.18522e-05
-2.34658e-05
6.70225e-05
-9.93995e-06
6.73753e-05
-6.513e-07
6.73943e-05
-4.46078e-08
6.7506e-05
-2.25896e-07
-1.34675e-07
-2.74479e-06
8.4286e-06
-5.88874e-06
9.50367e-06
-6.87992e-06
3.0165e-06
-5.6959e-06
-3.54117e-06
-4.13799e-06
-4.69212e-06
-3.16039e-06
-2.97062e-06
-2.7394e-06
-1.2953e-06
-2.66944e-06
-2.4912e-07
-2.59015e-06
-2.84741e-07
-2.5492e-06
-1.909e-07
-2.58641e-06
-6.38539e-08
-2.36563e-06
-6.21363e-07
-1.65397e-06
-2.06748e-06
-5.01852e-07
-3.20951e-06
1.03654e-06
-4.42383e-06
3.17869e-06
-6.57021e-06
6.28182e-06
-9.72404e-06
1.02937e-05
-1.23552e-05
1.46213e-05
-1.30099e-05
1.86981e-05
-1.2065e-05
2.23715e-05
-1.08147e-05
2.56708e-05
-9.81139e-06
2.87046e-05
-9.08298e-06
3.15898e-05
-8.68242e-06
3.44254e-05
-8.56975e-06
3.74071e-05
-9.02429e-06
4.02963e-05
-8.61746e-06
4.23998e-05
-6.45029e-06
4.9691e-05
-2.29715e-05
6.14476e-05
-3.52035e-05
6.69786e-05
-1.54693e-05
6.73851e-05
-1.05852e-06
6.7398e-05
-5.74489e-08
6.75071e-05
-3.3499e-07
-2.0179e-07
-2.66623e-06
1.10946e-05
-5.78195e-06
1.26193e-05
-6.74293e-06
3.97739e-06
-5.53777e-06
-4.74642e-06
-3.99053e-06
-6.23961e-06
-3.03533e-06
-3.92642e-06
-2.63207e-06
-1.69904e-06
-2.57673e-06
-3.04965e-07
-2.51103e-06
-3.53497e-07
-2.49368e-06
-2.12142e-07
-2.56097e-06
-2.86264e-08
-2.35935e-06
-7.82482e-07
-1.61812e-06
-2.79407e-06
-3.71366e-07
-4.44704e-06
1.2423e-06
-6.04475e-06
3.3346e-06
-8.6772e-06
6.28733e-06
-1.2687e-05
1.01831e-05
-1.62508e-05
1.45029e-05
-1.7322e-05
1.86442e-05
-1.62033e-05
2.2387e-05
-1.45471e-05
2.57238e-05
-1.31545e-05
2.87641e-05
-1.21249e-05
3.16376e-05
-1.15545e-05
3.44469e-05
-1.1375e-05
3.73957e-05
-1.19709e-05
4.02914e-05
-1.15126e-05
4.23683e-05
-8.53601e-06
4.93506e-05
-2.99834e-05
6.10826e-05
-4.69157e-05
6.69356e-05
-2.13205e-05
6.73943e-05
-1.51795e-06
6.74018e-05
-6.48853e-08
6.75084e-05
-4.41571e-07
-2.68688e-07
-2.57623e-06
1.36707e-05
-5.66074e-06
1.57038e-05
-6.57652e-06
4.89308e-06
-5.34018e-06
-5.98285e-06
-3.80835e-06
-7.77168e-06
-2.88368e-06
-4.85167e-06
-2.50295e-06
-2.08021e-06
-2.46276e-06
-3.45584e-07
-2.41122e-06
-4.07826e-07
-2.41832e-06
-2.08646e-07
-2.51474e-06
3.78872e-08
-2.32791e-06
-9.29423e-07
-1.54815e-06
-3.55912e-06
-1.94467e-07
-5.79199e-06
1.50794e-06
-7.7548e-06
3.55463e-06
-1.07395e-05
6.34286e-06
-1.54861e-05
1.01038e-05
-2.00117e-05
1.44123e-05
-2.16227e-05
1.86285e-05
-2.04166e-05
2.24502e-05
-1.83577e-05
2.58284e-05
-1.65397e-05
2.88751e-05
-1.51732e-05
3.1734e-05
-1.44118e-05
3.45132e-05
-1.41498e-05
3.74234e-05
-1.48787e-05
4.03176e-05
-1.4406e-05
4.23758e-05
-1.06033e-05
4.90709e-05
-3.67088e-05
6.07547e-05
-5.85795e-05
6.68934e-05
-2.74576e-05
6.74028e-05
-2.02811e-06
6.74056e-05
-6.75994e-08
6.75097e-05
-5.4567e-07
-3.35314e-07
-2.47443e-06
1.61449e-05
-5.5236e-06
1.87529e-05
-6.37647e-06
5.74584e-06
-5.09992e-06
-7.2595e-06
-3.59012e-06
-9.28173e-06
-2.70436e-06
-5.73808e-06
-2.35085e-06
-2.43419e-06
-2.32599e-06
-3.70963e-07
-2.28931e-06
-4.47533e-07
-2.32057e-06
-1.81434e-07
-2.44329e-06
1.34861e-07
-2.2665e-06
-1.06925e-06
-1.44056e-06
-4.36767e-06
3.15499e-08
-7.25276e-06
1.84121e-06
-9.57357e-06
3.85712e-06
-1.27756e-05
6.47357e-06
-1.81171e-05
1.00777e-05
-2.36155e-05
1.43658e-05
-2.58997e-05
1.86654e-05
-2.47121e-05
2.25763e-05
-2.22551e-05
2.60005e-05
-1.99723e-05
2.90521e-05
-1.82269e-05
3.18909e-05
-1.72487e-05
3.46337e-05
-1.68877e-05
3.74973e-05
-1.77397e-05
4.03798e-05
-1.72878e-05
4.24255e-05
-1.26594e-05
4.88497e-05
-4.31656e-05
6.04605e-05
-7.01687e-05
6.6852e-05
-3.38472e-05
6.74107e-05
-2.58765e-06
6.74095e-05
-6.62951e-08
6.75112e-05
-6.47367e-07
-4.01607e-07
-2.36029e-06
1.8505e-05
-5.36846e-06
2.1761e-05
-6.13715e-06
6.51442e-06
-4.81193e-06
-8.58484e-06
-3.33307e-06
-1.07608e-05
-2.4948e-06
-6.57695e-06
-2.1732e-06
-2.75623e-06
-2.16361e-06
-3.80998e-07
-2.14248e-06
-4.71457e-07
-2.1969e-06
-1.30865e-07
-2.34174e-06
2.57272e-07
-2.16988e-06
-1.20617e-06
-1.29131e-06
-5.22896e-06
3.10478e-07
-8.84373e-06
2.25084e-06
-1.15234e-05
4.26234e-06
-1.48087e-05
6.7113e-06
-2.05813e-05
1.01389e-05
-2.7043e-05
1.43916e-05
-3.01411e-05
1.87793e-05
-2.90956e-05
2.279e-05
-2.62505e-05
2.6266e-05
-2.34585e-05
2.93197e-05
-2.12826e-05
3.21283e-05
-2.00551e-05
3.48229e-05
-1.95766e-05
3.76278e-05
-2.05416e-05
4.04856e-05
-2.01448e-05
4.25234e-05
-1.47083e-05
4.86872e-05
-4.93644e-05
6.0197e-05
-8.1656e-05
6.68114e-05
-4.04598e-05
6.74178e-05
-3.1949e-06
6.74134e-05
-6.17382e-08
6.75127e-05
-7.46706e-07
-4.67512e-07
-2.23316e-06
2.0738e-05
-5.19264e-06
2.47204e-05
-5.85177e-06
7.17342e-06
-4.47027e-06
-9.96647e-06
-3.03391e-06
-1.21975e-05
-2.25154e-06
-7.36e-06
-1.96638e-06
-3.04187e-06
-1.97168e-06
-3.76281e-07
-1.96647e-06
-4.79849e-07
-2.04238e-06
-5.94469e-08
-2.204e-06
3.98899e-07
-2.03132e-06
-1.34481e-06
-1.0932e-06
-6.14598e-06
6.5248e-07
-1.05749e-05
2.7539e-06
-1.36367e-05
4.79817e-06
-1.68813e-05
7.0957e-06
-2.28997e-05
1.03331e-05
-3.02801e-05
1.45323e-05
-3.43238e-05
1.90079e-05
-3.35652e-05
2.31291e-05
-3.03526e-05
2.6665e-05