/*--------------------------------*- C++ -*----------------------------------*\
| =========                 |                                                 |
| \\      /  F ield         | OpenFOAM: The Open Source CFD Toolbox           |
|  \\    /   O peration     | Version:  v1912                                 |
|   \\  /    A nd           | Website:  www.openfoam.com                      |
|    \\/     M anipulation  |                                                 |
\*---------------------------------------------------------------------------*/
FoamFile
{
    version     2.0;
    format      ascii;
    class       volVectorField;
    location    "340";
    object      U;
}
// * * * * * * * * * * * * * * * * * * * * * * * * * * * * * * * * * * * * * //

dimensions      [0 1 -1 0 0 0 0];


internalField   nonuniform List<vector> 
12441
(
(29.9989 1.68982e-05 0)
(29.9855 5.11767e-05 0)
(29.9569 8.81809e-05 0)
(29.913 0.000135793 0)
(29.8558 0.000198346 0)
(29.7824 0.000282577 0)
(29.6916 0.000393024 0)
(29.5777 0.000554925 0)
(29.4361 0.00077464 0)
(29.2596 0.00108458 0)
(29.0405 0.00151753 0)
(28.7652 0.00216676 0)
(28.4122 0.00299775 0)
(27.9958 0.00445175 0)
(27.4074 0.00625817 0)
(26.6237 0.0112057 0)
(25.594 0.0149137 0)
(23.9462 0.0311262 0)
(21.6239 0.0524304 0)
(17.9616 0.0910241 0)
(12.1827 0.12253 0)
(5.8511 0.197787 0)
(29.9989 5.02407e-05 0)
(29.9854 0.000153025 0)
(29.9568 0.000262767 0)
(29.913 0.00040475 0)
(29.8559 0.000591561 0)
(29.7824 0.000843177 0)
(29.6917 0.00117489 0)
(29.5777 0.00165707 0)
(29.4362 0.0023148 0)
(29.2601 0.00324126 0)
(29.0413 0.00453868 0)
(28.7651 0.00651137 0)
(28.4132 0.00893384 0)
(27.9971 0.0134022 0)
(27.4036 0.0188472 0)
(26.6228 0.033379 0)
(25.5949 0.0473376 0)
(23.9461 0.0892802 0)
(21.6241 0.136925 0)
(17.9598 0.263386 0)
(12.1835 0.360006 0)
(5.85471 0.59066 0)
(29.9989 8.34816e-05 0)
(29.9854 0.000254991 0)
(29.9568 0.00043664 0)
(29.913 0.00067257 0)
(29.8559 0.000983257 0)
(29.7823 0.00140292 0)
(29.6916 0.00195533 0)
(29.5777 0.00275771 0)
(29.4362 0.00385378 0)
(29.2601 0.00539411 0)
(29.0414 0.00756321 0)
(28.7656 0.0108496 0)
(28.4124 0.0148393 0)
(28.0007 0.0223886 0)
(27.4054 0.0314798 0)
(26.6248 0.0546835 0)
(25.5966 0.0805184 0)
(23.9505 0.145598 0)
(21.6274 0.218904 0)
(17.9592 0.433422 0)
(12.1891 0.59401 0)
(5.86268 0.981562 0)
(29.9989 0.000117151 0)
(29.9854 0.000357647 0)
(29.9568 0.000611294 0)
(29.913 0.000941602 0)
(29.8559 0.00137659 0)
(29.7824 0.00196459 0)
(29.6917 0.00273828 0)
(29.5778 0.00386117 0)
(29.4363 0.00539636 0)
(29.2602 0.00755222 0)
(29.0414 0.0105928 0)
(28.7653 0.0151937 0)
(28.4133 0.0207679 0)
(27.9965 0.0313906 0)
(27.4047 0.0441204 0)
(26.6248 0.0760493 0)
(25.5981 0.112944 0)
(23.9551 0.204917 0)
(21.6359 0.325625 0)
(17.9636 0.611482 0)
(12.2011 0.83198 0)
(5.8754 1.37412 0)
(29.9989 0.000150877 0)
(29.9854 0.000460144 0)
(29.9568 0.000785743 0)
(29.913 0.00121042 0)
(29.8559 0.00176954 0)
(29.7824 0.00252567 0)
(29.6917 0.0035205 0)
(29.5778 0.0049639 0)
(29.4363 0.00693803 0)
(29.2601 0.00970893 0)
(29.0415 0.0136212 0)
(28.7657 0.0195376 0)
(28.4123 0.0267077 0)
(28.0005 0.0403795 0)
(27.4065 0.0567826 0)
(26.6261 0.0971926 0)
(25.6009 0.144877 0)
(23.9597 0.264993 0)
(21.6469 0.415147 0)
(17.9738 0.78573 0)
(12.2209 1.06973 0)
(5.89316 1.76796 0)
(29.9989 0.000184594 0)
(29.9854 0.000562545 0)
(29.9569 0.00096016 0)
(29.913 0.00147923 0)
(29.856 0.00216241 0)
(29.7825 0.0030867 0)
(29.6918 0.00430276 0)
(29.5779 0.00606682 0)
(29.4364 0.00847985 0)
(29.2603 0.0118663 0)
(29.0415 0.0166503 0)
(28.7656 0.0238797 0)
(28.414 0.03265 0)
(27.9958 0.0493573 0)
(27.4061 0.0694461 0)
(26.6267 0.118222 0)
(25.603 0.176536 0)
(23.9639 0.324513 0)
(21.6595 0.503106 0)
(17.9906 0.95867 0)
(12.2501 1.30716 0)
(5.91636 2.1629 0)
(29.9989 0.000218304 0)
(29.9854 0.000664884 0)
(29.9569 0.00113456 0)
(29.913 0.00174806 0)
(29.8559 0.00255519 0)
(29.7825 0.00364769 0)
(29.6918 0.00508497 0)
(29.5779 0.00716975 0)
(29.4364 0.0100218 0)
(29.2603 0.0140236 0)
(29.0416 0.0196791 0)
(28.7659 0.0282231 0)
(28.4127 0.0386024 0)
(28.001 0.0583152 0)
(27.4082 0.082107 0)
(26.6283 0.139112 0)
(25.6065 0.207516 0)
(23.9684 0.381551 0)
(21.6765 0.593222 0)
(18.017 1.13171 0)
(12.2909 1.54468 0)
(5.94549 2.55924 0)
(29.9989 0.000252009 0)
(29.9855 0.000767168 0)
(29.9569 0.00130894 0)
(29.913 0.00201684 0)
(29.856 0.00294784 0)
(29.7825 0.00420856 0)
(29.6919 0.00586708 0)
(29.578 0.00827265 0)
(29.4366 0.0115636 0)
(29.2605 0.016181 0)
(29.0418 0.0227087 0)
(28.766 0.0325621 0)
(28.4152 0.0445498 0)
(27.9953 0.0672389 0)
(27.4082 0.0946175 0)
(26.6288 0.159625 0)
(25.6109 0.240052 0)
(23.9739 0.440567 0)
(21.7052 0.684436 0)
(18.059 1.30426 0)
(12.3465 1.78249 0)
(5.98112 2.95745 0)
(29.9989 0.000285709 0)
(29.9855 0.000869397 0)
(29.9569 0.0014833 0)
(29.913 0.00228562 0)
(29.856 0.00334039 0)
(29.7825 0.00476937 0)
(29.6919 0.00664913 0)
(29.578 0.00937553 0)
(29.4366 0.0131055 0)
(29.2604 0.0183384 0)
(29.0418 0.0257375 0)
(28.766 0.0369049 0)
(28.4129 0.0505075 0)
(28.0008 0.0762602 0)
(27.4128 0.107237 0)
(26.6317 0.18055 0)
(25.6189 0.271083 0)
(23.9842 0.499042 0)
(21.756 0.775346 0)
(18.1238 1.47595 0)
(12.4201 2.02086 0)
(6.02389 3.35804 0)
(29.9989 0.000319403 0)
(29.9855 0.000971571 0)
(29.9569 0.00165764 0)
(29.9131 0.00255436 0)
(29.8561 0.00373281 0)
(29.7826 0.00533006 0)
(29.692 0.0074311 0)
(29.5781 0.0104784 0)
(29.4367 0.0146471 0)
(29.2607 0.0204954 0)
(29.0421 0.0287661 0)
(28.7666 0.0412423 0)
(28.4174 0.0564828 0)
(27.9947 0.0850156 0)
(27.416 0.120484 0)
(26.6334 0.201802 0)
(25.6302 0.302607 0)
(24.0055 0.55563 0)
(21.8304 0.865933 0)
(18.2136 1.64703 0)
(12.5139 2.26015 0)
(6.07445 3.76158 0)
(29.9989 0.00035309 0)
(29.9855 0.00107369 0)
(29.9569 0.00183198 0)
(29.913 0.00282309 0)
(29.856 0.00412515 0)
(29.7826 0.0058907 0)
(29.6919 0.008213 0)
(29.5781 0.0115813 0)
(29.4367 0.0161886 0)
(29.2606 0.0226527 0)
(29.0421 0.0317958 0)
(28.7662 0.0455762 0)
(28.4137 0.062532 0)
(27.9935 0.0937583 0)
(27.4191 0.133007 0)
(26.6352 0.221959 0)
(25.6449 0.335149 0)
(24.0402 0.611525 0)
(21.9153 0.956287 0)
(18.3225 1.81744 0)
(12.6284 2.50067 0)
(6.13342 4.16868 0)
(29.9989 0.000386769 0)
(29.9855 0.00117576 0)
(29.9569 0.00200632 0)
(29.9131 0.00309179 0)
(29.8561 0.00451737 0)
(29.7827 0.00645123 0)
(29.6921 0.00899484 0)
(29.5783 0.0126841 0)
(29.4368 0.0177301 0)
(29.2609 0.0248091 0)
(29.0424 0.0348276 0)
(28.7669 0.0499033 0)
(28.4198 0.0685927 0)
(27.9857 0.102745 0)
(27.4199 0.146447 0)
(26.637 0.242409 0)
(25.659 0.367536 0)
(24.0787 0.665779 0)
(21.9949 1.04566 0)
(18.4399 1.98665 0)
(12.7618 2.74253 0)
(6.20127 4.57998 0)
(29.9989 0.000420439 0)
(29.9855 0.00127778 0)
(29.9569 0.00218066 0)
(29.9131 0.00336048 0)
(29.856 0.00490952 0)
(29.7826 0.00701169 0)
(29.692 0.00977662 0)
(29.5782 0.0137869 0)
(29.4368 0.0192706 0)
(29.261 0.0269658 0)
(29.0425 0.0378554 0)
(28.7668 0.0542686 0)
(28.4189 0.0746482 0)
(27.9814 0.111833 0)
(27.4206 0.160129 0)
(26.6391 0.262472 0)
(25.67 0.399425 0)
(24.1119 0.718163 0)
(22.0615 1.1337 0)
(18.5559 2.15408 0)
(12.9106 2.9856 0)
(6.27825 4.99605 0)
(29.9989 0.000454098 0)
(29.9855 0.00137975 0)
(29.9569 0.00235502 0)
(29.9131 0.00362914 0)
(29.8561 0.00530157 0)
(29.7827 0.00757204 0)
(29.6922 0.0105583 0)
(29.5784 0.0148899 0)
(29.4369 0.0208108 0)
(29.2613 0.0291223 0)
(29.0429 0.0408997 0)
(28.7678 0.05863 0)
(28.4239 0.0811134 0)
(27.9775 0.120995 0)
(27.4207 0.173434 0)
(26.641 0.281936 0)
(25.6775 0.43079 0)
(24.1369 0.769059 0)
(22.1149 1.22041 0)
(18.6646 2.31936 0)
(13.0707 3.22956 0)
(6.36435 5.41739 0)
(29.9989 0.000487747 0)
(29.9855 0.00148167 0)
(29.9569 0.0025294 0)
(29.9131 0.00389779 0)
(29.8561 0.00569355 0)
(29.7827 0.00813233 0)
(29.6921 0.01134 0)
(29.5783 0.0159928 0)
(29.4369 0.0223506 0)
(29.2613 0.0312759 0)
(29.043 0.0439629 0)
(28.768 0.0628697 0)
(28.4216 0.0874885 0)
(27.9753 0.129892 0)
(27.4207 0.186587 0)
(26.6424 0.301197 0)
(25.6822 0.461882 0)
(24.1549 0.818951 0)
(22.1578 1.30591 0)
(18.7635 2.48225 0)
(13.2384 3.47403 0)
(6.45931 5.84443 0)
(29.9989 0.000521383 0)
(29.9855 0.00158353 0)
(29.9569 0.0027038 0)
(29.9131 0.00416642 0)
(29.8562 0.00608545 0)
(29.7828 0.0086925 0)
(29.6923 0.0121216 0)
(29.5785 0.0170959 0)
(29.437 0.0238897 0)
(29.2615 0.0334336 0)
(29.043 0.0470352 0)
(28.7678 0.0672395 0)
(28.42 0.0938125 0)
(27.9737 0.138642 0)
(27.4206 0.199666 0)
(26.6434 0.320405 0)
(25.6849 0.492837 0)
(24.1676 0.86818 0)
(22.1931 1.39031 0)
(18.8524 2.6426 0)
(13.4104 3.71861 0)
(6.5627 6.27748 0)
(29.9989 0.000555007 0)
(29.9855 0.00168535 0)
(29.9569 0.00287823 0)
(29.9131 0.00443505 0)
(29.8561 0.0064773 0)
(29.7828 0.00925261 0)
(29.6922 0.0129032 0)
(29.5784 0.0181991 0)
(29.437 0.0254297 0)
(29.2614 0.0355881 0)
(29.0429 0.0501806 0)
(28.7664 0.0716449 0)
(28.418 0.100044 0)
(27.973 0.147342 0)
(27.4205 0.212741 0)
(26.6443 0.339606 0)
(25.6863 0.523704 0)
(24.1768 0.916936 0)
(22.2232 1.47368 0)
(18.9323 2.80031 0)
(13.5846 3.96291 0)
(6.67402 6.71682 0)
(29.9989 0.000588616 0)
(29.9855 0.00178711 0)
(29.9569 0.00305269 0)
(29.9131 0.00470364 0)
(29.8562 0.00686907 0)
(29.7829 0.00981259 0)
(29.6924 0.0136847 0)
(29.5786 0.0193023 0)
(29.4371 0.0269705 0)
(29.2614 0.0377375 0)
(29.0432 0.0533527 0)
(28.7646 0.0760945 0)
(28.4168 0.10618 0)
(27.9726 0.156039 0)
(27.4204 0.225835 0)
(26.645 0.358808 0)
(25.6869 0.554509 0)
(24.1835 0.965323 0)
(22.2501 1.55609 0)
(19.0047 2.9553 0)
(13.7597 4.20658 0)
(6.79274 7.16266 0)
(29.9989 0.000622213 0)
(29.9855 0.00188882 0)
(29.9569 0.00322718 0)
(29.9131 0.00497223 0)
(29.8561 0.00726078 0)
(29.7828 0.0103725 0)
(29.6922 0.0144662 0)
(29.5786 0.0204055 0)
(29.4371 0.0285111 0)
(29.2614 0.039898 0)
(29.0435 0.0565155 0)
(28.7629 0.0804262 0)
(28.4161 0.112312 0)
(27.9725 0.164735 0)
(27.4203 0.238937 0)
(26.6456 0.378014 0)
(25.687 0.585266 0)
(24.1889 1.0134 0)
(22.275 1.6376 0)
(19.071 3.10755 0)
(13.9349 4.44933 0)
(6.91839 7.61519 0)
(29.9989 0.000655794 0)
(29.9855 0.00199049 0)
(29.957 0.00340171 0)
(29.9132 0.0052408 0)
(29.8562 0.00765243 0)
(29.7829 0.0109323 0)
(29.6924 0.0152477 0)
(29.5788 0.0215085 0)
(29.4373 0.0300532 0)
(29.2616 0.0420672 0)
(29.0436 0.0597384 0)
(28.7617 0.0846692 0)
(28.4158 0.118427 0)
(27.9725 0.17345 0)
(27.4203 0.252047 0)
(26.6463 0.397225 0)
(25.6868 0.615986 0)
(24.1935 1.06119 0)
(22.2993 1.71822 0)
(19.1329 3.25704 0)
(14.1101 4.69088 0)
(7.05053 8.07457 0)
(29.9989 0.000689361 0)
(29.9855 0.0020921 0)
(29.9569 0.00357628 0)
(29.9131 0.00550935 0)
(29.8561 0.00804402 0)
(29.7829 0.011492 0)
(29.6923 0.0160291 0)
(29.5787 0.0226111 0)
(29.4373 0.0315951 0)
(29.2619 0.0442526 0)
(29.0429 0.0629729 0)
(28.7608 0.0889018 0)
(28.4156 0.124557 0)
(27.9726 0.182168 0)
(27.4203 0.265154 0)
(26.6471 0.416445 0)
(25.6868 0.646679 0)
(24.198 1.1087 0)
(22.3236 1.79799 0)
(19.1917 3.40375 0)
(14.2857 4.93102 0)
(7.18882 8.54094 0)
(29.9989 0.000722912 0)
(29.9856 0.00219366 0)
(29.957 0.00375088 0)
(29.9132 0.00577788 0)
(29.8562 0.00843555 0)
(29.783 0.0120517 0)
(29.6925 0.0168103 0)
(29.5789 0.0237142 0)
(29.4374 0.0331328 0)
(29.2625 0.046499 0)
(29.0415 0.066164 0)
(28.7603 0.0931442 0)
(28.4157 0.130688 0)
(27.9728 0.190897 0)
(27.4205 0.27826 0)
(26.6481 0.435672 0)
(25.6871 0.677354 0)
(24.2029 1.15591 0)
(22.3485 1.87693 0)
(19.2485 3.54769 0)
(14.4623 5.16956 0)
(7.33304 9.01449 0)
(29.9989 0.000756448 0)
(29.9856 0.00229518 0)
(29.957 0.00392553 0)
(29.9131 0.0060464 0)
(29.8562 0.00882701 0)
(29.7829 0.0126113 0)
(29.6924 0.0175913 0)
(29.5789 0.0248173 0)
(29.4373 0.0346687 0)
(29.2628 0.0487892 0)
(29.0401 0.0693254 0)
(28.76 0.0974135 0)
(28.4158 0.136827 0)
(27.9731 0.199625 0)
(27.4208 0.29136 0)
(26.6492 0.454905 0)
(25.688 0.708011 0)
(24.2085 1.20276 0)
(22.3744 1.95506 0)
(19.3045 3.68886 0)
(14.6408 5.40633 0)
(7.48304 9.49536 0)
(29.9989 0.000789968 0)
(29.9856 0.00239664 0)
(29.957 0.0041002 0)
(29.9132 0.00631489 0)
(29.8563 0.00921842 0)
(29.7831 0.0131707 0)
(29.6926 0.0183723 0)
(29.5791 0.0259207 0)
(29.4375 0.0362012 0)
(29.2633 0.0511089 0)
(29.039 0.0723906 0)
(28.7599 0.101701 0)
(28.4159 0.142965 0)
(27.9735 0.208355 0)
(27.4213 0.304457 0)
(26.6507 0.47414 0)
(25.6898 0.73864 0)
(24.2149 1.24924 0)
(22.4014 2.03239 0)
(19.3603 3.82724 0)
(14.8221 5.64121 0)
(7.63878 9.98376 0)
(29.9989 0.000823472 0)
(29.9856 0.00249806 0)
(29.957 0.00427492 0)
(29.9132 0.00658337 0)
(29.8562 0.00960977 0)
(29.783 0.0137302 0)
(29.6924 0.0191529 0)
(29.579 0.0270241 0)
(29.4375 0.0377305 0)
(29.2632 0.0534089 0)
(29.0383 0.075386 0)
(28.76 0.105998 0)
(28.4162 0.149107 0)
(27.9739 0.217082 0)
(27.422 0.317545 0)
(26.6526 0.493368 0)
(25.6926 0.769213 0)
(24.2223 1.29532 0)
(22.4294 2.10893 0)
(19.4168 3.96279 0)
(15.0075 5.87409 0)
(7.8003 10.4799 0)
(29.9989 0.00085696 0)
(29.9856 0.00259942 0)
(29.957 0.00444968 0)
(29.9132 0.00685182 0)
(29.8563 0.0100011 0)
(29.7832 0.0142894 0)
(29.6927 0.0199338 0)
(29.5793 0.0281261 0)
(29.4379 0.0392754 0)
(29.2631 0.0556897 0)
(29.0379 0.0783511 0)
(28.7601 0.110301 0)
(28.4164 0.155245 0)
(27.9744 0.225807 0)
(27.4228 0.330621 0)
(26.655 0.512576 0)
(25.6964 0.799705 0)
(24.2308 1.34102 0)
(22.4586 2.18469 0)
(19.4745 4.09545 0)
(15.1983 6.10485 0)
(7.96774 10.984 0)
(29.9989 0.000890433 0)
(29.9856 0.00270074 0)
(29.957 0.00462448 0)
(29.9132 0.00712025 0)
(29.8562 0.0103923 0)
(29.7831 0.0148486 0)
(29.6925 0.0207147 0)
(29.5791 0.0292291 0)
(29.438 0.0408285 0)
(29.2624 0.0580705 0)
(29.0377 0.0813227 0)
(28.7603 0.114605 0)
(28.4168 0.161383 0)
(27.975 0.234527 0)
(27.424 0.343681 0)
(26.6578 0.531749 0)
(25.7014 0.830099 0)
(24.2404 1.38635 0)
(22.4889 2.25967 0)
(19.5337 4.22514 0)
(15.3956 6.33342 0)
(8.14132 11.4964 0)
(29.9989 0.000923888 0)
(29.9856 0.00280201 0)
(29.957 0.00479931 0)
(29.9132 0.00738865 0)
(29.8563 0.0107835 0)
(29.7832 0.0154076 0)
(29.6928 0.0214954 0)
(29.5793 0.0303311 0)
(29.4386 0.0423914 0)
(29.2615 0.0604131 0)
(29.0376 0.0843184 0)
(28.7605 0.118909 0)
(28.4171 0.167517 0)
(27.9757 0.243241 0)
(27.4253 0.356718 0)
(26.6611 0.550873 0)
(25.7074 0.86039 0)
(24.2512 1.43131 0)
(22.52 2.33386 0)
(19.5947 4.35174 0)
(15.6006 6.55972 0)
(8.3213 12.0173 0)
(29.9989 0.000957328 0)
(29.9856 0.00290323 0)
(29.957 0.00497418 0)
(29.9132 0.00765703 0)
(29.8562 0.0111747 0)
(29.7831 0.0159664 0)
(29.6926 0.0222768 0)
(29.5792 0.0314286 0)
(29.4388 0.0440085 0)
(29.2606 0.0626098 0)
(29.0376 0.0873404 0)
(28.7608 0.123213 0)
(28.4175 0.173648 0)
(27.9764 0.251947 0)
(27.4269 0.369726 0)
(26.6649 0.569937 0)
(25.7143 0.890576 0)
(24.2632 1.47591 0)
(22.5521 2.40725 0)
(19.6575 4.4751 0)
(15.8143 6.78364 0)
(8.50801 12.547 0)
(29.9988 0.000990752 0)
(29.9856 0.0030044 0)
(29.957 0.00514909 0)
(29.9133 0.00792537 0)
(29.8564 0.0115658 0)
(29.7833 0.016525 0)
(29.6929 0.0230581 0)
(29.5794 0.0325253 0)
(29.4393 0.0456486 0)
(29.26 0.0647804 0)
(29.0378 0.0903818 0)
(28.7611 0.127516 0)
(28.418 0.179775 0)
(27.9773 0.260641 0)
(27.4288 0.3827 0)
(26.6692 0.588933 0)
(25.7222 0.920652 0)
(24.2765 1.52014 0)
(22.5851 2.47983 0)
(19.722 4.59507 0)
(16.0376 7.00511 0)
(8.7018 13.086 0)
(29.9988 0.00102416 0)
(29.9856 0.00310553 0)
(29.957 0.00532403 0)
(29.9132 0.00819368 0)
(29.8563 0.0119569 0)
(29.7832 0.0170835 0)
(29.6928 0.0238393 0)
(29.5793 0.0336218 0)
(29.4394 0.0472975 0)
(29.2596 0.0669428 0)
(29.038 0.0934339 0)
(28.7615 0.131817 0)
(28.4185 0.185898 0)
(27.9783 0.269321 0)
(27.4309 0.395637 0)
(26.6739 0.607856 0)
(25.7309 0.95061 0)
(24.2911 1.56402 0)
(22.619 2.5516 0)
(19.7881 4.71148 0)
(16.2707 7.22404 0)
(8.90303 13.6346 0)
(29.9988 0.00105755 0)
(29.9856 0.00320661 0)
(29.957 0.00549901 0)
(29.9133 0.00846197 0)
(29.8564 0.0123479 0)
(29.7834 0.0176419 0)
(29.6931 0.0246205 0)
(29.5796 0.0347175 0)
(29.4397 0.0489556 0)
(29.2596 0.0690851 0)
(29.0382 0.096492 0)
(28.7618 0.136116 0)
(28.419 0.192016 0)
(27.9793 0.277986 0)
(27.4333 0.408533 0)
(26.679 0.626701 0)
(25.7405 0.980439 0)
(24.3072 1.60754 0)
(22.6538 2.62255 0)
(19.8557 4.82415 0)
(16.5139 7.4403 0)
(9.11205 14.1932 0)
(29.9988 0.00109093 0)
(29.9856 0.00330764 0)
(29.957 0.00567401 0)
(29.9132 0.00873022 0)
(29.8563 0.0127388 0)
(29.7833 0.0182001 0)
(29.6929 0.0254015 0)
(29.5795 0.0358131 0)
(29.4396 0.0506189 0)
(29.2597 0.071213 0)
(29.0386 0.0995535 0)
(28.7622 0.140415 0)
(28.4195 0.198129 0)
(27.9805 0.286633 0)
(27.4358 0.421387 0)
(26.6844 0.645461 0)
(25.7509 1.01013 0)
(24.3246 1.6507 0)
(22.6897 2.69269 0)
(19.9245 4.93291 0)
(16.7671 7.65378 0)
(9.32919 14.7622 0)
(29.9988 0.00112429 0)
(29.9857 0.00340863 0)
(29.957 0.00584904 0)
(29.9133 0.00899844 0)
(29.8565 0.0131298 0)
(29.7835 0.0187583 0)
(29.6932 0.026182 0)
(29.5799 0.0369091 0)
(29.4397 0.0522851 0)
(29.26 0.0733287 0)
(29.0389 0.102618 0)
(28.7627 0.144711 0)
(28.4201 0.204235 0)
(27.9817 0.295262 0)
(27.4385 0.434195 0)
(26.6902 0.664131 0)
(25.762 1.03965 0)
(24.3435 1.69349 0)
(22.7267 2.76202 0)
(19.9946 5.0376 0)
(17.03 7.86435 0)
(9.55473 15.342 0)
(29.9988 0.00115764 0)
(29.9857 0.00350959 0)
(29.957 0.0060241 0)
(29.9133 0.00926663 0)
(29.8563 0.0135205 0)
(29.7834 0.0193166 0)
(29.6929 0.0269621 0)
(29.5798 0.0380016 0)
(29.4394 0.0539508 0)
(29.2604 0.0754353 0)
(29.0393 0.105684 0)
(28.7631 0.149006 0)
(28.4208 0.210334 0)
(27.9831 0.30387 0)
(27.4414 0.446957 0)
(26.6963 0.682704 0)
(25.7738 1.06901 0)
(24.3639 1.73591 0)
(22.7649 2.83054 0)
(20.066 5.13807 0)
(17.3024 8.07188 0)
(9.78894 15.933 0)
(29.9988 0.00119098 0)
(29.9857 0.00361049 0)
(29.957 0.00619918 0)
(29.9133 0.00953476 0)
(29.8565 0.0139113 0)
(29.7836 0.0198741 0)
(29.6932 0.0277448 0)
(29.5803 0.0390913 0)
(29.4393 0.0555472 0)
(29.2609 0.0775339 0)
(29.0397 0.108751 0)
(28.7636 0.153299 0)
(28.4215 0.216425 0)
(27.9845 0.312457 0)
(27.4445 0.459671 0)
(26.7027 0.701173 0)
(25.7864 1.09818 0)
(24.3857 1.77796 0)
(22.8045 2.89825 0)
(20.1389 5.23416 0)
(17.584 8.27621 0)
(10.0321 16.5356 0)
(29.9988 0.0012243 0)
(29.9857 0.00371136 0)
(29.957 0.00637427 0)
(29.9133 0.00980289 0)
(29.8564 0.0143017 0)
(29.7835 0.020433 0)
(29.693 0.0285196 0)
(29.5803 0.0402284 0)
(29.4387 0.0569439 0)
(29.2614 0.0796351 0)
(29.0401 0.11182 0)
(28.7641 0.15759 0)
(28.4222 0.222509 0)
(27.986 0.321022 0)
(27.4477 0.472334 0)
(26.7093 0.719533 0)
(25.7997 1.12716 0)
(24.409 1.81961 0)
(22.8457 2.96516 0)
(20.2135 5.32574 0)
(17.8749 8.4772 0)
(10.2843 17.1502 0)
(29.9988 0.00125761 0)
(29.9857 0.00381219 0)
(29.957 0.00654938 0)
(29.9134 0.010071 0)
(29.8566 0.0146923 0)
(29.7837 0.0209904 0)
(29.6933 0.0293018 0)
(29.5808 0.0413349 0)
(29.4385 0.0587652 0)
(29.2619 0.0817678 0)
(29.0406 0.114889 0)
(28.7646 0.16188 0)
(28.4229 0.228585 0)
(27.9876 0.329565 0)
(27.4511 0.484944 0)
(26.7163 0.737778 0)
(25.8136 1.15591 0)
(24.4338 1.86087 0)
(22.8887 3.03125 0)
(20.2898 5.41268 0)
(18.1753 8.67471 0)
(10.5459 17.7773 0)
(29.9988 0.00129091 0)
(29.9857 0.00391297 0)
(29.957 0.00672452 0)
(29.9133 0.0103389 0)
(29.8564 0.0150829 0)
(29.7836 0.0215475 0)
(29.6931 0.0300793 0)
(29.5807 0.0424841 0)
(29.4384 0.0605407 0)
(29.2624 0.0839318 0)
(29.0411 0.117959 0)
(28.7652 0.166167 0)
(28.4237 0.234651 0)
(27.9892 0.338083 0)
(27.4546 0.497499 0)
(26.7235 0.755901 0)
(25.8282 1.18443 0)
(24.4599 1.9017 0)
(22.9337 3.09652 0)
(20.3681 5.49483 0)
(18.4855 8.86856 0)
(10.8171 18.4173 0)
(29.9988 0.0013242 0)
(29.9857 0.00401371 0)
(29.9571 0.00689963 0)
(29.9134 0.0106071 0)
(29.8566 0.0154725 0)
(29.7838 0.0221094 0)
(29.6935 0.0308378 0)
(29.5809 0.043655 0)
(29.4384 0.0620419 0)
(29.2628 0.0861078 0)
(29.0415 0.121029 0)
(28.7657 0.170452 0)
(28.4245 0.240709 0)
(27.9909 0.346578 0)
(27.4583 0.509998 0)
(26.731 0.773896 0)
(25.8434 1.21271 0)
(24.4873 1.9421 0)
(22.9811 3.16097 0)
(20.448 5.57205 0)
(18.8056 9.05861 0)
(11.0981 19.0706 0)
(29.9988 0.00135748 0)
(29.9857 0.00411441 0)
(29.957 0.00707477 0)
(29.9133 0.0108749 0)
(29.8565 0.0158633 0)
(29.7836 0.0226626 0)
(29.6934 0.0316522 0)
(29.5803 0.0445469 0)
(29.4383 0.0634768 0)
(29.2631 0.0882841 0)
(29.042 0.124097 0)
(28.7663 0.174734 0)
(28.4254 0.246759 0)
(27.9927 0.355045 0)
(27.462 0.522436 0)
(26.7387 0.79176 0)
(25.8592 1.24074 0)
(24.5159 1.98203 0)
(23.0312 3.22459 0)
(20.5291 5.64421 0)
(19.1349 9.24473 0)
(11.3892 19.7376 0)
(29.9988 0.00139073 0)
(29.9857 0.00421513 0)
(29.9571 0.00724996 0)
(29.9134 0.0111428 0)
(29.8567 0.0162534 0)
(29.7837 0.0232209 0)
(29.6942 0.0324454 0)
(29.5785 0.0458355 0)
(29.4382 0.0649422 0)
(29.2634 0.0904578 0)
(29.0424 0.127164 0)
(28.7669 0.179013 0)
(28.4262 0.252798 0)
(27.9945 0.363487 0)
(27.4659 0.534815 0)
(26.7467 0.809485 0)
(25.8756 1.26849 0)
(24.5457 2.02146 0)
(23.0845 3.28739 0)
(20.6105 5.71122 0)
(19.4703 9.42692 0)
(11.6905 20.4196 0)
(29.9988 0.00142383 0)
(29.9857 0.00431572 0)
(29.9571 0.00742524 0)
(29.9134 0.0114108 0)
(29.8566 0.0166444 0)
(29.7835 0.023778 0)
(29.6943 0.0332503 0)
(29.577 0.0472219 0)
(29.4381 0.0664449 0)
(29.2636 0.0926311 0)
(29.0428 0.130229 0)
(28.7674 0.183289 0)
(28.4271 0.258828 0)
(27.9963 0.371899 0)
(27.4699 0.547128 0)
(26.7549 0.827067 0)
(25.8924 1.29596 0)
(24.5765 2.06034 0)
(23.1413 3.34939 0)
(20.6918 5.77305 0)
(19.8047 9.60487 0)
(12.0016 21.124 0)
(29.9988 0.00145647 0)
(29.9857 0.0044154 0)
(29.9571 0.00759899 0)
(29.9134 0.0116765 0)
(29.8569 0.0170327 0)
(29.7838 0.024325 0)
(29.6949 0.0341077 0)
(29.5765 0.0483424 0)
(29.438 0.067958 0)
(29.2637 0.094801 0)
(29.0432 0.133291 0)
(28.768 0.187563 0)
(28.428 0.264843 0)
(27.9982 0.380271 0)
(27.474 0.559372 0)
(26.7634 0.844505 0)
(25.9096 1.32315 0)
(24.6083 2.09861 0)
(23.2022 3.41061 0)
(20.7728 5.82979 0)
(20.1269 9.77657 0)
(12.4087 21.8722 0)
(-0.45628 0.0295822 0)
(-2.14398 0.0302888 0)
(-3.23485 0.00890234 0)
(-2.98356 -0.00954944 0)
(-2.16972 -0.011659 0)
(-1.61894 -0.00687939 0)
(-1.298 -0.00281092 0)
(-1.2435 -0.000579755 0)
(-1.21536 -0.000601801 0)
(-1.14878 -0.000429136 0)
(-1.14991 -0.00022586 0)
(-1.13763 -0.00104772 0)
(-0.903335 -0.00264189 0)
(-0.51772 -0.00351734 0)
(-0.0117607 -0.00468631 0)
(0.721501 -0.00706254 0)
(1.95297 -0.0099701 0)
(3.7012 -0.0114898 0)
(5.68272 -0.0108223 0)
(7.53243 -0.00902068 0)
(9.16971 -0.00738734 0)
(10.6517 -0.00621757 0)
(12.0109 -0.00535577 0)
(13.3052 -0.00475774 0)
(14.566 -0.00436559 0)
(15.8435 -0.00424838 0)
(17.2439 -0.00366394 0)
(18.3427 -0.00266106 0)
(19.1576 -0.00887981 0)
(25.5896 -0.0117781 0)
(29.3811 -0.00436463 0)
(29.6494 -0.000247544 0)
(29.6308 -2.25771e-05 0)
(29.6748 -8.47861e-05 0)
(29.7318 -4.59093e-05 0)
(-0.438902 0.0877339 0)
(-2.11216 0.0902771 0)
(-3.19628 0.0265606 0)
(-2.94498 -0.0284576 0)
(-2.13459 -0.0348867 0)
(-1.58705 -0.0205291 0)
(-1.2678 -0.0083397 0)
(-1.21747 -0.00163192 0)
(-1.19443 -0.00169868 0)
(-1.13331 -0.00117224 0)
(-1.14308 -0.000470323 0)
(-1.14262 -0.00300449 0)
(-0.921502 -0.00811724 0)
(-0.521337 -0.0110605 0)
(0.0281974 -0.0142515 0)
(0.778201 -0.0205741 0)
(1.96535 -0.0287647 0)
(3.64945 -0.0334684 0)
(5.60304 -0.0319834 0)
(7.4649 -0.026932 0)
(9.13138 -0.0221782 0)
(10.635 -0.0186648 0)
(12.0014 -0.0160754 0)
(13.2947 -0.0142684 0)
(14.5485 -0.0130557 0)
(15.812 -0.0126956 0)
(17.2037 -0.0110568 0)
(18.3304 -0.00776389 0)
(19.0728 -0.0262202 0)
(25.2551 -0.0356106 0)
(29.3374 -0.0136514 0)
(29.6557 -0.000794819 0)
(29.6334 -5.84558e-05 0)
(29.6753 -0.00025178 0)
(29.7323 -0.000137671 0)
(-0.415896 0.144534 0)
(-2.07523 0.149801 0)
(-3.15098 0.0440011 0)
(-2.89225 -0.0473484 0)
(-2.08114 -0.0581748 0)
(-1.5417 -0.0341082 0)
(-1.22701 -0.0138009 0)
(-1.18342 -0.00254498 0)
(-1.16545 -0.00266893 0)
(-1.11079 -0.00173552 0)
(-1.13278 -0.000647546 0)
(-1.14585 -0.00456347 0)
(-0.931687 -0.0133921 0)
(-0.504996 -0.018881 0)
(0.0934434 -0.0242055 0)
(0.852841 -0.0338432 0)
(1.98509 -0.0465728 0)
(3.60257 -0.0544374 0)
(5.53284 -0.0526653 0)
(7.41204 -0.0449603 0)
(9.10991 -0.0372198 0)
(10.6362 -0.0312474 0)
(12.0096 -0.0267847 0)
(13.301 -0.0236931 0)
(14.5475 -0.0216311 0)
(15.7966 -0.021039 0)
(17.1776 -0.0184689 0)
(18.3284 -0.0128549 0)
(19.0115 -0.042573 0)
(24.9519 -0.0595386 0)
(29.2949 -0.0236476 0)
(29.6615 -0.00145733 0)
(29.6361 -8.38179e-05 0)
(29.6758 -0.00041452 0)
(29.7327 -0.00022919 0)
(-0.38737 0.19985 0)
(-2.03402 0.208861 0)
(-3.09814 0.061057 0)
(-2.82363 -0.0665778 0)
(-2.01044 -0.0812989 0)
(-1.48313 -0.0474234 0)
(-1.17588 -0.0190436 0)
(-1.14038 -0.0032836 0)
(-1.12708 -0.00348629 0)
(-1.07983 -0.0020683 0)
(-1.1153 -0.000497408 0)
(-1.14167 -0.00599842 0)
(-0.93091 -0.0189912 0)
(-0.472816 -0.0275351 0)
(0.178998 -0.0348512 0)
(0.949619 -0.0471083 0)
(2.02237 -0.0640265 0)
(3.56631 -0.0753553 0)
(5.47084 -0.0736801 0)
(7.37113 -0.0634051 0)
(9.10479 -0.0525603 0)
(10.6559 -0.0439768 0)
(12.037 -0.0375313 0)
(13.3259 -0.0330977 0)
(14.5643 -0.0301424 0)
(15.798 -0.0293064 0)
(17.1656 -0.0259217 0)
(18.3369 -0.0178379 0)
(18.9734 -0.0582964 0)
(24.6811 -0.0833456 0)
(29.2536 -0.0343104 0)
(29.6669 -0.0022063 0)
(29.6387 -9.97541e-05 0)
(29.6765 -0.000573579 0)
(29.7331 -0.000320468 0)
(-0.352995 0.253453 0)
(-1.98874 0.267357 0)
(-3.03656 0.0774714 0)
(-2.73738 -0.0861886 0)
(-1.92265 -0.104171 0)
(-1.41125 -0.0603433 0)
(-1.1148 -0.024022 0)
(-1.08815 -0.00384776 0)
(-1.07918 -0.00415128 0)
(-1.04022 -0.00215702 0)
(-1.089 -3.0504e-05 0)
(-1.12803 -0.00730843 0)
(-0.917404 -0.0248711 0)
(-0.423106 -0.0369438 0)
(0.288183 -0.0460662 0)
(1.07593 -0.0601077 0)
(2.0863 -0.0806623 0)
(3.54666 -0.0957405 0)
(5.41947 -0.0947592 0)
(7.3445 -0.0822172 0)
(9.11924 -0.0682283 0)
(10.6979 -0.0568755 0)
(12.0873 -0.0483084 0)
(13.3729 -0.0424602 0)
(14.6018 -0.0385678 0)
(15.8183 -0.0374745 0)
(17.1691 -0.0333826 0)
(18.3571 -0.0227682 0)
(18.9585 -0.073378 0)
(24.4408 -0.107058 0)
(29.2134 -0.0455518 0)
(29.6717 -0.00304496 0)
(29.6412 -0.000107563 0)
(29.6772 -0.000728929 0)
(29.7336 -0.000411414 0)
(-0.312395 0.305103 0)
(-1.93948 0.325226 0)
(-2.96478 0.0929526 0)
(-2.63122 -0.106346 0)
(-1.81727 -0.126762 0)
(-1.32543 -0.0727783 0)
(-1.04346 -0.028684 0)
(-1.02601 -0.00423353 0)
(-1.02114 -0.00465941 0)
(-0.991336 -0.00200176 0)
(-1.05222 0.000731232 0)
(-1.10262 -0.00851799 0)
(-0.889185 -0.0310595 0)
(-0.354834 -0.0471315 0)
(0.422325 -0.0578795 0)
(1.23736 -0.072781 0)
(2.18772 -0.0962401 0)
(3.55498 -0.115305 0)
(5.38662 -0.115758 0)
(7.33841 -0.101387 0)
(9.15959 -0.0842413 0)
(10.7694 -0.0699508 0)
(12.1678 -0.0591107 0)
(13.4479 -0.0517659 0)
(14.6644 -0.0468903 0)
(15.8609 -0.045523 0)
(17.1908 -0.0408271 0)
(18.3906 -0.027668 0)
(18.9679 -0.0878535 0)
(24.2278 -0.130635 0)
(29.1744 -0.0572982 0)
(29.676 -0.00397056 0)
(29.6438 -0.000108386 0)
(29.6779 -0.000880667 0)
(29.7341 -0.000501948 0)
(-0.265182 0.354549 0)
(-1.8862 0.382381 0)
(-2.88095 0.107168 0)
(-2.50198 -0.127222 0)
(-1.69308 -0.148985 0)
(-1.22441 -0.0846292 0)
(-0.960843 -0.0329748 0)
(-0.952671 -0.00444003 0)
(-0.951749 -0.00500365 0)
(-0.931886 -0.00161044 0)
(-1.00314 0.00175457 0)
(-1.06298 -0.00968075 0)
(-0.844178 -0.0376061 0)
(-0.266573 -0.058169 0)
(0.583478 -0.0704311 0)
(1.43976 -0.0852766 0)
(2.33876 -0.110754 0)
(3.6073 -0.133902 0)
(5.38618 -0.136582 0)
(7.36394 -0.120927 0)
(9.23632 -0.10063 0)
(10.8818 -0.0832189 0)
(12.2897 -0.0699317 0)
(13.5608 -0.0609922 0)
(14.7597 -0.0550831 0)
(15.9311 -0.0534237 0)
(17.2344 -0.0482256 0)
(18.4402 -0.0325482 0)
(19.0039 -0.10175 0)
(24.0398 -0.15404 0)
(29.1366 -0.0694883 0)
(29.6797 -0.00498031 0)
(29.6463 -0.000103394 0)
(29.6788 -0.00102889 0)
(29.7346 -0.000591992 0)
(-0.210977 0.401534 0)
(-1.82873 0.438701 0)
(-2.7828 0.119713 0)
(-2.34587 -0.148959 0)
(-1.54875 -0.17069 0)
(-1.10664 -0.0957781 0)
(-0.865469 -0.0368346 0)
(-0.866455 -0.00446914 0)
(-0.869223 -0.00517792 0)
(-0.859895 -0.000996626 0)
(-0.939343 0.00298534 0)
(-1.00615 -0.0108387 0)
(-0.779497 -0.044571 0)
(-0.154826 -0.0701679 0)
(0.77734 -0.0839365 0)
(1.69275 -0.0978487 0)
(2.55437 -0.124327 0)
(3.72361 -0.151456 0)
(5.43823 -0.157123 0)
(7.43816 -0.14083 0)
(9.36543 -0.117425 0)
(11.0521 -0.0966982 0)
(12.4713 -0.0807577 0)
(13.728 -0.0701008 0)
(14.8998 -0.0631018 0)
(16.0375 -0.0611342 0)
(17.3058 -0.0555387 0)
(18.5098 -0.0374166 0)
(19.071 -0.115089 0)
(23.8754 -0.177214 0)
(29.1002 -0.0820684 0)
(29.6828 -0.00607129 0)
(29.6488 -9.38171e-05 0)
(29.6797 -0.00117371 0)
(29.7351 -0.000681467 0)
(-0.149441 0.445786 0)
(-1.76675 0.494017 0)
(-2.66762 0.13011 0)
(-2.15936 -0.171668 0)
(-1.38345 -0.191672 0)
(-0.970726 -0.106109 0)
(-0.755641 -0.0402067 0)
(-0.765349 -0.00432785 0)
(-0.771313 -0.00518067 0)
(-0.772705 -0.000181685 0)
(-0.857611 0.00437178 0)
(-0.928263 -0.0120475 0)
(-0.690724 -0.0520215 0)
(-0.0131469 -0.0832681 0)
(1.01413 -0.0986626 0)
(2.01153 -0.11081 0)
(2.85447 -0.137145 0)
(3.9285 -0.16796 0)
(5.56954 -0.177284 0)
(7.5858 -0.161076 0)
(9.57025 -0.134657 0)
(11.3051 -0.11042 0)
(12.739 -0.0915714 0)
(13.9749 -0.0790289 0)
(15.1045 -0.0708706 0)
(16.1928 -0.0685868 0)
(17.4134 -0.06271 0)
(18.6047 -0.042278 0)
(19.176 -0.127881 0)
(23.7357 -0.200078 0)
(29.0654 -0.0949854 0)
(29.6853 -0.00724024 0)
(29.6512 -8.09588e-05 0)
(29.6807 -0.00131525 0)
(29.7357 -0.000770298 0)
(-0.0802932 0.487014 0)
(-1.69983 0.548108 0)
(-2.53228 0.137827 0)
(-1.94051 -0.195417 0)
(-1.1975 -0.211696 0)
(-0.815911 -0.11553 0)
(-0.629753 -0.0430486 0)
(-0.647191 -0.00403341 0)
(-0.655406 -0.00502117 0)
(-0.666998 0.000799631 0)
(-0.753747 0.00583727 0)
(-0.824189 -0.0133642 0)
(-0.571428 -0.0600437 0)
(0.167826 -0.0976473 0)
(1.30728 -0.114939 0)
(2.41422 -0.124535 0)
(3.26207 -0.149423 0)
(4.25033 -0.183458 0)
(5.81335 -0.197028 0)
(7.84011 -0.181665 0)
(9.8821 -0.152379 0)
(11.6725 -0.124444 0)
(13.1282 -0.102369 0)
(14.3386 -0.0876874 0)
(15.4041 -0.0782667 0)
(16.4171 -0.0756728 0)
(17.5695 -0.0696556 0)
(18.7322 -0.0471318 0)
(19.3287 -0.140125 0)
(23.6238 -0.222534 0)
(29.0328 -0.108182 0)
(29.6871 -0.00848322 0)
(29.6536 -6.61949e-05 0)
(29.6817 -0.00145367 0)
(29.7363 -0.00085841 0)
(-0.00334411 0.524914 0)
(-1.62737 0.600689 0)
(-2.37334 0.142321 0)
(-1.69034 -0.220195 0)
(-0.992693 -0.230522 0)
(-0.642541 -0.123986 0)