/*--------------------------------*- C++ -*----------------------------------*\
| =========                 |                                                 |
| \\      /  F ield         | OpenFOAM: The Open Source CFD Toolbox           |
|  \\    /   O peration     | Version:  v1912                                 |
|   \\  /    A nd           | Website:  www.openfoam.com                      |
|    \\/     M anipulation  |                                                 |
\*---------------------------------------------------------------------------*/
FoamFile
{
    version     2.0;
    format      ascii;
    class       volScalarField;
    location    "340";
    object      yPlus;
}
// * * * * * * * * * * * * * * * * * * * * * * * * * * * * * * * * * * * * * //

dimensions      [0 0 0 0 0 0 0];


internalField   uniform 0;

boundaryField
{
    inlet
    {
        type            calculated;
        value           uniform 0;
    }
    outlet
    {
        type            calculated;
        value           uniform 0;
    }
    lowerSymmetry
    {
        type            symmetryPlane;
    }
    obstical
    {
        type            calculated;
        value           nonuniform List<scalar> 
88
(
482.225
484.429
488.826
495.404
504.098
514.82
527.479
541.985
558.249
576.189
595.724
616.776
639.259
663.083
688.153
714.373
741.656
769.92
799.095
829.122
859.952
891.55
923.887
956.945
990.714
1025.19
1060.38
1096.3
1132.95
1170.36
1208.55
1247.53
1287.34
1327.99
1369.5
1411.89
1455.19
1499.43
1544.61
1590.76
1637.92
1686.14
1735.82
1790.91
50.7426
49.8484
49.1717
48.7617
48.6386
48.8344
49.3996
50.4046
51.937
54.0912
56.9555
60.5967
65.0484
70.3042
76.3144
82.9847
90.1714
97.6724
105.212
112.572
119.57
126.025
131.753
136.563
140.259
142.645
143.524
142.696
139.963
135.13
128.026
118.535
106.633
92.4428
76.3266
59.1975
43.9866
39.9873
53.6841
76.2489
102.481
131.16
162.029
195.478
)
;
    }
    obsticalTop
    {
        type            calculated;
        value           nonuniform List<scalar> 
20
(
53.3547
38.7142
47.1003
53.2108
56.0696
57.7175
58.3329
58.0419
57.1088
55.6662
53.6907
51.0739
47.7227
43.4523
38.2324
31.4208
25.0612
15.5422
14.0605
11.2421
)
;
    }
    top
    {
        type            calculated;
        value           uniform 0;
    }
    defaultFaces
    {
        type            empty;
    }
}


// ************************************************************************* //
