/*--------------------------------*- C++ -*----------------------------------*\
| =========                 |                                                 |
| \\      /  F ield         | OpenFOAM: The Open Source CFD Toolbox           |
|  \\    /   O peration     | Version:  v1912                                 |
|   \\  /    A nd           | Website:  www.openfoam.com                      |
|    \\/     M anipulation  |                                                 |
\*---------------------------------------------------------------------------*/
FoamFile
{
    version     2.0;
    format      ascii;
    class       volScalarField;
    location    "540";
    object      epsilon;
}
// * * * * * * * * * * * * * * * * * * * * * * * * * * * * * * * * * * * * * //

dimensions      [0 2 -3 0 0 0 0];


internalField   nonuniform List<scalar> 
12441
(
0.0102964
0.00908501
0.0083271
0.00770262
0.00718365
0.00674895
0.00638218
0.00607082
0.00580474
0.00557625
0.00537875
0.00520867
0.00504445
0.00491857
0.00479862
0.00469582
0.00489775
0.0206112
0.279022
3.05606
20.9488
39.25
0.010119
0.00892019
0.00818403
0.0075769
0.00707193
0.00664867
0.00629132
0.00598784
0.00572839
0.00550561
0.00531302
0.00514742
0.00498572
0.00486342
0.00474689
0.00464864
0.00481587
0.0203387
0.262674
3.04814
21.2388
40.2318
0.00989693
0.00871743
0.00800035
0.00740912
0.0069175
0.00650556
0.00615791
0.00586283
0.00561076
0.00539455
0.00520793
0.00504787
0.00489089
0.00477453
0.00466268
0.00456964
0.0046543
0.0184064
0.222082
3.01653
21.6175
41.3784
0.00967334
0.00851378
0.00781498
0.00723888
0.00675993
0.00635869
0.00602017
0.005733
0.00548785
0.00527779
0.00509673
0.00494173
0.00479076
0.00467806
0.00457185
0.00448419
0.0045064
0.0160981
0.182672
2.99307
22.0845
42.5504
0.00942911
0.00828916
0.00760909
0.00704862
0.00658286
0.00619286
0.00586404
0.00558534
0.0053477
0.00514442
0.00496959
0.00482044
0.00467459
0.00456854
0.00446757
0.00438687
0.00435556
0.0140243
0.162429
2.99926
22.6025
43.6698
0.00922314
0.00809954
0.00743469
0.00688684
0.00643163
0.00605056
0.00572932
0.00545716
0.00522521
0.00502694
0.0048566
0.00471147
0.004571
0.00446754
0.00437176
0.00429523
0.0042807
0.0141057
0.181751
3.10615
23.2352
44.7472
0.00900247
0.00789593
0.00724753
0.00671342
0.00626979
0.00589858
0.00558585
0.00532111
0.00509573
0.00490335
0.0047384
0.00459826
0.00446183
0.00436497
0.00427173
0.00420237
0.00603094
0.0231217
0.287722
3.40943
24.0848
45.7945
0.00882402
0.00773128
0.00709572
0.0065722
0.00613741
0.0057736
0.00546713
0.00520772
0.00498691
0.0047985
0.00463703
0.00449997
0.00436843
0.00427284
0.00418938
0.00516241
0.0341793
0.0791289
0.603062
4.05192
25.2785
46.8732
0.00862987
0.00755207
0.00693103
0.00641963
0.00599505
0.00563996
0.00534099
0.00508811
0.00487307
0.00468981
0.00453302
0.00440022
0.00427227
0.00414193
0.00538549
0.0267297
0.171523
0.293162
1.29396
5.18945
26.952
48.0153
0.00847519
0.00740918
0.00679913
0.00629678
0.00587971
0.00553089
0.00523718
0.00498876
0.00477751
0.0045975
0.00444354
0.00431342
0.00419056
0.00426979
0.0249037
0.144041
0.495953
0.764944
2.37855
6.88268
29.204
49.2846
0.00830574
0.00725271
0.0066554
0.00616368
0.00575557
0.00541439
0.00512726
0.00488456
0.00467834
0.00450281
0.00435287
0.00422729
0.00407645
0.00944403
0.109022
0.39723
0.937889
1.42313
3.6293
9.0217
32.0617
50.6975
0.00817073
0.00712802
0.00654026
0.00605639
0.00565477
0.00531898
0.00503636
0.00479744
0.00459443
0.00442163
0.00427405
0.0041519
0.00415417
0.0470478
0.291518
0.703166
1.33471
2.06074
4.78486
11.3796
35.4679
52.295
0.00802157
0.00699034
0.00641394
0.00593954
0.00554591
0.00521691
0.00494014
0.0047063
0.00450773
0.00433886
0.00419478
0.00403791
0.0083082
0.152761
0.508651
0.953035
1.62041
2.55761
5.73601
13.7342
39.3073
54.0597
0.0079007
0.00687871
0.00631086
0.00584348
0.00545565
0.00513148
0.00485874
0.0046283
0.00443261
0.00426619
0.00412425
0.00388146
0.0359234
0.299054
0.682176
1.12327
1.81129
2.91211
6.48918
15.937
43.4373
56.0037
0.00776929
0.00675734
0.00619953
0.00574051
0.00535972
0.00504154
0.00477394
0.00454794
0.00435613
0.00419312
0.00405419
0.00425832
0.1043
0.430906
0.801975
1.23621
1.93979
3.1628
7.08696
17.9173
47.7204
58.0812
0.00766023
0.00665668
0.00610658
0.0056539
0.00527835
0.00496452
0.00470055
0.00447763
0.00428842
0.00412766
0.00399073
0.00936755
0.194399
0.528769
0.882769
1.31342
2.02969
3.34538
7.57136
19.6573
52.038
60.2902
0.00754427
0.0065496
0.00600843
0.00556317
0.00519384
0.00488528
0.00462583
0.00440677
0.00422091
0.00406305
0.00392911
0.0310179
0.278002
0.597855
0.939116
1.36867
2.09562
3.48448
7.97475
21.167
56.301
62.571
0.00744276
0.00645602
0.00592213
0.00548287
0.00511852
0.00481413
0.00455818
0.00434211
0.00415882
0.00400318
0.00387385
0.07446
0.343836
0.647195
0.980289
1.41012
2.14638
3.59585
8.32017
22.4682
60.4465
64.9213
0.00734013
0.00636111
0.00583507
0.00540231
0.00504339
0.00474359
0.00449154
0.0042788
0.00409836
0.00394521
0.00380979
0.126107
0.39284
0.683844
1.01182
1.44265
2.18737
3.68943
8.62347
23.5857
64.439
67.2818
0.00724551
0.00627397
0.00575476
0.00532766
0.00497347
0.00467762
0.00442893
0.00421906
0.00404112
0.00389014
0.00427068
0.173205
0.429383
0.712292
1.03704
1.46928
2.22202
3.77156
8.89531
24.5432
68.2624
69.6617
0.00715527
0.00619045
0.00567813
0.00525668
0.00490717
0.00461525
0.00436987
0.00416277
0.00398718
0.00383828
0.00976293
0.211957
0.457478
0.735314
1.05801
1.49197
2.25264
3.84626
9.14274
25.3623
71.9206
72.0102
0.0070645
0.00610703
0.00560144
0.0051856
0.00484081
0.00455289
0.00431091
0.00410678
0.00393378
0.00378764
0.0269272
0.242863
0.479936
0.754635
1.07608
1.51203
2.28082
3.91596
9.37032
26.0616
75.4308
74.3523
0.0069852
0.00603341
0.00553371
0.00512268
0.00478184
0.00449719
0.00425795
0.00405608
0.003885
0.00374255
0.0537946
0.267583
0.498576
0.771375
1.09218
1.53041
2.30767
3.982
9.58091
26.6578
78.8259
76.6493
0.00689871
0.00595403
0.00546083
0.00505525
0.00471904
0.00443833
0.00420248
0.00400358
0.0038351
0.00370273
0.0819429
0.287691
0.514569
0.786286
1.10696
1.54776
2.33395
4.04504
9.77636
27.1656
82.1493
78.9445
0.00683042
0.00589052
0.00540229
0.0050007
0.00466769
0.00438957
0.00415583
0.00395863
0.00379155
0.00368405
0.106648
0.304471
0.528677
0.799901
1.12088
1.56457
2.36006
4.10535
9.95789
27.5978
85.4571
81.212
0.00674474
0.00581215
0.00533065
0.00493477
0.00460665
0.00433275
0.00410266
0.00390868
0.00374444
0.00364449
0.127211
0.318868
0.541415
0.812601
1.1343
1.58116
2.38617
4.16305
10.1264
27.9657
88.8137
83.5114
0.00668558
0.00575681
0.00527936
0.00488665
0.00456101
0.00428908
0.00406058
0.00386782
0.00370463
0.00383286
0.144408
0.331545
0.553136
0.824666
1.14744
1.59773
2.41226
4.21826
10.2827
28.2794
92.2927
85.8273
0.00660187
0.00568039
0.00520967
0.00482271
0.00450205
0.00423444
0.00400969
0.00382025
0.00366007
0.00572555
0.159156
0.34296
0.564096
0.836301
1.16048
1.61434
2.4382
4.27112
10.4275
28.547
95.9698
88.2307
0.00655218
0.00563365
0.00516609
0.00478149
0.00446258
0.00419626
0.00397248
0.00378373
0.00362449
0.0108526
0.172154
0.353428
0.574482
0.84765
1.17349
1.63102
2.46387
4.32174
10.5615
28.7758
99.9222
90.7106
0.0064681
0.00555722
0.00509675
0.00471828
0.00440471
0.00414305
0.00392333
0.00373817
0.00358306
0.0198639
0.183871
0.36317
0.58443
0.85881
1.18651
1.64771
2.48917
4.37027
10.6853
28.9716
104.22
93.3406
0.00642586
0.00551706
0.0050589
0.00468204
0.00436957
0.00410864
0.00388944
0.00370458
0.00355192
0.032343
0.194604
0.372346
0.59404
0.869844
1.19955
1.66435
2.51399
4.41682
10.7997
29.1395
108.924
96.1058
0.00634341
0.00544225
0.00499119
0.00462051
0.00431345
0.00405728
0.00384221
0.00366102
0.00351599
0.0470136
0.204547
0.381071
0.603383
0.880783
1.21258
1.68089
2.53829
4.46147
10.9055
29.284
114.082
99.0732
0.0063097
0.00540986
0.00496029
0.00459047
0.0042838
0.00402771
0.00381257
0.00363115
0.00349483
0.0625037
0.213828
0.389432
0.612509
0.891638
1.22556
1.69725
2.56202
4.5043
11.0032
29.4093
119.728
102.217
0.00622525
0.00533361
0.00489169
0.00452859
0.00422785
0.00397699
0.00376641
0.00358902
0.00347364
0.0777606
0.222542
0.397489
0.62145
0.902406
1.23846
1.7134
2.58515
4.54533
11.0936
29.5196
125.881
105.592
0.00619839
0.0053073
0.00486604
0.00450305
0.00420204
0.00395069
0.00373955
0.00356155
0.00347814
0.0921658
0.230754
0.40529
0.63022
0.913072
1.25123
1.72928
2.60764
4.58457
11.1774
29.619
132.556
109.157
0.00611142
0.0052292
0.00479621
0.00444051
0.00414594
0.00390026
0.00369405
0.00352039
0.00354642
0.105397
0.238515
0.412863
0.638827
0.923615
1.26383
1.74485
2.62947
4.62199
11.2552
29.711
139.758
112.957
0.00608785
0.00520583
0.00477308
0.00441707
0.00412187
0.00387539
0.00366839
0.00349395
0.00613558
0.117301
0.245856
0.420229
0.647265
0.934011
1.27622
1.76009
2.65061
4.65753
11.3278
29.7984
147.488
116.938
0.00599588
0.00512383
0.00470026
0.00435234
0.00406425
0.00382401
0.00362241
0.00345269
0.0242442
0.127754
0.252795
0.427396
0.655526
0.944229
1.28837
1.77495
2.671
4.69111
11.3957
29.8831
155.73
121.137
0.00596755
0.00509635
0.00467356
0.00432576
0.00403739
0.00379668
0.00359462
0.00342493
0.0431994
0.136525
0.259343
0.434367
0.663592
0.95424
1.30023
1.78941
2.69062
4.72266
11.4597
29.9655
164.43
125.495
0.00586289
0.00500345
0.00459144
0.0042531
0.00397306
0.00373965
0.00354391
0.00338451
0.05315
0.143653
0.265505
0.441137
0.671445
0.964008
1.31178
1.80342
2.70941
4.75207
11.5205
30.0447
173.457
130.045
0.00582128
0.00496399
0.00455388
0.00421665
0.00393721
0.00370417
0.00350877
0.0033374
0.0584467
0.149404
0.271285
0.447694
0.679062
0.973498
1.32296
1.81694
2.72731
4.77925
11.5784
30.1193
182.541
134.727
0.00569966
0.00485645
0.00445885
0.00413233
0.00386218
0.00363725
0.00344892
0.00331725
0.0615694
0.154062
0.276689
0.454024
0.686421
0.982669
1.33375
1.82993
2.74425
4.8041
11.6337
30.1881
191.204
139.588
0.00561734
0.00478992
0.00440435
0.00408615
0.00382161
0.00360033
0.00341418
0.00354231
0.0635706
0.157864
0.281727
0.460109
0.693499
0.991478
1.34409
1.84234
2.76017
4.8266
11.686
30.2513
198.752
144.654
0.00525494
0.00446066
0.00411241
0.00382687
0.00358966
0.00339117
0.00322374
0.00364215
0.0649247
0.160982
0.286409
0.465924
0.700273
0.999878
1.35394
1.85411
2.77497
4.84674
11.7345
30.3103
204.382
150.447
95.0235
43.7041
26.2113
21.0629
21.9744
19.2933
18.9022
16.8604
15.7575
15.1555
14.419
13.5741
14.1674
16.1662
19.2266
22.444
25.0476
27.5
30.1426
32.5477
34.6383
36.9229
38.911
40.0139
40.316
39.758
38.7203
37.6358
36.6453
34.9118
32.7714
32.4241
33.2168
11.1059
3.11013
94.6475
43.6958
26.2214
21.2179
22.3366
19.5896
19.2078
17.0957
15.9676
15.3351
14.5107
13.6587
14.2615
16.2724
19.3268
22.5562
25.2148
27.7387
30.4479
32.9066
35.0507
37.3887
39.4815
40.6971
41.0875
40.5356
39.4134
38.2012
37.1182
35.3134
33.1063
32.7387
33.4112
11.2544
3.11104
93.9266
43.6693
26.2414
21.5327
23.0586
20.184
19.8051
17.5537
16.383
15.6917
14.7038
13.8393
14.458
16.4743
19.5268
22.7848
25.5311
28.2144
31.1086
33.698
35.943
38.3627
40.6376
42.0714
42.6539
42.142
40.8709
39.3972
38.1068
36.1403
33.7924
33.3745
33.7409
11.4416
3.11297
92.8104
43.6173
26.2747
22.0222
24.1304
21.0761
20.6703
18.2184
16.9956
16.2201
15.0236
14.1449
14.7811
16.796
19.8679
23.1751
26.0488
29.0068
32.2767
35.12
37.4764
39.9538
42.4524
44.195
45.0866
44.6837
43.2281
41.3477
39.697
37.4473
34.868
34.3533
34.299
11.6921
3.11617
91.3035
43.5324
26.3268
22.6978
25.5356
22.2596
21.7808
19.0803
17.7984
16.9141
15.4974
14.6102
15.2639
17.267
20.3872
23.7862
26.8468
30.236
34.1984
37.5203
39.9427
42.3638
45.064
47.1768
48.5049
48.3233
46.6916
44.2488
42.0267
39.3204
36.3914
35.7117
35.1817
12.0295
3.121
89.3553
43.4073
26.4056
23.5739
27.2703
23.7368
23.1295
20.1425
18.7936
17.7756
16.1507
15.2686
15.9381
17.9122
21.1071
24.6664
28.0137
32.0523
37.2107
41.4459
43.8367
45.9445
48.7168
51.2044
53.0936
53.292
51.5572
48.3943
45.3076
41.8892
38.4467
37.5035
36.4964
12.4778
3.12785
87.0012
43.235
26.5225
24.6735
29.3485
25.525
24.7287
21.4218
19.9969
18.8201
17.0113
16.1544
16.8398
18.7672
22.0483
25.8475
29.6329
34.6202
41.7129
47.6987
49.9769
51.2989
53.8294
56.59
59.1328
59.909
58.2332
54.212
49.8563
45.3447
41.1528
39.8028
38.3716
13.0628
3.13719
84.2135
43.0084
26.6941
26.0296
31.7954
27.6541
26.6066
22.9472
21.4366
20.077
18.1161
17.309
18.0217
19.8963
23.2564
27.3683
31.7882
38.1124
48.0984
57.3368
59.6789
59.4506
61.1085
63.8435
67.0462
68.6111
67.2669
62.308
56.1373
49.964
44.6752
42.7084
40.9687
13.8138
3.14949
81.0699
42.7204
26.9435
27.6816
34.6389
30.16
28.8021
24.7581
23.1524
21.5896
19.5166
18.7884
19.5611
21.4042
24.8225
29.305
34.5954
42.7372
56.6591
71.4411
74.874
72.0825
71.7209
73.7774
77.4623
79.9844
79.3617
73.5076
64.8121
56.1416
49.2415
46.3491
44.4958
14.7643
3.16519
77.574
42.3631
27.3027
29.6704
37.9013
33.0792
31.3607
26.902
25.1934
23.4137
21.2823
20.6645
21.5598
23.4441
26.8985
31.7969
38.2442
48.7915
67.4808
90.3011
97.6576
91.6609
87.4733
87.6122
91.2601
94.7652
95.3378
88.838
76.7683
64.4153
55.1569
50.8882
49.2202
15.9535
3.18465
73.8369
41.9283
27.8139
32.0292
41.5927
36.4434
34.329
29.4325
27.6157
25.6164
23.5008
23.027
24.139
26.2219
29.7129
35.0679
43.0389
56.7036
80.356
112.013
127.996
120.554
110.646
106.917
109.484
113.708
115.918
109.305
93.0293
75.454
62.8095
56.523
55.4754
17.4264
3.20805
69.8857
41.4068
28.5323
34.7807
45.7075
40.2754
37.7496
32.4051
30.4779
28.273
26.2765
25.9793
27.426
29.9855
33.5879
39.4484
49.4147
66.9802
94.7448
132.251
159.752
157.268
142.352
132.85
132.836
137.112
141.118
135.144
114.303
89.9057
72.6353
63.4713
63.6399
19.2324
3.2353
65.8489
40.7886
29.5253
37.932
50.2231
44.5874
41.6547
35.8728
33.8354
31.4607
29.7217
29.6331
31.5295
34.9767
38.9357
45.3829
57.904
79.9356
109.819
147.351
182.35
191.626
178.332
163.902
160.347
163.803
169.124
164.307
139.8
107.916
84.9779
71.9249
74.0527
21.4217
3.26589
61.7626
40.063
30.8708
41.4753
55.1003
49.3819
46.0649
39.8778
37.7316
35.247
33.939
34.0858
36.4967
41.316
46.1905
53.3833
68.9374
95.0977
124.461
157.261
191.409
210.636
206.983
193.289
187.708
190.057
195.434
191.138
165.536
128.173
99.7448
81.9416
86.7953
24.0344
3.29869
57.7502
39.22
32.6486
45.392
60.2873
54.6521
50.9826
44.4475
42.1935
39.678
38.9895
39.3909
42.2581
48.7962
55.5604
63.8126
82.3799
110.684
137.282
164.037
191.78
212.499
218.519
211.58
208.006
210.221
214.08
208.142
184.434
147.031
115.845
93.2486
101.301
27.0786
3.33177
53.8399
38.2524
34.9289
49.6585
65.7284
60.372
56.3922
49.5927
47.227
44.7655
44.8636
45.5097
48.58
56.6976
66.5387
76.3742
96.8945
124.087
146.982
169.03
189.58
205.385
214.646
214.952
216.456
219.947
221.097
211.118
190.689
159.475
130.787
104.994
115.934
30.4942
3.36221
50.1273
37.1603
37.7574
54.2332
71.3707
66.4972
62.2598
55.3071
52.8194
50.484
51.4588
52.2903
55.0892
63.8765
77.4201
89.4548
110.001
133.585
153.151
172.326
187.368
196.508
203.556
207.578
213.936
218.971
216.731
201.825
184.409
162.417
141.291
115.643
128.045
34.1033
3.38595
46.6135
35.9599
41.1418
59.0575
77.1606
72.9575
68.531
61.5653
58.945
56.7802
58.6046
59.4856
61.4025
69.3323
85.7482
100.283
119.475
139.396
156.561
173.752
185.024
188.404
191.323
195.839
204.88
210.277
204.23
185.32
170.433
156.859
145.078
123.316
134.99
37.5683
3.39799
43.349
34.6954
45.0279
64.0723
83.033
79.6506
75.1269
68.3186
65.5702
63.5918
66.1163
66.8698
67.3343
72.8366
89.9328
106.641
124.948
143.048
158.581
173.56
181.754
180.904
180.133
183.769
193.38
197.38
187.35
166.305
153.912
146.327
142.232
126.595
135.558
40.3932
3.3928
40.3033
33.4501
49.2878
69.2156
88.9101
86.4425
81.9421
75.4877
72.6534
70.867
73.8814
74.3479
73.0221
75.0645
90.4799
108.604
127.774
146.063
160.223
172.283
177.187
173.276
170.099
172.806
181.617
182.714
168.944
147.701
137.98
134.143
134.701
125.215
130.439
42.0116
3.36532
37.4893
32.3333
53.7505
74.4088
94.7052
93.1796
88.8476
82.9587
80.139
78.5676
81.8929
82.0368
78.8976
77.1289
89.2953
108.143
129.862
149.398
161.833
170.233
171.412
165.154
160.832
163.044
170.259
167.537
150.78
130.88
123.902
122.254
124.804
120.028
121.422
41.9735
3.31216
34.8769
31.4653
58.224
79.5605
100.329
99.7089
95.7034
90.5877
87.949
86.6582
90.2124
90.1877
85.52
80.1431
88.3969
107.566
132.719
153.447
163.231
167.365
164.673
156.595
152.069
154.168
159.256
152.43
133.828
116.276
111.881
111.427
114.241
112.39
110.337
40.1539
3.23275
32.4767
30.9624
62.53
84.5716
105.698
105.898
102.374
98.2169
95.974
95.0962
98.9275
99.0823
93.4046
84.9736
89.1962
108.55
137.342
158.369
164.172
163.46
157.148
147.853
143.739
145.848
148.373
137.719
118.556
103.845
101.687
101.779
103.942
103.548
98.5135
36.8321
3.12966
30.2708
30.9261
66.537
89.3416
110.739
111.647
108.74
105.694
104.091
103.796
108.07
108.882
102.877
92.2537
92.6289
112.151
144.295
164.206
164.539
158.439
149.011
139.191
135.865
137.836
137.445
123.676
105.127
93.3437
92.9616
93.1607
94.2917
94.364
86.7611
32.5688
3.00803
28.2673
31.4386
70.1736
93.7757
115.392
116.889
114.712
112.892
112.178
112.671
117.611
119.616
114.017
102.316
99.3178
119.056
153.963
171.012
164.438
152.468
140.492
130.83
128.471
129.956
126.448
110.554
93.5135
84.4635
85.3639
85.3617
85.3799
85.3246
75.5289
27.9748
2.87431
26.4614
32.5621
73.4225
97.7961
119.616
121.592
120.227
119.721
120.133
121.641
127.497
131.202
126.706
115.2
109.781
129.859
166.57
178.742
164.022
145.925
131.929
122.944
121.54
122.086
115.49
98.5609
83.5767
76.9014
78.6075
78.1935
77.1731
76.6586
65.0661
23.5318
2.73485
24.8623
34.3392
76.3028
101.354
123.393
125.758
125.263
126.134
127.888
130.658
137.703
143.578
140.779
130.643
124.298
145.111
182.28
187.269
163.457
139.249
123.675
115.664
115.018
114.149
104.765
87.8215
75.1196
70.3892
72.475
71.5176
69.6001
68.4536
55.5161
19.5298
2.59502
23.4808
36.7924
78.8509
104.438
126.729
129.42
129.83
132.132
135.423
139.722
148.269
156.771
156.187
148.363
142.926
165.307
201.015
196.232
162.772
132.845
116.05
109.067
108.82
106.13
94.499
78.3699
67.926
64.7018
66.8106
65.2453
62.5919
60.7379
46.9585
16.0912
2.45878
22.3333
39.9216
81.1056
107.067
129.653
132.633
133.973
137.758
142.773
148.899
159.335
170.989
173.131
168.283
165.501
190.709
222.415
205.089
161.909
126.995
109.26
103.17
102.852
98.0671
84.8966
70.1599
61.7847
59.6595
61.5116
59.3288
56.0941
53.525
39.4227
13.2266
2.32874
21.4546
43.6973
83.0997
109.285
132.211
135.466
137.758
143.089
150.024
158.329
171.163
186.673
192.176
190.804
192.092
221.32
245.535
213.013
160.652
121.845
103.407
97.9301
97.0189
90.0573
76.1108
63.09
56.5042
55.1231
56.5157
53.7481
50.0694
46.8313
32.894
10.8868
2.20634
20.8892
48.0511
84.8578
111.146
134.456
137.993
141.268
148.231
157.313
168.236
184.176
204.6
214.409
216.931
223.253
256.852
268.913
219.086
158.755
117.386
98.4741
93.2541
91.2454
82.2334
68.2259
57.027
51.9196
50.9891
51.7908
48.5001
44.4945
40.6776
27.3202
8.99758
2.09216
20.7351
52.8675
86.399
112.71
136.447
140.289
144.594
153.315
164.832
178.949
199.005
226.004
241.683
248.57
260.365
296.748
290.464
222.34
155.922
113.496
94.3669
89.0119
85.4855
74.7424
61.2602
51.828
47.8938
47.1825
47.3241
43.5894
39.3553
35.0834
22.6214
7.48127
1.98621
21.1259
57.984
87.7409
114.036
138.245
142.429
147.838
158.498
172.841
190.937
216.582
252.787
276.964
288.787
305.532
339.699
307.85
222.077
151.965
109.955
90.9112
85.0556
79.7324
67.7176
55.1783
47.3538
44.3162
43.6518
43.1148
39.0216
34.6428
30.0598
18.7011
6.26639
1.88814
22.2957
63.2066
88.9035
115.179
139.909
144.487
151.114
163.979
181.691
204.863
238.258
287.751
324.624
341.961
361.093
382.81
318.581
217.893
146.766
106.513
87.8968
81.2349
74.0186
61.2608
49.9088
43.4782
41.0999
40.3617
39.1664
34.7996
30.3493
25.6043
15.4569
5.29176
1.79739
24.5223
68.3367
89.91
116.192
141.503
146.545
154.56
170.016
191.872
221.684
266.004
334.787
389.984
412.436
427.097
420.443
320.626
209.868
140.367
102.923
85.0808
77.4165
68.4075
55.4302
45.3603
40.0916
38.1778
37.2896
35.4829
30.9223
26.4655
21.6997
12.7881
4.50712
1.71332
28.1637
73.2013
90.7853
117.12
143.091
148.699
158.352
176.964
204.094
242.819
302.681
398.482
475.946
499.063
496.043
444.315
312.784
198.418
132.886
98.997
82.233
73.4979
62.978
50.2415
41.4352
37.1028
35.4995
34.4198
32.0657
27.3836
22.9789
18.315
10.6014
3.87213
1.63527
33.4954
77.6753
91.5534
118.007
144.749
151.065
162.728
185.34
219.427
270.428
352.31
481.741
573.587
583.889
547.696
446.196
295.418
184.328
124.552
94.6135
79.1481
69.4202
57.8082
45.6735
38.0386
34.4379
33.0273
31.7416
28.9126
24.173
19.8731
15.4094
8.81371
3.35494
1.56261
40.701
81.6957
92.236
118.895
146.566
153.807
168.039
195.933
239.567
307.881
419.798
578.55
652.092
629.848
557.523
423.239
270.486
168.525
115.627
89.7366
75.6879
65.1695
52.9591
41.6792
35.0847
32.0391
30.7341
29.2461
26.0173
21.2766
17.1274
12.9356
7.35339
2.93059
1.49474
49.6321
85.2617
92.8523
119.83
148.663
157.16
174.827
210.031
267.324
360.355
507.934
663.564
673.086
610.552
519.132
380.947
241.182
152.009
106.422
84.4029
71.7797
60.7711
48.4668
38.1954
32.4987
29.8625
28.6006
26.9253
23.37
18.6776
14.7178
10.8442
6.15993
2.5796
1.43114
59.8743
88.4176
93.4203
120.869
151.216
161.498
183.988
229.845
307.508
434.684
606.666
697.765
628.339
540.174
451.366
329.921
210.724
135.625
97.2331
78.7229
67.4314
56.2745
44.3391
35.1524
30.2179
27.8761
26.614
24.7712
20.9585
16.3575
12.618
9.08604
5.18311
2.28681
1.37136
70.5911
91.2386
93.9588
122.092
154.499
167.452
197.108
259.404
368.121
533.787
678.56
662.599
544.585
453.429
378.279
279.253
181.512
120.033
88.3505
72.8571
62.7108
51.7405
40.5593
32.4795
28.191
26.0573
24.7661
22.7762
18.7687
14.2964
10.8
7.61481
4.38175
2.04038
1.315
80.9187
93.8171
94.4907
123.621
158.988
176.176
217.205
306.24
459.064
635.038
677.135
576.596
452.787
373.796
313.209
233.485
154.759
105.63
80.0068
67.0029
57.7415
47.2299
37.0926
30.1093
26.3757
24.3905
23.0525
20.933
16.7859
12.4739
9.23515
6.38807
3.7224
1.83107
1.26171
89.3733
96.2607
95.0492
125.667
165.576
189.984
250.439
382.866
572.975
672.775
598.05
472.649
370.145
308.407
258.987
193.508
130.86
92.6395
72.3918
61.3619
52.6791
42.8026
33.8947
27.9787
24.7368
22.8648
21.4718
19.2356
14.9954
10.8696
7.89541
5.36797
3.17802
1.65161
1.2112
95.1437
98.711
95.691
128.625
176.147
213.97
309.275
493.687
637.081
603.148
479.988
374.805
301.677
256.321
214.23
158.837
109.78
81.1174
65.6056
56.114
47.7029
38.5216
30.9193
26.03
23.2434
21.4716
20.0238
17.6792
13.3832
9.46288
6.75363
4.52133
2.72686
1.49629
1.16323
0.00337796
0.00250625
0.00228092
0.00217113
0.00213184
0.00213595
0.00216709
0.00367531
0.0656381
0.16291
0.289654
0.470015
0.704999
1.00566
1.36068
1.8621
2.7848
4.85977
11.7665
30.3547
206.611
160.187
0.00334455
0.00224287
0.00184372
0.0016092
0.00148972
0.00145334
0.00148556
0.00369561
0.065989
0.163955
0.291518
0.472266
0.707422
1.00847
1.36383
1.86575
2.78923
4.86587
11.7844
30.388
207.516
170.334
0.00354058
0.00237586
0.00188234
0.00154525
0.00132444
0.00119499
0.00116472
0.00371087
0.0662192
0.164723
0.292975
0.473889
0.708933
1.01002
1.36538
1.86738
2.79106
4.86869
11.796
30.4224
207.57
180.02
0.00367095
0.00251742
0.00200371
0.0016296
0.00135816
0.0011675
0.00103251
0.00372186
0.0663458
0.165233
0.294023
0.474873
0.709515
1.01028
1.36529
1.86696
2.79023
4.86807
11.7995
30.4585
206.838
189.114
0.00392269
0.00276386
0.00222597
0.0018214
0.0015134
0.00127934
0.000997173
0.0037293
0.0663789
0.165496
0.294657
0.47521
0.709157
1.00925
1.36354
1.86446
2.78667
4.86388
11.7936
30.4965
205.364
198.074
0.00406036
0.0029297
0.00239811
0.00199133
0.00167415
0.001424
0.000985407
0.00373374
0.0663244
0.165519
0.294876
0.474894
0.70785
1.00693
1.36014
1.85987
2.78033
4.85597
11.7769
30.5366
203.181
207.072
0.00434059
0.00320788
0.00265898
0.00223247
0.00189466
0.00162299
0.00105393
0.00373552
0.0661855
0.165307
0.294678
0.473924
0.705595
1.00331
1.35508
1.85316
2.77116
4.84423
11.7481
30.5785
200.328
216.103
0.00447872
0.00337925
0.0028435
0.00242264
0.00208524
0.00180976
0.0011803
0.00373472
0.0659639
0.164862
0.294065
0.472301
0.702399
0.998401
1.34837
1.84433
2.75912
4.82855
11.7062
30.6213
196.855
225.107
0.00478414
0.00368452
0.00313404
0.00269585
0.00234049
0.00204709
0.00130479
0.00373122
0.0656604
0.164188
0.293043
0.470035
0.698276
0.992231
1.34005
1.83341
2.74417
4.80882
11.6501
30.6636
192.818
234.012
0.00490884
0.00384885
0.00331912
0.00289382
0.00254561
0.0022547
0.00139536
0.0037247
0.065275
0.163289
0.291619
0.467138
0.693251
0.984825
1.33013
1.82039
2.72628
4.78496
11.5793
30.703
188.278
242.734
0.00522948
0.00417112
0.00362945
0.00318937
0.0028255
0.00251894
0.00150941
0.00371484
0.064807
0.162167
0.289807
0.46363
0.687351
0.976218
1.31868
1.80533
2.70542
4.75685
11.4931
30.7365
183.301
251.162
0.00533943
0.0043247
0.0038095
0.00338826
0.00303732
0.00273881
0.00162923
0.00370115
0.064255
0.160828
0.287621
0.459533
0.680614
0.966455
1.30574
1.78825
2.68157
4.72439
11.3912
30.7599
177.954
259.163
0.00567217
0.00466078
0.00413614
0.00370224
0.00333748
0.003025
0.00183357
0.00368312
0.0636162
0.159274
0.285076
0.454875
0.67308
0.955587
1.29138
1.76922
2.65472
4.68748
11.2733
30.768
172.305
266.586
0.00575639
0.00479292
0.00430082
0.00389216
0.00354666
0.00324834
0.00211132
0.00365991
0.0628858
0.157511
0.282191
0.44969
0.664798
0.94367
1.27566
1.74831
2.62488
4.64597
11.1394
30.7546
166.422
273.279
0.00609214
0.00513316
0.00463372
0.00421445
0.00385705
0.00354672
0.0025155
0.00363065
0.0620562
0.155539
0.278983
0.444013
0.655817
0.930769
1.25867
1.7256
2.59207
4.59974
10.9894
30.7128
160.371
279.094
0.0061523
0.00524298
0.00477987
0.00439032
0.00405697
0.00376576
0.00298157
0.00359362
0.0611156
0.153357
0.275467
0.437881
0.646194
0.916951
1.24049
1.7012
2.55634
4.54864
10.8236
30.6345
154.209
283.899
0.00648678
0.00558293
0.00511422
0.00471565
0.00437183
0.00406998
0.00349364
0.00354705
0.0600457
0.150962
0.271657
0.431334
0.635985
0.902286
1.22121
1.6752
2.51777
4.4925
10.6421
30.5112
147.994
287.585
0.00651847
0.00566549
0.00523626
0.0048713
0.00455583
0.00427758
0.00389049
0.00348677
0.0588191
0.14834
0.267561
0.42441
0.625252
0.886847
1.20092
1.64773
2.47645
4.43117
10.4454
30.334
141.772
290.069
0.00683901
0.0059923
0.00555927
0.00518713
0.004863
0.00457595
0.00426716
0.00341335
0.0573951
0.145469
0.263181
0.417149
0.614055
0.870712
1.17972
1.61892
2.4325
4.36449
10.234
30.0938
135.585
291.295
0.0068536
0.00605578
0.0056621
0.00532442
0.00503018
0.00476879
0.00452296
0.00333547
0.055714
0.142311
0.258511
0.409582
0.602458
0.853955
1.1577
1.58888
2.38609
4.29231
10.0086
29.782
129.467
291.232
0.00716009
0.00636926
0.00597327
0.00562981
0.00532813
0.00505899
0.00481796
0.00331343
0.0536888
0.138807
0.253528
0.401734
0.590522
0.836657
1.13495
1.55775
2.33737
4.21451
9.76998
29.3906
123.445
289.867
0.00715673
0.00641255
0.00605537
0.00574675
0.00547605
0.00523414
0.00501893
0.00351293
0.0511952
0.134868
0.24819
0.393621
0.578306
0.818894
1.11158
1.52567
2.28654
4.13102
9.51895
28.9125
117.54
287.209
0.00744654
0.00670952
0.00635096
0.00603754
0.00576031
0.00551147
0.00528787
0.00401695
0.0480614
0.130361
0.242426
0.385236
0.565861
0.800747
1.08767
1.49277
2.23382
4.0418
9.25648
28.3424
111.766
283.273
0.00743064
0.00673705
0.00641558
0.00613613
0.0058897
0.00566842
0.00546743
0.00462954
0.0440597
0.125093
0.236122
0.376548
0.553228
0.782293
1.06331
1.45918
2.17943
3.94687
8.98357
27.6768
106.134
278.088
0.00770414
0.00701764
0.00669542
0.00641183
0.00615946
0.00593173
0.00572333
0.00522916
0.0389312
0.11879
0.229108
0.367485
0.540427
0.763607
1.0386
1.42503
2.12361
3.84635
8.70125
26.9147
100.648
271.688
0.00767679
0.00703044
0.00674329
0.00649245
0.00627026
0.00606999
0.00588567
0.00561202
0.0324904
0.111075
0.22113
0.357919
0.527447
0.744755
1.01362
1.39046
2.06663
3.74042
8.41055
26.0575
95.3079
264.116
0.00793326
0.00729363
0.00700601
0.00675142
0.00652369
0.00631726
0.00612682
0.00592016
0.0249087
0.101468
0.211818
0.347641
0.514226
0.725787
0.988449
1.35558
2.00875
3.6294
8.11246
25.1097
90.1117
255.424
0.00789956
0.0072964
0.00704126
0.00681744
0.00661849
0.0064386
0.00627222
0.00610788
0.0170819
0.0894492
0.200651
0.336327
0.500631
0.706719
0.963169
1.32052
1.95027
3.5137
7.80793
24.0782
85.0525
245.678
0.00814114
0.00754419
0.00728866
0.00706129
0.00685696
0.006671
0.00649876
0.00633431
0.0107777
0.0746917
0.18691
0.323496
0.48642
0.687515
0.937835
1.28539
1.89149
3.39387
7.49789
22.9729
80.122
234.954
0.00810338
0.00753939
0.00731373
0.00711507
0.00693794
0.00677733
0.00662843
0.00648607
0.00739421
0.057576
0.169686
0.308443
0.471201
0.668046
0.91247
1.25031
1.83273
3.27062
7.18323
21.806
75.3086
223.351
0.00833019
0.00777185
0.00754579
0.00734371
0.00716138
0.00699483
0.00684012
0.00669342
0.00651191
0.0397741
0.148015
0.29017
0.454372
0.648047
0.887032
1.21536
1.7743
3.1448
6.86489
20.5915
70.6
210.98
0.00829266
0.00776378
0.00756478
0.00738904
0.0072319
0.00708909
0.00695642
0.00682982
0.00658
0.024174
0.121366
0.267321
0.435037
0.627055
0.861372
1.18057
1.71655
3.01743
6.5439
19.3448
65.9824
197.979
0.00850596
0.00798221
0.0077828
0.0076038
0.00744166
0.00729305
0.00715462
0.0070233
0.00683924
0.0136522
0.0906665
0.238251
0.411886
0.604329
0.835174
1.14592
1.65977
2.88971
6.22154
18.082
61.444
184.496
0.00847101
0.00797345
0.00779838
0.00764333
0.00750435
0.00737774
0.00725988
0.00714731
0.00701887
0.00864178
0.0594809
0.201503
0.38307
0.57875
0.807873
1.11121
1.6042
2.76293
5.89938
16.8194
56.9755
170.699
0.0086716
0.00817867
0.00800318
0.00784505
0.00770131
0.00756912
0.00744563
0.00732825
0.00720876
0.00711269
0.0335871
0.15712
0.346169
0.548663
0.778564
1.07609
1.54994
2.63846
5.57942
15.5728
52.5746
156.764
0.00864157
0.00817176
0.00801799
0.00788143
0.00775872
0.00764667
0.00754214
0.00744212
0.00734174
0.00695276
0.0173759
0.10875
0.298606
0.51169
0.745859
1.03987
1.49691
2.51762
5.26409
14.3572
48.2467
142.873
0.00883155
0.00836589
0.00821164
0.00807212
0.00794484
0.0078274
0.00771735
0.00761245
0.00750958
0.00720219
0.0101904
0.0645861
0.239225
0.464645
0.707705
1.00152
1.44474
2.40151
4.95623
13.1865
44.0086
129.202
0.00880913
0.00836379
0.00822877
0.00810853