/*--------------------------------*- C++ -*----------------------------------*\
| =========                 |                                                 |
| \\      /  F ield         | OpenFOAM: The Open Source CFD Toolbox           |
|  \\    /   O peration     | Version:  v1912                                 |
|   \\  /    A nd           | Website:  www.openfoam.com                      |
|    \\/     M anipulation  |                                                 |
\*---------------------------------------------------------------------------*/
FoamFile
{
    version     2.0;
    format      ascii;
    class       volScalarField;
    location    "540";
    object      nut;
}
// * * * * * * * * * * * * * * * * * * * * * * * * * * * * * * * * * * * * * //

dimensions      [0 2 -1 0 0 0 0];


internalField   nonuniform List<scalar> 
12441
(
5.82185e-24
1.79047e-20
8.10469e-20
3.32533e-19
1.06828e-18
3.88828e-18
1.01057e-17
2.50053e-17
6.1386e-17
1.27536e-16
3.05678e-16
7.71361e-16
2.18131e-15
7.40005e-15
1.03642e-13
1.89352e-11
0.000193269
0.000924515
0.00298186
0.00260518
0.00364762
0.00775321
6.34179e-24
3.03335e-20
1.11726e-19
4.23929e-19
1.30205e-18
4.80715e-18
1.21983e-17
3.00098e-17
7.3611e-17
1.54457e-16
3.79822e-16
1.02902e-15
2.82864e-15
9.37277e-15
1.13077e-13
3.89791e-11
5.75901e-05
0.00112142
0.00341606
0.00283658
0.00401029
0.00781733
6.36455e-24
3.58937e-20
1.20772e-19
4.48109e-19
1.37767e-18
4.90653e-18
1.29286e-17
3.20403e-17
8.05142e-17
1.71773e-16
4.17902e-16
1.11722e-15
2.78514e-15
7.66147e-15
5.35181e-14
6.56828e-12
1.10823e-05
0.000824446
0.00136486
0.00267673
0.00416357
0.0078909
6.31901e-24
3.76897e-20
1.18527e-19
4.29286e-19
1.32528e-18
4.71333e-18
1.2513e-17
3.13258e-17
7.84934e-17
1.73673e-16
4.23766e-16
1.15375e-15
2.61071e-15
8.47241e-15
3.85071e-14
1.54211e-12
1.62398e-06
0.000576177
0.00101924
0.00260132
0.00432639
0.0079647
6.28498e-24
4.38808e-20
1.29772e-19
4.58288e-19
1.40261e-18
4.77906e-18
1.30903e-17
3.27932e-17
8.42954e-17
1.8752e-16
4.54164e-16
1.28436e-15
3.0192e-15
4.07013e-14
2.47205e-13
2.2959e-12
1.39575e-07
0.000407821
0.00100221
0.00258943
0.00446665
0.00803394
6.23479e-24
4.12858e-20
1.20532e-19
4.29163e-19
1.34264e-18
4.62179e-18
1.27497e-17
3.23913e-17
8.28914e-17
1.92682e-16
4.76944e-16
1.44522e-15
4.53297e-15
1.32873e-12
1.18984e-11
5.10022e-11
4.5839e-07
0.000377002
0.00107188
0.00264623
0.00459241
0.00809948
6.19991e-24
5.02613e-20
1.37788e-19
4.75739e-19
1.46005e-18
4.79212e-18
1.35923e-17
3.44514e-17
9.06982e-17
2.11116e-16
5.20832e-16
1.99959e-15
2.50247e-14
4.14383e-11
6.57858e-10
9.36896e-09
1.87588e-05
0.000400498
0.0012618
0.0028281
0.00473593
0.00816218
6.15012e-24
4.34498e-20
1.23164e-19
4.4013e-19
1.40807e-18
4.72246e-18
1.35114e-17
3.48426e-17
9.13152e-17
2.23839e-16
5.72498e-16
5.43468e-15
6.09777e-13
2.25324e-09
8.41633e-08
4.98257e-06
0.000197182
0.000467259
0.00171292
0.00319628
0.00492223
0.00822577
6.11735e-24
5.57013e-20
1.46122e-19
4.99645e-19
1.55401e-18
4.95826e-18
1.46107e-17
3.75677e-17
1.02068e-16
2.50932e-16
6.45324e-16
6.13352e-14
2.59055e-11
7.42505e-08
1.04551e-05
0.000156385
0.000825922
0.000847446
0.0026433
0.00382044
0.00518258
0.00829204
6.07047e-24
4.43472e-20
1.25428e-19
4.56601e-19
1.50743e-18
4.95324e-18
1.47464e-17
3.87225e-17
1.04872e-16
2.75107e-16
7.48595e-16
1.68156e-12
1.08305e-09
4.43896e-06
0.000194763
0.00064491
0.00182204
0.00164338
0.00437197
0.0047773
0.00552953
0.00836448
6.04133e-24
6.0257e-20
1.53425e-19
5.25872e-19
1.67259e-18
5.20551e-18
1.60238e-17
4.2031e-17
1.19286e-16
3.1735e-16
8.92032e-16
5.22967e-11
5.50359e-08
8.28259e-05
0.000762292
0.00189457
0.00420986
0.00338423
0.00738921
0.00617008
0.00597622
0.00844366
5.99589e-24
4.46266e-20
1.27728e-19
4.76911e-19
1.63357e-18
5.28052e-18
1.6401e-17
4.40615e-17
1.25492e-16
3.64608e-16
1.15855e-15
1.45643e-09
3.24749e-06
0.000360589
0.00177807
0.00454624
0.00925507
0.00700182
0.0122065
0.00804879
0.00651241
0.00853143
5.97031e-24
6.41462e-20
1.60441e-19
5.53772e-19
1.81482e-18
5.54144e-18
1.7907e-17
4.82175e-17
1.46693e-16
4.44695e-16
1.69445e-15
3.52172e-08
7.32554e-05
0.00119352
0.00470865
0.0106675
0.019169
0.0137876
0.0190207
0.0104007
0.00713012
0.00862633
5.92632e-24
4.4323e-20
1.29662e-19
4.9928e-19
1.78306e-18
5.69143e-18
1.8531e-17
5.13794e-17
1.5984e-16
5.59117e-16
3.60116e-15
7.96739e-07
0.000360657
0.00331009
0.0110914
0.0222492
0.0359633
0.024855
0.0275229
0.0131056
0.00779866
0.00872852
5.90397e-24
6.75124e-20
1.66645e-19
5.82582e-19
1.97784e-18
5.9396e-18
2.02673e-17
5.67771e-17
1.9604e-16
7.78648e-16
1.65159e-14
1.52204e-05
0.00124708
0.00831019
0.0230442
0.0410225
0.0605753
0.0403691
0.0368901
0.0160098
0.00849912
0.00883515
5.86026e-24
4.39567e-20
1.3199e-19
5.24771e-19
1.95765e-18
6.18502e-18
2.12005e-17
6.16736e-17
2.28151e-16
1.21618e-15
3.0214e-13
0.00013986
0.00331931
0.0179387
0.0422494
0.0676072
0.0921219
0.0590038
0.0460997
0.0189167
0.00919609
0.00894576
5.8412e-24
7.05371e-20
1.73495e-19
6.15082e-19
2.17044e-18
6.43898e-18
2.33087e-17
6.93716e-17
3.08208e-16
2.30476e-15
1.26015e-11
0.000554232
0.00803791
0.033765
0.0688881
0.101176
0.127547
0.0781761
0.0542419
0.0216878
0.00987549
0.00905718
5.79722e-24
4.35001e-20
1.34485e-19
5.53103e-19
2.16051e-18
6.77103e-18
2.46165e-17
7.72231e-17
4.08437e-16
5.44521e-15
5.4795e-10
0.00150709
0.0168782
0.0565954
0.102319
0.139147
0.162103
0.0949648
0.060843
0.0242002
0.0105106
0.00916919
5.7809e-24
7.32609e-20
1.80279e-19
6.49096e-19
2.38784e-18
7.01109e-18
2.71804e-17
8.9063e-17
6.61677e-16
1.69217e-14
4.40869e-08
0.00390119
0.0313228
0.0855692
0.139914
0.17765
0.190672
0.107352
0.0658402
0.0264193
0.0111013
0.00927899
5.73633e-24
4.30513e-20
1.36864e-19
5.82371e-19
2.38672e-18
7.43759e-18
2.90053e-17
1.02308e-16
1.08035e-15
7.52656e-14
8.57972e-06
0.00873247
0.0518104
0.119282
0.178772
0.212155
0.209367
0.114859
0.0695279
0.0283136
0.0116337
0.00938714
5.72331e-24
7.57269e-20
1.86794e-19
6.83145e-19
2.62911e-18
7.6725e-18
3.23019e-17
1.22236e-16
2.1936e-15
7.8013e-13
0.000171873
0.0174428
0.0776519
0.155073
0.214781
0.238845
0.216826
0.118476
0.0722856
0.0299178
0.0121206
0.00949146
5.67791e-24
4.24326e-20
1.38566e-19
6.10895e-19
2.63496e-18
8.1927e-18
3.49374e-17
1.46452e-16
4.33984e-15
1.34048e-11
0.000705714
0.0310144
0.107259
0.19069
0.244976
0.25541
0.214469
0.119819
0.0744945
0.031243
0.0125594
0.00959327
5.66758e-24
7.80204e-20
1.92463e-19
7.15452e-19
2.88972e-18
8.41776e-18
3.94306e-17
1.83568e-16
1.0275e-14
1.66089e-10
0.0019781
0.0495941
0.138638
0.223318
0.26667
0.261772
0.205672
0.120354
0.0763962
0.0323492
0.0129742
0.00969106
5.62164e-24
4.19629e-20
1.39786e-19
6.37972e-19
2.90244e-18
9.03698e-18
4.34982e-17
2.31473e-16
2.24186e-14
1.55794e-09
0.0048188
0.072557
0.169837
0.251217
0.279471
0.259658
0.194256
0.120908
0.0781506
0.0332659
0.013372
0.00978684
5.61485e-24
8.02733e-20
1.97572e-19
7.45788e-19
3.17105e-18
9.26683e-18
5.02615e-17
3.06404e-16
5.64366e-14
1.37802e-08
0.0101603
0.0984478
0.19921
0.272809
0.28388
0.251978
0.183195
0.121745
0.07981
0.0340688
0.0137853
0.00987966
5.56712e-24
4.17908e-20
1.40758e-19
6.63839e-19
3.19185e-18
9.9918e-18
5.71485e-17
4.08425e-16
1.30471e-13
3.19021e-07
0.0188552
0.125796
0.225503
0.287966
0.282049
0.241672
0.174048
0.122783
0.0814005
0.0348027
0.0142277
0.00997203
5.56282e-24
8.24822e-20
2.02092e-19
7.73991e-19
3.47275e-18
1.02318e-17
6.84568e-17
5.73317e-16
3.92514e-13
1.87844e-05
0.0311076
0.153038
0.247895
0.296897
0.276007
0.231088
0.167185
0.123851
0.0829021
0.0355505
0.0147354
0.0100634
5.51395e-24
4.18585e-20
1.41217e-19
6.87494e-19
3.50134e-18
1.10682e-17
8.13235e-17
8.10323e-16
1.8298e-12
0.000215928
0.0466952
0.179089
0.265991
0.300843
0.268036
0.221596
0.162311
0.124789
0.0843014
0.0363546
0.0153209
0.0101564
5.51303e-24
8.46742e-20
2.05793e-19
7.99196e-19
3.79612e-18
1.13437e-17
1.02509e-16
1.20431e-15
1.28006e-11
0.000747092
0.0648242
0.203036
0.279796
0.300903
0.259526
0.213778
0.158921
0.125507
0.0855636
0.0372796
0.0160143
0.0102507
5.4619e-24
4.20336e-20
1.40962e-19
7.08386e-19
3.83341e-18
1.23039e-17
1.2882e-16
1.79559e-15
7.40858e-11
0.00158152
0.0847585
0.224383
0.289628
0.298507
0.251582
0.207654
0.156547
0.125966
0.0866692
0.0383375
0.0168155
0.0103488
5.46301e-24
8.68055e-20
2.08974e-19
8.21784e-19
4.14308e-18
1.26527e-17
1.72471e-16
2.80942e-15
3.56384e-10
0.00292221
0.105611
0.242765
0.296026
0.294578
0.244556
0.203004
0.154836
0.126173
0.0875851
0.0395516
0.017738
0.01045
5.41082e-24
4.22458e-20
1.39896e-19
7.26581e-19
4.19064e-18
1.37407e-17
2.30119e-16
4.38926e-15
1.3868e-09
0.00502059
0.126744
0.258138
0.299621
0.290038
0.238685
0.19952
0.153556
0.126148
0.0882938
0.0408925
0.018761
0.0105565
5.41503e-24
8.89173e-20
2.11411e-19
8.42369e-19
4.52254e-18
1.41928e-17
3.26388e-16
7.0832e-15
4.7464e-09
0.00822768
0.147479
0.270542
0.301062
0.285311
0.233832
0.196924
0.152565
0.125931
0.0887675
0.0423468
0.0198767
0.010667
5.35937e-24
4.22783e-20
1.37806e-19
7.42849e-19
4.58471e-18
1.54527e-17
4.58228e-16
1.12948e-14
1.44523e-08
0.0129152
0.167426
0.280239
0.300935
0.280825
0.229936
0.194981
0.151782
0.125559
0.0889933
0.0438621
0.0210449
0.0107831
5.36553e-24
8.8457e-20
2.10337e-19
8.57225e-19
4.9365e-18
1.60475e-17
6.77962e-16
1.85063e-14
4.28114e-08
0.0194819
0.186236
0.28751
0.299743
0.276664
0.22678
0.193524
0.151171
0.125073
0.0889493
0.0454176
0.0222446
0.0109032
5.30582e-24
4.14856e-20
1.32572e-19
7.51594e-19
5.00987e-18
1.74616e-17
9.80419e-16
2.99162e-14
2.19943e-07
0.0284415
0.203864
0.292757
0.297887
0.272998
0.224278
0.192426
0.150718
0.12451
0.0886293
0.046972
0.0234281
0.0110282
5.31236e-24
8.5263e-20
2.03824e-19
8.62058e-19
5.381e-18
1.81862e-17
1.47467e-15
5.74563e-14
1.18087e-05
0.0404604
0.22031
0.296336
0.295677
0.269776
0.222256
0.191611
0.150428
0.123909
0.0880204
0.0485324
0.0245763
0.0111563
5.24588e-24
4.16146e-20
1.27322e-19
7.57668e-19
5.48237e-18
1.98558e-17
2.14223e-15
4.64996e-13
0.000256651
0.0565518
0.235787
0.298653
0.293338
0.26708
0.220678
0.191026
0.150313
0.123306
0.0871276
0.0500956
0.0256518
0.0112883
5.24932e-24
5.37899e-20
1.54721e-19
7.99478e-19
5.76875e-18
2.06385e-17
3.20144e-15
2.31282e-11
0.00228622
0.0779438
0.25044
0.300027
0.291033
0.264837
0.21943
0.190651
0.150396
0.12274
0.085954
0.0517087
0.0266574
0.011422
5.17248e-24
4.32802e-20
1.1447e-19
7.24242e-19
5.93998e-18
2.3543e-17
4.66231e-15
1.03288e-09
0.0102129
0.105465
0.264463
0.300797
0.288861
0.26313
0.218525
0.190478
0.150704
0.12224
0.0845251
0.053397
0.0275846
0.0115584
5.1659e-24
1.93951e-21
1.12091e-20
4.00644e-19
5.44894e-18
2.44369e-17
7.2068e-15
1.85065e-07
0.0295899
0.13914
0.277837
0.301204
0.286876
0.261904
0.217896
0.190524
0.151263
0.12184
0.0828695
0.0552001
0.0284713
0.0116955
5.07772e-24
1.71164e-20
4.4772e-20
4.1736e-19
5.46184e-18
3.62038e-17
1.80041e-14
5.72907e-05
0.0653613
0.178399
0.290504
0.301509
0.285083
0.261277
0.217609
0.190809
0.1521
0.121557
0.0810449
0.0570611
0.029331
0.0118345
5.03896e-24
6.7202e-22
8.45913e-23
2.35238e-19
5.0661e-18
8.28125e-17
3.70761e-13
0.00153484
0.120985
0.222179
0.302177
0.301888
0.283449
0.261197
0.217616
0.191379
0.15324
0.121403
0.0791155
0.0588057
0.0301641
0.011976
4.83815e-24
2.10321e-19
4.58125e-19
1.02949e-18
7.26015e-18
9.13497e-16
7.18213e-12
0.0103253
0.197964
0.269812
0.313038
0.302678
0.281939
0.261778
0.217982
0.192258
0.154682
0.121308
0.0771618
0.0599892
0.0306652
0.0121338
0.00987657
0.0338538
0.0401757
0.0149522
0.0106967
0.0102525
0.0102087
0.0106684
0.0107062
0.0113872
0.0167178
0.016262
0.0153932
0.0153777
0.016183
0.0177251
0.0196303
0.0206623
0.019354
0.0155188
0.0128733
0.0119895
0.0117089
0.0117444
0.0121012
0.0126667
0.0133111
0.0139376
0.014441
0.0151209
0.0161258
0.0162916
0.0159352
0.0476078
0.170307
0.00986353
0.0344833
0.0391339
0.014607
0.0106266
0.0101554
0.0103208
0.0108098
0.0107599
0.0114317
0.0163821
0.0158483
0.0150121
0.0149775
0.0157999
0.0173728
0.0194281
0.0207115
0.0195422
0.0155574
0.0127499
0.0118229
0.0115176
0.0115202
0.0118451
0.0123929
0.0130462
0.0137017
0.0142323
0.01492
0.0159341
0.0161044
0.0158158
0.0468962
0.16999
0.00983842
0.0350824
0.0373199
0.0140164
0.0106415
0.0100772
0.0106014
0.0111129
0.0109129
0.0115515
0.0151916
0.0144792
0.0138884
0.0138146
0.0142304
0.0152114
0.0168515
0.0181861
0.0177052
0.014577
0.012218
0.0114085
0.0111105
0.0110727
0.0113414
0.0118498
0.0125114
0.0132192
0.013808
0.0145148
0.0155473
0.0157304
0.0156017
0.0459467
0.169295
0.00979929
0.0356392
0.0350139
0.0135046
0.0107966
0.010115
0.0110148
0.011449
0.0111421
0.0117616
0.0139079
0.0129691
0.0126004
0.012639
0.0127293
0.0129639
0.0138139
0.014807
0.0148748
0.0129462
0.0113491
0.0107664
0.0105082
0.0104312
0.0106266
0.0110712
0.0117266
0.012497
0.0131726
0.0139128
0.0149726
0.015181
0.015257
0.0446865
0.168211
0.00974597
0.0360125
0.0323738
0.0130406
0.0109677
0.0101783
0.0114179
0.0117
0.011338
0.0119452
0.012825
0.0116846
0.0115371
0.0118228
0.0117363
0.0112942
0.0112679
0.0116476
0.0118697
0.0109864
0.0102108
0.00992001
0.00973709
0.00963382
0.00975019
0.010109
0.0107309
0.0115555
0.0123391
0.0131291
0.0142243
0.0144737
0.0147562
0.043076
0.166742
0.00967615
0.0360775
0.029522
0.0125291
0.0110535
0.0101775
0.0116914
0.0117932
0.0114068
0.0119762
0.0119161
0.0106427
0.0106974
0.0112564
0.0111385
0.0102105
0.00943438
0.00914763
0.00918673
0.00895464
0.0088718
0.00889547
0.00882583
0.00872112
0.00876637
0.00902569
0.00958018
0.0104302
0.0113291
0.0121855
0.0133231
0.0136306
0.014085
0.0411062
0.164895
0.00959042
0.0357492
0.0265879
0.0119337
0.0110257
0.010084
0.011784
0.0117082
0.0113079
0.0117913
0.011074
0.00973101
0.00992042
0.0106767
0.0106411
0.0094636
0.0081682
0.00732553
0.00702662
0.0070384
0.00740804
0.00772451
0.00780327
0.00773147
0.00772701
0.00788659
0.00834281
0.00917272
0.0101743
0.0111095
0.012295
0.0126777
0.0132426
0.0387969
0.162689
0.00948687
0.0349608
0.0237046
0.0112813
0.010911
0.00991593
0.0117041
0.0114653
0.0110484
0.0113935
0.010226
0.00886169
0.00908671
0.00991397
0.0100236
0.00880951
0.00723465
0.00601492
0.00538949
0.00536437
0.00591428
0.00645231
0.00670055
0.00669953
0.00667725
0.00675164
0.00709132
0.00784941
0.00891779
0.0099344
0.01117
0.0116435
0.0122421
0.0361932
0.160143
0.00936733
0.0336949
0.020986
0.010629
0.0107576
0.00971286
0.0114939
0.0111054
0.0106622
0.0108271
0.00935821
0.00800522
0.00817266
0.00894797
0.009214
0.00811399
0.00645199
0.00503112
0.00418572
0.00400997
0.00451024
0.00515011
0.00555783
0.00565875
0.00565479
0.00567068
0.00589379
0.00653564
0.00761559
0.0087002
0.00998211
0.0105579
0.0111114
0.0333612
0.157286
0.0092307
0.0319537
0.0185176
0.0100355
0.0106151
0.00951826
0.0112088
0.0106781
0.0101956
0.0101539
0.0084909
0.0071704
0.00721572
0.00784739
0.00823887
0.00733546
0.00571757
0.00423858
0.00331036
0.00300396
0.0033243
0.00392259
0.00443385
0.00464693
0.00469252
0.00468241
0.00480668
0.00530742
0.00633477
0.00745431
0.00876899
0.00945214
0.00989182
0.0303827
0.154152
0.00908003
0.0297877
0.0163524
0.00954875
0.0105254
0.00937141
0.010905
0.0102324
0.00969607
0.00943667
0.00765643
0.00637876
0.00627202
0.00670792
0.00716844
0.00648722
0.00499165
0.00356067
0.00267557
0.00232602
0.00245083
0.00289314
0.00341107
0.00371225
0.00382285
0.00381639
0.00387148
0.00423144
0.00514841
0.00625164
0.00757173
0.00835727
0.00863595
0.0273475
0.150785
0.00891508
0.0272625
0.0145208
0.00920221
0.0105234
0.00930507
0.0106344
0.00981454
0.00920893
0.00873176
0.00688585
0.00565183
0.00539153
0.00561405
0.00607661
0.00560332
0.00427255
0.00296648
0.00221554
0.00191341
0.00190683
0.00215575
0.0025819
0.00291318
0.00307993
0.00309546
0.00311418
0.0033566
0.00412626
0.00515214
0.00643469
0.00730438
0.00740333
0.0243468
0.147239
0.00874002
0.0244871
0.0130353
0.00901796
0.0106396
0.00934612
0.0104421
0.00946404
0.00877376
0.00808557
0.00620431
0.0050065
0.00461034
0.00463011
0.00503051
0.00472702
0.00358282
0.00245631
0.0018829
0.0016816
0.00162941
0.00172379
0.00200926
0.00230391
0.00249539
0.00253519
0.00254521
0.00270805
0.00332252
0.00421418
0.00540391
0.00632389
0.00625475
0.0214672
0.143585
0.00855535
0.0215786
0.0118996
0.00901019
0.0109035
0.00951765
0.010366
0.00921464
0.00842453
0.0075344
0.00563054
0.00445586
0.00395035
0.0037992
0.00408728
0.00390416
0.00295793
0.00204456
0.00164518
0.0015516
0.00151983
0.00153157
0.00169003
0.001908
0.00208646
0.0021393
0.00215849
0.00228415
0.00276412
0.00348379
0.00452309
0.00544487
0.00524542
0.0187862
0.139909
0.00836592
0.0186809
0.0111069
0.00918923
0.0113467
0.00984318
0.0104385
0.00909329
0.00818801
0.00710434
0.00517854
0.0040093
0.00342169
0.00314505
0.0032951
0.00318172
0.00243548
0.00174177
0.00148141
0.00147049
0.00148981
0.00148608
0.00156521
0.00170434
0.00184476
0.00189529
0.00193235
0.00205915
0.00244488
0.00298253
0.00382657
0.00469339
0.00441766
0.01637
0.13632
0.00817267
0.0159312
0.0106429
0.00956629
0.012006
0.010354
0.0106904
0.00912312
0.00808564
0.00681335
0.00485812
0.00367419
0.00302553
0.00267124
0.00268595
0.00259942
0.00204075
0.00154193
0.00137649
0.00141425
0.0014839
0.00150826
0.00156048
0.00164248
0.00173879
0.00177686
0.00183628
0.0019942
0.00233153
0.00270153
0.00333115
0.00408956
0.00379482
0.0142722
0.132948
0.00798033
0.013465
0.0104922
0.0101616
0.0129263
0.0110944
0.0111566
0.00932816
0.00813593
0.00667418
0.0046775
0.00345573
0.00275656
0.00236411
0.00226925
0.00217975
0.00177571
0.00142289
0.00131528
0.00137694
0.0014812
0.00154929
0.00161394
0.00166747
0.00172757
0.00175247
0.00184005
0.00205055
0.00237845
0.00260729
0.00303163
0.00364395
0.00337871
0.0125322
0.129948
0.00778933
0.0113969
0.0106562
0.0110081
0.0141648
0.0121279
0.0118824
0.00973993
0.00835922
0.00669882
0.00464512
0.00335851
0.00260592
0.00219779
0.00202892
0.00191926
0.00161958
0.00135606
0.00128141
0.00135675
0.00148198
0.00159073
0.00168668
0.00173506
0.00177347
0.00179376
0.00191974
0.0021968
0.00254033
0.00265504
0.00290416
0.00335505
0.00315267
0.0111749
0.127493
0.00760307
0.00980072
0.0111734
0.0121518
0.0157949
0.0135401
0.012928
0.0104025
0.00878188
0.00690293
0.00477359
0.00338709
0.00256382
0.00214229
0.00193169
0.00179186
0.00153967
0.00131615
0.00126002
0.00134998
0.00149221
0.00163311
0.00176206
0.00181748
0.00184926
0.00188022
0.00205921
0.0024099
0.00277843
0.00280079
0.00291526
0.00321024
0.00308962
0.0102132
0.125759
0.00742066
0.00868965
0.0121338
0.0136535
0.0179058
0.0154377
0.0143689
0.0113752
0.00943967
0.00730941
0.00508205
0.00354974
0.00262349
0.00216918
0.00193687
0.00175908
0.0015039
0.00128666
0.00124214
0.00135173
0.00151522
0.00168271
0.00183764
0.0019021
0.00193996
0.0020004
0.00224888
0.00267319
0.00306291
0.0030084
0.00303105
0.00318983
0.00316138
0.00965352
0.124917
0.00724378
0.00802369
0.0136764
0.015593
0.0206007
0.017942
0.0162925
0.0127301
0.010378
0.00794996
0.00559896
0.00386112
0.00278515
0.00225778
0.00200649
0.00178225
0.00148756
0.00126013
0.00122539
0.00135942
0.00155131
0.00174409
0.0019161
0.00198621
0.0020408
0.00215055
0.00248353
0.00297407
0.00337285
0.00325248
0.00322308
0.0032723
0.00334541
0.00950308
0.125099
0.00707145
0.00773684
0.0159828
0.0180771
0.0239987
0.0211842
0.0187937
0.0145471
0.0116496
0.00886315
0.00636182
0.0043463
0.00306073
0.00239885
0.00211016
0.00182963
0.00147624
0.00123582
0.00121213
0.00137357
0.00159997
0.00181865
0.00199994
0.00207167
0.00215363
0.00233198
0.0027599
0.00330246
0.00369546
0.00351827
0.00347098
0.00343847
0.00362833
0.00977469
0.126383
0.00690537
0.00776056
0.0192552
0.0212568
0.0282453
0.025308
0.0219742
0.0169072
0.0133102
0.0100879
0.00740851
0.00503857
0.00347602
0.00260015
0.00223143
0.00188158
0.00146461
0.00121634
0.00120599
0.00139681
0.00166162
0.00190582
0.00209003
0.00216183
0.00228362
0.00254845
0.00307501
0.00365013
0.00402459
0.00379984
0.00376261
0.00367413
0.00400699
0.0104905
0.128774
0.00674534
0.00803961
0.0236905
0.0253525
0.0335299
0.0304816
0.0259472
0.0198884
0.0154112
0.0116568
0.00876486
0.00597129
0.00406645
0.00288783
0.00236882
0.00193071
0.00145442
0.00120583
0.00121063
0.00143156
0.0017371
0.00200436
0.00218609
0.0022603
0.00243725
0.002804
0.00342505
0.00401079
0.00435943
0.00409767
0.00409296
0.00397121
0.00448821
0.0116845
0.132212
0.00659312
0.00852969
0.0294472
0.0306746
0.0400953
0.0369
0.0308349
0.0235581
0.017989
0.0135803
0.0104267
0.00715818
0.00486042
0.00330388
0.00253858
0.00198079
0.00145101
0.00120878
0.00122937
0.00147954
0.00182695
0.00211276
0.00228772
0.00237101
0.00262114
0.00310154
0.00380523
0.00438022
0.00470302
0.00441651
0.00446258
0.00432813
0.00508805
0.0134034
0.136584
0.00644962
0.00920092
0.0366165
0.0376194
0.048219
0.0447527
0.0367414
0.027952
0.021048
0.0158332
0.012344
0.00857289
0.00585369
0.0038848
0.00276892
0.00204234
0.00146142
0.00123
0.00126624
0.00154154
0.00193023
0.00222922
0.00239506
0.00249843
0.00284149
0.00344211
0.0042101
0.00475655
0.00506121
0.00476372
0.00487625
0.00474952
0.0058309
0.0157055
0.141746
0.00631698
0.0100321
0.0452019
0.0466281
0.0581539
0.0541436
0.0436924
0.0330328
0.0245326
0.0183374
0.0144122
0.0101341
0.0069888
0.00462918
0.00308972
0.00212929
0.0014922
0.00127416
0.00132596
0.00161877
0.00204487
0.00235164
0.00250921
0.00264778
0.00310372
0.00382462
0.00463429
0.00514018
0.00544157
0.00514821
0.005342
0.00524582
0.00674885
0.0186581
0.147545
0.00619775
0.0110193
0.0551632
0.0581183
0.0700408
0.0649818
0.0515539
0.0386407
0.0282984
0.0209501
0.016473
0.0117072
0.00815428
0.00546978
0.00350427
0.00225167
0.0015492
0.00134609
0.00141426
0.00171321
0.00216787
0.002478
0.00263242
0.00282487
0.00341204
0.00424602
0.00507324
0.00553356
0.00585285
0.00557985
0.0058706
0.00583283
0.00788128
0.0223326
0.153833
0.00609509
0.0121744
0.0664987
0.0724127
0.0838147
0.0768898
0.0599656
0.044459
0.0320958
0.0234621
0.0183266
0.0131174
0.00920196
0.00628499
0.00396794
0.00240782
0.00163569
0.0014503
0.00153711
0.00182876
0.00229686
0.00260702
0.00276818
0.00303597
0.00376914
0.00470185
0.00552388
0.00594072
0.00630434
0.00606915
0.00647531
0.00653139
0.00927468
0.0267983
0.160474
0.00601408
0.013539
0.0793316
0.0896546
0.0991159
0.089164
0.0683251
0.0500167
0.0355808
0.0256145
0.0197542
0.0141743
0.00997214
0.00692994
0.00438846
0.00257595
0.00175111
0.00159062
0.00170041
0.00197081
0.00243071
0.00273888
0.00292122
0.00328732
0.00417591
0.00518695
0.00598487
0.00636687
0.00680568
0.00662729
0.00717197
0.00736721
0.0109825
0.0321157
0.167352
0.00596079
0.0151826
0.0938851
0.109641
0.115193
0.100792
0.0758303
0.0547323
0.0383521
0.0271308
0.020548
0.0147002
0.0103205
0.0072747
0.0046626
0.00271882
0.00188884
0.00176835
0.00190809
0.00214642
0.00257116
0.00287579
0.00309747
0.0035847
0.00463135
0.00569632
0.00645668
0.00681781
0.00736662
0.00726623
0.00797921
0.00837092
0.0130651
0.0383306
0.17437
0.00594609
0.0172133
0.110359
0.131557
0.130826
0.110539
0.0815831
0.0579981
0.0400147
0.027762
0.0205464
0.0145638
0.0101459
0.00722849
0.00471052
0.00279816
0.00203784
0.00198117
0.00216067
0.00236217
0.00272283
0.00302226
0.00330373
0.00393287
0.00513268
0.00622575
0.00694126
0.0072996
0.007997
0.00799894
0.00891876
0.00957827
0.0155893
0.0454685
0.181454
0.00598322
0.0197623
0.128662
0.153728
0.144355
0.117123
0.084744
0.0592892
0.0402536
0.0273378
0.0196725
0.013715
0.00942113
0.00676698
0.00450522
0.00279484
0.00218603
0.0022219
0.00245251
0.00262267
0.00289381
0.00318515
0.00354726
0.00433494
0.00567577
0.00677234
0.00744172
0.00781813
0.00870672
0.00883972
0.0100159
0.0110305
0.0186283
0.0535323
0.188546
0.00609167
0.0229874
0.148141
0.173678
0.153938
0.119481
0.0847186
0.0582844
0.0389103
0.0258122
0.017964
0.0122166
0.00822183
0.00594938
0.00408125
0.00271682
0.0023259
0.00248006
0.00277176
0.00292661
0.00309396
0.00337329
0.00383527
0.00479181
0.00625549
0.00733455
0.00796182
0.00837899
0.00950595
0.00980455
0.0113
0.0127751
0.0222609
0.0625014
0.195607
0.00628805
0.0270379
0.167438
0.18864
0.157996
0.117062
0.0813181
0.0549564
0.036031
0.0232889
0.0155841
0.010255
0.00673873
0.00492869
0.00353506
0.00259732
0.00245662
0.00274365
0.00310125
0.00326587
0.00333367
0.00359683
0.00417411
0.00530169
0.00686633
0.00791214
0.0085056
0.00898724
0.0104051
0.0109115
0.012805
0.0148663
0.0265707
0.0723352
0.202614
0.00658505
0.0320569
0.184742
0.196405
0.155703
0.110006
0.0748323
0.0496013
0.0318752
0.0200124
0.0128007
0.00811445
0.00524342
0.00391765
0.00299499
0.00247965
0.00258347
0.00300177
0.00342259
0.00362464
0.00362033
0.00386607
0.00456838
0.00585976
0.00750265
0.00850567
0.00907693
0.00964752
0.0114155
0.0121811
0.0145703
0.0173662
0.0316455
0.0829782
0.209562
0.00697682
0.0380963
0.198231
0.195983
0.147224
0.0991176
0.0659652
0.0427769
0.0268639
0.0163231
0.00993507
0.0061073
0.00399451
0.00311137
0.00257453
0.00240258
0.00271356
0.00324534
0.00371953
0.00398446
0.00395635
0.00418994
0.00501999
0.00645816
0.00815896
0.00911609
0.00967939
0.0103641
0.0125491
0.013637
0.0166412
0.0203456
0.0375773
0.0943684
0.21646
0.00744499
0.0450546
0.206498
0.187731
0.13361
0.0856403
0.0556609
0.0351772
0.0214938
0.0125894
0.0072961
0.00448114
0.00312807
0.00259891
0.00232522
0.00238625
0.00285085
0.00346722
0.00398071
0.00432717
0.00433665
0.00457396
0.00552732
0.00708633
0.00882986
0.00974413
0.0103161
0.0111413
0.0138196
0.0153066
0.0190701
0.0238858
0.0444621
0.106446
0.223333
0.00795396
0.0524151
0.208576
0.172942
0.116421
0.0709332
0.0448866
0.027486
0.0162408
0.0091449
0.00512312
0.00334327
0.00262481
0.00235218
0.00223358
0.00242836
0.00299246
0.00366159
0.00420027
0.00464093
0.00475034
0.00501866
0.00608484
0.00773189
0.00951008
0.01039
0.0109895
0.0119835
0.0152426
0.0172213
0.0219171
0.0280796
0.0524004
0.119165
0.230221
0.00846726
0.0591548
0.203863
0.1533
0.0972976
0.0562007
0.0344629
0.0202729
0.0114969
0.00624787
0.00354507
0.00264888
0.00237682
0.00227947
0.002244
0.00250623
0.00312938
0.00382392
0.00437698
0.00491892
0.00518246
0.00551869
0.00668361
0.00838205
0.0101945
0.0110528
0.0117015
0.0128962
0.0168366
0.0194181
0.025251
0.0330328
0.0614991
0.132497
0.237176
0.00894498
0.0636677
0.191998
0.130477
0.0776657
0.0423428
0.0249809
0.0139487
0.00754588
0.0040636
0.00255049
0.00226722
0.00226832
0.00228237
0.00229202
0.00259159
0.00325138
0.00395154
0.00451295
0.00516109
0.00561873
0.00606425
0.0073131
0.00902568
0.0108786
0.0117311
0.0124536
0.0138853
0.0186233
0.0219396
0.02915
0.0388657
0.0718724
0.146447
0.244264
0.0093615
0.0642835
0.172969
0.10602
0.058658
0.0299565
0.016818
0.00878427
0.00457147
0.00263719
0.00200065
0.00206742
0.00221107
0.00228493
0.0023276
0.00266366
0.00335215
0.0040437
0.00461166
0.00536909
0.00604722
0.00664364
0.007964
0.00965557
0.011559
0.0124222
0.0132459
0.014958
0.0206286
0.0248357
0.0337022
0.0457142
0.0836446
0.16105
0.251562
0.0096768
0.0595518
0.147171
0.0813932
0.0412097
0.0194461
0.0102197
0.00495642
0.00264241
0.00184801
0.00171975
0.00195282
0.0021478
0.00224587
0.0023294
0.00271811
0.00343174
0.00410181
0.00467762
0.00554734
0.00646089
0.00724743
0.00863182
0.010271
0.012235
0.0131233
0.0140774
0.0161213
0.0228831
0.0281643
0.0390054
0.0537294
0.0969511
0.176384
0.259152
0.00988074
0.0492969
0.115841
0.057945
0.0261124
0.0110831
0.00534662
0.00252571
0.00161223
0.0014534
0.00156438
0.00185093
0.00204153
0.00214774
0.00229273
0.00275663
0.00349005
0.00412525
0.00471518
0.00569955
0.00685548
0.00786945
0.00931972
0.01088
0.0129094
0.0138318
0.0149449
0.0173815
0.0254213
0.0319918
0.045167
0.0630774
0.11194
0.192561
0.267123
4.88219e-24
3.15026e-19
1.13949e-18
4.29898e-18
2.49064e-17
3.14174e-14
9.0064e-11
0.0389845
0.271009
0.30697
0.320325
0.303626
0.280901
0.262741
0.21856
0.193259
0.156094
0.12113
0.0757204
0.060213
0.0302934
0.0121383
4.99582e-24
7.39236e-20
8.34426e-20
6.23128e-18
6.21992e-17
2.44642e-13
9.19406e-10
0.0742332
0.320939
0.329507
0.323738
0.304041
0.280253
0.263636
0.219252
0.194171
0.157359
0.121063
0.0750365
0.0600003
0.0298698
0.0121857
5.10201e-24
2.76606e-19
8.77654e-19
8.89282e-18
1.21999e-16
9.25052e-13
9.28618e-09
0.116409
0.365591
0.348005
0.325977
0.30428
0.279744
0.26466
0.220176
0.19526
0.158854
0.121093
0.0747466
0.0594066
0.0293451
0.012343
5.06172e-24
5.7257e-20
2.14772e-20
6.84917e-18
1.92162e-16
2.27508e-12
1.69464e-07
0.160925
0.404019
0.362913
0.327699
0.304513
0.279482
0.265885
0.221387
0.196498
0.160531
0.12123
0.07484
0.0584647
0.0287536
0.0125991
5.16567e-24
2.21309e-19
6.32287e-19
7.23182e-18
2.88227e-16
3.60937e-12
6.5624e-06
0.20083
0.436027
0.374724
0.329371
0.304872
0.279565
0.267285
0.222851
0.197867
0.162336
0.121475
0.0752829
0.0572471
0.0281408
0.0129455
5.11381e-24
4.59227e-20
1.20682e-20
4.61609e-18
4.09828e-16
4.87226e-12
1.86859e-05
0.228578
0.461746
0.383996
0.33138
0.3055
0.280077
0.268941
0.224626
0.199348
0.16421
0.121824
0.0760383
0.0558132
0.0275169
0.0133993
5.22921e-24
1.78692e-19
4.73424e-19
4.6379e-18
5.80551e-16
5.06326e-12
3.45662e-05
0.240538
0.481548
0.3912
0.333941
0.306494
0.281085
0.270828
0.226675
0.200944
0.166102
0.122272
0.0770491
0.0542474
0.0269077
0.0139742
5.17002e-24
3.80398e-20
7.88109e-21
2.78036e-18
7.72355e-16
4.37733e-12
2.58556e-05
0.237763
0.495749
0.396779
0.337225
0.307961
0.282636
0.273037
0.229066
0.202655
0.167964
0.122806
0.0782643
0.0526069
0.0263109
0.0146881
5.29793e-24
1.46661e-19
3.69595e-19
2.86198e-18
9.86188e-16
2.88143e-12
2.74733e-05
0.224083
0.504634
0.401023
0.341262
0.309957
0.284764
0.275538
0.231763
0.204509
0.169768
0.123415
0.0796198
0.0509673
0.0257458
0.0155448
5.22337e-24
3.24409e-20
5.88784e-21
1.68704e-18
1.14803e-15
1.68928e-12
3.53544e-05
0.203128
0.508234
0.404147
0.346076
0.312553
0.287483
0.278414
0.234835
0.20653
0.171506
0.124082
0.0810683
0.0493706
0.0252036
0.0165479
5.35773e-24
1.21933e-19
2.97419e-19
1.84253e-18
1.25252e-15
8.527e-13
4.01953e-05
0.177292
0.50644
0.406187
0.351573
0.315765
0.2908
0.281623
0.238244
0.208763
0.17319
0.124798
0.0825538
0.047876
0.0246996
0.0176832
5.27102e-24
2.84271e-20
4.69204e-21
1.08062e-18
1.2389e-15
4.16532e-13
4.1144e-05
0.148782
0.498855
0.407091
0.357665
0.319634
0.294709
0.285232
0.242058
0.211242
0.174854
0.12555
0.0840444
0.0465081