/*--------------------------------*- C++ -*----------------------------------*\
| =========                 |                                                 |
| \\      /  F ield         | OpenFOAM: The Open Source CFD Toolbox           |
|  \\    /   O peration     | Version:  v1912                                 |
|   \\  /    A nd           | Website:  www.openfoam.com                      |
|    \\/     M anipulation  |                                                 |
\*---------------------------------------------------------------------------*/
FoamFile
{
    version     2.0;
    format      ascii;
    class       volScalarField;
    location    "540";
    object      p;
}
// * * * * * * * * * * * * * * * * * * * * * * * * * * * * * * * * * * * * * //

dimensions      [0 2 -2 0 0 0 0];


internalField   nonuniform List<scalar> 
12441
(
9.08928
9.39454
10.2652
11.6149
13.3612
15.5493
18.2797
21.6361
25.8251
30.9937
37.3589
45.1491
54.8212
66.6254
81.9557
101.39
129.674
165.344
223.247
286.135
376.874
438.622
9.08927
9.39453
10.2652
11.6149
13.3612
15.5493
18.2796
21.636
25.825
30.9935
37.3586
45.1485
54.8203
66.6236
81.9527
101.383
129.658
165.319
223.167
286.06
376.828
438.431
9.08926
9.39451
10.2652
11.6148
13.3611
15.5492
18.2795
21.6358
25.8247
30.993
37.3578
45.1474
54.8184
66.62
81.9468
101.369
129.632
165.262
222.999
285.881
376.7
438.084
9.08923
9.39448
10.2652
11.6148
13.3611
15.5491
18.2793
21.6355
25.8242
30.9923
37.3567
45.1458
54.8155
66.6146
81.938
101.348
129.598
165.175
222.822
285.606
376.466
437.546
9.0892
9.39445
10.2651
11.6147
13.361
15.5489
18.2791
21.6351
25.8236
30.9913
37.3552
45.1435
54.8118
66.6073
81.9263
101.32
129.553
165.066
222.658
285.26
376.137
436.811
9.08916
9.3944
10.2651
11.6146
13.3608
15.5487
18.2788
21.6346
25.8229
30.9902
37.3534
45.1408
54.807
66.5982
81.9117
101.286
129.498
164.937
222.473
284.842
375.717
435.881
9.08911
9.39435
10.265
11.6145
13.3607
15.5485
18.2784
21.634
25.822
30.9887
37.3511
45.1374
54.8014
66.5873
81.8943
101.245
129.433
164.786
222.256
284.355
375.211
434.754
9.08906
9.39428
10.2649
11.6144
13.3605
15.5482
18.278
21.6333
25.8209
30.9871
37.3485
45.1335
54.7948
66.5746
81.874
101.198
129.361
164.614
222.019
283.81
374.622
433.429
9.089
9.39421
10.2648
11.6142
13.3603
15.5479
18.2775
21.6325
25.8197
30.9852
37.3456
45.1291
54.7872
66.5601
81.8514
101.147
129.288
164.43
221.783
283.219
373.956
431.901
9.08892
9.39413
10.2647
11.6141
13.36
15.5475
18.2769
21.6316
25.8184
30.983
37.3422
45.1241
54.7788
66.544
81.8276
101.095
129.221
164.246
221.573
282.592
373.211
430.164
9.08884
9.39404
10.2646
11.6139
13.3598
15.5471
18.2763
21.6306
25.8169
30.9807
37.3385
45.1185
54.7694
66.5265
81.8042
101.051
129.178
164.083
221.423
281.939
372.386
428.212
9.08876
9.39394
10.2645
11.6137
13.3595
15.5467
18.2757
21.6295
25.8153
30.9781
37.3344
45.1124
54.7591
66.5087
81.7855
101.026
129.199
163.982
221.365
281.265
371.474
426.033
9.08866
9.39383
10.2643
11.6135
13.3592
15.5462
18.275
21.6283
25.8135
30.9752
37.33
45.1057
54.7482
66.4933
81.7834
101.051
129.338
163.996
221.409
280.561
370.466
423.618
9.08856
9.39371
10.2642
11.6133
13.3588
15.5457
18.2742
21.627
25.8115
30.9721
37.3252
45.0985
54.7375
66.4862
81.8179
101.161
129.651
164.169
221.525
279.81
369.353
420.953
9.08845
9.39359
10.264
11.613
13.3584
15.5451
18.2733
21.6256
25.8094
30.9688
37.32
45.0907
54.7287
66.4984
81.9125
101.387
130.162
164.507
221.646
278.986
368.125
418.024
9.08833
9.39345
10.2638
11.6127
13.358
15.5445
18.2724
21.624
25.8072
30.9653
37.3144
45.0826
54.7257
66.5443
82.0861
101.738
130.847
164.949
221.697
278.063
366.774
414.818
9.0882
9.3933
10.2636
11.6125
13.3576
15.5439
18.2715
21.6224
25.8048
30.9615
37.3084
45.0748
54.7354
66.636
82.3441
102.201
131.625
165.384
221.614
277.022
365.292
411.319
9.08807
9.39315
10.2634
11.6122
13.3572
15.5432
18.2704
21.6207
25.8023
30.9574
37.302
45.0687
54.7667
66.7788
82.6752
102.733
132.368
165.691
221.367
275.851
363.673
407.513
9.08793
9.39299
10.2632
11.6118
13.3567
15.5425
18.2693
21.6189
25.7996
30.9531
37.2951
45.067
54.827
66.9684
83.0535
103.27
132.939
165.788
220.958
274.549
361.914
403.384
9.08777
9.39282
10.263
11.6115
13.3562
15.5417
18.2682
21.617
25.7968
30.9486
37.288
45.0741
54.9189
67.1916
83.4412
103.738
133.237
165.658
220.413
273.118
360.011
398.916
9.08762
9.39263
10.2627
11.6111
13.3556
15.5409
18.267
21.615
25.7938
30.9438
37.2808
45.0953
55.0387
67.431
83.7964
104.071
133.227
165.346
219.763
271.564
357.965
394.094
9.08745
9.39244
10.2625
11.6108
13.3551
15.5401
18.2657
21.6129
25.7906
30.9387
37.2741
45.1347
55.1778
67.6661
84.0806
104.233
132.945
164.92
219.036
269.896
355.775
388.899
9.08728
9.39224
10.2622
11.6104
13.3545
15.5392
18.2644
21.6107
25.7873
30.9334
37.2691
45.1929
55.3252
67.8787
84.268
104.219
132.482
164.441
218.252
268.124
353.442
383.315
9.08709
9.39204
10.2619
11.61
13.3539
15.5383
18.263
21.6084
25.7839
30.9277
37.2679
45.267
55.4707
68.0523
84.3496
104.059
131.938
163.947
217.422
266.255
350.968
377.323
9.0869
9.39182
10.2617
11.6096
13.3533
15.5373
18.2616
21.606
25.7803
30.9218
37.273
45.3518
55.6047
68.1782
84.3347
103.799
131.391
163.45
216.55
264.299
348.357
370.903
9.0867
9.39159
10.2614
11.6091
13.3526
15.5363
18.2601
21.6035
25.7765
30.9156
37.2868
45.4412
55.7213
68.2521
84.2437
103.488
130.884
162.947
215.637
262.267
345.61
364.033
9.0865
9.39136
10.261
11.6086
13.3519
15.5353
18.2585
21.6009
25.7726
30.9093
37.3103
45.5295
55.8153
68.2784
84.1027
103.166
130.429
162.432
214.683
260.167
342.73
356.691
9.08628
9.39111
10.2607
11.6082
13.3512
15.5342
18.2569
21.5982
25.7685
30.903
37.3429
45.6123
55.8855
68.2636
83.9348
102.857
130.017
161.897
213.688
258.008
339.718
348.852
9.08606
9.39086
10.2604
11.6077
13.3504
15.5331
18.2552
21.5954
25.7642
30.897
37.3826
45.6865
55.9309
68.2188
83.7583
102.569
129.636
161.341
212.65
255.797
336.575
340.49
9.08583
9.3906
10.26
11.6072
13.3497
15.532
18.2534
21.5924
25.7597
30.8915
37.4267
45.75
55.9543
68.1521
83.5839
102.304
129.273
160.76
211.569
253.537
333.298
331.576
9.0856
9.39033
10.2597
11.6066
13.3489
15.5308
18.2516
21.5894
25.7551
30.8867
37.4728
45.8016
55.9575
68.0732
83.4177
102.059
128.918
160.156
210.446
251.233
329.883
322.08
9.08535
9.39004
10.2593
11.6061
13.348
15.5295
18.2498
21.5863
25.7503
30.8833
37.5192
45.841
55.9452
67.9867
83.2607
101.828
128.565
159.531
209.279
248.883
326.323
311.969
9.0851
9.38976
10.2589
11.6055
13.3472
15.5282
18.2478
21.5831
25.7453
30.8818
37.5641
45.8686
55.9197
67.8983
83.113
101.607
128.209
158.885
208.071
246.488
322.608
301.207
9.08483
9.38946
10.2585
11.6049
13.3463
15.5269
18.2458
21.5797
25.7402
30.8829
37.6064
45.8852
55.8852
67.809
82.9726
101.391
127.849
158.22
206.82
244.046
318.729
289.757
9.08457
9.38915
10.2581
11.6043
13.3454
15.5256
18.2438
21.5763
25.7349
30.8875
37.6453
45.8919
55.8436
67.7216
82.8382
101.179
127.484
157.538
205.527
241.558
314.673
277.578
9.08429
9.38883
10.2577
11.6037
13.3445
15.5242
18.2417
21.5727
25.7294
30.8965
37.6805
45.8903
55.7979
67.6354
82.7078
100.967
127.113
156.839
204.193
239.024
310.428
264.631
9.084
9.38851
10.2573
11.6031
13.3435
15.5227
18.2395
21.5691
25.7238
30.9114
37.7122
45.8817
55.7489
67.5519
82.5805
100.755
126.736
156.127
202.819
236.448
305.982
250.869
9.08371
9.38817
10.2568
11.6024
13.3425
15.5213
18.2373
21.5653
25.7186
30.9347
37.7406
45.8677
55.6988
67.47
82.4549
100.541
126.354
155.4
201.406
233.833
301.327
236.247
9.08341
9.38783
10.2564
11.6017
13.3415
15.5198
18.235
21.5614
25.7155
30.968
37.7664
45.8495
55.6474
67.3909
82.3306
100.327
125.968
154.661
199.957
231.186
296.453
220.715
9.0831
9.38748
10.2559
11.6011
13.3405
15.5182
18.2326
21.5574
25.7196
31.0123
37.7899
45.8283
55.5964
67.3134
82.2069
100.111
125.577
153.911
198.473
228.512
291.355
204.221
9.08278
9.38711
10.2554
11.6003
13.3394
15.5166
18.2302
21.5532
25.739
31.068
37.8111
45.8052
55.545
67.239
82.0842
99.8933
125.183
153.149
196.959
225.815
286.031
186.71
9.08246
9.38674
10.2549
11.5996
13.3384
15.515
18.2278
21.5492
25.7812
31.1341
37.8298
45.7811
55.4942
67.1665
81.9618
99.6752
124.786
152.376
195.419
223.098
280.481
168.135
9.08213
9.38636
10.2544
11.5989
13.3372
15.5133
18.2252
21.5466
25.8511
31.209
37.8457
45.7569
55.4428
67.0975
81.8404
99.4571
124.387
151.591
193.859
220.356
274.677
148.407
9.08179
9.38597
10.2539
11.5981
13.3361
15.5116
18.2226
21.5505
25.9477
31.2893
37.8583
45.7331
55.3917
67.031
81.72
99.2397
123.987
150.79
192.285
217.58
268.54
126.782
-19.5343
-20.9534
-19.0174
-20.6095
-17.7183
-17.5107
-15.3241
-14.897
-13.1989
-12.3677
-10.426
-7.78565
-3.51241
-2.64519
-5.87637
-8.5659
-3.89037
5.24051
12.0763
13.2897
12.9665
11.9972
10.4474
9.58703
8.13012
6.36738
4.89042
3.8153
3.07876
2.5061
1.51862
-0.487845
-2.9
-4.20239
-2.00093
-19.5325
-20.9354
-19.0408
-20.613
-17.7197
-17.5094
-15.3246
-14.8965
-13.1986
-12.3667
-10.4252
-7.78653
-3.5133
-2.64422
-5.87157
-8.55781
-3.88186
5.24727
12.0801
13.2923
12.9692
11.9997
10.4495
9.58889
8.1321
6.36943
4.89225
3.81681
3.08008
2.50716
1.51892
-0.486333
-2.89909
-4.19807
-2.02313
-19.5291
-20.9185
-19.074
-20.6194
-17.7212
-17.5085
-15.325
-14.8962
-13.1981
-12.3658
-10.4256
-7.78699
-3.51248
-2.64082
-5.86417
-8.54489
-3.86283
5.26981
12.098
13.3023
12.9751
12.0044
10.4534
9.59259
8.1358
6.37301
4.89542
3.81941
3.0823
2.5091
1.51985
-0.484167
-2.89739
-4.19071
-2.04491
-19.5243
-20.9095
-19.1163
-20.6274
-17.7236
-17.5081
-15.3252
-14.896
-13.1976
-12.3647
-10.4267
-7.78695
-3.51074
-2.63687
-5.85667
-8.53046
-3.83727
5.30503
12.1297
13.3203
12.9846
12.0113
10.4592
9.59802
8.14121
6.37827
4.90014
3.82333
3.08558
2.51205
1.52155
-0.48179
-2.8937
-4.17655
-2.06256
-19.5183
-20.9122
-19.1651
-20.6361
-17.7266
-17.5077
-15.3251
-14.8956
-13.1972
-12.3639
-10.4281
-7.78685
-3.50842
-2.63308
-5.8513
-8.51983
-3.81467
5.34068
12.1659
13.3428
12.997
12.0201
10.4665
9.60477
8.14792
6.38488
4.90622
3.82848
3.08985
2.5159
1.52398
-0.479126
-2.88756
-4.15634
-2.07549
-19.5111
-20.9308
-19.2178
-20.6453
-17.7293
-17.5068
-15.3243
-14.8952
-13.1969
-12.3634
-10.4299
-7.78678
-3.50553
-2.62925
-5.84794
-8.51396
-3.79867
5.37006
12.1997
13.3665
13.0112
12.0304
10.4749
9.61235
8.15541
6.39236
4.91332
3.83467
3.09501
2.52051
1.52704
-0.476157
-2.87887
-4.13058
-2.08396
-19.5029
-20.9692
-19.2719
-20.6546
-17.7315
-17.5051
-15.3227
-14.8949
-13.1969
-12.3636
-10.4323
-7.78676
-3.50176
-2.62469
-5.84553
-8.51153
-3.78872
5.3919
12.228
13.3894
13.0266
12.0418
10.4839
9.62032
8.16318
6.40019
4.92102
3.84163
3.10088
2.52574
1.53062
-0.472934
-2.86773
-4.09953
-2.08818
-19.4937
-21.0299
-19.325
-20.6637
-17.7332
-17.5028
-15.3205
-14.8946
-13.1971
-12.3646
-10.4353
-7.78665
-3.49696
-2.61917
-5.84336
-8.51094
-3.78294
5.40735
12.2501
13.4099
13.0423
12.0538
10.4933
9.6283
8.17078
6.40787
4.92881
3.84902
3.10727
2.53141
1.53458
-0.469518
-2.85435
-4.0638
-2.08819
-19.4839
-21.1144
-19.3752
-20.6723
-17.7345
-17.5002
-15.3179
-14.8944
-13.1976
-12.3664
-10.439
-7.78646
-3.49119
-2.61278
-5.84129
-8.51136
-3.77977
5.41799
12.2662
13.4267
13.057
12.0658
10.5028
9.63598
8.17783
6.41494
4.93621
3.85639
3.1139
2.53734
1.53881
-0.465974
-2.83904
-4.02439
-2.084
-19.4735
-21.2224
-19.4208
-20.6804
-17.7355
-17.4976
-15.3152
-14.8945
-13.1984
-12.3689
-10.4432
-7.78622
-3.48473
-2.6059
-5.83947
-8.5124
-3.77811
5.42512
12.2768
13.4391
13.0694
12.077
10.5117
9.64302
8.18403
6.42101
4.94272
3.86328
3.12045
2.54331
1.54314
-0.462366
-2.82227
-3.98258
-2.07551
-19.4629
-21.3525
-19.461
-20.6877
-17.7363
-17.4955
-15.3127
-14.8948
-13.1996
-12.3723
-10.4479
-7.78604
-3.47793
-2.59885
-5.83805
-8.514
-3.7774
5.42963
12.2826
13.4465
13.0785
12.0863
10.5196
9.64908
8.1891
6.4258
4.94795
3.86921
3.12655
2.54906
1.5474
-0.458759
-2.80457
-3.93973
-2.06258
-19.4524
-21.5016
-19.4952
-20.6946
-17.7373
-17.494
-15.3107
-14.8955
-13.2012
-12.3764
-10.453
-7.78607
-3.47121
-2.592
-5.83708
-8.51604
-3.77719
5.43218
12.2845
13.4491
13.0834
12.0929
10.5257
9.65375
8.19281
6.42913
4.95166
3.87383
3.13185
2.55436
1.55141
-0.455218
-2.78652
-3.89725
-2.04498
-19.4421
-21.6652
-19.5234
-20.701
-17.7383
-17.4934
-15.3094
-14.8967
-13.2033
-12.3813
-10.4585
-7.78645
-3.46492
-2.58557
-5.83654
-8.51836
-3.77728
5.43321
12.2835
13.4478
13.0843
12.0963
10.5296
9.65672
8.19502
6.43093
4.95377
3.87694
3.13607
2.55896
1.55498
-0.451808
-2.76863
-3.85642
-2.02239
-19.4326
-21.837
-19.546
-20.7073
-17.7397
-17.4938
-15.3091
-14.8985
-13.2059
-12.3869
-10.4644
-7.78732
-3.45942
-2.5799
-5.83636
-8.52066
-3.77754
5.43295
12.2803
13.4436
13.0817
12.0966
10.5311
9.65781
8.19566
6.43128
4.95439
3.87857
3.13905
2.56264
1.55791
-0.448591
-2.75133
-3.81843
-1.99437
-19.4239
-22.0102
-19.5636
-20.7135
-17.7415
-17.4955
-15.31
-14.9011
-13.2092
-12.3933
-10.4709
-7.78878
-3.45492
-2.57515
-5.83648
-8.52275
-3.77807
5.43144
12.2757
13.4374
13.0767
12.0944
10.5305
9.6571
8.19484
6.43037
4.95376
3.8789
3.1408
2.56531
1.56006
-0.445618
-2.73485
-3.78425
-1.96046
-19.4163
-22.1773
-19.577
-20.7198
-17.7441
-17.4985
-15.3122
-14.9046
-13.2133
-12.4006
-10.4781
-7.79099
-3.45163
-2.57154
-5.83682
-8.5244
-3.77894
5.42869
12.2698
13.4299
13.0701
12.0906
10.5281
9.65482
8.19272
6.42841
4.95219
3.87825
3.14151
2.56698
1.56132
-0.442927
-2.71922
-3.7547
-1.92022
-19.4101
-22.3315
-19.5872
-20.7262
-17.7476
-17.5031
-15.3161
-14.9092
-13.2184
-12.4091
-10.4861
-7.79407
-3.4496
-2.56908
-5.83736
-8.5256
-3.78023
5.42474
12.2624
13.4212
13.0623
12.0857
10.5247
9.65135
8.18951
6.42561
4.94997
3.87695
3.14142
2.56779
1.56171
-0.440523
-2.70426
-3.73036
-1.87341
-19.4053
-22.4676
-19.5951
-20.733
-17.7524
-17.5096
-15.3218
-14.9153
-13.2249
-12.4188
-10.4953
-7.79821
-3.44887
-2.56781
-5.83809
-8.52633
-3.78173
5.41976
12.2533
13.4109
13.0536
12.0802
10.5207
9.64702
8.18545
6.42212
4.94729
3.87526
3.1408
2.56792
1.56132
-0.438378
-2.68967
-3.71148
-1.82021
-19.4017
-22.5835
-19.6016
-20.7404
-17.7587
-17.5184
-15.3298
-14.9232
-13.233
-12.4302
-10.5061
-7.8036
-3.44937
-2.5676
-5.83909
-8.52668
-3.78322
5.41396
12.2422
13.3987
13.0437
12.0741
10.5163
9.64212
8.18073
6.41808
4.94427
3.87335
3.13985
2.56759
1.5603
-0.436427
-2.67516
-3.69789
-1.76137
-19.3992
-22.6804
-19.6072
-20.749
-17.7666
-17.5298
-15.3406
-14.9335
-13.2431
-12.4436
-10.519
-7.81064
-3.45116
-2.56843
-5.84044
-8.52662
-3.78429
5.40756
12.2292
13.3845
13.0324
12.0674
10.5116
9.63681
8.1755
6.4136
4.94101
3.8713
3.1387
2.56697
1.5588
-0.434591
-2.6605
-3.68902
-1.69826
-19.3974
-22.7621
-19.6127
-20.7594
-17.7761
-17.5442
-15.3548
-14.947
-13.2561
-12.4597
-10.5349
-7.81986
-3.45433
-2.5702
-5.84228
-8.52619
-3.7847
5.40066
12.2141
13.3682
13.0195
12.0599
10.5066
9.63117
8.16986
6.40873
4.93755
3.86916
3.13742
2.56616
1.55695
-0.432798
-2.64558
-3.68401
-1.63273
-19.3959
-22.8328
-19.62
-20.7728
-17.7876
-17.5622
-15.3731
-14.9644
-13.2724
-12.479
-10.5548
-7.83216
-3.45927
-2.57302
-5.84471
-8.52522
-3.78416
5.39326
12.1969
13.3496
13.0051
12.0517
10.5013
9.62522
8.16383
6.40356
4.93395
3.86692
3.13605
2.56525
1.55483
-0.430989
-2.63038
-3.682
-1.56669
-19.3942
-22.896
-19.6314
-20.7906
-17.8011
-17.5842
-15.3963
-14.9868
-13.2932
-12.5027
-10.5801
-7.84855
-3.46647
-2.57699
-5.84785
-8.52368
-3.78268
5.38519
12.1774
13.3288
12.9891
12.0426
10.4957
9.61895
8.15744
6.39811
4.93023
3.86459
3.13459
2.56429
1.55252
-0.429121
-2.6149
-3.68221
-1.50181
-19.3919
-22.9546
-19.6488
-20.8148
-17.817
-17.6111
-15.4253
-15.0152
-13.3194
-12.5315
-10.6118
-7.87025
-3.47671
-2.5826
-5.85188
-8.52145
-3.78023
5.3762
12.1553
13.3057
12.9715
12.0327
10.4897
9.61236
8.15069
6.39243
4.92643
3.86218
3.13308
2.56328
1.55005
-0.427163
-2.59921
-3.684
-1.43917
-19.3887
-23.0114
-19.6731
-20.8475
-17.8362
-17.6436
-15.4614
-15.0508
-13.3519
-12.5663
-10.6509
-7.89804
-3.4904
-2.59028
-5.85721
-8.5187
-3.7771
5.36597
12.1304
13.2802
12.9524
12.022
10.4834
9.60543
8.14356
6.38655
4.92257
3.85969
3.13152
2.56225
1.54745
-0.425094
-2.58336
-3.68687
-1.37925
-19.3844
-23.0683
-19.7036
-20.8907
-17.8593
-17.6827
-15.5054
-15.0945
-13.3914
-12.6076
-10.6975
-7.93219
-3.50758
-2.60069
-5.86462
-8.51568
-3.77352
5.35416
12.1025
13.2523
12.9317
12.0105
10.4769
9.59815
8.13605
6.3805
4.91867
3.85715
3.12992
2.56117
1.54474
-0.422907
-2.56742
-3.69042
-1.32199
-19.3787
-23.1271
-19.7378
-20.9462
-17.8872
-17.7291
-15.5583
-15.1467
-13.4384
-12.6555
-10.7511
-7.9718
-3.52703
-2.61364
-5.87519
-8.51312
-3.77003
5.3404
12.0712
13.2218
12.9095
11.9983
10.47
9.5905
8.12817
6.37431
4.91473
3.85457
3.1283
2.56006
1.54192
-0.420603
-2.5515
-3.69433
-1.26703
-19.3713
-23.1898
-19.7727
-21.0148
-17.9207
-17.7827
-15.6198
-15.2066
-13.492
-12.7089
-10.8096
-8.01504
-3.54693
-2.62838
-5.88977
-8.51169
-3.76705
5.32437
12.0365
13.1888
12.8858
11.9855
10.4629
9.58244
8.11992
6.36799
4.91078
3.852
3.12666
2.55887
1.53899
-0.418194
-2.53569
-3.69834
-1.21378
-19.3621
-23.2581
-19.8059
-21.0963
-17.9599
-17.8426
-15.6884
-15.2723
-13.5504
-12.7658
-10.8705
-8.05878
-3.56441
-2.64284
-5.90847
-8.51209
-3.76524
5.30581
11.9984
13.1534
12.8607
11.972
10.4556
9.57392
8.11129
6.36157
4.90684
3.84946
3.12502
2.55761
1.53597
-0.415698
-2.52011
-3.70224
-1.16166
-19.3507
-23.3347
-19.8367
-21.1892
-18.0046
-17.9061
-15.7606
-15.3396
-13.6101
-12.8229
-10.9296
-8.09941
-3.57689
-2.65512
-5.93006
-8.51405
-3.76472
5.28462
11.9568
13.1155
12.8342
11.9579
10.4479
9.56489
8.10229
6.35505
4.90295
3.847
3.12337
2.55623
1.53284
-0.413138
-2.50491
-3.70587
-1.11009
-19.3369
-23.4235
-19.8663
-21.2899
-18.0535
-17.9694
-15.8312
-15.4032
-13.6666
-12.8762
-10.9828
-8.13269
-3.58171
-2.6632
-5.95226
-8.51671
-3.76551
5.26091
11.9121
13.0754
12.8065
11.9432
10.4399
9.5553
8.0929
6.34846
4.89912
3.84465
3.12173
2.55475
1.52961
-0.410543
-2.49022
-3.70911
-1.05861
-19.3203
-23.5302
-19.897
-21.3925
-18.1045
-18.027
-15.8935
-15.4564
-13.7144
-12.921
-11.0256
-8.15493
-3.57753
-2.66646
-5.97228
-8.51822
-3.76678
5.23511
11.8646
13.0333
12.7775
11.9281
10.4315
9.54507
8.08311
6.34182
4.89541
3.84244
3.12009
2.55311
1.52626
-0.407937
-2.47624
-3.71184
-1.00676
-19.3005
-23.6627
-19.9303
-21.4877
-18.1543
-18.0732
-15.9408
-15.4929
-13.7486
-12.9535
-11.0545
-8.16312
-3.56385
-2.66477
-5.98781
-8.51701
-3.76774
5.20783
11.815
12.9895
12.7476
11.9125
10.4225
9.53414
8.07293
6.33514
4.89184
3.84041
3.11845
2.55131
1.5228
-0.405354
-2.46314
-3.71399
-0.954236
-19.2768
-23.8315
-19.9657
-21.5648
-18.1988
-18.1023
-15.9671
-15.5075
-13.7649
-12.9705
-11.0671
-8.1563
-3.5424
-2.65962
-5.99762
-8.51157
-3.76709
5.17986
11.7638
12.9443
12.7166
11.8963
10.4131
9.52243
8.06231
6.32846
4.88847
3.8386
3.11682
2.54931
1.51921
-0.402816
-2.45116
-3.71551
-0.900743
-19.2486
-24.0496
-19.9999
-21.6136
-18.2343
-18.1107
-15.9692
-15.498
-13.7617
-12.9714
-11.0632
-8.13573
-3.51638
-2.65311
-6.00222
-8.50153
-3.76415
5.15184
11.7118
12.8981
12.6848
11.8797
10.4029
9.50987
8.05127
6.3218
4.88532
3.83703
3.11519
2.54711
1.51551
-0.40036
-2.44054
-3.71635
-0.846098
-19.2147
-24.3318
-20.0272
-21.6283
-18.2581
-18.0976
-15.9468
-15.4648
-13.7398
-12.9571
-11.0448
-8.10554
-3.49092
-2.64863
-6.00335
-8.48668
-3.75813
5.12435
11.6593
12.8515
12.6521
11.8624
10.3918
9.49637
8.03979
6.3152
4.88246
3.83576
3.11358
2.54466
1.51164
-0.398011
-2.43158
-3.71649
-0.790107
-19.1735
-24.6929
-20.0414
-21.609
-18.2697
-18.0652
-15.9034
-15.4121
-13.7025
-12.9307
-11.0158
-8.07164
-3.47121
-2.64948
-6.00344
-8.46762
-3.74907
5.09763
11.6067
12.8047
12.6187
11.8443
10.3798
9.48191
8.02792
6.30871
4.87991
3.83478
3.11198
2.54195
1.50763
-0.395809
-2.42459
-3.71592
-0.732666
-19.1216
-25.1438
-20.0357
-21.561
-18.2702
-18.0179
-15.8445
-15.3458
-13.6546
-12.8961
-10.9813
-8.04053
-3.46152
-2.65839
-6.0042
-8.44456
-3.73672
5.07187
11.5542
12.758
12.5847
11.8253
10.3667
9.46643
8.01565
6.30237
4.87774
3.83416
3.11039
2.53891
1.50342
-0.393778
-2.41997
-3.71465
-0.673616
-19.0573
-25.6785
-20.0024
-21.492
-18.262
-17.9615
-15.7767
-15.2726
-13.6016
-12.8574
-10.947
-8.01691
-3.46328
-2.67609
-6.00649
-8.418
-3.72148
5.04681
11.5014
12.7115
12.5502
11.8053
10.3525
9.44999
8.00308
6.29623
4.87594
3.83387
3.1088
2.53555
1.49903
-0.391975
-2.4181
-3.71268
-0.61282
-18.9816
-26.2576
-19.9328
-21.41
-18.2477
-17.9011
-15.706
-15.1986
-13.5476
-12.8182
-10.9186
-8.00227
-3.47563
-2.70184
-6.00979
-8.38754
-3.70335
5.02194
11.4477
12.6648
12.5154
11.7846
10.3371
9.43263
7.99019
6.29028
4.87455
3.83396
3.10722
2.53181
1.49442
-0.390467
-2.41953
-3.70994
-0.550049
-18.8885
-26.7966
-19.8181
-21.3206
-18.2294
-17.8407
-15.6373
-15.128
-13.4961
-12.7834
-10.8991
-7.99491
-3.49617
-2.73331
-6.0126
-8.35314
-3.68368
4.99585
11.3926
12.618
12.4809
11.7635
10.3208
9.41436
7.97694
6.28445
4.8735
3.83443
3.10569
2.52771
1.48959
-0.389386
-2.42461
-3.70634
-0.485488
-18.7507
-27.1653
-19.6507
-21.2276
-18.2076
-17.7822
-15.5733
-15.0636
-13.4509
-12.7573
-10.8879
-7.99225
-3.5223
-2.76728
-6.01266
-8.31538
-3.66467
4.96693
11.336
12.5719
12.4479
11.7425
10.3034
9.39485
7.963
6.27859
4.87285
3.83545
3.10436
2.52319
1.4844
-0.38867
-2.4333
-3.70234
-0.420519
-18.5765
-27.2064
-19.4239
-21.1335
-18.182
-17.7263
-15.5148
-15.008
-13.4171
-12.7413
-10.882
-7.99237
-3.55047
-2.79913
-6.00908
-8.27842
-3.65091
4.93429
11.2796
12.5284
12.4179
11.7217
10.2838
9.37335
7.94805
6.27274
4.87287
3.83731
3.10335
2.5181
1.47878
-0.388056
-2.44527
-3.69898
-0.356653
-18.6566
-26.7913
-19.132
-21.0424
-18.1553
-17.6756
-15.4622
-14.9644
-13.3968
-12.7321
-10.879
-7.99417
-3.57785
-2.82714
-6.0044
-8.2473
-3.64407
4.90085
11.2278
12.4905
12.3908
11.6988
10.2593
9.3483
7.9323
6.26817
4.87479
3.84053
3.10225
2.51166
1.47252
-0.388214
-2.46613
-3.69378
-0.282214
9.08152
9.38567
10.2535
11.5975
13.3352
15.5102
18.2204
21.5722
26.0389
31.3511
37.8636
45.7138
55.35
66.9836
81.6293
99.0732
123.678
150.153
191.061
215.381
263.469
105.044
9.08132
9.38544
10.2532
11.5971
13.3345
15.5092
18.2189
21.6053
26.1055
31.3891
37.8626
45.6981
55.319
66.9505
81.5656
98.9547
123.455
149.684
190.175
213.783
259.595
102.085
9.0811
9.3852
10.2529
11.5966
13.3338
15.5081
18.2172
21.6464
26.1629
31.418
37.8573
45.6805
55.2865
66.9178
81.5015
98.8327
123.224
149.197
189.269
212.125
255.562
103.742
9.08088
9.38494
10.2525
11.5961
13.3331
15.507
18.2154
21.6879
26.2103
31.4391
37.85
45.6621
55.255
66.8826
81.4356
98.7055
122.982
148.689
188.339
210.397
251.415
103.611
9.08065
9.38468
10.2522
11.5956
13.3323
15.5058
18.2136
21.7244
26.2486
31.4539
37.8421
45.6434
55.2233
66.8474
81.3685
98.5728
122.729
148.16
187.381
208.602
247.143
101.796
9.0804
9.38439
10.2518
11.595
13.3315
15.5046
18.2117
21.7496
26.2782
31.4635
37.8346
45.625
55.1933
66.8102
81.2994
98.4336
122.462
147.608
186.389
206.739
242.742
99.7284
9.08014
9.3841
10.2514
11.5944
13.3306
15.5032
18.2096
21.7597
26.2995
31.4687
37.828
45.6072
55.1638
66.7732
81.229
98.2878
122.178
147.032
185.356
204.81
238.216
97.8028
9.07987
9.38378
10.251
11.5938
13.3297
15.5018
18.2074
21.7552
26.3131
31.4704
37.8228
45.5901
55.1363
66.7345
81.1563
98.1346
121.876
146.431
184.276
202.817
233.571
95.8565
9.07958
9.38345
10.2506
11.5932
13.3287
15.5003
18.2051
21.7396
26.3191
31.4691
37.8189
45.574
55.1095
66.696
81.082
97.9742
121.555
145.803
183.143
200.759
228.812
93.7912
9.07928
9.3831
10.2501
11.5925
13.3277
15.4988
18.2027
21.7165
26.3177
31.4653
37.8164
45.5591
55.0847
66.6558
81.005
97.806
121.213
145.148
181.949
198.636
223.942
91.6311
9.07895
9.38273
10.2496
11.5918
13.3266
15.4971
18.2002
21.6881
26.3087
31.4589
37.815
45.5454
55.0605
66.6159
80.9261
97.6305
120.849
144.463
180.69
196.447
218.967
89.4111
9.07861
9.38234
10.2491
11.591
13.3255
15.4953
18.1975
21.6564
26.2916
31.4498
37.8145
45.5329
55.0381
66.5741
80.8441
97.447
120.464
143.746
179.36
194.192
213.89
87.1422
9.07825
9.38193
10.2485
11.5902
13.3242
15.4934
18.1946
21.6231
26.2656
31.4376
37.8141
45.5215
55.0159
66.5321
80.7596
97.2559
120.057
142.997
177.954
191.869
208.719
84.8283
9.07787
9.3815
10.2479
11.5894
13.323
15.4914
18.1916
21.5904
26.2299
31.4215
37.8133
45.5112
54.995
66.4879
80.6714
97.0565
119.628
142.213
176.469
189.477
203.456
82.4781
9.07747
9.38104
10.2473
11.5885
13.3216
15.4893
18.1883
21.5599
26.1837
31.4005
37.8112
45.5017
54.9742
66.443
80.5799
96.849
119.178
141.394
174.902
187.014
198.108
80.1037
9.07704
9.38055
10.2467
11.5875
13.3202
15.4871
18.1849
21.5332
26.1268
31.3734
37.8065
45.4929
54.9542
66.3952
80.4838
96.6324
118.705
140.537
173.25
184.478
192.679
77.7183
9.07659
9.38003
10.246
11.5865
13.3187
15.4847
18.1813
21.5109
26.0596
31.3384
37.7977
45.4842
54.934
66.3458
80.3833
96.4066
118.209
139.641
171.512
181.869
187.173
75.3358
9.07611
9.37948
10.2453
11.5854
13.3171
15.4822
18.1774
21.4932
25.9837
31.294
37.7829
45.4752
54.9143
66.2929
80.2771
96.1704
117.691
138.706
169.687
179.184
181.595
72.9701
9.07561
9.3789
10.2445
11.5843
13.3154
15.4796
18.1733
21.4796
25.9021
31.2385
37.7595
45.4647
54.894
66.2376
80.1652
95.9235
117.148
137.729
167.774
176.422
175.949
70.634
9.07507
9.37829
10.2437
11.5831
13.3136
15.4767
18.1689
21.4689
25.8189
31.1708
37.7247
45.4512
54.8738
66.1779
80.0462
95.6645
116.579
136.71
165.773
173.582
170.238
68.3379
9.0745
9.37764
10.2428
11.5818
13.3116
15.4737
18.1643
21.4601
25.7387
31.0905
37.6748
45.4324
54.8522
66.115
79.9199
95.3929
115.984
135.647
163.683
170.662
164.467
66.089
9.0739
9.37695
10.2419
11.5805
13.3096
15.4706
18.1593
21.4521
25.6655
30.999
37.6061
45.4049
54.8292
66.0471
79.7849
95.1072
115.361
134.538
161.504
167.66
158.642
63.8904
9.07326
9.37621
10.2409
11.5791
13.3075
15.4672
18.154
21.4442
25.6028
30.8995
37.5153
45.3639
54.8023
65.9752
79.6409
94.8068
114.707
133.381
159.235
164.576
152.768
61.7402
9.07258
9.37544
10.2399
11.5775
13.3052
15.4636
18.1484
21.4361
25.5519
30.797
37.4006
45.3028
54.7693
65.8973
79.4866
94.4902
114.022
132.175
156.877
161.407
146.852
59.6317
9.07185
9.37461
10.2388
11.5759
13.3028
15.4598
18.1424
21.4275
25.5122
30.6971
37.2632
45.2136
54.7245
65.8139
79.3217
94.1565
113.304
130.919
154.428
158.152
140.903
57.553
9.07108
9.37373
10.2376
11.5742
13.3002
15.4558
18.136
21.4183
25.4815
30.6048
37.1081
45.0882
54.6606
65.7216
79.1447
93.8045
112.551
129.609
151.889
154.809
134.93
55.488
9.07027
9.3728
10.2364
11.5724
13.2975
15.4515
18.1293
21.4085
25.4569
30.5238
36.9438
44.9207
54.565
65.6179
78.9548
93.4333
111.762
128.244
149.26
151.377
128.944
53.4168
9.0694
9.37181
10.235
11.5705
13.2945
15.447
18.1222
21.3979
25.4356
30.4551
36.7806
44.711
54.4228
65.4946
78.7494
93.0414
110.936
126.823
146.541
147.853
122.956
51.3172
9.06848
9.37076
10.2336
11.5684
13.2915
15.4422
18.1145
21.3866
25.4157
30.3978
36.6282
44.4674
54.2169
65.3408
78.525
92.6276
110.073
125.343
143.732
144.237
116.98
49.1657
9.0675
9.36964
10.2321
11.5662
13.2882
15.437
18.1065
21.3745
25.3959
30.3494
36.4929
44.2059
53.9366
65.1372
78.2735
92.1892
109.17
123.803
140.834
140.526
111.03
46.939
9.06645
9.36844
10.2305
11.5639
13.2847
15.4316
18.0979
21.3616
25.3755
30.3069
36.377
43.9461
53.5832
64.8615
77.9822
91.7224
108.228
122.202
137.848
136.72
105.118
44.6152
9.06534
9.36718
10.2288
11.5614
13.281
15.4258
18.0888
21.3479
25.3539
30.2672
36.279
43.7053
53.1757
64.4909
77.6293
91.2194
107.244
120.537
134.775
132.818
99.261
42.1753
9.06415
9.36582
10.227
11.5588
13.277
15.4197
18.0791
21.3333
25.3309
30.2279
36.1946
43.4936
52.7464
64.0166
77.1869
90.6674
106.215
118.808
131.618
128.821
93.4729
39.6039
9.06289
9.36438
10.2251
11.556
13.2728
15.4131
18.0688
21.3177
25.3064
30.1877
36.1184
43.3126
52.3306
63.4511
76.6251
90.0458
105.136
117.014
128.377
124.731
87.7684
36.8902
9.06154
9.36285
10.2231
11.553
13.2683
15.4061
18.0578
21.3012
25.2803
30.1455
36.0456
43.1572
51.9545
62.8317
75.9272
89.3278
103.996
115.152
125.056
120.549
82.1621
34.0291
9.0601
9.36121
10.2209
11.5498
13.2635
15.3987
18.0462
21.2835
25.2525
30.101
35.9723
43.0188
51.6285
62.2072
75.1026
88.4847
102.779
113.221
121.658
116.281
76.668
31.0209
9.05857
9.35947
10.2185
11.5464
13.2584
15.3908
18.0338
21.2647
25.223
30.0537
35.8963
42.8883
51.348
61.6209
74.1929
87.4983
101.465
111.219
118.189
111.933
71.2996
27.8723
9.05694
9.35761
10.2161
11.5428
13.253
15.3824
18.0206
21.2447
25.1915
30.0034
35.8162
42.7583
51.0993
61.0955
73.2602
86.3735
100.031
109.143
114.658
107.512
66.0704
24.5957
9.05519
9.35563
10.2134
11.5389
13.2472
15.3734
18.0066
21.2233
25.158
29.95
35.7315
42.624
50.8661
60.6302
72.3636
85.1453
98.4672
106.991
111.076
103.03
60.994
21.2092
9.05333
9.35351
10.2106
11.5348
13.241
15.3639
17.9916
21.2006
25.1223
29.8933
35.6416
42.4827
50.6347
60.2074
71.5369
83.8706
96.7768
104.765
107.464
98.5033
56.0846
17.7357
9.05134
9.35125
10.2075
11.5304
13.2344
15.3537
17.9757
21.1764
25.0843
29.8329
35.5462
42.3332
50.3959
59.804
70.7816
82.6065
94.9869
102.47
103.847
93.9526
51.3578
14.2029
9.04921
9.34883
10.2043
11.5257
13.2273
15.3428
17.9588
21.1505
25.0438
29.7687
35.4448
42.1749
50.1448
59.3991
70.0744
81.3882
93.1394
100.117
100.26
89.4071
46.8315
10.6427
9.04693
9.34625
10.2009
11.5206
13.2198
15.3312
17.9407
21.123
25.0007
29.7005
35.3372
42.0069
49.8794
58.9792
69.3831
80.2203
91.2756
97.7225
96.7374
84.9037
42.5258
7.09036
9.0445
9.34349
10.1972
11.5153
13.2117
15.3189
17.9215
21.0936
24.9548
29.6279
35.2228
41.8287
49.5986
58.5371
68.679
79.0821
89.4212
95.2944
93.3106
80.4859
38.4629
3.58494
9.0419
9.34054
10.1932
11.5095
13.2031
15.3056
17.9009
21.0623
24.9058
29.5506
35.1014
41.6396
49.3016
58.0705
67.9435
77.9415
87.5809
92.8316
89.9908
76.1991
34.6656
0.168048
9.03912
9.33739
10.189
11.5034
13.1939
15.2916
17.879
21.0288
24.8536
29.4684
34.9723
41.439
48.9872
57.5785
67.1684
76.7682
85.7414
90.3228
86.7587
72.0816
31.1544
-3.11712
9.03615
9.33402
10.1845
11.4968
13.1841
15.2765
17.8557
20.9931
24.798
29.3809
34.8352
41.226
48.6545
57.0598
66.3522
75.5424
83.8768
87.7581
83.5625
68.1504
27.9425
-6.22777
9.03296
9.33041
10.1797
11.4898
13.1736
15.2604
17.8308
20.9551
24.7388
29.2878
34.6895
41.0002
48.3023
56.513
65.4955
74.2566
81.9592
85.1348
80.3361
64.388
25.0293
-9.12451
9.02955
9.32655
10.1745