/*--------------------------------*- C++ -*----------------------------------*\
| =========                 |                                                 |
| \\      /  F ield         | OpenFOAM: The Open Source CFD Toolbox           |
|  \\    /   O peration     | Version:  v1912                                 |
|   \\  /    A nd           | Website:  www.openfoam.com                      |
|    \\/     M anipulation  |                                                 |
\*---------------------------------------------------------------------------*/
FoamFile
{
    version     2.0;
    format      ascii;
    class       volVectorField;
    location    "540";
    object      U;
}
// * * * * * * * * * * * * * * * * * * * * * * * * * * * * * * * * * * * * * //

dimensions      [0 1 -1 0 0 0 0];


internalField   nonuniform List<vector> 
12441
(
(29.9988 1.71601e-05 0)
(29.9853 5.2203e-05 0)
(29.9557 9.0938e-05 0)
(29.9109 0.000139621 0)
(29.852 0.000203378 0)
(29.7773 0.000288667 0)
(29.6846 0.000400012 0)
(29.5689 0.000566315 0)
(29.4249 0.000788793 0)
(29.2459 0.00110439 0)
(29.0215 0.00152872 0)
(28.7392 0.00211754 0)
(28.4288 0.00296829 0)
(27.9679 0.0043835 0)
(27.4186 0.00621162 0)
(26.6301 0.011229 0)
(25.5943 0.0151578 0)
(23.9167 0.0316959 0)
(21.5522 0.0530748 0)
(17.8515 0.0914074 0)
(12.0693 0.12195 0)
(5.78717 0.195866 0)
(29.9988 5.09809e-05 0)
(29.9853 0.000155853 0)
(29.9557 0.000271227 0)
(29.9108 0.000416462 0)
(29.852 0.000606884 0)
(29.7773 0.000861511 0)
(29.6846 0.00119502 0)
(29.569 0.00169324 0)
(29.4248 0.00235906 0)
(29.2462 0.00330868 0)
(29.0212 0.00457926 0)
(28.7351 0.00635319 0)
(28.4324 0.00884815 0)
(27.9718 0.0131577 0)
(27.4204 0.0186827 0)
(26.6334 0.0335275 0)
(25.5932 0.0479872 0)
(23.915 0.0909757 0)
(21.5526 0.138683 0)
(17.8505 0.264483 0)
(12.0705 0.358292 0)
(5.79107 0.584993 0)
(29.9988 8.46487e-05 0)
(29.9853 0.000259399 0)
(29.9557 0.00045075 0)
(29.9108 0.000692201 0)
(29.852 0.00100925 0)
(29.7773 0.00143385 0)
(29.6846 0.00198861 0)
(29.569 0.00281902 0)
(29.4249 0.00392777 0)
(29.2462 0.0055068 0)
(29.0212 0.0076316 0)
(28.7354 0.010612 0)
(28.433 0.0146557 0)
(27.9679 0.0219802 0)
(27.4182 0.0311778 0)
(26.6321 0.0549577 0)
(25.5939 0.0817028 0)
(23.9187 0.148378 0)
(21.5559 0.22173 0)
(17.8502 0.435238 0)
(12.0766 0.591168 0)
(5.79943 0.9722 0)
(29.9988 0.000118744 0)
(29.9853 0.000363702 0)
(29.9557 0.000631214 0)
(29.9109 0.000969274 0)
(29.852 0.00141336 0)
(29.7773 0.00200811 0)
(29.6846 0.00278475 0)
(29.569 0.00394806 0)
(29.4249 0.00550028 0)
(29.2462 0.00771235 0)
(29.0212 0.0106902 0)
(28.7353 0.0148724 0)
(28.4324 0.0204863 0)
(27.9723 0.0308292 0)
(27.4209 0.0436946 0)
(26.635 0.0764515 0)
(25.5958 0.114657 0)
(23.9233 0.208762 0)
(21.5644 0.329499 0)
(17.8546 0.614036 0)
(12.0889 0.827995 0)
(5.81247 1.36105 0)
(29.9988 0.000152905 0)
(29.9853 0.000467899 0)
(29.9557 0.00081148 0)
(29.9109 0.0012461 0)
(29.852 0.00181708 0)
(29.7773 0.00258181 0)
(29.6846 0.0035802 0)
(29.569 0.00507628 0)
(29.4249 0.00707183 0)
(29.2463 0.00991629 0)
(29.0213 0.0137466 0)
(28.7359 0.0191291 0)
(28.4332 0.0263278 0)
(27.9682 0.0396519 0)
(27.4194 0.0562285 0)
(26.6337 0.0977006 0)
(25.5982 0.147129 0)
(23.9275 0.269905 0)
(21.5752 0.420104 0)
(17.8649 0.789025 0)
(12.109 1.06461 0)
(5.8305 1.75119 0)
(29.9988 0.000187066 0)
(29.9853 0.000572035 0)
(29.9557 0.000991729 0)
(29.9109 0.00152294 0)
(29.852 0.00222083 0)
(29.7773 0.00315558 0)
(29.6846 0.00437584 0)
(29.569 0.00620475 0)
(29.4249 0.0086436 0)
(29.2463 0.0121205 0)
(29.0214 0.0168044 0)
(28.7357 0.0233834 0)
(28.4321 0.0321685 0)
(27.9733 0.0484889 0)
(27.4222 0.0687753 0)
(26.637 0.118852 0)
(25.6013 0.179336 0)
(23.932 0.330532 0)
(21.5879 0.509165 0)
(17.8819 0.962696 0)
(12.1385 1.30092 0)
(5.85395 2.14242 0)
(29.9988 0.000221227 0)
(29.9853 0.000676139 0)
(29.9557 0.00117197 0)
(29.9109 0.0017998 0)
(29.852 0.00262457 0)
(29.7774 0.00372934 0)
(29.6847 0.00517148 0)
(29.5691 0.00733319 0)
(29.425 0.0102155 0)
(29.2464 0.0143244 0)
(29.0215 0.019861 0)
(28.7366 0.0276398 0)
(28.4335 0.0380234 0)
(27.9683 0.0572733 0)
(27.4214 0.0813058 0)
(26.6361 0.139848 0)
(25.6044 0.210811 0)
(23.9363 0.388594 0)
(21.6054 0.600356 0)
(17.9093 1.13646 0)
(12.1802 1.53733 0)
(5.88335 2.53506 0)
(29.9988 0.000255389 0)
(29.9853 0.000780222 0)
(29.9557 0.00135221 0)
(29.9109 0.00207666 0)
(29.852 0.00302829 0)
(29.7774 0.00430309 0)
(29.6847 0.00596716 0)
(29.569 0.00846168 0)
(29.425 0.0117873 0)
(29.2464 0.016528 0)
(29.0216 0.0229191 0)
(28.736 0.0318912 0)
(28.4316 0.0438657 0)
(27.9744 0.0660678 0)
(27.4248 0.0937023 0)
(26.6393 0.160468 0)
(25.61 0.243852 0)
(23.9426 0.448569 0)
(21.6374 0.692588 0)
(17.9544 1.30971 0)
(12.2373 1.77408 0)
(5.9193 2.9296 0)
(29.9988 0.000289553 0)
(29.9853 0.000884277 0)
(29.9557 0.00153243 0)
(29.9109 0.00235351 0)
(29.852 0.00343199 0)
(29.7774 0.00487684 0)
(29.6847 0.00676282 0)
(29.5691 0.00959014 0)
(29.4251 0.0133593 0)
(29.2465 0.0187313 0)
(29.0218 0.0259749 0)
(28.7376 0.0361496 0)
(28.4342 0.0497343 0)
(27.9673 0.074918 0)
(27.4237 0.106162 0)
(26.638 0.181408 0)
(25.6178 0.275314 0)
(23.955 0.5079 0)
(21.6974 0.784485 0)
(18.0261 1.48216 0)
(12.3136 2.01145 0)
(5.96247 3.32656 0)
(29.9988 0.000323719 0)
(29.9853 0.00098831 0)
(29.9557 0.00171265 0)
(29.9109 0.00263036 0)
(29.8521 0.00383567 0)
(29.7774 0.00545057 0)
(29.6847 0.0075585 0)
(29.5691 0.0107186 0)
(29.425 0.0149311 0)
(29.2465 0.0209341 0)
(29.022 0.0290314 0)
(28.7363 0.0404027 0)
(28.4304 0.0556011 0)
(27.9721 0.0835839 0)
(27.4265 0.119241 0)
(26.6387 0.202735 0)
(25.6322 0.307389 0)
(23.9856 0.56529 0)
(21.7884 0.876151 0)
(18.1275 1.65418 0)
(12.4118 2.24992 0)
(6.01358 3.72655 0)
(29.9988 0.000357886 0)
(29.9853 0.00109231 0)
(29.9557 0.00189285 0)
(29.9109 0.00290721 0)
(29.8521 0.00423933 0)
(29.7774 0.00602428 0)
(29.6848 0.00835413 0)
(29.5692 0.0118471 0)
(29.4252 0.0165027 0)
(29.2466 0.0231365 0)
(29.0222 0.0320882 0)
(28.7382 0.0446581 0)
(28.4352 0.0615359 0)
(27.9713 0.0922151 0)
(27.4256 0.131633 0)
(26.6379 0.223031 0)
(25.6518 0.340326 0)
(24.0348 0.621786 0)
(21.8928 0.967655 0)
(18.2515 1.8258 0)
(12.5325 2.48987 0)
(6.0733 4.13022 0)
(29.9988 0.000392054 0)
(29.9853 0.0011963 0)
(29.9557 0.00207305 0)
(29.9109 0.00318405 0)
(29.8521 0.00464297 0)
(29.7774 0.00659797 0)
(29.6847 0.00914975 0)
(29.5692 0.0129755 0)
(29.4251 0.0180744 0)
(29.2467 0.0253374 0)
(29.0224 0.0351471 0)
(28.7368 0.0489027 0)
(28.4297 0.067386 0)
(27.9756 0.101183 0)
(27.4224 0.145139 0)
(26.639 0.243516 0)
(25.6709 0.372777 0)
(24.0874 0.676367 0)
(21.9895 1.05814 0)
(18.3852 1.99645 0)
(12.6737 2.73147 0)
(6.14218 4.53826 0)
(29.9988 0.000426221 0)
(29.9853 0.00130025 0)
(29.9557 0.00225325 0)
(29.9109 0.00346089 0)
(29.8521 0.00504659 0)
(29.7774 0.00717165 0)
(29.6848 0.00994526 0)
(29.5693 0.014104 0)
(29.4252 0.0196452 0)
(29.2469 0.0275376 0)
(29.0229 0.0382087 0)
(28.7375 0.0532319 0)
(28.4293 0.0731703 0)
(27.9722 0.110402 0)
(27.4182 0.15885 0)
(26.6413 0.263376 0)
(25.6855 0.404496 0)
(24.1306 0.728861 0)
(22.0691 1.14717 0)
(18.5171 2.16545 0)
(12.8316 2.97459 0)
(6.22053 4.95126 0)
(29.9988 0.000460389 0)
(29.9853 0.00140419 0)
(29.9557 0.00243345 0)
(29.9109 0.00373771 0)
(29.8521 0.00545018 0)
(29.7775 0.0077453 0)
(29.6848 0.0107407 0)
(29.5693 0.0152326 0)
(29.4252 0.0212158 0)
(29.2471 0.0297363 0)
(29.0234 0.0412898 0)
(28.7373 0.0575884 0)
(28.4197 0.0793555 0)
(27.967 0.119664 0)
(27.4152 0.172058 0)
(26.6438 0.282552 0)
(25.6954 0.435594 0)
(24.1623 0.779754 0)
(22.1322 1.23475 0)
(18.6402 2.33232 0)
(13.0017 3.21888 0)
(6.30836 5.36977 0)
(29.9988 0.000494555 0)
(29.9853 0.00150809 0)
(29.9557 0.00261365 0)
(29.9109 0.00401453 0)
(29.8521 0.00585375 0)
(29.7775 0.00831892 0)
(29.6849 0.0115361 0)
(29.5694 0.0163611 0)
(29.4253 0.0227858 0)
(29.2474 0.0319306 0)
(29.0239 0.0443964 0)
(28.7396 0.0618482 0)
(28.413 0.0855294 0)
(27.9625 0.128563 0)
(27.4136 0.185062 0)
(26.6459 0.301492 0)
(25.7017 0.466374 0)
(24.1847 0.829573 0)
(22.1824 1.32099 0)
(18.7518 2.49677 0)
(13.1797 3.46393 0)
(6.40542 5.79423 0)
(29.9988 0.00052872 0)
(29.9853 0.00161197 0)
(29.9557 0.00279385 0)
(29.9109 0.00429133 0)
(29.8521 0.0062573 0)
(29.7775 0.00889251 0)
(29.6848 0.0123313 0)
(29.5694 0.0174898 0)
(29.4252 0.0243543 0)
(29.2475 0.0341258 0)
(29.0245 0.0475049 0)
(28.7428 0.0662463 0)
(28.4065 0.0917041 0)
(27.9599 0.13726 0)
(27.4127 0.19796 0)
(26.6475 0.320373 0)
(25.7054 0.496986 0)
(24.2005 0.878678 0)
(22.2234 1.40599 0)
(18.8517 2.65861 0)
(13.3622 3.70929 0)
(6.51125 6.22498 0)
(29.9988 0.000562883 0)
(29.9853 0.00171583 0)
(29.9557 0.00297405 0)
(29.9109 0.00456813 0)
(29.8521 0.00666082 0)
(29.7775 0.00946608 0)
(29.6849 0.0131264 0)
(29.5695 0.0186186 0)
(29.4254 0.0259229 0)
(29.2477 0.0363129 0)
(29.0256 0.0506747 0)
(28.7452 0.0707089 0)
(28.4024 0.0978251 0)
(27.9582 0.145891 0)
(27.4122 0.210849 0)
(26.6488 0.339239 0)
(25.7075 0.527489 0)
(24.2119 0.92726 0)
(22.2581 1.48986 0)
(18.9412 2.8177 0)
(13.5468 3.95453 0)
(6.62533 6.66229 0)
(29.9988 0.000597044 0)
(29.9853 0.00181966 0)
(29.9557 0.00315426 0)
(29.9109 0.00484491 0)
(29.8521 0.00706431 0)
(29.7775 0.0100396 0)
(29.6849 0.0139214 0)
(29.5695 0.0197473 0)
(29.4254 0.0274915 0)
(29.2477 0.0384899 0)
(29.0266 0.0538661 0)
(28.7455 0.0752334 0)
(28.3997 0.103897 0)
(27.9573 0.154507 0)
(27.4119 0.223744 0)
(26.6498 0.358104 0)
(25.7085 0.557911 0)
(24.2204 0.975429 0)
(22.2888 1.57265 0)
(19.0219 2.97399 0)
(13.7318 4.19928 0)
(6.74708 7.10639 0)
(29.9988 0.000631202 0)
(29.9853 0.00192346 0)
(29.9557 0.00333447 0)
(29.9109 0.00512167 0)
(29.8521 0.00746777 0)
(29.7776 0.0106131 0)
(29.685 0.0147163 0)
(29.5696 0.0208759 0)
(29.4256 0.0290598 0)
(29.2478 0.0406733 0)
(29.0274 0.0570485 0)
(28.7444 0.0796078 0)
(28.3981 0.109986 0)
(27.9567 0.163119 0)
(27.4117 0.236642 0)
(26.6507 0.376968 0)
(25.7089 0.58827 0)
(24.227 1.02324 0)
(22.3171 1.65444 0)
(19.0956 3.12741 0)
(13.9166 4.44322 0)
(6.87598 7.55745 0)
(29.9988 0.000665358 0)
(29.9853 0.00202724 0)
(29.9557 0.00351468 0)
(29.911 0.00539842 0)
(29.8522 0.00787121 0)
(29.7776 0.0111865 0)
(29.685 0.0155112 0)
(29.5696 0.0220042 0)
(29.4256 0.0306293 0)
(29.2478 0.0428654 0)
(29.0275 0.0602811 0)
(28.7431 0.0838767 0)
(28.3971 0.116074 0)
(27.9564 0.171744 0)
(27.4116 0.249541 0)
(26.6516 0.395836 0)
(25.709 0.618579 0)
(24.2328 1.07074 0)
(22.3442 1.73525 0)
(19.1639 3.27796 0)
(14.101 4.68604 0)
(7.01156 8.01562 0)
(29.9988 0.00069951 0)
(29.9853 0.00213098 0)
(29.9557 0.0036949 0)
(29.911 0.00567515 0)
(29.8522 0.00827462 0)
(29.7776 0.0117598 0)
(29.6851 0.0163059 0)
(29.5698 0.023132 0)
(29.4258 0.0321988 0)
(29.2482 0.0450756 0)
(29.0263 0.0635283 0)
(28.7421 0.0881289 0)
(28.3964 0.122179 0)
(27.9562 0.180371 0)
(27.4116 0.262434 0)
(26.6525 0.414709 0)
(25.7091 0.64885 0)
(24.2382 1.11792 0)
(22.3709 1.81514 0)
(19.2284 3.42562 0)
(14.2852 4.92752 0)
(7.15344 8.48107 0)
(29.9988 0.00073366 0)
(29.9853 0.00223471 0)
(29.9557 0.00387513 0)
(29.911 0.00595187 0)
(29.8522 0.00867799 0)
(29.7776 0.0123331 0)
(29.685 0.0171003 0)
(29.5698 0.0242603 0)
(29.4257 0.0337646 0)
(29.2485 0.0473485 0)
(29.024 0.0667609 0)
(28.7413 0.0923889 0)
(28.3961 0.128288 0)
(27.9562 0.189003 0)
(27.4117 0.275323 0)
(26.6535 0.43359 0)
(25.7095 0.679092 0)
(24.2439 1.16475 0)
(22.398 1.89411 0)
(19.2904 3.57041 0)
(14.4699 5.16744 0)
(7.30136 8.95394 0)
(29.9988 0.000767806 0)
(29.9853 0.0023384 0)
(29.9557 0.00405535 0)
(29.911 0.00622856 0)
(29.8522 0.00908132 0)
(29.7777 0.0129064 0)
(29.6852 0.0178944 0)
(29.57 0.0253887 0)
(29.4258 0.0353285 0)
(29.2491 0.0496693 0)
(29.0219 0.0699685 0)
(28.7408 0.0966732 0)
(28.3958 0.134406 0)
(27.9562 0.197633 0)
(27.4119 0.288203 0)
(26.6547 0.452475 0)
(25.7105 0.709307 0)
(24.2501 1.21122 0)
(22.4257 1.97221 0)
(19.3509 3.71231 0)
(14.656 5.40563 0)
(7.45513 9.4344 0)
(29.9988 0.000801949 0)
(29.9853 0.00244207 0)
(29.9558 0.00423559 0)
(29.911 0.00650524 0)
(29.8522 0.00948461 0)
(29.7777 0.0134796 0)
(29.6851 0.0186883 0)
(29.57 0.0265174 0)
(29.4257 0.0368885 0)
(29.2494 0.0520234 0)
(29.0203 0.0730674 0)
(28.7406 0.100973 0)
(28.3957 0.140524 0)
(27.9564 0.206263 0)
(27.4123 0.301078 0)
(26.6561 0.471361 0)
(25.7122 0.739485 0)
(24.257 1.25728 0)
(22.4543 2.04945 0)
(19.4109 3.85132 0)
(14.8445 5.64196 0)
(7.61468 9.92262 0)
(29.9988 0.000836087 0)
(29.9853 0.00254571 0)
(29.9558 0.00441582 0)
(29.911 0.00678189 0)
(29.8522 0.00988785 0)
(29.7777 0.0140528 0)
(29.6852 0.0194818 0)
(29.5702 0.0276463 0)
(29.426 0.0384451 0)
(29.2495 0.0543601 0)
(29.0194 0.0760923 0)
(28.7404 0.105283 0)
(28.3957 0.146644 0)
(27.9566 0.214888 0)
(27.4129 0.313943 0)
(26.6579 0.490239 0)
(25.7149 0.7696 0)
(24.2648 1.30292 0)
(22.4837 2.12585 0)
(19.4711 3.98741 0)
(15.0365 5.87628 0)
(7.78005 10.4188 0)
(29.9988 0.000870222 0)
(29.9853 0.00264933 0)
(29.9558 0.00459606 0)
(29.911 0.00705852 0)
(29.8523 0.0102911 0)
(29.7777 0.0146259 0)
(29.6852 0.0202753 0)
(29.5701 0.0287735 0)
(29.4261 0.040017 0)
(29.2491 0.0566766 0)
(29.0188 0.0790869 0)
(28.7403 0.109597 0)
(28.3957 0.152762 0)
(27.9569 0.22351 0)
(27.4136 0.326796 0)
(26.6601 0.509096 0)
(25.7187 0.799629 0)
(24.2737 1.34816 0)
(22.5141 2.20142 0)
(19.5322 4.12051 0)
(15.2335 6.1085 0)
(7.95135 10.9232 0)
(29.9988 0.000904352 0)
(29.9853 0.00275291 0)
(29.9558 0.0047763 0)
(29.911 0.00733512 0)
(29.8523 0.0106943 0)
(29.7778 0.0151988 0)
(29.6854 0.0210689 0)
(29.5702 0.0299016 0)
(29.4267 0.0415986 0)
(29.2483 0.0590898 0)
(29.0185 0.0820891 0)
(28.7404 0.113914 0)
(28.3958 0.15888 0)
(27.9574 0.232127 0)
(27.4146 0.339631 0)
(26.6628 0.527918 0)
(25.7235 0.829553 0)
(24.2835 1.39302 0)
(22.5453 2.27616 0)
(19.5944 4.25056 0)
(15.4365 6.33853 0)
(8.12877 11.436 0)
(29.9988 0.000938479 0)
(29.9853 0.00285648 0)
(29.9558 0.00495654 0)
(29.911 0.0076117 0)
(29.8523 0.0110974 0)
(29.7778 0.0157716 0)
(29.6853 0.021862 0)
(29.5701 0.0310283 0)
(29.4271 0.043191 0)
(29.2467 0.0614707 0)
(29.0183 0.0851153 0)
(28.7404 0.118232 0)
(28.3959 0.164994 0)
(27.9578 0.240737 0)
(27.4158 0.352443 0)
(26.6659 0.54669 0)
(25.7294 0.85937 0)
(24.2945 1.43749 0)
(22.5773 2.35007 0)
(19.6581 4.37742 0)
(15.6469 6.56626 0)
(8.31257 11.9576 0)
(29.9988 0.0009726 0)
(29.9853 0.00296001 0)
(29.9558 0.00513678 0)
(29.911 0.00788823 0)
(29.8523 0.0115005 0)
(29.7778 0.0163442 0)
(29.6855 0.0226559 0)
(29.5702 0.03215 0)
(29.4277 0.0448405 0)
(29.2453 0.0637125 0)
(29.0182 0.0881668 0)
(28.7405 0.12255 0)
(28.3961 0.171106 0)
(27.9584 0.249338 0)
(27.4172 0.365227 0)
(26.6695 0.565402 0)
(25.7361 0.889077 0)
(24.3067 1.48159 0)
(22.61 2.42313 0)
(19.7234 4.50097 0)
(15.8656 6.79161 0)
(8.50306 12.4883 0)
(29.9988 0.00100672 0)
(29.9853 0.00306351 0)
(29.9558 0.00531704 0)
(29.911 0.00816474 0)
(29.8523 0.0119036 0)
(29.7778 0.0169167 0)
(29.6855 0.0234497 0)
(29.5701 0.0332701 0)
(29.4281 0.0465162 0)
(29.2441 0.0659308 0)
(29.0183 0.0912362 0)
(28.7407 0.126867 0)
(28.3964 0.177213 0)
(27.9591 0.257928 0)
(27.4188 0.377978 0)
(26.6735 0.584046 0)
(25.7438 0.918669 0)
(24.32 1.52531 0)
(22.6435 2.49536 0)
(19.7901 4.62105 0)
(16.0934 7.01449 0)
(8.7006 13.0284 0)
(29.9988 0.00104083 0)
(29.9854 0.00316699 0)
(29.9558 0.00549727 0)
(29.911 0.00844121 0)
(29.8524 0.0123067 0)
(29.7779 0.0174889 0)
(29.6857 0.0242435 0)
(29.5703 0.0343895 0)
(29.4286 0.0482036 0)
(29.2433 0.0681397 0)
(29.0184 0.094315 0)
(28.7409 0.131184 0)
(28.3966 0.183317 0)
(27.9598 0.266504 0)
(27.4207 0.390692 0)
(26.6779 0.602617 0)
(25.7523 0.948139 0)
(24.3347 1.56867 0)
(22.6777 2.56674 0)
(19.8582 4.7375 0)
(16.3307 7.23479 0)
(8.90552 13.5782 0)
(29.9988 0.00107494 0)
(29.9854 0.00327044 0)
(29.9558 0.00567752 0)
(29.9111 0.00871765 0)
(29.8524 0.0127097 0)
(29.7779 0.0180611 0)
(29.6856 0.0250371 0)
(29.5703 0.0355075 0)
(29.4287 0.0499024 0)
(29.2428 0.0703273 0)
(29.0185 0.0973986 0)
(28.741 0.1355 0)
(28.3969 0.189417 0)
(27.9607 0.275066 0)
(27.4227 0.403366 0)
(26.6826 0.621109 0)
(25.7615 0.977475 0)
(24.3507 1.61166 0)
(22.7128 2.63728 0)
(19.9275 4.85014 0)
(16.5778 7.4524 0)
(9.11817 14.1382 0)
(29.9988 0.00110905 0)
(29.9854 0.00337386 0)
(29.9558 0.00585776 0)
(29.9111 0.00899405 0)
(29.8524 0.0131127 0)
(29.778 0.0186331 0)
(29.6858 0.0258305 0)
(29.5705 0.0366254 0)
(29.4288 0.0516077 0)
(29.2427 0.0725006 0)
(29.0187 0.100485 0)
(28.7413 0.139815 0)
(28.3972 0.195511 0)
(27.9615 0.283611 0)
(27.4249 0.416 0)
(26.6876 0.639515 0)
(25.7716 1.00666 0)
(24.3681 1.65428 0)
(22.7487 2.70698 0)
(19.9978 4.95881 0)
(16.8345 7.66719 0)
(9.33887 14.7088 0)
(29.9988 0.00114315 0)
(29.9854 0.00347726 0)
(29.9558 0.006038 0)
(29.9111 0.00927042 0)
(29.8524 0.0135156 0)
(29.778 0.019205 0)
(29.6857 0.026623 0)
(29.5706 0.0377434 0)
(29.4287 0.0533174 0)
(29.2428 0.0746618 0)
(29.019 0.103573 0)
(28.7415 0.144129 0)
(28.3976 0.201599 0)
(27.9625 0.292139 0)
(27.4272 0.42859 0)
(26.693 0.657831 0)
(25.7823 1.03569 0)
(24.3869 1.69653 0)
(22.7857 2.77584 0)
(20.0692 5.06335 0)
(17.1006 7.87904 0)
(9.56791 15.2903 0)
(29.9988 0.00117724 0)
(29.9854 0.00358063 0)
(29.9558 0.00621822 0)
(29.9111 0.00954676 0)
(29.8524 0.0139184 0)
(29.778 0.0197771 0)
(29.6859 0.0274152 0)
(29.5709 0.0388567 0)
(29.4286 0.0550291 0)
(29.243 0.0768147 0)
(29.0192 0.106663 0)
(28.7418 0.148443 0)
(28.398 0.207682 0)
(27.9635 0.300648 0)
(27.4296 0.441135 0)
(26.6985 0.67605 0)
(25.7937 1.06455 0)
(24.4071 1.73841 0)
(22.8239 2.84387 0)
(20.1417 5.1636 0)
(17.3759 8.0878 0)
(9.80556 15.8832 0)
(29.9988 0.00121134 0)
(29.9854 0.00368398 0)
(29.9558 0.00639846 0)
(29.9111 0.00982304 0)
(29.8525 0.0143213 0)
(29.7781 0.0203482 0)
(29.6858 0.0282107 0)
(29.571 0.039965 0)
(29.4281 0.0566529 0)
(29.2433 0.07896 0)
(29.0195 0.109755 0)
(28.742 0.152756 0)
(28.3984 0.213758 0)
(27.9646 0.309138 0)
(27.4322 0.453633 0)
(26.7044 0.694165 0)
(25.8058 1.09321 0)
(24.4287 1.7799 0)
(22.8634 2.91107 0)
(20.2155 5.25943 0)
(17.6602 8.29333 0)
(10.052 16.4879 0)
(29.9988 0.00124543 0)
(29.9854 0.0037873 0)
(29.9558 0.00657866 0)
(29.9111 0.0100993 0)
(29.8525 0.0147238 0)
(29.7781 0.0209213 0)
(29.6859 0.028995 0)
(29.5715 0.0411406 0)
(29.4273 0.0580129 0)
(29.2436 0.0811083 0)
(29.0198 0.112848 0)
(28.7423 0.157068 0)
(28.3988 0.219827 0)
(27.9657 0.317608 0)
(27.4349 0.466083 0)
(26.7104 0.71217 0)
(25.8185 1.12167 0)
(24.4517 1.821 0)
(22.9044 2.97745 0)
(20.2909 5.3507 0)
(17.9534 8.49547 0)
(10.3076 17.1047 0)
(29.9988 0.00127951 0)
(29.9854 0.00389059 0)
(29.9558 0.00675886 0)
(29.9111 0.0103756 0)
(29.8525 0.0151264 0)
(29.7782 0.0214923 0)
(29.6858 0.0297896 0)
(29.5721 0.0422656 0)
(29.4249 0.0599962 0)
(29.2439 0.083286 0)
(29.0201 0.115942 0)
(28.7426 0.161378 0)
(28.3993 0.225889 0)
(27.9669 0.326058 0)
(27.4377 0.478483 0)
(26.7167 0.73006 0)
(25.8319 1.1499 0)
(24.476 1.86169 0)
(22.9472 3.04299 0)
(20.3678 5.43728 0)
(18.256 8.69407 0)
(10.5724 17.7341 0)
(29.9988 0.0013136 0)
(29.9854 0.00399385 0)
(29.9558 0.00693905 0)
(29.9111 0.0106517 0)
(29.8525 0.0155291 0)
(29.7783 0.0220638 0)
(29.6858 0.0305748 0)
(29.5728 0.0434579 0)
(29.4233 0.0618288 0)
(29.2442 0.0854873 0)
(29.0204 0.119036 0)
(28.7429 0.165688 0)
(28.3997 0.231944 0)
(27.9681 0.334486 0)
(27.4406 0.49083 0)
(26.7231 0.747828 0)
(25.8458 1.1779 0)
(24.5017 1.90195 0)
(22.992 3.10771 0)
(20.4465 5.51903 0)
(18.5681 8.88897 0)
(10.8467 18.3764 0)
(29.9988 0.00134767 0)
(29.9854 0.00409709 0)
(29.9558 0.00711918 0)
(29.9112 0.0109281 0)
(29.8526 0.0159303 0)
(29.7783 0.0226415 0)
(29.6858 0.0313357 0)
(29.5727 0.0446722 0)
(29.4226 0.0633529 0)
(29.2445 0.0876935 0)
(29.0207 0.122131 0)
(28.7432 0.169997 0)
(28.4002 0.237992 0)
(27.9693 0.342893 0)
(27.4435 0.503125 0)
(26.7298 0.76547 0)
(25.8602 1.20566 0)
(24.5286 1.94177 0)
(23.0391 3.17158 0)
(20.5267 5.59582 0)
(18.8899 9.08001 0)
(11.1308 19.0323 0)
(29.9988 0.00138176 0)
(29.9854 0.0042003 0)
(29.9558 0.00729933 0)
(29.9112 0.0112041 0)
(29.8526 0.0163334 0)
(29.7783 0.0232078 0)
(29.6862 0.0321701 0)
(29.5721 0.0455372 0)
(29.4221 0.064819 0)
(29.2447 0.0898964 0)
(29.021 0.125225 0)
(28.7435 0.174304 0)
(28.4006 0.244033 0)
(27.9705 0.351277 0)
(27.4465 0.515363 0)
(26.7366 0.782981 0)
(25.8751 1.23315 0)
(24.5566 1.98112 0)
(23.089 3.23462 0)
(20.6079 5.66751 0)
(19.2206 9.26708 0)
(11.4248 19.7019 0)
(29.9988 0.00141582 0)
(29.9854 0.00430355 0)
(29.9559 0.00747949 0)
(29.9112 0.0114802 0)
(29.8527 0.0167356 0)
(29.7781 0.0237808 0)
(29.6873 0.0329719 0)
(29.5669 0.0469557 0)
(29.4218 0.0663164 0)
(29.2449 0.092096 0)
(29.0212 0.128319 0)
(28.7437 0.17861 0)
(28.4011 0.250066 0)
(27.9717 0.359638 0)
(27.4496 0.527545 0)
(26.7436 0.800356 0)
(25.8904 1.26037 0)
(24.5857 2.01995 0)
(23.1419 3.29683 0)
(20.6894 5.73402 0)
(19.5572 9.45015 0)
(11.729 20.3866 0)
(29.9988 0.00144972 0)
(29.9854 0.00440672 0)
(29.9559 0.00765979 0)
(29.9112 0.0117561 0)
(29.8528 0.017139 0)
(29.7779 0.0243474 0)
(29.6885 0.0338019 0)
(29.5635 0.0484058 0)
(29.4216 0.0678469 0)
(29.245 0.0942963 0)
(29.0215 0.131413 0)
(28.744 0.182915 0)
(28.4016 0.256093 0)
(27.973 0.367975 0)
(27.4527 0.539668 0)
(26.7507 0.81759 0)
(25.906 1.28731 0)
(24.6156 2.05823 0)
(23.1985 3.35822 0)
(20.7704 5.79533 0)
(19.8926 9.62893 0)
(12.043 21.0938 0)
(29.9988 0.00148313 0)
(29.9854 0.00450889 0)
(29.9559 0.007839 0)
(29.9112 0.0120304 0)
(29.8528 0.0175413 0)
(29.7779 0.0249013 0)
(29.6886 0.0346893 0)
(29.5623 0.0495512 0)
(29.4215 0.0693825 0)
(29.2451 0.0964927 0)
(29.0217 0.134506 0)
(28.7443 0.187219 0)
(28.402 0.262117 0)
(27.9742 0.376288 0)
(27.4559 0.551731 0)
(26.758 0.834681 0)
(25.9219 1.31395 0)
(24.6463 2.09589 0)
(23.2589 3.41883 0)
(20.8511 5.85152 0)
(20.2157 9.80139 0)
(12.453 21.8448 0)
(0.911756 -0.00698209 0)
(-0.354322 0.0215027 0)
(-1.05911 0.00784172 0)
(-1.12479 0.000611712 0)
(-1.11485 -0.00329677 0)
(-0.729847 -0.00377852 0)
(-0.635519 -0.0016915 0)
(-0.499954 -0.000284971 0)
(-0.599911 0.000331038 0)
(-0.553759 0.000364719 0)
(-0.673993 0.000508424 0)
(-0.644665 -0.000455569 0)
(-0.553852 -0.0010827 0)
(-0.383014 -0.00155224 0)
(-0.195661 -0.00241462 0)
(0.213495 -0.0038738 0)
(0.876065 -0.00526889 0)
(1.82076 -0.00645651 0)
(3.00141 -0.00704059 0)
(4.33246 -0.00717455 0)
(5.76914 -0.00703661 0)
(7.28572 -0.00665598 0)
(8.81329 -0.00601305 0)
(10.2634 -0.00526153 0)
(11.6333 -0.00461934 0)
(12.9437 -0.00411107 0)
(14.2173 -0.00369056 0)
(15.4585 -0.00331946 0)
(16.6704 -0.00303412 0)
(17.8912 -0.00285858 0)
(19.1456 -0.00216394 0)
(19.9127 -0.00180322 0)
(20.9556 -0.00690588 0)
(27.6793 -0.00761214 0)
(29.9123 -0.00176612 0)
(0.921062 -0.0214164 0)
(-0.340353 0.0643509 0)
(-1.0442 0.0233847 0)
(-1.10475 0.00192514 0)
(-1.09684 -0.00989487 0)
(-0.712772 -0.0112378 0)
(-0.621636 -0.00506619 0)
(-0.485453 -0.000797127 0)
(-0.587598 0.00104801 0)
(-0.54449 0.001206 0)
(-0.676127 0.00153627 0)
(-0.650086 -0.00163093 0)
(-0.540944 -0.00356489 0)
(-0.341818 -0.00453931 0)
(-0.160745 -0.00667203 0)
(0.20853 -0.0110345 0)
(0.840174 -0.0154926 0)
(1.7915 -0.0191865 0)
(2.99908 -0.0209857 0)
(4.34956 -0.0213594 0)
(5.78065 -0.020944 0)
(7.28044 -0.019876 0)
(8.79745 -0.0179925 0)
(10.2481 -0.0157508 0)
(11.6242 -0.0138188 0)
(12.9381 -0.012299 0)
(14.2122 -0.0110579 0)
(15.4532 -0.00995348 0)
(16.663 -0.00908673 0)
(17.8782 -0.00856545 0)
(19.1334 -0.00654842 0)
(19.9282 -0.0052588 0)
(20.8779 -0.0205006 0)
(27.5374 -0.0230101 0)
(29.908 -0.00545989 0)
(0.932606 -0.0364801 0)
(-0.325215 0.10705 0)
(-1.0272 0.0386934 0)
(-1.07914 0.00321281 0)
(-1.06923 -0.0165929 0)
(-0.687132 -0.018591 0)
(-0.59974 -0.00844762 0)
(-0.464653 -0.00126156 0)
(-0.569623 0.00181605 0)
(-0.530989 0.0022471 0)
(-0.674601 0.00273311 0)
(-0.646998 -0.00278061 0)
(-0.512908 -0.00640516 0)
(-0.289406 -0.00787278 0)
(-0.127715 -0.0107558 0)
(0.19653 -0.01764 0)
(0.804043 -0.0253021 0)
(1.77043 -0.0318524 0)
(3.00867 -0.0349293 0)
(4.38028 -0.0354946 0)
(5.80644 -0.0347125 0)
(7.28957 -0.0329053 0)
(8.79751 -0.0299137 0)
(10.2487 -0.0262863 0)
(11.6305 -0.023078 0)
(12.9474 -0.0205111 0)
(14.2215 -0.0184158 0)
(15.4616 -0.0165604 0)
(16.6691 -0.0150953 0)
(17.8777 -0.014253 0)
(19.131 -0.0109799 0)
(19.9516 -0.00862946 0)
(20.8177 -0.0337368 0)
(27.4039 -0.038453 0)
(29.9033 -0.00937172 0)
(0.946569 -0.0521999 0)
(-0.309154 0.149689 0)
(-1.00787 0.0537618 0)
(-1.04725 0.00424885 0)
(-1.03229 -0.0233111 0)
(-0.653023 -0.0258375 0)
(-0.570477 -0.0117286 0)
(-0.437529 -0.00166192 0)
(-0.544849 0.0026781 0)
(-0.510756 0.00347316 0)
(-0.66681 0.00404486 0)
(-0.636249 -0.00426904 0)
(-0.476071 -0.00973031 0)
(-0.230044 -0.0112209 0)
(-0.0902553 -0.0143483 0)
(0.187704 -0.0239077 0)
(0.770363 -0.0353368 0)
(1.75416 -0.0451115 0)
(3.02755 -0.0494077 0)
(4.42478 -0.0498546 0)
(5.84928 -0.0484272 0)
(7.31661 -0.0458496 0)
(8.81524 -0.041812 0)
(10.2664 -0.0368437 0)
(11.6534 -0.0323624 0)
(12.9729 -0.0287316 0)
(14.2466 -0.025775 0)
(15.4852 -0.0231638 0)
(16.6894 -0.0210846 0)
(17.8899 -0.0199209 0)
(19.1389 -0.0154625 0)
(19.9835 -0.0118879 0)
(20.7746 -0.0467115 0)
(27.2777 -0.0539797 0)
(29.8982 -0.0134911 0)
(0.963066 -0.0686482 0)
(-0.292319 0.192206 0)
(-0.985943 0.0684681 0)
(-1.00869 0.00489228 0)
(-0.986439 -0.0300644 0)
(-0.610723 -0.0329373 0)
(-0.534452 -0.0148797 0)
(-0.40424 -0.00200601 0)
(-0.513385 0.00362171 0)
(-0.48389 0.00488201 0)
(-0.651825 0.00545524 0)
(-0.616872 -0.00603612 0)
(-0.42971 -0.0135019 0)
(-0.162975 -0.0145874 0)
(-0.0468029 -0.0174183 0)
(0.184304 -0.0296616 0)
(0.740776 -0.0453515 0)
(1.74447 -0.0587997 0)
(3.05942 -0.0643268 0)
(4.48782 -0.0644013 0)
(5.91339 -0.0620766 0)
(7.36516 -0.0586796 0)
(8.8536 -0.0536694 0)
(10.3039 -0.0474205 0)
(11.6956 -0.0416775 0)
(13.0175 -0.0369636 0)
(14.2901 -0.0331302 0)
(15.5261 -0.0297526 0)
(16.7259 -0.0270422 0)
(17.9162 -0.0255563 0)
(19.1581 -0.0199813 0)
(20.0249 -0.0150588 0)
(20.7487 -0.0594038 0)
(27.1577 -0.0695435 0)
(29.8928 -0.0178029 0)
(0.982107 -0.0859082 0)
(-0.27481 0.234609 0)
(-0.961123 0.0826834 0)
(-0.962902 0.00504005 0)
(-0.93175 -0.0368954 0)
(-0.560242 -0.039867 0)
(-0.491834 -0.0178807 0)
(-0.364604 -0.00229216 0)
(-0.475064 0.00464099 0)
(-0.450247 0.00646576 0)
(-0.628761 0.00693588 0)
(-0.588019 -0.00809575 0)
(-0.373878 -0.0176888 0)
(-0.0885329 -0.0179202 0)
(0.00364743 -0.0199341 0)
(0.189387 -0.0348421 0)
(0.71967 -0.055253 0)
(1.74618 -0.0728744 0)
(3.11081 -0.0796916 0)
(4.5769 -0.0791443 0)
(6.00526 -0.0756581 0)
(7.44065 -0.071382 0)
(8.91716 -0.0654727 0)
(10.3654 -0.0580078 0)
(11.7614 -0.0510164 0)
(13.0853 -0.0452 0)
(14.356 -0.0404732 0)
(15.588 -0.0363175 0)
(16.7813 -0.0329566 0)
(17.9589 -0.0311462 0)
(19.1903 -0.0245244 0)
(20.0769 -0.0181536 0)
(20.7402 -0.0718035 0)
(27.0432 -0.0851087 0)
(29.887 -0.0222944 0)
(1.00354 -0.104058 0)
(-0.256675 0.276897 0)
(-0.933027 0.0962696 0)
(-0.908988 0.00459102 0)
(-0.867843 -0.0438288 0)
(-0.50123 -0.0465978 0)
(-0.442319 -0.0207106 0)
(-0.318108 -0.00252345 0)
(-0.429342 0.00572945 0)
(-0.409264 0.00821063 0)
(-0.596692 0.00846031 0)
(-0.548945 -0.0104544 0)
(-0.308725 -0.022259 0)
(-0.0064248 -0.0212096 0)
(0.0626694 -0.02194 0)
(0.206161 -0.0395024 0)
(0.712863 -0.0650601 0)
(1.76697 -0.0873744 0)
(3.19193 -0.095575 0)
(4.70371 -0.094131 0)
(6.13496 -0.0891685 0)
(7.55128 -0.0839341 0)
(9.01276 -0.077204 0)
(10.4569 -0.0685971 0)
(11.8568 -0.0603764 0)
(13.183 -0.0534374 0)
(14.4509 -0.0477962 0)
(15.6762 -0.0428465 0)
(16.8599 -0.0388129 0)
(18.021 -0.036675 0)
(19.2376 -0.0290787 0)
(20.1413 -0.0211787 0)
(20.7504 -0.083899 0)
(26.9338 -0.100647 0)
(29.8808 -0.0269562 0)
(1.02703 -0.12317 0)
(-0.23791 0.319053 0)
(-0.901184 0.109067 0)
(-0.845798 0.00343713 0)
(-0.794115 -0.0508708 0)
(-0.43313 -0.053092 0)
(-0.385258 -0.0233473 0)
(-0.263981 -0.00270612 0)
(-0.375338 0.00687939 0)
(-0.359937 0.010099 0)
(-0.554382 0.00999806 0)
(-0.498591 -0.0131104 0)
(-0.233592 -0.0271945 0)
(0.0852037 -0.0244707 0)
(0.132992 -0.0234924 0)
(0.237834 -0.0437289 0)
(0.726163 -0.0748623 0)
(1.81642 -0.102395 0)
(3.31719 -0.112084 0)
(4.88625 -0.109423 0)
(6.3185 -0.102594 0)
(7.70963 -0.0962953 0)
(9.15056 -0.0888337 0)
(10.5874 -0.0791759 0)
(11.9905 -0.069755 0)
(13.3194 -0.061673 0)
(14.584 -0.0550885 0)
(15.7993 -0.0493211 0)
(16.9683 -0.0445888 0)
(18.1072 -0.0421215 0)
(19.3034 -0.0336275 0)
(20.2205 -0.0241385 0)
(20.7814 -0.0956771 0)
(26.8297 -0.116127 0)
(29.8744 -0.0317796 0)
(1.05198 -0.143304 0)
(-0.218456 0.36104 0)
(-0.865017 0.120889 0)
(-0.772114 0.0014652 0)
(-0.709991 -0.0580133 0)
(-0.355406 -0.0593119 0)
(-0.319826 -0.0257714 0)
(-0.201292 -0.00285012 0)
(-0.311904 0.00807889 0)
(-0.300868 0.0121073 0)
(-0.500086 0.011518 0)
(-0.435257 -0.0160636 0)
(-0.146634 -0.0324911 0)
(0.189696 -0.0277325 0)
(0.218503 -0.024636 0)
(0.287981 -0.0475996 0)
(0.765037 -0.0847939 0)
(1.90496 -0.118109 0)
(3.50484 -0.129388 0)
(5.15099 -0.125111 0)
(6.58133 -0.115907 0)
(7.93551 -0.108396 0)
(9.34585 -0.100313 0)
(10.7698 -0.0897229 0)
(12.1747 -0.0791496 0)
(13.5074 -0.0699063 0)
(14.7689 -0.062337 0)
(15.9698 -0.0557135 0)
(17.1157 -0.0502504 0)
(18.2241 -0.0474557 0)
(19.3921 -0.0381479 0)
(20.3174 -0.0270355 0)
(20.8364 -0.107121 0)
(26.7313 -0.13151 0)
(29.8677 -0.036756 0)
(1.07757 -0.164508 0)
(-0.198201 0.402791 0)
(-0.823818 0.131526 0)
(-0.686898 -0.00143748 0)
(-0.615144 -0.0652352 0)
(-0.267747 -0.0652271 0)
(-0.24518 -0.0279713 0)
(-0.129045 -0.00297072 0)
(-0.237706 0.00930872 0)
(-0.230314 0.0142037 0)
(-0.431459 0.0129822 0)
(-0.356415 -0.019312 0)
(-0.0447838 -0.0381561 0)
(0.311591 -0.0310377 0)
(0.324187 -0.025412 0)
(0.361087 -0.0511843 0)
(0.835377 -0.0950169 0)
(2.04371 -0.134779 0)
(3.77457 -0.147782 0)
(5.53141 -0.141347 0)
(6.96162 -0.129075 0)
(8.25981 -0.120129 0)
(9.62175 -0.11156 0)
(11.0225 -0.100201 0)
(12.4259 -0.088555 0)
(13.7636 -0.0781421 0)
(15.024 -0.0695293 0)
(16.2059 -0.0619837 0)
(17.316 -0.0557461 0)
(18.3807 -0.0526338 0)
(19.5097 -0.042608 0)
(20.4361 -0.0298693 0)
(20.92 -0.118209 0)
(26.6399 -0.14675 0)
(29.8608 -0.0418747 0)
(1.10271 -0.186807 0)
(-0.176972 0.444203 0)
(-0.776727 0.140756 0)