/*--------------------------------*- C++ -*----------------------------------*\
| =========                 |                                                 |
| \\      /  F ield         | OpenFOAM: The Open Source CFD Toolbox           |
|  \\    /   O peration     | Version:  v1912                                 |
|   \\  /    A nd           | Website:  www.openfoam.com                      |
|    \\/     M anipulation  |                                                 |
\*---------------------------------------------------------------------------*/
FoamFile
{
    version     2.0;
    format      ascii;
    class       volScalarField;
    location    "540";
    object      yPlus;
}
// * * * * * * * * * * * * * * * * * * * * * * * * * * * * * * * * * * * * * //

dimensions      [0 0 0 0 0 0 0];


internalField   uniform 0;

boundaryField
{
    inlet
    {
        type            calculated;
        value           uniform 0;
    }
    outlet
    {
        type            calculated;
        value           uniform 0;
    }
    lowerSymmetry
    {
        type            symmetryPlane;
    }
    obstical
    {
        type            calculated;
        value           nonuniform List<scalar> 
88
(
477.521
479.733
484.13
490.691
499.351
510.025
522.623
537.061
553.253
571.121
590.591
611.591
634.041
657.853
682.932
709.185
736.52
764.856
794.119
824.25
855.198
886.925
919.403
952.611
986.539
1021.18
1056.55
1092.65
1129.49
1167.09
1205.48
1244.67
1284.68
1325.54
1367.27
1409.89
1453.41
1497.87
1543.28
1589.67
1637.06
1685.52
1735.45
1790.78
91.0395
91.8555
92.8826
94.137
95.629
97.3598
99.3172
101.472
103.778
106.165
108.545
110.811
112.84
114.498
115.651
116.168
115.941
114.889
112.972
110.194
106.607
102.311
97.4474
92.2061
86.8292
81.6205
76.9549
73.2739
71.0458
70.6736
72.377
76.1288
81.7011
88.7811
97.0775
106.384
116.602
127.799
140.242
154.292
170.343
188.708
209.676
234.075
)
;
    }
    obsticalTop
    {
        type            calculated;
        value           nonuniform List<scalar> 
20
(
53.4172
38.8497
47.1824
53.2556
56.0889
57.7137
58.3074
57.9884
57.0271
55.554
53.5431
50.8814
47.4715
43.1215
37.8009
30.8705
24.4406
14.8992
13.3722
11.3076
)
;
    }
    top
    {
        type            calculated;
        value           uniform 0;
    }
    defaultFaces
    {
        type            empty;
    }
}


// ************************************************************************* //
