/*--------------------------------*- C++ -*----------------------------------*\
| =========                 |                                                 |
| \\      /  F ield         | OpenFOAM: The Open Source CFD Toolbox           |
|  \\    /   O peration     | Version:  v1912                                 |
|   \\  /    A nd           | Website:  www.openfoam.com                      |
|    \\/     M anipulation  |                                                 |
\*---------------------------------------------------------------------------*/
FoamFile
{
    version     2.0;
    format      ascii;
    class       volScalarField;
    location    "3500";
    object      p;
}
// * * * * * * * * * * * * * * * * * * * * * * * * * * * * * * * * * * * * * //

dimensions      [0 2 -2 0 0 0 0];


internalField   nonuniform List<scalar> 
3101
(
-245.296
-269.517
-283.942
-286.216
-273.735
-245.631
-208.107
-160.521
-85.6297
8.23879
74.344
93.8554
84.8187
67.1672
50.3071
35.4423
24.5519
11.2881
8.82059
-245.318
-269.535
-283.957
-286.229
-273.745
-245.64
-208.117
-160.537
-85.6484
8.22182
74.331
93.8465
84.8123
67.163
50.3045
35.4409
24.5508
11.2882
8.81955
-245.358
-269.566
-283.984
-286.252
-273.765
-245.655
-208.135
-160.567
-85.6828
8.19267
74.3089
93.8305
84.8004
67.1553
50.2998
35.4382
24.549
11.2879
8.81818
-245.416
-269.613
-284.024
-286.287
-273.794
-245.677
-208.161
-160.61
-85.7346
8.14894
74.2755
93.8059
84.7822
67.1435
50.2927
35.4341
24.5464
11.2874
8.81623
-245.494
-269.675
-284.076
-286.334
-273.832
-245.706
-208.195
-160.668
-85.803
8.0907
74.2304
93.7727
84.7573
67.1275
50.283
35.4285
24.5429
11.2868
8.81359
-245.589
-269.751
-284.14
-286.39
-273.879
-245.741
-208.238
-160.739
-85.887
8.01843
74.1736
93.7304
84.7256
67.1072
50.2706
35.4215
24.5384
11.286
8.81027
-245.701
-269.84
-284.216
-286.457
-273.935
-245.783
-208.288
-160.822
-85.9858
7.93252
74.1052
93.6785
84.6867
67.0822
50.2556
35.4129
24.533
11.285
8.80626
-245.828
-269.941
-284.302
-286.532
-273.998
-245.831
-208.344
-160.917
-86.0984
7.83333
74.025
93.6166
84.6402
67.0524
50.2377
35.4028
24.5267
11.2838
8.80155
-245.969
-270.053
-284.397
-286.616
-274.068
-245.884
-208.407
-161.023
-86.2241
7.72118
73.9327
93.5439
84.5856
67.0176
50.2168
35.391
24.5193
11.2824
8.79612
-246.123
-270.175
-284.5
-286.707
-274.144
-245.941
-208.476
-161.138
-86.3619
7.5964
73.8283
93.4601
84.5226
66.9774
50.1928
35.3775
24.5109
11.2809
8.78996
-246.288
-270.306
-284.611
-286.805
-274.226
-246.003
-208.551
-161.262
-86.5108
7.45929
73.7116
93.3645
84.4508
66.9317
50.1655
35.3621
24.5014
11.2792
8.78306
-246.463
-270.445
-284.729
-286.909
-274.313
-246.069
-208.63
-161.394
-86.67
7.31015
73.5823
93.2567
84.3697
66.88
50.1348
35.345
24.4908
11.2772
8.7754
-246.645
-270.59
-284.852
-287.018
-274.405
-246.138
-208.713
-161.534
-86.8387
7.14923
73.4404
93.136
84.279
66.8223
50.1006
35.3258
24.479
11.275
8.76698
-246.835
-270.741
-284.98
-287.132
-274.5
-246.211
-208.801
-161.68
-87.016
6.97677
73.2856
93.0019
84.1782
66.7582
50.0626
35.3047
24.4661
11.2727
8.75779
-247.03
-270.896
-285.112
-287.25
-274.599
-246.286
-208.891
-161.832
-87.201
6.79312
73.1179
92.8541
84.067
66.6876
50.0209
35.2816
24.4521
11.27
8.74785
-247.224
-271.05
-285.244
-287.367
-274.698
-246.36
-208.982
-161.984
-87.3877
6.60436
72.9423
92.6968
83.9487
66.6124
49.9766
35.257
24.4373
11.2672
8.73747
-247.417
-271.204
-285.375
-287.484
-274.796
-246.436
-209.074
-162.137
-87.5762
6.40973
72.7576
92.5292
83.8226
66.5323
49.9296
35.231
24.4216
11.2642
8.72654
-247.615
-271.361
-285.51
-287.605
-274.899
-246.513
-209.169
-162.296
-87.7732
6.20208
72.5565
92.3446
83.6837
66.4442
49.8778
35.2025
24.4045
11.261
8.71466
-247.818
-271.523
-285.649
-287.73
-275.004
-246.594
-209.268
-162.461
-87.9781
5.9811
72.338
92.1418
83.531
66.3474
49.8211
35.1713
24.3858
11.2574
8.70183
-248.024
-271.688
-285.791
-287.858
-275.113
-246.677
-209.37
-162.63
-88.1908
5.74646
72.1011
91.9196
83.3637
66.2415
49.7592
35.1372
24.3656
11.2535
8.68802
-248.233
-271.855
-285.935
-287.989
-275.224
-246.762
-209.475
-162.804
-88.4105
5.4978
71.8446
91.6767
83.1808
66.1257
49.6916
35.1002
24.3437
11.2492
8.67318
-248.444
-272.025
-286.081
-288.122
-275.337
-246.849
-209.582
-162.981
-88.6367
5.23472
71.5673
91.4119
82.9813
65.9997
49.6182
35.06
24.3199
11.2445
8.6573
-248.655
-272.195
-286.229
-288.257
-275.452
-246.937
-209.692
-163.162
-88.8689
4.95687
71.2679
91.1237
82.7643
65.8627
49.5385
35.0165
24.2944
11.2393
8.64035
-248.866
-272.365
-286.377
-288.393
-275.568
-247.027
-209.803
-163.344
-89.1068
4.66441
70.9452
90.8107
82.5288
65.7143
49.4524
34.9695
24.2669
11.2337
8.6223
-249.076
-272.534
-286.525
-288.529
-275.685
-247.118
-209.916
-163.528
-89.3507
4.35792
70.5977
90.4716
82.2737
65.5538
49.3595
34.919
24.2373
11.2277
8.60314
-249.283
-272.702
-286.671
-288.664
-275.802
-247.21
-210.031
-163.711
-89.6008
4.03761
70.2242
90.105
81.9981
65.3808
49.2595
34.8646
24.2058
11.2211
8.58285
-249.487
-272.867
-286.816
-288.799
-275.919
-247.302
-210.146
-163.894
-89.8564
3.70322
69.8232
89.7092
81.701
65.1946
49.1522
34.8064
24.172
11.214
8.56142
-249.685
-273.029
-286.958
-288.931
-276.034
-247.395
-210.262
-164.074
-90.1173
3.35448
69.3933
89.2829
81.3815
64.9949
49.0373
34.7442
24.1361
11.2063
8.53884
-249.877
-273.185
-287.095
-289.06
-276.148
-247.487
-210.377
-164.25
-90.3828
2.9911
68.9331
88.8246
81.0386
64.781
48.9146
34.6779
24.0979
11.198
8.51512
-250.061
-273.335
-287.227
-289.184
-276.258
-247.578
-210.491
-164.422
-90.6511
2.61276
68.441
88.3328
80.6716
64.5527
48.7839
34.6074
24.0573
11.1891
8.49024
-250.236
-273.477
-287.353
-289.302
-276.363
-247.668
-210.604
-164.59
-90.9196
2.21915
67.9155
87.8062
80.2795
64.3095
48.645
34.5326
24.0145
11.1796
8.46423
-250.4
-273.61
-287.469
-289.413
-276.463
-247.755
-210.715
-164.753
-91.1863
1.80994
67.355
87.2434
79.8617
64.0511
48.4978
34.4535
23.9692
11.1695
8.43708
-250.551
-273.732
-287.576
-289.514
-276.556
-247.84
-210.822
-164.911
-91.4497
1.38478
66.7582
86.6432
79.4176
63.7774
48.3423
34.3701
23.9215
11.1587
8.40882
-250.686
-273.841
-287.67
-289.603
-276.641
-247.921
-210.924
-165.062
-91.7085
0.943341
66.1234
86.0045
78.9468
63.4881
48.1783
34.2823
23.8715
11.1473
8.37945
-250.806
-273.935
-287.75
-289.68
-276.714
-247.999
-211.019
-165.206
-91.9609
0.485287
65.4493
85.3262
78.4488
63.1832
48.0059
34.1901
23.819
11.1352
8.34902
-250.906
-274.012
-287.813
-289.74
-276.775
-248.069
-211.108
-165.339
-92.2056
0.0102858
64.7344
84.6077
77.9235
62.8627
47.8251
34.0936
23.7641
11.1224
8.31753
-250.984
-274.07
-287.857
-289.782
-276.822
-248.131
-211.189
-165.459
-92.4408
-0.481997
63.9776
83.8482
77.3709
62.5268
47.636
33.9928
23.7069
11.109
8.28502
-251.038
-274.105
-287.88
-289.802
-276.852
-248.181
-211.262
-165.566
-92.6647
-0.991873
63.1776
83.0474
76.7912
62.1758
47.4389
33.8878
23.6472
11.0949
8.25151
-251.065
-274.116
-287.878
-289.798
-276.861
-248.217
-211.326
-165.654
-92.8755
-1.51964
62.3335
82.2053
76.1848
61.8099
47.2338
33.7787
23.5853
11.0801
8.21704
-251.061
-274.098
-287.85
-289.768
-276.847
-248.237
-211.378
-165.723
-93.0711
-2.06557
61.4446
81.322
75.5522
61.4296
47.021
33.6657
23.521
11.0646
8.18162
-251.023
-274.05
-287.79
-289.708
-276.807
-248.24
-211.415
-165.769
-93.2494
-2.62987
60.5103
80.398
74.8944
61.0355
46.8008
33.5487
23.4545
11.0485
8.14529
-250.948
-273.966
-287.697
-289.615
-276.738
-248.222
-211.436
-165.788
-93.4083
-3.21271
59.5305
79.4344
74.2122
60.6282
46.5735
33.428
23.3858
11.0318
8.10808
-250.831
-273.844
-287.566
-289.484
-276.635
-248.182
-211.437
-165.776
-93.5454
-3.81417
58.5054
78.4323
73.5068
60.2083
46.3394
33.3036
23.315
11.0144
8.06999
-250.671
-273.68
-287.393
-289.313
-276.497
-248.116
-211.415
-165.73
-93.6582
-4.43422
57.4354
77.3933
72.7797
59.7766
46.0987
33.1757
23.242
10.9963
8.03104
-250.461
-273.468
-287.173
-289.096
-276.319
-248.021
-211.365
-165.645
-93.7443
-5.07274
56.3215
76.3195
72.0324
59.3339
45.8519
33.0444
23.1669
10.9776
7.99125
-250.2
-273.204
-286.901
-288.829
-276.098
-247.895
-211.284
-165.516
-93.8009
-5.72944
55.1653
75.2131
71.2664
58.8808
45.599
32.9098
23.0897
10.9583
7.95061
-249.882
-272.883
-286.574
-288.507
-275.829
-247.733
-211.165
-165.338
-93.8253
-6.40387
53.9685
74.0768
70.4833
58.4181
45.3405
32.7719
23.0105
10.9383
7.90914
-249.504
-272.5
-286.184
-288.126
-275.509
-247.532
-211.005
-165.106
-93.8149
-7.09536
52.7337
72.9134
69.685
57.9465
45.0765
32.6307
22.9291
10.9177
7.86682
-249.064
-272.051
-285.727
-287.681
-275.135
-247.287
-210.795
-164.814
-93.7669
-7.80303
51.4639
71.726
68.8729
57.4665
44.8072
32.4864
22.8457
10.8964
7.82364
-248.561
-271.531
-285.198
-287.167
-274.702
-246.993
-210.529
-164.456
-93.6786
-8.52574
50.1623
70.5177
68.0486
56.9787
44.5326
32.3388
22.7601
10.8745
7.7796
-247.994
-270.937
-284.592
-286.579
-274.206
-246.646
-210.2
-164.026
-93.5477
-9.26205
48.8328
69.2917
67.2135
56.4833
44.2528
32.1879
22.6724
10.8518
7.73467
-247.365
-270.267
-283.906
-285.915
-273.643
-246.237
-209.797
-163.516
-93.3718
-10.0102
47.4794
68.051
66.3688
55.9808
43.9677
32.0337
22.5824
10.8284
7.68884
-246.678
-269.521
-283.137
-285.172
-273.01
-245.759
-209.313
-162.919
-93.1492
-10.7683
46.1066
66.7985
65.5154
55.4712
43.6774
31.8761
22.4902
10.8043
7.64208
-245.936
-268.701
-282.286
-284.348
-272.302
-245.204
-208.736
-162.23
-92.8788
-11.5339
44.7186
65.5367
64.6542
54.9546
43.3816
31.715
22.3956
10.7794
7.59439
-245.139
-267.809
-281.352
-283.441
-271.513
-244.559
-208.055
-161.44
-92.5601
-12.3045
43.3197
64.2679
63.7856
54.4308
43.0803
31.5502
22.2986
10.7536
7.54575
-244.282
-266.845
-280.336
-282.449
-270.636
-243.812
-207.257
-160.544
-92.1934
-13.0775
41.9141
62.994
62.9101
53.8999
42.7732
31.3816
22.199
10.727
7.49613
-243.351
-265.804
-279.236
-281.367
-269.658
-242.947
-206.331
-159.537
-91.78
-13.8501
40.5054
61.7165
62.0277
53.3616
42.4602
31.2091
22.0969
10.6995
7.44552
-242.322
-264.67
-278.04
-280.183
-268.562
-241.944
-205.261
-158.416
-91.3222
-14.6197
39.0968
60.4364
61.1384
52.8157
42.1412
31.0326
21.9921
10.6711
7.39392
-241.156
-263.416
-276.729
-278.875
-267.325
-240.782
-204.037
-157.182
-90.8231
-15.3839
37.691
59.1545
60.2423
52.262
41.8158
30.8519
21.8846
10.6416
7.34131
-239.809
-262.003
-275.267
-277.413
-265.915
-239.437
-202.646
-155.838
-90.2868
-16.1405
36.2902
57.8712
59.339
51.7004
41.4841
30.667
21.7742
10.6112
7.28769
-238.232
-260.379
-273.61
-275.754
-264.297
-237.886
-201.083
-154.391
-89.7178
-16.8878
34.8959
56.5868
58.4286
51.1305
41.1458
30.4778
21.661
10.5797
7.23305
-236.382
-258.493
-271.704
-273.847
-262.431
-236.108
-199.349
-152.852
-89.1214
-17.6246
33.5092
55.3013
57.5108
50.5524
40.8009
30.284
21.5449
10.547
7.1774
-234.232
-256.298
-269.495
-271.646
-260.285
-234.093
-197.45
-151.234
-88.5026
-18.3499
32.1308
54.0149
56.5857
49.966
40.4492
30.0858
21.4258
10.5133
7.12073
-231.78
-253.768
-266.946
-269.113
-257.839
-231.841
-195.402
-149.552
-87.8663
-19.0631
30.7613
52.7276
55.6532
49.3711
40.0907
29.8829
21.3036
10.4783
7.06304
-229.052
-250.904
-264.045
-266.237
-255.094
-229.369
-193.227
-147.822
-87.2171
-19.7638
29.401
51.4395
54.7134
48.7679
39.7253
29.6754
21.1783
10.442
7.00435
-226.094
-247.74
-260.81
-263.036
-252.073
-226.704
-190.949
-146.058
-86.5587
-20.4519
28.0502
50.1508
53.7665
48.1563
39.353
29.463
21.0499
10.4045
6.94465
-222.967
-244.33
-257.289
-259.553
-248.819
-223.883
-188.594
-144.272
-85.8937
-21.1271
26.7091
48.8619
52.8126
47.5364
38.9737
29.2459
20.9182
10.3657
6.88395
-219.73
-240.744
-253.549
-255.852
-245.388
-220.948
-186.186
-142.476
-85.2244
-21.7892
25.3782
47.573
51.852
46.9082
38.5875
29.0239
20.7833
10.3254
6.82226
-216.437
-237.047
-249.662
-252
-241.833
-217.934
-183.745
-140.676
-84.5518
-22.4379
24.0579
46.2847
50.885
46.2719
38.1942
28.7969
20.6452
10.2838
6.7596
-213.124
-233.296
-245.692
-248.058
-238.205
-214.872
-181.284
-138.877
-83.8767
-23.0729
22.7486
44.9974
49.9118
45.6276
37.7939
28.565
20.5036
10.2406
6.69595
-209.816
-229.529
-241.688
-244.076
-234.54
-211.785
-178.815
-137.082
-83.1994
-23.694
21.4509
43.7117
48.9329
44.9752
37.3866
28.328
20.3587
10.1959
6.63135
-206.527
-225.772
-237.682
-240.083
-230.861
-208.685
-176.341
-135.292
-82.5197
-24.3005
20.1653
42.428
47.9485
44.3151
36.9722
28.0858
20.2103
10.1497
6.5658
-203.26
-222.035
-233.691
-236.1
-227.184
-205.58
-173.866
-133.508
-81.8377
-24.8923
18.8926
41.147
46.9589
43.6473
36.5508
27.8385
20.0584
10.1018
6.49932
-200.016
-218.324
-229.724
-232.133
-223.515
-202.476
-171.393
-131.731
-81.1532
-25.4687
17.6333
39.8691
45.9647
42.9719
36.1224
27.586
19.903
10.0523
6.43191
-196.796
-214.638
-225.782
-228.188
-219.857
-199.372
-168.92
-129.959
-80.466
-26.0294
16.388
38.5951
44.966
42.2891
35.687
27.3283
19.7441
10.001
6.36361
-193.598
-210.977
-221.864
-224.263
-216.209
-196.269
-166.449
-128.195
-79.7759
-26.574
15.1573
37.3255
43.9634
41.5992
35.2445
27.0652
19.5815
9.94799
6.29441
-190.421
-207.342
-217.972
-220.358
-212.573
-193.17
-163.98
-126.436
-79.0829
-27.102
13.9419
36.0608
42.9572
40.9021
34.7952
26.7968
19.4153
9.89313
6.22434
-187.266
-203.731
-214.105
-216.475
-208.95
-190.073
-161.514
-124.684
-78.3867
-27.6132
12.7423
34.8017
41.9478
40.1983
34.3389
26.523
19.2454
9.83639
6.15341
-184.133
-200.146
-210.264
-212.614
-205.339
-186.981
-159.051
-122.938
-77.6873
-28.107
11.5592
33.5488
40.9358
39.4878
33.8758
26.2439
19.0718
9.77772
6.08166
-181.022
-196.587
-206.449
-208.774
-201.743
-183.894
-156.591
-121.199
-76.9845
-28.5831
10.3932
32.3027
39.9215
38.7709
33.406
25.9594
18.8945
9.71707
6.00909
-177.934
-193.053
-202.66
-204.958
-198.162
-180.813
-154.136
-119.466
-76.2782
-29.0411
9.24477
31.064
38.9054
38.0478
32.9294
25.6694
18.7134
9.6544
5.93573
-174.868
-189.547
-198.899
-201.167
-194.597
-177.739
-151.686
-117.74
-75.5683
-29.4808
8.11462
29.8333
37.888
37.3188
32.4462
25.374
18.5285
9.58966
5.8616
-171.824
-186.068
-195.166
-197.4
-191.05
-174.673
-149.242
-116.021
-74.8547
-29.9018
7.00327
28.6114
36.8697
36.5842
31.9565
25.0731
18.3398
9.52279
5.78672
-168.804
-182.618
-191.463
-193.66
-187.522
-171.617
-146.803
-114.308
-74.1372
-30.3037
5.91132
27.3988
35.8511
35.8443
31.4603
24.7668
18.1473
9.45374
5.71112
-165.806
-179.195
-187.789
-189.946
-184.012
-168.572
-144.372
-112.603
-73.4157
-30.6863
4.83932
26.1961
34.8328
35.0992
30.9579
24.4551
17.9509
9.38249
5.63481
-162.831
-175.801
-184.145
-186.26
-180.524
-165.538
-141.948
-110.905
-72.6901
-31.0493
3.78781
25.004
33.8151
34.3494
30.4493
24.138
17.7507
9.30897
5.55783
-159.88
-172.437
-180.533
-182.602
-177.057
-162.517
-139.533
-109.213
-71.9603
-31.3924
2.75734
23.8232
32.7987
33.5952
29.9346
23.8155
17.5466
9.23314
5.48019
-156.951
-169.101
-176.951
-178.974
-173.613
-159.509
-137.126
-107.529
-71.2262
-31.7154
1.74844
22.6542
31.7841
32.8369
29.4141
23.4876
17.3387
9.15497
5.40193
-154.047
-165.796
-173.402
-175.375
-170.193
-156.516
-134.729
-105.852
-70.4877
-32.0181
0.761613
21.4978
30.7719
32.0748
28.8879
23.1544
17.1269
9.07442
5.32306
-151.165
-162.521
-169.886
-171.808
-166.797
-153.539
-132.342
-104.182
-69.7447
-32.3002
-0.202637
20.3546
29.7627
31.3094
28.3561
22.816
16.9113
8.99144
5.24361
-148.307
-159.277
-166.403
-168.272
-163.427
-150.578
-129.965
-102.519
-68.997
-32.5616
-1.14383
19.2252
28.7569
30.5411
27.819
22.4723
16.6918
8.906
5.16361
-145.473
-156.063
-162.953
-164.768
-160.083
-147.635
-127.6
-100.864
-68.2446
-32.8021
-2.0615
18.1102
27.7553
29.7701
27.2768
22.1235
16.4685
8.81808
5.08308
-142.663
-152.88
-159.538
-161.297
-156.767
-144.711
-125.247
-99.2161
-67.4875
-33.0215
-2.9552
17.0103
26.7584
28.997
26.7296
21.7696
16.2413
8.72763
5.00205
-139.876
-149.729
-156.157
-157.86
-153.479
-141.806
-122.906
-97.5756
-66.7254
-33.2198
-3.8245
15.9261
25.7668
28.2221
26.1778
21.4107
16.0104
8.63464
4.92054
-137.114
-146.61
-152.812
-154.457
-150.22
-138.922
-120.578
-95.9426
-65.9584
-33.3968
-4.66899
14.8583
24.7811
27.446
25.6215
21.0469
15.7758
8.53909
4.83858
-134.375
-143.522
-149.502
-151.088
-146.991
-136.058
-118.264
-94.3171
-65.1864
-33.5525
-5.48827
13.8074
23.802
26.669
25.061
20.6784
15.5374
8.44094
4.75618
-131.66
-140.466
-146.227
-147.755
-143.792
-133.217
-115.964
-92.6992
-64.4092
-33.6867
-6.282
12.7741
22.83
25.8917
24.4966
20.3051
15.2954
8.34019
4.67339
-128.969
-137.442
-142.989
-144.458
-140.625
-130.399
-113.679
-91.089
-63.627
-33.7995
-7.04981
11.7589
21.8658
25.1144
23.9286
19.9273
15.0498
8.23683
4.59021
-126.303
-134.45
-139.787
-141.197
-137.49
-127.605
-111.409
-89.4865
-62.8395
-33.8908
-7.7914
10.7624
20.9099
24.3378
23.3573
19.5451
14.8006
8.13084
4.50667
-123.66
-131.491
-136.622
-137.972
-134.387
-124.835
-109.155
-87.8918
-62.0468
-33.9606
-8.50645
9.78532
19.9632
23.5622
22.7829
19.1586
14.5478
8.02223
4.4228
-121.042
-128.565
-133.493
-134.785
-131.318
-122.09
-106.917
-86.3049
-61.2488
-34.0089
-9.19471
8.82808
19.026
22.7882
22.2058
18.768
14.2917
7.91099
4.33862
-118.448
-125.671
-130.402
-131.636
-128.282
-119.371
-104.696
-84.726
-60.4455
-34.0358
-9.85593
7.89127
18.0992
22.0164
21.6264
18.3735
14.0322
7.79712
4.25415
-115.878
-122.809
-127.348
-128.524
-125.281
-116.679
-102.492
-83.1551
-59.6369
-34.0414
-10.4899
6.97542
17.1832
21.2472
21.045
17.9752
13.7694
7.68065
4.16941
-113.333
-119.981
-124.332
-125.451
-122.314
-114.013
-100.306
-81.5924
-58.823
-34.0256
-11.0964
6.08106
16.2788
20.4812
20.4619
17.5733
13.5034
7.56158
4.08442
-110.812
-117.185
-121.354
-122.416
-119.383
-111.375
-98.1376
-80.0378
-58.0037
-33.9887
-11.6752
5.20868
15.3865
19.719
19.8775
17.1681
13.2344
7.43994
3.99921
-108.316
-114.422
-118.413
-119.42
-116.487
-108.765
-95.9881
-78.4915
-57.1792
-33.9307
-12.2264
4.35877
14.507
18.961
19.2923
16.7597
12.9623
7.31575
3.9138
-105.845
-111.692
-115.51
-116.463
-113.628
-106.184
-93.8574
-76.9537
-56.3494
-33.8517
-12.7496
3.53179
13.6409
18.2079
18.7066
16.3485
12.6874
7.18905
3.82819
-103.398
-108.995
-112.645
-113.545
-110.805
-103.632
-91.7461
-75.4243
-55.5143
-33.752
-13.2449
2.72818
12.7887
17.4602
18.1208
15.9345
12.4097
7.05986
3.74243
-100.976
-106.331
-109.818
-110.666
-108.018
-101.11
-89.6544
-73.9035
-54.6741
-33.6316
-13.7122
1.94836
11.9511
16.7184
17.5354
15.5181
12.1293
6.92824
3.65651
-98.5786
-103.7
-107.029
-107.827
-105.268
-98.6168
-87.5827
-72.3915
-53.8287
-33.4907
-14.1515
1.19273
11.1286
15.9832
16.9508
15.0995
11.8465
6.79422
3.57047
-96.2062
-101.102
-104.278
-105.028
-102.556
-96.1542
-85.5312
-70.8882
-52.9782
-33.3297
-14.5627
0.461661
10.3219
15.2551
16.3673
14.6791
11.5613
6.65787
3.48431
-93.8589
-98.5361
-101.565
-102.268
-99.8801
-93.7221
-83.5003
-69.3939
-52.1228
-33.1485
-14.946
-0.2445
9.53142
14.5347
15.7855
14.257
11.274
6.51924
3.39807
-91.5366
-96.0034
-98.89
-99.5474
-97.242
-91.3206
-81.4901
-67.9086
-51.2625
-32.9476
-15.3013
-0.925431
8.75779
13.8225
15.2059
13.8336
10.9845
6.3784
3.31175
-89.2394
-93.5034
-96.2527
-96.8665
-94.6414
-88.95
-79.501
-66.4326
-50.3974
-32.7271
-15.6288
-1.58084
8.00152
13.1192
14.6288
13.4092
10.6932
6.23541
3.22538
-86.9674
-91.0361
-93.653
-94.2252
-92.0782
-86.6105
-77.5331
-64.9657
-49.5276
-32.4873
-15.9286
-2.21045
7.26312
12.4252
14.0548
12.9841
10.4002
6.09036
3.13897
-84.7207
-88.6014
-91.091
-91.6233
-89.5524
-84.3022
-75.5866
-63.5083
-48.6532
-32.2285
-16.2008
-2.81404
6.5431
11.7411
13.4843
12.5587
10.1056
5.94333
3.05254
-82.4993
-86.1992
-88.5664
-89.0606
-87.0641
-82.0252
-73.6617
-62.0604
-47.7744
-31.9509
-16.4456
-3.3914
5.84195
11.0676
12.9177
12.1331
9.80968
5.7944
2.9661
-80.3033
-83.8294
-86.0791
-86.5371
-84.6132
-79.7794
-71.7584
-60.6221
-46.8914
-31.6549
-16.6631
-3.94233
5.16011
10.4051
12.3557
11.7079
9.5126
5.64366
2.87969
-78.1327
-81.4919
-83.6288
-84.0526
-82.1996
-77.565
-69.8769
-59.1935
-46.0042
-31.3406
-16.8537
-4.46671
4.49803
9.75409
11.7986
11.2833
9.21457
5.49121
2.7933
-75.9875
-79.1865
-81.2153
-81.6068
-79.823
-75.3819
-68.0173
-57.7747
-45.1131
-31.0086
-17.0174
-4.9644
3.85614
9.11523
11.2469
10.8597
8.91578
5.33716
2.70697
-73.8678
-76.9131
-78.8385
-79.1995
-77.4834
-73.2301
-66.1795
-56.3658
-44.2182
-30.659
-17.1547
-5.43533
3.23482
8.48898
10.7011
10.4374
8.61645
5.18161
2.62071
-71.7736
-74.6716
-76.498
-76.8304
-75.1804
-71.1094
-64.3636
-54.9669
-43.3197
-30.2922
-17.2658
-5.87944
2.63445
7.87584
10.1617
10.0169
8.3168
5.02466
2.53453
-69.7049
-72.4617
-74.1936
-74.4992
-72.9139
-69.0197
-62.5697
-53.5781
-42.4178
-29.9085
-17.3509
-6.29671
2.05538
7.27631
9.62919
9.59836
8.01705
4.86644
2.44846
-67.6617
-70.2832
-71.9249
-72.2055
-70.6836
-66.9608
-60.7976
-52.1994
-41.5126
-29.5084
-17.4104
-6.68714
1.49791
6.69086
9.10398
9.18231
7.71742
4.70706
2.36251
-65.644
-68.136
-69.6916
-69.9491
-68.489
-64.9326
-59.0473
-50.8309
-40.6043
-29.0921
-17.4447
-7.05077
0.962344
6.11995
8.58655
8.76906
7.41814
4.54664
2.2767
-63.6516
-66.0198
-67.4933
-67.7295
-66.33
-62.9347
-57.3187
-49.4726
-39.6932
-28.66
-17.454
-7.38768
0.44894
5.564
8.07736
8.35899
7.11944
4.38531
2.19104
-61.6847
-63.9343
-65.3298
-65.5462
-64.206
-60.9669
-55.6117
-48.1246
-38.7795
-28.2125
-17.4389
-7.69796
-0.0420705
5.02345
7.57685
7.95246
6.82156
4.22318
2.10556
-59.743
-61.8794
-63.2006
-63.3989
-62.1166
-59.029
-53.9262
-46.787
-37.8632
-27.75
-17.3996
-7.98175
-0.510488
4.49869
7.08546
7.54983
6.52472
4.06039
2.02027
-57.8264
-59.8546
-61.1051
-61.287
-60.0614
-57.1204
-52.2619
-45.4596
-36.9447
-27.2728
-17.3366
-8.23921
-0.956143
3.99008
6.6036
7.15147
6.22917
3.89705
1.93518
-55.9349
-57.8597
-59.0431
-59.2101
-58.04
-55.241
-50.6187
-44.1425
-36.0241
-26.7813
-17.2503
-8.47052
-1.3789
3.49799
6.13168
6.75773
5.93513
3.7333
1.8503
-54.0683
-55.8943
-57.0141
-57.1675
-56.0517
-53.3902
-48.9963
-42.8357
-35.1016
-26.276
-17.1411
-8.6759
-1.77866
3.02274
5.6701
6.36897
5.64283
3.56927
1.76565
-53.9581
-55.0174
-55.1587
-54.096
-51.5677
-47.3945
-41.5391
-34.1773
-25.7571
-17.0095
-8.85561
-2.15534
2.56461
5.21923
5.9855
5.35251
3.40507
1.68123
-52.0506
-53.0526
-53.1832
-52.1723
-49.7729
-45.813
-40.2526
-33.2515
-25.225
-16.8559
-9.00991
-2.50892
2.12388
4.77942
5.60768
5.06438
3.24082
1.59705
-50.1715
-51.1192
-51.2402
-50.2801
-48.0054
-44.2515
-38.9763
-32.3243
-24.6802
-16.6808
-9.1391
-2.8394
1.70078
4.35099
5.23581
4.77866
3.07664
1.51312
-48.3203
-49.2165
-49.3292
-48.4186
-46.2645
-42.7096
-37.7099
-31.3959
-24.1231
-16.4847
-9.24351
-3.14681
1.29553
3.93427
4.87019
4.49555
2.91264
1.42942
-46.4965
-47.3439
-47.4494
-46.5873
-44.5498
-41.187
-36.4534
-30.4663
-23.5539
-16.268
-9.32348
-3.43122
0.908278
3.52954
4.5111
4.21526
2.74893
1.34596
-44.6995
-45.5008
-45.6001
-44.7853
-42.8607
-39.6832
-35.2066
-29.5358
-22.973
-16.0312
-9.3794
-3.69274
0.539176
3.13705
4.15883
3.93797
2.5856
1.26271
-42.9289
-43.6864
-43.7805
-43.0119
-41.1964
-38.1978
-33.9693
-28.6043
-22.3809
-15.7748
-9.41165
-3.9315
0.188318
2.75703
3.81361
3.66385
2.42274
1.17966
-41.184
-41.9001
-41.9899
-41.2664
-39.5564
-36.7305
-32.7414
-27.6722
-21.7779
-15.4993
-9.42066
-4.1477
-0.144231
2.38968
3.47566
3.39306
2.26043
1.09677
-39.4641
-40.1411
-40.2274
-39.5479
-37.9399
-35.2805
-31.5225
-26.7393
-21.1643
-15.2052
-9.40687
-4.34155
-0.45845
2.03517
3.1452
3.12574
2.09872
1.01401
-37.7687
-38.4086
-38.4922
-37.8555
-36.3461
-33.8475
-30.3126
-25.8057
-20.5404
-14.893
-9.37073
-4.5133
-0.754355
1.69362
2.82238
2.86201
1.93767
0.931319
-36.097
-36.7017
-36.7832
-36.1884
-34.7744
-32.4308
-29.1111
-24.8716
-19.9066
-14.5632
-9.31273
-4.66324
-1.03201
1.36512
2.50737
2.60197
1.7773
0.84863
-34.4482
-35.0195
-35.0997
-34.5457
-33.2238
-31.0299
-27.918
-23.9368
-19.2632
-14.2162
-9.23337
-4.79169
-1.29151
1.04974
2.20026
2.3457
1.61763
0.765859
-32.8215
-33.3612
-33.4405
-32.9263
-31.6935
-29.6441
-26.7327
-23.0014
-18.6104
-13.8527
-9.13316
-4.89903
-1.53301
0.747481
1.90114
2.09324
1.45865
0.682899
-31.216
-31.7257
-31.8047
-31.3292
-30.1827
-28.2726
-25.555
-22.0653
-17.9486
-13.473
-9.01266
-4.98565
-1.75671
0.458309
1.61005
1.84461
1.30031
0.599623
-29.6308
-30.1119
-30.1911
-29.7533
-28.6902
-26.9149
-24.3843
-21.1285
-17.278
-13.0777
-8.87242
-5.05201
-1.96284
0.182148
1.32699
1.59979
1.14255
0.515875
-28.0649
-28.5189
-28.5986
-28.1976
-27.2152
-25.57
-23.2202
-20.1908
-16.5989
-12.6673
-8.71301
-5.09857
-2.15171
-0.0811306
1.05193
1.35875
0.985258
0.431467
-26.5172
-26.9453
-27.0259
-26.6607
-25.7566
-24.2372
-22.0623
-19.2522
-15.9114
-12.2422
-8.53504
-5.12587
-2.32365
-0.331706
0.784773
1.12138
0.828302
0.346172
-24.9866
-25.3901
-25.4718
-25.1415
-24.3131
-22.9155
-20.9099
-18.3124
-15.2159
-11.803
-8.33912
-5.13447
-2.47907
-0.569811
0.525396
0.887565
0.671494
0.259722
-23.4719
-23.8517
-23.9349
-23.6387
-22.8838
-21.6041
-19.7625
-17.3712
-14.5123
-11.3502
-8.12589
-5.12497
-2.61843
-0.795736
0.273613
0.657128
0.514595
0.171791
-21.9719
-22.3289
-22.4137
-22.1508
-21.4672
-20.3019
-18.6194
-16.4284
-13.801
-10.8842
-7.89603
-5.09804
-2.74223
-1.00983
0.0291908
0.429852
0.357316
0.0820023
-20.485
-20.8202
-20.9068
-20.6763
-20.0621
-19.0079
-17.4798
-15.4838
-13.0821
-10.4055
-7.6502
-5.05437
-2.85107
-1.2125
-0.208164
0.205467
0.199293
-0.0101034
-19.0099
-19.324
-19.4126
-19.2137
-18.6671
-17.7209
-16.3431
-14.5369
-12.3557
-9.91463
-7.38914
-4.99472
-2.94558
-1.40424
-0.438811
-0.0163595
0.0400703
-0.105081
-17.5449
-17.8386
-17.9291
-17.7613
-17.2806
-16.4396
-15.2084
-13.5873
-11.6218
-9.41208
-7.11358
-4.91989
-3.02648
-1.58558
-0.66316
-0.235995
-0.120874
-0.203565
-16.0884
-16.3622
-16.4548
-16.3173
-15.901
-15.1629
-14.0747
-12.6348
-10.8806
-8.89835
-6.82429
-4.83073
-3.0945
-1.75709
-0.881603
-0.453768
-0.284066
-0.3062
-14.6384
-14.8927
-14.9874
-14.8797
-14.5266
-13.8892
-12.9412
-11.6788
-10.1321
-8.37393
-6.5221
-4.7282
-3.15058
-1.91955
-1.09482
-0.670319
-0.45046
-0.414079
-13.1932
-13.4283
-13.525
-13.4466
-13.1555
-12.6171
-11.8067
-10.7188
-9.37633
-7.83945
-6.20804
-4.61354
-3.19602
-2.07422
-1.30399
-0.886819
-0.62163
-0.528899
-11.7504
-11.9663
-12.065
-12.0156
-11.7858
-11.3448
-10.67
-9.75409
-8.61328
-7.29526
-5.88265
-4.48722
-3.23089
-2.22061
-1.50813
-1.10195
-0.796645
-0.649979
-10.308
-10.5047
-10.6052
-10.5847
-10.4154
-10.0707
-9.52988
-8.78395
-7.84244
-6.74101
-5.54549
-4.3484
-3.25386
-2.35689
-1.70509
-1.3135
-0.974175
-0.776542
-8.86293
-9.04019
-9.14245
-9.15067
-9.04181
-8.79295
-8.38548
-7.80873
-7.06591
-6.18113
-5.20389
-4.20772
-3.27873
-2.49941
-1.91285
-1.53997
-1.17376
-0.92687
-7.41339
-7.57058
-7.67436
-7.71126
-7.66272
-7.50996
-7.23649
-6.83014
-6.28784
-5.62207
-4.86579
-4.07324
-3.31235
-2.65289
-2.13381
-1.78155
-1.39505
-1.10083
-5.95492
-6.09141
-6.19682
-6.26186
-6.27188
-6.21207
-6.06733
-5.8227
-5.46796
-5.00411
-4.44922
-3.84126
-3.23335
-2.68492
-2.23208
-1.90596
-1.51412
-1.19105
-4.48612
-4.60103
-4.71068
-4.80669
-4.87617
-4.90782
-4.8886
-4.80274
-4.63544
-4.37841
-4.03548
-3.62694
-3.18814
-2.76495
-2.38921
-2.0967
-1.71401
-1.34954
-2.99858
-3.08693
-3.20573
-3.35548
-3.53153
-3.72954
-3.93835
-4.13671
-4.29535
-4.3822
-4.37048
-4.24821
-4.02412
-3.72938
-3.39826
-3.08087
-2.66199
-2.13013
-1.49775
-1.54271
-1.62389
-1.74837
-1.91835
-2.13446
-2.38913
-2.6633
-2.92745
-3.14599
-3.28498
-3.32171
-3.2519
-3.09279
-2.87143
-2.62924
-2.31949
-1.86496
)
;

boundaryField
{
    inlet
    {
        type            freestreamPressure;
        freestreamValue nonuniform 0();
        value           nonuniform 0();
    }
    outlet
    {
        type            freestreamPressure;
        freestreamValue uniform 0;
        value           nonuniform List<scalar> 
165
(
1.18287e-07
1.06623e-06
2.94078e-06
5.65379e-06
9.08737e-06
1.31053e-05
1.75604e-05
2.23045e-05
2.71982e-05
3.21182e-05
3.69615e-05
4.16471e-05
4.61166e-05
5.03321e-05
5.42704e-05
5.78142e-05
6.10299e-05
6.4062e-05
6.69178e-05
6.96056e-05
7.21374e-05
7.4528e-05
7.67936e-05
7.89508e-05
8.10167e-05
8.3008e-05
8.49408e-05
8.68311e-05
8.86943e-05
9.05456e-05
9.23999e-05
9.42723e-05
9.61781e-05
9.81328e-05
0.000100152
0.000102253
0.00010445
0.000106762
0.000109203
0.000111791
0.00011454
0.000117464
0.000120574
0.000123881
0.000127391
0.000131109
0.000135036
0.000139169
0.000143503
0.00014803
0.00015274
0.00015762
0.00016266
0.000167846
0.000173168
0.000178617
0.000184185
0.000189868
0.000195662
0.000201566
0.00020758
0.000213704
0.000219939
0.000226285
0.000232742
0.000239308
0.000245982
0.00025276
0.000259638
0.000266612
0.000273677
0.000280826
0.000288053
0.000295351
0.000302712
0.000310129
0.000317591
0.000325091
0.000332617
0.00034016
0.000347708
0.000355249
0.000362771
0.000370261
0.000377705
0.000385089
0.0003924
0.00039962
0.000406735
0.000413729
0.000420584
0.000427283
0.00043381
0.000440145
0.000446271
0.000452168
0.000457819
0.000463204
0.000468303
0.000473097
0.000477566
0.000481692
0.000485453
0.000488831
0.000491807
0.00049436
0.000496472
0.000498125
0.0004993
0.000499979
0.000500145
0.000499782
0.000498874
0.000497406
0.000495363
0.000492733
0.000489503
0.000485662
0.0004812
0.00047611
0.000470383
0.000464013
0.000456998
0.000449333
0.000441019
0.000432054
0.000422443
0.000412187
0.000401293
0.000389767
0.000377618
0.000364855
0.00035149
0.000337535
0.000323003
0.000307907
0.000292263
0.000276083
0.000259383
0.000242175
0.000224472
0.000206284
0.00018762
0.000168485
0.000148881
0.000128804
0.000108246
8.71922e-05
6.56207e-05
4.34997e-05
2.07897e-05
-2.56201e-06
-2.66236e-05
-5.14711e-05
-7.71609e-05
-0.000103857
-0.000131902
-0.000160743
-0.000189587
-0.00022521
-0.000267207
-0.000266408
-0.000293478
-0.000680601
-0.000287314
)
;
    }
    lowerSymmetry
    {
        type            symmetryPlane;
    }
    obstical
    {
        type            zeroGradient;
    }
    top
    {
        type            freestreamPressure;
        freestreamValue uniform 0;
        value           nonuniform List<scalar> 
18
(
-0.747273
-0.771355
-0.811945
-0.874186
-0.959175
-1.06723
-1.19456
-1.33165
-1.46372
-1.573
-1.64249
-1.66086
-1.62595
-1.5464
-1.43571
-1.31462
-1.15975
-0.932482
)
;
    }