/*--------------------------------*- C++ -*----------------------------------*\
| =========                 |                                                 |
| \\      /  F ield         | OpenFOAM: The Open Source CFD Toolbox           |
|  \\    /   O peration     | Version:  v1912                                 |
|   \\  /    A nd           | Website:  www.openfoam.com                      |
|    \\/     M anipulation  |                                                 |
\*---------------------------------------------------------------------------*/
FoamFile
{
    version     2.0;
    format      ascii;
    class       surfaceScalarField;
    location    "3500";
    object      phi;
}
// * * * * * * * * * * * * * * * * * * * * * * * * * * * * * * * * * * * * * //

dimensions      [0 3 -1 0 0 0 0];
oriented        oriented;


internalField   nonuniform List<scalar> 
6018
(
-0.000147191
1.01215e-05
-0.000154287
7.09634e-06
-0.000158228
3.94157e-06
-0.000158676
4.47724e-07
-0.000155297
-3.37938e-06
-0.000148068
-7.22875e-06
-0.000136832
-1.12365e-05
-0.000119056
-1.77758e-05
-9.02536e-05
-2.88021e-05
-5.05208e-05
-3.97327e-05
-7.76132e-06
-4.27592e-05
2.92114e-05
-3.69729e-05
5.73517e-05
-2.81402e-05
7.81102e-05
-2.07585e-05
9.34439e-05
-1.53338e-05
0.000105442
-1.19983e-05
0.000114611
-9.16902e-06
0.000124043
-9.43129e-06
-6.38482e-06
-0.000146753
2.01967e-05
-0.000153803
1.41462e-05
-0.000157701
7.83988e-06
-0.000158114
8.60368e-07
-0.000154712
-6.78124e-06
-0.000147417
-1.45231e-05
-0.000136097
-2.25569e-05
-0.000118347
-3.55255e-05
-8.95835e-05
-5.75657e-05
-4.97569e-05
-7.95591e-05
-6.96295e-06
-8.55528e-05
2.99195e-05
-7.38556e-05
5.79559e-05
-5.61767e-05
7.86299e-05
-4.14326e-05
9.39061e-05
-3.06101e-05
0.000105839
-2.39316e-05
0.000114995
-1.8325e-05
0.000124331
-1.87666e-05
-1.2815e-05
-0.000145883
3.01769e-05
-0.000152843
2.11069e-05
-0.000156657
1.16534e-05
-0.000156988
1.19168e-06
-0.000153505
-1.02641e-05
-0.000146131
-2.18974e-05
-0.000134732
-3.39562e-05
-0.000116897
-5.33599e-05
-8.80539e-05
-8.6409e-05
-4.82108e-05
-0.000119402
-5.51624e-06
-0.000128247
3.12091e-05
-0.000110581
5.91078e-05
-8.40754e-05
7.96547e-05
-6.19795e-05
9.48176e-05
-4.5773e-05
0.000106648
-3.57622e-05
0.000115723
-2.73996e-05
0.000124974
-2.8018e-05
-1.91859e-05
-0.000144595
4.00188e-05
-0.000151426
2.79385e-05
-0.000155118
1.53451e-05
-0.000155333
1.40685e-06
-0.000151736
-1.38611e-05
-0.00014425
-2.9383e-05
-0.000132743
-4.54632e-05
-0.000114797
-7.13066e-05
-8.58486e-05
-0.000115357
-4.59802e-05
-0.00015927
-3.41928e-06
-0.000170807
3.30879e-05
-0.000147089
6.07939e-05
-0.000111781
8.11608e-05
-8.23464e-05
9.61614e-05
-6.07737e-05
0.000107843
-4.74442e-05
0.0001168
-3.63559e-05
0.000125928
-3.71465e-05
-2.54701e-05
-0.000142908
4.96838e-05
-0.000149576
3.46065e-05
-0.000153115
1.8884e-05
-0.000153186
1.47772e-06
-0.000149449
-1.75983e-05
-0.000141829
-3.70027e-05
-0.000130196
-5.70961e-05
-0.000112122
-8.93805e-05
-8.30561e-05
-0.000144423
-4.31564e-05
-0.00019917
-7.52996e-07
-0.000213211
3.5493e-05
-0.000183335
6.29673e-05
-0.000139256
8.31129e-05
-0.000102492
9.79109e-05
-7.55717e-05
0.000109405
-5.89381e-05
0.00011821
-4.51611e-05
0.00012718
-4.61161e-05
-3.16423e-05
-0.000140847
5.91393e-05
-0.000147324
4.10831e-05
-0.000150686
2.22462e-05
-0.000150592
1.38383e-06
-0.000146698
-2.14929e-05
-0.000138931
-4.47692e-05
-0.000127166
-6.88612e-05
-0.000108963
-0.000107584
-7.97751e-05
-0.00017361
-3.98416e-05
-0.000239103
2.3901e-06
-0.000255442
3.83506e-05
-0.000219295
6.55712e-05
-0.000166476
8.54676e-05
-0.000122389
0.000100032
-9.01366e-05
0.000111306
-7.02119e-05
0.000119933
-5.37876e-05
0.000128712
-5.48954e-05
-3.768e-05
-0.00013844
6.83592e-05
-0.000144704
4.73473e-05
-0.000147873
2.54155e-05
-0.000147602
1.11274e-06
-0.000143541
-2.55539e-05
-0.000135624
-5.26864e-05
-0.000123731
-8.07547e-05
-0.000105407
-0.000125907
-7.61048e-05
-0.000202912
-3.61398e-05
-0.000279068
5.91529e-06
-0.000297497
4.15844e-05
-0.000254965
6.85435e-05
-0.000193436
8.81756e-05
-0.000142021
0.000102487
-0.000104448
0.000113517
-8.12418e-05
0.000121943
-6.22133e-05
0.000130505
-6.34576e-05
-4.35643e-05
-0.000135717
7.73242e-05
-0.000141755
5.33858e-05
-0.000144723
2.8383e-05
-0.00014427
6.59587e-07
-0.000140041
-2.97827e-05
-0.000131977
-6.07503e-05
-0.000119968
-9.27645e-05
-0.00010154
-0.000144335
-7.21356e-05
-0.000232317
-3.21465e-05
-0.000319057
9.73334e-06
-0.000339376
4.51195e-05
-0.000290351
7.18207e-05
-0.000220137
9.11849e-05
-0.000161385
0.000105233
-0.000118496
0.000116003
-9.20121e-05
0.000124212
-7.04221e-05
0.000132536
-7.17813e-05
-4.92794e-05
-0.000132711
8.60223e-05
-0.000138518
5.91923e-05
-0.000141282
3.11474e-05
-0.000140649
2.62182e-08
-0.000136257
-3.41745e-05
-0.000128056
-6.89513e-05
-0.000115947
-0.000104873
-9.74374e-05
-0.000162844
-6.79449e-05
-0.000261809
-2.79418e-05
-0.00035906
1.3766e-05
-0.000381084
4.88865e-05
-0.000325472
7.53412e-05
-0.000246592
9.44428e-05
-0.000180487
0.000108226
-0.00013228
0.000118729
-0.000102515
0.000126711
-7.84038e-05
0.00013478
-7.98505e-05
-5.48134e-05
-0.000129455
9.44479e-05
-0.00013503
6.4767e-05
-0.000137596
3.37128e-05
-0.000136789
-7.80293e-07
-0.000132244
-3.872e-05
-0.000123919
-7.72761e-05
-0.000111731
-0.000117061
-9.31609e-05
-0.000181414
-6.35942e-05
-0.000291376
-2.35892e-05
-0.000399065
1.7949e-05
-0.000422622
5.28244e-05
-0.000360347
7.90482e-05
-0.000272815
9.78988e-05
-0.000199338
0.000111422
-0.000145803
0.000121657
-0.00011275
0.000129407
-8.61536e-05
0.00013721
-8.76544e-05
-6.01581e-05
-0.000125983
0.000102602
-0.000131331
7.0116e-05
-0.000133708
3.60892e-05
-0.000132739
-1.74891e-06
-0.000128052
-4.34072e-05
-0.000119618
-8.57103e-05
-0.000107371
-0.000129309
-8.87605e-05
-0.000200024
-5.91305e-05
-0.000321006
-1.91357e-05
-0.000439059
2.22325e-05
-0.00046399
5.68825e-05
-0.000394997
8.28917e-05
-0.000298825
0.000101506
-0.000217952
0.000114779
-0.000159076
0.00012475
-0.000122721
0.000132268
-9.36712e-05
0.000139801
-9.51872e-05
-6.53086e-05
-0.000122324
0.000110489
-0.000127458
7.52497e-05
-0.000129658
3.82896e-05
-0.000128541
-2.86589e-06
-0.000123726
-4.82229e-05
-0.000115196
-9.42399e-05
-0.000102907
-0.000141598
-8.42744e-05
-0.000218656
-5.45875e-05
-0.000350692
-1.46144e-05
-0.000479032
2.65795e-05
-0.000505183
6.10203e-05
-0.000429438
8.6829e-05
-0.000324633
0.000105221
-0.000236344
0.000118257
-0.000172112
0.000127973
-0.000132436
0.000135262
-0.000100961
0.000142522
-0.000102448
-7.02632e-05
-0.000118509
0.000118121
-0.000123442
8.01827e-05
-0.000125482
4.03301e-05
-0.000124232
-4.11609e-06
-0.000119301
-5.31542e-05
-0.000110688
-0.000102853
-9.83724e-05
-0.000153914
-7.97305e-05
-0.000237298
-4.99892e-05
-0.000380434
-1.00478e-05
-0.000518973
3.09644e-05
-0.000546195
6.5207e-05
-0.000463681
9.08253e-05
-0.000350252
0.000109008
-0.000254527
0.00012182
-0.000184924
0.000131291
-0.000141908
0.000138359
-0.000108028
0.000145349
-0.000109438
-7.5023e-05
-0.000114565
0.000125512
-0.000119314
8.4932e-05
-0.000121212
4.22282e-05
-0.000119844
-5.48403e-06
-0.00011481
-5.81893e-05
-0.000106123
-0.000111539
-9.37915e-05
-0.000166246
-7.5149e-05
-0.00025594
-4.53517e-05
-0.000410231
-5.45071e-06
-0.000558874
3.53698e-05
-0.000587015
6.942e-05
-0.000497731
9.48526e-05
-0.000375684
0.000112836
-0.000272511
0.000125435
-0.000197522
0.000134674
-0.000151147
0.000141528
-0.000114882
0.000148254
-0.000116164
-7.95914e-05
-0.000110516
0.000132677
-0.000115101
8.95163e-05
-0.000116875
4.40022e-05
-0.000115404
-6.95499e-06
-0.000110275
-6.33181e-05
-0.000101524
-0.00012029
-8.91836e-05
-0.000178586
-7.0543e-05
-0.000274581
-4.06838e-05
-0.00044009
-8.32504e-07
-0.000598725
3.97832e-05
-0.000627631
7.36419e-05
-0.00053159
9.88886e-05
-0.000400931
0.000116678
-0.0002903
0.000129073
-0.000209918
0.000138092
-0.000160166
0.000144742
-0.000121532
0.000151212
-0.000122634
-8.39716e-05
-0.000100573
0.000139254
-0.000104769
9.37123e-05
-0.000106347
4.55802e-05
-0.000104875
-8.42698e-06
-9.99512e-05
-6.82422e-05
-9.16338e-05
-0.000128607
-7.99816e-05
-0.000190238
-6.23713e-05
-0.000292191
-3.41031e-05
-0.000468358
3.46892e-06
-0.000636297
4.16168e-05
-0.000665778
7.34127e-05
-0.000563386
9.70813e-05
-0.0004246
0.000113705
-0.000306923
0.00012523
-0.000221444
0.000133556
-0.000168492
0.000139653
-0.000127629
0.000145544
-0.000128526
-8.79319e-05
-9.85751e-05
0.00014578
-0.000102732
9.78696e-05
-0.000104258
4.71059e-05
-0.00010269
-9.99503e-06
-9.76049e-05
-7.33274e-05
-8.90792e-05
-0.000137133
-7.7207e-05
-0.000202111
-5.92762e-05
-0.000310122
-3.04267e-05
-0.000497207
7.78434e-06
-0.000674508
4.64302e-05
-0.000704424
7.86209e-05
-0.000595577
0.000102537
-0.000448516
0.000119284
-0.00032367
0.000130844
-0.000233004
0.000139138
-0.000176785
0.000145177
-0.000133668
0.000150956
-0.000134305
-9.18096e-05
-9.63535e-05
0.000152265
-0.000100485
0.000102001
-0.00010197
4.85906e-05
-0.000100313
-1.16517e-05
-9.50669e-05
-7.85737e-05
-8.63262e-05
-0.000145874
-7.42267e-05
-0.00021421
-5.59652e-05
-0.000328383
-2.65198e-05
-0.000526653
1.23404e-05
-0.000713368
5.14828e-05
-0.000743566
8.4054e-05
-0.000628149
0.000108202
-0.000472664
0.000125061
-0.000340529
0.00013665
-0.000244593
0.00014491
-0.000185045
0.000150892
-0.000139651
0.000156557
-0.00013997
-9.56073e-05
-9.39075e-05
0.000158722
-9.80267e-05
0.00010612
-9.9483e-05
5.00468e-05
-9.77447e-05
-1.33901e-05
-9.23363e-05
-8.39822e-05
-8.33732e-05
-0.000154837
-7.10386e-05
-0.000226545
-5.24301e-05
-0.000346991
-2.23717e-05
-0.000556711
1.71456e-05
-0.000752885
5.67812e-05
-0.000783202
8.97142e-05
-0.000661082
0.000114073
-0.000497023
0.000131029
-0.000357484
0.000142639
-0.000256203
0.000150862
-0.000193269
0.000156788
-0.000145576
0.000162337
-0.000145519
-9.93262e-05
-9.12356e-05
0.000165166
-9.53574e-05
0.000110242
-9.67977e-05
5.14869e-05
-9.49846e-05
-1.52031e-05
-8.94121e-05
-8.95548e-05
-8.02181e-05
-0.000164031
-6.7639e-05
-0.000239124
-4.86631e-05
-0.000365967
-1.79723e-05
-0.000587402
2.22083e-05
-0.000793066
6.23325e-05
-0.000823326
9.56045e-05
-0.000694354
0.00012015
-0.000521569
0.000137184
-0.000374518
0.000148802
-0.000267822
0.000156984
-0.00020145
0.000162851
-0.000151443
0.000168285
-0.000150954
-0.000102968
-8.83353e-05
0.00017161
-9.24747e-05
0.000114382
-9.39115e-05
5.29236e-05
-9.20309e-05
-1.70837e-05
-8.62921e-05
-9.52938e-05
-7.68576e-05
-0.000173465
-6.40236e-05
-0.000251959
-4.46557e-05
-0.000385335
-1.33107e-05
-0.000618747
2.75374e-05
-0.000833914
6.81432e-05
-0.000863931
0.000101727
-0.000727938
0.000126431
-0.000546273
0.000143519
-0.000391606
0.000155131
-0.000279434
0.000163264
-0.000209583
0.000169069
-0.000157247
0.000174387
-0.000156272
-0.000106533
-8.52029e-05
0.000178069
-8.93748e-05
0.000118553
-9.08208e-05
5.43695e-05
-8.88799e-05
-1.90245e-05
-8.29726e-05
-0.000101201
-7.32874e-05
-0.00018315
-6.01875e-05
-0.000265059
-4.0399e-05
-0.000405123
-8.37501e-06
-0.00065077
3.31424e-05
-0.000875431
7.42199e-05
-0.000905008
0.000108085
-0.000761803
0.000132912
-0.0005711
0.000150027
-0.000408721
0.000161616
-0.000291023
0.000169691
-0.000217657
0.000175429
-0.000162985
0.00018063
-0.000161473
-0.000110025
-8.18336e-05
0.000184558
-8.60524e-05
0.000122772
-8.752e-05
5.5837e-05
-8.55262e-05
-2.10183e-05
-7.94486e-05
-0.000107279
-6.95024e-05
-0.000193096
-5.6125e-05
-0.000278436
-3.58837e-05
-0.000425364
-3.15331e-06
-0.000683501
3.9033e-05
-0.000917617
8.05685e-05
-0.000946544
0.000114678
-0.000795913
0.00013959
-0.000596012
0.000156703
-0.000425834
0.000168246
-0.000302567
0.000176251
-0.000225662
0.000181917
-0.000168651
0.000186999
-0.000166555
-0.000113444
-7.8221e-05
0.000191093
-8.25004e-05
0.000127052
-8.40011e-05
5.73375e-05
-8.19623e-05
-2.30571e-05
-7.57133e-05
-0.000113528
-6.54961e-05
-0.000203314
-5.18297e-05
-0.000292103
-3.11004e-05
-0.000446093
2.36688e-06
-0.000716968
4.52194e-05
-0.000960469
8.71948e-05
-0.000988519
0.000121507
-0.000830225
0.000146461
-0.000620967
0.000163536
-0.000442909
0.000175012
-0.000314042
0.000182933
-0.000233583
0.000188519
-0.000174237
0.000193479
-0.000171516
-0.000116793
-7.43573e-05
0.000197686
-7.87097e-05
0.000131404
-8.02542e-05
5.88819e-05
-7.81783e-05
-2.5133e-05
-7.17585e-05
-0.000119948
-6.12614e-05
-0.000213811
-4.72939e-05
-0.00030607
-2.60415e-05
-0.000467345
8.19736e-06
-0.000751207
5.17141e-05
-0.00100399
9.41038e-05
-0.00103091
0.00012857
-0.000864691
0.000153518
-0.000645915
0.000170519
-0.00045991
0.000181899
-0.000325423
0.000189721
-0.000241405
0.00019522
-0.000179735
0.000200056
-0.000176353
-0.000120073
-7.02333e-05
0.000204351
-7.46696e-05
0.00013584
-7.62672e-05
6.04794e-05
-7.41622e-05
-2.7238e-05
-6.75737e-05
-0.000126537
-5.67899e-05
-0.000224594
-4.25086e-05
-0.000320352
-2.06997e-05
-0.000489154
1.4349e-05
-0.000786255
5.85317e-05
-0.00104817
0.0001013
-0.00107368
0.000135864
-0.000899256
0.000160754
-0.000670805
0.000177638
-0.000476794
0.000188896
-0.000336681
0.000196603
-0.000249112
0.000202004
-0.000185136
0.000206713
-0.000181061
-0.000123286
-6.58383e-05
0.000211098
-7.03672e-05
0.000140369
-7.20256e-05
6.21376e-05
-6.98993e-05
-2.93643e-05
-6.31463e-05
-0.00013329
-5.20723e-05
-0.000235668
-3.74637e-05
-0.00033496
-1.50635e-05
-0.000511554
2.0834e-05
-0.000822153
6.56832e-05
-0.00109302
0.000108786
-0.00111678
0.000143386
-0.000933856
0.000168158
-0.000695577
0.000184882
-0.000493518
0.000195988
-0.000347787
0.000203562
-0.000256686
0.000208856
-0.000190429
0.000213433
-0.000185638
-0.000126431
-6.11603e-05
0.000217938
-6.57886e-05
0.000144997
-6.75132e-05
6.38621e-05
-6.53727e-05
-3.15048e-05
-5.84615e-05
-0.000140201
-4.70984e-05
-0.000247031
-3.2148e-05
-0.000349911
-9.11889e-06
-0.000534583
2.76655e-05
-0.000858937
7.31786e-05
-0.00113853
0.000116564
-0.00116016
0.000151129
-0.000968421
0.00017572
-0.000720167
0.000192236
-0.000510034
0.000203159
-0.000358709
0.000210582
-0.000264109
0.000215758
-0.000195606
0.0002202
-0.00019008
-0.000129512
-5.61861e-05
0.000224879
-6.09179e-05
0.000149729
-6.27118e-05
6.56558e-05
-6.05633e-05
-3.36533e-05
-5.3502e-05
-0.000147263
-4.18566e-05
-0.000258677
-2.65492e-05
-0.000365218
-2.84951e-06
-0.000558283
3.48576e-05
-0.000896644
8.10271e-05
-0.0011847
0.000124634
-0.00120377
0.000159086
-0.00100287
0.000183425
-0.000744507
0.000199684
-0.000526293
0.000210391
-0.000369417
0.000217645
-0.000271363
0.000222694
-0.000200656
0.000226997
-0.000194383
-0.000132529
-5.09014e-05
0.000231926
-5.57386e-05
0.000154567
-5.76021e-05
6.75191e-05
-5.54503e-05
-3.58051e-05
-4.82485e-05
-0.000154465
-3.63344e-05
-0.000270591
-2.06548e-05
-0.000380898
3.76253e-06
-0.0005827
4.24253e-05
-0.000935307
8.92373e-05
-0.00123151
0.000132995
-0.00124753
0.000167244
-0.00103712
0.000191258
-0.00076852
0.000207207
-0.000542242
0.000217666
-0.000379876
0.000224733
-0.000278429
0.000229646
-0.000205569
0.000233808
-0.000198544
-0.000135485
-4.52909e-05
0.000239085
-5.02332e-05
0.000159509
-5.21641e-05
6.94499e-05
-5.00116e-05
-3.79577e-05
-4.26798e-05
-0.000161796
-3.05175e-05
-0.000282753
-1.44516e-05
-0.000396964
1.07357e-05
-0.000607887
5.03849e-05
-0.000974956
9.78171e-05
-0.00127894
0.000141643
-0.00129136
0.000175593
-0.00107107
0.000199201
-0.000792128
0.000214785
-0.000557827
0.000224964
-0.000390055
0.000231827
-0.000285292
0.000236596
-0.000210339
0.000240615
-0.000202563
-0.000138382
-3.93387e-05
0.000246357
-4.43837e-05
0.000164554
-4.63773e-05
7.14433e-05
-4.42248e-05
-4.01102e-05
-3.67738e-05
-0.000169248
-2.43908e-05
-0.000295136
-7.92622e-06
-0.000413429
1.80891e-05
-0.000633902
5.87537e-05
-0.00101562
0.000106773
-0.00132696
0.000150572
-0.00133515
0.000184116
-0.00110462
0.000207233
-0.000815244
0.000222398
-0.000572992
0.000232265
-0.000399923
0.000238908
-0.000291935
0.000243527
-0.000214958
0.000247403
-0.00020644
-0.000141224
-3.30282e-05
0.000253745
-3.81721e-05
0.000169698
-4.02215e-05
7.34926e-05
-3.80671e-05
-4.22647e-05
-3.05082e-05
-0.000176807
-1.79379e-05
-0.000307706
-1.06345e-06
-0.000430303
2.58429e-05
-0.000660808
6.75491e-05
-0.00105733
0.000116111
-0.00137552
0.000159774
-0.00137882
0.000192795
-0.00113764
0.000215332
-0.000837781
0.000230022
-0.000587681
0.000239547
-0.000409448
0.000245956
-0.000298344
0.00025042
-0.000219422
0.000254156
-0.000210176
-0.000144014
-2.63423e-05
0.000261249
-3.15802e-05
0.000174936
-3.36772e-05
7.55894e-05
-3.15165e-05
-4.44254e-05
-2.38611e-05
-0.000184462
-1.11412e-05
-0.000320426
6.15365e-06
-0.000447598
3.40184e-05
-0.000688673
7.67885e-05
-0.0011001
0.000125834
-0.00142457
0.000169237
-0.00142222
0.00020161
-0.00117001
0.000223475
-0.000859647
0.000237634
-0.000601841
0.000246789
-0.000418602
0.000252954
-0.000304509
0.000257261
-0.000223728
0.00026086
-0.000213775
-0.00014676
-1.9263e-05
0.000268871
-2.45901e-05
0.000180263
-2.67257e-05
7.77248e-05
-2.45515e-05
-4.65997e-05
-1.68122e-05
-0.000192202
-3.97412e-06
-0.000333264
1.3748e-05
-0.000465321
4.26299e-05
-0.000717554
8.6489e-05
-0.00114396
0.000135943
-0.00147402
0.000178945
-0.00146522
0.000210535
-0.0012016
0.000231634
-0.000880746
0.00024521
-0.000615417
0.00025397
-0.000427362
0.000259883
-0.000310422
0.000264032
-0.000227878
0.000267502
-0.000217245
-0.000149466
-1.17717e-05
0.00027661
-1.71837e-05
0.000185675
-1.9349e-05
7.989e-05
-1.71516e-05
-4.87971e-05
-9.34305e-06
-0.00020001
3.58535e-06
-0.000346192
2.17443e-05
-0.00048348
5.16982e-05
-0.000747508
9.66676e-05
-0.00118892
0.000146438
-0.00152379
0.000188881
-0.00150767
0.000219545
-0.00123226
0.000239784
-0.000900985
0.000252726
-0.000628359
0.000261071
-0.000435707
0.000266727
-0.000316078
0.000270722
-0.000231873
0.000274071
-0.000220594
-0.000152143
-3.8471e-06
0.00028447
-9.34248e-06
0.00019117
-1.15302e-05
8.20776e-05
-9.29735e-06
-5.10301e-05
-1.43529e-06
-0.000207872
1.15552e-05
-0.000359183
3.01651e-05
-0.00050209
6.12487e-05
-0.000778592
0.000107341
-0.00123502
0.000157313
-0.00157377
0.000199022
-0.00154937
0.00022861
-0.00126185
0.000247895
-0.00092027
0.000260159
-0.000640623
0.000268072
-0.00044362
0.000273472
-0.000321478
0.00027732
-0.000235722
0.00028056
-0.000223834
-0.000154798
4.53174e-06
0.000292446
-1.04564e-06
0.000196748
-3.25207e-06
8.42838e-05
-9.72617e-07
-5.33096e-05
6.93184e-06
-0.000215777
1.99523e-05
-0.000372203
3.90317e-05
-0.000521169
7.13095e-05
-0.000810869
0.000118524
-0.00128223
0.000168559
-0.0016238
0.000209341
-0.00159016
0.000237697
-0.00129021
0.00025594
-0.000938513
0.000267487
-0.00065217
0.000274959
-0.000451092
0.000280106
-0.000326625
0.000283817
-0.000239433
0.000286962
-0.000226979
-0.000157443
1.33814e-05
0.000300539
7.72299e-06
0.000202406
5.50348e-06
8.65032e-05
7.84164e-06
-5.56479e-05
1.57746e-05
-0.00022371
2.8795e-05
-0.000385223
4.8367e-05
-0.000540741
8.19104e-05
-0.000844412
0.000130232
-0.00133055
0.000180163
-0.00167373
0.000219807
-0.0016298
0.000246775
-0.00131718
0.00026389
-0.000955628
0.000274689
-0.000662969
0.000281719
-0.000458122
0.000286623
-0.000331529
0.00029021
-0.00024302
0.000293276
-0.000230045
-0.000160089
2.27259e-05
0.000308743
1.69835e-05
0.000208149
1.4755e-05
8.87315e-05
1.71571e-05
-5.80501e-05
2.5103e-05
-0.000231656
3.80989e-05
-0.000398219
5.81963e-05
-0.000560839
9.30833e-05
-0.000879299
0.000142476
-0.00137995
0.000192106
-0.00172336
0.000230384
-0.00166808
0.000255806
-0.0013426
0.000271721
-0.000971543
0.000281751
-0.000673
0.000288343
-0.000464713
0.000293018
-0.000336205
0.000296496
-0.000246498
0.000299503
-0.000233052
-0.000162749
3.25885e-05
0.00031705
2.67599e-05
0.000213977
2.45222e-05
9.0969e-05
2.69867e-05
-6.05147e-05
3.49277e-05
-0.000239597
4.78777e-05
-0.000411169
6.85469e-05
-0.000581508
0.000104862
-0.000915614
0.000155263
-0.00143035
0.000204363
-0.00177246
0.000241034
-0.00170475
0.000264757
-0.00136632
0.000279408
-0.000986193
0.00028866
-0.000682253
0.000294827
-0.000470879
0.000299293
-0.000340671
0.000302682
-0.000249887
0.000305649
-0.000236019
-0.000165434
4.29924e-05
0.000325445
3.70761e-05
0.000219894
3.48263e-05
9.32186e-05
3.73467e-05
-6.30352e-05
4.52593e-05
-0.00024751
5.81441e-05
-0.000424054
7.94497e-05
-0.000602814
0.00011728
-0.000953444
0.000168598
-0.00148166
0.000216903
-0.00182076
0.000251712
-0.00173956
0.000273592
-0.0013882
0.000286931
-0.000999532
0.000295409
-0.000690731
0.000301172
-0.000476642
0.000305453
-0.000344952
0.000308774
-0.000253207
0.000311721
-0.000238967
-0.000168158
5.39602e-05
0.000333903
4.7957e-05
0.000225897
4.56903e-05
9.54851e-05
4.82546e-05
-6.55996e-05
5.61073e-05
-0.000255363
6.8911e-05
-0.000436858
9.09394e-05
-0.000624843
0.000130376
-0.00099288
0.000182478
-0.00153377
0.000229686
-0.00186797
0.000262373
-0.00177224
0.000282279
-0.00140811
0.000294276
-0.00101153
0.000301997
-0.000698452
0.000307386
-0.000482032
0.000311509
-0.000349075
0.000314785
-0.000256483
0.000317734
-0.000241916
-0.000170933
6.55124e-05
0.000342385
5.94277e-05
0.000231982
5.71377e-05
9.7775e-05
5.97274e-05
-6.81894e-05
6.74791e-05
-0.000263114
8.01923e-05
-0.000449571
0.000103056
-0.000647706
0.000144184
-0.00103401
0.000196892
-0.00158648
0.000242666
-0.00191375
0.000272966
-0.00180254
0.000290787
-0.00142593
0.000301433
-0.00102218
0.000308428
-0.000705448
0.000313482
-0.000487085
0.000317478
-0.000353071
0.000320732
-0.000259737
0.000323704
-0.000244888
-0.000173772
7.76652e-05
0.000350834
7.15116e-05
0.000238135
6.91913e-05
0.000100095
7.17799e-05
-7.07782e-05
7.93796e-05
-0.000270714
9.20042e-05
-0.000462195
0.000115846
-0.000671549
0.000158741
-0.0010769
0.000211823
-0.00163956
0.000255787
-0.00195771
0.000283444
-0.0018302
0.000299091
-0.00144158
0.0003084
-0.00103149
0.000314715
-0.000711763
0.000319477
-0.000491846
0.000323381
-0.000356975
0.000326637
-0.000262993
0.00032965
-0.000247901
-0.000176683
9.04263e-05
0.000359166
8.42283e-05
0.000244333
8.18711e-05
0.000102452
8.44229e-05
-7.333e-05
9.18095e-05
-0.000278101
0.000104367
-0.000474753
0.000129365
-0.000696547
0.000174081
-0.00112162
0.000227238
-0.00169271
0.000268986
-0.00199946
0.000293756
-0.00185497
0.000307173
-0.00145499
0.000315183
-0.0010395
0.000320877
-0.000717457
0.000325396
-0.000496365
0.000329241
-0.00036082
0.000332522
-0.000266274
0.000335593
-0.000250972
-0.000179677
0.00010379
0.000367262
9.7589e-05
0.000250534
9.51907e-05
0.00010485
9.76594e-05
-7.5799e-05
0.000104765
-0.000285207
0.000117309
-0.000487296
0.000143676
-0.000722914
0.000190232
-0.00116817
0.000243093
-0.00174557
0.000282193
-0.00203856
0.000303857
-0.00187664
0.000315022
-0.00146616
0.000321796
-0.00104627
0.000326938
-0.000722599
0.000331267
-0.000500695
0.000335087
-0.000364639
0.000338414
-0.000269602
0.000341559
-0.000254116
-0.00018276
0.000117727
0.000374959
0.00011159
0.00025667
0.000109152
0.000107289
0.000111482
-7.81289e-05
0.00011824
-0.000291965
0.000130866
-0.000499923
0.000158854
-0.000750902
0.000207214
-0.00121653
0.000259327
-0.00179769
0.000295332
-0.00207456
0.000313704
-0.00189501
0.000322635
-0.00147509
0.00032826
-0.00105189
0.00033293
-0.00072727
0.000337123
-0.000504888
0.000340949
-0.000368465
0.000344341
-0.000272994
0.000347569
-0.000257344
-0.000185938
0.000132177
0.000382041
0.000126206
0.000262642
0.000123737
0.000109757
0.000125866
-8.02579e-05
0.000132222
-0.000298321
0.000145095
-0.000512796
0.000174984
-0.000780792
0.000225033
-0.00126658
0.000275863
-0.00184852
0.000308321
-0.00210702
0.000323263
-0.00190995
0.000330022
-0.00148185
0.000334604
-0.00105648
0.000338888
-0.000731553
0.000342997
-0.000508997
0.000346857
-0.000372325
0.000350329
-0.000276466
0.000353649
-0.000260664
-0.000189214
0.000147037
0.000388258
0.000141374
0.000268305
0.000138904
0.000112227
0.000140773
-8.21268e-05
0.000146706
-0.000304255
0.000160069
-0.000526159
0.000192157
-0.000812879
0.000243677
-0.0013181
0.000292604
-0.00189744
0.00032108
-0.0021355
0.000332511
-0.00192138
0.000337202
-0.00148654
0.000340866
-0.00106014
0.000344849
-0.000735536
0.000348924
-0.000513071
0.000352842
-0.000376244
0.000356405
-0.000280029
0.00035982
-0.000264079
-0.000192589
0.000162162
0.000393362
0.000156991
0.000273476
0.000154574
0.000114643
0.000156143
-8.36956e-05
0.000161698
-0.00030981
0.000175898
-0.00054036
0.00021047
-0.000847451
0.000263106
-0.00137074
0.000309435
-0.00194377
0.00033353
-0.00215959
0.000341435
-0.00192928
0.000344202
-0.00148931
0.000347087
-0.00106302
0.000350854
-0.000739304
0.000354936
-0.000517153
0.000358932
-0.00038024
0.000362592
-0.000283689
0.000366103
-0.00026759
-0.000196063
0.000177388
0.000397196
0.000172912
0.000277952
0.000170637
0.000116918
0.000171909
-8.49678e-05
0.000177231
-0.000315132
0.000192725
-0.000555854
0.000230016
-0.000884742
0.000283248
-0.00142397
0.000326223
-0.00198675
0.000345596
-0.00217896
0.000350037
-0.00193373
0.000351064
-0.00149033
0.000353311
-0.00106527
0.000356941
-0.000742934
0.000361065
-0.000521277
0.00036515
-0.000384325
0.000368911
-0.00028745
0.000372516
-0.000271195
-0.000199632
0.000192587
0.000399829
0.000188975
0.000281564
0.000186963
0.00011893
0.000188016
-8.60216e-05
0.000193392
-0.000320507
0.000210736
-0.000573198
0.000250867
-0.000924873
0.000303986
-0.00147709
0.000342822
-0.00202558
0.000357221
-0.00219336
0.000358336
-0.00193484
0.000357833
-0.00148983
0.000359583
-0.00106702
0.000363144
-0.000746495
0.000367337
-0.00052547
0.000371517
-0.000388505
0.000375378
-0.00029131
0.000379072
-0.000274888
-0.000203295
0.000207767
0.000401697
0.00020506
0.000284271
0.000203444
0.000120546
0.000204459
-8.70362e-05
0.000210344
-0.000326393
0.000230155
-0.000593008
0.000273059
-0.000967778
0.00032516
-0.00152919
0.000359077
-0.0020595
0.000368359
-0.00220264
0.000366365
-0.00193285
0.000364561
-0.00148803
0.000365947
-0.00106841
0.000369494
-0.000750042
0.000373772
-0.000529748
0.000378048
-0.000392781
0.000382006
-0.000295268
0.000385782
-0.000278664
-0.000207046
0.000223192
0.000403709
0.000221192
0.000286272
0.000220073
0.000121665
0.000221339
-8.83025e-05
0.000228358
-0.000333412
0.000251226
-0.000615876
0.000296565
-0.00101312
0.000346556
-0.00157918
0.000374836
-0.00208778
0.000378989
-0.0022068
0.000374171
-0.00192803
0.000371303
-0.00148516
0.000372442
-0.00106955
0.000376015
-0.000753614
0.000380385
-0.000534118
0.000384754
-0.00039715
0.000388802
-0.000299316
0.000392653
-0.000282515
-0.000210883
0.000239488
0.000407208
0.000237662
0.000288097
0.000237039
0.000122287
0.000238936
-9.01989e-05
0.000247819
-0.000342296
0.000274183
-0.00064224
0.000321269
-0.0010602
0.000367918
-0.00162583
0.000389959
-0.00210982
0.000389117
-0.00220596
0.000381814
-0.00192073
0.000378112
-0.00148146
0.000379101
-0.00107054
0.000382724
-0.000757237
0.000387185
-0.000538579
0.000391639
-0.000401604
0.000395771
-0.000303448
0.000399689
-0.000286433
-0.0002148
0.000257646
0.000413741
0.00025512
0.000290623
0.000254826
0.000122581
0.000257751
-9.31237e-05
0.000269213
-0.000353758
0.000299192
-0.00067222
0.000346943
-0.00110795
0.000388953
-0.00166784
0.000404331
-0.0021252
0.000398771
-0.0022004
0.00038936
-0.00191131
0.000385036
-0.00147713
0.000385947
-0.00107145
0.000389631
-0.000760921
0.000394175
-0.000543124
0.000398705
-0.000406134
0.000402913
-0.000307655
0.00040689
-0.000290411
-0.000218795
0.000278882
0.000424632
0.000274575
0.00029493
0.000274245
0.000122911
0.000278509
-9.73871e-05
0.000293052
-0.000368301
0.000326284
-0.000705451
0.000373239
-0.00115491
0.000409353
-0.00170395
0.000417872
-0.00213372
0.00040801
-0.00219053
0.000396881
-0.00190019
0.000392117
-0.00147237
0.000392997
-0.00107233
0.00039674
-0.000764664
0.000401356
-0.00054774
0.00040595
-0.000410728
0.000410226
-0.000311932
0.000414258
-0.000294443
-0.000222864
0.000304314
0.000440497
0.000297227
0.000302017
0.000296349
0.000123788
0.000302054
-0.000103092
0.000319757
-0.000386004
0.000355279
-0.000740973
0.000399692
-0.00119932
0.000428824
-0.00173309
0.000430551
-0.00213545
0.000416911
-0.00217689
0.000404444
-0.00188772
0.000399387
-0.00146731
0.00040026
-0.0010732
0.00040405
-0.000768455
0.000408722
-0.000552411
0.00041337
-0.000415376
0.000417708
-0.00031627
0.000421788
-0.000298523
-0.000227005
0.000334556
0.000460886
0.000324139
0.000312433
0.000322189
0.000125738
0.000329142
-0.000110045
0.000349491
-0.000406354
0.000385742
-0.000777224
0.00042575
-0.00123933
0.000447113
-0.00175445
0.000442389
-0.00213072
0.000425569
-0.00216007
0.000412111
-0.00187426
0.000406866
-0.00146207
0.000407737
-0.00107407
0.000411556
-0.000772274
0.000416268
-0.000557123
0.00042096
-0.000420068
0.000425355
-0.000320665
0.000429479
-0.000302647
-0.000231217
0.000369364
0.000484239
0.000355813
0.000325985
0.000352446
0.000129105
0.000360146
-0.000117745
0.000382001
-0.000428208
0.000416973
-0.000812197
0.000450832
-0.00127319
0.000464044
-0.00176766
0.000453458
-0.00212014
0.000434085
-0.0021407
0.000419931
-0.00186011
0.000414565
-0.0014567
0.000415423
-0.00107493
0.00041925
-0.0007761
0.000423987
-0.000561861
0.000428715
-0.000424796
0.000433162
-0.000325112
0.000437329
-0.000306814
-0.0002355
0.000407524
0.000508199
0.000391853
0.000341656
0.000387068
0.000133889
0.000394795
-0.000125472
0.000416534
-0.000449947
0.000448063
-0.000843727
0.000474398
-0.00129952
0.000479534
-0.0017728
0.000463875
-0.00210448
0.000442558
-0.00211938
0.000427941
-0.00184549
0.000422488
-0.00145125
0.000423313
-0.00107575
0.000427125
-0.000779913
0.000431874
-0.00056661
0.00043663
-0.000429552
0.000441127
-0.000329608
0.000445334
-0.000311021
-0.000239853
0.000447037
0.000530167
0.000430875
0.000357818
0.000425064
0.0001397
0.000432046
-0.000132455
0.000451874
-0.000469774
0.000478012
-0.000869865
0.00049602
-0.00131753
0.000493611
-0.00177039
0.000473786
-0.00208465
0.000451074
-0.00209667
0.000436165
-0.00183058
0.000430631
-0.00144571
0.000431396
-0.00107652
0.000435174
-0.000783691
0.000439924
-0.00057136
0.000444704
-0.000434332
0.000449248
-0.000334152
0.000453494
-0.000315268
-0.000244276
0.000485562
0.000547902
0.000470747
0.000372633
0.000464602
0.000145846
0.0004702
-0.000138053
0.000486524
-0.000486098
0.000505884
-0.000889225
0.000515443
-0.00132709
0.000506401
-0.00176135
0.000483351
-0.0020616
0.000459706
-0.00207303