/*--------------------------------*- C++ -*----------------------------------*\
| =========                 |                                                 |
| \\      /  F ield         | OpenFOAM: The Open Source CFD Toolbox           |
|  \\    /   O peration     | Version:  v1912                                 |
|   \\  /    A nd           | Website:  www.openfoam.com                      |
|    \\/     M anipulation  |                                                 |
\*---------------------------------------------------------------------------*/
FoamFile
{
    version     2.0;
    format      ascii;
    class       volVectorField;
    location    "3500";
    object      U;
}
// * * * * * * * * * * * * * * * * * * * * * * * * * * * * * * * * * * * * * //

dimensions      [0 1 -1 0 0 0 0];


internalField   nonuniform List<vector> 
3101
(
(-21.4608 0.0281339 0)
(-22.744 0.018325 0)
(-23.5729 0.00949461 0)
(-23.9076 0.00110733 0)
(-23.6834 -0.00679474 0)
(-22.863 -0.0135969 0)
(-21.5048 -0.0196269 0)
(-19.4848 -0.0287941 0)
(-16.09 -0.0433115 0)
(-10.7375 -0.0554762 0)
(-4.16062 -0.0554109 0)
(2.04171 -0.0444514 0)
(6.88375 -0.031374 0)
(10.4482 -0.0214675 0)
(13.0837 -0.0147097 0)
(15.0218 -0.0106792 0)
(16.6775 -0.00756788 0)
(17.7389 -0.00722807 0)
(19.5563 -0.00452937 0)
(-21.3984 0.0839825 0)
(-22.6745 0.0546217 0)
(-23.4968 0.0281792 0)
(-23.8251 0.00306525 0)
(-23.5946 -0.0205842 0)
(-22.768 -0.0410321 0)
(-21.4035 -0.0591674 0)
(-19.377 -0.0865905 0)
(-15.9752 -0.130183 0)
(-10.6178 -0.166816 0)
(-4.04323 -0.16648 0)
(2.14575 -0.133403 0)
(6.97631 -0.0941242 0)
(10.5305 -0.0643922 0)
(13.1565 -0.0441215 0)
(15.0867 -0.0320092 0)
(16.7345 -0.0227103 0)
(17.7917 -0.0216197 0)
(19.6005 -0.0136301 0)
(-21.2745 0.139205 0)
(-22.5369 0.0903768 0)
(-23.3462 0.0463913 0)
(-23.6621 0.00461982 0)
(-23.4194 -0.0347069 0)
(-22.5807 -0.0688569 0)
(-21.2044 -0.0991283 0)
(-19.1658 -0.144654 0)
(-15.751 -0.217325 0)
(-10.3842 -0.278529 0)
(-3.81349 -0.277628 0)
(2.35015 -0.222157 0)
(7.15867 -0.156672 0)
(10.6932 -0.107141 0)
(13.3006 -0.0733977 0)
(15.2155 -0.0532031 0)
(16.8478 -0.0377893 0)
(17.8963 -0.0358656 0)
(19.6881 -0.0227392 0)
(-21.091 0.193944 0)
(-22.3334 0.125701 0)
(-23.124 0.0642218 0)
(-23.4221 0.00583539 0)
(-23.1622 -0.0491468 0)
(-22.3065 -0.0969845 0)
(-20.9138 -0.139347 0)
(-18.859 -0.202906 0)
(-15.4271 -0.304582 0)
(-10.0476 -0.390163 0)
(-3.48153 -0.388366 0)
(2.64694 -0.310368 0)
(7.42504 -0.218784 0)
(10.9318 -0.149529 0)
(13.5129 -0.102383 0)
(15.4056 -0.0741573 0)
(17.0154 -0.052695 0)
(18.0514 -0.049948 0)
(19.8182 -0.0317412 0)
(-20.8503 0.247848 0)
(-22.0673 0.160303 0)
(-22.8343 0.0814223 0)
(-23.1102 0.00649418 0)
(-22.829 -0.0640949 0)
(-21.9527 -0.125563 0)
(-20.5405 -0.179959 0)
(-18.4672 -0.261535 0)
(-15.016 -0.392151 0)
(-9.62178 -0.50183 0)
(-3.06077 -0.498686 0)
(3.02541 -0.397966 0)
(7.76738 -0.280401 0)
(11.2403 -0.191487 0)
(13.7887 -0.131008 0)
(15.6535 -0.0948063 0)
(17.2347 -0.0673721 0)
(18.2546 -0.0638166 0)
(19.9892 -0.0405947 0)
(-20.5556 0.300673 0)
(-21.7427 0.193984 0)
(-22.4823 0.097829 0)
(-22.7327 0.00646126 0)
(-22.4273 -0.0796618 0)
(-21.528 -0.154683 0)
(-20.0949 -0.221035 0)
(-18.0027 -0.320597 0)
(-14.5319 -0.480096 0)
(-9.12232 -0.613592 0)
(-2.5664 -0.608565 0)
(3.47313 -0.484904 0)
(8.17614 -0.341471 0)
(11.6115 -0.232953 0)
(14.1225 -0.15921 0)
(15.9549 -0.115089 0)
(17.5024 -0.0817741 0)
(18.503 -0.0774174 0)
(20.1989 -0.0492707 0)
(-20.2106 0.352255 0)
(-21.3643 0.226619 0)
(-22.0738 0.113347 0)
(-22.2965 0.00566481 0)
(-21.9655 -0.0958999 0)
(-21.042 -0.184376 0)
(-19.588 -0.262578 0)
(-17.4782 -0.380076 0)
(-13.9892 -0.568407 0)
(-8.56462 -0.725452 0)
(-2.01421 -0.71799 0)
(3.97758 -0.571142 0)
(8.64099 -0.401961 0)
(12.0371 -0.273882 0)
(14.5079 -0.186942 0)
(16.3047 -0.134955 0)
(17.8145 -0.0958608 0)
(18.7932 -0.0907042 0)
(20.4449 -0.0577414 0)
(-19.8194 0.402475 0)
(-20.9374 0.258124 0)
(-21.6151 0.127919 0)
(-21.8092 0.00407014 0)
(-21.452 -0.112827 0)
(-20.5045 -0.214639 0)
(-19.0307 -0.304556 0)
(-16.9058 -0.439923 0)
(-13.4011 -0.657047 0)
(-7.96264 -0.837394 0)
(-1.41886 -0.826958 0)
(4.52673 -0.656682 0)
(9.15156 -0.461866 0)
(12.5083 -0.314256 0)
(14.9378 -0.214172 0)
(16.6971 -0.15437 0)
(18.1664 -0.1096 0)
(19.1212 -0.10364 0)
(20.7242 -0.065982 0)
(-19.3865 0.451247 0)
(-20.4673 0.28845 0)
(-21.1127 0.141524 0)
(-21.2783 0.00167216 0)
(-20.8954 -0.130434 0)
(-19.9248 -0.245442 0)
(-18.4333 -0.346915 0)
(-16.2965 -0.500074 0)
(-12.7792 -0.745975 0)
(-7.32802 -0.949391 0)
(-0.792798 -0.935476 0)
(5.10965 -0.741557 0)
(9.69796 -0.521205 0)
(13.0168 -0.354076 0)
(15.4052 -0.240892 0)
(17.1261 -0.173312 0)
(18.5534 -0.122971 0)
(19.4829 -0.116196 0)
(21.0337 -0.0739727 0)
(-18.9162 0.498521 0)
(-19.9596 0.317581 0)
(-20.5731 0.154168 0)
(-20.7111 -0.00150824 0)
(-20.3037 -0.14869 0)
(-19.3117 -0.276741 0)
(-17.8048 -0.389588 0)
(-15.6597 -0.560458 0)
(-12.1328 -0.835145 0)
(-6.6699 -1.06141 0)
(-0.145937 -1.04355 0)
(5.71695 -0.825817 0)
(10.2713 -0.58001 0)
(13.5544 -0.393363 0)
(15.9029 -0.267105 0)
(17.5858 -0.191775 0)
(18.9704 -0.135961 0)
(19.8737 -0.128353 0)
(21.3699 -0.0816992 0)
(-18.413 0.544286 0)
(-19.4196 0.345536 0)
(-20.0025 0.165887 0)
(-20.1144 -0.00542962 0)
(-19.6844 -0.167551 0)
(-18.6727 -0.308481 0)
(-17.153 -0.432503 0)
(-15.003 -0.621002 0)
(-11.4692 -0.92452 0)
(-5.99501 -1.17342 0)
(0.514331 -1.15119 0)
(6.34106 -0.909512 0)
(10.864 -0.638318 0)
(14.1136 -0.432144 0)
(16.4243 -0.292827 0)
(18.0701 -0.209762 0)
(19.4124 -0.148565 0)
(20.2891 -0.140096 0)
(21.7293 -0.089152 0)
(-17.8813 0.58856 0)
(-18.8524 0.372357 0)
(-19.4066 0.176735 0)
(-19.4946 -0.010036 0)
(-19.0439 -0.186964 0)
(-18.0144 -0.340608 0)
(-16.4842 -0.475593 0)
(-14.3325 -0.681644 0)
(-10.7938 -1.01407 0)
(-5.30811 -1.28538 0)
(1.18279 -1.25838 0)
(6.97615 -0.992685 0)
(11.4697 -0.696164 0)
(14.6881 -0.470451 0)
(16.9631 -0.318081 0)
(18.5734 -0.227285 0)
(19.8744 -0.160788 0)
(20.7245 -0.151422 0)
(22.1083 -0.0963268 0)
(-17.3253 0.631389 0)
(-18.2628 0.398109 0)
(-18.7906 0.186784 0)
(-18.8572 -0.015263 0)
(-18.3879 -0.206874 0)
(-17.3424 -0.373071 0)
(-15.8036 -0.5188 0)
(-13.6526 -0.742334 0)
(-10.1105 -1.10379 0)
(-4.61244 -1.39727 0)
(1.85594 -1.36511 0)
(7.61794 -1.07537 0)
(12.0834 -0.753577 0)
(15.2723 -0.508313 0)
(17.5138 -0.342891 0)
(19.0903 -0.244363 0)
(20.3515 -0.172639 0)
(21.1754 -0.162332 0)
(22.5031 -0.103224 0)
(-16.7487 0.672839 0)
(-17.6551 0.422873 0)
(-18.1592 0.196113 0)
(-18.2069 -0.0210436 0)
(-17.7211 -0.227231 0)
(-16.661 -0.405829 0)
(-15.1152 -0.562082 0)
(-12.9667 -0.803036 0)
(-9.42191 -1.19367 0)
(-3.91022 -1.50906 0)
(2.53154 -1.47137 0)
(8.26344 -1.1576 0)
(12.7013 -0.810579 0)
(15.8618 -0.545758 0)
(18.0714 -0.367285 0)
(19.6159 -0.261017 0)
(20.8392 -0.184131 0)
(21.6376 -0.17283 0)
(22.9102 -0.109847 0)
(-16.1551 0.712997 0)
(-17.0331 0.446741 0)
(-17.5164 0.204808 0)
(-17.5478 -0.0273112 0)
(-17.0474 -0.247992 0)
(-15.974 -0.438848 0)
(-14.4221 -0.605402 0)
(-12.2772 -0.863738 0)
(-8.72983 -1.28374 0)
(-3.20297 -1.62074 0)
(3.20817 -1.57711 0)
(8.91063 -1.23938 0)
(13.3204 -0.867178 0)
(16.4527 -0.582804 0)
(18.6319 -0.391285 0)
(20.1459 -0.277271 0)
(21.3333 -0.195278 0)
(22.107 -0.182931 0)
(23.3259 -0.116199 0)
(-15.5645 0.75089 0)
(-16.4179 0.469184 0)
(-16.8838 0.212739 0)
(-16.9018 -0.0338089 0)
(-16.389 -0.268527 0)
(-15.3033 -0.471165 0)
(-13.7459 -0.647519 0)
(-11.6052 -0.922748 0)
(-8.05468 -1.37149 0)
(-2.51172 -1.72911 0)
(3.86624 -1.67935 0)
(9.54016 -1.31841 0)
(13.9214 -0.921778 0)
(17.0258 -0.61842 0)
(19.1761 -0.414237 0)
(20.6617 -0.292699 0)
(21.8161 -0.205789 0)
(22.5666 -0.192383 0)
(23.7354 -0.122111 0)
(-14.9755 0.78705 0)
(-15.8075 0.490557 0)
(-16.259 0.220098 0)
(-16.266 -0.0405051 0)
(-15.7424 -0.288959 0)
(-14.6452 -0.503045 0)
(-13.0825 -0.688811 0)
(-10.9458 -0.980599 0)
(-7.39118 -1.45771 0)
(-1.83243 -1.83519 0)
(4.51205 -1.77904 0)
(10.1568 -1.39543 0)
(14.5083 -0.974894 0)
(17.5843 -0.652961 0)
(19.7065 -0.436396 0)
(21.1651 -0.307491 0)
(22.2887 -0.215805 0)
(23.0173 -0.201318 0)
(24.1388 -0.127673 0)
(-14.3675 0.822951 0)
(-15.1805 0.511758 0)
(-15.62 0.22723 0)
(-15.618 -0.0476142 0)
(-15.0846 -0.310053 0)
(-13.976 -0.535729 0)
(-12.4077 -0.730891 0)
(-10.2747 -1.03952 0)
(-6.71411 -1.54571 0)
(-1.14018 -1.94309 0)
(5.17067 -1.88003 0)
(10.7836 -1.47341 0)
(15.1025 -1.02856 0)
(18.1479 -0.687759 0)
(20.2412 -0.458623 0)
(21.6728 -0.322229 0)
(22.7665 -0.22573 0)
(23.4735 -0.21008 0)
(24.5491 -0.133121 0)
(-13.7417 0.85866 0)
(-14.5383 0.53286 0)
(-14.9682 0.234194 0)
(-14.959 -0.0550996 0)
(-14.4168 -0.331808 0)
(-13.2966 -0.569241 0)
(-11.7221 -0.773785 0)
(-9.59247 -1.09953 0)
(-6.02322 -1.63554 0)
(-0.435422 -2.05282 0)
(5.8422 -1.98231 0)
(11.4203 -1.55229 0)
(15.7031 -1.08274 0)
(18.7152 -0.722779 0)
(20.7781 -0.480902 0)
(22.1825 -0.336907 0)
(23.247 -0.235561 0)
(23.9328 -0.218666 0)
(24.9639 -0.138456 0)
(-13.0994 0.894253 0)
(-13.8821 0.553936 0)
(-14.3047 0.241053 0)
(-14.2901 -0.062929 0)
(-13.7401 -0.354228 0)
(-12.6079 -0.603611 0)
(-11.0267 -0.817519 0)
(-8.89956 -1.16071 0)
(-5.31817 -1.72725 0)
(0.281727 -2.16441 0)
(6.52659 -2.08587 0)
(12.0664 -1.63202 0)
(16.3091 -1.13736 0)
(19.2848 -0.757981 0)
(21.3155 -0.503211 0)
(22.6919 -0.351515 0)
(23.7278 -0.245298 0)
(24.3924 -0.227075 0)
(25.3807 -0.143681 0)
(-12.4416 0.929808 0)
(-13.2129 0.575065 0)
(-13.6303 0.247865 0)
(-13.6122 -0.0710717 0)
(-13.0551 -0.377323 0)
(-11.9108 -0.638873 0)
(-10.3219 -0.86213 0)
(-8.1965 -1.22312 0)
(-4.59855 -1.8209 0)
(1.01129 -2.27785 0)
(7.22368 -2.19069 0)
(12.7215 -1.71253 0)
(16.9195 -1.19236 0)
(19.8552 -0.793322 0)
(21.8516 -0.525524 0)
(23.1989 -0.366044 0)
(24.2064 -0.254935 0)
(24.85 -0.235307 0)
(25.797 -0.148798 0)
(-11.7691 0.965406 0)
(-12.5313 0.596322 0)
(-12.9458 0.254692 0)
(-12.9257 -0.0794963 0)
(-12.3625 -0.401102 0)
(-11.2055 -0.675064 0)
(-9.60812 -0.907654 0)
(-7.48374 -1.28685 0)
(-3.86394 -1.91656 0)
(1.75336 -2.39318 0)
(7.93327 -2.29676 0)
(13.3848 -1.79376 0)
(17.5335 -1.24768 0)
(20.425 -0.82875 0)
(22.3846 -0.547809 0)
(23.7015 -0.380479 0)
(24.6806 -0.264467 0)
(25.303 -0.243361 0)
(26.2104 -0.153807 0)
(-11.0826 1.00113 0)
(-11.8381 0.617783 0)
(-12.2514 0.261591 0)
(-12.2308 -0.0881708 0)
(-11.6626 -0.425573 0)
(-10.4927 -0.712224 0)
(-8.88578 -0.954133 0)
(-6.76163 -1.352 0)
(-3.114 -2.01428 0)
(2.50808 -2.5104 0)
(8.65516 -2.40403 0)
(14.0559 -1.87563 0)
(18.1498 -1.30324 0)
(20.9929 -0.864206 0)
(22.9127 -0.57003 0)
(24.1976 -0.3948 0)
(25.1481 -0.273885 0)
(25.7492 -0.251235 0)
(26.6184 -0.158714 0)
(-10.3827 1.03706 0)
(-11.1333 0.639521 0)
(-11.5472 0.268621 0)
(-11.5277 -0.0970615 0)
(-10.9552 -0.450744 0)
(-9.77226 -0.750393 0)
(-8.15507 -1.00161 0)
(-6.03039 -1.41868 0)
(-2.3485 -2.1142 0)
(3.27567 -2.62947 0)
(9.38911 -2.51247 0)
(14.7339 -1.95803 0)
(18.7673 -1.35894 0)
(21.5573 -0.899621 0)
(23.4343 -0.592142 0)
(24.6854 -0.408985 0)
(25.6068 -0.283178 0)
(26.1863 -0.258924 0)
(27.0187 -0.163518 0)
(-9.66961 1.07329 0)
(-10.4172 0.661602 0)
(-10.833 0.275835 0)
(-10.8158 -0.106134 0)
(-10.2402 -0.476615 0)
(-9.04438 -0.789606 0)
(-7.41612 -1.05012 0)
(-5.29006 -1.48701 0)
(-1.56808 -2.21643 0)
(4.05696 -2.75037 0)
(10.1349 -2.62202 0)
(15.4179 -2.04087 0)
(19.3846 -1.41468 0)
(22.1167 -0.934922 0)
(23.9475 -0.614099 0)
(25.1628 -0.423009 0)
(26.0547 -0.292332 0)
(26.6121 -0.266426 0)
(27.4091 -0.168224 0)
(-8.94365 1.10987 0)
(-9.68959 0.684087 0)
(-10.1084 0.28328 0)
(-10.0946 -0.115353 0)
(-9.51712 -0.503182 0)
(-8.30886 -0.829895 0)
(-6.66907 -1.0997 0)
(-4.54039 -1.5571 0)
(-0.77382 -2.32101 0)
(4.85304 -2.87315 0)
(10.8921 -2.73261 0)
(16.1068 -2.12402 0)
(20.0003 -1.47036 0)
(22.6692 -0.970027 0)
(24.4505 -0.635849 0)
(25.628 -0.436842 0)
(26.4897 -0.301334 0)
(27.0246 -0.273735 0)
(27.7873 -0.172833 0)
(-8.20483 1.14688 0)
(-8.95028 0.707026 0)
(-9.37287 0.290997 0)
(-9.36324 -0.124683 0)
(-8.78513 -0.530432 0)
(-7.56533 -0.87128 0)
(-5.91403 -1.15042 0)
(-3.78088 -1.62907 0)
(0.0340385 -2.4281 0)
(5.6643 -2.99781 0)
(11.6604 -2.84413 0)
(16.7995 -2.20733 0)
(20.6127 -1.52584 0)
(23.2131 -1.00485 0)
(24.9414 -0.657335 0)
(26.0791 -0.450455 0)
(26.9098 -0.310168 0)
(27.4218 -0.280845 0)
(28.1515 -0.177347 0)
(-7.45309 1.18438 0)
(-8.19886 0.730459 0)
(-8.62561 0.299017 0)
(-8.62077 -0.134091 0)
(-8.04324 -0.558344 0)
(-6.81325 -0.913767 0)
(-5.15119 -1.20231 0)
(-3.01079 -1.70298 0)
(0.85564 -2.53783 0)
(6.49083 -3.12433 0)
(12.439 -2.95646 0)
(17.4947 -2.29065 0)
(21.2201 -1.58099 0)
(23.7464 -1.03929 0)
(25.4181 -0.6785 0)
(26.5141 -0.463815 0)
(27.3132 -0.318816 0)
(27.8018 -0.28775 0)
(28.4997 -0.181767 0)
(-6.68826 1.22241 0)
(-7.43485 0.754415 0)
(-7.86579 0.307361 0)
(-7.86599 -0.143548 0)
(-7.29026 -0.586887 0)
(-6.05183 -0.957342 0)
(-4.38073 -1.25542 0)
(-2.22919 -1.77896 0)
(1.69132 -2.65034 0)
(7.33265 -3.2527 0)
(13.2273 -3.06945 0)
(18.1909 -2.3738 0)
(21.8205 -1.63566 0)
(24.2671 -1.07325 0)
(25.8788 -0.699282 0)
(26.931 -0.47689 0)
(27.698 -0.327263 0)
(28.1629 -0.294446 0)
(28.8302 -0.186096 0)
(-5.91009 1.26102 0)
(-6.65773 0.778908 0)
(-7.09254 0.316038 0)
(-7.0977 -0.153029 0)
(-6.52486 -0.616026 0)
(-5.28011 -1.00197 0)
(-3.60286 -1.30982 0)
(-1.43513 -1.85728 0)
(2.54151 -2.76561 0)
(8.18974 -3.3829 0)
(14.0242 -3.18292 0)
(18.8863 -2.45656 0)
(22.4119 -1.68969 0)
(24.773 -1.10662 0)
(26.3214 -0.71962 0)
(27.3282 -0.489647 0)
(28.0624 -0.335492 0)
(28.5034 -0.300927 0)
(29.1414 -0.190336 0)
(-5.11828 1.30023 0)
(-5.86692 0.803941 0)
(-6.305 0.325042 0)
(-6.31471 -0.162517 0)
(-5.74566 -0.645717 0)
(-4.49697 -1.04758 0)
(-2.8177 -1.36555 0)
(-0.627791 -1.93806 0)
(3.4069 -2.88379 0)
(9.06203 -3.51487 0)
(14.8288 -3.29669 0)
(19.5791 -2.53873 0)
(22.9921 -1.7429 0)
(25.2618 -1.1393 0)
(26.7438 -0.73945 0)
(27.7036 -0.502055 0)
(28.4049 -0.34349 0)
(28.822 -0.30719 0)
(29.4319 -0.19449 0)
(-4.31248 1.34006 0)
(-5.06189 0.829508 0)
(-5.50238 0.334357 0)
(-5.51591 -0.172005 0)
(-4.95133 -0.675918 0)
(-3.70129 -1.09408 0)
(-2.02526 -1.42267 0)
(0.193405 -2.02138 0)
(4.28837 -3.00503 0)
(9.94939 -3.64853 0)
(15.6397 -3.41052 0)
(20.2673 -2.62006 0)
(23.5587 -1.79512 0)
(25.7315 -1.17116 0)
(27.1439 -0.758711 0)
(28.0555 -0.514086 0)
(28.7238 -0.351243 0)
(29.1171 -0.313234 0)
(29.7006 -0.198563 0)
(-3.49233 1.38053 0)
(-4.24213 0.855593 0)
(-4.68402 0.343954 0)
(-4.70039 -0.181496 0)
(-4.14061 -0.706583 0)
(-2.89205 -1.14135 0)
(-1.22531 -1.48122 0)
(1.02912 -2.10749 0)
(5.18672 -3.12938 0)
(10.8516 -3.78379 0)
(16.4555 -3.52415 0)
(20.9485 -2.70027 0)
(24.1092 -1.84614 0)
(26.1796 -1.2021 0)
(27.5199 -0.777343 0)
(28.3825 -0.525711 0)
(29.0179 -0.358743 0)
(29.3879 -0.31906 0)
(29.9465 -0.20256 0)
(-2.65743 1.42163 0)
(-3.40716 0.88217 0)
(-3.84939 0.353798 0)
(-3.8674 -0.191003 0)
(-3.31241 -0.737666 0)
(-2.0685 -1.18929 0)
(-0.417155 -1.54119 0)
(1.87992 -2.19664 0)
(6.10272 -3.25691 0)
(11.7683 -3.9205 0)
(17.2743 -3.63727 0)
(21.6202 -2.77908 0)
(24.641 -1.89576 0)
(26.6039 -1.232 0)
(27.8699 -0.79529 0)
(28.6829 -0.53691 0)
(29.2859 -0.365984 0)
(29.6333 -0.324674 0)
(30.1688 -0.206488 0)
(-1.80735 1.46339 0)
(-2.55656 0.909216 0)
(-2.99808 0.363844 0)
(-3.01647 -0.200553 0)
(-2.46576 -0.769116 0)
(-1.23029 -1.23778 0)
(0.402132 -1.6026 0)
(2.74501 -2.289 0)
(7.03714 -3.38769 0)
(12.6989 -4.05846 0)
(18.0942 -3.74955 0)
(22.2797 -2.85617 0)
(25.1516 -1.94378 0)
(27.0023 -1.26074 0)
(28.1923 -0.812499 0)
(28.9556 -0.547666 0)
(29.5271 -0.372964 0)
(29.8527 -0.330082 0)
(30.3673 -0.210357 0)
(-0.941622 1.50578 0)
(-1.68993 0.936706 0)
(-2.12985 0.374049 0)
(-2.14737 -0.210185 0)
(-1.59987 -0.800878 0)
(-0.377498 -1.2866 0)
(1.23458 -1.66559 0)
(3.62468 -2.38476 0)
(7.99079 -3.5218 0)
(13.6427 -4.19745 0)
(18.9128 -3.86059 0)
(22.9242 -2.93121 0)
(25.6383 -1.98998 0)
(27.3727 -1.28821 0)
(28.4856 -0.828929 0)
(29.1998 -0.557966 0)
(29.7408 -0.379687 0)
(30.0458 -0.335298 0)
(30.5416 -0.214175 0)
(-0.0596006 1.54884 0)
(-0.806857 0.964632 0)
(-1.24451 0.384379 0)
(-1.26006 -0.219928 0)
(-0.714148 -0.832906 0)
(0.489869 -1.33563 0)
(2.08097 -1.7302 0)
(4.51997 -2.4841 0)
(8.96452 -3.65929 0)
(14.5987 -4.33718 0)
(19.7276 -3.96996 0)
(23.5504 -3.00384 0)
(26.0985 -2.03416 0)
(27.7133 -1.31433 0)
(28.7488 -0.844542 0)
(29.4147 -0.567807 0)
(29.9268 -0.386159 0)
(30.2127 -0.340337 0)
(30.6921 -0.217958 0)
(0.839236 1.59257 0)
(0.0931527 0.992972 0)
(-0.341917 0.394834 0)
(-0.354595 -0.229801 0)
(0.191609 -0.865147 0)
(1.37215 -1.3849 0)
(2.9413 -1.79637 0)
(5.43223 -2.58722 0)
(9.95917 -3.80018 0)
(15.5655 -4.4773 0)
(20.5354 -4.07718 0)
(24.1553 -3.07369 0)
(26.5296 -2.0761 0)
(28.0224 -1.339 0)
(28.981 -0.859315 0)
(29.6002 -0.577193 0)
(30.0853 -0.392395 0)
(30.3536 -0.34522 0)
(30.8191 -0.221717 0)
(1.75526 1.63695 0)
(1.01039 1.02174 0)
(0.578089 0.405342 0)
(0.569051 -0.239989 0)
(1.11634 -0.897455 0)
(2.26996 -1.43423 0)
(3.81555 -1.86422 0)
(6.36299 -2.69434 0)
(10.9755 -3.94444 0)
(16.5415 -4.61738 0)
(21.333 -4.18173 0)
(24.7354 -3.14039 0)
(26.9293 -2.11562 0)
(28.299 -1.36214 0)
(29.1819 -0.873235 0)
(29.7566 -0.586136 0)
(30.2167 -0.398414 0)
(30.4694 -0.349969 0)
(30.9235 -0.225469 0)
(2.68894 1.68195 0)
(1.94528 1.05093 0)
(1.51564 0.415892 0)
(1.51087 -0.250437 0)
(2.05896 -0.929877 0)
(3.18327 -1.48351 0)
(4.70373 -1.93384 0)
(7.31395 -2.8057 0)
(12.0142 -4.09201 0)
(17.5244 -4.75691 0)
(22.1166 -4.28304 0)
(25.2875 -3.20355 0)
(27.2956 -2.15253 0)
(28.5421 -1.38371 0)
(29.3515 -0.886305 0)
(29.8844 -0.594656 0)
(30.322 -0.404239 0)
(30.5612 -0.354611 0)
(31.0064 -0.229232 0)
(3.64071 1.72754 0)
(2.89836 1.08054 0)
(2.47106 0.426483 0)
(2.47078 -0.261162 0)
(3.01872 -0.962333 0)
(4.11143 -1.53265 0)
(5.6059 -2.00538 0)
(8.28707 -2.92157 0)
(13.0758 -4.24275 0)
(18.5117 -4.8953 0)
(22.8824 -4.38049 0)
(25.8083 -3.2628 0)
(27.6267 -2.18668 0)
(28.7515 -1.40368 0)
(29.4906 -0.898542 0)
(29.9848 -0.602784 0)
(30.4026 -0.409899 0)
(30.6304 -0.359177 0)
(31.0694 -0.233022 0)
(4.61085 1.77368 0)
(3.87015 1.1106 0)
(3.44478 0.437123 0)
(3.44878 -0.272152 0)
(3.9951 -0.994726 0)
(5.0535 -1.58158 0)
(6.52224 -2.07903 0)
(9.28454 -3.04223 0)
(14.1604 -4.39641 0)
(19.5001 -5.03186 0)
(23.6258 -4.47345 0)
(26.2946 -3.31777 0)
(27.9214 -2.21794 0)
(28.9273 -1.42202 0)
(29.6003 -0.90998 0)
(30.0595 -0.610558 0)
(30.4602 -0.415429 0)
(30.6789 -0.363697 0)
(31.1141 -0.236858 0)
(5.59939 1.82025 0)
(4.86116 1.14112 0)
(4.43727 0.44783 0)
(4.44498 -0.283369 0)
(4.98755 -1.02695 0)
(6.00827 -1.63022 0)
(7.45316 -2.15504 0)
(10.3089 -3.16798 0)
(15.2678 -4.55267 0)
(20.4856 -5.16579 0)
(24.3424 -4.56123 0)
(26.7436 -3.36814 0)
(28.1787 -2.24623 0)
(29.0704 -1.43878 0)
(29.6822 -0.920667 0)
(30.1105 -0.618025 0)
(30.4972 -0.420865 0)
(30.7089 -0.368204 0)
(31.1424 -0.240759 0)
(6.60596 1.86709 0)
(5.87173 1.17207 0)
(5.44898 0.458632 0)
(5.4595 -0.294743 0)
(5.9954 -1.05885 0)
(6.97438 -1.67854 0)
(8.39945 -2.23377 0)
(11.3628 -3.29909 0)
(16.3972 -4.71106 0)
(21.4637 -5.2962 0)
(25.0273 -4.64316 0)
(27.1526 -3.41361 0)
(28.3988 -2.2715 0)
(29.1822 -1.45398 0)
(29.7385 -0.930669 0)
(30.1404 -0.625238 0)
(30.5159 -0.426245 0)
(30.7228 -0.37273 0)
(31.1566 -0.24474 0)
(7.62956 1.91393 0)
(6.90191 1.20343 0)
(6.48023 0.469564 0)
(6.49228 -0.306178 0)
(7.01764 -1.09024 0)
(7.95028 -1.7265 0)
(9.36248 -2.31565 0)
(12.4495 -3.43586 0)
(17.547 -4.87098 0)
(22.4291 -5.42209 0)
(25.6759 -4.71855 0)
(27.5197 -3.45393 0)
(28.582 -2.29375 0)
(29.2649 -1.46773 0)
(29.7721 -0.940066 0)
(30.1519 -0.632255 0)
(30.5191 -0.43161 0)
(30.7231 -0.377305 0)
(31.1589 -0.248819 0)
(8.6682 1.96041 0)
(7.9512 1.2351 0)
(7.53099 0.480661 0)
(7.54296 -0.317535 0)
(8.05274 -1.12089 0)
(8.93433 -1.77415 0)
(10.3445 -2.40125 0)
(13.5722 -3.57848 0)
(18.7149 -5.03162 0)
(23.3756 -5.54236 0)
(26.2833 -4.78674 0)
(27.8436 -3.48893 0)
(28.7297 -2.31304 0)
(29.321 -1.48012 0)
(29.7859 -0.948947 0)
(30.1482 -0.639137 0)
(30.5097 -0.436998 0)
(30.7126 -0.381957 0)
(31.1516 -0.253009 0)
(9.71837 2.00598 0)
(9.01817 1.26692 0)
(8.60061 0.491956 0)
(8.61049 -0.328633 0)
(9.09852 -1.15054 0)
(9.92496 -1.82161 0)
(11.3487 -2.49126 0)
(14.734 -3.7271 0)
(19.8971 -5.19198 0)
(24.2963 -5.65583 0)
(26.8451 -4.84713 0)
(28.1237 -3.5185 0)
(28.8441 -2.32949 0)
(29.3538 -1.49129 0)
(29.7834 -0.957412 0)
(30.1325 -0.645944 0)
(30.4906 -0.442446 0)
(30.6939 -0.386712 0)
(31.137 -0.257322 0)
(10.7744 2.04987 0)
(10.0999 1.29863 0)
(9.68735 0.503464 0)
(9.69286 -0.33924 0)
(10.1519 -1.17889 0)
(10.9209 -1.86916 0)
(12.3798 -2.58648 0)
(15.9381 -3.88171 0)
(21.0886 -5.35081 0)
(25.1839 -5.76126 0)
(27.3574 -4.89919 0)
(28.3603 -3.54265 0)
(28.9279 -2.34326 0)
(29.3669 -1.5014 0)
(29.7682 -0.965564 0)
(30.108 -0.652736 0)
(30.4647 -0.447987 0)
(30.6695 -0.391587 0)
(31.1173 -0.261767 0)
(11.8275 2.09104 0)
(11.1913 1.32983 0)
(10.7878 0.515172 0)
(10.7866 -0.34909 0)
(11.209 -1.20569 0)
(11.9218 -1.91726 0)
(13.4442 -2.68788 0)
(17.1866 -4.04207 0)
(22.2825 -5.50664 0)
(26.0303 -5.85738 0)
(27.817 -4.94248 0)
(28.5548 -3.56147 0)
(28.9846 -2.35457 0)
(29.3643 -1.51062 0)
(29.7439 -0.973506 0)
(30.078 -0.659566 0)
(30.4348 -0.453649 0)
(30.642 -0.396598 0)
(31.0945 -0.266349 0)
(12.8659 2.12817 0)
(12.2843 1.35988 0)
(11.8963 0.527003 0)
(11.8864 -0.357898 0)
(12.2651 -1.23076 0)
(12.9287 -1.96668 0)
(14.5499 -2.79646 0)
(18.4805 -4.20768 0)
(23.4702 -5.65771 0)
(26.8275 -5.94294 0)
(28.2215 -4.97671 0)
(28.7095 -3.57515 0)
(29.0183 -2.36369 0)
(29.3499 -1.51912 0)
(29.714 -0.981338 0)
(30.0452 -0.666482 0)
(30.4033 -0.459453 0)
(30.6132 -0.401754 0)
(31.0704 -0.271072 0)
(13.8754 2.15977 0)
(13.3674 1.38795 0)
(13.0042 0.538773 0)
(12.9849 -0.365426 0)
(13.3153 -1.25411 0)
(13.9455 -2.01853 0)
(15.707 -2.91329 0)
(19.8187 -4.37761 0)
(24.641 -5.80203 0)
(27.5673 -6.01675 0)
(28.5701 -5.00176 0)
(28.8277 -3.584 0)
(29.0335 -2.37091 0)
(29.3279 -1.5271 0)
(29.6817 -0.989147 0)
(30.0122 -0.673521 0)
(30.3722 -0.465414 0)
(30.5852 -0.407058 0)
(31.0463 -0.275936 0)
(14.8428 2.18455 0)
(14.4264 1.41298 0)
(14.1 0.550137 0)
(14.0731 -0.371571 0)
(14.356 -1.27611 0)
(14.9797 -2.07432 0)
(16.9263 -3.03933 0)
(21.197 -4.55046 0)
(25.7824 -5.93738 0)
(28.2424 -6.07776 0)
(28.863 -5.01768 0)
(28.9139 -3.58842 0)
(29.0348 -2.37654 0)
(29.3019 -1.53471 0)
(29.6497 -0.997009 0)
(29.9811 -0.680711 0)
(30.3432 -0.471541 0)
(30.559 -0.412508 0)
(31.0235 -0.280938 0)
(15.7622 2.20201 0)
(15.4477 1.43388 0)
(15.171 0.560559 0)
(15.1419 -0.376502 0)
(15.3863 -1.2976 0)
(16.0438 -2.13599 0)
(18.2188 -3.17526 0)
(22.6076 -4.72424 0)
(26.8801 -6.06142 0)
(28.8465 -6.12513 0)
(29.1023 -5.02474 0)
(28.9729 -3.58889 0)
(29.0268 -2.38091 0)
(29.2752 -1.54212 0)
(29.6203 -1.00498 0)
(29.9535 -0.688068 0)
(30.3175 -0.477835 0)
(30.5359 -0.418099 0)
(31.0029 -0.286075 0)
(16.6442 2.21334 0)
(16.4239 1.44994 0)
(16.2065 0.569347 0)
(16.185 -0.380799 0)
(16.4116 -1.32011 0)
(17.1562 -2.20583 0)
(19.5936 -3.32124 0)
(24.0374 -4.89632 0)
(27.9187 -6.17175 0)
(29.3749 -6.15827 0)
(29.2916 -5.02339 0)
(29.0103 -3.58594 0)
(29.014 -2.38433 0)
(29.2507 -1.54945 0)
(29.5952 -1.01311 0)
(29.9303 -0.695598 0)
(30.2958 -0.484293 0)
(30.5163 -0.423821 0)
(30.9848 -0.291341 0)
(17.5241 2.22218 0)
(17.3622 1.46135 0)
(17.2049 0.575811 0)
(17.2042 -0.38555 0)
(17.4461 -1.34588 0)
(18.3406 -2.28621 0)
(21.0553 -3.47663 0)
(25.4685 -5.06343 0)
(28.8826 -6.26606 0)
(29.8251 -6.17698 0)
(29.4358 -5.01429 0)
(29.0318 -3.58014 0)
(28.9999 -2.38708 0)
(29.2303 -1.5568 0)
(29.5753 -1.02141 0)
(29.9121 -0.703299 0)
(30.2785 -0.490906 0)
(30.5004 -0.429664 0)
(30.9696 -0.296731 0)
(18.4656 2.23495 0)
(18.2938 1.46989 0)
(18.1811 0.579572 0)
(18.2148 -0.392325 0)
(18.5163 -1.37777 0)
(19.6234 -2.37923 0)
(22.6007 -3.63968 0)
(26.8774 -5.22171 0)
(29.757 -6.34233 0)
(30.1973 -6.1814 0)
(29.5414 -4.99828 0)
(29.0428 -3.57208 0)
(28.9879 -2.3894 0)
(29.2154 -1.56424 0)
(29.5611 -1.02989 0)
(29.899 -0.711159 0)
(30.2654 -0.497664 0)
(30.4881 -0.435615 0)
(30.9572 -0.302238 0)
(19.5537 2.26019 0)
(19.2771 1.47927 0)
(19.1733 0.58095 0)
(19.2509 -0.402946 0)
(19.6604 -1.41891 0)
(21.0293 -2.48609 0)
(24.2162 -3.80728 0)
(28.2363 -5.36699 0)
(30.5294 -6.39896 0)
(30.4945 -6.17213 0)
(29.6155 -4.97628 0)
(29.0485 -3.56227 0)
(28.9802 -2.39148 0)
(29.2068 -1.5718 0)
(29.5526 -1.03855 0)
(29.8906 -0.719164 0)
(30.2562 -0.504553 0)
(30.4793 -0.441664 0)
(30.9474 -0.307857 0)
(20.8748 2.30662 0)
(20.3925 1.49486 0)
(20.244 0.581274 0)
(20.3655 -0.419062 0)
(20.9249 -1.47195 0)
(22.5736 -2.60645 0)
(25.8757 -3.97491 0)
(29.5152 -5.49499 0)
(31.191 -6.43498 0)
(30.7228 -6.15014 0)
(29.6658 -4.94933 0)
(29.0531 -3.55122 0)
(28.9782 -2.39345 0)
(29.2043 -1.5795 0)
(29.5493 -1.04735 0)
(29.8863 -0.727293 0)
(30.2504 -0.511562 0)
(30.4733 -0.447799 0)
(30.9399 -0.313584 0)
(22.4869 2.38035 0)
(21.7237 1.52261 0)
(21.4702 0.582889 0)
(21.6234 -0.441586 0)
(22.3542 -1.53821 0)
(24.2548 -2.73782 0)
(27.5403 -4.13679 0)
(30.6838 -5.60182 0)
(31.7374 -6.45019 0)
(30.8903 -6.11678 0)
(29.6996 -4.91842 0)
(29.06 -3.5393 0)
(28.9826 -2.3954 0)
(29.2077 -1.5873 0)
(29.5505 -1.05628 0)
(29.8855 -0.735528 0)
(30.2475 -0.518678 0)
(30.4697 -0.454012 0)
(30.9344 -0.319415 0)
(24.3908 2.48223 0)
(23.3292 1.56711 0)
(22.9231 0.588685 0)
(23.0847 -0.47019 0)
(23.9753 -1.61684 0)
(26.0474 -2.87533 0)
(29.161 -4.28642 0)
(31.7159 -5.68434 0)
(32.1704 -6.44521 0)
(31.0074 -6.07365 0)
(29.7238 -4.88453 0)
(29.0713 -3.52684 0)
(28.9933 -2.39735 0)
(29.216 -1.5952 0)
(29.5553 -1.06529 0)
(29.8874 -0.743849 0)
(30.2467 -0.525891 0)
(30.4679 -0.460295 0)
(30.9304 -0.325347 0)
(26.5173 2.60649 0)
(25.2134 1.62966 0)
(24.6399 0.601182 0)
(24.7814 -0.503091 0)
(25.7832 -1.70428 0)
(27.8997 -3.01195 0)
(30.6835 -4.41724 0)
(32.5919 -5.74058 0)
(32.497 -6.42148 0)
(31.0851 -6.02249 0)
(29.7438 -4.84848 0)
(29.0882 -3.51403 0)
(29.0097 -2.39929 0)
(29.2285 -1.60313 0)
(29.5629 -1.07437 0)
(29.8913 -0.75224 0)
(30.2475 -0.533193 0)
(30.4675 -0.466645 0)
(30.9276 -0.331379 0)
(28.7355 2.74151 0)
(27.3117 1.70707 0)
(26.6001 0.621471 0)
(26.6969 -0.537311 0)
(27.7297 -1.79461 0)
(29.7381 -3.13947 0)
(32.0555 -4.52361 0)
(33.3019 -5.77004 0)
(32.7291 -6.38113 0)
(31.1345 -5.96508 0)
(29.764 -4.81098 0)
(29.111 -3.50099 0)
(29.0309 -2.40119 0)
(29.244 -1.61105 0)
(29.5725 -1.08349 0)
(29.8966 -0.760687 0)
(30.2494 -0.540579 0)
(30.468 -0.473057 0)
(30.9255 -0.337511 0)
(30.8832 2.87256 0)
(29.497 1.79196 0)
(28.7166 0.648526 0)
(28.7559 -0.569392 0)
(29.7254 -1.88051 0)
(31.4768 -3.24979 0)
(33.2341 -4.60159 0)
(33.8471 -5.77375 0)
(32.8826 -6.3268 0)
(31.1655 -5.90306 0)
(29.7871 -4.77255 0)
(29.1393 -3.48777 0)
(29.0559 -2.40298 0)
(29.2617 -1.61892 0)
(29.5834 -1.09262 0)
(29.9028 -0.76918 0)
(30.2519 -0.548044 0)
(30.4691 -0.47953 0)
(30.9239 -0.343742 0)
(32.8052 2.98533 0)
(31.6086 1.8746 0)
(30.8506 0.679295 0)
(30.8343 -0.596282 0)
(31.6544 -1.95486 0)
(33.0327 -3.33641 0)
(34.1923 -4.64955 0)
(34.2392 -5.75416 0)
(32.9746 -6.26134 0)
(31.1863 -5.83785 0)
(29.8143 -4.73354 0)
(29.1721 -3.47435 0)
(29.0836 -2.40461 0)
(29.2809 -1.6267 0)
(29.5951 -1.10173 0)
(29.9095 -0.77771 0)
(30.2549 -0.555586 0)
(30.4705 -0.486064 0)
(30.9227 -0.350074 0)
(34.3866 3.06909 0)
(33.4917 1.9454 0)
(32.8442 0.709581 0)
(32.7869 -0.616006 0)
(33.398 -2.01215 0)
(34.3406 -3.39552 0)
(34.9228 -4.66835 0)
(34.4987 -5.71476 0)
(33.0223 -6.18757 0)
(31.2031 -5.77062 0)
(29.8461 -4.69416 0)
(29.2085 -3.46068 0)
(29.1132 -2.40601 0)
(29.301 -1.63435 0)
(29.6072 -1.11083 0)
(29.9165 -0.786273 0)
(30.258 -0.563202 0)
(30.4721 -0.492658 0)
(30.9216 -0.356506 0)
(35.5728 3.11849 0)
(35.0325 1.9972 0)
(34.5589 0.735281 0)
(34.4819 -0.627925 0)
(34.8611 -2.04951 0)
(35.3642 -3.4265 0)
(35.4379 -4.66101 0)
(34.6513 -5.65963 0)
(33.0409 -6.10803 0)
(31.2198 -5.7022 0)
(29.8818 -4.65451 0)
(29.2473 -3.44671 0)
(29.1439 -2.40715 0)
(29.3216 -1.64186 0)
(29.6197 -1.11989 0)
(29.9236 -0.794863 0)
(30.2613 -0.570892 0)
(30.4738 -0.499312 0)
(30.9206 -0.363039 0)
(36.37 3.13379 0)
(36.1777 2.02654 0)
(35.9067 0.753433 0)
(35.8313 -0.63258 0)
(35.9906 -2.0669 0)
(36.1006 -3.43165 0)
(35.7661 -4.6321 0)
(34.7243 -5.59293 0)
(33.0424 -6.02481 0)
(31.2383 -5.63316 0)
(29.9207 -4.61459 0)
(29.2877 -3.43237 0)
(29.1752 -2.40798 0)
(29.3425 -1.64921 0)
(29.6323 -1.12892 0)
(29.9309 -0.803478 0)
(30.2646 -0.578653 0)
(30.4755 -0.506027 0)
(30.9196 -0.369674 0)
(36.8326 3.11967 0)
(36.9367 2.03377 0)
(36.862 0.762733 0)
(36.8044 -0.631306 0)
(36.7812 -2.06659 0)
(36.5772 -3.41534 0)
(35.9456 -4.58682 0)
(34.743 -5.51838 0)
(33.0355 -5.93953 0)
(31.2594 -5.56385 0)
(29.9616 -4.5744 0)
(29.3289 -3.41762 0)
(29.2069 -2.40848 0)
(29.3636 -1.65637 0)
(29.645 -1.13789 0)
(29.9382 -0.812113 0)
(30.2679 -0.586486 0)
(30.4773 -0.512801 0)
(30.9185 -0.376411 0)
(37.0421 3.08327 0)
(37.3665 2.02215 0)
(37.4567 0.763481 0)
(37.4256 -0.625776 0)
(37.2691 -2.05231 0)
(36.8417 -3.38293 0)
(36.0173 -4.53026 0)
(34.7283 -5.43906 0)
(33.0258 -5.85326 0)
(31.2828 -5.49442 0)
(30.0037 -4.53389 0)
(29.3704 -3.40241 0)
(29.2387 -2.40861 0)
(29.3848 -1.66335 0)
(29.6579 -1.14681 0)
(29.9456 -0.820767 0)
(30.2713 -0.594387 0)
(30.479 -0.519636 0)
(30.9174 -0.383249 0)
(37.0842 3.03225 0)
(37.5498 1.99649 0)
(37.7606 0.757125 0)
(37.7574 -0.617602 0)
(37.517 -2.02822 0)
(36.9508 -3.33969 0)
(36.0185 -4.4667 0)
(34.6958 -5.35719 0)
(33.0159 -5.76667 0)
(31.3077 -5.42494 0)
(30.0464 -4.49302 0)
(29.412 -3.38672 0)
(29.2706 -2.40838 0)
(29.4062 -1.67013 0)
(29.6708 -1.15567 0)
(29.953 -0.829435 0)
(30.2747 -0.602357 0)
(30.4807 -0.52653 0)
(30.9162 -0.39019 0)
(37.0327 2.97318 0)
(37.5724 1.96179 0)
(37.859 0.745644 0)
(37.8799 -0.608083 0)
(37.596 -1.9981 0)
(36.9581 -3.29004 0)
(35.979 -4.39936 0)
(34.6554 -5.27423 0)
(33.0071 -5.68013 0)
(31.3334 -5.35542 0)
(30.089 -4.45177 0)
(29.4536 -3.37054 0)
(29.3025 -2.40777 0)
(29.4277 -1.6767 0)
(29.684 -1.16447 0)
(29.9606 -0.838114 0)
(30.2781 -0.610393 0)
(30.4824 -0.533482 0)
(30.915 -0.397231 0)
(36.9402 2.91079 0)
(37.5063 1.92225 0)
(37.8317 0.73099 0)
(37.8702 -0.598098 0)