/*--------------------------------*- C++ -*----------------------------------*\
| =========                 |                                                 |
| \\      /  F ield         | OpenFOAM: The Open Source CFD Toolbox           |
|  \\    /   O peration     | Version:  v1912                                 |
|   \\  /    A nd           | Website:  www.openfoam.com                      |
|    \\/     M anipulation  |                                                 |
\*---------------------------------------------------------------------------*/
FoamFile
{
    version     2.0;
    format      ascii;
    class       volScalarField;
    location    "350";
    object      p;
}
// * * * * * * * * * * * * * * * * * * * * * * * * * * * * * * * * * * * * * //

dimensions      [0 2 -2 0 0 0 0];


internalField   nonuniform List<scalar> 
2000
(
-0.0451388
0.0722725
0.126853
0.119964
0.104136
0.0978283
0.097222
0.098573
0.0987919
0.0985659
0.0987009
0.0983729
0.0981062
0.0980486
0.0980962
0.0980517
0.0979132
0.0978461
0.0978192
0.0978013
0.0977684
0.0977105
0.0976301
0.0975549
0.0975022
0.0974815
0.0974898
0.0975184
0.0975572
0.0975959
0.0976254
0.0976357
0.0976188
0.0975695
0.0974896
0.097388
0.0972787
0.097182
0.0971215
0.097118
0.0971855
0.097366
0.0976465
0.0979928
0.0983779
0.0987503
0.0990649
0.0992533
0.0992795
0.0991091
0.0987111
0.0980373
0.0969846
0.0953601
0.0928787
0.0892329
0.0842235
0.0779069
0.0708766
0.0647133
0.0616922
0.0631167
0.0699414
0.0813474
0.096012
0.112556
0.129834
0.146841
0.162601
0.176132
0.186666
0.193519
0.196135
0.193909
0.186242
0.172569
0.15178
0.123659
0.0825132
0.0408152
0.00810612
0.0932832
0.132101
0.118906
0.101166
0.0969639
0.100495
0.10293
0.100185
0.0969571
0.0965148
0.0978068
0.0982633
0.0981348
0.0982864
0.0980934
0.0978952
0.0977675
0.0977349
0.0977244
0.0977282
0.0977015
0.0976279
0.0975424
0.0974778
0.0974458
0.0974522
0.0974916
0.0975499
0.0976123
0.0976653
0.0976975
0.0976954
0.0976496
0.0975556
0.0974181
0.097255
0.0970945
0.0969725
0.0969294
0.0970046
0.0971867
0.0974916
0.0979171
0.0984223
0.0989584
0.0994489
0.0998059
0.0999576
0.0998579
0.0994586
0.0986439
0.0971558
0.0945303
0.0901083
0.0833481
0.074301
0.0638025
0.0537592
0.0476538
0.0489546
0.0561757
0.066796
0.0802943
0.0958612
0.112715
0.12991
0.146442
0.161364
0.173812
0.183024
0.188283
0.18898
0.18461
0.174671
0.158694
0.13577
0.106031
0.0654406
0.028987
0.0591715
0.0929698
0.115662
0.114104
0.104906
0.100728
0.100762
0.100126
0.0982306
0.0975667
0.0991538
0.100708
0.0996799
0.0971714
0.0962571
0.0971326
0.0980124
0.0981423
0.0979458
0.0978163
0.0977124
0.0976032
0.0975288
0.0974937
0.0974584
0.0974288
0.0974188
0.0974345
0.0974909
0.0975823
0.0976979
0.0978042
0.0978645
0.0978497
0.0977395
0.0975279
0.0972329
0.0968983
0.0965887
0.0963779
0.0963346
0.0965166
0.096959
0.0976315
0.0985066
0.0995013
0.1005
0.101369
0.10198
0.102206
0.101892
0.100826
0.0986782
0.0950083
0.0893558
0.0815787
0.0722347
0.062819
0.055399
0.0515923
0.0520003
0.057586
0.0674943
0.0804252
0.095294
0.111217
0.127247
0.14237
0.155642
0.166245
0.17349
0.176803
0.175727
0.169896
0.158948
0.142588
0.120212
0.09231
0.056103
0.0248001
0.0841566
0.0941705
0.10672
0.110799
0.108106
0.105086
0.103425
0.101696
0.10008
0.0992713
0.0990744
0.0989533
0.0985947
0.0978545
0.097294
0.0982145
0.0994317
0.0986834
0.0974828
0.0969878
0.0968782
0.0970555
0.0973311
0.09751
0.097583
0.0976013
0.0976128
0.097636
0.0976801
0.0977654
0.0978944
0.0980452
0.0981756
0.0982226
0.0981128
0.0978006
0.0972952
0.0966663
0.0960345
0.0955427
0.0952932
0.095431
0.0960777
0.0970732
0.0985121
0.100216
0.10196
0.103507
0.104627
0.105105
0.104731
0.103306
0.100581
0.0963178
0.0902962
0.0826995
0.0741694
0.0657414
0.0587712
0.0549678
0.0554513
0.060769
0.0701627
0.0823019
0.096054
0.110479
0.12465
0.137645
0.148645
0.156982
0.162122
0.163642
0.161199
0.154511
0.143302
0.127375
0.106329
0.0807396
0.0486667
0.0207835
0.0964957
0.100096
0.107615
0.111585
0.110455
0.108125
0.106744
0.105705
0.104404
0.102953
0.101594
0.100492
0.0997493
0.0988752
0.0978707
0.0978768
0.0984159
0.0986054
0.0983982
0.0978859
0.0974777
0.0973255
0.097367
0.097517
0.0976351
0.09767
0.0976049
0.0974691
0.0974178
0.0975336
0.0978074
0.0981632
0.0984906
0.0986736
0.0985971
0.0981867
0.0974387
0.0964527
0.0954281
0.0946301
0.0940584
0.0940066
0.0946279
0.0961151
0.09815
0.100507
0.102878
0.104926
0.106334
0.106834
0.10623
0.10437
0.101174
0.0965095
0.0903598
0.0829918
0.0751378
0.0678643
0.0624886
0.0602845
0.0618861
0.0672699
0.0757947
0.0864659
0.098305
0.11045
0.122109
0.132548
0.141128
0.147324
0.150715
0.150954
0.147744
0.140828
0.129957
0.114963
0.0955295
0.0722241
0.0435149
0.0183124
0.104935
0.106769
0.110722
0.112892
0.112075
0.110466
0.109506
0.108828
0.107868
0.106673
0.105537
0.104532
0.103496
0.10214
0.100732
0.100002
0.0998559
0.0996949
0.0990801
0.0981424
0.0974673
0.0972319
0.0973053
0.0974641
0.0975347
0.0975056
0.0974514
0.0974382
0.0975031
0.0977092
0.098081
0.0985417
0.098948
0.0991589
0.0990068
0.098409
0.0973609
0.0960117
0.0946584
0.0935464
0.093067
0.0931821
0.0940966
0.0958848
0.0982976
0.101014
0.103666
0.105876
0.107305
0.107695
0.106892
0.104829
0.101504
0.0969569
0.0913607
0.0851336
0.0789692
0.0737132
0.0702345
0.0692587
0.0711493
0.0758419
0.0828885
0.0915741
0.101121
0.110816
0.120025
0.12817
0.134738
0.139291
0.141455
0.140902
0.13734
0.130503
0.120132
0.106056
0.0879785
0.0664301
0.0400284
0.0167742
0.111745
0.112568
0.113805
0.114141
0.113353
0.112366
0.111704
0.111163
0.110492
0.109731
0.108997
0.108261
0.107379
0.106243
0.105047
0.104168
0.103629
0.102998
0.101985
0.100835
0.0999684
0.099492
0.0992692
0.0991198
0.0989429
0.0987439
0.0985701
0.0984483
0.0984024
0.0984913
0.0987382
0.0990735
0.0993668
0.099485
0.0994194
0.0990019
0.0980838
0.0968768
0.0957102
0.0948563
0.0945458
0.0948705
0.0959677
0.0978172
0.100182
0.102738
0.105146
0.107074
0.108246
0.108465
0.107629
0.105723
0.102804
0.0990006
0.094534
0.0897664
0.0852079
0.0814561
0.0791034
0.0786342
0.0803024
0.0840594
0.0895816
0.0963582
0.103813
0.111393
0.118589
0.124929
0.129977
0.133334
0.134644
0.133582
0.129844
0.12315
0.113226
0.0998859
0.0828274
0.062538
0.0376776
0.0158147
0.117621
0.117566
0.11665
0.11544
0.114615
0.114095
0.113616
0.113142
0.112694
0.11225
0.111788
0.111275
0.110655
0.109888
0.109055
0.108336
0.107768
0.107107
0.106198
0.105198
0.104352
0.103744
0.103305
0.10294
0.102595
0.102271
0.101992
0.101782
0.101672
0.101702
0.101871
0.102114
0.102321
0.102387
0.102253
0.101798
0.100999
0.100031
0.0991546
0.0985969
0.0985289
0.0990394
0.100168
0.101854
0.103907
0.106064
0.108053
0.109615
0.110539
0.110676
0.109952
0.108367
0.105986
0.102932
0.0994001
0.0956772
0.0921491
0.0892597
0.08744
0.0870355
0.0882329
0.091014
0.0951682
0.100344
0.106119
0.112056
0.117729
0.122726
0.126653
0.129139
0.129835
0.128417
0.124576
0.118018
0.108457
0.0956848
0.0793808
0.0599832
0.0361642
0.0152041
0.123024
0.122035
0.11907
0.116525
0.115767
0.115676
0.115338
0.114926
0.114655
0.11443
0.114149
0.113808
0.113399
0.112897
0.112333
0.111815
0.111373
0.110868
0.110196
0.109435
0.108742
0.108197
0.107775
0.107418
0.107087
0.106779
0.106512
0.10631
0.106198
0.106191
0.10628
0.106413
0.106511
0.106499
0.106318
0.10592
0.105323
0.104635
0.104033
0.103687
0.10372
0.104199
0.105137
0.106483
0.108098
0.109785
0.111334
0.112546
0.113251
0.11333
0.112718
0.111408
0.109448
0.106941
0.104049
0.101004
0.0981063
0.0956952
0.0941015
0.0935946
0.0943333
0.0963315
0.0994557
0.103454
0.107998
0.112729
0.117276
0.121273
0.12436
0.126187
0.126421
0.124741
0.120836
0.114405
0.105146
0.0928271
0.0770986
0.058343
0.0352345
0.0148036
0.128254
0.126066
0.12087
0.117225
0.116759
0.117083
0.116851
0.116522
0.116431
0.116391
0.116257
0.11605
0.115788
0.115454
0.115067
0.114701
0.114382
0.114017
0.113529
0.112966
0.112441
0.112023
0.1117
0.111427
0.111176
0.110942
0.110741
0.110593
0.110513
0.110507
0.110566
0.110651
0.110707
0.110675
0.110487
0.110155
0.109696
0.109175
0.108717
0.108454
0.108484
0.108864
0.109602
0.110657
0.111925
0.113256
0.114482
0.115444
0.116
0.116045
0.115518
0.114404
0.112737
0.110602
0.108133
0.105521
0.103008
0.100868
0.0993695
0.0987381
0.0991147
0.100529
0.102893
0.106015
0.109633
0.113442
0.117121
0.120341
0.122771
0.124085
0.123964
0.122092
0.118159
0.111858
0.102868
0.0909322
0.0756607
0.0573784
0.0347381
0.0145788
0.133492
0.129642
0.121948
0.117555
0.117645
0.118333
0.118157
0.117938
0.118035
0.118162
0.118161
0.118074
0.117934
0.117726
0.117466
0.117209
0.116976
0.116704
0.116337
0.115912
0.115514
0.115197
0.114954
0.114752
0.114569
0.114402
0.114264
0.114167
0.114124
0.114135
0.11419
0.114259
0.114296
0.11425
0.114081
0.1138
0.113424
0.113003
0.11263
0.112409
0.112422
0.112717
0.113301
0.114142
0.115161
0.11624
0.117242
0.118033
0.118491
0.11852
0.118062
0.117096
0.115646
0.113779
0.111609
0.109297
0.107044
0.105081
0.103633
0.102893
0.102988
0.103955
0.105735
0.10818
0.111074
0.114159
0.117152
0.119754
0.121665
0.122578
0.122186
0.120184
0.116258
0.110093
0.101354
0.089754
0.0748577
0.0569329
0.034565
0.0145277
0.138858
0.132689
0.122273
0.117612
0.118476
0.119436
0.119282
0.1192
0.119479
0.119751
0.119868
0.119894
0.119865
0.119769
0.119616
0.119451
0.119289
0.119088
0.11881
0.118483
0.118173
0.117925
0.117736
0.117582
0.117446
0.117327
0.117232
0.117172
0.117156
0.117181
0.117237
0.117298
0.117328
0.117285
0.117143
0.116905
0.116587
0.116232
0.115914
0.115717
0.115709
0.115934
0.116402
0.117089
0.117933
0.118837
0.119688
0.120368
0.12077
0.120804
0.120411
0.119567
0.118286
0.116624
0.114677
0.112582
0.110512
0.108664
0.107234
0.106391
0.10625
0.106854
0.108164
0.110063
0.112374
0.114872
0.117309
0.119415
0.120912
0.121512
0.120921
0.118837
0.114946
0.108926
0.100423
0.0891246
0.0745438
0.0568988
0.0346399
0.0146632
0.14443
0.135102
0.121881
0.117516
0.119276
0.120389
0.120251
0.120333
0.120781
0.121173
0.121394
0.121522
0.121593
0.121596
0.12154
0.121457
0.121364
0.121229
0.121026
0.120779
0.12054
0.120347
0.120201
0.120084
0.119984
0.119899
0.119835
0.119802
0.119804
0.11984
0.119899
0.119958
0.119987
0.119955
0.119837
0.119632
0.119357
0.119048
0.118765
0.118578
0.118548
0.118714
0.119089
0.119657
0.120369
0.121145
0.121888
0.122493
0.122862
0.12291
0.122579
0.121838
0.120695
0.119194
0.117416
0.115482
0.113541
0.111767
0.110332
0.109386
0.109039
0.109337
0.110255
0.111703
0.113533
0.115551
0.117537
0.119246
0.120419
0.120783
0.120052
0.117928
0.114095
0.108222
0.0999386
0.0889119
0.0746006
0.0571855
0.0349044
0.0149901
0.150249
0.136763
0.120867
0.117383
0.120041
0.121197
0.121097
0.12136
0.121955
0.122445
0.122758
0.122979
0.123138
0.123228
0.123255
0.123247
0.123219
0.123146
0.12301
0.122832
0.122655
0.122511
0.122404
0.122321
0.122252
0.122196
0.122158
0.122146
0.122165
0.122211
0.122273
0.122334
0.122367
0.122346
0.122248
0.122071
0.121828
0.121551
0.121291
0.121105
0.12105
0.121162
0.121458
0.121929
0.122536
0.123214
0.123877
0.124431
0.124784
0.124854
0.124581
0.12393
0.1229
0.121526
0.119878
0.11806
0.116207
0.114471
0.113008
0.111957
0.111421
0.11145
0.112035
0.113106
0.114539
0.116169
0.117795
0.119194
0.120121
0.120314
0.119493
0.117362
0.113599
0.107869
0.0997863
0.0890009
0.0749212
0.0577079
0.0353095
0.0154948
0.156323
0.137566
0.11938
0.117304
0.120755
0.12187
0.121847
0.122294
0.123012
0.123585
0.123981
0.124284
0.124521
0.124685
0.124785
0.124844
0.124874
0.124857
0.124781
0.124663
0.124541
0.124442
0.124371
0.124319
0.124278
0.124247
0.124232
0.12424
0.124273
0.124329
0.124396
0.124461
0.124501
0.124491
0.124411
0.124257
0.124041
0.123788
0.12354
0.12335
0.123267
0.12333
0.123557
0.123946
0.124467
0.125067
0.125669
0.126187
0.126534
0.126628
0.126407
0.12583
0.124891
0.123614
0.122059
0.120319
0.118515
0.116786
0.115275
0.114113
0.1134
0.113194
0.113497
0.114258
0.115373
0.116696
0.118046
0.119213
0.119963
0.12004
0.119169
0.117052
0.113366
0.107767
0.0998621
0.0892879
0.0754075
0.058383
0.0358109
0.0161403
0.16263
0.137433
0.117595
0.117328
0.121392
0.122429
0.122525
0.123146
0.123962
0.124607
0.125078
0.125454
0.125759
0.125989
0.126152
0.126271
0.126354
0.126387
0.126364
0.126298
0.126223
0.126164
0.126125
0.126101
0.126085
0.126078
0.126083
0.126107
0.126155
0.126219
0.126293
0.126363
0.126411
0.126412
0.126349
0.126216
0.12602
0.125783
0.125541
0.125341
0.12523
0.125244
0.125408
0.125724
0.126171
0.126704
0.127257
0.127748
0.128091
0.128205
0.128024
0.127503
0.126629
0.125417
0.123921
0.122223
0.120434
0.118684
0.11711
0.115836
0.114966
0.114561
0.114635
0.115151
0.116022
0.117117
0.118265
0.119268
0.119897
0.119903
0.11901
0.11692
0.113309
0.107828
0.100077
0.0896852
0.0759809
0.0591363
0.0363724
0.0168761
0.169119
0.136354
0.115691
0.117465
0.121934
0.122898
0.123146
0.123921
0.124817
0.125525
0.126064
0.126504
0.126869
0.127156
0.127376
0.127547
0.127677
0.127755
0.127777
0.127757
0.127724
0.127699
0.127688
0.127689
0.127695
0.127707
0.127729
0.127767
0.127826
0.127898
0.127977
0.128053
0.128106
0.128117
0.128067
0.127948
0.127765
0.127536
0.127292
0.127075
0.126929
0.126894
0.126995
0.127242
0.127622
0.128096
0.128604
0.129068
0.129404
0.129529
0.129373
0.128888
0.128051
0.126876
0.125407
0.123722
0.121926
0.120141
0.1185
0.117127
0.116126
0.115565
0.115466
0.115802
0.116498
0.11743
0.11844
0.119333
0.119887
0.119852
0.118956
0.116901
0.11336
0.107982
0.100361
0.0901261
0.076569
0.059909
0.0369638
0.0176543
0.175707
0.134351
0.113829
0.117698
0.122373
0.1233
0.123719
0.124622
0.125581
0.126346
0.126944
0.127441
0.127856
0.128193
0.128461
0.128677
0.128847
0.128964
0.129024
0.129043
0.129043
0.129046
0.129058
0.129078
0.129101
0.129128
0.129161
0.129208
0.129274
0.129347
0.129427
0.129503
0.129558
0.129571
0.129525
0.129411
0.129231
0.128998
0.12874
0.128497
0.128313
0.128226
0.128268
0.128452
0.128771
0.129192
0.129659
0.130098
0.130422
0.130549
0.130404
0.129935
0.129117
0.127957
0.126497
0.12481
0.122996
0.121176
0.119479
0.118029
0.116931
0.116258
0.116037
0.11625
0.116826
0.117651
0.11857
0.119394
0.119903
0.11985
0.118963
0.116945
0.113467
0.10818
0.100667
0.0905666
0.0771368
0.0606573
0.0375596
0.0184361
0.182301
0.131522
0.112121
0.117982
0.122713
0.123651
0.124241
0.125243
0.126249
0.12706
0.127706
0.128246
0.128702
0.129077
0.129382
0.129632
0.129833
0.129979
0.130068
0.130114
0.130139
0.130161
0.130188
0.130219
0.130252
0.130285
0.130323
0.130376
0.130435
0.130503
0.130578
0.130649
0.130697
0.130705
0.130655
0.130536
0.130347
0.130102
0.129825
0.129553
0.12933
0.129198
0.12919
0.129323
0.129593
0.129972
0.130407
0.130822
0.131135
0.131258
0.131115
0.130652
0.129842
0.128688
0.127229
0.125536
0.123707
0.12186
0.120123
0.11862
0.117458
0.11671
0.11641
0.116541
0.11704
0.117797
0.11866
0.119443
0.119929
0.119871
0.119
0.117018
0.113597
0.108384
0.100966
0.0909808
0.0776611
0.0613531
0.038141
0.0191944
0.18881
0.127996
0.110636
0.11827
0.122958
0.123947
0.124685
0.125754
0.126789
0.12763
0.128308
0.128876
0.129357
0.129757
0.130085
0.130357
0.130578
0.130741
0.130848
0.130911
0.13095
0.130983
0.131017
0.131052
0.131086
0.131121
0.131158
0.131204
0.131254
0.131316
0.131383
0.131445
0.131484
0.131483
0.131424
0.131296
0.131096
0.130837
0.130542
0.130247
0.129995
0.12983
0.129786
0.129884
0.130121
0.130471
0.130882
0.131282
0.131584
0.131702
0.131559
0.131099
0.130291
0.12914
0.127681
0.125985
0.124146
0.122283
0.120522
0.118987
0.117784
0.11699
0.11664
0.116722
0.117173
0.117889
0.118719
0.119479
0.119955
0.119901
0.119048
0.1171
0.113728
0.10858
0.101242
0.0913558
0.0781314
0.0619824
0.0386955
0.0199134
0.195155
0.123932
0.109414
0.118523
0.123119
0.12417
0.125013
0.126115
0.127163
0.128019
0.128714
0.129296
0.12979
0.130203
0.130544
0.130827
0.131058
0.13123
0.131347
0.131418
0.131464
0.1315
0.131536
0.131571
0.131605
0.131638
0.131673
0.13171
0.131755
0.131811
0.131871
0.131925
0.131956
0.131947
0.131881
0.131745
0.131537
0.131267
0.130959
0.130649
0.13038
0.130196
0.130131
0.130208
0.130425
0.130758
0.131155
0.131544
0.131839
0.131954
0.131811
0.131352
0.130547
0.129398
0.127941
0.126244
0.124402
0.122531
0.120756
0.119203
0.117977
0.117155
0.116776
0.116827
0.117251
0.117942
0.118753
0.119503
0.119977
0.119932
0.119099
0.11718
0.113851
0.10876
0.101489
0.0916876
0.0785462
0.0625405
0.0392155
0.0205872
0.201338
0.119599
0.108481
0.118716
0.123202
0.124302
0.125206
0.126321
0.127372
0.128236
0.128937
0.129527
0.130027
0.130446
0.130792
0.131081
0.131317
0.131493
0.131614
0.131689
0.131737
0.131775
0.131811
0.131846
0.131879
0.13191
0.131942
0.131977
0.132019
0.132071
0.132126
0.132174
0.132201
0.132187
0.132116
0.131975
0.131762
0.131486
0.131172
0.130854
0.130577
0.130382
0.130308
0.130374
0.130582
0.130906
0.131295
0.131678
0.13197
0.132083
0.13194
0.131483
0.13068
0.129535
0.12808
0.126385
0.124542
0.122668
0.120887
0.119323
0.118084
0.117247
0.11685
0.116884
0.117291
0.117969
0.118771
0.119517
0.119993
0.119959
0.119145
0.117253
0.113962
0.108919
0.101706
0.0919782
0.0789096
0.06303
0.0396979
0.0212178
0.207502
0.11551
0.107846
0.118833
0.12322
0.12435
0.125285
0.126406
0.12746
0.128327
0.129032
0.129625
0.130128
0.130549
0.130899
0.13119
0.131428
0.131606
0.131729
0.131806
0.131855
0.131894
0.13193
0.131965
0.131997
0.132026
0.132057
0.132093
0.132133
0.132183
0.132236
0.132282
0.132306
0.13229
0.132217
0.132073
0.131858
0.13158
0.131263
0.130942
0.130661
0.130463
0.130385
0.130447
0.13065
0.13097
0.131356
0.131737
0.132027
0.13214
0.131998
0.131542
0.130743
0.129601
0.12815
0.126456
0.124615
0.12274
0.120956
0.119387
0.118141
0.117295
0.116888
0.116911
0.11731
0.11798
0.118778
0.119524
0.120006
0.119982
0.119186
0.117321
0.114063
0.109062
0.101901
0.0922366
0.0792337
0.0634641
0.0401488
0.0218233
0.213599
0.112304
0.10745
0.118882
0.1232
0.124344
0.125292
0.12642
0.127478
0.128347
0.129055
0.129649
0.130154
0.130577
0.130928
0.13122
0.131459
0.131639
0.131762
0.131839
0.13189
0.131929
0.131965
0.131999
0.13203
0.13206
0.132092
0.132127
0.132168
0.132217
0.13227
0.132316
0.132339
0.132322
0.132248
0.132104
0.131887
0.131608
0.131291
0.130969
0.130688
0.130489
0.130409
0.13047
0.130672
0.130991
0.131376
0.131756
0.132046
0.13216
0.13202
0.131567
0.130771
0.129632
0.128184
0.126494
0.124654
0.122779
0.120993
0.119421
0.11817
0.117318
0.116904
0.116921
0.117314
0.11798
0.118778
0.119527
0.120015
0.120004
0.119226
0.117385
0.114159
0.109198
0.102084
0.0924782
0.0795368
0.0638662
0.0405802
0.0224361
0.218326
0.110362
0.107225
0.118909
0.123177
0.124319
0.125276
0.12641
0.12747
0.128341
0.12905
0.129645
0.130151
0.130574
0.130926
0.131219
0.131458
0.131638
0.131761
0.131839
0.13189
0.131929
0.131966
0.132
0.132032
0.132063
0.132095
0.13213
0.13217
0.132219
0.132272
0.132318
0.132341
0.132324
0.13225
0.132106
0.131889
0.131611
0.131293
0.130972
0.130691
0.130492
0.130412
0.130473
0.130674
0.130993
0.131378
0.131758
0.132049
0.132165
0.132027
0.131577
0.130784
0.129649
0.128204
0.126515
0.124677
0.122802
0.121015
0.119441
0.118185
0.117329
0.11691
0.116922
0.117311
0.117976
0.118773
0.119526
0.120022
0.120022
0.119261
0.117443
0.114245
0.10932
0.102247
0.0926929
0.0798043
0.0642216
0.0409562
0.0230188
)
;

boundaryField
{
    inlet
    {
        type            zeroGradient;
    }
    outlet
    {
        type            fixedValue;
        value           uniform 0;
    }
    fixedWalls
    {
        type            zeroGradient;
    }
    frontAndBack
    {
        type            empty;
    }
}


// ************************************************************************* //
