/*--------------------------------*- C++ -*----------------------------------*\
| =========                 |                                                 |
| \\      /  F ield         | OpenFOAM: The Open Source CFD Toolbox           |
|  \\    /   O peration     | Version:  v1912                                 |
|   \\  /    A nd           | Website:  www.openfoam.com                      |
|    \\/     M anipulation  |                                                 |
\*---------------------------------------------------------------------------*/
FoamFile
{
    version     2.0;
    format      ascii;
    class       volVectorField;
    location    "350";
    object      U;
}
// * * * * * * * * * * * * * * * * * * * * * * * * * * * * * * * * * * * * * //

dimensions      [0 1 -1 0 0 0 0];


internalField   nonuniform List<vector> 
2000
(
(0.84616 0.187394 0)
(0.515131 0.12409 0)
(0.223444 0.0684427 0)
(0.059802 0.0174442 6.19804e-20)
(-0.00455655 -0.0232154 1.21682e-17)
(-0.0642218 -0.0384574 1.05152e-17)
(-0.0776283 -0.037242 0)
(-0.0716167 -0.0167422 0)
(-0.0590593 0.011498 0)
(-0.0420363 0.0252524 2.38791e-17)
(-0.0414366 0.0108323 -1.46317e-17)
(-0.0273328 -0.000902811 -1.37393e-17)
(-0.0162613 -0.00303463 0)
(-0.0193771 -0.00266634 0)
(-0.0204289 -0.00213689 -1.09228e-17)
(-0.0139462 -0.000281982 0)
(-0.00572738 0.00182394 9.84968e-18)
(-0.00369187 0.0053872 4.1393e-21)
(-0.00413295 0.00583242 9.54783e-18)
(-0.00428968 0.00391313 -4.71335e-18)
(-0.00364411 0.00117169 9.3178e-18)
(-0.0017038 -0.000529686 0)
(0.000975968 -0.00113697 0)
(0.0032776 -0.000979874 -3.08518e-22)
(0.00495292 -0.000510755 0)
(0.00568725 7.88692e-05 -4.51466e-18)
(0.00553332 0.000579533 0)
(0.00484031 0.000779621 4.52446e-18)
(0.00406562 0.000688315 0)
(0.00349981 0.000461902 0)
(0.00317773 0.000238393 0)
(0.00301499 8.37158e-05 1.15667e-18)
(0.00291373 2.30493e-05 0)
(0.0028028 4.29321e-05 -5.87674e-19)
(0.00263388 9.75989e-05 1.96042e-14)
(0.00238768 0.000121662 1.95853e-14)
(0.00207308 5.24514e-05 6.05398e-19)
(0.00172238 -0.000149373 -6.12496e-19)
(0.00138051 -0.000490428 0)
(0.00109519 -0.000940307 2.52006e-18)
(0.000893618 -0.00143913 0)
(0.000812108 -0.00189718 -2.60921e-18)
(0.000820857 -0.00224724 0)
(0.000805716 -0.00243085 -5.43725e-18)
(0.000632791 -0.00246675 2.78157e-18)
(0.000108768 -0.00243682 0)
(-0.000987915 -0.00241858 0)
(-0.0029421 -0.00236114 -2.96821e-18)
(-0.00616248 -0.00190877 0)
(-0.0113939 -0.000430405 3.05264e-18)
(-0.0197304 0.00273403 0)
(-0.0325157 0.0076968 6.03858e-18)
(-0.0510435 0.0137471 -5.91603e-18)
(-0.0762956 0.0198995 5.71289e-18)
(-0.10875 0.0243291 -2.66977e-18)
(-0.147469 0.0243008 0)
(-0.189767 0.0180964 2.17669e-18)
(-0.232121 0.00594488 -1.89729e-18)
(-0.270567 -0.0104373 -3.76886e-18)
(-0.30019 -0.0281532 2.96026e-18)
(-0.315924 -0.0434631 -2.97727e-18)
(-0.31626 -0.0533679 3.28861e-18)
(-0.307599 -0.0589365 -3.90525e-18)
(-0.289247 -0.0614375 4.87541e-18)
(-0.263131 -0.0617839 -5.09417e-21)
(-0.23028 -0.0606589 7.6924e-18)
(-0.191527 -0.0582196 0)
(-0.147383 -0.0545267 0)
(-0.0983888 -0.0496745 5.97862e-20)
(-0.0454557 -0.0437911 0)
(0.0102072 -0.0368125 2.07076e-17)
(0.0688942 -0.0285515 0)
(0.130582 -0.0189709 1.99365e-17)
(0.195214 -0.00818786 -4.75723e-19)
(0.262231 0.00365253 1.7093e-17)
(0.333184 0.0163433 2.9676e-17)
(0.404729 0.029588 7.18049e-19)
(0.490238 0.0429714 -1.00463e-17)
(0.554311 0.0550044 -6.45654e-18)
(0.708866 0.0651274 0)
(1.0153 0.210385 0)
(0.944633 0.194214 0)
(0.804471 0.179987 -3.55343e-18)
(0.654414 0.152318 7.34069e-18)
(0.509212 0.111175 0)
(0.36002 0.0683803 -7.35333e-18)
(0.216481 0.0293404 0)
(0.0821242 -0.0052766 0)
(-0.0282716 -0.0180697 0)
(-0.0563169 -0.0189102 -1.74618e-17)
(-0.0668885 -0.0247324 1.58832e-17)
(-0.0720358 -0.0156749 1.45676e-17)
(-0.0641515 0.00625784 0)
(-0.0520525 0.0194266 6.37037e-18)
(-0.0563417 0.0076756 0)
(-0.0509189 -0.00540133 0)
(-0.0405493 -0.00648676 0)
(-0.0349592 -0.00310337 5.28955e-18)
(-0.0378628 -0.000788903 -1.03992e-17)
(-0.0393917 -0.000441154 -5.12402e-18)
(-0.0393643 -0.00100116 0)
(-0.0374913 -0.00208099 0)
(-0.0339818 -0.00281998 0)
(-0.0298802 -0.00259249 -7.46503e-18)
(-0.0257956 -0.00152853 0)
(-0.0221589 -0.00016012 5.00187e-18)
(-0.0191059 0.0010351 2.5102e-18)
(-0.0168537 0.00171337 0)
(-0.0155148 0.00172222 0)
(-0.0149808 0.00125689 0)
(-0.0150432 0.000777094 0)
(-0.0155109 0.000475117 -6.43913e-19)
(-0.0162786 0.000368674 0)
(-0.0173204 0.000416696 3.25731e-19)
(-0.018681 0.000579964 1.6414e-19)
(-0.0204193 0.000808209 0)
(-0.0225641 0.00103796 0)
(-0.025098 0.00121155 6.70223e-19)
(-0.0279557 0.00129029 0)
(-0.0310402 0.00125885 -1.36514e-18)
(-0.0342283 0.00113098 0)
(-0.0374106 0.000951567 -1.39354e-18)
(-0.040497 0.000795135 0)
(-0.0434112 0.000778882 1.44946e-18)
(-0.0461408 0.00104657 1.47427e-18)
(-0.0488515 0.00180972 0)
(-0.0517826 0.00333133 0)
(-0.0552136 0.00596401 -3.13558e-18)
(-0.0594189 0.0102113 0)
(-0.0646021 0.0166056 5.07219e-20)
(-0.0709433 0.0253649 0)
(-0.078741 0.0361765 0)
(-0.0881319 0.0482439 0)
(-0.0988258 0.060209 0)
(-0.110127 0.069694 5.79391e-18)
(-0.120269 0.0736151 0)
(-0.126535 0.0697505 -5.03036e-18)
(-0.127312 0.0577512 2.4226e-18)
(-0.121375 0.0392727 -1.99333e-18)
(-0.103479 0.017134 -4.36887e-18)
(-0.0708246 -0.00762254 4.57234e-18)
(-0.0532575 -0.0363059 -5.1947e-18)
(-0.0260211 -0.0585275 6.31647e-18)
(0.0044594 -0.0741444 0)
(0.038262 -0.0846602 -1.34052e-17)
(0.0755581 -0.0912918 -1.01327e-17)
(0.11689 -0.0947674 0)
(0.162104 -0.0953725 6.0531e-18)
(0.210612 -0.0932413 1.31599e-17)
(0.261782 -0.0885748 0)
(0.315067 -0.0815396 0)
(0.370105 -0.0723353 0)
(0.426594 -0.0611693 0)
(0.484437 -0.0483458 -1.3734e-17)
(0.543523 -0.0342768 5.96969e-18)
(0.604842 -0.0194574 -1.17411e-17)
(0.666886 -0.00464896 1.00979e-17)
(0.737551 0.00922111 -3.44965e-18)
(0.793485 0.0200556 0)
(0.908414 0.0243402 0)
(0.978489 0.201539 0)
(0.978855 0.19301 -2.81116e-18)
(0.969154 0.205118 3.50556e-18)
(0.93908 0.208541 -3.08367e-18)
(0.878026 0.194618 2.90811e-18)
(0.785591 0.168732 2.86657e-18)
(0.669331 0.13809 0)
(0.540981 0.106028 0)
(0.408182 0.0750602 0)
(0.285863 0.0459273 6.92897e-18)
(0.173714 0.0180128 0)
(0.072128 -0.00636058 0)
(-0.0211245 -0.0137111 0)
(-0.0465403 -0.00331084 -7.24506e-18)
(-0.05119 -0.0115082 0)
(-0.0603323 -0.0182338 -6.07907e-18)
(-0.062449 -0.0115246 0)
(-0.0534316 0.00780528 5.88322e-18)
(-0.0520817 0.0148008 2.87802e-18)
(-0.0569376 0.0106829 0)
(-0.0597557 0.00381161 -2.7844e-18)
(-0.0621064 -0.00280343 0)
(-0.0624003 -0.00677233 0)
(-0.0608034 -0.0079607 5.41404e-18)
(-0.0581904 -0.00740036 0)
(-0.0556867 -0.00599894 1.35646e-18)
(-0.0539332 -0.00425962 -4.08068e-18)
(-0.0531812 -0.00241944 0)
(-0.0532623 -0.000681733 0)
(-0.0537321 0.000694004 -6.87605e-19)
(-0.0544432 0.00164072 0)
(-0.0553906 0.00234519 1.26225e-21)
(-0.0565973 0.00298631 0)
(-0.0580996 0.00372621 7.00984e-19)
(-0.059982 0.00464011 8.8141e-20)
(-0.0623355 0.00564905 0)
(-0.065179 0.0065881 1.77222e-19)
(-0.0684283 0.00726659 -3.55154e-19)
(-0.0719076 0.0075404 -3.5626e-19)
(-0.075382 0.00735301 -7.16565e-19)
(-0.078597 0.00674023 7.23316e-19)
(-0.0813082 0.00578487 7.47391e-19)
(-0.0833156 0.00470471 0)
(-0.0845196 0.00382276 1.54147e-18)
(-0.0848718 0.00339571 -3.15992e-18)
(-0.0843508 0.00376507 0)
(-0.0829645 0.00524892 -1.68727e-18)
(-0.0806648 0.00821249 3.42159e-18)
(-0.0772329 0.0131155 0)
(-0.0722241 0.020389 -1.74751e-18)
(-0.065107 0.0300998 1.87931e-18)
(-0.0554042 0.0417006 -1.90713e-18)
(-0.0425976 0.0539749 -1.9224e-18)
(-0.0261076 0.0652217 0)
(-0.00562927 0.0731689 -3.77373e-18)
(0.0188906 0.0752276 -1.75651e-18)
(0.0477972 0.06908 1.54722e-18)
(0.0797981 0.0539683 1.35819e-18)
(0.112522 0.0289808 2.2823e-18)
(0.144129 -0.00178936 0)
(0.175706 -0.0309103 0)
(0.205951 -0.0551523 0)
(0.237668 -0.0756785 -1.26739e-18)
(0.272784 -0.0929156 0)
(0.311573 -0.10681 3.33264e-18)
(0.35329 -0.117151 0)
(0.39705 -0.123802 -2.10296e-18)
(0.442104 -0.126758 -4.74465e-18)
(0.487823 -0.12615 0)
(0.533716 -0.122235 -2.60131e-18)
(0.57948 -0.11538 2.69067e-18)
(0.625005 -0.106066 0)
(0.67034 -0.0948595 0)
(0.715731 -0.0823664 0)
(0.761447 -0.0692504 -5.45445e-18)
(0.808373 -0.0562218 0)
(0.855788 -0.0442586 -1.89238e-18)
(0.908663 -0.0343198 3.34998e-18)
(0.951358 -0.0284795 0)
(1.03382 -0.0286859 3.92085e-19)
(0.970611 0.209119 0)
(0.963917 0.19477 1.53962e-18)
(0.966431 0.198521 0)
(0.977153 0.206419 1.70712e-18)
(0.982035 0.208899 -3.02793e-18)
(0.968291 0.204284 -1.3524e-18)
(0.930739 0.193743 0)
(0.870733 0.177891 0)
(0.791084 0.156593 0)
(0.69534 0.131353 1.36237e-18)
(0.589367 0.105441 1.3944e-18)
(0.479924 0.0807211 0)
(0.369128 0.0580298 0)
(0.2666 0.0376747 0)
(0.179613 0.0185897 0)
(0.100379 0.00271883 6.44723e-18)
(0.0296243 -0.00974985 -3.41009e-18)
(-0.0310702 -0.00923384 0)
(-0.0351033 0.000814135 -3.29936e-18)
(-0.0378231 0.00250571 1.62265e-18)
(-0.039282 0.00107881 3.21439e-18)
(-0.0419718 -0.00205013 0)
(-0.046847 -0.004934 0)
(-0.0526411 -0.00604715 -3.09665e-18)
(-0.0574714 -0.00507292 0)
(-0.0604966 -0.00257776 -1.52788e-18)
(-0.0623207 0.000475903 1.52654e-18)
(-0.0638763 0.00293684 0)
(-0.0654502 0.00416581 0)
(-0.0666893 0.00462341 7.65112e-19)
(-0.0677065 0.00469061 0)
(-0.0683631 0.00469711 -7.72334e-19)
(-0.0687129 0.0049037 0)
(-0.0688998 0.00550672 -1.94789e-19)
(-0.069189 0.0065873 -9.83745e-20)
(-0.0697717 0.0079321 -2.47939e-20)
(-0.0706766 0.0092566 -2.97833e-19)
(-0.0717493 0.010222 3.98787e-19)
(-0.0726923 0.0105938 4.01446e-19)
(-0.0731308 0.0102658 1.21314e-18)
(-0.0727372 0.00929661 -4.16782e-19)
(-0.0711751 0.00763251 4.26497e-19)
(-0.0681115 0.00551005 0)
(-0.0634336 0.00325284 8.86426e-19)
(-0.0571359 0.00137661 9.29791e-19)
(-0.0492327 0.00018211 0)
(-0.0399156 -0.000131601 2.02957e-18)
(-0.0293242 0.000544612 1.08241e-18)
(-0.0173414 0.00228972 0)
(-0.00353448 0.00514169 -3.50297e-18)
(0.012879 0.00912332 -2.33665e-18)
(0.0333163 0.0136026 1.12235e-18)
(0.0584229 0.0179142 2.18859e-18)
(0.0886845 0.0209488 0)
(0.12431 0.0211216 9.39713e-19)
(0.164622 0.0166728 2.49083e-18)
(0.208523 0.00636852 1.42925e-18)
(0.254393 -0.00977019 -1.21644e-18)
(0.302167 -0.0297945 -5.49587e-19)
(0.349992 -0.0517248 0)
(0.396664 -0.0746668 0)
(0.441685 -0.0969676 0)
(0.485553 -0.117166 1.63578e-18)
(0.528669 -0.134304 6.40453e-19)
(0.570791 -0.147782 0)
(0.611407 -0.157224 -1.62836e-18)
(0.65013 -0.162483 1.84606e-18)
(0.6868 -0.163661 -1.98007e-18)
(0.72145 -0.161074 -2.13466e-18)
(0.75427 -0.155195 1.41242e-19)
(0.785589 -0.146602 -2.53308e-18)
(0.815853 -0.135938 0)
(0.845581 -0.123867 0)
(0.875371 -0.111051 0)
(0.90574 -0.0981632 0)
(0.937518 -0.0858807 0)
(0.970302 -0.0750635 3.70085e-18)
(1.00741 -0.0664222 -1.3546e-18)
(1.03788 -0.0616277 0)
(1.09552 -0.0610353 -4.22268e-19)
(0.972988 0.216083 0)
(0.965832 0.201812 1.88721e-18)
(0.959207 0.195607 2.51176e-19)
(0.96149 0.195557 1.92185e-18)
(0.972671 0.197551 0)
(0.985523 0.199254 -1.62027e-18)
(0.9925 0.199318 0)
(0.988449 0.19628 -3.65391e-19)
(0.970201 0.189066 0)
(0.935596 0.177609 -1.61928e-18)
(0.884673 0.162812 -1.2535e-18)
(0.81953 0.145733 -3.17966e-19)
(0.743179 0.126788 3.15601e-19)
(0.657907 0.106154 0)
(0.568959 0.0853186 3.15495e-19)
(0.479163 0.0662821 0)
(0.393255 0.0503045 2.67307e-18)
(0.313895 0.0364123 -3.53693e-19)
(0.246778 0.0243972 0)
(0.191896 0.0148612 -1.91068e-18)
(0.147107 0.00803298 0)
(0.109766 0.00357595 0)
(0.078592 0.00110913 0)
(0.0520668 -0.000283558 0)
(0.0300364 -0.00124003 -2.22912e-19)
(0.0127808 -0.0018254 0)
(-0.000526787 -0.0016992 0)
(-0.00859227 -0.000584101 1.15241e-19)
(-0.0116191 0.000451404 0)
(-0.0122475 0.000984553 0)
(-0.0110588 0.00136269 0)
(-0.00860803 0.00189569 -5.9242e-20)
(-0.00529055 0.00277119 0)
(-0.00145843 0.00403686 -2.73333e-19)
(0.00226023 0.00579454 0)
(0.00605953 0.00801268 3.05408e-20)
(0.0103818 0.0098528 1.52402e-19)
(0.0153227 0.0106376 3.02891e-20)
(0.0213072 0.0099956 -6.02185e-20)
(0.0287656 0.00787216 -4.84773e-19)
(0.0378916 0.00441615 -4.83351e-19)
(0.0486182 0.000172688 4.83426e-19)
(0.0611472 -0.00458747 -1.20058e-19)
(0.0757536 -0.00939287 -9.74948e-19)
(0.092227 -0.0135231 9.83878e-19)
(0.110316 -0.0165433 -1.24943e-19)
(0.130014 -0.0182248 0)
(0.151349 -0.0185514 -1.01636e-18)
(0.174528 -0.0177428 0)
(0.199831 -0.0162405 1.01361e-18)
(0.227651 -0.0146635 0)
(0.258452 -0.0137288 9.65669e-19)
(0.29261 -0.0140986 0)
(0.330286 -0.01644 -2.15652e-19)
(0.372065 -0.0215266 -7.83578e-19)
(0.417788 -0.0299656 -6.96455e-19)
(0.466366 -0.0420797 1.56731e-19)
(0.516284 -0.0578291 0)
(0.565795 -0.0768088 4.60986e-19)
(0.613271 -0.0978805 -1.19826e-19)
(0.657669 -0.119459 0)
(0.698427 -0.139725 1.26774e-19)
(0.735331 -0.157225 -5.10441e-19)
(0.768353 -0.171109 -5.86575e-19)
(0.797527 -0.180963 0)
(0.822992 -0.186662 1.54552e-18)
(0.845069 -0.188315 0)
(0.864265 -0.186252 1.94526e-18)
(0.881218 -0.180966 2.13128e-18)
(0.896635 -0.173049 2.29515e-18)
(0.911253 -0.163134 2.83421e-19)
(0.925799 -0.15186 0)
(0.940959 -0.139845 0)
(0.95738 -0.127679 0)
(0.975548 -0.115935 -2.76411e-19)
(0.996111 -0.105171 0)
(1.01864 -0.0960293 -1.69019e-18)
(1.04559 -0.0890571 1.66147e-18)
(1.06806 -0.0852558 1.05158e-19)
(1.11229 -0.0850336 4.55664e-20)
(0.974194 0.218515 -1.24205e-18)
(0.970935 0.206367 1.20203e-18)
(0.96512 0.198179 -2.84228e-19)
(0.96114 0.194122 0)
(0.9622 0.191955 0)
(0.968265 0.190562 0)
(0.977779 0.189908 0)
(0.988511 0.189513 1.26206e-18)
(0.99744 0.18835 0)
(1.00094 0.185414 -1.12816e-18)
(0.995771 0.180028 -1.40646e-18)
(0.979827 0.171993 3.22571e-19)
(0.952641 0.161537 9.73874e-19)
(0.914268 0.148751 0)
(0.865532 0.133836 -1.48602e-18)
(0.808078 0.117928 0)
(0.745842 0.102545 -1.18756e-18)
(0.683352 0.0880564 2.9703e-19)
(0.622531 0.074484 -1.24163e-18)
(0.565419 0.0622149 -9.55648e-19)
(0.512868 0.0514427 0)
(0.465197 0.0421755 0)
(0.422579 0.0343161 -6.86238e-19)
(0.385001 0.0277643 0)
(0.352402 0.0223592 -5.43884e-19)
(0.324588 0.0178874 0)
(0.301157 0.0140639 0)
(0.281696 0.0105594 -9.57633e-20)
(0.26592 0.0072536 0)
(0.253356 0.0042163 0)
(0.243496 0.0015946 0)
(0.236121 -0.000440307 5.15007e-20)
(0.231375 -0.0017547 2.09988e-19)
(0.22947 -0.00228368 1.32478e-19)
(0.23066 -0.00223723 0)
(0.234932 -0.00206996 0)
(0.242617 -0.00211103 -2.61509e-20)
(0.253664 -0.00274764 -1.29046e-19)
(0.267564 -0.00439542 5.06476e-20)
(0.283358 -0.0073695 0)
(0.301083 -0.0119043 0)
(0.320753 -0.0176369 -1.94993e-19)
(0.341412 -0.0239717 9.66278e-20)
(0.362524 -0.0302388 -3.92731e-19)
(0.383959 -0.0359677 3.98623e-19)
(0.405715 -0.0407766 1.00343e-19)
(0.427943 -0.0444699 0)
(0.450939 -0.0470753 4.19007e-19)
(0.475101 -0.0488266 0)
(0.500862 -0.0501307 0)
(0.528613 -0.0515311 0)
(0.558612 -0.0535956 0)
(0.591004 -0.0568546 0)
(0.625777 -0.0618001 1.80621e-19)
(0.662672 -0.068928 0)
(0.701008 -0.0786615 6.34644e-19)
(0.739708 -0.0911339 -1.37597e-19)
(0.777499 -0.106082 0)
(0.813084 -0.122794 5.20159e-19)
(0.845304 -0.140129 1.11863e-19)
(0.873306 -0.156799 5.20487e-19)
(0.896631 -0.171614 -1.23032e-19)
(0.915233 -0.183668 0)
(0.929408 -0.192426 -6.56418e-19)
(0.939687 -0.197683 0)
(0.946746 -0.199482 0)
(0.951371 -0.19806 -8.87002e-19)
(0.954416 -0.193804 0)
(0.956742 -0.187202 0)
(0.959174 -0.178791 -1.11552e-18)
(0.962456 -0.169111 -3.09848e-19)
(0.96724 -0.158685 0)
(0.974071 -0.148008 0)
(0.983409 -0.137537 0)
(0.995537 -0.127712 3.08988e-19)
(1.01087 -0.118948 -1.05738e-18)
(1.02882 -0.111698 -2.44147e-19)
(1.05148 -0.106353 -1.91105e-19)
(1.07058 -0.103433 -1.19122e-19)
(1.10978 -0.103496 -2.44438e-19)
(0.974501 0.219011 4.38762e-18)
(0.973757 0.208039 -4.21281e-18)
(0.971715 0.200431 0)
(0.96916 0.19622 -2.55566e-18)
(0.967056 0.19295 0)
(0.96617 0.189329 -2.25359e-18)
(0.967426 0.18584 0)
(0.971679 0.183038 3.0009e-18)
(0.978992 0.18077 -3.7262e-18)
(0.988304 0.178538 1.70178e-18)
(0.99772 0.175844 1.59093e-18)
(1.00501 0.172241 0)
(1.00816 0.167375 -4.30139e-18)
(1.0055 0.160822 -2.73889e-18)
(0.995627 0.152233 3.84926e-18)
(0.977799 0.141918 0)
(0.953004 0.130749 1.17888e-18)
(0.923657 0.119477 0)
(0.891551 0.108278 1.17456e-18)
(0.857979 0.0971333 1.17374e-18)
(0.823979 0.0862429 0)
(0.790543 0.0758967 0)
(0.758561 0.0663172 -6.41828e-19)
(0.72874 0.0576029 0)
(0.701547 0.0497035 6.2261e-19)
(0.67722 0.042498 0)
(0.655844 0.0358721 0)
(0.637411 0.0297441 0)
(0.62185 0.0240671 0)
(0.609012 0.0188419 0)
(0.598722 0.0141056 0)
(0.590863 0.00987723 0)
(0.585425 0.00610958 1.80235e-19)
(0.582372 0.00268526 -8.7922e-20)
(0.581883 -0.000614411 4.49126e-20)
(0.584135 -0.00403936 0)
(0.589397 -0.00786161 0)
(0.597599 -0.0123312 8.57984e-20)
(0.608423 -0.0175919 -3.457e-19)
(0.621424 -0.0236394 3.41523e-19)
(0.636178 -0.0302228 0)
(0.652179 -0.0371774 8.40958e-19)
(0.668779 -0.0441737 -6.81272e-19)
(0.685519 -0.0507541 -3.55975e-19)
(0.702203 -0.0565555 -3.42367e-19)
(0.718799 -0.0613697 0)
(0.735409 -0.0651667 0)
(0.752247 -0.0681024 -1.11685e-18)
(0.769585 -0.0704944 0)
(0.787691 -0.0727737 0)
(0.806772 -0.0754204 0)
(0.826926 -0.07889 7.45914e-19)
(0.848109 -0.0835705 1.45612e-18)
(0.870114 -0.0897789 0)
(0.892538 -0.0977535 0)
(0.914764 -0.107584 -6.09919e-19)
(0.935985 -0.11912 0)
(0.955301 -0.131954 1.19458e-18)
(0.971847 -0.145448 6.45294e-19)
(0.984922 -0.158802 0)
(0.994118 -0.171163 6.63033e-19)
(0.999399 -0.181753 1.26929e-18)
(1.00109 -0.189977 1.36392e-18)
(0.999781 -0.195494 7.0948e-19)
(0.996242 -0.198219 -1.6263e-18)
(0.991297 -0.198263 1.78279e-18)
(0.985779 -0.195882 2.93085e-18)
(0.980482 -0.191422 0)
(0.976126 -0.185287 0)
(0.973333 -0.177903 1.25386e-18)
(0.972614 -0.169689 0)
(0.974378 -0.16105 2.60927e-18)
(0.978935 -0.152367 2.63698e-18)
(0.986535 -0.143998 0)
(0.997281 -0.136285 2.48615e-18)
(1.01143 -0.129547 -1.07975e-18)
(1.02832 -0.124113 0)
(1.04989 -0.120257 0)
(1.06812 -0.118233 0)
(1.10595 -0.118662 -1.98665e-19)
(0.974733 0.218939 -3.37945e-18)
(0.975458 0.208205 3.23502e-18)
(0.976057 0.201064 -6.28168e-18)
(0.975938 0.197375 2.89045e-18)
(0.974878 0.194471 0)
(0.973205 0.190801 2.54873e-18)
(0.971493 0.186604 -4.87835e-18)
(0.970482 0.182365 -4.52352e-18)
(0.971008 0.178165 -7.909e-20)
(0.973726 0.173997 0)
(0.978841 0.169931 0)
(0.986019 0.165937 3.62152e-18)
(0.994443 0.161783 3.3148e-18)
(1.00294 0.157053 -3.29834e-18)
(1.01008 0.151352 -8.95497e-18)
(1.01441 0.144584 0)
(1.01504 0.137052 0)
(1.01199 0.129056 0)
(1.00577 0.120582 0)
(0.996832 0.111607 0)
(0.985687 0.102334 0)
(0.972964 0.0930475 0)
(0.959357 0.083965 1.24507e-18)
(0.945516 0.0751893 -2.59553e-18)
(0.931972 0.066731 0)
(0.919123 0.0585706 0)
(0.907258 0.0506993 0)
(0.896579 0.0431145 0)
(0.887206 0.0358104 0)
(0.879193 0.0288062 -6.67409e-19)
(0.872575 0.0221487 0)
(0.86741 0.0158694 0)
(0.863784 0.00994745 1.18482e-20)
(0.861784 0.0042941 0)
(0.861486 -0.0011915 -4.18523e-20)
(0.862935 -0.00667395 0)
(0.86612 -0.0124511 1.71436e-19)
(0.870865 -0.0187541 0)
(0.876864 -0.0256546 6.60845e-19)
(0.883751 -0.0330745 -3.20968e-19)
(0.891159 -0.0408149 -6.71341e-19)
(0.898744 -0.048634 -6.44002e-19)
(0.906197 -0.0561877 6.52711e-19)
(0.913335 -0.0631072 6.66772e-19)
(0.920143 -0.0691355 1.42311e-18)
(0.926739 -0.0741746 1.45826e-18)
(0.933321 -0.0782813 0)
(0.940126 -0.0816575 -7.8163e-19)
(0.947383 -0.084617 0)
(0.955258 -0.0875388 0)
(0.96382 -0.0908143 -1.57235e-18)
(0.973018 -0.0947971 -7.62767e-19)
(0.98268 -0.099768 4.78489e-20)
(0.992518 -0.105917 0)
(1.00214 -0.113332 0)
(1.01105 -0.12198 0)
(1.01869 -0.131683 1.42049e-18)
(1.02449 -0.142106 -1.29031e-18)
(1.02798 -0.152778 -1.27586e-18)
(1.02889 -0.163129 0)
(1.02716 -0.172557 -1.33524e-18)
(1.02302 -0.180521 9.81993e-20)
(1.01692 -0.186621 -1.53021e-18)
(1.00948 -0.190637 1.7329e-18)
(1.00139 -0.192531 -3.64012e-20)
(0.993326 -0.192401 -2.02041e-18)
(0.985915 -0.190442 -2.21055e-18)
(0.97971 -0.18691 0)
(0.975175 -0.182099 0)
(0.972688 -0.176327 0)
(0.972545 -0.169915 0)
(0.974977 -0.163184 -2.9612e-18)
(0.98016 -0.156446 -2.99115e-18)
(0.988248 -0.150003 0)
(0.999289 -0.144145 -2.81819e-18)
(1.01351 -0.139137 5.07442e-18)
(1.03028 -0.13523 0)
(1.05149 -0.132596 0)
(1.06939 -0.131373 0)
(1.10641 -0.131995 9.36181e-19)
(0.975035 0.218503 8.39655e-18)
(0.977128 0.207479 0)
(0.979624 0.200814 1.43768e-17)
(0.980944 0.197728 0)
(0.98075 0.195189 6.25865e-18)
(0.979843 0.191834 0)
(0.978663 0.187924 5.5128e-18)
(0.977192 0.183687 0)
(0.975619 0.179026 -5.0716e-18)
(0.974461 0.17394 0)
(0.974303 0.168605 8.94218e-18)
(0.975627 0.163181 -4.13963e-18)
(0.978733 0.157705 0)
(0.983641 0.152076 7.35538e-18)
(0.990006 0.146143 -1.86876e-19)
(0.997167 0.139826 -6.72117e-18)
(1.00426 0.133262 6.51243e-18)
(1.0106 0.12654 0)
(1.01582 0.119512 0)
(1.01967 0.11208 6.11471e-18)
(1.02201 0.104308 0)
(1.02288 0.0963385 -2.97284e-18)
(1.02249 0.0882896 0)
(1.02113 0.0802286 2.81389e-18)
(1.01908 0.0721854 0)
(1.01657 0.0641789 2.90513e-18)
(1.01382 0.0562322 0)
(1.01097 0.0483722 0)
(1.00818 0.0406335 1.45529e-18)
(1.00555 0.0330715 7.01032e-19)
(1.0032 0.0257526 0)
(1.00124 0.0187175 0)
(0.99981 0.0119529 -1.10248e-18)
(0.999024 0.00538156 0)
(0.998918 -0.0010816 0)
(0.999504 -0.0076074 0)
(1.00072 -0.0144007 -1.78535e-19)
(1.00238 -0.0215905 0)
(1.00426 -0.0291735 -1.09133e-18)
(1.00606 -0.0370259 -7.38349e-19)
(1.00758 -0.044938 7.06575e-19)
(1.00864 -0.0526622 0)
(1.00916 -0.0599334 0)
(1.00914 -0.0665116 1.54586e-18)
(1.00874 -0.0722491 -1.52372e-18)
(1.00819 -0.0771235 -1.56802e-18)
(1.00776 -0.0812319 0)
(1.0077 -0.0847748 -4.33376e-20)
(1.0082 -0.0880278 1.72911e-18)
(1.0094 -0.0913028 0)
(1.01129 -0.0949086 1.72489e-18)
(1.01379 -0.0991131 1.77247e-18)
(1.01672 -0.104117 -1.71344e-18)
(1.01981 -0.110039 0)
(1.02276 -0.116918 0)
(1.02519 -0.124703 0)
(1.02675 -0.133239 -1.59789e-18)
(1.0271 -0.142257 0)
(1.026 -0.151394 0)
(1.02336 -0.160223 0)
(1.01923 -0.168303 3.48409e-18)
(1.01384 -0.175238 -1.72589e-18)
(1.00755 -0.180726 0)
(1.00083 -0.184587 -1.97602e-18)
(0.99414 -0.186763 -2.20682e-18)
(0.987946 -0.187298 4.65682e-18)
(0.982654 -0.186315 -4.98776e-18)
(0.978614 -0.183992 -5.32205e-18)
(0.976124 -0.180553 0)
(0.975431 -0.176252 -5.93033e-18)
(0.976746 -0.171361 0)
(0.980253 -0.166163 0)
(0.986113 -0.160944 0)
(0.994494 -0.155984 6.25853e-18)
(1.00548 -0.151547 -5.98258e-18)
(1.01935 -0.147868 -8.31043e-18)
(1.03555 -0.145144 0)
(1.05597 -0.143462 3.73315e-18)
(1.07323 -0.142876 0)
(1.10891 -0.143559 -1.54848e-18)
(0.975434 0.217691 -9.52426e-18)
(0.979143 0.206093 -9.2699e-18)
(0.983424 0.20025 -1.65565e-17)
(0.985583 0.198003 0)
(0.98549 0.195689 -1.42301e-17)
(0.984792 0.192427 -6.77844e-18)
(0.984209 0.188744 0)
(0.983465 0.184743 1.20801e-17)
(0.982371 0.180224 1.12774e-17)
(0.981057 0.175135 0)
(0.979736 0.169567 -1.0113e-17)
(0.97865 0.163615 0)
(0.978116 0.157343 0)
(0.978467 0.150776 8.76288e-18)
(0.979925 0.143915 8.12117e-18)
(0.982552 0.136796 -1.82186e-19)
(0.986202 0.129629 1.8421e-19)
(0.990604 0.122569 0)
(0.995466 0.115512 0)
(1.00044 0.108336 -7.00648e-18)
(1.00519 0.101015 -7.0948e-18)
(1.00948 0.093587 1.03955e-17)
(1.01322 0.0860969 3.46391e-18)
(1.01639 0.0785694 3.43477e-18)
(1.019 0.0710133 0)
(1.0211 0.0634338 -3.28162e-18)
(1.0227 0.0558439 0)
(1.02384 0.0482687 0)
(1.02459 0.0407465 -3.324e-18)
(1.02499 0.0333286 0)
(1.02513 0.0260671 0)
(1.02511 0.0189916 0)
(1.02504 0.01209 8.30693e-19)
(1.02503 0.0053129 -4.32508e-19)
(1.02513 -0.00140998 2.16001e-19)
(1.02535 -0.00819652 0)
(1.02564 -0.0151649 0)
(1.02587 -0.0223802 0)
(1.02585 -0.0298189 8.24423e-19)
(1.0254 -0.0373724 8.25351e-19)
(1.02439 -0.0448742 -1.72739e-18)
(1.02277 -0.0521368 0)
(1.02057 -0.0589726 0)
(1.01791 -0.0652188 -3.54075e-18)
(1.01499 -0.0707806 -1.83924e-18)
(1.01207 -0.0756586 0)
(1.00941 -0.079945 0)
(1.00724 -0.0838091 1.92072e-18)
(1.00573 -0.0874734 4.46025e-20)
(1.00498 -0.091185 0)
(1.005 -0.0951851 0)
(1.0057 -0.099682 -2.01444e-18)
(1.00693 -0.104831 0)
(1.00848 -0.110725 0)
(1.01011 -0.117388 0)
(1.01155 -0.124771 0)
(1.01254 -0.132741 0)
(1.01284 -0.141081 -4.00498e-18)
(1.01228 -0.149501 0)
(1.01077 -0.157663 0)
(1.00834 -0.165215 1.76224e-19)
(1.00512 -0.171829 0)
(1.00134 -0.177243 0)
(0.997269 -0.18128 0)
(0.993228 -0.18386 9.92127e-18)
(0.989511 -0.18499 -5.27365e-18)
(0.986399 -0.184751 5.64148e-18)
(0.98415 -0.183284 3.72696e-20)
(0.983 -0.180778 0)
(0.983175 -0.177461 6.69288e-18)
(0.984892 -0.173586 -6.83754e-18)
(0.988368 -0.169424 0)
(0.993813 -0.16525 0)
(1.00146 -0.161334 -1.3331e-19)
(1.01145 -0.157928 6.76425e-18)
(1.02415 -0.155244 6.21716e-18)
(1.0391 -0.153432 0)
(1.05821 -0.152524 -4.2349e-18)
(1.07446 -0.152428 0)
(1.10846 -0.153164 1.16769e-18)
(0.975986 0.216475 0)
(0.981693 0.204217 2.13524e-17)
(0.987771 0.199651 1.89515e-17)
(0.990444 0.198418 0)
(0.990127 0.196246 8.08671e-18)
(0.989278 0.192987 -7.82378e-18)
(0.988782 0.189406 0)
(0.988295 0.185485 -1.36595e-17)
(0.98763 0.181028 0)
(0.986879 0.176032 0)
(0.986076 0.170559 0)
(0.985195 0.164634 0)
(0.984272 0.158268 0)
(0.98343 0.151462 1.82609e-19)
(0.982812 0.144226 -9.58402e-18)
(0.982565 0.136613 -1.82052e-19)
(0.982831 0.128878 1.83472e-19)
(0.983709 0.121255 0)
(0.985198 0.113723 0)
(0.987177 0.106204 0)
(0.989455 0.0986759 -2.02917e-19)
(0.991863 0.0911596 2.06993e-19)
(0.994284 0.0836799 -3.96677e-18)
(0.996642 0.076243 -3.93459e-18)
(0.998872 0.0688405 0)
(1.00092 0.0614617 -3.9992e-18)
(1.00272 0.0541051 3.98794e-18)
(1.00425 0.0467828 0)
(1.00548 0.0395188 1.93576e-18)
(1.00642 0.0323457 1.99679e-18)
(1.0071 0.0252966 0)
(1.00759 0.0183895 0)
(1.00795 0.0116152 1.01175e-18)
(1.00825 0.00494125 -1.44098e-20)
(1.00857 -0.00171276 -4.99718e-19)
(1.0089 -0.00842351 0)
(1.00919 -0.0152617 0)
(1.00935 -0.022266 -1.00961e-18)
(1.00924 -0.029414 0)
(1.00873 -0.036618 -1.01225e-18)
(1.00775 -0.0437451 -6.405e-20)
(1.00627 -0.050645 0)
(1.00434 -0.0571721 2.08054e-18)
(1.00209 -0.0632066 4.17058e-18)
(0.999685 -0.0686849 2.09964e-18)
(0.997343 -0.0736192 0)
(0.995281 -0.0780947 -4.49129e-18)
(0.993692 -0.0822564 0)
(0.992724 -0.0862903 -2.28456e-18)
(0.99246 -0.0904005 0)
(0.99292 -0.0947852 0)
(0.99405 -0.0996145 0)
(0.99574 -0.105015 0)
(0.997829 -0.111057 0)
(1.00012 -0.117753 -4.78694e-18)
(1.00241 -0.12505 4.75788e-18)
(1.00446 -0.132828 0)
(1.00606 -0.140896 4.54554e-18)
(1.00704 -0.149004 -4.72633e-18)
(1.0073 -0.156861 0)
(1.00679 -0.16416 -4.69449e-18)
(1.00554 -0.170612 0)
(1.00368 -0.175977 0)
(1.00135 -0.180083 0)
(0.998759 -0.182842 -5.63565e-18)
(0.99611 -0.184248 6.0225e-18)
(0.99363 -0.184364 -6.3635e-18)
(0.99155 -0.183319 1.3454e-17)
(0.990118 -0.181292 -7.05737e-18)
(0.989593 -0.178505 0)
(0.990251 -0.175209 7.72749e-18)
(0.992377 -0.171674 -7.81034e-18)
(0.996259 -0.168173 0)
(1.0022 -0.164973 -1.02688e-19)
(1.01044 -0.162315 -7.45612e-18)
(1.0214 -0.160402 0)
(1.03471 -0.159329 0)
(1.05232 -0.159122 -4.75244e-18)
(1.06748 -0.159419 0)
(1.10012 -0.160362 -1.32885e-18)
(0.976761 0.214805 0)
(0.984936 0.202012 -1.23007e-17)
(0.992772 0.199208 -1.07772e-17)
(0.995652 0.198997 0)
(0.994988 0.19688 1.85554e-17)
(0.993965 0.193648 1.75217e-17)
(0.9934 0.190156 0)
(0.992844 0.186226 1.57718e-17)
(0.992183 0.181712 -1.49756e-17)
(0.991589 0.176697 0)
(0.991114 0.171245 0)
(0.990688 0.165366 0)
(0.990252 0.15905 0)
(0.989784 0.15228 -1.13905e-17)
(0.989276 0.145044 -1.11887e-17)
(0.988733 0.137366 1.02843e-17)
(0.988232 0.129481 -3.04338e-17)
(0.987894 0.121637 0)
(0.987802 0.113852 0)
(0.987959 0.106086 9.74454e-18)
(0.988313 0.0983374 1.90538e-17)
(0.988808 0.0906376 -9.32711e-18)
(0.98941 0.0830149 0)
(0.990096 0.0754777 0)
(0.990836 0.0680189 -4.67509e-18)
(0.991591 0.0606282 9.21051e-18)
(0.992316 0.0533016 -9.19053e-18)
(0.992973 0.0460444 0)
(0.993535 0.0388702 0)
(0.993995 0.0317982 -2.27536e-18)
(0.994365 0.0248473 0)
(0.994681 0.0180246 2.35008e-18)
(0.994989 0.0113167 -1.15295e-18)
(0.995346 0.00468346 -1.41503e-20)
(0.995783 -0.00194227 -7.13734e-21)
(0.996289 -0.00861588 0)
(0.996819 -0.0153841 0)
(0.997291 -0.0222692 -3.0107e-20)
(0.997599 -0.0292467 1.17836e-18)
(0.99764 -0.036241 3.51305e-18)
(0.997343 -0.0431409 4.68792e-18)
(0.996684 -0.0498238 2.39447e-18)
(0.99569 -0.0561753 -2.36287e-18)
(0.994443 -0.0621077 -2.40058e-18)
(0.993072 -0.0675799 2.49972e-18)
(0.991744 -0.0726123 0)
(0.990632 -0.077285 5.09178e-18)
(0.989901 -0.0817266 -5.28742e-18)
(0.989681 -0.0860979 0)
(0.990063 -0.0905723 0)
(0.991078 -0.0953158 0)
(0.992704 -0.100469 0)
(0.994862 -0.106132 0)
(0.997426 -0.112357 0)
(1.00023 -0.119143 5.40543e-18)
(1.00309 -0.126433 -1.0889e-17)
(1.00579 -0.134108 -5.49551e-18)
(1.00811 -0.141991 5.48391e-18)
(1.00988 -0.149852 5.3274e-18)
(1.01091 -0.157425 -5.54181e-18)
(1.01112 -0.16443 5.63167e-18)
(1.01044 -0.170601 0)
(1.0089 -0.175713 5.96521e-18)
(1.00655 -0.179606 -6.21115e-18)
(1.00355 -0.182196 0)
(1.00006 -0.183479 -1.36386e-17)
(0.996315 -0.183526 7.1922e-18)
(0.992593 -0.182472 -1.51833e-17)
(0.989204 -0.180507 8.00106e-18)
(0.986495 -0.177863 0)
(0.984831 -0.174799 8.60989e-18)
(0.984591 -0.17159 8.90382e-18)
(0.986147 -0.16851 -8.90357e-18)
(0.989879 -0.165824 -8.88497e-18)
(0.996078 -0.16376 8.54206e-18)
(1.00523 -0.162513 0)
(1.017 -0.162121 0)
(1.03347 -0.162654 5.46074e-18)
(1.04785 -0.163336 0)
(1.08025 -0.164804 1.53081e-18)
(0.977833 0.212618 1.62993e-17)
(0.988995 0.199652 0)
(0.998473 0.199062 -2.42626e-17)
(1.00126 0.199739 2.19857e-17)
(1.00018 0.197598 -2.09636e-17)
(0.999038 0.194446 2.01038e-17)
(0.998411 0.191048 0)
(0.99774 0.187078 1.60031e-19)
(0.996968 0.182481 1.69074e-17)
(0.996308 0.177399 0)
(0.995833 0.171898 0)
(0.995497 0.16598 0)
(0.995259 0.159644 2.78763e-17)
(0.995095 0.152878 0)
(0.994961 0.145667 2.4833e-17)
(0.994809 0.138018 0)
(0.994629 0.13014 4.6423e-17)
(0.994461 0.12227 0)
(0.994348 0.114434 0)
(0.994291 0.106604 -2.21799e-17)
(0.994269 0.098786 -1.08604e-17)
(0.994261 0.0910114 0)
(0.994273 0.0833101 0)
(0.994314 0.0756954 0)
(0.99439 0.0681664 5.27901e-18)
(0.994495 0.0607187 -5.26219e-18)
(0.994613 0.0533514 -1.08691e-19)
(0.994726 0.0460691 0)
(0.994826 0.038881 5.36728e-18)
(0.994913 0.0318001 0)
(0.995002 0.0248373 0)
(0.995122 0.0179923 -2.65616e-18)
(0.995314 0.0112467 1.36158e-18)