/*--------------------------------*- C++ -*----------------------------------*\
| =========                 |                                                 |
| \\      /  F ield         | OpenFOAM: The Open Source CFD Toolbox           |
|  \\    /   O peration     | Version:  v1912                                 |
|   \\  /    A nd           | Website:  www.openfoam.com                      |
|    \\/     M anipulation  |                                                 |
\*---------------------------------------------------------------------------*/
FoamFile
{
    version     2.0;
    format      ascii;
    class       volScalarField;
    location    "200";
    object      p;
}
// * * * * * * * * * * * * * * * * * * * * * * * * * * * * * * * * * * * * * //

dimensions      [0 2 -2 0 0 0 0];


internalField   nonuniform List<scalar> 
10000
(
0.00215346
0.00215601
0.00216344
0.00217529
0.00219127
0.00221165
0.00223694
0.0022677
0.00230466
0.00234879
0.00240133
0.00246422
0.00253958
0.00263237
0.0027445
0.0028965
0.00307128
0.00340491
0.00365067
0.00603269
0.00215346
0.00215601
0.00216343
0.00217528
0.00219126
0.00221165
0.00223693
0.0022677
0.00230466
0.00234878
0.00240132
0.00246421
0.00253956
0.00263235
0.00274447
0.00289644
0.00307124
0.00340451
0.00365638
0.0053682
0.00215345
0.002156
0.00216343
0.00217528
0.00219126
0.00221164
0.00223692
0.00226769
0.00230464
0.00234877
0.0024013
0.00246419
0.00253953
0.0026323
0.00274442
0.00289633
0.00307114
0.00340391
0.00365871
0.00514542
0.00215345
0.00215599
0.00216342
0.00217527
0.00219125
0.00221163
0.00223691
0.00226767
0.00230462
0.00234874
0.00240127
0.00246415
0.00253948
0.00263223
0.00274432
0.00289616
0.00307097
0.00340302
0.00365916
0.0051314
0.00215344
0.00215598
0.0021634
0.00217525
0.00219123
0.00221161
0.00223689
0.00226764
0.00230459
0.00234871
0.00240122
0.00246409
0.0025394
0.00263213
0.00274419
0.00289592
0.00307073
0.00340179
0.00365903
0.0051145
0.00215342
0.00215596
0.00216338
0.00217523
0.00219121
0.00221158
0.00223686
0.00226761
0.00230455
0.00234866
0.00240116
0.00246401
0.0025393
0.00263199
0.00274402
0.0028956
0.00307039
0.00340021
0.00365834
0.00507274
0.0021534
0.00215594
0.00216336
0.00217521
0.00219118
0.00221155
0.00223682
0.00226757
0.0023045
0.00234859
0.00240108
0.00246391
0.00253918
0.00263181
0.0027438
0.0028952
0.00306996
0.00339824
0.00365701
0.00502316
0.00215338
0.00215592
0.00216333
0.00217517
0.00219115
0.00221151
0.00223677
0.00226751
0.00230444
0.00234852
0.00240099
0.00246379
0.00253903
0.0026316
0.00274353
0.00289469
0.00306941
0.00339586
0.0036551
0.0049722
0.00215336
0.00215588
0.00216329
0.00217513
0.0021911
0.00221146
0.00223672
0.00226745
0.00230436
0.00234842
0.00240088
0.00246365
0.00253884
0.00263134
0.00274319
0.00289408
0.00306874
0.00339303
0.00365267
0.00491985
0.00215332
0.00215584
0.00216324
0.00217509
0.00219105
0.00221141
0.00223665
0.00226737
0.00230427
0.00234831
0.00240074
0.00246347
0.00253862
0.00263103
0.0027428
0.00289336
0.00306793
0.00338973
0.00364972
0.00486557
0.00215328
0.00215579
0.00216319
0.00217503
0.00219099
0.00221134
0.00223657
0.00226728
0.00230416
0.00234818
0.00240058
0.00246327
0.00253837
0.00263067
0.00274234
0.00289251
0.00306696
0.0033859
0.00364624
0.00480933
0.00215323
0.00215574
0.00216312
0.00217496
0.00219092
0.00221125
0.00223648
0.00226717
0.00230403
0.00234803
0.0024004
0.00246304
0.00253807
0.00263026
0.0027418
0.00289152
0.00306582
0.00338151
0.00364219
0.00475124
0.00215317
0.00215567
0.00216305
0.00217488
0.00219083
0.00221116
0.00223637
0.00226705
0.00230389
0.00234786
0.00240018
0.00246277
0.00253772
0.00262977
0.00274117
0.00289038
0.00306448
0.00337653
0.00363752
0.0046914
0.0021531
0.00215559
0.00216296
0.00217479
0.00219073
0.00221105
0.00223624
0.0022669
0.00230372
0.00234765
0.00239994
0.00246246
0.00253733
0.00262922
0.00274045
0.00288907
0.00306293
0.0033709
0.00363218
0.0046299
0.00215302
0.00215549
0.00216285
0.00217468
0.00219062
0.00221092
0.0022361
0.00226673
0.00230352
0.00234742
0.00239965
0.0024621
0.00253687
0.00262858
0.00273963
0.00288758
0.00306114
0.00336459
0.0036261
0.00456684
0.00215293
0.00215538
0.00216273
0.00217456
0.00219049
0.00221077
0.00223593
0.00226654
0.0023033
0.00234715
0.00239933
0.00246169
0.00253636
0.00262786
0.00273868
0.00288588
0.00305908
0.00335755
0.00361918
0.00450236
0.00215282
0.00215526
0.00216259
0.00217442
0.00219033
0.0022106
0.00223574
0.00226632
0.00230304
0.00234685
0.00239896
0.00246123
0.00253576
0.00262704
0.0027376
0.00288396
0.00305672
0.00334975
0.00361131
0.0044366
0.00215269
0.00215512
0.00216243
0.00217425
0.00219016
0.00221041
0.00223552
0.00226607
0.00230275
0.0023465
0.00239854
0.0024607
0.00253509
0.0026261
0.00273637
0.00288179
0.00305402
0.00334115
0.00360238
0.00436975
0.00215254
0.00215495
0.00216225
0.00217407
0.00218996
0.00221019
0.00223527
0.00226579
0.00230242
0.00234611
0.00239806
0.0024601
0.00253433
0.00262505
0.00273498
0.00287935
0.00305093
0.00333172
0.00359225
0.00430205
0.00215237
0.00215476
0.00216204
0.00217385
0.00218974
0.00220994
0.00223499
0.00226546
0.00230205
0.00234567
0.00239752
0.00245942
0.00253347
0.00262386
0.0027334
0.00287662
0.0030474
0.00332143
0.00358075
0.00423376
0.00215217
0.00215454
0.00216181
0.00217361
0.00218948
0.00220965
0.00223467
0.0022651
0.00230162
0.00234516
0.00239692
0.00245866
0.0025325
0.00262251
0.00273161
0.00287356
0.00304339
0.00331026
0.00356772
0.00416517
0.00215194
0.0021543
0.00216154
0.00217334
0.00218919
0.00220933
0.00223431
0.00226469
0.00230115
0.0023446
0.00239623
0.0024578
0.0025314
0.00262101
0.00272959
0.00287017
0.00303883
0.00329819
0.00355297
0.00409661
0.00215168
0.00215402
0.00216124
0.00217302
0.00218886
0.00220897
0.0022339
0.00226423
0.00230061
0.00234397
0.00239547
0.00245684
0.00253017
0.00261932
0.00272732
0.00286639
0.00303367
0.0032852
0.00353635
0.00402839
0.00215137
0.0021537
0.0021609
0.00217267
0.00218849
0.00220856
0.00223345
0.00226371
0.00230001
0.00234326
0.0023946
0.00245576
0.0025288
0.00261744
0.00272476
0.00286221
0.00302784
0.00327126
0.00351772
0.00396078
0.00215103
0.00215334
0.00216051
0.00217227
0.00218807
0.0022081
0.00223293
0.00226312
0.00229934
0.00234246
0.00239364
0.00245455
0.00252725
0.00261533
0.0027219
0.00285759
0.00302129
0.00325634
0.00349698
0.00389401
0.00215063
0.00215293
0.00216007
0.00217182
0.00218759
0.00220758
0.00223235
0.00226246
0.00229857
0.00234155
0.00239255
0.00245319
0.00252551
0.00261297
0.00271868
0.00285247
0.00301392
0.00324038
0.00347407
0.0038282
0.00215018
0.00215246
0.00215958
0.0021713
0.00218705
0.00220699
0.00223169
0.00226172
0.00229771
0.00234054
0.00239131
0.00245165
0.00252355
0.00261032
0.00271506
0.00284679
0.00300565
0.00322331
0.00344896
0.0037634
0.00214967
0.00215194
0.00215903
0.00217072
0.00218643
0.00220632
0.00223094
0.00226087
0.00229674
0.00233938
0.00238992
0.00244992
0.00252133
0.00260734
0.00271099
0.00284049
0.00299641
0.00320508
0.00342168
0.00369962
0.00214908
0.00215134
0.0021584
0.00217007
0.00218573
0.00220556
0.0022301
0.00225991
0.00229563
0.00233808
0.00238835
0.00244797
0.00251884
0.002604
0.00270642
0.00283352
0.00298612
0.00318564
0.0033923
0.00363683
0.00214842
0.00215066
0.00215769
0.00216932
0.00218494
0.0022047
0.00222914
0.00225883
0.00229439
0.00233661
0.00238658
0.00244577
0.00251604
0.00260025
0.0027013
0.00282582
0.00297473
0.00316494
0.00336091
0.003575
0.00214767
0.0021499
0.00215689
0.00216848
0.00218405
0.00220373
0.00222806
0.00225761
0.00229298
0.00233496
0.00238459
0.0024433
0.00251289
0.00259607
0.00269559
0.00281732
0.00296218
0.00314295
0.00332762
0.00351406
0.00214682
0.00214903
0.00215599
0.00216754
0.00218304
0.00220263
0.00222684
0.00225624
0.0022914
0.00233309
0.00238234
0.00244052
0.00250936
0.0025914
0.00268923
0.00280797
0.0029484
0.00311963
0.00329255
0.00345397
0.00214586
0.00214806
0.00215498
0.00216647
0.00218191
0.0022014
0.00222547
0.00225469
0.00228961
0.002331
0.00237982
0.00243741
0.00250542
0.00258619
0.00268216
0.00279771
0.00293336
0.00309497
0.00325582
0.00339468
0.00214478
0.00214696
0.00215384
0.00216527
0.00218063
0.00220001
0.00222393
0.00225295
0.00228761
0.00232865
0.002377
0.00243393
0.00250101
0.0025804
0.00267434
0.00278647
0.00291701
0.00306897
0.00321758
0.00333613
0.00214356
0.00214573
0.00215255
0.00216392
0.00217919
0.00219844
0.0022222
0.00225099
0.00228536
0.00232601
0.00237383
0.00243004
0.0024961
0.00257398
0.00266569
0.0027742
0.00289931
0.0030416
0.00317796
0.00327829
0.00214219
0.00214433
0.00215111
0.0021624
0.00217757
0.00219668
0.00222025
0.00224879
0.00228284
0.00232305
0.0023703
0.0024257
0.00249063
0.00256687
0.00265617
0.00276084
0.00288024
0.00301289
0.0031371
0.00322111
0.00214064
0.00214277
0.00214949
0.00216069
0.00217574
0.00219471
0.00221806
0.00224633
0.00228001
0.00231975
0.00236635
0.00242086
0.00248456
0.00255902
0.00264571
0.00274634
0.00285977
0.00298286
0.00309514
0.00316458
0.0021389
0.00214101
0.00214768
0.00215878
0.0021737
0.00219249
0.00221561
0.00224357
0.00227686
0.00231606
0.00236194
0.00241549
0.00247784
0.00255036
0.00263427
0.00273065
0.0028379
0.00295152
0.0030522
0.00310867
0.00213695
0.00213904
0.00214564
0.00215663
0.00217141
0.00219
0.00221287
0.00224049
0.00227333
0.00231194
0.00235704
0.00240953
0.00247041
0.00254085
0.00262177
0.00271372
0.00281462
0.00291893
0.00300844
0.00305337
0.00213476
0.00213683
0.00214335
0.00215423
0.00216885
0.00218722
0.0022098
0.00223705
0.00226939
0.00230736
0.0023516
0.00240292
0.00246222
0.00253042
0.00260817
0.00269552
0.00278994
0.00288513
0.00296396
0.00299868
0.00213231
0.00213435
0.00214079
0.00215154
0.00216598
0.00218411
0.00220637
0.0022332
0.00226501
0.00230226
0.00234557
0.00239563
0.0024532
0.00251902
0.00259343
0.00267602
0.00276387
0.00285018
0.00291889
0.0029446
0.00212956
0.00213157
0.00213793
0.00214853
0.00216277
0.00218064
0.00220255
0.00222892
0.00226013
0.00229661
0.00233889
0.00238758
0.0024433
0.00250658
0.00257749
0.00265519
0.00273645
0.00281415
0.00287335
0.00289113
0.00212649
0.00212847
0.00213473
0.00214517
0.00215919
0.00217677
0.00219829
0.00222416
0.00225471
0.00229034
0.00233151
0.00237872
0.00243247
0.00249307
0.00256032
0.00263303
0.0027077
0.00277711
0.00282744
0.00283827
0.00212305
0.002125
0.00213116
0.00214142
0.00215519
0.00217245
0.00219355
0.00221886
0.0022487
0.00228341
0.00232337
0.002369
0.00242064
0.00247842
0.00254189
0.00260954
0.00267768
0.00273914
0.00278124
0.00278603
0.00211922
0.00212113
0.00212717
0.00213724
0.00215074
0.00216764
0.00218827
0.00221299
0.00224205
0.00227576
0.00231442
0.00235835
0.00240777
0.00246259
0.00252216
0.00258471
0.00264643
0.00270032
0.00273487
0.00273442
0.00211494
0.00211681
0.00212273
0.00213258
0.00214578
0.00216229
0.00218242
0.00220648
0.0022347
0.00226732
0.00230459
0.00234672
0.00239379
0.00244554
0.00250112
0.00255857
0.00261401
0.00266075
0.00268838
0.00268344
0.00211017
0.002112
0.00211778
0.00212739
0.00214028
0.00215636
0.00217594
0.00219928
0.00222659
0.00225805
0.00229384
0.00233406
0.00237866
0.00242724
0.00247877
0.00253114
0.00258049
0.0026205
0.00264186
0.0026331
0.00210486
0.00210665
0.00211227
0.00212163
0.00213416
0.00214978
0.00216876
0.00219133
0.00221767
0.00224788
0.00228208
0.00232029
0.00236233
0.00240766
0.0024551
0.00250245
0.00254593
0.00257966
0.00259538
0.00258337
0.00209896
0.00210069
0.00210615
0.00211524
0.00212738
0.0021425
0.00216083
0.00218258
0.00220786
0.00223675
0.00226928
0.00230538
0.00234477
0.00238678
0.00243012
0.00247255
0.00251042
0.00253831
0.00254898
0.00253427
0.00209241
0.00209408
0.00209937
0.00210815
0.00211988
0.00213446
0.00215208
0.00217294
0.00219711
0.00222459
0.00225537
0.00228928
0.00232594
0.00236458
0.00240385
0.00244149
0.00247403
0.00249654
0.00250272
0.00248578
0.00208514
0.00208676
0.00209185
0.00210031
0.00211159
0.00212558
0.00214246
0.00216237
0.00218534
0.00221135
0.00224029
0.00227194
0.00230581
0.00234107
0.00237631
0.00240932
0.00243683
0.00245441
0.00245663
0.00243789
0.0020771
0.00207865
0.00208353
0.00209164
0.00210243
0.0021158
0.00213188
0.00215079
0.00217251
0.00219697
0.002224
0.00225332
0.00228437
0.00231625
0.00234755
0.0023761
0.00239891
0.00241201
0.00241076
0.00239058
0.0020682
0.00206968
0.00207434
0.00208207
0.00209235
0.00210505
0.00212029
0.00213813
0.00215854
0.00218138
0.00220645
0.00223339
0.0022616
0.00229014
0.00231758
0.0023419
0.00236033
0.00236938
0.00236512
0.00234382
0.00205837
0.00205978
0.0020642
0.00207153
0.00208127
0.00209326
0.0021076
0.00212433
0.00214337
0.00216454
0.0021876
0.00221213
0.0022375
0.00226274
0.00228647
0.00230679
0.00232117
0.00232659
0.00231973
0.0022976
0.00204754
0.00204887
0.00205304
0.00205995
0.00206911
0.00208036
0.00209376
0.00210932
0.00212694
0.0021464
0.00216741
0.00218952
0.00221206
0.00223409
0.00225427
0.00227082
0.0022815
0.00228368
0.00227461
0.00225188
0.00203563
0.00203687
0.00204078
0.00204724
0.00205579
0.00206626
0.00207868
0.00209305
0.0021092
0.00212691
0.00214585
0.00216554
0.00218531
0.00220423
0.00222102
0.00223407
0.00224137
0.0022407
0.00222976
0.00220664
0.00202255
0.0020237
0.00202733
0.00203333
0.00204124
0.0020509
0.00206231
0.00207543
0.00209009
0.00210603
0.0021229
0.0021402
0.00215727
0.00217319
0.00218679
0.00219659
0.00220086
0.00219767
0.00218517
0.00216184
0.00200821
0.00200927
0.00201261
0.00201812
0.00202537
0.0020342
0.00204457
0.00205643
0.00206958
0.00208374
0.00209854
0.0021135
0.00212794
0.00214101
0.00215162
0.00215845
0.00215999
0.00215463
0.00214085
0.00211745
0.00199253
0.0019935
0.00199654
0.00200155
0.00200813
0.00201609
0.0020254
0.00203598
0.00204761
0.00206
0.00207277
0.00208544
0.00209737
0.00210775
0.00211558
0.00211971
0.00211883
0.00211159
0.00209677
0.00207344
0.00197544
0.00197631
0.00197904
0.00198353
0.00198941
0.0019965
0.00200475
0.00201403
0.00202415
0.00203479
0.00204558
0.00205605
0.00206558
0.00207344
0.00207872
0.00208041
0.00207739
0.00206856
0.00205292
0.00202976
0.00195683
0.0019576
0.00196002
0.00196399
0.00196917
0.00197538
0.00198255
0.00199056
0.00199918
0.00200811
0.00201698
0.00202534
0.00203262
0.00203813
0.00204108
0.00204059
0.00203571
0.00202554
0.00200927
0.00198637
0.00193664
0.00193731
0.00193941
0.00194286
0.00194734
0.00195267
0.00195877
0.00196551
0.00197267
0.00197994
0.00198698
0.00199334
0.00199851
0.00200187
0.00200272
0.00200029
0.00199381
0.00198253
0.00196581
0.00194324
0.00191479
0.00191536
0.00191715
0.00192007
0.00192384
0.00192831
0.00193336
0.00193887
0.00194461
0.0019503
0.00195559
0.00196008
0.0019633
0.0019647
0.00196367
0.00195955
0.0019517
0.00193951
0.00192249
0.00190031
0.0018912
0.00189167
0.00189315
0.00189556
0.00189865
0.00190226
0.0019063
0.00191062
0.001915
0.00191918
0.00192283
0.00192559
0.00192703
0.00192666
0.00192396
0.00191838
0.00190938
0.00189648
0.00187929
0.00185755
0.00186583
0.0018662
0.00186738
0.00186928
0.0018717
0.00187449
0.00187755
0.00188073
0.00188383
0.00188659
0.00188873
0.0018899
0.00188972
0.00188778
0.00188363
0.0018768
0.00186686
0.00185341
0.00183616
0.00181491
0.00183861
0.00183889
0.00183977
0.00184119
0.00184297
0.00184498
0.00184711
0.00184921
0.00185111
0.00185256
0.00185331
0.00185304
0.00185143
0.0018481
0.00184269
0.00183482
0.00182411
0.00181027
0.00179306
0.00177234
0.00180951
0.00180971
0.00181031
0.00181126
0.00181243
0.0018137
0.00181496
0.00181607
0.00181686
0.00181711
0.0018166
0.00181504
0.00181216
0.00180764
0.00180117
0.00179243
0.00178113
0.00176704
0.00174996
0.00172979
0.0017785
0.00177861
0.00177895
0.00177948
0.00178008
0.00178066
0.00178111
0.00178131
0.00178109
0.00178027
0.00177863
0.00177594
0.00177196
0.00176642
0.00175907
0.00174964
0.0017379
0.00172367
0.0017068
0.00168722
0.00174557
0.00174561
0.0017457
0.00174583
0.00174591
0.00174586
0.00174558
0.00174495
0.00174383
0.00174205
0.00173943
0.00173576
0.00173085
0.00172446
0.00171639
0.00170643
0.0016944
0.00168013
0.00166354
0.00164457
0.00171072
0.00171068
0.00171056
0.00171032
0.00170993
0.00170932
0.00170839
0.00170703
0.00170511
0.00170249
0.00169903
0.00169453
0.00168884
0.00168177
0.00167314
0.0016628
0.00165058
0.00163639
0.00162014
0.00160179
0.00167396
0.00167386
0.00167354
0.00167298
0.00167218
0.00167106
0.00166956
0.00166756
0.00166496
0.00166164
0.00165746
0.00165228
0.00164596
0.00163835
0.00162931
0.00161871
0.00160644
0.0015924
0.00157654
0.00155884
0.00163532
0.00163516
0.00163467
0.00163384
0.00163267
0.00163113
0.00162913
0.0016266
0.00162342
0.00161951
0.00161475
0.00160903
0.00160223
0.00159422
0.0015849
0.00157416
0.00156192
0.00154811
0.00153269
0.00151565
0.00159484
0.00159464
0.001594
0.00159293
0.00159146
0.00158956
0.00158716
0.00158418
0.00158054
0.00157616
0.00157094
0.0015648
0.00155764
0.00154937
0.00153989
0.00152912
0.00151701
0.0015035
0.00148856
0.00147218
0.00155259
0.00155235
0.0015516
0.00155033
0.00154861
0.00154642
0.00154369
0.00154036
0.00153635
0.00153161
0.00152606
0.00151963
0.00151223
0.0015038
0.00149426
0.00148357
0.00147166
0.0014585
0.00144408
0.00142839
0.00150863
0.00150836
0.00150751
0.0015061
0.00150418
0.00150177
0.00149879
0.00149519
0.00149091
0.00148592
0.00148014
0.00147352
0.00146599
0.00145751
0.00144802
0.00143748
0.00142584
0.0014131
0.00139922
0.00138422
0.00146304
0.00146275
0.00146183
0.0014603
0.00145825
0.00145567
0.00145251
0.00144873
0.00144428
0.00143912
0.00143321
0.0014265
0.00141895
0.00141051
0.00140115
0.00139083
0.00137953
0.00136724
0.00135394
0.00133964
0.00141592
0.00141561
0.00141465
0.00141304
0.00141089
0.00140821
0.00140494
0.00140105
0.0013965
0.00139126
0.00138531
0.0013786
0.00137111
0.0013628
0.00135364
0.00134361
0.0013327
0.00132089
0.00130818
0.00129459
0.00136735
0.00136704
0.00136605
0.0013644
0.0013622
0.00135946
0.00135614
0.0013522
0.00134763
0.0013424
0.00133648
0.00132985
0.00132249
0.00131437
0.00130548
0.0012958
0.00128531
0.00127402
0.00126193
0.00124904
0.00131745
0.00131713
0.00131613
0.00131447
0.00131225
0.00130951
0.00130619
0.00130227
0.00129773
0.00129257
0.00128675
0.00128027
0.00127311
0.00126524
0.00125667
0.00124737
0.00123735
0.00122661
0.00121514
0.00120296
0.00126631
0.00126599
0.001265
0.00126335
0.00126115
0.00125844
0.00125517
0.00125132
0.00124687
0.00124183
0.00123617
0.00122989
0.00122298
0.00121541
0.0012072
0.00119833
0.00118881
0.00117862
0.00116779
0.00115632
0.00121403
0.00121372
0.00121275
0.00121113
0.00120899
0.00120634
0.00120315
0.00119941
0.0011951
0.00119023
0.00118478
0.00117874
0.00117212
0.0011649
0.00115709
0.00114867
0.00113966
0.00113005
0.00111986
0.00110908
0.00116072
0.00116042
0.00115948
0.00115792
0.00115585
0.00115329
0.00115022
0.00114662
0.00114249
0.00113782
0.00113261
0.00112686
0.00112056
0.00111372
0.00110633
0.00109839
0.0010899
0.00108088
0.00107132
0.00106124
0.00110648
0.0011062
0.00110529
0.0011038
0.00110182
0.00109937
0.00109644
0.00109302
0.00108908
0.00108465
0.00107971
0.00107427
0.00106833
0.00106188
0.00105493
0.00104748
0.00103953
0.00103109
0.00102217
0.00101277
0.0010514
0.00105113
0.00105027
0.00104886
0.00104698
0.00104466
0.0010419
0.00103866
0.00103495
0.00103077
0.00102613
0.00102102
0.00101544
0.0010094
0.0010029
0.000995946
0.000988537
0.000980683
0.00097239
0.000963668
0.000995559
0.000995304
0.000994501
0.00099317
0.000991406
0.000989234
0.000986637
0.000983601
0.000980128
0.000976222
0.000971885
0.000967118
0.000961923
0.000956302
0.00095026
0.000943801
0.000936929
0.000929653
0.000921978
0.000913914
0.000939033
0.000938795
0.000938047
0.000936807
0.000935163
0.000933141
0.000930725
0.000927902
0.000924675
0.000921048
0.000917025
0.000912607
0.000907796
0.000902596
0.000897011
0.000891046
0.000884706
0.000877998
0.000870928
0.000863504
0.000881883
0.000881664
0.000880971
0.000879825
0.000878306
0.000876438
0.000874207
0.000871601
0.000868624
0.00086528
0.000861573
0.000857505
0.000853079
0.000848297
0.000843165
0.000837687
0.000831869
0.000825716
0.000819234
0.000812432
0.000824158
0.000823956
0.000823321
0.00082227
0.000820877
0.000819164
0.000817119
0.000814731
0.000812004
0.000808943
0.00080555
0.000801829
0.000797782
0.000793412
0.000788725
0.000783723
0.000778413
0.0007728
0.00076689
0.00076069
0.000765888
0.000765705
0.000765127
0.00076417
0.000762902
0.000761344
0.000759483
0.000757312
0.000754832
0.000752049
0.000748966
0.000745586
0.00074191
0.000737943
0.000733688
0.000729151
0.000724334
0.000719244
0.000713886
0.000708265
0.000707089
0.000706923
0.000706401
0.000705537
0.000704393
0.000702986
0.000701306
0.000699346
0.000697109
0.000694598
0.000691817
0.000688768
0.000685454
0.000681877
0.000678043
0.000673953
0.000669613
0.000665028
0.000660201
0.000655138
0.000647752
0.000647604
0.000647137
0.000646363
0.000645338
0.000644079
0.000642576
0.000640822
0.00063882
0.000636573
0.000634085
0.000631358
0.000628394
0.000625195
0.000621766
0.000618109
0.000614229
0.000610128
0.000605813
0.000601286
0.000587846
0.000587714
0.0005873
0.000586614
0.000585705
0.000584589
0.000583256
0.000581701
0.000579926
0.000577934
0.000575728
0.000573311
0.000570683
0.000567848
0.000564808
0.000561567
0.000558127
0.000554492
0.000550667
0.000546653
0.00052731
0.000527195
0.000526832
0.000526231
0.000525435
0.000524457
0.000523288
0.000521926
0.00052037
0.000518625
0.000516692
0.000514573
0.000512271
0.000509786
0.000507122
0.000504281
0.000501266
0.000498079
0.000494725
0.000491206
0.00046605
0.00046595
0.000465635
0.000465115
0.000464426
0.000463579
0.000462569
0.00046139
0.000460044
0.000458534
0.000456862
0.000455029
0.000453037
0.000450887
0.000448582
0.000446124
0.000443514
0.000440757
0.000437853
0.000434807
0.000403934
0.00040385
0.000403585
0.000403144
0.000402561
0.000401843
0.000400987
0.000399988
0.000398847
0.000397567
0.000396149
0.000394594
0.000392904
0.000391081
0.000389125
0.000387039
0.000384825
0.000382484
0.00038002
0.000377433
0.000340765
0.000340694
0.000340471
0.000340104
0.000339618
0.000339022
0.00033831
0.00033748
0.000336532
0.000335469
0.000334291
0.000333
0.000331597
0.000330083
0.00032846
0.000326728
0.00032489
0.000322946
0.0003209
0.000318752
0.000276332
0.000276278
0.000276105
0.000275817
0.000275434
0.000274962
0.000274399
0.000273742
0.00027299
0.000272147
0.000271213
0.000270188
0.000269074
0.000267871
0.00026658
0.000265203
0.000263741
0.000262195
0.000260566
0.000258856
0.000210233
0.000210186
0.000210047
0.000209821
0.000209525
0.000209162
0.000208731
0.000208228
0.000207655
0.000207012
0.000206301
0.000205523
0.000204677
0.000203765
0.000202787
0.000201744
0.000200637
0.000199468
0.000198236
0.000196943
0.000142231
0.000142211
0.000142134
0.000141996
0.000141809
0.000141577
0.000141299
0.000140973
0.0001406
0.00014018
0.000139714
0.000139202
0.000138645
0.000138043
0.000137397
0.000136707
0.000135973
0.000135198
0.00013438
0.000133521
7.14012e-05
7.13667e-05
7.12955e-05
7.11994e-05
7.10832e-05
7.09457e-05
7.07852e-05
7.06014e-05
7.0395e-05
7.01662e-05
6.99152e-05
6.96423e-05
6.93475e-05
6.90311e-05
6.86933e-05
6.83345e-05
6.79549e-05
6.75548e-05
6.71344e-05
6.66942e-05
0.00503953
0.00305438
0.00237545
0.00221703
0.00206847
0.00190954
0.00177269
0.00166103
0.00156816
0.00148787
0.0014164
0.00135184
0.00129295
0.00123874
0.00118846
0.00114153
0.00109751
0.00105606
0.00101689
0.000979743
0.000944422
0.000910739
0.000878553
0.000847729
0.000818153
0.000789722
0.000762357
0.000735974
0.000710506
0.000685884
0.000662061
0.000638983
0.000616606
0.000594879
0.000573776
0.000553259
0.000533298
0.000513854
0.000494914
0.000476448
0.000458436
0.000440848
0.000423676
0.000406896
0.000390496
0.000374448
0.000358752
0.000343391
0.000328355
0.00031362
0.000299192
0.000285056
0.000271206
0.000257621
0.000244312
0.000231269
0.000218492
0.000205957
0.000193684
0.000181664
0.000169903
0.000158382
0.000147126
0.000136138
0.000125429
0.000115002
0.000104882
9.51001e-05
8.56951e-05
7.67058e-05
6.82255e-05
6.02503e-05
5.32587e-05
4.64561e-05
4.32099e-05
3.50095e-05
4.97035e-05
1.04302e-05
0.000143432
-0.000192819
0.00509423
0.00310917
0.00241201
0.0022379
0.00208064
0.00191808
0.00177971
0.0016671
0.00157343
0.00149248
0.00142046
0.00135546
0.00129621
0.00124171
0.00119118
0.00114404
0.00109984
0.00105823
0.00101891
0.000981645
0.000946213
0.00091243
0.000880154
0.000849249
0.000819599
0.000791101
0.000763673
0.000737233
0.000711712
0.000687041
0.000663174
0.000640054
0.000617637
0.000595873
0.000574736
0.000554187
0.000534195
0.000514723
0.000495756
0.000477265
0.000459229
0.000441618
0.000424424
0.000407624
0.000391204
0.000375138
0.000359424
0.000344046
0.000328993
0.000314244
0.0002998
0.000285651
0.000271787
0.000258189
0.000244867
0.000231812
0.000219023
0.000206477
0.000194193
0.000182163
0.000170392
0.000158861
0.000147596
0.000136599
0.000125882
0.000115446
0.000105318
9.55281e-05
8.61154e-05
7.71188e-05
6.86314e-05
6.06492e-05
5.36513e-05
4.68418e-05
4.35914e-05
3.53816e-05
5.00786e-05
1.07966e-05
0.000143817
-0.000192611
0.00507701
0.00311961
0.00242826
0.00225255
0.00209359
0.00192942
0.0017895
0.00167557
0.00158084
0.00149902
0.0014263
0.00136071
0.00130098
0.00124607
0.00119519
0.00114775
0.00110329
0.00106145
0.00102193
0.000984484
0.00094889
0.000914962
0.000882555
0.00085153
0.000821772
0.000793173
0.000765654
0.000739129
0.00071353
0.000688787
0.000664852
0.000641669
0.000619193
0.000597376
0.000576187
0.00055559
0.000535553
0.000516038
0.00049703
0.000478501
0.000460429
0.000442783
0.000425557
0.000408726
0.000392277
0.000376182
0.000360442
0.000345039
0.000329961
0.000315189
0.000300723
0.000286552
0.000272668
0.000259049
0.000245709
0.000232636
0.000219829
0.000207266
0.000194966
0.00018292
0.000171133
0.000159588
0.000148309
0.000137298
0.000126568
0.000116119
0.000105979
9.61772e-05
8.6753e-05
7.77451e-05
6.9247e-05
6.12542e-05
5.42466e-05
4.74262e-05
4.41701e-05
3.59424e-05
5.0653e-05
1.13217e-05
0.000144487
-0.000192416
0.00503947
0.00312426
0.00243766
0.0022591
0.00210057
0.00193757
0.00179791
0.00168352
0.00158806
0.00150553
0.00143219
0.00136607
0.00130588
0.00125058
0.00119937
0.00115163
0.00110691
0.00106484
0.00102512
0.000987493
0.000951735
0.000917659
0.000885116
0.000853968
0.000824096
0.000795394
0.000767779
0.000741166
0.000715485
0.000690666
0.00066666
0.000643411
0.000620873
0.000598997
0.000577755
0.000557106
0.000537021
0.00051746
0.00049841
0.00047984
0.000461729
0.000444047
0.000426786
0.000409922
0.000393441
0.000377317
0.000361548
0.000346118
0.000331014
0.000316216
0.000301727
0.000287532
0.000273626
0.000259987
0.000246626
0.000233533
0.000220708
0.000208126
0.000195809
0.000183746
0.000171943
0.000160382
0.000149088
0.000138062
0.000127317
0.000116854
0.000106701
9.68863e-05
8.74495e-05
7.84295e-05
6.99196e-05
6.19153e-05
5.48968e-05
4.80647e-05
4.48002e-05
3.65564e-05
5.12678e-05
1.19067e-05
0.000145239
-0.000192282
0.00499844
0.00313199
0.00244862
0.00226545
0.00210547
0.00194261
0.00180348
0.0016895
0.00159414
0.0015114
0.00143772
0.00137122
0.00131068
0.00125505
0.00120354
0.00115555
0.00111059
0.00106831
0.0010284
0.000990595
0.000954679
0.000920457
0.000887783
0.000856512
0.000826529
0.000797722
0.000770011
0.000743309
0.000717545
0.000692648
0.00066857
0.000645253
0.000622652
0.000600717
0.000579418
0.000558716
0.000538581
0.000518973
0.000499879
0.000481266
0.000463115
0.000445395
0.000428098
0.0004112
0.000394686
0.00037853
0.000362731
0.000347272
0.000332141
0.000317317
0.000302802
0.000288583
0.000274654
0.000260992
0.00024761
0.000234496
0.000221651
0.000209051
0.000196714
0.000184633
0.000172813
0.000161236
0.000149925
0.000138884
0.000128124
0.000117646
0.000107479
9.76503e-05
8.82001e-05
7.9167e-05
7.06445e-05
6.26277e-05
5.55972e-05
4.87528e-05
4.54766e-05
3.72203e-05
5.19139e-05
1.25596e-05
0.000146027
-0.000192141
0.00495594
0.00313928
0.00245871
0.00227144
0.00211007
0.00194676
0.00180742
0.00169351
0.00159838
0.00151586
0.00144226
0.00137572
0.00131505
0.00125924
0.00120753
0.00115934
0.0011142
0.00107175
0.00103167
0.000993716
0.000957659
0.000923306
0.00089051
0.000859126
0.000829036
0.000800131
0.000772328
0.000745539
0.000719694
0.000694721
0.000670571
0.000647187
0.000624522
0.000602527
0.000581172
0.000560417
0.000540231
0.000520575
0.000501435
0.000482779
0.000464587
0.000446828
0.000429493
0.00041256
0.000396011
0.000379824
0.000363994
0.000348504
0.000333345
0.000318494
0.000303953
0.000289709
0.000275755
0.00026207
0.000248666
0.00023553
0.000222664
0.000210043
0.000197687
0.000185588
0.000173749
0.000162154
0.000150827
0.000139769
0.000128993
0.0001185
0.000108317
9.84738e-05
8.90094e-05
7.99624e-05
7.14263e-05
6.33963e-05
5.63525e-05
4.94954e-05
4.62037e-05
3.79393e-05
5.25943e-05
1.32894e-05
0.000146832
-0.000191951
0.00491173
0.00314537
0.00246756
0.0022764
0.00211401
0.00195051
0.00181092
0.00169675
0.00160148
0.00151898
0.00144551
0.00137913
0.00131855
0.00126277
0.00121104
0.00116278
0.00111754
0.00107498
0.00103479
0.000996726
0.00096056
0.000926104
0.000893206
0.000861727
0.000831546
0.000802554
0.000774668
0.000747801
0.000721881
0.000696838
0.000672621
0.000649173
0.000626448
0.000604396
0.000582986
0.000562179
0.000541943
0.000522241
0.000503056
0.000484357
0.000466124
0.000448326
0.000430954
0.000413985
0.000397402
0.000381182
0.000365321
0.000349801
0.000334613
0.000319734
0.000305166
0.000290897
0.000276918
0.00026321
0.000249782
0.000236624
0.000223737
0.000211096
0.00019872
0.0001866
0.000174743
0.00016313
0.000151785
0.00014071
0.000129917
0.000119408
0.000109209
9.93512e-05
8.98718e-05
8.08104e-05
7.226e-05
6.42161e-05
5.71578e-05
5.02878e-05
4.69766e-05
3.8709e-05
5.33022e-05
1.40965e-05
0.000147627
-0.000191681
0.00486594
0.00315098
0.00247592
0.0022807
0.00211728
0.00195373
0.00181403
0.00169968
0.00160418
0.00152149
0.00144794
0.00138157
0.00132109
0.00126543
0.0012138
0.0011656
0.00112039
0.00107782
0.0010376
0.000999482
0.000963257
0.000928736
0.000895771
0.000864223
0.000833974
0.000804915
0.000776963
0.000750031
0.000724049
0.000698945
0.00067467
0.000651166
0.000628387
0.000606283
0.000584823
0.000563968
0.000543687
0.00052394
0.000504713
0.000485974
0.000467702
0.000449866
0.000432458
0.000415454