/*--------------------------------*- C++ -*----------------------------------*\
| =========                 |                                                 |
| \\      /  F ield         | OpenFOAM: The Open Source CFD Toolbox           |
|  \\    /   O peration     | Version:  v1912                                 |
|   \\  /    A nd           | Website:  www.openfoam.com                      |
|    \\/     M anipulation  |                                                 |
\*---------------------------------------------------------------------------*/
FoamFile
{
    version     2.0;
    format      ascii;
    class       surfaceScalarField;
    location    "200";
    object      phi;
}
// * * * * * * * * * * * * * * * * * * * * * * * * * * * * * * * * * * * * * //

dimensions      [0 3 -1 0 0 0 0];
oriented        oriented;


internalField   nonuniform List<scalar> 
19800
(
2.29239e-07
3.80242e-13
2.29238e-07
1.24294e-12
2.29235e-07
2.21637e-12
2.29232e-07
3.19056e-12
2.29228e-07
4.18732e-12
2.29223e-07
5.26578e-12
2.29216e-07
6.46251e-12
2.29208e-07
7.81029e-12
2.29199e-07
9.3521e-12
2.29188e-07
1.11687e-11
2.29175e-07
1.33198e-11
2.29159e-07
1.60643e-11
2.29139e-07
1.92929e-11
2.29115e-07
2.44372e-11
2.29086e-07
2.88342e-11
2.29041e-07
4.51134e-11
2.29005e-07
3.57058e-11
2.28825e-07
1.80419e-10
2.29266e-07
-4.41462e-10
1.28264e-08
2.1644e-07
2.42236e-07
7.85907e-13
2.42234e-07
2.56006e-12
2.42232e-07
4.55813e-12
2.42229e-07
6.56126e-12
2.42224e-07
8.61176e-12
2.42219e-07
1.083e-11
2.42212e-07
1.32913e-11
2.42204e-07
1.60632e-11
2.42194e-07
1.92342e-11
2.42182e-07
2.297e-11
2.42168e-07
2.73951e-11
2.42151e-07
3.30371e-11
2.42131e-07
3.96839e-11
2.42105e-07
5.02437e-11
2.42074e-07
5.9345e-11
2.42027e-07
9.26159e-11
2.41988e-07
7.41353e-11
2.41805e-07
3.63677e-10
2.42083e-07
-7.19616e-10
1.25902e-08
2.42319e-07
2.5597e-07
1.21549e-12
2.55968e-07
3.9527e-12
2.55966e-07
7.03253e-12
2.55962e-07
1.01228e-11
2.55958e-07
1.32869e-11
2.55952e-07
1.67096e-11
2.55944e-07
2.05073e-11
2.55936e-07
2.47841e-11
2.55925e-07
2.96765e-11
2.55913e-07
3.54401e-11
2.55898e-07
4.22684e-11
2.5588e-07
5.09716e-11
2.55858e-07
6.1233e-11
2.55831e-07
7.75079e-11
2.55799e-07
9.16096e-11
2.55749e-07
1.42678e-10
2.55707e-07
1.15633e-10
2.55524e-07
5.47165e-10
2.55668e-07
-8.63445e-10
1.20361e-08
2.56222e-07
2.70482e-07
1.67051e-12
2.70481e-07
5.42524e-12
2.70478e-07
9.64701e-12
2.70474e-07
1.38859e-11
2.70469e-07
1.82269e-11
2.70463e-07
2.29222e-11
2.70456e-07
2.8132e-11
2.70446e-07
3.39991e-11
2.70435e-07
4.07104e-11
2.70422e-07
4.86165e-11
2.70406e-07
5.79847e-11
2.70387e-07
6.99215e-11
2.70365e-07
8.40052e-11
2.70336e-07
1.06308e-10
2.70302e-07
1.25738e-10
2.70249e-07
1.9537e-10
2.70204e-07
1.60798e-10
2.70023e-07
7.28339e-10
2.70058e-07
-8.98892e-10
1.1645e-08
2.70449e-07
2.85818e-07
2.15262e-12
2.85816e-07
6.98243e-12
2.85813e-07
1.24094e-11
2.85809e-07
1.78619e-11
2.85804e-07
2.34465e-11
2.85797e-07
2.94867e-11
2.85789e-07
3.61886e-11
2.8578e-07
4.37361e-11
2.85768e-07
5.23692e-11
2.85754e-07
6.25389e-11
2.85737e-07
7.4591e-11
2.85717e-07
8.99432e-11
2.85693e-07
1.0807e-10
2.85663e-07
1.36726e-10
2.85627e-07
1.61848e-10
2.85571e-07
2.50752e-10
2.85522e-07
2.10234e-10
2.85345e-07
9.05709e-10
2.85293e-07
-8.47449e-10
1.13589e-08
2.85579e-07
3.02022e-07
2.6636e-12
3.02021e-07
8.6292e-12
3.02018e-07
1.53281e-11
3.02014e-07
2.20627e-11
3.02008e-07
2.89615e-11
3.02001e-07
3.64226e-11
3.01993e-07
4.47011e-11
3.01982e-07
5.40241e-11
3.0197e-07
6.46878e-11
3.01955e-07
7.72488e-11
3.01938e-07
9.21372e-11
3.01917e-07
1.11096e-10
3.01891e-07
1.33499e-10
3.01859e-07
1.68847e-10
3.01821e-07
2.00065e-10
3.01763e-07
3.08882e-10
3.01708e-07
2.6452e-10
3.01536e-07
1.0785e-09
3.01415e-07
-7.26722e-10
1.11498e-08
3.01624e-07
3.19146e-07
3.20543e-12
3.19144e-07
1.0371e-11
3.19141e-07
1.84117e-11
3.19137e-07
2.65008e-11
3.19131e-07
3.47884e-11
3.19123e-07
4.37508e-11
3.19114e-07
5.36951e-11
3.19104e-07
6.48941e-11
3.19091e-07
7.77029e-11
3.19075e-07
9.279e-11
3.19057e-07
1.10675e-10
3.19034e-07
1.33442e-10
3.19007e-07
1.6037e-10
3.18973e-07
2.02757e-10
3.18933e-07
2.4052e-10
3.18872e-07
3.69816e-10
3.18812e-07
3.24193e-10
3.18644e-07
1.24654e-09
3.18469e-07
-5.51129e-10
1.10026e-08
3.18616e-07
3.3724e-07
3.78024e-12
3.37238e-07
1.22134e-11
3.37235e-07
2.16695e-11
3.3723e-07
3.11893e-11
3.37224e-07
4.09444e-11
3.37217e-07
5.14931e-11
3.37207e-07
6.31973e-11
3.37196e-07
7.63781e-11
3.37182e-07
9.14532e-11
3.37165e-07
1.09208e-10
3.37146e-07
1.3026e-10
3.37122e-07
1.57046e-10
3.37094e-07
1.88761e-10
3.37058e-07
2.38547e-10
3.37015e-07
2.83354e-10
3.36951e-07
4.33609e-10
3.36886e-07
3.89724e-10
3.36722e-07
1.41014e-09
3.36504e-07
-3.32584e-10
1.09073e-08
3.36599e-07
3.56361e-07
4.39042e-12
3.56359e-07
1.41627e-11
3.56355e-07
2.51111e-11
3.5635e-07
3.61422e-11
3.56344e-07
4.7448e-11
3.56336e-07
5.96726e-11
3.56325e-07
7.32361e-11
3.56313e-07
8.85104e-11
3.56299e-07
1.05979e-10
3.56281e-07
1.26552e-10
3.56261e-07
1.5095e-10
3.56236e-07
1.81975e-10
3.56206e-07
2.18756e-10
3.56168e-07
2.76311e-10
3.56123e-07
3.28713e-10
3.56056e-07
5.00323e-10
3.55984e-07
4.61506e-10
3.55824e-07
1.57006e-09
3.55573e-07
-8.0884e-11
1.08556e-08
3.55624e-07
3.76565e-07
5.03861e-12
3.76563e-07
1.62255e-11
3.76559e-07
2.87467e-11
3.76554e-07
4.1374e-11
3.76547e-07
5.43184e-11
3.76538e-07
6.83135e-11
3.76528e-07
8.38409e-11
3.76515e-07
1.01327e-10
3.765e-07
1.21324e-10
3.76481e-07
1.44872e-10
3.76459e-07
1.72804e-10
3.76433e-07
2.08302e-10
3.76401e-07
2.50444e-10
3.76362e-07
3.16142e-10
3.76314e-07
3.76749e-10
3.76244e-07
5.70028e-10
3.76166e-07
5.39847e-10
3.76008e-07
1.72728e-09
3.75731e-07
1.96068e-10
1.08399e-08
3.75747e-07
3.97915e-07
5.72782e-12
3.97913e-07
1.84092e-11
3.97909e-07
3.25872e-11
3.97903e-07
4.69e-11
3.97896e-07
6.15759e-11
3.97887e-07
7.74413e-11
3.97876e-07
9.50434e-11
3.97862e-07
1.14865e-10
3.97846e-07
1.37532e-10
3.97826e-07
1.64221e-10
3.97803e-07
1.95886e-10
3.97776e-07
2.361e-10
3.97742e-07
2.83917e-10
3.977e-07
3.58141e-10
3.97649e-07
4.27618e-10
3.97576e-07
6.42801e-10
3.97491e-07
6.2498e-10
3.97336e-07
1.88294e-09
3.9704e-07
4.9217e-10
1.08529e-08
3.97027e-07
4.20475e-07
6.46139e-12
4.20473e-07
2.07214e-11
4.20469e-07
3.66436e-11
4.20463e-07
5.27361e-11
4.20455e-07
6.92417e-11
4.20445e-07
8.70829e-11
4.20434e-07
1.06876e-10
4.20419e-07
1.29164e-10
4.20402e-07
1.5465e-10
4.20382e-07
1.84654e-10
4.20357e-07
2.20263e-10
4.20328e-07
2.65445e-10
4.20293e-07
3.19269e-10
4.20248e-07
4.02406e-10
4.20195e-07
4.81482e-10
4.20119e-07
7.18735e-10
4.20027e-07
7.17064e-10
4.19871e-07
2.03812e-09
4.19561e-07
8.0297e-10
1.08875e-08
4.19526e-07
4.44314e-07
7.2432e-12
4.44312e-07
2.3171e-11
4.44308e-07
4.0928e-11
4.44301e-07
5.88992e-11
4.44293e-07
7.73382e-11
4.44283e-07
9.72663e-11
4.44271e-07
1.19373e-10
4.44256e-07
1.44266e-10
4.44238e-07
1.72728e-10
4.44216e-07
2.0623e-10
4.4419e-07
2.46002e-10
4.44159e-07
2.96419e-10
4.44122e-07
3.56602e-10
4.44075e-07
4.49043e-10
4.44018e-07
5.38502e-10
4.43939e-07
7.97925e-10
4.4384e-07
8.16226e-10
4.43684e-07
2.19378e-09
4.43362e-07
1.12556e-09
1.09368e-08
4.43312e-07
4.69505e-07
8.07757e-12
4.69503e-07
2.57676e-11
4.69498e-07
4.54528e-11
4.69492e-07
6.54063e-11
4.69483e-07
8.58886e-11
4.69472e-07
1.08021e-10
4.69459e-07
1.32571e-10
4.69443e-07
1.60214e-10
4.69424e-07
1.91819e-10
4.69401e-07
2.2901e-10
4.69374e-07
2.73178e-10
4.69342e-07
3.29105e-10
4.69302e-07
3.96019e-10
4.69253e-07
4.98155e-10
4.69193e-07
5.98847e-10
4.6911e-07
8.80475e-10
4.69004e-07
9.22568e-10
4.68847e-07
2.35059e-09
4.68514e-07
1.45832e-09
1.09948e-08
4.68456e-07
4.96125e-07
8.96951e-12
4.96122e-07
2.85221e-11
4.96117e-07
5.02312e-11
4.9611e-07
7.22757e-11
4.96101e-07
9.49177e-11
4.9609e-07
1.19379e-10
4.96076e-07
1.46509e-10
4.96059e-07
1.77053e-10
4.96039e-07
2.11975e-10
4.96015e-07
2.53058e-10
4.95986e-07
3.01864e-10
4.95952e-07
3.63588e-10
4.9591e-07
4.37628e-10
4.95858e-07
5.49854e-10
4.95795e-07
6.62681e-10
4.95709e-07
9.66479e-10
4.95595e-07
1.03622e-09
4.95437e-07
2.5089e-09
4.95094e-07
1.80069e-09
1.10563e-08
4.95033e-07
5.24253e-07
9.92451e-12
5.2425e-07
3.14462e-11
5.24245e-07
5.52771e-11
5.24238e-07
7.95259e-11
5.24228e-07
1.0445e-10
5.24216e-07
1.31371e-10
5.24202e-07
1.61224e-10
5.24184e-07
1.94832e-10
5.24163e-07
2.33254e-10
5.24137e-07
2.7844e-10
5.24107e-07
3.3214e-10
5.2407e-07
3.99957e-10
5.24027e-07
4.8154e-10
5.23972e-07
6.04244e-10
5.23905e-07
7.30177e-10
5.23815e-07
1.05603e-09
5.23694e-07
1.15735e-09
5.23534e-07
2.66874e-09
5.23182e-07
2.15283e-09
1.11171e-08
5.23121e-07
5.53976e-07
1.09487e-11
5.53973e-07
3.45535e-11
5.53968e-07
6.06055e-11
5.5396e-07
8.71764e-11
5.5395e-07
1.14514e-10
5.53937e-07
1.44033e-10
5.53922e-07
1.7676e-10
5.53903e-07
2.13599e-10
5.53881e-07
2.55716e-10
5.53854e-07
3.05225e-10
5.53822e-07
3.64086e-10
5.53784e-07
4.38305e-10
5.53737e-07
5.27869e-10
5.5368e-07
6.61442e-10
5.53609e-07
8.01503e-10
5.53516e-07
1.14919e-09
5.53387e-07
1.28617e-09
5.53226e-07
2.82985e-09
5.52863e-07
2.5153e-09
1.11744e-08
5.52806e-07
5.85385e-07
1.20481e-11
5.85381e-07
3.78579e-11
5.85376e-07
6.62319e-11
5.85368e-07
9.52468e-11
5.85357e-07
1.25135e-10
5.85344e-07
1.57398e-10
5.85327e-07
1.93158e-10
5.85308e-07
2.33406e-10
5.85284e-07
2.79419e-10
5.85256e-07
3.33487e-10
5.85222e-07
3.9779e-10
5.85181e-07
4.78727e-10
5.85133e-07
5.76731e-10
5.85072e-07
7.21555e-10
5.84997e-07
8.76837e-10
5.849e-07
1.24601e-09
5.84764e-07
1.42294e-09
5.84602e-07
2.99179e-09
5.84228e-07
2.88864e-09
1.12261e-08
5.84177e-07
6.18574e-07
1.32287e-11
6.1857e-07
4.13743e-11
6.18564e-07
7.21731e-11
6.18556e-07
1.03758e-10
6.18545e-07
1.36343e-10
6.18531e-07
1.71505e-10
6.18513e-07
2.10465e-10
6.18492e-07
2.54307e-10
6.18467e-07
3.0443e-10
6.18438e-07
3.63298e-10
6.18402e-07
4.33337e-10
6.18359e-07
5.2132e-10
6.18308e-07
6.28244e-10
6.18245e-07
7.84699e-10
6.18165e-07
9.56341e-10
6.18065e-07
1.34653e-09
6.1792e-07
1.5679e-09
6.17757e-07
3.15415e-09
6.17373e-07
3.27314e-09
1.12713e-08
6.17328e-07
6.53645e-07
1.44951e-11
6.53641e-07
4.51163e-11
6.53635e-07
7.84466e-11
6.53626e-07
1.12732e-10
6.53614e-07
1.48167e-10
6.53599e-07
1.86391e-10
6.53581e-07
2.28726e-10
6.53559e-07
2.76356e-10
6.53532e-07
3.3081e-10
6.53501e-07
3.94735e-10
6.53463e-07
4.70819e-10
6.53419e-07
5.66186e-10
6.53364e-07
6.82527e-10
6.53298e-07
8.50987e-10
6.53214e-07
1.04018e-09
6.5311e-07
1.45081e-09
6.52957e-07
1.7212e-09
6.52794e-07
3.31671e-09
6.52399e-07
3.66828e-09
1.13096e-08
6.5236e-07
6.90704e-07
1.58503e-11
6.907e-07
4.90964e-11
6.90693e-07
8.50712e-11
6.90684e-07
1.22192e-10
6.90671e-07
1.60639e-10
6.90656e-07
2.02097e-10
6.90637e-07
2.4799e-10
6.90613e-07
2.99613e-10
6.90585e-07
3.5863e-10
6.90552e-07
4.27874e-10
6.90513e-07
5.10326e-10
6.90466e-07
6.13429e-10
6.90408e-07
7.39696e-10
6.90339e-07
9.2054e-10
6.90251e-07
1.12849e-09
6.90142e-07
1.55894e-09
6.89981e-07
1.88283e-09
6.89818e-07
3.4797e-09
6.89414e-07
4.07248e-09
1.13418e-08
6.89381e-07
7.29864e-07
1.72948e-11
7.2986e-07
5.33226e-11
7.29853e-07
9.20656e-11
7.29843e-07
1.32162e-10
7.2983e-07
1.73791e-10
7.29814e-07
2.18663e-10
7.29793e-07
2.68307e-10
7.29769e-07
3.24135e-10
7.29739e-07
3.87957e-10
7.29704e-07
4.62798e-10
7.29663e-07
5.5195e-10
7.29613e-07
6.63156e-10
7.29553e-07
7.99868e-10
7.2948e-07
9.93486e-10
7.29387e-07
1.22136e-09
7.29275e-07
1.67112e-09
7.29105e-07
2.05246e-09
7.28941e-07
3.64391e-09
7.28531e-07
4.4824e-09
1.13693e-08
7.28504e-07
7.71245e-07
1.88275e-11
7.71241e-07
5.78015e-11
7.71233e-07
9.945e-11
7.71223e-07
1.42672e-10
7.71209e-07
1.87658e-10
7.71191e-07
2.36133e-10
7.7117e-07
2.8973e-10
7.71144e-07
3.49986e-10
7.71113e-07
4.18867e-10
7.71076e-07
4.99587e-10
7.71033e-07
5.9578e-10
7.7098e-07
7.15476e-10
7.70917e-07
8.63154e-10
7.7084e-07
1.06997e-09
7.70743e-07
1.31882e-09
7.70626e-07
1.78765e-09
7.7045e-07
2.2294e-09
7.70283e-07
3.81083e-09
7.69872e-07
4.89268e-09
1.13942e-08
7.69847e-07
8.14972e-07
2.04466e-11
8.14967e-07
6.25366e-11
8.14959e-07
1.07245e-10
8.14948e-07
1.53751e-10
8.14934e-07
2.02278e-10
8.14915e-07
2.54554e-10
8.14893e-07
3.12314e-10
8.14865e-07
3.77231e-10
8.14833e-07
4.51434e-10
8.14794e-07
5.38336e-10
8.14748e-07
6.4192e-10
8.14693e-07
7.70503e-10
8.14626e-07
9.29668e-10
8.14546e-07
1.15017e-09
8.14444e-07
1.42089e-09
8.14323e-07
1.90894e-09
8.1414e-07
2.41255e-09
8.13968e-07
3.98237e-09
8.13565e-07
5.29593e-09
1.14191e-08
8.1354e-07
8.61178e-07
2.21511e-11
8.61173e-07
6.7534e-11
8.61165e-07
1.15471e-10
8.61153e-07
1.65433e-10
8.61137e-07
2.17691e-10
8.61118e-07
2.73975e-10
8.61094e-07
3.36121e-10
8.61065e-07
4.05943e-10
8.61031e-07
4.85746e-10
8.6099e-07
5.79137e-10
8.60942e-07
6.90472e-10
8.60884e-07
8.28363e-10
8.60814e-07
9.99527e-10
8.6073e-07
1.23427e-09
8.60623e-07
1.52756e-09
8.60497e-07
2.03542e-09
8.60309e-07
2.60082e-09
8.60131e-07
4.16034e-09
8.59742e-07
5.68477e-09
1.14462e-08
8.59715e-07
9.10003e-07
2.39418e-11
9.09998e-07
7.28003e-11
9.09989e-07
1.24151e-10
9.09977e-07
1.7775e-10
9.09961e-07
2.33939e-10
9.0994e-07
2.94447e-10
9.09915e-07
3.61212e-10
9.09885e-07
4.36194e-10
9.09849e-07
5.21882e-10
9.09806e-07
6.22095e-10
9.09755e-07
7.41555e-10
9.09694e-07
8.89185e-10
9.09621e-07
1.07286e-09
9.09532e-07
1.32244e-09
9.09421e-07
1.63888e-09
9.09289e-07
2.16746e-09
9.09097e-07
2.79325e-09
9.08911e-07
4.34564e-09
9.08542e-07
6.0541e-09
1.14764e-08
9.08512e-07
9.61597e-07
2.58212e-11
9.61592e-07
7.83462e-11
9.61582e-07
1.33307e-10
9.61569e-07
1.90737e-10
9.61552e-07
2.51065e-10
9.61531e-07
3.16023e-10
9.61504e-07
3.87649e-10
9.61472e-07
4.6806e-10
9.61434e-07
5.59934e-10
9.61389e-07
6.67302e-10
9.61335e-07
7.95272e-10
9.61272e-07
9.53095e-10
9.61195e-07
1.14978e-09
9.61102e-07
1.41483e-09
9.60986e-07
1.75488e-09
9.60849e-07
2.30519e-09
9.60652e-07
2.9893e-09
9.6046e-07
4.53816e-09
9.60112e-07
6.40177e-09
1.15095e-08
9.60079e-07
1.01612e-06
2.77927e-11
1.01611e-06
8.41828e-11
1.0161e-06
1.42962e-10
1.01609e-06
2.04428e-10
1.01607e-06
2.6911e-10
1.01605e-06
3.38754e-10
1.01602e-06
4.15496e-10
1.01598e-06
5.01613e-10
1.01594e-06
5.99981e-10
1.0159e-06
7.14859e-10
1.01584e-06
8.51736e-10
1.01577e-06
1.0202e-09
1.01569e-06
1.2304e-09
1.0156e-06
1.51153e-09
1.01548e-06
1.8756e-09
1.01533e-06
2.44862e-09
1.01513e-06
3.18844e-09
1.01493e-06
4.73701e-09
1.01461e-06
6.72722e-09
1.15441e-08
1.01457e-06
1.07373e-06
2.9861e-11
1.07372e-06
9.0324e-11
1.07371e-06
1.5314e-10
1.0737e-06
2.18855e-10
1.07368e-06
2.88118e-10
1.07365e-06
3.62693e-10
1.07362e-06
4.44816e-10
1.07359e-06
5.36929e-10
1.07355e-06
6.42113e-10
1.0735e-06
7.64855e-10
1.07344e-06
9.11042e-10
1.07337e-06
1.09062e-09
1.07328e-06
1.31483e-09
1.07318e-06
1.61264e-09
1.07306e-06
2.00103e-09
1.07291e-06
2.59762e-09
1.0727e-06
3.39024e-09
1.0725e-06
4.94105e-09
1.0722e-06
7.03069e-09
1.15786e-08
1.07216e-06
1.1346e-06
3.2031e-11
1.1346e-06
9.67826e-11
1.13459e-06
1.63863e-10
1.13457e-06
2.34054e-10
1.13455e-06
3.08133e-10
1.13452e-06
3.87894e-10
1.13449e-06
4.75673e-10
1.13446e-06
5.7408e-10
1.13441e-06
6.86408e-10
1.13436e-06
8.17386e-10
1.1343e-06
9.73293e-10
1.13422e-06
1.16444e-09
1.13414e-06
1.40313e-09
1.13403e-06
1.7182e-09
1.1339e-06
2.13114e-09
1.13375e-06
2.75199e-09
1.13354e-06
3.59418e-09
1.13333e-06
5.14886e-09
1.13305e-06
7.31265e-09
1.16112e-08
1.13302e-06
1.19893e-06
3.43076e-11
1.19892e-06
1.03573e-10
1.19891e-06
1.75157e-10
1.1989e-06
2.50059e-10
1.19888e-06
3.29199e-10
1.19885e-06
4.14411e-10
1.19882e-06
5.08131e-10
1.19878e-06
6.13141e-10
1.19873e-06
7.32952e-10
1.19868e-06
8.72535e-10
1.19861e-06
1.03857e-09
1.19853e-06
1.24176e-09
1.19844e-06
1.49539e-09
1.19833e-06
1.82824e-09
1.1982e-06
2.26585e-09
1.19804e-06
2.91143e-09
1.19783e-06
3.79976e-09
1.19762e-06
5.35905e-09
1.19736e-06
7.57375e-09
1.16405e-08
1.19733e-06
1.26691e-06
3.6696e-11
1.2669e-06
1.1071e-10
1.26689e-06
1.87043e-10
1.26687e-06
2.66904e-10
1.26685e-06
3.51359e-10
1.26682e-06
4.42297e-10
1.26679e-06
5.42251e-10
1.26674e-06
6.54181e-10
1.2667e-06
7.81819e-10
1.26664e-06
9.30391e-10
1.26657e-06
1.10697e-09
1.26649e-06
1.32263e-09
1.26639e-06
1.59164e-09
1.26628e-06
1.94274e-09
1.26614e-06
2.40505e-09
1.26597e-06
3.0756e-09
1.26577e-06
4.00634e-09
1.26556e-06
5.57007e-09
1.26532e-06
7.81467e-09
1.16648e-08
1.26529e-06
1.33873e-06
3.92016e-11
1.33873e-06
1.18208e-10
1.33871e-06
1.99547e-10
1.3387e-06
2.84623e-10
1.33867e-06
3.74659e-10
1.33864e-06
4.71604e-10
1.33861e-06
5.78096e-10
1.33856e-06
6.97271e-10
1.33851e-06
8.33087e-10
1.33845e-06
9.91026e-10
1.33838e-06
1.17856e-09
1.3383e-06
1.40713e-09
1.3382e-06
1.69192e-09
1.33808e-06
2.06167e-09
1.33793e-06
2.54854e-09
1.33777e-06
3.24402e-09
1.33756e-06
4.21332e-09
1.33735e-06
5.78048e-09
1.33713e-06
8.03617e-09
1.16831e-08
1.33711e-06
1.41464e-06
4.18293e-11
1.41463e-06
1.2608e-10
1.41461e-06
2.12692e-10
1.4146e-06
3.0325e-10
1.41457e-06
3.9914e-10
1.41454e-06
5.02383e-10
1.4145e-06
6.15724e-10
1.41446e-06
7.42475e-10
1.4144e-06
8.86824e-10
1.41434e-06
1.05451e-09
1.41427e-06
1.25339e-09
1.41418e-06
1.4953e-09
1.41407e-06
1.79621e-09
1.41395e-06
2.18493e-09
1.4138e-06
2.69613e-09
1.41363e-06
3.4162e-09
1.41342e-06
4.41998e-09
1.41322e-06
5.98874e-09
1.41301e-06
8.23896e-09
1.16943e-08
1.413e-06
1.49484e-06
4.45843e-11
1.49483e-06
1.34341e-10
1.49482e-06
2.265e-10
1.4948e-06
3.22819e-10
1.49477e-06
4.24844e-10
1.49474e-06
5.34685e-10
1.4947e-06
6.55193e-10
1.49465e-06
7.89856e-10
1.4946e-06
9.43092e-10
1.49453e-06
1.1209e-09
1.49445e-06
1.33152e-09
1.49436e-06
1.58714e-09
1.49425e-06
1.90449e-09
1.49412e-06
2.31239e-09
1.49397e-06
2.84749e-09
1.4938e-06
3.59152e-09
1.49359e-06
4.6256e-09
1.49339e-06
6.19344e-09
1.4932e-06
8.42379e-09
1.16976e-08
1.4932e-06
1.57959e-06
4.74715e-11
1.57958e-06
1.43005e-10
1.57957e-06
2.40994e-10
1.57955e-06
3.43359e-10
1.57952e-06
4.51811e-10
1.57949e-06
5.68555e-10
1.57945e-06
6.96551e-10
1.5794e-06
8.39466e-10
1.57934e-06
1.00194e-09
1.57927e-06
1.19025e-09
1.57919e-06
1.41297e-09
1.57909e-06
1.68264e-09
1.57898e-06
2.01667e-09
1.57885e-06
2.44385e-09
1.57869e-06
3.0023e-09
1.57851e-06
3.76931e-09
1.57831e-06
4.82936e-09
1.57811e-06
6.39317e-09
1.57794e-06
8.59132e-09
1.16923e-08
1.57795e-06
1.66915e-06
5.04957e-11
1.66914e-06
1.52085e-10
1.66912e-06
2.56195e-10
1.6691e-06
3.64901e-10
1.66907e-06
4.80078e-10
1.66904e-06
6.04035e-10
1.669e-06
7.39846e-10
1.66894e-06
8.91352e-10
1.66888e-06
1.06342e-09
1.66881e-06
1.26258e-09
1.66873e-06
1.49774e-09
1.66863e-06
1.78178e-09
1.66851e-06
2.13265e-09
1.66837e-06
2.57907e-09
1.66822e-06
3.1601e-09
1.66804e-06
3.94882e-09
1.66784e-06
5.03045e-09
1.66764e-06
6.58667e-09
1.66749e-06
8.7422e-09
1.16782e-08
1.66751e-06
1.76378e-06
5.36611e-11
1.76377e-06
1.61593e-10
1.76376e-06
2.7212e-10
1.76374e-06
3.8747e-10
1.76371e-06
5.09676e-10
1.76367e-06
6.41161e-10
1.76362e-06
7.85115e-10
1.76357e-06
9.45549e-10
1.7635e-06
1.12755e-09
1.76343e-06
1.3379e-09
1.76334e-06
1.58581e-09
1.76324e-06
1.88447e-09
1.76312e-06
2.25225e-09
1.76298e-06
2.71775e-09
1.76282e-06
3.32044e-09
1.76264e-06
4.12925e-09
1.76244e-06
5.22799e-09
1.76226e-06
6.77269e-09
1.76212e-06
8.87699e-09
1.16551e-08
1.76214e-06
1.86378e-06
5.69718e-11
1.86377e-06
1.71539e-10
1.86376e-06
2.88789e-10
1.86373e-06
4.11089e-10
1.8637e-06
5.40635e-10
1.86366e-06
6.79965e-10
1.86362e-06
8.32387e-10
1.86356e-06
1.00208e-09
1.86349e-06
1.19435e-09
1.86341e-06
1.4162e-09
1.86332e-06
1.67713e-09
1.86322e-06
1.99059e-09
1.86309e-06
2.37527e-09
1.86295e-06
2.85951e-09
1.86279e-06
3.48272e-09
1.86261e-06
4.30971e-09
1.86242e-06
5.42111e-09
1.86224e-06
6.95017e-09
1.86212e-06
8.99626e-09
1.16229e-08
1.86215e-06
1.96945e-06
6.04309e-11
1.96944e-06
1.81934e-10
1.96942e-06
3.06214e-10
1.9694e-06
4.35777e-10
1.96937e-06
5.72974e-10
1.96933e-06
7.20465e-10
1.96928e-06
8.81679e-10
1.96922e-06
1.06096e-09
1.96915e-06
1.2638e-09
1.96907e-06
1.49743e-09
1.96897e-06
1.77162e-09
1.96886e-06
2.09998e-09
1.96874e-06
2.50142e-09
1.96859e-06
3.00392e-09
1.96843e-06
3.64633e-09
1.96825e-06
4.48932e-09
1.96806e-06
5.6089e-09
1.9679e-06
7.11811e-09
1.96779e-06
9.10045e-09
1.15817e-08
1.96783e-06
2.08111e-06
6.40413e-11
2.0811e-06
1.92784e-10
2.08108e-06
3.24405e-10
2.08106e-06
4.61547e-10
2.08102e-06
6.06708e-10
2.08098e-06
7.62675e-10
2.08093e-06
9.32996e-10
2.08087e-06
1.12216e-09
2.0808e-06
1.33587e-09
2.08071e-06
1.58154e-09
2.08062e-06
1.86914e-09
2.0805e-06
2.21243e-09
2.08038e-06
2.63039e-09
2.08023e-06
3.15046e-09
2.08006e-06
3.81055e-09
2.07989e-06
4.66709e-09
2.0797e-06
5.79048e-09
2.07955e-06
7.27569e-09
2.07946e-06
9.19004e-09
1.15318e-08
2.07951e-06
2.1991e-06
6.78044e-11
2.19909e-06
2.04094e-10
2.19907e-06
3.43369e-10
2.19905e-06
4.88403e-10
2.19901e-06
6.41841e-10
2.19897e-06
8.06592e-10
2.19892e-06
9.86324e-10
2.19885e-06
1.18567e-09
2.19878e-06
1.4105e-09
2.19869e-06
1.66841e-09
2.19859e-06
1.96953e-09
2.19847e-06
2.32767e-09
2.19834e-06
2.76177e-09
2.1982e-06
3.29856e-09
2.19803e-06
3.97463e-09
2.19786e-06
4.84207e-09
2.19768e-06
5.96493e-09
2.19754e-06
7.42213e-09
2.19746e-06
9.26541e-09
1.14735e-08
2.19752e-06
2.32379e-06
7.17212e-11
2.32377e-06
2.15865e-10
2.32375e-06
3.63106e-10
2.32373e-06
5.16346e-10
2.32369e-06
6.78366e-10
2.32364e-06
8.52201e-10
2.32359e-06
1.04163e-09
2.32352e-06
1.25143e-09
2.32345e-06
1.4876e-09
2.32336e-06
1.7579e-09
2.32325e-06
2.07256e-09
2.32314e-06
2.44539e-09
2.323e-06
2.89509e-09
2.32285e-06
3.44757e-09
2.32269e-06
4.13773e-09
2.32252e-06
5.01325e-09
2.32235e-06
6.13142e-09
2.32222e-06
7.55686e-09
2.32216e-06
9.32698e-09
1.14071e-08
2.32222e-06
2.45554e-06
7.57908e-11
2.45552e-06
2.28095e-10
2.4555e-06
3.8361e-10
2.45547e-06
5.45361e-10
2.45544e-06
7.16264e-10
2.45539e-06
8.99468e-10
2.45533e-06
1.09886e-09
2.45526e-06
1.31934e-09
2.45518e-06
1.56704e-09
2.45509e-06
1.84982e-09
2.45499e-06
2.17796e-09
2.45487e-06
2.56518e-09
2.45473e-06
3.02983e-09
2.45458e-06
3.5968e-09
2.45442e-06
4.29899e-09
2.45426e-06
5.17964e-09
2.4541e-06
6.28911e-09
2.45398e-06
7.67936e-09
2.45393e-06
9.37509e-09
1.1333e-08
2.454e-06
2.59476e-06
8.00113e-11
2.59474e-06
2.40776e-10
2.59472e-06
4.04867e-10
2.59469e-06
5.75429e-10
2.59465e-06
7.55498e-10
2.5946e-06
9.48339e-10
2.59454e-06
1.15794e-09
2.59447e-06
1.3893e-09
2.59439e-06
1.64866e-09
2.5943e-06
1.94394e-09
2.59419e-06
2.28541e-09
2.59407e-06
2.68661e-09
2.59393e-06
3.16539e-09
2.59379e-06
3.74546e-09
2.59363e-06
4.45748e-09
2.59347e-06
5.34026e-09
2.59332e-06
6.43725e-09
2.59321e-06
7.78925e-09
2.59317e-06
9.41014e-09
1.12515e-08
2.59326e-06
2.74187e-06
8.43786e-11
2.74186e-06
2.53897e-10
2.74183e-06
4.26854e-10
2.7418e-06
6.0651e-10
2.74176e-06
7.96016e-10
2.74171e-06
9.98739e-10
2.74165e-06
1.21876e-09
2.74158e-06
1.46116e-09
2.7415e-06
1.73224e-09
2.7414e-06
2.03997e-09
2.74129e-06
2.39453e-09
2.74117e-06
2.80917e-09
2.74103e-06
3.30111e-09
2.74088e-06
3.89273e-09
2.74073e-06
4.61229e-09
2.74058e-06
5.49415e-09
2.74044e-06
6.5751e-09
2.74034e-06
7.88625e-09
2.74032e-06
9.43247e-09
1.11631e-08
2.74041e-06
2.89732e-06
8.8887e-11
2.89731e-06
2.67439e-10
2.89729e-06
4.4954e-10
2.89725e-06
6.38557e-10
2.89721e-06
8.37746e-10
2.89716e-06
1.05057e-09
2.8971e-06
1.28117e-09
2.89703e-06
1.53471e-09
2.89694e-06
1.81754e-09
2.89684e-06
2.13756e-09
2.89673e-06
2.50485e-09
2.89661e-06
2.93226e-09
2.89647e-06
3.43626e-09
2.89633e-06
4.03775e-09
2.89618e-06
4.76245e-09
2.89603e-06
5.64037e-09
2.89591e-06
6.70204e-09
2.89582e-06
7.97018e-09
2.89581e-06
9.44248e-09
1.10679e-08
2.89591e-06
3.06159e-06
9.35282e-11
3.06158e-06
2.81376e-10
3.06155e-06
4.72878e-10
3.06152e-06
6.715e-10
3.06148e-06
8.80591e-10
3.06142e-06
1.10369e-09
3.06136e-06
1.34501e-09
3.06129e-06
1.60974e-09
3.0612e-06
1.90423e-09
3.0611e-06
2.23633e-09
3.06099e-06
2.61587e-09
3.06087e-06
3.05525e-09
3.06073e-06
3.57005e-09
3.06059e-06
4.17961e-09
3.06045e-06
4.907e-09
3.06031e-06
5.77806e-09
3.06019e-06
6.8175e-09
3.06012e-06
8.04093e-09
3.06012e-06
9.44053e-09
1.09664e-08
3.06023e-06
3.23517e-06
9.82914e-11
3.23516e-06
2.95676e-10
3.23513e-06
4.96813e-10
3.2351e-06
7.05254e-10
3.23506e-06
9.2443e-10
3.235e-06
1.15794e-09
3.23494e-06
1.41006e-09
3.23486e-06
1.68596e-09
3.23477e-06
1.99197e-09
3.23467e-06
2.33581e-09
3.23456e-06
2.72701e-09
3.23444e-06
3.17743e-09
3.23431e-06
3.70167e-09
3.23417e-06
4.31738e-09
3.23403e-06
5.045e-09
3.2339e-06
5.9064e-09
3.2338e-06
6.921e-09
3.23374e-06
8.0985e-09
3.23376e-06
9.42702e-09
1.08589e-08
3.23386e-06
3.41859e-06
1.03163e-10
3.41858e-06
3.10297e-10
3.41855e-06
5.2127e-10
3.41852e-06
7.39711e-10
3.41848e-06
9.69117e-10
3.41842e-06
1.21313e-09
3.41835e-06
1.47605e-09
3.41828e-06
1.76304e-09
3.41819e-06
2.08034e-09
3.41809e-06
2.43548e-09
3.41798e-06
2.83765e-09
3.41786e-06
3.29805e-09
3.41773e-06
3.83023e-09
3.4176e-06
4.45012e-09
3.41747e-06
5.17555e-09
3.41735e-06
6.02464e-09
3.41726e-06
7.01214e-09
3.41721e-06
8.14291e-09
3.41724e-06
9.40231e-09
1.07456e-08
3.41735e-06
3.61242e-06
1.08125e-10
3.6124e-06
3.25187e-10
3.61238e-06
5.46162e-10
3.61234e-06
7.74742e-10
3.61229e-06
1.01447e-09
3.61224e-06
1.26903e-09
3.61217e-06
1.5427e-09
3.61209e-06
1.8406e-09
3.61201e-06
2.16886e-09
3.61191e-06
2.53476e-09
3.6118e-06
2.94708e-09
3.61168e-06
3.41631e-09
3.61155e-06
3.95485e-09
3.61143e-06
4.5769e-09
3.61131e-06
5.29775e-09
3.6112e-06
6.1321e-09
3.61112e-06
7.09063e-09
3.61109e-06
8.17431e-09
3.61112e-06
9.36681e-09
1.06268e-08
3.61124e-06
3.81723e-06
1.13159e-10
3.81721e-06
3.40285e-10
3.81719e-06
5.71382e-10
3.81715e-06
8.10191e-10
3.8171e-06
1.06029e-09
3.81705e-06
1.32536e-09
3.81698e-06
1.60965e-09
3.8169e-06
1.91822e-09
3.81682e-06
2.25701e-09
3.81672e-06
2.63303e-09
3.81661e-06
3.05457e-09
3.81649e-06
3.53136e-09
3.81637e-06
4.07461e-09
3.81625e-06
4.69679e-09
3.81614e-06
5.41079e-09
3.81605e-06
6.22821e-09
3.81598e-06
7.15622e-09
3.81596e-06
8.19284e-09
3.81601e-06
9.32089e-09
1.05027e-08
3.81613e-06
4.03365e-06
1.18239e-10
4.03363e-06
3.55517e-10
4.03361e-06
5.96808e-10
4.03357e-06
8.4588e-10
4.03353e-06
1.10632e-09
4.03347e-06
1.3818e-09
4.0334e-06
1.67652e-09
4.03333e-06
1.99541e-09
4.03324e-06
2.34421e-09
4.03314e-06
2.72961e-09
4.03304e-06
3.15934e-09
4.03293e-06
3.64232e-09
4.03281e-06
4.18859e-09
4.0327e-06
4.8089e-09
4.0326e-06
5.51391e-09
4.03251e-06
6.31244e-09
4.03246e-06
7.20879e-09
4.03245e-06
8.19873e-09
4.03251e-06
9.26494e-09
1.03734e-08
4.03264e-06
4.26234e-06
1.23338e-10
4.26233e-06
3.70799e-10
4.2623e-06
6.22295e-10
4.26227e-06
8.816e-10
4.26222e-06
1.1523e-09
4.26216e-06
1.43801e-09
4.2621e-06
1.74287e-09
4.26202e-06
2.07164e-09
4.26193e-06
2.42984e-09
4.26184e-06
2.82376e-09
4.26174e-06
3.26056e-09
4.26163e-06
3.74833e-09
4.26153e-06
4.29589e-09
4.26142e-06
4.91239e-09
4.26133e-06
5.60642e-09
4.26126e-06
6.3844e-09
4.26122e-06
7.24827e-09
4.26122e-06
8.19222e-09
4.26129e-06
9.19933e-09
1.02392e-08
4.26142e-06
4.504e-06
1.28424e-10
4.50399e-06
3.86036e-10
4.50396e-06
6.4768e-10
4.50392e-06
9.17119e-10
4.50388e-06
1.1979e-09
4.50382e-06
1.4936e-09
4.50376e-06
1.80821e-09
4.50368e-06
2.14635e-09
4.5036e-06
2.51323e-09
4.50351e-06
2.91472e-09
4.50341e-06
3.3574e-09
4.50331e-06
3.84849e-09
4.50321e-06
4.39564e-09
4.50312e-06
5.00647e-09
4.50304e-06
5.68772e-09
4.50298e-06
6.44377e-09
4.50295e-06
7.27467e-09
4.50297e-06
8.17361e-09
4.50304e-06
9.12442e-09
1.01002e-08
4.50318e-06
4.75936e-06
1.33461e-10
4.75935e-06
4.01117e-10
4.75932e-06
6.72782e-10
4.75929e-06
9.52177e-10
4.75924e-06
1.2428e-09
4.75919e-06
1.54813e-09
4.75912e-06
1.87204e-09
4.75905e-06
2.21891e-09
4.75897e-06
2.59366e-09
4.75888e-06
3.00172e-09
4.75879e-06
3.44902e-09
4.7587e-06
3.94193e-09
4.75861e-06
4.48699e-09
4.75852e-06
5.09042e-09
4.75845e-06
5.7573e-09
4.75841e-06
6.4903e-09
4.75839e-06
7.28806e-09
4.75842e-06
8.14319e-09
4.75851e-06
9.04055e-09
9.95649e-09
4.75865e-06
5.0292e-06
1.38408e-10
5.02918e-06
4.15926e-10
5.02916e-06
6.97399e-10
5.02913e-06
9.86489e-10
5.02908e-06
1.28661e-09
5.02903e-06
1.60114e-09
5.02897e-06
1.93378e-09
5.0289e-06
2.28868e-09
5.02882e-06
2.67041e-09
5.02874e-06
3.08394e-09
5.02865e-06
3.53456e-09
5.02857e-06
4.02781e-09
5.02848e-06
4.56918e-09
5.02841e-06
5.1636e-09
5.02835e-06
5.81472e-09
5.02832e-06
6.52386e-09
5.02832e-06
7.28858e-09
5.02836e-06
8.1013e-09
5.02845e-06
8.94806e-09
9.80821e-09
5.0286e-06
5.31434e-06
1.43223e-10
5.31432e-06
4.3033e-10
5.3143e-06
7.21313e-10
5.31426e-06
1.01975e-09
5.31422e-06
1.32895e-09
5.31417e-06
1.65215e-09
5.31411e-06
1.99287e-09
5.31405e-06
2.355e-09
5.31397e-06
2.74274e-09
5.3139e-06
3.16059e-09
5.31382e-06
3.61321e-09
5.31374e-06
4.10534e-09
5.31367e-06
4.64148e-09
5.31361e-06
5.22544e-09
5.31356e-06
5.85968e-09
5.31354e-06
6.54438e-09
5.31355e-06
7.27643e-09
5.31361e-06
8.04829e-09
5.31371e-06
8.84726e-09
9.65546e-09
5.31386e-06
5.61564e-06
1.47859e-10
5.61563e-06
4.44191e-10
5.6156e-06
7.44294e-10
5.61557e-06
1.05163e-09
5.61553e-06
1.36938e-09
5.61548e-06
1.70064e-09
5.61543e-06
2.0487e-09
5.61536e-06
2.41718e-09
5.6153e-06
2.80991e-09
5.61523e-06
3.23089e-09
5.61516e-06
3.68418e-09
5.61509e-06
4.17378e-09
5.61503e-06
4.70328e-09
5.61498e-06
5.27551e-09
5.61494e-06
5.89193e-09
5.61494e-06
6.55189e-09
5.61496e-06
7.25183e-09
5.61502e-06
7.9845e-09
5.61513e-06
8.73847e-09
9.49832e-09
5.61529e-06
5.93403e-06
1.52267e-10
5.93401e-06
4.57363e-10
5.93399e-06
7.66096e-10
5.93396e-06
1.08179e-09
5.93392e-06
1.40748e-09
5.93388e-06
1.74608e-09
5.93383e-06
2.10067e-09
5.93377e-06
2.47454e-09
5.93371e-06
2.87118e-09
5.93364e-06
3.29408e-09
5.93358e-06
3.74675e-09
5.93352e-06
4.23246e-09
5.93347e-06
4.75402e-09
5.93343e-06
5.31343e-09
5.93341e-06
5.91133e-09
5.93342e-06
6.54647e-09
5.93346e-06
7.21508e-09
5.93353e-06
7.91029e-09
5.93365e-06
8.62196e-09
9.33686e-09
5.93381e-06
6.27046e-06
1.56396e-10
6.27045e-06
4.69694e-10
6.27043e-06
7.86471e-10
6.2704e-06
1.10988e-09
6.27037e-06
1.44281e-09
6.27033e-06
1.78795e-09
6.27028e-06
2.14816e-09
6.27023e-06
2.52643e-09
6.27017e-06
2.92585e-09
6.27012e-06
3.34948e-09
6.27006e-06
3.80025e-09
6.27001e-06
4.2808e-09
6.26997e-06
4.79327e-09
6.26995e-06
5.33894e-09
6.26994e-06
5.91784e-09
6.26996e-06
6.5283e-09
6.27001e-06
7.16648e-09
6.27009e-06
7.82604e-09
6.27022e-06
8.49803e-09
9.17116e-09
6.27038e-06
6.62598e-06
1.60195e-10
6.62596e-06
4.81033e-10
6.62595e-06
8.05165e-10
6.62592e-06
1.13556e-09