/*--------------------------------*- C++ -*----------------------------------*\
| =========                 |                                                 |
| \\      /  F ield         | OpenFOAM: The Open Source CFD Toolbox           |
|  \\    /   O peration     | Version:  v1912                                 |
|   \\  /    A nd           | Website:  www.openfoam.com                      |
|    \\/     M anipulation  |                                                 |
\*---------------------------------------------------------------------------*/
FoamFile
{
    version     2.0;
    format      ascii;
    class       volVectorField;
    location    "200";
    object      U;
}
// * * * * * * * * * * * * * * * * * * * * * * * * * * * * * * * * * * * * * //

dimensions      [0 1 -1 0 0 0 0];


internalField   nonuniform List<vector> 
10000
(
(1 1.92341e-08 0)
(0.999996 6.24235e-08 0)
(0.999989 1.11147e-07 0)
(0.999977 1.59874e-07 0)
(0.999961 2.09743e-07 0)
(0.999941 2.63717e-07 0)
(0.999915 3.23615e-07 0)
(0.999884 3.91075e-07 0)
(0.999847 4.68271e-07 0)
(0.999803 5.59219e-07 0)
(0.99975 6.66917e-07 0)
(0.999686 8.04344e-07 0)
(0.999609 9.65992e-07 0)
(0.999518 1.22368e-06 0)
(0.999396 1.4437e-06 0)
(0.999267 2.26006e-06 0)
(0.999001 1.78417e-06 0)
(0.998958 9.10341e-06 0)
(0.997411 -2.35623e-05 0)
(1.00287 0.000663782 0)
(1 5.86178e-08 0)
(0.999996 1.90539e-07 0)
(0.999989 3.39229e-07 0)
(0.999977 4.88125e-07 0)
(0.999961 6.40527e-07 0)
(0.999941 8.05434e-07 0)
(0.999915 9.88429e-07 0)
(0.999884 1.19453e-06 0)
(0.999847 1.4303e-06 0)
(0.999803 1.7081e-06 0)
(0.99975 2.03712e-06 0)
(0.999686 2.45678e-06 0)
(0.999609 2.95081e-06 0)
(0.999518 3.73698e-06 0)
(0.999396 4.41149e-06 0)
(0.999267 6.89551e-06 0)
(0.999002 5.47881e-06 0)
(0.998954 2.74529e-05 0)
(0.997466 -6.23704e-05 0)
(1.00132 0.00135056 0)
(1 1.00189e-07 0)
(0.999996 3.25777e-07 0)
(0.999989 5.79739e-07 0)
(0.999977 8.34415e-07 0)
(0.999961 1.09515e-06 0)
(0.999941 1.37721e-06 0)
(0.999915 1.69018e-06 0)
(0.999884 2.04263e-06 0)
(0.999847 2.44584e-06 0)
(0.999803 2.92086e-06 0)
(0.99975 3.48357e-06 0)
(0.999686 4.20095e-06 0)
(0.999609 5.04637e-06 0)
(0.999518 6.38866e-06 0)
(0.999396 7.54786e-06 0)
(0.999267 1.17714e-05 0)
(0.999002 9.46194e-06 0)
(0.998948 4.58437e-05 0)
(0.997547 -8.3012e-05 0)
(1.00013 0.00135273 0)
(1 1.44415e-07 0)
(0.999996 4.69024e-07 0)
(0.999989 8.34145e-07 0)
(0.999977 1.2006e-06 0)
(0.999961 1.57585e-06 0)
(0.999941 1.98175e-06 0)
(0.999915 2.43213e-06 0)
(0.999884 2.93932e-06 0)
(0.999847 3.51951e-06 0)
(0.999803 4.20302e-06 0)
(0.99975 5.01286e-06 0)
(0.999686 6.04492e-06 0)
(0.999609 7.26216e-06 0)
(0.999518 9.19151e-06 0)
(0.999396 1.0867e-05 0)
(0.999266 1.69097e-05 0)
(0.999004 1.37861e-05 0)
(0.998939 6.41075e-05 0)
(0.997639 -9.06507e-05 0)
(0.99927 0.00120242 0)
(1 1.91319e-07 0)
(0.999996 6.20564e-07 0)
(0.999989 1.10305e-06 0)
(0.999977 1.58762e-06 0)
(0.999961 2.08389e-06 0)
(0.999941 2.62067e-06 0)
(0.999915 3.21626e-06 0)
(0.999884 3.887e-06 0)
(0.999847 4.65423e-06 0)
(0.999803 5.55805e-06 0)
(0.99975 6.62909e-06 0)
(0.999686 7.99365e-06 0)
(0.999609 9.60416e-06 0)
(0.999518 1.21528e-05 0)
(0.999396 1.43789e-05 0)
(0.999266 2.23159e-05 0)
(0.999006 1.8508e-05 0)
(0.998927 8.20579e-05 0)
(0.997737 -8.91184e-05 0)
(0.998644 0.00113933 0)
(1 2.41023e-07 0)
(0.999996 7.80816e-07 0)
(0.999989 1.38717e-06 0)
(0.999977 1.99652e-06 0)
(0.999961 2.62069e-06 0)
(0.999941 3.29577e-06 0)
(0.999915 4.0448e-06 0)
(0.999884 4.88835e-06 0)
(0.999847 5.85321e-06 0)
(0.999803 6.98979e-06 0)
(0.99975 8.33686e-06 0)
(0.999686 1.00526e-05 0)
(0.999609 1.20791e-05 0)
(0.999518 1.52801e-05 0)
(0.999396 1.80952e-05 0)
(0.999266 2.79944e-05 0)
(0.999008 2.36873e-05 0)
(0.998914 9.95739e-05 0)
(0.997833 -8.00871e-05 0)
(0.998198 0.00111887 0)
(1 2.93719e-07 0)
(0.999996 9.50301e-07 0)
(0.999989 1.68736e-06 0)
(0.999977 2.42854e-06 0)
(0.999961 3.18786e-06 0)
(0.999941 4.00906e-06 0)
(0.999915 4.92022e-06 0)
(0.999884 5.94635e-06 0)
(0.999847 7.12001e-06 0)
(0.999803 8.50248e-06 0)
(0.99975 1.01412e-05 0)
(0.999686 1.22277e-05 0)
(0.999609 1.46943e-05 0)
(0.999518 1.85821e-05 0)
(0.999396 2.20288e-05 0)
(0.999266 3.39506e-05 0)
(0.999011 2.93806e-05 0)
(0.998901 0.000116608 0)
(0.997924 -6.48914e-05 0)
(0.99789 0.00110566 0)
(1 3.49622e-07 0)
(0.999996 1.12958e-06 0)
(0.999989 2.00452e-06 0)
(0.999977 2.88496e-06 0)
(0.999961 3.7871e-06 0)
(0.999941 4.76269e-06 0)
(0.999915 5.84515e-06 0)
(0.999884 7.06418e-06 0)
(0.999847 8.45844e-06 0)
(0.999803 1.01006e-05 0)
(0.99975 1.20476e-05 0)
(0.999687 1.45254e-05 0)
(0.99961 1.74576e-05 0)
(0.999518 2.20677e-05 0)
(0.999397 2.61933e-05 0)
(0.999265 4.019e-05 0)
(0.999014 3.56388e-05 0)
(0.998887 0.000133171 0)
(0.998007 -4.48378e-05 0)
(0.997689 0.00109449 0)
(1 4.08963e-07 0)
(0.999996 1.31926e-06 0)
(0.999989 2.3396e-06 0)
(0.999977 3.36715e-06 0)
(0.999961 4.4202e-06 0)
(0.999941 5.55891e-06 0)
(0.999915 6.82234e-06 0)
(0.999884 8.24517e-06 0)
(0.999847 9.87245e-06 0)
(0.999803 1.1789e-05 0)
(0.99975 1.40616e-05 0)
(0.999687 1.69525e-05 0)
(0.99961 2.03773e-05 0)
(0.999518 2.57462e-05 0)
(0.999397 3.06032e-05 0)
(0.999265 4.67186e-05 0)
(0.999018 4.25052e-05 0)
(0.998874 0.000149322 0)
(0.998079 -2.10434e-05 0)
(0.99757 0.00108711 0)
(1 4.72002e-07 0)
(0.999996 1.51999e-06 0)
(0.999989 2.6936e-06 0)
(0.999977 3.87653e-06 0)
(0.999961 5.08905e-06 0)
(0.999941 6.40009e-06 0)
(0.999915 7.85471e-06 0)
(0.999884 9.49282e-06 0)
(0.999847 1.13662e-05 0)
(0.999803 1.35725e-05 0)
(0.99975 1.61891e-05 0)
(0.999687 1.95157e-05 0)
(0.99961 2.3462e-05 0)
(0.999519 2.96269e-05 0)
(0.999398 3.52735e-05 0)
(0.999265 5.35428e-05 0)
(0.999022 5.00151e-05 0)
(0.998862 0.00016515 0)
(0.998141 5.60651e-06 0)
(0.997511 0.00108383 0)
(1 5.3903e-07 0)
(0.999996 1.73245e-06 0)
(0.999989 3.06759e-06 0)
(0.999977 4.41461e-06 0)
(0.999961 5.79563e-06 0)
(0.999941 7.28873e-06 0)
(0.999915 8.94531e-06 0)
(0.999884 1.08108e-05 0)
(0.999847 1.29442e-05 0)
(0.999803 1.54563e-05 0)
(0.99975 1.84364e-05 0)
(0.999687 2.22226e-05 0)
(0.99961 2.67207e-05 0)
(0.999519 3.37196e-05 0)
(0.999398 4.02196e-05 0)
(0.999265 6.06703e-05 0)
(0.999026 5.81953e-05 0)
(0.998852 0.000180766 0)
(0.998193 3.44232e-05 0)
(0.997496 0.0010839 0)
(1 6.10374e-07 0)
(0.999996 1.95743e-06 0)
(0.999989 3.46265e-06 0)
(0.999977 4.98295e-06 0)
(0.999961 6.54203e-06 0)
(0.999941 8.22746e-06 0)
(0.999915 1.00973e-05 0)
(0.999884 1.2203e-05 0)
(0.999847 1.46109e-05 0)
(0.999803 1.74459e-05 0)
(0.99975 2.081e-05 0)
(0.999687 2.50805e-05 0)
(0.99961 3.01629e-05 0)
(0.999519 3.80344e-05 0)
(0.999399 4.54577e-05 0)
(0.999265 6.81094e-05 0)
(0.99903 6.70651e-05 0)
(0.998844 0.000196284 0)
(0.998235 6.48883e-05 0)
(0.997513 0.00108647 0)
(1 6.86411e-07 0)
(0.999996 2.19575e-06 0)
(0.999989 3.87998e-06 0)
(0.999977 5.58321e-06 0)
(0.999961 7.33044e-06 0)
(0.999941 9.21902e-06 0)
(0.999915 1.13142e-05 0)
(0.999884 1.36734e-05 0)
(0.999847 1.63712e-05 0)
(0.999803 1.9547e-05 0)
(0.99975 2.33165e-05 0)
(0.999687 2.80975e-05 0)
(0.999611 3.37983e-05 0)
(0.999519 4.25814e-05 0)
(0.999399 5.10039e-05 0)
(0.999265 7.58699e-05 0)
(0.999035 7.66384e-05 0)
(0.998838 0.000211808 0)
(0.998271 9.66415e-05 0)
(0.99755 0.00109081 0)
(1 7.67568e-07 0)
(0.999996 2.44835e-06 0)
(0.999989 4.32078e-06 0)
(0.999977 6.2171e-06 0)
(0.999961 8.16317e-06 0)
(0.999941 1.02663e-05 0)
(0.999915 1.25994e-05 0)
(0.999885 1.52264e-05 0)
(0.999847 1.82302e-05 0)
(0.999803 2.17655e-05 0)
(0.99975 2.59631e-05 0)
(0.999687 3.12816e-05 0)
(0.999611 3.76373e-05 0)
(0.99952 4.73712e-05 0)
(0.9994 5.68749e-05 0)
(0.999265 8.39618e-05 0)
(0.999039 8.6926e-05 0)
(0.998835 0.000227422 0)
(0.9983 0.000129465 0)
(0.9976 0.00109628 0)
(1 8.54329e-07 0)
(0.999996 2.71626e-06 0)
(0.999989 4.78636e-06 0)
(0.999977 6.88641e-06 0)
(0.999961 9.04261e-06 0)
(0.999941 1.13724e-05 0)
(0.999915 1.39567e-05 0)
(0.999885 1.68664e-05 0)
(0.999848 2.01932e-05 0)
(0.999803 2.41077e-05 0)
(0.999751 2.87573e-05 0)
(0.999688 3.46415e-05 0)
(0.999611 4.16904e-05 0)
(0.99952 5.24145e-05 0)
(0.999401 6.30872e-05 0)
(0.999266 9.23953e-05 0)
(0.999044 9.79392e-05 0)
(0.998834 0.000243177 0)
(0.998327 0.000163259 0)
(0.997656 0.0011023 0)
(1 9.4723e-07 0)
(0.999996 3.00061e-06 0)
(0.999989 5.27806e-06 0)
(0.999977 7.59297e-06 0)
(0.999961 9.97129e-06 0)
(0.999941 1.25405e-05 0)
(0.999915 1.539e-05 0)
(0.999885 1.8598e-05 0)
(0.999848 2.22658e-05 0)
(0.999803 2.65801e-05 0)
(0.999751 3.17066e-05 0)
(0.999688 3.81857e-05 0)
(0.999612 4.59685e-05 0)
(0.999521 5.77222e-05 0)
(0.999402 6.9658e-05 0)
(0.999267 0.00010118 0)
(0.999048 0.000109692 0)
(0.998834 0.00025909 0)
(0.998351 0.000198016 0)
(0.997716 0.00110842 0)
(1 1.04684e-06 0)
(0.999997 3.30266e-06 0)
(0.999989 5.79729e-06 0)
(0.999977 8.33866e-06 0)
(0.999961 1.09518e-05 0)
(0.999941 1.37739e-05 0)
(0.999916 1.69033e-05 0)
(0.999885 2.04262e-05 0)
(0.999848 2.44538e-05 0)
(0.999804 2.91896e-05 0)
(0.999751 3.48191e-05 0)
(0.999688 4.19235e-05 0)
(0.999612 5.0483e-05 0)
(0.999521 6.33053e-05 0)
(0.999404 7.66042e-05 0)
(0.999268 0.000110323 0)
(0.999053 0.000122205 0)
(0.998836 0.000275146 0)
(0.998375 0.00023378 0)
(0.997778 0.00111426 0)
(1 1.15371e-06 0)
(0.999997 3.62376e-06 0)
(0.999989 6.34553e-06 0)
(0.999977 9.1254e-06 0)
(0.999961 1.19867e-05 0)
(0.999941 1.5076e-05 0)
(0.999916 1.85008e-05 0)
(0.999885 2.23558e-05 0)
(0.999848 2.67632e-05 0)
(0.999804 3.19433e-05 0)
(0.999751 3.81032e-05 0)
(0.999689 4.58641e-05 0)
(0.999613 5.52454e-05 0)
(0.999522 6.91749e-05 0)
(0.999405 8.39431e-05 0)
(0.999269 0.00011983 0)
(0.999058 0.000135503 0)
(0.99884 0.000291305 0)
(0.9984 0.000270618 0)
(0.99784 0.00111958 0)
(1 1.26834e-06 0)
(0.999997 3.96529e-06 0)
(0.999989 6.92434e-06 0)
(0.999977 9.95511e-06 0)
(0.999961 1.30789e-05 0)
(0.999941 1.64503e-05 0)
(0.999916 2.01867e-05 0)
(0.999885 2.4392e-05 0)
(0.999848 2.91999e-05 0)
(0.999804 3.48481e-05 0)
(0.999752 4.15673e-05 0)
(0.999689 5.00169e-05 0)
(0.999613 6.02671e-05 0)
(0.999523 7.53419e-05 0)
(0.999407 9.16916e-05 0)
(0.999271 0.000129706 0)
(0.999064 0.000149609 0)
(0.998844 0.00030752 0)
(0.998425 0.000308575 0)
(0.997903 0.00112425 0)
(1 1.39109e-06 0)
(0.999997 4.32858e-06 0)
(0.999989 7.53534e-06 0)
(0.999977 1.08298e-05 0)
(0.999961 1.4231e-05 0)
(0.999941 1.79005e-05 0)
(0.999916 2.19656e-05 0)
(0.999885 2.654e-05 0)
(0.999848 3.177e-05 0)
(0.999804 3.79113e-05 0)
(0.999752 4.52198e-05 0)
(0.99969 5.43913e-05 0)
(0.999614 6.55591e-05 0)
(0.999524 8.18167e-05 0)
(0.999409 9.98648e-05 0)
(0.999273 0.000139952 0)
(0.99907 0.000164545 0)
(0.99885 0.000323754 0)
(0.998452 0.000347637 0)
(0.997967 0.00112824 0)
(1 1.52214e-06 0)
(0.999997 4.71481e-06 0)
(0.999989 8.18029e-06 0)
(0.999977 1.17517e-05 0)
(0.999962 1.54462e-05 0)
(0.999941 1.94304e-05 0)
(0.999916 2.38422e-05 0)
(0.999885 2.88056e-05 0)
(0.999849 3.44802e-05 0)
(0.999805 4.11403e-05 0)
(0.999753 4.90693e-05 0)
(0.99969 5.89968e-05 0)
(0.999615 7.11321e-05 0)
(0.999525 8.86092e-05 0)
(0.999411 0.000108475 0)
(0.999275 0.000150572 0)
(0.999076 0.000180311 0)
(0.998857 0.00034 0)
(0.99848 0.000387679 0)
(0.998032 0.00113165 0)
(1 1.66161e-06 0)
(0.999997 5.12493e-06 0)
(0.999989 8.86106e-06 0)
(0.999978 1.27232e-05 0)
(0.999962 1.67277e-05 0)
(0.999941 2.10445e-05 0)
(0.999916 2.58219e-05 0)
(0.999886 3.11953e-05 0)
(0.999849 3.73383e-05 0)
(0.999805 4.45441e-05 0)
(0.999753 5.31263e-05 0)
(0.999691 6.38453e-05 0)
(0.999616 7.69988e-05 0)
(0.999527 9.57326e-05 0)
(0.999413 0.000117534 0)
(0.999278 0.00016158 0)
(0.999083 0.000196884 0)
(0.998865 0.000356309 0)
(0.998508 0.000428424 0)
(0.998097 0.00113466 0)
(1 1.80956e-06 0)
(0.999997 5.55967e-06 0)
(0.999989 9.57961e-06 0)
(0.999978 1.37468e-05 0)
(0.999962 1.80787e-05 0)
(0.999941 2.27468e-05 0)
(0.999916 2.79099e-05 0)
(0.999886 3.37155e-05 0)
(0.999849 4.03523e-05 0)
(0.999806 4.81324e-05 0)
(0.999754 5.74023e-05 0)
(0.999692 6.89512e-05 0)
(0.999617 8.31757e-05 0)
(0.999528 0.000103207 0)
(0.999415 0.000127055 0)
(0.999281 0.000173009 0)
(0.999091 0.000214224 0)
(0.998875 0.000372812 0)
(0.998539 0.000469429 0)
(0.998163 0.00113756 0)
(1 1.96607e-06 0)
(0.999997 6.01967e-06 0)
(0.999989 1.0338e-05 0)
(0.999978 1.48255e-05 0)
(0.999962 1.95025e-05 0)
(0.999942 2.45412e-05 0)
(0.999917 3.01105e-05 0)
(0.999886 3.63711e-05 0)
(0.99985 4.35277e-05 0)
(0.999806 5.19118e-05 0)
(0.999754 6.19046e-05 0)
(0.999693 7.43239e-05 0)
(0.999619 8.96732e-05 0)
(0.99953 0.00011105 0)
(0.999418 0.000137046 0)
(0.999285 0.000184905 0)
(0.9991 0.000232257 0)
(0.998886 0.000389718 0)
(0.99857 0.000510098 0)
(0.998229 0.00114064 0)
(1 2.13128e-06 0)
(0.999997 6.50557e-06 0)
(0.999989 1.11383e-05 0)
(0.999978 1.59625e-05 0)
(0.999962 2.10029e-05 0)
(0.999942 2.64321e-05 0)
(0.999917 3.24288e-05 0)
(0.999886 3.91676e-05 0)
(0.99985 4.68702e-05 0)
(0.999807 5.58879e-05 0)
(0.999755 6.66379e-05 0)
(0.999694 7.99671e-05 0)
(0.99962 9.64915e-05 0)
(0.999532 0.000119264 0)
(0.999421 0.000147485 0)
(0.999289 0.000197291 0)
(0.999109 0.000250838 0)
(0.998899 0.000407192 0)
(0.998603 0.000549668 0)
(0.998295 0.0011439 0)
(1 2.30532e-06 0)
(0.999997 7.01813e-06 0)
(0.999989 1.19828e-05 0)
(0.999978 1.71613e-05 0)
(0.999962 2.25846e-05 0)
(0.999942 2.84251e-05 0)
(0.999917 3.48716e-05 0)
(0.999887 4.21131e-05 0)
(0.99985 5.03893e-05 0)
(0.999807 6.00717e-05 0)
(0.999756 7.16144e-05 0)
(0.999695 8.58945e-05 0)
(0.999621 0.000103642 0)
(0.999534 0.000127866 0)
(0.999425 0.00015837 0)
(0.999294 0.000210195 0)
(0.999118 0.000269843 0)
(0.998913 0.000425333 0)
(0.998635 0.000587479 0)
(0.998359 0.00114719 0)
(1 2.48837e-06 0)
(0.999997 7.55831e-06 0)
(0.999989 1.28741e-05 0)
(0.999978 1.84257e-05 0)
(0.999962 2.42522e-05 0)
(0.999942 3.05262e-05 0)
(0.999917 3.74464e-05 0)
(0.999887 4.52169e-05 0)
(0.999851 5.40962e-05 0)
(0.999808 6.44768e-05 0)
(0.999757 7.68503e-05 0)
(0.999696 9.21257e-05 0)
(0.999623 0.000111148 0)
(0.999536 0.000136884 0)
(0.999428 0.000169723 0)
(0.999299 0.000223666 0)
(0.999128 0.000289237 0)
(0.998928 0.000444213 0)
(0.998669 0.000623251 0)
(0.998421 0.00115052 0)
(1 2.68067e-06 0)
(0.999997 8.1272e-06 0)
(0.99999 1.38144e-05 0)
(0.999978 1.97591e-05 0)
(0.999962 2.60101e-05 0)
(0.999942 3.27408e-05 0)
(0.999917 4.01598e-05 0)
(0.999887 4.84869e-05 0)
(0.999851 5.8e-05 0)
(0.999808 6.91136e-05 0)
(0.999758 8.23578e-05 0)
(0.999697 9.86746e-05 0)
(0.999625 0.000119023 0)
(0.999538 0.000146336 0)
(0.999432 0.000181555 0)
(0.999304 0.000237719 0)
(0.999138 0.000308986 0)
(0.998944 0.000463799 0)
(0.998703 0.000656888 0)
(0.998482 0.00115396 0)
(1 2.88255e-06 0)
(0.999997 8.72599e-06 0)
(0.99999 1.48059e-05 0)
(0.999978 2.11649e-05 0)
(0.999962 2.78626e-05 0)
(0.999942 3.50742e-05 0)
(0.999918 4.3018e-05 0)
(0.999888 5.19302e-05 0)
(0.999852 6.21088e-05 0)
(0.999809 7.39911e-05 0)
(0.999759 8.81462e-05 0)
(0.999699 0.000105551 0)
(0.999627 0.000127275 0)
(0.999541 0.000156227 0)
(0.999437 0.000193863 0)
(0.999311 0.000252344 0)
(0.99915 0.000329035 0)
(0.998962 0.000483974 0)
(0.998738 0.000688342 0)
(0.998542 0.0011574 0)
(1 3.0944e-06 0)
(0.999997 9.35595e-06 0)
(0.99999 1.5851e-05 0)
(0.999978 2.26463e-05 0)
(0.999962 2.98138e-05 0)
(0.999943 3.75314e-05 0)
(0.999918 4.60271e-05 0)
(0.999888 5.55539e-05 0)
(0.999852 6.64306e-05 0)
(0.99981 7.9118e-05 0)
(0.99976 9.42248e-05 0)
(0.9997 0.000112764 0)
(0.999629 0.000135913 0)
(0.999544 0.000166562 0)
(0.999441 0.000206644 0)
(0.999318 0.000267519 0)
(0.999162 0.00034933 0)
(0.998982 0.000504603 0)
(0.998774 0.000717629 0)
(0.998601 0.00116072 0)
(1 3.31669e-06 0)
(0.999997 1.00184e-05 0)
(0.99999 1.69519e-05 0)
(0.999978 2.42066e-05 0)
(0.999963 3.18681e-05 0)
(0.999943 4.01176e-05 0)
(0.999918 4.91932e-05 0)
(0.999889 5.9365e-05 0)
(0.999853 7.09732e-05 0)
(0.999811 8.4503e-05 0)
(0.999761 0.000100603 0)
(0.999702 0.000120323 0)
(0.999632 0.000144944 0)
(0.999548 0.000177346 0)
(0.999447 0.00021989 0)
(0.999325 0.000283219 0)
(0.999175 0.000369816 0)
(0.999003 0.00052554 0)
(0.998811 0.0007448 0)
(0.99866 0.00116376 0)
(1 3.54991e-06 0)
(0.999997 1.07148e-05 0)
(0.99999 1.81111e-05 0)
(0.999978 2.58493e-05 0)
(0.999963 3.40297e-05 0)
(0.999943 4.28381e-05 0)
(0.999919 5.25227e-05 0)
(0.999889 6.33707e-05 0)
(0.999854 7.57447e-05 0)
(0.999812 9.01545e-05 0)
(0.999762 0.000107288 0)
(0.999704 0.000128234 0)
(0.999634 0.000154373 0)
(0.999552 0.000188577 0)
(0.999452 0.000233591 0)
(0.999334 0.00029941 0)
(0.99919 0.000390437 0)
(0.999025 0.000546639 0)
(0.998849 0.000769918 0)
(0.998718 0.00116639 0)
(1 3.79458e-06 0)
(0.999997 1.14466e-05 0)
(0.99999 1.93307e-05 0)
(0.999978 2.75778e-05 0)
(0.999963 3.6303e-05 0)
(0.999943 4.56982e-05 0)
(0.999919 5.60216e-05 0)
(0.99989 6.75781e-05 0)
(0.999855 8.07525e-05 0)
(0.999813 9.60804e-05 0)
(0.999764 0.000114289 0)
(0.999706 0.000136506 0)
(0.999637 0.000164203 0)
(0.999556 0.000200254 0)
(0.999459 0.000247733 0)
(0.999344 0.000316052 0)
(0.999205 0.00041113 0)
(0.999049 0.000567747 0)
(0.998888 0.000793057 0)
(0.998775 0.00116846 0)
(1 4.0512e-06 0)
(0.999997 1.22151e-05 0)
(0.99999 2.06133e-05 0)
(0.999978 2.93954e-05 0)
(0.999963 3.86925e-05 0)
(0.999944 4.87031e-05 0)
(0.99992 5.9696e-05 0)
(0.99989 7.19938e-05 0)
(0.999856 8.60041e-05 0)
(0.999814 0.000102288 0)
(0.999766 0.000121613 0)
(0.999708 0.000145142 0)
(0.999641 0.000174435 0)
(0.999561 0.00021237 0)
(0.999466 0.000262295 0)
(0.999354 0.000333096 0)
(0.999221 0.000431829 0)
(0.999074 0.000588717 0)
(0.998928 0.000814288 0)
(0.998831 0.00116987 0)
(1 4.32028e-06 0)
(0.999997 1.30218e-05 0)
(0.99999 2.19612e-05 0)
(0.999979 3.13056e-05 0)
(0.999963 4.12023e-05 0)
(0.999944 5.18578e-05 0)
(0.99992 6.35517e-05 0)
(0.999891 7.66243e-05 0)
(0.999857 9.15059e-05 0)
(0.999816 0.000108784 0)
(0.999768 0.000129263 0)
(0.999711 0.000154146 0)
(0.999645 0.000185069 0)
(0.999566 0.000224912 0)
(0.999474 0.000277251 0)
(0.999365 0.000350486 0)
(0.999239 0.000452462 0)
(0.999101 0.000609399 0)
(0.998968 0.000833684 0)
(0.998886 0.00117053 0)
(1 4.60234e-06 0)
(0.999997 1.38681e-05 0)
(0.99999 2.33765e-05 0)
(0.999979 3.33115e-05 0)
(0.999964 4.38364e-05 0)
(0.999944 5.51672e-05 0)
(0.999921 6.75941e-05 0)
(0.999892 8.14752e-05 0)
(0.999858 9.72637e-05 0)
(0.999817 0.000115573 0)
(0.99977 0.000137245 0)
(0.999714 0.000163517 0)
(0.999649 0.000196097 0)
(0.999572 0.000237866 0)
(0.999482 0.00029257 0)
(0.999378 0.000368158 0)
(0.999257 0.000472951 0)
(0.999129 0.000629654 0)
(0.999009 0.000851314 0)
(0.998941 0.00117037 0)
(1 4.89784e-06 0)
(0.999997 1.47554e-05 0)
(0.99999 2.48615e-05 0)
(0.999979 3.5416e-05 0)
(0.999964 4.65988e-05 0)
(0.999945 5.86356e-05 0)
(0.999921 7.1828e-05 0)
(0.999893 8.65516e-05 0)
(0.999859 0.000103282 0)
(0.999819 0.00012266 0)
(0.999772 0.00014556 0)
(0.999718 0.000173254 0)
(0.999653 0.000207511 0)
(0.999579 0.000251209 0)
(0.999491 0.000308213 0)
(0.999391 0.000386041 0)
(0.999277 0.000493215 0)
(0.999158 0.000649346 0)
(0.99905 0.000867245 0)
(0.998995 0.00116934 0)
(1 5.20724e-06 0)
(0.999997 1.56849e-05 0)
(0.99999 2.64182e-05 0)
(0.999979 3.76221e-05 0)
(0.999964 4.94928e-05 0)
(0.999945 6.2267e-05 0)
(0.999922 7.62576e-05 0)
(0.999894 9.18576e-05 0)
(0.999861 0.000109565 0)
(0.999821 0.000130045 0)
(0.999775 0.000154206 0)
(0.999721 0.000183351 0)
(0.999659 0.000219297 0)
(0.999586 0.000264914 0)
(0.999501 0.000324133 0)
(0.999405 0.000404057 0)
(0.999298 0.000513169 0)
(0.999188 0.00066835 0)
(0.999092 0.000881536 0)
(0.999048 0.00116742 0)
(1 5.53095e-06 0)
(0.999997 1.66577e-05 0)
(0.99999 2.80482e-05 0)
(0.999979 3.99322e-05 0)
(0.999965 5.25216e-05 0)
(0.999946 6.60647e-05 0)
(0.999923 8.08864e-05 0)
(0.999895 9.73963e-05 0)
(0.999862 0.000116114 0)
(0.999823 0.00013773 0)
(0.999778 0.00016318 0)
(0.999725 0.000193797 0)
(0.999664 0.000231436 0)
(0.999593 0.000278947 0)
(0.999512 0.000340279 0)
(0.999421 0.000422122 0)
(0.99932 0.000532726 0)
(0.999219 0.000686551 0)
(0.999135 0.000894243 0)
(0.9991 0.0011646 0)
(1 5.86934e-06 0)
(0.999997 1.76749e-05 0)
(0.99999 2.97533e-05 0)
(0.99998 4.23483e-05 0)
(0.999965 5.56876e-05 0)
(0.999947 7.00314e-05 0)
(0.999924 8.57165e-05 0)
(0.999896 0.000103169 0)
(0.999864 0.00012293 0)
(0.999826 0.000145711 0)
(0.999781 0.000172476 0)
(0.99973 0.000204579 0)
(0.99967 0.000243904 0)
(0.999602 0.000293267 0)
(0.999524 0.000356589 0)
(0.999437 0.000440147 0)
(0.999343 0.000551795 0)
(0.999251 0.000703845 0)
(0.999177 0.000905416 0)
(0.999152 0.00116088 0)
(1 6.22268e-06 0)
(0.999997 1.87374e-05 0)
(0.99999 3.15347e-05 0)
(0.99998 4.48721e-05 0)
(0.999965 5.89925e-05 0)
(0.999947 7.41686e-05 0)
(0.999925 9.07492e-05 0)
(0.999898 0.000109176 0)
(0.999866 0.000130009 0)
(0.999829 0.000153982 0)
(0.999785 0.000182083 0)
(0.999735 0.000215679 0)
(0.999677 0.00025667 0)
(0.999611 0.000307828 0)
(0.999537 0.000372997 0)
(0.999454 0.000458038 0)
(0.999367 0.000570286 0)
(0.999284 0.00072014 0)
(0.99922 0.000915102 0)
(0.999202 0.00115628 0)
(1 6.59121e-06 0)
(0.999997 1.98456e-05 0)
(0.999991 3.3393e-05 0)
(0.99998 4.75044e-05 0)
(0.999966 6.24373e-05 0)
(0.999948 7.84769e-05 0)
(0.999926 9.5984e-05 0)
(0.999899 0.000115415 0)
(0.999868 0.000137349 0)
(0.999832 0.000162537 0)
(0.999789 0.000191985 0)
(0.99974 0.000227073 0)
(0.999684 0.000269699 0)
(0.999621 0.000322574 0)
(0.99955 0.00038943 0)
(0.999473 0.000475698 0)
(0.999393 0.00058811 0)
(0.999318 0.000735357 0)
(0.999263 0.000923344 0)
(0.999252 0.00115082 0)
(1 6.97503e-06 0)
(0.999997 2.09999e-05 0)
(0.999991 3.53287e-05 0)
(0.99998 5.02455e-05 0)
(0.999966 6.60219e-05 0)
(0.999949 8.29555e-05 0)
(0.999927 0.000101419 0)
(0.999901 0.000121882 0)
(0.999871 0.00014494 0)
(0.999835 0.000171361 0)
(0.999794 0.000202163 0)
(0.999746 0.000238731 0)
(0.999692 0.000282946 0)
(0.999632 0.000337446 0)
(0.999564 0.000405808 0)
(0.999492 0.000493028 0)
(0.999419 0.000605179 0)
(0.999352 0.000749429 0)
(0.999306 0.000930181 0)
(0.999301 0.00114454 0)
(1 7.37415e-06 0)
(0.999997 2.22002e-05 0)
(0.999991 3.73415e-05 0)
(0.999981 5.30948e-05 0)
(0.999967 6.9745e-05 0)
(0.99995 8.76018e-05 0)
(0.999928 0.000107049 0)
(0.999903 0.00012857 0)
(0.999873 0.000152773 0)
(0.999838 0.000180438 0)
(0.999798 0.000212594 0)
(0.999753 0.000250617 0)
(0.999701 0.000296363 0)
(0.999643 0.000352375 0)
(0.99958 0.000422046 0)
(0.999513 0.000509929 0)
(0.999446 0.000621408 0)
(0.999387 0.000762299 0)
(0.999348 0.000935652 0)
(0.999348 0.00113747 0)
(1 7.78843e-06 0)
(0.999997 2.3446e-05 0)
(0.999991 3.94305e-05 0)
(0.999981 5.60504e-05 0)
(0.999968 7.36038e-05 0)
(0.999951 9.24117e-05 0)
(0.99993 0.000112868 0)
(0.999905 0.000135469 0)
(0.999876 0.000160832 0)
(0.999842 0.000189748 0)
(0.999803 0.000223246 0)
(0.999759 0.00026269 0)
(0.99971 0.000309893 0)
(0.999655 0.000367286 0)
(0.999596 0.000438054 0)
(0.999534 0.000526301 0)
(0.999474 0.000636717 0)
(0.999422 0.000773924 0)
(0.999391 0.000939794 0)
(0.999395 0.00112965 0)
(1 8.21756e-06 0)
(0.999997 2.47365e-05 0)
(0.999991 4.15937e-05 0)
(0.999981 5.91096e-05 0)
(0.999968 7.7594e-05 0)
(0.999952 9.73786e-05 0)
(0.999932 0.000118868 0)
(0.999907 0.000142565 0)
(0.999879 0.000169099 0)
(0.999846 0.000199264 0)
(0.999809 0.000234085 0)
(0.999767 0.000274903 0)
(0.99972 0.000323472 0)
(0.999668 0.000382101 0)
(0.999613 0.00045374 0)
(0.999556 0.000542047 0)
(0.999502 0.000651032 0)
(0.999457 0.000784271 0)
(0.999433 0.000942644 0)
(0.999441 0.00112111 0)
(1 8.66104e-06 0)
(0.999997 2.60701e-05 0)
(0.999991 4.38286e-05 0)
(0.999982 6.2268e-05 0)
(0.999969 8.17092e-05 0)
(0.999953 0.000102494 0)
(0.999933 0.000125034 0)
(0.99991 0.000149842 0)
(0.999883 0.00017755 0)
(0.999851 0.000208955 0)
(0.999815 0.000245068 0)
(0.999775 0.000287199 0)
(0.99973 0.000337032 0)
(0.999682 0.000396735 0)
(0.999631 0.000469009 0)
(0.999579 0.000557072 0)
(0.999531 0.000664284 0)
(0.999493 0.000793316 0)
(0.999474 0.000944241 0)
(0.999485 0.0011119 0)
(1 9.11818e-06 0)
(0.999997 2.74445e-05 0)
(0.999992 4.61311e-05 0)
(0.999982 6.55197e-05 0)
(0.99997 8.59411e-05 0)
(0.999954 0.000107745 0)
(0.999935 0.000131352 0)
(0.999913 0.000157278 0)
(0.999886 0.000186158 0)
(0.999856 0.000218783 0)
(0.999822 0.000256148 0)
(0.999784 0.000299518 0)
(0.999742 0.000350497 0)
(0.999696 0.000411098 0)
(0.999649 0.000483764 0)
(0.999603 0.000571285 0)
(0.99956 0.000676414 0)
(0.999528 0.000801045 0)
(0.999515 0.000944621 0)
(0.999529 0.00110203 0)
(1 9.58802e-06 0)
(0.999998 2.88569e-05 0)
(0.999992 4.84962e-05 0)
(0.999983 6.88571e-05 0)
(0.999971 9.02789e-05 0)
(0.999956 0.000113119 0)
(0.999937 0.000137802 0)
(0.999916 0.000164848 0)
(0.99989 0.000194889 0)
(0.999861 0.000228707 0)
(0.999829 0.00026727 0)
(0.999793 0.000311792 0)
(0.999753 0.000363785 0)
(0.999712 0.000425099 0)
(0.999669 0.000497911 0)
(0.999627 0.000584602 0)
(0.99959 0.000687369 0)
(0.999564 0.000807453 0)
(0.999555 0.000943823 0)
(0.999571 0.00109155 0)
(1 1.00693e-05 0)
(0.999998 3.03036e-05 0)
(0.999992 5.09175e-05 0)
(0.999983 7.22705e-05 0)
(0.999972 9.47092e-05 0)
(0.999957 0.000118597 0)
(0.99994 0.000144361 0)
(0.999919 0.000172521 0)
(0.999894 0.000203705 0)
(0.999867 0.000238676 0)
(0.999836 0.000278373 0)
(0.999802 0.000323949 0)
(0.999766 0.000376812 0)
(0.999727 0.000438643 0)
(0.999689 0.000511356 0)
(0.999652 0.000596944 0)
(0.99962 0.000697105 0)
(0.999599 0.000812541 0)
(0.999594 0.000941886 0)
(0.999613 0.00108048 0)
(1 1.05606e-05 0)
(0.999998 3.17799e-05 0)
(0.999992 5.33868e-05 0)
(0.999984 7.57479e-05 0)
(0.999973 9.92158e-05 0)
(0.999959 0.000124157 0)
(0.999942 0.000151001 0)
(0.999922 0.000180262 0)
(0.999899 0.00021256 0)
(0.999873 0.000248637 0)
(0.999844 0.000289391 0)
(0.999813 0.000335909 0)
(0.999779 0.000389489 0)
(0.999744 0.000451637 0)
(0.999709 0.000524009 0)
(0.999677 0.00060824 0)
(0.99965 0.000705586 0)
(0.999634 0.000816318 0)
(0.999633 0.000938849 0)
(0.999653 0.00106884 0)
(1 1.10598e-05 0)
(0.999998 3.328e-05 0)
(0.999993 5.58945e-05 0)
(0.999985 7.92754e-05 0)
(0.999974 0.000103779 0)
(0.999961 0.000129774 0)
(0.999945 0.000157689 0)
(0.999926 0.000188031 0)
(0.999904 0.000221405 0)
(0.999879 0.000258528 0)
(0.999852 0.000300253 0)
(0.999823 0.000347591 0)
(0.999792 0.000401726 0)
(0.999761 0.000463988 0)
(0.99973 0.000535785 0)
(0.999702 0.000618425 0)
(0.99968 0.000712787 0)
(0.999668 0.000818798 0)
(0.99967 0.00093475 0)
(0.999691 0.00105667 0)
(1 1.1565e-05 0)
(0.999998 3.47974e-05 0)
(0.999993 5.84291e-05 0)
(0.999985 8.2836e-05 0)
(0.999975 0.000108377 0)
(0.999963 0.00013542 0)
(0.999947 0.000164388 0)
(0.999929 0.000195782 0)
(0.999909 0.000230186 0)
(0.999886 0.000268285 0)
(0.999861 0.000310881 0)
(0.999834 0.000358909 0)
(0.999806 0.00041343 0)
(0.999778 0.000475604 0)
(0.999751 0.000546605 0)
(0.999727 0.000627447 0)
(0.99971 0.000718689 0)
(0.999701 0.00082 0)
(0.999707 0.000929629 0)
(0.999729 0.00104397 0)
(1 1.20733e-05 0)
(0.999998 3.6324e-05 0)
(0.999993 6.09772e-05 0)
(0.999986 8.64105e-05 0)
(0.999977 0.000112983 0)
(0.999965 0.00014106 0)
(0.99995 0.000171058 0)
(0.999933 0.000203464 0)
(0.999914 0.00023884 0)
(0.999893 0.000277835 0)
(0.99987 0.000321197 0)
(0.999846 0.000369774 0)
(0.999821 0.00042451 0)
(0.999796 0.000486398 0)
(0.999772 0.000556395 0)
(0.999753 0.000635258 0)
(0.999739 0.000723282 0)
(0.999734 0.000819949 0)
(0.999742 0.000923524 0)
(0.999764 0.00103077 0)
(1 1.25819e-05 0)
(0.999998 3.7851e-05 0)
(0.999994 6.35235e-05 0)
(0.999987 8.99768e-05 0)
(0.999978 0.000117568 0)
(0.999967 0.000146658 0)
(0.999953 0.000177653 0)
(0.999938 0.000211022 0)
(0.99992 0.000247304 0)
(0.999901 0.000287106 0)
(0.99988 0.000331115 0)
(0.999858 0.000380098 0)
(0.999835 0.000434877 0)
(0.999814 0.000496288 0)
(0.999794 0.000565092 0)
(0.999778 0.000641822 0)
(0.999768 0.000726564 0)
(0.999766 0.00081867 0)
(0.999776 0.00091647 0)
(0.999799 0.00101709 0)
(1 1.30873e-05 0)
(0.999998 3.93679e-05 0)
(0.999994 6.60506e-05 0)
(0.999988 9.35103e-05 0)
(0.999979 0.0001221 0)
(0.999969 0.000152172 0)
(0.999956 0.000184121 0)
(0.999942 0.000218397 0)
(0.999926 0.000255508 0)
(0.999908 0.000296018 0)
(0.99989 0.000340553 0)
(0.99987 0.000389793 0)
(0.99985 0.000444445 0)
(0.999832 0.000505199 0)
(0.999815 0.000572639 0)
(0.999803 0.000647112 0)
(0.999796 0.000728538 0)
(0.999797 0.000816195 0)
(0.999808 0.000908503 0)
(0.999832 0.00100293 0)
(1 1.35858e-05 0)
(0.999998 4.08635e-05 0)
(0.999995 6.85395e-05 0)
(0.999989 9.69835e-05 0)
(0.999981 0.000126542 0)
(0.999971 0.000157558 0)
(0.99996 0.00019041 0)
(0.999947 0.000225525 0)
(0.999932 0.00026338 0)
(0.999916 0.000304492 0)
(0.999899 0.000349425 0)
(0.999882 0.000398772 0)
(0.999865 0.000453132 0)
(0.99985 0.000513061 0)
(0.999836 0.000578989 0)
(0.999827 0.000651108 0)
(0.999823 0.000729217 0)
(0.999827 0.000812556 0)
(0.99984 0.000899659 0)
(0.999863 0.00098831 0)
(1 1.40732e-05 0)
(0.999998 4.23252e-05 0)
(0.999995 7.09691e-05 0)
(0.99999 0.000100367 0)
(0.999982 0.000130856 0)
(0.999974 0.000162767 0)
(0.999963 0.000196461 0)
(0.999951 0.000232341 0)
(0.999938 0.000270847 0)
(0.999924 0.000312449 0)
(0.99991 0.000357647 0)
(0.999895 0.000406953 0)
(0.99988 0.000460865 0)
(0.999868 0.000519815 0)
(0.999857 0.000584105 0)
(0.999851 0.0006538 0)
(0.99985 0.000728616 0)
(0.999855 0.000807785 0)
(0.999869 0.000889968 0)
(0.999893 0.000973239 0)
(1 1.45449e-05 0)
(0.999999 4.37396e-05 0)
(0.999996 7.33168e-05 0)
(0.999991 0.000103629 0)
(0.999984 0.000135001 0)
(0.999976 0.00016775 0)
(0.999967 0.000202217 0)
(0.999956 0.000238777 0)
(0.999945 0.000277833 0)
(0.999932 0.000319808 0)
(0.99992 0.000365139 0)
(0.999907 0.00041426 0)
(0.999895 0.000467575 0)
(0.999885 0.000525411 0)
(0.999878 0.000587958 0)
(0.999874 0.000655188 0)
(0.999875 0.000726757 0)
(0.999883 0.000801919 0)
(0.999898 0.000879463 0)
(0.999921 0.000957726 0)
(1 1.49964e-05 0)
(0.999999 4.50924e-05 0)
(0.999996 7.5559e-05 0)
(0.999992 0.000106736 0)
(0.999986 0.000138934 0)
(0.999979 0.000172455 0)
(0.99997 0.000207616 0)
(0.999961 0.000244765 0)
(0.999951 0.000284265 0)
(0.999941 0.000326493 0)
(0.99993 0.000371825 0)
(0.99992 0.000420622 0)
(0.99991 0.000473204 0)
(0.999902 0.000529807 0)