/*--------------------------------*- C++ -*----------------------------------*\
| =========                 |                                                 |
| \\      /  F ield         | OpenFOAM: The Open Source CFD Toolbox           |
|  \\    /   O peration     | Version:  v1912                                 |
|   \\  /    A nd           | Website:  www.openfoam.com                      |
|    \\/     M anipulation  |                                                 |
\*---------------------------------------------------------------------------*/
FoamFile
{
    version     2.0;
    format      ascii;
    class       volVectorField;
    location    "0";
    object      U;
}
// * * * * * * * * * * * * * * * * * * * * * * * * * * * * * * * * * * * * * //

dimensions      [0 1 -1 0 0 0 0];


internalField   uniform (30 0 0);

boundaryField
{
    inlet
    {
        type            freestream;
        freestreamValue nonuniform 0();
        value           nonuniform 0();
    }
    outlet
    {
        type            freestream;
        freestreamValue nonuniform 0();
        value           nonuniform 0();
    }
    lowerSymmetry
    {
        type            symmetryPlane;
    }
    obstical
    {
        type            noSlip;
    }
    top
    {
        type            freestream;
        freestreamValue uniform (30 0 0);
        value           uniform (30 0 0);
    }
    defaultFaces
    {
        type            empty;
    }
    procBoundary2to1
    {
        type            processor;
        value           uniform (30 0 0);
    }
    procBoundary2to3
    {
        type            processor;
        value           uniform (30 0 0);
    }
}


// ************************************************************************* //
