/*--------------------------------*- C++ -*----------------------------------*\
| =========                 |                                                 |
| \\      /  F ield         | OpenFOAM: The Open Source CFD Toolbox           |
|  \\    /   O peration     | Version:  v1912                                 |
|   \\  /    A nd           | Website:  www.openfoam.com                      |
|    \\/     M anipulation  |                                                 |
\*---------------------------------------------------------------------------*/
FoamFile
{
    version     2.0;
    format      ascii;
    class       volScalarField;
    location    "560";
    object      epsilon;
}
// * * * * * * * * * * * * * * * * * * * * * * * * * * * * * * * * * * * * * //

dimensions      [0 2 -3 0 0 0 0];


internalField   nonuniform List<scalar> 
12441
(
0.0102964
0.00908501
0.00832711
0.00770263
0.00718364
0.00674894
0.00638218
0.0060708
0.00580475
0.00557618
0.00537877
0.00520855
0.00504473
0.00491888
0.00480038
0.00469686
0.0049011
0.0206442
0.279627
3.05954
20.9485
39.25
0.0101189
0.00892019
0.00818404
0.00757691
0.00707193
0.00664866
0.00629134
0.00598782
0.00572841
0.00550553
0.00531305
0.00514729
0.00498599
0.00486377
0.00474874
0.00464982
0.00481798
0.0203966
0.263303
3.05163
21.2382
40.2318
0.00989692
0.00871743
0.00800036
0.00740912
0.00691749
0.00650555
0.00615792
0.0058628
0.00561076
0.00539444
0.00520792
0.00504769
0.00489121
0.00477491
0.00466466
0.00457082
0.00465482
0.018466
0.222631
3.01997
21.617
41.3784
0.00967333
0.00851378
0.00781499
0.00723889
0.00675992
0.00635868
0.00602019
0.00573297
0.00548785
0.00527768
0.00509672
0.00494154
0.00479096
0.0046784
0.00457361
0.00448532
0.00450723
0.016149
0.183142
2.99643
22.0843
42.5504
0.0094291
0.00828916
0.0076091
0.00704863
0.00658285
0.00619285
0.00586405
0.00558529
0.00534767
0.00514428
0.00496954
0.00482019
0.00467488
0.00456895
0.00446952
0.00438801
0.00435663
0.0140624
0.162831
3.00254
22.6027
43.6698
0.00922313
0.00809954
0.00743469
0.00688684
0.00643163
0.00605055
0.00572935
0.00545713
0.0052252
0.00502681
0.00485656
0.00471123
0.00457113
0.00446787
0.00437337
0.00429625
0.0042816
0.0141335
0.182112
3.10942
23.236
44.7472
0.00900246
0.00789593
0.00724754
0.00671342
0.00626978
0.00589857
0.00558587
0.00532106
0.00509569
0.00490319
0.00473833
0.00459798
0.00446211
0.0043654
0.0042734
0.00420339
0.00603138
0.0231349
0.288109
3.41296
24.0864
45.7945
0.00882401
0.00773128
0.00709572
0.00657221
0.0061374
0.0057736
0.00546716
0.00520769
0.00498688
0.00479835
0.00463697
0.0044997
0.00436849
0.00427315
0.00419022
0.00516331
0.034164
0.0790804
0.603668
4.05636
25.2815
46.8732
0.00862986
0.00755207
0.00693103
0.00641964
0.00599505
0.00563995
0.00534101
0.00508806
0.00487302
0.00468964
0.00453293
0.00439992
0.00427257
0.00414262
0.00538531
0.0267209
0.171232
0.292703
1.29512
5.19595
26.9575
48.0153
0.00847518
0.00740919
0.00679913
0.00629679
0.00587971
0.00553089
0.00523722
0.00498873
0.00477748
0.00459735
0.00444347
0.00431314
0.00419055
0.00426977
0.0248747
0.143687
0.493894
0.762697
2.37993
6.89257
29.2136
49.2846
0.00830573
0.00725272
0.0066554
0.00616369
0.00575557
0.00541438
0.00512728
0.0048845
0.00467828
0.00450263
0.00435277
0.00422699
0.00407635
0.00942733
0.108568
0.394644
0.930781
1.41633
3.62918
9.03582
32.077
50.6975
0.00817072
0.00712802
0.00654026
0.0060564
0.00565477
0.00531898
0.00503639
0.00479741
0.00459439
0.00442147
0.00427397
0.00415163
0.00415382
0.0468439
0.289049
0.695422
1.32048
2.04731
4.78145
11.3979
35.4904
52.295
0.00802157
0.00699035
0.00641395
0.00593955
0.0055459
0.0052169
0.00494016
0.00470624
0.00450767
0.00433867
0.00419467
0.00403763
0.00830412
0.151578
0.501996
0.93911
1.59963
2.53767
5.72857
13.7559
39.3382
54.0597
0.00790069
0.00687871
0.00631087
0.00584349
0.00545565
0.00513148
0.00485878
0.00462826
0.00443257
0.00426604
0.00412416
0.00388159
0.0358232
0.295403
0.670807
1.10416
1.78551
2.88687
6.47773
15.961
43.4772
56.0037
0.00776928
0.00675735
0.00619953
0.00574052
0.00535972
0.00504153
0.00477396
0.00454788
0.00435606
0.00419293
0.00405406
0.00425872
0.103544
0.423958
0.786634
1.21324
1.91039
3.1335
7.07179
17.9425
47.7695
58.0812
0.00766022
0.00665668
0.00610659
0.00565391
0.00527834
0.00496452
0.00470059
0.00447759
0.00428839
0.0041275
0.00399061
0.00935852
0.192071
0.518718
0.864409
1.28761
1.99763
3.31295
7.55277
19.6825
52.0959
60.2902
0.00754427
0.0065496
0.00600843
0.00556317
0.00519383
0.00488527
0.00462585
0.00440671
0.00422085
0.00406287
0.00392896
0.0308972
0.273573
0.585265
0.918484
1.34074
2.06154
3.44955
7.953
21.1914
56.3672
62.571
0.00744276
0.00645602
0.00592214
0.00548288
0.00511852
0.00481413
0.00455822
0.00434207
0.00415878
0.00400303
0.0038737
0.0738528
0.337329
0.632607
0.957905
1.38054
2.1107
3.55882
8.29546
22.491
60.5203
64.9213
0.00734013
0.00636111
0.00583507
0.00540231
0.00504339
0.00474358
0.00449156
0.00427873
0.0040983
0.00394503
0.00380961
0.12452
0.384537
0.667667
0.988043
1.41173
2.15036
3.65058
8.59591
23.6063
64.5195
67.2818
0.0072455
0.00627397
0.00575477
0.00532767
0.00497346
0.00467762
0.00442897
0.00421902
0.00404108
0.00388999
0.00427013
0.170394
0.419593
0.694819
1.0121
1.43724
2.18386
3.73105
8.86502
24.561
68.3485
69.6617
0.00715526
0.00619045
0.00567813
0.00525669
0.00490717
0.00461524
0.00436988
0.00416271
0.00398712
0.00383812
0.00974883
0.207917
0.446459
0.71675
1.03209
1.45895
2.21345
3.80418
9.1098
25.3769
72.0113
72.0102
0.0070645
0.00610704
0.00560145
0.00518561
0.00484081
0.00455289
0.00431095
0.00410674
0.00393374
0.00378749
0.0267925
0.237703
0.467879
0.735126
1.04929
1.47813
2.24065
3.87238
9.33478
26.0727
75.5252
74.3523
0.00698519
0.00603342
0.00553372
0.00512269
0.00478183
0.00449718
0.00425796
0.00405602
0.00388494
0.00374239
0.0532745
0.261431
0.485618
0.751022
1.06459
1.49568
2.26655
3.93695
9.54283
26.6653
78.9231
76.6493
0.0068987
0.00595403
0.00546084
0.00505526
0.00471903
0.00443833
0.00420252
0.00400354
0.00383505
0.00370258
0.0808035
0.280667
0.50081
0.765164
1.07862
1.51224
2.29186
3.99854
9.73577
27.1691
82.2482
78.9445
0.00683042
0.00589052
0.0054023
0.00500071
0.00466768
0.00438956
0.00415585
0.00395857
0.00379149
0.00368389
0.104806
0.296672
0.51419
0.778059
1.09183
1.52825
2.31699
4.0574
9.91486
27.5973
85.5571
81.212
0.00674473
0.00581216
0.00533066
0.00493478
0.00460664
0.00433275
0.00410271
0.00390864
0.0037444
0.00364434
0.124679
0.31037
0.526251
0.790074
1.10454
1.54404
2.34209
4.11368
10.081
27.9611
88.914
83.5114
0.00668558
0.00575681
0.00527936
0.00488665
0.00456101
0.00428907
0.00406059
0.00386776
0.00370457
0.00383221
0.141228
0.322406
0.537334
0.801475
1.11697
1.55979
2.36714
4.16748
10.2349
28.2706
92.3927
85.8273
0.00660186
0.00568039
0.00520968
0.00482272
0.00450205
0.00423444
0.00400973
0.00382021
0.00366003
0.00571853
0.155369
0.333222
0.547685
0.812456
1.12929
1.57556
2.39202
4.21892
10.3774
28.5341
96.0688
88.2307
0.00655218
0.00563365
0.00516609
0.0047815
0.00446257
0.00419625
0.00397249
0.00378367
0.00362443
0.0108126
0.167793
0.343123
0.557479
0.823156
1.14157
1.59137
2.4166
4.26814
10.5091
28.7587
100.02
90.7106
0.0064681
0.00555723
0.00509676
0.0047183
0.00440471
0.00414305
0.00392337
0.00373813
0.00358301
0.0197225
0.17896
0.352324
0.56685
0.833666
1.15385
1.60717
2.44078
4.31526
10.6307
28.9503
104.315
93.3406
0.00642585
0.00551706
0.0050589
0.00468205
0.00436956
0.00410864
0.00388945
0.00370453
0.00355185
0.0319856
0.189162
0.360976
0.575891
0.844046
1.16613
1.6229
2.46447
4.36039
10.743
29.1141
109.017
96.1058
0.0063434
0.00544226
0.0049912
0.00462053
0.00431345
0.00405729
0.00384226
0.00366098
0.00351592
0.0463055
0.198588
0.369191
0.584671
0.854324
1.17839
1.63851
2.48762
4.40362
10.8466
29.2545
114.172
99.0732
0.0063097
0.00540987
0.0049603
0.00459047
0.00428379
0.0040277
0.00381257
0.00363109
0.00349475
0.0613233
0.207367
0.377052
0.593237
0.864513
1.19058
1.65393
2.51019
4.445
10.9422
29.3759
119.814
102.217
0.00622524
0.00533361
0.0048917
0.0045286
0.00422785
0.003977
0.00376646
0.00358898
0.00347354
0.0760204
0.215589
0.384619
0.601618
0.874607
1.20268
1.66911
2.53213
4.48457
11.0305
29.4823
125.963
105.592
0.00619838
0.0053073
0.00486605
0.00450306
0.00420203
0.00395068
0.00373956
0.0035615
0.00347799
0.0898156
0.223323
0.391935
0.609831
0.884594
1.21464
1.68402
2.55342
4.52232
11.1123
29.5779
132.634
109.157
0.00611141
0.00522921
0.00479622
0.00444052
0.00414594
0.00390026
0.0036941
0.00352035
0.00354604
0.102419
0.230618
0.399029
0.617881
0.894455
1.22643
1.69862
2.57403
4.55822
11.188
29.6662
139.83
112.957
0.00608785
0.00520583
0.00477309
0.00441708
0.00412186
0.00387538
0.0036684
0.0034939
0.00611953
0.113704
0.237505
0.405921
0.625764
0.904165
1.238
1.71287
2.59392
4.59222
11.2585
29.75
147.554
116.938
0.00599587
0.00512384
0.00470028
0.00435235
0.00406425
0.00382402
0.00362246
0.00345265
0.0238824
0.123572
0.244007
0.41262
0.633472
0.913698
1.24933
1.72675
2.61306
4.62424
11.3244
29.8312
155.789
121.137
0.00596755
0.00509636
0.00467357
0.00432576
0.00403739
0.00379668
0.00359463
0.00342487
0.0420427
0.131818
0.250133
0.419127
0.64099
0.923024
1.26038
1.74021
2.63141
4.65418
11.3864
29.91
164.482
125.495
0.00586288
0.00500346
0.00459145
0.00425312
0.00397306
0.00373966
0.00354397
0.00338442
0.0514397
0.138498
0.25589
0.42544
0.6483
0.932113
1.27111
1.75322
2.64891
4.68195
11.4449
29.9858
173.501
130.045
0.00582127
0.00496399
0.00455389
0.00421666
0.00393721
0.00370416
0.00350879
0.00333595
0.0564052
0.143876
0.261284
0.431548
0.655381
0.94093
1.28149
1.76575
2.66551
4.70745
11.5006
30.057
182.575
134.727
0.00569965
0.00485646
0.00445887
0.00413234
0.00386218
0.00363726
0.00344898
0.00329291
0.0593198
0.148222
0.266322
0.437439
0.662214
0.949437
1.29147
1.77775
2.68114
4.7306
11.5535
30.1224
191.229
139.588
0.00561734
0.00478992
0.00440435
0.00408616
0.00382161
0.00360033
0.00341419
0.00348969
0.0611822
0.151764
0.271015
0.443094
0.668776
0.957596
1.30103
1.78918
2.69574
4.75134
11.6034
30.1823
198.767
144.654
0.00525494
0.00446067
0.00411243
0.0038269
0.00358969
0.0033912
0.00322387
0.00357706
0.0624399
0.154665
0.275371
0.448493
0.675048
0.965362
1.31011
1.79999
2.70923
4.7697
11.6491
30.2379
204.386
150.447
95.0235
43.7839
25.5463
20.5457
21.6169
19.0531
18.7371
16.7125
15.618
15.0186
14.25
13.3352
13.8823
15.8397
18.7724
21.6011
23.8403
26.3979
29.8836
33.183
35.509
37.2008
38.1435
38.4961
38.8464
39.0651
38.9948
38.4482
37.3622
35.3502
33.0515
31.9059
31.663
19.4112
3.55834
94.6475
43.7658
25.5535
20.6882
21.962
19.3385
19.0346
16.9417
15.8231
15.1955
14.3413
13.4152
13.9602
15.9345
18.9006
21.7423
23.9778
26.4888
29.9713
33.4378
36.0368
37.9447
38.9869
39.3073
39.5562
39.674
39.5457
38.9792
37.8827
35.8019
33.4088
32.1944
31.937
19.7706
3.56526
93.9266
43.7213
25.5681
20.9786
22.6507
19.9116
19.6169
17.3887
16.2299
15.5473
14.5336
13.5797
14.1186
16.133
19.1676
22.0487
24.2828
26.6964
30.1586
33.9338
37.0748
39.4512
40.7469
41.0373
41.0836
40.9734
40.6987
40.0717
38.9508
36.7339
34.1467
32.7843
32.5053
20.1122
3.57867
92.8104
43.6444
25.5935
21.4308
23.6737
20.7725
20.461
18.0379
16.8302
16.0673
14.8505
13.8537
14.3803
16.4589
19.6218
22.6008
24.8561
27.1262
30.522
34.7284
38.68
41.8044
43.5684
43.8853
43.6316
43.1235
42.562
41.7982
40.6282
38.2064
35.3153
33.7022
33.412
20.502
3.59905
91.3035
43.5287
25.6348
22.0557
25.0153
21.915
21.5445
18.8796
17.6168
16.7491
15.319
14.269
14.7706
16.9335
20.3092
23.4979
25.8591
27.9697
31.2183
35.9458
40.9601
45.138
47.6694
48.1594
47.5306
46.3953
45.3207
44.2804
43.0131
40.3104
36.9895
34.9908
34.7165
20.9939
3.62709
89.3553
43.3681
25.6995
22.8673
26.6724
23.3413
22.8603
19.9165
18.5916
17.5947
15.9655
14.8576
15.3117
17.5649
21.2511
24.8254
27.491
29.5218
32.521
37.8015
44.0938
49.651
53.3512
54.301
53.2868
51.2237
49.2772
47.7131
46.2523
43.176
39.2762
36.7127
36.4978
21.6343
3.6637
87.0012
43.1566
25.7989
23.8877
28.6587
25.0684
24.4202
21.1647
19.7694
18.6191
16.819
15.6547
16.0271
18.3591
22.4525
26.6384
29.9557
32.1827
34.8614
40.6412
48.3649
55.6364
61.0152
62.909
61.645
58.2903
54.9136
52.4001
50.5611
46.985
42.3239
38.9552
38.86
22.4666
3.70995
84.2135
42.888
25.9488
25.1485
30.9999
27.1257
26.2516
22.6523
21.1777
19.8513
17.919
16.7058
16.9542
19.3366
23.9248
28.9768
33.4409
36.4412
38.8717
44.9936
54.2103
63.5205
71.1789
74.7471
73.6491
68.6334
62.9867
58.809
56.2515
51.9866
46.3355
41.8366
41.9384
23.5373
3.76706
81.0699
42.5556
26.172
26.6886
33.7248
29.5491
28.3929
24.4175
22.8548
21.3331
19.319
18.0731
18.1533
20.5437
25.7029
31.8862
38.1108
42.8348
45.4187
51.6295
62.2711
73.8979
84.4687
90.6797
90.6231
83.7482
74.6475
67.6445
63.7695
58.5185
51.5832
45.5137
45.9056
24.9013
3.83637
77.574
42.1525
26.4995
28.5491
36.8579
32.376
30.8887
26.5068
24.8485
23.118
21.0884
19.8386
19.7155
22.0599
27.8526
35.4246
44.0744
51.8087
55.5426
61.5708
73.3925
87.4982
101.505
111.403
113.848
105.487
91.5086
79.9137
73.7296
67.0234
58.4214
50.1877
50.9741
26.6289
3.9193
73.8369
41.6709
26.9734
30.7681
40.4134
35.6399
33.7856
28.9729
27.2132
25.2695
23.3109
22.1012
21.7668
24.0061
30.4819
39.6643
51.3092
63.3283
69.9667
75.8229
88.4172
104.93
122.519
136.755
143.493
135.194
115.345
96.8703
86.9027
78.0404
67.2835
56.1036
57.3872
28.813
4.01731
69.8857
41.1022
27.648
33.3758
44.3913
39.3667
37.1265
31.8713
30.0064
27.8586
26.0778
24.973
24.4743
26.5566
33.7536
44.6941
59.5646
76.2861
87.7415
94.3634
107.464
125.982
146.568
164.646
176.638
171.205
146.616
119.499
104.033
92.1086
78.6273
63.5301
65.3854
31.5776
4.13169
65.8489
40.4369
28.591
36.3866
48.775
43.5724
40.9451
35.2558
33.2828
30.9586
29.479
28.5612
28.036
29.9499
37.9007
50.6271
68.3238
88.36
104.872
114.446
128.675
148.633
170.819
190.668
206.377
205.809
181.205
146.973
125.236
109.459
92.7514
72.693
75.1178
35.0834
4.26337
61.7626
39.665
29.8803
39.8022
53.5313
48.2633
45.2638
39.1703
37.088
34.6345
33.5804
32.9435
32.6572
34.4836
43.231
57.5845
76.9079
97.1953
116.225
130.727
147.868
169.007
191.178
209.995
225.454
227.854
208.725
174.409
148.828
129.36
109.375
83.6201
86.473
39.5262
4.41235
57.7502
38.7773
31.5974
43.6138
58.6138
53.4339
50.0872
43.6454
41.4519
38.9323
38.406
38.1239
38.4768
40.4744
50.086
65.6494
84.7465
102.108
120.229
139.513
161.111
183.569
204.647
220.37
231.681
232.181
219.281
193.433
170.399
149.298
126.992
95.8679
98.8308
45.1136
4.57691
53.8399
37.7674
33.815
47.8041
63.9677
59.0592
55.4014
48.6953
46.3854
43.8677
43.9301
44.0037
45.4482
48.1252
58.6833
74.7421
91.6587
104.347
119.728
142.043
167.947
191.604
211.006
222.752
227.998
222.906
212.73
198.356
184.263
165.016
142.491
108.213
110.862
51.9914
4.75234
50.1273
36.6372
36.583
52.3305
69.5412
65.0943
61.1729
54.3162
51.8805
49.4237
50.0505
50.3693
53.2023
57.2529
68.82
84.496
97.9237
105.873
118.499
142.226
170.958
194.958
212.044
219.472
218.475
207.111
196.594
190.923
187.355
172.507
152.07
118.638
120.661
60.0811
4.92925
46.6135
35.4049
39.9149
57.1338
75.276
71.4667
67.3464
60.4837
57.9158
55.5572
56.6409
56.9793
61.0584
66.9988
79.525
94.1873
104.058
108.308
118.989
143.198
172.958
195.875
209.72
212.504
205.866
189.616
178.063
177.126
181.153
170.635
153.469
125.008
126.423
68.8114
5.09196
43.349
34.1174
43.7603
62.1521
81.1011
78.0706
73.8409
67.1478
64.4574
62.2195
63.6071
63.6698
68.2938
75.9332
89.2045
102.973
110.502
112.565
122.157
146.281
175.355
195.585
205.177
202.989
191.576
172.562
160.785
161.991
169.522
161.469
147.388
126.189
127.303
76.8649
5.21817
40.3033
32.8602
47.9996
67.3144
86.9336
84.7692
80.5483
74.2257
71.4625
69.3662
70.9222
70.4784
74.6003
82.8833
96.5396
110.294
117.411
118.874
127.98
151.358
178.12
194.218
198.772
191.53
176.379
156.653
145.818
147.947
155.863
148.321
136.562
122.621
123.741
82.3101
5.28201
37.4893
31.7438
52.4645
72.5338
92.6822
91.4069
87.3381
81.5998
78.8641
76.961
78.638
77.6284
80.3085
87.8317
101.522
116.326
124.71
126.816
135.639
157.387
180.395
191.357
190.537
178.579
160.897
142.091
133.088
135.615
142.11
133.932
123.868
115.81
116.982
83.4288
5.26125
34.8769
30.8907
56.9581
77.7116
98.2555
97.8311
94.0698
89.1229
86.5773
84.9637
86.8309
85.4603
86.2719
91.9521
105.398
121.912
132.31
135.532
143.775
162.877
181.133
186.587
180.561
164.652
145.734
128.939
122.191
124.815
129.053
119.934
111.253
107.395
108.367
79.7594
5.14606
32.4767
30.4178
61.2941
82.7443
103.569
103.911
100.609
96.6364
94.4952
93.3181
95.5531
94.2604
93.4277
96.8935
109.948
128.305
140.371
144.123
150.907
166.464
179.629
179.813
169.155
150.345
131.415
117.208
112.708
115.148
116.907
107.082
99.6736
98.5757
98.9008
72.3215
4.94329
30.2708
30.4255
65.3327
87.5282
108.55
109.549
106.841
103.99
102.496
101.945
104.787
104.188
102.447
104.156
116.787
136.694
149.35
152.179
156.154
167.439
175.741
171.297
156.814
136.256
118.314
106.848
104.292
106.248
105.679
95.6174
89.4305
90.0068
89.1967
62.8626
4.67339
28.2673
30.9934
68.997
91.9679
113.141
114.682
112.677
111.059
110.462
110.754
114.467
115.221
113.617
114.791
127.266
148.125
159.852
159.87
159.492
165.924
169.852
161.536
144.101
122.884
106.618
97.7515
96.6723
97.8638
95.341
85.5322
80.4869
81.946
79.593
52.9804
4.36276
26.4614
32.18
72.2672
95.9865
117.303
119.282
118.06
117.757
118.291
119.661
124.507
127.251
126.897
129.285
142.399
163.355
172.375
167.68
161.572
162.62
162.603
151.08
131.528
110.575
96.3593
89.7687
89.6466
89.8628
85.8735
76.7091
72.6687
74.426
70.2875
43.7234
4.03646
24.8623
34.0233
75.162
99.5372
121.019
123.353
122.971
124.044
125.919
128.613
134.859
140.145
142.062
147.589
162.899
182.979
187.16
175.946
163.093
158.387
154.665
140.417
119.5
99.5115
87.4545
82.729
83.0717
82.2099
77.2665
68.9921
65.7686
67.3845
61.4242
35.6068
3.71408
23.4808
36.5412
77.7186
102.61
124.3
126.929
127.422
129.919
133.328
137.599
145.522
153.847
158.922
169.357
188.894
207.151
204.064
184.693
164.569
153.946
146.567
129.918
108.286
89.7408
79.7575
76.4637
76.8542
74.932
69.5041
62.2199
59.594
60.7417
53.1285
28.7803
3.40864
22.3333
39.7282
79.9771
105.228
127.174
130.067
131.457
135.428
140.549
146.666
156.572
168.383
177.394
194.273
220.064
235.53
222.511
193.564
166.126
149.772
138.663
119.828
98.0413
81.2131
73.0959
70.8218
70.9439
68.0837
62.5532
56.2405
53.9859
54.4393
45.5081
23.1896
3.12741
21.4546
43.5498
81.9715
107.435
129.688
132.834
135.144
140.645
147.657
155.923
168.164
183.918
197.579
222.249
255.726
266.896
241.388
201.966
167.705
146.092
131.131
110.291
88.8223
73.8207
67.2983
65.6779
65.3239
61.7214
56.3626
50.9192
48.8237
48.454
38.6422
18.6876
2.87333
20.8892
47.9324
83.7277
109.287
131.897
135.305
138.562
145.672
154.778
165.549
180.563
200.757
219.78
253.523
295.224
299.398
259.135
209.098
168.994
142.9
124.018
101.378
80.6187
67.4273
62.2074
60.9356
60.0015
55.8855
50.8655
46.141
44.0241
42.7957
32.5709
15.0996
2.64653
20.7351
52.7561
85.2658
110.846
133.858
137.553
141.801
150.63
162.086
175.82
194.188
219.451
244.624
288.712
337.696
330.48
273.906
214.168
169.655
140.006
117.263
93.1138
73.3739
61.8898
57.6878
56.5259
54.9962
50.5933
45.987
41.8119
39.5359
37.4961
27.2936
12.2559
2.44546
21.1259
57.8563
86.6046
112.17
135.63
139.651
144.957
155.673
169.82
187.147
209.709
240.914
273.205
328.884
381.9
357.311
283.949
216.448
169.244
137.084
110.754
85.4934
67.0065
57.0703
53.6273
52.4037
50.3305
45.8389
41.6501
37.8575
35.3336
32.5946
22.774
10.0068
2.26774
22.2957
63.0398
87.7647
113.315
137.275
141.673
148.143
160.988
178.315
200.15
228.201
266.694
307.39
375.472
425.377
376.717
287.876
215.491
167.453
133.764
104.361
78.5005
61.4215
52.8436
49.9365
48.5424
46.0222
41.5969
37.7812
34.2219
31.4095
28.1257
18.9505
8.22721
2.11069
24.5223
68.112
88.77
114.333
138.854
143.698
151.491
166.828
188.056
215.789
251.414
299.351
350.143
429.696
463.948
385.88
284.977
211.109
164.01
129.716
97.9841
72.1123
56.5211
49.1
46.5455
44.9278
42.0798
37.8289
34.3137
30.8644
27.7666
24.1101
15.7472
6.81546
1.97162
28.1637
72.906
89.6457
115.271
140.43
145.819
155.171
173.546
199.768
235.577
282.21
343.037
405.683
490.638
491.284
382.742
275.314
203.468
158.846
124.72
91.5717
66.3018
52.2092
45.7466
43.4017
41.5526
38.5006
34.4889
31.1902
27.7573
24.4119
20.5519
13.0829
5.69095
1.84803
33.4954
77.3038
90.416
116.171
142.078
148.153
159.42
181.66
214.579
261.945
325.165
403.791
478.06
551.359
500.429
367.079
259.784
192.969
151.962
118.688
85.1358
61.0367
48.3966
42.7068
40.4664
38.4119
35.2718
31.5288
28.3623
24.8824
21.3512
17.4384
10.8785
4.79045
1.73771
40.701
81.2544
91.103
117.076
143.886
150.858
164.583
191.975
234.314
298.815
386.951
487.733
564.901
595.566
486.526
340.599
239.889
180.239
143.53
111.652
78.7296
56.2782
45.0027
39.9204
37.7123
35.5
32.3719
28.9014
25.7912
22.2284
18.5861
14.7439
9.0607
4.06483
1.63868
49.6321
84.76
91.7261
118.033
145.974
154.168
171.197
205.802
262.019
352.314
474.252
591.246
644.237
602.802
450.259
306.825
217.449
165.986
133.765
103.741
72.4296
51.9798
41.9578
37.3418
35.1207
32.8089
29.7736
26.563
23.4461
19.7879
16.1124
12.4337
7.56458
3.47606
1.54928
59.8743
87.8662
92.3034
119.099
148.515
158.451
180.148
225.387
302.904
430.404
582.356
681.131
673.636
564.026
398.148
269.787
194.198
150.961
122.997
95.1471
66.3071
48.0902
39.2032
34.9396
32.6805
30.3273
27.4461
24.4742
21.3029
17.5557
13.9202
10.4682
6.33406
2.99475
1.46808
70.5911
90.6494
92.854
120.354
151.781
164.327
193
254.795
365.557
535.677
672.673
700.397
628.474
490.953
339.795
233.123
171.573
135.849
111.558
86.103
60.4195
44.5553
36.6919
32.6943
30.3867
28.0425
25.3574
22.6002
19.3432
15.5266
11.9941
8.8066
5.32169
2.59821
1.39386
80.9187
93.2032
93.4012
121.923
156.239
172.931
212.714
301.595
460.255
640.245
684.712
631.564
532.366
406.281
283.315
199.198
150.565
121.26
99.8383
76.864
54.8031
41.3221
34.3869
30.5963
28.2392
25.9406
23.476
20.9106
17.5522
13.6951
10.3153
7.40898
4.48794
2.26887
1.32562
89.3733
95.6381
93.9787
124.017
162.772
186.531
245.333
378.413
577.591
673.086
607.104
517.79
427.15
327.497
233.219
169.23
131.788
107.689
88.2053
67.686
49.4776
38.3406
32.2596
28.6431
26.2424
24.0095
21.7723
19.3789
15.918
12.0538
8.86244
6.23809
3.80013
1.99309
1.2625
95.1437
98.1027
94.6446
127.035
173.239
210.131
303.233
490.241
639.412
597.422
487.08
406.614
337.145
261.513
190.742
143.443
115.447
95.4808
77.0553
58.8246
44.4493
35.5648
30.2874
26.8361
24.4035
22.24
20.2202
17.9817
14.4298
10.5938
7.613
5.26018
3.23148
1.76026
1.20377
0.00337796
0.00250633
0.00228102
0.00217124
0.00213181
0.00213592
0.00216806
0.00360675
0.0631014
0.156457
0.278389
0.452287
0.679414
0.970691
1.3163
1.80728
2.71808
4.78136
11.6788
30.2797
206.606
160.192
0.00334454
0.00224289
0.00184376
0.00160926
0.0014897
0.00145331
0.00148638
0.00362558
0.0634268
0.157428
0.280122
0.454372
0.681643
0.973266
1.31917
1.81055
2.72194
4.78661
11.6952
30.3109
207.503
170.342
0.00354058
0.00237586
0.00188234
0.00154527
0.00132442
0.00119496
0.0011651
0.00363995
0.0636401
0.158143
0.281478
0.455872
0.683022
0.974659
1.32052
1.81192
2.72334
4.78868
11.7052
30.3433
207.55
180.03
0.00367094
0.00251742
0.00200371
0.00162961
0.00135815
0.00116749
0.00103261
0.00365041
0.0637575
0.158618
0.282454
0.456778
0.683534
0.974851
1.32034
1.81136
2.72221
4.78745
11.7072
30.3773
206.81
189.126
0.00392269
0.00276385
0.00222597
0.0018214
0.0015134
0.00127934
0.000997066
0.00365761
0.0637883
0.158864
0.283046
0.457082
0.683167
0.973833
1.31861
1.80884
2.71849
4.78276
11.6999
30.4133
205.328
198.088
0.00406035
0.0029297
0.00239811
0.00199133
0.00167416
0.00142401
0.000985212
0.00366203
0.0637378
0.158888
0.283253
0.456777
0.681916
0.971601
1.31532
1.80435
2.71213
4.77449
11.6818
30.4513
203.138
207.086
0.00434059
0.00320788
0.00265897
0.00223246
0.00189467
0.001623
0.00105366
0.00366399
0.0636091
0.158694
0.283073
0.455864
0.679779
0.968156
1.31047
1.79786
2.70308
4.76253
11.6518
30.491
200.278
216.118
0.00447871
0.00337925
0.0028435
0.00242263
0.00208525
0.00180978
0.00117997
0.00366359
0.0634037
0.158284
0.282508
0.454344
0.676763
0.963509
1.30409
1.78938
2.69129
4.74678
11.6087
30.5316
196.797
225.122
0.00478414
0.00368452
0.00313404
0.00269584
0.0023405
0.00204711
0.00130443
0.0036607
0.0631222
0.157661
0.281562
0.452223
0.672882
0.957678
1.29618
1.77892
2.67674
4.72712
11.5517
30.5715
192.754
234.026
0.00490883
0.00384885
0.00331912
0.00289382
0.00254562
0.00225473
0.00139504
0.00365505
0.0627646
0.156829
0.280243
0.449515
0.668156
0.950687
1.28678
1.76648
2.65939
4.70348
11.4801
30.6087
188.207
242.746
0.00522948
0.00417112
0.00362944
0.00318936
0.00282551
0.00251896
0.0015091
0.00364633
0.0623302
0.15579
0.278563
0.446236
0.662612
0.942571
1.27593
1.75211
2.63921
4.67574
11.3933
30.6398
183.224
251.172
0.00533942
0.00432471
0.00380951
0.00338825
0.00303733
0.00273884
0.00162899
0.0036341
0.0618173
0.154548
0.276533
0.442406
0.656283
0.933368
1.26368
1.73584
2.61618
4.6438
11.2911
30.6608
177.87
259.168
0.00567217
0.00466078
0.00413613
0.00370223
0.00333749
0.00302502
0.00183333
0.00361791
0.0612235
0.153106
0.274169
0.438053
0.649207
0.923126
1.25009
1.71772
2.59029
4.60756
11.1731
30.6666
172.216
266.586
0.00575638
0.00479292
0.00430082
0.00389216
0.00354667
0.00324837
0.00211109
0.00359699
0.0605439
0.151468
0.271487
0.433205
0.641428
0.911897
1.23523
1.69782
2.56153
4.56689
11.0392
30.6509
166.328
273.274
0.00609214
0.00513316
0.00463371
0.00421444
0.00385705
0.00354673
0.00251519
0.00357061
0.0597714
0.149634
0.268502
0.427894
0.632991
0.899739
1.21916
1.67621
2.52993
4.52164
10.8896
30.6069
160.271
279.082
0.00615229
0.00524298
0.00477987
0.00439032
0.00405698
0.00376578
0.0029812
0.0035372
0.0588947
0.147604
0.265227
0.422155
0.623948
0.886714
1.20196
1.65299
2.49554
4.47167
10.7243
30.5264
154.105
283.879
0.00648678
0.00558292
0.00511421
0.00471564
0.00437184
0.00406999
0.00349317
0.00349522
0.0578962
0.145372
0.261676
0.416024
0.614352
0.872886
1.18373
1.62826
2.45841
4.41682
10.5436
30.4012
147.886
287.556
0.00651846
0.00566549
0.00523626
0.0048713
0.00455583
0.0042776
0.00389013
0.00344085
0.0567501
0.142927
0.257855
0.409538
0.604257
0.858324
1.16453
1.60212
2.41865
4.35693
10.3479
30.2221
141.66
290.031
0.00683901
0.00599229
0.00555925
0.00518711
0.004863
0.00457595
0.00426678
0.00337492
0.0554175
0.140246
0.253765
0.40273
0.593722
0.843098
1.14446
1.57469
2.37635
4.29183
10.1379
29.9804
135.469
291.246
0.00685359
0.00605578
0.0056621
0.00532442
0.00503018
0.00476881
0.00452273
0.00330615
0.0538416
0.137293
0.2494
0.395631
0.582804
0.827277
1.12361
1.54609
2.33167
4.22137
9.91401
29.6673
129.348
291.172
0.00716009
0.00636925
0.00597326
0.00562979
0.00532812
0.00505898
0.00481768
0.00329383
0.0519391
0.134013
0.244737
0.388263
0.57156
0.810936
1.10206
1.51645
2.28476
4.14544
9.67714
29.2749
123.323
289.797
0.00715672
0.00641255
0.00605537
0.00574675
0.00547605
0.00523415
0.00501876
0.00350165
0.049591
0.130319
0.239736
0.380639
0.560044
0.794145
1.07991
1.48588
2.23581
4.06394
9.42811
28.7962
117.415
287.128
0.00744654
0.00670951
0.00635095
0.00603751
0.00576029
0.00551146
0.00528762
0.00401139
0.0466311
0.126084
0.234329
0.372753
0.548305
0.77698
1.05723
1.45452
2.18501
3.97682
9.16785
28.2258
111.64
283.183
0.00743063
0.00673705
0.00641558
0.00613613
0.00588969
0.00566843
0.00546728
0.00462714
0.0428379
0.121124
0.228408
0.364575
0.536379
0.759513
1.03412
1.42248
2.13259
3.88412
8.89736
27.5604
106.006
277.988
0.00770414
0.00701764
0.0066954
0.0064118
0.00615944
0.00593171
0.0057231
0.00522842
0.0379544
0.115175
0.22181
0.356035
0.524286
0.741813
1.01065
1.38989
2.07877
3.78592
8.61764
26.799
100.518
271.58
0.00767678
0.00703044
0.0067433
0.00649245
0.00627026
0.00607
0.00588555
0.00561197
0.0317864
0.107872
0.214291
0.347011
0.512012
0.723943
0.986916
1.35688
2.0238
3.68241
8.32971
25.943
95.1775
264.001
0.00793327
0.00729362
0.007006
0.00675139
0.00652366
0.00631723
0.00612662
0.0059202
0.0244752
0.0987436
0.205497
0.337303
0.499501
0.705948
0.962985
1.32356
1.96795
3.57388
8.03453
24.9968
89.9808
255.304
0.00789955
0.0072964
0.00704126
0.00681744
0.00661848
0.0064386
0.00627212
0.00610794
0.0168672
0.0872704
0.194924
0.326601
0.486623
0.687845
0.93893
1.29004
1.91148
3.46073
7.73306
23.9675
84.9216
245.553
0.00814114
0.00754418
0.00728864
0.00706126
0.00685692
0.00667096
0.00649857
0.00633432
0.0106933
0.0731041
0.181876
0.314443
0.473146
0.669597
0.914807
1.25644
1.8547
3.34351
7.4262
22.865
79.9916
234.826
0.00810336
0.00753939
0.00731374
0.00711507
0.00693793
0.00677734
0.00662834
0.0064861
0.00736567
0.0565661
0.165456
0.300152
0.458697
0.651079
0.890635
1.22286
1.79791
3.2229
7.11481
21.7013
75.1791
223.221
0.00833019
0.00777185
0.00754577
0.00734368
0.00716133
0.00699478
0.00683995
0.0066934
0.00650306
0.0392412
0.144701
0.28276
0.442695
0.632039
0.866374
1.18939
1.74144
3.09974
6.79983
20.4905
70.4719
210.851
0.00829265
0.00776378
0.00756478
0.00738904
0.00723189
0.00708909
0.00695634
0.00682983
0.00657768
0.023949
0.119029
0.260944
0.424279
0.612031
0.841881
1.15605
1.68559
2.97504
6.48229
19.248
65.8564
197.851
0.00850596
0.0079822
0.00778278
0.00760376
0.00744161
0.007293
0.00715446
0.00702327
0.0068387
0.0135734
0.0892572
0.233078
0.402181
0.590342
0.816851
1.12282
1.63066
2.84997
6.16343
17.9899
61.3208
184.37
0.008471
0.00797345
0.00779838
0.00764333
0.00750434
0.00737773
0.00725981
0.00714731
0.00701876
0.00861635
0.0587921
0.197676
0.374601
0.565892
0.790742
1.08953
1.57689
2.72581
5.84481
16.7323
56.8558
170.577
0.0086716
0.00817866
0.00800316
0.00784502
0.00770126
0.00756906
0.00744548
0.0073282
0.00720869
0.00710443
0.0333207
0.154657
0.339161
0.537077
0.762679
1.05581
1.52439
2.60391
5.52842
15.4911
52.4592
156.647
0.00864156
0.00817176
0.00801799
0.00788143
0.00775871
0.00764667
0.00754209
0.00744211
0.00734171
0.00694999
0.0172898
0.107449
0.293279
0.501582
0.731318
1.02103
1.47308
2.48557
5.21667
14.2811
48.1364
142.761
0.00883155
0.00836588
0.00821162
0.00807209
0.00794479
0.00782735
0.00771721
0.00761239
0.00750952
0.00720127
0.0101649
0.0640439
0.235679
0.456276
0.69467
0.984156
1.4226
2.37187
4.91236
13.1162
43.9044
129.096