/*--------------------------------*- C++ -*----------------------------------*\
| =========                 |                                                 |
| \\      /  F ield         | OpenFOAM: The Open Source CFD Toolbox           |
|  \\    /   O peration     | Version:  v1912                                 |
|   \\  /    A nd           | Website:  www.openfoam.com                      |
|    \\/     M anipulation  |                                                 |
\*---------------------------------------------------------------------------*/
FoamFile
{
    version     2.0;
    format      ascii;
    class       volScalarField;
    location    "560";
    object      p;
}
// * * * * * * * * * * * * * * * * * * * * * * * * * * * * * * * * * * * * * //

dimensions      [0 2 -2 0 0 0 0];


internalField   nonuniform List<scalar> 
12441
(
9.11805
9.42386
10.2963
11.6482
13.3978
15.5913
18.3249
21.6908
25.8654
31.0093
37.3545
45.0981
54.7655
66.6968
81.9928
101.45
129.788
165.46
223.371
286.292
377.025
438.679
9.11804
9.42385
10.2963
11.6482
13.3977
15.5912
18.3248
21.6907
25.8652
31.009
37.3541
45.0975
54.7645
66.695
81.9898
101.443
129.772
165.435
223.29
286.217
376.978
438.489
9.11802
9.42383
10.2962
11.6481
13.3977
15.5912
18.3247
21.6905
25.8649
31.0086
37.3534
45.0964
54.7626
66.6914
81.9839
101.429
129.746
165.378
223.123
286.037
376.851
438.143
9.118
9.4238
10.2962
11.6481
13.3976
15.591
18.3245
21.6902
25.8645
31.0079
37.3523
45.0947
54.7598
66.6859
81.975
101.408
129.712
165.29
222.946
285.762
376.617
437.606
9.11797
9.42377
10.2961
11.648
13.3975
15.5909
18.3243
21.6898
25.8639
31.0069
37.3508
45.0925
54.7559
66.6786
81.9633
101.381
129.667
165.181
222.782
285.417
376.289
436.871
9.11793
9.42372
10.2961
11.6479
13.3974
15.5907
18.324
21.6894
25.8631
31.0057
37.3489
45.0896
54.7512
66.6695
81.9487
101.347
129.612
165.051
222.596
284.999
375.87
435.943
9.11788
9.42367
10.296
11.6478
13.3972
15.5904
18.3236
21.6888
25.8622
31.0043
37.3467
45.0863
54.7454
66.6585
81.9313
101.306
129.547
164.9
222.379
284.512
375.364
434.818
9.11782
9.4236
10.2959
11.6477
13.397
15.5902
18.3232
21.6881
25.8612
31.0027
37.3441
45.0823
54.7387
66.6457
81.911
101.26
129.476
164.727
222.142
283.968
374.777
433.495
9.11776
9.42353
10.2958
11.6475
13.3968
15.5898
18.3227
21.6873
25.86
31.0008
37.3411
45.0778
54.7311
66.6312
81.8883
101.209
129.402
164.542
221.906
283.377
374.111
431.969
9.11769
9.42345
10.2957
11.6474
13.3966
15.5895
18.3222
21.6864
25.8586
30.9987
37.3378
45.0728
54.7225
66.6149
81.8645
101.158
129.335
164.357
221.696
282.751
373.368
430.234
9.11761
9.42336
10.2956
11.6472
13.3963
15.5891
18.3216
21.6854
25.8571
30.9963
37.3341
45.0671
54.713
66.5973
81.8413
101.114
129.293
164.193
221.546
282.099
372.544
428.285
9.11752
9.42326
10.2955
11.647
13.396
15.5886
18.3209
21.6843
25.8554
30.9938
37.33
45.0609
54.7026
66.5794
81.823
101.092
129.315
164.092
221.489
281.424
371.633
426.109
9.11743
9.42315
10.2953
11.6468
13.3957
15.5882
18.3202
21.6832
25.8536
30.9909
37.3255
45.0542
54.6915
66.5639
81.8218
101.119
129.457
164.108
221.535
280.721
370.627
423.697
9.11732
9.42303
10.2952
11.6466
13.3954
15.5876
18.3195
21.6819
25.8517
30.9879
37.3207
45.0469
54.6806
66.5566
81.8582
101.234
129.774
164.285
221.653
279.97
369.515
421.036
9.11721
9.42291
10.295
11.6463
13.395
15.5871
18.3186
21.6805
25.8496
30.9846
37.3155
45.039
54.6716
66.5692
81.9563
101.466
130.295
164.628
221.777
279.146
368.288
418.11
9.11709
9.42277
10.2948
11.6461
13.3946
15.5865
18.3177
21.679
25.8473
30.9811
37.3099
45.0308
54.6686
66.6161
82.1351
101.826
130.993
165.077
221.83
278.224
366.938
414.908
9.11697
9.42262
10.2946
11.6458
13.3942
15.5858
18.3168
21.6775
25.8449
30.9773
37.3039
45.0229
54.6786
66.7101
82.4002
102.301
131.785
165.519
221.75
277.183
365.458
411.413
9.11683
9.42247
10.2944
11.6455
13.3937
15.5852
18.3158
21.6758
25.8423
30.9733
37.2975
45.0167
54.7109
66.8564
82.7401
102.847
132.542
165.833
221.505
276.013
363.84
407.61
9.11669
9.42231
10.2942
11.6452
13.3932
15.5844
18.3147
21.674
25.8396
30.969
37.2907
45.0152
54.7731
67.0508
83.1283
103.398
133.125
165.934
221.098
274.71
362.082
403.485
9.11654
9.42213
10.294
11.6448
13.3927
15.5837
18.3136
21.6721
25.8368
30.9645
37.2835
45.0227
54.8683
67.2797
83.5262
103.877
133.43
165.807
220.554
273.279
360.181
399.022
9.11638
9.42195
10.2938
11.6445
13.3922
15.5829
18.3124
21.6702
25.8338
30.9598
37.2762
45.045
54.9922
67.5255
83.8912
104.22
133.421
165.495
219.905
271.726
358.135
394.203
9.11621
9.42176
10.2935
11.6441
13.3916
15.5821
18.3111
21.6681
25.8306
30.9547
37.2695
45.0861
55.1366
67.7668
84.1835
104.387
133.137
165.068
219.179
270.059
355.946
389.013
9.11604
9.42156
10.2932
11.6437
13.3911
15.5812
18.3098
21.666
25.8273
30.9494
37.2646
45.1469
55.2898
67.9856
84.377
104.374
132.669
164.589
218.396
268.286
353.614
383.433
9.11585
9.42135
10.293
11.6433
13.3904
15.5803
18.3084
21.6637
25.8238
30.9438
37.2635
45.2243
55.4417
68.1643
84.4622
104.213
132.118
164.095
217.566
266.417
351.142
377.444
9.11566
9.42114
10.2927
11.6429
13.3898
15.5793
18.307
21.6613
25.8201
30.9379
37.2691
45.3129
55.5821
68.2946
84.4487
103.949
131.564
163.597
216.695
264.461
348.531
371.028
9.11546
9.42091
10.2924
11.6424
13.3891
15.5783
18.3055
21.6589
25.8163
30.9317
37.2836
45.4067
55.7052
68.3713
84.3572
103.634
131.052
163.093
215.782
262.428
345.785
364.162
9.11526
9.42067
10.2921
11.642
13.3885
15.5773
18.304
21.6563
25.8124
30.9254
37.3083
45.4997
55.8051
68.3999
84.2148
103.307
130.592
162.577
214.829
260.328
342.906
356.823
9.11504
9.42043
10.2917
11.6415
13.3877
15.5762
18.3024
21.6537
25.8082
30.9192
37.3426
45.5875
55.8809
68.3859
84.0446
102.992
130.177
162.042
213.834
258.169
339.895
348.988
9.11482
9.42018
10.2914
11.641
13.387
15.5751
18.3007
21.6509
25.8039
30.9132
37.3844
45.6666
55.9313
68.3415
83.8659
102.701
129.793
161.485
212.796
255.957
336.753
340.629
9.11459
9.41991
10.2911
11.6405
13.3862
15.5739
18.299
21.6481
25.7994
30.9077
37.4308
45.735
55.9595
68.2744
83.6894
102.433
129.428
160.904
211.716
253.698
333.476
331.718
9.11435
9.41964
10.2907
11.64
13.3854
15.5727
18.2972
21.6451
25.7947
30.903
37.4796
45.7914
55.9668
68.1951
83.5214
102.186
129.071
160.299
210.592
251.392
330.061
322.225
9.11411
9.41936
10.2903
11.6394
13.3846
15.5715
18.2953
21.642
25.7899
30.8997
37.5287
45.8354
55.9582
68.1078
83.3629
101.953
128.716
159.673
209.426
249.042
326.501
312.116
9.11385
9.41907
10.2899
11.6388
13.3838
15.5702
18.2934
21.6389
25.7848
30.8984
37.5766
45.8672
55.936
68.0188
83.2141
101.73
128.359
159.026
208.217
246.646
322.787
301.356
9.11359
9.41877
10.2895
11.6383
13.3829
15.5689
18.2915
21.6356
25.7796
30.9
37.6219
45.8879
55.9047
67.9286
83.0728
101.513
127.998
158.36
206.965
244.203
318.908
289.908
9.11332
9.41846
10.2891
11.6377
13.382
15.5675
18.2894
21.6322
25.7742
30.9051
37.6639
45.8985
55.8658
67.8409
82.9378
101.299
127.631
157.677
205.672
241.714
314.851
277.731
9.11304
9.41815
10.2887
11.637
13.3811
15.5661
18.2873
21.6287
25.7686
30.915
37.7022
45.9006
55.823
67.7539
82.8069
101.086
127.259
156.977
204.338
239.179
310.606
264.784
9.11276
9.41782
10.2883
11.6364
13.3801
15.5647
18.2852
21.6251
25.763
30.931
37.7369
45.8955
55.7765
67.6703
82.6795
100.873
126.882
156.263
202.963
236.602
306.16
251.024
9.11246
9.41749
10.2878
11.6358
13.3791
15.5632
18.283
21.6215
25.7577
30.9558
37.7686
45.8848
55.729
67.5879
82.5536
100.659
126.499
155.536
201.549
233.986
301.504
236.402
9.11216
9.41714
10.2874
11.6351
13.3781
15.5617
18.2807
21.6176
25.7546
30.9911
37.7976
45.8698
55.6801
67.5088
82.4294
100.444
126.111
154.796
200.098
231.338
296.629
220.87
9.11185
9.41679
10.2869
11.6344
13.3771
15.5602
18.2784
21.6137
25.7591
31.038
37.8244
45.8518
55.6316
67.4311
82.3058
100.227
125.72
154.044
198.613
228.662
291.53
204.374
9.11154
9.41643
10.2864
11.6337
13.376
15.5586
18.276
21.6096
25.7795
31.0971
37.849
45.8316
55.5825
67.3569
82.1833
100.01
125.326
153.281
197.098
225.963
286.205
186.862
9.11121
9.41606
10.2859
11.633
13.375
15.5569
18.2736
21.6057
25.8237
31.1673
37.871
45.8105
55.5343
67.2844
82.0612
99.7914
124.929
152.507
195.557
223.244
280.653
168.285
9.11088
9.41568
10.2854
11.6322
13.3738
15.5552
18.271
21.6031
25.8968
31.2469
37.8902
45.7892
55.4852
67.2162
81.9403
99.5731
124.53
151.721
193.996
220.501
274.848
148.555
9.11054
9.41529
10.2849
11.6315
13.3727
15.5535
18.2684
21.6073
25.998
31.3325
37.9061
45.7686
55.4368
67.15
81.8202
99.3555
124.13
150.919
192.421
217.723
268.709
126.927
-19.4736
-20.945
-18.654
-20.4909
-17.5292
-17.526
-15.2195
-14.8015
-12.7854
-11.4501
-8.90792
-7.92625
-8.52689
-10.2247
-7.21044
0.248257
6.5907
7.85621
6.68736
7.67596
9.36842
11.2023
11.272
9.41596
7.89403
6.66668
5.64045
4.59599
3.47827
2.03507
0.728585
-0.060491
-0.491517
-5.60795
-2.97242
-19.4719
-20.9279
-18.6772
-20.4942
-17.5307
-17.5247
-15.22
-14.801
-12.7854
-11.4496
-8.90926
-7.92698
-8.52524
-10.2204
-7.20557
0.253427
6.59678
7.86298
6.6919
7.6791
9.37141
11.205
11.2747
9.4186
7.89627
6.66851
5.64199
4.59731
3.47944
2.03627
0.729267
-0.0599282
-0.488609
-5.60275
-2.99829
-19.4686
-20.9123
-18.7097
-20.5004
-17.5322
-17.5239
-15.2204
-14.8009
-12.7853
-11.4491
-8.91083
-7.92677
-8.52256
-10.2155
-7.19846
0.264941
6.61347
7.88328
6.70844
7.68878
9.37773
11.2105
11.2798
9.42313
7.90009
6.67169
5.64471
4.59974
3.48162
2.03835
0.730596
-0.0588871
-0.484334
-5.59566
-3.02265
-19.464
-20.9044
-18.7509
-20.5082
-17.5345
-17.5236
-15.2206
-14.8008
-12.7852
-11.4486
-8.91269
-7.92627
-8.51975
-10.2107
-7.19083
0.27944
6.63632
7.91343
6.73603
7.70544
9.38775
11.219
11.2876
9.42996
7.90582
6.67644
5.64874
4.60332
3.48488
2.04144
0.732803
-0.0575096
-0.478117
-5.58667
-3.0387
-19.4583
-20.908
-18.7984
-20.5167
-17.5374
-17.5234
-15.2206
-14.8007
-12.7854
-11.4483
-8.91445
-7.92537
-8.5174
-10.2077
-7.18589
0.291563
6.65745
7.94299
6.76575
7.72491
9.40008
11.2297
11.2974
9.43876
7.91329
6.68265
5.65396
4.60792
3.48906
2.04546
0.735837
-0.055752
-0.470164
-5.57547
-3.04606
-19.4514
-20.9272
-18.8495
-20.5256
-17.5402
-17.5228
-15.2201
-14.8007
-12.7857
-11.4482
-8.91597
-7.92409
-8.51555
-10.2066
-7.18392
0.299909
6.67388
7.967
6.79197
7.74407
9.41339
11.2415
11.3086
9.44894
7.92214
6.6901
5.66017
4.61333
3.49398
2.05024
0.739591
-0.0536262
-0.460754
-5.5617
-3.04539
-19.4435
-20.9656
-18.9018
-20.5346
-17.5426
-17.5214
-15.2189
-14.8008
-12.7862
-11.4485
-8.91736
-7.92239
-8.51395
-10.2066
-7.18362
0.305548
6.68619
7.98525
6.81318
7.76145
9.4267
11.2536
11.3201
9.4597
7.93184
6.69847
5.66718
4.61933
3.4994
2.05559
0.743942
-0.0511838
-0.45013
-5.54523
-3.03707
-19.4348
-21.0258
-18.9529
-20.5435
-17.5446
-17.5195
-15.2172
-14.8011
-12.787
-11.4492
-8.91868
-7.92041
-8.5125
-10.2069
-7.18354
0.310077
6.69583
7.99913
6.82988
7.77672
9.43936
11.265
11.331
9.47015
7.94168
6.70732
5.6747
4.62572
3.50511
2.06127
0.748734
-0.0484863
-0.438542
-5.52621
-3.02133
-19.4254
-21.109
-19.001
-20.5519
-17.5462
-17.5174
-15.2152
-14.8016
-12.7881
-11.4503
-8.91998
-7.91819
-8.51125
-10.2074
-7.18305
0.314516
6.70394
8.01001
6.84311
7.78997
9.4509
11.2751
11.3404
9.47937
7.95083
6.71604
5.68237
4.63226
3.51088
2.06706
0.753783
-0.0455992
-0.426254
-5.50501
-2.99837
-19.4155
-21.2151
-19.0445
-20.5597
-17.5476
-17.5153
-15.2131
-14.8023
-12.7896
-11.4518
-8.92122
-7.9159
-8.51035
-10.2082
-7.18212
0.319175
6.71096
8.01859
6.85367
7.80133
9.46095
11.2833
11.3477
9.48657
7.95846
6.72393
5.68976
4.63868
3.51649
2.07271
0.758878
-0.0425972
-0.413549
-5.48207
-2.96844
-19.4054
-21.3426
-19.0825
-20.5668
-17.5489
-17.5136
-15.2113
-14.8034
-12.7914
-11.4538
-8.92244
-7.91353
-8.50986
-10.2096
-7.18117
0.323804
6.71685
8.02509
6.86189
7.81072
9.46906
11.2892
11.3523
9.49124
7.96395
6.73033
5.69636
4.64468
3.52173
2.07799
0.763789
-0.0395631
-0.400695
-5.45789
-2.93181
-19.3953
-21.4886
-19.1147
-20.5734
-17.5503
-17.5126
-15.21
-14.8049
-12.7936
-11.4563
-8.92366
-7.91124
-8.50982
-10.2115
-7.18045
0.327984
6.72127
8.02945
6.86782
7.81789
9.47488
11.2924
11.3543
9.49322
7.96698
6.73477
5.70169
4.64994
3.52637
2.08267
0.768285
-0.0365878
-0.387929
-5.43299
-2.88878
-19.3855
-21.6484
-19.1409
-20.5796
-17.5517
-17.5124
-15.2094
-14.8069
-12.7964
-11.4594
-8.92499
-7.90902
-8.5102
-10.2139
-7.1802
0.331308
6.72398
8.03169
6.87152
7.82264
9.47818
11.293
11.3536
9.4927
7.9676
6.73709
5.70545
4.65416
3.53022
2.08658
0.772154
-0.0337669
-0.375432
-5.40793
-2.8397
-19.3764
-21.8164
-19.1617
-20.5855
-17.5535
-17.5133
-15.2098
-14.8097
-12.7998
-11.4632
-8.92656
-7.90707
-8.511
-10.2165
-7.18032
0.333592
6.72491
8.03202
6.87316
7.82507
9.47905
11.2911
11.3506
9.49012
7.9662
6.73747
5.70754
4.65714
3.53312
2.08958
0.775226
-0.0311993
-0.363315
-5.38337
-2.78498
-19.3681
-21.9856
-19.1777
-20.5915
-17.5557
-17.5153
-15.2114
-14.8132
-12.8039
-11.4678
-8.92854
-7.90544
-8.51219
-10.2193
-7.18073
0.33482
6.7243
8.03083
6.87313
7.8255
9.47783
11.2871
11.3457
9.48599
7.96331
6.73633
5.70816
4.65884
3.53496
2.09162
0.777402
-0.0289824
-0.351609
-5.36
-2.72515
-19.3609
-22.149
-19.1898
-20.5976
-17.5586
-17.5187
-15.2144
-14.8178
-12.809
-11.4734
-8.93114
-7.90438
-8.51379
-10.2219
-7.18119
0.335166
6.72246
8.02855
6.87191
7.82453
9.47503
11.2814
11.3392
9.48071
7.95947
6.73417
5.70764
4.65941
3.5358
2.09272
0.77867
-0.0272
-0.340273
-5.33853
-2.66087
-19.3549
-22.2998
-19.199
-20.604
-17.5626
-17.5237
-15.2191
-14.8236
-12.8153
-11.48
-8.93457
-7.90402
-8.51581
-10.2242
-7.18166
0.334812
6.71981
8.02562
6.86997
7.82274
9.4712
11.2742
11.3314
9.47452
7.95502
6.73145
5.70639
4.65911
3.53576
2.09301
0.779105
-0.0258988
-0.329217
-5.31958
-2.5931
-19.3502
-22.4331
-19.2061
-20.6108
-17.5678
-17.5306
-15.2257
-14.8311
-12.823
-11.4881
-8.93908
-7.90462
-8.51831
-10.2263
-7.18202
0.333964
6.71659
8.02227
6.86766
7.82067
9.46681
11.2658
11.3222
9.46749
7.95014
6.72844
5.70473
4.65823
3.53506
2.09264
0.77884
-0.0250656
-0.318341
-5.30355
-2.52314
-19.3465
-22.5467
-19.212
-20.6184
-17.5745
-17.5398
-15.2346
-14.8405
-12.8326
-11.4977
-8.94496
-7.90627
-8.5214
-10.2281
-7.1823
0.332724
6.71298
8.01859
6.86521
7.81865
9.46211
11.2563
11.3117
9.4596
7.94487
6.72525
5.70285
4.65702
3.53392
2.09178
0.778024
-0.0246293
-0.307569
-5.29046
-2.4528
-19.3438
-22.642
-19.2172
-20.6274
-17.5829
-17.5516
-15.2465
-14.8526
-12.8445
-11.5094
-8.95259
-7.90922
-8.52526
-10.2297
-7.18243
0.331177
6.70882
8.01434
6.86261
7.81685
9.45722
11.2457
11.2999
9.45082
7.93916
6.72191
5.70086
4.65566
3.53249
2.0906
0.776791
-0.024488
-0.296852
-5.28
-2.38424
-19.3417
-22.7226
-19.2226
-20.6384
-17.5932
-17.5667
-15.2619
-14.8681
-12.8595
-11.5236
-8.96246
-7.91361
-8.53019
-10.2315
-7.18243
0.329331
6.70392
8.00923
6.85979
7.81523
9.45208
11.234
11.2868
9.44116
7.93301
6.71837
5.69877
4.65424
3.5309
2.08919
0.775244
-0.0245414
-0.286146
-5.27165
-2.31967
-19.3397
-22.7922
-19.2303
-20.6526
-17.6055
-17.5855
-15.2818
-14.888
-12.8784
-11.5411
-8.9752
-7.91985
-8.53663
-10.2336
-7.18221
0.327219
6.69787
8.00279
6.85652
7.81368
9.44661
11.2211
11.2723
9.43064
7.92641
6.71458
5.69659
4.6528
3.52921
2.08765
0.77346
-0.0247072
-0.275402
-5.26483
-2.26076
-19.3374
-22.8542
-19.2428
-20.6715
-17.6202
-17.6087
-15.3069
-14.9135
-12.9023
-11.5627
-8.99145
-7.92825
-8.54523
-10.2368
-7.1819
0.324804
6.69039
7.99467
6.85263
7.81204
9.44069
11.207
11.2564
9.41932
7.91939
6.71054
5.6943
4.65138
3.52746
2.08601
0.771492
-0.024922
-0.264558
-5.25905
-2.20819
-19.3346
-22.9115
-19.2619
-20.697
-17.6378
-17.6371
-15.3383
-14.9457
-12.9322
-11.5892
-9.01178
-7.93932
-8.55681
-10.2419
-7.18173
0.322015
6.68115
7.98456
6.84791
7.8102
9.43426
11.1916
11.2392
9.40726
7.91198
6.70623
5.6919
4.64996
3.52565
2.08429
0.769382
-0.0251372
-0.253577
-5.25392
-2.16154
-19.3308
-22.9667
-19.2885
-20.7313
-17.659
-17.6716
-15.3772
-14.986
-12.9692
-11.6211
-9.03629
-7.95304
-8.57214
-10.2504
-7.18247
0.318577
6.66996
7.97231
6.84224
7.80802
9.42725
11.175
11.2208
9.39454
7.90423
6.70168
5.68942
4.64852
3.52377
2.0825
0.767154
-0.0253147
-0.242447
-5.24921
-2.11968
-19.3259
-23.0217
-19.3218
-20.7768
-17.6848
-17.7132
-15.4248
-15.0354
-13.0143
-11.659
-9.06456
-7.96918
-8.59161
-10.2636
-7.18511
0.314046
6.65652
7.95776
6.83549
7.8055
9.4197
11.1571
11.2011
9.38125
7.89619
6.69693
5.68684
4.64704
3.52181
2.08065
0.764836
-0.0254269
-0.231206
-5.24475
-2.08116
-19.3196
-23.0783
-19.3595
-20.8353
-17.7162
-17.7629
-15.4821
-15.0945
-13.0678
-11.7025
-9.09529
-7.98641
-8.6148
-10.2828
-7.19102
0.307723
6.64064
7.94088
6.82761
7.80254
9.4116
11.1381
11.1804
9.36747
7.88791
6.692
5.6842
4.6455
3.51975
2.07873
0.762447
-0.0254551
-0.219918
-5.24048
-2.04463
-19.3116
-23.1382
-19.3983
-20.908
-17.7539
-17.8205
-15.549
-15.1628
-13.1292
-11.7504
-9.12657
-8.00316
-8.64046
-10.3077
-7.20085
0.298931
6.62192
7.92156
6.8185
7.79915
9.40303
11.1179
11.1587
9.35328
7.87943
6.68696
5.68149
4.64384
3.51756
2.07674
0.760012
-0.0253913
-0.208683
-5.23635
-2.00898
-19.3017
-23.2035
-19.4355
-20.9947
-17.7982
-17.8851
-15.6238
-15.2383
-13.1965
-11.8005
-9.15568
-8.01693
-8.66671
-10.3368
-7.21444
0.287198
6.60016
7.89978
6.8081
7.79518
9.39395
11.0968
11.1362
9.33875
7.87081
6.68183
5.67872
4.64207
3.51524
2.07469
0.757551
-0.025236
-0.197604
-5.23234
-1.97338
-19.2896
-23.2768
-19.4703
-21.0939
-17.8488
-17.954
-15.7033
-15.317
-13.2662
-11.8497
-9.1797
-8.02562
-8.69146
-10.367
-7.23002
0.27268
6.57514
7.87544
6.79632
7.79053
9.38437
11.0747
11.1129
9.32397
7.86209
6.67666
5.67586
4.64013
3.51274
2.07259
0.755094
-0.0249983
-0.186816
-5.22844
-1.93721
-19.275
-23.3619
-19.5038
-21.2022
-17.9042
-18.0231
-15.7822
-15.3932
-13.3336
-11.8938
-9.1955
-8.0269
-8.71279
-10.3951
-7.24534
0.256061
6.54706
7.84866
6.78316
7.78497
9.37409
11.0516
11.0889
9.30898
7.85333
6.67148
5.67293
4.63801
3.51008
2.07046
0.752661
-0.0246919
-0.176441
-5.22467
-1.90003
-19.2576
-23.4646
-19.5379
-21.3132
-17.962
-18.0868
-15.8535
-15.4602
-13.3929
-11.9288
-9.20058
-8.01967
-8.7291
-10.4177
-7.25787
0.238497
6.51622
7.81955
6.76863
7.77835
9.36298
11.0277
11.0644
9.29387
7.84458
6.66634
5.66989
4.63567
3.50721
2.0683
0.750283
-0.0243343
-0.16665
-5.22104
-1.86151
-19.2369
-23.5929
-19.5741
-21.4169
-18.0182
-18.1388
-15.9104
-15.5112
-13.4388
-11.9508
-9.19304
-8.0032
-8.73926
-10.4325
-7.26622
0.220997
6.48328
7.78848
6.75295
7.77046
9.35073
11.0028
11.0393
9.27869
7.83591
6.66123
5.66673
4.63309
3.50416
2.06615
0.747981
-0.0239429
-0.157597
-5.2176
-1.82142
-19.2123
-23.7572
-19.6118
-21.5013
-18.0682
-18.1732
-15.9464
-15.5405
-13.4667
-11.9573
-9.17252
-7.97848
-8.74256
-10.438
-7.26954
0.204395
6.44869
7.75575
6.73632
7.76132
9.33716
10.9769
11.0138
9.26351
7.82737
6.65621
5.66343
4.63023
3.50091
2.06403
0.745786
-0.0235351
-0.149497
-5.21438
-1.77958
-19.1832
-23.9701
-19.6475
-21.5549
-18.1075
-18.1861
-15.958
-15.5451
-13.4744
-11.9473
-9.14006
-7.94705
-8.73892
-10.4348
-7.26816
0.188983
6.413
7.72179
6.7191
7.75092
9.32201
10.9499
10.988
9.2484
7.81902
6.65127
5.65996
4.6271
3.49746
2.06195
0.743721
-0.0231258
-0.142554
-5.21147
-1.73587
-19.1482
-24.2466
-19.6754
-21.5709
-18.1331
-18.1765
-15.9447
-15.5252
-13.462
-11.9222
-9.09858
-7.91182
-8.72932
-10.4246
-7.26232
0.174934
6.37632
7.68672
6.70147
7.73951
9.3053
10.9218
10.9617
9.23344
7.81092
6.64644
5.65631
4.62365
3.4938
2.05995
0.741825
-0.0227297
-0.137056
-5.20889
-1.69019
-19.1046
-24.6023
-19.6892
-21.5487
-18.1444
-18.1465
-15.9094
-15.4842
-13.4321
-11.8847
-9.05222
-7.87594
-8.71643
-10.41
-7.25276
0.162041
6.33879
7.65068
6.68364
7.72724
9.28703
10.8927
10.9353
9.2187
7.80313
6.64172
5.65244
4.61989
3.48995
2.05805
0.740125
-0.0223597
-0.133266
-5.20677
-1.64252
-19.0493
-25.0485
-19.6815
-21.4938
-18.1427
-18.1007
-15.8575
-15.4277
-13.3893
-11.8394
-9.00618
-7.84361
-8.70414
-10.393
-7.2396
0.150138
6.30002
7.61338
6.66555
7.71443
9.26756
10.8626
10.9088
9.20428
7.7957
6.6371
5.64835
4.61579
3.4859
2.05628
0.738673
-0.0220289
-0.131569
-5.20516
-1.59277
-18.9818
-25.5788
-19.6448
-21.4146
-18.1309
-18.0449
-15.7956
-15.3622
-13.3385
-11.7912
-8.96584
-7.81919
-8.69597
-10.3746
-7.22338
0.1386
6.25968
7.57469
6.64729
7.70125
9.24714
10.8317
10.8822
9.19021
7.78864
6.63257
5.644
4.61139
3.48168
2.05467
0.737499
-0.0217507
-0.132325
-5.2042
-1.54086
-18.9033
-26.1541
-19.5707
-21.3196
-18.112
-17.9846
-15.7297
-15.2937
-13.2846
-11.7455
-8.93626
-7.8061
-8.69318
-10.3545
-7.20436
0.126608
6.21691
7.53437
6.62907
7.68817
9.22628
10.8003
10.8556
9.17649
7.78198
6.62814
5.63942
4.60667
3.47727
2.05323
0.736663
-0.0215483
-0.136084
-5.20392
-1.4866
-18.8078
-26.6914
-19.4508
-21.2158
-18.0885
-17.9238
-15.6646
-15.2265
-13.2318
-11.7074
-8.92036
-7.80448
-8.69478
-10.3324
-7.18386
0.112631
6.1713
7.49309
6.61169
7.6754
9.20487
10.7682
10.8288
9.16305
7.77573
6.62386
5.63468
4.60171
3.4727
2.05195
0.73619
-0.021447
-0.143212
-5.20439
-1.43011
-18.6677
-27.0619
-19.2782
-21.1076
-18.0615
-17.8647
-15.6031
-15.1637
-13.1852
-11.681
-8.91716
-7.81156
-8.69866
-10.3084
-7.16369
0.0952972
6.12321
7.4524
6.59605
7.66281
9.18223
10.7348
10.8017
9.14994
7.77013
6.61996
5.62988
4.59644
3.46783
2.05083
0.736148
-0.0213964
-0.153727
-5.20566
-1.37288
-18.4914
-27.1098
-19.0466
-20.9983
-18.0308
-17.808
-15.5463
-15.1085
-13.1504
-11.666
-8.92219
-7.82291
-8.70281
-10.2845
-7.14727
0.0742364
6.07576
7.41543
6.58243
7.64835
9.15605
10.6997
10.7745
9.13765
7.76573
6.61674
5.62498
4.59069
3.46254
2.04986
0.736635
-0.0212192
-0.167219
-5.20831
-1.31668
-18.5713
-26.7067
-18.7502
-20.8927
-17.9996
-17.7565
-15.4946
-15.0647
-13.1295
-11.6582
-8.93143
-7.83578
-8.70711
-10.2632
-7.13567
0.0522922
6.03293
7.38356
6.56819
7.62775
9.12387
10.6631
10.7491
9.12814
7.7637
6.61414
5.61912
4.58361
3.45654
2.04952
0.738295
-0.0211459
-0.189171
-5.21282
-1.25042
9.11027
9.41498
10.2845
11.6309
13.3718
15.5522
18.2663
21.6296
26.0941
31.3992
37.915
45.7533
55.3981
67.103
81.7294
99.188
123.82
150.28
191.195
215.523
263.636
105.185
9.11007
9.41475
10.2842
11.6304
13.3711
15.5511
18.2647
21.6634
26.1649
31.4416
37.9176
45.7419
55.3708
67.0692
81.6646
99.0678
123.596
149.811
190.309
213.924
259.761
102.223
9.10986
9.41451
10.2839
11.6299
13.3704
15.5501
18.2631
21.7051
26.2265
31.4747
37.9159
45.7289
55.3418
67.0362
81.5997
98.944
123.364
149.323
189.403
212.265
255.727
103.879
9.10963
9.41426
10.2836
11.6295
13.3697
15.549
18.2613
21.7469
26.2777
31.4996
37.9119
45.7149
55.314
67.0003
81.5327
98.8149
123.122
148.814
188.473
210.537
251.578
103.746
9.1094
9.41399
10.2832
11.6289
13.3689
15.5478
18.2595
21.7833
26.3193
31.5178
37.9072
45.7003
55.2856
66.9651
81.465
98.6804
122.867
148.283
187.515
208.74
247.305
101.93
9.10915
9.41371
10.2828
11.6284
13.3681
15.5465
18.2576
21.8081
26.352
31.5305
37.9026
45.6858
55.259
66.9274
81.3951
98.5395
122.599
147.729
186.522
206.876
242.902
99.8605
9.10889
9.41341
10.2824
11.6278
13.3672
15.5452
18.2555
21.8173
26.376
31.5386
37.899
45.6716
55.2325
66.8904
81.3243
98.392
122.314
147.152
185.489
204.946
238.375
97.9334
9.10862
9.4131
10.282
11.6272
13.3663
15.5438
18.2533
21.8116
26.3918
31.543
37.8966
45.6582
55.2083
66.8511
81.2509
98.2372
122.011
146.55
184.409
202.951
233.729
95.9857
9.10833
9.41276
10.2816
11.6266
13.3653
15.5423
18.251
21.7947
26.3998
31.5442
37.8955
45.6457
55.1844
66.8127
81.1763
98.0753
121.689
145.921
183.275
200.892
228.968
93.9191
9.10802
9.41241
10.2811
11.6259
13.3643
15.5407
18.2486
21.7702
26.4
31.5426
37.8959
45.6343
55.1628
66.7721
81.0989
97.9056
121.345
145.264
182.081
198.768
224.096
91.7576
9.1077
9.41205
10.2806
11.6252
13.3632
15.539
18.2461
21.7404
26.3921
31.5383
37.8973
45.6239
55.1415
66.7323
81.0199
97.7286
120.981
144.577
180.821
196.578
219.119
89.5364
9.10736
9.41166
10.2801
11.6244
13.3621
15.5372
18.2434
21.7074
26.3757
31.5311
37.8994
45.6148
55.1221
66.6902
80.9376
97.5438
120.594
143.859
179.49
194.321
214.041
87.2663
9.107
9.41124
10.2796
11.6236
13.3609
15.5354
18.2405
21.673
26.35
31.5205
37.9018
45.6067
55.1028
66.6484
80.8532
97.3515
120.185
143.108
178.084
191.997
208.867
84.9512
9.10662
9.41081
10.279
11.6227
13.3596
15.5334
18.2375
21.6393
26.314
31.5058
37.9036
45.5996
55.085
66.6041
80.7649
97.1509
119.754
142.323
176.598
189.603
203.603
82.5999
9.10621
9.41034
10.2784
11.6218
13.3583
15.5312
18.2343
21.608
26.267
31.4859
37.9039
45.5934
55.0669
66.5594
80.6736
96.9423
119.302
141.501
175.029
187.138
198.252
80.2244
9.10579
9.40986
10.2777
11.6209
13.3568
15.529
18.2308
21.5807
26.2088
31.4595
37.9015
45.5878
55.0501
66.5115
80.5776
96.7248
118.827
140.642
173.376
184.601
192.821
77.8379
9.10533
9.40934
10.277
11.6199
13.3553
15.5266
18.2272
21.5581
26.1397
31.4249
37.8948
45.5822
55.0326
66.4624
80.4774
96.498
118.33
139.745
171.636
181.99
187.313
75.4544
9.10486
9.40879
10.2763
11.6188
13.3537
15.5241
18.2233
21.5402
26.0615
31.3803
37.8817
45.5762
55.0159
66.4094
80.3714
96.2611
117.809
138.808
169.809
179.303
181.733
73.0878
9.10435
9.40821
10.2755
11.6177
13.352
15.5214
18.2192
21.5265
25.9774
31.3242
37.8598
45.5687
54.9984
66.3544
80.2599
96.0134
117.265
137.829
167.894
176.54
176.084
70.7508
9.10381
9.4076
10.2747
11.6165
13.3502
15.5186
18.2149
21.5159
25.8915
31.2551
37.8258
45.558
54.9812
66.2946
80.1411
95.7539
116.694
136.808
165.89
173.698
170.371
68.4538
9.10324
9.40695
10.2738
11.6152
13.3483
15.5156
18.2102
21.5071
25.8087
31.173
37.7761
45.5418
54.9623
66.232
80.0154
95.4817
116.098
135.743
163.797
170.776
164.598
66.2042
9.10264
9.40625
10.2729
11.6139
13.3463
15.5124
18.2052
21.4992
25.7332
31.0793
37.7068
45.5165
54.9422
66.164
79.8806
95.1955
115.472
134.632
161.615
167.773
158.77
64.0049
9.10199
9.40552
10.2719
11.6125
13.3442
15.5091
18.2
21.4915
25.6686
30.9772
37.6145
45.4772
54.9178
66.0924
79.7372
94.8947
114.817
133.474
159.344
164.687
152.894
61.8542
9.10131
9.40474
10.2709
11.6109
13.3419
15.5055
18.1943
21.4834
25.6163
30.872
37.4974
45.417
54.8874
66.0145
79.5832
94.5777
114.131
132.267
156.982
161.516
146.976
59.7452
9.10059
9.40392
10.2698
11.6093
13.3395
15.5017
18.1884
21.4749
25.5756
30.7694
37.3567
45.3277
54.8446
65.9313
79.4188
94.2437
113.411
131.008
154.531
158.259
141.025
57.6662
9.09982
9.40304
10.2686
11.6076
13.3369
15.4976
18.182
21.4658
25.5443
30.6749
37.1977
45.2009
54.7823
65.8388
79.242
93.8914
112.656
129.697
151.989
154.915
135.05
55.6011
9.099
9.4021
10.2674
11.6058
13.3342
15.4934
18.1753
21.4561
25.5193
30.592
37.0292
45.0305
54.6871
65.7351
79.0527
93.5199
111.866
128.33
149.357
151.48
129.061
53.5299
9.09813
9.40111
10.2661
11.6039
13.3313
15.4888
18.1681
21.4456
25.4978
30.5221
36.8619
44.8165
54.544
65.611
78.8474
93.1278
111.039
126.908
146.634
147.955
123.071
51.4305
9.09721
9.40006
10.2646
11.6018
13.3282
15.484
18.1605
21.4344
25.4778
30.464
36.7058
44.5675
54.3352
65.4562
78.6233
92.7138
110.173
125.426
143.822
144.336
117.092
49.2794
9.09623
9.39894
10.2632
11.5997
13.3249
15.4789
18.1524
21.4224
25.4578
30.4152
36.5676
44.3002
54.05
65.25
78.3716
92.2753
109.269
123.885
140.921
140.623
111.139
47.0532
9.09518
9.39774
10.2616
11.5973
13.3214
15.4734
18.1438
21.4096
25.4372
30.3724
36.4496
44.0348
53.6895
64.9702
78.0796
91.8083
108.326
122.282
137.932
136.815
105.225
44.7302
9.09407
9.39647
10.2599
11.5949
13.3177
15.4676
18.1347
21.3959
25.4155
30.3326
36.3502
43.7892
53.2737
64.5933
77.7248
91.3048
107.341
120.616
134.856
132.911
99.3651
42.2911
9.09288
9.39512
10.2581
11.5922
13.3138
15.4614
18.125
21.3814
25.3923
30.2933
36.265
43.5737
52.8358
64.1106
77.2789
90.7519
106.311
118.886
131.695
128.912
93.5744
39.7206
9.09161
9.39368
10.2561
11.5894
13.3096
15.4549
18.1147
21.3659
25.3677
30.253
36.1884
43.3901
52.4124
63.5348
76.7112
90.1285
105.231
117.091
128.452
124.82
87.8673
37.0079
9.09026
9.39214
10.2541
11.5864
13.3051
15.4479
18.1038
21.3494
25.3414
30.2108
36.1153
43.233
52.0301
62.9048
76.0052
89.4073
104.09
115.228
125.128
120.636
82.2584
34.1477
9.08882
9.39051
10.2519
11.5833
13.3003
15.4405
18.0921
21.3318
25.3135
30.1662
36.0418
43.0936
51.6998
62.2705
75.1704
88.5592
102.871
113.297
121.728
116.366
76.7618
31.1406
9.08729
9.38876
10.2496
11.5799
13.2952
15.4326
18.0797
21.3131
25.2838
30.1188
35.9656
42.9624
51.4166
61.6766
74.2499
87.5657
101.554
111.294
118.256
112.015
71.3911
27.9929
9.08565
9.3869
10.2471
11.5762
13.2898
15.4241
18.0666
21.2932
25.2521
30.0684
35.8854
42.8319
51.1664
61.1459
73.3075
86.4322
100.117
109.217
114.723
107.592
66.1597
24.7171
9.0839
9.38491
10.2444
11.5724
13.284
15.4152
18.0525
21.2719
25.2184
30.0149
35.8004
42.6971
50.9324
60.6777
72.4035
85.1946
98.5476
107.064
111.139
103.109
61.0814
21.3311
9.08204
9.38279
10.2416
11.5683
13.2778
15.4056
18.0376
21.2492
25.1826
29.9581
35.7103
42.5554
50.7006
60.2538
71.5723
83.9112
96.8509
104.837
107.526
98.5798
56.1703
17.858
9.08004
9.38053
10.2386
11.5639
13.2712
15.3954
18.0217
21.2251
25.1444
29.8977
35.6147
42.4054
50.4615
59.8501
70.8151
82.6405
95.0543
102.541
103.909
94.0277
51.4424
14.3254
9.07791
9.37811
10.2353
11.5591
13.2641
15.3845
18.0047
21.1993
25.1037
29.8334
35.5132
42.2466
50.2101
59.4456
70.1079
81.4184
93.2004
100.189
100.322
89.4813
46.9152
10.7651
9.07564
9.37553
10.2319
11.5541
13.2566
15.3729
17.9866
21.1718
25.0604
29.765
35.4053
42.0782
49.9443
59.026
69.4175
80.2491
91.3315
97.7929
96.801
84.9774
42.6092
7.21243
9.0732
9.37277
10.2282
11.5488
13.2486
15.3605
17.9674
21.1425
25.0143
29.6922
35.2907
41.8995
49.6632
58.5844
68.7146
79.1114
89.4736
95.3645
93.3766
80.56
38.5466
3.70643
9.0706
9.36982
10.2242
11.543
13.24
15.3473
17.9468
21.1112
24.9652
29.6148
35.169
41.7099
49.3659
58.1182
67.9802
77.9724
87.6316
92.9018
90.0603
76.2745
34.7503
0.28875
9.06781
9.36666
10.22
11.5369
13.2308
15.3332
17.9249
21.0779
24.9128
29.5324
35.0397
41.5088
49.0512
57.6266
67.2061
76.8011
85.7918
90.3932
86.8325
72.1593
31.2405
-2.99737
9.06483
9.36328
10.2155
11.5304
13.221
15.3181
17.9016
21.0422
24.857
29.4448
34.9023
41.2954
48.7182
57.1083
66.3908
75.5772
83.9278
87.8287
83.6406
68.2313
28.0305
-6.10909
9.06164
9.35967
10.2107
11.5233
13.2105
15.302
17.8767
21.0042
24.7975
29.3515
34.7564
41.0691