/*--------------------------------*- C++ -*----------------------------------*\
| =========                 |                                                 |
| \\      /  F ield         | OpenFOAM: The Open Source CFD Toolbox           |
|  \\    /   O peration     | Version:  v1912                                 |
|   \\  /    A nd           | Website:  www.openfoam.com                      |
|    \\/     M anipulation  |                                                 |
\*---------------------------------------------------------------------------*/
FoamFile
{
    version     2.0;
    format      ascii;
    class       surfaceScalarField;
    location    "560";
    object      phi;
}
// * * * * * * * * * * * * * * * * * * * * * * * * * * * * * * * * * * * * * //

dimensions      [0 3 -1 0 0 0 0];
oriented        oriented;


internalField   nonuniform List<scalar> 
24588
(
6.81682e-05
2.0042e-08
6.81135e-05
5.50493e-08
6.80276e-05
8.55462e-08
6.79107e-05
1.16825e-07
6.77589e-05
1.51417e-07
6.75676e-05
1.91221e-07
6.7331e-05
2.36403e-07
6.70361e-05
2.94095e-07
6.66711e-05
3.65462e-07
6.62157e-05
4.54601e-07
6.56501e-05
5.65558e-07
6.49469e-05
6.87256e-07
6.41348e-05
8.76436e-07
6.29137e-05
1.15175e-06
6.14772e-05
1.44698e-06
5.91704e-05
2.31153e-06
5.62349e-05
2.93724e-06
5.13799e-05
4.85499e-06
4.46271e-05
6.75286e-06
3.34026e-05
1.12248e-05
1.98075e-05
1.35952e-05
1.98075e-05
6.81685e-05
4.05531e-08
6.81134e-05
1.10636e-07
6.80275e-05
1.70952e-07
6.79108e-05
2.33455e-07
6.77591e-05
3.02623e-07
6.75678e-05
3.82356e-07
6.73309e-05
4.73029e-07
6.70365e-05
5.87553e-07
6.66714e-05
7.31103e-07
6.62163e-05
9.08827e-07
6.56514e-05
1.1304e-06
6.49375e-05
1.38306e-06
6.41557e-05
1.72986e-06
6.2915e-05
2.32397e-06
6.14773e-05
2.89542e-06
5.92393e-05
4.55426e-06
5.62557e-05
5.92379e-06
5.13482e-05
9.76262e-06
4.46712e-05
1.34299e-05
3.33051e-05
2.25914e-05
1.97719e-05
2.71285e-05
3.95794e-05
6.81685e-05
6.10648e-08
6.81134e-05
1.66221e-07
6.80275e-05
2.56383e-07
6.79107e-05
3.50119e-07
6.77591e-05
4.53864e-07
6.75678e-05
5.73532e-07
6.73308e-05
7.09733e-07
6.70364e-05
8.81027e-07
6.66713e-05
1.09668e-06
6.62162e-05
1.36306e-06
6.56507e-05
1.69584e-06
6.49397e-05
2.0752e-06
6.41512e-05
2.59292e-06
6.29057e-05
3.48839e-06
6.14663e-05
4.34727e-06
5.92671e-05
6.7584e-06
5.62508e-05
8.94387e-06
5.13685e-05
1.46448e-05
4.46483e-05
2.015e-05
3.33277e-05
3.39127e-05
1.97925e-05
4.06638e-05
5.93719e-05
6.81685e-05
8.15787e-08
6.81134e-05
2.2178e-07
6.80275e-05
3.41781e-07
6.79108e-05
4.66752e-07
6.77591e-05
6.05059e-07
6.75678e-05
7.64654e-07
6.73309e-05
9.46365e-07
6.70365e-05
1.17456e-06
6.66713e-05
1.46238e-06
6.62162e-05
1.81735e-06
6.56508e-05
2.2611e-06
6.49374e-05
2.77052e-06
6.41533e-05
3.44791e-06
6.29153e-05
4.66063e-06
6.14703e-05
5.80254e-06
5.92906e-05
8.94221e-06
5.62762e-05
1.19615e-05
5.13835e-05
1.95377e-05
4.4639e-05
2.68946e-05
3.33579e-05
4.51943e-05
1.98267e-05
5.41951e-05
7.91986e-05
6.81685e-05
1.02089e-07
6.81134e-05
2.7733e-07
6.80275e-05
4.27206e-07
6.79107e-05
5.83428e-07
6.77591e-05
7.56299e-07
6.75678e-05
9.55833e-07
6.73307e-05
1.18311e-06
6.70364e-05
1.4681e-06
6.66712e-05
1.82803e-06
6.62161e-05
2.27167e-06
6.56504e-05
2.82667e-06
6.49404e-05
3.46198e-06
6.41489e-05
4.31395e-06
6.29062e-05
5.82199e-06
6.14622e-05
7.2594e-06
5.92954e-05
1.1114e-05
5.62992e-05
1.49615e-05
5.13853e-05
2.44514e-05
4.46579e-05
3.3622e-05
3.34048e-05
5.64479e-05
1.98755e-05
6.77245e-05
9.90742e-05
6.81685e-05
1.22604e-07
6.81134e-05
3.32858e-07
6.80276e-05
5.12588e-07
6.79108e-05
7.00055e-07
6.77591e-05
9.0747e-07
6.75679e-05
1.14694e-06
6.73309e-05
1.41973e-06
6.70365e-05
1.76168e-06
6.66712e-05
2.19379e-06
6.62161e-05
2.726e-06
6.56507e-05
3.39201e-06
6.49372e-05
4.15755e-06
6.41511e-05
5.16884e-06
6.29168e-05
6.99447e-06
6.14669e-05
8.71902e-06
5.92991e-05
1.32858e-05
5.63158e-05
1.79479e-05
5.13976e-05
2.93697e-05
4.46901e-05
4.03297e-05
3.34716e-05
6.7667e-05
1.99413e-05
8.12549e-05
0.000119015
6.81685e-05
1.43115e-07
6.81134e-05
3.88375e-07
6.80276e-05
5.98003e-07
6.79107e-05
8.16739e-07
6.77591e-05
1.05869e-06
6.75678e-05
1.33811e-06
6.73308e-05
1.65648e-06
6.70364e-05
2.05526e-06
6.66711e-05
2.55949e-06
6.6216e-05
3.18036e-06
6.56506e-05
3.95736e-06
6.49415e-05
4.84859e-06
6.41466e-05
6.03776e-06
6.29068e-05
8.15192e-06
6.14596e-05
1.01801e-05
5.92903e-05
1.54599e-05
5.63284e-05
2.0913e-05
5.14196e-05
3.42782e-05
4.47397e-05
4.70095e-05
3.35662e-05
7.88409e-05
2.0027e-05
9.47941e-05
0.000139042
6.81685e-05
1.63632e-07
6.81134e-05
4.43874e-07
6.80276e-05
6.83368e-07
6.79108e-05
9.33358e-07
6.77592e-05
1.20983e-06
6.75679e-05
1.52918e-06
6.7331e-05
1.89308e-06
6.70365e-05
2.34889e-06
6.66712e-05
2.9253e-06
6.62162e-05
3.63465e-06
6.56509e-05
4.52262e-06
6.49368e-05
5.54489e-06
6.41483e-05
6.89185e-06
6.29181e-05
9.32473e-06
6.14575e-05
1.16512e-05
5.92793e-05
1.76423e-05
5.63462e-05
2.38485e-05
5.14715e-05
3.91531e-05
4.48262e-05
5.3655e-05
3.37013e-05
8.99663e-05
2.01369e-05
0.000108359
0.000159179
6.81685e-05
1.84143e-07
6.81134e-05
4.99362e-07
6.80276e-05
7.68772e-07
6.79108e-05
1.05004e-06
6.77591e-05
1.36104e-06
6.75678e-05
1.72034e-06
6.73308e-05
2.12983e-06
6.70364e-05
2.64248e-06
6.66712e-05
3.29104e-06
6.6216e-05
4.08903e-06
6.5651e-05
5.08761e-06
6.49431e-05
6.23551e-06
6.41425e-05
7.76618e-06
6.29022e-05
1.04843e-05
6.14277e-05
1.31374e-05
5.92757e-05
1.97975e-05
5.63542e-05
2.67716e-05
5.15859e-05
4.39211e-05
4.49744e-05
6.02662e-05
3.38903e-05
0.000101051
2.02758e-05
0.000121973
0.000179455
6.81684e-05
2.04661e-07
6.81134e-05
5.54833e-07
6.80276e-05
8.54124e-07
6.79108e-05
1.16665e-06
6.77592e-05
1.51215e-06
6.7568e-05
1.91139e-06
6.73311e-05
2.36641e-06
6.70366e-05
2.93612e-06
6.66713e-05
3.65688e-06
6.62164e-05
4.54316e-06
6.56515e-05
5.65244e-06
6.49355e-05
6.93405e-06
6.41343e-05
8.62701e-06
6.28989e-05
1.16678e-05
6.14043e-05
1.46411e-05
5.93017e-05
2.19029e-05
5.6375e-05
2.96993e-05
5.17699e-05
4.85265e-05
4.51899e-05
6.68464e-05
3.41385e-05
0.000112102
2.04473e-05
0.000135664
0.000199902
6.81684e-05
2.25171e-07
6.81134e-05
6.10291e-07
6.80276e-05
9.39523e-07
6.79108e-05
1.28334e-06
6.77591e-05
1.66333e-06
6.75679e-05
2.10254e-06
6.73309e-05
2.60315e-06
6.70365e-05
3.22971e-06
6.66712e-05
4.02264e-06
6.62162e-05
4.99739e-06
6.56517e-05
6.2169e-06
6.49416e-05
7.62804e-06
6.41291e-05
9.50889e-06
6.28885e-05
1.28434e-05
6.13864e-05
1.61487e-05
5.93375e-05
2.39526e-05
5.64224e-05
3.26148e-05
5.19882e-05
5.29604e-05
4.54447e-05
7.33897e-05
3.44374e-05
0.00012311
2.0653e-05
0.000149449
0.000220555
6.81684e-05
2.45689e-07
6.81134e-05
6.65734e-07
6.80276e-05
1.02487e-06
6.79108e-05
1.39993e-06
6.77592e-05
1.81441e-06
6.75681e-05
2.29355e-06
6.73311e-05
2.8397e-06
6.70368e-05
3.52333e-06
6.66714e-05
4.38853e-06
6.62168e-05
5.45126e-06
6.5653e-05
6.78066e-06
6.493e-05
8.33507e-06
6.41029e-05
1.03841e-05
6.2891e-05
1.40244e-05
6.1381e-05
1.76634e-05
5.93712e-05
2.59636e-05
5.64806e-05
3.55057e-05
5.21891e-05
5.72521e-05
4.57016e-05
7.98774e-05
3.47694e-05
0.000134042
2.08917e-05
0.000163327
0.000241447
6.81684e-05
2.66196e-07
6.81134e-05
7.21164e-07
6.80276e-05
1.11027e-06
6.79108e-05
1.51662e-06
6.77592e-05
1.96557e-06
6.75679e-05
2.48468e-06
6.7331e-05
3.07644e-06
6.70366e-05
3.81689e-06
6.66713e-05
4.75435e-06
6.6217e-05
5.90482e-06
6.56527e-05
7.34488e-06
6.49255e-05
9.04833e-06
6.40751e-05
1.12856e-05
6.28912e-05
1.51811e-05
6.13797e-05
1.91754e-05
5.93966e-05
2.79465e-05
5.65326e-05
3.83698e-05
5.23475e-05
6.14369e-05
4.59381e-05
8.62867e-05
3.51166e-05
0.000144864
2.11596e-05
0.000177284
0.000262607
6.81684e-05
2.86713e-07
6.81134e-05
7.76578e-07
6.80276e-05
1.19561e-06
6.79109e-05
1.6332e-06
6.77593e-05
2.11661e-06
6.75681e-05
2.67567e-06
6.73313e-05
3.31294e-06
6.70369e-05
4.11049e-06
6.66715e-05
5.12027e-06
6.62174e-05
6.35813e-06
6.56524e-05
7.90992e-06
6.49088e-05
9.77954e-06
6.40454e-05
1.21718e-05
6.28885e-05
1.63312e-05
6.13805e-05
2.06854e-05
5.94137e-05
2.99139e-05
5.65727e-05
4.1211e-05
5.2466e-05
6.55438e-05
4.61474e-05
9.26054e-05
3.5466e-05
0.000155545
2.14523e-05
0.000191297
0.000284059
6.81684e-05
3.07217e-07
6.81134e-05
8.31979e-07
6.80276e-05
1.28101e-06
6.79108e-05
1.74989e-06
6.77592e-05
2.26776e-06
6.7568e-05
2.86679e-06
6.73311e-05
3.54965e-06
6.70367e-05
4.40405e-06
6.66714e-05
5.48607e-06
6.62174e-05
6.8114e-06
6.5651e-05
8.47632e-06
6.48992e-05
1.05216e-05
6.40295e-05
1.30612e-05
6.28849e-05
1.74662e-05
6.13817e-05
2.21881e-05
5.94246e-05
3.18707e-05
5.66016e-05
4.4034e-05
5.2555e-05
6.95902e-05
4.63305e-05
9.88296e-05
3.58099e-05
0.000166066
2.17648e-05
0.000205342
0.000305824
6.81684e-05
3.2773e-07
6.81134e-05
8.87364e-07
6.80276e-05
1.36636e-06
6.79109e-05
1.86645e-06
6.77593e-05
2.41877e-06
6.75682e-05
3.05774e-06
6.73314e-05
3.78611e-06
6.7037e-05
4.69767e-06
6.66716e-05
5.85203e-06
6.62173e-05
7.26491e-06
6.56464e-05
9.04729e-06
6.48975e-05
1.12634e-05
6.40184e-05
1.39446e-05
6.28824e-05
1.86023e-05
6.1383e-05
2.36887e-05
5.94314e-05
3.38226e-05
5.66221e-05
4.68435e-05
5.26238e-05
7.35886e-05
4.64911e-05
0.000104962
3.61443e-05
0.000176413
2.2093e-05
0.000219394
0.000327917
6.81684e-05
3.4823e-07
6.81134e-05
9.42736e-07
6.80276e-05
1.45177e-06
6.79108e-05
1.98314e-06
6.77593e-05
2.5699e-06
6.75681e-05
3.24883e-06
6.73312e-05
4.0228e-06
6.70369e-05
4.9912e-06
6.66713e-05
6.21806e-06
6.62178e-05
7.71774e-06
6.56362e-05
9.62886e-06
6.49026e-05
1.19932e-05
6.40113e-05
1.48433e-05
6.28808e-05
1.97282e-05
6.13841e-05
2.51847e-05
5.94356e-05
3.57708e-05
5.66366e-05
4.96425e-05
5.26793e-05
7.75457e-05
4.66334e-05
0.000111008
3.64681e-05
0.000186578
2.24336e-05
0.000233428
0.000350351
6.81684e-05
3.6874e-07
6.81134e-05
9.98092e-07
6.80277e-05
1.53712e-06
6.79109e-05
2.09969e-06
6.77594e-05
2.72087e-06
6.75683e-05
3.43973e-06
6.73315e-05
4.25923e-06
6.70373e-05
5.28471e-06
6.66713e-05
6.58452e-06
6.62188e-05
8.16957e-06
6.56245e-05
1.02231e-05
6.49058e-05
1.27098e-05
6.40066e-05
1.57421e-05
6.28799e-05
2.08565e-05
6.13851e-05
2.66803e-05
5.94381e-05
3.77182e-05
5.6647e-05
5.24336e-05
5.27262e-05
8.14667e-05
4.67616e-05
0.000116973
3.67815e-05
0.000196558
2.27844e-05
0.000247426
0.000373135
6.81684e-05
3.89234e-07
6.81135e-05
1.05343e-06
6.80276e-05
1.62254e-06
6.79109e-05
2.21637e-06
6.77593e-05
2.87198e-06
6.75681e-05
3.63079e-06
6.73313e-05
4.49593e-06
6.70372e-05
5.57807e-06
6.66711e-05
6.95106e-06
6.62192e-05
8.62084e-06
6.56167e-05
1.08256e-05
6.49056e-05
1.34202e-05
6.40039e-05
1.66475e-05
6.28794e-05
2.19779e-05
6.1386e-05
2.81731e-05
5.94396e-05
3.96643e-05
5.66551e-05
5.5218e-05
5.27679e-05
8.53537e-05
4.68794e-05
0.000122861
3.70859e-05
0.000206352
2.31438e-05
0.000261368
0.000396279
6.81684e-05
4.09739e-07
6.81135e-05
1.10876e-06
6.80277e-05
1.70789e-06
6.7911e-05
2.3329e-06
6.77594e-05
3.02292e-06
6.75684e-05
3.82165e-06
6.73316e-05
4.73232e-06
6.70376e-05
5.87144e-06
6.66713e-05
7.31776e-06
6.62158e-05
9.07569e-06
6.56142e-05
1.14272e-05
6.49037e-05
1.41302e-05
6.40022e-05
1.75476e-05
6.28792e-05
2.31027e-05
6.13869e-05
2.9666e-05
5.94406e-05
4.16109e-05
5.66619e-05
5.79969e-05
5.2807e-05
8.92087e-05
4.69899e-05
0.000128679
3.73831e-05
0.000215959
2.35111e-05
0.00027524
0.00041979
6.81684e-05
4.30228e-07
6.81135e-05
1.16407e-06
6.80276e-05
1.79333e-06
6.79109e-05
2.44957e-06
6.77594e-05
3.17401e-06
6.75682e-05
4.01267e-06
6.73314e-05
4.96898e-06
6.70374e-05
6.16474e-06
6.66718e-05
7.68384e-06
6.62066e-05
9.54018e-06
6.56157e-05
1.20181e-05
6.49017e-05
1.48441e-05
6.40013e-05
1.84505e-05
6.28792e-05
2.42224e-05
6.13879e-05
3.11567e-05
5.94417e-05
4.35568e-05
5.66685e-05
6.07701e-05
5.28452e-05
9.30318e-05
4.70958e-05
0.000134428
3.76752e-05
0.000225379
2.38861e-05
0.000289029
0.000443676
6.81684e-05
4.50728e-07
6.81135e-05
1.21937e-06
6.80277e-05
1.87868e-06
6.7911e-05
2.56609e-06
6.77595e-05
3.32492e-06
6.75685e-05
4.20349e-06
6.73319e-05
5.20526e-06
6.70377e-05
6.45823e-06
6.66729e-05
8.0491e-06
6.61954e-05
1.0017e-05
6.56174e-05
1.25961e-05
6.49001e-05
1.55612e-05
6.40009e-05
1.93483e-05
6.28794e-05
2.53456e-05
6.13892e-05
3.26475e-05
5.94433e-05
4.55031e-05
5.66756e-05
6.35378e-05
5.2884e-05
9.68236e-05
4.71993e-05
0.000140113
3.79644e-05
0.000234614
2.42691e-05
0.000302724
0.000467945
6.81684e-05
4.7121e-07
6.81135e-05
1.27465e-06
6.80277e-05
1.96413e-06
6.79109e-05
2.68276e-06
6.77594e-05
3.47598e-06
6.75683e-05
4.39451e-06
6.73316e-05
5.44179e-06
6.70374e-05
6.75177e-06
6.66737e-05
8.4132e-06
6.61867e-05
1.05034e-05
6.56173e-05
1.31655e-05
6.4899e-05
1.62795e-05
6.40008e-05
2.02485e-05
6.28799e-05
2.64643e-05
6.13908e-05
3.4136e-05
5.94457e-05
4.7448e-05
5.6684e-05
6.62994e-05
5.29241e-05
0.000100583
4.73018e-05
0.000145735
3.82532e-05
0.000243663
2.46608e-05
0.000316317
0.000492606
6.81684e-05
4.91704e-07
6.81135e-05
1.32992e-06
6.80277e-05
2.04948e-06
6.7911e-05
2.79925e-06
6.77596e-05
3.62684e-06
6.75686e-05
4.5853e-06
6.73321e-05
5.67791e-06
6.70377e-05
7.04546e-06
6.66746e-05
8.77673e-06
6.61815e-05
1.0996e-05
6.56162e-05
1.37308e-05
6.48983e-05
1.69972e-05
6.4001e-05
2.11444e-05
6.28806e-05
2.75863e-05
6.13929e-05
3.56243e-05
5.94493e-05
4.93919e-05
5.66941e-05
6.90546e-05
5.2966e-05
0.000104312
4.74048e-05
0.000151296
3.8544e-05
0.000252524
2.50623e-05
0.000329798
0.000517668
6.81684e-05
5.12179e-07
6.81135e-05
1.38517e-06
6.80277e-05
2.13494e-06
6.79109e-05
2.91591e-06
6.77595e-05
3.77788e-06
6.75684e-05
4.77628e-06
6.73318e-05
5.91435e-06
6.70376e-05
7.33903e-06
6.66749e-05
9.13983e-06
6.61783e-05
1.14921e-05
6.56149e-05
1.42942e-05
6.4898e-05
1.77142e-05
6.40013e-05
2.20428e-05
6.28816e-05
2.8704e-05
6.13956e-05
3.71098e-05
5.94545e-05
5.13328e-05
5.67064e-05
7.18026e-05
5.30099e-05
0.000108008
4.75091e-05
0.000156797
3.88389e-05
0.000261194
2.54747e-05
0.000343163
0.000543143
6.81684e-05
5.32667e-07
6.81135e-05
1.44041e-06
6.80277e-05
2.2203e-06
6.79111e-05
3.03238e-06
6.77597e-05
3.92871e-06
6.75688e-05
4.96701e-06
6.73323e-05
6.15042e-06
6.70382e-05
7.6325e-06
6.66739e-05
9.50452e-06
6.61771e-05
1.19884e-05
6.56139e-05
1.48574e-05
6.48978e-05
1.84301e-05
6.40019e-05
2.29374e-05
6.28829e-05
2.98246e-05
6.1399e-05
3.85943e-05
5.94613e-05
5.32707e-05
5.67209e-05
7.45431e-05
5.3056e-05
0.000111673
4.76152e-05
0.000162238
3.91404e-05
0.000269669
2.58996e-05
0.000356404
0.000569042
6.81684e-05
5.53135e-07
6.81135e-05
1.49563e-06
6.80277e-05
2.30577e-06
6.7911e-05
3.14903e-06
6.77596e-05
4.07972e-06
6.75685e-05
5.15793e-06
6.7332e-05
6.3869e-06
6.70383e-05
7.92551e-06
6.66683e-05
9.8749e-06
6.61792e-05
1.24772e-05
6.56132e-05
1.54234e-05
6.48979e-05
1.91454e-05
6.40026e-05
2.38344e-05
6.28845e-05
3.09407e-05
6.14031e-05
4.00752e-05
5.94698e-05
5.52037e-05
5.67378e-05
7.7275e-05
5.31041e-05
0.000115307
4.77237e-05
0.000167618
3.94505e-05
0.000277942
2.63384e-05
0.000369516
0.000595381
6.81684e-05
5.73617e-07
6.81135e-05
1.55083e-06
6.80278e-05
2.39114e-06
6.79111e-05
3.26547e-06
6.77597e-05
4.23052e-06
6.75689e-05
5.34855e-06
6.73324e-05
6.62308e-06
6.70392e-05
8.218e-06
6.66603e-05
1.02543e-05
6.61831e-05
1.29542e-05
6.56127e-05
1.59938e-05
6.48981e-05
1.98599e-05
6.40034e-05
2.47278e-05
6.28865e-05
3.20593e-05
6.1408e-05
4.15542e-05
5.94801e-05
5.71319e-05
5.67572e-05
7.9998e-05
5.31544e-05
0.00011891
4.78347e-05
0.000172938
3.9771e-05
0.000286006
2.67928e-05
0.000382494
0.000622174
6.81684e-05
5.94078e-07
6.81135e-05
1.60602e-06
6.80277e-05
2.47661e-06
6.7911e-05
3.3821e-06
6.77596e-05
4.38152e-06
6.75687e-05
5.53935e-06
6.7332e-05
6.85974e-06
6.70396e-05
8.50975e-06
6.66533e-05
1.06409e-05
6.61858e-05
1.34216e-05
6.56124e-05
1.65672e-05
6.48984e-05
2.05739e-05
6.40044e-05
2.56234e-05
6.28887e-05
3.3173e-05
6.14137e-05
4.30287e-05
5.94919e-05
5.90534e-05
5.6779e-05
8.27109e-05
5.32067e-05
0.000122482
4.79482e-05
0.000178196
4.01033e-05
0.000293851
2.72641e-05
0.000395333
0.000649438
6.81684e-05
6.14554e-07
6.81135e-05
1.6612e-06
6.80278e-05
2.56198e-06
6.79112e-05
3.49851e-06
6.77598e-05
4.53229e-06
6.75691e-05
5.72984e-06
6.73324e-05
7.09608e-06
6.70405e-05
8.801e-06
6.66487e-05
1.10331e-05
6.61871e-05
1.38832e-05
6.56124e-05
1.71419e-05
6.48989e-05
2.12873e-05
6.40055e-05
2.65154e-05
6.28913e-05
3.42888e-05
6.142e-05
4.45006e-05
5.95053e-05
6.09684e-05
5.68032e-05
8.5413e-05
5.32613e-05
0.000126024
4.80642e-05
0.000183393
4.04481e-05
0.000301467
2.77536e-05
0.000408028
0.000677191
6.81684e-05
6.35007e-07
6.81135e-05
1.71636e-06
6.80278e-05
2.64747e-06
6.79111e-05
3.61512e-06
6.77597e-05
4.68328e-06
6.75689e-05
5.92053e-06
6.73321e-05
7.33285e-06
6.70407e-05
9.09169e-06
6.66455e-05
1.14288e-05
6.61877e-05
1.43409e-05
6.56125e-05
1.77172e-05
6.48994e-05
2.20004e-05
6.40067e-05
2.74096e-05
6.28942e-05
3.53994e-05
6.14271e-05
4.59672e-05
5.952e-05
6.28752e-05
5.68299e-05
8.81031e-05
5.33182e-05
0.000129535
4.81825e-05
0.000188529
4.08061e-05
0.000308843
2.82622e-05
0.000420572
0.000705454
6.81684e-05
6.55477e-07
6.81135e-05
1.7715e-06
6.80278e-05
2.73283e-06
6.79112e-05
3.73149e-06
6.77599e-05
4.834e-06
6.75693e-05
6.11091e-06
6.73326e-05
7.56923e-06
6.70415e-05
9.38215e-06
6.66436e-05
1.18271e-05
6.61881e-05
1.47963e-05
6.56127e-05
1.82926e-05
6.49e-05
2.2713e-05
6.40081e-05
2.83002e-05
6.28974e-05
3.65117e-05
6.14347e-05
4.74305e-05
5.9536e-05
6.47742e-05
5.6859e-05
9.07803e-05
5.33775e-05
0.000133017
4.8303e-05
0.000193603
4.11771e-05
0.000315969
2.87906e-05
0.000432958
0.000734244
6.81684e-05
6.75924e-07
6.81135e-05
1.82663e-06
6.80278e-05
2.81832e-06
6.79111e-05
3.84808e-06
6.77598e-05
4.98496e-06
6.75691e-05
6.30153e-06
6.73323e-05
7.80596e-06
6.70415e-05
9.67235e-06
6.66421e-05
1.22267e-05
6.61884e-05
1.52501e-05
6.5613e-05
1.8868e-05
6.49007e-05
2.34254e-05
6.40096e-05
2.91928e-05
6.29009e-05
3.76184e-05
6.14429e-05
4.88879e-05
5.95533e-05
6.66635e-05
5.68906e-05
9.34429e-05
5.34393e-05
0.000136468
4.84257e-05
0.000198617
4.15609e-05
0.000322834
2.9339e-05
0.00044518
0.000763583
6.81684e-05
6.96387e-07
6.81135e-05
1.88174e-06
6.80278e-05
2.90369e-06
6.79113e-05
3.96442e-06
6.776e-05
5.13564e-06
6.75695e-05
6.49184e-06
6.73329e-05
8.04218e-06
6.70421e-05
9.96259e-06
6.66414e-05
1.26277e-05
6.61887e-05
1.57029e-05
6.56134e-05
1.94433e-05
6.49014e-05
2.41373e-05
6.40111e-05
3.00818e-05
6.29046e-05
3.87266e-05
6.14516e-05
5.03415e-05
5.95718e-05
6.85436e-05
5.69246e-05
9.60902e-05
5.35038e-05
0.000139889
4.85507e-05
0.00020357
4.1957e-05
0.000329428
2.99077e-05
0.000457229
0.000793491
6.81684e-05
7.16828e-07
6.81135e-05
1.93685e-06
6.80278e-05
2.98918e-06
6.79112e-05
4.08099e-06
6.77599e-05
5.28655e-06
6.75692e-05
6.68242e-06
6.73327e-05
8.27868e-06
6.70418e-05
1.02529e-05
6.66406e-05
1.30292e-05
6.6189e-05
1.61545e-05
6.56139e-05
2.00185e-05
6.49021e-05
2.4849e-05
6.40127e-05
3.09726e-05
6.29085e-05
3.98289e-05
6.14607e-05
5.17887e-05
5.95913e-05
7.04127e-05
5.6961e-05
9.87205e-05
5.35712e-05
0.000143279
4.86782e-05
0.000208463
4.23651e-05
0.000335741
3.04968e-05
0.000469098
0.000823988
6.81684e-05
7.37285e-07
6.81135e-05
1.99193e-06
6.80279e-05
3.07453e-06
6.79114e-05
4.1973e-06
6.77602e-05
5.43716e-06
6.75697e-05
6.87271e-06
6.73335e-05
8.51454e-06
6.70419e-05
1.05438e-05
6.66404e-05
1.3431e-05
6.61894e-05
1.66054e-05
6.56144e-05
2.05935e-05
6.4903e-05
2.55604e-05
6.40145e-05
3.18599e-05
6.29125e-05
4.09325e-05
6.14702e-05
5.32317e-05
5.96119e-05
7.22713e-05
5.69999e-05
0.000101333
5.36417e-05
0.000146637
4.88086e-05
0.000213296
4.27852e-05
0.000341765
3.11064e-05
0.000480776
0.000855094
6.81684e-05
7.5772e-07
6.81136e-05
2.04701e-06
6.80278e-05
3.16002e-06
6.79112e-05
4.31385e-06
6.776e-05
5.588e-06
6.75693e-05
7.06333e-06
6.73334e-05
8.75045e-06
6.70377e-05
1.08389e-05
6.66419e-05
1.3827e-05
6.61899e-05
1.70575e-05
6.5615e-05
2.11685e-05
6.49038e-05
2.62716e-05
6.40162e-05
3.27488e-05
6.29168e-05
4.20299e-05
6.14801e-05
5.46677e-05
5.96335e-05
7.41176e-05
5.7041e-05
0.000103925
5.37155e-05
0.000149962
4.89425e-05
0.000218069
4.32174e-05
0.00034749
3.17369e-05
0.000492257
0.000886831
6.81684e-05
7.78172e-07
6.81136e-05
2.10206e-06
6.80279e-05
3.24536e-06
6.79114e-05
4.43014e-06
6.77603e-05
5.73847e-06
6.75696e-05
7.25383e-06
6.73348e-05
8.98491e-06
6.70242e-05
1.11489e-05
6.66483e-05
1.42029e-05
6.61904e-05
1.75155e-05
6.56156e-05
2.17432e-05
6.49047e-05
2.69824e-05
6.4018e-05
3.36343e-05
6.29212e-05
4.31285e-05
6.14904e-05
5.60991e-05
5.96561e-05
7.59522e-05
5.70845e-05
0.000106497
5.37929e-05
0.000153254
4.90802e-05
0.000222782
4.36621e-05
0.000352908
3.23889e-05
0.00050353
0.00091922
6.81684e-05
7.986e-07
6.81136e-05
2.15711e-06
6.80279e-05
3.33083e-06
6.79113e-05
4.54669e-06
6.77602e-05
5.88915e-06
6.75692e-05
7.44478e-06
6.73351e-05
9.21905e-06
6.70159e-05
1.14676e-05
6.66515e-05
1.45673e-05
6.61909e-05
1.79761e-05
6.56162e-05
2.23179e-05
6.49056e-05
2.76931e-05
6.40199e-05
3.45213e-05
6.29257e-05
4.42207e-05
6.15009e-05
5.75232e-05
5.96795e-05
7.77733e-05
5.71301e-05
0.000109046
5.3874e-05
0.00015651
4.92221e-05
0.000227433
4.41198e-05
0.00035801
3.3063e-05
0.000514587
0.000952283
6.81684e-05
8.19046e-07
6.81136e-05
2.21213e-06
6.8028e-05
3.41616e-06
6.79115e-05
4.66296e-06
6.77605e-05
6.0395e-06
6.75697e-05
7.63541e-06
6.73359e-05
9.4525e-06
6.70134e-05
1.17896e-05
6.66518e-05
1.49288e-05
6.61914e-05
1.84365e-05
6.56169e-05
2.28923e-05
6.49065e-05
2.84034e-05
6.40218e-05
3.54048e-05
6.29303e-05
4.53141e-05
6.15118e-05
5.89424e-05
5.97037e-05
7.95818e-05
5.71777e-05
0.000111572
5.39594e-05
0.000159729
4.93682e-05
0.000232025
4.45904e-05
0.000362788
3.37597e-05
0.000525417
0.000986043
6.81684e-05
8.39471e-07
6.81136e-05
2.26715e-06
6.80279e-05
3.50161e-06
6.79114e-05
4.77946e-06
6.77603e-05
6.19016e-06
6.75696e-05
7.82607e-06
6.73336e-05
9.6885e-06
6.7012e-05
1.21109e-05
6.66517e-05
1.52891e-05
6.61918e-05
1.88964e-05
6.56175e-05
2.34667e-05
6.49074e-05
2.91136e-05
6.40237e-05
3.62902e-05
6.2935e-05
4.64005e-05
6.15229e-05
6.03535e-05
5.97287e-05
8.13757e-05
5.72272e-05
0.000114073
5.40491e-05
0.000162906
4.95183e-05
0.000236555
4.50725e-05
0.000367234
3.44784e-05
0.000536012
0.00102052
6.81684e-05
8.59912e-07
6.81136e-05
2.32214e-06
6.8028e-05
3.58696e-06
6.79116e-05
4.89561e-06
6.77603e-05
6.34089e-06
6.75713e-05
8.01488e-06
6.73197e-05
9.93981e-06
6.70137e-05
1.24167e-05
6.66516e-05
1.56513e-05
6.61923e-05
1.93557e-05
6.56181e-05
2.40408e-05
6.49083e-05
2.98234e-05
6.40256e-05
3.71715e-05
6.29397e-05
4.74885e-05
6.15343e-05
6.17597e-05
5.97543e-05
8.31561e-05
5.72783e-05
0.00011655
5.41437e-05
0.000166041
4.96721e-05
0.000241027
4.55616e-05
0.000371344
3.52159e-05
0.000546357
0.00105574
6.81684e-05
8.8033e-07
6.81136e-05
2.37711e-06
6.80279e-05
3.67246e-06
6.79116e-05
5.01193e-06
6.77599e-05
6.49219e-06
6.7572e-05
8.20271e-06
6.73099e-05
1.0202e-05
6.70148e-05
1.27118e-05
6.66514e-05
1.60146e-05
6.61926e-05
1.98145e-05
6.56187e-05
2.46147e-05
6.49091e-05
3.0533e-05
6.40274e-05
3.80549e-05
6.29445e-05
4.8569e-05
6.15459e-05
6.31574e-05
5.97805e-05
8.49211e-05
5.73308e-05
0.000118999
5.42434e-05
0.000169128
4.98291e-05
0.000245441
4.60484e-05
0.000375125
3.59647e-05
0.000556441
0.0010917
6.81683e-05
9.00714e-07
6.81136e-05
2.43202e-06
6.8028e-05
3.75777e-06
6.79118e-05
5.12789e-06
6.77602e-05
6.64317e-06
6.75729e-05
8.38978e-06
6.73075e-05
1.04671e-05
6.70145e-05
1.30048e-05
6.66512e-05
1.63779e-05
6.61929e-05
2.02728e-05
6.56193e-05
2.51883e-05
6.491e-05
3.12422e-05
6.40293e-05
3.89341e-05
6.29493e-05
4.9651e-05
6.15576e-05
6.455e-05
5.98071e-05
8.6672e-05
5.73842e-05
0.000121422
5.43493e-05
0.000172163
4.99886e-05
0.000249802
4.65296e-05
0.000378584
3.68041e-05
0.000566166
0.00112851
8.87153e-07
-8.87149e-07
-1.31637e-06
2.20353e-06
-2.19037e-06
8.74001e-07
-2.31641e-06
1.2608e-07
-1.94848e-06
-3.67887e-07
-1.43978e-06
-5.08556e-07
-1.19613e-06
-2.43497e-07
-1.14331e-06
-5.26109e-08
-1.18977e-06
4.7573e-08
-1.24171e-06
5.35574e-08
-1.40177e-06
1.77541e-07
-1.43007e-06
6.70532e-09
-1.24802e-06
-1.86888e-07
-6.664e-07
-5.8061e-07
3.0007e-07
-9.61288e-07
1.52893e-06
-1.22388e-06
2.99127e-06
-1.46251e-06
4.97424e-06
-1.9843e-06
7.62181e-06
-2.65389e-06
1.08518e-05
-3.22697e-06
1.43923e-05
-3.53962e-06
1.79133e-05
-3.5215e-06
2.12546e-05
-3.34007e-06
2.44092e-05
-3.15553e-06
2.74197e-05
-3.01158e-06
3.03386e-05
-2.91794e-06
3.31972e-05
-2.85707e-06
3.6001e-05
-2.80488e-06
3.87534e-05
-2.75534e-06
4.15441e-05
-2.79038e-06
4.41267e-05
-2.58377e-06
4.5819e-05
-1.69067e-06
5.23914e-05
-6.57459e-06
6.31636e-05
-1.07701e-05
-4.60128e-06
9.11956e-07
-1.7991e-06
-1.29001e-06
4.40551e-06
-2.1504e-06
1.73439e-06
-2.28227e-06
2.58037e-07
-1.90697e-06
-7.43105e-07
-1.41168e-06
-1.00355e-06
-1.16675e-06
-4.88137e-07
-1.12278e-06
-9.61766e-08
-1.17241e-06
9.92826e-08
-1.2269e-06
1.11175e-07
-1.36947e-06
3.48549e-07
-1.38047e-06
-1.86519e-08
-1.21251e-06
-3.64298e-07
-6.83854e-07
-1.1074e-06
2.55488e-07
-1.8903e-06
1.52363e-06
-2.48181e-06
3.03739e-06
-2.97655e-06
5.01941e-06
-3.96905e-06
7.61758e-06
-5.26449e-06
1.08005e-05
-6.40419e-06
1.43303e-05
-7.06751e-06
1.78829e-05
-7.07501e-06
2.12527e-05
-6.70753e-06
2.44163e-05
-6.3209e-06
2.74229e-05
-6.02018e-06
3.03324e-05
-5.82564e-06
3.31814e-05
-5.70313e-06
3.59799e-05
-5.6054e-06
3.87309e-05
-5.5119e-06
4.15178e-05
-5.57679e-06
4.41181e-05
-5.18618e-06
4.58054e-05
-3.37476e-06
5.21578e-05
-1.29312e-05
6.29144e-05
-2.15227e-05
-9.41461e-06
9.36647e-07
-2.73574e-06
-1.25813e-06
6.60029e-06
-2.10683e-06
2.5831e-06
-2.22665e-06
3.77944e-07
-1.8509e-06
-1.11878e-06
-1.36227e-06
-1.49192e-06
-1.12399e-06
-7.26164e-07
-1.0852e-06
-1.34617e-07
-1.13834e-06
1.54327e-07
-1.18998e-06
1.65631e-07
-1.31606e-06
5.03406e-07
-1.31798e-06
-5.43845e-08
-1.18726e-06
-5.04435e-07
-7.12757e-07
-1.57983e-06
2.2386e-07
-2.81648e-06
1.54882e-06
-3.7961e-06
3.11154e-06
-4.53968e-06
5.08076e-06
-5.94111e-06
7.62325e-06
-7.81986e-06
1.07674e-05
-9.54248e-06
1.43025e-05
-1.06009e-05
1.78881e-05
-1.06616e-05
2.12879e-05
-1.01049e-05
2.44608e-05
-9.49563e-06
2.74619e-05
-9.02337e-06
3.03613e-05
-8.72314e-06
3.31991e-05
-8.53804e-06
3.59896e-05
-8.39786e-06
3.87356e-05
-8.26363e-06
4.15167e-05
-8.35727e-06
4.41308e-05
-7.80246e-06
4.58159e-05
-5.0567e-06
5.19544e-05
-1.90738e-05
6.26832e-05
-3.22475e-05
-1.44225e-05
9.64446e-07
-3.70018e-06
-1.22324e-06
8.78799e-06
-2.0545e-06
3.41437e-06
-2.1545e-06
4.78039e-07
-1.77553e-06
-1.49768e-06
-1.29502e-06
-1.97215e-06
-1.06523e-06
-9.55683e-07
-1.03144e-06
-1.68011e-07
-1.08693e-06
2.11781e-07
-1.13657e-06
2.18316e-07
-1.24763e-06
6.39436e-07
-1.24378e-06
-9.328e-08
-1.15388e-06
-6.05107e-07
-7.31354e-07
-2.00019e-06
2.08567e-07
-3.74406e-06
1.59602e-06
-5.17004e-06
3.21121e-06
-6.15523e-06
5.16649e-06
-7.90016e-06
7.6523e-06
-1.03213e-05
1.07623e-05
-1.26457e-05
1.43091e-05
-1.41457e-05
1.79319e-05
-1.42855e-05
2.13633e-05
-1.35336e-05
2.45462e-05
-1.26806e-05
2.75413e-05
-1.20208e-05
3.04286e-05
-1.16084e-05
3.32526e-05
-1.13588e-05
3.60316e-05
-1.11791e-05
3.87697e-05
-1.10077e-05
4.15422e-05
-1.11291e-05
4.41662e-05
-1.04288e-05
4.58508e-05
-6.73785e-06
5.17808e-05
-2.50081e-05
6.24683e-05
-4.29307e-05
-1.96091e-05
9.95333e-07
-4.6955e-06
-1.18531e-06
1.09686e-05
-1.99279e-06
4.22185e-06
-2.06587e-06
5.51203e-07
-1.68157e-06
-1.88191e-06
-1.211e-06
-2.44245e-06
-9.9148e-07
-1.17498e-06
-9.62321e-07
-1.96842e-07
-1.01933e-06
2.70517e-07
-1.06659e-06
2.68263e-07
-1.16175e-06
7.57211e-07
-1.15458e-06
-1.34007e-07
-1.10917e-06
-6.60882e-07
-7.36527e-07
-2.37038e-06
2.13893e-07
-4.68269e-06
1.6726e-06
-6.61497e-06
3.34766e-06
-7.83088e-06
5.28886e-06
-9.84549e-06
7.71442e-06
-1.27643e-05
1.07922e-05
-1.5716e-05
1.43562e-05
-1.77078e-05
1.8021e-05
-1.79515e-05
2.1487e-05
-1.69968e-05
2.46805e-05
-1.58763e-05
2.76683e-05
-1.50109e-05
3.05407e-05
-1.44787e-05
3.33469e-05
-1.41617e-05
3.61103e-05
-1.39448e-05
3.88367e-05
-1.37403e-05
4.1597e-05
-1.38887e-05
4.42266e-05
-1.30608e-05
4.59117e-05
-8.41941e-06
5.16368e-05
-3.07376e-05
6.22685e-05
-5.35579e-05
-2.49598e-05
1.02921e-06
-5.72471e-06
-1.14421e-06
1.31421e-05
-1.9208e-06
4.99844e-06
-1.96032e-06
5.90824e-07
-1.56907e-06
-2.27308e-06
-1.11056e-06
-2.90067e-06
-9.02922e-07
-1.38236e-06
-8.77924e-07
-2.21434e-07
-9.35936e-07
3.30432e-07
-9.7984e-07
3.15245e-07
-1.05696e-06
8.54233e-07
-1.04818e-06
-1.74961e-07
-1.05018e-06
-6.71046e-07
-7.24751e-07
-2.69331e-06
2.439e-07
-5.63727e-06
1.78531e-06
-8.139e-06
3.53257e-06
-9.57869e-06
5.46298e-06
-1.17817e-05
7.82361e-06
-1.51473e-05
1.08685e-05
-1.87519e-05
1.44541e-05
-2.12908e-05
1.8167e-05
-2.16658e-05
2.1672e-05
-2.04984e-05
2.48772e-05
-1.90842e-05
2.78548e-05
-1.79914e-05
3.07074e-05
-1.73288e-05
3.34902e-05
-1.69407e-05
3.62322e-05
-1.66896e-05
3.89419e-05
-1.64569e-05
4.16855e-05
-1.66316e-05
4.43153e-05
-1.56931e-05
4.60014e-05
-1.01016e-05
5.15232e-05
-3.6264e-05
6.20831e-05
-6.41131e-05
-3.04606e-05
1.06585e-06
-6.79056e-06
-1.09971e-06
1.53076e-05
-1.83724e-06
5.73598e-06
-1.83659e-06
5.90269e-07
-1.43728e-06
-2.67233e-06
-9.93103e-07
-3.34458e-06
-7.98839e-07
-1.57642e-06
-7.77446e-07
-2.42493e-07
-8.36077e-07
3.90731e-07
-8.75407e-07
3.57341e-07
-9.31768e-07
9.27061e-07
-9.22315e-07
-2.13596e-07
-9.73497e-07
-6.31273e-07
-6.92785e-07
-2.97119e-06
3.01067e-07
-6.61822e-06
1.93876e-06
-9.75979e-06
3.77687e-06
-1.14176e-05
5.70637e-06
-1.37176e-05
7.99866e-06
-1.74649e-05
1.10076e-05
-2.17506e-05
1.46183e-05
-2.48991e-05
1.83876e-05
-2.54367e-05
2.19389e-05
-2.40461e-05
2.51573e-05
-2.23057e-05
2.812e-05
-2.09572e-05
3.09445e-05
-2.01503e-05
3.36947e-05
-1.96868e-05
3.64072e-05
-1.94051e-05
3.90935e-05
-1.91506e-05
4.18145e-05
-1.93518e-05
4.44373e-05
-1.83186e-05
4.61241e-05
-1.17842e-05
5.14418e-05
-4.15867e-05
6.19119e-05
-7.45783e-05
-3.60976e-05
1.10485e-06
-7.8954e-06
-1.0514e-06
1.74639e-05
-1.7405e-06
6.42509e-06
-1.69284e-06
5.42729e-07
-1.28498e-06
-3.08012e-06
-8.57395e-07
-3.77186e-06
-6.7783e-07
-1.75572e-06
-6.59342e-07
-2.60541e-07
-7.18051e-07
4.51384e-07
-7.51267e-07
3.93872e-07
-7.83685e-07
9.7464e-07
-7.73499e-07
-2.53338e-07
-8.74647e-07
-5.43979e-07
-6.37009e-07
-3.2059e-06
3.87773e-07
-7.62688e-06
2.13697e-06
-1.14876e-05
4.09152e-06
-1.3373e-05
6.03947e-06
-1.56744e-05
8.2639e-06
-1.97226e-05
1.12325e-05
-2.47065e-05
1.48714e-05
-2.85347e-05
1.87085e-05