/*--------------------------------*- C++ -*----------------------------------*\
| =========                 |                                                 |
| \\      /  F ield         | OpenFOAM: The Open Source CFD Toolbox           |
|  \\    /   O peration     | Version:  v1912                                 |
|   \\  /    A nd           | Website:  www.openfoam.com                      |
|    \\/     M anipulation  |                                                 |
\*---------------------------------------------------------------------------*/
FoamFile
{
    version     2.0;
    format      ascii;
    class       volVectorField;
    location    "560";
    object      U;
}
// * * * * * * * * * * * * * * * * * * * * * * * * * * * * * * * * * * * * * //

dimensions      [0 1 -1 0 0 0 0];


internalField   nonuniform List<vector> 
12441
(
(29.9988 1.72056e-05 0)
(29.9853 5.22743e-05 0)
(29.9556 9.0993e-05 0)
(29.9107 0.000139671 0)
(29.8518 0.00020342 0)
(29.777 0.000288858 0)
(29.6839 0.000400514 0)
(29.5688 0.000561089 0)
(29.425 0.000783574 0)
(29.2478 0.0010951 0)
(29.0275 0.00152989 0)
(28.7379 0.0020959 0)
(28.4401 0.00298669 0)
(27.9687 0.00444008 0)
(27.4094 0.00621751 0)
(26.6323 0.0112252 0)
(25.5887 0.0151594 0)
(23.9126 0.031713 0)
(21.5475 0.0531179 0)
(17.8439 0.0914354 0)
(12.0607 0.121902 0)
(5.78262 0.195724 0)
(29.9988 5.11072e-05 0)
(29.9852 0.000156029 0)
(29.9556 0.00027129 0)
(29.9107 0.000416622 0)
(29.8518 0.000607154 0)
(29.777 0.000861996 0)
(29.6839 0.00119906 0)
(29.5688 0.0016749 0)
(29.425 0.00234231 0)
(29.248 0.00327507 0)
(29.0284 0.00458111 0)
(28.7346 0.00628012 0)
(28.4438 0.00890637 0)
(27.9735 0.0133437 0)
(27.4109 0.018702 0)
(26.6349 0.033412 0)
(25.5923 0.0481006 0)
(23.9139 0.09104 0)
(21.5474 0.138784 0)
(17.8419 0.264579 0)
(12.0617 0.358164 0)
(5.78646 0.584576 0)
(29.9988 8.48614e-05 0)
(29.9852 0.000259704 0)
(29.9556 0.000450865 0)
(29.9107 0.000692443 0)
(29.8518 0.0010094 0)
(29.777 0.00143431 0)
(29.6839 0.00199581 0)
(29.5688 0.00278682 0)
(29.4249 0.00390053 0)
(29.248 0.00545172 0)
(29.0284 0.00762636 0)
(28.7344 0.0104941 0)
(28.4458 0.0147523 0)
(27.9693 0.0222934 0)
(27.4076 0.0312379 0)
(26.6327 0.0547476 0)
(25.5926 0.0817421 0)
(23.9183 0.1486 0)
(21.5509 0.221959 0)
(17.8419 0.43538 0)
(12.0679 0.590932 0)
(5.79479 0.971509 0)
(29.9988 0.000119041 0)
(29.9852 0.000364131 0)
(29.9556 0.000631358 0)
(29.9107 0.000969579 0)
(29.8518 0.00141341 0)
(29.7771 0.00200863 0)
(29.6839 0.00279543 0)
(29.5689 0.00390179 0)
(29.425 0.00546231 0)
(29.248 0.00763386 0)
(29.0284 0.0106804 0)
(28.7347 0.014708 0)
(28.4435 0.0206166 0)
(27.9742 0.031276 0)
(27.412 0.0437934 0)
(26.6357 0.0761321 0)
(25.5957 0.114638 0)
(23.9235 0.209127 0)
(21.5596 0.329862 0)
(17.8467 0.614227 0)
(12.0804 0.827663 0)
(5.80784 1.36009 0)
(29.9988 0.000153285 0)
(29.9852 0.000468449 0)
(29.9556 0.000811655 0)
(29.9107 0.00124648 0)
(29.8518 0.00181706 0)
(29.7771 0.00258241 0)
(29.6839 0.00359437 0)
(29.5688 0.00501604 0)
(29.425 0.00702331 0)
(29.248 0.00981493 0)
(29.0284 0.0137329 0)
(28.7347 0.0189176 0)
(28.4459 0.0264939 0)
(27.9696 0.0402286 0)
(27.4093 0.0563645 0)
(26.6347 0.0972859 0)
(25.5972 0.147055 0)
(23.9278 0.270416 0)
(21.5706 0.420603 0)
(17.8572 0.789262 0)
(12.1007 1.06419 0)
(5.82591 1.74995 0)
(29.9988 0.000187529 0)
(29.9852 0.000572704 0)
(29.9556 0.000991928 0)
(29.9107 0.00152339 0)
(29.8519 0.00222071 0)
(29.7771 0.00315623 0)
(29.684 0.00439341 0)
(29.5689 0.00613057 0)
(29.4251 0.00858468 0)
(29.2481 0.0119961 0)
(29.0285 0.016786 0)
(28.7352 0.0231286 0)
(28.4428 0.0323655 0)
(27.9752 0.0491952 0)
(27.4138 0.0689433 0)
(26.6377 0.118336 0)
(25.6008 0.179205 0)
(23.9324 0.331176 0)
(21.5836 0.509792 0)
(17.8745 0.96298 0)
(12.1304 1.30042 0)
(5.8494 2.14092 0)
(29.9988 0.000221771 0)
(29.9852 0.000676927 0)
(29.9556 0.0011722 0)
(29.9107 0.00180032 0)
(29.8519 0.00262435 0)
(29.7771 0.00373005 0)
(29.684 0.00519247 0)
(29.5689 0.00724518 0)
(29.425 0.0101461 0)
(29.2481 0.0141777 0)
(29.0284 0.0198382 0)
(28.7354 0.0273383 0)
(28.4461 0.0382555 0)
(27.9696 0.0581045 0)
(27.4114 0.0815065 0)
(26.6374 0.139241 0)
(25.6032 0.210644 0)
(23.9364 0.389364 0)
(21.6012 0.601105 0)
(17.9021 1.13679 0)
(12.1722 1.53676 0)
(5.87884 2.5333 0)
(29.9988 0.000256013 0)
(29.9852 0.000781125 0)
(29.9556 0.00135245 0)
(29.9107 0.00207724 0)
(29.8519 0.00302794 0)
(29.7771 0.00430382 0)
(29.6841 0.00599148 0)
(29.569 0.00835982 0)
(29.4251 0.0117077 0)
(29.2482 0.0163588 0)
(29.0286 0.0228908 0)
(28.7358 0.0315487 0)
(28.4418 0.0441303 0)
(27.9761 0.0670287 0)
(27.4167 0.0939223 0)
(26.6403 0.159769 0)
(25.6088 0.243635 0)
(23.9423 0.449433 0)
(21.6336 0.693446 0)
(17.9476 1.3101 0)
(12.2295 1.77343 0)
(5.91483 2.92758 0)
(29.9988 0.000290256 0)
(29.9852 0.000885295 0)
(29.9556 0.0015327 0)
(29.9107 0.00235416 0)
(29.8519 0.0034315 0)
(29.7771 0.00487757 0)
(29.684 0.00679051 0)
(29.5689 0.00947452 0)
(29.4251 0.0132693 0)
(29.2482 0.0185403 0)
(29.0286 0.0259418 0)
(28.7363 0.0357613 0)
(28.4466 0.0500272 0)
(27.9699 0.0760017 0)
(27.414 0.1064 0)
(26.6385 0.180629 0)
(25.6164 0.275039 0)
(23.9547 0.508843 0)
(21.6945 0.785451 0)
(18.0198 1.48261 0)
(12.306 2.01074 0)
(5.95805 3.32428 0)
(29.9988 0.0003245 0)
(29.9852 0.000989439 0)
(29.9556 0.00171293 0)
(29.9107 0.00263106 0)
(29.8519 0.00383503 0)
(29.7772 0.00545128 0)
(29.6841 0.00758949 0)
(29.569 0.0105892 0)
(29.4252 0.014831 0)
(29.2483 0.0207211 0)
(29.0289 0.0289916 0)
(28.7367 0.0399763 0)
(28.4399 0.0559187 0)
(27.9747 0.0847962 0)
(27.4191 0.119535 0)
(26.6379 0.201856 0)
(25.6314 0.307086 0)
(23.9858 0.56631 0)
(21.7867 0.877223 0)
(18.122 1.65471 0)
(12.4045 2.24916 0)
(6.0092 3.72403 0)
(29.9988 0.000358743 0)
(29.9852 0.00109355 0)
(29.9556 0.00189315 0)
(29.9107 0.00290797 0)
(29.8519 0.00423852 0)
(29.7771 0.00602497 0)
(29.684 0.00838845 0)
(29.569 0.0117039 0)
(29.4252 0.0163927 0)
(29.2483 0.0229021 0)
(29.0288 0.0320404 0)
(28.7373 0.0441967 0)
(28.445 0.0618674 0)
(27.9757 0.0935179 0)
(27.42 0.131998 0)
(26.6372 0.222063 0)
(25.6519 0.340018 0)
(24.0359 0.622865 0)
(21.8924 0.968827 0)
(18.2469 1.82643 0)
(12.5256 2.48908 0)
(6.06897 4.12746 0)
(29.9988 0.000392986 0)
(29.9852 0.00119765 0)
(29.9556 0.00207337 0)
(29.9107 0.00318487 0)
(29.8519 0.00464198 0)
(29.7772 0.0065986 0)
(29.6842 0.00918737 0)
(29.5691 0.0128186 0)
(29.4254 0.0179546 0)
(29.2484 0.0250816 0)
(29.0293 0.0350894 0)
(28.7383 0.0484226 0)
(28.436 0.0677302 0)
(27.9786 0.102568 0)
(27.4194 0.145576 0)
(26.6387 0.242488 0)
(25.6716 0.372456 0)
(24.089 0.677464 0)
(21.9901 1.0594 0)
(18.3817 1.9972 0)
(12.6672 2.73066 0)
(6.13791 4.53526 0)
(29.9988 0.000427227 0)
(29.9852 0.00130171 0)
(29.9556 0.00225359 0)
(29.9107 0.00346176 0)
(29.8519 0.0050454 0)
(29.7772 0.00717223 0)
(29.6841 0.00998626 0)
(29.5691 0.0139332 0)
(29.4254 0.0195165 0)
(29.2484 0.0272602 0)
(29.0295 0.0381299 0)
(28.7391 0.052754 0)
(28.4343 0.0735249 0)
(27.9735 0.111836 0)
(27.4163 0.159305 0)
(26.6416 0.262305 0)
(25.6866 0.404153 0)
(24.1326 0.729957 0)
(22.0704 1.14851 0)
(18.5145 2.16633 0)
(12.8257 2.97378 0)
(6.21634 4.94805 0)
(29.9988 0.000461467 0)
(29.9852 0.00140575 0)
(29.9556 0.0024338 0)
(29.9107 0.00373863 0)
(29.852 0.00544879 0)
(29.7772 0.00774579 0)
(29.6842 0.0107851 0)
(29.5692 0.0150478 0)
(29.4255 0.0210785 0)
(29.2485 0.0294386 0)
(29.0299 0.0411814 0)
(28.7416 0.0571271 0)
(28.4224 0.0797432 0)
(27.966 0.121137 0)
(27.4141 0.172498 0)
(26.6445 0.281451 0)
(25.6967 0.43523 0)
(24.1645 0.780842 0)
(22.134 1.23616 0)
(18.6385 2.33333 0)
(12.9964 3.2181 0)
(6.30427 5.36635 0)
(29.9988 0.000495704 0)
(29.9852 0.00150975 0)
(29.9556 0.00261402 0)
(29.9107 0.00401551 0)
(29.8519 0.00585214 0)
(29.7772 0.00831934 0)
(29.6841 0.0115839 0)
(29.5692 0.0161623 0)
(29.4255 0.0226408 0)
(29.2485 0.0316138 0)
(29.0299 0.044243 0)
(28.745 0.0614243 0)
(28.4138 0.0859954 0)
(27.9603 0.130047 0)
(27.413 0.18547 0)
(26.6469 0.300369 0)
(25.703 0.465989 0)
(24.187 0.83065 0)
(22.1846 1.32246 0)
(18.751 2.49791 0)
(13.1751 3.46319 0)
(6.40144 5.79062 0)
(29.9988 0.000529938 0)
(29.9852 0.00161374 0)
(29.9556 0.00279424 0)
(29.9108 0.00429237 0)
(29.852 0.00625545 0)
(29.7773 0.00889284 0)
(29.6843 0.0123826 0)
(29.5693 0.017277 0)
(29.4256 0.0242022 0)
(29.2486 0.0337939 0)
(29.0298 0.0472993 0)
(28.7489 0.0658615 0)
(28.4059 0.0922598 0)
(27.9572 0.138739 0)
(27.4124 0.198332 0)
(26.6487 0.31923 0)
(25.7068 0.496585 0)
(24.2029 0.879741 0)
(22.2259 1.40751 0)
(18.8516 2.65986 0)
(13.3583 3.7086 0)
(6.50741 6.22119 0)
(29.9988 0.000564169 0)
(29.9852 0.00171769 0)
(29.9556 0.00297447 0)
(29.9107 0.00456923 0)
(29.8519 0.00665874 0)
(29.7773 0.00946631 0)
(29.6842 0.0131812 0)
(29.5692 0.0183916 0)
(29.4256 0.0257647 0)
(29.2485 0.0359692 0)
(29.0304 0.0504158 0)
(28.7507 0.0703822 0)
(28.4007 0.0984546 0)
(27.9554 0.147352 0)
(27.4121 0.211183 0)
(26.65 0.338079 0)
(25.7089 0.527071 0)
(24.2144 0.928305 0)
(22.2609 1.49141 0)
(18.9418 2.81907 0)
(13.5435 3.95391 0)
(6.62165 6.65835 0)
(29.9988 0.000598396 0)
(29.9852 0.00182162 0)
(29.9557 0.00315471 0)
(29.9108 0.00484606 0)
(29.852 0.00706199 0)
(29.7773 0.0100397 0)
(29.6844 0.0139799 0)
(29.5694 0.0195059 0)
(29.4258 0.0273287 0)
(29.2483 0.0381355 0)
(29.0314 0.053558 0)
(28.7493 0.0749729 0)
(28.3972 0.104584 0)
(27.9545 0.155945 0)
(27.4119 0.22404 0)
(26.6511 0.356929 0)
(25.7099 0.557477 0)
(24.2229 0.976453 0)
(22.2918 1.57424 0)
(19.0231 2.97547 0)
(13.7292 4.19874 0)
(6.74359 7.10231 0)
(29.9988 0.000632619 0)
(29.9853 0.00192552 0)
(29.9557 0.00333495 0)
(29.9108 0.0051229 0)
(29.852 0.0074652 0)
(29.7773 0.010613 0)
(29.6843 0.0147785 0)
(29.5693 0.02062 0)
(29.4259 0.0288935 0)
(29.2482 0.0403072 0)
(29.0324 0.0566995 0)
(28.7465 0.0794165 0)
(28.3951 0.110713 0)
(27.954 0.16453 0)
(27.4118 0.2369 0)
(26.652 0.37578 0)
(25.7103 0.587819 0)
(24.2296 1.02424 0)
(22.3203 1.65604 0)
(19.0974 3.12899 0)
(13.9147 4.44276 0)
(6.87269 7.55324 0)
(29.9988 0.000666838 0)
(29.9853 0.00202939 0)
(29.9557 0.0035152 0)
(29.9108 0.00539971 0)
(29.852 0.00786838 0)
(29.7774 0.0111863 0)
(29.6845 0.0155771 0)
(29.5695 0.0217338 0)
(29.4261 0.0304602 0)
(29.2482 0.0424862 0)
(29.0327 0.0598999 0)
(28.7439 0.0837522 0)
(28.3938 0.116829 0)
(27.9538 0.173124 0)
(27.4118 0.249761 0)
(26.6529 0.394635 0)
(25.7103 0.61811 0)
(24.2354 1.07171 0)
(22.3476 1.73687 0)
(19.1662 3.27963 0)
(14.0997 4.68567 0)
(7.00849 8.01132 0)
(29.9988 0.000701052 0)
(29.9853 0.00213323 0)
(29.9557 0.00369546 0)
(29.9108 0.00567651 0)
(29.852 0.00827153 0)
(29.7774 0.0117595 0)
(29.6843 0.0163757 0)
(29.5694 0.022847 0)
(29.426 0.0320265 0)
(29.2487 0.0446819 0)
(29.0311 0.0631309 0)
(28.7419 0.0880679 0)
(28.3931 0.122953 0)
(27.9537 0.181718 0)
(27.4118 0.262618 0)
(26.6537 0.413497 0)
(25.7104 0.648363 0)
(24.2409 1.11885 0)
(22.3746 1.81676 0)
(19.2312 3.42738 0)
(14.2846 4.92725 0)
(7.1506 8.47668 0)
(29.9988 0.000735262 0)
(29.9853 0.00223705 0)
(29.9557 0.00387573 0)
(29.9108 0.0059533 0)
(29.8521 0.00867464 0)
(29.7774 0.0123327 0)
(29.6845 0.017174 0)
(29.5697 0.023961 0)
(29.4261 0.0335874 0)
(29.2496 0.0469403 0)
(29.0279 0.0663638 0)
(28.7404 0.0923842 0)
(28.3926 0.129074 0)
(27.9538 0.190318 0)
(27.4119 0.275472 0)
(26.6547 0.432366 0)
(25.7108 0.678585 0)
(24.2466 1.16566 0)
(22.4018 1.89573 0)
(19.2936 3.57224 0)
(14.4699 5.16727 0)
(7.29876 8.94949 0)
(29.9988 0.000769467 0)
(29.9853 0.00234083 0)
(29.9557 0.00405601 0)
(29.9108 0.00623007 0)
(29.852 0.00907769 0)
(29.7774 0.0129058 0)
(29.6844 0.0179721 0)
(29.5696 0.0250752 0)
(29.426 0.035144 0)
(29.2505 0.0492512 0)
(29.0245 0.0695818 0)
(28.7394 0.096716 0)
(28.3924 0.135199 0)
(27.9539 0.198914 0)
(27.4122 0.288319 0)
(26.6558 0.451241 0)
(25.7117 0.70878 0)
(24.2529 1.21208 0)
(22.4297 1.97382 0)
(19.3545 3.71421 0)
(14.6566 5.40558 0)
(7.45279 9.4299 0)
(29.9988 0.000803667 0)
(29.9853 0.00244459 0)
(29.9557 0.00423629 0)
(29.9108 0.00650682 0)
(29.8521 0.00948071 0)
(29.7775 0.0134789 0)
(29.6846 0.01877 0)
(29.5699 0.0261901 0)
(29.4261 0.036695 0)
(29.2511 0.0515999 0)
(29.0219 0.0726963 0)
(28.7388 0.101055 0)
(28.3923 0.141321 0)
(27.9541 0.207511 0)
(27.4126 0.301162 0)
(26.6572 0.470116 0)
(25.7134 0.738935 0)
(24.2598 1.2581 0)
(22.4584 2.05105 0)
(19.4148 3.85329 0)
(14.8457 5.64201 0)
(7.61261 9.91809 0)
(29.9988 0.000837861 0)
(29.9853 0.00254832 0)
(29.9557 0.00441658 0)
(29.9108 0.00678357 0)
(29.852 0.00988366 0)
(29.7775 0.014052 0)
(29.6845 0.0195675 0)
(29.5698 0.0273054 0)
(29.4261 0.0382413 0)
(29.2513 0.0539349 0)
(29.0202 0.0757407 0)
(28.7384 0.105396 0)
(28.3923 0.147443 0)
(27.9545 0.216103 0)
(27.4131 0.313996 0)
(26.6589 0.488983 0)
(25.7161 0.769027 0)
(24.2677 1.30371 0)
(22.488 2.12743 0)
(19.4754 3.98943 0)
(15.0383 5.87645 0)
(7.77825 10.4143 0)
(29.9988 0.00087205 0)
(29.9853 0.00265202 0)
(29.9557 0.00459688 0)
(29.9108 0.00706028 0)
(29.8521 0.0102866 0)
(29.7776 0.014625 0)
(29.6847 0.0203652 0)
(29.57 0.0284193 0)
(29.4264 0.0398026 0)
(29.2511 0.0562511 0)
(29.019 0.0787576 0)
(28.7382 0.109738 0)
(28.3923 0.15356 0)
(27.9548 0.224693 0)
(27.4138 0.326819 0)
(26.6611 0.50783 0)
(25.7199 0.799031 0)
(24.2766 1.3489 0)
(22.5185 2.20298 0)
(19.5367 4.12258 0)
(15.2357 6.10879 0)
(7.94982 10.9187 0)
(29.9988 0.000906232 0)
(29.9853 0.0027557 0)
(29.9557 0.00477718 0)
(29.9108 0.00733698 0)
(29.8521 0.0106895 0)
(29.7775 0.0151978 0)
(29.6846 0.0211628 0)
(29.5699 0.0295338 0)
(29.4267 0.0413737 0)
(29.2502 0.0586701 0)
(29.0183 0.0817836 0)
(28.738 0.114077 0)
(28.3925 0.159675 0)
(27.9553 0.233279 0)
(27.4147 0.339627 0)
(26.6637 0.52664 0)
(25.7247 0.828929 0)
(24.2865 1.39371 0)
(22.5498 2.2777 0)
(19.5992 4.25266 0)
(15.4393 6.33893 0)
(8.12752 11.4315 0)
(29.9988 0.000940411 0)
(29.9853 0.00285934 0)
(29.9557 0.0049575 0)
(29.9109 0.00761365 0)
(29.8522 0.0110923 0)
(29.7776 0.0157706 0)
(29.6848 0.0219604 0)
(29.57 0.0306471 0)
(29.4274 0.0429557 0)
(29.2487 0.0610617 0)
(29.0177 0.0848348 0)
(28.738 0.118415 0)
(28.3927 0.165785 0)
(27.9558 0.241858 0)
(27.4159 0.352412 0)
(26.6667 0.545401 0)
(25.7305 0.858718 0)
(24.2975 1.43813 0)
(22.5819 2.35158 0)
(19.6632 4.37955 0)
(15.6501 6.56678 0)
(8.3116 11.9532 0)
(29.9988 0.000974582 0)
(29.9853 0.00296296 0)
(29.9557 0.00513782 0)
(29.9108 0.00789029 0)
(29.8521 0.0114952 0)
(29.7776 0.0163431 0)
(29.6847 0.0227587 0)
(29.5698 0.0317548 0)
(29.4279 0.0445959 0)
(29.247 0.0633126 0)
(29.0174 0.0879117 0)
(28.738 0.12275 0)
(28.3929 0.171892 0)
(27.9564 0.25043 0)
(27.4172 0.36517 0)
(26.6702 0.564101 0)
(25.7372 0.888395 0)
(24.3097 1.48218 0)
(22.6147 2.42461 0)
(19.7287 4.50313 0)
(15.8693 6.79225 0)
(8.50238 12.4839 0)
(29.9988 0.00100875 0)
(29.9853 0.00306654 0)
(29.9557 0.00531814 0)
(29.9109 0.00816689 0)
(29.8522 0.011898 0)
(29.7777 0.0169154 0)
(29.685 0.0235573 0)
(29.57 0.0328607 0)
(29.4286 0.046264 0)
(29.2456 0.0655397 0)
(29.0172 0.0910057 0)
(28.7381 0.127082 0)
(28.3932 0.177995 0)
(27.9571 0.258991 0)
(27.4188 0.377896 0)
(26.6741 0.582733 0)
(25.7449 0.917957 0)
(24.3231 1.52586 0)
(22.6482 2.4968 0)
(19.7957 4.62323 0)
(16.0974 7.01524 0)
(8.7002 13.024 0)
(29.9988 0.00104291 0)
(29.9853 0.0031701 0)
(29.9557 0.00549847 0)
(29.9109 0.00844347 0)
(29.8521 0.0123007 0)
(29.7776 0.0174876 0)
(29.6849 0.0243558 0)
(29.5698 0.0339652 0)
(29.4289 0.0479456 0)
(29.2444 0.0677587 0)
(29.0171 0.0941078 0)
(28.7382 0.131412 0)
(28.3935 0.184093 0)
(27.9579 0.267541 0)
(27.4205 0.390586 0)
(26.6784 0.601291 0)
(25.7533 0.947396 0)
(24.3378 1.56916 0)
(22.6825 2.56814 0)
(19.864 4.73969 0)
(16.3352 7.23566 0)
(8.9054 13.574 0)
(29.9988 0.00107707 0)
(29.9853 0.00327363 0)
(29.9557 0.00567881 0)
(29.9109 0.00872001 0)
(29.8523 0.0127035 0)
(29.7778 0.0180596 0)
(29.6851 0.0251546 0)
(29.57 0.0350682 0)
(29.4293 0.0496403 0)
(29.2436 0.0699577 0)
(29.0171 0.0972127 0)
(28.7384 0.13574 0)
(28.3938 0.190186 0)
(27.9587 0.276076 0)
(27.4224 0.403237 0)
(26.6831 0.619769 0)
(25.7625 0.976699 0)
(24.3538 1.6121 0)
(22.7176 2.63864 0)
(19.9334 4.85234 0)
(16.5826 7.45338 0)
(9.11834 14.1341 0)
(29.9988 0.00111122 0)
(29.9853 0.00337713 0)
(29.9557 0.00585914 0)
(29.9109 0.00899653 0)
(29.8522 0.0131062 0)
(29.7777 0.0186314 0)
(29.685 0.0259531 0)
(29.5699 0.0361703 0)
(29.4294 0.0513436 0)
(29.243 0.0721431 0)
(29.0172 0.100318 0)
(28.7386 0.140066 0)
(28.3942 0.196275 0)
(27.9596 0.284597 0)
(27.4245 0.415848 0)
(26.688 0.638162 0)
(25.7725 1.00585 0)
(24.3712 1.65467 0)
(22.7536 2.70829 0)
(20.0039 4.96101 0)
(16.8397 7.66829 0)
(9.33932 14.7048 0)
(29.9988 0.00114536 0)
(29.9853 0.0034806 0)
(29.9557 0.00603948 0)
(29.9109 0.009273 0)
(29.8523 0.0135088 0)
(29.7778 0.0192033 0)
(29.6853 0.0267513 0)
(29.5702 0.0372723 0)
(29.4295 0.0530532 0)
(29.2428 0.0743173 0)
(29.0173 0.103424 0)
(28.7388 0.144389 0)
(28.3946 0.202357 0)
(27.9605 0.293101 0)
(27.4267 0.428416 0)
(26.6932 0.656463 0)
(25.7832 1.03485 0)
(24.39 1.69686 0)
(22.7906 2.7771 0)
(20.0755 5.06554 0)
(17.1061 7.88025 0)
(9.56865 15.2864 0)
(29.9988 0.0011795 0)
(29.9853 0.00358405 0)
(29.9557 0.0062198 0)
(29.9109 0.00954947 0)
(29.8522 0.0139113 0)
(29.7778 0.0197752 0)
(29.6851 0.027549 0)
(29.5702 0.038369 0)
(29.4292 0.0547666 0)
(29.2426 0.0764839 0)
(29.0174 0.106529 0)
(28.7391 0.148711 0)
(28.395 0.208434 0)
(27.9615 0.301588 0)
(27.4291 0.44094 0)
(26.6987 0.674666 0)
(25.7946 1.06366 0)
(24.4102 1.73868 0)
(22.8288 2.84509 0)
(20.1481 5.16578 0)
(17.3817 8.08913 0)
(9.80658 15.8795 0)
(29.9988 0.00121363 0)
(29.9853 0.00368747 0)
(29.9557 0.00640014 0)
(29.9109 0.00982585 0)
(29.8523 0.014314 0)
(29.7779 0.0203461 0)
(29.6853 0.0283507 0)
(29.5706 0.0394604 0)
(29.4291 0.0563905 0)
(29.2426 0.0786441 0)
(29.0176 0.109634 0)
(28.7393 0.153032 0)
(28.3954 0.214505 0)
(27.9625 0.310057 0)
(27.4316 0.453418 0)
(26.7044 0.692765 0)
(25.8066 1.09229 0)
(24.4318 1.78011 0)
(22.8683 2.91224 0)
(20.222 5.2616 0)
(17.6662 8.29476 0)
(10.0533 16.4843 0)
(29.9988 0.00124776 0)
(29.9853 0.00379086 0)
(29.9557 0.00658045 0)
(29.9109 0.0101023 0)
(29.8523 0.0147161 0)
(29.7779 0.020919 0)
(29.6851 0.0291406 0)
(29.5708 0.0406216 0)
(29.428 0.057744 0)
(29.2427 0.0808069 0)
(29.0178 0.112738 0)
(28.7396 0.15735 0)
(28.3959 0.220569 0)
(27.9636 0.318508 0)
(27.4341 0.465847 0)
(26.7104 0.710753 0)
(25.8193 1.12071 0)
(24.4547 1.82115 0)
(22.9093 2.97856 0)
(20.2974 5.35285 0)
(17.9598 8.497 0)
(10.3092 17.1012 0)
(29.9988 0.00128189 0)
(29.9853 0.00389423 0)
(29.9558 0.00676076 0)
(29.911 0.0103786 0)
(29.8524 0.0151184 0)
(29.7781 0.02149 0)
(29.6852 0.0299411 0)
(29.5719 0.0417319 0)
(29.4248 0.0597481 0)
(29.2428 0.082997 0)
(29.0181 0.115842 0)
(28.7399 0.161667 0)
(28.3963 0.226627 0)
(27.9647 0.326939 0)
(27.4368 0.478227 0)
(26.7165 0.728625 0)
(25.8326 1.14891 0)
(24.4791 1.86179 0)
(22.9521 3.04406 0)
(20.3745 5.4394 0)
(18.2625 8.6957 0)
(10.5742 17.7308 0)
(29.9988 0.00131601 0)
(29.9853 0.00399756 0)
(29.9558 0.00694107 0)
(29.911 0.0106549 0)
(29.8523 0.0155207 0)
(29.7781 0.0220617 0)
(29.6849 0.030731 0)
(29.5724 0.0429131 0)
(29.4226 0.0615913 0)
(29.2429 0.0852074 0)
(29.0183 0.118945 0)
(28.7402 0.165983 0)
(28.3968 0.232678 0)
(27.9658 0.33535 0)
(27.4395 0.490555 0)
(26.7229 0.746374 0)
(25.8464 1.17687 0)
(24.5047 1.90199 0)
(22.9969 3.10871 0)
(20.4532 5.52113 0)
(18.5748 8.8907 0)
(10.8488 18.3734 0)
(29.9988 0.00135012 0)
(29.9853 0.00410087 0)
(29.9558 0.0071213 0)
(29.911 0.0109315 0)
(29.8524 0.0159215 0)
(29.7782 0.0226398 0)
(29.6852 0.0314961 0)
(29.5728 0.044118 0)
(29.4215 0.0631228 0)
(29.243 0.0874202 0)
(29.0186 0.122048 0)
(28.7405 0.170297 0)
(28.3973 0.238723 0)
(27.967 0.343741 0)
(27.4424 0.50283 0)
(26.7294 0.763997 0)
(25.8608 1.20458 0)
(24.5315 1.94175 0)
(23.044 3.17253 0)
(20.5334 5.59788 0)
(18.8968 9.08184 0)
(11.1331 19.0294 0)
(29.9988 0.00138424 0)
(29.9854 0.00420416 0)
(29.9558 0.00730157 0)
(29.911 0.0112076 0)
(29.8524 0.0163242 0)
(29.7781 0.0232064 0)
(29.6852 0.0323361 0)
(29.5717 0.0449702 0)
(29.4209 0.0645964 0)
(29.2432 0.0896285 0)
(29.0188 0.125149 0)
(28.7409 0.174609 0)
(28.3978 0.244762 0)
(27.9681 0.352109 0)
(27.4452 0.51505 0)
(26.7361 0.781487 0)
(25.8756 1.23203 0)
(24.5595 1.98103 0)
(23.0938 3.23551 0)
(20.6146 5.66954 0)
(19.2277 9.26899 0)
(11.4274 19.6992 0)
(29.9988 0.00141834 0)
(29.9853 0.00430747 0)
(29.9558 0.00748186 0)
(29.911 0.0114838 0)
(29.8525 0.016726 0)
(29.7779 0.0237795 0)
(29.6868 0.0331429 0)
(29.5663 0.0463957 0)
(29.4205 0.0660998 0)
(29.2433 0.091833 0)
(29.0191 0.128249 0)
(28.7412 0.17892 0)
(28.3982 0.250793 0)
(27.9693 0.360457 0)
(27.4482 0.527214 0)
(26.743 0.798841 0)
(25.8908 1.25921 0)
(24.5885 2.01981 0)
(23.1468 3.29766 0)
(20.6961 5.736 0)
(19.5644 9.45215 0)
(11.7319 20.3841 0)
(29.9988 0.00145228 0)
(29.9854 0.0044107 0)
(29.9558 0.00766231 0)
(29.911 0.01176 0)
(29.8525 0.0171293 0)
(29.7776 0.0243467 0)
(29.6877 0.033977 0)
(29.5625 0.0478448 0)
(29.4202 0.0676344 0)
(29.2434 0.0940377 0)
(29.0193 0.131349 0)
(28.7415 0.183229 0)
(28.3987 0.256819 0)
(27.9704 0.368781 0)
(27.4511 0.539318 0)
(26.75 0.816054 0)
(25.9064 1.28611 0)
(24.6183 2.05803 0)
(23.2032 3.35899 0)
(20.7771 5.79726 0)
(19.9 9.631 0)
(12.0461 21.0916 0)
(29.9988 0.0014857 0)
(29.9853 0.00451292 0)
(29.9558 0.00784151 0)
(29.911 0.0120345 0)
(29.8527 0.017532 0)
(29.7777 0.0249021 0)
(29.6882 0.0348798 0)
(29.5612 0.048992 0)
(29.42 0.0691739 0)
(29.2434 0.0962392 0)
(29.0195 0.134447 0)
(28.7417 0.187536 0)
(28.3991 0.26284 0)
(27.9716 0.37708 0)
(27.4541 0.551362 0)
(26.7571 0.833124 0)
(25.9222 1.3127 0)
(24.649 2.09561 0)
(23.2636 3.41953 0)
(20.8578 5.8534 0)
(20.2232 9.80352 0)
(12.4563 21.8428 0)
(0.97028 -0.00897278 0)
(-0.241043 0.0208669 0)
(-0.942814 0.00763805 0)
(-0.99091 0.00100421 0)
(-1.04367 -0.00273954 0)
(-0.660367 -0.00349813 0)
(-0.60078 -0.00154899 0)
(-0.4484 -0.000312047 0)
(-0.560586 0.000261343 0)
(-0.484517 0.000288015 0)
(-0.612072 0.000863196 0)
(-0.621954 2.11726e-06 0)
(-0.637295 -0.000830977 0)
(-0.455454 -0.00218494 0)
(-0.11718 -0.003214 0)
(0.403408 -0.00376649 0)
(0.965027 -0.00424314 0)
(1.69579 -0.0054091 0)
(2.72163 -0.00667736 0)
(4.03817 -0.00738722 0)
(5.57254 -0.00738748 0)
(7.1561 -0.00676483 0)
(8.66767 -0.00591953 0)
(10.0926 -0.00516674 0)
(11.4411 -0.00455522 0)
(12.7399 -0.00407575 0)
(14.0086 -0.00368677 0)
(15.2546 -0.00334331 0)
(16.4749 -0.00303225 0)
(17.6758 -0.0028354 0)
(18.933 -0.00241515 0)
(19.9385 -0.00146934 0)
(20.401 -0.00531894 0)
(25.9227 -0.00794176 0)
(29.8166 -0.00308861 0)
(0.977384 -0.0273101 0)
(-0.228747 0.062442 0)
(-0.929737 0.022769 0)
(-0.972413 0.00309333 0)
(-1.02695 -0.00822716 0)
(-0.644667 -0.0103877 0)
(-0.588815 -0.00464513 0)
(-0.436766 -0.000893862 0)
(-0.55326 0.000775076 0)
(-0.478658 0.000815488 0)
(-0.603564 0.0024394 0)
(-0.599595 1.18744e-05 0)
(-0.612867 -0.0021738 0)
(-0.453587 -0.00620478 0)
(-0.140324 -0.00960634 0)
(0.388996 -0.0114523 0)
(0.980012 -0.0126853 0)
(1.72372 -0.0158006 0)
(2.73176 -0.019443 0)
(4.02091 -0.0217839 0)
(5.54292 -0.022057 0)
(7.13423 -0.0202972 0)
(8.66284 -0.0177799 0)
(10.0961 -0.0155077 0)
(11.4441 -0.0136636 0)
(12.7393 -0.0122187 0)
(14.0036 -0.0110423 0)
(15.2457 -0.0100109 0)
(16.4654 -0.00908389 0)
(17.6652 -0.00849218 0)
(18.9205 -0.00727538 0)
(19.944 -0.00438131 0)
(20.3831 -0.0156753 0)
(25.7272 -0.0237957 0)
(29.8002 -0.00950145 0)
(0.986175 -0.0461819 0)
(-0.215529 0.103869 0)
(-0.914859 0.0376595 0)
(-0.948847 0.00515805 0)
(-1.00131 -0.0138185 0)
(-0.621034 -0.0171504 0)
(-0.56919 -0.00771699 0)
(-0.418691 -0.0013666 0)
(-0.538447 0.00136859 0)
(-0.463438 0.00139068 0)
(-0.586252 0.00395124 0)
(-0.569246 -0.000300578 0)
(-0.588274 -0.00348548 0)
(-0.457486 -0.00981026 0)
(-0.163045 -0.0156756 0)
(0.384799 -0.0191931 0)
(1.00823 -0.0212598 0)
(1.76123 -0.026026 0)
(2.74714 -0.031833 0)
(4.0093 -0.0358513 0)
(5.52507 -0.0366654 0)
(7.12821 -0.0339691 0)
(8.67412 -0.0297392 0)
(10.1161 -0.0258533 0)
(11.4632 -0.0227223 0)
(12.7543 -0.0202995 0)
(14.0137 -0.0183501 0)
(15.251 -0.016659 0)
(16.4686 -0.0151303 0)
(17.6661 -0.0141341 0)
(18.9185 -0.0121582 0)
(19.9578 -0.00729317 0)
(20.3778 -0.0256381 0)
(25.5465 -0.0396727 0)
(29.7841 -0.0161716 0)
(0.996895 -0.06559 0)
(-0.201591 0.145215 0)
(-0.897956 0.0523138 0)
(-0.919491 0.00697398 0)
(-0.966831 -0.0194331 0)
(-0.589215 -0.0238073 0)
(-0.542137 -0.0106897 0)
(-0.393973 -0.00178336 0)
(-0.516014 0.00197598 0)
(-0.440556 0.00192494 0)
(-0.562135 0.00529992 0)
(-0.532427 -0.000620093 0)
(-0.559894 -0.00444493 0)
(-0.458199 -0.0130677 0)
(-0.179941 -0.0219219 0)
(0.389252 -0.0275361 0)
(1.04764 -0.0303371 0)
(1.81014 -0.0363879 0)
(2.77228 -0.0441386 0)
(4.00839 -0.0498786 0)
(5.5213 -0.0513562 0)
(7.13865 -0.0477878 0)
(8.70289 -0.041815 0)
(10.154 -0.0362413 0)
(11.5004 -0.0317768 0)
(12.7868 -0.0283618 0)
(14.0403 -0.0256345 0)
(15.2712 -0.0232888 0)
(16.4852 -0.0211665 0)
(17.6793 -0.0197642 0)
(18.9275 -0.017068 0)
(19.9805 -0.0102002 0)
(20.3853 -0.03528 0)
(25.3793 -0.0554664 0)
(29.7682 -0.023115 0)
(1.00965 -0.0855927 0)
(-0.187084 0.186419 0)
(-0.878813 0.0666167 0)
(-0.883995 0.00839755 0)
(-0.92391 -0.0250913 0)
(-0.549481 -0.0303278 0)
(-0.508288 -0.0135346 0)
(-0.3629 -0.00214549 0)
(-0.48637 0.00260399 0)
(-0.410657 0.00243724 0)
(-0.53043 0.0064801 0)
(-0.487813 -0.000964544 0)
(-0.526207 -0.00507033 0)
(-0.454295 -0.0159503 0)
(-0.189496 -0.0282136 0)
(0.404534 -0.0363183 0)
(1.10244 -0.0397938 0)
(1.87628 -0.046744 0)
(2.81214 -0.0562318 0)
(4.02168 -0.0637889 0)
(5.53422 -0.0661219 0)
(7.1682 -0.0617691 0)
(8.75246 -0.0540166 0)
(10.2136 -0.0466695 0)
(11.559 -0.0408131 0)
(12.8396 -0.0363865 0)
(14.0858 -0.0328784 0)
(15.3084 -0.0298885 0)
(16.5171 -0.0271834 0)
(17.7061 -0.0253752 0)
(18.9487 -0.0219942 0)
(20.0129 -0.013107 0)
(20.4061 -0.0445952 0)
(25.2247 -0.0711848 0)
(29.7524 -0.0302962 0)
(1.02443 -0.106257 0)
(-0.172117 0.227486 0)
(-0.85718 0.0804457 0)
(-0.841856 0.0093285 0)
(-0.872624 -0.0308375 0)
(-0.501867 -0.0366946 0)
(-0.46787 -0.0162374 0)
(-0.325426 -0.00245672 0)
(-0.449622 0.00324493 0)
(-0.374016 0.00292166 0)
(-0.490632 0.00747474 0)
(-0.434623 -0.0013158 0)
(-0.48608 -0.00532707 0)
(-0.44423 -0.0184552 0)
(-0.190085 -0.0345579 0)
(0.432632 -0.0455295 0)
(1.17652 -0.0496067 0)
(1.96617 -0.0570212 0)
(2.87349 -0.0680252 0)
(4.05466 -0.0775442 0)
(5.56826 -0.0809665 0)
(7.22151 -0.0759242 0)
(8.82841 -0.0663501 0)
(10.3009 -0.0571375 0)
(11.6448 -0.0498239 0)
(12.9176 -0.0443608 0)
(14.1541 -0.0400682 0)
(15.3657 -0.0364451 0)
(16.5667 -0.0331706 0)
(17.7488 -0.0309577 0)
(18.9837 -0.0269264 0)
(20.0562 -0.0160157 0)
(20.4414 -0.0535843 0)
(25.0822 -0.0868087 0)
(29.7369 -0.0376911 0)
(1.04109 -0.127642 0)
(-0.156749 0.268412 0)
(-0.832743 0.0936705 0)
(-0.792272 0.0096685 0)
(-0.812631 -0.036701 0)
(-0.44607 -0.0428844 0)
(-0.420645 -0.0187817 0)
(-0.281163 -0.00272218 0)
(-0.405453 0.00389464 0)
(-0.330371 0.00336849 0)
(-0.442168 0.0082611 0)
(-0.372108 -0.00165517 0)
(-0.4382 -0.00520598 0)
(-0.426375 -0.0206199 0)
(-0.180586 -0.0410186 0)
(0.474706 -0.0552393 0)
(1.27282 -0.0598425 0)
(2.08666 -0.0672349 0)
(2.96504 -0.0794889 0)
(4.1151 -0.091129 0)
(5.63011 -0.095903 0)
(7.30572 -0.0902765 0)
(8.93922 -0.0788323 0)
(10.4254 -0.0676499 0)
(11.7668 -0.0587997 0)
(13.0285 -0.0522667 0)
(14.2513 -0.0471843 0)
(15.448 -0.0429424 0)
(16.6381 -0.0391158 0)
(17.8104 -0.0365009 0)
(19.0351 -0.0318531 0)
(20.1124 -0.0189257 0)
(20.4931 -0.0622485 0)
(24.9515 -0.102315 0)
(29.7216 -0.0452806 0)
(1.05926 -0.149804 0)
(-0.140993 0.309181 0)
(-0.805109 0.106141 0)
(-0.73421 0.00931084 0)
(-0.743367 -0.0426938 0)
(-0.381591 -0.0488654 0)
(-0.366033 -0.0211491 0)
(-0.229451 -0.00294857 0)
(-0.353159 0.00454941 0)
(-0.27893 0.00376497 0)
(-0.384041 0.00882227 0)
(-0.299046 -0.00198494 0)
(-0.380648 -0.00470444 0)
(-0.398797 -0.0224743 0)
(-0.159897 -0.0476611 0)
(0.531823 -0.0655571 0)
(1.39395 -0.0706327 0)
(2.24499 -0.0774599 0)
(3.09765 -0.0906159 0)
(4.21352 -0.104523 0)
(5.72931 -0.110942 0)
(7.43121 -0.104858 0)
(9.09725 -0.0914898 0)
(10.6012 -0.0782136 0)
(11.9394 -0.0677254 0)
(13.1845 -0.0600753 0)
(14.3865 -0.0541969 0)
(15.562 -0.0493567 0)
(16.7366 -0.0450026 0)
(17.8957 -0.0419908 0)
(19.1065 -0.0367595 0)
(20.1837 -0.0218351 0)
(20.5637 -0.0705859 0)
(24.8332 -0.117675 0)
(29.7065 -0.0530461 0)
(1.07836 -0.172783 0)
(-0.124814 0.349756 0)
(-0.773781 0.117682 0)
(-0.666583 0.00814246 0)
(-0.664286 -0.0488158 0)
(-0.307946 -0.054606 0)
(-0.303266 -0.0233235 0)
(-0.169458 -0.00314536 0)
(-0.291726 0.00520186 0)
(-0.218459 0.00409352 0)
(-0.314663 0.00912461 0)
(-0.21353 -0.00230894 0)
(-0.310777 -0.00381986 0)
(-0.358985 -0.0240254 0)
(-0.126211 -0.0545306 0)
(0.606082 -0.0766033 0)
(1.54374 -0.0821605 0)
(2.45008 -0.0878382 0)
(3.28532 -0.101434 0)
(4.36411 -0.117699 0)
(5.87928 -0.126093 0)
(7.61244 -0.119714 0)
(9.31957 -0.104367 0)
(10.8489 -0.0888446 0)
(12.1843 -0.0765793 0)
(13.4045 -0.0677399 0)
(14.5741 -0.0610571 0)
(15.7179 -0.0556514 0)
(16.8699 -0.0508069 0)
(18.011 -0.0474082 0)
(19.203 -0.0416255 0)
(20.2737 -0.0247396 0)
(20.6568 -0.0785908 0)
(24.7283 -0.132855 0)
(29.6919 -0.060968 0)
(1.09759 -0.196608 0)
(-0.108126 0.390072 0)
(-0.738139 0.128098 0)
(-0.588468 0.00604962 0)
(-0.575058 -0.0550551 0)
(-0.224857 -0.0600809 0)
(-0.231545 -0.0252955 0)
(-0.10027 -0.00332628 0)
(-0.219918 0.00583846 0)
(-0.14736 0.00432837 0)
(-0.231842 0.00913297 0)
(-0.112994 -0.00265128 0)
(-0.225223 -0.00255565 0)
(-0.303647 -0.0252691 0)
(-0.0765376 -0.061656 0)
(0.70128 -0.0884996 0)
(1.72841 -0.0946565 0)
(2.71395 -0.0985911 0)
(3.54692 -0.112023 0)
(4.58614 -0.130636 0)
(6.09833 -0.141369 0)
(7.8688 -0.134913 0)
(9.62827 -0.117539 0)
(11.1952 -0.0995839 0)
(12.5322 -0.0853383 0)
(13.7175 -0.0751897 0)
(14.8356 -0.067686 0)
(15.9302 -0.0617679 0)
(17.0487 -0.0564934 0)
(18.1651 -0.0527268 0)
(19.3316 -0.046423 0)
(20.3866 -0.0276311 0)
(20.777 -0.0862533 0)
(24.639 -0.147813 0)
(29.6777 -0.069024 0)
(1.11588 -0.221286 0)
(-0.0907887 0.430031 0)
(-0.697411 0.137182 0)
(-0.49935 0.00292618 0)