/*--------------------------------*- C++ -*----------------------------------*\
| =========                 |                                                 |
| \\      /  F ield         | OpenFOAM: The Open Source CFD Toolbox           |
|  \\    /   O peration     | Version:  v1912                                 |
|   \\  /    A nd           | Website:  www.openfoam.com                      |
|    \\/     M anipulation  |                                                 |
\*---------------------------------------------------------------------------*/
FoamFile
{
    version     2.0;
    format      ascii;
    class       volScalarField;
    location    "560";
    object      yPlus;
}
// * * * * * * * * * * * * * * * * * * * * * * * * * * * * * * * * * * * * * //

dimensions      [0 0 0 0 0 0 0];


internalField   uniform 0;

boundaryField
{
    inlet
    {
        type            calculated;
        value           uniform 0;
    }
    outlet
    {
        type            calculated;
        value           uniform 0;
    }
    lowerSymmetry
    {
        type            symmetryPlane;
    }
    obstical
    {
        type            calculated;
        value           nonuniform List<scalar> 
88
(
477.185
479.392
483.786
490.344
499.003
509.674
522.271
536.705
552.893
570.756
590.222
611.217
633.663
657.473
682.551
708.804
736.141
764.479
793.747
823.884
854.839
886.574
919.06
952.278
986.217
1020.87
1056.25
1092.36
1129.22
1166.83
1205.23
1244.44
1284.47
1325.35
1367.09
1409.73
1453.27
1497.75
1543.18
1589.59
1637
1685.48
1735.42
1790.78
96.0387
96.672
97.4786
98.48
99.6855
101.095
102.697
104.46
106.338
108.264
110.152
111.9
113.392
114.504
115.114
115.107
114.392
112.905
110.625
107.575
103.826
99.4913
94.7297
89.745
84.7912
80.178
76.2704
73.4699
72.161
72.6266
74.9709
79.1053
84.81
91.8241
99.9182
108.936
118.81
129.693
141.848
155.635
171.448
189.598
210.379
234.626
)
;
    }
    obsticalTop
    {
        type            calculated;
        value           nonuniform List<scalar> 
20
(
53.4218
38.8605
47.1893
53.26
56.0916
57.7148
58.3072
57.9864
57.0235
55.5488
53.5359
50.8721
47.4593
43.1054
37.7798
30.8436
24.4101
14.8657
13.3417
11.2875
)
;
    }
    top
    {
        type            calculated;
        value           uniform 0;
    }
    defaultFaces
    {
        type            empty;
    }
}


// ************************************************************************* //
