/*--------------------------------*- C++ -*----------------------------------*\
| =========                 |                                                 |
| \\      /  F ield         | OpenFOAM: The Open Source CFD Toolbox           |
|  \\    /   O peration     | Version:  v1912                                 |
|   \\  /    A nd           | Website:  www.openfoam.com                      |
|    \\/     M anipulation  |                                                 |
\*---------------------------------------------------------------------------*/
FoamFile
{
    version     2.0;
    format      ascii;
    class       volScalarField;
    location    "410";
    object      epsilon;
}
// * * * * * * * * * * * * * * * * * * * * * * * * * * * * * * * * * * * * * //

dimensions      [0 2 -3 0 0 0 0];


internalField   nonuniform List<scalar> 
12441
(
0.0102963
0.00908482
0.00832695
0.0077025
0.00718356
0.00674885
0.00638215
0.00607072
0.00580478
0.00557616
0.00537885
0.00520742
0.00505042
0.00491906
0.00480263
0.00469869
0.00487185
0.0202069
0.274239
3.033
20.953
39.25
0.0101188
0.00891991
0.00818378
0.00757669
0.00707176
0.00664848
0.00629121
0.00598763
0.00572835
0.00550539
0.00531304
0.00514595
0.00499215
0.00486444
0.00475147
0.00465212
0.00480028
0.0199441
0.258243
3.02519
21.2434
40.2318
0.00989674
0.00871714
0.0080001
0.00740889
0.0069173
0.00650534
0.00615776
0.00586258
0.00561067
0.00539427
0.00520786
0.00504629
0.00489747
0.00477495
0.00466707
0.0045728
0.00464841
0.0180731
0.218617
2.99416
21.6226
41.3784
0.00967316
0.0085135
0.00781472
0.00723864
0.00675972
0.00635845
0.00602
0.00573274
0.00548774
0.0052775
0.00509665
0.00494023
0.00479685
0.00467914
0.00457623
0.00448755
0.00450633
0.0158258
0.179965
2.9713
22.09
42.5504
0.00942894
0.00828889
0.00760884
0.00704839
0.00658264
0.00619261
0.00586385
0.00558505
0.00534755
0.00514408
0.00496944
0.00481889
0.0046809
0.00456901
0.00447192
0.00439004
0.00435787
0.0138058
0.160191
2.97795
22.6075
43.6698
0.00922296
0.00809927
0.00743444
0.0068866
0.00643141
0.00605031
0.00572914
0.00545688
0.00522506
0.00502661
0.00485646
0.00471002
0.00457665
0.00446871
0.00437586
0.00429842
0.00428305
0.0139262
0.179685
3.08453
23.238
44.7472
0.0090023
0.00789567
0.00724729
0.00671318
0.00626956
0.00589832
0.00558564
0.0053208
0.00509554
0.00490298
0.00473821
0.00459679
0.00446787
0.00436563
0.00427568
0.00420538
0.00603639
0.0229893
0.285324
3.38543
24.0818
45.7945
0.00882385
0.00773102
0.00709547
0.00657197
0.00613718
0.00577335
0.00546693
0.00520743
0.00498674
0.00479815
0.00463686
0.00449856
0.00437355
0.0042752
0.00419331
0.00516837
0.0343513
0.079315
0.598809
4.02053
25.2633
46.8732
0.00862971
0.00755182
0.00693079
0.00641939
0.00599482
0.00563969
0.00534076
0.0050878
0.00487287
0.00468943
0.0045328
0.00439885
0.00427793
0.00414588
0.00539673
0.026902
0.174203
0.296215
1.2849
5.14123
26.9145
48.0153
0.00847502
0.00740893
0.00679889
0.00629655
0.00587949
0.00553063
0.00523698
0.00498847
0.00477733
0.00459715
0.00444335
0.00431209
0.00419397
0.00427396
0.0251225
0.147208
0.512975
0.781136
2.36592
6.80618
29.1309
49.2846
0.00830558
0.00725248
0.00665516
0.00616345
0.00575534
0.00541412
0.00512703
0.00488424
0.00467812
0.00450242
0.00435263
0.00422606
0.00407825
0.00948509
0.111954
0.417228
0.994261
1.47361
3.62658
8.91043
31.9389
50.6975
0.00817056
0.00712778
0.00654003
0.00605616
0.00565455
0.00531872
0.00503615
0.00479715
0.00459424
0.00442127
0.00427384
0.00415093
0.00415539
0.0479453
0.308243
0.762272
1.44704
2.16326
4.80882
11.236
35.2834
52.295
0.00802142
0.00699012
0.00641371
0.00593931
0.00554567
0.00521664
0.00493991
0.00470598
0.00450751
0.00433846
0.00419452
0.00403777
0.00834368
0.160107
0.556557
1.06072
1.78558
2.71368
5.79509
13.5674
39.0537
54.0597
0.00790054
0.00687848
0.00631064
0.00584326
0.00545543
0.00513123
0.00485853
0.00462801
0.00443241
0.00426583
0.00412402
0.0038823
0.036594
0.32437
0.767315
1.27312
2.0176
3.11296
6.58401
15.7584
43.1118
56.0037
0.00776915
0.00675713
0.00619931
0.00574029
0.00535949
0.00504127
0.00477371
0.00454763
0.0043559
0.00419273
0.00405391
0.00426246
0.109469
0.481645
0.919827
1.41829
2.17644
3.39837
7.21491
17.7376
47.3248
58.0812
0.00766008
0.00665646
0.00610636
0.00565368
0.00527813
0.00496426
0.00470035
0.00447734
0.00428822
0.0041273
0.00399048
0.00944513
0.210974
0.604531
1.0262
1.51958
2.28885
3.60779
7.72923
19.4851
51.5774
60.2902
0.00754414
0.00654939
0.00600822
0.00556295
0.00519361
0.00488502
0.0046256
0.00440646
0.00422069
0.00406267
0.00392883
0.0318982
0.310616
0.69478
1.10217
1.59314
2.37198
3.76824
8.15977
21.0091
55.7826
62.571
0.00744262
0.00645581
0.00592192
0.00548266
0.00511831
0.00481388
0.00455798
0.00434183
0.00415861
0.00400283
0.00387361
0.0788657
0.392935
0.761175
1.15868
1.64896
2.43642
3.8973
8.53019
22.3295
59.8789
64.9213
0.00734
0.00636091
0.00583486
0.0054021
0.00504317
0.00474333
0.00449132
0.0042785
0.00409814
0.00394484
0.00380983
0.137775
0.456667
0.811606
1.20256
1.69316
2.48875
4.00621
8.85689
23.4698
63.831
67.2818
0.00724537
0.00627376
0.00575456
0.00532745
0.00497325
0.00467737
0.00442872
0.00421878
0.00404091
0.0038898
0.00427901
0.194267
0.505698
0.851445
1.23805
1.72964
2.53322
4.10218
9.15097
24.4527
67.6228
69.6617
0.00715514
0.00619026
0.00567793
0.00525648
0.00490696
0.00461501
0.00436965
0.00416248
0.00398697
0.00383794
0.0099028
0.242752
0.544342
0.884147
1.26784
1.76093
2.57272
4.18982
9.41977
25.299
71.2579
72.0102
0.00706437
0.00610684
0.00560124
0.00518539
0.0048406
0.00455264
0.0043107
0.0041065
0.00393357
0.00378731
0.0279929
0.282792
0.575859
0.911927
1.29374
1.7888
2.60925
4.27194
9.66803
26.0269
74.7529
74.3523
0.00698508
0.00603323
0.00553353
0.00512249
0.00478164
0.00449695
0.00425773
0.0040558
0.00388478
0.00374225
0.057693
0.315787
0.602461
0.936252
1.317
1.81449
2.64425
4.35008
9.89874
26.6526
78.1401
76.6493
0.00689858
0.00595384
0.00546063
0.00505505
0.00471882
0.00443809
0.00420227
0.0040033
0.00383488
0.00370251
0.0904984
0.34333
0.625617
0.958131
1.33851
1.83891
2.67868
4.42499
10.1138
27.1903
81.4619
78.9445
0.00683031
0.00589034
0.00540212
0.00500052
0.00466749
0.00438934
0.00415563
0.00395836
0.00379134
0.00368403
0.120676
0.366833
0.646307
0.978286
1.35893
1.86273
2.71312
4.49701
10.3145
27.6529
84.774
81.212
0.00674462
0.00581197
0.00533047
0.00493457
0.00460643
0.0043325
0.00410246
0.0039084
0.00374423
0.00364516
0.146793
0.387393
0.665203
0.997248
1.37875
1.88642
2.74778
4.56629
10.5017
28.0512
88.14
83.5114
0.00668547
0.00575664
0.00527919
0.00488647
0.00456083
0.00428886
0.00406038
0.00386756
0.00370443
0.00384125
0.169354
0.405807
0.68278
1.01541
1.39832
1.91023
2.78265
4.63297
10.6763
28.3953
91.6327
85.8273
0.00660174
0.00568021
0.00520948
0.00482252
0.00450184
0.0042342
0.00400948
0.00381998
0.00365986
0.00579077
0.189238
0.422642
0.699383
1.03307
1.41786
1.93432
2.81762
4.69721
10.8389
28.6932
95.3275
88.2307
0.00655207
0.00563349
0.00516593
0.00478132
0.0044624
0.00419606
0.00397229
0.00378348
0.0036243
0.0111682
0.207193
0.438297
0.715268
1.05043
1.43753
1.9587
2.85251
4.75918
10.9902
28.952
99.3012
90.7106
0.00646798
0.00555706
0.00509657
0.00471809
0.00440449
0.0041428
0.00392312
0.00373789
0.00358285
0.0209241
0.223742
0.453057
0.730626
1.06764
1.45737
1.98331
2.88722
4.81905
11.1311
29.1774
103.623
93.3406
0.00642576
0.00551691
0.00505874
0.00468188
0.0043694
0.00410845
0.00388926
0.00370434
0.00355177
0.0350115
0.239224
0.467126
0.745598
1.08479
1.4774
2.00809
2.92165
4.87699
11.2621
29.3744
108.355
96.1058
0.00634329
0.00544208
0.00499101
0.00462032
0.00431324
0.00405704
0.003842
0.00366075
0.00351586
0.0523773
0.253855
0.480659
0.760287
1.10193
1.49758
2.03295
2.95573
4.93313
11.3841
29.5474
113.543
99.0732
0.00630961
0.00540972
0.00496015
0.00459032
0.00428364
0.00402753
0.00381239
0.00363091
0.00349485
0.0716347
0.267774
0.493768
0.774762
1.11909
1.51787
2.05781
2.98944
4.98757
11.4978
29.7006
119.222
102.217
0.00622513
0.00533345
0.00489151
0.0045284
0.00422764
0.00397674
0.00376619
0.00358875
0.00347379
0.0915295
0.281076
0.506534
0.789069
1.13625
1.53821
2.08261
3.02274
5.04039
11.6039
29.8381
125.411
105.592
0.00619829
0.00530716
0.00486591
0.00450291
0.00420189
0.00395051
0.00373938
0.00356133
0.00347868
0.111175
0.293825
0.519017
0.803231
1.15339
1.55854
2.10729
3.05561
5.09163
11.7031
29.964
132.125
109.157
0.00611131
0.00522904
0.00479604
0.00444031
0.00414572
0.00390001
0.00369383
0.00352012
0.0035493
0.12998
0.306058
0.531255
0.817252
1.17049
1.57881
2.13179
3.08804
5.14129
11.7963
30.0819
139.37
112.957
0.00608776
0.00520569
0.00477295
0.00441694
0.00412172
0.00387522
0.00366822
0.00349373
0.00626586
0.147545
0.317793
0.54327
0.831125
1.18751
1.59894
2.15608
3.11999
5.18937
11.8841
30.1948
147.146
116.938
0.00599577
0.00512368
0.00470009
0.00435214
0.00406402
0.00382375
0.00362218
0.00345242
0.0270275
0.163511
0.329029
0.555069
0.84483
1.20439
1.6189
2.1801
3.15143
5.23582
11.9674
30.3045
155.438
121.137
0.00596746
0.00509622
0.00467343
0.00432562
0.00403723
0.0037965
0.00359444
0.00342476
0.0527404
0.177346
0.339756
0.566649
0.858338
1.2211
1.63861
2.2038
3.18233
5.28057
12.0471
30.4116
164.192
125.495
0.00586278
0.0050033
0.00459125
0.00425289
0.00397281
0.00373936
0.00354365
0.00338451
0.0678533
0.188885
0.349956
0.577993
0.871615
1.23757
1.65803
2.22713
3.21261
5.32355
12.1238
30.5154
173.277
130.045
0.00582119
0.00496385
0.00455374
0.00421649
0.00393703
0.00370395
0.00350855
0.00334932
0.0763988
0.198383
0.359615
0.589078
0.884621
1.25374
1.67709
2.25004
3.24221
5.36469
12.1985
30.6145
182.421
134.727
0.00569955
0.0048563
0.00445866
0.00413209
0.0038619
0.00363691
0.0034486
0.00352809
0.0816273
0.206202
0.368727
0.599872
0.897314
1.26955
1.69572
2.27245
3.27103
5.4039
12.2714
30.708
191.147
139.588
0.00561726
0.00478979
0.00440419
0.00408597
0.0038214
0.00360008
0.00341393
0.00402402
0.0850617
0.21267
0.37729
0.610337
0.90965
1.28491
1.71386
2.29429
3.29898
5.44115
12.3427
30.796
198.759
144.654
0.00525481
0.00446047
0.00411218
0.00382662
0.00358939
0.00339086
0.00322366
0.00425098
0.0874271
0.218036
0.385309
0.620427
0.921589
1.29976
1.73141
2.31545
3.32592
5.47646
12.4117
30.8802
204.452
150.447
95.0235
47.9818
32.5421
25.7026
25.1064
21.2338
20.3644
18.1978
17.0772
16.465
15.7745
14.9315
15.7623
18.1278
21.7181
25.2001
27.9894
30.3571
32.5655
33.9736
34.8653
35.7293
36.5436
37.086
37.5278
37.6022
37.1181
35.8417
34.3925
35.0743
44.6964
9.90557
4.04958
3.52053
3.1353
94.6475
48.0025
32.6184
26.0154
25.647
21.6279
20.7458
18.4877
17.3343
16.6897
15.8969
15.0496
15.901
18.2906
21.8812
25.3248
28.1043
30.5167
32.8329
34.4228
35.4752
36.3794
37.1681
37.6613
38.0651
38.1146
37.6187
36.3139
34.7922
35.4879
44.8679
9.99879
4.04761
3.5163
3.13161
93.9266
48.0268
32.7642
26.6422
26.7149
22.4121
21.4856
19.0512
17.8455
17.1386
16.1551
15.3012
16.1878
18.6154
22.2209
25.6022
28.3443
30.8277
33.3627
35.3474
36.7649
37.7693
38.5031
38.8822
39.1909
39.1737
38.6432
37.2784
35.6152
36.3342
44.2917
10.0839
4.04376
3.50784
3.12424
92.8104
48.0447
32.9875
27.6094
28.2958
23.588
22.5578
19.8723
18.6045
17.8086
16.5829
15.7248
16.6595
19.1485
22.8133
26.1284
28.7987
31.3767
34.2583
36.8918
38.9139
40.0941
40.7344
40.9065
41.0293
40.8724
40.2649
38.8025
36.9172
37.6541
43.5623
10.1894
4.0383
3.49516
3.11321
91.3035
48.0464
33.3007
28.9377
30.3672
25.1503
23.9372
20.9421
19.6047
18.6947
17.2171
16.3691
17.3659
19.9426
23.735
27.0303
29.6206
32.3237
35.7089
39.3076
42.2228
43.6758
44.1674
43.9928
43.7831
43.3616
42.5996
40.9876
38.7823
39.5133
43.1162
10.3445
4.03166
3.4783
3.09855
89.3553
48.0234
33.7205
30.6513
32.9216
27.1043
25.618
22.2673
20.8511
19.8011
18.0928
17.2831
18.3569
21.0459
25.0456
28.4325
31.0141
33.922
38.0219
42.9918
47.1637
49.0256
49.2912
48.5567
47.7766
46.8798
45.8252
43.9819
41.332
42.0061
43.2652
10.579
4.02436
3.45729
3.08028
87.0012
47.9678
34.27
32.7858
35.9701
29.4729
27.6171
23.8717
22.3653
21.1493
19.248
18.5196
19.6908
22.5243
26.8089
30.4451
33.206
36.5231
41.6593
48.5428
54.4583
56.9394
56.8784
55.259
53.5226
51.7979
50.2109
48.0001
44.7382
45.262
44.266
10.9248
4.01702
3.43217
3.05843
84.2135
47.8729
34.9787
35.3838
39.5294
32.2905
29.9698
25.7944
24.1852
22.7789
20.7334
20.1446
21.453
24.4905
29.1396
33.1991
36.4352
40.5635
47.2642
56.8203
65.1646
68.6145
68.1232
65.1379
61.8261
58.689
56.1597
53.3504
49.2402
49.4526
46.3894
11.4179
4.01032
3.40298
3.03306
81.0699
47.7324
35.8837
38.4784
43.6039
35.5924
32.7227
28.087
26.3641
24.7485
22.6193
22.2461
23.7675
27.1244
32.2352
36.8946
40.9794
46.5505
55.6487
68.9354
80.6714
85.685
84.7475
79.7546
73.9165
68.4202
64.2666
60.4709
55.169
54.7998
49.9817
12.1005
4.00494
3.36978
3.00422
77.574
47.54
37.0297
42.0714
48.172
39.4035
35.9256
30.8099
28.9672
27.1342
24.999
24.9343
26.7965
30.6792
36.3963
41.832
47.1853
55.0208
67.6282
85.9198
102.237
109.768
108.736
101.148
91.514
82.2293
75.3715
69.9639
62.97
61.5772
55.523
13.0225
4.00151
3.33264
2.97198
73.8369
47.2897
38.4682
46.1119
53.1797
43.7303
39.6243
34.0263
32.0679
30.0286
27.9894
28.3372
30.7201
35.4634
42.0186
48.4039
55.4356
66.3596
83.4606
107.61
129.397
140.631
140.752
130.869
116.426
101.605
90.531
82.5905
73.2084
70.0951
63.667
14.2413
4.00045
3.29164
2.93643
69.8857
46.9749
40.2557
50.4888
58.5449
48.557
43.8517
37.7946
35.7388
33.5339
31.7244
32.5835
35.6918
41.7565
49.5136
56.9973
65.9622
80.3293
101.821
130.979
157.644
173.096
176.521
166.869
148.682
127.445
110.671
99.1088
86.5007
80.6412
75.2055
15.8167
4.00179
3.24687
2.89767
65.8489
46.5883
42.4476
55.0499
64.171
53.8497
48.6204
42.158
40.0395
37.7504
36.3398
37.7685
41.7519
49.5971
59.041
67.6994
78.4346
95.4782
119.429
150.633
179.512
197.707
205.448
199.944
182.854
157.779
135.482
119.715
103.246
93.3261
90.7878
17.7952
4.0049
3.19844
2.85583
61.7626
46.1224
45.0863
59.6481
69.965
59.5668
53.9198
47.1356
45.0009
42.7528
41.9339
43.8924
48.7064
58.4544
69.9967
79.7682
91.4891
109.279
132.938
163.023
190.869
208.752
218.658
218.257
207.61
185.381
161.548
142.893
122.983
107.782
110.115
20.1772
4.00819
3.14646
2.81104
57.7502
45.5648
48.1797
64.191
75.8527
65.675
59.7217
52.715
50.6116
48.5631
48.5125
50.801
56.0371
67.0344
80.5671
91.2529
102.899
119.61
141.456
168.987
193.788
208.74
217.245
218.773
214.788
200.798
181.988
164.365
143.436
122.749
130.644
22.8652
4.00882
3.09108
2.76348
53.8399
44.9001
51.6788
68.6648
81.793
72.1511
65.9864
58.8565
56.8156
55.1198
55.9266
58.1608
62.9954
73.7389
88.3044
99.6849
110.827
126.151
146.421
171.45
192.538
203.325
208.114
208.027
206.914
200.714
190.684
178.331
160.252
135.885
147.259
25.6144
4.00267
3.03243
2.71332
50.1273
44.1188
55.4684
73.1206
87.7737
78.967
72.6727
65.5103
63.5284
62.281
63.8863
65.5483
68.9481
77.6844
91.8165
103.783
115.082
130.134
149.755
172.617
189.853
196.204
196.659
193.422
191.94
189.877
187.325
181.415
168.898
144.392
154.962
28.0388
3.98471
2.97069
2.66075
46.6135
43.2255
59.3894
77.598
93.81
86.089
79.739
72.6291
70.6629
69.8609
72.0399
72.6411
73.7542
79.2875
91.7918
104.333
116.965
133.123
152.655
173.29
186.522
188.559
185.046
178.806
175.818
174.948
176.387
174.922
167.74
146.469
152.575
29.7039
3.94981
2.90604
2.606
43.349
42.2516
63.2882
82.1263
99.9042
93.4597
87.1368
80.1743
78.1607
77.7036
80.1457
79.405
77.8452
79.7936
90.12
103.272
118.188
136.247
155.523
173.381
182.348
180.343
173.621
165.274
161.021
160.057
162.64
162.78
158.814
142.354
142.773
30.2676
3.894
2.83871
2.54928
40.3033
41.2657
67.0123
86.7471
106.033
100.985
94.7974
88.1039
85.9945
85.7346
88.1676
86.1181
81.9888
80.5362
88.6149
102.419
120.073
140.044
158.246
172.501
176.961
171.311
162.247
152.824
148.016
146.702
148.854
148.54
145.706
133.882
129.183
29.5932
3.81541
2.76895
2.49082
37.4893
40.3795
70.4941
91.4542
112.143
108.537
102.624
96.3587
94.1617
93.9804
96.2926
93.2566
86.9954
82.5283
88.4472
102.948
123.403
144.652
160.545
170.311
170.194
161.447
150.887
141.266
136.565
135.011
136.044
134.269
131.397
123.22
114.416
27.7916
3.71486
2.69707
2.43087
34.8769
39.6456
73.7729
96.2032
118.162
115.966
110.494
104.845
102.658
102.518
104.791
101.309
93.5481
86.5038
90.3193
105.526
128.555
149.987
162.135
166.659
162.145
150.985
139.698
130.499
126.319
124.648
124.33
120.853
117.598
111.974
99.8527
25.1722
3.5956
2.62337
2.36967
32.4767
39.0996
76.8807
100.921
124.004
123.127
118.269
113.431
111.436
111.424
113.903
110.643
102.133
93.0106
94.6911
110.554
135.712
155.926
162.876
161.604
153.114
140.299
128.927
120.508
117.002
115.226
113.538
108.561
105.028
101.019
86.1094
22.1282
3.46247
2.5482
2.30747
30.2708
38.7766
79.8222
105.515
129.582
129.889
125.813
121.972
120.422
120.721
123.737
121.419
113.008
102.53
102.041
118.402
144.98
162.354
162.754
155.384
143.508
129.775
118.796
111.304
108.416
106.448
103.482
97.4156
93.8456
90.69
73.4512
19.0187
3.32083
2.47192
2.2445
28.2673
38.7329
82.5849
109.885
134.814
136.154
133.004
130.327
129.513
130.383
134.293
133.62
126.194
115.403
112.91
129.499
156.483
169.219
161.917
148.369
133.758
119.736
109.454
102.874
100.427
98.1303
94.052
87.3614
83.9563
81.0358
62.007
16.0991
3.17568
2.39488
2.181
26.4614
39.058
85.1558
113.935
139.635
141.856
139.747
138.38
138.606
140.353
145.514
147.138
141.556
131.785
127.955
144.411
170.332
176.452
160.557
140.984
124.259
110.406
100.956
95.1704
92.9353
90.1838
85.2187
78.3258
75.1783
71.9996
51.8467
13.5107
3.03103
2.31741
2.11721
24.8623
39.8642
87.5285
117.591
144.001
146.967
145.986
146.058
147.625
150.593
157.377
161.907
158.969
151.598
147.744
163.746
186.575
183.925
158.889
133.643
115.321
101.909
93.2892
88.1176
85.872
82.5911
77
70.2302
67.3184
63.522
42.9936
11.3033
2.88982
2.23984
2.05333
23.4808
41.2628
89.709
120.814
147.897
151.503
151.712
153.341
156.542
161.117
169.946
178.009
178.506
174.809
172.677
188.022
205.022
191.329
157.013
126.679
107.148
94.2797
86.3881
81.6303
79.1914
75.3783
69.4289
62.9915
60.2069
55.5817
35.421
9.46854
2.75393
2.16247
1.98957
22.3333
43.3411
91.7056
123.597
151.337
155.508
156.956
160.262
165.4
172.028
183.436
195.774
200.58
201.672
202.925
217.333
225.082
198.176
154.929
120.296
99.8336
87.4842
80.1626
75.6268
72.8717
68.5916
62.5288
56.5213
53.71
48.2004
29.0536
7.96772
2.6244
2.08555
1.92612
21.4546
46.1467
93.5244
125.966
154.359
159.055
161.789
166.908
174.315
183.539
198.245
215.86
226.084
233.02
238.766
251.146
245.565
203.766
152.482
114.553
93.3769
81.4439
74.515
70.0392
66.9105
62.2786
56.3016
50.7301
47.7329
41.4249
23.7784
6.75096
2.50163
2.00934
1.86316
20.8892
49.676
95.1673
127.96
157.013
162.222
166.304
173.406
183.482
196.004
215.037
239.386
256.543
270.32
280.599
288.054
264.715
207.334
149.465
109.381
87.7012
76.0557
69.3524
64.818
61.3188
56.4753
50.7255
45.5309
42.216
35.3039
19.4602
5.76805
2.38564
1.93405
1.80084
20.7351
53.8657
96.6345
129.631
159.362
165.098
170.614
179.926
193.181
209.951
234.821
268.104
294.315
315.708
328.742
325.689
280.371
208.153
145.636
104.619
82.6811
71.2076
64.5948
59.9317
56.1129
51.1996
45.7594
40.8442
37.1279
29.8685
15.9569
4.97384
2.27616
1.85986
1.7393
21.1259
58.5894
97.9281
131.033
161.47
167.771
174.849
186.676
203.8
226.145
259.11
304.636
342.676
371.454
382.253
360.397
290.407
205.763
140.848
100.066
78.1682
66.7928
60.1784
55.3639
51.3076
46.4495
41.3491
36.6005
32.4565
25.1222
13.1321
4.33002
2.1728
1.78693
1.67869
22.2957
63.6651
99.0557
132.222
163.405
170.333
179.156
193.921
215.859
245.666
290.088
352.624
405.293
438.297
437.176
387.332
293.128
200.017
135.031
95.5347
74.0122
62.7163
56.056
51.107
46.9102
42.2055
37.4346
32.7423
28.1995
21.04
10.862
3.80529
2.0751
1.71542
1.6191
24.5223
68.879
100.031
133.249
165.238
172.883
183.711
202
230.073
270.049
330.829
416.353
483.744
511.381
484.526
401.186
287.757
191.152
128.247
90.8837
70.0802
58.9014
52.1945
47.1578
42.918
38.4347
33.955
29.2238
24.3564
17.574
9.03957
3.37461
1.9826
1.64543
1.56064
28.1637
74.0177
100.871
134.161
167.044
175.534
188.737
211.37
247.44
301.467
385.267
498.456
571.342
575.524
511.481
398.232
274.647
179.665
120.622
86.0344
66.2682
55.29
48.5718
43.512
39.3177
35.0956
30.8527
26.0103
20.923
14.6615
7.57487
3.01819
1.89485
1.57709
1.5034
33.4954
78.8994
101.595
135.002
168.91
178.429
194.53
222.668
269.408
342.97
457.223
593.413
645.962
607.444
507.761
378.347
255.285
166.258
112.355
80.9694
62.5077
51.8423
45.1726
40.1614
36.0866
32.1427
28.0756
23.0758
17.8879
12.2335
6.39439
2.72052
1.81147
1.51048
1.44747
40.701
83.3959
102.221
135.814
170.937
181.756
201.513
236.847
298.148
398.575
546.345
678.229
676.109
591.865
473.71
345.571
231.837
151.676
103.66
75.7159
58.7646
48.5337
41.9851
37.0929
33.1953
29.5296
25.5785
20.4012
15.2324
10.2205
5.43894
2.46949
1.7321
1.44569
1.3929
49.6321
87.444
102.766
136.642
173.262
185.793
210.339
255.417
337.025
472.321
638.771
716.457
646.633
535.635
420.201
306.038
206.56
136.635
94.7753
70.3362
55.0332
45.3515
38.9986
34.2883
30.6103
27.2117
23.3228
17.9722
12.931
8.55752
4.66143
2.25563
1.65644
1.3828
1.33977
59.8743
91.0422
103.243
137.541
176.086
190.979
222.081
280.93
391.145
563.181
700.362
687.876
572.887
460.457
360.775
265.307
181.268
121.724
85.9214
64.9134
51.3279
42.2901
36.2021
31.7259
28.2963
25.1478
21.2768
15.7768
10.9534
7.18597
4.02473
2.07152
1.58424
1.3219
1.28814
70.5911
94.2355
103.669
138.589
179.722
198.062
238.651
317.903
466.658
651.657
696.945
607.727
483.181
385.309
304.487
226.8
157.161
107.403
77.3134
59.5449
47.6754
39.3495
33.5848
29.3824
26.2186
23.3009
19.4143
13.8042
9.26674
6.05511
3.49965
1.91136
1.51531
1.26304
1.23808
80.9187
97.094
104.059
139.906
184.72
208.435
263.693
374.106
562.248
692.033
628.113
507.379
397.829
319.335
255.038
191.989
134.875
93.9869
69.1313
54.3317
44.1093
36.5323
31.1364
27.2348
24.3448
21.638
17.7143
12.0434
7.83738
5.12188
3.06337
1.77056
1.44948
1.20631
1.18964
89.3733
99.7063
104.439
141.699
192.117
224.903
304.37
458.656
641.932
648.761
523.208
410.416
324.999
264.391
212.784
161.135
114.684
81.6811
61.5272
49.3716
40.6662
33.8438
28.8482
25.2623
22.6457
20.1309
16.1595
10.4824
6.63256
4.35035
2.69798
1.6455
1.38661
1.15177
1.14288
95.1437
102.175
104.848
144.36
204.101
253.515
372.855
556.479
632.87
538.094
413.015
327.143
265.502
219.353
176.99
134.087
96.6612
70.5922
54.602
44.7478
37.3825
31.2915
26.7144
23.4477
21.0963
18.7552
14.7357
9.10821
5.62152
3.71094
2.38948
1.53329
1.32659
1.09948
1.09784
0.00337781
0.00250546
0.00227852
0.00216722
0.00212677
0.00213021
0.00216224
0.00432026
0.088689
0.221384
0.390904
0.627596
0.930041
1.31016
1.74372
2.33032
3.34482
5.50121
12.4606
30.9445
206.728
160.158
0.00334438
0.0022425
0.00184264
0.00160699
0.00148615
0.00144844
0.00148071
0.00435583
0.0893112
0.223195
0.394114
0.631577
0.934496
1.31545
1.74987
2.33776
3.35458
5.51476
12.4908
30.9927
207.672
170.29
0.00354044
0.00237571
0.00188209
0.00154459
0.00132301
0.00119249
0.00116207
0.00438026
0.0897197
0.224519
0.396614
0.63449
0.937439
1.31868
1.75347
2.34212
3.36061
5.5241
12.5143
31.0422
207.767
179.964
0.00367079
0.00251728
0.00200367
0.00162956
0.00135788
0.00116671
0.00103221
0.00439649
0.0899445
0.225387
0.398397
0.636314
0.938838
1.31983
1.75447
2.34332
3.36281
5.52901
12.5295
31.0936
207.077
189.047
0.00392256
0.00276377
0.00222611
0.00182174
0.00151383
0.00127966
0.000998468
0.00440627
0.0900031
0.225819
0.399458
0.637033
0.938672
1.31887
1.75283
2.34132
3.36109
5.5293
12.5348
31.1471
205.647
197.999
0.00406021
0.00292958
0.0023982
0.00199164
0.00167469
0.00142466
0.000987407
0.00441063
0.0899061
0.225826
0.399791
0.636638
0.936928
1.31579
1.74855
2.33609
3.35535
5.52479
12.5286
31.2031
203.507
206.99
0.00434047
0.00320782
0.00265918
0.00223296
0.00189546
0.00162401
0.00105648
0.00441013
0.0896597
0.225417
0.399395
0.635128
0.933609
1.31061
1.74164
2.32762
3.34555
5.51532
12.5095
31.2611
200.699
216.02
0.00447858
0.00337914
0.0028436
0.00242301
0.00208593
0.00181074
0.00118317
0.00440485
0.0892676
0.224601
0.398277
0.632512
0.928732
1.30335
1.73212
2.31591
3.33163
5.50074
12.4763
31.3203
197.271
225.028
0.00478404
0.00368447
0.00313428
0.00269641
0.00234142
0.00204834
0.00130785
0.00439451
0.0887323
0.223385
0.39645
0.628808
0.922328
1.29405
1.72003
2.30098
3.31354
5.48091
12.4279
31.3793
193.279
233.941
0.0049087
0.00384875
0.00331923
0.00289421
0.00254634
0.00225579
0.0013982
0.00437858
0.0880549
0.221778
0.393935
0.624045
0.914442
1.28276
1.70545
2.28287
3.29125
5.45571
12.3634
31.4357
188.783
242.677
0.00522939
0.00417109
0.00362971
0.00318997
0.00282651
0.00252031
0.00151215
0.00435643
0.087236
0.219791
0.390759
0.618263
0.905133
1.26956
1.68845
2.26165
3.26475
5.42502
12.2822
31.4864
183.849
251.126
0.00533931
0.00432461
0.00380961
0.00338864
0.00303807
0.00273994
0.00163164
0.00432716
0.0862747
0.217434
0.386952
0.611511
0.89447
1.25452
1.66913
2.2374
3.23402
5.3887
12.1838
31.527
178.543
259.153
0.00567209
0.00466077
0.00413641
0.00370288
0.00333854
0.00302645
0.00183596
0.0042897
0.0851685
0.21472
0.382551
0.603844
0.882535
1.23776
1.64762
2.21023
3.19909
5.34664
12.0678
31.5522
172.935
266.61
0.00575628
0.00479283
0.00430091
0.00389252
0.00354738
0.00324946
0.00211359
0.00424242
0.0839119
0.211662
0.377592
0.595327
0.869416
1.21937
1.62403
2.18026
3.15999
5.2987
11.9341
31.5558
167.092
273.345
0.00609207
0.00513316
0.004634
0.0042151
0.00385811
0.00354818
0.00251807
0.00418336
0.0824951
0.208267
0.372112
0.586029
0.855212
1.19947
1.59852
2.14765
3.11679
5.24473
11.7825
31.5304
161.077
279.209
0.0061522
0.0052429
0.00477994
0.00439064
0.00405765
0.00376683
0.00298416
0.00410922
0.0809016
0.204542
0.366147
0.576025
0.840023
1.17819
1.57123
2.11256
3.06958
5.18459
11.6133
31.4678
154.951
284.07
0.00648673
0.00558294
0.00511451
0.00471629
0.00437289
0.00407143
0.00349651
0.00401618
0.0791058
0.200484
0.359728
0.565389
0.823957
1.15566
1.54233
2.07518
3.01852
5.11812
11.4265
31.3594
148.769
287.818
0.0065184
0.00566542
0.00523632
0.00487158
0.00455644
0.00427856
0.0038928
0.00389731
0.0770687
0.196082
0.352877
0.554196
0.807123
1.13201
1.51196
2.03572
2.96376
5.04517
11.2226
31.1958
142.578
290.37
0.00683898
0.00599232
0.00555954
0.00518774
0.00486401
0.00457732
0.0042695
0.0037513
0.0747323
0.191307
0.345609
0.542517
0.789632
1.10739
1.48031
1.99437
2.90552
4.96562
11.0021
30.9679
136.419
291.666
0.00685354
0.00605571
0.00566215
0.00532466
0.00503072
0.00476967
0.00452464
0.00358759
0.0720127
0.18611
0.337919
0.530415
0.771595
1.08191
1.44754
1.95135
2.84404
4.87933
10.7657
30.6665
130.327
291.677
0.00716006
0.00636929
0.00597354
0.00563038
0.00532908
0.00506028
0.0048199
0.00347656
0.0687902
0.180409
0.329785
0.51794
0.75312
1.05573
1.41381
1.90689
2.77958
4.78625
10.5142
30.2834
124.329
290.387
0.00715668
0.00641249
0.0060554
0.00574696
0.00547652
0.00523492
0.0050203
0.00360072
0.0648999
0.17408
0.321152
0.505125
0.734309
1.02897
1.37927
1.86119
2.71244
4.68632
10.2484
29.8112
118.445
287.802
0.00744653
0.00670956
0.00635122
0.00603807
0.00576119
0.00551267
0.00528962
0.00405468
0.0601245
0.166943
0.311922
0.491972
0.715251
1.00178
1.3441
1.81448
2.64293
4.57959
9.96945
29.2443
112.691
283.937
0.0074306
0.00673701
0.00641561
0.0061363
0.0058901
0.00566911
0.00546862
0.00464342
0.0541998
0.158737
0.30194
0.478444
0.696017
0.974273
1.30843
1.76695
2.5714
4.46616
9.67834
28.5788
107.075
278.818
0.00770414
0.00701769
0.00669566
0.00641233
0.00616028
0.00593284
0.00572492
0.00523527
0.0468718
0.149111
0.290967
0.464446
0.676646
0.946581
1.27243
1.71883
2.49818
4.34622
9.3762
27.8135
101.603
272.477
0.00767677
0.0070304
0.00674331
0.00649259
0.00627061
0.00607058
0.0058867
0.0056153
0.0380654
0.137604
0.278658
0.449799
0.657131
0.918809
1.23622
1.6703
2.42364
4.22007
9.06416
26.9495
96.2737
264.957
0.00793327
0.00729369
0.00700625
0.00675188
0.00652444
0.00631828
0.00612827
0.00592288
0.028231
0.12368
0.264524
0.434215
0.637392
0.891037
1.19994
1.62155
2.34815
4.0881
8.74334
25.9909
91.0856
256.308
0.00789955
0.00729637
0.00704128
0.00681756
0.00661878
0.00643911
0.00627312
0.00610964
0.018664
0.106865
0.2479
0.41725
0.617246
0.8633
1.16371
1.57278
2.27209
3.95086
8.41481
24.9446
86.0314
246.595
0.00814116
0.00754425
0.00728888
0.00706172
0.00685765
0.00667193
0.00650007
0.00633627
0.0113682
0.0870798
0.227922
0.398259
0.596361
0.835553
1.12763
1.52415
2.19588
3.80901
8.07961
23.8204
81.1026
235.895
0.00810337
0.00753938
0.00731375
0.00711518
0.00693819
0.00677778
0.00662921
0.00648741
0.00757819
0.0652302
0.203596
0.376324
0.574206
0.807624
1.09172
1.47581
2.1199
3.6634
7.73876
22.6302
76.287
224.304
0.00833021
0.00777192
0.007546
0.00734411
0.00716201
0.00699569
0.00684132
0.00669511
0.00656322
0.043677
0.174068
0.3502
0.549972
0.779156
1.05595
1.42788
2.04458
3.51503
7.39331
21.3884
71.572
211.937
0.00829266
0.00776377
0.0075648
0.00738913
0.00723212
0.00708949
0.0069571
0.00683096
0.00659285
0.0257533
0.139294
0.318304
0.522488
0.749529
1.02012
1.38043
1.97032
3.36506
7.04444
20.1102
66.9433
198.928
0.00850599
0.00798228
0.007783
0.00760417
0.00744224
0.00729384
0.00715571
0.00702482
0.00684364
0.0141714
0.101183
0.278931
0.490103
0.71777
0.983808
1.3334
1.89748
3.21485
6.69352
18.8123
62.3885
185.43
0.00847102
0.00797345
0.00779841
0.00764342
0.00750455
0.00737809
0.00726049
0.00714832
0.00702101
0.00879241
0.064464
0.230995
0.450598
0.682433
0.946283
1.28655
1.82633
3.06587
6.34228
17.511
57.8976
171.611
0.00867164
0.00817874
0.00800338
0.0078454
0.00770185
0.00756985
0.00744663
0.00732962
0.00721075
0.00715421
0.0354465
0.175657
0.401299
0.641446
0.90637
1.23942
1.757
2.91965
5.99289
16.2229
53.4676
157.647
0.00864159
0.00817177
0.00801802
0.00788152
0.00775891
0.007647
0.0075427
0.00744303
0.00734316
0.00696373
0.0179458
0.118315
0.339824
0.591963
0.862311
1.19112
1.68934
2.77765
5.64801
14.9635
49.1036
143.719
0.00883159
0.00836597
0.00821182
0.00807245
0.00794535
0.00782809
0.00771828
0.00761371
0.00751126
0.00720599
0.0103455
0.068501
0.266166
0.530417
0.811574
1.14033
1.62286
2.64108
5.31067
13.7471
44.822
130.008
0.00880915
0.00836381
0.00822881
0.00810863
0.00800037
0.00790129