/*--------------------------------*- C++ -*----------------------------------*\
| =========                 |                                                 |
| \\      /  F ield         | OpenFOAM: The Open Source CFD Toolbox           |
|  \\    /   O peration     | Version:  v1912                                 |
|   \\  /    A nd           | Website:  www.openfoam.com                      |
|    \\/     M anipulation  |                                                 |
\*---------------------------------------------------------------------------*/
FoamFile
{
    version     2.0;
    format      ascii;
    class       volScalarField;
    location    "410";
    object      nut;
}
// * * * * * * * * * * * * * * * * * * * * * * * * * * * * * * * * * * * * * //

dimensions      [0 2 -1 0 0 0 0];


internalField   nonuniform List<scalar> 
12441
(
5.82191e-24
1.7905e-20
8.10484e-20
3.32538e-19
1.06829e-18
3.88833e-18
1.01057e-17
2.50057e-17
6.13855e-17
1.27538e-16
3.05672e-16
7.71545e-16
2.17873e-15
7.39932e-15
1.03556e-13
1.89237e-11
0.000194296
0.000943013
0.00303387
0.00262499
0.00364689
0.00775321
6.3419e-24
3.03344e-20
1.1173e-19
4.23941e-19
1.30208e-18
4.80729e-18
1.21985e-17
3.00109e-17
7.36115e-17
1.54463e-16
3.79821e-16
1.02931e-15
2.825e-15
9.37081e-15
1.12968e-13
3.89499e-11
5.77771e-05
0.0011436
0.00347468
0.00285809
0.00400943
0.00781733
6.36467e-24
3.58948e-20
1.20776e-19
4.48123e-19
1.37771e-18
4.9067e-18
1.29289e-17
3.20417e-17
8.05156e-17
1.71782e-16
4.17907e-16
1.11758e-15
2.7814e-15
7.6608e-15
5.34678e-14
6.56374e-12
1.10964e-05
0.000839652
0.00138649
0.00269673
0.00416259
0.0078909
6.31913e-24
3.76909e-20
1.18531e-19
4.293e-19
1.32532e-18
4.7135e-18
1.25133e-17
3.13273e-17
7.8495e-17
1.73682e-16
4.23773e-16
1.1541e-15
2.6074e-15
8.47045e-15
3.84702e-14
1.54096e-12
1.62401e-06
0.000586089
0.00103457
0.00262038
0.00432531
0.0079647
6.2851e-24
4.38822e-20
1.29776e-19
4.58304e-19
1.40266e-18
4.77925e-18
1.30907e-17
3.27949e-17
8.42978e-17
1.87533e-16
4.54178e-16
1.28477e-15
3.01512e-15
4.06971e-14
2.46965e-13
2.29424e-12
1.39501e-07
0.000414274
0.00101621
0.00260796
0.00446566
0.00803394
6.23491e-24
4.12872e-20
1.20536e-19
4.29178e-19
1.34268e-18
4.62198e-18
1.27501e-17
3.2393e-17
8.28937e-17
1.92694e-16
4.76958e-16
1.44566e-15
4.52738e-15
1.32838e-12
1.18873e-11
5.09643e-11
4.58138e-07
0.000381861
0.0010842
0.00266478
0.00459187
0.00809948
6.20002e-24
5.02629e-20
1.37792e-19
4.75756e-19
1.4601e-18
4.79234e-18
1.35928e-17
3.44534e-17
9.07015e-17
2.11132e-16
5.20853e-16
2.00023e-15
2.49908e-14
4.14319e-11
6.57251e-10
9.36225e-09
1.87419e-05
0.000402805
0.0012724
0.00284814
0.00473653
0.00816218
6.15024e-24
4.34513e-20
1.23169e-19
4.40145e-19
1.40812e-18
4.72267e-18
1.35119e-17
3.48446e-17
9.13184e-17
2.23856e-16
5.7252e-16
5.43637e-15
6.09063e-13
2.252e-09
8.40844e-08
4.97683e-06
0.000196195
0.000466163
0.00172508
0.00322124
0.0049252
0.00822577
6.11746e-24
5.57031e-20
1.46127e-19
4.99663e-19
1.55407e-18
4.9585e-18
1.46113e-17
3.757e-17
1.02072e-16
2.50953e-16
6.45356e-16
6.13543e-14
2.58712e-11
7.41798e-08
1.04334e-05
0.000155384
0.000813216
0.000838711
0.00266192
0.00385628
0.00518981
0.00829204
6.07059e-24
4.43487e-20
1.25433e-19
4.56618e-19
1.50749e-18
4.95347e-18
1.4747e-17
3.87248e-17
1.04876e-16
2.75129e-16
7.48628e-16
1.68208e-12
1.08218e-09
4.43463e-06
0.000193067
0.000631037
0.00176158
0.00160931
0.0043953
0.00483099
0.0055434
0.00836448
6.04144e-24
6.0259e-20
1.5343e-19
5.25892e-19
1.67266e-18
5.20577e-18
1.60246e-17
4.20338e-17
1.19292e-16
3.17377e-16
8.92082e-16
5.23119e-11
5.50117e-08
8.24673e-05
0.00074233
0.00180376
0.00397117
0.0032683
0.00739476
0.00624712
0.00599919
0.00844366
5.99601e-24
4.4628e-20
1.27733e-19
4.76929e-19
1.63363e-18
5.28078e-18
1.64017e-17
4.40642e-17
1.25497e-16
3.64638e-16
1.15861e-15
1.45678e-09
3.24653e-06
0.000353839
0.0016816
0.00419373
0.00853662
0.00667001
0.0121457
0.00815165
0.00654645
0.00853143
5.97042e-24
6.41483e-20
1.60447e-19
5.53793e-19
1.8149e-18
5.54172e-18
1.79078e-17
4.82208e-17
1.467e-16
4.44735e-16
1.69455e-15
3.52183e-08
7.29439e-05
0.00113876
0.00430335
0.00958451
0.0173959
0.0129947
0.0188268
0.0105286
0.00717643
0.00862633
5.92643e-24
4.43245e-20
1.29667e-19
4.99298e-19
1.78313e-18
5.69172e-18
1.85318e-17
5.13826e-17
1.59848e-16
5.59165e-16
3.60136e-15
7.96566e-07
0.000354047
0.00305174
0.00986076
0.0196304
0.0322858
0.0232514
0.0271265
0.0132541
0.00785753
0.00872852
5.90408e-24
6.75146e-20
1.66651e-19
5.82604e-19
1.97793e-18
5.93991e-18
2.02683e-17
5.67811e-17
1.9605e-16
7.7872e-16
1.6517e-14
1.52057e-05
0.00118819
0.00743475
0.0200917
0.035756
0.0539889
0.0375707
0.0362359
0.016172
0.00857016
0.00883515
5.86037e-24
4.39581e-20
1.31994e-19
5.24791e-19
1.95773e-18
6.18534e-18
2.12014e-17
6.16776e-17
2.28162e-16
1.21629e-15
3.02159e-13
0.000138711
0.00305853
0.0156906
0.0363444
0.0584348
0.0816915
0.0547122
0.0451581
0.0190838
0.00927821
0.00894576
5.84131e-24
7.05393e-20
1.73501e-19
6.15106e-19
2.17053e-18
6.43932e-18
2.33099e-17
6.93765e-17
3.08224e-16
2.30497e-15
1.26024e-11
0.000538937
0.00719395
0.0290546
0.0586967
0.0869207
0.112686
0.0722893
0.053012
0.0218509
0.00996725
0.00905718
5.79733e-24
4.35015e-20
1.3449e-19
5.53124e-19
2.1606e-18
6.77139e-18
2.46176e-17
7.72282e-17
4.08457e-16
5.44569e-15
5.47984e-10
0.00142289
0.0147692
0.0481208
0.086566
0.118993
0.142806
0.0876195
0.059345
0.0243505
0.0106103
0.00916919
5.781e-24
7.32631e-20
1.80286e-19
6.49121e-19
2.38795e-18
7.01147e-18
2.71818e-17
8.90692e-17
6.61713e-16
1.69233e-14
4.40864e-08
0.0035708
0.0269449
0.0720991
0.117722
0.151366
0.167582
0.0988631
0.064105
0.0265498
0.0112071
0.00927899
5.73644e-24
4.30527e-20
1.36869e-19
5.82394e-19
2.38682e-18
7.43798e-18
2.90066e-17
1.02314e-16
1.0804e-15
7.52723e-14
8.563e-06
0.00778572
0.0439916
0.0997878
0.149747
0.18022
0.183646
0.105602
0.0675854
0.0284184
0.0117437
0.00938714
5.72341e-24
7.57292e-20
1.86801e-19
6.83171e-19
2.62922e-18
7.6729e-18
3.23035e-17
1.22244e-16
2.19372e-15
7.80201e-13
0.000169446
0.0152301
0.0652605
0.128969
0.179234
0.202363
0.189851
0.108761
0.0701598
0.0299926
0.0122333
0.00949146
5.67802e-24
4.2434e-20
1.3857e-19
6.10919e-19
2.63507e-18
8.19314e-18
3.49391e-17
1.46462e-16
4.34007e-15
1.3406e-11
0.000678847
0.0266354
0.0893923
0.1578
0.203761
0.215892
0.187473
0.109835
0.0722006
0.0312846
0.0126733
0.00959327
5.66768e-24
7.80227e-20
1.92469e-19
7.15479e-19
2.88984e-18
8.4182e-18
3.94326e-17
1.83581e-16
1.02755e-14
1.66103e-10
0.00184443
0.0420237
0.114732
0.183991
0.221148
0.220788
0.179493
0.11017
0.0739433
0.0323555
0.0130881
0.00969106
5.62175e-24
4.19642e-20
1.39791e-19
6.37997e-19
2.90256e-18
9.03748e-18
4.35004e-17
2.31489e-16
2.24198e-14
1.55804e-09
0.00436324
0.0607986
0.139691
0.206161
0.231125
0.218547
0.169256
0.110526
0.0755431
0.0332356
0.0134848
0.00978684
5.61494e-24
8.02756e-20
1.97578e-19
7.45815e-19
3.17118e-18
9.2673e-18
5.0264e-17
3.06425e-16
5.64396e-14
1.37803e-08
0.00897924
0.0817114
0.162954
0.223064
0.234152
0.211645
0.159356
0.111142
0.0770507
0.0340009
0.0138964
0.00987966
5.56722e-24
4.17921e-20
1.40763e-19
6.63866e-19
3.19199e-18
9.99236e-18
5.71514e-17
4.08454e-16
1.30478e-13
3.18962e-07
0.0163399
0.103545
0.183539
0.234647
0.232042
0.202565
0.151143
0.11194
0.0784915
0.0346966
0.0143364
0.00997203
5.56292e-24
8.24846e-20
2.02098e-19
7.74019e-19
3.47289e-18
1.02323e-17
6.84601e-17
5.73356e-16
3.92536e-13
1.87433e-05
0.0265255
0.125032
0.200826
0.241125
0.226489
0.193282
0.144931
0.112765
0.0798461
0.0354053
0.0148415
0.0100634
5.51406e-24
4.18598e-20
1.41222e-19
6.87522e-19
3.5015e-18
1.10688e-17
8.13277e-17
8.10381e-16
1.82991e-12
0.000213496
0.0392722
0.145325
0.214538
0.243541
0.219379
0.184939
0.140454
0.113469
0.0811017
0.0361694
0.0154241
0.0101564
5.51312e-24
8.46765e-20
2.05799e-19
7.99224e-19
3.79627e-18
1.13443e-17
1.02513e-16
1.20439e-15
1.28013e-11
0.000725982
0.0538615
0.163721
0.224724
0.242815
0.211857
0.178014
0.137269
0.113971
0.0822253
0.0370527
0.0161144
0.0102507
5.462e-24
4.20349e-20
1.40967e-19
7.08416e-19
3.8336e-18
1.23046e-17
1.28827e-16
1.79573e-15
7.40901e-11
0.00150139
0.0696542
0.179865
0.231674
0.24012
0.204824
0.172516
0.134964
0.114236
0.0831982
0.0380672
0.0169124
0.0103488
5.4631e-24
8.68078e-20
2.08981e-19
8.21811e-19
4.14324e-18
1.26533e-17
1.72479e-16
2.8096e-15
3.56399e-10
0.00269948
0.0859123
0.193508
0.235852
0.236209
0.198564
0.168254
0.133232
0.114267
0.083989
0.0392354
0.0178312
0.01045
5.41092e-24
4.2247e-20
1.39901e-19
7.26611e-19
4.19084e-18
1.37415e-17
2.30132e-16
4.38958e-15
1.38685e-09
0.00450646
0.102126
0.204654
0.237787
0.231829
0.193261
0.164967
0.131869
0.114087
0.0845815
0.040528
0.0188501
0.0105565
5.41512e-24
8.89197e-20
2.11417e-19
8.42396e-19
4.52271e-18
1.41935e-17
3.26403e-16
7.08365e-15
4.74638e-09
0.00717893
0.117768
0.213375
0.238013
0.227323
0.188801
0.16242
0.130752
0.113729
0.0849491
0.0419315
0.0199611
0.010667
5.35947e-24
4.22796e-20
1.37811e-19
7.42881e-19
4.58494e-18
1.54537e-17
4.58254e-16
1.12957e-14
1.44517e-08
0.0109724
0.132559
0.21991
0.237008
0.22303
0.185128
0.160414
0.12981
0.113227
0.08508
0.0433939
0.0211238
0.0107831
5.36561e-24
8.84593e-20
2.10343e-19
8.57251e-19
4.93668e-18
1.60482e-17
6.77992e-16
1.85075e-14
4.28048e-08
0.0161508
0.14626
0.22451
0.23518
0.219018
0.182063
0.158809
0.129009
0.112618
0.0849537
0.0448946
0.0223171
0.0109032
5.30592e-24
4.14868e-20
1.32577e-19
7.51627e-19
5.01014e-18
1.74628e-17
9.80476e-16
2.99185e-14
2.19765e-07
0.0230623
0.158874
0.227515
0.232851
0.215418
0.179533
0.157499
0.128337
0.111933
0.0845642
0.0463928
0.0234933
0.0110282
5.31244e-24
8.52652e-20
2.0383e-19
8.62085e-19
5.38119e-18
1.8187e-17
1.47474e-15
5.746e-14
1.15632e-05
0.0321666
0.17044
0.229221
0.230268
0.212187
0.177397
0.15642
0.127797
0.11121
0.0838999
0.0478953
0.0246334
0.0111563
5.24598e-24
4.16159e-20
1.27327e-19
7.57703e-19
5.48268e-18
1.98572e-17
2.14237e-15
4.65033e-13
0.00023022
0.0441849
0.181156
0.229959
0.227609
0.209387
0.175622
0.155526
0.127398
0.110478
0.0829653
0.049399
0.0256999
0.0112883
5.2494e-24
5.37913e-20
1.54726e-19
7.99504e-19
5.76897e-18
2.06395e-17
3.2016e-15
2.31294e-11
0.00187263
0.0600026
0.191167
0.229987
0.225001
0.206959
0.174116
0.154802
0.127158
0.109772
0.0817635
0.0509502
0.0266961
0.011422
5.17257e-24
4.32815e-20
1.14474e-19
7.24279e-19
5.94035e-18
2.35448e-17
4.66265e-15
1.03288e-09
0.00799984
0.0802093
0.200643
0.229575
0.222523
0.204966
0.172889
0.154239
0.127099
0.109118
0.0803183
0.0525733
0.0276134
0.0115584
5.16598e-24
1.93956e-21
1.12094e-20
4.00659e-19
5.4492e-18
2.44384e-17
7.20726e-15
1.84406e-07
0.0226369
0.104788
0.209593
0.228912
0.220215
0.203362
0.171886
0.153851
0.127241
0.108544
0.0786568
0.0543071
0.02849
0.0116955
5.07781e-24
1.7117e-20
4.47739e-20
4.17384e-19
5.46224e-18
3.62072e-17
1.80057e-14
5.38671e-05
0.0493004
0.13329
0.217991
0.228203
0.218081
0.202236
0.171157
0.153652
0.127605
0.108065
0.0768328
0.0560951
0.0293398
0.0118345
5.03904e-24
6.72038e-22
8.45942e-23
2.35249e-19
5.06638e-18
8.28184e-17
3.70787e-13
0.0013511
0.090418
0.164922
0.225639
0.227581
0.216096
0.201547
0.170665
0.15368
0.128212
0.107691
0.0749063
0.0577657
0.0301631
0.011976
4.83827e-24
2.1033e-19
4.5815e-19
1.02956e-18
7.26069e-18
9.1358e-16
7.18231e-12
0.00884647
0.147011
0.199209
0.232688
0.227302
0.214233
0.201381
0.170459
0.153952
0.129058
0.107359
0.0729519
0.0588823
0.0306547
0.0121338
0.00987657
0.0308356
0.0323599
0.0122532
0.00936234
0.00931558
0.00947572
0.0098843
0.00987881
0.0104815
0.0152813
0.0147836
0.0138357
0.0137137
0.0143265
0.0157865
0.0175671
0.0187176
0.017914
0.0148674
0.0127895
0.0123901
0.0124674
0.0126716
0.0130002
0.0133929
0.0138857
0.0146353
0.0153869
0.0150509
0.0118234
0.0533276
0.130709
0.150184
0.16894
0.00986353
0.0313895
0.0314591
0.0119133
0.00925496
0.00919827
0.00955568
0.00999587
0.0099116
0.0105039
0.0149536
0.0143835
0.0134642
0.0133249
0.0139554
0.0154735
0.0174306
0.0188261
0.0181226
0.0148721
0.0125973
0.0121509
0.0122345
0.0124488
0.0127856
0.0131801
0.0136686
0.0144138
0.0151838
0.0148466
0.0117572
0.0527303
0.130552
0.150097
0.168873
0.00983842
0.0318993
0.0298902
0.0113283
0.00918505
0.00907539
0.00977219
0.0102394
0.0100185
0.0105763
0.0138269
0.0130958
0.0124043
0.0122257
0.0125051
0.0135374
0.015179
0.0166444
0.016509
0.0138968
0.0119449
0.0115877
0.0117264
0.0119809
0.0123436
0.0127477
0.0132326
0.0139705
0.0147739
0.0144374
0.0118619
0.0520628
0.13018
0.149865
0.168684
0.00979929
0.032355
0.0278888
0.0107718
0.00920724
0.00903787
0.0100932
0.0104961
0.0101786
0.0107125
0.0126002
0.0116661
0.0111797
0.0110862
0.0110859
0.0114985
0.0124949
0.0136886
0.0140144
0.0123244
0.0109299
0.0107287
0.0109514
0.0112698
0.0116775
0.0121036
0.0125896
0.0133168
0.0141644
0.0138364
0.0119843
0.0511822
0.129585
0.149486
0.168371
0.00974597
0.032629
0.025594
0.0102287
0.00922268
0.0090084
0.0103893
0.0106599
0.0102933
0.0108074
0.011544
0.010429
0.0101406
0.0102366
0.0100809
0.00993869
0.0102127
0.0108953
0.0113676
0.0104869
0.00965941
0.00962203
0.00993474
0.0103311
0.0108017
0.0112657
0.0117617
0.0124749
0.0133713
0.013065
0.0120057
0.0499666
0.128768
0.148976
0.167949
0.00967615
0.0326097
0.0231178
0.00963615
0.00915604
0.00891304
0.0105558
0.0106679
0.0102812
0.0107511
0.0106371
0.00940219
0.00928786
0.00958036
0.00938693
0.00885801
0.00852166
0.00864343
0.00899072
0.00863265
0.00824596
0.00833642
0.00872297
0.00919668
0.00974197
0.0102602
0.0107785
0.0114765
0.0124188
0.0121516
0.0118394
0.0483219
0.127735
0.148358
0.167442
0.00959042
0.0322219
0.0205771
0.00898089
0.008996
0.00873328
0.0105516
0.0105066
0.0101104
0.0104927
0.00978716
0.00848825
0.00848403
0.00889584
0.00875148
0.00803448
0.00728926
0.00694386
0.00703566
0.006916
0.00679843
0.00695932
0.00738496
0.00791769
0.00853696
0.00912155
0.00967576
0.0103598
0.0113382
0.0111298
0.0114303
0.0461893
0.126496
0.147661
0.166878
0.00948687
0.0314083
0.0180902
0.00829892
0.00877624
0.00849215
0.0103906
0.0101998
0.00979277
0.0100421
0.00893507
0.0076143
0.00763335
0.0080542
0.00799987
0.00726228
0.00631194
0.00565147
0.00548461
0.00541313
0.00541641
0.00559057
0.00601059
0.0065664
0.00724103
0.00789308
0.00849384
0.00916732
0.0101669
0.0100371
0.0107572
0.043552
0.125063
0.146919
0.16629
0.00936733
0.0301569
0.0157575
0.0076466
0.00854588
0.00823041
0.0101168
0.00978915
0.0093633
0.00944515
0.00807452
0.00676098
0.00672625
0.00706093
0.00709518
0.00644485
0.00544685
0.00461899
0.00426173
0.00415572
0.00418612
0.00433252
0.00470353
0.00523465
0.00592605
0.00662912
0.00727813
0.00794464
0.00894673
0.00891322
0.00983428
0.0404406
0.12345
0.146168
0.165713
0.0092307
0.0284741
0.0136534
0.00707744
0.00835184
0.00799057
0.00978458
0.00932369
0.0088673
0.00876162
0.00722852
0.00594254
0.0058056
0.00599672
0.00608891
0.00557574
0.00463415
0.0037587
0.00330315
0.00315713
0.00317538
0.00327554
0.00356683
0.00402506
0.00467951
0.00539624
0.00608
0.00673921
0.00772287
0.00779788
0.00871118
0.0369363
0.121673
0.145444
0.165182
0.00908003
0.0264105
0.0118234
0.00663252
0.00823205
0.00780982
0.00944772
0.008851
0.0083499
0.00805012
0.00642859
0.00518344
0.00492838
0.00495989
0.00506906
0.0046999
0.00387539
0.00304256
0.00257605
0.00242119
0.00242428
0.0024801
0.00268147
0.00303281
0.00359491
0.004271
0.00495715
0.00560012
0.00654233
0.00672959
0.00746975
0.0331696
0.119757
0.144781
0.164732
0.00891508
0.024031
0.010292
0.00633921
0.00821589
0.00771804
0.00915461
0.008415
0.00785336
0.0073619
0.00570338
0.00450629
0.00414292
0.00403147
0.0041221
0.00387811
0.00320072
0.00247352
0.00206158
0.00193199
0.00193233
0.00195863
0.00208212
0.00231927
0.00275167
0.00333025
0.0039709
0.00457704
0.00545249
0.00574405
0.00621478
0.029312
0.117734
0.144215
0.164395
0.00874002
0.0214387
0.00906698
0.00621381
0.00832702
0.00773856
0.00894614
0.00805309
0.00741426
0.00673841
0.00507439
0.00392809
0.00348156
0.00326523
0.00331746
0.00316881
0.002645
0.00205645
0.00173139
0.00164495
0.00165517
0.00167077
0.00174407
0.0018886
0.00218825
0.00263198
0.00317723
0.00371676
0.00449883
0.00487301
0.00505809
0.02556
0.115654
0.143778
0.164202
0.00855535
0.0187436
0.00814768
0.00626508
0.00858693
0.00789029
0.00885593
0.00779579
0.00706366
0.00621163
0.00455705
0.00346031
0.00296008
0.0026853
0.00269718
0.00261278
0.00222881
0.00177923
0.00154026
0.00149676
0.00152413
0.00154539
0.0015998
0.00168973
0.00188644
0.00219327
0.00261125
0.00305535
0.00372053
0.00414287
0.00409713
0.0221122
0.113587
0.143499
0.16418
0.00836592
0.0160796
0.00752651
0.00649807
0.00901831
0.00819111
0.00891104
0.00766715
0.00682611
0.00580453
0.00416199
0.0031088
0.00258033
0.00228937
0.00227235
0.00222496
0.00194981
0.00161178
0.0014377
0.00142742
0.00147437
0.00151284
0.00157439
0.00164831
0.0017865
0.00198424
0.00227312
0.00260758
0.00314371
0.00357253
0.0033931
0.0191405
0.111632
0.143405
0.164353
0.00817267
0.0135725
0.0071934
0.00691835
0.00964798
0.00866362
0.00913605
0.00768718
0.00672104
0.00553346
0.00389712
0.00287499
0.00233319
0.0020539
0.00202391
0.00199156
0.0017842
0.0015167
0.00138176
0.00139429
0.00146111
0.00152355
0.00160946
0.00169717
0.00181898
0.00194713
0.00212915
0.00236085
0.00277436
0.00317052
0.00295853
0.0167632
0.109914
0.143522
0.164743
0.00798033
0.0113413
0.00714202
0.00753677
0.0105106
0.00934245
0.00955801
0.00787531
0.00676445
0.00540999
0.00376761
0.00275676
0.00220248
0.0019439
0.00191344
0.00187882
0.00169731
0.00146062
0.00134511
0.00137462
0.00146181
0.00155169
0.00167055
0.00178951
0.00192556
0.002021
0.0021289
0.00228125
0.00259689
0.00293277
0.00276418
0.0150291
0.108572
0.143869
0.165366
0.00778933
0.00948123
0.00738204
0.00837793
0.0116508
0.010278
0.0102122
0.00825622
0.00697302
0.00544454
0.00377881
0.00275027
0.0021695
0.00192184
0.00189533
0.00184476
0.00165434
0.00141997
0.00131419
0.00136037
0.00147008
0.00158942
0.00174389
0.00190034
0.00206662
0.00215598
0.00222277
0.00232739
0.00258112
0.00284339
0.00276146
0.0139285
0.107747
0.144466
0.166239
0.00760307
0.00804797
0.00794957
0.00948048
0.0131276
0.0115395
0.0111462
0.00886426
0.00736725
0.00564929
0.00393798
0.00285239
0.00221765
0.00195551
0.00192768
0.00185031
0.00162774
0.00138185
0.00128479
0.00135137
0.00148735
0.00163819
0.00182815
0.00202087
0.00222089
0.00231866
0.00237207
0.00246209
0.00269267
0.00287897
0.00290422
0.0134269
0.107556
0.145327
0.167372
0.00742066
0.00704386
0.00892446
0.0108941
0.0150144
0.0132145
0.0124204
0.00974629
0.00797522
0.00604185
0.00425858
0.00306458
0.00233657
0.00202181
0.00197763
0.00186532
0.00160035
0.00134196
0.00125766
0.00135002
0.00151715
0.00170201
0.00192658
0.00215081
0.00238036
0.00249145
0.00255241
0.00265809
0.00290052
0.00301426
0.00316052
0.0134968
0.108079
0.146467
0.168774
0.00724378
0.00642486
0.010428
0.0126867
0.0173974
0.0154033
0.0141054
0.0109598
0.0088325
0.00664617
0.00476168
0.00339658
0.0025259
0.00211007
0.00202572
0.0018722
0.0015654
0.00130147
0.00123523
0.0013588
0.00156241
0.00178414
0.0020424
0.0022924
0.00254434
0.00266864
0.00275254
0.00289902
0.00318047
0.00322698
0.00351569
0.0141326
0.109347
0.147893
0.170453
0.00707145
0.00614046
0.0126142
0.0149499
0.0203769
0.0182143
0.016278
0.012569
0.00998042
0.00749201
0.00547678
0.00386917
0.00279806
0.00222246
0.00206524
0.001865
0.00152405
0.00126433
0.00122032
0.00137939
0.00162491
0.00188622
0.00217704
0.00244743
0.00271516
0.00285175
0.00297074
0.00317738
0.0035158
0.00350109
0.00397113
0.0153523
0.111341
0.149614
0.172413
0.00690537
0.00614547
0.015661
0.0178132
0.0240757
0.0217668
0.0190208
0.0146394
0.0114633
0.00860963
0.00643445
0.00451212
0.00317896
0.00237547
0.00210194
0.00184748
0.0014822
0.0012354
0.00121559
0.00141285
0.00170539
0.00200843
0.00233015
0.00261642
0.00289592
0.00304594
0.00321091
0.00349157
0.00389653
0.00382843
0.00454184
0.0171929
0.114006
0.151632
0.174658
0.00674534
0.00641195
0.0197475
0.0214664
0.0286542
0.0262007
0.0224262
0.0172341
0.0133212
0.0100225
0.0076551
0.00535477
0.00370188
0.00259839
0.00215033
0.00182878
0.00144755
0.00121959
0.0012239
0.0014597
0.00180372
0.00214978
0.0025002
0.0027991
0.00308985
0.00325779
0.0034795
0.00384314
0.00431837
0.00420931
0.00525427
0.0197037
0.11726
0.153949
0.177188
0.00659312
0.00692334
0.0250217
0.0261776
0.0343188
0.0316788
0.0265941
0.0204066
0.0155812
0.0117355
0.00913143
0.00640793
0.00439143
0.00292923
0.00223299
0.00182106
0.00142764
0.00122159
0.00124851
0.00152041
0.00191893
0.00230852
0.00268521
0.00299518
0.00330031
0.00349421
0.00378344
0.00423492
0.00478188
0.00465227
0.0061447
0.0229389
0.121012
0.156566
0.180002
0.00644962
0.00767067
0.0315712
0.0322906
0.0413058
0.0383599
0.0316095
0.024183
0.0182427
0.0137223
0.0108157
0.00764435
0.00523961
0.00339591
0.00237563
0.00183655
0.00142914
0.00124597
0.00129356
0.00159556
0.00204938
0.00248238
0.00288339
0.00320501
0.00353111
0.00376185
0.00412898
0.00467006
0.00529207
0.00517352
0.00725823
0.0269484
0.12517
0.159479
0.183097
0.00631698
0.00864172
0.0394047
0.0401898
0.0498314
0.0463301
0.0374901
0.0285267
0.0212527
0.01591
0.0126105
0.00898687
0.00618912
0.00398929
0.00259941
0.00188698
0.00145785
0.00129732
0.00136408
0.00168666
0.002193
0.00266904
0.00309365
0.00342999
0.0037866
0.00406684
0.00452111
0.00515182
0.0058584
0.00579623
0.00864789
0.0317691
0.129651
0.162685
0.18647
0.00619775
0.00982553
0.0484864
0.0502406
0.0600161
0.0555103
0.0441183
0.0332963
0.0244808
0.0181681
0.0143717
0.0103104
0.00713475
0.00464228
0.0029005
0.00197965
0.00151893
0.00138059
0.00146614
0.0017966
0.00234799
0.00286665
0.00331597
0.0036727
0.00407158
0.00441454
0.00496342
0.00568381
0.00649481
0.00654999
0.0103738
0.0374159
0.134387
0.16618
0.190112
0.00609509
0.0112138
0.0588123
0.0627279
0.0718055
0.0655792
0.0511848
0.0382159
0.0277051
0.0203077
0.0159187
0.0114568
0.00794271
0.00524444
0.00323617
0.00211285
0.00161631
0.00150089
0.00160636
0.0019306
0.00251373
0.00307446
0.00355167
0.00393682
0.0043911
0.00480936
0.00545814
0.00627057
0.00722008
0.00747038
0.0125019
0.0438761
0.139321
0.169955
0.194018
0.00601408
0.0128204
0.070489
0.0777819
0.0848943
0.0759405
0.0581767
0.0428789
0.0306226
0.0220962
0.0170556
0.0122578
0.00847654
0.00567444
0.00353062
0.00227003
0.0017509
0.0016628
0.00179152
0.00209626
0.0026918
0.00329329
0.00380344
0.00422688
0.0047501
0.00525453
0.00600642
0.00691822
0.00805792
0.00859879
0.0151018
0.0511062
0.144409
0.174005
0.198177
0.00596079
0.014686
0.0837145
0.0952339
0.0986438
0.085738
0.0644144
0.0467862
0.0328822
0.0232871
0.017599
0.0125641
0.00862549
0.00583794
0.00370971
0.00242432
0.00191879
0.00186858
0.00202669
0.0023035
0.00288699
0.00352609
0.00407528
0.00454785
0.00515304
0.00575197
0.00660868
0.00763511
0.0090374
0.00998226
0.018244
0.0590336
0.14962
0.178322
0.202578
0.00594609
0.0168943
0.0986701
0.114384
0.112014
0.0939287
0.0691408
0.0494202
0.0341426
0.0236626
0.0174126
0.0122768
0.00833152
0.00569131
0.00373074
0.00254951
0.0021112
0.0021162
0.00231326
0.00256262
0.00310766
0.00377792
0.00437219
0.00490478
0.00560352
0.00630216
0.00726504
0.00843237
0.0101932
0.0116735
0.0219967
0.0675612
0.154933
0.182897
0.207213
0.00598322
0.0195581
0.115277
0.133787
0.123592
0.0994305
0.0716524
0.0503398
0.0341388
0.0230817
0.0164437
0.0113807
0.00761451
0.005261
0.00360099
0.00263432
0.00231733
0.00239806
0.00264608
0.00288185
0.00336556
0.00405606
0.00469989
0.00530223
0.00610396
0.00690418
0.00797572
0.00932432
0.0115659
0.0137305
0.0264222
0.0765761
0.160333
0.187726
0.212071
0.00609167
0.0228219
0.132958
0.151292
0.131804
0.101351
0.0714583
0.0492853
0.0327513
0.021525
0.0147544
0.00996911
0.00658537
0.00464173
0.00337097
0.0026851
0.00252787
0.00270171
0.00301263
0.00326291
0.00367438
0.00436934
0.00506425
0.00574383
0.00665536
0.00755572
0.00874138
0.0103289
0.0132028
0.0162165
0.031573
0.0859589
0.165817
0.192806
0.217146
0.00628805
0.026825
0.150497
0.164492
0.135302
0.0992284
0.0684147
0.0462547
0.0300485
0.0191179
0.0125305
0.00824598
0.00543262
0.00397506
0.00311607
0.002722
0.00273722
0.00301228
0.00339434
0.00369849
0.00404723
0.00472746
0.00547069
0.00623171
0.00725706
0.00825323
0.00956339
0.0114677
0.0151584
0.0191993
0.0374898
0.0955946
0.171386
0.198138
0.222436
0.00658505
0.0317033
0.166271
0.171458
0.133376
0.0931883
0.0627848
0.0415276
0.0262913
0.0161192
0.0100568
0.00648695
0.00436794
0.00339717
0.00290459
0.0027666
0.00294221
0.00331509
0.00377059
0.00417076
0.00449251
0.00513922
0.00592334
0.00676603
0.00790672
0.00899212
0.010444
0.0127667
0.017495
0.0227508
0.0442001
0.105382
0.177051
0.203732
0.227944
0.00697682
0.0375052
0.178638
0.171311
0.126165
0.0839172
0.0551812
0.0356058
0.0218801
0.0128706
0.00765539
0.00495799
0.00354696
0.00299072
0.00277702
0.00283344
0.00314015
0.00359806
0.00412333
0.00465588
0.00500958
0.00561061
0.00642417
0.00734454
0.00860032
0.00976703
0.0113865
0.0142562
0.0202835
0.0269463
0.051719
0.11524
0.182833
0.209603
0.233679
0.00744499
0.0441361
0.186327
0.164344
0.114561
0.0724711
0.0464148
0.0291006
0.0172706
0.00972474
0.00560614
0.00382254
0.00301695
0.00276569
0.00273662
0.00292257
0.00332611
0.00385239
0.00444024
0.00512845
0.00558553
0.00614176
0.00697204
0.00796251
0.00933245
0.0105722
0.0123954
0.0159715
0.0236043
0.0318644
0.0600521
0.125118
0.188758
0.21578
0.239662
0.00795396
0.051107
0.188456
0.151663
0.0998923
0.0600014
0.0373083
0.0226019
0.012882
0.00697707
0.00407377
0.00309645
0.00273218
0.00268118
0.00275945
0.00302275
0.00349403
0.00407359
0.00471642
0.00556908
0.00619585
0.00672501
0.00756214
0.00861294
0.0100968
0.0114021
0.0134763
0.0179533
0.0275479
0.0375872
0.0692001
0.134996
0.194866
0.2223
0.245922
0.00846726
0.0574494
0.184467
0.134717
0.0835555
0.0475252
0.0285517
0.0165864
0.00903855
0.00482235
0.0030708
0.00268696
0.00260689
0.00267411
0.00280747
0.0031166
0.00363791
0.00426063
0.00495322
0.00596536
0.0068084
0.0073436
0.00818585
0.00928734
0.0108868
0.0122519
0.0146368
0.0202483
0.0322155
0.0442015
0.0791651
0.144888
0.201204
0.229213
0.252498
0.00894498
0.061643
0.174015
0.114945
0.0667657
0.0357988
0.0206324
0.0113819
0.00595253
0.00332858
0.0024832
0.00247193
0.00255659
0.00268588
0.00284749
0.00319096
0.00375516
0.0044162
0.00515721
0.00631494
0.00739071
0.00797387
0.00883179
0.00997704
0.0116969
0.0131188
0.0158865
0.02291
0.0377192
0.0518003
0.0899573
0.15484
0.20783
0.236577
0.259439
0.0093615
0.0621139
0.157065
0.0936793
0.0504868
0.0253203
0.0138531
0.00719075
0.00373251
0.00241999
0.00215679
0.00234946
0.00251651
0.00267462
0.00285849
0.00323938
0.00384633
0.00454462
0.00533715
0.00662127
0.00791615
0.00858908
0.00948748
0.0106746
0.0125233
0.0140023
0.0172376
0.025999
0.0441818
0.0604854
0.101602
0.164934
0.214808
0.244459
0.266801
0.0096768
0.0574938
0.133939
0.0721845
0.0355166
0.0164269
0.00840892
0.0041374
0.00235856
0.00191642
0.00196575
0.00224893
0.00244615
0.00261976
0.0028352
0.0032642
0.00391577
0.00465212
0.00550361
0.00689456
0.00836946
0.0091659
0.0101418
0.0113755
0.0133647
0.0149055
0.0187052
0.0295833
0.0517357
0.0703698
0.114146
0.175276
0.222206
0.252929
0.274645
0.00988074
0.0476255
0.105723
0.051629
0.022536
0.00935432
0.00443491
0.00224072
0.00162296
0.00162912
0.00181805
0.00212059
0.00231969
0.00250971
0.00277513
0.00326546
0.00396372
0.00474033
0.0056654
0.00714727
0.00874811
0.00968772
0.0107867
0.0120782
0.0142233
0.0158351
0.020308
0.0337379
0.0605204
0.0815789
0.12766
0.186002
0.230097
0.262058
0.283033
4.8824e-24
3.15126e-19
1.14069e-18
4.30672e-18
2.49658e-17
3.15021e-14
9.02659e-11
0.0331646
0.200572
0.22589
0.237356
0.227389
0.212931
0.201676
0.170549
0.154429
0.129959
0.107007
0.0715022
0.0590653
0.0302762
0.0121405
4.99608e-24
7.39356e-20
8.34917e-20
6.23984e-18
6.23484e-17
2.45469e-13
9.2242e-10
0.0629815
0.237131
0.24205
0.239462
0.227349
0.212154
0.202112
0.170883
0.154967
0.130839
0.106818
0.0707932
0.0588296
0.0298474
0.0121888
5.10222e-24
2.76623e-19
8.77771e-19
8.89661e-18
1.22131e-16
9.26995e-13
9.30735e-09
0.0986196
0.269831
0.255321
0.240797
0.227261
0.211555
0.202711
0.171444
0.155682
0.131932
0.106726
0.0704561
0.0582205
0.0293173
0.0123469
5.06195e-24
5.72601e-20
2.14776e-20
6.84936e-18
1.922e-16
2.27662e-12
1.69514e-07
0.136232
0.298017
0.266055
0.241846
0.227255
0.211215
0.203526
0.172278
0.156553
0.133197
0.106738
0.0704798
0.0572706
0.0287204
0.0126036
5.16584e-24
2.21315e-19
6.32247e-19
7.23049e-18
2.88145e-16
3.60848e-12
6.55388e-06
0.169975
0.321578
0.274624
0.242958
0.227427
0.211209
0.204538
0.173358
0.157568
0.134592
0.106856
0.0708317
0.0560513
0.0281021
0.0129504
5.11401e-24
4.59245e-20
1.20677e-20
4.61537e-18
4.09698e-16
4.86999e-12
1.8648e-05
0.193499
0.340633
0.28145
0.244418
0.227885
0.211598
0.20581
0.174729
0.15871
0.136069
0.107076
0.0714764
0.0546212
0.0274727
0.0134045
5.22935e-24
1.78695e-19
4.73388e-19
4.63687e-18
5.80307e-16
5.06006e-12
3.44828e-05
0.203743
0.355472
0.286881
0.246386
0.228701
0.212436
0.207326
0.176364
0.159983
0.137584
0.107394
0.0723597
0.053063
0.0268579
0.0139795
5.17019e-24
3.80411e-20
7.88081e-21
2.77994e-18
7.72102e-16
4.37497e-12
2.57927e-05
0.201591
0.366331
0.291245
0.248988
0.229957
0.213757
0.209153
0.178317
0.16139
0.139101
0.107799
0.0734332
0.0514329
0.0262554
0.0146933
5.29804e-24
1.46663e-19
3.69568e-19
2.86138e-18
9.85797e-16
2.87968e-12
2.7409e-05
0.19026
0.37342
0.294752
0.252249
0.231694
0.215589
0.211273
0.180562
0.162952
0.140597
0.108281
0.074637
0.0498047
0.0256845
0.0155495
5.22351e-24
3.24417e-20
5.88765e-21
1.68681e-18
1.14769e-15
1.68847e-12
3.52825e-05
0.172794
0.376753
0.297562
0.256191
0.233966
0.217945
0.213749
0.183155
0.16469
0.142065
0.108827
0.0759265
0.0482198
0.0251362
0.0165518
5.35783e-24
1.21934e-19
2.97398e-19
1.84218e-18
1.25207e-15
8.52238e-13
4.01226e-05
0.151182
0.376231
0.299696
0.260745
0.236789
0.220831
0.216552
0.186069
0.166641
0.143518
0.109428
0.0772496
0.0467358
0.024626
0.0176858
5.27114e-24
2.84277e-20
4.69192e-21
1.0805e-18
1.2386e-15
4.1636e-13
4.10832e-05
0.127258
0.371533
0.30111
0.265852
0.240195
0.224248
0.219736
0.189359
0.168836
0.144985
0.110072
0.0785768
0.0453765
0.0241407
0.0189361
5.41227e-24