/*--------------------------------*- C++ -*----------------------------------*\
| =========                 |                                                 |
| \\      /  F ield         | OpenFOAM: The Open Source CFD Toolbox           |
|  \\    /   O peration     | Version:  v1912                                 |
|   \\  /    A nd           | Website:  www.openfoam.com                      |
|    \\/     M anipulation  |                                                 |
\*---------------------------------------------------------------------------*/
FoamFile
{
    version     2.0;
    format      ascii;
    class       volScalarField;
    location    "410";
    object      p;
}
// * * * * * * * * * * * * * * * * * * * * * * * * * * * * * * * * * * * * * //

dimensions      [0 2 -2 0 0 0 0];


internalField   nonuniform List<scalar> 
12441
(
8.90279
9.20279
10.0591
11.3913
13.1166
15.2817
17.9799
21.314
25.473
30.6146
36.9576
44.7515
54.4485
66.2764
81.9177
101.479
129.643
164.919
222.203
284.842
375.777
438.268
8.90278
9.20278
10.0591
11.3912
13.1165
15.2817
17.9798
21.3139
25.4729
30.6144
36.9572
44.7509
54.4476
66.2747
81.9147
101.472
129.627
164.894
222.122
284.766
375.73
438.075
8.90276
9.20276
10.0591
11.3912
13.1165
15.2816
17.9797
21.3137
25.4726
30.6139
36.9565
44.7497
54.4456
66.2712
81.9087
101.458
129.602
164.837
221.954
284.586
375.6
437.725
8.90274
9.20274
10.059
11.3912
13.1164
15.2815
17.9795
21.3134
25.4721
30.6132
36.9554
44.7479
54.4427
66.266
81.8997
101.437
129.569
164.751
221.776
284.31
375.363
437.18
8.90271
9.2027
10.059
11.3911
13.1163
15.2813
17.9793
21.313
25.4715
30.6122
36.9539
44.7456
54.4388
66.259
81.8878
101.41
129.525
164.642
221.612
283.963
375.029
436.436
8.90267
9.20266
10.0589
11.391
13.1162
15.2811
17.979
21.3125
25.4708
30.611
36.952
44.7426
54.434
66.2503
81.8729
101.376
129.471
164.515
221.426
283.543
374.604
435.495
8.90262
9.2026
10.0589
11.3909
13.116
15.2809
17.9786
21.3119
25.4699
30.6096
36.9498
44.7391
54.4282
66.2398
81.8551
101.336
129.407
164.365
221.208
283.054
374.091
434.356
8.90257
9.20254
10.0588
11.3908
13.1158
15.2806
17.9782
21.3112
25.4689
30.608
36.9472
44.7349
54.4214
66.2276
81.8344
101.29
129.337
164.195
220.971
282.508
373.495
433.015
8.9025
9.20247
10.0587
11.3906
13.1156
15.2803
17.9777
21.3104
25.4677
30.6061
36.9443
44.7302
54.4136
66.2138
81.8113
101.24
129.266
164.012
220.735
281.915
372.82
431.469
8.90243
9.20239
10.0586
11.3905
13.1154
15.28
17.9772
21.3095
25.4663
30.6039
36.941
44.7249
54.4049
66.1983
81.787
101.189
129.199
163.828
220.524
281.288
372.067
429.713
8.90235
9.2023
10.0585
11.3903
13.1151
15.2796
17.9766
21.3085
25.4649
30.6016
36.9373
44.7189
54.3953
66.1816
81.7629
101.144
129.153
163.662
220.371
280.636
371.233
427.738
8.90227
9.2022
10.0583
11.3901
13.1148
15.2791
17.9759
21.3074
25.4632
30.599
36.9332
44.7124
54.3847
66.1645
81.7428
101.116
129.163
163.553
220.307
279.962
370.312
425.536
8.90217
9.20209
10.0582
11.3899
13.1145
15.2786
17.9752
21.3062
25.4614
30.5961
36.9288
44.7053
54.3735
66.1496
81.7369
101.13
129.276
163.549
220.34
279.26
369.295
423.096
8.90207
9.20198
10.058
11.3897
13.1142
15.2781
17.9744
21.3049
25.4595
30.5931
36.924
44.6977
54.3623
66.1418
81.7621
101.217
129.541
163.69
220.44
278.51
368.173
420.403
8.90196
9.20185
10.0579
11.3894
13.1138
15.2776
17.9736
21.3035
25.4574
30.5897
36.9188
44.6894
54.3529
66.1505
81.8378
101.401
129.98
163.981
220.544
277.687
366.936
417.446
8.90184
9.20172
10.0577
11.3892
13.1134
15.277
17.9727
21.302
25.4552
30.5862
36.9132
44.6809
54.3484
66.1875
81.9792
101.691
130.57
164.365
220.577
276.765
365.575
414.21
8.90171
9.20157
10.0575
11.3889
13.113
15.2763
17.9717
21.3005
25.4528
30.5824
36.9073
44.6727
54.3547
66.2622
82.1899
102.075
131.237
164.74
220.479
275.725
364.083
410.681
8.90158
9.20142
10.0573
11.3886
13.1125
15.2757
17.9707
21.2988
25.4503
30.5783
36.9009
44.6659
54.3788
66.3789
82.4602
102.514
131.869
164.995
220.22
274.556
362.455
406.844
8.90144
9.20126
10.0571
11.3883
13.1121
15.2749
17.9696
21.297
25.4476
30.574
36.8941
44.6629
54.4266
66.5328
82.7674
102.953
132.348
165.053
219.803
273.254
360.686
402.684
8.90129
9.20109
10.0569
11.3879
13.1116
15.2742
17.9684
21.2951
25.4448
30.5695
36.8869
44.6672
54.4999
66.7134
83.0803
103.331
132.582
164.901
219.253
271.824
358.774
398.185
8.90113
9.20091
10.0567
11.3876
13.111
15.2734
17.9672
21.2931
25.4418
30.5647
36.8798
44.6831
54.5953
66.9052
83.3631
103.591
132.541
164.58
218.6
270.273
356.718
393.331
8.90097
9.20072
10.0564
11.3872
13.1105
15.2726
17.966
21.291
25.4387
30.5597
36.8731
44.7137
54.705
67.0922
83.5848
103.702
132.261
164.152
217.872
268.608
354.519
388.105
8.90079
9.20053
10.0562
11.3868
13.1099
15.2717
17.9646
21.2888
25.4354
30.5543
36.8679
44.7592
54.8206
67.2582
83.7234
103.663
131.82
163.675
217.088
266.839
352.178
382.491
8.90061
9.20032
10.0559
11.3864
13.1093
15.2708
17.9632
21.2865
25.432
30.5487
36.8658
44.8169
54.9328
67.3916
83.7729
103.498
131.307
163.182
216.258
264.974
349.697
376.469
8.90042
9.20011
10.0556
11.386
13.1087
15.2698
17.9618
21.2841
25.4284
30.5428
36.869
44.8822
55.0351
67.4836
83.7406
103.249
130.791
162.686
215.387
263.023
347.078
370.019
8.90022
9.19988
10.0553
11.3856
13.108
15.2688
17.9603
21.2816
25.4247
30.5366
36.879
44.9501
55.1216
67.533
83.645
102.956
130.31
162.183
214.475
260.995
344.325
363.121
8.90002
9.19965
10.055
11.3851
13.1073
15.2678
17.9587
21.2791
25.4208
30.5303
36.8966
45.0162
55.1895
67.5418
83.507
102.653
129.874
161.667
213.524
258.901
341.44
355.752
8.89981
9.19941
10.0547
11.3846
13.1066
15.2667
17.9571
21.2764
25.4167
30.5241
36.9212
45.0769
55.2367
67.5175
83.3469
102.36
129.475
161.133
212.531
256.749
338.424
347.888
8.89959
9.19916
10.0544
11.3841
13.1059
15.2656
17.9554
21.2736
25.4124
30.5181
36.9509
45.1298
55.2642
67.4673
83.1791
102.086
129.101
160.577
211.497
254.544
335.277
339.503
8.89936
9.1989
10.054
11.3836
13.1051
15.2645
17.9537
21.2707
25.408
30.5125
36.9834
45.1734
55.2729
67.4001
83.0133
101.83
128.742
159.998
210.42
252.293
331.997
330.567
8.89912
9.19863
10.0537
11.3831
13.1043
15.2633
17.9519
21.2677
25.4034
30.5075
37.0167
45.207
55.2658
67.3216
82.8535
101.59
128.389
159.397
209.302
249.996
328.58
321.051
8.89888
9.19836
10.0533
11.3826
13.1035
15.262
17.95
21.2646
25.3987
30.5035
37.0495
45.2304
55.2453
67.2379
82.7014
101.362
128.037
158.774
208.141
247.655
325.019
310.922
8.89863
9.19807
10.0529
11.382
13.1027
15.2608
17.9481
21.2614
25.3937
30.501
37.0805
45.244
55.2148
67.1513
82.5562
101.141
127.681
158.132
206.939
245.268
321.305
300.144
8.89837
9.19778
10.0526
11.3814
13.1018
15.2595
17.9461
21.2581
25.3886
30.5004
37.1087
45.2488
55.1763
67.0649
82.417
100.924
127.32
157.471
205.695
242.836
317.427
288.681
8.8981
9.19747
10.0522
11.3808
13.1009
15.2581
17.944
21.2546
25.3834
30.5022
37.1337
45.2456
55.1327
66.9787
82.2818
100.709
126.953
156.793
204.41
240.358
313.373
276.493
8.89782
9.19716
10.0518
11.3802
13.1
15.2567
17.9419
21.2511
25.378
30.5071
37.1553
45.2357
55.0852
66.8942
82.1499
100.494
126.58
156.1
203.086
237.834
309.131
263.537
8.89754
9.19684
10.0513
11.3796
13.0991
15.2553
17.9397
21.2475
25.3725
30.5161
37.1737
45.2203
55.0356
66.8107
82.0196
100.278
126.201
155.392
201.722
235.27
304.691
249.772
8.89725
9.19651
10.0509
11.3789
13.0981
15.2538
17.9375
21.2438
25.3672
30.5313
37.1893
45.2007
54.9844
66.7292
81.8906
100.06
125.816
154.67
200.319
232.667
300.041
235.148
8.89695
9.19617
10.0505
11.3783
13.0971
15.2523
17.9352
21.2399
25.3637
30.5536
37.2025
45.1777
54.9327
66.6486
81.7618
99.8396
125.426
153.936
198.881
230.032
295.174
219.619
8.89664
9.19582
10.05
11.3776
13.0961
15.2508
17.9329
21.2359
25.3655
30.5837
37.2136
45.1524
54.8806
66.57
81.6335
99.6175
125.031
153.19
197.41
227.371
290.084
203.13
8.89633
9.19547
10.0495
11.3769
13.095
15.2492
17.9305
21.2318
25.3783
30.6215
37.2228
45.1256
54.8287
66.4926
81.5048
99.3938
124.632
152.433
195.909
224.688
284.771
185.629
8.89601
9.1951
10.049
11.3762
13.0939
15.2476
17.928
21.2279
25.4078
30.6665
37.23
45.098
54.7765
66.4174
81.3765
99.1686
124.229
151.665
194.383
221.985
279.231
167.067
8.89567
9.19472
10.0486
11.3754
13.0928
15.2459
17.9254
21.2251
25.4573
30.7174
37.2349
45.0703
54.7244
66.3436
81.248
98.9424
123.823
150.885
192.835
219.258
273.44
147.358
8.89534
9.19434
10.0481
11.3747
13.0917
15.2442
17.9228
21.2277
25.526
30.7717
37.2372
45.043
54.6718
66.2727
81.1203
98.7159
123.414
150.089
191.275
216.497
267.316
125.757
-19.7504
-21.6557
-22.2989
-21.721
-18.8228
-17.3765
-15.8538
-15.1359
-13.9605
-11.7822
-8.54093
-5.00215
-1.98652
-1.29553
-1.94549
-2.00636
0.887827
6.37549
11.6509
14.0191
14.3586
12.91
11.2373
9.57915
7.95553
6.60442
5.17601
4.0339
1.67463
1.79963
-2.46959
-1.95789
1.84336
3.63996
1.22717
-19.7501
-21.638
-22.3253
-21.7244
-18.8226
-17.3745
-15.8535
-15.1348
-13.9594
-11.7815
-8.54041
-5.00352
-1.98647
-1.2932
-1.93982
-1.99721
0.898498
6.38435
11.656
14.0226
14.362
12.9132
11.2399
9.58123
7.95725
6.6059
5.17749
4.03514
1.67487
1.80445
-2.47124
-1.9691
1.82323
3.6397
1.2276
-19.7492
-21.6206
-22.3653
-21.7296
-18.8226
-17.3722
-15.8531
-15.1339
-13.9589
-11.781
-8.54043
-5.00332
-1.98448
-1.28853
-1.93045
-1.98077
0.922388
6.41123
11.6766
14.0343
14.3693
12.919
11.2445
9.58495
7.96036
6.60866
5.18018
4.03745
1.67581
1.81026
-2.47471
-1.97926
1.80328
3.63961
1.22806
-19.7478
-21.6106
-22.4177
-21.7368
-18.8237
-17.37
-15.8524
-15.133
-13.9586
-11.7806
-8.54057
-5.0021
-1.9815
-1.28337
-1.92064
-1.96197
0.95376
6.45187
11.7122
14.0551
14.3812
12.928
11.2516
9.59065
7.96511
6.61281
5.18417
4.04104
1.67753
1.81596
-2.47892
-1.9777
1.78522
3.63948
1.22851
-19.7461
-21.6123
-22.479
-21.7454
-18.8249
-17.3674
-15.8512
-15.1323
-13.9588
-11.7806
-8.54072
-5.00061
-1.97819
-1.27897
-1.91351
-1.94741
0.981226
6.49183
11.7515
14.0801
14.3964
12.9396
11.2609
9.59821
7.97138
6.61823
5.18932
4.04578
1.68006
1.82159
-2.48086
-1.96567
1.77002
3.63937
1.22897
-19.744
-21.6303
-22.5463
-21.7545
-18.8249
-17.3637
-15.8489
-15.1319
-13.9593
-11.7808
-8.54107
-4.99902
-1.97467
-1.27517
-1.90899
-1.93817
1.00095
6.52394
11.7871
14.1056
14.4134
12.9532
11.272
9.60731
7.97894
6.6247
5.19539
4.05144
1.68331
1.82731
-2.47853
-1.94388
1.75778
3.63931
1.22942
-19.7415
-21.6686
-22.6166
-21.7636
-18.8233
-17.3588
-15.8456
-15.1318
-13.9603
-11.7816
-8.54174
-4.99732
-1.97055
-1.27101
-1.90551
-1.93244
1.01413
6.54757
11.8161
14.1292
14.4308
12.9678
11.2843
9.61753
7.98747
6.63195
5.20214
4.05776
1.68716
1.8332
-2.47107
-1.91209
1.74831
3.63932
1.22988
-19.7386
-21.7299
-22.6873
-21.7723
-18.8203
-17.353
-15.8414
-15.1322
-13.9618
-11.7829
-8.54273
-4.99542
-1.96567
-1.26595
-1.90185
-1.92823
1.0232
6.56461
11.8387
14.1496
14.4474
12.9822
11.2968
9.62827
7.99658
6.63969
5.20928
4.0645
1.69142
1.83927
-2.45835
-1.87027
1.74155
3.63938
1.23034
-19.7353
-21.8157
-22.7559
-21.7807
-18.8165
-17.3467
-15.8367
-15.1331
-13.9638
-11.7848
-8.54409
-4.99333
-1.96008
-1.26
-1.89759
-1.92446
1.02994
6.57706
11.8556
14.1661
14.4617
12.9951
11.3085
9.63874
8.00574
6.64756
5.21655
4.07136
1.69593
1.84548
-2.44077
-1.81908
1.73744
3.63952
1.23081
-19.7319
-21.9258
-22.8201
-21.7891
-18.8122
-17.3406
-15.8319
-15.1345
-13.9664
-11.7875
-8.54575
-4.9912
-1.95416
-1.25362
-1.89293
-1.92081
1.03528
6.58613
11.8676
14.1781
14.4726
13.0053
11.3183
9.64806
8.01432
6.65515
5.22362
4.07804
1.70047
1.85175
-2.41914
-1.76008
1.73609
3.63972
1.23129
-19.7284
-22.0586
-22.8786
-21.7974
-18.8078
-17.335
-15.8275
-15.1364
-13.9696
-11.791
-8.54785
-4.98917
-1.94829
-1.2473
-1.88822
-1.91739
1.03945
6.59232
11.875
14.1851
14.4791
13.0119
11.3253
9.65537
8.02164
6.66198
5.23017
4.08425
1.70481
1.85798
-2.39471
-1.69559
1.73764
3.63998
1.23178
-19.7249
-22.2106
-22.9301
-21.8059
-18.8037
-17.3303
-15.8237
-15.1389
-13.9735
-11.7954
-8.55034
-4.9875
-1.94291
-1.24152
-1.8838
-1.91435
1.04247
6.59584
11.8781
14.1874
14.4812
13.0145
11.329
9.66009
8.02711
6.66759
5.23585
4.08969
1.7087
1.8641
-2.36896
-1.62861
1.74247
3.64031
1.23227
-19.7219
-22.3766
-22.974
-21.8144
-18.7999
-17.3268
-15.821
-15.1421
-13.9781
-11.8008
-8.55343
-4.98632
-1.9383
-1.23656
-1.87994
-1.91189
1.04428
6.59692
11.8776
14.1856
14.4792
13.0135
11.3293
9.66201
8.03039
6.6716
5.24037
4.09411
1.71192
1.87
-2.34337
-1.56249
1.75106
3.64071
1.23278
-19.7194
-22.5498
-23.0104
-21.8228
-18.7967
-17.3248
-15.8195
-15.146
-13.9836
-11.8072
-8.55713
-4.98586
-1.93474
-1.23265
-1.87681
-1.91008
1.04494
6.59595
11.8743
14.1805
14.474
13.0094
11.3269
9.66139
8.03147
6.67384
5.24351
4.09732
1.71425
1.87562
-2.31909
-1.50075
1.76419
3.64117
1.23329
-19.7177
-22.7222
-23.0399
-21.8308
-18.7944
-17.3244
-15.8195
-15.1508
-13.9901
-11.8148
-8.56168
-4.98615
-1.93227
-1.22978
-1.87447
-1.90896
1.04458
6.59343
11.8689
14.1731
14.4663
13.0033
11.3225
9.65882
8.03067
6.67442
5.24524
4.09925
1.71555
1.88095
-2.29668
-1.44658
1.78263
3.64171
1.23382
-19.7166
-22.8855
-23.0631
-21.8379
-18.7931
-17.3258
-15.8212
-15.1568
-13.9978
-11.8236
-8.56713
-4.98734
-1.93092
-1.22792
-1.87292
-1.90847
1.04345
6.58983
11.862
14.1639
14.457
12.9957
11.3168
9.65494
8.0285
6.67362
5.2457
4.09996
1.71578
1.88601
-2.27602
-1.40251
1.80719
3.64233
1.23436
-19.7166
-23.0323
-23.081
-21.8433
-18.7931
-17.3293
-15.8248
-15.1641
-14.0069
-11.8338
-8.57376
-4.98943
-1.93056
-1.22689
-1.87206
-1.90855
1.04181
6.58554
11.8539
14.1531
14.4461
12.987
11.3102
9.6503
8.02547
6.67187
5.2452
4.09964
1.71502
1.89088
-2.25649
-1.3699
1.83816
3.64306
1.23491
-19.7177
-23.1574
-23.0947
-21.8465
-18.7945
-17.335
-15.8306
-15.1732
-14.0176
-11.8457
-8.58169
-4.99255
-1.93115
-1.22656
-1.87179
-1.90903
1.03999
6.58085
11.8447
14.1408
14.4338
12.9773
11.3031
9.6452
8.02196
6.66952
5.24403
4.09855
1.71344
1.8957
-2.23731
-1.34863
1.87531
3.64389
1.23546
-19.7203
-23.2586
-23.1052
-21.8473
-18.7974
-17.3432
-15.8388
-15.1844
-14.0306
-11.8597
-8.59141
-4.99676
-1.93259
-1.22677
-1.87197
-1.90975
1.03822
6.57589
11.8343
14.1269
14.42
12.9666
11.2954
9.63977
8.01817
6.66684
5.24247
4.09694
1.71126
1.90055
-2.21784
-1.33713
1.91749
3.64486
1.23602
-19.7242
-23.3374
-23.1135
-21.8461
-18.8015
-17.3539
-15.8499
-15.1983
-14.0462
-11.8761
-8.60333
-5.00243
-1.93504
-1.22754
-1.87254
-1.91052
1.03676
6.57071
11.8227
14.1112
14.4044
12.9548
11.287
9.63399
8.01419
6.66398
5.2407
4.09499
1.70865
1.90553
-2.19773
-1.33311
1.96316
3.64595
1.23659
-19.7292
-23.3989
-23.1189
-21.8439
-18.8065
-17.3674
-15.8645
-15.2158
-14.0655
-11.8959
-8.61833
-5.00996
-1.93865
-1.22887
-1.87342
-1.91119
1.03569
6.56523
11.8097
14.0937
14.3871
12.9417
11.278
9.62783
8.01001
6.661
5.23883
4.09285
1.70572
1.91067
-2.17692
-1.33424
2.01051
3.64718
1.23716
-19.7349
-23.4498
-23.1199
-21.8417
-18.8118
-17.3839
-15.8831
-15.2378
-14.0893
-11.9198
-8.63725
-5.02018
-1.94395
-1.23108
-1.87467
-1.91162
1.0351
6.55935
11.7951
14.0741
14.368
12.9276
11.2682
9.62125
8.0056
6.65793
5.23691
4.0906
1.70259
1.91602
-2.15552
-1.33867
2.05814
3.64853
1.23772
-19.7405
-23.4947
-23.1157
-21.8408
-18.8171
-17.4036
-15.9066
-15.2656
-14.1189
-11.949
-8.66132
-5.03383
-1.95151
-1.23451
-1.87641
-1.91181
1.03488
6.55286
11.7787
14.0525
14.3472
12.9122
11.2578
9.61424
8.00096
6.65475
5.23496
4.08827
1.6993
1.92157
-2.1337
-1.3451
2.10496
3.65002
1.23829
-19.7456
-23.5374
-23.1051
-21.8421
-18.8221
-17.4269
-15.9357
-15.3004
-14.1556
-11.9845
-8.69133
-5.05194
-1.96221
-1.23997
-1.87899
-1.9118
1.03495
6.54556
11.7605
14.0289
14.3246
12.8958
11.2466
9.60682
7.99608
6.65146
5.23295
4.08588
1.69591
1.92735
-2.11164
-1.35262
2.15058
3.65161
1.23885
-19.7494
-23.5812
-23.0866
-21.8464
-18.8265
-17.4543
-15.9716
-15.3436
-14.2008
-12.0275
-8.72804
-5.07482
-1.97651
-1.24825
-1.88297
-1.91182
1.03503
6.53715
11.7401
14.0032
14.3004
12.8784
11.2349
9.59899
7.99097
6.64805
5.23089
4.08344
1.69244
1.93333
-2.08953
-1.3605
2.19487
3.65335
1.23939
-19.7515
-23.6293
-23.0581
-21.8536
-18.8303
-17.4864
-16.0152
-15.3963
-14.2557
-12.0783
-8.77107
-5.10255
-1.99458
-1.26033
-1.88927
-1.91225
1.0349
6.52739
11.7174
13.9755
14.2747
12.8601
11.2226
9.59081
7.98563
6.6445
5.22874
4.08093
1.68892
1.93948
-2.06757
-1.36816
2.23819
3.65518
1.23993
-19.7519
-23.6848
-23.0181
-21.863
-18.8332
-17.5235
-16.0674
-15.4595
-14.3211
-12.1373
-8.81965
-5.13371
-2.01523
-1.27637
-1.89892
-1.91376
1.0341
6.51594
11.6921
13.9456
14.2476
12.8409
11.2098
9.58228
7.98009
6.64082
5.2265
4.07836
1.6854
1.94573
-2.04593
-1.37504
2.28083
3.65716
1.24045
-19.7506
-23.7506
-22.9667
-21.873
-18.8353
-17.5655
-16.1279
-15.5325
-14.3963
-12.2031
-8.87135
-5.16654
-2.03681
-1.29575
-1.91264
-1.91704
1.03225
6.50256
11.6641
13.9136
14.2191
12.8209
11.1965
9.57345
7.97435
6.63699
5.22414
4.07573
1.6819
1.95203
-2.02484
-1.38073
2.32339
3.65925
1.24095
-19.748
-23.8297
-22.9053
-21.8811
-18.8363
-17.6115
-16.1953
-15.6136
-14.4798
-12.2736
-8.92343
-5.19772
-2.05654
-1.31642
-1.93016
-1.92266
1.02878
6.48695
11.6333
13.8794
14.1892
12.8002
11.1827
9.56434
7.96842
6.63301
5.22165
4.07304
1.67848
1.95827
-2.00452
-1.3848
2.36621
3.6615
1.24143
-19.7442
-23.9247
-22.8368
-21.8843
-18.8363
-17.6595
-16.2659
-15.6988
-14.5674
-12.345
-8.97163
-5.22426
-2.07214
-1.3362
-1.95006
-1.9305
1.02352
6.46904
11.5996
13.8431
14.1581
12.7788
11.1686
9.55498
7.96232
6.62885
5.21902
4.0703
1.67517
1.96437
-1.98523
-1.38705
2.40984
3.66387
1.24188
-19.7394
-24.0393
-22.7648
-21.8795
-18.8355
-17.7065
-16.3349
-15.7826
-14.6543
-12.4127
-9.01204
-5.24236
-2.08117
-1.35262
-1.97004
-1.93986
1.01642
6.44885
11.5633
13.8045
14.1258
12.7568
11.1541
9.54539
7.95603
6.62451
5.21624
4.06754
1.67202
1.9702
-1.96726
-1.38715
2.45453
3.66644
1.24231
-19.7338
-24.1786
-22.6926
-21.8637
-18.8343
-17.7483
-16.3953
-15.8577
-14.7337
-12.4712
-9.04018
-5.24966
-2.08276
-1.36443
-1.9879
-1.94941
1.0081
6.42673
11.5245
13.7639
14.0922
12.7342
11.1393
9.53559
7.94955
6.61996
5.21329
4.06477
1.66908
1.97567
-1.95093
-1.38503
2.50073
3.66914
1.24271
-19.7271
-24.3502
-22.6226
-21.8353
-18.8333
-17.7803
-16.4405
-15.9172
-14.7996
-12.5158
-9.05326
-5.2443
-2.07676
-1.37104
-2.00228
-1.95791
0.999243
6.40316
11.4839
13.7215
14.0575
12.7111
11.1241
9.52559
7.94289
6.6152
5.21019
4.06204
1.6664
1.98064
-1.9366
-1.38046
2.54856
3.67206
1.24308
-19.7192
-24.5647
-22.5552
-21.7948
-18.8332
-17.7983
-16.4645
-15.955
-14.8462
-12.5426
-9.04957
-5.22717
-2.06518
-1.37369
-2.01308
-1.96438
0.990849
6.37885
11.4419
13.6775
14.0215
12.6875
11.1087
9.51541
7.93601
6.61021
5.20692
4.05935
1.66405
1.98499
-1.92466
-1.37348
2.59839
3.67515
1.24341
-19.7092
-24.8355
-22.4884
-21.7459
-18.8347
-17.7994
-16.464
-15.9679
-14.8709
-12.5506
-9.0304
-5.20085
-2.05099
-1.37449
-2.02123
-1.96847
0.983458
6.3543
11.399
13.6325
13.9846
12.6633
11.0931
9.50504
7.92893
6.60498
5.20349
4.05676
1.66209
1.98854
-1.91551
-1.3639
2.65025
3.67848
1.24371
-19.6959
-25.1787
-22.4183
-21.6943
-18.8385
-17.7831
-16.4389
-15.9559
-14.8733
-12.5404
-8.99921
-5.17059
-2.03863
-1.37659
-2.02812
-1.97017
0.977585
6.33
11.3559
13.5868
13.9468
12.6387
11.0772
9.49451
7.92162
6.59949
5.19991
4.05428
1.66062
1.99114
-1.90959
-1.35183
2.70447
3.68199
1.24397
-19.6774
-25.6107
-22.34
-21.6468
-18.8449
-17.7513
-16.3927
-15.9227
-14.8564
-12.5156
-8.96203
-5.14216
-2.03195
-1.38232
-2.03499
-1.96993
0.973094
6.30605
11.3128
13.541
13.9085
12.6138
11.0612
9.4838
7.91406
6.59375
5.19618
4.05196
1.65972
1.99257
-1.90733
-1.33717
2.76102
3.68578
1.24419
-19.6518
-26.1414
-22.2486
-21.6093
-18.8542
-17.7079
-16.3312
-15.8741
-14.8246
-12.4811
-8.92561
-5.12102
-2.0337
-1.39317
-2.04267
-1.96815
0.970018
6.28261
11.27
13.4955
13.8698
12.5885
11.0449
9.47292
7.90626
6.58774
5.19233
4.04982
1.65955
1.99262
-1.90919
-1.32009
2.82023
3.68977
1.24436
-19.6181
-26.7611
-22.1388
-21.5851
-18.866
-17.6577
-16.2615
-15.8168
-14.7827
-12.4426
-8.89631
-5.10977
-2.04407
-1.40904
-2.05147
-1.96523
0.968017
6.25953
11.2272
13.4505
13.8312
12.563
11.0285
9.46186
7.89819
6.58148
5.18836
4.04794
1.66023
1.99098
-1.91567
-1.30041
2.88216
3.69407
1.24449
-19.5764
-27.4231
-22.0051
-21.5752
-18.8801
-17.605
-16.1899
-15.7564
-14.7352
-12.4063
-8.87767
-5.10819
-2.062
-1.42935
-2.06117
-1.96105
0.967206
6.23675
11.1846
13.406
13.7928
12.5374
11.0119
9.45063
7.88988
6.57498
5.18431
4.04636
1.66193
1.98727
-1.92725
-1.27808
2.94717
3.69858
1.24457
-19.5198
-28.0293
-21.842
-21.5781
-18.8952
-17.553
-16.1212
-15.6959
-14.6868
-12.378
-8.86947
-5.1139
-2.08549
-1.45262
-2.07082
-1.95539
0.967191
6.21374
11.1415
13.3618
13.7549
12.5118
10.9952
9.43929
7.88137
6.5683
5.1802
4.04511
1.6647
1.98104
-1.94411
-1.25287
3.01483
3.70337
1.2446
-19.4216
-28.433
-21.6439
-21.5901
-18.9089
-17.5033
-16.0575
-15.6371
-14.6445
-12.36
-8.86852
-5.12451
-2.11257
-1.47691
-2.07908
-1.94807
0.967359
6.18979
11.0977
13.3177
13.7174
12.4865
10.9786
9.42796
7.87275
6.56145
5.17597
4.04412
1.66868
1.97272
-1.96585
-1.2265
3.08384
3.70829
1.2446
-19.286
-28.4638
-21.4043
-21.6063
-18.9177
-17.4556
-15.9987
-15.5846
-14.6143
-12.3501
-8.87156
-5.13754
-2.13992
-1.49919
-2.08494
-1.94057
0.965345
6.16345
11.0528
13.2739
13.681
12.4618
10.9624
9.41676
7.86399
6.55433
5.17149
4.04334
1.67415
1.96333
-1.9923
-1.20137
3.15278
3.71357
1.24459
-19.3785
-27.9862
-21.114
-21.624
-18.9222
-17.4112
-15.9452
-15.5448
-14.5959
-12.3447
-8.87677
-5.15125
-2.16545
-1.51871
-2.09003
-1.93598
0.959033
6.13474
11.0082
13.2317
13.6466
12.4385
10.9466
9.4054
7.85452
6.54635
5.16642
4.04327
1.68254
1.9483
-2.03141
-1.16894
3.23603
3.72029
1.24423
8.89507
9.19404
10.0476
11.3741
13.0908
15.2428
17.9207
21.2448
25.5908
30.8133
37.236
45.0217
54.6311
66.2201
81.0226
98.541
123.097
149.456
190.06
214.311
262.258
104.043
8.89487
9.19381
10.0474
11.3736
13.0901
15.2418
17.9191
21.2715
25.638
30.8387
37.2317
45.0055
54.6014
66.1848
80.9542
98.4157
122.867
148.992
189.18
212.723
258.393
101.1
8.89466
9.19357
10.047
11.3732
13.0894
15.2408
17.9175
21.3046
25.6785
30.8574
37.2246
44.9882
54.5718
66.1482
80.8843
98.2867
122.63
148.509
188.28
211.074
254.37
102.77
8.89444
9.19332
10.0467
11.3727
13.0887
15.2397
17.9157
21.3381
25.7117
30.8706
37.216
44.9704
54.5418
66.1113
80.8135
98.1529
122.382
148.006
187.355
209.357
250.233
102.649
8.89421
9.19306
10.0464
11.3722
13.0879
15.2385
17.9139
21.3673
25.7383
30.8793
37.2071
44.9524
54.5125
66.0726
80.7405
98.0136
122.123
147.482
186.402
207.571
245.972
100.846
8.89396
9.19278
10.046
11.3716
13.0871
15.2372
17.912
21.3873
25.7586
30.8843
37.1985
44.9346
54.4834
66.0338
80.6662
97.8683
121.85
146.935
185.415
205.719
241.582
98.7885
8.89371
9.19249
10.0456
11.3711
13.0863
15.2359
17.91
21.3947
25.7731
30.8863
37.1908
44.9171
54.4555
65.9933
80.5895
97.7165
121.562
146.366
184.386
203.802
237.069
96.8728
8.89343
9.19218
10.0452
11.3704
13.0854
15.2345
17.9078
21.3901
25.782
30.8858
37.184
44.9003
54.4281
65.9528
80.5112
97.5578
121.257
145.771
183.311
201.82
232.436
94.9359
8.89315
9.19185
10.0448
11.3698
13.0844
15.233
17.9055
21.3764
25.7856
30.8833
37.1784
44.8843
54.4019
65.9107
80.4302
97.392
120.933
145.15
182.183
199.774
227.69
92.8796
8.89284
9.19151
10.0443
11.3691
13.0834
15.2314
17.9032
21.3565
25.7838
30.879
37.1738
44.869
54.3761
65.8684
80.3471
97.2187
120.59
144.502
180.995
197.663
222.833
90.7281
8.89252
9.19114
10.0438
11.3684
13.0823
15.2298
17.9006
21.3322
25.7766
30.873
37.1701
44.8546
54.3515
65.8246
80.261
97.0379
120.226
143.825
179.743
195.487
217.872
88.5164
8.89218
9.19076
10.0433
11.3677
13.0812
15.228
17.898
21.3052
25.7635
30.865
37.1671
44.841
54.3271
65.7803
80.1723
96.8494
119.841
143.116
178.421
193.244
212.81
86.2554
8.89183
9.19035
10.0428
11.3669
13.08
15.2262
17.8951
21.2769
25.7439
30.8549
37.1642
44.8282
54.3036
65.7342
80.08
96.6529
119.435
142.375
177.025
190.934
207.652
83.949
8.89145
9.18992
10.0422
11.366
13.0787
15.2242
17.8921
21.249
25.7171
30.8419
37.1611
44.8162
54.28
65.6872
79.9846
96.4482
119.008
141.6
175.551
188.555
202.405
81.606
8.89105
9.18947
10.0416
11.3651
13.0774
15.2221
17.8889
21.2229
25.6825
30.8253
37.157
44.8047
54.2568
65.6379
79.8849
96.2349
118.56
140.789
173.996
186.104
197.072
79.2385
8.89062
9.18898
10.041
11.3642
13.076
15.2199
17.8856
21.1998
25.6397
30.8041
37.151
44.7936
54.2334
65.5871
79.7811
96.0124
118.09
139.942
172.358
183.582
191.659
76.8597
8.89018
9.18847
10.0403
11.3632
13.0745
15.2175
17.882
21.1802
25.589
30.7771
37.142
44.7825
54.2101
65.5334
79.672
95.7802
117.597
139.056
170.636
180.986
186.169
74.4836
8.8897
9.18793
10.0396
11.3622
13.0729
15.215
17.8782
21.1644
25.5314
30.7429
37.1285
44.771
54.1863
65.4774
79.5578
95.5376
117.081
138.13
168.828
178.315
180.607
72.1239
8.8892
9.18736
10.0389
11.361
13.0712
15.2124
17.8742
21.1519
25.469
30.7002
37.1085
44.7583
54.1623
65.4178
79.4372
95.2838
116.54
137.163
166.934
175.567
174.977
69.7936
8.88867
9.18676
10.0381
11.3599
13.0694
15.2096
17.8699
21.1419
25.4048
30.6479
37.0797
44.7432
54.1374
65.3552
79.3102
95.0179
115.974
136.153
164.952
172.741
169.282
67.5029
8.8881
9.18611
10.0372
11.3586
13.0675
15.2066
17.8653
21.1333
25.3422
30.5858
37.0393
44.7238
54.1116
65.2883
79.1753
94.7389
115.381
135.099
162.882
169.835
163.529
65.259
8.8875
9.18543
10.0363
11.3573
13.0655
15.2035
17.8605
21.1254
25.2843
30.5145
36.9843
44.6976
54.0837
65.2177
79.0325
94.446
114.759
133.999
160.725
166.848
157.72
63.0647
8.88686
9.18471
10.0354
11.3559
13.0634
15.2001
17.8553
21.1176
25.234
30.4364
36.9119
44.6606
54.0529
65.1421
78.8803
94.138
114.108
132.851
158.479
163.778
151.864
60.9183
8.88619
9.18394
10.0343
11.3544
13.0611
15.1966
17.8498
21.1096
25.1922
30.355
36.8205
44.6077
54.0163
65.0618
78.7187
93.8139
113.424
131.654
156.144
160.624
145.966
58.8126
8.88547
9.18312
10.0333
11.3528
13.0587
15.1928
17.8439
21.101
25.1585
30.2745
36.7107
44.5325
53.9703
64.9752
78.5461
93.4727
112.707
130.406
153.719
157.384
140.035
56.7359
8.88471
9.18226
10.0321
11.3511
13.0562
15.1888
17.8377
21.092
25.1313
30.1989
36.5861
44.4283
53.9081
64.8814
78.3624
93.1132
111.956
129.104
151.205
154.056
134.08
54.6717
8.8839
9.18134
10.0309
11.3493
13.0535
15.1846
17.8311
21.0823
25.1086
30.1309
36.4527
44.2899
53.8204
64.7763
78.1657
92.7344
111.168
127.746
148.601
150.639
128.113
52.6003
8.88304
9.18036
10.0296
11.3474
13.0506
15.1801
17.8241
21.0719
25.0882
30.0716
36.3185
44.1168
53.6941
64.6552
77.9548
92.3352
110.342
126.332
145.906
147.131
122.144
50.4993
8.88212
9.17932
10.0282
11.3453
13.0475
15.1753
17.8167
21.0607
25.0687
30.0205
36.1909
43.9149
53.5158
64.5071
77.7255
91.9141
109.478
124.859
143.122
143.531
116.187
48.3451
8.88115
9.17821
10.0268
11.3432
13.0443
15.1702
17.8088
21.0489
25.049
29.9758
36.075
43.6963
53.2755
64.3176
77.4721
91.4689
108.575
123.325
140.249
139.836
110.256
46.1146
8.88011
9.17704
10.0252
11.3409
13.0408
15.1648
17.8004
21.0362
25.0287
29.9352
35.9729
43.4762
52.9738
64.0664
77.1826
90.9961
107.631
121.729
137.287
136.046
104.365
43.786
8.87901
9.17578
10.0235
11.3384
13.0372
15.159
17.7914
21.0227
25.0073
29.8965
35.8837
43.2684
52.6246
63.7354
76.8397
90.4891
106.646
120.069
134.238
132.162
98.5277
41.3403
8.87783
9.17445
10.0218
11.3358
13.0332
15.1529
17.7819
21.0083
24.9845
29.8578
35.8044
43.0811
52.2535
63.315
76.4183
89.9365
105.615
118.344
131.104
128.182
92.7598
38.7624
8.87658
9.17303
10.0199
11.3331
13.0291
15.1464
17.7718
20.993
24.9602
29.818
35.7308
42.9162
51.8888
62.8152
75.8935
89.3208
104.534
116.553
127.885
124.109
87.0756
36.0419
8.87525
9.17152
10.0179
11.3301
13.0246
15.1395
17.761
20.9767
24.9344
29.7763
35.6592
42.7701
51.552
62.2649
75.2491
88.6183
103.394
114.694
124.585
119.946
81.4892
33.1738
8.87382
9.1699
10.0157
11.327
13.0199
15.1322
17.7496
20.9593
24.9068
29.7322
35.5866
42.6361
51.2521
61.7043
74.492
87.8038
102.18
112.765
121.207
115.696
76.0145
30.1588
8.87231
9.16818
10.0134
11.3236
13.0148
15.1243
17.7374
20.9408
24.8775
29.6854
35.5112
42.5073
50.9864
61.1693
73.6555
86.8606
100.874
110.765
117.756
111.365
70.6646
27.0041
8.87069
9.16634
10.011
11.32
13.0094
15.116
17.7245
20.9211
24.8464
29.6356
35.4318
42.3778
50.7441
60.6794
72.7914
85.7913
99.4579
108.69
114.241
106.961
65.4526
23.7223
8.86896
9.16439
10.0084
11.3162
13.0037
15.1071
17.7107
20.9
24.8131
29.5828
35.3478
42.2436
50.5125
60.2349
71.9493
84.6246
97.92
106.541
110.672
102.496
60.3915
20.3319
8.86711
9.1623
10.0056
11.3121
12.9976
15.0976
17.696
20.8776
24.7778
29.5266
35.2586
42.1024
50.2804
59.8222
71.1589
83.408
96.2639
104.317
107.07
97.9829
55.495
16.8562
8.86514
9.16006
10.0026
11.3078
12.991
15.0875
17.6803
20.8537
24.7401
29.4668
35.164
41.9532
50.0403
59.4223
70.4227
82.1906
94.5119
102.026
103.458
93.4442
50.7783
13.3231
8.86304
9.15768
9.99947
11.3031
12.9841
15.0767
17.6636
20.8282
24.6999
29.4032
35.0634
41.7951
49.7878
59.0182
69.7219
81.0034
92.6998
99.6773
99.8685
88.9073
46.2585
9.76446
8.86079
9.15513
9.99608
11.2982
12.9766
15.0652
17.6458
20.801
24.6572
29.3355
34.9565
41.6274
49.5212
58.5982
69.0296
79.8513
90.8633
97.2849
96.3375
84.408
41.9554
6.21579
8.85838
9.15241
9.99245
11.2929
12.9686
15.053
17.6268
20.772
24.6116
29.2635
34.8429
41.4494
49.2393
58.1561
68.3217
78.7173
89.0255
94.8569
92.8939
79.9886
37.891
2.71586
8.85581
9.1495
9.98858
11.2872
12.9601
15.0399
17.6066
20.741
24.563
29.1868
34.7222
41.2606
48.9411
57.6897
67.5821
77.5742
87.1915
92.3912
89.5499
75.6937
34.0878
-0.693962
8.85306
9.14639
9.98443
11.2811
12.951
15.0259
17.585
20.708
24.5113
29.1052
34.5939
41.0602
48.6255
57.1977
66.8035
76.3958
85.35
89.8774
86.2886
71.5609
30.5663
-3.97084
8.85012
9.14307
9.98
11.2747
12.9413
15.011
17.562
20.6727
24.4561
29.0184
34.4576
40.8475
48.2916
56.679
65.9843
75.1651
83.4784
87.3069
83.0624
67.6074
27.34
-7.07242
8.84697
9.13951
9.97525
11.2677
12.931
14.995
17.5374
20.6351
24.3973
28.9259
34.3127
40.622
47.9383
56.132
65.1248
73.8753
81.5525
84.6767
79.8106
63.8178
24.4089
-9.95973
8.84359
9.1357
9.97017
11.2603
12.9198
14.978
17.5111
20.5949
24.3345
28.8275
34.1587
40.3827
47.5646
55.5554
64.2247
72.5269
79.5561
81.9841
76.489
60.141
21.7514
-12.6011
8.83999
9.13162
9.96474
11.2524
12.908