/*--------------------------------*- C++ -*----------------------------------*\
| =========                 |                                                 |
| \\      /  F ield         | OpenFOAM: The Open Source CFD Toolbox           |
|  \\    /   O peration     | Version:  v1912                                 |
|   \\  /    A nd           | Website:  www.openfoam.com                      |
|    \\/     M anipulation  |                                                 |
\*---------------------------------------------------------------------------*/
FoamFile
{
    version     2.0;
    format      ascii;
    class       surfaceScalarField;
    location    "410";
    object      phi;
}
// * * * * * * * * * * * * * * * * * * * * * * * * * * * * * * * * * * * * * //

dimensions      [0 3 -1 0 0 0 0];
oriented        oriented;


internalField   nonuniform List<scalar> 
24588
(
6.81683e-05
1.98633e-08
6.81145e-05
5.45853e-08
6.80299e-05
8.42838e-08
6.79146e-05
1.15176e-07
6.77647e-05
1.49528e-07
6.7576e-05
1.88905e-07
6.73418e-05
2.34085e-07
6.70473e-05
2.95156e-07
6.66819e-05
3.64838e-07
6.62286e-05
4.54198e-07
6.56655e-05
5.6217e-07
6.49449e-05
7.06907e-07
6.41241e-05
8.69835e-07
6.2926e-05
1.14811e-06
6.1478e-05
1.45056e-06
5.9168e-05
2.31822e-06
5.62557e-05
2.91299e-06
5.1458e-05
4.79738e-06
4.47601e-05
6.69788e-06
3.35672e-05
1.11931e-05
1.99308e-05
1.36364e-05
1.99308e-05
6.81686e-05
4.02606e-08
6.81143e-05
1.09892e-07
6.80297e-05
1.68412e-07
6.79146e-05
2.30161e-07
6.77647e-05
2.98899e-07
6.7576e-05
3.77861e-07
6.73419e-05
4.68076e-07
6.70473e-05
5.90611e-07
6.66819e-05
7.29513e-07
6.62288e-05
9.08307e-07
6.56644e-05
1.12548e-06
6.49411e-05
1.41467e-06
6.41312e-05
1.73423e-06
6.29186e-05
2.31179e-06
6.14728e-05
2.89894e-06
5.92301e-05
4.56884e-06
5.6268e-05
5.87635e-06
5.14249e-05
9.64006e-06
4.48054e-05
1.33173e-05
3.3471e-05
2.25277e-05
1.98934e-05
2.7214e-05
3.98242e-05
6.81686e-05
6.0654e-08
6.81143e-05
1.65187e-07
6.80297e-05
2.52565e-07
6.79146e-05
3.45174e-07
6.77647e-05
4.48291e-07
6.7576e-05
5.66804e-07
6.73419e-05
7.02062e-07
6.70472e-05
8.86055e-07
6.66819e-05
1.09423e-06
6.62288e-05
1.3624e-06
6.56646e-05
1.68861e-06
6.49407e-05
2.12241e-06
6.41324e-05
2.59958e-06
6.29222e-05
3.46316e-06
6.14711e-05
4.35335e-06
5.92632e-05
6.78588e-06
5.62643e-05
8.87672e-06
5.1445e-05
1.44589e-05
4.47814e-05
1.99807e-05
3.3492e-05
3.38174e-05
1.99137e-05
4.07924e-05
5.97378e-05
6.81686e-05
8.10516e-08
6.81143e-05
2.20449e-07
6.80297e-05
3.36689e-07
6.79146e-05
4.60164e-07
6.77647e-05
5.9765e-07
6.7576e-05
7.55753e-07
6.73419e-05
9.36074e-07
6.70473e-05
1.18149e-06
6.66819e-05
1.45893e-06
6.62287e-05
1.81654e-06
6.56643e-05
2.25189e-06
6.49412e-05
2.83003e-06
6.41281e-05
3.46644e-06
6.29178e-05
4.62665e-06
6.14658e-05
5.80783e-06
5.92812e-05
8.97774e-06
5.62874e-05
1.18719e-05
5.14592e-05
1.92867e-05
4.47708e-05
2.66689e-05
3.3521e-05
4.50675e-05
1.99477e-05
5.43657e-05
7.96855e-05
6.81686e-05
1.01437e-07
6.81144e-05
2.75681e-07
6.80297e-05
4.20833e-07
6.79146e-05
5.75184e-07
6.77647e-05
7.47026e-07
6.7576e-05
9.44675e-07
6.73419e-05
1.17006e-06
6.70473e-05
1.4769e-06
6.66819e-05
1.82367e-06
6.62287e-05
2.27066e-06
6.56644e-05
2.8151e-06
6.49405e-05
3.53806e-06
6.41299e-05
4.33433e-06
6.2922e-05
5.77537e-06
6.14649e-05
7.26843e-06
5.92902e-05
1.11617e-05
5.63122e-05
1.48514e-05
5.1461e-05
2.41374e-05
4.47891e-05
3.33407e-05
3.35669e-05
5.629e-05
1.99963e-05
6.79364e-05
9.96817e-05
6.81686e-05
1.21833e-07
6.81144e-05
3.30894e-07
6.80297e-05
5.04939e-07
6.79147e-05
6.90168e-07
6.77648e-05
8.96354e-07
6.75761e-05
1.13361e-06
6.73419e-05
1.40407e-06
6.70473e-05
1.77231e-06
6.66819e-05
2.18836e-06
6.62287e-05
2.7248e-06
6.56643e-05
3.37833e-06
6.49418e-05
4.24527e-06
6.41259e-05
5.20253e-06
6.29176e-05
6.93955e-06
6.14613e-05
8.72727e-06
5.92894e-05
1.33406e-05
5.63276e-05
1.78143e-05
5.14719e-05
2.89928e-05
4.48205e-05
3.9992e-05
3.36327e-05
6.7478e-05
2.00617e-05
8.15074e-05
0.000119743
6.81686e-05
1.42214e-07
6.81144e-05
3.86072e-07
6.80297e-05
5.8907e-07
6.79147e-05
8.05191e-07
6.77648e-05
1.0457e-06
6.75761e-05
1.3225e-06
6.7342e-05
1.63805e-06
6.70474e-05
2.06769e-06
6.6682e-05
2.55308e-06
6.62288e-05
3.17891e-06
6.56644e-05
3.94164e-06
6.49408e-05
4.95352e-06
6.41284e-05
6.07176e-06
6.29228e-05
8.08489e-06
6.14605e-05
1.01939e-05
5.92843e-05
1.55256e-05
5.6343e-05
2.07569e-05
5.14932e-05
3.3842e-05
4.48687e-05
4.66164e-05
3.37258e-05
7.8621e-05
2.01468e-05
9.50865e-05
0.00013989
6.81685e-05
1.6261e-07
6.81144e-05
4.41243e-07
6.80297e-05
6.7316e-07
6.79147e-05
9.20166e-07
6.77648e-05
1.19499e-06
6.75761e-05
1.51141e-06
6.7342e-05
1.87206e-06
6.70474e-05
2.36306e-06
6.6682e-05
2.91773e-06
6.62288e-05
3.63301e-06
6.56646e-05
4.50471e-06
6.49431e-05
5.65994e-06
6.41241e-05
6.94043e-06
6.29171e-05
9.25102e-06
6.14492e-05
1.16653e-05
5.92698e-05
1.77117e-05
5.63607e-05
2.36669e-05
5.15413e-05
3.86612e-05
4.49505e-05
5.32072e-05
3.38577e-05
8.9714e-05
2.02557e-05
0.000108688
0.000160146
6.81686e-05
1.82986e-07
6.81144e-05
4.96373e-07
6.80298e-05
7.5728e-07
6.79147e-05
1.03519e-06
6.77648e-05
1.34431e-06
6.75762e-05
1.70027e-06
6.7342e-05
2.10601e-06
6.70475e-05
2.6584e-06
6.66821e-05
3.28241e-06
6.62289e-05
4.08709e-06
6.56644e-05
5.06812e-06
6.49409e-05
6.36876e-06
6.41242e-05
7.81401e-06
6.29205e-05
1.03953e-05
6.14301e-05
1.31593e-05
5.92712e-05
1.98767e-05
5.63697e-05
2.6569e-05
5.16465e-05
4.3384e-05
4.50872e-05
5.97664e-05
3.40401e-05
0.000100761
2.03926e-05
0.000122336
0.000180538
6.81685e-05
2.03381e-07
6.81144e-05
5.51504e-07
6.80298e-05
8.4136e-07
6.79147e-05
1.15015e-06
6.77649e-05
1.49356e-06
6.75762e-05
1.88915e-06
6.73421e-05
2.34001e-06
6.70475e-05
2.95372e-06
6.66822e-05
3.64698e-06
6.62291e-05
4.54109e-06
6.56652e-05
5.63089e-06
6.49451e-05
7.07397e-06
6.41157e-05
8.68842e-06
6.2906e-05
1.15681e-05
6.14035e-05
1.4666e-05
5.92942e-05
2.19899e-05
5.63832e-05
2.94804e-05
5.18105e-05
4.79566e-05
4.52824e-05
6.62945e-05
3.42774e-05
0.000111766
2.0561e-05
0.000136052
0.000201099
6.81686e-05
2.23753e-07
6.81144e-05
6.06589e-07
6.80298e-05
9.25477e-07
6.79147e-05
1.26517e-06
6.77649e-05
1.64284e-06
6.75762e-05
2.07797e-06
6.73421e-05
2.57393e-06
6.70476e-05
3.24901e-06
6.66823e-05
4.01156e-06
6.62291e-05
4.99517e-06
6.56646e-05
6.19438e-06
6.49404e-05
7.78444e-06
6.41004e-05
9.58209e-06
6.28968e-05
1.27232e-05
6.13863e-05
1.61781e-05
5.93266e-05
2.40517e-05
5.64178e-05
3.23895e-05
5.20036e-05
5.23706e-05
4.55124e-05
7.27856e-05
3.45616e-05
0.000122717
2.07623e-05
0.000149852
0.000221862
6.81685e-05
2.44145e-07
6.81144e-05
6.61681e-07
6.80298e-05
1.00955e-06
6.79147e-05
1.38012e-06
6.77649e-05
1.79207e-06
6.75763e-05
2.26682e-06
6.73422e-05
2.80791e-06
6.70476e-05
3.54429e-06
6.66825e-05
4.376e-06
6.62294e-05
5.44908e-06
6.56655e-05
6.75718e-06
6.49438e-05
8.49255e-06
6.40788e-05
1.04833e-05
6.28918e-05
1.3888e-05
6.13793e-05
1.76936e-05
5.93568e-05
2.60755e-05
5.64632e-05
3.52831e-05
5.21824e-05
5.66515e-05
4.57451e-05
7.92229e-05
3.48767e-05
0.000133586
2.09951e-05
0.000163733
0.000242857
6.81686e-05
2.64509e-07
6.81144e-05
7.16722e-07
6.80298e-05
1.09368e-06
6.79147e-05
1.49514e-06
6.77649e-05
1.94132e-06
6.75763e-05
2.4556e-06
6.73422e-05
3.04181e-06
6.70477e-05
3.83953e-06
6.66826e-05
4.7404e-06
6.62296e-05
5.90298e-06
6.56644e-05
7.32142e-06
6.49386e-05
9.20641e-06
6.40549e-05
1.14076e-05
6.28967e-05
1.50246e-05
6.13792e-05
1.92105e-05
5.93799e-05
2.80753e-05
5.65058e-05
3.81573e-05
5.23247e-05
6.08325e-05
4.59606e-05
8.55869e-05
3.52061e-05
0.00014434
2.12561e-05
0.000177683
0.000264113
6.81685e-05
2.84897e-07
6.81144e-05
7.71774e-07
6.80298e-05
1.17776e-06
6.79148e-05
1.61008e-06
6.7765e-05
2.09051e-06
6.75764e-05
2.64442e-06
6.73423e-05
3.27576e-06
6.70478e-05
4.13475e-06
6.66828e-05
5.10467e-06
6.623e-05
6.35661e-06
6.5663e-05
7.88735e-06
6.49367e-05
9.92212e-06
6.40477e-05
1.23138e-05
6.29001e-05
1.61672e-05
6.13806e-05
2.07318e-05
5.93953e-05
3.00611e-05
5.65395e-05
4.10131e-05
5.24317e-05
6.49403e-05
4.61522e-05
9.18664e-05
3.55379e-05
0.000154955
2.15409e-05
0.00019168
0.000285654
6.81686e-05
3.05252e-07
6.81144e-05
8.26771e-07
6.80298e-05
1.26189e-06
6.79148e-05
1.72509e-06
6.7765e-05
2.23973e-06
6.75764e-05
2.83316e-06
6.73424e-05
3.50961e-06
6.70479e-05
4.42994e-06
6.6683e-05
5.46889e-06
6.62301e-05
6.81036e-06
6.56591e-05
8.4574e-06
6.49289e-05
1.0644e-05
6.40441e-05
1.32154e-05
6.29012e-05
1.73018e-05
6.13822e-05
2.22499e-05
5.94051e-05
3.20382e-05
5.65641e-05
4.38541e-05
5.25123e-05
6.8992e-05
4.63204e-05
9.80582e-05
3.58649e-05
0.00016541
2.18449e-05
0.0002057
0.000307499
6.81685e-05
3.25634e-07
6.81144e-05
8.81783e-07
6.80298e-05
1.34598e-06
6.79148e-05
1.84002e-06
6.7765e-05
2.38889e-06
6.75764e-05
3.02194e-06
6.73424e-05
3.74353e-06
6.70479e-05
4.72514e-06
6.6683e-05
5.83304e-06
6.62299e-05
7.26435e-06
6.56519e-05
9.03436e-06
6.49272e-05
1.13626e-05
6.40421e-05
1.41035e-05
6.29008e-05
1.84435e-05
6.13836e-05
2.37683e-05
5.94112e-05
3.40109e-05
5.65817e-05
4.66837e-05
5.25748e-05
7.2999e-05
4.64684e-05
0.000104165
3.61834e-05
0.000175695
2.21643e-05
0.000219719
0.000329663
6.81686e-05
3.45978e-07
6.81145e-05
9.36735e-07
6.80298e-05
1.43013e-06
6.79148e-05
1.95502e-06
6.7765e-05
2.53808e-06
6.75765e-05
3.21064e-06
6.73425e-05
3.97733e-06
6.7048e-05
5.02033e-06
6.66831e-05
6.19722e-06
6.62297e-05
7.71861e-06
6.5641e-05
9.62229e-06
6.49299e-05
1.20702e-05
6.40398e-05
1.50006e-05
6.29004e-05
1.95788e-05
6.13848e-05
2.5283e-05
5.94149e-05
3.59807e-05
5.65941e-05
4.95045e-05
5.26253e-05
7.69677e-05
4.65999e-05
0.00011019
3.64924e-05
0.000185803
2.24958e-05
0.000233716
0.000352159
6.81685e-05
3.66352e-07
6.81144e-05
9.91706e-07
6.80298e-05
1.51423e-06
6.79148e-05
2.06993e-06
6.77651e-05
2.68721e-06
6.75765e-05
3.39937e-06
6.73425e-05
4.21121e-06
6.70481e-05
5.31548e-06
6.66832e-05
6.56142e-06
6.62298e-05
8.17271e-06
6.5631e-05
1.02203e-05
6.49335e-05
1.27658e-05
6.40381e-05
1.58954e-05
6.29001e-05
2.07182e-05
6.13859e-05
2.67981e-05
5.94171e-05
3.79496e-05
5.6603e-05
5.23186e-05
5.2668e-05
8.09028e-05
4.67188e-05
0.000116139
3.6792e-05
0.00019573
2.28375e-05
0.000247671
0.000374996
6.81686e-05
3.86685e-07
6.81145e-05
1.04661e-06
6.80299e-05
1.5984e-06
6.79148e-05
2.18493e-06
6.77651e-05
2.83638e-06
6.75766e-05
3.58802e-06
6.73427e-05
4.44496e-06
6.70482e-05
5.61058e-06
6.66833e-05
6.92565e-06
6.62294e-05
8.6274e-06
6.56253e-05
1.08238e-05
6.4935e-05
1.34554e-05
6.40369e-05
1.67972e-05
6.29e-05
2.18522e-05
6.13869e-05
2.83105e-05
5.94185e-05
3.9918e-05
5.66099e-05
5.51272e-05
5.27062e-05
8.48064e-05
4.68284e-05
0.000122017
3.70836e-05
0.000205474
2.31878e-05
0.000261566
0.000398184
6.81685e-05
4.0705e-07
6.81144e-05
1.10154e-06
6.80298e-05
1.68251e-06
6.79149e-05
2.29982e-06
6.77651e-05
2.98546e-06
6.75766e-05
3.77671e-06
6.73427e-05
4.67878e-06
6.70483e-05
5.90563e-06
6.66835e-05
7.28977e-06
6.62256e-05
9.08603e-06
6.56255e-05
1.14233e-05
6.49353e-05
1.4145e-05
6.40362e-05
1.76948e-05
6.29001e-05
2.29901e-05
6.1388e-05
2.98233e-05
5.94195e-05
4.18866e-05
5.66157e-05
5.7931e-05
5.27422e-05
8.868e-05
4.69318e-05
0.000127827
3.73689e-05
0.000215037
2.35462e-05
0.000275389
0.00042173
6.81686e-05
4.2737e-07
6.81145e-05
1.1564e-06
6.80299e-05
1.7667e-06
6.79149e-05
2.41481e-06
6.77651e-05
3.13461e-06
6.75767e-05
3.9653e-06
6.73428e-05
4.91244e-06
6.70485e-05
6.20066e-06
6.66839e-05
7.65362e-06
6.6217e-05
9.55381e-06
6.56306e-05
1.20094e-05
6.49351e-05
1.48404e-05
6.40359e-05
1.85966e-05
6.29003e-05
2.41234e-05
6.13892e-05
3.13337e-05
5.94207e-05
4.3855e-05
5.66216e-05
6.07302e-05
5.27778e-05
9.25236e-05
4.70313e-05
0.000133574
3.765e-05
0.000224419
2.39125e-05
0.000289127
0.000445643
6.81685e-05
4.47726e-07
6.81144e-05
1.21129e-06
6.80299e-05
1.85083e-06
6.79149e-05
2.52969e-06
6.77652e-05
3.28365e-06
6.75767e-05
4.15395e-06
6.73429e-05
5.14616e-06
6.70485e-05
6.49573e-06
6.66845e-05
8.01699e-06
6.62073e-05
1.00317e-05
6.56365e-05
1.25799e-05
6.49349e-05
1.55417e-05
6.40359e-05
1.94941e-05
6.29008e-05
2.52601e-05
6.13908e-05
3.28444e-05
5.94224e-05
4.58236e-05
5.66281e-05
6.35244e-05
5.28142e-05
9.63375e-05
4.71291e-05
0.000139259
3.79291e-05
0.000233619
2.4287e-05
0.000302769
0.00046993
6.81686e-05
4.68033e-07
6.81145e-05
1.26611e-06
6.80299e-05
1.93504e-06
6.79149e-05
2.64467e-06
6.77652e-05
3.43276e-06
6.75768e-05
4.34249e-06
6.73431e-05
5.37969e-06
6.70487e-05
6.7908e-06
6.6685e-05
8.37999e-06
6.62004e-05
1.05171e-05
6.56405e-05
1.31398e-05
6.49349e-05
1.62473e-05
6.40361e-05
2.03949e-05
6.29015e-05
2.63927e-05
6.13927e-05
3.43526e-05
5.9425e-05
4.77912e-05
5.6636e-05
6.63134e-05
5.28523e-05
0.000100121
4.72266e-05
0.000144884
3.82084e-05
0.000242637
2.46704e-05
0.000316307
0.0004946
6.81685e-05
4.88378e-07
6.81145e-05
1.32096e-06
6.80299e-05
2.01918e-06
6.79149e-05
2.75952e-06
6.77653e-05
3.58177e-06
6.75769e-05
4.53109e-06
6.73432e-05
5.6133e-06
6.70488e-05
7.08584e-06
6.66854e-05
8.7427e-06
6.61966e-05
1.10065e-05
6.56424e-05
1.3694e-05
6.4935e-05
1.69545e-05
6.40365e-05
2.12919e-05
6.29025e-05
2.75283e-05
6.13952e-05
3.58606e-05
5.94289e-05
4.97576e-05
5.66458e-05
6.90965e-05
5.28924e-05
0.000103875
4.7325e-05
0.000150452
3.84904e-05
0.000251472
2.50639e-05
0.000329733
0.000519664
6.81686e-05
5.08672e-07
6.81145e-05
1.37573e-06
6.80299e-05
2.10341e-06
6.79149e-05
2.87449e-06
6.77653e-05
3.73085e-06
6.75769e-05
4.71957e-06
6.73433e-05
5.84674e-06
6.7049e-05
7.38074e-06
6.66856e-05
9.10552e-06
6.61947e-05
1.14981e-05
6.56434e-05
1.42452e-05
6.49353e-05
1.76627e-05
6.40371e-05
2.21919e-05
6.29038e-05
2.86598e-05
6.13983e-05
3.73654e-05
5.94343e-05
5.17215e-05
5.66577e-05
7.18731e-05
5.29349e-05
0.000107597
4.74252e-05
0.000155962
3.87772e-05
0.00026012
2.54687e-05
0.000343042
0.000545133
6.81685e-05
5.29007e-07
6.81145e-05
1.43054e-06
6.80299e-05
2.18757e-06
6.7915e-05
2.98932e-06
6.77653e-05
3.87982e-06
6.7577e-05
4.90809e-06
6.73434e-05
6.08031e-06
6.70493e-05
7.67546e-06
6.66843e-05
9.46986e-06
6.61945e-05
1.19884e-05
6.5644e-05
1.47957e-05
6.49356e-05
1.8371e-05
6.40378e-05
2.30882e-05
6.29054e-05
2.97937e-05
6.14021e-05
3.88694e-05
5.94415e-05
5.36822e-05
5.66721e-05
7.46425e-05
5.29796e-05
0.00011129
4.75277e-05
0.000161414
3.90712e-05
0.000268576
2.58862e-05
0.000356227
0.000571019
6.81686e-05
5.49286e-07
6.81145e-05
1.48526e-06
6.803e-05
2.27181e-06
6.7915e-05
3.10427e-06
6.77654e-05
4.02887e-06
6.75771e-05
5.09648e-06
6.73435e-05
6.31374e-06
6.70497e-05
7.96986e-06
6.66791e-05
9.83987e-06
6.61978e-05
1.24701e-05
6.56445e-05
1.53491e-05
6.49361e-05
1.90794e-05
6.40387e-05
2.39873e-05
6.29074e-05
3.09233e-05
6.14067e-05
4.03694e-05
5.94505e-05
5.56383e-05
5.6689e-05
7.74041e-05
5.30267e-05
0.000114952
4.76329e-05
0.000166807
3.93743e-05
0.000276835
2.63179e-05
0.000369283
0.000597337
6.81685e-05
5.69611e-07
6.81145e-05
1.54003e-06
6.80299e-05
2.35598e-06
6.7915e-05
3.21908e-06
6.77654e-05
4.17782e-06
6.75772e-05
5.2849e-06
6.73435e-05
6.54734e-06
6.70501e-05
8.26387e-06
6.66715e-05
1.02179e-05
6.62031e-05
1.29387e-05
6.5645e-05
1.59072e-05
6.49366e-05
1.97877e-05
6.40398e-05
2.48827e-05
6.29097e-05
3.2055e-05
6.14122e-05
4.18675e-05
5.94613e-05
5.75894e-05
5.67083e-05
8.0157e-05
5.30761e-05
0.000118584
4.7741e-05
0.000172142
3.96884e-05
0.000284887
2.67655e-05
0.000382206
0.000624102
6.81686e-05
5.89877e-07
6.81146e-05
1.59471e-06
6.803e-05
2.44024e-06
6.7915e-05
3.33401e-06
6.77654e-05
4.32684e-06
6.75773e-05
5.47319e-06
6.73436e-05
6.7808e-06
6.70506e-05
8.55747e-06
6.66655e-05
1.06024e-05
6.62072e-05
1.33973e-05
6.56456e-05
1.64688e-05
6.49373e-05
2.0496e-05
6.40411e-05
2.57805e-05
6.29125e-05
3.31818e-05
6.14185e-05
4.33608e-05
5.94736e-05
5.95342e-05
5.67302e-05
8.29004e-05
5.31278e-05
0.000122187
4.7852e-05
0.000177418
4.00147e-05
0.000292725
2.72303e-05
0.00039499
0.000651332
6.81685e-05
6.10191e-07
6.81145e-05
1.64944e-06
6.803e-05
2.52443e-06
6.79151e-05
3.44878e-06
6.77655e-05
4.47575e-06
6.75774e-05
5.6615e-06
6.73437e-05
7.01441e-06
6.7051e-05
8.8508e-06
6.66617e-05
1.09911e-05
6.621e-05
1.38491e-05
6.56462e-05
1.70325e-05
6.4938e-05
2.12041e-05
6.40425e-05
2.66747e-05
6.29156e-05
3.43102e-05
6.14256e-05
4.48515e-05
5.94876e-05
6.14723e-05
5.67547e-05
8.56333e-05
5.31819e-05
0.000125759
4.79657e-05
0.000182635
4.03541e-05
0.000300336
2.77136e-05
0.000407631
0.000679046
6.81686e-05
6.30443e-07
6.81146e-05
1.70408e-06
6.803e-05
2.6087e-06
6.79151e-05
3.56369e-06
6.77655e-05
4.62474e-06
6.75775e-05
5.84969e-06
6.73439e-05
7.24781e-06
6.70513e-05
9.14395e-06
6.66595e-05
1.13823e-05
6.6212e-05
1.42967e-05
6.56469e-05
1.75977e-05
6.49388e-05
2.19122e-05
6.40441e-05
2.7571e-05
6.29191e-05
3.54334e-05
6.14334e-05
4.63365e-05
5.9503e-05
6.34026e-05
5.67816e-05
8.83547e-05
5.32384e-05
0.000129303
4.8082e-05
0.000187791
4.07071e-05
0.000307711
2.82163e-05
0.000420122
0.000707262
6.81685e-05
6.50747e-07
6.81145e-05
1.75876e-06
6.803e-05
2.6929e-06
6.79151e-05
3.67844e-06
6.77656e-05
4.7736e-06
6.75775e-05
6.03793e-06
6.7344e-05
7.48129e-06
6.70515e-05
9.43704e-06
6.66584e-05
1.17749e-05
6.62138e-05
1.47413e-05
6.56476e-05
1.81639e-05
6.49397e-05
2.262e-05
6.40458e-05
2.84636e-05
6.29229e-05
3.65578e-05
6.14419e-05
4.78182e-05
5.95198e-05
6.53248e-05
5.68111e-05
9.10634e-05
5.32975e-05
0.000132816
4.82008e-05
0.000192888
4.10735e-05
0.000314839
2.8739e-05
0.000432456
0.000736001
6.81686e-05
6.70985e-07
6.81146e-05
1.81336e-06
6.80301e-05
2.77719e-06
6.79151e-05
3.79333e-06
6.77656e-05
4.92254e-06
6.75776e-05
6.22606e-06
6.73442e-05
7.71448e-06
6.70517e-05
9.73018e-06
6.66579e-05
1.21682e-05
6.62154e-05
1.51839e-05
6.56484e-05
1.87309e-05
6.49407e-05
2.33278e-05
6.40477e-05
2.93581e-05
6.29271e-05
3.76765e-05
6.1451e-05
4.92936e-05
5.95379e-05
6.72378e-05
5.68431e-05
9.37582e-05
5.33593e-05
0.0001363
4.83221e-05
0.000197925
4.14532e-05
0.000321708
2.9282e-05
0.000444627
0.000765283
6.81685e-05
6.91281e-07
6.81145e-05
1.86801e-06
6.803e-05
2.86138e-06
6.79152e-05
3.90804e-06
6.77657e-05
5.07134e-06
6.75777e-05
6.41425e-06
6.73444e-05
7.94769e-06
6.70517e-05
1.00235e-05
6.66578e-05
1.25615e-05
6.62169e-05
1.56248e-05
6.56493e-05
1.92985e-05
6.49417e-05
2.40353e-05
6.40497e-05
3.02488e-05
6.29316e-05
3.87962e-05
6.14606e-05
5.07652e-05
5.95572e-05
6.91413e-05
5.68777e-05
9.64378e-05
5.34239e-05
0.000139754
4.84459e-05
0.000202903
4.18455e-05
0.000328308
2.98456e-05
0.000456627
0.000795129
6.81686e-05
7.11507e-07
6.81146e-05
1.92257e-06
6.80301e-05
2.94568e-06
6.79152e-05
4.02291e-06
6.77658e-05
5.22023e-06
6.75778e-05
6.60234e-06
6.73448e-05
8.18052e-06
6.70517e-05
1.03171e-05
6.6658e-05
1.29548e-05
6.62183e-05
1.60645e-05
6.56501e-05
1.98667e-05
6.49428e-05
2.47426e-05
6.40518e-05
3.11412e-05
6.29363e-05
3.99099e-05
6.14708e-05
5.223e-05
5.95778e-05
7.10342e-05
5.69148e-05
9.91008e-05
5.34915e-05
0.000143177
4.85725e-05
0.000207822
4.22503e-05
0.00033463
3.04298e-05
0.000468448
0.000825559
6.81685e-05
7.31794e-07
6.81145e-05
1.97719e-06
6.80301e-05
3.02988e-06
6.79152e-05
4.13759e-06
6.77659e-05
5.36896e-06
6.75778e-05
6.79051e-06
6.7345e-05
8.4133e-06
6.70514e-05
1.06113e-05
6.66584e-05
1.33474e-05
6.62197e-05
1.65032e-05
6.56511e-05
2.04354e-05
6.4944e-05
2.54496e-05
6.40541e-05
3.20298e-05
6.29413e-05
4.10243e-05
6.14814e-05
5.36906e-05
5.95994e-05
7.29164e-05
5.69543e-05
0.000101746
5.35624e-05
0.000146569
4.87022e-05
0.000212682
4.26673e-05
0.000340665
3.10348e-05
0.00048008
0.000856593
6.81686e-05
7.52011e-07
6.81146e-05
2.03171e-06
6.80301e-05
3.11418e-06
6.79152e-05
4.25244e-06
6.77659e-05
5.51778e-06
6.75779e-05
6.9786e-06
6.73454e-05
8.64561e-06
6.70482e-05
1.0909e-05
6.66611e-05
1.37343e-05
6.6221e-05
1.69432e-05
6.5652e-05
2.10044e-05
6.49452e-05
2.61565e-05
6.40565e-05
3.292e-05
6.29465e-05
4.21324e-05
6.14926e-05
5.51438e-05
5.96222e-05
7.47866e-05
5.69964e-05
0.000104372
5.36366e-05
0.000149929
4.88355e-05
0.000217483
4.30968e-05
0.000346404
3.16609e-05
0.000491516
0.000888254
6.81685e-05
7.7229e-07
6.81145e-05
2.08629e-06
6.80301e-05
3.19837e-06
6.79153e-05
4.36709e-06
6.7766e-05
5.66642e-06
6.7578e-05
7.16677e-06
6.73457e-05
8.87787e-06
6.7038e-05
1.12172e-05
6.66703e-05
1.41018e-05
6.62223e-05
1.73913e-05
6.5653e-05
2.15737e-05
6.49465e-05
2.68629e-05
6.4059e-05
3.38062e-05
6.29519e-05
4.32411e-05
6.15041e-05
5.65923e-05
5.96461e-05
7.66448e-05
5.70409e-05
0.000106977
5.37146e-05
0.000153255
4.89728e-05
0.000222225
4.35392e-05
0.000351837
3.23087e-05
0.000502747
0.000920563
6.81686e-05
7.92493e-07
6.81146e-05
2.14077e-06
6.80302e-05
3.28268e-06
6.79153e-05
4.48192e-06
6.7766e-05
5.81517e-06
6.75781e-05
7.35479e-06
6.73459e-05
9.10984e-06
6.70316e-05
1.1532e-05
6.66769e-05
1.44566e-05
6.62235e-05
1.78447e-05
6.5654e-05
2.21432e-05
6.49478e-05
2.75691e-05
6.40615e-05
3.46939e-05
6.29576e-05
4.43431e-05
6.15161e-05
5.8033e-05
5.96709e-05
7.84899e-05
5.70876e-05
0.00010956
5.37964e-05
0.000156546
4.91145e-05
0.000226907
4.39948e-05
0.000356957
3.29789e-05
0.000513763
0.000953542
6.81685e-05
8.12765e-07
6.81146e-05
2.19531e-06
6.80301e-05
3.36687e-06
6.79154e-05
4.59653e-06
6.77661e-05
5.96376e-06
6.75782e-05
7.5428e-06
6.7346e-05
9.34207e-06
6.70297e-05
1.18488e-05
6.66791e-05
1.48072e-05
6.62245e-05
1.82993e-05
6.5655e-05
2.27127e-05
6.49492e-05
2.82749e-05
6.40642e-05
3.55775e-05
6.29634e-05
4.54457e-05
6.15285e-05
5.94686e-05
5.96967e-05
8.03219e-05
5.71365e-05
0.00011212
5.38825e-05
0.0001598
4.92606e-05
0.000231529
4.44637e-05
0.000361754
3.36719e-05
0.000524554
0.000987214
6.81686e-05
8.32967e-07
6.81147e-05
2.24976e-06
6.80302e-05
3.45116e-06
6.79154e-05
4.71129e-06
6.77661e-05
6.11249e-06
6.75785e-05
7.73052e-06
6.73446e-05
9.57579e-06
6.70296e-05
1.21641e-05
6.668e-05
1.51568e-05
6.62254e-05
1.87538e-05
6.5656e-05
2.32821e-05
6.49505e-05
2.89804e-05
6.40669e-05
3.64629e-05
6.29694e-05
4.65411e-05
6.15413e-05
6.08956e-05
5.97234e-05
8.21396e-05
5.71875e-05
0.000114656
5.39732e-05
0.000163014
4.94109e-05
0.000236091
4.49444e-05
0.000366221
3.43871e-05
0.000535112
0.0010216
6.81685e-05
8.53225e-07
6.81146e-05
2.30426e-06
6.80302e-05
3.53536e-06
6.79155e-05
4.82583e-06
6.77661e-05
6.26123e-06
6.75792e-05
7.91758e-06
6.73334e-05
9.82145e-06
6.70347e-05
1.2463e-05
6.66804e-05
1.55111e-05
6.62262e-05
1.9208e-05
6.56569e-05
2.38514e-05
6.49519e-05
2.96853e-05
6.40697e-05
3.73436e-05
6.29755e-05
4.76373e-05
6.15545e-05
6.23176e-05
5.9751e-05
8.39433e-05
5.72403e-05
0.000117167
5.40689e-05
0.000166186
4.9565e-05
0.000240595
4.54324e-05
0.000370353
3.51214e-05
0.000545423
0.00105672
6.81686e-05
8.73407e-07
6.81147e-05
2.35864e-06
6.80302e-05
3.61968e-06
6.79155e-05
4.94051e-06
6.7766e-05
6.41022e-06
6.75798e-05
8.10394e-06
6.73253e-05
1.00757e-05
6.70386e-05
1.27498e-05
6.66806e-05
1.5869e-05
6.62269e-05
1.96618e-05
6.56579e-05
2.44204e-05
6.49533e-05
3.03899e-05
6.40725e-05
3.82263e-05
6.29817e-05
4.87257e-05
6.1568e-05
6.37303e-05
5.97792e-05
8.57319e-05
5.72948e-05
0.000119651
5.41699e-05
0.000169311
4.97226e-05
0.000245042
4.59184e-05
0.000374157
3.5867e-05
0.000555474
0.00109259
6.81684e-05
8.93638e-07
6.81146e-05
2.41314e-06
6.80301e-05
3.70386e-06
6.79156e-05
5.05493e-06
6.77661e-05
6.55895e-06
6.75799e-05
8.29021e-06
6.73229e-05
1.03327e-05
6.70393e-05
1.30335e-05
6.66807e-05
1.62275e-05
6.62274e-05
2.01151e-05
6.56588e-05
2.49891e-05
6.49547e-05
3.10938e-05
6.40752e-05
3.91043e-05
6.29881e-05
4.98149e-05
6.15817e-05
6.51376e-05
5.98082e-05
8.75056e-05
5.73504e-05
0.000122109
5.42774e-05
0.000172384
4.98829e-05
0.000249437
4.63991e-05
0.000377641
3.67035e-05
0.00056517
0.00112929
-1.44161e-06
1.44154e-06
-4.05229e-06
2.61066e-06
-5.08502e-06
1.0327e-06
-4.53046e-06
-5.54585e-07
-3.43708e-06
-1.0937e-06
-2.60259e-06
-8.34518e-07
-2.22961e-06
-3.73024e-07
-2.18424e-06
-4.50983e-08
-2.13116e-06
-5.23369e-08
-2.04808e-06
-8.12713e-08
-2.0015e-06
-2.97515e-08
-1.79681e-06
-2.15041e-07
-1.36539e-06
-4.30407e-07
-6.60404e-07
-7.09098e-07
4.84707e-07
-1.15007e-06
2.24445e-06
-1.76195e-06
4.72746e-06
-2.48119e-06
7.89717e-06
-3.16857e-06
1.14826e-05
-3.58162e-06
1.51631e-05
-3.68212e-06
1.88009e-05
-3.63706e-06
2.23246e-05
-3.52397e-06
2.56699e-05
-3.34557e-06
2.88221e-05
-3.15192e-06
3.18066e-05
-2.98402e-06
3.46572e-05
-2.85053e-06
3.75143e-05
-2.85688e-06
4.03786e-05
-2.86517e-06
4.24735e-05
-2.10224e-06
4.56373e-05
-3.1572e-06
5.60352e-05
-1.03982e-05
6.5976e-05
-9.94133e-06
6.76315e-05
-1.65476e-06
6.75938e-05
3.72538e-08
-1.34989e-08
-1.38933e-06
2.83071e-06
-3.99168e-06
5.21298e-06
-5.01044e-06
2.05141e-06
-4.46073e-06
-1.10434e-06
-3.36803e-06
-2.18698e-06
-2.54291e-06
-1.65969e-06
-2.17593e-06
-7.40071e-07
-2.14887e-06
-7.16137e-08
-2.12406e-06
-7.57223e-08
-2.06402e-06
-1.37674e-07
-2.01118e-06
-5.4472e-08
-1.77431e-06
-4.67754e-07
-1.29653e-06
-9.06262e-07
-5.73057e-07
-1.44078e-06
5.42283e-07
-2.27535e-06
2.23869e-06
-3.46287e-06
4.66887e-06
-4.90772e-06
7.82104e-06
-6.31841e-06
1.14165e-05
-7.16969e-06
1.51135e-05
-7.38215e-06
1.87629e-05
-7.28519e-06
2.22861e-05
-7.04779e-06
2.56281e-05
-6.68796e-06
2.87773e-05
-6.30065e-06
3.17604e-05
-5.96614e-06
3.46097e-05
-5.69971e-06
3.74614e-05
-5.70825e-06
4.03328e-05
-5.73815e-06
4.24701e-05
-4.25313e-06
4.54082e-05
-6.08285e-06
5.56124e-05
-2.06031e-05
6.5802e-05
-2.01319e-05
6.76326e-05
-3.48393e-06
6.75994e-05
6.9526e-08
-2.30653e-08
-1.3285e-06
4.15908e-06
-3.92059e-06
7.80504e-06
-4.92115e-06
3.05192e-06
-4.36052e-06
-1.66502e-06
-3.27307e-06
-3.27499e-06
-2.46203e-06
-2.47078e-06
-2.11001e-06
-1.09218e-06
-2.10586e-06
-7.52882e-08
-2.10642e-06
-7.38925e-08
-2.05997e-06
-1.80976e-07
-1.99552e-06
-8.99743e-08
-1.71858e-06
-7.61874e-07
-1.19781e-06
-1.42502e-06
-4.68967e-07
-2.17788e-06
6.03289e-07
-3.3577e-06
2.23658e-06
-5.10088e-06
4.62258e-06
-7.2898e-06
7.76595e-06
-9.45931e-06
1.13777e-05
-1.07736e-05
1.50975e-05
-1.1105e-05
1.87614e-05
-1.09477e-05
2.22864e-05
-1.05734e-05
2.5624e-05
-1.00259e-05
2.87687e-05
-9.44492e-06
3.17485e-05
-8.94496e-06
3.45943e-05
-8.54529e-06
3.74389e-05
-8.55254e-06
4.03134e-05
-8.61422e-06
4.24899e-05
-6.44357e-06
4.52371e-05
-8.8174e-06
5.52498e-05
-3.06163e-05
6.56387e-05
-3.05219e-05
6.76329e-05
-5.47676e-06
6.76048e-05
9.67403e-08
-2.89893e-08
-1.25723e-06
5.41616e-06
-3.84044e-06
1.03882e-05
-4.81371e-06
4.02513e-06
-4.23293e-06
-2.24585e-06
-3.1509e-06
-4.35758e-06
-2.35955e-06
-3.26218e-06
-2.02627e-06
-1.4255e-06
-2.04415e-06
-5.6873e-08
-2.06655e-06
-5.00866e-08
-2.03423e-06
-2.09646e-07
-1.95961e-06
-1.38092e-07
-1.64103e-06
-1.09403e-06
-1.07702e-06
-1.98684e-06
-3.42671e-07
-2.92202e-06
6.87002e-07
-4.39931e-06
2.25454e-06
-6.67434e-06
4.59223e-06
-9.62257e-06
7.72741e-06
-1.25912e-05
1.13629e-05
-1.43996e-05
1.51152e-05
-1.4861e-05
1.88001e-05
-1.46312e-05
2.23287e-05
-1.41026e-05
2.56613e-05
-1.33589e-05
2.87995e-05
-1.25826e-05
3.17734e-05
-1.19179e-05
3.46128e-05
-1.13846e-05
3.74478e-05
-1.13872e-05
4.03218e-05
-1.14899e-05
4.25353e-05
-8.67149e-06
4.51231e-05
-1.13916e-05
5.49443e-05
-4.04381e-05
6.54852e-05
-4.10639e-05
6.76321e-05
-7.62222e-06
6.761e-05
1.1795e-07
-3.14828e-08
-1.17524e-06
6.59127e-06
-3.75059e-06
1.29635e-05
-4.68614e-06
4.96062e-06
-4.07711e-06
-2.85493e-06
-3.00177e-06
-5.43345e-06
-2.23574e-06
-4.02826e-06
-1.92464e-06
-1.73667e-06
-1.96324e-06
-1.78241e-08
-2.00491e-06
-7.22782e-09
-1.98646e-06
-2.25113e-07
-1.90082e-06
-1.98419e-07
-1.53853e-06
-1.46993e-06
-9.31093e-07
-2.59203e-06
-1.90373e-07
-3.67236e-06
7.99633e-07
-5.40083e-06
2.3011e-06
-8.18187e-06
4.58585e-06
-1.19019e-05
7.71209e-06
-1.57139e-05
1.13792e-05
-1.80557e-05
1.51749e-05
-1.8661e-05
1.88876e-05
-1.83421e-05
2.24212e-05
-1.7637e-05
2.57471e-05
-1.66852e-05
2.88757e-05
-1.57107e-05
3.18402e-05
-1.48812e-05
3.46698e-05
-1.42139e-05
3.74918e-05
-1.42089e-05
4.03609e-05
-1.43608e-05
4.26088e-05
-1.09344e-05
4.50644e-05
-1.38328e-05
5.46913e-05
-5.00655e-05
6.53405e-05
-5.17141e-05
6.76304e-05
-9.91083e-06
6.7615e-05
1.32471e-07
-3.07862e-08
-1.08213e-06
7.67325e-06
-3.65011e-06
1.55315e-05
-4.53583e-06
5.84627e-06
-3.8912e-06
-3.49962e-06
-2.82482e-06
-6.50036e-06
-2.08981e-06
-4.76333e-06
-1.80406e-06
-2.02244e-06
-1.862e-06
4.06803e-08
-1.92135e-06
5.35454e-08
-1.91599e-06
-2.26646e-07
-1.81691e-06
-2.73461e-07
-1.40913e-06
-1.88795e-06
-7.59129e-07
-3.23953e-06
-1.07834e-08
-4.43229e-06
9.45753e-07
-6.37114e-06
2.38639e-06
-9.63005e-06
4.61755e-06
-1.41263e-05
7.73463e-06
-1.8826e-05
1.14413e-05
-2.17482e-05
1.52918e-05
-2.25166e-05
1.90387e-05
-2.20872e-05
2.25777e-05
-2.11768e-05
2.58936e-05
-2.00017e-05
2.90078e-05
-1.88242e-05
3.19575e-05
-1.78297e-05
3.47722e-05
-1.70284e-05
3.75768e-05
-1.70131e-05
4.04358e-05
-1.72219e-05
4.27148e-05
-1.32297e-05
4.50592e-05
-1.61612e-05
5.44859e-05
-5.94927e-05
6.52034e-05
-6.24328e-05
6.76276e-05
-1.23336e-05
6.76197e-05
1.39359e-07
-2.71484e-08
-9.77502e-07
8.65063e-06
-3.53774e-06
1.80917e-05
-4.35923e-06
6.66768e-06
-3.6719e-06
-4.18701e-06
-2.618e-06
-7.55478e-06
-1.91979e-06
-5.46159e-06
-1.66247e-06
-2.27984e-06
-1.7384e-06
1.1707e-07
-1.81457e-06
1.30894e-07
-1.82133e-06
-2.16773e-07
-1.70553e-06
-3.67227e-07
-1.25091e-06
-2.35233e-06
-5.59396e-07
-3.92846e-06
1.98758e-07
-5.20187e-06
1.13021e-06
-7.31546e-06
2.52085e-06
-1.10281e-05
4.70549e-06
-1.6304e-05
7.81782e-06
-2.19329e-05
1.15737e-05
-2.54873e-05
1.54906e-05
-2.64397e-05
1.92781e-05
-2.58723e-05
2.28212e-05
-2.47209e-05
2.61209e-05
-2.3302e-05
2.92122e-05
-2.19147e-05
3.21388e-05
-2.07549e-05
3.4931e-05
-1.98205e-05
3.77118e-05
-1.97934e-05
4.0554e-05
-2.00664e-05
4.28594e-05
-1.55528e-05
4.51085e-05
-1.83928e-05
5.43248e-05
-6.87095e-05
6.50731e-05
-7.31822e-05
6.76238e-05
-1.48831e-05
6.76242e-05
1.38059e-07
-2.08516e-08
-8.60939e-07
9.5114e-06
-3.41178e-06
2.06425e-05
-4.15191e-06
7.40772e-06
-3.41506e-06
-4.92393e-06
-2.37876e-06
-8.59162e-06
-1.72305e-06
-6.11735e-06
-1.49707e-06
-2.50583e-06
-1.58956e-06
2.10181e-07
-1.682e-06
2.24869e-07
-1.6996e-06
-1.94893e-07
-1.56316e-06
-4.81395e-07
-1.06002e-06
-2.86238e-06
-3.26679e-07
-4.6589e-06
4.45189e-07
-5.98808e-06
1.3608e-06
-8.24723e-06
2.71587e-06
-1.23925e-05
4.87039e-06
-1.84496e-05
7.99233e-06
-2.50475e-05
1.18128e-05
-2.9286e-05
1.58104e-05
-3.04452e-05
1.96449e-05
-2.97041e-05
2.31886e-05
-2.82659e-05