/*--------------------------------*- C++ -*----------------------------------*\
| =========                 |                                                 |
| \\      /  F ield         | OpenFOAM: The Open Source CFD Toolbox           |
|  \\    /   O peration     | Version:  v1912                                 |
|   \\  /    A nd           | Website:  www.openfoam.com                      |
|    \\/     M anipulation  |                                                 |
\*---------------------------------------------------------------------------*/
FoamFile
{
    version     2.0;
    format      ascii;
    class       volVectorField;
    location    "410";
    object      U;
}
// * * * * * * * * * * * * * * * * * * * * * * * * * * * * * * * * * * * * * //

dimensions      [0 1 -1 0 0 0 0];


internalField   nonuniform List<vector> 
12441
(
(29.9988 1.70602e-05 0)
(29.9854 5.1787e-05 0)
(29.9563 8.95746e-05 0)
(29.912 0.00013772 0)
(29.854 0.000200964 0)
(29.78 0.000285369 0)
(29.6883 0.000397035 0)
(29.5733 0.000562779 0)
(29.4304 0.000781982 0)
(29.252 0.00109384 0)
(29.032 0.00152178 0)
(28.7562 0.00214708 0)
(28.409 0.00297968 0)
(27.9881 0.00441918 0)
(27.4123 0.00622828 0)
(26.6287 0.0112453 0)
(25.5895 0.0150189 0)
(23.931 0.0313488 0)
(21.5924 0.0526888 0)
(17.9142 0.091184 0)
(12.1337 0.122282 0)
(5.82315 0.196953 0)
(29.9989 5.07198e-05 0)
(29.9853 0.000154884 0)
(29.9562 0.000267246 0)
(29.9119 0.000410756 0)
(29.8539 0.000599638 0)
(29.7799 0.000851657 0)
(29.6883 0.00118656 0)
(29.5732 0.00168314 0)
(29.4303 0.00233753 0)
(29.252 0.00327266 0)
(29.032 0.004558 0)
(28.7556 0.00644211 0)
(28.4089 0.0088884 0)
(27.9885 0.0132795 0)
(27.4103 0.0187402 0)
(26.6291 0.0335273 0)
(25.5897 0.0476845 0)
(23.93 0.0899324 0)
(21.5921 0.137626 0)
(17.9124 0.263836 0)
(12.1348 0.359279 0)
(5.82693 0.588204 0)
(29.9989 8.4272e-05 0)
(29.9853 0.000258035 0)
(29.9562 0.000444167 0)
(29.9119 0.000682673 0)
(29.8539 0.000996987 0)
(29.7799 0.00141744 0)
(29.6883 0.00197454 0)
(29.5732 0.00280215 0)
(29.4303 0.00389171 0)
(29.252 0.00544896 0)
(29.0321 0.00759377 0)
(28.7559 0.0107337 0)
(28.4084 0.0147872 0)
(27.9911 0.0221545 0)
(27.4116 0.031283 0)
(26.6307 0.0549523 0)
(25.591 0.0811108 0)
(23.9345 0.146698 0)
(21.5953 0.220026 0)
(17.9118 0.434157 0)
(12.1406 0.592795 0)
(5.83507 0.977506 0)
(29.9989 0.000118257 0)
(29.9853 0.000361916 0)
(29.9562 0.000621963 0)
(29.9119 0.000955888 0)
(29.854 0.00139608 0)
(29.7799 0.00198518 0)
(29.6883 0.0027651 0)
(29.5733 0.00392448 0)
(29.4304 0.0054498 0)
(29.2521 0.00763051 0)
(29.0321 0.010636 0)
(28.7558 0.0150322 0)
(28.409 0.0207023 0)
(27.9882 0.0310457 0)
(27.411 0.0438414 0)
(26.6304 0.076437 0)
(25.5925 0.113785 0)
(23.9391 0.206453 0)
(21.6037 0.327162 0)
(17.9161 0.612509 0)
(12.1527 0.830271 0)
(5.84794 1.36846 0)
(29.9989 0.0001523 0)
(29.9853 0.000465657 0)
(29.9562 0.000799557 0)
(29.9119 0.00122887 0)
(29.854 0.00179479 0)
(29.7799 0.00255231 0)
(29.6884 0.00355496 0)
(29.5733 0.00504592 0)
(29.4304 0.00700673 0)
(29.2521 0.00981052 0)
(29.0322 0.0136768 0)
(28.756 0.0193294 0)
(28.4085 0.0266254 0)
(27.9912 0.0399259 0)
(27.4124 0.0564261 0)
(26.6317 0.0976914 0)
(25.5952 0.14597 0)
(23.9436 0.266966 0)
(21.6146 0.417117 0)
(17.9263 0.78705 0)
(12.1726 1.06753 0)
(5.86584 1.76069 0)
(29.9989 0.00018634 0)
(29.9853 0.000569317 0)
(29.9562 0.000977132 0)
(29.9119 0.00150187 0)
(29.854 0.0021935 0)
(29.78 0.00311948 0)
(29.6884 0.00434495 0)
(29.5733 0.00616745 0)
(29.4304 0.00856383 0)
(29.2522 0.011991 0)
(29.0323 0.0167178 0)
(28.7561 0.0236258 0)
(28.4096 0.0325509 0)
(27.9878 0.0487985 0)
(27.4123 0.0690162 0)
(26.6319 0.118832 0)
(25.5976 0.17788 0)
(23.9478 0.326936 0)
(21.6273 0.505514 0)
(17.9433 0.960278 0)
(12.202 1.30447 0)
(5.88917 2.15403 0)
(29.9989 0.000220375 0)
(29.9853 0.000672925 0)
(29.9562 0.0011547 0)
(29.912 0.00177488 0)
(29.854 0.00259217 0)
(29.78 0.00368661 0)
(29.6884 0.00513492 0)
(29.5734 0.00728892 0)
(29.4305 0.0101209 0)
(29.2522 0.0141713 0)
(29.0324 0.0197589 0)
(28.7562 0.0279229 0)
(28.4088 0.0384842 0)
(27.9917 0.0576503 0)
(27.4139 0.0816038 0)
(26.6335 0.139832 0)
(25.6012 0.209092 0)
(23.9523 0.38439 0)
(21.6447 0.596055 0)
(17.9701 1.13361 0)
(12.2432 1.54151 0)
(5.91844 2.54877 0)
(29.9989 0.000254407 0)
(29.9853 0.000776496 0)
(29.9562 0.00133226 0)
(29.912 0.00204787 0)
(29.854 0.00299079 0)
(29.78 0.0042537 0)
(29.6884 0.00592488 0)
(29.5734 0.0084103 0)
(29.4305 0.0116779 0)
(29.2523 0.0163515 0)
(29.0325 0.0228001 0)
(28.7565 0.0322167 0)
(28.4107 0.0444142 0)
(27.9877 0.0664764 0)
(27.4141 0.0940413 0)
(26.6334 0.16045 0)
(25.6062 0.241854 0)
(23.9581 0.443794 0)
(21.675 0.687671 0)
(18.0136 1.30643 0)
(12.2995 1.77887 0)
(5.95423 2.94539 0)
(29.9989 0.000288438 0)
(29.9853 0.000880022 0)
(29.9562 0.0015098 0)
(29.912 0.00232087 0)
(29.854 0.00338936 0)
(29.78 0.00482075 0)
(29.6885 0.0067148 0)
(29.5735 0.00953162 0)
(29.4306 0.0132348 0)
(29.2524 0.0185317 0)
(29.0326 0.0258408 0)
(28.7564 0.036514 0)
(28.4091 0.050349 0)
(27.9921 0.0753982 0)
(27.4175 0.106591 0)
(26.6346 0.181437 0)
(25.615 0.273076 0)
(23.9698 0.502627 0)
(21.7301 0.778974 0)
(18.0815 1.47843 0)
(12.3743 2.01681 0)
(5.9972 3.34442 0)
(29.9989 0.000322466 0)
(29.9853 0.000983512 0)
(29.9562 0.00168733 0)
(29.912 0.00259385 0)
(29.854 0.00378789 0)
(29.7801 0.00538775 0)
(29.6885 0.0075047 0)
(29.5735 0.0106528 0)
(29.4307 0.0147915 0)
(29.2525 0.0207115 0)
(29.0327 0.028881 0)
(28.757 0.0408066 0)
(28.4123 0.0562977 0)
(27.9881 0.0840715 0)
(27.4193 0.119793 0)
(26.6339 0.20274 0)
(25.6283 0.304826 0)
(23.9956 0.559543 0)
(21.8118 0.869994 0)
(18.1765 1.6499 0)
(12.4701 2.25575 0)
(6.04803 3.74643 0)
(29.9988 0.000356491 0)
(29.9854 0.00108696 0)
(29.9563 0.00186486 0)
(29.912 0.00286682 0)
(29.854 0.00418638 0)
(29.7801 0.0059547 0)
(29.6885 0.00829455 0)
(29.5735 0.011774 0)
(29.4307 0.016348 0)
(29.2526 0.0228916 0)
(29.0328 0.0319218 0)
(28.7567 0.0450972 0)
(28.4096 0.0623101 0)
(27.9878 0.0927307 0)
(27.4204 0.132305 0)
(26.6341 0.222957 0)
(25.6459 0.337516 0)
(24.037 0.615673 0)
(21.9052 0.960818 0)
(18.2919 1.82082 0)
(12.5873 2.49603 0)
(6.10735 4.15206 0)
(29.9988 0.000390513 0)
(29.9853 0.00119037 0)
(29.9563 0.00204239 0)
(29.912 0.00313979 0)
(29.8541 0.00458481 0)
(29.7801 0.0065216 0)
(29.6886 0.00908437 0)
(29.5736 0.012895 0)
(29.4308 0.0179044 0)
(29.2527 0.0250707 0)
(29.033 0.0349646 0)
(28.7575 0.0493819 0)
(28.4141 0.0683169 0)
(27.9823 0.101649 0)
(27.4194 0.145794 0)
(26.6358 0.243429 0)
(25.6628 0.36991 0)
(24.0817 0.670052 0)
(21.9921 1.05065 0)
(18.4163 1.99063 0)
(12.7241 2.73778 0)
(6.17568 4.56195 0)
(29.9988 0.00042453 0)
(29.9854 0.00129374 0)
(29.9563 0.00221992 0)
(29.912 0.00341275 0)
(29.8541 0.00498322 0)
(29.7801 0.00708845 0)
(29.6886 0.00987415 0)
(29.5736 0.014016 0)
(29.4308 0.0194601 0)
(29.2529 0.0272505 0)
(29.0332 0.0380019 0)
(28.7574 0.0537121 0)
(28.4141 0.0742998 0)
(27.9784 0.110715 0)
(27.4183 0.159508 0)
(26.6386 0.263411 0)
(25.6758 0.401711 0)
(24.1193 0.72248 0)
(22.0641 1.13911 0)
(18.539 2.15872 0)
(12.8768 2.98087 0)
(6.25328 4.9767 0)
(29.9988 0.000458543 0)
(29.9854 0.00139707 0)
(29.9563 0.00239745 0)
(29.912 0.00368569 0)
(29.8541 0.00538157 0)
(29.7801 0.00765524 0)
(29.6886 0.0106639 0)
(29.5737 0.0151368 0)
(29.4309 0.0210155 0)
(29.253 0.0294304 0)
(29.0335 0.0410564 0)
(28.7583 0.0580385 0)
(28.4183 0.0807034 0)
(27.9743 0.119858 0)
(27.4176 0.172792 0)
(26.6412 0.282756 0)
(25.6846 0.432952 0)
(24.1471 0.773377 0)
(22.1215 1.22618 0)
(18.6537 2.32467 0)
(13.0412 3.22497 0)
(6.34015 5.39683 0)
(29.9988 0.000492548 0)
(29.9854 0.00150036 0)
(29.9563 0.002575 0)
(29.912 0.00395863 0)
(29.8541 0.00577989 0)
(29.7802 0.00822198 0)
(29.6887 0.0114536 0)
(29.5737 0.0162575 0)
(29.431 0.0225709 0)
(29.2532 0.0316079 0)
(29.0335 0.044129 0)
(28.7587 0.0622444 0)
(28.4168 0.0870376 0)
(27.9715 0.12874 0)
(27.4172 0.185908 0)
(26.6433 0.30188 0)
(25.6902 0.463908 0)
(24.1669 0.823245 0)
(22.1674 1.312 0)
(18.7579 2.48821 0)
(13.2133 3.46969 0)
(6.43603 5.82276 0)
(29.9988 0.000526547 0)
(29.9854 0.00160361 0)
(29.9563 0.00275255 0)
(29.912 0.00423155 0)
(29.8541 0.00617816 0)
(29.7802 0.00878864 0)
(29.6887 0.0122431 0)
(29.5738 0.0173783 0)
(29.431 0.0241252 0)
(29.2533 0.0337901 0)
(29.0333 0.0472091 0)
(28.7588 0.066577 0)
(28.4151 0.0933272 0)
(27.9695 0.137469 0)
(27.4171 0.198929 0)
(26.6449 0.320949 0)
(25.6934 0.49472 0)
(24.1809 0.872431 0)
(22.205 1.39665 0)
(18.8514 2.64918 0)
(13.3897 3.71459 0)
(6.54049 6.25482 0)
(29.9988 0.000560539 0)
(29.9854 0.00170682 0)
(29.9563 0.00293013 0)
(29.912 0.00450447 0)
(29.8541 0.0065764 0)
(29.7802 0.00935526 0)
(29.6887 0.0130326 0)
(29.5739 0.018499 0)
(29.4311 0.02568 0)
(29.2534 0.0359695 0)
(29.0332 0.050358 0)
(28.7581 0.0709525 0)
(28.4131 0.099518 0)
(27.9685 0.146155 0)
(27.417 0.211945 0)
(26.6461 0.340008 0)
(25.6952 0.525439 0)
(24.191 0.921125 0)
(22.237 1.48024 0)
(18.9353 2.80746 0)
(13.5683 3.95928 0)
(6.653 6.69329 0)
(29.9988 0.000594523 0)
(29.9854 0.00180999 0)
(29.9563 0.00310771 0)
(29.912 0.00477737 0)
(29.8541 0.00697459 0)
(29.7802 0.00992179 0)
(29.6888 0.0138221 0)
(29.5739 0.0196195 0)
(29.4311 0.0272353 0)
(29.2534 0.0381446 0)
(29.0334 0.0535302 0)
(28.7569 0.0753754 0)
(28.4118 0.105628 0)
(27.9679 0.154833 0)
(27.4169 0.22497 0)
(26.6472 0.359069 0)
(25.696 0.556091 0)
(24.1984 0.969432 0)
(22.2654 1.56281 0)
(19.0111 2.96299 0)
(13.7475 4.20341 0)
(6.77303 7.13838 0)
(29.9988 0.000628498 0)
(29.9854 0.00191312 0)
(29.9563 0.00328532 0)
(29.912 0.00505026 0)
(29.8541 0.00737275 0)
(29.7803 0.0104883 0)
(29.6888 0.0146114 0)
(29.574 0.0207401 0)
(29.4313 0.0287901 0)
(29.2535 0.0403304 0)
(29.0337 0.0566912 0)
(28.7556 0.0796735 0)
(28.4108 0.111735 0)
(27.9675 0.163513 0)
(27.417 0.238 0)
(26.6481 0.378133 0)
(25.6962 0.586692 0)
(24.2043 1.01741 0)
(22.2917 1.64444 0)
(19.0805 3.11573 0)
(13.9267 4.44664 0)
(6.90007 7.59027 0)
(29.9988 0.000662465 0)
(29.9854 0.00201621 0)
(29.9563 0.00346294 0)
(29.9121 0.00532313 0)
(29.8542 0.00777085 0)
(29.7803 0.0110546 0)
(29.6888 0.0154007 0)
(29.574 0.0218603 0)
(29.4313 0.0303462 0)
(29.2536 0.0425253 0)
(29.0338 0.0599051 0)
(28.7546 0.0838825 0)
(28.4103 0.117835 0)
(27.9674 0.172207 0)
(27.417 0.251033 0)
(26.649 0.397204 0)
(25.6963 0.617252 0)
(24.2094 1.06509 0)
(22.3171 1.72515 0)
(19.145 3.26565 0)
(14.1058 4.68872 0)
(7.03368 8.04912 0)
(29.9988 0.000696422 0)
(29.9854 0.00211926 0)
(29.9563 0.00364058 0)
(29.9121 0.00559599 0)
(29.8542 0.00816893 0)
(29.7803 0.011621 0)
(29.6889 0.0161899 0)
(29.5741 0.0229802 0)
(29.4314 0.031902 0)
(29.254 0.0447366 0)
(29.0334 0.0631263 0)
(28.7539 0.0880848 0)
(28.41 0.123949 0)
(27.9674 0.180905 0)
(27.4172 0.264061 0)
(26.6499 0.416283 0)
(25.6963 0.647782 0)
(24.2143 1.11248 0)
(22.3424 1.80497 0)
(19.2062 3.41275 0)
(14.285 4.92941 0)
(7.1735 8.51508 0)
(29.9988 0.000730371 0)
(29.9854 0.00222227 0)
(29.9563 0.00381823 0)
(29.9121 0.00586882 0)
(29.8542 0.00856695 0)
(29.7804 0.0121872 0)
(29.6889 0.0169788 0)
(29.5742 0.0241005 0)
(29.4314 0.0334537 0)
(29.2544 0.0470067 0)
(29.0324 0.0663103 0)
(28.7535 0.0923023 0)
(28.4098 0.130067 0)
(27.9676 0.189609 0)
(27.4175 0.277086 0)
(26.651 0.435369 0)
(25.6967 0.678291 0)
(24.2194 1.15955 0)
(22.3682 1.88393 0)
(19.2651 3.55704 0)
(14.465 5.16852 0)
(7.31929 8.98832 0)
(29.9988 0.000764309 0)
(29.9854 0.00232524 0)
(29.9563 0.00399591 0)
(29.9121 0.00614165 0)
(29.8542 0.00896493 0)
(29.7804 0.0127534 0)
(29.689 0.0177675 0)
(29.5743 0.0252207 0)
(29.4315 0.0350039 0)
(29.2548 0.0493185 0)
(29.0314 0.0694651 0)
(28.7533 0.0965515 0)
(28.4098 0.136195 0)
(27.9678 0.198311 0)
(27.4178 0.290104 0)
(26.6523 0.454462 0)
(25.6977 0.708781 0)
(24.2253 1.20626 0)
(22.3948 1.96205 0)
(19.3229 3.6985 0)
(14.6466 5.40588 0)
(7.47089 9.469 0)
(29.9988 0.000798239 0)
(29.9854 0.00242817 0)
(29.9563 0.0041736 0)
(29.9121 0.00641445 0)
(29.8542 0.00936285 0)
(29.7804 0.0133195 0)
(29.689 0.018556 0)
(29.5744 0.026341 0)
(29.4316 0.036551 0)
(29.2551 0.051658 0)
(29.0307 0.072519 0)
(28.7533 0.100822 0)
(28.4098 0.142323 0)
(27.9681 0.207013 0)
(27.4184 0.303116 0)
(26.6538 0.473557 0)
(25.6995 0.739238 0)
(24.2319 1.25258 0)
(22.4224 2.03934 0)
(19.3805 3.83713 0)
(14.8309 5.64136 0)
(7.62824 9.95731 0)
(29.9988 0.000832157 0)
(29.9854 0.00253106 0)
(29.9563 0.00435131 0)
(29.9121 0.00668724 0)
(29.8542 0.00976073 0)
(29.7804 0.0138855 0)
(29.689 0.0193443 0)
(29.5745 0.0274613 0)
(29.4318 0.0380953 0)
(29.2551 0.0539766 0)
(29.0303 0.0755014 0)
(28.7533 0.105107 0)
(28.4099 0.148454 0)
(27.9685 0.215711 0)
(27.4191 0.316119 0)
(26.6557 0.492646 0)
(25.7022 0.769639 0)
(24.2395 1.2985 0)
(22.451 2.11583 0)
(19.4385 3.9729 0)
(15.0191 5.87483 0)
(7.79138 10.4534 0)
(29.9988 0.000866067 0)
(29.9854 0.00263391 0)
(29.9563 0.00452904 0)
(29.9121 0.00696 0)
(29.8542 0.0101586 0)
(29.7805 0.0144514 0)
(29.6891 0.0201327 0)
(29.5745 0.02858 0)
(29.432 0.0396552 0)
(29.2548 0.056274 0)
(29.0302 0.0784534 0)
(28.7534 0.109399 0)
(28.4101 0.154583 0)
(27.9689 0.224405 0)
(27.42 0.32911 0)
(26.6581 0.511714 0)
(25.7061 0.799957 0)
(24.2481 1.34403 0)
(22.4806 2.19152 0)
(19.4975 4.10574 0)
(15.2124 6.10619 0)
(7.96045 10.9576 0)
(29.9988 0.000899965 0)
(29.9855 0.00273671 0)
(29.9563 0.00470679 0)
(29.9121 0.00723274 0)
(29.8542 0.0105564 0)
(29.7805 0.0150172 0)
(29.6892 0.0209211 0)
(29.5745 0.0296995 0)
(29.4323 0.0412238 0)
(29.2541 0.0586657 0)
(29.0302 0.0814127 0)
(28.7536 0.113696 0)
(28.4103 0.160711 0)
(27.9695 0.233094 0)
(27.4211 0.342084 0)
(26.6609 0.530748 0)
(25.7111 0.830176 0)
(24.2578 1.38918 0)
(22.5112 2.2664 0)
(19.558 4.23556 0)
(15.412 6.33535 0)
(8.13564 11.4702 0)
(29.9988 0.000933854 0)
(29.9854 0.00283948 0)
(29.9563 0.00488455 0)
(29.9121 0.00750545 0)
(29.8543 0.0109541 0)
(29.7805 0.0155828 0)
(29.6892 0.0217091 0)
(29.5745 0.0308181 0)
(29.4327 0.0428026 0)
(29.2533 0.061016 0)
(29.0303 0.0843974 0)
(28.7538 0.117994 0)
(28.4106 0.166836 0)
(27.9701 0.241775 0)
(27.4225 0.355035 0)
(26.6642 0.549732 0)
(25.717 0.86029 0)
(24.2687 1.43396 0)
(22.5427 2.34048 0)
(19.62 4.36226 0)
(15.6193 6.56223 0)
(8.31722 11.9913 0)
(29.9988 0.000967732 0)
(29.9855 0.00294221 0)
(29.9564 0.00506233 0)
(29.9121 0.00777813 0)
(29.8543 0.0113518 0)
(29.7806 0.0161482 0)
(29.6893 0.0224977 0)
(29.5746 0.0319322 0)
(29.4331 0.0444358 0)
(29.2525 0.0632219 0)
(29.0304 0.0874098 0)
(28.754 0.122293 0)
(28.4109 0.172957 0)
(27.9709 0.250447 0)
(27.4241 0.367956 0)
(26.668 0.568657 0)
(25.724 0.890297 0)
(24.2808 1.47837 0)
(22.575 2.41375 0)
(19.6838 4.48569 0)
(15.835 6.78674 0)
(8.50552 12.5215 0)
(29.9988 0.0010016 0)
(29.9854 0.00304489 0)
(29.9563 0.00524012 0)
(29.9121 0.00805078 0)
(29.8543 0.0117495 0)
(29.7806 0.0167135 0)
(29.6894 0.0232862 0)
(29.5746 0.0330455 0)
(29.4334 0.0460916 0)
(29.2519 0.0654013 0)
(29.0307 0.0904429 0)
(28.7543 0.126592 0)
(28.4113 0.179075 0)
(27.9717 0.259108 0)
(27.4259 0.380844 0)
(26.6723 0.587514 0)
(25.7318 0.920194 0)
(24.2941 1.52242 0)
(22.6082 2.48619 0)
(19.7492 4.60569 0)
(16.0601 7.00878 0)
(8.70088 13.0609 0)
(29.9988 0.00103546 0)
(29.9855 0.00314754 0)
(29.9564 0.00541793 0)
(29.9122 0.00832341 0)
(29.8543 0.0121471 0)
(29.7806 0.0172787 0)
(29.6894 0.0240745 0)
(29.5747 0.0341587 0)
(29.4337 0.0477563 0)
(29.2517 0.0675705 0)
(29.031 0.0934883 0)
(28.7546 0.130891 0)
(28.4117 0.185188 0)
(27.9727 0.267754 0)
(27.428 0.393695 0)
(26.6769 0.606298 0)
(25.7405 0.949972 0)
(24.3088 1.56611 0)
(22.6422 2.55781 0)
(19.8161 4.72211 0)
(16.295 7.22826 0)
(8.90366 13.61 0)
(29.9988 0.00106931 0)
(29.9855 0.00325015 0)
(29.9563 0.00559574 0)
(29.9122 0.008596 0)
(29.8544 0.0125447 0)
(29.7807 0.0178437 0)
(29.6895 0.0248626 0)
(29.5748 0.0352712 0)
(29.4337 0.0494296 0)
(29.2518 0.0697178 0)
(29.0313 0.0965412 0)
(28.7549 0.135189 0)
(28.4122 0.191295 0)
(27.9737 0.276384 0)
(27.4303 0.406505 0)
(26.6819 0.625003 0)
(25.75 0.979618 0)
(24.3249 1.60944 0)
(22.6771 2.6286 0)
(19.8843 4.83476 0)
(16.5398 7.44507 0)
(9.11419 14.1691 0)
(29.9988 0.00110315 0)
(29.9855 0.00335272 0)
(29.9564 0.00577357 0)
(29.9122 0.00886856 0)
(29.8544 0.0129422 0)
(29.7807 0.0184086 0)
(29.6895 0.0256504 0)
(29.575 0.036384 0)
(29.4337 0.0511072 0)
(29.2522 0.0718498 0)
(29.0316 0.0995993 0)
(28.7552 0.139487 0)
(28.4126 0.197397 0)
(27.9748 0.284998 0)
(27.4327 0.419273 0)
(26.6873 0.643623 0)
(25.7603 1.00912 0)
(24.3424 1.6524 0)
(22.713 2.69857 0)
(19.9538 4.94347 0)
(16.7944 7.65908 0)
(9.33282 14.7388 0)
(29.9988 0.00113698 0)
(29.9855 0.00345526 0)
(29.9564 0.00595141 0)
(29.9122 0.00914109 0)
(29.8544 0.0133397 0)
(29.7808 0.0189735 0)
(29.6896 0.0264374 0)
(29.5752 0.0374974 0)
(29.4336 0.0527869 0)
(29.2527 0.0739689 0)
(29.032 0.102662 0)
(28.7556 0.143783 0)
(28.4132 0.203492 0)
(27.976 0.293592 0)
(27.4354 0.431997 0)
(26.693 0.662153 0)
(25.7714 1.03847 0)
(24.3613 1.695 0)
(22.75 2.76772 0)
(20.0244 5.04808 0)
(17.0586 7.87017 0)
(9.55982 15.3192 0)
(29.9988 0.0011708 0)
(29.9855 0.00355777 0)
(29.9564 0.00612925 0)
(29.9122 0.0094136 0)
(29.8544 0.013737 0)
(29.7808 0.0195385 0)
(29.6896 0.027224 0)
(29.5754 0.0386071 0)
(29.4334 0.0544656 0)
(29.2533 0.0760785 0)
(29.0324 0.105727 0)
(28.756 0.148078 0)
(28.4138 0.20958 0)
(27.9773 0.302167 0)
(27.4382 0.444675 0)
(26.6989 0.680585 0)
(25.7832 1.06764 0)
(24.3817 1.73722 0)
(22.7882 2.83605 0)
(20.0962 5.14845 0)
(17.3322 8.07819 0)
(9.79547 15.911 0)
(29.9988 0.00120461 0)
(29.9855 0.00366023 0)
(29.9564 0.0063071 0)
(29.9122 0.00968604 0)
(29.8544 0.0141344 0)
(29.7809 0.0201026 0)
(29.6896 0.0280131 0)
(29.5756 0.0397135 0)
(29.433 0.0560676 0)
(29.2539 0.0781795 0)
(29.0328 0.108796 0)
(28.7564 0.152372 0)
(28.4144 0.215661 0)
(27.9786 0.310721 0)
(27.4411 0.457305 0)
(26.7052 0.698914 0)
(25.7957 1.09662 0)
(24.4035 1.77907 0)
(22.8278 2.90357 0)
(20.1694 5.24443 0)
(17.6149 8.283 0)
(10.04 16.5144 0)
(29.9988 0.00123842 0)
(29.9855 0.00376267 0)
(29.9564 0.00648494 0)
(29.9122 0.00995851 0)
(29.8544 0.0145313 0)
(29.7809 0.0206684 0)
(29.6897 0.0287933 0)
(29.5759 0.0408741 0)
(29.4325 0.0574477 0)
(29.2546 0.0802838 0)
(29.0332 0.111868 0)
(28.7568 0.156665 0)
(28.415 0.221734 0)
(27.98 0.319254 0)
(27.4442 0.469885 0)
(26.7117 0.717133 0)
(25.8088 1.1254 0)
(24.4268 1.82053 0)
(22.8689 2.97028 0)
(20.2442 5.33587 0)
(17.9067 8.48445 0)
(10.2936 17.1299 0)
(29.9988 0.00127221 0)
(29.9855 0.00386507 0)
(29.9564 0.00666278 0)
(29.9122 0.0102309 0)
(29.8545 0.0149284 0)
(29.781 0.0212324 0)
(29.6897 0.0295821 0)
(29.5762 0.0419946 0)
(29.4322 0.0593202 0)
(29.2552 0.0824214 0)
(29.0336 0.114941 0)
(28.7572 0.160955 0)
(28.4157 0.227799 0)
(27.9815 0.327765 0)
(27.4474 0.482412 0)
(26.7184 0.735235 0)
(25.8226 1.15397 0)
(24.4515 1.86158 0)
(22.9118 3.03616 0)
(20.3208 5.42265 0)
(18.2079 8.68239 0)
(10.5565 17.758 0)
(29.9988 0.001306 0)
(29.9855 0.00396743 0)
(29.9564 0.00684065 0)
(29.9123 0.0105032 0)
(29.8545 0.0153257 0)
(29.781 0.0217962 0)
(29.6898 0.0303655 0)
(29.5763 0.0431651 0)
(29.4323 0.0611083 0)
(29.2557 0.0845912 0)
(29.034 0.118015 0)
(28.7577 0.165244 0)
(28.4164 0.233855 0)
(27.983 0.336252 0)
(27.4508 0.494886 0)
(26.7254 0.753216 0)
(25.8371 1.1823 0)
(24.4775 1.90222 0)
(22.9568 3.10123 0)
(20.3992 5.50463 0)
(18.5189 8.87666 0)
(10.829 18.3989 0)
(29.9988 0.00133978 0)
(29.9855 0.00406975 0)
(29.9564 0.00701845 0)
(29.9123 0.0107757 0)
(29.8545 0.0157218 0)
(29.781 0.022365 0)
(29.6899 0.0311282 0)
(29.5762 0.0443556 0)
(29.4323 0.0626065 0)
(29.2562 0.0867732 0)
(29.0344 0.121091 0)
(28.7581 0.169531 0)
(28.4171 0.239902 0)
(27.9846 0.344716 0)
(27.4542 0.507304 0)
(26.7327 0.771069 0)
(25.8521 1.21038 0)
(24.5048 1.94241 0)
(23.0042 3.16546 0)
(20.4792 5.58167 0)
(18.8397 9.0671 0)
(11.1113 19.0533 0)
(29.9988 0.00137357 0)
(29.9855 0.00417206 0)
(29.9564 0.0071963 0)
(29.9123 0.0110478 0)
(29.8546 0.0161194 0)
(29.7811 0.0229243 0)
(29.6901 0.0319534 0)
(29.5758 0.0452394 0)
(29.4323 0.0640435 0)
(29.2566 0.0889554 0)
(29.0348 0.124166 0)
(28.7586 0.173815 0)
(28.4178 0.245942 0)
(27.9862 0.353155 0)
(27.4578 0.519664 0)
(26.7402 0.78879 0)
(25.8677 1.23821 0)
(24.5334 1.98213 0)
(23.0543 3.22887 0)
(20.5603 5.65364 0)
(19.1695 9.25359 0)
(11.4036 19.7213 0)
(29.9988 0.00140733 0)
(29.9855 0.00427437 0)
(29.9564 0.00737415 0)
(29.9123 0.01132 0)
(29.8546 0.0165162 0)
(29.781 0.0234894 0)
(29.6908 0.0327513 0)
(29.5733 0.0465753 0)
(29.4322 0.0655139 0)
(29.2569 0.0911354 0)
(29.0352 0.12724 0)
(28.7591 0.178096 0)
(28.4186 0.251972 0)
(27.9878 0.361569 0)
(27.4614 0.531964 0)
(26.7479 0.806373 0)
(25.8837 1.26577 0)
(24.563 2.02136 0)
(23.1076 3.29146 0)
(20.6417 5.72043 0)
(19.5054 9.43612 0)
(11.7061 20.4044 0)
(29.9988 0.00144092 0)
(29.9856 0.00437661 0)
(29.9565 0.00755211 0)
(29.9123 0.0115923 0)
(29.8547 0.0169135 0)
(29.7809 0.0240514 0)
(29.6913 0.0335668 0)
(29.5716 0.0479813 0)
(29.4321 0.0670222 0)
(29.2571 0.0933161 0)
(29.0355 0.130313 0)
(28.7595 0.182376 0)
(28.4193 0.257992 0)
(27.9895 0.369954 0)
(27.4651 0.5442 0)
(26.7558 0.823813 0)
(25.9002 1.29304 0)
(24.5937 2.06003 0)
(23.1644 3.35324 0)
(20.7229 5.78205 0)
(19.8402 9.61439 0)
(12.0184 21.1099 0)
(29.9988 0.00147405 0)
(29.9855 0.0044781 0)
(29.9564 0.0077291 0)
(29.9123 0.0118629 0)
(29.8547 0.0173098 0)
(29.7809 0.0246022 0)
(29.6914 0.0344345 0)
(29.5709 0.0491045 0)
(29.4321 0.0685401 0)
(29.2572 0.0954935 0)
(29.0359 0.133386 0)
(28.76 0.186656 0)
(28.4201 0.264003 0)
(27.9911 0.378309 0)
(27.4689 0.556372 0)
(26.7639 0.841106 0)
(25.9171 1.32001 0)
(24.6252 2.09808 0)
(23.2253 3.41425 0)
(20.8038 5.83857 0)
(20.1627 9.78638 0)
(12.4267 21.8593 0)
(0.0267029 0.0149295 0)
(-1.3533 0.0247526 0)
(-2.24818 0.00903403 0)
(-2.22715 -0.00449574 0)
(-1.7366 -0.00814279 0)
(-1.27118 -0.00575109 0)
(-1.00791 -0.00239717 0)
(-0.953036 -0.000308978 0)
(-0.970074 -0.000313043 0)
(-0.902574 -0.000394854 0)
(-0.899059 -6.8839e-05 0)
(-0.860429 -0.000859644 0)
(-0.714347 -0.0016582 0)
(-0.478261 -0.00262078 0)
(-0.0880096 -0.00397397 0)
(0.538953 -0.0056115 0)
(1.47362 -0.00727981 0)
(2.73746 -0.00857853 0)
(4.27364 -0.00891546 0)
(5.8954 -0.00838952 0)
(7.51244 -0.00759064 0)
(9.09495 -0.00677446 0)
(10.611 -0.00593346 0)
(12.0353 -0.00515874 0)
(13.3817 -0.00451017 0)
(14.659 -0.00398092 0)
(15.8882 -0.00368817 0)
(17.1757 -0.00340895 0)
(18.4061 -0.00229836 0)
(18.9946 -0.00332246 0)
(21.2554 -0.00979634 0)
(28.338 -0.00844554 0)
(29.7783 -0.00128786 0)
(29.7358 2.70688e-05 0)
(29.7472 -1.00343e-05 0)
(0.0470616 0.0439318 0)
(-1.32977 0.0739224 0)
(-2.2174 0.0269304 0)
(-2.19392 -0.0133326 0)
(-1.70514 -0.0243355 0)
(-1.24338 -0.0171169 0)
(-0.982305 -0.0070763 0)
(-0.932097 -0.000742142 0)
(-0.961413 -0.000774443 0)
(-0.907734 -0.00116255 0)
(-0.907311 -0.000417387 0)
(-0.859781 -0.00284913 0)
(-0.69202 -0.00517848 0)
(-0.437666 -0.0077479 0)
(-0.0519966 -0.0114938 0)
(0.549431 -0.0162535 0)
(1.45527 -0.0212475 0)
(2.70449 -0.0251862 0)
(4.24119 -0.0263344 0)
(5.87031 -0.0249631 0)
(7.49415 -0.022718 0)
(9.07904 -0.0203076 0)
(10.5931 -0.0178017 0)
(12.0161 -0.0154854 0)
(13.3615 -0.013535 0)
(14.6387 -0.0119359 0)
(15.8666 -0.0110399 0)
(17.1509 -0.010235 0)
(18.3911 -0.00696089 0)
(19.0072 -0.00942624 0)
(21.0318 -0.0291707 0)
(28.1929 -0.0259949 0)
(29.7757 -0.00404342 0)
(29.7397 8.15988e-05 0)
(29.748 -2.61128e-05 0)
(0.0736669 0.0717419 0)
(-1.30272 0.122872 0)
(-2.1817 0.0445302 0)
(-2.15076 -0.022211 0)
(-1.65989 -0.0406003 0)
(-1.20536 -0.0283948 0)
(-0.949412 -0.011671 0)
(-0.907257 -0.000922484 0)
(-0.948871 -0.00086426 0)
(-0.905141 -0.00161693 0)
(-0.906548 -0.000632648 0)
(-0.846219 -0.00512019 0)
(-0.655393 -0.00905189 0)
(-0.386769 -0.0130781 0)
(-0.0117254 -0.0188496 0)
(0.561357 -0.026419 0)
(1.44025 -0.0346746 0)
(2.67853 -0.0413969 0)
(4.21901 -0.0435295 0)
(5.8588 -0.0414813 0)
(7.49192 -0.0378321 0)
(9.07999 -0.0337886 0)
(10.5923 -0.029605 0)
(12.0131 -0.0257573 0)
(13.3567 -0.0225244 0)
(14.633 -0.0198704 0)
(15.8587 -0.0183709 0)
(17.1389 -0.017067 0)
(18.3863 -0.0117264 0)
(19.0306 -0.0152052 0)
(20.8497 -0.0481073 0)
(28.0578 -0.0437203 0)
(29.7724 -0.00709734 0)
(29.7436 0.000124425 0)
(29.7487 -3.66393e-05 0)
(0.106509 0.0982002 0)
(-1.27288 0.171687 0)
(-2.14073 0.0617622 0)
(-2.09666 -0.0313782 0)
(-1.60142 -0.0567565 0)
(-1.1567 -0.0394235 0)
(-0.908259 -0.016024 0)
(-0.875023 -0.000831062 0)
(-0.927197 -0.000718462 0)
(-0.892053 -0.00197527 0)
(-0.897336 -0.00101113 0)
(-0.823218 -0.00778951 0)
(-0.608881 -0.0133004 0)
(-0.326335 -0.0184751 0)
(0.0385782 -0.0260222 0)
(0.583067 -0.0364406 0)
(1.43285 -0.0482096 0)
(2.65906 -0.0579475 0)
(4.20519 -0.0610967 0)
(5.86017 -0.0582641 0)
(7.50666 -0.0530653 0)
(9.09942 -0.0473041 0)
(10.6101 -0.0414117 0)
(12.028 -0.0360278 0)
(13.3688 -0.0315123 0)
(14.6427 -0.027799 0)
(15.8651 -0.0256847 0)
(17.1401 -0.0239074 0)
(18.3926 -0.0165778 0)
(19.0653 -0.0205741 0)
(20.7077 -0.0666588 0)
(27.9316 -0.0618476 0)
(29.7684 -0.010402 0)
(29.7473 0.000160551 0)
(29.7495 -4.23201e-05 0)
(0.145969 0.123099 0)
(-1.24044 0.220339 0)
(-2.09371 0.0784368 0)
(-2.03063 -0.0409215 0)
(-1.52998 -0.0727794 0)
(-1.09738 -0.0501166 0)
(-0.859095 -0.0201094 0)
(-0.835069 -0.000491735 0)
(-0.896303 -0.000353956 0)
(-0.869005 -0.00219356 0)
(-0.878724 -0.00150802 0)
(-0.789444 -0.0108116 0)
(-0.551118 -0.0179063 0)
(-0.255076 -0.0239296 0)
(0.100979 -0.032918 0)
(0.61818 -0.0460704 0)
(1.437 -0.0615235 0)
(2.64911 -0.0745619 0)
(4.20255 -0.0788848 0)
(5.87789 -0.0752653 0)
(7.5421 -0.0684131 0)
(9.14103 -0.060842 0)
(10.6498 -0.0532002 0)
(12.0637 -0.0462734 0)
(13.4001 -0.0404783 0)
(14.6701 -0.0357066 0)
(15.8877 -0.0329714 0)
(17.156 -0.0307441 0)
(18.4113 -0.0215104 0)
(19.1125 -0.0256444 0)
(20.6026 -0.0848503 0)
(27.8135 -0.0802013 0)
(29.7636 -0.0139458 0)
(29.7507 0.00018728 0)
(29.7503 -4.3458e-05 0)
(0.192425 0.146214 0)
(-1.20547 0.268847 0)
(-2.03969 0.0943528 0)
(-1.95134 -0.0509675 0)
(-1.44527 -0.0886818 0)
(-1.02696 -0.060416 0)
(-0.80165 -0.0238925 0)
(-0.786737 8.17476e-05 0)
(-0.855857 0.000207314 0)
(-0.836238 -0.00227782 0)
(-0.849801 -0.00213086 0)
(-0.743804 -0.0141945 0)
(-0.481543 -0.0228392 0)
(-0.172775 -0.0294091 0)
(0.176411 -0.0395175 0)
(0.669931 -0.0552327 0)
(1.45854 -0.0744638 0)
(2.65521 -0.091105 0)
(4.21745 -0.0968373 0)
(5.91867 -0.0924887 0)
(7.60493 -0.0838867 0)
(9.21124 -0.0743985 0)
(10.7172 -0.0649579 0)
(12.1249 -0.0564783 0)
(13.4547 -0.049407 0)
(14.7184 -0.0435798 0)
(15.9292 -0.0402192 0)
(17.1889 -0.037564 0)
(18.4442 -0.0265178 0)
(19.174 -0.0304694 0)
(20.5314 -0.10269 0)
(27.7024 -0.0986967 0)
(29.7583 -0.0177116 0)
(29.754 0.000203382 0)
(29.7511 -4.04123e-05 0)
(0.246198 0.16731 0)
(-1.16796 0.317216 0)
(-1.9775 0.109286 0)
(-1.85679 -0.0616441 0)
(-1.34641 -0.104442 0)
(-0.944526 -0.0702573 0)
(-0.735122 -0.0273379 0)
(-0.729013 0.000873586 0)
(-0.805107 0.000953133 0)
(-0.793398 -0.00223604 0)
(-0.809575 -0.00290344 0)
(-0.685227 -0.0179446 0)
(-0.399513 -0.0280827 0)
(-0.0784929 -0.0349329 0)
(0.266274 -0.0458939 0)
(0.741183 -0.0639996 0)
(1.50398 -0.0870347 0)
(2.68692 -0.10755 0)
(4.2604 -0.114969 0)
(5.99344 -0.109977 0)
(7.70608 -0.099508 0)
(9.3207 -0.0879711 0)
(10.8219 -0.0766681 0)
(12.2199 -0.0666207 0)
(13.5393 -0.0582776 0)
(14.793 -0.0514011 0)
(15.994 -0.0474144 0)
(17.2426 -0.0443531 0)
(18.4944 -0.0315918 0)
(19.2523 -0.0350863 0)
(20.4917 -0.120152 0)
(27.5977 -0.117272 0)
(29.7522 -0.0216856 0)
(29.7571 0.000207767 0)
(29.7519 -3.35487e-05 0)
(0.307495 0.18615 0)
(-1.12777 0.365431 0)
(-1.90573 0.122964 0)
(-1.74448 -0.0730689 0)
(-1.23231 -0.119996 0)
(-0.848907 -0.0795608 0)
(-0.658353 -0.0304063 0)
(-0.66058 0.00186867 0)
(-0.742847 0.00187816 0)
(-0.739428 -0.00207696 0)
(-0.756579 -0.00385357 0)
(-0.612069 -0.0220788 0)
(-0.303242 -0.0336397 0)
(0.0306619 -0.0405424 0)
(0.373783 -0.0521383 0)
(0.835493 -0.0724928 0)
(1.57992 -0.0993326 0)
(2.7561 -0.123937 0)
(4.34669 -0.133318 0)
(6.11906 -0.127781 0)
(7.86293 -0.115301 0)
(9.4865 -0.101552 0)
(10.9791 -0.088303 0)
(12.3613 -0.0766662 0)
(13.6639 -0.0670574 0)
(14.9018 -0.0591444 0)
(16.0884 -0.0545372 0)
(17.3223 -0.0510929 0)
(18.5659 -0.0367213 0)
(19.3508 -0.03952 0)
(20.4838 -0.137206 0)
(27.4989 -0.135869 0)
(29.7457 -0.0258556 0)
(29.7599 0.000199402 0)
(29.7527 -2.32543e-05 0)
(0.376343 0.202484 0)
(-1.08469 0.413444 0)
(-1.82268 0.135064 0)
(-1.61182 -0.0853474 0)
(-1.10214 -0.135248 0)
(-0.739037 -0.0882467 0)
(-0.570032 -0.0330615 0)
(-0.579905 0.0030494 0)
(-0.66747 0.00297709 0)
(-0.672588 -0.00181471 0)
(-0.68858 -0.0050225 0)
(-0.52166 -0.0266186 0)
(-0.189309 -0.0395293 0)
(0.159769 -0.0462856 0)
(0.504448 -0.0583256 0)
(0.958254 -0.0808293 0)
(1.69391 -0.111507 0)
(2.87665 -0.140389 0)
(4.49714 -0.151971 0)
(6.32037 -0.145975 0)
(8.10203 -0.131295 0)
(9.73532 -0.115126 0)
(11.2134 -0.0998173 0)
(12.5697 -0.086558 0)
(13.8444 -0.0756936 0)
(15.0569 -0.066768 0)
(16.2217 -0.0615578 0)
(17.4356 -0.0577575 0)
(18.6647 -0.0418899 0)
(19.4744 -0.0437869 0)
(20.5099 -0.153821 0)
(27.4062 -0.154421 0)
(29.7385 -0.0302102 0)
(29.7625 0.000177357 0)
(29.7536 -9.94774e-06 0)
(0.452517 0.216061 0)
(-1.03835 0.461169 0)
(-1.72639 0.145218 0)
(-1.45674 -0.0985644 0)
(-0.955744 -0.150076 0)
(-0.614283 -0.0962485 0)
(-0.468905 -0.0352774 0)
(-0.485354 0.00439214 0)
(-0.57705 0.00423894 0)
(-0.590491 -0.00147221 0)
(-0.602419 -0.00645704 0)
(-0.410104 -0.0316017 0)
(-0.0525539 -0.0457908 0)
(0.316065 -0.0522245 0)
(0.666244 -0.0645245 0)
(1.11746 -0.0891193 0)
(1.8558 -0.123744 0)
(3.06531 -0.157131 0)
(4.73831 -0.171121 0)
(6.63108 -0.164697 0)
(8.46053 -0.147552 0)
(10.1057 -0.128682 0)
(11.5613 -0.111144 0)
(12.8764 -0.0962063 0)
(14.1053 -0.0841004 0)
(15.2761 -0.0742051 0)
(16.4073 -0.0684302 0)
(17.5933 -0.06431 0)
(18.7991 -0.0470725 0)
(19.6293 -0.047897 0)
(20.5759 -0.169955 0)
(27.3202 -0.172856 0)
(29.731 -0.0347373 0)
(29.7648 0.000140801 0)
(29.7544 5.92156e-06 0)
(0.535453 0.226628 0)
(-0.988245 0.508469 0)
(-1.61467 0.153033 0)
(-1.27846 -0.112765 0)
(-0.793947 -0.164335 0)