# Region type : patch outlet
# Faces       : 30
# Area        : 5.000000e-05
# Scale factor: 1.000000e+00
# Time        	areaIntegrate(U)
81            	(4.957389e-05 -4.190194e-06 2.793476e-23)
