/*--------------------------------*- C++ -*----------------------------------*\
| =========                 |                                                 |
| \\      /  F ield         | OpenFOAM: The Open Source CFD Toolbox           |
|  \\    /   O peration     | Version:  v1912                                 |
|   \\  /    A nd           | Website:  www.openfoam.com                      |
|    \\/     M anipulation  |                                                 |
\*---------------------------------------------------------------------------*/
FoamFile
{
    version     2.0;
    format      ascii;
    class       volScalarField;
    location    "170";
    object      epsilon;
}
// * * * * * * * * * * * * * * * * * * * * * * * * * * * * * * * * * * * * * //

dimensions      [0 2 -3 0 0 0 0];


internalField   nonuniform List<scalar> 
12441
(
0.0102961
0.00908419
0.00832642
0.00770207
0.00718291
0.00674797
0.00638145
0.00607022
0.00580412
0.00557567
0.00537846
0.00520206
0.00505812
0.00491096
0.00479689
0.00469261
0.00474894
0.0186303
0.25457
2.93295
20.9681
39.25
0.0101184
0.00891897
0.00818295
0.00757597
0.00707074
0.00664715
0.00629008
0.00598673
0.00572723
0.00550446
0.00531219
0.00513955
0.00499997
0.00485662
0.00474604
0.0046464
0.00471795
0.0183742
0.239969
2.92595
21.2603
40.2318
0.00989636
0.00871624
0.00799926
0.00740814
0.00691627
0.006504
0.00615659
0.00586161
0.00560947
0.00539326
0.00520692
0.00503969
0.00490566
0.00476522
0.00466009
0.00456537
0.0046052
0.0167222
0.204215
2.8977
21.6417
41.3784
0.00967277
0.00851259
0.00781386
0.00723785
0.00675861
0.00635704
0.00601875
0.00573165
0.00548642
0.00527634
0.00509556
0.00493378
0.00480401
0.00467166
0.00457082
0.00448153
0.00448676
0.0147231
0.168683
2.87772
22.1102
42.5504
0.00942858
0.00828805
0.00760802
0.00704761
0.00658158
0.00619127
0.00586263
0.00558397
0.00534623
0.00514292
0.00496834
0.00481248
0.00468877
0.00455973
0.00446532
0.00438291
0.00434687
0.0129269
0.150894
2.88664
22.6249
43.6698
0.00922258
0.00809841
0.00743357
0.00688578
0.00643028
0.0060489
0.00572785
0.00545573
0.00522367
0.00502535
0.00485525
0.00470376
0.00458309
0.00446188
0.00437078
0.00429267
0.00427354
0.0132122
0.17113
2.9921
23.2445
44.7472
0.00900196
0.0078949
0.00724648
0.00671239
0.00626849
0.00589699
0.00558441
0.00531967
0.00509416
0.00490174
0.00473701
0.00459069
0.00447531
0.00435657
0.00426935
0.00419892
0.00603219
0.0224446
0.275394
3.28298
24.0616
45.7945
0.00882347
0.0077302
0.00709463
0.00657114
0.00613604
0.00577196
0.00546564
0.00520624
0.0049853
0.00479683
0.00463558
0.00449254
0.00437917
0.00426932
0.00418917
0.00517349
0.0348047
0.0797972
0.582094
3.88807
25.1885
46.8732
0.00862938
0.0075511
0.00693
0.00641861
0.00599376
0.00563839
0.00533954
0.00508664
0.00487146
0.00468814
0.00453155
0.0043931
0.00428517
0.0041392
0.00540646
0.0273904
0.181929
0.306261
1.25376
4.9443
26.7426
48.0153
0.00847465
0.00740815
0.00679806
0.00629573
0.00587835
0.00552926
0.0052357
0.00498727
0.00477588
0.00459581
0.00444204
0.00430634
0.00419853
0.00427331
0.025675
0.156185
0.565888
0.838457
2.33331
6.507
28.8089
49.2846
0.00830527
0.0072518
0.00665441
0.00616267
0.00575429
0.00541286
0.00512583
0.00488309
0.00467673
0.00450113
0.00435137
0.00422077
0.00408494
0.00958112
0.119707
0.47662
1.18534
1.66359
3.64958
8.49171
31.4132
50.6975
0.0081702
0.00712703
0.00653922
0.00605536
0.00565342
0.00531739
0.00503489
0.00479596
0.0045928
0.00441993
0.00427253
0.00414583
0.00416191
0.050124
0.355214
0.954424
1.86436
2.57276
4.95467
10.7121
34.5111
52.295
0.00802113
0.00698948
0.00641299
0.00593856
0.00554466
0.00521543
0.00493874
0.00470485
0.00450614
0.00433719
0.00419327
0.00403393
0.00845414
0.179039
0.704717
1.44591
2.44706
3.36883
6.09888
12.9745
38.0091
54.0597
0.00790018
0.00687777
0.00630985
0.00584247
0.00545433
0.00512993
0.0048573
0.00462682
0.00443099
0.0042645
0.00412272
0.00388029
0.0383497
0.395782
1.05636
1.85107
2.88948
3.98729
7.04918
15.1389
41.7885
56.0037
0.00776886
0.00675654
0.00619861
0.00573956
0.00535851
0.00504011
0.00477258
0.00454652
0.00435456
0.00419148
0.00405268
0.0042707
0.122394
0.638376
1.35056
2.15974
3.21426
4.44989
7.83005
17.1302
45.7325
58.0812
0.00765973
0.00665578
0.0061056
0.00565291
0.00527704
0.004963
0.00469914
0.00447617
0.00428684
0.00412599
0.0039892
0.00962204
0.25526
0.856925
1.57977
2.3922
3.45477
4.79902
8.47939
18.9209
49.7378
60.2902
0.00754386
0.00654884
0.00600756
0.00556226
0.00519267
0.00488391
0.00462452
0.00440539
0.0042194
0.00406147
0.00392764
0.0338726
0.405094
1.03719
1.75728
2.57007
3.63759
5.07082
9.03099
20.5116
53.7253
62.571
0.00744227
0.00645516
0.00592118
0.0054819
0.00511724
0.00481266
0.0045568
0.00434068
0.00415726
0.00400155
0.00387241
0.0893286
0.545393
1.18236
1.8972
2.70969
3.78112
5.29088
9.51062
21.9158
57.6376
64.9213
0.00733974
0.0063604
0.00583424
0.00540143
0.00504227
0.00474228
0.00449029
0.00427746
0.0040969
0.00394368
0.00380937
0.167858
0.66634
1.30046
2.01036
2.82242
3.89773
5.47632
9.93656
23.152
61.4411
67.2818
0.00724503
0.00627315
0.00575384
0.00532671
0.00497221
0.00467618
0.00442757
0.00421765
0.00403959
0.00388855
0.0042954
0.252907
0.767933
1.39874
2.10437
2.9161
3.99576
5.63835
10.3213
24.2388
65.1193
69.6617
0.0071549
0.00618979
0.00567735
0.00525585
0.00490611
0.00461401
0.00436867
0.00416149
0.00398577
0.00383683
0.0101998
0.334222
0.853926
1.48262
2.18457
2.99617
4.08099
5.78412
10.6729
25.194
68.674
72.0102
0.00706404
0.00610625
0.00560054
0.00518466
0.00483957
0.00455148
0.00430958
0.00410539
0.00393227
0.00378611
0.030388
0.407889
0.92821
1.55598
2.25475
3.06653
4.15747
5.9179
10.9965
26.033
72.1197
74.3523
0.00698484
0.0060328
0.00553298
0.0051219
0.00478083
0.00449601
0.0042568
0.00405485
0.00388364
0.00374125
0.0671763
0.473715
0.993947
1.62156
2.31769
3.13001
4.22805
6.04197
11.2951
26.7703
75.486
76.6493
0.00689826
0.00595328
0.00545996
0.00505433
0.00471782
0.00443696
0.00420118
0.00400222
0.00383362
0.00370153
0.113127
0.532747
1.05344
1.68141
2.37545
3.18871
4.29459
6.15739
11.5705
27.4182
78.8124
78.9445
0.00683009
0.00588995
0.00540161
0.00499997
0.00466674
0.00438846
0.00415476
0.00395746
0.00379026
0.00368357
0.160633
0.586409
1.10838
1.73707
2.42962
3.24415
4.3582
6.26458
11.8238
27.988
82.1518
81.212
0.0067443
0.00581144
0.0053298
0.00493386
0.00460544
0.0043314
0.00410139
0.00390733
0.003743
0.00364595
0.206194
0.636054
1.15999
1.78972
2.48137
3.2974
4.41936
6.36383
12.0559
28.4894
85.5651
83.5114
0.00668526
0.00575628
0.00527872
0.00488596
0.00456011
0.00428804
0.00405956
0.0038667
0.00370339
0.00385842
0.24921
0.682806
1.20919
1.84028
2.53156
3.34915
4.47818
6.45538
12.2673
28.9311
89.1226
85.8273
0.00660144
0.00567971
0.00520883
0.00482181
0.00450086
0.00423312
0.00400843
0.00381892
0.00365866
0.00593201
0.290222
0.727541
1.25668
1.88948
2.58083
3.39979
4.53463
6.53959
12.4587
29.3199
92.8976
88.2307
0.00655187
0.00563316
0.0051655
0.00478086
0.00446174
0.00419529
0.00397153
0.00378268
0.00362332
0.0118844
0.329999
0.770927
1.30305
1.93785
2.62957
3.44952
4.58867
6.61686
12.6309
29.6616
96.9649
90.7106
0.00646768
0.00555657
0.00509593
0.00471739
0.00440352
0.00414175
0.00392209
0.00373686
0.00358172
0.0234782
0.369214
0.813477
1.34871
1.98581
2.67804
3.49844
4.64035
6.68762
12.7846
29.9609
101.393
93.3406
0.00642556
0.00551661
0.00505836
0.00468146
0.00436878
0.00410773
0.00388853
0.00370357
0.0035509
0.0419321
0.408362
0.855589
1.39405
2.03365
2.72637
3.54659
4.68976
6.75234
12.9207
30.2213
106.242
96.1058
0.006343
0.00544162
0.00499037
0.00461962
0.00431228
0.004056
0.00384099
0.00365973
0.00351491
0.0674918
0.447788
0.897576
1.43933
2.08159
2.77468
3.59405
4.73709
6.81149
13.0403
30.4462
111.557
99.0732
0.00630942
0.00540945
0.0049598
0.00458994
0.00428308
0.00402686
0.00381172
0.0036302
0.00349435
0.0997128
0.487716
0.939686
1.48478
2.12974
2.823
3.64091
4.78257
6.86557
13.1444
30.6386
117.373
102.217
0.00622484
0.005333
0.00489088
0.00452769
0.00422668
0.00397572
0.00376519
0.00358774
0.00347342
0.137746
0.528277
0.982113
1.53055
2.17824
2.87141
3.68729
4.82648
6.91507
13.2342
30.8015
123.709
105.592
0.00619812
0.00530691
0.0048656
0.00450257
0.00420137
0.00394989
0.00373875
0.00356064
0.00347923
0.180673
0.569524
1.025
1.57675
2.22713
2.91996
3.73335
4.86912
6.9605
13.3107
30.9379
130.578
109.157
0.00611101
0.00522861
0.0047954
0.00443959
0.00414475
0.00389898
0.00369284
0.00351911
0.00355509
0.22752
0.611425
1.06844
1.62347
2.27647
2.96873
3.77926
4.91085
7.0024
13.3752
31.0503
137.986
112.957
0.00608759
0.00520546
0.00477266
0.00441661
0.00412122
0.00387462
0.00366761
0.00349305
0.00657142
0.277184
0.653864
1.11248
1.67073
2.32631
3.01781
3.82523
4.95202
7.0413
13.4292
31.1407
145.931
116.938
0.00599547
0.00512324
0.00469943
0.00435139
0.00406303
0.00382271
0.00362117
0.00345139
0.0348098
0.328184
0.696634
1.15714
1.71853
2.37668
3.06729
3.87148
4.99302
7.0778
13.4739
31.2097
154.394
121.137
0.00596729
0.005096
0.00467313
0.00432527
0.00403672
0.00379589
0.0035938
0.00342415
0.0897266
0.377999
0.739453
1.20236
1.76685
2.42757
3.11727
3.91823
5.03422
7.11248
13.5109
31.2569
163.319
125.495
0.00586249
0.00500286
0.00459055
0.00425206
0.00397175
0.00373826
0.00354257
0.00338405
0.137432
0.424101
0.782
1.24808
1.81564
2.47901
3.16784
3.96572
5.07603
7.14599
13.5418
31.2806
172.566
130.045
0.00582102
0.00496363
0.00455338
0.00421605
0.00393641
0.00370323
0.00350778
0.00338769
0.171843
0.465428
0.823956
1.29418
1.86483
2.53095
3.2191
4.01415
5.11884
7.17899
13.5679
31.2789
181.854
134.727
0.00569928
0.00485588
0.00445789
0.00413116
0.00386074
0.00363571
0.00344738
0.00439992
0.196548
0.50193
0.865042
1.34049
1.91431
2.58336
3.27111
4.06375
5.16301
7.21222
13.5908
31.2503
190.692
139.588
0.0056171
0.00478955
0.00440375
0.00408541
0.00382065
0.00359923
0.00341309
0.00683438
0.2147
0.533968
0.905037
1.38684
1.96401
2.63612
3.32392
4.1147
5.2089
7.24646
13.6116
31.1952
198.366
144.654
0.00525449
0.00445993
0.00411117
0.00382572
0.00358863
0.0033902
0.00322339
0.00840978
0.22827
0.561948
0.943755
1.433
2.01381
2.68911
3.37755
4.16715
5.25685
7.28258
13.6307
31.1145
204.054
150.447
95.0235
96.9276
63.5735
49.085
41.0113
33.8845
32.0458
29.1753
27.8097
28.141
29.6889
28.5704
28.1986
29.484
32.9295
38.116
41.9279
43.418
43.4628
42.3698
41.733
41.4039
35.9764
26.133
17.4046
9.37515
5.68831
4.89559
4.74059
4.91056
5.24834
5.44895
5.42593
4.90181
4.21208
94.6475
97.6165
64.7871
51.3197
43.1952
35.4171
33.4446
30.2185
28.6634
28.962
30.3737
29.6098
29.4739
30.5024
33.3843
38.4306
42.4065
43.901
43.8584
42.7386
42.1217
41.8755
36.5889
26.5679
17.606
9.41969
5.68722
4.89024
4.73549
4.90534
5.24232
5.4416
5.41797
4.894
4.20567
93.9266
98.7024
66.9491
55.402
47.2051
38.1846
35.887
32.0729
30.3338
30.5922
31.7264
31.7776
32.2532
32.7044
34.5245
38.9335
42.7917
44.2714
44.1931
43.1083
42.504
42.1658
37.1172
27.2025
17.9158
9.4592
5.67987
4.87952
4.72531
4.89492
5.23031
5.42691
5.40211
4.87839
4.19288
92.8104
100.08
70.0768
61.3233
52.941
42.1812
39.3551
34.7823
32.8669
33.0676
33.9002
35.3294
37.0515
36.7129
36.857
40.0277
43.3785
44.7781
44.7144
43.7656
43.2292
42.684
37.817
28.1204
18.382
9.50811
5.66729
4.86348
4.71006
4.87934
5.21234
5.40492
5.37836
4.85504
4.17374
91.3035
101.659
74.1602
68.7887
60.2187
47.3977
43.8403
38.3638
36.2724
36.4066
37.0289
40.5019
44.4653
43.3523
41.0475
42.3482
44.633
45.7315
45.7186
45.0508
44.6704
43.8216
38.942
29.4178
19.0593
9.58113
5.65056
4.84216
4.68978
4.8586
5.18842
5.37565
5.34677
4.82397
4.1483
89.3553
103.351
79.1248
77.1679
68.7542
53.807
49.3708
42.876
40.5905
40.6282
41.2017
47.2848
54.4829
53.3026
47.8102
46.6733
47.3257
47.7081
47.6893
47.4467
47.2909
46.0062
40.7789
31.2208
20.0151
9.69403
5.63082
4.81562
4.66453
4.83274
5.15858
5.33913
5.30741
4.78526
4.11662
87.0012
105.069
84.8
85.5593
78.1226
61.3226
55.9966
48.4113
45.8966
45.7792
46.4468
55.1855
65.6407
66.2994
57.7226
53.7948
52.4998
51.7019
51.4465
51.6816
51.7323
49.7853
43.6985
33.7078
21.338
9.86452
5.60931
4.78394
4.63434
4.8018
5.12287
5.2954
5.26034
4.73896
4.07876
84.2135
106.723
90.9181
93.0691
87.7452
69.7087
63.7314
55.0656
52.2802
51.9232
52.7269
63.0578
74.9435
79.8505
70.6589
64.3173
61.2932
59.1529
58.3074
58.8769
58.9426
55.9398
48.2299
37.1438
23.1491
10.1133
5.58737
4.7472
4.59929
4.76582
5.08132
5.24449
5.20565
4.68518
4.03484
81.0699
108.233
97.1513
99.2311
96.9997
78.51
72.463
62.88
59.7959
59.1028
59.902
69.4611
79.731
89.319
84.6453
78.0549
74.4942
71.6789
70.1343
70.6956
70.3183
65.6162
55.1584
41.9275
25.6179
10.4651
5.56644
4.70549
4.55946
4.72486
5.034
5.18649
5.14346
4.62403
3.98496
77.574
109.525
103.266
104.225
105.44
87.0946
81.858
71.7517
68.3792
67.2517
67.6066
73.6048
79.9562
91.6353
95.6089
92.9883
91.4171
89.9152
88.6568
89.1015
87.6344
80.3516
65.6109
48.648
28.9814
10.9498
5.54803
4.65896
4.51495
4.67899
4.98098
5.12147
5.07392
4.55567
3.92928
73.8369
110.544
109.273
108.684
112.97
94.8596
91.3217
81.3348
77.7485
76.111
75.2424
75.9058
77.7852
88.3488
100.261
105.329
108.714
111.139
112.775
114.462
111.917
101.478
80.9292
58.1035
33.563
11.6027
5.53361
4.60773
4.4659
4.62831
4.92236
5.04956
4.99722
4.48028
3.86797
69.8857
111.243
115.469
113.301
119.823
101.511
100.104
90.9964
87.3534
85.1675
82.1346
77.4682
75.4775
83.2967
99.3045
112.319
121.925
129.18
135.707
141.541
140.122
127.824
101.714
71.1115
39.7648
12.4628
5.5245
4.55197
4.41245
4.57293
4.85826
4.97091
4.91357
4.39812
3.80126
65.8489
111.572
122.292
118.558
126.392
107.212
107.579
99.9381
96.4715
93.7758
88.0125
79.246
74.3317
79.2208
96.0538
114.629
129.445
140.008
149.955
160.482
163.009
152.489
125.316
87.7033
47.9617
13.5666
5.5216
4.49184
4.35477
4.513
4.78884
4.88572
4.82326
4.30947
3.7294
61.7626
111.445
130.004
124.651
133.033
112.482
113.559
107.495
104.481
101.373
93.0653
81.7832
74.8095
77.2067
93.3272
114.97
133.152
144.912
155.066
166.877
172.416
165.728
144.087
105.478
58.1637
14.9331
5.52506
4.4275
4.29306
4.44867
4.71426
4.79422
4.72659
4.21465
3.65268
57.7502
110.724
138.308
131.545
139.96
117.946
118.416
113.487
111.151
107.803
97.8502
85.3208
76.9339
77.37
92.407
115.6
135.587
146.997
155.071
164.489
169.36
164.647
150.513
118.922
69.382
16.5375
5.53387
4.35911
4.22753
4.38013
4.63473
4.69667
4.62394
4.11406
3.57143
53.8399
109.222
146.228
139.056
147.29
124.073
122.863
118.32
116.713
113.367
102.927
89.9846
80.5566
79.4778
93.5511
117.536
138.129
148.061
152.94
158.193
159.78
154.354
144.687
122.973
79.2059
18.2817
5.54555
4.28681
4.15841
4.30758
4.55049
4.59341
4.5157
4.00812
3.48601
50.1273
106.761
152.541
146.923
155.069
131.116
127.625
122.763
121.759
118.719
108.855
95.9186
85.5453
83.1873
96.5261
120.885
141.032
148.49
149.611
150.361
148.028
140.732
132.237
117.669
84.71
19.9905
5.55611
4.21073
4.08595
4.23125
4.46178
4.48479
4.40234
3.89733
3.39682
46.6135
103.266
156.574
154.851
163.253
139.201
133.271
127.636
127.009
124.55
116.036
103.353
91.9054
88.2408
100.983
125.339
143.998
148.06
145.099
141.642
135.912
126.908
118.115
107.022
84.5368
21.4572
5.56051
4.13099
4.01039
4.15136
4.3689
4.3712
4.28432
3.78218
3.30428
43.349
98.8548
158.645
162.533
171.756
148.331
140.149
133.589
133.126
131.486
124.883
112.615
99.8643
94.549
106.61
130.492
146.625
146.513
139.341
132.214
124.001
113.967
104.696
94.9216
79.7577
22.5156
5.55347
4.04769
3.932
4.06819
4.27213
4.25308
4.16219
3.66325
3.20884
40.3033
93.8807
159.746
169.736
180.448
158.398
148.396
141.03
140.597
139.959
135.674
124.109
109.866
102.329
113.308
136.047
148.621
143.755
132.455
122.318
112.54
102.168
92.7157
83.4666
72.583
23.0854
5.5303
3.96098
3.85104
3.98198
4.17181
4.1309
4.03648
3.54111
3.11095
37.4893
88.9343
160.624
176.387
189.182
169.198
157.97
150.124
149.724
150.29
148.729
138.285
122.532
112.064
121.191
141.853
149.865
139.886
124.753
112.312
101.743
91.5433
82.2526
73.3969
64.8556
23.1687
5.48749
3.87098
3.76778
3.89302
4.06826
4.00514
3.90776
3.41635
3.01109
34.8769
84.8464
161.5
182.527
197.815
180.462
168.685
160.824
160.616
162.625
164.212
155.582
138.567
124.507
130.63
147.94
150.386
135.152
116.638
102.587
91.8006
82.0767
73.1915
64.8064
57.5875
22.8228
5.42289
3.77789
3.68248
3.80158
3.96184
3.87634
3.77661
3.2896
2.90973
32.4767
82.0658
162.464
188.214
206.211
191.892
180.267
172.93
173.244
177.051
182.324
176.392
158.667
140.526
142.122
154.428
150.334
129.891
108.539
93.473
82.8456
73.7305
65.3813
57.5576
51.1617
22.1301
5.33574
3.6819
3.5954
3.70794
3.85291
3.74501
3.64362
3.16147
2.80733
30.2708
80.7013
163.464
193.479
214.247
203.191
192.393
186.145
187.47
193.554
203.142
201.026
183.381
161.038
156.271
161.516
149.918
124.459
100.827
85.2012
74.9298
66.4415
58.6734
51.4568
45.6291
21.1778
5.22647
3.58328
3.5068
3.61238
3.74183
3.6117
3.50937
3.03256
2.70437
28.2673
80.8379
164.375
198.315
221.803
214.09
204.739
200.15
203.131
212.184
226.922
229.784
213.004
186.654
173.571
169.351
149.339
119.174
93.7869
77.8909
68.0339
60.124
52.9287
46.3151
40.9028
20.0452
5.09648
3.48231
3.41695
3.5152
3.62898
3.47696
3.37444
2.90347
2.60129
26.4614
82.4099
165.154
202.69
228.778
224.367
217.01
214.656
220.093
233.054
254.027
263.064
247.583
217.439
194.253
177.963
148.717
114.245
87.5716
71.5652
62.0884
54.6776
48.0181
41.9665
36.8561
18.7991
4.94788
3.37932
3.3261
3.41668
3.51473
3.34134
3.23937
2.77478
2.4985
24.8623
85.0977
165.809
206.558
235.091
233.869
228.982
229.463
238.331
256.509
285.225
301.487
286.994
252.51
217.76
187.042
148.021
109.754
82.222
66.1749
56.9949
49.997
43.8236
38.27
33.3634
17.4927
4.78333
3.27467
3.2345
3.31709
3.39944
3.20536
3.10472
2.64701
2.39642
23.4808
88.2267
166.369
209.879
240.696
242.523
240.523
244.482
257.955
283.084
321.51
345.807
330.929
290.331
242.598
195.879
147.059
105.659
77.6728
61.625
52.6445
45.9796
40.2392
35.1077
30.3155
16.1671
4.60579
3.16873
3.14238
3.21672
3.28349
3.06957
2.97098
2.52069
2.29541
22.3333
90.8355
166.857
212.633
245.59
250.343
251.611
259.758
279.246
313.569
364.118
396.509
378.521
328.72
266.384
203.358
145.529
101.842
73.7995
57.7966
48.929
42.5306
37.1717
32.3816
27.6221
14.8537
4.4184
3.06192
3.05
3.11585
3.16724
2.93446
2.83865
2.39627
2.19581
21.4546
92.1213
167.291
214.818
249.807
257.407
262.318
275.453
302.617
348.828
413.871
452.882
427.629
365.073
286.702
208.364
143.137
98.1603
70.4471
54.5639
45.7483
39.5653
34.5399
30.0109
25.2114
13.5757
4.22429
2.95464
2.95757
3.01473
3.05103
2.80052
2.70814
2.27419
2.09792
20.8892
92.0104
167.678
216.453
253.411
263.837
272.792
291.825
328.58
389.659
470.538
511.803
474.057
396.005
301.457
210.095
139.716
94.5015
67.4712
51.8065
43.0133
37.0104
32.2744
27.9288
23.0276
12.3506
4.02647
2.84731
2.86532
2.91363
2.93521
2.66819
2.57988
2.15482
2.00202
20.7351
91.24
168.011
217.572
256.487
269.785
283.231
309.19
357.662
436.405
531.567
566.833
511.538
417.798
309.261
208.299
135.254
90.7916
64.7475
49.416
40.6473
34.8026
30.3165
26.0806
21.0284
11.1908
3.82769
2.74031
2.77346
2.8128
2.82009
2.5379
2.45422
2.0385
1.90834
21.1259
90.7939
168.269
218.222
259.134
275.415
293.872
327.91
390.36
488.639
591.531
609.04
533.253
427.032
309.314
203.11
129.859
86.995
62.1829
47.3003
38.5849
32.8886
28.6163
24.4212
19.1824
10.1046
3.63037
2.63403
2.6822
2.71247
2.70599
2.41004
2.33149
1.92551
1.8171
22.2957
91.3412
168.421
218.451
261.461
280.905
304.983
348.384
427.082
544.696
642.322
629.994
534.631
422.064
301.667
194.926
123.675
83.0903
59.7046
45.3831
36.771
31.2232
27.1319
22.9139
17.4673
9.09723
3.43657
2.52884
2.59173
2.61288
2.59321
2.28495
2.21197
1.81609
1.72845
24.5223
93.0877
168.434
218.307
263.585
286.452
316.88
371.088
468.168
601.432
675.493
625.519
515.526
403.615
287.101
184.239
116.845
79.0633
57.2575
43.6025
35.1587
29.7677
25.8278
21.529
15.8676
8.17083
3.2479
2.42507
2.50222
2.51424
2.48201
2.16296
2.0959
1.71045
1.64254
28.1637
95.9117
168.278
217.833
265.632
292.287
329.97
396.656
513.918
653.856
684.835
597.166
480.013
374.659
267.099
171.615
109.496
74.8984
54.7951
41.908
33.7078
28.4888
24.6737
20.2422
14.3731
7.32522
3.06559
2.32301
2.41386
2.41675
2.37267
2.04435
1.98351
1.60876
1.5595
33.4954
99.5353
167.929
217.063
267.75
298.712
344.841
426.072
564.519
695.128
668.519
550.689
434.147
339.068
243.414
157.622
101.743
70.586
52.2806
40.2576
32.3831
27.3569
23.6437
19.0341
12.9777
6.55825
2.89048
2.22293
2.3268
2.32061
2.26542
1.92938
1.87497
1.51115
1.47941
40.701
103.648
167.369
216.03
270.131
306.177
362.44
460.957
619.332
716.834
628.619
493.087
383.666
300.57
217.822
142.829
93.7035
66.1252
49.6842
38.6165
31.1531
26.3456
22.7154
17.8896
11.6776
5.86624
2.72307
2.12505
2.24119
2.22601
2.16051
1.81826
1.77044
1.41772
1.40235
49.6321
107.982
166.586
214.772
273.042
315.412
384.402
503.883
674.607
710.911
570.132
430.607
332.828
261.948
191.793
127.755
85.5085
61.5328
46.9892
36.9569
29.99
25.4308
21.8691
16.7964
10.4703
5.24446
2.56358
2.02959
2.15718
2.13312
2.05816
1.71121
1.67006
1.32855
1.32839
59.8743
112.353
165.568
213.336
276.903
327.688
413.592
557.978
719.055
672.616
499.357
368.006
284.367
225.078
166.465
112.865
77.3002
56.8453
44.1926
35.2588
28.8694
24.5904
21.0879
15.7454
9.35432
4.68753
2.41204
1.93671
2.0749
2.04213
1.9586
1.60841
1.57392
1.24371
1.25757
70.5911
116.677
164.303
211.796
282.407
345.285
454.719
623.207
731.71
603.67
423.239
308.707
239.888
191.018
142.585
98.5352
69.2289
52.1212
41.3098
33.5121
27.771
23.8051
20.3571
14.7299
8.32791
4.18979
2.26827
1.84659
1.99449
1.95321
1.86202
1.51003
1.48212
1.16324
1.18992
80.9187
120.964
162.775
210.272
290.777
372.259
513.537
684.143
691.658
512.616
348.137
255.001
200.283
160.35
120.623
85.0548
61.441
47.4356
38.3746
31.7183
26.6795
23.058
19.6639
13.7453
7.38925
3.7456
2.13203
1.75935
1.91608
1.86655
1.76864
1.41619
1.39473
1.08713
1.12546
89.3733
125.32
160.955
208.977
304.247
415.007
587.625
697.46
596.7
412.55
279.185
208.251
165.978
133.312
100.806
72.613
54.0662
42.8741
35.438
29.8916
25.5851
22.3352
18.9979
12.789
6.53597
3.34955
2.003
1.67513
1.83981
1.78232
1.67864
1.32701
1.3118
1.01541
1.06421
95.1437
129.993
158.793
208.316
326.847
477.599
637.43
623.202
469.015
316.651
219.496
168.891
136.986
109.954
83.2317
61.3226
47.2043
38.519
32.5614
28.0584
24.4844
21.6265
18.3507
11.8601
5.76517
2.99664
1.88084
1.59405
1.7658
1.7007
1.5922
1.24259
1.23334
0.948025
1.00616
0.00337751
0.00250179
0.00226364
0.00214851
0.00211098
0.00211685
0.00214952
0.00892873
0.235956
0.580143
0.971613
1.46695
2.05056
2.728
3.4173
4.20661
5.29382
7.31163
13.6447
31.0384
206.274
159.997
0.00334398
0.00224114
0.00183636
0.00159651
0.00147445
0.00143613
0.00146776
0.00915358
0.239804
0.59001
0.987693
1.48638
2.07096
2.74896
3.43857
4.22817
5.31554
7.33071
13.6569
30.992
207.168
170.018
0.00354015
0.00237551
0.00188119
0.00154181
0.00131843
0.00118615
0.00115517
0.00928943
0.242362
0.59717
1.00023
1.50123
2.0858
2.76342
3.45302
4.24339
5.33277
7.34829
13.6705
30.9572
207.212
179.592
0.00367039
0.00251712
0.00200411
0.00162972
0.00135698
0.0011646
0.00103169
0.00936627
0.243789
0.601752
1.00915
1.51135
2.0949
2.77127
3.46055
4.25218
5.34543
7.36437
13.6847
30.9354
206.472
188.571
0.0039223
0.00276398
0.00222776
0.00182385
0.00151534
0.00128048
0.00100248
0.0093984
0.244188
0.603843
1.01437
1.51663
2.09817
2.77245
3.46111
4.25449
5.3534
7.37889
13.6984
30.9277
204.991
197.42
0.00405982
0.00292953
0.0023994
0.00199357
0.00167636
0.0014262
0.000993292
0.00939329
0.243624
0.603519
1.01586
1.51702
2.09555
2.76696
3.45467
4.25025
5.35651
7.3917
13.7105
30.9348
202.805
206.314
0.00434024
0.00320813
0.00266125
0.00223592
0.00189817
0.00162664
0.00106394
0.00935443
0.242149
0.600858
1.01365
1.51253
2.08708
2.75484
3.44127
4.23938
5.35454
7.40253
13.7198
30.9575
199.953
215.253
0.00447821
0.00337912
0.00284493
0.00242523
0.00208805
0.00181304
0.0011915
0.00928244
0.239807
0.595946
1.00782
1.50323
2.07283
2.73619
3.42094
4.22182
5.34723
7.41107
13.725
30.9956
196.486
224.177
0.00478384
0.00368487
0.0031366
0.00269976
0.00234458
0.00205156
0.0013168
0.00917628
0.236639
0.588889
0.998497
1.48926
2.05296
2.71116
3.3938
4.19752
5.33426
7.41686
13.7248
31.0488
192.462
233.019
0.00490835
0.00384874
0.00332056
0.00289651
0.0025486
0.00225834
0.00140655
0.00903414
0.232689
0.579813
0.985875
1.47082
2.0277
2.67995
3.35999
4.16643
5.31529
7.41935
13.7178
31.1158
187.942
241.695
0.00522923
0.00417155
0.00363217
0.00319355
0.00282993
0.00252386
0.00152035
0.0088539
0.228001
0.56886
0.970189
1.44818
1.99733
2.64282
3.31969
4.12853
5.28991
7.41791
13.7027
31.1943
182.993
250.099
0.00533898
0.0043246
0.00381088
0.0033909
0.00304033
0.00274258
0.00163889
0.00863256
0.222615
0.556188
0.951706
1.42165
1.96219
2.60009
3.27314
4.08383
5.25772
7.41177
13.6782
31.2813
177.683
258.1
0.00567196
0.00466129
0.00413897
0.00370661
0.00334216
0.00303025
0.00184323
0.00836643
0.216571
0.541963
0.930717
1.39159
1.92266
2.5521
3.22061
4.03238
5.21831
7.40009
13.643
31.3724
172.083
265.552
0.00575597
0.00479281
0.00430205
0.00389463
0.00354955
0.00325207
0.00212035
0.00804991
0.209896
0.526351
0.907521
1.35839
1.87916
2.49925
3.16243
3.97429
5.17129
7.38191
13.5956
31.4622
166.262
272.303
0.00609199
0.00513373
0.00463656
0.00421883
0.00386179
0.00355207
0.0025256
0.00767659
0.202606
0.509509
0.882415
1.32245
1.83214
2.44196
3.09894
3.90971
5.11628
7.35618
13.5346
31.5441
160.285
278.21
0.00615192
0.00524286
0.00478092
0.00439253
0.00405963
0.00376929
0.00299129
0.0072373
0.194695
0.491575
0.855682
1.2842
1.78207
2.38071
3.03057
3.83887
5.05301
7.32183
13.4586
31.6101
154.214
283.141
0.00648668
0.00558353
0.00511701
0.00471996
0.00437654
0.00407532
0.00350429
0.00672354
0.186127
0.472657
0.827581
1.24405
1.72942
2.31594
2.95772
3.76202
4.98124
7.27767
13.3662
31.6515
148.106
286.988
0.00651814
0.00566536
0.0052371
0.0048732
0.00455818
0.0042808
0.00389866
0.00612556
0.176832
0.452826
0.798333
1.20241
1.67468
2.24817
2.88088
3.67953
4.90087
7.22256
13.2559
31.6585
142.009
289.669
0.00683896
0.00599291
0.00556189
0.00519119
0.00486749
0.00458105
0.00427562
0.00545462
0.166695
0.432094
0.768115
1.15966
1.61832
2.17788
2.8005
3.59177
4.81188
7.15534
13.1264
31.6206
135.967
291.127
0.00685331
0.00605565
0.00566277
0.00532602
0.00503222
0.00477165
0.00452868
0.0047549
0.155554
0.41041
0.737039
1.11612
1.56081
2.10557
2.71709
3.4992
4.71441
7.07494
12.9764
31.5268
130.013
291.328
0.00716008
0.00636988
0.00597574
0.00563362
0.00533239
0.00506383
0.00482492
0.00417174
0.143194
0.387636
0.705146
1.07209
1.50259
2.03172
2.63116
3.4023
4.60872
6.98039
12.8046
31.3661
124.178
290.26
0.00715647
0.00641242
0.00605588
0.00574807
0.00547778
0.00523663
0.00502349
0.00395323
0.129369
0.363538
0.672377
1.02776
1.44406
1.95683
2.5432
3.30161
4.49518
6.8709
12.6099
31.1277
118.48
287.923
0.00744657
0.00671013
0.00635324
0.00604106
0.00576428
0.00551599
0.00529414
0.00420255
0.113839
0.33778
0.638559
0.983252
1.38558
1.88136
2.45373
3.19769
4.37432
6.74587
12.3915
30.8015
112.936
284.332
0.00743042
0.00673693
0.00641596
0.0061372
0.00589115
0.00567058
0.00547135
0.00469579
0.0964806
0.309924
0.60337
0.938537
1.32743
1.80576
2.36325
3.09112
4.24675
6.60498
12.1486
30.3785
107.554
279.506
0.0077042
0.00701825
0.00669752
0.00641506
0.00616315
0.00593594
0.00572908
0.0052546
0.0774896
0.279468
0.566325
0.89344
1.26981
1.73043
2.27223
2.9825
4.11321
6.44819
11.8808
29.8515
102.337
273.475
0.00767661
0.00703032
0.00674356
0.00649329
0.00627145
0.00607182
0.00588904
0.00562349
0.0577065
0.245943
0.526751
0.847579
1.21275
1.65576
2.18116
2.87242
3.97454
6.27576
11.588
29.2153
97.2825
266.273
0.00793336
0.00729422
0.00700792
0.00675436
0.00652707
0.00632115
0.00613205
0.00592931
0.0388633
0.209128
0.4838
0.800318
1.15613
1.582
2.09048
2.76148
3.83164
6.08829
11.2704
28.4674
92.3856
257.944
0.00789942
0.0072963
0.00704145
0.00681812
0.00661946
0.00644015
0.00627512
0.00611347
0.0233126
0.169419
0.436503
0.750723
1.09955
1.50932
2.00059
2.65028
3.68549
5.88675
10.9284
27.608
87.6344
248.546
0.00814126
0.00754477
0.00729039
0.00706396
0.00686006
0.00667458
0.00650352
0.00634091
0.0130129
0.128316
0.383935
0.697533
1.04229
1.43768
1.91181
2.53938
3.53713
5.67242
10.5628
26.6407
83.0146
238.146
0.00810326
0.00753931
0.00731387
0.00711562
0.00693874
0.00677866
0.00663092
0.00649031
0.0080868
0.088795
0.325584
0.639161
0.983214
1.36675
1.82436
2.4293
3.38763
5.44695
10.1749
25.5721
78.5069
226.836
0.00833033
0.00777242
0.00754736
0.00734614
0.00716422
0.00699812
0.00684445
0.00669914
0.00671037
0.0548965
0.262025
0.573808
0.920708
1.2958
1.73824
2.32049
3.23808
5.21234
9.7661
24.4124
74.0902
214.721
0.00829257
0.00776372
0.00756489
0.00738949
0.00723259
0.00709025
0.0069586
0.00683343
0.00663084
0.0301113
0.195836
0.499797
0.85262
1.22359
1.65312
2.21324
3.08956
4.97091
9.33859
23.1742
69.74
201.932
0.00850612
0.00798275
0.00778422
0.007606
0.00744426
0.00729609
0.00715857
0.00702844
0.00685461
0.0156104
0.132284
0.416376
0.776297
1.14823
1.56823
2.10761
2.94306
4.72531
8.8949
21.873
65.433
188.616
0.00847095
0.00797341
0.00779849
0.00764373
0.00750495
0.00737876
0.00726181
0.00715049
0.00702509
0.00923698
0.0785727
0.325134
0.688801
1.06713
1.48219
2.00331
2.79937
4.4784
8.43832
20.526
61.1476
174.938
0.00867177
0.0081792
0.00800448
0.00784706
0.0077037
0.00757193
0.00744925
0.0073329
0.00721452
0.00729622
0.0407119
0.231731
0.587732
0.976928
1.39285
1.8995
2.65897
4.23315
7.97287
19.1522
56.8694
161.073
0.00864154
0.00817175
0.00801811
0.00788181
0.00775928
0.00764762
0.00754389
0.00744496
0.00734565
0.00701244
0.0196663
0.146277
0.472981
0.873672
1.29716
1.79468
2.52181
3.9924
7.5034
17.7712
52.5932
147.201
0.00883173
0.0083664
0.00821282
0.00807397
0.00794707
0.00783002
0.0077207
0.00761671
0.00751447
0.00722355
0.010881
0.0800566
0.34968
0.753622
1.19113
1.68654
2.38718
3.75852
7.0354
16.403
48.3281
133.5
0.00880912
0.00836381
0.00822891
0.00810891
0.00800074
0.00790189
0.00780982
0.00772176
0.00763435
0.00746038
0.00816942
0.0387703
0.230241
0.615315
1.0699
1.57179
2.25351
3.53312
6.57469
15.0669
44.098
120.138
0.00898975
0.00854848
0.0084136
0.00829123