/*--------------------------------*- C++ -*----------------------------------*\
| =========                 |                                                 |
| \\      /  F ield         | OpenFOAM: The Open Source CFD Toolbox           |
|  \\    /   O peration     | Version:  v1912                                 |
|   \\  /    A nd           | Website:  www.openfoam.com                      |
|    \\/     M anipulation  |                                                 |
\*---------------------------------------------------------------------------*/
FoamFile
{
    version     2.0;
    format      ascii;
    class       volScalarField;
    location    "170";
    object      nut;
}
// * * * * * * * * * * * * * * * * * * * * * * * * * * * * * * * * * * * * * //

dimensions      [0 2 -1 0 0 0 0];


internalField   nonuniform List<scalar> 
12441
(
5.82204e-24
1.79063e-20
8.10535e-20
3.32557e-19
1.06839e-18
3.88884e-18
1.01068e-17
2.50077e-17
6.13926e-17
1.27549e-16
3.05695e-16
7.72341e-16
2.17542e-15
7.41152e-15
1.0368e-13
1.89482e-11
0.000199325
0.00102282
0.00326828
0.00271453
0.00364427
0.00775321
6.34215e-24
3.03376e-20
1.11741e-19
4.23981e-19
1.30227e-18
4.80825e-18
1.22007e-17
3.00154e-17
7.3626e-17
1.54489e-16
3.79882e-16
1.03059e-15
2.82058e-15
9.38589e-15
1.13097e-13
3.89979e-11
5.87853e-05
0.00124131
0.00373927
0.00295503
0.00400624
0.00781733
6.36491e-24
3.58986e-20
1.20789e-19
4.48168e-19
1.37792e-18
4.90771e-18
1.29314e-17
3.2047e-17
8.05328e-17
1.71814e-16
4.17982e-16
1.11904e-15
2.77675e-15
7.67644e-15
5.35479e-14
6.57443e-12
1.12005e-05
0.00090748
0.00148427
0.0027865
0.00415891
0.0078909
6.31939e-24
3.7695e-20
1.18545e-19
4.29348e-19
1.32554e-18
4.71455e-18
1.25159e-17
3.13332e-17
7.85138e-17
1.73721e-16
4.23864e-16
1.15561e-15
2.60351e-15
8.484e-15
3.85158e-14
1.54303e-12
1.63109e-06
0.000629984
0.00110377
0.00270559
0.00432136
0.0079647
6.28534e-24
4.38867e-20
1.2979e-19
4.58355e-19
1.40288e-18
4.78029e-18
1.30934e-17
3.28012e-17
8.43185e-17
1.87575e-16
4.54279e-16
1.28649e-15
3.01007e-15
4.07799e-14
2.4733e-13
2.29797e-12
1.39854e-07
0.000442442
0.00107883
0.00269046
0.00446223
0.00803394
6.23517e-24
4.12916e-20
1.2055e-19
4.29229e-19
1.34292e-18
4.62305e-18
1.2753e-17
3.23999e-17
8.29159e-17
1.92743e-16
4.77077e-16
1.44759e-15
4.52101e-15
1.33041e-12
1.19011e-11
5.10326e-11
4.59158e-07
0.000402497
0.00113841
0.00274709
0.00459059
0.00809948
6.20026e-24
5.02678e-20
1.37808e-19
4.75812e-19
1.46035e-18
4.79342e-18
1.35958e-17
3.44607e-17
9.07261e-17
2.11185e-16
5.20985e-16
2.00289e-15
2.49493e-14
4.15181e-11
6.58225e-10
9.37665e-09
1.87549e-05
0.000412579
0.00131828
0.00293702
0.0047405
0.00816218
6.1505e-24
4.34559e-20
1.23183e-19
4.402e-19
1.40838e-18
4.7238e-18
1.35151e-17
3.48525e-17
9.13447e-17
2.23917e-16
5.72677e-16
5.44366e-15
6.08281e-13
2.2551e-09
8.41673e-08
4.9719e-06
0.000193639
0.000463346
0.00177462
0.00333097
0.00493983
0.00822577
6.11769e-24
5.57085e-20
1.46144e-19
4.99724e-19
1.55434e-18
4.95964e-18
1.46147e-17
3.75786e-17
1.02102e-16
2.51022e-16
6.45533e-16
6.14345e-14
2.58275e-11
7.42994e-08
1.04146e-05
0.000152613
0.000778681
0.000811199
0.00272804
0.00400987
0.00522317
0.00829204
6.07086e-24
4.43534e-20
1.25448e-19
4.56677e-19
1.50778e-18
4.9547e-18
1.47506e-17
3.87341e-17
1.04908e-16
2.75209e-16
7.48848e-16
1.68433e-12
1.081e-09
4.43531e-06
0.000188912
0.000594767
0.00159687
0.00149929
0.00445673
0.00505311
0.00560535
0.00836448
6.04167e-24
6.02646e-20
1.53448e-19
5.25958e-19
1.67296e-18
5.20698e-18
1.60283e-17
4.20437e-17
1.19327e-16
3.17468e-16
8.9234e-16
5.23775e-11
5.49215e-08
8.16408e-05
0.00069425
0.00157899
0.00333101
0.00289507
0.00734814
0.00655517
0.00609958
0.00844366
5.99628e-24
4.46327e-20
1.27749e-19
4.76992e-19
1.63396e-18
5.2821e-18
1.64058e-17
4.40751e-17
1.25536e-16
3.64749e-16
1.15897e-15
1.45857e-09
3.24145e-06
0.000338459
0.00145923
0.00334941
0.00662577
0.00560834
0.0117881
0.00855032
0.00669296
0.00853143
5.97065e-24
6.41541e-20
1.60465e-19
5.53864e-19
1.81523e-18
5.54301e-18
1.79121e-17
4.82324e-17
1.46745e-16
4.44866e-16
1.69506e-15
3.52519e-08
7.19908e-05
0.00101834
0.00339861
0.0070312
0.0126935
0.0104675
0.017889
0.0110097
0.00737365
0.00862633
5.9267e-24
4.43291e-20
1.29683e-19
4.99366e-19
1.78349e-18
5.69316e-18
1.85365e-17
5.13958e-17
1.59899e-16
5.59339e-16
3.6025e-15
7.9698e-07
0.000337839
0.00250111
0.00716265
0.0135013
0.0225438
0.0181528
0.0253364
0.0137965
0.00810636
0.00872852
5.9043e-24
6.75205e-20
1.66669e-19
5.82678e-19
1.97829e-18
5.94128e-18
2.02731e-17
5.67949e-17
1.9611e-16
7.78952e-16
1.6522e-14
1.51763e-05
0.00106271
0.00560941
0.0136839
0.0234807
0.036557
0.0286927
0.0333891
0.0167455
0.00886857
0.00883515
5.86064e-24
4.39626e-20
1.32011e-19
5.24863e-19
1.95813e-18
6.18691e-18
2.12068e-17
6.16936e-17
2.28236e-16
1.21667e-15
3.02256e-13
0.000136161
0.00252789
0.0110692
0.0236088
0.0371191
0.054122
0.0411313
0.041163
0.0196529
0.00962137
0.00894576
5.84152e-24
7.05452e-20
1.7352e-19
6.15183e-19
2.17092e-18
6.44079e-18
2.33153e-17
6.93933e-17
3.08319e-16
2.30565e-15
1.26062e-11
0.000507521
0.00551614
0.0194628
0.0368148
0.0538807
0.0734801
0.0537198
0.0478979
0.0223809
0.0103489
0.00905718
5.7976e-24
4.35059e-20
1.34507e-19
5.53201e-19
2.16105e-18
6.77311e-18
2.46239e-17
7.72486e-17
4.0859e-16
5.44743e-15
5.48154e-10
0.00125623
0.0106406
0.030979
0.0528687
0.0724124
0.0920191
0.0645412
0.0532273
0.0248101
0.0110228
0.00916919
5.78121e-24
7.3269e-20
1.80305e-19
6.49201e-19
2.38837e-18
7.01303e-18
2.7188e-17
8.90907e-17
6.61914e-16
1.69282e-14
4.40918e-08
0.00293084
0.0184663
0.0449964
0.0704193
0.090804
0.107004
0.0723234
0.0571396
0.0269142
0.011643
0.00927899
5.73671e-24
4.3057e-20
1.36886e-19
5.82475e-19
2.38732e-18
7.43988e-18
2.90141e-17
1.02342e-16
1.08076e-15
7.52964e-14
8.53034e-06
0.00598049
0.0289693
0.060743
0.0880995
0.106895
0.116428
0.0768308
0.059922
0.0286692
0.0121952
0.00938714
5.7236e-24
7.57349e-20
1.8682e-19
6.83253e-19
2.62968e-18
7.67456e-18
3.23107e-17
1.22273e-16
2.19438e-15
7.80427e-13
0.000164512
0.0110619
0.0416008
0.0769093
0.10402
0.118935
0.119685
0.0787826
0.0619222
0.0301177
0.0126936
0.00949146
5.67829e-24
4.2438e-20
1.38588e-19
6.11005e-19
2.63563e-18
8.19523e-18
3.49482e-17
1.46501e-16
4.3415e-15
1.34102e-11
0.000625342
0.0184665
0.0554587
0.0924831
0.116915
0.125936
0.117659
0.079286
0.0634783
0.0312772
0.013136
0.00959327
5.66787e-24
7.80283e-20
1.92488e-19
7.15561e-19
2.89033e-18
8.41996e-18
3.94412e-17
1.83623e-16
1.02786e-14
1.66147e-10
0.00158406
0.0280138
0.0695424
0.106232
0.125665
0.127992
0.112256
0.07932
0.0648022
0.0322133
0.0135483
0.00969106
5.62201e-24
4.19681e-20
1.39809e-19
6.38088e-19
2.90318e-18
9.03977e-18
4.35117e-17
2.31552e-16
2.24272e-14
1.55845e-09
0.00349046
0.0391818
0.0829596
0.117478
0.130233
0.126035
0.105571
0.0794292
0.0660325
0.0329595
0.0139381
0.00978684
5.61512e-24
8.0281e-20
1.97597e-19
7.45897e-19
3.17169e-18
9.26916e-18
5.02745e-17
3.06494e-16
5.64558e-14
1.3782e-08
0.00674564
0.0511153
0.0950195
0.125626
0.130965
0.121523
0.0992041
0.0797826
0.067215
0.0335938
0.01434
0.00987966
5.56748e-24
4.17959e-20
1.40781e-19
6.63962e-19
3.19268e-18
9.99491e-18
5.71663e-17
4.08566e-16
1.30521e-13
3.18893e-07
0.0116327
0.0630645
0.105251
0.130748
0.128932
0.115886
0.0939747
0.0803215
0.0683729
0.0341629
0.0147679
0.00997203
5.56309e-24
8.24898e-20
2.02116e-19
7.741e-19
3.47343e-18
1.02343e-17
6.8474e-17
5.73482e-16
3.92646e-13
1.86599e-05
0.0180258
0.0743095
0.113398
0.133046
0.125101
0.110241
0.0900575
0.0809302
0.0694905
0.0347496
0.0152595
0.0100634
5.51431e-24
4.18635e-20
1.4124e-19
6.87623e-19
3.50227e-18
1.10716e-17
8.1349e-17
8.10604e-16
1.8305e-12
0.000208413
0.0256073
0.0844218
0.119397
0.133156
0.120523
0.105222
0.0872721
0.0815015
0.0705573
0.0353963
0.0158276
0.0101564
5.51329e-24
8.46815e-20
2.05816e-19
7.99301e-19
3.79683e-18
1.13464e-17
1.02533e-16
1.20465e-15
1.28048e-11
0.000682227
0.0338174
0.093081
0.123355
0.13162
0.115817
0.101079
0.0853323
0.0819739
0.0715452
0.0361662
0.0165027
0.0102507
5.46226e-24
4.20385e-20
1.40985e-19
7.08521e-19
3.83444e-18
1.23078e-17
1.2886e-16
1.79622e-15
7.41136e-11
0.00133806
0.0422102
0.100174
0.125503
0.129096
0.111464
0.0978014
0.0839745
0.0823173
0.0724379
0.0370717
0.0172844
0.0103488
5.46326e-24
8.68125e-20
2.08997e-19
8.21886e-19
4.14382e-18
1.26555e-17
1.72511e-16
2.81018e-15
3.56486e-10
0.00225395
0.0503286
0.10565
0.126144
0.125998
0.1076
0.0952661
0.0830016
0.0825316
0.0732076
0.0381358
0.0181859
0.01045
5.41117e-24
4.22506e-20
1.39918e-19
7.26721e-19
4.19178e-18
1.3745e-17
2.30192e-16
4.3908e-15
1.38722e-09
0.00349726
0.0578959
0.109594
0.125605
0.122724
0.104309
0.0933124
0.0822806
0.082626
0.073839
0.0393315
0.0191856
0.0105565
5.41527e-24
8.89241e-20
2.11432e-19
8.42466e-19
4.5233e-18
1.41958e-17
3.2646e-16
7.08505e-15
4.74706e-09
0.00515742
0.064659
0.11212
0.124196
0.119448
0.101514
0.0917982
0.0817289
0.0826199
0.0743072
0.0406478
0.0202755
0.010667
5.35972e-24
4.22831e-20
1.37829e-19
7.42997e-19
4.58598e-18
1.54577e-17
4.58376e-16
1.12989e-14
1.44532e-08
0.00729093
0.0705299
0.113421
0.122189
0.116341
0.0991731
0.0906031
0.0812974
0.082531
0.0745992
0.0420366
0.0214144
0.0107831
5.36576e-24
8.84634e-20
2.10356e-19
8.57317e-19
4.93729e-18
1.60508e-17
6.78107e-16
1.8511e-14
4.2798e-08
0.00993819
0.0754575
0.113683
0.119806
0.113426
0.0971772
0.0896399
0.0809592
0.0823801
0.0746937
0.0434814
0.0225815
0.0109032
5.30617e-24
4.14903e-20
1.32595e-19
7.51749e-19
5.01131e-18
1.74673e-17
9.80741e-16
2.99271e-14
2.19407e-07
0.0131752
0.0795269
0.113127
0.117217
0.110761
0.0954779
0.0888417
0.0807008
0.0821836
0.0745813
0.0449459
0.023729
0.0110282
5.31259e-24
8.52689e-20
2.03842e-19
8.62148e-19
5.38184e-18
1.81898e-17
1.47498e-15
5.74711e-14
1.10255e-05
0.0171223
0.0828376
0.111938
0.11455
0.108315
0.0939914
0.0881654
0.0805175
0.0819608
0.0742469
0.0464406
0.0248385
0.0111563
5.24623e-24
4.16194e-20
1.27345e-19
7.57833e-19
5.48401e-18
1.98626e-17
2.14296e-15
4.65171e-13
0.000178751
0.0220142
0.0855626
0.11031
0.111893
0.106108
0.0926924
0.0875794
0.0804096
0.0817265
0.0736892
0.0479662
0.0258737
0.0112883
5.24954e-24
5.37936e-20
1.54736e-19
7.99568e-19
5.76971e-18
2.06429e-17
3.20217e-15
2.31335e-11
0.00110071
0.0281515
0.0878352
0.108388
0.109306
0.104103
0.0915255
0.0870679
0.0803818
0.0814986
0.0729047
0.0495723
0.0268388
0.011422
5.17283e-24
4.32853e-20
1.14492e-19
7.24419e-19
5.94194e-18
2.35518e-17
4.66408e-15
1.03302e-09
0.00394971
0.0357233
0.0897905
0.106317
0.106824
0.102323
0.0904894
0.0866203
0.0804404
0.0812895
0.0719085
0.0512872
0.0277271
0.0115584
5.16613e-24
1.93965e-21
1.12103e-20
4.00701e-19
5.45006e-18
2.44431e-17
7.20884e-15
1.82317e-07
0.010064
0.0446644
0.0914769
0.104195
0.104464
0.100738
0.0895495
0.0862376
0.0805927
0.0811122
0.0707177
0.0531537
0.0285788
0.0116955
5.07805e-24
1.71184e-20
4.47817e-20
4.17478e-19
5.46388e-18
3.62191e-17
1.80121e-14
4.31935e-05
0.0204747
0.0547579
0.0929195
0.102121
0.102223
0.0993856
0.0887267
0.0859224
0.0808445
0.08097
0.0693738
0.0551215
0.0294098
0.0118345
5.03918e-24
6.72071e-22
8.46027e-23
2.35281e-19
5.06737e-18
8.2838e-17
3.70878e-13
0.000795517
0.0358226
0.0656856
0.0940641
0.100157
0.100087
0.0982397
0.0879968
0.0856894
0.0812008
0.0808622
0.0679237
0.0570264
0.0302229
0.011976
4.83857e-24
2.10355e-19
4.58263e-19
1.0298e-18
7.26225e-18
9.13759e-16
7.18291e-12
0.00447172
0.0563052
0.0772934
0.0949999
0.0984124
0.0980402
0.0973358
0.0873812
0.0855424
0.081653
0.0807333
0.0664277
0.0584389
0.0307145
0.0121338
0.00987657
0.0152645
0.0165644
0.00641617
0.00573144
0.00583762
0.0060216
0.00616521
0.00606632
0.00613264
0.00811937
0.00772624
0.00773379
0.00843168
0.00944881
0.0104371
0.0117271
0.0130871
0.0134225
0.0119212
0.0106849
0.0106919
0.012664
0.0179825
0.0280311
0.0537168
0.0906089
0.107148
0.11163
0.107503
0.100692
0.0969434
0.0975535
0.107864
0.125752
0.00986353
0.0154357
0.0158388
0.00603918
0.00549511
0.00561705
0.00592741
0.00611549
0.00599406
0.00605297
0.00782636
0.00731064
0.00726387
0.00799017
0.00914686
0.0101967
0.0115519
0.0130865
0.0135668
0.0119784
0.0106096
0.0105561
0.0124282
0.0176468
0.0276432
0.0533303
0.0904123
0.107034
0.111557
0.107409
0.100627
0.0968906
0.0975315
0.107844
0.125746
0.00983842
0.0155216
0.0146279
0.00544766
0.00519812
0.00532673
0.00585063
0.00608216
0.00589391
0.00592512
0.00704069
0.00630577
0.00622573
0.00695887
0.00804857
0.00890204
0.0100542
0.0115901
0.0124631
0.0113949
0.010332
0.0103795
0.0121643
0.0171251
0.0270016
0.0527924
0.0900286
0.106731
0.111353
0.107166
0.100449
0.0967394
0.0974464
0.107761
0.125691
0.00979929
0.0155325
0.0131282
0.00484973
0.00492108
0.00505404
0.00578526
0.0059968
0.00576164
0.00576921
0.0061636
0.00519246
0.00502674
0.00578231
0.0068618
0.00750576
0.00829527
0.00959181
0.0107373
0.0103887
0.00983881
0.0100778
0.0117962
0.0163941
0.0260644
0.0520295
0.0894465
0.106246
0.11102
0.106776
0.100159
0.0964894
0.0972978
0.107616
0.125589
0.00974597
0.0154213
0.0114927
0.00430295
0.00465083
0.00478005
0.00567265
0.00581904
0.00556338
0.00554957
0.00536754
0.00421495
0.00396041
0.00470897
0.0058291
0.00634375
0.00677765
0.00770095
0.00887876
0.00914999
0.00913014
0.00959001
0.0112678
0.0154496
0.0248137
0.0509854
0.0886711
0.105597
0.110574
0.106253
0.0997687
0.096152
0.0970954
0.107418
0.125449
0.00967615
0.0151525
0.00985209
0.0038275
0.00438419
0.00448977
0.00547727
0.00554026
0.0052814
0.00523981
0.00467102
0.0034366
0.00312935
0.00378269
0.0049174
0.00539612
0.00558452
0.00614577
0.00716817
0.00782211
0.00822379
0.00888353
0.0105438
0.0143033
0.0232544
0.0496178
0.0877185
0.104817
0.110042
0.105622
0.0992969
0.0957452
0.0968554
0.107187
0.125289
0.00959042
0.0147105
0.00831576
0.00344143
0.00414204
0.00419739
0.00520394
0.00518083
0.00492678
0.00484748
0.0040559
0.00284855
0.00254503
0.00302223
0.00406458
0.00454711
0.00461045
0.00490526
0.00569719
0.00649597
0.00715666
0.00795937
0.00961235
0.0129799
0.0214135
0.0478967
0.086611
0.103946
0.109455
0.10491
0.0987674
0.0952921
0.0965979
0.106943
0.125132
0.00948687
0.0140888
0.0069598
0.00315515
0.00395371
0.00393374
0.00488622
0.00477787
0.00453021
0.00440549
0.00351347
0.00243248
0.00218509
0.00247026
0.00329912
0.00374862
0.00375207
0.00387543
0.00444585
0.00522405
0.00598816
0.00685726
0.00848977
0.0115153
0.0193391
0.0458049
0.0853731
0.103025
0.108847
0.104151
0.0982068
0.0948182
0.0963459
0.106712
0.125004
0.00936733
0.0132997
0.00582016
0.00296509
0.00384159
0.00373125
0.00456851
0.00437258
0.00412829
0.00395502
0.00304899
0.00216532
0.00200507
0.00214427
0.00270204
0.00304632
0.00299632
0.00299971
0.0033815
0.00405225
0.00480245
0.00565763
0.00722669
0.00995737
0.0170987
0.0433409
0.0840286
0.102097
0.108255
0.103377
0.0976428
0.0943512
0.0961238
0.106521
0.12493
0.0092307
0.0123594
0.00489588
0.00285687
0.00381567
0.00361511
0.00429422
0.00400355
0.00375642
0.00353507
0.0026729
0.00201309
0.00194569
0.00200769
0.00231792
0.00250832
0.00239194
0.00230002
0.00251967
0.0030444
0.00370451
0.00447469
0.00591126
0.00836884
0.0147764
0.040524
0.0825984
0.101203
0.107711
0.102623
0.0971034
0.0939188
0.0959569
0.106397
0.124939
0.00908003
0.0112982
0.00416227
0.00281402
0.00387519
0.00360033
0.00409935
0.00370281
0.00344397
0.00317607
0.00239137
0.00193508
0.00194639
0.00199091
0.0021244
0.00215983
0.00197615
0.00181668
0.00190644
0.00227625
0.00280292
0.00343699
0.0046636
0.00683093
0.0124703
0.0374013
0.0811
0.100378
0.107247
0.101919
0.0966155
0.0935485
0.0958699
0.10637
0.125059
0.00891508
0.0101476
0.00358808
0.00282485
0.00401425
0.00369185
0.00401029
0.0034951
0.00321303
0.00289868
0.00220293
0.00189536
0.0019591
0.00202097
0.0020553
0.00196798
0.00173161
0.00153813
0.0015468
0.00178782
0.00217397
0.00265232
0.00361344
0.00544235
0.0102886
0.0340553
0.0795483
0.0996547
0.10689
0.101293
0.0962042
0.0932663
0.0958869
0.106465
0.125317
0.00874002
0.008952
0.00314715
0.00288525
0.00422775
0.00388686
0.00404321
0.00339712
0.00307721
0.00271261
0.00209518
0.00187212
0.00195558
0.00204423
0.00203913
0.00187149
0.00160269
0.0014024
0.00137893
0.001544
0.00182274
0.00216621
0.00285928
0.00430559
0.00834268
0.0306098
0.0779586
0.0990578
0.106662
0.100771
0.0958923
0.0930969
0.0960308
0.10671
0.125739
0.00855535
0.00775721
0.00282567
0.00299798
0.00451607
0.00417843
0.00420496
0.00341838
0.00304237
0.00261969
0.00205334
0.00185712
0.00192723
0.00203308
0.00202292
0.00181279
0.00153142
0.00134172
0.00132047
0.0014622
0.00168725
0.00194659
0.00242775
0.00349641
0.00673349
0.0272273
0.0763507
0.0986083
0.106582
0.100373
0.0957001
0.0930624
0.0963227
0.10713
0.12635
0.00836592
0.00661707
0.00262187
0.00317091
0.00488755
0.00456099
0.00449417
0.00356141
0.0031082
0.00261481
0.00206345
0.00185102
0.00187946
0.00198354
0.0019812
0.00175635
0.00147974
0.0013115
0.00131147
0.00146645
0.00168703
0.00191799
0.00227241
0.00303228
0.00553054
0.0240926
0.074754
0.0983221
0.106663
0.100117
0.0956448
0.0931833
0.096782
0.107747
0.127172
0.00817267
0.00557952
0.00254223
0.00341623
0.00535771
0.00503807
0.00490674
0.00382388
0.00327178
0.00269041
0.00211756
0.00185822
0.00182456
0.0019056
0.0019104
0.00168908
0.00143154
0.00129227
0.00132287
0.00151113
0.00176066
0.00200691
0.002315
0.002871
0.00475181
0.0213775
0.073211
0.0982113
0.106915
0.100016
0.0957415
0.0934775
0.0974265
0.108584
0.128227
0.00798033
0.00468675
0.00259704
0.0037509
0.00594932
0.00562664
0.00544253
0.00420251
0.00352939
0.00283813
0.00221118
0.0018839
0.00177516
0.00181531
0.00182009
0.00161302
0.00138501
0.00128007
0.00134641
0.00157809
0.00187485
0.00216331
0.00248438
0.00294156
0.00436301
0.0191962
0.0717761
0.0982851
0.107346
0.100081
0.0960025
0.0939612
0.0982722
0.109662
0.129533
0.00778933
0.00396869
0.00280005
0.0041983
0.00669489
0.0063564
0.00611019
0.00469805
0.00387951
0.00305388
0.00234604
0.00193302
0.00174103
0.00172684
0.00172283
0.00153559
0.00134377
0.00127671
0.00138263
0.00166433
0.0020175
0.00236155
0.00273209
0.00317497
0.00429811
0.0175785
0.0705096
0.0985508
0.107959
0.100321
0.0964383
0.0946491
0.0993341
0.111
0.131108
0.00760307
0.00343979
0.00317132
0.00479038
0.00763582
0.00727074
0.00693005
0.00531994
0.00432544
0.00333853
0.00252727
0.00201123
0.00172868
0.00165033
0.00162951
0.00146435
0.00131205
0.00128502
0.001434
0.00177215
0.00218721
0.0025923
0.00303169
0.00351866
0.00448371
0.0164827
0.0694687
0.0990142
0.108757
0.100741
0.0970576
0.0955544
0.100626
0.112616
0.132969
0.00742066
0.00309616
0.00374375
0.00556766
0.00882254
0.00842479
0.00793427
0.0060887
0.00487794
0.00370105
0.00276744
0.00212648
0.00174369
0.00159123
0.00154665
0.00140426
0.00129295
0.00130732
0.00150255
0.00190389
0.00238561
0.00285387
0.00337139
0.00393804
0.00485417
0.0158326
0.0687007
0.0996807
0.109742
0.101345
0.0978679
0.0966894
0.10216
0.114529
0.135131
0.00724378
0.00291713
0.00457662
0.0065779
0.0103128
0.00988089
0.00916347
0.0070347
0.00555478
0.00415602
0.00308289
0.00229058
0.00179335
0.00155394
0.00147841
0.00135872
0.001289
0.00134581
0.00158962
0.00206049
0.00261359
0.00314653
0.00374664
0.00441217
0.00535754
0.015551
0.0682401
0.100555
0.110915
0.102139
0.0988756
0.0980658
0.103949
0.116756
0.137608
0.00707145
0.00286921
0.00576213
0.00787953
0.0121718
0.0117047
0.0106626
0.00819399
0.00637898
0.00472291
0.00349496
0.00251946
0.00188901
0.00154409
0.00142793
0.00133031
0.00130281
0.00140312
0.00169634
0.00224091
0.00287005
0.00346982
0.00415525
0.00492831
0.00595576
0.015575
0.0681099
0.101643
0.112276
0.103123
0.100087
0.0996951
0.106004
0.119313
0.140413
0.00690537
0.00292796
0.00741105
0.00955151
0.0144777
0.0139666
0.0124792
0.00960256
0.00737358
0.00541833
0.0040198
0.00283025
0.00204627
0.00157227
0.00140045
0.0013226
0.00133804
0.00148302
0.00182414
0.00244265
0.00315189
0.00382176
0.00459486
0.00547797
0.00662268
0.0158594
0.0683244
0.102949
0.113825
0.104302
0.101506
0.101588
0.108338
0.122218
0.143559
0.00674534
0.00308091
0.00964306
0.0117069
0.0173308
0.0167487
0.0146654
0.0112927
0.00855687
0.00625108
0.00466283
0.00323426
0.00228128
0.00165435
0.00140411
0.00134062
0.00139988
0.00159091
0.0019756
0.00266211
0.00345453
0.004199
0.00506215
0.00605462
0.00734155
0.016375
0.0688926
0.10448
0.115564
0.105676
0.10314
0.103757
0.110961
0.125488
0.147057
0.00659312
0.00331727
0.0125713
0.0145048
0.0208593
0.0201467
0.0172762
0.0132877
0.00993431
0.00721123
0.00540401
0.00372624
0.00260169
0.00181105
0.00145258
0.00139252
0.00149594
0.00173457
0.00215546
0.00289611
0.00377272
0.00459738
0.00555286
0.00665285
0.00810308
0.0171057
0.0698209
0.106242
0.117493
0.107249
0.104992
0.106212
0.113884
0.12914
0.150919
0.00644962
0.0036355
0.0162786
0.018151
0.0252111
0.024253
0.0203554
0.0155898
0.0114886
0.00826402
0.00619551
0.00427568
0.00299576
0.00205818
0.00156483
0.00149029
0.00163686
0.0019244
0.00237167
0.00314326
0.00410147
0.00501247
0.00606222
0.00726823
0.00890396
0.0180465
0.0711146
0.108242
0.119614
0.109022
0.107068
0.108966
0.117119
0.133192
0.155155
0.00631698
0.00404823
0.0208012
0.0228796
0.0305234
0.0291147
0.0239017
0.0181579
0.0131641
0.00934055
0.00695802
0.00482619
0.00342822
0.00239503
0.00176362
0.00165195
0.00183757
0.00217403
0.002636
0.0034063
0.00443722
0.00544033
0.00658558
0.00789763
0.00974608
0.0192014
0.072779
0.110489
0.121929
0.110997
0.109372
0.11203
0.120677
0.137661
0.159773
0.00619775
0.00459531
0.0261447
0.0289202
0.0368771
0.0346769
0.0278279
0.0208837
0.0148563
0.0103404
0.00759672
0.00530742
0.00384854
0.00279513
0.00206453
0.00190024
0.00211761
0.00249998
0.00296374
0.00369317
0.00477888
0.00587798
0.00711892
0.00853954
0.0106359
0.0205825
0.07482
0.112989
0.124438
0.113177
0.111909
0.115415
0.124569
0.142563
0.164782
0.00609509
0.00535055
0.0323236
0.0364619
0.0442478
0.0407365
0.0319293
0.023578
0.01641
0.0111411
0.00801956
0.00565672
0.00420887
0.0032175
0.00246524
0.00225804
0.00249986
0.00292061
0.00337228
0.00401829
0.00512895
0.00632407
0.00765936
0.00919438
0.0115845
0.0222088
0.0772431
0.115751
0.127144
0.115563
0.114682
0.119134
0.128805
0.147917
0.170189
0.00601408
0.00642218
0.039407
0.0456101
0.0524571
0.0469245
0.0358814
0.025982
0.0176394
0.0116261
0.00816969
0.00584251
0.00448147
0.00362191
0.0029403
0.00273612
0.00300381
0.00345172
0.00387773
0.00440094
0.00549424
0.00677914
0.00820541
0.00986464
0.0126067
0.0241051
0.0800538
0.118783
0.130049
0.118155
0.117697
0.123197
0.133397
0.153741
0.176
0.00596079
0.00792889
0.0475131
0.0562993
0.0611197
0.0527167
0.0392694
0.027801
0.0183617
0.0117137
0.00804278
0.00587662
0.00466781
0.00398507
0.00345302
0.00332391
0.00363547
0.00409962
0.00448961
0.00486347
0.00588637
0.00724605
0.00875709
0.0105548
0.0137217
0.0263018
0.0832561
0.122092
0.133152
0.120953
0.120956
0.127618
0.138355
0.160051
0.182221
0.00594609
0.00997397
0.056752
0.0681508
0.0695974
0.0574809
0.0416494
0.0287589
0.0184411
0.0113839
0.00769207
0.00580677
0.00479357
0.00430062
0.00396575
0.00398632
0.00437634
0.00485169
0.00520321
0.00542531
0.00632133
0.0077298
0.00931574
0.0112709
0.0149526
0.0288334
0.0868523
0.125684
0.136454
0.123958
0.124464
0.132408
0.143692
0.166869
0.188858
0.00598322
0.0126209
0.0670884
0.0803333
0.0770118
0.060569
0.0426319
0.028658
0.0178232
0.0106823
0.00720286
0.00569254
0.0048932
0.00457628
0.00445014
0.00467433
0.00518232
0.00567196
0.00599353
0.00609671
0.00681819
0.00823736
0.00988359
0.0120204
0.0163264
0.0317375
0.0908416
0.129564
0.139955
0.127168
0.128226
0.137581
0.14942
0.174216
0.195918
0.00609167
0.0159069
0.0781982
0.0915722
0.0823729
0.0614563
0.0419766
0.0274336
0.0165534
0.00970808
0.00666342
0.00557997
0.00499224
0.00482025
0.00488522
0.0053355
0.00599144
0.00650362
0.00681354
0.00686867
0.00739575
0.00877646
0.010463
0.012811
0.0178736
0.0350538
0.0952201
0.133733
0.143655
0.130582
0.132248
0.143153
0.155556
0.182118
0.203409
0.00628805
0.0198488
0.0893781
0.100402
0.0848188
0.0598874
0.0396634
0.0251786
0.0147668
0.00858414
0.00613691
0.00548863
0.0050977
0.00503641
0.00525883
0.00592723
0.006741
0.00728281
0.00760273
0.00770903
0.00806716
0.00935423
0.0110555
0.0136502
0.0196286
0.0388223
0.0999801
0.138194
0.147551
0.134199
0.136539
0.149145
0.16212
0.190606
0.211345
0.00658505
0.0244663
0.0996676
0.105599
0.0838746
0.0559646
0.0359118
0.0221292
0.0126587
0.0074319
0.00565762
0.00541468
0.005199
0.00521848
0.00556214
0.00641986
0.00737988
0.00795216
0.00830027
0.0085623
0.00883209
0.00997402
0.0116605
0.0145441
0.0216288
0.0430818
0.105111
0.142946
0.151643
0.138021
0.141111
0.15558
0.169138
0.199721
0.219745
0.00697682
0.0297296
0.108074
0.106547
0.0795907
0.0501259
0.0311285
0.0186078
0.0104419
0.00635022
0.00523578
0.00534265
0.00527747
0.0053579
0.00579285
0.00680122
0.00787903
0.00847488
0.00886136
0.00936428
0.00966978
0.0106323
0.0122737
0.0154967
0.0239145
0.0478693
0.110599
0.147991
0.155934
0.142052
0.145983
0.162495
0.17664
0.20951
0.228633
0.00744499
0.0355122
0.1138
0.10332
0.0724934
0.043021
0.0258062
0.0149523
0.00831413
0.00540716
0.0048724
0.00525782
0.00531657
0.00544605
0.0059515
0.00707109
0.00822929
0.00883647
0.00926406
0.0100554
0.0105361
0.0113143
0.0128865
0.0165098
0.0265289
0.0532185
0.116433
0.153332
0.160428
0.146303
0.151177
0.169931
0.18467
0.220037
0.238046
0.00795396
0.0413867
0.116257
0.096491
0.0633879
0.0353437
0.0204145
0.0114568
0.00643567
0.00463548
0.00456422
0.00515197
0.0053082
0.00548251
0.00604571
0.00724104
0.00844041
0.00904549
0.00951283
0.010599
0.0113697
0.0119929
0.0134853
0.0175826
0.0295181
0.0591615
0.122604
0.158978
0.165133
0.15079
0.156728
0.177944
0.193277
0.231377
0.248028
0.00846726
0.0465528
0.115028
0.0868545
0.0531339
0.027698
0.015331
0.0083509
0.0049167
0.00403775
0.00430688
0.00502245
0.00525184
0.00547059
0.00608455
0.00732607
0.00853084
0.00912337
0.0096303
0.0109826
0.0121049
0.0126294
0.0140528
0.0187134
0.032932
0.0657297
0.129113
0.164946
0.170066
0.155539
0.162677
0.186604
0.202524
0.243622
0.258637
0.00894498
0.0497868
0.109796
0.0752145
0.0424894
0.0205349
0.0108285
0.005806
0.00379631
0.00359318
0.00408908
0.00486629
0.00514946
0.00541779
0.00608074
0.00734468
0.00852482
0.00910022
0.00965196
0.0112205
0.0126879
0.0131807
0.0145706
0.0199017
0.0368252
0.0729583
0.135974
0.171264
0.17525
0.160585
0.169074
0.195993
0.212484
0.256876
0.269941
0.0093615
0.0498568
0.100409
0.0623305
0.0320724
0.0141773
0.00711335
0.00393207
0.00303415
0.003267
0.00389131
0.00467476
0.00499863
0.00532647
0.00604381
0.00731206
0.00844347
0.00900452
0.00961481
0.0113419
0.0130878
0.0136083
0.0150227
0.0211507
0.0412595
0.0808904
0.143221
0.177972
0.180718
0.165974
0.17598
0.206205
0.223239
0.271258
0.282016
0.0096768
0.045743
0.0869092
0.0489454
0.022427
0.00890214
0.00435554
0.0027208
0.00253735
0.00301369
0.00368392
0.00443214
0.00478975
0.00519565
0.0059846
0.00724356
0.00830606
0.00886294
0.00955531
0.0113877
0.0133028
0.0138888
0.0154002
0.0224702
0.046306
0.0895824
0.150906
0.185122
0.186509
0.171761
0.18346
0.217343
0.234878
0.286897
0.294947
0.00988074
0.0374341
0.0698073
0.0357781
0.0140727
0.00496538
0.00259413
0.00200081
0.00218996
0.00276841
0.00342094
0.0041076
0.00449597
0.00500674
0.00590123
0.00714021
0.00811659
0.00868741
0.00950029
0.0113985
0.0133565
0.0140172
0.0157029
0.023879
0.0520469
0.0991079
0.159106
0.192774
0.19267
0.178006
0.191585
0.229515
0.247494
0.303924
0.308822
4.88284e-24
3.15588e-19
1.14819e-18
4.34423e-18
2.51525e-17
3.17009e-14
9.08e-11
0.0160471
0.075389
0.0862002
0.0954944
0.0972824
0.0965762
0.0968578
0.0870251
0.0855481
0.0821128
0.0805108
0.0652973
0.0588867
0.0303429
0.0121527
4.99668e-24
7.39807e-20
8.37771e-20
6.28083e-18
6.28432e-17
2.47572e-13
9.30556e-10
0.0299704
0.0883156
0.0915654
0.0955515
0.0966025
0.0957316
0.0967159
0.0869614
0.0856812
0.0825711
0.0803576
0.0647485
0.0588311
0.02992
0.0122084
5.10264e-24
2.76646e-19
8.78189e-19
8.91265e-18
1.22555e-16
9.31948e-13
9.3629e-09
0.0465022
0.0998884
0.0959937
0.0954809
0.0960512
0.0950808
0.0967321
0.0870609
0.0859279
0.0831408
0.0802317
0.0644972
0.0583804
0.0293958
0.0123725
5.06249e-24
5.72637e-20
2.14728e-20
6.84867e-18
1.92328e-16
2.28074e-12
1.696e-07
0.0639465
0.109951
0.0996513
0.0954775
0.0956797
0.0946567
0.0969301
0.0873435
0.0862743
0.0837945
0.0801365
0.0645302
0.0575633
0.0288046
0.0126354
5.16619e-24
2.21299e-19
6.31781e-19
7.22211e-18
2.87858e-16
3.60615e-12
6.52768e-06
0.0796896
0.118528
0.102701
0.0956769
0.0955266
0.0944897
0.0972997
0.0877946
0.0867121
0.0845025
0.0800714
0.0648148
0.0564491
0.028192
0.0129884
5.11449e-24
4.59254e-20
1.20617e-20
4.61091e-18
4.09288e-16
4.86473e-12
1.85376e-05
0.0908576
0.125706
0.105313
0.0961903
0.0956352
0.0946062
0.0978704
0.0884373
0.0872329
0.0852344
0.080032
0.0653146
0.0550948
0.0275679
0.0134484
5.22963e-24
1.78678e-19
4.7302e-19
4.63075e-18
5.79479e-16
5.05189e-12
3.42411e-05
0.0960543
0.131619
0.107626
0.0970797
0.0960344
0.0950284
0.0986351
0.0892585
0.0878384
0.0859633
0.0800148
0.0659763
0.0535834
0.0269581
0.0140294
5.17061e-24
3.80413e-20
7.87714e-21
2.77739e-18
7.71316e-16
4.36941e-12
2.56126e-05
0.0956621
0.136366
0.109765
0.0983966
0.0967588
0.095774
0.0996276
0.0902869
0.0885314
0.0866677
0.0800118
0.0667522
0.0519717
0.0263602
0.014749
5.29826e-24
1.46647e-19
3.69294e-19
2.85783e-18
9.84468e-16
2.87516e-12
2.72228e-05
0.0911155
0.140021
0.111809
0.100155
0.0978279
0.0968569
0.100842
0.0915116
0.0893261
0.087336
0.0800178
0.0675844
0.0503349
0.0257934
0.0156111
5.22388e-24
3.24418e-20
5.88529e-21
1.68547e-18
1.14668e-15
1.68656e-12
3.50731e-05
0.083748
0.142572
0.113817
0.102368
0.0992679
0.0982875
0.102311
0.0929651
0.0902369
0.0879674
0.0800244
0.0684303
0.0487157
0.0252486
0.016619
5.35799e-24
1.21921e-19
2.97196e-19
1.84012e-18
1.25056e-15
8.51039e-13
3.99062e-05
0.0743866
0.143951
0.115794
0.105019
0.101091
0.100074
0.104027
0.0946377
0.0912879
0.0885744
0.0800288
0.0692417
0.0471734
0.0247411
0.0177583
5.27147e-24
2.84278e-20
4.69035e-21
1.07978e-18
1.23768e-15
4.15959e-13
4.09014e-05
0.0637895
0.143988
0.117715
0.108092
0.103318
0.102224
0.106021
0.0965631
0.0924999
0.0891799
0.0800277
0.069992
0.0457328