/*--------------------------------*- C++ -*----------------------------------*\
| =========                 |                                                 |
| \\      /  F ield         | OpenFOAM: The Open Source CFD Toolbox           |
|  \\    /   O peration     | Version:  v1912                                 |
|   \\  /    A nd           | Website:  www.openfoam.com                      |
|    \\/     M anipulation  |                                                 |
\*---------------------------------------------------------------------------*/
FoamFile
{
    version     2.0;
    format      ascii;
    class       volScalarField;
    location    "170";
    object      p;
}
// * * * * * * * * * * * * * * * * * * * * * * * * * * * * * * * * * * * * * //

dimensions      [0 2 -2 0 0 0 0];


internalField   nonuniform List<scalar> 
12441
(
8.30497
8.58613
9.39669
10.7273
12.4038
14.4273
17.0446
20.3906
24.5113
29.5283
35.8173
43.6154
53.2786
65.1779
80.8823
100.339
127.929
161.969
217.063
278.834
370.873
437.037
8.30496
8.58612
9.39668
10.7272
12.4038
14.4273
17.0446
20.3905
24.5111
29.5281
35.8169
43.6147
53.2776
65.1762
80.8793
100.332
127.913
161.945
216.98
278.757
370.821
436.832
8.30494
8.5861
9.39666
10.7272
12.4038
14.4272
17.0444
20.3903
24.5108
29.5276
35.8162
43.6135
53.2756
65.1729
80.8733
100.319
127.89
161.891
216.806
278.573
370.68
436.46
8.30492
8.58608
9.39663
10.7271
12.4037
14.4271
17.0443
20.39
24.5103
29.5269
35.8151
43.6117
53.2726
65.1679
80.8645
100.299
127.858
161.807
216.625
278.291
370.427
435.882
8.30489
8.58605
9.3966
10.7271
12.4036
14.427
17.0441
20.3896
24.5097
29.526
35.8137
43.6092
53.2687
65.1612
80.8527
100.273
127.818
161.702
216.459
277.937
370.072
435.095
8.30485
8.58601
9.39656
10.7269
12.4034
14.4268
17.0438
20.3891
24.5089
29.5248
35.8119
43.6061
53.2637
65.1529
80.8379
100.241
127.767
161.58
216.27
277.509
369.621
434.1
8.3048
8.58596
9.3965
10.7268
12.4032
14.4266
17.0435
20.3885
24.508
29.5234
35.8098
43.6024
53.2578
65.1429
80.8203
100.202
127.708
161.436
216.05
277.012
369.077
432.896
8.30475
8.5859
9.39644
10.7267
12.403
14.4263
17.0431
20.3878
24.5069
29.5218
35.8073
43.5981
53.2508
65.1313
80.7998
100.158
127.642
161.272
215.811
276.456
368.446
431.48
8.30468
8.58584
9.39638
10.7265
12.4028
14.4261
17.0427
20.387
24.5056
29.5199
35.8044
43.5931
53.2429
65.1181
80.7768
100.11
127.575
161.096
215.571
275.856
367.733
429.849
8.30461
8.58577
9.3963
10.7263
12.4025
14.4258
17.0422
20.3861
24.5042
29.5178
35.8012
43.5875
53.234
65.1034
80.7525
100.061
127.509
160.915
215.354
275.223
366.94
427.996
8.30454
8.58568
9.39621
10.7261
12.4022
14.4254
17.0416
20.385
24.5026
29.5155
35.7976
43.5814
53.2241
65.0874
80.728
100.015
127.457
160.744
215.185
274.567
366.064
425.916
8.30445
8.5856
9.39612
10.7259
12.4019
14.425
17.041
20.3839
24.5008
29.5129
35.7936
43.5745
53.2133
65.0712
80.7056
99.9796
127.438
160.611
215.088
273.892
365.1
423.6
8.30435
8.5855
9.39602
10.7256
12.4015
14.4246
17.0404
20.3827
24.4989
29.5101
35.7893
43.5671
53.2018
65.0563
80.692
99.9685
127.484
160.549
215.069
273.189
364.04
421.037
8.30425
8.5854
9.3959
10.7254
12.4011
14.4242
17.0396
20.3814
24.4969
29.5071
35.7847
43.5591
53.1902
65.0464
80.6972
100
127.621
160.587
215.101
272.439
362.875
418.216
8.30414
8.58528
9.39578
10.7251
12.4007
14.4237
17.0389
20.3799
24.4947
29.5038
35.7796
43.5505
53.1798
65.0471
80.7317
100.087
127.862
160.724
215.129
271.614
361.594
415.125
8.30402
8.58516
9.39566
10.7248
12.4003
14.4232
17.0381
20.3784
24.4923
29.5003
35.7742
43.5416
53.1728
65.0649
80.803
100.232
128.189
160.92
215.087
270.69
360.188
411.75
8.3039
8.58504
9.39552
10.7244
12.3998
14.4227
17.0372
20.3768
24.4898
29.4966
35.7684
43.5328
53.1727
65.1043
80.9115
100.426
128.555
161.1
214.923
269.647
358.651
408.077
8.30376
8.5849
9.39537
10.7241
12.3993
14.4221
17.0362
20.375
24.4871
29.4926
35.7622
43.5249
53.1836
65.1665
81.0501
100.645
128.889
161.185
214.614
268.475
356.977
404.095
8.30362
8.58476
9.39522
10.7237
12.3988
14.4215
17.0353
20.3732
24.4842
29.4884
35.7555
43.5196
53.2086
65.2473
81.2047
100.858
129.117
161.122
214.163
267.173
355.162
399.787
8.30347
8.58461
9.39505
10.7233
12.3982
14.4208
17.0342
20.3712
24.4812
29.4839
35.7485
43.519
53.2474
65.3399
81.357
101.027
129.184
160.903
213.592
265.743
353.205
395.139
8.30332
8.58445
9.39488
10.7229
12.3976
14.4202
17.0331
20.3692
24.4781
29.4792
35.7414
43.5258
53.2974
65.4344
81.4867
101.122
129.075
160.558
212.929
264.195
351.104
390.137
8.30315
8.58428
9.39469
10.7224
12.397
14.4194
17.0319
20.367
24.4748
29.4742
35.7346
43.5412
53.353
65.5222
81.5768
101.127
128.813
160.134
212.198
262.534
348.862
384.764
8.30298
8.58411
9.3945
10.722
12.3963
14.4187
17.0307
20.3648
24.4713
29.4689
35.7288
43.5647
53.4092
65.5938
81.6161
101.042
128.45
159.673
211.416
260.772
346.479
379.004
8.3028
8.58392
9.3943
10.7215
12.3957
14.4179
17.0295
20.3624
24.4677
29.4634
35.7251
43.5938
53.4604
65.6439
81.6024
100.882
128.04
159.199
210.593
258.917
343.958
372.839
8.30261
8.58373
9.39409
10.721
12.3949
14.4171
17.0281
20.36
24.4638
29.4576
35.7246
43.6255
53.5035
65.6677
81.541
100.674
127.628
158.719
209.732
256.979
341.302
366.249
8.30242
8.58353
9.39387
10.7205
12.3942
14.4163
17.0267
20.3574
24.4599
29.4515
35.7283
43.6564
53.5349
65.6658
81.4432
100.44
127.237
158.233
208.834
254.966
338.515
359.216
8.30221
8.58333
9.39364
10.7199
12.3934
14.4154
17.0253
20.3548
24.4557
29.4453
35.7361
43.684
53.5543
65.6397
81.3213
100.2
126.872
157.736
207.9
252.889
335.598
351.717
8.302
8.58311
9.39339
10.7194
12.3927
14.4145
17.0238
20.352
24.4514
29.439
35.7472
43.7065
53.5602
65.5947
81.1871
99.9653
126.528
157.223
206.928
250.756
332.553
343.728
8.30179
8.58289
9.39315
10.7188
12.3918
14.4135
17.0222
20.3492
24.447
29.433
35.7601
43.7227
53.5544
65.5346
81.0483
99.7408
126.199
156.692
205.918
248.573
329.381
335.223
8.30156
8.58266
9.39289
10.7182
12.391
14.4125
17.0206
20.3462
24.4423
29.4271
35.7732
43.732
53.5368
65.4652
80.9106
99.5261
125.876
156.143
204.87
246.344
326.079
326.176
8.30133
8.58242
9.39262
10.7176
12.3901
14.4115
17.019
20.3431
24.4375
29.4216
35.7852
43.7346
53.5105
65.3893
80.7757
99.3194
125.555
155.575
203.784
244.072
322.644
316.557
8.30109
8.58217
9.39234
10.7169
12.3892
14.4104
17.0172
20.3399
24.4324
29.4165
35.7952
43.7305
53.476
65.3107
80.6447
99.1179
125.231
154.989
202.66
241.757
319.067
306.332
8.30084
8.58192
9.39205
10.7163
12.3883
14.4093
17.0154
20.3367
24.4273
29.412
35.8026
43.7203
53.4363
65.2301
80.5166
98.9191
124.903
154.387
201.497
239.399
315.341
295.467
8.30058
8.58166
9.39175
10.7156
12.3873
14.4082
17.0136
20.3333
24.4219
29.4082
35.8071
43.7048
53.3917
65.1495
80.3911
98.721
124.568
153.768
200.297
236.998
311.453
283.927
8.30032
8.58139
9.39144
10.7149
12.3863
14.407
17.0117
20.3298
24.4163
29.4053
35.8087
43.6846
53.3445
65.0686
80.2668
98.5221
124.228
153.135
199.059
234.552
307.394
271.671
8.30005
8.58111
9.39112
10.7141
12.3853
14.4058
17.0097
20.3262
24.4106
29.4033
35.8074
43.6607
53.2947
64.9885
80.1432
98.3214
123.88
152.487
197.784
232.064
303.15
258.659
8.29977
8.58082
9.39079
10.7134
12.3843
14.4046
17.0077
20.3225
24.4048
29.4027
35.8036
43.6337
53.244
64.9081
80.0193
98.1181
123.526
151.826
196.472
229.537
298.711
244.849
8.29948
8.58053
9.39045
10.7126
12.3832
14.4033
17.0057
20.3187
24.3991
29.404
35.7977
43.6043
53.1918
64.8285
79.8949
97.9118
123.164
151.152
195.126
226.973
294.066
230.193
8.29919
8.58022
9.3901
10.7119
12.3821
14.402
17.0035
20.3147
24.3941
29.4077
35.7902
43.5733
53.1396
64.7485
79.7693
97.7023
122.797
150.466
193.745
224.38
289.208
214.643
8.29889
8.57991
9.38974
10.7111
12.3809
14.4007
17.0013
20.3107
24.3915
29.4138
35.7814
43.5411
53.0865
64.6692
79.6425
97.4894
122.423
149.768
192.334
221.761
284.131
198.148
8.29858
8.57959
9.38937
10.7103
12.3798
14.3993
16.9991
20.3065
24.393
29.4223
35.7714
43.5081
53.0336
64.5894
79.5141
97.2732
122.043
149.059
190.895
219.121
278.835
180.654
8.29827
8.57927
9.38898
10.7094
12.3786
14.3979
16.9968
20.3024
24.4005
29.4328
35.7603
43.4747
52.9799
64.5104
79.3843
97.0538
121.657
148.338
189.431
216.462
273.317
162.114
8.29794
8.57893
9.38859
10.7086
12.3774
14.3964
16.9944
20.2989
24.415
29.4449
35.7481
43.4412
52.9263
64.4308
79.2527
96.8315
121.265
147.605
187.949
213.78
267.553
142.441
8.29761
8.57859
9.38819
10.7077
12.3762
14.3949
16.9919
20.2979
24.4361
29.4578
35.7348
43.4079
52.8718
64.3523
79.1204
96.607
120.869
146.858
186.453
211.064
261.462
120.902
-15.6533
-38.6353
-43.9082
-27.5412
-18.2136
-13.6882
-12.3499
-12.3562
-11.8255
-7.41735
0.412121
9.11519
15.5227
15.4858
13.9689
14.7963
17.3126
18.9393
18.4281
16.2061
13.5512
11.091
9.1282
7.37622
3.2543
0.959389
5.56472
9.59602
7.73415
5.7236
4.11637
3.15809
2.23746
1.23674
0.643545
-15.7091
-38.6725
-43.9494
-27.5375
-18.2027
-13.6823
-12.3475
-12.3539
-11.8222
-7.41462
0.417879
9.12071
15.5312
15.4986
13.9847
14.813
17.3268
18.948
18.4317
16.2084
13.5537
11.0925
9.12754
7.37486
3.25471
0.955628
5.55165
9.59044
7.73363
5.7239
4.11646
3.15809
2.23746
1.23676
0.643545
-15.7998
-38.7583
-44.0226
-27.5321
-18.1871
-13.6729
-12.3436
-12.3518
-11.8204
-7.41256
0.426736
9.13397
15.5475
15.5179
14.0084
14.8421
17.3581
18.9745
18.4476
16.2157
13.5574
11.0943
9.12797
7.37635
3.2585
0.953099
5.5388
9.585
7.73323
5.72426
4.11658
3.15811
2.23747
1.23679
0.643551
-15.9288
-38.8978
-44.1246
-27.5307
-18.169
-13.6611
-12.3383
-12.35
-11.82
-7.41117
0.436589
9.151
15.5679
15.5399
14.0342
14.8755
17.3993
19.0152
18.4756
16.2286
13.5632
11.0978
9.13091
7.38182
3.26751
0.955197
5.529
9.58027
7.73294
5.72467
4.11673
3.15815
2.23749
1.23684
0.643563
-16.0945
-39.0921
-44.2526
-27.537
-18.1486
-13.6473
-12.3316
-12.349
-11.8209
-7.41071
0.445015
9.16669
15.5877
15.5603
14.0556
14.9027
17.4359
19.0554
18.5069
16.2444
13.5711
11.1035
9.13661
7.39135
3.28243
0.962594
5.52228
9.57633
7.73279
5.72512
4.11691
3.15822
2.23753
1.23689
0.64358
-16.2933
-39.3418
-44.4017
-27.5516
-18.1262
-13.6316
-12.3234
-12.3487
-11.8231
-7.41119
0.450615
9.17865
15.6044
15.5781
14.0725
14.9226
17.4634
19.0882
18.5357
16.2613
13.5812
11.112
9.1452
7.40454
3.30316
0.975776
5.51826
9.57309
7.73277
5.72561
4.11711
3.1583
2.23757
1.23696
0.6436
-16.5214
-39.6453
-44.5666
-27.5743
-18.1031
-13.6147
-12.3142
-12.3495
-11.8265
-7.41296
0.453275
9.18576
15.6169
15.5934
14.0871
14.938
17.4837
19.1133
18.5601
16.2782
13.5935
11.1232
9.15668
7.42082
3.32934
0.995273
5.51665
9.5704
7.73287
5.72613
4.11732
3.15839
2.23762
1.23703
0.643623
-16.7751
-39.9974
-44.7421
-27.6047
-18.0812
-13.5979
-12.3048
-12.3512
-11.8311
-7.41626
0.453099
9.18785
15.6245
15.6056
14.0999
14.9509
17.4992
19.1321
18.58
16.2945
13.6072
11.1369
9.17072
7.43951
3.36025
1.02154
5.51724
9.56816
7.73305
5.72665
4.11753
3.15849
2.23767
1.2371
0.643646
-17.0502
-40.3897
-44.9238
-27.6418
-18.0622
-13.5823
-12.2957
-12.3539
-11.8368
-7.42137
0.450424
9.18538
15.627
15.6134
14.1097
14.961
17.5104
19.1452
18.5949
16.3091
13.6213
11.1519
9.18658
7.45979
3.39491
1.05482
5.51982
9.56623
7.73329
5.72718
4.11773
3.15857
2.23771
1.23717
0.643666
-17.3425
-40.8111
-45.1082
-27.6842
-18.0476
-13.5691
-12.2879
-12.3575
-11.8436
-7.42813
0.44573
9.17944
15.625
15.6163
14.1154
14.9673
17.5165
19.1519
18.604
16.3201
13.634
11.1667
9.20308
7.48066
3.43203
1.09515
5.52427
9.56449
7.73356
5.72769
4.11791
3.15864
2.23774
1.23723
0.643684
-17.647
-41.2489
-45.2922
-27.7305
-18.0379
-13.5592
-12.2819
-12.3619
-11.8514
-7.43634
0.439318
9.17163
15.6199
15.6151
14.1169
14.9694
17.5171
19.1519
18.6061
16.3261
13.6436
11.1796
9.21864
7.50099
3.47009
1.14216
5.53054
9.56283
7.73385
5.72818
4.11806
3.15869
2.23775
1.23728
0.643695
-17.9589
-41.6898
-45.4726
-27.7795
-18.0335
-13.553
-12.2782
-12.3668
-11.8598
-7.44561
0.431682
9.16317
15.613
15.611
14.115
14.9681
17.5132
19.1459
18.6015
16.326
13.6486
11.1891
9.23167
7.51954
3.50743
1.1951
5.53871
9.56116
7.73413
5.72862
4.11816
3.1587
2.23774
1.23731
0.6437
-18.273
-42.1204
-45.646
-27.83
-18.0342
-13.551
-12.277
-12.3724
-11.8689
-7.45586
0.42305
9.15503
15.6055
15.6054
14.1111
14.9647
17.5061
19.1353
18.5915
16.3205
13.6489
11.1944
9.24095
7.53515
3.54238
1.25253
5.54897
9.55939
7.73438
5.72902
4.11822
3.15868
2.23771
1.23732
0.643695
-18.5839
-42.5279
-45.8089
-27.8806
-18.04
-13.5532
-12.2785
-12.3788
-11.8785
-7.46689
0.413878
9.14726
15.5976
15.599
14.1063
14.9603
17.4972
19.1217
18.5777
16.311
13.6453
11.1959
9.24609
7.54701
3.57349
1.31234
5.56162
9.5575
7.73459
5.72936
4.11823
3.15861
2.23764
1.2373
0.643681
-18.8861
-42.8995
-45.9577
-27.9299
-18.0509
-13.5596
-12.2827
-12.3861
-11.8887
-7.47878
0.404147
9.13988
15.5892
15.5921
14.1011
14.9557
17.4871
19.1059
18.5613
16.2988
13.639
11.1947
9.24765
7.55504
3.59984
1.37171
5.57695
9.55545
7.73477
5.72965
4.11818
3.15848
2.23755
1.23726
0.643656
-19.1738
-43.2238
-46.0892
-27.9761
-18.0664
-13.5705
-12.2894
-12.3947
-11.8998
-7.49149
0.394049
9.1323
15.5797
15.5843
14.0958
14.9512
17.4761
19.0882
18.5427
16.2847
13.631
11.1917
9.24668
7.55982
3.62133
1.42736
5.59521
9.55327
7.73489
5.72987
4.11806
3.15831
2.23741
1.23718
0.643619
-19.4411
-43.4919
-46.2009
-28.017
-18.0869
-13.5859
-12.2987
-12.4048
-11.9121
-7.50533
0.383258
9.12433
15.5685
15.5754
14.0903
14.9469
17.4642
19.0686
18.522
16.2691
13.6221
11.1877
9.24424
7.5623
3.63879
1.4763
5.61633
9.551
7.73496
5.73002
4.11787
3.15807
2.23724
1.23707
0.643569
-19.6825
-43.6991
-46.2917
-28.0496
-18.1142
-13.6057
-12.3105
-12.4169
-11.9262
-7.52049
0.371706
9.11528
15.5549
15.5648
14.0845
14.9426
17.4512
19.0468
18.4993
16.2521
13.6123
11.1834
9.24106
7.56334
3.65361
1.51667
5.63998
9.5487
7.73498
5.7301
4.11761
3.15777
2.23702
1.23693
0.643508
-19.8924
-43.8452
-46.3618
-28.0717
-18.1496
-13.6302
-12.3252
-12.4315
-11.9428
-7.53766
0.358694
9.10499
15.5386
15.552
14.0782
14.938
17.437
19.0229
18.4745
16.2338
13.6019
11.1787
9.23758
7.5636
3.66715
1.54826
5.66535
9.54643
7.73496
5.73011
4.11727
3.1574
2.23677
1.23675
0.643433
-20.0662
-43.9337
-46.4134
-28.0841
-18.1926
-13.6594
-12.343
-12.4494
-11.9627
-7.55743
0.343748
9.09266
15.5192
15.5368
14.0711
14.933
17.4212
18.9966
18.4475
16.2141
13.5908
11.1739
9.23399
7.56345
3.68032
1.57233
5.6915
9.54429
7.73489
5.73004
4.11686
3.15697
2.23647
1.23654
0.643345
-20.2002
-43.9698
-46.4494
-28.0887
-18.2415
-13.6932
-12.3646
-12.4716
-11.9873
-7.58107
0.325634
9.07793
15.4963
15.5191
14.0633
14.9274
17.4037
18.9679
18.4185
16.1932
13.5792
11.1688
9.23037
7.56318
3.69359
1.59081
5.7174
9.54234
7.73481
5.7299
4.11638
3.15647
2.23613
1.23628
0.643245
-20.2921
-43.9606
-46.4703
-28.0872
-18.2947
-13.7318
-12.3903
-12.4991
-12.0177
-7.60963
0.303465
9.05971
15.4695
15.4985
14.0546
14.9211
17.3843
18.9366
18.3874
16.1711
13.567
11.1636
9.22675
7.56292
3.70706
1.60561
5.74221
9.54065
7.7347
5.72968
4.11581
3.15589
2.23575
1.23599
0.643133
-20.3452
-43.9105
-46.4728
-28.0806
-18.3504
-13.7748
-12.421
-12.5334
-12.0562
-7.64489
0.275746
9.03756
15.4383
15.4748
14.0449
14.9138
17.3628
18.9028
18.3544
16.1481
13.5544
11.1582
9.22315
7.5628
3.7207
1.61819
5.76527
9.53928
7.73459
5.72939
4.11516
3.15525
2.23532
1.23565
0.643008
-20.3689
-43.8146
-46.4524
-28.0689
-18.407
-13.8221
-12.4572
-12.5761
-12.1041
-7.68801
0.24193
9.01048
15.4019
15.4473
14.034
14.9054
17.3391
18.8663
18.3194
16.1242
13.5414
11.1527
9.21958
7.56284
3.73443
1.62956
5.78625
9.53829
7.73447
5.72901
4.11443
3.15453
2.23485
1.23528
0.642873
-20.3691
-43.667
-46.403
-28.0512
-18.4627
-13.8738
-12.4999
-12.6288
-12.1639
-7.74063
0.201387
8.97881
15.3602
15.4151
14.021
14.8954
17.3128
18.827
18.2825
16.0995
13.5282
11.1472
9.21605
7.5631
3.74824
1.64028
5.80497
9.5377
7.73438
5.72855
4.11362
3.15374
2.23434
1.23486
0.642726
-20.3456
-43.4693
-46.3131
-28.0248
-18.5157
-13.9296
-12.55
-12.6928
-12.2368
-7.80299
0.155288
8.94279
15.313
15.3769
14.0046
14.883
17.2837
18.785
18.2438
16.074
13.5147
11.1416
9.21256
7.56356
3.7621
1.6507
5.8215
9.53755
7.73431
5.72801
4.11273
3.15288
2.23379
1.2344
0.64257
-20.297
-43.2265
-46.1654
-27.9846
-18.5644
-13.9893
-12.6078
-12.7694
-12.3243
-7.87518
0.105131
8.90452
15.2615
15.3322
13.983
14.8671
17.2511
18.7401
18.2032
16.0477
13.5011
11.136
9.20912
7.56426
3.77604
1.66097
5.83593
9.53788
7.73429
5.72739
4.11175
3.15194
2.23319
1.23391
0.642404
-20.2241
-42.9449
-45.9406
-27.9237
-18.607
-14.0517
-12.6725
-12.858
-12.4253
-7.95474
0.0545273
8.86568
15.2068
15.2814
13.9551
14.8463
17.2147
18.6924
18.1608
16.0208
13.4874
11.1304
9.20573
7.56517
3.79006
1.67118
5.84852
9.5387
7.73432
5.72668
4.11068
3.15093
2.23256
1.23337
0.642231
-20.128
-42.6333
-45.6225
-27.8338
-18.6422
-14.1147
-12.7419
-12.9566
-12.5378
-8.03858
0.00687872
8.82923
15.1511
15.2261
13.9204
14.8197
17.1739
18.6417
18.1167
15.993
13.4734
11.1247
9.20238
7.56635
3.80422
1.68132
5.85946
9.54006
7.73442
5.72587
4.10953
3.14985
2.23188
1.23279
0.642049
-20.0108
-42.304
-45.2053
-27.7075
-18.6696
-14.175
-12.8112
-13.0604
-12.6565
-8.1208
-0.0334286
8.79633
15.0953
15.1682
13.8797
14.787
17.1287
18.5884
18.0711
15.9645
13.4593
11.1191
9.19908
7.56775
3.81852
1.69139
5.86906
9.54199
7.7346
5.72498
4.10829
3.14869
2.23116
1.23217
0.641861
-19.8755
-41.9722
-44.6966
-27.5402
-18.6896
-14.2283
-12.8745
-13.1633
-12.7751
-8.19586
-0.0640425
8.76815
15.04
15.1097
13.835
14.7489
17.0791
18.5327
18.0243
15.9353
13.4449
11.1134
9.19582
7.56944
3.83302
1.70129
5.87751
9.54454
7.73488
5.724
4.10697
3.14746
2.23041
1.23151
0.641667
-19.7284
-41.6539
-44.1154
-27.3346
-18.7045
-14.2693
-12.9239
-13.2572
-12.885
-8.25731
-0.0836522
8.74317
14.9845
15.0518
13.7885
14.7067
17.0261
18.4753
17.9766
15.9056
13.4303
11.1076
9.19258
7.57138
3.84773
1.71097
5.88514
9.54777
7.73528
5.72292
4.10555
3.14616
2.22962
1.23081
0.641469
-19.5777
-41.3636
-43.4867
-27.1039
-18.7175
-14.2931
-12.9523
-13.3347
-12.9787
-8.30158
-0.0941653
8.71997
14.9279
14.9948
13.7418
14.6621
16.9707
18.4168
17.9286
15.8754
13.4154
11.1018
9.18936
7.57362
3.86271
1.72028
5.89212
9.55175
7.73581
5.72174
4.10405
3.14478
2.22879
1.23006
0.641266
-19.4342
-41.1131
-42.8381
-26.8735
-18.7336
-14.2953
-12.9538
-13.3896
-13.0491
-8.32678
-0.0984197
8.69556
14.8684
14.9385
13.6962
14.6166
16.914
18.3581
17.8809
15.8452
13.4002
11.0958
9.18615
7.57616
3.87795
1.72913
5.89876
9.55657
7.73648
5.72047
4.10245
3.14334
2.22793
1.22928
0.64106
-19.3076
-40.9132
-42.1989
-26.6761
-18.7573
-14.2739
-12.9265
-13.4192
-13.0924
-8.33531
-0.10047
8.66855
14.8051
14.8822
13.6519
14.5712
16.8569
18.2997
17.8339
15.8152
13.3848
11.0896
9.18293
7.57906
3.89351
1.73735
5.90521
9.5623
7.73732
5.71911
4.10076
3.14181
2.22703
1.22845
0.640851
-19.2056
-40.7769
-41.6005
-26.5441
-18.7925
-14.2301
-12.8727
-13.4236
-13.107
-8.33113
-0.102655
8.63754
14.737
14.8247
13.6088
14.5264
16.8002
18.2421
17.7882
15.786
13.3694
11.0834
9.17972
7.5823
3.90938
1.74483
5.91178
9.56905
7.73833
5.71764
4.09897
3.14022
2.22609
1.22757
0.64064
-19.1314
-40.7212
-41.0705
-26.499
-18.8409
-14.1683
-12.7993
-13.4057
-13.0959
-8.32003
-0.106279
8.60308
14.6641
14.7656
13.5662
14.4822
16.744
18.1854
17.7437
15.7579
13.3541
11.0769
9.17649
7.58595
3.92563
1.75136
5.91856
9.57692
7.73955
5.71608
4.09708
3.13854
2.22511
1.22665
0.640427
-19.0839
-40.7666
-40.6289
-26.5482
-18.9027
-14.0954
-12.7153
-13.3684
-13.0658
-8.30562
-0.110564
8.56513
14.5859
14.7038
13.5236
14.4387
16.6884
18.1296
17.7004
15.7311
13.3391
11.0703
9.17326
7.59003
3.94225
1.75684
5.92585
9.58602
7.74097
5.71441
4.09508
3.13677
2.22409
1.22567
0.640211
-19.0571
-40.9283
-40.2836
-26.6856
-18.9755
-14.0193
-12.6293
-13.3153
-13.0264
-8.28977
-0.115118
8.52406
14.5027
14.6393
13.4807
14.3957
16.6333
18.0743
17.658
15.7055
13.3247
11.0636
9.17005
7.59463
3.95932
1.761
5.93374
9.59651
7.74263
5.71262
4.09296
3.13491
2.22302
1.22463
0.639992
-19.0435
-41.2022
-40.0341
-26.8975
-19.0564
-13.9476
-12.546
-13.2524
-12.9862
-8.27167
-0.120051
8.47833
14.4138
14.5722
13.4379
14.3534
16.5786
18.0191
17.616
15.681
13.3109
11.057
9.16694
7.59978
3.97674
1.76369
5.9426
9.60853
7.74452
5.7107
4.0907
3.13295
2.22191
1.22353
0.639771
-19.0382
-41.5436
-39.8728
-27.1661
-19.1418
-13.8847
-12.4664
-13.1903
-12.9493
-8.25151
-0.127764
8.4267
14.32
14.504
13.3963
14.3117
16.5235
17.9635
17.5738
15.6573
13.2978
11.0504
9.16395
7.6055
3.99456
1.76468
5.9524
9.622
7.74661
5.70865
4.0883
3.13086
2.22073
1.22235
0.639545
-19.0406
-41.8473
-39.7874
-27.4718
-19.2271
-13.8302
-12.3923
-13.1392
-12.9148
-8.23072
-0.140721
8.36845
14.2239
14.4374
13.3566
14.2696
16.4669
17.9066
17.5312
15.6338
13.2855
11.0441
9.16099
7.61156
4.01278
1.76404
5.96234
9.63613
7.74876
5.70647
4.08575
3.12864
2.21948
1.22109
0.639312
-19.0225
-41.9461
-39.7561
-27.7928
-19.3053
-13.7808
-12.332
-13.1028
-12.8826
-8.21357
-0.160314
8.30747
14.1323
14.3756
13.3171
14.2234
16.4064
17.8478
17.4882
15.6109
13.274
11.0378
9.15776
7.61802
4.03197
1.76146
5.97083
9.65027
7.75099
5.70419
4.08303
3.12625
2.21815
1.21973
0.639065
-18.853
-41.6917
-39.7535
-28.1123
-19.3695
-13.7384
-12.2939
-13.0795
-12.8555
-8.20297
-0.183683
8.24942
14.049
14.3164
13.2709
14.1674
16.3407
17.789
17.4472
15.5902
13.2639
11.0317
9.15452
7.62591
4.05185
1.75554
5.98482
9.67181
7.75478
5.70154
4.07998
3.12372
2.21677
1.21829
0.638837
8.29735
8.57831
9.38786
10.707
12.3752
14.3937
16.99
20.3038
24.4567
29.4683
35.7242
43.3828
52.8308
64.2914
79.0179
96.4315
120.558
146.261
185.282
208.91
256.433
99.27
8.29716
8.57811
9.38762
10.7065
12.3745
14.3928
16.9885
20.3144
24.4723
29.4751
35.7161
43.3651
52.8015
64.2487
78.9449
96.3043
120.33
145.819
184.429
207.341
252.591
96.3931
8.29695
8.5779
9.38737
10.706
12.3737
14.3919
16.987
20.3277
24.4855
29.4797
35.7072
43.3472
52.7729
64.2045
78.8702
96.1731
120.092
145.357
183.551
205.711
248.591
98.1093
8.29674
8.57768
9.3871
10.7054
12.3729
14.3909
16.9854
20.3411
24.4961
29.4823
35.6978
43.329
52.7432
64.1599
78.7935
96.0366
119.844
144.876
182.65
204.013
244.479
98.0333
8.29651
8.57744
9.38682
10.7048
12.3721
14.3898
16.9837
20.3524
24.5044
29.4833
35.6883
43.3108
52.7141
64.1135
78.714
95.894
119.584
144.373
181.718
202.248
240.243
96.274
8.29627
8.5772
9.38653
10.7041
12.3712
14.3887
16.9819
20.3595
24.5106
29.483
35.679
43.2925
52.6843
64.0666
78.6321
95.7448
119.31
143.847
180.75
200.416
235.88
94.2578
8.29602
8.57694
9.38622
10.7035
12.3703
14.3876
16.98
20.361
24.5148
29.4816
35.6701
43.2743
52.655
64.0177
78.5469
95.5886
119.02
143.298
179.742
198.522
231.394
92.3802
8.29576
8.57666
9.38589
10.7028
12.3693
14.3864
16.9779
20.3569
24.5172
29.4795
35.6615
43.2562
52.6251
63.9683
78.459
95.425
118.714
142.724
178.686
196.564
226.79
90.4796
8.29548
8.57637
9.38555
10.702
12.3682
14.3851
16.9758
20.3487
24.5177
29.4766
35.6534
43.2382
52.5956
63.9168
78.3674
95.2536
118.389
142.123
177.577
194.544
222.074
88.4583
8.29518
8.57607
9.38518
10.7012
12.3671
14.3837
16.9735
20.3375
24.5164
29.4732
35.6458
43.2204
52.5653
63.8645
78.2725
95.074
118.046
141.495
176.411
192.461
217.25
86.3405
8.29487
8.57574
9.3848
10.7004
12.3659
14.3823
16.9712
20.3243
24.5132
29.4691
35.6384
43.2027
52.5354
63.81
78.1735
94.886
117.683
140.838
175.181
190.316
212.322
84.1615
8.29454
8.5754
9.38439
10.6995
12.3647
14.3808
16.9686
20.3097
24.5077
29.4643
35.6314
43.1851
52.5045
63.7544
78.0707
94.6892
117.3
140.15
173.883
188.107
207.295
81.9322
8.29419
8.57504
9.38396
10.6985
12.3634
14.3792
16.9659
20.2942
24.4996
29.4587
35.6243
43.1676
52.4737
63.6962
77.9632
94.4833
116.896
139.429
172.514
185.833
202.176
79.6568
8.29382
8.57466
9.38351
10.6976
12.362
14.3775
16.9631
20.2786
24.4886
29.4518
35.6172
43.1501
52.4418
63.6366
77.8513
94.2679
116.471
138.675
171.071
183.493
196.969
77.3443
8.29343
8.57425
9.38303
10.6965
12.3605
14.3757
16.9601
20.2635
24.4741
29.4434
35.6095
43.1325
52.4097
63.574
77.7341
94.0425
116.024
137.887
169.551
181.086
191.68
75.0072
8.29302
8.57383
9.38252
10.6954
12.359
14.3738
16.9569
20.2494
24.4558
29.4329
35.601
43.1148
52.3763
63.5094
77.6117
93.8066
115.555
137.061
167.952
178.609
186.313
72.6588
8.29259
8.57337
9.38198
10.6942
12.3573
14.3718
16.9535
20.2367
24.4335
29.4197
35.591
43.0967
52.3425
63.4415
77.4831
93.5596
115.063
136.198
166.275
176.062
180.872
70.3135
8.29213
8.57289
9.3814
10.693
12.3556
14.3697
16.9499
20.2255
24.4074
29.403
35.5789
43.0781
52.3071
63.371
77.3486
93.3008
114.548
135.296
164.516
173.444
175.363
67.9854
8.29164
8.57238
9.38079
10.6917
12.3537
14.3674
16.9462
20.2157
24.3781
29.382
35.5636
43.0585
52.2712
63.2966
77.2069
93.0295
114.007
134.354
162.677
170.752
169.79
65.6875
8.29113
8.57184
9.38014
10.6903
12.3517
14.365
16.9421
20.2069
24.3466
29.356
35.544
43.0373
52.2335
63.219
77.0581
92.7449
113.44
133.368
160.757
167.986
164.156
63.4305
8.29058
8.57127
9.37945
10.6888
12.3497
14.3625
16.9379
20.1987
24.3142
29.3244
35.5185
43.0137
52.1948
63.137
76.9012
92.4461
112.846
132.339
158.755
165.144
158.466
61.2216
8.29
8.57066
9.37872
10.6873
12.3475
14.3598
16.9333
20.1907
24.2826
29.2872
35.4854
42.9861
52.1535
63.0513
76.736
92.1324
112.223
131.265
156.67
162.224
152.727
59.0636
8.28938
8.57001
9.37794
10.6856
12.3451
14.3569
16.9285
20.1826
24.253
29.2451
35.4429
42.9527
52.1102
62.9604
76.5614
91.8027
111.569
130.142
154.502
159.225
146.943
56.9544
8.28873
8.56932
9.3771
10.6839
12.3426
14.3539
16.9233
20.1742
24.2261
29.1993
35.3897
42.9104
52.0623
62.8652
76.3774
91.4562
110.882
128.97
152.251
156.146
141.122
54.8865
8.28804
8.56859
9.37621
10.6821
12.34
14.3506
16.9178
20.1652
24.202
29.1517
35.3253
42.8557
52.0087
62.7638
76.1826
91.092
110.162
127.747
149.915
152.985
135.273
52.8475
8.2873
8.56781
9.37526
10.6801
12.3372
14.3471
16.912
20.1557
24.1802
29.1041
35.2508
42.7844
51.9447
62.6564
75.977
90.709
109.407
126.47
147.494
149.74
129.405
50.8202
8.28652
8.56698
9.37425
10.6781
12.3343
14.3434
16.9058
20.1456
24.1598
29.058
35.1687
42.6929
51.8657
62.54
75.759
90.3063
108.615
125.136
144.987
146.409
123.528
48.7835
8.28569
8.5661
9.37317
10.6759
12.3312
14.3395
16.8992
20.1348
24.14
29.0143
35.0825
42.5799
51.7632
62.412
75.528
89.8829
107.784
123.746
142.392
142.991
117.656
46.714
8.28481
8.56516
9.37201
10.6736
12.3278
14.3353
16.8922
20.1233
24.1201
28.9732
34.9959
42.4472
51.6295
62.2656
75.281
89.4377
106.915
122.295
139.711
139.484
111.8
44.587
8.28387
8.56415
9.37077
10.6712
12.3243
14.3309
16.8847
20.111
24.0996
28.934
34.9118
42.3003
51.4568
62.0923
75.0144
88.9689
106.005
120.782
136.941
135.887
105.975
42.3779
8.28288
8.56309
9.36945
10.6686
12.3205
14.3261
16.8768
20.098
24.0782
28.896
34.8318
42.1467
51.2441
61.8789
74.7207
88.4741
105.053
119.207
134.084
132.198
100.194
40.0641
8.28182
8.56195
9.36804
10.6659
12.3166
14.321
16.8683
20.084
24.0556
28.8581
34.756
41.9939
50.9969
61.6139
74.3888
87.9488
104.058
117.566
131.139
128.416
94.472
37.6259
8.28069
8.56073
9.36652
10.663
12.3123
14.3156
16.8593
20.0692
24.0317
28.8192
34.6833
41.8471
50.7285
61.2888
74.0024
87.3857
103.018
115.858
128.107
124.543
88.8232
35.0479
8.27948
8.55944
9.3649
10.6599
12.3079
14.3098
16.8498
20.0535
24.0063
28.7789
34.612
41.7079
50.4541
60.9072
73.5448
86.7732
101.928
114.083
124.99
120.579
83.2612
32.3197
8.2782
8.55806
9.36317
10.6566
12.3031
14.3036
16.8396
20.0367
23.9792
28.7365
34.5403
41.5755
50.1868
60.4837
73.0032
86.0957
100.783
112.238
121.788
116.525
77.7991
29.4373
8.27684
8.55658
9.36131
10.6532
12.298
14.2969
16.8287
20.0189
23.9505
28.6917
34.4664
41.4467
49.933
60.0411
72.3787
85.3358
99.572
110.322
118.504
112.384
72.449
26.4027
8.27538
8.555
9.35932
10.6495
12.2926
14.2899
16.8171
19.9999
23.9199
28.6441
34.3892
41.318
49.6926
59.6006
71.6883
84.4803
98.2843
108.334
115.142
108.162
67.2221
23.225
8.27383
8.55332
9.35718
10.6456
12.2869
14.2823
16.8048
19.9797
23.8874
28.5936
34.308
41.1861
49.4606
59.1755
70.9621
83.5281
96.9069
106.27
111.708
103.864
62.129
19.9191
8.27217
8.55152
9.35489
10.6415
12.2808
14.2742
16.7917
19.9582
23.8529
28.5399
34.2222
41.0486
49.2301
58.7679
70.2306
82.4935
95.4315
104.133
108.213
99.4989
57.1799
16.5059
8.2704
8.54959
9.35244
10.6371
12.2743
14.2655
16.7776
19.9353
23.8161
28.4828
34.1311
40.9039
48.9947
58.3711
69.5138
81.4041
93.8588
101.922
104.67
95.0796
52.3855
13.0114
8.26852
8.54753
9.34981
10.6324
12.2674
14.2562
16.7627
19.9109
23.777
28.4221
34.0345
40.7511
48.7495
57.9742
68.8159
80.2898
92.2013
99.6456
101.101
90.6237
47.758
9.46559
8.2665
8.54533
9.34698
10.6274
12.26
14.2463
16.7467
19.8849
23.7355
28.3575
33.9319
40.5893
48.4918
57.5671
68.1273
79.1711
90.4799
97.3115
97.5341
86.1556
43.3117
5.90185
8.26435
8.54297
9.34395
10.6221
12.2522
14.2356
16.7297
19.8572
23.6912
28.2887
33.823
40.4178
48.2199
57.142
67.4319
78.0533
88.7165
94.9302
93.9991
81.7069
39.0639
2.35655
8.26205
8.54045
9.3407
10.6165
12.2438
14.2242
16.7115
19.8277
23.6442
28.2156
33.7074
40.2361
47.9325
56.6948
66.7145
76.9273
86.9263
92.5068
90.5236
77.3159
35.0347
-1.13161
8.25959
8.53775
9.33721
10.6106
12.2349
14.212
16.6921
19.7962
23.5941
28.1378
33.5845
40.0433
47.6288
56.2231
65.9644
75.7765
85.114
90.0387
87.1214
73.0234
31.2457
-4.52214
8.25696
8.53486
9.33346
10.6042
12.2254
14.1989
16.6713
19.7627
23.5407
28.0551
33.4541
39.8389
47.3076
55.7259
65.1762
74.5843
83.273
87.5177
83.7832
68.8649
27.7174
-7.77378
8.25415
8.53176
9.32943
10.5974
12.2153
14.1849
16.6492
19.727
23.484
27.967
33.3155
39.6222
46.9679
55.2016
64.3484
73.3394
81.389
84.9368
80.4753
64.859
24.4644
-10.8461
8.25114
8.52844
9.32511
10.5902
12.2046
14.1699
16.6255
19.6888
23.4235
27.8732
33.1684
39.3925
46.6087
54.6489
63.4806
72.0374
79.4466
82.2931
77.153
60.9972
21.4889
-13.7021
8.24792
8.52489
9.32047
10.5825
12.1931
14.1538
16.6002
19.6482
23.3592
27.7735
33.0121
39.1491
46.2292
54.0664
62.5721
70.6784
77.4357
79.5846
73.7818
57.2418
18.7734
-16.312
8.24447
8.52108
9.31548
10.5743
12.1808
14.1365
16.5732
19.6048
23.2906
27.6674
32.8463
38.8911
45.8282
53.453
61.6218
69.2637
75.3549
76.8085
70.3503
53.5401
16.2758
-18.6571
8.24078
8.51699
9.31013
10.5656
12.1677
14.118
16.5443
19.5586
23.2176
27.5545
32.6702
38.618
45.4049
52.8075