/*--------------------------------*- C++ -*----------------------------------*\
| =========                 |                                                 |
| \\      /  F ield         | OpenFOAM: The Open Source CFD Toolbox           |
|  \\    /   O peration     | Version:  v1912                                 |
|   \\  /    A nd           | Website:  www.openfoam.com                      |
|    \\/     M anipulation  |                                                 |
\*---------------------------------------------------------------------------*/
FoamFile
{
    version     2.0;
    format      ascii;
    class       surfaceScalarField;
    location    "170";
    object      phi;
}
// * * * * * * * * * * * * * * * * * * * * * * * * * * * * * * * * * * * * * //

dimensions      [0 3 -1 0 0 0 0];
oriented        oriented;


internalField   nonuniform List<scalar> 
24588
(
6.81685e-05
1.97149e-08
6.81179e-05
5.32246e-08
6.80354e-05
7.85712e-08
6.79249e-05
1.09362e-07
6.77819e-05
1.44668e-07
6.75972e-05
1.86974e-07
6.73661e-05
2.28883e-07
6.70777e-05
2.86195e-07
6.67203e-05
3.59243e-07
6.62724e-05
4.48666e-07
6.57121e-05
5.60164e-07
6.50189e-05
7.15778e-07
6.40818e-05
8.64854e-07
6.29887e-05
1.16453e-06
6.15273e-05
1.43891e-06
5.9255e-05
2.27846e-06
5.64365e-05
2.81684e-06
5.18556e-05
4.58094e-06
4.53636e-05
6.49196e-06
3.42814e-05
1.10818e-05
2.04714e-05
1.381e-05
2.04714e-05
6.81684e-05
4.04378e-08
6.81172e-05
1.07977e-07
6.80363e-05
1.54093e-07
6.79264e-05
2.17733e-07
6.77814e-05
2.91898e-07
6.75967e-05
3.74629e-07
6.73666e-05
4.56e-07
6.7079e-05
5.71172e-07
6.67209e-05
7.19638e-07
6.62726e-05
8.97902e-07
6.5714e-05
1.11858e-06
6.50316e-05
1.4239e-06
6.40597e-05
1.75806e-06
6.29884e-05
2.30667e-06
6.15235e-05
2.88036e-06
5.93144e-05
4.49311e-06
5.64458e-05
5.68238e-06
5.18203e-05
9.2063e-06
4.5402e-05
1.29102e-05
3.41811e-05
2.23022e-05
2.04225e-05
2.75684e-05
4.08939e-05
6.81685e-05
6.10948e-08
6.81172e-05
1.62685e-07
6.80362e-05
2.30032e-07
6.79263e-05
3.26105e-07
6.77814e-05
4.38844e-07
6.75967e-05
5.62206e-07
6.73666e-05
6.83346e-07
6.70789e-05
8.56215e-07
6.67208e-05
1.07996e-06
6.62727e-05
1.34685e-06
6.57136e-05
1.67756e-06
6.50289e-05
2.13526e-06
6.40628e-05
2.63947e-06
6.29925e-05
3.46058e-06
6.15222e-05
4.32493e-06
5.93468e-05
6.67593e-06
5.64429e-05
8.58248e-06
5.18389e-05
1.38105e-05
4.53715e-05
1.93776e-05
3.41935e-05
3.34795e-05
2.04377e-05
4.13242e-05
6.13316e-05
6.81685e-05
8.17981e-08
6.81173e-05
2.1725e-07
6.80365e-05
3.05421e-07
6.79265e-05
4.34532e-07
6.77815e-05
5.86117e-07
6.75968e-05
7.49711e-07
6.73668e-05
9.10442e-07
6.7079e-05
1.14137e-06
6.67209e-05
1.44049e-06
6.62726e-05
1.79601e-06
6.5714e-05
2.23595e-06
6.50305e-05
2.84453e-06
6.40602e-05
3.5324e-06
6.29869e-05
4.60201e-06
6.15164e-05
5.773e-06
5.93642e-05
8.8335e-06
5.64663e-05
1.1477e-05
5.18533e-05
1.84234e-05
4.5355e-05
2.58757e-05
3.42156e-05
4.46183e-05
2.04672e-05
5.50726e-05
8.17988e-05
6.81685e-05
1.02385e-07
6.81173e-05
2.71697e-07
6.80363e-05
3.81348e-07
6.79264e-05
5.42995e-07
6.77815e-05
7.33026e-07
6.75969e-05
9.37083e-07
6.73668e-05
1.13781e-06
6.7079e-05
1.42661e-06
6.67208e-05
1.80095e-06
6.62727e-05
2.24498e-06
6.57131e-05
2.79531e-06
6.50268e-05
3.55713e-06
6.40628e-05
4.41059e-06
6.29908e-05
5.7577e-06
6.15157e-05
7.22198e-06
5.93739e-05
1.09827e-05
5.64922e-05
1.43548e-05
5.18541e-05
2.30618e-05
4.53705e-05
3.23594e-05
3.4256e-05
5.57322e-05
2.05117e-05
6.88168e-05
0.00010231
6.81685e-05
1.23062e-07
6.81174e-05
3.26033e-07
6.80367e-05
4.56491e-07
6.79267e-05
6.51491e-07
6.77817e-05
8.80413e-07
6.75971e-05
1.12442e-06
6.73671e-05
1.36482e-06
6.70792e-05
1.71193e-06
6.67209e-05
2.16164e-06
6.62726e-05
2.69418e-06
6.57141e-05
3.3536e-06
6.50303e-05
4.26647e-06
6.40609e-05
5.30533e-06
6.29859e-05
6.89688e-06
6.1512e-05
8.67466e-06
5.93729e-05
1.31268e-05
5.65097e-05
1.72146e-05
5.18626e-05
2.77088e-05
4.53993e-05
3.88224e-05
3.43161e-05
6.68148e-05
2.05729e-05
8.25599e-05
0.000122883
6.81686e-05
1.43595e-07
6.81175e-05
3.80218e-07
6.80365e-05
5.32288e-07
6.79265e-05
7.60033e-07
6.77817e-05
1.02736e-06
6.75972e-05
1.3116e-06
6.7367e-05
1.59215e-06
6.70791e-05
1.99733e-06
6.67209e-05
2.52222e-06
6.62727e-05
3.14323e-06
6.57128e-05
3.91326e-06
6.5026e-05
4.97871e-06
6.4065e-05
6.18099e-06
6.29909e-05
8.0563e-06
6.1511e-05
1.01279e-05
5.93689e-05
1.52762e-05
5.65275e-05
2.00527e-05
5.18784e-05
3.23584e-05
4.54406e-05
4.52603e-05
3.44006e-05
7.78543e-05
2.06528e-05
9.63076e-05
0.000143536
6.81685e-05
1.64249e-07
6.81176e-05
4.34334e-07
6.80369e-05
6.07176e-07
6.79269e-05
8.68587e-07
6.77818e-05
1.17488e-06
6.75973e-05
1.49879e-06
6.73673e-05
1.81907e-06
6.70794e-05
2.28277e-06
6.6721e-05
2.88305e-06
6.62726e-05
3.59248e-06
6.57145e-05
4.47118e-06
6.50311e-05
5.68731e-06
6.40624e-05
7.0795e-06
6.29837e-05
9.19446e-06
6.14996e-05
1.15911e-05
5.93547e-05
1.74251e-05
5.65446e-05
2.28601e-05
5.19102e-05
3.69927e-05
4.5501e-05
5.16692e-05
3.45156e-05
8.88392e-05
2.07542e-05
0.000110069
0.00016429
6.81686e-05
1.84729e-07
6.81176e-05
4.88289e-07
6.80367e-05
6.82884e-07
6.79267e-05
9.77184e-07
6.77819e-05
1.32184e-06
6.75974e-05
1.6858e-06
6.73673e-05
2.04637e-06
6.70793e-05
2.56829e-06
6.67211e-05
3.24371e-06
6.62727e-05
4.04158e-06
6.57123e-05
5.03139e-06
6.5024e-05
6.39998e-06
6.40655e-05
7.95118e-06
6.29875e-05
1.03564e-05
6.14816e-05
1.30743e-05
5.93513e-05
1.95606e-05
5.6538e-05
2.56718e-05
5.19701e-05
4.15612e-05
4.55869e-05
5.80526e-05
3.4667e-05
9.97588e-05
2.08801e-05
0.000123856
0.00018517
6.81685e-05
2.05353e-07
6.81177e-05
5.42197e-07
6.80371e-05
7.5758e-07
6.79271e-05
1.08579e-06
6.7782e-05
1.46946e-06
6.75975e-05
1.87283e-06
6.73675e-05
2.27323e-06
6.70796e-05
2.85382e-06
6.67212e-05
3.60463e-06
6.62727e-05
4.4909e-06
6.57152e-05
5.58869e-06
6.50331e-05
7.10678e-06
6.40629e-05
8.85855e-06
6.29701e-05
1.1502e-05
6.14542e-05
1.45749e-05
5.93513e-05
2.16649e-05
5.65031e-05
2.85185e-05
5.20475e-05
4.60164e-05
4.56986e-05
6.44012e-05
3.48563e-05
0.000110601
2.10327e-05
0.000137679
0.000206203
6.81686e-05
2.25772e-07
6.81177e-05
5.95924e-07
6.80368e-05
8.3325e-07
6.79268e-05
1.19444e-06
6.7782e-05
1.61643e-06
6.75976e-05
2.05966e-06
6.73675e-05
2.50054e-06
6.70795e-05
3.13942e-06
6.67212e-05
3.96536e-06
6.62728e-05
4.94005e-06
6.57127e-05
6.14856e-06
6.50207e-05
7.82163e-06
6.40528e-05
9.74311e-06
6.29581e-05
1.26665e-05
6.14254e-05
1.60955e-05
5.93419e-05
2.37515e-05
5.64635e-05
3.13965e-05
5.21336e-05
5.03469e-05
4.58296e-05
7.07054e-05
3.50788e-05
0.000121351
2.12129e-05
0.000151545
0.000227416
6.81685e-05
2.46356e-07
6.81178e-05
6.4963e-07
6.80373e-05
9.07827e-07
6.79272e-05
1.3031e-06
6.77821e-05
1.76413e-06
6.75977e-05
2.24655e-06
6.73678e-05
2.72737e-06
6.70798e-05
3.42499e-06
6.67214e-05
4.32633e-06
6.62727e-05
5.38953e-06
6.5716e-05
6.70505e-06
6.50282e-05
8.53225e-06
6.40474e-05
1.06743e-05
6.29412e-05
1.38041e-05
6.13932e-05
1.76366e-05
5.93246e-05
2.58199e-05
5.64364e-05
3.42839e-05
5.22178e-05
5.45651e-05
4.59676e-05
7.69554e-05
3.53249e-05
0.000131994
2.14198e-05
0.00016545
0.000248836
6.81687e-05
2.66704e-07
6.81178e-05
7.03155e-07
6.80369e-05
9.83574e-07
6.79269e-05
1.4118e-06
6.77821e-05
1.91105e-06
6.75978e-05
2.43321e-06
6.73677e-05
2.95475e-06
6.70798e-05
3.71059e-06
6.67213e-05
4.6872e-06
6.62726e-05
5.83897e-06
6.57138e-05
7.26362e-06
6.50157e-05
9.25023e-06
6.40386e-05
1.15836e-05
6.29272e-05
1.49498e-05
6.13626e-05
1.91971e-05
5.93087e-05
2.78754e-05
5.64243e-05
3.71684e-05
5.22903e-05
5.86996e-05
4.61015e-05
8.31444e-05
3.55839e-05
0.000142511
2.16508e-05
0.000179383
0.000270487
6.81685e-05
2.87235e-07
6.81179e-05
7.56665e-07
6.80375e-05
1.05811e-06
6.79273e-05
1.5205e-06
6.77822e-05
2.0588e-06
6.75979e-05
2.61994e-06
6.73679e-05
3.18162e-06
6.70801e-05
3.99614e-06
6.67215e-05
5.0483e-06
6.62723e-05
6.2889e-06
6.57132e-05
7.82256e-06
6.50157e-05
9.96575e-06
6.40502e-05
1.25269e-05
6.29104e-05
1.6097e-05
6.13379e-05
2.07674e-05
5.92963e-05
2.99163e-05
5.64206e-05
4.00437e-05
5.23482e-05
6.27716e-05
4.62254e-05
8.9267e-05
3.58473e-05
0.000152889
2.19027e-05
0.000193328
0.000292389
6.81687e-05
3.07503e-07
6.81179e-05
8.09978e-07
6.8037e-05
1.13397e-06
6.79269e-05
1.62926e-06
6.77822e-05
2.20566e-06
6.7598e-05
2.80642e-06
6.73678e-05
3.40909e-06
6.708e-05
4.28168e-06
6.67214e-05
5.4093e-06
6.62717e-05
6.73925e-06
6.57083e-05
8.38579e-06
6.50002e-05
1.06879e-05
6.4054e-05
1.34395e-05
6.2894e-05
1.72722e-05
6.13196e-05
2.23406e-05
5.92869e-05
3.19502e-05
5.64201e-05
4.29107e-05
5.23935e-05
6.67985e-05
4.63376e-05
9.53232e-05
3.61097e-05
0.000163117
2.21719e-05
0.000207266
0.000314561
6.81686e-05
3.27974e-07
6.8118e-05
8.63293e-07
6.80376e-05
1.20853e-06
6.79274e-05
1.73801e-06
6.77823e-05
2.35343e-06
6.75981e-05
2.99299e-06
6.73681e-05
3.636e-06
6.70804e-05
4.56716e-06
6.67218e-05
5.77033e-06
6.62709e-05
7.19091e-06
6.57004e-05
8.95608e-06
6.4991e-05
1.14082e-05
6.40539e-05
1.43754e-05
6.28795e-05
1.84457e-05
6.13062e-05
2.3913e-05
5.92793e-05
3.39764e-05
5.642e-05
4.57697e-05
5.24295e-05
7.07888e-05
4.64387e-05
0.000101314
3.63681e-05
0.000173187
2.24555e-05
0.000221178
0.000337017
6.81688e-05
3.48153e-07
6.8118e-05
9.1642e-07
6.8037e-05
1.2846e-06
6.79269e-05
1.84681e-06
6.77823e-05
2.50018e-06
6.75981e-05
3.1793e-06
6.73679e-05
3.8636e-06
6.70803e-05
4.8526e-06
6.67218e-05
6.13121e-06
6.627e-05
7.64332e-06
6.56887e-05
9.53716e-06
6.49823e-05
1.21207e-05
6.40476e-05
1.52923e-05
6.28681e-05
1.96334e-05
6.12964e-05
2.54843e-05
5.9273e-05
3.60006e-05
5.64196e-05
4.86233e-05
5.2459e-05
7.47497e-05
4.65305e-05
0.000107243
3.66214e-05
0.000183096
2.27511e-05
0.000235049
0.000359768
6.81686e-05
3.68556e-07
6.81181e-05
9.69544e-07
6.80377e-05
1.35924e-06
6.79274e-05
1.95561e-06
6.77824e-05
2.64794e-06
6.75982e-05
3.36571e-06
6.73682e-05
4.09058e-06
6.70807e-05
5.13798e-06
6.67221e-05
6.49224e-06
6.627e-05
8.09619e-06
6.56775e-05
1.01295e-05
6.49759e-05
1.28262e-05
6.40408e-05
1.6232e-05
6.28589e-05
2.08123e-05
6.12889e-05
2.7054e-05
5.92676e-05
3.80211e-05
5.64187e-05
5.14721e-05
5.24846e-05
7.86834e-05
4.66152e-05
0.000113112
3.68698e-05
0.000192842
2.3057e-05
0.000248861
0.000382825
6.81688e-05
3.88644e-07
6.81181e-05
1.02247e-06
6.80371e-05
1.43552e-06
6.79269e-05
2.06447e-06
6.77824e-05
2.79459e-06
6.75983e-05
3.55183e-06
6.73681e-05
4.31831e-06
6.70806e-05
5.42332e-06
6.67219e-05
6.85322e-06
6.62696e-05
8.54913e-06
6.56699e-05
1.0729e-05
6.49691e-05
1.35284e-05
6.40341e-05
1.71562e-05
6.28517e-05
2.20006e-05
6.1283e-05
2.86224e-05
5.9263e-05
4.0042e-05
5.64175e-05
5.43176e-05
5.25083e-05
8.2593e-05
4.66952e-05
0.000118925
3.71142e-05
0.000202423
2.33721e-05
0.000262603
0.000406197
6.81686e-05
4.08974e-07
6.81182e-05
1.07541e-06
6.80377e-05
1.51025e-06
6.79275e-05
2.17332e-06
6.77824e-05
2.94233e-06
6.75984e-05
3.73807e-06
6.73684e-05
4.54537e-06
6.70809e-05
5.70863e-06
6.67223e-05
7.21428e-06
6.62665e-05
9.00566e-06
6.56681e-05
1.13272e-05
6.49631e-05
1.42347e-05
6.40284e-05
1.80967e-05
6.28459e-05
2.31799e-05
6.12785e-05
3.01896e-05
5.9259e-05
4.20608e-05
5.64166e-05
5.71598e-05
5.25317e-05
8.64776e-05
4.67726e-05
0.000124684
3.7356e-05
0.000211839
2.36961e-05
0.000276263
0.000429893
6.81689e-05
4.28967e-07
6.81182e-05
1.12816e-06
6.80371e-05
1.58681e-06
6.79269e-05
2.28221e-06
6.77825e-05
3.08883e-06
6.75984e-05
3.92402e-06
6.73682e-05
4.77323e-06
6.70808e-05
5.99399e-06
6.67225e-05
7.57485e-06
6.62588e-05
9.46988e-06
6.56714e-05
1.19145e-05
6.49577e-05
1.49486e-05
6.40235e-05
1.90226e-05
6.28411e-05
2.4367e-05
6.12749e-05
3.17557e-05
5.92558e-05
4.40807e-05
5.64165e-05
5.99993e-05
5.25562e-05
9.03381e-05
4.68493e-05
0.000130391
3.75971e-05
0.000221092
2.40289e-05
0.000289831
0.000453922
6.81687e-05
4.49219e-07
6.81182e-05
1.18091e-06
6.80378e-05
1.66168e-06
6.79275e-05
2.3911e-06
6.77825e-05
3.23654e-06
6.75985e-05
4.11009e-06
6.73685e-05
5.00036e-06
6.7081e-05
6.27941e-06
6.67233e-05
7.93493e-06
6.62502e-05
9.94374e-06
6.56753e-05
1.24894e-05
6.49532e-05
1.56713e-05
6.40194e-05
1.99622e-05
6.28371e-05
2.55461e-05
6.12722e-05
3.33204e-05
5.92535e-05
4.60987e-05
5.64175e-05
6.28351e-05
5.25826e-05
9.41728e-05
4.69267e-05
0.000136047
3.78393e-05
0.000230179
2.4371e-05
0.0003033
0.000478293
6.81689e-05
4.69118e-07
6.81182e-05
1.23348e-06
6.80371e-05
1.73849e-06
6.79269e-05
2.50004e-06
6.77826e-05
3.38291e-06
6.75986e-05
4.29585e-06
6.73684e-05
5.22832e-06
6.70808e-05
6.56496e-06
6.67239e-05
8.29409e-06
6.62433e-05
1.04248e-05
6.56771e-05
1.30556e-05
6.49494e-05
1.6399e-05
6.40158e-05
2.08888e-05
6.28338e-05
2.67322e-05
6.12702e-05
3.48839e-05
5.92523e-05
4.81173e-05
5.64202e-05
6.56674e-05
5.26116e-05
9.79816e-05
4.70062e-05
0.000141652
3.80848e-05
0.0002391
2.47234e-05
0.000316661
0.000503016
6.81687e-05
4.89291e-07
6.81183e-05
1.28604e-06
6.80379e-05
1.8135e-06
6.79275e-05
2.60899e-06
6.77826e-05
3.53056e-06
6.75987e-05
4.48177e-06
6.73687e-05
5.45549e-06
6.70811e-05
6.85053e-06
6.67247e-05
8.65284e-06
6.62389e-05
1.09113e-05
6.56768e-05
1.36178e-05
6.49462e-05
1.71301e-05
6.40127e-05
2.18277e-05
6.28311e-05
2.79108e-05
6.1269e-05
3.64458e-05
5.92525e-05
5.01332e-05
5.64248e-05
6.84949e-05
5.26436e-05
0.000101763
4.70885e-05
0.000147207
3.83356e-05
0.000247853
2.50869e-05
0.00032991
0.000528103
6.8169e-05
5.09092e-07
6.81183e-05
1.33845e-06
6.80371e-05
1.89062e-06
6.79269e-05
2.71796e-06
6.77826e-05
3.67676e-06
6.75988e-05
4.66736e-06
6.73686e-05
5.68356e-06
6.7081e-05
7.13615e-06
6.67249e-05
9.01108e-06
6.62361e-05
1.14005e-05
6.56756e-05
1.41782e-05
6.49434e-05
1.78622e-05
6.401e-05
2.27549e-05
6.28288e-05
2.90957e-05
6.12686e-05
3.8006e-05
5.92542e-05
5.21483e-05
5.64317e-05
7.13175e-05
5.26784e-05
0.000105516
4.71743e-05
0.000152712
3.85939e-05
0.000256434
2.5463e-05
0.000343041
0.000553566
6.81688e-05
5.29184e-07
6.81184e-05
1.39083e-06
6.80379e-05
1.9658e-06
6.79275e-05
2.82695e-06
6.77827e-05
3.82435e-06
6.75988e-05
4.8531e-06
6.73689e-05
5.9108e-06
6.70814e-05
7.42165e-06
6.67241e-05
9.3706e-06
6.62355e-05
1.18897e-05
6.5674e-05
1.47398e-05
6.49409e-05
1.85956e-05
6.40076e-05
2.36933e-05
6.28271e-05
3.02732e-05
6.12689e-05
3.95641e-05
5.92574e-05
5.41592e-05
5.64409e-05
7.41338e-05
5.27162e-05
0.000109241
4.72639e-05
0.000158164
3.88617e-05
0.000264836
2.58531e-05
0.000356049
0.000579419
6.8169e-05
5.48892e-07
6.81184e-05
1.44307e-06
6.80371e-05
2.04319e-06
6.79269e-05
2.93596e-06
6.77827e-05
3.9704e-06
6.75989e-05
5.03851e-06
6.73688e-05
6.13901e-06
6.70814e-05
7.70705e-06
6.6719e-05
9.73504e-06
6.62385e-05
1.23704e-05
6.56723e-05
1.53059e-05
6.49388e-05
1.93292e-05
6.40056e-05
2.46208e-05
6.28258e-05
3.14566e-05
6.127e-05
4.112e-05
5.92622e-05
5.61676e-05
5.64526e-05
7.69436e-05
5.27567e-05
0.000112937
4.73576e-05
0.000163563
3.9141e-05
0.000273052
2.62588e-05
0.000368931
0.000605678
6.81688e-05
5.68905e-07
6.81185e-05
1.49527e-06
6.8038e-05
2.11852e-06
6.79276e-05
3.04499e-06
6.77828e-05
4.11793e-06
6.7599e-05
5.22407e-06
6.73691e-05
6.36638e-06
6.7082e-05
7.99222e-06
6.67122e-05
1.01068e-05
6.62436e-05
1.28394e-05
6.56708e-05
1.58788e-05
6.49368e-05
2.00635e-05
6.40038e-05
2.55587e-05
6.2825e-05
3.26325e-05
6.12718e-05
4.2673e-05
5.92685e-05
5.81702e-05
5.64665e-05
7.97454e-05
5.27998e-05
0.000116603
4.74554e-05
0.000168907
3.94333e-05
0.000281074
2.66816e-05
0.000381683
0.00063236
6.81691e-05
5.88519e-07
6.81184e-05
1.54736e-06
6.80371e-05
2.19622e-06
6.79269e-05
3.15403e-06
6.77828e-05
4.26381e-06
6.75991e-05
5.40929e-06
6.73689e-05
6.59478e-06
6.7082e-05
8.2772e-06
6.67067e-05
1.04841e-05
6.62474e-05
1.32986e-05
6.56694e-05
1.64567e-05
6.49351e-05
2.07977e-05
6.40022e-05
2.64863e-05
6.28245e-05
3.38137e-05
6.12743e-05
4.42232e-05
5.92763e-05
6.0169e-05
5.64829e-05
8.25389e-05
5.28454e-05
0.000120241
4.7557e-05
0.000174196
3.97399e-05
0.000288892
2.71229e-05
0.0003943
0.000659482
6.81689e-05
6.08453e-07
6.81186e-05
1.59939e-06
6.8038e-05
2.27172e-06
6.79276e-05
3.2631e-06
6.77828e-05
4.41128e-06
6.75992e-05
5.59467e-06
6.73693e-05
6.82228e-06
6.70825e-05
8.56199e-06
6.67033e-05
1.08653e-05
6.62495e-05
1.37525e-05
6.56682e-05
1.70381e-05
6.49335e-05
2.15326e-05
6.40009e-05
2.74237e-05
6.28245e-05
3.49872e-05
6.12776e-05
4.57699e-05
5.92853e-05
6.21607e-05
5.65014e-05
8.53226e-05
5.28934e-05
0.000123849
4.76623e-05
0.000179427
4.00615e-05
0.000296492
2.75839e-05
0.000406778
0.000687066
6.81691e-05
6.2798e-07
6.81185e-05
1.65132e-06
6.80371e-05
2.34967e-06
6.79269e-05
3.37218e-06
6.77829e-05
4.55701e-06
6.75993e-05
5.77968e-06
6.73691e-05
7.0508e-06
6.70826e-05
8.84657e-06
6.6701e-05
1.12487e-05
6.62507e-05
1.42027e-05
6.5667e-05
1.76218e-05
6.49321e-05
2.22675e-05
6.39997e-05
2.83508e-05
6.28248e-05
3.61657e-05
6.12814e-05
4.73133e-05
5.92955e-05
6.41473e-05
5.65222e-05
8.80961e-05
5.29438e-05
0.000127427
4.77709e-05
0.0001846
4.03984e-05
0.000303865
2.80655e-05
0.00041911
0.000715132
6.81689e-05
6.47838e-07
6.81186e-05
1.70318e-06
6.80381e-05
2.42532e-06
6.79276e-05
3.48129e-06
6.77829e-05
4.70442e-06
6.75994e-05
5.96489e-06
6.73695e-05
7.27838e-06
6.70831e-05
9.13105e-06
6.66997e-05
1.1634e-05
6.62513e-05
1.46512e-05
6.56659e-05
1.82073e-05
6.49308e-05
2.30028e-05
6.39988e-05
2.92875e-05
6.28254e-05
3.73361e-05
6.12858e-05
4.88527e-05
5.93068e-05
6.61257e-05
5.65451e-05
9.08575e-05
5.29966e-05
0.000130976
4.78826e-05
0.000189714
4.07505e-05
0.000310997
2.85683e-05
0.000431293
0.0007437
6.81692e-05
6.6728e-07
6.81185e-05
1.75497e-06
6.80371e-05
2.50355e-06
6.79269e-05
3.59039e-06
6.7783e-05
4.84998e-06
6.75995e-05
6.14972e-06
6.73693e-05
7.50699e-06
6.70831e-05
9.4154e-06
6.66987e-05
1.20202e-05
6.62515e-05
1.50982e-05
6.56649e-05
1.87938e-05
6.49296e-05
2.3738e-05
6.3998e-05
3.0214e-05
6.28264e-05
3.85114e-05
6.12907e-05
5.03884e-05
5.93192e-05
6.8098e-05
5.65702e-05
9.36068e-05
5.30517e-05
0.000134494
4.79972e-05
0.000194768
4.11173e-05
0.000317877
2.90926e-05
0.000443317
0.000772793
6.81689e-05
6.87066e-07
6.81187e-05
1.80668e-06
6.80381e-05
2.57933e-06
6.79277e-05
3.69952e-06
6.7783e-05
4.99733e-06
6.75996e-05
6.33477e-06
6.73697e-05
7.7346e-06
6.70836e-05
9.69968e-06
6.66982e-05
1.24072e-05
6.62516e-05
1.55449e-05
6.5664e-05
1.93814e-05
6.49286e-05
2.44738e-05
6.39974e-05
3.11497e-05
6.28276e-05
3.96781e-05
6.12961e-05
5.19196e-05
5.93325e-05
7.00609e-05
5.65973e-05
9.63418e-05
5.31092e-05
0.000137982
4.81146e-05
0.000199763
4.14982e-05
0.000324493
2.96385e-05
0.000455177
0.000802431
6.81692e-05
7.0643e-07
6.81186e-05
1.85835e-06
6.80371e-05
2.65782e-06
6.79269e-05
3.80863e-06
6.77831e-05
5.14273e-06
6.75997e-05
6.51944e-06
6.73696e-05
7.96327e-06
6.70836e-05
9.98394e-06
6.66977e-05
1.27946e-05
6.62515e-05
1.5991e-05
6.56632e-05
1.99697e-05
6.49276e-05
2.52092e-05
6.3997e-05
3.20755e-05
6.28292e-05
4.08498e-05
6.1302e-05
5.3447e-05
5.93468e-05
7.20169e-05
5.66264e-05
9.90624e-05
5.31691e-05
0.00014144
4.82349e-05
0.000204697
4.18928e-05
0.000330835
3.02061e-05
0.000466864
0.000832637
6.8169e-05
7.26151e-07
6.81188e-05
1.90989e-06
6.80382e-05
2.73369e-06
6.79277e-05
3.9178e-06
6.77831e-05
5.29005e-06
6.75998e-05
6.70433e-06
6.737e-05
8.19083e-06
6.70838e-05
1.02684e-05
6.66978e-05
1.31821e-05
6.62513e-05
1.64376e-05
6.56624e-05
2.05587e-05
6.49267e-05
2.59451e-05
6.39968e-05
3.30099e-05
6.2831e-05
4.20124e-05
6.13083e-05
5.49693e-05
5.9362e-05
7.39626e-05
5.66575e-05
0.000101767
5.32316e-05
0.000144865
4.83583e-05
0.00020957
4.23008e-05
0.000336893
3.07954e-05
0.000478369
0.000863432
6.81693e-05
7.45448e-07
6.81186e-05
1.96142e-06
6.80371e-05
2.81233e-06
6.79269e-05
4.02693e-06
6.77832e-05
5.43535e-06
6.75999e-05
6.88884e-06
6.73699e-05
8.41948e-06
6.70818e-05
1.05548e-05
6.66997e-05
1.35652e-05
6.62511e-05
1.68861e-05
6.56617e-05
2.1148e-05
6.4926e-05
2.66807e-05
6.39967e-05
3.39344e-05
6.28331e-05
4.31799e-05
6.13151e-05
5.64876e-05
5.9378e-05
7.59004e-05
5.66904e-05
0.000104454
5.32966e-05
0.00014826
4.84849e-05
0.000214382
4.27222e-05
0.000342655
3.14069e-05
0.000489684
0.000894839
6.8169e-05
7.65112e-07
6.81189e-05
2.0128e-06
6.80383e-05
2.88823e-06
6.79278e-05
4.13613e-06
6.77833e-05
5.58268e-06
6.76e-05
7.07356e-06
6.73703e-05
8.64709e-06
6.70746e-05
1.08489e-05
6.67063e-05
1.3934e-05
6.62508e-05
1.73417e-05
6.5661e-05
2.17378e-05
6.49253e-05
2.74167e-05
6.39967e-05
3.48675e-05
6.28354e-05
4.43379e-05
6.13223e-05
5.80003e-05
5.93949e-05
7.78272e-05
5.67252e-05
0.000107124
5.33644e-05
0.00015162
4.86151e-05
0.000219131
4.31572e-05
0.000348113
3.2041e-05
0.000500801
0.00092688
6.81693e-05
7.84342e-07
6.81187e-05
2.06419e-06
6.80371e-05
2.96704e-06
6.79269e-05
4.2453e-06
6.77834e-05
5.72785e-06
6.76002e-05
7.25784e-06
6.73702e-05
8.8758e-06
6.70677e-05
1.11498e-05
6.67119e-05
1.42901e-05
6.62505e-05
1.78029e-05
6.56604e-05
2.23279e-05
6.49247e-05
2.81523e-05
6.39969e-05
3.57904e-05
6.28381e-05
4.55007e-05
6.13299e-05
5.95088e-05
5.94125e-05
7.97453e-05
5.67616e-05
0.000109775
5.3435e-05
0.000154947
4.87488e-05
0.000223818
4.3606e-05
0.000353256
3.26983e-05
0.000511708
0.000959579
6.8169e-05
8.03951e-07
6.81189e-05
2.11541e-06
6.80384e-05
3.04299e-06
6.79279e-05
4.35454e-06
6.77834e-05
5.87516e-06
6.76003e-05
7.44238e-06
6.73706e-05
9.10342e-06
6.70651e-05
1.14538e-05
6.67138e-05
1.46414e-05
6.62501e-05
1.82667e-05
6.56598e-05
2.29182e-05
6.49242e-05
2.88882e-05
6.39973e-05
3.6722e-05
6.28409e-05
4.66536e-05
6.1338e-05
6.10113e-05
5.9431e-05
8.16515e-05
5.67996e-05
0.000112406
5.35087e-05
0.000158238
4.88858e-05
0.00022844
4.40684e-05
0.000358073
3.33793e-05
0.000522397
0.000992958
6.81693e-05
8.23151e-07
6.81188e-05
2.16668e-06
6.80373e-05
3.12172e-06
6.79271e-05
4.46368e-06
6.77835e-05
6.0204e-06
6.76006e-05
7.62643e-06
6.73693e-05
9.33343e-06
6.70644e-05
1.17577e-05
6.67141e-05
1.49917e-05
6.62497e-05
1.8731e-05
6.56593e-05
2.35086e-05
6.49238e-05
2.96235e-05
6.39978e-05
3.76421e-05
6.28441e-05
4.78118e-05
6.13465e-05
6.25093e-05
5.94503e-05
8.35487e-05
5.68391e-05
0.000115018
5.35855e-05
0.000161491
4.90257e-05
0.000233
4.45426e-05
0.000362556
3.40831e-05
0.000532857
0.00102704
6.81691e-05
8.42667e-07
6.8119e-05
2.21778e-06
6.80384e-05
3.19799e-06
6.79279e-05
4.57291e-06
6.77834e-05
6.16754e-06
6.76008e-05
7.81047e-06
6.73625e-05
9.56981e-06
6.7069e-05
1.20506e-05
6.6714e-05
1.53467e-05
6.62493e-05
1.91958e-05
6.56588e-05
2.40991e-05
6.49235e-05
3.03592e-05
6.39985e-05
3.85723e-05
6.28475e-05
4.89588e-05
6.13556e-05
6.40007e-05
5.94704e-05
8.5433e-05
5.68799e-05
0.000117608
5.36659e-05
0.000164705
4.91676e-05
0.000237499
4.50238e-05
0.0003667
3.48067e-05
0.000543074
0.00106185
6.81694e-05
8.61792e-07
6.81188e-05
2.26892e-06
6.80372e-05
3.27705e-06
6.79271e-05
4.68211e-06
6.77835e-05
6.31261e-06
6.76011e-05
7.99394e-06
6.73552e-05
9.8146e-06
6.70744e-05
1.23313e-05
6.67137e-05
1.57074e-05
6.62489e-05
1.96605e-05
6.56583e-05
2.46896e-05
6.49232e-05
3.10941e-05
6.39992e-05
3.94903e-05
6.28512e-05
5.01114e-05
6.13651e-05
6.54874e-05
5.94912e-05
8.73078e-05
5.69218e-05
0.000120177
5.375e-05
0.000167877
4.93108e-05
0.000241938
4.55022e-05
0.000370509
3.55419e-05
0.000553034
0.00109739
6.8169e-05
8.81313e-07
6.81191e-05
2.31983e-06
6.80389e-05
3.35244e-06
6.79285e-05
4.79116e-06
6.77838e-05
6.46036e-06
6.76013e-05
8.17795e-06
6.73528e-05
1.0061e-05
6.70764e-05
1.26077e-05
6.67133e-05
1.60705e-05
6.62484e-05
2.01255e-05
6.56579e-05
2.52802e-05
6.4923e-05
3.18292e-05
6.40002e-05
4.04183e-05
6.28551e-05
5.12526e-05
6.1375e-05
6.69669e-05
5.95128e-05
8.91692e-05
5.69644e-05
0.000122726
5.38388e-05
0.000171003
4.94542e-05
0.000246322
4.59739e-05
0.000373989
3.63675e-05
0.000562641
0.00113376
-9.28247e-06
9.28227e-06
-1.5729e-05
6.44638e-06
-1.59803e-05
2.51014e-07
-1.23264e-05
-3.65393e-06
-9.34486e-06
-2.98267e-06
-7.93602e-06
-1.40882e-06
-7.32365e-06
-6.12491e-07
-6.91702e-06
-4.05882e-07
-6.06997e-06
-8.47593e-07
-4.713e-06
-1.34997e-06
-2.97817e-06
-1.64738e-06
-8.2694e-07
-2.20836e-06
1.81379e-06
-2.63514e-06
5.04156e-06
-3.24192e-06
9.11841e-06
-4.08408e-06
1.40298e-05
-4.91414e-06
1.93423e-05
-5.31151e-06
2.44776e-05
-5.13478e-06
2.90666e-05
-4.58656e-06
3.31477e-05
-4.08249e-06
3.71868e-05
-4.03918e-06
4.15802e-05
-4.39298e-06
4.59677e-05
-4.38711e-06
5.01935e-05
-4.22614e-06
5.5685e-05
-5.4923e-06
6.1588e-05
-5.90242e-06
6.49944e-05
-3.40601e-06
6.60838e-05
-1.08944e-06
6.64254e-05
-3.41668e-07
6.66789e-05
-2.5352e-07
6.6924e-05
-2.45064e-07
6.7133e-05
-2.0901e-07
6.72972e-05
-1.64192e-07
6.74338e-05
-1.36564e-07
-6.37411e-08
-9.12347e-06
1.84053e-05
-1.55044e-05
1.2827e-05
-1.5736e-05
4.82258e-07
-1.20581e-05
-7.33194e-06
-9.09486e-06
-5.94806e-06
-7.68329e-06
-2.82041e-06
-7.0785e-06
-1.21751e-06
-6.72678e-06
-7.56168e-07
-6.01808e-06
-1.55722e-06
-4.80538e-06
-2.54869e-06
-3.08744e-06
-3.22129e-06
-8.25521e-07
-4.56002e-06
1.97399e-06
-5.42401e-06
5.16988e-06
-6.46612e-06
9.04097e-06
-7.96941e-06
1.37363e-05
-9.61511e-06
1.89574e-05
-1.05305e-05
2.41026e-05
-1.02788e-05
2.87258e-05
-9.20505e-06
3.28134e-05
-8.17276e-06
3.68076e-05
-8.03348e-06
4.11499e-05
-8.73462e-06
4.55922e-05
-8.82856e-06
4.99165e-05
-8.55113e-06
5.54442e-05
-1.10215e-05
6.14204e-05
-1.18775e-05
6.49406e-05
-6.92558e-06
6.60823e-05
-2.23119e-06
6.64304e-05
-6.89918e-07
6.6681e-05
-5.04069e-07
6.69249e-05
-4.89002e-07
6.71342e-05
-4.18163e-07
6.72985e-05
-3.28495e-07
6.74349e-05
-2.73e-07
-1.27501e-07
-8.95881e-06
2.73638e-05
-1.52332e-05
1.91011e-05
-1.54128e-05
6.61458e-07
-1.17087e-05
-1.10362e-05
-8.76868e-06
-8.89023e-06
-7.37653e-06
-4.21249e-06
-6.81576e-06
-1.77848e-06
-6.56305e-06
-1.00752e-06
-5.98151e-06
-2.13968e-06
-4.84263e-06
-3.67478e-06
-3.09028e-06
-4.81934e-06
-6.96724e-07
-7.0564e-06
2.22073e-06
-8.32913e-06
5.34446e-06
-9.62042e-06
8.98902e-06
-1.16288e-05
1.34804e-05
-1.41124e-05
1.86168e-05
-1.56649e-05
2.37713e-05
-1.54323e-05
2.84313e-05
-1.386e-05
3.25349e-05
-1.22791e-05
3.64948e-05
-1.19935e-05
4.07851e-05
-1.30243e-05
4.52616e-05
-1.33042e-05
4.96667e-05
-1.29568e-05
5.5223e-05
-1.65794e-05
6.12643e-05
-1.79176e-05
6.48902e-05
-1.05509e-05
6.60816e-05
-3.42263e-06
6.64359e-05
-1.04438e-06
6.66836e-05
-7.51711e-07
6.69264e-05
-7.31802e-07
6.71357e-05
-6.27403e-07
6.73e-05
-4.92802e-07
6.74362e-05
-4.09219e-07
-1.91185e-07
-8.76599e-06
3.61294e-05
-1.49156e-05
2.52504e-05
-1.50104e-05
7.55698e-07
-1.12628e-05
-1.47838e-05
-8.3689e-06
-1.17864e-05
-7.0182e-06
-5.56322e-06
-6.51584e-06
-2.28105e-06
-6.35715e-06
-1.1647e-06
-5.88236e-06
-2.61525e-06
-4.80804e-06
-4.73416e-06
-3.01946e-06
-6.46521e-06
-4.84263e-07
-9.68328e-06
2.55596e-06
-1.1355e-05
5.60185e-06
-1.27036e-05
9.00833e-06
-1.5053e-05
1.3273e-05
-1.83844e-05
1.83024e-05
-2.06917e-05
2.34605e-05
-2.05889e-05
2.81675e-05
-1.8561e-05
3.23051e-05
-1.64197e-05
3.62472e-05
-1.59358e-05
4.04859e-05
-1.72623e-05
4.4975e-05
-1.77924e-05
4.94416e-05
-1.74241e-05
5.50203e-05
-2.21598e-05
6.11185e-05
-2.40145e-05
6.48427e-05
-1.42745e-05
6.60816e-05
-4.66154e-06
6.64418e-05
-1.40485e-06
6.66867e-05
-9.9647e-07
6.69283e-05
-9.73437e-07
6.71376e-05
-8.36648e-07
6.73018e-05
-6.57009e-07
6.74377e-05
-5.45103e-07
-2.54705e-07
-8.54549e-06
4.46746e-05
-1.4546e-05
3.12506e-05
-1.45161e-05
7.25269e-07
-1.0712e-05
-1.85881e-05
-7.89113e-06
-1.46095e-05
-6.60305e-06
-6.85119e-06
-6.17071e-06
-2.71354e-06
-6.0989e-06
-1.23508e-06
-5.71389e-06
-3.00105e-06
-4.69269e-06
-5.74208e-06
-2.85162e-06
-8.16094e-06
-1.53041e-07
-1.24831e-05
3.01565e-06
-1.4506e-05
5.97194e-06
-1.57021e-05
9.12635e-06
-1.82263e-05
1.314e-05
-2.24059e-05
1.80306e-05
-2.55795e-05
2.31761e-05
-2.57327e-05
2.79371e-05
-2.33154e-05
3.21261e-05
-2.06121e-05
3.60657e-05
-1.98755e-05
4.02532e-05
-2.14491e-05
4.47336e-05
-2.22719e-05
4.92412e-05
-2.19325e-05
5.4835e-05
-2.77552e-05
6.09825e-05
-3.01608e-05
6.4798e-05
-1.80896e-05
6.60823e-05
-5.9458e-06
6.64483e-05
-1.77106e-06
6.66903e-05
-1.23837e-06
6.69307e-05
-1.21388e-06
6.71399e-05
-1.04582e-06
6.73039e-05
-8.21008e-07
6.74394e-05
-6.80539e-07
-3.17979e-07
-8.29711e-06
5.29713e-05
-1.41179e-05
3.7071e-05
-1.39208e-05
5.27465e-07
-1.0051e-05
-2.2458e-05
-7.3294e-06
-1.73333e-05
-6.12267e-06
-8.05794e-06
-5.76977e-06
-3.06663e-06
-5.77691e-06
-1.22623e-06
-5.46759e-06
-3.31097e-06
-4.48427e-06
-6.70847e-06
-2.5564e-06
-9.9474e-06
3.41477e-07
-1.5474e-05
3.64106e-06
-1.77849e-05
6.48766e-06
-1.86021e-05
9.37554e-06
-2.11374e-05
1.31213e-05
-2.61616e-05
1.78411e-05
-3.02956e-05
2.29461e-05
-3.08355e-05
2.77574e-05
-2.81182e-05
3.20088e-05
-2.48676e-05
3.59562e-05
-2.38231e-05
4.00904e-05
-2.55825e-05
4.45406e-05
-2.6721e-05
4.90673e-05
-2.646e-05
5.46668e-05
-3.33565e-05
6.08559e-05
-3.63485e-05
6.47562e-05
-2.19893e-05
6.60837e-05
-7.27326e-06
6.64552e-05
-2.14281e-06
6.66944e-05
-1.47743e-06
6.69336e-05
-1.4531e-06
6.71427e-05
-1.25483e-06
6.73064e-05
-9.84689e-07
6.74412e-05
-8.15407e-07
-3.80917e-07
-8.02027e-06
6.09913e-05
-1.36255e-05
4.26759e-05
-1.3221e-05
1.22198e-07
-9.28108e-06
-2.63981e-05
-6.67797e-06
-1.99387e-05
-5.56642e-06
-9.16933e-06
-5.30034e-06
-3.33286e-06
-5.37816e-06
-1.14673e-06
-5.13217e-06
-3.55778e-06
-4.16743e-06
-7.6579e-06
-2.10348e-06
-1.1871e-05
1.04075e-06
-1.87143e-05
4.47287e-06
-2.11931e-05
7.18801e-06
-2.13778e-05
9.79275e-06
-2.37668e-05
1.32631e-05
-2.96427e-05
1.77896e-05
-3.48184e-05
2.28203e-05
-3.58638e-05
2.76624e-05
-3.29504e-05
3.19748e-05
-2.91847e-05
3.59323e-05
-2.77808e-05
4.00068e-05
-2.96562e-05
4.44033e-05
-3.11165e-05
4.89239e-05
-3.09816e-05
5.45166e-05
-3.8951e-05
6.07386e-05
-4.25692e-05
6.47173e-05
-2.59676e-05
6.60858e-05
-8.64174e-06
6.64627e-05
-2.51983e-06
6.6699e-05
-1.7137e-06
6.6937e-05
-1.69107e-06
6.71458e-05
-1.4636e-06
6.73091e-05
-1.14794e-06
6.74433e-05
-9.49593e-07
-4.43437e-07
-7.71416e-06
6.8705e-05
-1.3064e-05
4.80254e-05
-1.24219e-05
-5.20816e-07
-8.41515e-06
-3.0405e-05
-5.93576e-06
-2.24205e-05
-4.92438e-06
-1.01807e-05
-4.74891e-06
-3.50846e-06
-4.8884e-06
-1.00516e-06
-4.69351e-06
-3.75309e-06
-3.7244e-06
-8.60668e-06
-1.4729e-06
-1.39798e-05
1.95752e-06
-2.22301e-05
5.52693e-06
-2.47372e-05
8.11013e-06
-2.40353e-05
1.04216e-05
-2.611e-05
1.36167e-05
-3.28513e-05
1.79437e-05
-3.91404e-05
2.28693e-05
-4.0786e-05
2.77077e-05
-3.77761e-05
3.20619e-05
-3.35448e-05
3.60195e-05
-3.17387e-05
4.00201e-05
-3.36556e-05
4.43345e-05
-3.54296e-05