/*--------------------------------*- C++ -*----------------------------------*\
| =========                 |                                                 |
| \\      /  F ield         | OpenFOAM: The Open Source CFD Toolbox           |
|  \\    /   O peration     | Version:  v1912                                 |
|   \\  /    A nd           | Website:  www.openfoam.com                      |
|    \\/     M anipulation  |                                                 |
\*---------------------------------------------------------------------------*/
FoamFile
{
    version     2.0;
    format      ascii;
    class       volVectorField;
    location    "170";
    object      U;
}
// * * * * * * * * * * * * * * * * * * * * * * * * * * * * * * * * * * * * * //

dimensions      [0 1 -1 0 0 0 0];


internalField   nonuniform List<vector> 
12441
(
(29.9991 1.70124e-05 0)
(29.9855 5.01769e-05 0)
(29.9583 8.22979e-05 0)
(29.9158 0.000132927 0)
(29.8595 0.000196728 0)
(29.7879 0.000280093 0)
(29.6984 0.000386144 0)
(29.5864 0.000547056 0)
(29.4446 0.000772249 0)
(29.2689 0.00108188 0)
(29.0539 0.00151543 0)
(28.7845 0.00217075 0)
(28.4116 0.00296638 0)
(27.9976 0.00446691 0)
(27.4334 0.00618614 0)
(26.6588 0.0110534 0)
(25.6372 0.0144516 0)
(24.0463 0.0299985 0)
(21.8069 0.0511352 0)
(18.2231 0.0902893 0)
(12.4471 0.123882 0)
(6.00627 0.20237 0)
(29.9992 5.07905e-05 0)
(29.985 0.000151486 0)
(29.9584 0.000246478 0)
(29.9165 0.000390147 0)
(29.8598 0.00058385 0)
(29.7874 0.000841637 0)
(29.6983 0.00115724 0)
(29.5869 0.00163067 0)
(29.445 0.00230533 0)
(29.2686 0.0032309 0)
(29.0544 0.00453458 0)
(28.7894 0.00650522 0)
(28.4075 0.00894357 0)
(27.9938 0.0133284 0)
(27.4326 0.0186111 0)
(26.6597 0.0329804 0)
(25.6373 0.0460809 0)
(24.0435 0.0859152 0)
(21.8035 0.133337 0)
(18.2179 0.261203 0)
(12.4457 0.36391 0)
(6.00793 0.604075 0)
(29.9992 8.47689e-05 0)
(29.985 0.000253877 0)
(29.9583 0.000405557 0)
(29.9164 0.000645358 0)
(29.8597 0.000974233 0)
(29.7875 0.00140528 0)
(29.6982 0.00192357 0)
(29.5868 0.00270941 0)
(29.445 0.00383957 0)
(29.2686 0.005386 0)
(29.0546 0.00754546 0)
(28.7889 0.0108006 0)
(28.4064 0.0150033 0)
(27.9976 0.022126 0)
(27.4338 0.0310824 0)
(26.6613 0.0540534 0)
(25.6385 0.0784391 0)
(24.048 0.140033 0)
(21.8047 0.213093 0)
(18.2146 0.429811 0)
(12.4479 0.6005 0)
(6.01348 1.00368 0)
(29.9992 0.000119231 0)
(29.985 0.000356617 0)
(29.9585 0.000565303 0)
(29.9165 0.000902654 0)
(29.8598 0.00136772 0)
(29.7875 0.00196963 0)
(29.6984 0.00269093 0)
(29.5869 0.00379151 0)
(29.4451 0.00537904 0)
(29.2687 0.00754365 0)
(29.0545 0.0105636 0)
(28.7894 0.0151158 0)
(28.4081 0.0210641 0)
(27.9941 0.0309413 0)
(27.4333 0.0435689 0)
(26.6603 0.0752042 0)
(25.6401 0.11004 0)
(24.0526 0.197208 0)
(21.8116 0.317618 0)
(18.2168 0.60641 0)
(12.4571 0.841067 0)
(6.02403 1.40486 0)
(29.9992 0.000153707 0)
(29.9851 0.000458939 0)
(29.9584 0.000724931 0)
(29.9164 0.0011602 0)
(29.8598 0.0017607 0)
(29.7876 0.00253214 0)
(29.6984 0.00345733 0)
(29.5869 0.00487391 0)
(29.4451 0.0069184 0)
(29.2687 0.0096999 0)
(29.0547 0.0135811 0)
(28.7886 0.0194299 0)
(28.4064 0.0271089 0)
(27.9979 0.0397653 0)
(27.4342 0.0560757 0)
(26.662 0.0961281 0)
(25.6427 0.141128 0)
(24.0573 0.255136 0)
(21.8222 0.404902 0)
(18.2256 0.779214 0)
(12.4744 1.08137 0)
(6.03984 1.80726 0)
(29.9992 0.000188146 0)
(29.985 0.000561037 0)
(29.9586 0.000884412 0)
(29.9166 0.00141776 0)
(29.8599 0.00215345 0)
(29.7876 0.00309436 0)
(29.6985 0.00422428 0)
(29.5871 0.00595728 0)
(29.4452 0.00845823 0)
(29.2688 0.0118558 0)
(29.0547 0.0165976 0)
(28.7894 0.0237489 0)
(28.4092 0.0331638 0)
(27.9941 0.0485672 0)
(27.4345 0.068589 0)
(26.6615 0.116929 0)
(25.6451 0.171936 0)
(24.0616 0.31246 0)
(21.8346 0.490628 0)
(18.2408 0.95076 0)
(12.5011 1.32133 0)
(6.06121 2.21068 0)
(29.9992 0.000222545 0)
(29.9851 0.000662883 0)
(29.9585 0.0010437 0)
(29.9165 0.0016754 0)
(29.8599 0.00254635 0)
(29.7877 0.00365651 0)
(29.6985 0.00499127 0)
(29.5871 0.00704078 0)
(29.4452 0.0099978 0)
(29.2689 0.0140121 0)
(29.0547 0.019616 0)
(28.7883 0.0280621 0)
(28.4074 0.0392053 0)
(27.9993 0.0573797 0)
(27.4352 0.081095 0)
(26.6634 0.137598 0)
(25.6486 0.202102 0)
(24.0662 0.367453 0)
(21.8501 0.578589 0)
(18.2638 1.12246 0)
(12.5387 1.56136 0)
(6.08855 2.61542 0)
(29.9992 0.000256919 0)
(29.985 0.00076454 0)
(29.9586 0.00120276 0)
(29.9168 0.00193305 0)
(29.86 0.00293933 0)
(29.7877 0.00421845 0)
(29.6987 0.00575811 0)
(29.5872 0.00812431 0)
(29.4454 0.0115378 0)
(29.2689 0.0161683 0)
(29.0548 0.0226324 0)
(28.7898 0.0323777 0)
(28.411 0.0452658 0)
(27.9943 0.0661508 0)
(27.4356 0.0934473 0)
(26.6625 0.157914 0)
(25.6528 0.23378 0)
(24.071 0.424594 0)
(21.8713 0.667784 0)
(18.2976 1.29369 0)
(12.5894 1.8016 0)
(6.12237 3.02192 0)
(29.9992 0.000291252 0)
(29.9852 0.00086597 0)
(29.9586 0.00136169 0)
(29.9166 0.0021908 0)
(29.8599 0.00333246 0)
(29.7878 0.00478017 0)
(29.6987 0.00652479 0)
(29.5872 0.00920811 0)
(29.4454 0.0130779 0)
(29.2691 0.0183251 0)
(29.0549 0.0256518 0)
(28.7879 0.03669 0)
(28.4075 0.0512892 0)
(28.0014 0.0750378 0)
(27.438 0.105949 0)
(26.6637 0.178687 0)
(25.656 0.264054 0)
(24.0738 0.481413 0)
(21.9011 0.756736 0)
(18.3459 1.46397 0)
(12.6554 2.0422 0)
(6.16319 3.43064 0)
(29.9992 0.000325557 0)
(29.9851 0.000967216 0)
(29.9587 0.00152046 0)
(29.9169 0.00244859 0)
(29.86 0.00372561 0)
(29.7878 0.00534159 0)
(29.6988 0.00729143 0)
(29.5873 0.0102921 0)
(29.4455 0.0146183 0)
(29.2691 0.0204817 0)
(29.0549 0.0286683 0)
(28.7903 0.041001 0)
(28.4137 0.0573549 0)
(27.9972 0.08369 0)
(27.4394 0.119136 0)
(26.6596 0.199796 0)
(25.6532 0.294766 0)
(24.0721 0.536524 0)
(21.9397 0.845227 0)
(18.4098 1.63325 0)
(12.7384 2.28335 0)
(6.21156 3.84209 0)
(29.9992 0.000359815 0)
(29.9852 0.00106824 0)
(29.9586 0.00167913 0)
(29.9167 0.00270646 0)
(29.86 0.00411891 0)
(29.7879 0.00590283 0)
(29.6988 0.00805801 0)
(29.5873 0.0113762 0)
(29.4455 0.0161588 0)
(29.2692 0.0226388 0)
(29.055 0.0316854 0)
(28.7882 0.0453068 0)
(28.4074 0.0634338 0)
(27.9995 0.0923624 0)
(27.4387 0.131697 0)
(26.6495 0.219925 0)
(25.6459 0.326662 0)
(24.0723 0.591193 0)
(21.9841 0.933335 0)
(18.4867 1.80133 0)
(12.8386 2.52519 0)
(6.26795 4.2568 0)
(29.9992 0.000394036 0)
(29.9851 0.00116908 0)
(29.9588 0.00183773 0)
(29.9169 0.00296436 0)
(29.8601 0.00451218 0)
(29.7879 0.00646376 0)
(29.6989 0.00882463 0)
(29.5874 0.0124605 0)
(29.4457 0.0176994 0)
(29.2693 0.0247952 0)
(29.055 0.034702 0)
(28.7911 0.0496171 0)
(28.4157 0.069534 0)
(27.9952 0.10122 0)
(27.4326 0.14516 0)
(26.6345 0.240547 0)
(25.6386 0.358764 0)
(24.0776 0.644556 0)
(22.0282 1.02048 0)
(18.5702 1.96776 0)
(12.9545 2.76774 0)
(6.33267 4.67531 0)
(29.9992 0.000428199 0)
(29.9853 0.00126973 0)
(29.9587 0.00199636 0)
(29.9167 0.00322236 0)
(29.86 0.00490551 0)
(29.788 0.00702452 0)
(29.6989 0.0095913 0)
(29.5874 0.0135447 0)
(29.4457 0.0192402 0)
(29.2693 0.0269534 0)
(29.055 0.0377062 0)
(28.7898 0.0539647 0)
(28.4152 0.0755895 0)
(27.9928 0.110124 0)
(27.4218 0.159079 0)
(26.6209 0.261039 0)
(25.6335 0.390657 0)
(24.0862 0.696345 0)
(22.0676 1.10643 0)
(18.654 2.13218 0)
(13.0835 3.01087 0)
(6.40587 5.09813 0)
(29.9992 0.000462317 0)
(29.9851 0.00137019 0)
(29.9589 0.00215501 0)
(29.917 0.00348039 0)
(29.8601 0.00529876 0)
(29.788 0.00758495 0)
(29.699 0.0103581 0)
(29.5875 0.0146289 0)
(29.4459 0.0207813 0)
(29.2694 0.0291136 0)
(29.0548 0.0407287 0)
(28.7911 0.0583046 0)
(28.428 0.0820902 0)
(27.9864 0.119199 0)
(27.4112 0.17277 0)
(26.6108 0.28098 0)
(25.6301 0.422143 0)
(24.0946 0.746811 0)
(22.1008 1.19124 0)
(18.7338 2.29441 0)
(13.2224 3.25434 0)
(6.48748 5.5257 0)
(29.9992 0.00049637 0)
(29.9853 0.00147045 0)
(29.9587 0.00231372 0)
(29.9168 0.0037385 0)
(29.86 0.00569208 0)
(29.7881 0.00814522 0)
(29.699 0.011125 0)
(29.5875 0.0157129 0)
(29.4459 0.0223233 0)
(29.2694 0.031274 0)
(29.0544 0.0437602 0)
(28.7898 0.062533 0)
(28.4296 0.0885082 0)
(27.9792 0.128282 0)
(27.4026 0.186383 0)
(26.6039 0.300698 0)
(25.6274 0.453402 0)
(24.1013 0.79637 0)
(22.1285 1.27507 0)
(18.8074 2.45432 0)
(13.3682 3.49786 0)
(6.57725 5.9584 0)
(29.9992 0.000530372 0)
(29.9852 0.00157054 0)
(29.9589 0.0024725 0)
(29.9171 0.00399664 0)
(29.8601 0.00608529 0)
(29.7881 0.00870513 0)
(29.6991 0.011892 0)
(29.5876 0.0167969 0)
(29.4461 0.0238641 0)
(29.2696 0.0334425 0)
(29.0537 0.0468051 0)
(28.7881 0.066886 0)
(28.4299 0.0950018 0)
(27.9722 0.137294 0)
(27.396 0.199906 0)
(26.5989 0.320327 0)
(25.625 0.484545 0)
(24.1061 0.845337 0)
(22.1518 1.35801 0)
(18.8745 2.61184 0)
(13.5185 3.74109 0)
(6.67481 6.39654 0)
(29.9991 0.000564299 0)
(29.9854 0.00167044 0)
(29.9587 0.00263146 0)
(29.9168 0.00425488 0)
(29.8601 0.00647849 0)
(29.7882 0.00926491 0)
(29.6991 0.0126592 0)
(29.5876 0.0178807 0)
(29.4462 0.0254052 0)
(29.2696 0.035612 0)
(29.053 0.0499183 0)
(28.7845 0.0712672 0)
(28.4261 0.101392 0)
(27.9667 0.146345 0)
(27.3911 0.21342 0)
(26.5954 0.339925 0)
(25.6227 0.515619 0)
(24.1093 0.8939 0)
(22.1723 1.44014 0)
(18.9354 2.76691 0)
(13.6715 3.98373 0)
(6.77972 6.84037 0)
(29.9992 0.000598171 0)
(29.9852 0.00177017 0)
(29.9589 0.00279056 0)
(29.9171 0.00451315 0)
(29.8602 0.00687152 0)
(29.7882 0.00982429 0)
(29.6992 0.0134265 0)
(29.5877 0.0189641 0)
(29.4464 0.0269466 0)
(29.2697 0.0377807 0)
(29.0529 0.0530606 0)
(28.7802 0.0756946 0)
(28.4226 0.10776 0)
(27.9623 0.155378 0)
(27.3873 0.226932 0)
(26.5927 0.359506 0)
(25.6204 0.546646 0)
(24.1114 0.94216 0)
(22.191 1.5215 0)
(18.9914 2.91949 0)
(13.8261 4.2255 0)
(6.89155 7.29012 0)
(29.9991 0.000631965 0)
(29.9854 0.00186971 0)
(29.9588 0.00294981 0)
(29.9168 0.0047715 0)
(29.8601 0.00726458 0)
(29.7883 0.0103836 0)
(29.6992 0.014194 0)
(29.5876 0.0200476 0)
(29.4464 0.0284875 0)
(29.2697 0.0399601 0)
(29.0534 0.056199 0)
(28.776 0.0800477 0)
(28.4192 0.114085 0)
(27.9589 0.164437 0)
(27.3842 0.240446 0)
(26.5907 0.37908 0)
(25.6182 0.577641 0)
(24.1129 0.990173 0)
(22.2091 1.60214 0)
(19.0433 3.06954 0)
(13.9817 4.46614 0)
(7.00989 7.74597 0)
(29.9992 0.0006657 0)
(29.9853 0.00196907 0)
(29.959 0.00310923 0)
(29.9171 0.00502987 0)
(29.8602 0.00765746 0)
(29.7882 0.0109424 0)
(29.6993 0.0149617 0)
(29.5878 0.0211308 0)
(29.4466 0.0300302 0)
(29.2698 0.0421453 0)
(29.0541 0.0594094 0)
(28.7725 0.0843503 0)
(28.4165 0.12043 0)
(27.9562 0.173495 0)
(27.3818 0.253957 0)
(26.5891 0.39865 0)
(25.6161 0.608613 0)
(24.1143 1.03796 0)
(22.2273 1.68205 0)
(19.0926 3.21706 0)
(14.1385 4.70544 0)
(7.13441 8.2081 0)
(29.9991 0.000699353 0)
(29.9855 0.00206828 0)
(29.9588 0.00326889 0)
(29.9168 0.00528834 0)
(29.8601 0.00805029 0)
(29.7884 0.0115012 0)
(29.6993 0.0157296 0)
(29.5877 0.0222137 0)
(29.4466 0.0315725 0)
(29.2701 0.044343 0)
(29.0544 0.0626323 0)
(28.7697 0.0886671 0)
(28.4141 0.126764 0)
(27.9539 0.182567 0)
(27.3798 0.267462 0)
(26.588 0.418222 0)
(25.6144 0.639573 0)
(24.1158 1.08552 0)
(22.2464 1.76125 0)
(19.1402 3.36202 0)
(14.2967 4.94322 0)
(7.26484 8.67668 0)
(29.9991 0.000732945 0)
(29.9853 0.00216729 0)
(29.959 0.00342875 0)
(29.9172 0.00554684 0)
(29.8602 0.00844292 0)
(29.7883 0.0120595 0)
(29.6994 0.0164977 0)
(29.5879 0.0232974 0)
(29.4467 0.0331104 0)
(29.2708 0.0465966 0)
(29.0538 0.0658106 0)
(28.7674 0.0930119 0)
(28.4122 0.13312 0)
(27.9521 0.191637 0)
(27.3781 0.280961 0)
(26.5872 0.437798 0)
(25.6131 0.67053 0)
(24.1179 1.13283 0)
(22.2666 1.83974 0)
(19.1871 3.50444 0)
(14.4569 5.17933 0)
(7.40102 9.15188 0)
(29.9991 0.000766453 0)
(29.9856 0.00226615 0)
(29.9588 0.0035888 0)
(29.9168 0.00580539 0)
(29.8601 0.00883553 0)
(29.7885 0.0126178 0)
(29.6994 0.0172659 0)
(29.5878 0.0243811 0)
(29.4466 0.0346454 0)
(29.2714 0.0488894 0)
(29.0526 0.0689752 0)
(28.7656 0.0973965 0)
(28.4106 0.139473 0)
(27.9505 0.200711 0)
(27.3768 0.294451 0)
(26.5868 0.457379 0)
(25.6124 0.701484 0)
(24.1208 1.17982 0)
(22.2883 1.91752 0)
(19.2342 3.64428 0)
(14.6201 5.41362 0)
(7.54287 9.6339 0)
(29.9991 0.000799901 0)
(29.9854 0.00236482 0)
(29.959 0.00374908 0)
(29.9172 0.00606399 0)
(29.8602 0.00922793 0)
(29.7884 0.0131755 0)
(29.6995 0.0180342 0)
(29.588 0.0254654 0)
(29.4468 0.0361762 0)
(29.272 0.0512104 0)
(29.0512 0.072066 0)
(28.7641 0.10181 0)
(28.4092 0.145839 0)
(27.9491 0.209781 0)
(27.3757 0.307935 0)
(26.5867 0.476961 0)
(25.6126 0.732422 0)
(24.1247 1.22646 0)
(22.3115 1.9946 0)
(19.2822 3.78153 0)
(14.7872 5.64599 0)
(7.69039 10.1229 0)
(29.9991 0.000833262 0)
(29.9856 0.00246335 0)
(29.9588 0.00390961 0)
(29.9168 0.00632266 0)
(29.8601 0.00962023 0)
(29.7886 0.0137333 0)
(29.6994 0.0188024 0)
(29.5879 0.0265501 0)
(29.4467 0.0377021 0)
(29.2723 0.0535141 0)
(29.05 0.0750992 0)
(28.7629 0.106241 0)
(28.4079 0.152202 0)
(27.9479 0.218851 0)
(27.3749 0.321409 0)
(26.587 0.496539 0)
(25.6136 0.763318 0)
(24.1296 1.27274 0)
(22.3362 2.07097 0)
(19.3317 3.91613 0)
(14.9594 5.87636 0)
(7.84368 10.6192 0)
(29.9991 0.000866561 0)
(29.9855 0.00256169 0)
(29.9591 0.00407041 0)
(29.9172 0.00658137 0)
(29.8602 0.0100123 0)
(29.7885 0.0142905 0)
(29.6996 0.0195711 0)
(29.5881 0.0276336 0)
(29.447 0.0392422 0)
(29.2725 0.0558012 0)
(29.049 0.0781111 0)
(28.7618 0.110684 0)
(28.4068 0.158571 0)
(27.9469 0.227917 0)
(27.3743 0.334874 0)
(26.5877 0.5161 0)
(25.6156 0.794144 0)
(24.1356 1.31866 0)
(22.3623 2.14662 0)
(19.3831 4.04803 0)
(15.1379 6.10462 0)
(8.00292 11.1231 0)
(29.9991 0.000899776 0)
(29.9857 0.0026599 0)
(29.9588 0.00423139 0)
(29.9167 0.00684012 0)
(29.8601 0.0104043 0)
(29.7887 0.0148478 0)
(29.6995 0.02034 0)
(29.588 0.0287186 0)
(29.4471 0.0407882 0)
(29.2724 0.0581928 0)
(29.0481 0.081138 0)
(28.7609 0.115133 0)
(28.4058 0.164938 0)
(27.9461 0.23698 0)
(27.374 0.348322 0)
(26.5889 0.535631 0)
(25.6186 0.824883 0)
(24.1428 1.36422 0)
(22.3898 2.22155 0)
(19.4368 4.17711 0)
(15.3239 6.33072 0)
(8.16834 11.6347 0)
(29.9991 0.000932932 0)
(29.9855 0.00275791 0)
(29.9591 0.00439263 0)
(29.9172 0.00709893 0)
(29.8603 0.0107961 0)
(29.7886 0.0154045 0)
(29.6997 0.0211087 0)
(29.5882 0.0298033 0)
(29.4474 0.0423421 0)
(29.2724 0.0605459 0)
(29.0474 0.0841993 0)
(28.7601 0.119587 0)
(28.4049 0.171306 0)
(27.9454 0.246038 0)
(27.3739 0.361751 0)
(26.5904 0.55512 0)
(25.6225 0.855527 0)
(24.1511 1.40942 0)
(22.4183 2.29573 0)
(19.4928 4.30324 0)
(15.5186 6.55458 0)
(8.34025 12.1544 0)
(29.9991 0.000966001 0)
(29.9858 0.00285581 0)
(29.9588 0.00455411 0)
(29.9167 0.00735776 0)
(29.8601 0.0111878 0)
(29.7888 0.0159612 0)
(29.6996 0.0218782 0)
(29.5881 0.0308842 0)
(29.4476 0.043947 0)
(29.2721 0.062753 0)
(29.0468 0.0872966 0)
(28.7594 0.124045 0)
(28.4041 0.177674 0)
(27.9448 0.255089 0)
(27.374 0.375155 0)
(26.5924 0.574557 0)
(25.6272 0.886075 0)
(24.1605 1.45426 0)
(22.4479 2.36915 0)
(19.5512 4.42628 0)
(15.7229 6.77613 0)
(8.51899 12.6827 0)
(29.9991 0.000999014 0)
(29.9856 0.00295351 0)
(29.9591 0.00471586 0)
(29.9172 0.00761667 0)
(29.8603 0.0115793 0)
(29.7887 0.0165173 0)
(29.6998 0.0226478 0)
(29.5883 0.0319651 0)
(29.4479 0.0455719 0)
(29.2719 0.0649349 0)
(29.0462 0.0904222 0)
(28.7588 0.128504 0)
(28.4034 0.184041 0)
(27.9443 0.264131 0)
(27.3744 0.388531 0)
(26.5947 0.593936 0)
(25.6326 0.916522 0)
(24.1712 1.49874 0)
(22.4784 2.44179 0)
(19.6119 4.54605 0)
(15.9376 6.99529 0)
(8.70494 13.2198 0)
(29.999 0.00103194 0)
(29.9858 0.0030511 0)
(29.9588 0.00487776 0)
(29.9167 0.00787558 0)
(29.8602 0.0119708 0)
(29.7889 0.0170735 0)
(29.6998 0.0234175 0)
(29.5882 0.0330459 0)
(29.4481 0.0472043 0)
(29.2717 0.0671121 0)
(29.0457 0.093566 0)
(28.7582 0.132966 0)
(28.4027 0.190406 0)
(27.9439 0.273163 0)
(27.375 0.401876 0)
(26.5974 0.613253 0)
(25.6388 0.94686 0)
(24.183 1.54287 0)
(22.5099 2.51362 0)
(19.6747 4.66236 0)
(16.1629 7.21196 0)
(8.89846 13.7661 0)
(29.9991 0.00106482 0)
(29.9856 0.0031485 0)
(29.9591 0.00503993 0)
(29.9173 0.00813457 0)
(29.8603 0.0123619 0)
(29.7888 0.017629 0)
(29.6999 0.0241875 0)
(29.5884 0.0341259 0)
(29.4484 0.0488452 0)
(29.2716 0.0692728 0)
(29.0453 0.0967214 0)
(28.7577 0.137429 0)
(28.4021 0.19677 0)
(27.9437 0.282183 0)
(27.3757 0.415187 0)
(26.6004 0.632504 0)
(25.6456 0.977079 0)
(24.1961 1.58662 0)
(22.5422 2.58465 0)
(19.7393 4.77503 0)
(16.3991 7.42606 0)
(9.09992 14.3221 0)
(29.999 0.00109762 0)
(29.9859 0.0032458 0)
(29.9588 0.0052023 0)
(29.9167 0.00839357 0)
(29.8602 0.0127531 0)
(29.789 0.0181846 0)
(29.6999 0.0249575 0)
(29.5883 0.0352056 0)
(29.4484 0.0504923 0)
(29.2714 0.0714234 0)
(29.0449 0.0998847 0)
(28.7572 0.141893 0)
(28.4016 0.203131 0)
(27.9435 0.291189 0)
(27.3767 0.428465 0)
(26.6036 0.651684 0)
(25.653 1.00717 0)
(24.2103 1.63001 0)
(22.5754 2.65486 0)
(19.8056 4.88387 0)
(16.646 7.63746 0)
(9.30965 14.8882 0)
(29.9991 0.00113036 0)
(29.9857 0.00334292 0)
(29.9592 0.00536492 0)
(29.9173 0.00865263 0)
(29.8603 0.013144 0)
(29.7889 0.0187396 0)
(29.7001 0.0257275 0)
(29.5885 0.036285 0)
(29.4487 0.0521433 0)
(29.2713 0.0735666 0)
(29.0446 0.103054 0)
(28.7567 0.146359 0)
(28.4011 0.209489 0)
(27.9434 0.300182 0)
(27.3778 0.441706 0)
(26.6072 0.670789 0)
(25.661 1.03711 0)
(24.2258 1.67304 0)
(22.6096 2.72425 0)
(19.8734 4.9887 0)
(16.9033 7.84604 0)
(9.52796 15.4648 0)
(29.999 0.00116303 0)
(29.986 0.00343997 0)
(29.9588 0.0055277 0)
(29.9167 0.00891168 0)
(29.8602 0.0135348 0)
(29.7891 0.0192949 0)
(29.7 0.0264977 0)
(29.5885 0.0373608 0)
(29.4487 0.0537939 0)
(29.2712 0.0757058 0)
(29.0442 0.106228 0)
(28.7563 0.150825 0)
(28.4007 0.215844 0)
(27.9434 0.30916 0)
(27.3791 0.454911 0)
(26.6109 0.689816 0)
(25.6696 1.0669 0)
(24.2425 1.71568 0)
(22.6447 2.7928 0)
(19.9427 5.08935 0)
(17.1707 8.05167 0)
(9.75511 16.0523 0)
(29.9991 0.00119566 0)
(29.9857 0.00353681 0)
(29.9592 0.00569069 0)
(29.9173 0.00917079 0)
(29.8604 0.0139255 0)
(29.7889 0.019849 0)
(29.7002 0.0272695 0)
(29.5887 0.038436 0)
(29.4489 0.0553869 0)
(29.2711 0.0778431 0)
(29.0439 0.109406 0)
(28.7559 0.155292 0)
(28.4003 0.222195 0)
(27.9436 0.318123 0)
(27.3805 0.468077 0)
(26.6149 0.708759 0)
(25.6786 1.09652 0)
(24.2603 1.75794 0)
(22.6809 2.86052 0)
(20.0137 5.18566 0)
(17.4479 8.2542 0)
(9.99136 16.6512 0)
(29.999 0.00122822 0)
(29.986 0.00363358 0)
(29.9588 0.00585371 0)
(29.9167 0.00942987 0)
(29.8602 0.0143161 0)
(29.7892 0.0204043 0)
(29.7001 0.0280373 0)
(29.5887 0.0395395 0)
(29.4491 0.0568531 0)
(29.2711 0.0799868 0)
(29.0437 0.112587 0)
(28.7555 0.15976 0)
(28.4 0.228542 0)
(27.9438 0.327068 0)
(27.382 0.481204 0)
(26.6191 0.727614 0)
(25.6882 1.12596 0)
(24.2792 1.79982 0)
(22.7182 2.92739 0)
(20.0864 5.27747 0)
(17.735 8.45349 0)
(10.2369 17.2618 0)
(29.999 0.00126074 0)
(29.9858 0.00373014 0)
(29.9592 0.0060169 0)
(29.9174 0.00968904 0)
(29.8604 0.0147065 0)
(29.789 0.0209579 0)
(29.7003 0.0288099 0)
(29.5888 0.040628 0)
(29.4492 0.0585863 0)
(29.2709 0.0821607 0)
(29.0434 0.115771 0)
(28.7552 0.164227 0)
(28.3997 0.234884 0)
(27.944 0.335997 0)
(27.3837 0.49429 0)
(26.6236 0.746377 0)
(25.6983 1.15521 0)
(24.2991 1.84129 0)
(22.7569 2.9934 0)
(20.1608 5.36463 0)
(18.032 8.64938 0)
(10.492 17.8847 0)
(29.999 0.0012932 0)
(29.9861 0.00382662 0)
(29.9588 0.00618014 0)
(29.9167 0.00994823 0)
(29.8603 0.0150972 0)
(29.7893 0.0215113 0)
(29.7003 0.0295807 0)
(29.5888 0.041745 0)
(29.4491 0.0603333 0)
(29.2708 0.0843674 0)
(29.0432 0.118956 0)
(28.7549 0.168695 0)
(28.3995 0.241221 0)
(27.9444 0.344906 0)
(27.3856 0.507334 0)
(26.6283 0.765045 0)
(25.7088 1.18426 0)
(24.3201 1.88236 0)
(22.797 3.05855 0)
(20.2369 5.44698 0)
(18.3394 8.8417 0)
(10.7569 18.5203 0)
(29.999 0.00132563 0)
(29.9858 0.00392287 0)
(29.9593 0.00634348 0)
(29.9174 0.0102078 0)
(29.8605 0.0154874 0)
(29.7891 0.0220665 0)
(29.7005 0.0303376 0)
(29.5889 0.0428829 0)
(29.4489 0.0618611 0)
(29.2707 0.0865912 0)
(29.0429 0.122144 0)
(28.7546 0.173162 0)
(28.3993 0.247552 0)
(27.9449 0.353797 0)
(27.3876 0.520333 0)
(26.6333 0.783613 0)
(25.7198 1.2131 0)
(24.342 1.92299 0)
(22.8389 3.12282 0)
(20.3143 5.52437 0)
(18.6571 9.0303 0)
(11.0319 19.169 0)
(29.999 0.00135802 0)
(29.9861 0.00401913 0)
(29.9589 0.0065065 0)
(29.9168 0.0104666 0)
(29.8604 0.0158791 0)
(29.7893 0.0226185 0)
(29.7006 0.0311279 0)
(29.5886 0.0438418 0)
(29.4488 0.0633188 0)
(29.2705 0.0888198 0)
(29.0427 0.125332 0)
(28.7544 0.177629 0)
(28.3992 0.253874 0)
(27.9454 0.362669 0)
(27.3897 0.533288 0)
(26.6385 0.802079 0)
(25.7313 1.24173 0)
(24.3646 1.96318 0)
(22.8827 3.18622 0)
(20.3924 5.59662 0)
(18.9843 9.21504 0)
(11.3171 19.8312 0)
(29.999 0.00139034 0)
(29.9859 0.00411537 0)
(29.9593 0.00666991 0)
(29.9174 0.0107245 0)
(29.8605 0.0162702 0)
(29.7892 0.0231749 0)
(29.7009 0.0319158 0)
(29.588 0.0450039 0)
(29.4486 0.0648002 0)
(29.2703 0.0910494 0)
(29.0425 0.128519 0)
(28.7541 0.182094 0)
(28.3991 0.260191 0)
(27.946 0.37152 0)
(27.392 0.546194 0)
(26.6439 0.820438 0)
(25.7431 1.27013 0)
(24.388 2.0029 0)
(22.9288 3.24875 0)
(20.4701 5.66364 0)
(19.3178 9.39591 0)
(11.6127 20.5082 0)
(29.999 0.0014223 0)
(29.9862 0.00421179 0)
(29.9589 0.00683538 0)
(29.9168 0.0109802 0)
(29.8604 0.0166547 0)
(29.7894 0.0237357 0)
(29.701 0.0327095 0)
(29.5876 0.0463278 0)
(29.4484 0.0663186 0)
(29.2701 0.0932801 0)
(29.0423 0.131707 0)
(28.7539 0.186559 0)
(28.3991 0.266496 0)
(27.9467 0.38035 0)
(27.3945 0.559049 0)
(26.6497 0.838688 0)
(25.7553 1.2983 0)
(24.4121 2.04213 0)
(22.9774 3.31045 0)
(20.5467 5.72539 0)
(19.6503 9.57257 0)
(11.9183 21.2073 0)
(29.999 0.00145418 0)
(29.9859 0.00430523 0)
(29.9594 0.00700839 0)
(29.9177 0.0112407 0)
(29.8607 0.0170244 0)
(29.7893 0.0242766 0)
(29.7012 0.0335528 0)
(29.5875 0.047474 0)
(29.4483 0.0678534 0)
(29.2698 0.0955088 0)
(29.0421 0.134894 0)
(28.7537 0.191023 0)
(28.3991 0.272779 0)
(27.9475 0.389164 0)
(27.3971 0.571854 0)
(26.6557 0.856824 0)
(25.768 1.32623 0)
(24.4366 2.0808 0)
(23.029 3.37135 0)
(20.622 5.78193 0)
(19.9704 9.743 0)
(12.3197 21.9502 0)
(-2.17314 0.0956166 0)
(-6.20007 0.0615144 0)
(-7.69948 0.00244102 0)
(-6.27947 -0.0293782 0)
(-4.50182 -0.0221794 0)
(-3.69368 -0.00969894 0)
(-3.27688 -0.00401081 0)
(-3.16598 -0.00261475 0)
(-2.91455 -0.00482352 0)
(-2.40565 -0.00679556 0)
(-1.71105 -0.00742011 0)
(-0.87415 -0.00938736 0)
(0.191105 -0.0103149 0)
(1.45146 -0.0119698 0)
(3.04668 -0.0140763 0)
(5.05796 -0.0156016 0)
(7.38167 -0.0155125 0)
(9.73339 -0.0138259 0)
(11.8926 -0.0113686 0)
(13.76 -0.00929151 0)
(15.4782 -0.00844599 0)
(17.3194 -0.00842024 0)
(19.3521 -0.00768668 0)
(21.1722 -0.00686375 0)
(23.0734 -0.00830661 0)
(26.0477 -0.00819528 0)
(28.2372 -0.00433777 0)
(28.9878 -0.00127614 0)
(29.1732 -0.000373543 0)
(29.2856 -0.000258252 0)
(29.3963 -0.000229843 0)
(29.501 -0.000180686 0)
(29.5792 -0.000131087 0)
(29.645 -0.000100729 0)
(29.6989 -4.33941e-05 0)
(-2.14479 0.283664 0)
(-6.11352 0.182425 0)
(-7.58767 0.00655495 0)
(-6.15768 -0.0881351 0)
(-4.39115 -0.0662482 0)
(-3.5853 -0.0289802 0)
(-3.16163 -0.0116477 0)
(-3.06356 -0.00699195 0)
(-2.86065 -0.0133057 0)
(-2.43088 -0.0197366 0)
(-1.7648 -0.0225733 0)
(-0.906223 -0.0284747 0)
(0.2411 -0.0314522 0)
(1.54134 -0.0352857 0)
(3.06177 -0.0407256 0)
(4.96195 -0.0452897 0)
(7.218 -0.0455063 0)
(9.56092 -0.0408658 0)
(11.7365 -0.0337451 0)
(13.6163 -0.0276346 0)
(15.3274 -0.0251377 0)
(17.1346 -0.0252615 0)
(19.1579 -0.0234101 0)
(21.0387 -0.020862 0)
(22.9643 -0.0249408 0)
(25.9446 -0.0247731 0)
(28.1955 -0.0132512 0)
(28.9837 -0.0039218 0)
(29.1762 -0.00112927 0)
(29.2869 -0.000769674 0)
(29.3967 -0.000688016 0)
(29.5014 -0.000542387 0)
(29.5798 -0.000393454 0)
(29.6455 -0.000302102 0)
(29.6994 -0.000130251 0)
(-2.1017 0.468426 0)
(-6.00804 0.301724 0)
(-7.45573 0.010266 0)
(-6.00026 -0.147302 0)
(-4.24278 -0.110298 0)
(-3.44727 -0.048331 0)
(-3.03035 -0.0191716 0)
(-2.96495 -0.0105939 0)
(-2.81752 -0.0202666 0)
(-2.44437 -0.0312042 0)
(-1.7851 -0.036827 0)
(-0.885699 -0.0488617 0)
(0.339269 -0.053506 0)
(1.65996 -0.0582237 0)
(3.09241 -0.0657056 0)
(4.88024 -0.0732891 0)
(7.07211 -0.0744834 0)
(9.4071 -0.0674402 0)
(11.5995 -0.0559459 0)
(13.4946 -0.0459164 0)
(15.204 -0.041625 0)
(16.9817 -0.0417982 0)
(18.9892 -0.0391867 0)
(20.9184 -0.0351206 0)
(22.8656 -0.041675 0)
(25.8488 -0.0415177 0)
(28.1561 -0.0224432 0)
(28.9802 -0.00669564 0)
(29.1794 -0.00190144 0)
(29.2885 -0.00127499 0)
(29.3974 -0.00114379 0)
(29.502 -0.000904167 0)
(29.5805 -0.000655888 0)
(29.6461 -0.000503199 0)
(29.7 -0.000217058 0)
(-2.04895 0.649537 0)
(-5.88756 0.419024 0)
(-7.29835 0.0127751 0)
(-5.79607 -0.207371 0)
(-4.05726 -0.15382 0)
(-3.28205 -0.0672396 0)
(-2.88131 -0.0259336 0)
(-2.85144 -0.0129594 0)
(-2.752 -0.0259443 0)
(-2.42489 -0.042098 0)
(-1.77574 -0.0517905 0)
(-0.829187 -0.0706469 0)
(0.476762 -0.0767293 0)
(1.81616 -0.0808866 0)
(3.15767 -0.0896263 0)
(4.82582 -0.100691 0)
(6.94134 -0.103703 0)
(9.26136 -0.0946695 0)
(11.4726 -0.0786848 0)
(13.3902 -0.0644227 0)
(15.1063 -0.0580116 0)
(16.8604 -0.0581508 0)
(18.8463 -0.0550872 0)
(20.8105 -0.0496431 0)
(22.7762 -0.0584912 0)
(25.7598 -0.0584457 0)
(28.1188 -0.0319092 0)
(28.977 -0.00958622 0)
(29.1828 -0.00268652 0)
(29.2903 -0.00177432 0)
(29.3983 -0.00159746 0)
(29.5028 -0.00126609 0)
(29.5814 -0.000918265 0)
(29.6468 -0.000703894 0)
(29.7005 -0.00030371 0)
(-1.98715 0.826501 0)
(-5.75192 0.53374 0)
(-7.1105 0.0134834 0)
(-5.53916 -0.268143 0)
(-3.83294 -0.196359 0)
(-3.08739 -0.0853824 0)
(-2.71207 -0.0318653 0)
(-2.7183 -0.0142663 0)
(-2.65996 -0.0305582 0)
(-2.37079 -0.0523751 0)
(-1.73 -0.0672024 0)
(-0.722767 -0.0937687 0)
(0.670726 -0.10105 0)
(2.02426 -0.103032 0)
(3.26939 -0.111885 0)
(4.81123 -0.126628 0)
(6.83556 -0.132376 0)
(9.12772 -0.122081 0)
(11.3567 -0.101797 0)
(13.3043 -0.0831684 0)
(15.0353 -0.0743643 0)
(16.771 -0.0743009 0)
(18.7298 -0.0709882 0)
(20.7153 -0.064339 0)
(22.6955 -0.0753718 0)
(25.6773 -0.0755256 0)
(28.0836 -0.0416225 0)
(28.9743 -0.0125881 0)
(29.1863 -0.00348462 0)
(29.2924 -0.00226782 0)
(29.3993 -0.00204892 0)
(29.5039 -0.00162796 0)
(29.5824 -0.0011804 0)
(29.6476 -0.000904016 0)
(29.7012 -0.000390084 0)
(-1.91663 0.998685 0)
(-5.60062 0.645358 0)
(-6.88709 0.0116592 0)
(-5.22657 -0.32985 0)
(-3.56794 -0.237593 0)
(-2.85984 -0.102515 0)
(-2.51865 -0.0368447 0)
(-2.56017 -0.0146009 0)
(-2.53682 -0.034283 0)
(-2.2793 -0.0621795 0)
(-1.63942 -0.0832054 0)
(-0.547844 -0.118388 0)
(0.94159 -0.126412 0)
(2.30028 -0.124442 0)
(3.4403 -0.132252 0)
(4.85248 -0.150745 0)
(6.77421 -0.160008 0)
(9.02157 -0.149333 0)
(11.261 -0.125184 0)
(13.2428 -0.102184 0)
(14.9943 -0.0907313 0)
(16.715 -0.0902481 0)
(18.6413 -0.086813 0)
(20.6344 -0.079135 0)
(22.6237 -0.092287 0)
(25.6009 -0.0927319 0)
(28.0503 -0.0515624 0)
(28.972 -0.0156953 0)
(29.1901 -0.00429517 0)
(29.2946 -0.00275555 0)
(29.4006 -0.00249813 0)
(29.5051 -0.00198964 0)
(29.5836 -0.00144213 0)
(29.6486 -0.00110339 0)
(29.7018 -0.00047606 0)
(-1.83764 1.1655 0)
(-5.43296 0.753262 0)
(-6.62349 0.00655147 0)
(-4.86021 -0.392701 0)
(-3.26126 -0.277208 0)
(-2.59516 -0.118429 0)
(-2.29584 -0.0407696 0)
(-2.37107 -0.0140587 0)
(-2.37719 -0.0372628 0)
(-2.14599 -0.0716845 0)
(-1.49462 -0.100199 0)
(-0.286756 -0.144851 0)
(1.30738 -0.152829 0)
(2.66298 -0.14507 0)
(3.68586 -0.15075 0)
(4.96638 -0.173047 0)
(6.78121 -0.186393 0)
(8.96816 -0.176154 0)
(11.2038 -0.148736 0)
(13.2173 -0.121481 0)
(14.9907 -0.107139 0)
(16.6969 -0.10598 0)
(18.5843 -0.102486 0)
(20.5704 -0.0939532 0)
(22.5616 -0.109203 0)
(25.5304 -0.110042 0)
(28.0191 -0.0617124 0)
(28.9702 -0.0189028 0)
(29.1941 -0.00511761 0)
(29.2971 -0.00323757 0)
(29.4022 -0.00294502 0)
(29.5065 -0.00235097 0)
(29.5849 -0.00170325 0)
(29.6497 -0.00130184 0)
(29.7025 -0.000561524 0)
(-1.75031 1.32636 0)
(-5.24808 0.856734 0)
(-6.31643 -0.00248516 0)
(-4.44878 -0.456712 0)
(-2.915 -0.315002 0)
(-2.29002 -0.132983 0)
(-2.03809 -0.0435606 0)
(-2.14462 -0.0127366 0)
(-2.17488 -0.0396228 0)
(-1.96469 -0.0810969 0)
(-1.28595 -0.118651 0)
(0.0683714 -0.17361 0)
(1.76951 -0.180312 0)
(3.12676 -0.164884 0)
(4.02496 -0.167401 0)
(5.1722 -0.193641 0)
(6.88298 -0.211523 0)
(9.00076 -0.202337 0)
(11.2137 -0.172269 0)
(13.2476 -0.140999 0)
(15.0376 -0.12357 0)
(16.726 -0.121459 0)
(18.565 -0.117917 0)
(20.5283 -0.108705 0)
(22.511 -0.126075 0)
(25.466 -0.127431 0)
(27.9901 -0.0720562 0)
(28.9688 -0.0222052 0)
(29.1982 -0.0059514 0)
(29.2999 -0.00371397 0)
(29.4039 -0.00338955 0)
(29.5082 -0.00271179 0)
(29.5864 -0.0019636 0)
(29.6508 -0.0014992 0)
(29.7033 -0.000646358 0)
(-1.65477 1.48067 0)
(-5.04514 0.955006 0)
(-5.9647 -0.0158691 0)
(-4.00644 -0.521721 0)
(-2.53579 -0.351002 0)
(-1.94429 -0.146182 0)
(-1.74069 -0.0452019 0)
(-1.87469 -0.0107481 0)
(-1.92348 -0.0414948 0)
(-1.72831 -0.0906649 0)
(-1.00489 -0.139015 0)
(0.506297 -0.204838 0)
(2.29998 -0.208823 0)
(3.6816 -0.183922 0)
(4.47181 -0.182222 0)
(5.49121 -0.212632 0)
(7.10975 -0.235536 0)
(9.16107 -0.227827 0)
(11.3329 -0.195582 0)
(13.3656 -0.160598 0)
(15.1581 -0.139949 0)
(16.8187 -0.136611 0)
(18.5949 -0.132995 0)
(20.5154 -0.123279 0)
(22.4751 -0.142839 0)
(25.4079 -0.144863 0)
(27.9633 -0.0825771 0)
(28.9678 -0.025597 0)
(29.2026 -0.00679595 0)
(29.3029 -0.00418485 0)
(29.4059 -0.00383168 0)
(29.5101 -0.00307195 0)
(29.588 -0.00222297 0)
(29.6521 -0.00169529 0)
(29.7041 -0.000730444 0)
(-1.55107 1.62779 0)
(-4.82341 1.04731 0)
(-5.56912 -0.0337191 0)
(-3.54816 -0.587395 0)
(-2.13422 -0.385472 0)
(-1.56286 -0.158231 0)
(-1.40144 -0.0457961 0)
(-1.55644 -0.00823914 0)
(-1.61757 -0.043029 0)
(-1.43045 -0.100641 0)
(-0.646553 -0.161494 0)
(0.999437 -0.238194 0)
(2.85369 -0.238261 0)
(4.28205 -0.202559 0)
(5.01758 -0.195507 0)
(5.93649 -0.230234 0)
(7.48994 -0.258711 0)
(9.49617 -0.252769 0)
(11.6181 -0.218561 0)
(13.6204 -0.180084 0)
(15.3893 -0.156131 0)
(17.003 -0.151302 0)
(18.6925 -0.147558 0)
(20.5437 -0.137527 0)
(22.4593 -0.159399 0)
(25.3569 -0.162292 0)
(27.9389 -0.093257 0)
(28.9674 -0.0290722 0)
(29.2071 -0.00765064 0)
(29.3061 -0.00465032 0)
(29.4081 -0.00427135 0)
(29.5122 -0.00343128 0)
(29.5897 -0.00248118 0)
(29.6535 -0.00188994 0)
(29.7049 -0.000813666 0)
(-1.43929 1.7671 0)
(-4.58222 1.13291 0)
(-5.13129 -0.0558766 0)
(-3.08509 -0.653232 0)
(-1.72218 -0.41878 0)
(-1.15611 -0.169529 0)
(-1.02242 -0.0456149 0)
(-1.18806 -0.00540832 0)
(-1.25461 -0.044398 0)
(-1.06784 -0.111244 0)
(-0.214732 -0.18594 0)
(1.51964 -0.272962 0)