/*--------------------------------*- C++ -*----------------------------------*\
| =========                 |                                                 |
| \\      /  F ield         | OpenFOAM: The Open Source CFD Toolbox           |
|  \\    /   O peration     | Version:  v1912                                 |
|   \\  /    A nd           | Website:  www.openfoam.com                      |
|    \\/     M anipulation  |                                                 |
\*---------------------------------------------------------------------------*/
FoamFile
{
    version     2.0;
    format      ascii;
    class       volScalarField;
    location    "170";
    object      yPlus;
}
// * * * * * * * * * * * * * * * * * * * * * * * * * * * * * * * * * * * * * //

dimensions      [0 0 0 0 0 0 0];


internalField   uniform 0;

boundaryField
{
    inlet
    {
        type            calculated;
        value           uniform 0;
    }
    outlet
    {
        type            calculated;
        value           uniform 0;
    }
    lowerSymmetry
    {
        type            symmetryPlane;
    }
    obstical
    {
        type            calculated;
        value           nonuniform List<scalar> 
88
(
493.624
495.717
500
506.515
515.193
525.939
538.656
553.244
569.607
587.649
607.277
628.398
650.917
674.736
699.76
725.894
753.052
781.156
810.141
839.95
870.537
901.869
933.921
966.675
1000.12
1034.27
1069.11
1104.67
1140.95
1177.98
1215.77
1254.35
1293.75
1333.98
1375.07
1417.04
1459.91
1503.7
1548.44
1594.16
1640.86
1688.64
1737.86
1792.47
193.759
192.837
192.039
191.74
191.954
192.661
193.823
195.388
197.293
199.472
201.856
204.381
206.984
209.611
212.209
214.737
217.163
219.472
221.664
223.765
225.814
227.861
229.87
231.79
233.609
235.274
236.734
237.959
238.95
239.767
240.541
241.466
242.719
244.33
246.009
247.018
246.176
242.043
233.167
218.262
196.246
166.183
127.173
78.054
)
;
    }
    obsticalTop
    {
        type            calculated;
        value           nonuniform List<scalar> 
20
(
53.1118
38.1707
46.7214
52.9424
55.868
57.5718
58.2359
58.0049
57.1307
55.7499
53.8456
51.3174
48.0808
43.9671
38.9439
32.3942
26.1609
16.9607
15.0519
9.92037
)
;
    }
    top
    {
        type            calculated;
        value           uniform 0;
    }
    defaultFaces
    {
        type            empty;
    }
}


// ************************************************************************* //
