/*--------------------------------*- C++ -*----------------------------------*\
| =========                 |                                                 |
| \\      /  F ield         | OpenFOAM: The Open Source CFD Toolbox           |
|  \\    /   O peration     | Version:  v1912                                 |
|   \\  /    A nd           | Website:  www.openfoam.com                      |
|    \\/     M anipulation  |                                                 |
\*---------------------------------------------------------------------------*/
FoamFile
{
    version     2.0;
    format      ascii;
    class       volScalarField;
    location    "200";
    object      nut;
}
// * * * * * * * * * * * * * * * * * * * * * * * * * * * * * * * * * * * * * //

dimensions      [0 2 -1 0 0 0 0];


internalField   nonuniform List<scalar> 
10000
(
9.9992e-05
9.99748e-05
9.99558e-05
9.99345e-05
9.99106e-05
9.98836e-05
9.98526e-05
9.9817e-05
9.97754e-05
9.97262e-05
9.96673e-05
9.95953e-05
9.95053e-05
9.93905e-05
9.92342e-05
9.90331e-05
9.86486e-05
9.8447e-05
9.57932e-05
0.000101235
9.9992e-05
9.99748e-05
9.99558e-05
9.99345e-05
9.99106e-05
9.98836e-05
9.98526e-05
9.9817e-05
9.97754e-05
9.97262e-05
9.96673e-05
9.95953e-05
9.95053e-05
9.93905e-05
9.92342e-05
9.90331e-05
9.86488e-05
9.84458e-05
9.57986e-05
0.000101675
9.9992e-05
9.99748e-05
9.99558e-05
9.99345e-05
9.99106e-05
9.98836e-05
9.98526e-05
9.9817e-05
9.97754e-05
9.97262e-05
9.96673e-05
9.95953e-05
9.95053e-05
9.93905e-05
9.92343e-05
9.9033e-05
9.86495e-05
9.8443e-05
9.58139e-05
0.000101828
9.9992e-05
9.99748e-05
9.99558e-05
9.99345e-05
9.99106e-05
9.98836e-05
9.98526e-05
9.9817e-05
9.97754e-05
9.97262e-05
9.96673e-05
9.95954e-05
9.95054e-05
9.93905e-05
9.92343e-05
9.90329e-05
9.86504e-05
9.84385e-05
9.58427e-05
0.000101734
9.9992e-05
9.99748e-05
9.99558e-05
9.99345e-05
9.99106e-05
9.98836e-05
9.98526e-05
9.9817e-05
9.97754e-05
9.97262e-05
9.96673e-05
9.95954e-05
9.95054e-05
9.93906e-05
9.92344e-05
9.90328e-05
9.86518e-05
9.8432e-05
9.5887e-05
0.000101442
9.9992e-05
9.99748e-05
9.99558e-05
9.99345e-05
9.99106e-05
9.98836e-05
9.98526e-05
9.9817e-05
9.97754e-05
9.97263e-05
9.96673e-05
9.95954e-05
9.95054e-05
9.93906e-05
9.92345e-05
9.90327e-05
9.86537e-05
9.84233e-05
9.59478e-05
0.000100996
9.9992e-05
9.99748e-05
9.99558e-05
9.99345e-05
9.99106e-05
9.98836e-05
9.98527e-05
9.9817e-05
9.97754e-05
9.97263e-05
9.96674e-05
9.95954e-05
9.95055e-05
9.93907e-05
9.92347e-05
9.90325e-05
9.8656e-05
9.84123e-05
9.60245e-05
0.000100441
9.9992e-05
9.99748e-05
9.99558e-05
9.99345e-05
9.99107e-05
9.98836e-05
9.98527e-05
9.9817e-05
9.97754e-05
9.97263e-05
9.96674e-05
9.95955e-05
9.95055e-05
9.93907e-05
9.92349e-05
9.90323e-05
9.86588e-05
9.83991e-05
9.61155e-05
9.98179e-05
9.9992e-05
9.99748e-05
9.99558e-05
9.99345e-05
9.99107e-05
9.98836e-05
9.98527e-05
9.9817e-05
9.97754e-05
9.97263e-05
9.96674e-05
9.95955e-05
9.95056e-05
9.93908e-05
9.92351e-05
9.9032e-05
9.86622e-05
9.83838e-05
9.62182e-05
9.91632e-05
9.9992e-05
9.99748e-05
9.99558e-05
9.99346e-05
9.99107e-05
9.98836e-05
9.98527e-05
9.98171e-05
9.97755e-05
9.97264e-05
9.96675e-05
9.95956e-05
9.95057e-05
9.93909e-05
9.92354e-05
9.90318e-05
9.8666e-05
9.8367e-05
9.63292e-05
9.85086e-05
9.9992e-05
9.99748e-05
9.99558e-05
9.99346e-05
9.99107e-05
9.98836e-05
9.98527e-05
9.98171e-05
9.97755e-05
9.97264e-05
9.96675e-05
9.95957e-05
9.95058e-05
9.9391e-05
9.92358e-05
9.90315e-05
9.86702e-05
9.8349e-05
9.64449e-05
9.78818e-05
9.9992e-05
9.99748e-05
9.99558e-05
9.99346e-05
9.99107e-05
9.98837e-05
9.98528e-05
9.98171e-05
9.97756e-05
9.97265e-05
9.96676e-05
9.95957e-05
9.95059e-05
9.93912e-05
9.92362e-05
9.90313e-05
9.86748e-05
9.83305e-05
9.65616e-05
9.73032e-05
9.9992e-05
9.99748e-05
9.99558e-05
9.99346e-05
9.99107e-05
9.98837e-05
9.98528e-05
9.98171e-05
9.97756e-05
9.97265e-05
9.96677e-05
9.95958e-05
9.95061e-05
9.93914e-05
9.92367e-05
9.90311e-05
9.86798e-05
9.83121e-05
9.66756e-05
9.6789e-05
9.9992e-05
9.99748e-05
9.99558e-05
9.99346e-05
9.99107e-05
9.98837e-05
9.98528e-05
9.98172e-05
9.97757e-05
9.97266e-05
9.96678e-05
9.9596e-05
9.95063e-05
9.93916e-05
9.92372e-05
9.9031e-05
9.8685e-05
9.82946e-05
9.67838e-05
9.6348e-05
9.9992e-05
9.99749e-05
9.99558e-05
9.99346e-05
9.99108e-05
9.98837e-05
9.98529e-05
9.98172e-05
9.97757e-05
9.97267e-05
9.96679e-05
9.95961e-05
9.95065e-05
9.93919e-05
9.92378e-05
9.9031e-05
9.86903e-05
9.82786e-05
9.68841e-05
9.59854e-05
9.9992e-05
9.99749e-05
9.99559e-05
9.99346e-05
9.99108e-05
9.98838e-05
9.98529e-05
9.98173e-05
9.97758e-05
9.97268e-05
9.9668e-05
9.95963e-05
9.95067e-05
9.93922e-05
9.92385e-05
9.90311e-05
9.86957e-05
9.82647e-05
9.69746e-05
9.57003e-05
9.9992e-05
9.99749e-05
9.99559e-05
9.99347e-05
9.99108e-05
9.98838e-05
9.98529e-05
9.98174e-05
9.97759e-05
9.97269e-05
9.96681e-05
9.95965e-05
9.9507e-05
9.93925e-05
9.92393e-05
9.90315e-05
9.87011e-05
9.82535e-05
9.7055e-05
9.549e-05
9.9992e-05
9.99749e-05
9.99559e-05
9.99347e-05
9.99109e-05
9.98839e-05
9.9853e-05
9.98174e-05
9.9776e-05
9.9727e-05
9.96683e-05
9.95967e-05
9.95073e-05
9.9393e-05
9.92402e-05
9.9032e-05
9.87064e-05
9.82451e-05
9.7125e-05
9.53475e-05
9.99921e-05
9.99749e-05
9.99559e-05
9.99347e-05
9.99109e-05
9.98839e-05
9.98531e-05
9.98175e-05
9.97761e-05
9.97271e-05
9.96685e-05
9.9597e-05
9.95077e-05
9.93935e-05
9.92411e-05
9.90328e-05
9.87117e-05
9.82398e-05
9.71857e-05
9.5266e-05
9.99921e-05
9.99749e-05
9.99559e-05
9.99347e-05
9.99109e-05
9.9884e-05
9.98531e-05
9.98176e-05
9.97762e-05
9.97273e-05
9.96687e-05
9.95972e-05
9.95081e-05
9.93941e-05
9.92422e-05
9.90339e-05
9.87169e-05
9.82376e-05
9.72381e-05
9.52363e-05
9.99921e-05
9.99749e-05
9.99559e-05
9.99348e-05
9.9911e-05
9.9884e-05
9.98532e-05
9.98177e-05
9.97763e-05
9.97275e-05
9.9669e-05
9.95976e-05
9.95086e-05
9.93947e-05
9.92434e-05
9.90353e-05
9.87221e-05
9.82385e-05
9.7284e-05
9.52509e-05
9.99921e-05
9.99749e-05
9.9956e-05
9.99348e-05
9.9911e-05
9.98841e-05
9.98533e-05
9.98178e-05
9.97765e-05
9.97277e-05
9.96692e-05
9.9598e-05
9.95091e-05
9.93955e-05
9.92447e-05
9.9037e-05
9.87274e-05
9.82422e-05
9.73249e-05
9.5301e-05
9.99921e-05
9.99749e-05
9.9956e-05
9.99349e-05
9.99111e-05
9.98842e-05
9.98534e-05
9.9818e-05
9.97767e-05
9.97279e-05
9.96695e-05
9.95984e-05
9.95097e-05
9.93964e-05
9.92462e-05
9.90391e-05
9.87329e-05
9.82485e-05
9.73628e-05
9.53806e-05
9.99921e-05
9.9975e-05
9.9956e-05
9.99349e-05
9.99112e-05
9.98843e-05
9.98535e-05
9.98181e-05
9.97769e-05
9.97282e-05
9.96699e-05
9.95989e-05
9.95104e-05
9.93974e-05
9.92478e-05
9.90416e-05
9.87386e-05
9.82573e-05
9.73989e-05
9.54823e-05
9.99921e-05
9.9975e-05
9.99561e-05
9.9935e-05
9.99112e-05
9.98843e-05
9.98537e-05
9.98183e-05
9.97771e-05
9.97285e-05
9.96703e-05
9.95994e-05
9.95112e-05
9.93985e-05
9.92497e-05
9.90445e-05
9.87447e-05
9.82683e-05
9.74351e-05
9.56018e-05
9.99921e-05
9.9975e-05
9.99561e-05
9.9935e-05
9.99113e-05
9.98845e-05
9.98538e-05
9.98185e-05
9.97773e-05
9.97288e-05
9.96707e-05
9.96e-05
9.95121e-05
9.93998e-05
9.92517e-05
9.90479e-05
9.87513e-05
9.82814e-05
9.7472e-05
9.57338e-05
9.99921e-05
9.9975e-05
9.99561e-05
9.99351e-05
9.99114e-05
9.98846e-05
9.9854e-05
9.98187e-05
9.97776e-05
9.97292e-05
9.96713e-05
9.96007e-05
9.95131e-05
9.94013e-05
9.9254e-05
9.90517e-05
9.87585e-05
9.82964e-05
9.75111e-05
9.58754e-05
9.99921e-05
9.9975e-05
9.99562e-05
9.99351e-05
9.99115e-05
9.98847e-05
9.98541e-05
9.98189e-05
9.97779e-05
9.97296e-05
9.96718e-05
9.96015e-05
9.95142e-05
9.94029e-05
9.92566e-05
9.9056e-05
9.87664e-05
9.83132e-05
9.75525e-05
9.60229e-05
9.99921e-05
9.99751e-05
9.99562e-05
9.99352e-05
9.99116e-05
9.98849e-05
9.98543e-05
9.98192e-05
9.97783e-05
9.97301e-05
9.96725e-05
9.96024e-05
9.95155e-05
9.94048e-05
9.92595e-05
9.90608e-05
9.87753e-05
9.83319e-05
9.7597e-05
9.61747e-05
9.99921e-05
9.99751e-05
9.99563e-05
9.99353e-05
9.99117e-05
9.9885e-05
9.98546e-05
9.98195e-05
9.97787e-05
9.97306e-05
9.96732e-05
9.96034e-05
9.95169e-05
9.94069e-05
9.92627e-05
9.90662e-05
9.8785e-05
9.83524e-05
9.76445e-05
9.63279e-05
9.99921e-05
9.99751e-05
9.99564e-05
9.99354e-05
9.99119e-05
9.98852e-05
9.98548e-05
9.98198e-05
9.97791e-05
9.97312e-05
9.9674e-05
9.96045e-05
9.95184e-05
9.94092e-05
9.92663e-05
9.90722e-05
9.87958e-05
9.83748e-05
9.76955e-05
9.6482e-05
9.99921e-05
9.99752e-05
9.99564e-05
9.99355e-05
9.9912e-05
9.98854e-05
9.98551e-05
9.98202e-05
9.97796e-05
9.97319e-05
9.96749e-05
9.96057e-05
9.95202e-05
9.94118e-05
9.92703e-05
9.90788e-05
9.88076e-05
9.83989e-05
9.77495e-05
9.66348e-05
9.99922e-05
9.99752e-05
9.99565e-05
9.99356e-05
9.99122e-05
9.98857e-05
9.98554e-05
9.98206e-05
9.97802e-05
9.97326e-05
9.96759e-05
9.96071e-05
9.95222e-05
9.94147e-05
9.92748e-05
9.90862e-05
9.88206e-05
9.8425e-05
9.78068e-05
9.67862e-05
9.99922e-05
9.99753e-05
9.99566e-05
9.99358e-05
9.99124e-05
9.98859e-05
9.98558e-05
9.98211e-05
9.97808e-05
9.97334e-05
9.9677e-05
9.96087e-05
9.95243e-05
9.94179e-05
9.92798e-05
9.90943e-05
9.88348e-05
9.84529e-05
9.78666e-05
9.69346e-05
9.99922e-05
9.99753e-05
9.99567e-05
9.99359e-05
9.99126e-05
9.98862e-05
9.98562e-05
9.98216e-05
9.97815e-05
9.97343e-05
9.96782e-05
9.96104e-05
9.95268e-05
9.94215e-05
9.92853e-05
9.91032e-05
9.88504e-05
9.84828e-05
9.79291e-05
9.70803e-05
9.99922e-05
9.99754e-05
9.99568e-05
9.99361e-05
9.99128e-05
9.98865e-05
9.98566e-05
9.98222e-05
9.97822e-05
9.97354e-05
9.96796e-05
9.96123e-05
9.95295e-05
9.94254e-05
9.92913e-05
9.91129e-05
9.88672e-05
9.85145e-05
9.79935e-05
9.72219e-05
9.99922e-05
9.99754e-05
9.99569e-05
9.99363e-05
9.99131e-05
9.98869e-05
9.98571e-05
9.98228e-05
9.97831e-05
9.97365e-05
9.96812e-05
9.96144e-05
9.95325e-05
9.94298e-05
9.9298e-05
9.91236e-05
9.88854e-05
9.85482e-05
9.806e-05
9.73601e-05
9.99922e-05
9.99755e-05
9.9957e-05
9.99365e-05
9.99134e-05
9.98873e-05
9.98576e-05
9.98235e-05
9.9784e-05
9.97378e-05
9.96829e-05
9.96168e-05
9.95358e-05
9.94347e-05
9.93053e-05
9.91352e-05
9.89049e-05
9.85834e-05
9.81276e-05
9.74937e-05
9.99923e-05
9.99756e-05
9.99572e-05
9.99367e-05
9.99137e-05
9.98877e-05
9.98582e-05
9.98243e-05
9.97851e-05
9.97392e-05
9.96848e-05
9.96194e-05
9.95395e-05
9.944e-05
9.93133e-05
9.91478e-05
9.89259e-05
9.86205e-05
9.81965e-05
9.76233e-05
9.99923e-05
9.99757e-05
9.99573e-05
9.99369e-05
9.9914e-05
9.98882e-05
9.98588e-05
9.98252e-05
9.97862e-05
9.97407e-05
9.96869e-05
9.96223e-05
9.95435e-05
9.94458e-05
9.9322e-05
9.91614e-05
9.89482e-05
9.8659e-05
9.82658e-05
9.77481e-05
9.99923e-05
9.99758e-05
9.99575e-05
9.99372e-05
9.99144e-05
9.98887e-05
9.98596e-05
9.98261e-05
9.97875e-05
9.97424e-05
9.96892e-05
9.96254e-05
9.9548e-05
9.94522e-05
9.93315e-05
9.91761e-05
9.89718e-05
9.86991e-05
9.83356e-05
9.78688e-05
9.99924e-05
9.99759e-05
9.99577e-05
9.99375e-05
9.99149e-05
9.98893e-05
9.98604e-05
9.98272e-05
9.9789e-05
9.97443e-05
9.96918e-05
9.96289e-05
9.95528e-05
9.94591e-05
9.93417e-05
9.91917e-05
9.89967e-05
9.87402e-05
9.84052e-05
9.79845e-05
9.99924e-05
9.9976e-05
9.99579e-05
9.99378e-05
9.99153e-05
9.989e-05
9.98613e-05
9.98284e-05
9.97905e-05
9.97464e-05
9.96946e-05
9.96328e-05
9.95582e-05
9.94667e-05
9.93528e-05
9.92084e-05
9.90229e-05
9.87826e-05
9.84746e-05
9.80961e-05
9.99924e-05
9.99761e-05
9.99582e-05
9.99382e-05
9.99159e-05
9.98907e-05
9.98622e-05
9.98297e-05
9.97923e-05
9.97487e-05
9.96977e-05
9.9637e-05
9.9564e-05
9.94749e-05
9.93646e-05
9.92261e-05
9.90502e-05
9.88257e-05
9.85433e-05
9.82028e-05
9.99925e-05
9.99763e-05
9.99584e-05
9.99386e-05
9.99164e-05
9.98915e-05
9.98633e-05
9.98311e-05
9.97942e-05
9.97513e-05
9.9701e-05
9.96416e-05
9.95703e-05
9.94838e-05
9.93774e-05
9.92449e-05
9.90786e-05
9.88696e-05
9.86114e-05
9.83054e-05
9.99925e-05
9.99764e-05
9.99587e-05
9.99391e-05
9.99171e-05
9.98924e-05
9.98645e-05
9.98327e-05
9.97962e-05
9.9754e-05
9.97047e-05
9.96465e-05
9.95771e-05
9.94932e-05
9.93909e-05
9.92646e-05
9.91079e-05
9.89139e-05
9.86782e-05
9.84034e-05
9.99926e-05
9.99766e-05
9.9959e-05
9.99395e-05
9.99178e-05
9.98934e-05
9.98658e-05
9.98344e-05
9.97985e-05
9.97571e-05
9.97088e-05
9.96519e-05
9.95845e-05
9.95034e-05
9.94052e-05
9.92853e-05
9.91381e-05
9.89586e-05
9.8744e-05
9.84974e-05
9.99926e-05
9.99768e-05
9.99594e-05
9.99401e-05
9.99186e-05
9.98944e-05
9.98672e-05
9.98363e-05
9.9801e-05
9.97604e-05
9.97131e-05
9.96578e-05
9.95923e-05
9.95143e-05
9.94204e-05
9.93067e-05
9.9169e-05
9.90033e-05
9.88082e-05
9.8587e-05
9.99927e-05
9.9977e-05
9.99598e-05
9.99407e-05
9.99194e-05
9.98956e-05
9.98688e-05
9.98384e-05
9.98037e-05
9.97639e-05
9.97179e-05
9.96641e-05
9.96008e-05
9.95258e-05
9.94363e-05
9.9329e-05
9.92005e-05
9.9048e-05
9.88709e-05
9.86726e-05
9.99928e-05
9.99772e-05
9.99602e-05
9.99413e-05
9.99203e-05
9.98969e-05
9.98705e-05
9.98406e-05
9.98067e-05
9.97678e-05
9.97229e-05
9.96708e-05
9.96098e-05
9.9538e-05
9.94529e-05
9.9352e-05
9.92325e-05
9.90925e-05
9.8932e-05
9.87543e-05
9.99928e-05
9.99775e-05
9.99606e-05
9.9942e-05
9.99213e-05
9.98982e-05
9.98723e-05
9.98431e-05
9.98099e-05
9.9772e-05
9.97284e-05
9.9678e-05
9.96194e-05
9.95508e-05
9.94703e-05
9.93756e-05
9.92648e-05
9.91365e-05
9.89913e-05
9.88321e-05
9.99929e-05
9.99778e-05
9.99611e-05
9.99428e-05
9.99224e-05
9.98997e-05
9.98743e-05
9.98457e-05
9.98133e-05
9.97765e-05
9.97343e-05
9.96857e-05
9.96295e-05
9.95642e-05
9.94882e-05
9.93997e-05
9.92972e-05
9.918e-05
9.90488e-05
9.89062e-05
9.9993e-05
9.99781e-05
9.99617e-05
9.99436e-05
9.99236e-05
9.99014e-05
9.98765e-05
9.98486e-05
9.98171e-05
9.97813e-05
9.97405e-05
9.96939e-05
9.96402e-05
9.95782e-05
9.95067e-05
9.94242e-05
9.93297e-05
9.92228e-05
9.91043e-05
9.89767e-05
9.99931e-05
9.99784e-05
9.99623e-05
9.99445e-05
9.99249e-05
9.99031e-05
9.98788e-05
9.98516e-05
9.9821e-05
9.97864e-05
9.97472e-05
9.97024e-05
9.96513e-05
9.95927e-05
9.95256e-05
9.94489e-05
9.9362e-05
9.92647e-05
9.91579e-05
9.90437e-05
9.99932e-05
9.99787e-05
9.99629e-05
9.99455e-05
9.99263e-05
9.9905e-05
9.98814e-05
9.98549e-05
9.98253e-05
9.97919e-05
9.97542e-05
9.97115e-05
9.96629e-05
9.96077e-05
9.95449e-05
9.94739e-05
9.93942e-05
9.93058e-05
9.92096e-05
9.91074e-05
9.99933e-05
9.99791e-05
9.99636e-05
9.99466e-05
9.99278e-05
9.99071e-05
9.9884e-05
9.98584e-05
9.98298e-05
9.97977e-05
9.97616e-05
9.97209e-05
9.96749e-05
9.9623e-05
9.95645e-05
9.94989e-05
9.94259e-05
9.93457e-05
9.92592e-05
9.91678e-05
9.99935e-05
9.99795e-05
9.99643e-05
9.99477e-05
9.99294e-05
9.99092e-05
9.98869e-05
9.98621e-05
9.98345e-05
9.98037e-05
9.97693e-05
9.97306e-05
9.96873e-05
9.96387e-05
9.95844e-05
9.95239e-05
9.94572e-05
9.93846e-05
9.93068e-05
9.9225e-05
9.99936e-05
9.998e-05
9.99651e-05
9.99489e-05
9.99311e-05
9.99115e-05
9.98899e-05
9.98661e-05
9.98396e-05
9.98101e-05
9.97773e-05
9.97408e-05
9.97e-05
9.96546e-05
9.96043e-05
9.95487e-05
9.9488e-05
9.94223e-05
9.93523e-05
9.92793e-05
9.99937e-05
9.99804e-05
9.9966e-05
9.99502e-05
9.99329e-05
9.9914e-05
9.98932e-05
9.98702e-05
9.98448e-05
9.98167e-05
9.97856e-05
9.97512e-05
9.9713e-05
9.96708e-05
9.96242e-05
9.95733e-05
9.9518e-05
9.94587e-05
9.93959e-05
9.93306e-05
9.99939e-05
9.99809e-05
9.99669e-05
9.99516e-05
9.99348e-05
9.99166e-05
9.98965e-05
9.98745e-05
9.98503e-05
9.98236e-05
9.97942e-05
9.97618e-05
9.97261e-05
9.9687e-05
9.96441e-05
9.95975e-05
9.95473e-05
9.94937e-05
9.94374e-05
9.9379e-05
9.99941e-05
9.99814e-05
9.99678e-05
9.9953e-05
9.99369e-05
9.99193e-05
9.99001e-05
9.9879e-05
9.9856e-05
9.98307e-05
9.9803e-05
9.97726e-05
9.97394e-05
9.97032e-05
9.96638e-05
9.96213e-05
9.95757e-05
9.95275e-05
9.9477e-05
9.94248e-05
9.99942e-05
9.9982e-05
9.99688e-05
9.99545e-05
9.9939e-05
9.99221e-05
9.99037e-05
9.98837e-05
9.98618e-05
9.9838e-05
9.9812e-05
9.97836e-05
9.97528e-05
9.97193e-05
9.96832e-05
9.96445e-05
9.96033e-05
9.95598e-05
9.95145e-05
9.94679e-05
9.99944e-05
9.99826e-05
9.99698e-05
9.99561e-05
9.99412e-05
9.99251e-05
9.99075e-05
9.98885e-05
9.98678e-05
9.98454e-05
9.9821e-05
9.97946e-05
9.97661e-05
9.97353e-05
9.97023e-05
9.96671e-05
9.96298e-05
9.95907e-05
9.95502e-05
9.95086e-05
9.99946e-05
9.99832e-05
9.99709e-05
9.99577e-05
9.99435e-05
9.99281e-05
9.99114e-05
9.98934e-05
9.9874e-05
9.98529e-05
9.98302e-05
9.98057e-05
9.97793e-05
9.97511e-05
9.97209e-05
9.9689e-05
9.96553e-05
9.96202e-05
9.95839e-05
9.95468e-05
9.99948e-05
9.99838e-05
9.99721e-05
9.99594e-05
9.99458e-05
9.99312e-05
9.99154e-05
9.98985e-05
9.98802e-05
9.98605e-05
9.98393e-05
9.98167e-05
9.97924e-05
9.97665e-05
9.97391e-05
9.97101e-05
9.96798e-05
9.96483e-05
9.96158e-05
9.95826e-05
9.9995e-05
9.99845e-05
9.99732e-05
9.99612e-05
9.99483e-05
9.99344e-05
9.99195e-05
9.99036e-05
9.98864e-05
9.98681e-05
9.98485e-05
9.98275e-05
9.98053e-05
9.97816e-05
9.97567e-05
9.97305e-05
9.97032e-05
9.96749e-05
9.96458e-05
9.96162e-05
9.99952e-05
9.99851e-05
9.99744e-05
9.9963e-05
9.99507e-05
9.99376e-05
9.99236e-05
9.99087e-05
9.98927e-05
9.98757e-05
9.98575e-05
9.98382e-05
9.98178e-05
9.97963e-05
9.97737e-05
9.975e-05
9.97255e-05
9.97001e-05
9.96741e-05
9.96477e-05
9.99954e-05
9.99858e-05
9.99756e-05
9.99648e-05
9.99532e-05
9.99409e-05
9.99278e-05
9.99138e-05
9.98989e-05
9.98831e-05
9.98664e-05
9.98487e-05
9.98301e-05
9.98105e-05
9.979e-05
9.97687e-05
9.97466e-05
9.97239e-05
9.97006e-05
9.9677e-05
9.99956e-05
9.99865e-05
9.99769e-05
9.99666e-05
9.99557e-05
9.99442e-05
9.99319e-05
9.99189e-05
9.99051e-05
9.98905e-05
9.98751e-05
9.98589e-05
9.98419e-05
9.98242e-05
9.98056e-05
9.97864e-05
9.97666e-05
9.97462e-05
9.97255e-05
9.97044e-05
9.99959e-05
9.99872e-05
9.99781e-05
9.99685e-05
9.99582e-05
9.99474e-05
9.9936e-05
9.99239e-05
9.99112e-05
9.98977e-05
9.98836e-05
9.98688e-05
9.98534e-05
9.98373e-05
9.98205e-05
9.98032e-05
9.97854e-05
9.97672e-05
9.97487e-05
9.97299e-05
9.99961e-05
9.99879e-05
9.99793e-05
9.99703e-05
9.99607e-05
9.99507e-05
9.994e-05
9.99288e-05
9.99171e-05
9.99048e-05
9.98919e-05
9.98784e-05
9.98643e-05
9.98498e-05
9.98347e-05
9.98191e-05
9.98032e-05
9.97869e-05
9.97703e-05
9.97536e-05
9.99963e-05
9.99886e-05
9.99806e-05
9.99721e-05
9.99632e-05
9.99538e-05
9.9944e-05
9.99337e-05
9.99229e-05
9.99116e-05
9.98998e-05
9.98875e-05
9.98748e-05
9.98616e-05
9.9848e-05
9.98341e-05
9.98198e-05
9.98052e-05
9.97905e-05
9.97756e-05
9.99965e-05
9.99893e-05
9.99818e-05
9.99739e-05
9.99656e-05
9.99569e-05
9.99479e-05
9.99384e-05
9.99285e-05
9.99181e-05
9.99074e-05
9.98963e-05
9.98848e-05
9.98729e-05
9.98607e-05
9.98481e-05
9.98353e-05
9.98223e-05
9.98092e-05
9.97959e-05
9.99967e-05
9.999e-05
9.9983e-05
9.99757e-05
9.9968e-05
9.996e-05
9.99516e-05
9.99429e-05
9.99338e-05
9.99244e-05
9.99147e-05
9.99046e-05
9.98942e-05
9.98835e-05
9.98725e-05
9.98613e-05
9.98498e-05
9.98382e-05
9.98265e-05
9.98146e-05
9.9997e-05
9.99907e-05
9.99842e-05
9.99774e-05
9.99703e-05
9.99629e-05
9.99552e-05
9.99472e-05
9.9939e-05
9.99304e-05
9.99215e-05
9.99124e-05
9.9903e-05
9.98934e-05
9.98836e-05
9.98735e-05
9.98633e-05
9.98529e-05
9.98425e-05
9.98319e-05
9.99972e-05
9.99913e-05
9.99853e-05
9.9979e-05
9.99725e-05
9.99657e-05
9.99587e-05
9.99514e-05
9.99438e-05
9.99361e-05
9.99281e-05
9.99198e-05
9.99114e-05
9.99027e-05
9.98939e-05
9.98849e-05
9.98758e-05
9.98665e-05
9.98572e-05
9.98478e-05
9.99974e-05
9.9992e-05
9.99864e-05
9.99806e-05
9.99746e-05
9.99684e-05
9.9962e-05
9.99553e-05
9.99485e-05
9.99414e-05
9.99342e-05
9.99268e-05
9.99192e-05
9.99114e-05
9.99035e-05
9.98954e-05
9.98873e-05
9.9879e-05
9.98707e-05
9.98624e-05
9.99976e-05
9.99926e-05
9.99875e-05
9.99821e-05
9.99766e-05
9.9971e-05
9.99651e-05
9.99591e-05
9.99529e-05
9.99465e-05
9.994e-05
9.99333e-05
9.99264e-05
9.99195e-05
9.99124e-05
9.99052e-05
9.98979e-05
9.98906e-05
9.98832e-05
9.98757e-05
9.99978e-05
9.99932e-05
9.99885e-05
9.99836e-05
9.99786e-05
9.99734e-05
9.99681e-05
9.99626e-05
9.9957e-05
9.99513e-05
9.99454e-05
9.99394e-05
9.99332e-05
9.9927e-05
9.99207e-05
9.99142e-05
9.99078e-05
9.99012e-05
9.98946e-05
9.9888e-05
9.9998e-05
9.99939e-05
9.99896e-05
9.99852e-05
9.99806e-05
9.99759e-05
9.9971e-05
9.99661e-05
9.9961e-05
9.99558e-05
9.99505e-05
9.99451e-05
9.99396e-05
9.99341e-05
9.99284e-05
9.99227e-05
9.99169e-05
9.99111e-05
9.99052e-05
9.98993e-05
9.99983e-05
9.99946e-05
9.99908e-05
9.99868e-05
9.99827e-05
9.99785e-05
9.99741e-05
9.99696e-05
9.9965e-05
9.99604e-05
9.99556e-05
9.99508e-05
9.99459e-05
9.99409e-05
9.99358e-05
9.99307e-05
9.99256e-05
9.99204e-05
9.99151e-05
9.99099e-05
9.99986e-05
9.99955e-05
9.99923e-05
9.99888e-05
9.99852e-05
9.99814e-05
9.99775e-05
9.99735e-05
9.99694e-05
9.99652e-05
9.99609e-05
9.99566e-05
9.99522e-05
9.99478e-05
9.99433e-05
9.99387e-05
9.99341e-05
9.99295e-05
9.99249e-05
9.99202e-05
9.99989e-05
9.99965e-05
9.99938e-05
9.9991e-05
9.99879e-05
9.99847e-05
9.99813e-05
9.99778e-05
9.99742e-05
9.99705e-05
9.99668e-05
9.99629e-05
9.9959e-05
9.9955e-05
9.9951e-05
9.9947e-05
9.99429e-05
9.99388e-05
9.99347e-05
9.99306e-05
9.99991e-05
9.99973e-05
9.99952e-05
9.9993e-05
9.99906e-05
9.99881e-05
9.99853e-05
9.99824e-05
9.99794e-05
9.99763e-05
9.99731e-05
9.99698e-05
9.99664e-05
9.99629e-05
9.99594e-05
9.99559e-05
9.99523e-05
9.99487e-05
9.99451e-05
9.99414e-05
9.99993e-05
9.99979e-05
9.99964e-05
9.99947e-05
9.99929e-05
9.9991e-05
9.99889e-05
9.99867e-05
9.99843e-05
9.99819e-05
9.99793e-05
9.99767e-05
9.99739e-05
9.99711e-05
9.99682e-05
9.99653e-05
9.99623e-05
9.99593e-05
9.99562e-05
9.99532e-05
9.99995e-05
9.99984e-05
9.99972e-05
9.9996e-05
9.99946e-05
9.99932e-05
9.99917e-05
9.99901e-05
9.99883e-05
9.99865e-05
9.99846e-05
9.99827e-05
9.99806e-05
9.99785e-05
9.99763e-05
9.99741e-05
9.99718e-05
9.99695e-05
9.99672e-05
9.99648e-05
9.99996e-05
9.99988e-05
9.99979e-05
9.9997e-05
9.9996e-05
9.99949e-05
9.99938e-05
9.99926e-05
9.99914e-05
9.99901e-05
9.99887e-05
9.99873e-05
9.99858e-05
9.99843e-05
9.99827e-05
9.99811e-05
9.99795e-05
9.99778e-05
9.99762e-05
9.99745e-05
9.99997e-05
9.99991e-05
9.99984e-05
9.99977e-05
9.9997e-05
9.99962e-05
9.99954e-05
9.99945e-05
9.99936e-05
9.99927e-05
9.99917e-05
9.99907e-05
9.99896e-05
9.99885e-05
9.99874e-05
9.99863e-05
9.99851e-05
9.9984e-05
9.99828e-05
9.99816e-05
9.99998e-05
9.99993e-05
9.99988e-05
9.99983e-05
9.99977e-05
9.99972e-05
9.99966e-05
9.99959e-05
9.99953e-05
9.99946e-05
9.99939e-05
9.99931e-05
9.99924e-05
9.99916e-05
9.99908e-05
9.999e-05
9.99892e-05
9.99884e-05
9.99876e-05
9.99867e-05
9.99998e-05
9.99995e-05
9.99991e-05
9.99987e-05
9.99983e-05
9.99979e-05
9.99975e-05
9.9997e-05
9.99965e-05
9.9996e-05
9.99955e-05
9.9995e-05
9.99945e-05
9.99939e-05
9.99934e-05
9.99928e-05
9.99922e-05
9.99916e-05
9.9991e-05
9.99904e-05
9.99999e-05
9.99996e-05
9.99994e-05
9.99991e-05
9.99988e-05
9.99985e-05
9.99982e-05
9.99978e-05
9.99975e-05
9.99971e-05
9.99968e-05
9.99964e-05
9.9996e-05
9.99956e-05
9.99952e-05
9.99948e-05
9.99944e-05
9.9994e-05
9.99936e-05
9.99932e-05
9.99999e-05
9.99997e-05
9.99995e-05
9.99993e-05
9.99991e-05
9.99989e-05
9.99987e-05
9.99985e-05
9.99982e-05
9.9998e-05
9.99977e-05
9.99975e-05
9.99972e-05
9.99969e-05
9.99967e-05
9.99964e-05
9.99961e-05
9.99958e-05
9.99955e-05
9.99952e-05
9.99999e-05
9.99998e-05
9.99997e-05
9.99996e-05
9.99994e-05
9.99993e-05
9.99991e-05
9.9999e-05
9.99988e-05
9.99987e-05
9.99985e-05
9.99983e-05
9.99981e-05
9.99979e-05
9.99978e-05
9.99976e-05
9.99974e-05
9.99972e-05
9.9997e-05
9.99968e-05
0.0001
9.99999e-05
9.99998e-05
9.99997e-05
9.99997e-05
9.99996e-05
9.99995e-05
9.99994e-05
9.99993e-05
9.99992e-05
9.99991e-05
9.9999e-05
9.99989e-05
9.99987e-05
9.99986e-05
9.99985e-05
9.99984e-05
9.99983e-05
9.99981e-05
9.9998e-05
0.0001
0.0001
9.99999e-05
9.99999e-05
9.99999e-05
9.99998e-05
9.99998e-05
9.99997e-05
9.99997e-05
9.99996e-05
9.99996e-05
9.99995e-05
9.99995e-05
9.99994e-05
9.99993e-05
9.99993e-05
9.99992e-05
9.99991e-05
9.99991e-05
9.9999e-05
0.0001
0.0001
0.0001
0.0001
0.0001
0.0001
0.0001
0.0001
0.0001
0.0001
0.0001
9.99999e-05
9.99999e-05
9.99999e-05
9.99999e-05
9.99999e-05
9.99999e-05
9.99998e-05
9.99998e-05
9.99998e-05
0.0001
0.0001
0.0001
0.0001
0.0001
0.0001
0.0001
0.0001
0.0001
0.0001
0.0001
0.0001
0.0001
0.0001
0.0001
0.0001
0.0001
0.0001
0.0001
0.0001
0.0001
0.0001
0.0001
0.0001
0.0001
0.0001
0.0001
0.0001
0.0001
0.000100001
0.000100001
0.000100001
0.000100001
0.000100001
0.000100001
0.000100001
0.000100001
0.000100001
0.000100001
0.000100001
0.0001
0.0001
0.0001
0.0001
0.0001
0.0001
0.000100001
0.000100001
0.000100001
0.000100001
0.000100001
0.000100001
0.000100001
0.000100001
0.000100001
0.000100001
0.000100001
0.000100001
0.000100001
0.000100001
0.0001
0.0001
0.0001
0.0001
0.0001
0.000100001
0.000100001
0.000100001
0.000100001
0.000100001
0.000100001
0.000100001
0.000100001
0.000100001
0.000100001
0.000100001
0.000100002
0.000100002
0.000100002
0.000100002
5.04863e-06
2.4477e-11
2.35757e-06
4.73009e-06
4.98707e-06
4.95538e-06
4.87578e-06
4.80379e-06
4.74206e-06
4.68954e-06
4.64438e-06
4.60468e-06
4.56904e-06
4.53651e-06
4.50661e-06
4.47888e-06
4.45304e-06
4.42884e-06
4.40611e-06
4.38468e-06
4.36443e-06
4.34523e-06
4.327e-06
4.30964e-06
4.29307e-06
4.27723e-06
4.26206e-06
4.24752e-06
4.23356e-06
4.22014e-06
4.20722e-06
4.19477e-06
4.18275e-06
4.17114e-06
4.15991e-06
4.14904e-06
4.13849e-06
4.12825e-06
4.1183e-06
4.10863e-06
4.09921e-06
4.09004e-06
4.08111e-06
4.0724e-06
4.06392e-06
4.05564e-06
4.04756e-06
4.03969e-06
4.032e-06
4.0245e-06
4.01716e-06
4.01001e-06
4.00302e-06
3.99618e-06
3.9895e-06
3.98298e-06
3.97661e-06
3.97038e-06
3.9643e-06
3.95833e-06
3.95244e-06
3.94653e-06
3.94048e-06
3.93407e-06
3.92703e-06
3.91899e-06
3.90958e-06
3.89852e-06
3.88568e-06
3.87116e-06
3.85536e-06
3.83893e-06
3.82262e-06
3.80716e-06
3.79319e-06
3.7809e-06
3.77084e-06
3.76176e-06
3.75634e-06
3.7484e-06
1.28978e-05
1.48438e-06
2.14872e-07
4.08681e-06
5.25949e-06
5.41444e-06
5.42679e-06
5.44539e-06
5.46141e-06
5.47166e-06
5.4777e-06
5.48079e-06
5.48175e-06
5.48104e-06
5.47911e-06
5.47621e-06
5.47249e-06
5.46805e-06
5.46303e-06
5.45754e-06
5.45167e-06
5.44549e-06
5.43907e-06
5.43247e-06
5.42573e-06
5.41889e-06
5.412e-06
5.40507e-06
5.39814e-06
5.39122e-06
5.38432e-06
5.37746e-06
5.37065e-06
5.36387e-06
5.35715e-06
5.35047e-06
5.34384e-06
5.33726e-06
5.33073e-06
5.32426e-06
5.31784e-06
5.31148e-06
5.30518e-06
5.29895e-06
5.29279e-06
5.28671e-06
5.2807e-06
5.27477e-06
5.26892e-06
5.26315e-06
5.25747e-06
5.25186e-06
5.24634e-06
5.24091e-06
5.23558e-06
5.23035e-06
5.22522e-06
5.2202e-06
5.21528e-06
5.21044e-06
5.20564e-06
5.2008e-06
5.19579e-06
5.1904e-06
5.1844e-06
5.17746e-06
5.16908e-06
5.1587e-06
5.14572e-06
5.12952e-06
5.10951e-06
5.08531e-06
5.05688e-06
5.02438e-06
4.9884e-06
4.94981e-06
4.90945e-06
4.86883e-06
4.82923e-06
4.79916e-06
2.27015e-05
6.12984e-06
4.18208e-06
5.35273e-06
6.54587e-06
7.13803e-06
7.40672e-06
7.58002e-06
7.7228e-06
7.84677e-06
7.95438e-06
8.04755e-06
8.12859e-06
8.19968e-06
8.26261e-06
8.31859e-06
8.36849e-06
8.41302e-06
8.4528e-06
8.4884e-06
8.52028e-06
8.54886e-06
8.57449e-06
8.59749e-06
8.61815e-06
8.63672e-06
8.65342e-06
8.66845e-06
8.68199e-06
8.69419e-06
8.70517e-06
8.71504e-06
8.72388e-06
8.73178e-06
8.73881e-06
8.74503e-06
8.75049e-06
8.75524e-06
8.75934e-06
8.76284e-06
8.76578e-06
8.7682e-06
8.77015e-06
8.77167e-06
8.7728e-06
8.77358e-06
8.77402e-06
8.77417e-06
8.77406e-06
8.77372e-06
8.77314e-06
8.77234e-06
8.77138e-06
8.77025e-06
8.76896e-06
8.76753e-06
8.76597e-06
8.7643e-06
8.76251e-06
8.76062e-06
8.75861e-06
8.75646e-06
8.75413e-06
8.75154e-06
8.74863e-06
8.74528e-06
8.74124e-06
8.73624e-06
8.7299e-06
8.72176e-06
8.71129e-06
8.69804e-06
8.68174e-06
8.6623e-06
8.63986e-06
8.61507e-06
8.58811e-06
8.56055e-06
8.53361e-06
8.51009e-06
3.12691e-05
1.18549e-05
7.28021e-06
7.00597e-06
7.72263e-06
8.40112e-06
8.85705e-06
9.1775e-06
9.43553e-06
9.66003e-06
9.85951e-06
1.00372e-05
1.01963e-05
1.03398e-05
1.04701e-05
1.05889e-05
1.06974e-05
1.07968e-05
1.08879e-05
1.09716e-05
1.10487e-05
1.11197e-05
1.11853e-05
1.1246e-05
1.13021e-05
1.13542e-05
1.14027e-05
1.14478e-05
1.14899e-05
1.15292e-05
1.15659e-05
1.16004e-05
1.16326e-05
1.16628e-05
1.16911e-05
1.17176e-05
1.17424e-05
1.17656e-05
1.17874e-05
1.18077e-05
1.18267e-05
1.18444e-05
1.1861e-05
1.18765e-05
1.18911e-05
1.19046e-05
1.19174e-05
1.19293e-05
1.19405e-05
1.1951e-05
1.19608e-05
1.19701e-05
1.19787e-05
1.19869e-05
1.19945e-05
1.20017e-05
1.20084e-05
1.20147e-05
1.20205e-05
1.2026e-05
1.20311e-05
1.20358e-05
1.20401e-05
1.20441e-05
1.20477e-05
1.20508e-05
1.20535e-05
1.20556e-05
1.2057e-05
1.20573e-05
1.20564e-05
1.2054e-05
1.20499e-05
1.2044e-05
1.20362e-05
1.20271e-05
1.20162e-05
1.20054e-05
1.19935e-05
1.19845e-05
3.87812e-05
1.75587e-05
1.12671e-05
9.22647e-06
9.13616e-06
9.56527e-06
1.0029e-05
1.04273e-05
1.07697e-05
1.10752e-05
1.13526e-05
1.16058e-05
1.1838e-05
1.20521e-05
1.22504e-05
1.24343e-05
1.2605e-05
1.27636e-05
1.29112e-05
1.30488e-05
1.31771e-05
1.32971e-05
1.34093e-05
1.35144e-05
1.36131e-05
1.37058e-05
1.3793e-05
1.38753e-05
1.3953e-05
1.40265e-05
1.4096e-05
1.4162e-05
1.42246e-05
1.4284e-05
1.43404e-05
1.4394e-05
1.44448e-05
1.44931e-05
1.4539e-05
1.45826e-05
1.4624e-05
1.46633e-05
1.47007e-05
1.47362e-05
1.47701e-05
1.48023e-05
1.48331e-05
1.48624e-05
1.48904e-05
1.49172e-05
1.49428e-05
1.49673e-05
1.49908e-05
1.50134e-05
1.5035e-05
1.50557e-05
1.50755e-05
1.50945e-05
1.51128e-05
1.51303e-05
1.51471e-05
1.51631e-05
1.51785e-05
1.51932e-05
1.52074e-05
1.52208e-05
1.52337e-05
1.52459e-05
1.52574e-05
1.5268e-05
1.52778e-05
1.52866e-05
1.52943e-05
1.53008e-05
1.53061e-05
1.53107e-05
1.53136e-05
1.53172e-05
1.5318e-05
1.53248e-05
4.54584e-05
2.32712e-05
1.55559e-05
1.24506e-05
1.10213e-05
1.09105e-05
1.11825e-05
1.15375e-05
1.18953e-05
1.22383e-05
1.25631e-05
1.28694e-05
1.31589e-05
1.34328e-05
1.36916e-05
1.39357e-05
1.41658e-05
1.43825e-05
1.45867e-05
1.47791e-05
1.49606e-05
1.5132e-05
1.52938e-05
1.54467e-05
1.55915e-05
1.57287e-05
1.58588e-05
1.59824e-05
1.61001e-05
1.62121e-05
1.6319e-05
1.64211e-05
1.65186e-05
1.66118e-05
1.67009e-05
1.67862e-05
1.68678e-05
1.69458e-05
1.70205e-05
1.70919e-05
1.71603e-05
1.72257e-05
1.72884e-05
1.73484e-05
1.7406e-05
1.74612e-05
1.75143e-05
1.75653e-05
1.76144e-05
1.76617e-05
1.77072e-05
1.77511e-05
1.77935e-05
1.78344e-05
1.78739e-05
1.79121e-05
1.7949e-05
1.79847e-05
1.80191e-05
1.80525e-05
1.80847e-05
1.81158e-05
1.81459e-05
1.8175e-05
1.82031e-05
1.82303e-05
1.82566e-05
1.82819e-05
1.83064e-05
1.833e-05
1.83527e-05
1.83743e-05
1.8395e-05
1.84147e-05