/*--------------------------------*- C++ -*----------------------------------*\
| =========                 |                                                 |
| \\      /  F ield         | OpenFOAM: The Open Source CFD Toolbox           |
|  \\    /   O peration     | Version:  v1912                                 |
|   \\  /    A nd           | Website:  www.openfoam.com                      |
|    \\/     M anipulation  |                                                 |
\*---------------------------------------------------------------------------*/
FoamFile
{
    version     2.0;
    format      ascii;
    class       volScalarField;
    location    "200";
    object      p;
}
// * * * * * * * * * * * * * * * * * * * * * * * * * * * * * * * * * * * * * //

dimensions      [0 2 -2 0 0 0 0];


internalField   nonuniform List<scalar> 
10000
(
0.00230393
0.00230688
0.00231489
0.00232716
0.00234372
0.00236499
0.00239138
0.00242345
0.00246184
0.00250777
0.00256217
0.00262767
0.00270468
0.00280205
0.00291366
0.00307716
0.00323888
0.00361025
0.00381962
0.00575004
0.00230393
0.00230688
0.00231489
0.00232716
0.00234372
0.00236499
0.00239137
0.00242345
0.00246184
0.00250777
0.00256216
0.00262766
0.00270467
0.00280203
0.00291365
0.00307711
0.00323887
0.0036099
0.00381959
0.00566952
0.00230392
0.00230687
0.00231489
0.00232716
0.00234372
0.00236498
0.00239137
0.00242344
0.00246183
0.00250776
0.00256215
0.00262764
0.00270465
0.002802
0.00291362
0.00307703
0.00323881
0.0036094
0.00381909
0.00552891
0.00230391
0.00230686
0.00231488
0.00232715
0.00234371
0.00236497
0.00239136
0.00242343
0.00246181
0.00250774
0.00256213
0.00262762
0.00270462
0.00280195
0.00291356
0.0030769
0.0032387
0.00360864
0.00381817
0.00544644
0.0023039
0.00230685
0.00231487
0.00232714
0.00234369
0.00236496
0.00239134
0.00242341
0.00246179
0.00250772
0.0025621
0.00262758
0.00270457
0.00280188
0.00291347
0.00307672
0.00323853
0.00360759
0.00381711
0.00539203
0.00230389
0.00230684
0.00231485
0.00232712
0.00234368
0.00236494
0.00239132
0.00242339
0.00246177
0.00250768
0.00256206
0.00262753
0.00270451
0.00280179
0.00291336
0.00307647
0.0032383
0.00360622
0.00381591
0.00534303
0.00230387
0.00230682
0.00231483
0.0023271
0.00234365
0.00236491
0.00239129
0.00242335
0.00246173
0.00250764
0.00256201
0.00262746
0.00270443
0.00280166
0.00291321
0.00307615
0.00323799
0.0036045
0.0038145
0.00529325
0.00230385
0.00230679
0.0023148
0.00232707
0.00234362
0.00236488
0.00239125
0.00242331
0.00246168
0.00250758
0.00256194
0.00262737
0.00270432
0.00280151
0.00291302
0.00307575
0.0032376
0.00360239
0.00381279
0.00524245
0.00230382
0.00230676
0.00231477
0.00232704
0.00234359
0.00236484
0.00239121
0.00242326
0.00246162
0.00250751
0.00256186
0.00262727
0.00270419
0.00280131
0.00291279
0.00307526
0.00323711
0.00359985
0.00381071
0.00519018
0.00230378
0.00230672
0.00231473
0.00232699
0.00234354
0.00236479
0.00239115
0.0024232
0.00246155
0.00250743
0.00256175
0.00262713
0.00270404
0.00280107
0.0029125
0.00307465
0.0032365
0.00359683
0.00380821
0.00513641
0.00230374
0.00230667
0.00231468
0.00232694
0.00234349
0.00236473
0.00239109
0.00242312
0.00246147
0.00250733
0.00256163
0.00262698
0.00270384
0.00280079
0.00291215
0.00307392
0.00323577
0.00359331
0.00380519
0.0050808
0.00230369
0.00230662
0.00231462
0.00232688
0.00234342
0.00236466
0.00239101
0.00242303
0.00246137
0.00250721
0.00256148
0.00262679
0.00270361
0.00280044
0.00291174
0.00307306
0.00323488
0.00358922
0.0038016
0.00502352
0.00230362
0.00230655
0.00231455
0.00232681
0.00234334
0.00236458
0.00239091
0.00242293
0.00246124
0.00250706
0.00256131
0.00262656
0.00270334
0.00280004
0.00291124
0.00307204
0.00323381
0.00358451
0.00379736
0.00496448
0.00230355
0.00230647
0.00231446
0.00232672
0.00234325
0.00236448
0.0023908
0.0024228
0.0024611
0.00250689
0.0025611
0.0026263
0.00270302
0.00279956
0.00291066
0.00307085
0.00323255
0.00357915
0.0037924
0.00490388
0.00230346
0.00230637
0.00231436
0.00232662
0.00234315
0.00236436
0.00239067
0.00242265
0.00246093
0.00250669
0.00256086
0.00262599
0.00270264
0.002799
0.00290997
0.00306946
0.00323106
0.00357306
0.00378663
0.00484172
0.00230336
0.00230627
0.00231425
0.00232651
0.00234302
0.00236422
0.00239052
0.00242248
0.00246073
0.00250645
0.00256058
0.00262563
0.0027022
0.00279835
0.00290917
0.00306786
0.00322932
0.00356621
0.00377998
0.0047782
0.00230324
0.00230614
0.00231411
0.00232637
0.00234288
0.00236406
0.00239034
0.00242228
0.0024605
0.00250618
0.00256025
0.00262521
0.00270168
0.00279759
0.00290824
0.00306602
0.00322728
0.00355854
0.00377236
0.00471333
0.00230311
0.00230599
0.00231396
0.00232621
0.00234271
0.00236388
0.00239014
0.00242205
0.00246024
0.00250586
0.00255987
0.00262472
0.00270109
0.00279672
0.00290716
0.00306391
0.00322491
0.00354999
0.00376368
0.00464733
0.00230295
0.00230582
0.00231378
0.00232603
0.00234251
0.00236366
0.0023899
0.00242178
0.00245993
0.0025055
0.00255943
0.00262417
0.0027004
0.00279572
0.00290591
0.00306151
0.00322218
0.00354052
0.00375383
0.00458026
0.00230276
0.00230563
0.00231358
0.00232582
0.00234229
0.00236342
0.00238963
0.00242147
0.00245958
0.00250508
0.00255893
0.00262352
0.00269961
0.00279457
0.00290448
0.00305878
0.00321902
0.00353008
0.00374273
0.00451233
0.00230255
0.0023054
0.00231334
0.00232558
0.00234203
0.00236314
0.00238932
0.00242112
0.00245917
0.00250459
0.00255835
0.00262279
0.0026987
0.00279326
0.00290283
0.00305569
0.00321539
0.00351861
0.00373027
0.00444363
0.00230231
0.00230515
0.00231307
0.0023253
0.00234174
0.00236282
0.00238896
0.00242071
0.0024587
0.00250404
0.00255769
0.00262195
0.00269766
0.00279177
0.00290094
0.00305221
0.00321123
0.00350608
0.00371635
0.00437439
0.00230203
0.00230485
0.00231276
0.00232499
0.0023414
0.00236245
0.00238855
0.00242025
0.00245817
0.00250341
0.00255693
0.00262099
0.00269647
0.00279007
0.00289879
0.0030483
0.00320649
0.00349245
0.00370085
0.00430473
0.00230172
0.00230452
0.00231241
0.00232463
0.00234102
0.00236203
0.00238808
0.00241972
0.00245757
0.00250269
0.00255607
0.0026199
0.00269511
0.00278815
0.00289634
0.00304392
0.0032011
0.00347767
0.0036837
0.00423488
0.00230136
0.00230414
0.00231201
0.00232421
0.00234058
0.00236155
0.00238755
0.00241912
0.00245688
0.00250187
0.00255509
0.00261866
0.00269357
0.00278597
0.00289356
0.00303903
0.00319499
0.00346171
0.00366478
0.00416497
0.00230095
0.00230371
0.00231156
0.00232375
0.00234008
0.002361
0.00238695
0.00241844
0.00245609
0.00250095
0.00255397
0.00261726
0.00269182
0.00278352
0.0028904
0.00303359
0.00318808
0.00344455
0.00364403
0.00409522
0.00230048
0.00230322
0.00231104
0.00232321
0.00233951
0.00236038
0.00238626
0.00241766
0.0024552
0.00249989
0.00255271
0.00261567
0.00268984
0.00278076
0.00288683
0.00302755
0.00318031
0.00342616
0.00362134
0.00402578
0.00229994
0.00230266
0.00231046
0.00232261
0.00233887
0.00235968
0.00238548
0.00241678
0.00245419
0.0024987
0.00255128
0.00261388
0.0026876
0.00277766
0.0028828
0.00302086
0.00317159
0.00340652
0.00359668
0.00395683
0.00229934
0.00230203
0.0023098
0.00232192
0.00233814
0.00235889
0.0023846
0.00241579
0.00245305
0.00249735
0.00254967
0.00261186
0.00268507
0.00277418
0.00287827
0.00301348
0.00316185
0.00338562
0.00357
0.0038885
0.00229866
0.00230132
0.00230905
0.00232115
0.00233732
0.00235799
0.00238361
0.00241466
0.00245176
0.00249583
0.00254784
0.00260958
0.00268222
0.00277029
0.00287318
0.00300534
0.00315102
0.00336344
0.00354129
0.00382094
0.00229788
0.00230052
0.00230821
0.00232027
0.00233639
0.00235697
0.00238248
0.00241339
0.0024503
0.00249412
0.00254579
0.00260702
0.00267902
0.00276595
0.00286748
0.00299641
0.003139
0.00333997
0.00351053
0.00375423
0.002297
0.00229961
0.00230726
0.00231929
0.00233534
0.00235583
0.00238121
0.00241196
0.00244866
0.00249219
0.00254347
0.00260415
0.00267542
0.00276111
0.00286112
0.00298661
0.00312575
0.00331521
0.00347778
0.00368849
0.00229601
0.00229859
0.00230619
0.00231817
0.00233416
0.00235454
0.00237978
0.00241035
0.00244681
0.00249001
0.00254088
0.00260094
0.00267139
0.00275572
0.00285403
0.00297591
0.00311118
0.00328916
0.00344307
0.00362376
0.00229489
0.00229744
0.00230498
0.00231691
0.00233282
0.00235309
0.00237817
0.00240854
0.00244474
0.00248758
0.00253796
0.00259734
0.00266689
0.00274974
0.00284616
0.00296423
0.00309524
0.00326182
0.00340651
0.00356009
0.00229362
0.00229614
0.00230363
0.0023155
0.00233132
0.00235145
0.00237636
0.0024065
0.0024424
0.00248484
0.0025347
0.00259332
0.00266186
0.00274312
0.00283744
0.00295152
0.00307788
0.0032332
0.00336817
0.00349749
0.0022922
0.00229468
0.0023021
0.00231391
0.00232963
0.00234962
0.00237433
0.00240422
0.00243979
0.00248178
0.00253104
0.00258884
0.00265627
0.00273579
0.00282782
0.00293773
0.00305906
0.00320329
0.00332821
0.00343595
0.00229059
0.00229304
0.00230039
0.00231212
0.00232773
0.00234755
0.00237205
0.00240166
0.00243686
0.00247836
0.00252696
0.00258385
0.00265005
0.0027277
0.00281723
0.0029228
0.00303874
0.00317213
0.00328675
0.00337546
0.00228879
0.0022912
0.00229848
0.00231011
0.0023256
0.00234524
0.0023695
0.00239879
0.00243358
0.00247453
0.00252242
0.0025783
0.00264316
0.0027188
0.00280562
0.00290668
0.00301692
0.00313972
0.00324396
0.00331598
0.00228676
0.00228914
0.00229633
0.00230786
0.00232321
0.00234265
0.00236664
0.00239558
0.00242991
0.00247027
0.00251735
0.00257214
0.00263553
0.00270902
0.00279292
0.00288932
0.00299358
0.0031061
0.0032
0.00325747
0.00228448
0.00228682
0.00229392
0.00230534
0.00232053
0.00233975
0.00236344
0.00239199
0.00242583
0.00246552
0.00251173
0.00256533
0.00262711
0.0026983
0.00277908
0.00287067
0.00296873
0.0030713
0.00315503
0.0031999
0.00228193
0.00228423
0.00229123
0.00230252
0.00231754
0.0023365
0.00235986
0.00238799
0.00242127
0.00246024
0.00250549
0.0025578
0.00261784
0.00268658
0.00276405
0.0028507
0.00294238
0.00303536
0.00310923
0.00314321
0.00227907
0.00228132
0.00228822
0.00229936
0.00231418
0.00233288
0.00235587
0.00238353
0.0024162
0.00245437
0.00249858
0.00254949
0.00260767
0.00267381
0.00274777
0.00282939
0.00291456
0.00299834
0.00306274
0.00308736
0.00227586
0.00227807
0.00228485
0.00229583
0.00231044
0.00232883
0.00235143
0.00237857
0.00241057
0.00244787
0.00249094
0.00254034
0.00259652
0.00265992
0.00273022
0.0028067
0.00288532
0.00296029
0.00301571
0.0030323
0.00227228
0.00227444
0.00228109
0.0022919
0.00230626
0.00232432
0.00234648
0.00237305
0.00240433
0.00244068
0.00248252
0.0025303
0.00258434
0.00264486
0.00271134
0.00278264
0.0028547
0.00292128
0.00296827
0.00297801
0.00226827
0.00227038
0.0022769
0.00228751
0.0023016
0.0023193
0.00234098
0.00236693
0.00239741
0.00243274
0.00247325
0.0025193
0.00257107
0.00262858
0.00269112
0.00275719
0.00282275
0.00288137
0.00292054
0.00292445
0.0022638
0.00226586
0.00227223
0.00228262
0.00229642
0.00231372
0.00233487
0.00236015
0.00238977
0.00242399
0.00246308
0.00250728
0.00255666
0.00261104
0.00266953
0.00273036
0.00278953
0.00284066
0.00287263
0.00287159
0.00225881
0.00226082
0.00226703
0.00227718
0.00229065
0.00230752
0.0023281
0.00235264
0.00238133
0.00241436
0.00245193
0.00249418
0.00254105
0.00259219
0.00264656
0.00270218
0.00275513
0.00279921
0.00282462
0.00281939
0.00225326
0.00225521
0.00226125
0.00227113
0.00228425
0.00230064
0.00232061
0.00234436
0.00237204
0.00240379
0.00243975
0.00247993
0.00252419
0.002572
0.00262221
0.00267268
0.0027196
0.0027571
0.00277658
0.00276784
0.00224708
0.00224897
0.00225483
0.00226442
0.00227716
0.00229303
0.00231232
0.00233522
0.00236183
0.00239222
0.00242646
0.00246449
0.00250604
0.00255045
0.00259647
0.00264188
0.00268302
0.00271442
0.00272856
0.00271689
0.00224022
0.00224204
0.00224771
0.00225699
0.0022693
0.00228462
0.00230319
0.00232517
0.00235063
0.00237958
0.00241202
0.00244781
0.00248656
0.00252753
0.00256937
0.00260985
0.00264547
0.00267124
0.00268063
0.00266653
0.0022326
0.00223435
0.00223981
0.00224875
0.00226061
0.00227533
0.00229313
0.00231414
0.00233837
0.00236581
0.00239636
0.00242982
0.00246572
0.00250322
0.00254092
0.00257662
0.00260703
0.00262764
0.00263282
0.00261672
0.00222417
0.00222584
0.00223108
0.00223965
0.00225102
0.0022651
0.00228207
0.00230204
0.00232499
0.00235083
0.00237943
0.00241049
0.00244349
0.00247752
0.00251115
0.00254226
0.00256777
0.00258367
0.00258515
0.00256744
0.00221483
0.00221643
0.00222142
0.00222961
0.00224045
0.00225385
0.00226995
0.00228882
0.00231041
0.00233459
0.00236117
0.00238979
0.00241986
0.00245044
0.00248011
0.00250682
0.00252777
0.0025394
0.00253765
0.00251864
0.00220452
0.00220604
0.00221078
0.00221855
0.00222883
0.0022415
0.00225667
0.0022744
0.00229457
0.00231703
0.00234154
0.00236768
0.00239482
0.002422
0.00244783
0.00247037
0.0024871
0.00249488
0.00249032
0.00247029
0.00219315
0.00219458
0.00219905
0.00220639
0.00221607
0.00222797
0.00224218
0.0022587
0.00227741
0.0022981
0.00232049
0.00234413
0.00236836
0.00239222
0.00241436
0.00243298
0.00244582
0.00245016
0.00244318
0.00242237
0.00218064
0.00218198
0.00218617
0.00219304
0.00220209
0.00221319
0.00222639
0.00224166
0.00225886
0.00227775
0.002298
0.00231914
0.0023405
0.00236113
0.00237975
0.00239471
0.00240399
0.00240528
0.00239623
0.00237484
0.00216689
0.00216814
0.00217203
0.00217842
0.00218681
0.00219708
0.00220923
0.00222322
0.00223887
0.00225593
0.00227403
0.0022927
0.00231125
0.00232877
0.00234405
0.00235561
0.00236167
0.00236026
0.00234945
0.00232766
0.00215182
0.00215297
0.00215655
0.00216243
0.00217015
0.00217955
0.00219062
0.0022033
0.00221739
0.0022326
0.00224857
0.0022648
0.00228062
0.00229517
0.00230732
0.00231575
0.00231891
0.00231513
0.00230284
0.0022808
0.00213533
0.00213638
0.00213965
0.00214501
0.00215202
0.00216053
0.0021705
0.00218185
0.00219436
0.00220773
0.00222159
0.00223545
0.00224865
0.00226037
0.00226962
0.00227518
0.00227574
0.00226991
0.00225639
0.00223423
0.00211734
0.00211828
0.00212123
0.00212605
0.00213234
0.00213995
0.00214881
0.00215882
0.00216975
0.00218131
0.0021931
0.00220466
0.00221535
0.00222443
0.00223098
0.00223395
0.00223221
0.0022246
0.00221008
0.0021879
0.00209775
0.00209858
0.0021012
0.00210548
0.00211105
0.00211773
0.00212548
0.00213415
0.00214353
0.0021533
0.00216309
0.00217244
0.00218077
0.00218738
0.00219146
0.0021921
0.00218833
0.0021792
0.00216388
0.00214178
0.00207647
0.00207721
0.00207949
0.00208322
0.00208805
0.00209383
0.00210046
0.00210782
0.00211566
0.0021237
0.00213157
0.00213883
0.00214494
0.00214927
0.00215111
0.00214967
0.00214413
0.00213372
0.00211778
0.00209583
0.00205344
0.00205406
0.00205602
0.0020592
0.0020633
0.00206817
0.00207371
0.00207977
0.00208614
0.00209251
0.00209855
0.00210384
0.00210789
0.00211014
0.00210996
0.00210668
0.00209962
0.00208815
0.00207173
0.00205002
0.00202856
0.00202908
0.00203071
0.00203335
0.00203673
0.00204071
0.00204518
0.00205
0.00205494
0.00205973
0.00206405
0.0020675
0.00206966
0.00207002
0.00206804
0.00206316
0.00205481
0.00204247
0.00202572
0.0020043
0.00200177
0.00200219
0.0020035
0.00200561
0.0020083
0.00201141
0.00201486
0.00201848
0.00202207
0.00202537
0.00202807
0.00202984
0.00203028
0.00202895
0.0020254
0.00201913
0.00200969
0.00199666
0.00197971
0.00195863
0.00197302
0.00197334
0.00197434
0.00197594
0.00197795
0.00198025
0.00198271
0.0019852
0.00198752
0.00198944
0.00199066
0.0019909
0.00198979
0.00198697
0.00198203
0.00197459
0.00196425
0.0019507
0.00193366
0.00191297
0.00194226
0.00194249
0.00194319
0.0019443
0.00194567
0.00194719
0.00194873
0.00195017
0.00195131
0.00195195
0.00195184
0.00195069
0.00194822
0.00194409
0.00193798
0.00192955
0.0019185
0.00190456
0.00188752
0.00186728
0.00190945
0.00190959
0.00191001
0.00191067
0.00191144
0.00191223
0.00191292
0.00191339
0.00191346
0.00191294
0.00191162
0.00190926
0.00190559
0.00190034
0.00189323
0.001884
0.0018724
0.00185821
0.00184127
0.0018215
0.00187458
0.00187464
0.0018748
0.00187503
0.00187526
0.00187538
0.00187529
0.00187487
0.00187398
0.00187243
0.00187005
0.00186662
0.00186193
0.00185573
0.00184781
0.00183795
0.00182593
0.00181161
0.00179486
0.0017756
0.00183764
0.00183762
0.00183755
0.0018374
0.00183712
0.00183664
0.00183585
0.00183465
0.0018329
0.00183046
0.00182715
0.00182282
0.00181726
0.00181029
0.00180172
0.00179137
0.00177909
0.00176474
0.00174823
0.00172952
0.00179865
0.00179856
0.00179828
0.00179778
0.00179706
0.00179604
0.00179463
0.00179275
0.00179026
0.00178704
0.00178296
0.00177787
0.0017716
0.00176401
0.00175494
0.00174425
0.00173182
0.00171755
0.00170136
0.00168322
0.00175762
0.00175747
0.00175701
0.00175621
0.0017551
0.00175362
0.00175168
0.00174921
0.00174609
0.00174223
0.0017375
0.00173179
0.00172497
0.00171691
0.00170748
0.00169658
0.00168412
0.00167
0.00165418
0.00163664
0.00171461
0.00171441
0.00171378
0.00171273
0.00171129
0.00170941
0.00170704
0.00170407
0.00170044
0.00169605
0.00169082
0.00168463
0.00167739
0.00166899
0.00165933
0.00164834
0.00163593
0.00162205
0.00160666
0.00158975
0.00166966
0.00166942
0.00166867
0.0016674
0.00166568
0.00166349
0.00166075
0.00165739
0.00165335
0.00164856
0.00164293
0.00163639
0.00162886
0.00162024
0.00161048
0.0015995
0.00158724
0.00157367
0.00155875
0.00154248
0.00162285
0.00162258
0.00162172
0.00162029
0.00161835
0.00161591
0.00161289
0.00160923
0.00160488
0.00159979
0.00159389
0.00158711
0.0015794
0.00157069
0.00156092
0.00155005
0.00153802
0.00152481
0.00151041
0.0014948
0.00157426
0.00157396
0.00157303
0.00157147
0.00156937
0.00156674
0.00156351
0.00155964
0.00155508
0.00154979
0.00154372
0.00153682
0.00152903
0.00152032
0.00151064
0.00149995
0.00148823
0.00147544
0.00146159
0.00144666
0.00152398
0.00152367
0.00152268
0.00152103
0.00151882
0.00151606
0.0015127
0.00150869
0.00150401
0.00149861
0.00149246
0.00148553
0.00147777
0.00146915
0.00145964
0.00144921
0.00143784
0.00142552
0.00141225
0.00139801
0.00147212
0.00147179
0.00147076
0.00146906
0.00146679
0.00146396
0.00146053
0.00145646
0.00145172
0.0014463
0.00144016
0.00143328
0.00142563
0.00141718
0.00140791
0.0013978
0.00138684
0.00137503
0.00136235
0.00134882
0.00141877
0.00141844
0.0014174
0.00141567
0.00141338
0.00141053
0.00140708
0.00140301
0.00139829
0.00139291
0.00138686
0.0013801
0.00137262
0.00136441
0.00135544
0.00134571
0.00133521
0.00132393
0.00131188
0.00129906
0.00136404
0.00136372
0.00136268
0.00136096
0.00135868
0.00135585
0.00135244
0.00134842
0.00134378
0.00133851
0.0013326
0.00132603
0.00131879
0.00131086
0.00130225
0.00129294
0.00128292
0.0012722
0.00126079
0.00124868
0.00130806
0.00130773
0.00130672
0.00130503
0.00130279
0.00130001
0.00129668
0.00129276
0.00128825
0.00128314
0.00127742
0.00127109
0.00126414
0.00125655
0.00124833
0.00123947
0.00122997
0.00121983
0.00120907
0.00119768
0.00125092
0.0012506
0.00124961
0.00124798
0.0012458
0.00124312
0.00123989
0.00123611
0.00123177
0.00122686
0.00122138
0.00121533
0.0012087
0.00120149
0.00119369
0.00118531
0.00117634
0.0011668
0.00115669
0.00114601
0.00119273
0.00119243
0.00119148
0.0011899
0.00118782
0.00118525
0.00118216
0.00117855
0.0011744
0.00116973
0.00116452
0.00115878
0.00115251
0.00114569
0.00113834
0.00113046
0.00112204
0.0011131
0.00110364
0.00109367
0.00113359
0.0011333
0.0011324
0.0011309
0.00112892
0.00112648
0.00112356
0.00112013
0.00111621
0.0011118
0.00110689
0.00110149
0.00109559
0.00108919
0.0010823
0.00107493
0.00106707
0.00105873
0.00104992
0.00104065
0.00107359
0.00107332
0.00107247
0.00107106
0.0010692
0.0010669
0.00106415
0.00106094
0.00105726
0.00105312
0.00104852
0.00104347
0.00103796
0.001032
0.00102558
0.00101872
0.00101142
0.00100368
0.00099551
0.000986923
0.00101282
0.00101257
0.00101177
0.00101046
0.00100871
0.00100657
0.00100401
0.00100101
0.000997585
0.000993735
0.000989463
0.000984769
0.000979657
0.000974128
0.000968188
0.00096184
0.00095509
0.000947944
0.000940409
0.000932492
0.000951335
0.000951101
0.000950365
0.000949146
0.000947533
0.000945548
0.000943176
0.000940406
0.000937239
0.000933683
0.000929739
0.000925409
0.000920696
0.000915603
0.000910135
0.000904296
0.000898092
0.000891528
0.00088461
0.000877347
0.000889196
0.000888982
0.000888305
0.000887185
0.000885703
0.000883879
0.000881701
0.000879158
0.000876253
0.000872991
0.000869375
0.000865408
0.000861091
0.00085643
0.000851428
0.000846089
0.000840419
0.000834423
0.000828107
0.000821477
0.000826441
0.000826245
0.000825627
0.000824607
0.000823255
0.000821593
0.000819608
0.000817291
0.000814645
0.000811675
0.000808384
0.000804775
0.000800849
0.000796611
0.000792065
0.000787215
0.000782065
0.00077662
0.000770887
0.000764871
0.000763084
0.000762907
0.000762349
0.000761426
0.000760204
0.000758701
0.000756906
0.000754812
0.000752421
0.000749737
0.000746765
0.000743505
0.000739961
0.000736135
0.000732032
0.000727656
0.00072301
0.0007181
0.00071293
0.000707505
0.000699123
0.000698964
0.000698464
0.000697636
0.000696541
0.000695194
0.000693585
0.000691709
0.000689567
0.000687162
0.0006845
0.00068158
0.000678406
0.000674981
0.000671308
0.00066739
0.000663231
0.000658837
0.00065421
0.000649355
0.000634524
0.000634383
0.000633939
0.000633204
0.000632231
0.000631036
0.000629608
0.000627942
0.00062604
0.000623907
0.000621543
0.000618953
0.000616136
0.000613097
0.000609837
0.000606361
0.000602672
0.000598773
0.000594667
0.00059036
0.000569227
0.000569103
0.000568714
0.000568069
0.000567216
0.000566167
0.000564915
0.000563454
0.000561785
0.000559914
0.000557841
0.000555568
0.000553097
0.000550431
0.000547572
0.000544523
0.000541286
0.000537865
0.000534263
0.000530483
0.000503129
0.000503022
0.000502684
0.000502126
0.000501387
0.000500478
0.000499394
0.000498128
0.000496684
0.000495063
0.000493268
0.0004913
0.000489161
0.000486852
0.000484376
0.000481736
0.000478933
0.00047597
0.000472849
0.000469575
0.000436095
0.000436005
0.000435719
0.000435247
0.00043462
0.00043385
0.00043293
0.000431857
0.000430631
0.000429256
0.000427733
0.000426063
0.000424247
0.000422288
0.000420186
0.000417944
0.000415563
0.000413047
0.000410397
0.000407615
0.000367911
0.000367835
0.000367595
0.000367201
0.000366679
0.000366038
0.000365272
0.00036438
0.000363361
0.000362218
0.000360952
0.000359564
0.000358056
0.000356428
0.000354681
0.000352819
0.000350841
0.000348751
0.000346549
0.000344238
0.000298355
0.000298298
0.000298112
0.000297802
0.00029739
0.000296883
0.000296277
0.00029557
0.000294762
0.000293855
0.00029285
0.000291748
0.000290549
0.000289255
0.000287867
0.000286385
0.000284811
0.000283147
0.000281394
0.000279553
0.00022699
0.00022694
0.000226789
0.000226546
0.000226228
0.000225837
0.000225372
0.000224831
0.000224214
0.000223522
0.000222757
0.000221919
0.000221008
0.000220026
0.000218973
0.00021785
0.000216658
0.000215398
0.000214071
0.000212679
0.000153572
0.000153551
0.000153468
0.00015332
0.000153118
0.000152869
0.00015257
0.000152219
0.000151817
0.000151365
0.000150863
0.000150312
0.000149712
0.000149064
0.000148368
0.000147625
0.000146836
0.000146
0.00014512
0.000144195
7.70845e-05
7.70467e-05
7.6969e-05
7.68646e-05
7.67387e-05
7.65899e-05
7.6416e-05
7.62171e-05
7.59937e-05
7.57462e-05
7.54748e-05
7.51796e-05
7.48609e-05
7.45188e-05
7.41537e-05
7.37658e-05
7.33555e-05
7.2923e-05
7.24687e-05
7.19929e-05
0.00547187
0.00351526
0.00222504
0.00239826
0.00262306
0.0023749
0.00212219
0.00195361
0.00181844
0.0017026
0.00160343
0.00151783
0.00144105
0.00137266
0.00131074
0.001254
0.00120176
0.00115289
0.00110736
0.0010646
0.00102418
0.000985675
0.000949199
0.000914529
0.00088132
0.000849384
0.000818857
0.00078967
0.000761703
0.000734488
0.000708339
0.000683175
0.000659115
0.000635358
0.000612124
0.000589552
0.000567794
0.00054663
0.000525761
0.000505342
0.000485416
0.000466314
0.000447432
0.000428967
0.000410843
0.00039372
0.000376927
0.000360437
0.000343975
0.000328308
0.000313071
0.000298173
0.000283384
0.000269005
0.000255064
0.000241432
0.000228141
0.000214951
0.000202114
0.000189531
0.000177243
0.000165107
0.000153279
0.00014172
0.000130334
0.000119297
0.000108599
9.82567e-05
8.81513e-05
7.85361e-05
6.93964e-05
6.07303e-05
5.306e-05
4.53948e-05
4.23348e-05
3.19525e-05
5.04051e-05
1.79453e-06
0.00015206
-0.00022026
0.00552016
0.00313342
0.002258
0.00252367
0.00265614
0.00237375
0.00212018
0.00195443
0.0018205
0.00170494
0.00160577
0.00152007
0.00144315
0.00137462
0.00131256
0.0012557
0.00120334
0.00115436
0.00110874
0.00106589
0.00102539
0.000986815
0.000950276
0.000915548
0.000882287
0.000850304
0.000819733
0.000790506
0.000762502
0.000735252
0.000709071
0.000683878
0.00065979
0.000636008
0.000612751
0.000590156
0.000568377
0.000547193
0.000526306
0.00050587
0.000485928
0.000466811
0.000447913
0.000429435
0.000411298
0.000394161
0.000377355
0.000360854
0.000344382
0.000328703
0.000313456
0.000298548
0.00028375
0.000269362
0.000255412
0.000241772
0.000228473
0.000215275
0.000202432
0.000189841
0.000177547
0.000165406
0.000153575
0.000142015
0.000130631
0.000119599
0.00010891
9.85796e-05
8.84885e-05
7.88884e-05
6.9763e-05
6.11088e-05
5.34463e-05
4.57832e-05
4.27187e-05
3.2327e-05
5.07584e-05
2.15266e-06
0.000152357
-0.000220066
0.00545521
0.00309175
0.00234006
0.00257438
0.00266303
0.00237665
0.00212463
0.00195958
0.00182581
0.00171019
0.0016108
0.0015248
0.00144759
0.00137876
0.00131643
0.00125931
0.00120672
0.00115754
0.00111173
0.00106871
0.00102805
0.000989338
0.000952671
0.000917826
0.000884458
0.000852377
0.000821715
0.000792402
0.00076432
0.000736998
0.00071075
0.000685493
0.000661345
0.000637508
0.0006142
0.000591558
0.000569732
0.000548505
0.000527578
0.000507104
0.000487126
0.000467972
0.000449042
0.000430533
0.000412366
0.000395199
0.000378365
0.000361838
0.000345341
0.000329638
0.000314367
0.000299437
0.000284618
0.000270211
0.000256242
0.000242582
0.000229265
0.000216051
0.000203192
0.000190585
0.000178276
0.000166122
0.000154278
0.000142707
0.000131314
0.000120276
0.000109583
9.92519e-05
8.91629e-05
7.95666e-05
7.0446e-05
6.17962e-05
5.41374e-05
4.64724e-05
4.34068e-05
3.29971e-05
5.14354e-05
2.77094e-06
0.000153097
-0.000219777
0.00540183
0.00313327
0.00238086
0.00257651
0.00266062
0.00238241
0.0021316
0.00196614
0.00183218
0.0017164
0.00161674
0.00153042
0.00145287
0.00138372
0.00132107
0.00126368
0.00121082
0.00116141
0.00111538
0.00107216
0.00103132
0.000992449
0.000955631
0.000920648
0.000887153
0.000854956
0.000824185
0.000794771
0.000766595
0.000739186
0.000712857
0.000687522
0.000663301
0.000639399
0.000616029
0.000593327
0.000571445
0.000550164
0.000529188
0.000508668
0.000488644
0.000469446
0.000450475
0.000431927
0.000413723
0.000396518
0.000379649
0.000363089
0.000346563
0.000330829
0.000315528
0.00030057
0.000285726
0.000271294
0.0002573
0.000243618
0.000230279
0.000217044
0.000204164
0.000191538
0.00017921
0.000167038
0.000155177
0.00014359
0.000132184
0.000121134
0.000110431
0.000100092
8.99992e-05
8.04004e-05
7.12791e-05
6.2629e-05
5.49704e-05
4.73008e-05
4.42321e-05
3.38042e-05
5.22459e-05
3.52906e-06
0.000154017
-0.000219451
0.00535965
0.00315131
0.00239257
0.00257477
0.00265898
0.00238669
0.0021373
0.00197186
0.00183785
0.00172196
0.00162211
0.00153554
0.00145773
0.00138832
0.00132543
0.0012678
0.00121473
0.00116511
0.00111889
0.0010755
0.0010345
0.000995485
0.000958531
0.000923422
0.000889812
0.000857508
0.000826637
0.000797129
0.000768865
0.000741376
0.00071497
0.000689562
0.000665271
0.000641305
0.000617876
0.000595118
0.000573181
0.000551848
0.000530824
0.000510259
0.000490191
0.00047095
0.000451938
0.000433353
0.000415113
0.000397871
0.000380966
0.000364374
0.000347818
0.000332054
0.000316723
0.000301738
0.000286868
0.000272412
0.000258394
0.000244688
0.000231327
0.000218071
0.00020517
0.000192524
0.000180177
0.000167987
0.000156109
0.000144506
0.000133085
0.000122021
0.000111306
0.000100956
9.08545e-05
8.12489e-05
7.21221e-05
6.34677e-05
5.58055e-05
4.81293e-05
4.50537e-05
3.46132e-05
5.30418e-05
4.31297e-06
0.000154932
-0.000219135
0.00531609
0.00315722
0.00240405
0.00257705
0.00265668
0.00238848
0.00214127
0.00197645
0.00184262
0.00172673
0.00162678
0.00154005
0.00146208
0.00139249
0.00132942
0.00127162
0.00121837
0.00116859
0.00112222
0.00107869
0.00103756
0.000998415
0.000961343
0.000926123
0.000892412
0.000860014
0.000829053
0.000799459
0.000771116
0.000743553
0.000717077
0.000691601
0.000667244
0.00064322
0.000619737
0.000596925
0.000574935
0.000553553
0.000532484
0.000511876
0.000491764
0.000472481
0.000453431
0.00043481
0.000416534
0.000399254
0.000382315
0.000365692
0.000349109
0.000333314
0.000317953
0.00030294
0.000288047
0.000273566
0.000259524
0.000245795
0.000232411
0.000219135
0.000206214
0.000193548
0.000181182
0.000168974
0.000157078
0.000145457
0.000134022
0.000122943
0.000112213
0.000101851
9.17393e-05
8.21242e-05
7.29893e-05
6.43279e-05
5.66598e-05
4.89758e-05
4.58892e-05
3.54418e-05
5.38362e-05
5.1426e-06
0.000155834
-0.000218781
0.00526863
0.00316451
0.00241989
0.00258009
0.00265286
0.00238886
0.00214417
0.00198012
0.0018466
0.00173081
0.00163082
0.00154402
0.00146596
0.00139627
0.00133308
0.00127515
0.00122178
0.00117188
0.00112539
0.00108174
0.0010405
0.00100125
0.000964083
0.000928767
0.000894968
0.000862487
0.000831447
0.000801777
0.000773362
0.000745733
0.000719193
0.000693654
0.000669236
0.000645158
0.000621623
0.000598761
0.00057672
0.00055529
0.000534178
0.00051353
0.000493377
0.000474051
0.000454965
0.000436309
0.000417998
0.000400682
0.000383709
0.000367055
0.000350445
0.00033462
0.000319229
0.00030419
0.000289273
0.000274768
0.000260702
0.000246949
0.000233543
0.000220246
0.000207305
0.000194619
0.000182233
0.000170007
0.000158093
0.000146455
0.000135004
0.000123909
0.000113164
0.000102788
9.26645e-05
8.30378e-05
7.3892e-05
6.52212e-05
5.75443e-05
4.98512e-05
4.67485e-05
3.63001e-05
5.46369e-05
6.02973e-06
0.000156712
-0.000218348
0.00521865
0.00317425
0.00243746
0.00258264
0.00264809
0.00238854
0.00214637
0.00198303
0.00184985
0.00173421
0.00163426
0.00154744
0.00146936
0.00139962
0.00133637
0.00127836
0.00122491
0.00117493
0.00112835
0.00108462
0.00104329
0.00100397
0.000966714
0.000931321
0.00089745
0.000864901
0.000833793
0.000804056
0.000775579
0.000747893
0.000721296
0.0006957
0.000671226
0.0006471
0.000623519
0.00060061
0.000578522
0.000557047
0.000535896
0.000515209
0.000495017
0.000475651
0.00045653
0.000437842
0.000419498
0.000402145
0.00038514
0.000368456