/*--------------------------------*- C++ -*----------------------------------*\
| =========                 |                                                 |
| \\      /  F ield         | OpenFOAM: The Open Source CFD Toolbox           |
|  \\    /   O peration     | Version:  v1912                                 |
|   \\  /    A nd           | Website:  www.openfoam.com                      |
|    \\/     M anipulation  |                                                 |
\*---------------------------------------------------------------------------*/
FoamFile
{
    version     2.0;
    format      ascii;
    class       surfaceScalarField;
    location    "200";
    object      phi;
}
// * * * * * * * * * * * * * * * * * * * * * * * * * * * * * * * * * * * * * //

dimensions      [0 3 -1 0 0 0 0];
oriented        oriented;


internalField   nonuniform List<scalar> 
19800
(
2.29239e-07
4.28655e-13
2.29237e-07
1.34904e-12
2.29235e-07
2.33067e-12
2.29232e-07
3.3228e-12
2.29227e-07
4.36662e-12
2.29222e-07
5.50018e-12
2.29215e-07
6.74718e-12
2.29207e-07
8.15099e-12
2.29197e-07
9.72716e-12
2.29186e-07
1.16192e-11
2.29172e-07
1.3811e-11
2.29155e-07
1.66918e-11
2.29135e-07
1.98454e-11
2.2911e-07
2.53094e-11
2.29081e-07
2.95257e-11
2.29034e-07
4.62536e-11
2.28996e-07
3.82621e-11
2.28826e-07
1.70124e-10
2.29072e-07
-2.45298e-10
5.91476e-09
2.23179e-07
2.42236e-07
8.84236e-13
2.42234e-07
2.77639e-12
2.42232e-07
4.79183e-12
2.42228e-07
6.83202e-12
2.42224e-07
8.98037e-12
2.42218e-07
1.13106e-11
2.42211e-07
1.38719e-11
2.42202e-07
1.67539e-11
2.42192e-07
2.00128e-11
2.4218e-07
2.38977e-11
2.42165e-07
2.83994e-11
2.42147e-07
3.4304e-11
2.42126e-07
4.08429e-11
2.421e-07
5.20175e-11
2.42068e-07
6.07728e-11
2.4202e-07
9.47795e-11
2.41979e-07
7.95537e-11
2.41804e-07
3.44626e-10
2.41993e-07
-4.33595e-10
8.3556e-09
2.3968e-07
2.5597e-07
1.3675e-12
2.55968e-07
4.2869e-12
2.55965e-07
7.39499e-12
2.55962e-07
1.05432e-11
2.55957e-07
1.38576e-11
2.55951e-07
1.74536e-11
2.55943e-07
2.14114e-11
2.55934e-07
2.58581e-11
2.55923e-07
3.08721e-11
2.5591e-07
3.68686e-11
2.55895e-07
4.38355e-11
2.55876e-07
5.29411e-11
2.55854e-07
6.30174e-11
2.55826e-07
8.02333e-11
2.55793e-07
9.39118e-11
2.55742e-07
1.46027e-10
2.55697e-07
1.23648e-10
2.5552e-07
5.2211e-10
2.5564e-07
-5.5236e-10
9.49339e-09
2.54517e-07
2.70482e-07
1.87732e-12
2.70481e-07
5.8813e-12
2.70478e-07
1.01421e-11
2.70474e-07
1.44604e-11
2.70469e-07
1.90081e-11
2.70462e-07
2.39399e-11
2.70454e-07
2.93641e-11
2.70445e-07
3.54601e-11
2.70433e-07
4.23571e-11
2.70419e-07
5.05769e-11
2.70403e-07
6.01212e-11
2.70384e-07
7.25954e-11
2.7036e-07
8.64716e-11
2.7033e-07
1.10026e-10
2.70295e-07
1.2886e-10
2.70242e-07
1.99813e-10
2.70193e-07
1.71673e-10
2.70015e-07
6.99996e-10
2.70063e-07
-5.97861e-10
1.01335e-08
2.69513e-07
2.85817e-07
2.41862e-12
2.85816e-07
7.5693e-12
2.85813e-07
1.30485e-11
2.85809e-07
1.86041e-11
2.85803e-07
2.44534e-11
2.85796e-07
3.07985e-11
2.85788e-07
3.7783e-11
2.85778e-07
4.56255e-11
2.85766e-07
5.44793e-11
2.85751e-07
6.50568e-11
2.85734e-07
7.73585e-11
2.85713e-07
9.34001e-11
2.85689e-07
1.11234e-10
2.85657e-07
1.41492e-10
2.8562e-07
1.65965e-10
2.85564e-07
2.56509e-10
2.85511e-07
2.23473e-10
2.85335e-07
8.76367e-10
2.85311e-07
-5.72995e-10
1.03846e-08
2.85052e-07
3.02022e-07
2.98942e-12
3.0202e-07
9.3504e-12
3.02017e-07
1.61145e-11
3.02013e-07
2.29765e-11
3.02007e-07
3.02029e-11
3.02e-07
3.80389e-11
3.01991e-07
4.6659e-11
3.0198e-07
5.63416e-11
3.01968e-07
6.73018e-11
3.01952e-07
8.03597e-11
3.01934e-07
9.5537e-11
3.01912e-07
1.15329e-10
3.01886e-07
1.37428e-10
3.01853e-07
1.74703e-10
3.01814e-07
2.05086e-10
3.01754e-07
3.15844e-10
3.01697e-07
2.80407e-10
3.01524e-07
1.05002e-09
3.01435e-07
-4.82239e-10
1.05525e-08
3.01324e-07
3.19146e-07
3.59634e-12
3.19144e-07
1.12376e-11
3.19141e-07
1.93601e-11
3.19136e-07
2.76038e-11
3.1913e-07
3.62827e-11
3.19122e-07
4.56972e-11
3.19113e-07
5.60608e-11
3.19102e-07
6.76941e-11
3.19088e-07
8.08311e-11
3.19072e-07
9.65227e-11
3.19053e-07
1.14785e-10
3.1903e-07
1.38554e-10
3.19002e-07
1.65075e-10
3.18967e-07
2.09774e-10
3.18925e-07
2.46661e-10
3.18863e-07
3.78276e-10
3.18801e-07
3.42014e-10
3.18631e-07
1.22022e-09
3.18485e-07
-3.35621e-10
1.05745e-08
3.18444e-07
3.3724e-07
4.23584e-12
3.37238e-07
1.32275e-11
3.37235e-07
2.27818e-11
3.3723e-07
3.24842e-11
3.37223e-07
4.27005e-11
3.37215e-07
5.37787e-11
3.37205e-07
6.5967e-11
3.37193e-07
7.9653e-11
3.37179e-07
9.51442e-11
3.37162e-07
1.13603e-10
3.37142e-07
1.35074e-10
3.37117e-07
1.63016e-10
3.37088e-07
1.94323e-10
3.37051e-07
2.46766e-10
3.37007e-07
2.90488e-10
3.36942e-07
4.4345e-10
3.36874e-07
4.09864e-10
3.36707e-07
1.38709e-09
3.36513e-07
-1.38674e-10
1.06249e-08
3.36499e-07
3.5636e-07
4.91636e-12
3.56358e-07
1.53369e-11
3.56355e-07
2.6405e-11
3.5635e-07
3.76503e-11
3.56343e-07
4.94875e-11
3.56334e-07
6.2328e-11
3.56324e-07
7.64629e-11
3.56311e-07
9.23266e-11
3.56296e-07
1.10242e-10
3.56278e-07
1.31641e-10
3.56257e-07
1.56559e-10
3.56231e-07
1.88928e-10
3.562e-07
2.25184e-10
3.56161e-07
2.85817e-10
3.56114e-07
3.37086e-10
3.56046e-07
5.11915e-10
3.55972e-07
4.83106e-10
3.55808e-07
1.55077e-09
3.55574e-07
9.61395e-11
1.0611e-08
3.55564e-07
3.76565e-07
5.63319e-12
3.76563e-07
1.75601e-11
3.76559e-07
3.02231e-11
3.76553e-07
4.30967e-11
3.76546e-07
5.66503e-11
3.76537e-07
7.1347e-11
3.76526e-07
8.75174e-11
3.76513e-07
1.0567e-10
3.76497e-07
1.26216e-10
3.76478e-07
1.507e-10
3.76455e-07
1.792e-10
3.76428e-07
2.16206e-10
3.76395e-07
2.57834e-10
3.76354e-07
3.26982e-10
3.76305e-07
3.86205e-10
3.76234e-07
5.83263e-10
3.76153e-07
5.63406e-10
3.75992e-07
1.71233e-09
3.75725e-07
3.65307e-10
1.06553e-08
3.75707e-07
3.97915e-07
6.39697e-12
3.97912e-07
1.99192e-11
3.97908e-07
3.42685e-11
3.97902e-07
4.88654e-11
3.97895e-07
6.42268e-11
3.97885e-07
8.08917e-11
3.97874e-07
9.9235e-11
3.9786e-07
1.1982e-10
3.97843e-07
1.43061e-10
3.97823e-07
1.70828e-10
3.97799e-07
2.03176e-10
3.9777e-07
2.45111e-10
3.97735e-07
2.92272e-10
3.97692e-07
3.70427e-10
3.9764e-07
4.3842e-10
3.97566e-07
6.58126e-10
3.97478e-07
6.49478e-10
3.97318e-07
1.87228e-09
3.97027e-07
6.56169e-10
1.06631e-08
3.96995e-07
4.20475e-07
7.20102e-12
4.20472e-07
2.24034e-11
4.20468e-07
3.85285e-11
4.20462e-07
5.49429e-11
4.20454e-07
7.22201e-11
4.20444e-07
9.09556e-11
4.20432e-07
1.1157e-10
4.20417e-07
1.34707e-10
4.20399e-07
1.60884e-10
4.20378e-07
1.92089e-10
4.20352e-07
2.28436e-10
4.20322e-07
2.75516e-10
4.20286e-07
3.28707e-10
4.2024e-07
4.16187e-10
4.20185e-07
4.93456e-10
4.20107e-07
7.36076e-10
4.20013e-07
7.43155e-10
4.19853e-07
2.03226e-09
4.19543e-07
9.69429e-10
1.07291e-08
4.19498e-07
4.44314e-07
8.05829e-12
4.44312e-07
2.50408e-11
4.44307e-07
4.30433e-11
4.44301e-07
6.13818e-11
4.44292e-07
8.06755e-11
4.44282e-07
1.01608e-10
4.44269e-07
1.24646e-10
4.44253e-07
1.50498e-10
4.44234e-07
1.79674e-10
4.44212e-07
2.1454e-10
4.44185e-07
2.55181e-10
4.44153e-07
3.07735e-10
4.44114e-07
3.67124e-10
4.44066e-07
4.64463e-10
4.44008e-07
5.51924e-10
4.43927e-07
8.17807e-10
4.43826e-07
8.42769e-10
4.43665e-07
2.19259e-09
4.4334e-07
1.29308e-09
1.07634e-08
4.43283e-07
4.69505e-07
8.96062e-12
4.69502e-07
2.78165e-11
4.69498e-07
4.77952e-11
4.69491e-07
6.8162e-11
4.69482e-07
8.95937e-11
4.69471e-07
1.12835e-10
4.69457e-07
1.38405e-10
4.6944e-07
1.67101e-10
4.6942e-07
1.99555e-10
4.69397e-07
2.38249e-10
4.69369e-07
2.83352e-10
4.69335e-07
3.41607e-10
4.69294e-07
4.07761e-10
4.69243e-07
5.15272e-10
4.69182e-07
6.13532e-10
4.69097e-07
9.02892e-10
4.68989e-07
9.503e-10
4.68827e-07
2.35498e-09
4.68491e-07
1.63189e-09
1.08479e-08
4.68425e-07
4.96124e-07
9.92351e-12
4.96121e-07
3.07665e-11
4.96116e-07
5.28342e-11
4.96109e-07
7.53495e-11
4.961e-07
9.90289e-11
4.96088e-07
1.24723e-10
4.96073e-07
1.52995e-10
4.96056e-07
1.84721e-10
4.96035e-07
2.20508e-10
4.9601e-07
2.63284e-10
4.9598e-07
3.1317e-10
4.95944e-07
3.77499e-10
4.95901e-07
4.50588e-10
4.95848e-07
5.68855e-10
4.95783e-07
6.78886e-10
4.95694e-07
9.92012e-10
4.95579e-07
1.06378e-09
4.95415e-07
2.51912e-09
4.95071e-07
1.97395e-09
1.08999e-08
4.94998e-07
5.24253e-07
1.09367e-11
5.2425e-07
3.38682e-11
5.24244e-07
5.81339e-11
5.24237e-07
8.29121e-11
5.24227e-07
1.08977e-10
5.24214e-07
1.37244e-10
5.24199e-07
1.6834e-10
5.2418e-07
2.03234e-10
5.24158e-07
2.42676e-10
5.24132e-07
2.8971e-10
5.241e-07
3.44573e-10
5.24063e-07
4.15209e-10
5.24017e-07
4.95881e-10
5.23961e-07
6.25199e-10
5.23892e-07
7.47735e-10
5.238e-07
1.08481e-09
5.23677e-07
1.18544e-09
5.23511e-07
2.68676e-09
5.2316e-07
2.32798e-09
1.09926e-08
5.23083e-07
5.53976e-07
1.20182e-11
5.53973e-07
3.71664e-11
5.53967e-07
6.37548e-11
5.53959e-07
9.09308e-11
5.53949e-07
1.19501e-10
5.53935e-07
1.50504e-10
5.53919e-07
1.84609e-10
5.539e-07
2.22882e-10
5.53876e-07
2.66034e-10
5.53848e-07
3.1761e-10
5.53815e-07
3.77798e-10
5.53775e-07
4.55153e-10
5.53728e-07
5.43595e-10
5.53668e-07
6.84582e-10
5.53596e-07
8.2066e-10
5.53499e-07
1.1819e-09
5.5337e-07
1.31309e-09
5.532e-07
2.8568e-09
5.52843e-07
2.68122e-09
1.10507e-08
5.52765e-07
5.85384e-07
1.31562e-11
5.85381e-07
4.0632e-11
5.85375e-07
6.96634e-11
5.85367e-07
9.9363e-11
5.85355e-07
1.30593e-10
5.85341e-07
1.64464e-10
5.85324e-07
2.01717e-10
5.85304e-07
2.43515e-10
5.85279e-07
2.90739e-10
5.8525e-07
3.47045e-10
5.85215e-07
4.12781e-10
5.85173e-07
4.97098e-10
5.85122e-07
5.94031e-10
5.8506e-07
7.46968e-10
5.84983e-07
8.97438e-10
5.84883e-07
1.28299e-09
5.84746e-07
1.44913e-09
5.84572e-07
3.03099e-09
5.84212e-07
3.04503e-09
1.1143e-08
5.84134e-07
6.18574e-07
1.43711e-11
6.1857e-07
4.43205e-11
6.18564e-07
7.59324e-11
6.18555e-07
1.08308e-10
6.18543e-07
1.42329e-10
6.18528e-07
1.7925e-10
6.1851e-07
2.19851e-10
6.18488e-07
2.65414e-10
6.18462e-07
3.16766e-10
6.18431e-07
3.7812e-10
6.18394e-07
4.49769e-10
6.1835e-07
5.41505e-10
6.18297e-07
6.4713e-10
6.18231e-07
8.12673e-10
6.1815e-07
9.78578e-10
6.18046e-07
1.38851e-09
6.17901e-07
1.59124e-09
6.17725e-07
3.20749e-09
6.17361e-07
3.40495e-09
1.12015e-08
6.17285e-07
6.53644e-07
1.56495e-11
6.5364e-07
4.81925e-11
6.53634e-07
8.25179e-11
6.53624e-07
1.17706e-10
6.53612e-07
1.54693e-10
6.53597e-07
1.94807e-10
6.53577e-07
2.38913e-10
6.53554e-07
2.88397e-10
6.53527e-07
3.44284e-10
6.53494e-07
4.10883e-10
6.53455e-07
4.88709e-10
6.53409e-07
5.8811e-10
6.53352e-07
7.03224e-10
6.53284e-07
8.81628e-10
6.53198e-07
1.06396e-09
6.53089e-07
1.4984e-09
6.52937e-07
1.7419e-09
6.52758e-07
3.38836e-09
6.52392e-07
3.77438e-09
1.12889e-08
6.52318e-07
6.90704e-07
1.70138e-11
6.90699e-07
5.23148e-11
6.90693e-07
8.9505e-11
6.90683e-07
1.27676e-10
6.9067e-07
1.67772e-10
6.90653e-07
2.11283e-10
6.90633e-07
2.59113e-10
6.90609e-07
3.12784e-10
6.9058e-07
3.73265e-10
6.90545e-07
4.4546e-10
6.90504e-07
5.29849e-10
6.90455e-07
6.37409e-10
6.90396e-07
7.62242e-10
6.90323e-07
9.5418e-10
6.90233e-07
1.154e-09
6.9012e-07
1.61281e-09
6.89961e-07
1.89869e-09
6.89778e-07
3.57111e-09
6.89411e-07
4.13689e-09
1.13437e-08
6.8934e-07
7.29864e-07
1.84495e-11
7.2986e-07
5.66395e-11
7.29852e-07
9.68411e-11
7.29842e-07
1.38145e-10
7.29828e-07
1.81546e-10
7.29811e-07
2.28608e-10
7.29789e-07
2.8034e-10
7.29764e-07
3.38367e-10
7.29733e-07
4.03891e-10
7.29697e-07
4.81891e-10
7.29653e-07
5.73146e-10
7.29602e-07
6.89124e-10
7.29539e-07
8.24529e-10
7.29464e-07
1.03024e-09
7.29369e-07
1.24864e-09
7.29251e-07
1.73193e-09
7.29084e-07
2.064e-09
7.28899e-07
3.75824e-09
7.28532e-07
4.50724e-09
1.14243e-08
7.28464e-07
7.71244e-07
1.99805e-11
7.7124e-07
6.12455e-11
7.71232e-07
1.04625e-10
7.71221e-07
1.4925e-10
7.71207e-07
1.96114e-10
7.71188e-07
2.46955e-10
7.71166e-07
3.02823e-10
7.71139e-07
3.65498e-10
7.71107e-07
4.36141e-10
7.71068e-07
5.20325e-10
7.71023e-07
6.18848e-10
7.70968e-07
7.43762e-10
7.70902e-07
8.90013e-10
7.70823e-07
1.11016e-09
7.70723e-07
1.34816e-09
7.70601e-07
1.85551e-09
7.70427e-07
2.23538e-09
7.70239e-07
3.94664e-09
7.69874e-07
4.86729e-09
1.1475e-08
7.69808e-07
8.14971e-07
2.15918e-11
8.14966e-07
6.60741e-11
8.14958e-07
1.12793e-10
8.14947e-07
1.60905e-10
8.14931e-07
2.11448e-10
8.14912e-07
2.66236e-10
8.14888e-07
3.26443e-10
8.1486e-07
3.93951e-10
8.14826e-07
4.70192e-10
8.14785e-07
5.60785e-10
8.14737e-07
6.66922e-10
8.1468e-07
8.01051e-10
8.14611e-07
9.59033e-10
8.14527e-07
1.19384e-09
8.14423e-07
1.45262e-09
8.14295e-07
1.98418e-09
8.14115e-07
2.41496e-09
8.13924e-07
4.13945e-09
8.13562e-07
5.23262e-09
1.15482e-08
8.135e-07
8.61177e-07
2.33082e-11
8.61172e-07
7.1216e-11
8.61163e-07
1.21456e-10
8.61151e-07
1.73263e-10
8.61135e-07
2.27661e-10
8.61114e-07
2.86646e-10
8.6109e-07
3.51444e-10
8.6106e-07
4.24101e-10
8.61024e-07
5.06037e-10
8.60981e-07
6.03446e-10
8.6093e-07
7.17614e-10
8.6087e-07
8.61497e-10
8.60798e-07
1.03152e-09
8.6071e-07
1.28165e-09
8.60601e-07
1.56213e-09
8.60468e-07
2.11725e-09
8.60281e-07
2.60021e-09
8.60087e-07
4.33294e-09
8.59731e-07
5.58383e-09
1.15933e-08
8.59672e-07
9.10003e-07
2.51142e-11
9.09997e-07
7.66033e-11
9.09988e-07
1.30543e-10
9.09975e-07
1.86225e-10
9.09958e-07
2.44716e-10
9.09937e-07
3.08083e-10
9.0991e-07
3.77698e-10
9.09879e-07
4.55709e-10
9.09841e-07
5.43848e-10
9.09796e-07
6.48316e-10
9.09743e-07
7.70899e-10
9.0968e-07
9.24835e-10
9.09603e-07
1.10779e-09
9.09512e-07
1.37346e-09
9.09397e-07
1.67682e-09
9.0926e-07
2.25571e-09
9.09066e-07
2.79298e-09
9.0887e-07
4.53088e-09
9.08521e-07
5.93724e-09
1.16586e-08
9.08465e-07
9.61596e-07
2.70352e-11
9.61591e-07
8.23387e-11
9.61581e-07
1.40178e-10
9.61567e-07
1.99961e-10
9.61549e-07
2.62743e-10
9.61527e-07
3.30761e-10
9.61499e-07
4.05467e-10
9.61466e-07
4.89163e-10
9.61426e-07
5.8364e-10
9.61379e-07
6.95587e-10
9.61323e-07
8.27019e-10
9.61256e-07
9.91539e-10
9.61176e-07
1.1878e-09
9.6108e-07
1.46961e-09
9.60961e-07
1.79662e-09
9.60818e-07
2.39835e-09
9.60619e-07
2.99073e-09
9.60421e-07
4.72883e-09
9.6008e-07
6.27288e-09
1.16984e-08
9.60029e-07
1.01612e-06
2.90558e-11
1.01611e-06
8.8344e-11
1.0161e-06
1.50279e-10
1.01608e-06
2.14363e-10
1.01607e-06
2.81692e-10
1.01604e-06
3.54567e-10
1.01601e-06
4.34611e-10
1.01598e-06
5.24228e-10
1.01594e-06
6.25557e-10
1.01589e-06
7.45257e-10
1.01583e-06
8.85947e-10
1.01576e-06
1.06139e-09
1.01567e-06
1.27179e-09
1.01557e-06
1.56999e-09
1.01545e-06
1.92173e-09
1.0153e-06
2.5467e-09
1.0151e-06
3.19484e-09
1.0149e-06
4.93114e-09
1.01457e-06
6.60704e-09
1.17551e-08
1.01452e-06
1.07373e-06
3.12015e-11
1.07372e-06
9.47329e-11
1.07371e-06
1.60982e-10
1.07369e-06
2.29612e-10
1.07367e-06
3.01707e-10
1.07365e-06
3.79731e-10
1.07362e-06
4.65407e-10
1.07358e-06
5.61293e-10
1.07354e-06
6.69643e-10
1.07348e-06
7.97533e-10
1.07342e-06
9.4792e-10
1.07335e-06
1.13482e-09
1.07326e-06
1.35975e-09
1.07316e-06
1.6749e-09
1.07303e-06
2.05186e-09
1.07287e-06
2.69899e-09
1.07266e-06
3.40277e-09
1.07246e-06
5.13271e-09
1.07215e-06
6.91986e-09
1.17879e-08
1.0721e-06
1.1346e-06
3.34568e-11
1.13459e-06
1.01418e-10
1.13458e-06
1.72197e-10
1.13457e-06
2.45591e-10
1.13455e-06
3.22729e-10
1.13452e-06
4.06128e-10
1.13449e-06
4.97705e-10
1.13445e-06
6.00125e-10
1.1344e-06
7.16013e-10
1.13435e-06
8.52393e-10
1.13428e-06
1.01291e-09
1.13421e-06
1.21163e-09
1.13411e-06
1.45185e-09
1.13401e-06
1.78421e-09
1.13387e-06
2.18729e-09
1.13371e-06
2.8571e-09
1.1335e-06
3.61561e-09
1.1333e-06
5.33835e-09
1.13299e-06
7.22781e-09
1.18351e-08
1.13295e-06
1.19893e-06
3.58467e-11
1.19892e-06
1.08522e-10
1.19891e-06
1.84071e-10
1.19889e-06
2.62489e-10
1.19887e-06
3.44917e-10
1.19884e-06
4.33999e-10
1.19881e-06
5.31796e-10
1.19877e-06
6.41098e-10
1.19872e-06
7.64751e-10
1.19866e-06
9.10048e-10
1.19859e-06
1.08114e-09
1.19851e-06
1.29217e-09
1.19842e-06
1.5481e-09
1.1983e-06
1.8981e-09
1.19816e-06
2.32746e-09
1.198e-06
3.01871e-09
1.19779e-06
3.83079e-09
1.19758e-06
5.54219e-09
1.19729e-06
7.51183e-09
1.18604e-08
1.19726e-06
1.2669e-06
3.83566e-11
1.2669e-06
1.1595e-10
1.26688e-06
1.96504e-10
1.26687e-06
2.80187e-10
1.26684e-06
3.68195e-10
1.26681e-06
4.63214e-10
1.26678e-06
5.67514e-10
1.26674e-06
6.84005e-10
1.26668e-06
8.15914e-10
1.26662e-06
9.70472e-10
1.26655e-06
1.15256e-09
1.26647e-06
1.37632e-09
1.26637e-06
1.64856e-09
1.26625e-06
2.01653e-09
1.26611e-06
2.47276e-09
1.26594e-06
3.18607e-09
1.26572e-06
4.04907e-09
1.26552e-06
5.74933e-09
1.26524e-06
7.78776e-09
1.18966e-08
1.26521e-06
1.33873e-06
4.10108e-11
1.33873e-06
1.23835e-10
1.33871e-06
2.09653e-10
1.33869e-06
2.98881e-10
1.33867e-06
3.92739e-10
1.33864e-06
4.94022e-10
1.3386e-06
6.05161e-10
1.33856e-06
7.29201e-10
1.3385e-06
8.69624e-10
1.33844e-06
1.03387e-09
1.33836e-06
1.22739e-09
1.33828e-06
1.46433e-09
1.33817e-06
1.75325e-09
1.33805e-06
2.13952e-09
1.3379e-06
2.62228e-09
1.33773e-06
3.35636e-09
1.33751e-06
4.26778e-09
1.33731e-06
5.95324e-09
1.33705e-06
8.03781e-09
1.19118e-08
1.33703e-06
1.41463e-06
4.37947e-11
1.41463e-06
1.32069e-10
1.41461e-06
2.2341e-10
1.41459e-06
3.18444e-10
1.41457e-06
4.18456e-10
1.41453e-06
5.26282e-10
1.4145e-06
6.4456e-10
1.41445e-06
7.76481e-10
1.41439e-06
9.25892e-10
1.41433e-06
1.10019e-09
1.41425e-06
1.30555e-09
1.41416e-06
1.55609e-09
1.41405e-06
1.86214e-09
1.41392e-06
2.26701e-09
1.41377e-06
2.77657e-09
1.41359e-06
3.53195e-09
1.41337e-06
4.48771e-09
1.41317e-06
6.15913e-09
1.41293e-06
8.27765e-09
1.19351e-08
1.41292e-06
1.49484e-06
4.67313e-11
1.49483e-06
1.40793e-10
1.49482e-06
2.37941e-10
1.4948e-06
3.39068e-10
1.49477e-06
4.45537e-10
1.49473e-06
5.60234e-10
1.49469e-06
6.86017e-10
1.49464e-06
8.26158e-10
1.49458e-06
9.8488e-10
1.49452e-06
1.16961e-09
1.49443e-06
1.38724e-09
1.49434e-06
1.65172e-09
1.49423e-06
1.97526e-09
1.49409e-06
2.39879e-09
1.49394e-06
2.93441e-09
1.49376e-06
3.70953e-09
1.49354e-06
4.70616e-09
1.49334e-06
6.35993e-09
1.49312e-06
8.49138e-09
1.19386e-08
1.49311e-06
1.57959e-06
4.98079e-11
1.57958e-06
1.49897e-10
1.57957e-06
2.53128e-10
1.57954e-06
3.60639e-10
1.57952e-06
4.73869e-10
1.57948e-06
5.95754e-10
1.57944e-06
7.29337e-10
1.57939e-06
8.78083e-10
1.57932e-06
1.04651e-09
1.57925e-06
1.2421e-09
1.57917e-06
1.47233e-09
1.57907e-06
1.75122e-09
1.57895e-06
2.09241e-09
1.57881e-06
2.53494e-09
1.57865e-06
3.09633e-09
1.57847e-06
3.89162e-09
1.57826e-06
4.92362e-09
1.57806e-06
6.56076e-09
1.57786e-06
8.69314e-09
1.19467e-08
1.57786e-06
1.66915e-06
5.30451e-11
1.66914e-06
1.59524e-10
1.66912e-06
2.69144e-10
1.6691e-06
3.83341e-10
1.66907e-06
5.03654e-10
1.66903e-06
6.33065e-10
1.66899e-06
7.74819e-10
1.66893e-06
9.32503e-10
1.66887e-06
1.11098e-09
1.66879e-06
1.31776e-09
1.6687e-06
1.56097e-09
1.6686e-06
1.8545e-09
1.66848e-06
2.21354e-09
1.66834e-06
2.67488e-09
1.66818e-06
3.26077e-09
1.66799e-06
4.07431e-09
1.66778e-06
5.13741e-09
1.66759e-06
6.7541e-09
1.66741e-06
8.86906e-09
1.19354e-08
1.66741e-06
1.76378e-06
5.64311e-11
1.76377e-06
1.69553e-10
1.76376e-06
2.85858e-10
1.76373e-06
4.07049e-10
1.7637e-06
5.34757e-10
1.76366e-06
6.72028e-10
1.76361e-06
8.22258e-10
1.76356e-06
9.89275e-10
1.76349e-06
1.17816e-09
1.76341e-06
1.39655e-09
1.76332e-06
1.65301e-09
1.76321e-06
1.96162e-09
1.76309e-06
2.33845e-09
1.76295e-06
2.81882e-09
1.76278e-06
3.4285e-09
1.76259e-06
4.26033e-09
1.76238e-06
5.34837e-09
1.76219e-06
6.94523e-09
1.76203e-06
9.03284e-09
1.19264e-08
1.76204e-06
1.86378e-06
5.99835e-11
1.86377e-06
1.80128e-10
1.86375e-06
3.03439e-10
1.86373e-06
4.31941e-10
1.8637e-06
5.67372e-10
1.86366e-06
7.1285e-10
1.86361e-06
8.71915e-10
1.86355e-06
1.04859e-09
1.86348e-06
1.2482e-09
1.8634e-06
1.4785e-09
1.8633e-06
1.74848e-09
1.86319e-06
2.07227e-09
1.86306e-06
2.46687e-09
1.86292e-06
2.96577e-09
1.86275e-06
3.59751e-09
1.86256e-06
4.4453e-09
1.86235e-06
5.55356e-09
1.86217e-06
7.12656e-09
1.86203e-06
9.17244e-09
1.18994e-08
1.86205e-06
1.96945e-06
6.36919e-11
1.96944e-06
1.91124e-10
1.96942e-06
3.21757e-10
1.9694e-06
4.57887e-10
1.96936e-06
6.01364e-10
1.96932e-06
7.55383e-10
1.96927e-06
9.23603e-10
1.96921e-06
1.11032e-09
1.96913e-06
1.32098e-09
1.96905e-06
1.56356e-09
1.96895e-06
1.84729e-09
1.96884e-06
2.18654e-09
1.96871e-06
2.59869e-09
1.96856e-06
3.11608e-09
1.96838e-06
3.7688e-09
1.9682e-06
4.63194e-09
1.968e-06
5.75424e-09
1.96782e-06
7.3032e-09
1.9677e-06
9.30027e-09
1.18725e-08
1.96773e-06
2.08111e-06
6.75697e-11
2.0811e-06
2.0268e-10
2.08108e-06
3.40967e-10
2.08106e-06
4.85049e-10
2.08102e-06
6.36904e-10
2.08098e-06
7.99802e-10
2.08092e-06
9.77522e-10
2.08086e-06
1.17456e-09
2.08078e-06
1.39657e-09
2.08069e-06
1.65163e-09
2.08059e-06
1.94927e-09
2.08047e-06
2.30388e-09
2.08034e-06
2.73334e-09
2.08019e-06
3.26827e-09
2.08002e-06
3.93995e-09
2.07983e-06
4.8155e-09
2.07964e-06
5.94723e-09
2.07947e-06
7.46775e-09
2.07936e-06
9.40599e-09
1.18289e-08
2.0794e-06
2.1991e-06
7.1608e-11
2.19909e-06
2.14666e-10
2.19907e-06
3.60936e-10
2.19904e-06
5.1329e-10
2.19901e-06
6.73847e-10
2.19896e-06
8.4595e-10
2.19891e-06
1.03349e-09
2.19884e-06
1.24119e-09
2.19876e-06
1.47483e-09
2.19867e-06
1.74266e-09
2.19856e-06
2.05436e-09
2.19844e-06
2.42444e-09
2.19831e-06
2.87079e-09
2.19815e-06
3.42291e-09
2.19798e-06
4.11209e-09
2.1978e-06
4.99886e-09
2.19761e-06
6.13419e-09
2.19746e-06
7.62546e-09
2.19736e-06
9.50075e-09
1.17845e-08
2.19741e-06
2.32379e-06
7.58148e-11
2.32377e-06
2.2721e-10
2.32375e-06
3.81793e-10
2.32372e-06
5.4275e-10
2.32368e-06
7.12323e-10
2.32364e-06
8.9396e-10
2.32358e-06
1.09161e-09
2.32351e-06
1.31025e-09
2.32343e-06
1.55572e-09
2.32334e-06
1.83645e-09
2.32323e-06
2.16216e-09
2.3231e-06
2.54746e-09
2.32296e-06
3.01009e-09
2.32281e-06
3.57815e-09
2.32264e-06
4.28244e-09
2.32246e-06
5.17715e-09
2.32228e-06
6.31166e-09
2.32214e-06
7.76949e-09
2.32206e-06
9.57575e-09
1.17255e-08
2.32211e-06
2.45554e-06
8.01822e-11
2.45552e-06
2.40184e-10
2.4555e-06
4.03414e-10
2.45547e-06
5.73282e-10
2.45543e-06
7.52194e-10
2.45538e-06
9.43655e-10
2.45532e-06
1.15173e-09
2.45525e-06
1.38156e-09
2.45517e-06
1.63911e-09
2.45507e-06
1.93287e-09
2.45496e-06
2.27267e-09
2.45483e-06
2.673e-09
2.45469e-06
3.15136e-09
2.45454e-06
3.73453e-09
2.45437e-06
4.45227e-09
2.45419e-06
5.35305e-09
2.45402e-06
6.48176e-09
2.45389e-06
7.90481e-09
2.45383e-06
9.64057e-09
1.16648e-08
2.45389e-06
2.59476e-06
8.47121e-11
2.59474e-06
2.53694e-10
2.59472e-06
4.25892e-10
2.59469e-06
6.0499e-10
2.59465e-06
7.93528e-10
2.5946e-06
9.9511e-10
2.59453e-06
1.21386e-09
2.59446e-06
1.45508e-09
2.59437e-06
1.72481e-09
2.59428e-06
2.0316e-09
2.59416e-06
2.38526e-09
2.59404e-06
2.80012e-09
2.59389e-06
3.29329e-09
2.59374e-06
3.88999e-09
2.59357e-06
4.61858e-09
2.5934e-06
5.52193e-09
2.59324e-06
6.64089e-09
2.59312e-06
8.02549e-09
2.59307e-06
9.68795e-09
1.15918e-08
2.59314e-06
2.74187e-06
8.9397e-11
2.74185e-06
2.67621e-10
2.74183e-06
4.49107e-10
2.7418e-06
6.37724e-10
2.74176e-06
8.36189e-10
2.7417e-06
1.04814e-09
2.74164e-06
1.27782e-09
2.74156e-06
1.5306e-09
2.74148e-06
1.81266e-09
2.74138e-06
2.13247e-09
2.74126e-06
2.49988e-09
2.74113e-06
2.92885e-09
2.74099e-06
3.43601e-09
2.74084e-06
4.04502e-09
2.74067e-06
4.7825e-09
2.74051e-06
5.68616e-09
2.74036e-06
6.79121e-09
2.74025e-06
8.136e-09
2.74021e-06
9.72547e-09
1.15164e-08
2.74029e-06
2.89732e-06
9.42318e-11
2.89731e-06
2.82038e-10
2.89728e-06
4.73108e-10
2.89725e-06
6.71536e-10
2.89721e-06
8.80172e-10
2.89715e-06
1.10273e-09
2.89709e-06
1.34351e-09
2.89701e-06
1.60797e-09
2.89692e-06
1.90233e-09
2.89682e-06
2.235e-09
2.8967e-06
2.61572e-09
2.89657e-06
3.05805e-09
2.89643e-06
3.57797e-09
2.89628e-06
4.19743e-09
2.89612e-06
4.9411e-09
2.89596e-06
5.8416e-09
2.89582e-06
6.92933e-09
2.89573e-06
8.23152e-09
2.8957e-06
9.74752e-09
1.14307e-08
2.89579e-06
3.06159e-06
9.92079e-11
3.06157e-06
2.9684e-10
3.06155e-06
4.97781e-10
3.06152e-06
7.06273e-10
3.06147e-06
9.25329e-10
3.06141e-06
1.15869e-09
3.06135e-06
1.41074e-09
3.06127e-06
1.68695e-09
3.06118e-06
1.99361e-09
3.06107e-06
2.33895e-09
3.06096e-06
2.73264e-09
3.06083e-06
3.18763e-09
3.06069e-06
3.71922e-09
3.06054e-06
4.34759e-09
3.06038e-06
5.09524e-09
3.06024e-06
5.99019e-09
3.06011e-06
7.05728e-09
3.06003e-06
8.31585e-09
3.06001e-06
9.75978e-09
1.1342e-08
3.0601e-06
3.23517e-06
1.04313e-10
3.23516e-06
3.12057e-10
3.23513e-06
5.23121e-10
3.23509e-06
7.41916e-10
3.23505e-06
9.71578e-10
3.23499e-06
1.2159e-09
3.23492e-06
1.47929e-09
3.23484e-06
1.76724e-09
3.23475e-06
2.08601e-09
3.23465e-06
2.44368e-09
3.23453e-06
2.84966e-09
3.2344e-06
3.31633e-09
3.23426e-06
3.8581e-09
3.23412e-06
4.49332e-09
3.23397e-06
5.24223e-09
3.23383e-06
6.12842e-09
3.23371e-06
7.1721e-09
3.23364e-06
8.38531e-09
3.23364e-06
9.75819e-09
1.12447e-08
3.23374e-06
3.41859e-06
1.09535e-10
3.41858e-06
3.27595e-10
3.41855e-06
5.49012e-10
3.41852e-06
7.78306e-10
3.41847e-06
1.01874e-09
3.41841e-06
1.27413e-09
3.41834e-06
1.54892e-09
3.41826e-06
1.84854e-09
3.41817e-06
2.17925e-09
3.41806e-06
2.54886e-09
3.41794e-06
2.96654e-09
3.41782e-06
3.44392e-09
3.41768e-06
3.9945e-09
3.41754e-06
4.63479e-09
3.4174e-06
5.38269e-09
3.41727e-06
6.25778e-09
3.41717e-06
7.27558e-09
3.41711e-06
8.44294e-09
3.41712e-06
9.74687e-09
1.11437e-08
3.41723e-06
3.61241e-06
1.14853e-10
3.6124e-06
3.43437e-10
3.61237e-06
5.75392e-10
3.61234e-06
8.15345e-10
3.61229e-06
1.06666e-09
3.61223e-06
1.33316e-09
3.61216e-06
1.61929e-09
3.61208e-06
1.93042e-09
3.61198e-06
2.27271e-09
3.61188e-06
2.6537e-09
3.61176e-06
3.0822e-09
3.61164e-06
3.56906e-09
3.61151e-06
4.12677e-09
3.61137e-06
4.76998e-09
3.61124e-06
5.51427e-09
3.61112e-06
6.37552e-09
3.61103e-06
7.36536e-09
3.61099e-06
8.48614e-09
3.61101e-06
9.72306e-09
1.10354e-08
3.61112e-06
3.81723e-06
1.20249e-10
3.81721e-06
3.59498e-10
3.81718e-06
6.02134e-10
3.81715e-06
8.52855e-10
3.8171e-06
1.11511e-09
3.81704e-06
1.39271e-09
3.81697e-06
1.69009e-09
3.81688e-06
2.0125e-09
3.81679e-06
2.36599e-09
3.81669e-06
2.75776e-09
3.81657e-06
3.19622e-09
3.81645e-06
3.69138e-09
3.81632e-06
4.25464e-09
3.8162e-06
4.89887e-09
3.81607e-06
5.63735e-09
3.81597e-06
6.48269e-09
3.81589e-06
7.44291e-09
3.81586e-06
8.51723e-09
3.81589e-06
9.68966e-09
1.0923e-08
3.81601e-06
4.03365e-06
1.25697e-10
4.03363e-06
3.75712e-10
4.0336e-06
6.29119e-10
4.03357e-06
8.90659e-10
4.03352e-06
1.16383e-09
4.03346e-06
1.45245e-09
4.03339e-06
1.76086e-09
4.03331e-06
2.09421e-09
4.03321e-06
2.45836e-09
4.03311e-06
2.86015e-09
4.033e-06
3.30747e-09
4.03288e-06
3.80953e-09
4.03276e-06
4.37654e-09
4.03264e-06
5.01968e-09
4.03253e-06
5.75002e-09
4.03243e-06
6.57727e-09
4.03237e-06
7.50655e-09
4.03235e-06
8.53453e-09
4.0324e-06
9.64493e-09
1.08041e-08
4.03251e-06
4.26234e-06
1.31168e-10
4.26232e-06
3.91992e-10
4.2623e-06
6.56199e-10
4.26226e-06
9.28548e-10
4.26221e-06
1.21257e-09
4.26215e-06
1.51204e-09
4.26208e-06
1.83123e-09
4.262e-06
2.17511e-09
4.26191e-06
2.54931e-09
4.26181e-06
2.9603e-09
4.2617e-06
3.41542e-09
4.26159e-06
3.92299e-09
4.26147e-06
4.49209e-09
4.26136e-06
5.13224e-09
4.26126e-06
5.85247e-09
4.26118e-06
6.65997e-09
4.26113e-06
7.55738e-09
4.26112e-06
8.53971e-09
4.26118e-06
9.59081e-09
1.06806e-08
4.2613e-06
4.504e-06
1.36629e-10
4.50398e-06
4.08231e-10
4.50396e-06
6.83197e-10
4.50392e-06
9.66268e-10
4.50387e-06
1.26098e-09
4.50381e-06
1.57105e-09
4.50374e-06
1.90063e-09
4.50366e-06
2.2545e-09
4.50357e-06
2.63803e-09
4.50348e-06
3.05725e-09
4.50337e-06
3.51892e-09
4.50327e-06
4.03049e-09
4.50316e-06
4.59989e-09
4.50306e-06
5.23509e-09
4.50297e-06
5.94326e-09
4.5029e-06
6.72945e-09
4.50286e-06
7.59436e-09
4.50287e-06
8.53183e-09
4.50293e-06
9.52633e-09
1.05512e-08
4.50306e-06
4.75936e-06
1.42042e-10
4.75934e-06
4.24331e-10
4.75932e-06
7.09941e-10
4.75928e-06
1.00357e-09
4.75923e-06
1.30874e-09
4.75917e-06
1.62907e-09
4.75911e-06
1.96858e-09
4.75903e-06
2.33184e-09
4.75894e-06
2.7239e-09
4.75885e-06
3.15035e-09
4.75875e-06
3.61733e-09
4.75865e-06
4.13142e-09
4.75855e-06
4.69944e-09
4.75846e-06
5.32794e-09
4.75838e-06
6.02243e-09
4.75832e-06
6.78615e-09
4.7583e-06
7.61829e-09
4.75832e-06
8.51202e-09
4.75839e-06
9.45273e-09
1.0417e-08
4.75853e-06
5.0292e-06
1.47368e-10
5.02918e-06
4.4015e-10
5.02916e-06
7.36202e-10
5.02912e-06
1.04013e-09
5.02907e-06
1.35542e-09
5.02902e-06
1.68558e-09
5.02895e-06
2.03446e-09
5.02888e-06
2.40638e-09
5.02879e-06
2.80606e-09
5.02871e-06
3.23862e-09
5.02861e-06
3.70957e-09
5.02852e-06
4.22464e-09
5.02843e-06
4.7896e-09
5.02835e-06
5.4097e-09
5.02828e-06
6.089e-09
5.02824e-06
6.82929e-09
5.02823e-06
7.62863e-09
5.02826e-06
8.4799e-09
5.02834e-06
9.36955e-09
1.02772e-08
5.02848e-06
5.31434e-06
1.52556e-10
5.31432e-06
4.55574e-10
5.3143e-06
7.61776e-10
5.31426e-06
1.07567e-09
5.31421e-06
1.40065e-09
5.31416e-06
1.74011e-09
5.3141e-06
2.09771e-09
5.31403e-06
2.47749e-09
5.31395e-06
2.88382e-09
5.31387e-06
3.32134e-09
5.31378e-06
3.79492e-09
5.3137e-06
4.3095e-09
5.31362e-06
4.86983e-09
5.31355e-06
5.48005e-09
5.31349e-06
6.14295e-09
5.31346e-06
6.85915e-09
5.31346e-06
7.62595e-09
5.31351e-06
8.43621e-09
5.3136e-06
9.27757e-09
1.01323e-08
5.31374e-06
5.61564e-06
1.57566e-10
5.61562e-06
4.70439e-10
5.6156e-06
7.86399e-10
5.61557e-06
1.10981e-09
5.61552e-06
1.44397e-09
5.61547e-06
1.7921e-09
5.61541e-06
2.15767e-09
5.61534e-06
2.54442e-09
5.61527e-06
2.95635e-09
5.6152e-06
3.39761e-09
5.61512e-06
3.87245e-09
5.61504e-06
4.38505e-09
5.61497e-06
4.93929e-09
5.61491e-06
5.53824e-09
5.61487e-06
6.18371e-09
5.61486e-06
6.87541e-09
5.61487e-06
7.61012e-09
5.61493e-06
8.38092e-09
5.61503e-06
9.17666e-09
9.98208e-09
5.61518e-06
5.93403e-06
1.62337e-10
5.93401e-06
4.84608e-10
5.93399e-06
8.09839e-10
5.93396e-06
1.14222e-09
5.93391e-06
1.48493e-09
5.93387e-06
1.84103e-09
5.93381e-06
2.21372e-09
5.93375e-06
2.60648e-09
5.93368e-06
3.0229e-09
5.93361e-06
3.46667e-09
5.93354e-06
3.94144e-09
5.93348e-06
4.45068e-09
5.93342e-06
4.99746e-09
5.93337e-06
5.584e-09
5.93335e-06
6.21125e-09
5.93334e-06
6.87826e-09
5.93337e-06
7.58155e-09
5.93344e-06
8.31454e-09
5.93355e-06
9.06729e-09
9.82668e-09
5.9337e-06
6.27046e-06
1.66826e-10
6.27045e-06
4.97912e-10
6.27043e-06
8.31815e-10
6.2704e-06
1.17252e-09
6.27036e-06
1.52307e-09
6.27031e-06
1.88631e-09
6.27026e-06
2.26522e-09
6.27021e-06
2.66295e-09
6.27015e-06
3.08273e-09
6.27009e-06
3.52775e-09
6.27003e-06
4.00113e-09
6.26997e-06
4.50569e-09
6.26993e-06
5.04378e-09
6.26989e-06
5.6169e-09
6.26988e-06
6.22535e-09
6.26989e-06
6.8677e-09
6.26993e-06
7.54037e-09
6.27001e-06
8.23725e-09
6.27012e-06
8.94953e-09
9.66601e-09
6.27029e-06
6.62598e-06
1.70967e-10
6.62596e-06
5.10197e-10
6.62594e-06
8.52076e-10
6.62592e-06
1.20036e-09