/*--------------------------------*- C++ -*----------------------------------*\
| =========                 |                                                 |
| \\      /  F ield         | OpenFOAM: The Open Source CFD Toolbox           |
|  \\    /   O peration     | Version:  v1912                                 |
|   \\  /    A nd           | Website:  www.openfoam.com                      |
|    \\/     M anipulation  |                                                 |
\*---------------------------------------------------------------------------*/
FoamFile
{
    version     2.0;
    format      ascii;
    class       volVectorField;
    location    "200";
    object      U;
}
// * * * * * * * * * * * * * * * * * * * * * * * * * * * * * * * * * * * * * //

dimensions      [0 1 -1 0 0 0 0];


internalField   nonuniform List<vector> 
10000
(
(1 2.15285e-08 0)
(0.999996 6.75553e-08 0)
(0.999988 1.1664e-07 0)
(0.999976 1.66223e-07 0)
(0.999959 2.18455e-07 0)
(0.999937 2.75107e-07 0)
(0.999911 3.37315e-07 0)
(0.999879 4.07312e-07 0)
(0.99984 4.86957e-07 0)
(0.999794 5.81261e-07 0)
(0.999738 6.90299e-07 0)
(0.999673 8.33844e-07 0)
(0.999593 9.93583e-07 0)
(0.9995 1.26597e-06 0)
(0.999372 1.47364e-06 0)
(0.999244 2.3079e-06 0)
(0.998968 1.92745e-06 0)
(0.998912 8.56178e-06 0)
(0.997467 -1.35448e-05 0)
(1.0011 0.00071558 0)
(1 6.58544e-08 0)
(0.999996 2.06519e-07 0)
(0.999988 3.56436e-07 0)
(0.999976 5.0808e-07 0)
(0.999959 6.67676e-07 0)
(0.999937 8.40941e-07 0)
(0.999911 1.03158e-06 0)
(0.999879 1.24615e-06 0)
(0.99984 1.48708e-06 0)
(0.999794 1.77639e-06 0)
(0.999738 2.11182e-06 0)
(0.999673 2.55205e-06 0)
(0.999593 3.03444e-06 0)
(0.9995 3.86874e-06 0)
(0.999372 4.51941e-06 0)
(0.999244 7.06819e-06 0)
(0.998968 5.85988e-06 0)
(0.998909 2.59024e-05 0)
(0.997503 -3.59254e-05 0)
(1.00052 0.000593313 0)
(1 1.12642e-07 0)
(0.999996 3.53232e-07 0)
(0.999988 6.09448e-07 0)
(0.999976 8.68864e-07 0)
(0.999959 1.14201e-06 0)
(0.999937 1.43833e-06 0)
(0.999911 1.76429e-06 0)
(0.999879 2.13074e-06 0)
(0.99984 2.54447e-06 0)
(0.999794 3.03856e-06 0)
(0.999739 3.61193e-06 0)
(0.999673 4.36259e-06 0)
(0.999593 5.19336e-06 0)
(0.9995 6.61364e-06 0)
(0.999372 7.73337e-06 0)
(0.999244 1.20468e-05 0)
(0.998969 1.01387e-05 0)
(0.998905 4.35603e-05 0)
(0.997556 -5.14342e-05 0)
(0.999892 0.000914821 0)
(1 1.62297e-07 0)
(0.999996 5.08479e-07 0)
(0.999988 8.76952e-07 0)
(0.999976 1.25028e-06 0)
(0.999959 1.64339e-06 0)
(0.999937 2.06979e-06 0)
(0.999911 2.53891e-06 0)
(0.999879 3.06606e-06 0)
(0.99984 3.66164e-06 0)
(0.999794 4.37248e-06 0)
(0.999739 5.19804e-06 0)
(0.999673 6.27717e-06 0)
(0.999593 7.47475e-06 0)
(0.9995 9.51392e-06 0)
(0.999372 1.11379e-05 0)
(0.999243 1.72992e-05 0)
(0.99897 1.47374e-05 0)
(0.998897 6.13711e-05 0)
(0.997626 -5.9417e-05 0)
(0.999302 0.00100192 0)
(1 2.14872e-07 0)
(0.999996 6.72617e-07 0)
(0.999988 1.15964e-06 0)
(0.999976 1.65334e-06 0)
(0.999959 2.1732e-06 0)
(0.999937 2.73706e-06 0)
(0.999911 3.35748e-06 0)
(0.999879 4.05443e-06 0)
(0.99984 4.84208e-06 0)
(0.999794 5.78197e-06 0)
(0.999739 6.8742e-06 0)
(0.999673 8.30015e-06 0)
(0.999593 9.88575e-06 0)
(0.9995 1.25771e-05 0)
(0.999372 1.47402e-05 0)
(0.999243 2.28252e-05 0)
(0.998972 1.97219e-05 0)
(0.998888 7.91201e-05 0)
(0.997706 -6.01785e-05 0)
(0.998787 0.00103264 0)
(1 2.70499e-07 0)
(0.999996 8.46101e-07 0)
(0.999988 1.4583e-06 0)
(0.999976 2.07918e-06 0)
(0.999959 2.73298e-06 0)
(0.999938 3.44206e-06 0)
(0.999911 4.22231e-06 0)
(0.999879 5.09862e-06 0)
(0.99984 6.08934e-06 0)
(0.999794 7.27117e-06 0)
(0.999739 8.64515e-06 0)
(0.999673 1.04371e-05 0)
(0.999593 1.24336e-05 0)
(0.9995 1.58114e-05 0)
(0.999372 1.85517e-05 0)
(0.999243 2.86299e-05 0)
(0.998974 2.51508e-05 0)
(0.998877 9.66425e-05 0)
(0.997789 -5.41275e-05 0)
(0.998363 0.00104807 0)
(1 3.29398e-07 0)
(0.999996 1.02952e-06 0)
(0.999988 1.77389e-06 0)
(0.999976 2.52918e-06 0)
(0.999959 3.32446e-06 0)
(0.999938 4.187e-06 0)
(0.999911 5.13618e-06 0)
(0.999879 6.20202e-06 0)
(0.99984 7.40702e-06 0)
(0.999794 8.84455e-06 0)
(0.999739 1.05164e-05 0)
(0.999674 1.26947e-05 0)
(0.999593 1.51258e-05 0)
(0.9995 1.92258e-05 0)
(0.999373 2.2586e-05 0)
(0.999243 3.47203e-05 0)
(0.998977 3.10744e-05 0)
(0.998866 0.00011384 0)
(0.997872 -4.19715e-05 0)
(0.998032 0.00105642 0)
(1 3.91744e-07 0)
(0.999996 1.22341e-06 0)
(0.999988 2.1073e-06 0)
(0.999976 3.00462e-06 0)
(0.999959 3.94939e-06 0)
(0.999938 4.97406e-06 0)
(0.999911 6.10169e-06 0)
(0.999879 7.36773e-06 0)
(0.99984 8.79915e-06 0)
(0.999794 1.05068e-05 0)
(0.999739 1.24935e-05 0)
(0.999674 1.50794e-05 0)
(0.999593 1.79706e-05 0)
(0.999501 2.28294e-05 0)
(0.999373 2.68565e-05 0)
(0.999243 4.11036e-05 0)
(0.99898 3.75434e-05 0)
(0.998854 0.000130684 0)
(0.99795 -2.45178e-05 0)
(0.997788 0.00105947 0)
(1 4.57763e-07 0)
(0.999996 1.42839e-06 0)
(0.999988 2.45956e-06 0)
(0.999976 3.50695e-06 0)
(0.999959 4.60965e-06 0)
(0.999938 5.80561e-06 0)
(0.999911 7.12177e-06 0)
(0.999879 8.59932e-06 0)
(0.99984 1.02698e-05 0)
(0.999794 1.22628e-05 0)
(0.999739 1.45822e-05 0)
(0.999674 1.75981e-05 0)
(0.999593 2.09764e-05 0)
(0.999501 2.66319e-05 0)
(0.999373 3.13773e-05 0)
(0.999243 4.77872e-05 0)
(0.998984 4.46e-05 0)
(0.998843 0.000147193 0)
(0.99802 -2.65886e-06 0)
(0.997622 0.00106123 0)
(1 5.27663e-07 0)
(0.999996 1.64507e-06 0)
(0.999988 2.83169e-06 0)
(0.999976 4.03765e-06 0)
(0.999959 5.30721e-06 0)
(0.999938 6.68412e-06 0)
(0.999911 8.19944e-06 0)
(0.999879 9.90036e-06 0)
(0.99984 1.18234e-05 0)
(0.999794 1.41177e-05 0)
(0.999739 1.67887e-05 0)
(0.999674 2.0258e-05 0)
(0.999594 2.4152e-05 0)
(0.999501 3.06433e-05 0)
(0.999374 3.61638e-05 0)
(0.999243 5.47807e-05 0)
(0.998987 5.2278e-05 0)
(0.998833 0.000163429 0)
(0.998082 2.27632e-05 0)
(0.99752 0.00106254 0)
(1 6.0172e-07 0)
(0.999996 1.8742e-06 0)
(0.999988 3.22488e-06 0)
(0.999976 4.59841e-06 0)
(0.999959 6.0442e-06 0)
(0.999938 7.61232e-06 0)
(0.999911 9.33801e-06 0)
(0.999879 1.1275e-05 0)
(0.99984 1.34646e-05 0)
(0.999794 1.60772e-05 0)
(0.999739 1.91196e-05 0)
(0.999674 2.30671e-05 0)
(0.999594 2.75068e-05 0)
(0.999501 3.48743e-05 0)
(0.999374 4.12303e-05 0)
(0.999243 6.20925e-05 0)
(0.998991 6.06035e-05 0)
(0.998824 0.000179478 0)
(0.998136 5.09675e-05 0)
(0.99747 0.00106532 0)
(1 6.80155e-07 0)
(0.999996 2.11642e-06 0)
(0.999988 3.64023e-06 0)
(0.999976 5.19082e-06 0)
(0.999959 6.82278e-06 0)
(0.999938 8.59287e-06 0)
(0.999911 1.05408e-05 0)
(0.999879 1.27271e-05 0)
(0.99984 1.5198e-05 0)
(0.999794 1.81468e-05 0)
(0.999739 2.15818e-05 0)
(0.999674 2.60332e-05 0)
(0.999594 3.10506e-05 0)
(0.999501 3.93353e-05 0)
(0.999375 4.65939e-05 0)
(0.999243 6.97357e-05 0)
(0.998995 6.95955e-05 0)
(0.998817 0.000195447 0)
(0.998181 8.13173e-05 0)
(0.997458 0.001069 0)
(1 7.63257e-07 0)
(0.999996 2.37252e-06 0)
(0.999988 4.07899e-06 0)
(0.999976 5.81666e-06 0)
(0.999959 7.64526e-06 0)
(0.999938 9.6287e-06 0)
(0.999911 1.18113e-05 0)
(0.999879 1.42609e-05 0)
(0.99984 1.70289e-05 0)
(0.999794 2.03326e-05 0)
(0.999739 2.41821e-05 0)
(0.999674 2.91644e-05 0)
(0.999594 3.47937e-05 0)
(0.999502 4.40378e-05 0)
(0.999376 5.22693e-05 0)
(0.999243 7.77209e-05 0)
(0.999 7.92704e-05 0)
(0.998811 0.000211439 0)
(0.99822 0.000113293 0)
(0.997474 0.00107425 0)
(1 8.51294e-07 0)
(0.999996 2.64326e-06 0)
(0.999988 4.54244e-06 0)
(0.999976 6.47774e-06 0)
(0.999959 8.51405e-06 0)
(0.999938 1.07228e-05 0)
(0.999911 1.31534e-05 0)
(0.999879 1.58809e-05 0)
(0.99984 1.89625e-05 0)
(0.999794 2.26408e-05 0)
(0.999739 2.69283e-05 0)
(0.999674 3.24696e-05 0)
(0.999595 3.87466e-05 0)
(0.999502 4.8993e-05 0)
(0.999377 5.82746e-05 0)
(0.999243 8.6064e-05 0)
(0.999004 8.96341e-05 0)
(0.998808 0.000227555 0)
(0.998253 0.000146491 0)
(0.997509 0.0010802 0)
(1 9.44605e-07 0)
(0.999996 2.92957e-06 0)
(0.999988 5.03201e-06 0)
(0.999976 7.17615e-06 0)
(0.999959 9.43178e-06 0)
(0.999938 1.18786e-05 0)
(0.999911 1.45708e-05 0)
(0.999879 1.7592e-05 0)
(0.99984 2.10045e-05 0)
(0.999794 2.50782e-05 0)
(0.999739 2.98278e-05 0)
(0.999675 3.59579e-05 0)
(0.999595 4.29206e-05 0)
(0.999502 5.42134e-05 0)
(0.999377 6.46233e-05 0)
(0.999244 9.47756e-05 0)
(0.999008 0.000100697 0)
(0.998806 0.00024387 0)
(0.998282 0.000180612 0)
(0.997556 0.00108723 0)
(1 1.04348e-06 0)
(0.999996 3.23226e-06 0)
(0.999988 5.54908e-06 0)
(0.999976 7.91382e-06 0)
(0.999959 1.04011e-05 0)
(0.999938 1.30993e-05 0)
(0.999911 1.60678e-05 0)
(0.999879 1.9399e-05 0)
(0.99984 2.31606e-05 0)
(0.999795 2.76516e-05 0)
(0.99974 3.28894e-05 0)
(0.999675 3.96388e-05 0)
(0.999595 4.7327e-05 0)
(0.999503 5.9711e-05 0)
(0.999378 7.13354e-05 0)
(0.999245 0.000103874 0)
(0.999013 0.00011246 0)
(0.998806 0.000260449 0)
(0.998309 0.000215449 0)
(0.997611 0.00109445 0)
(1 1.14828e-06 0)
(0.999996 3.55228e-06 0)
(0.999988 6.09515e-06 0)
(0.999976 8.69292e-06 0)
(0.999959 1.14248e-05 0)
(0.999938 1.43884e-05 0)
(0.999911 1.76486e-05 0)
(0.999879 2.1307e-05 0)
(0.999841 2.54373e-05 0)
(0.999795 3.03681e-05 0)
(0.99974 3.6121e-05 0)
(0.999675 4.35217e-05 0)
(0.999596 5.19782e-05 0)
(0.999503 6.54983e-05 0)
(0.99938 7.84253e-05 0)
(0.999246 0.00011337 0)
(0.999018 0.000124937 0)
(0.998808 0.000277331 0)
(0.998334 0.000250864 0)
(0.99767 0.00110214 0)
(1 1.25935e-06 0)
(0.999996 3.89061e-06 0)
(0.999988 6.6718e-06 0)
(0.999976 9.51567e-06 0)
(0.999959 1.25058e-05 0)
(0.999938 1.57496e-05 0)
(0.999911 1.93177e-05 0)
(0.999879 2.33215e-05 0)
(0.999841 2.78406e-05 0)
(0.999795 3.32353e-05 0)
(0.99974 3.9532e-05 0)
(0.999676 4.76171e-05 0)
(0.999596 5.68862e-05 0)
(0.999504 7.15883e-05 0)
(0.999381 8.59129e-05 0)
(0.999247 0.000123283 0)
(0.999023 0.000138129 0)
(0.998811 0.000294541 0)
(0.998359 0.000286729 0)
(0.997731 0.00110962 0)
(1 1.37709e-06 0)
(0.999996 4.24835e-06 0)
(0.999988 7.28073e-06 0)
(0.999976 1.03846e-05 0)
(0.999959 1.36473e-05 0)
(0.999938 1.7187e-05 0)
(0.999911 2.10799e-05 0)
(0.999879 2.54481e-05 0)
(0.999841 3.03776e-05 0)
(0.999795 3.62612e-05 0)
(0.99974 4.3131e-05 0)
(0.999676 5.1935e-05 0)
(0.999597 6.20641e-05 0)
(0.999505 7.79941e-05 0)
(0.999383 9.38108e-05 0)
(0.999248 0.000133616 0)
(0.999028 0.000152048 0)
(0.998815 0.00031208 0)
(0.998384 0.000322962 0)
(0.997794 0.00111725 0)
(1 1.50187e-06 0)
(0.999996 4.62655e-06 0)
(0.999988 7.92366e-06 0)
(0.999976 1.1302e-05 0)
(0.999959 1.48525e-05 0)
(0.999938 1.87045e-05 0)
(0.999912 2.29401e-05 0)
(0.99988 2.76928e-05 0)
(0.999841 3.30551e-05 0)
(0.999795 3.94536e-05 0)
(0.999741 4.69281e-05 0)
(0.999676 5.64868e-05 0)
(0.999598 6.75245e-05 0)
(0.999506 8.4729e-05 0)
(0.999384 0.00010214 0)
(0.99925 0.00014439 0)
(0.999034 0.000166694 0)
(0.998821 0.000329949 0)
(0.99841 0.000359439 0)
(0.997857 0.0011245 0)
(1 1.63412e-06 0)
(0.999996 5.02632e-06 0)
(0.999988 8.60236e-06 0)
(0.999976 1.22704e-05 0)
(0.999959 1.61248e-05 0)
(0.999938 2.03062e-05 0)
(0.999912 2.49033e-05 0)
(0.99988 3.00614e-05 0)
(0.999841 3.58806e-05 0)
(0.999796 4.28211e-05 0)
(0.999741 5.09327e-05 0)
(0.999677 6.12825e-05 0)
(0.999598 7.32816e-05 0)
(0.999507 9.18059e-05 0)
(0.999386 0.000110914 0)
(0.999252 0.000155609 0)
(0.99904 0.00018208 0)
(0.998827 0.000348136 0)
(0.998437 0.000396083 0)
(0.997921 0.00113169 0)
(1 1.77426e-06 0)
(0.999996 5.44888e-06 0)
(0.999988 9.31877e-06 0)
(0.999976 1.32927e-05 0)
(0.999959 1.74677e-05 0)
(0.999938 2.19967e-05 0)
(0.999912 2.69752e-05 0)
(0.99988 3.25606e-05 0)
(0.999842 3.88613e-05 0)
(0.999796 4.63721e-05 0)
(0.999742 5.51555e-05 0)
(0.999678 6.63347e-05 0)
(0.999599 7.93481e-05 0)
(0.999508 9.92386e-05 0)
(0.999388 0.000120152 0)
(0.999255 0.000167289 0)
(0.999047 0.000198194 0)
(0.998835 0.000366631 0)
(0.998464 0.000432734 0)
(0.997985 0.00113841 0)
(1 1.92274e-06 0)
(0.999996 5.89549e-06 0)
(0.999988 1.00748e-05 0)
(0.999976 1.43715e-05 0)
(0.999959 1.8885e-05 0)
(0.999938 2.37805e-05 0)
(0.999912 2.91609e-05 0)
(0.99988 3.51965e-05 0)
(0.999842 4.20057e-05 0)
(0.999796 5.01159e-05 0)
(0.999742 5.96061e-05 0)
(0.999678 7.16532e-05 0)
(0.9996 8.57384e-05 0)
(0.999509 0.00010704 0)
(0.999391 0.000129864 0)
(0.999258 0.00017943 0)
(0.999055 0.000215044 0)
(0.998844 0.000385414 0)
(0.998493 0.000469302 0)
(0.99805 0.00114504 0)
(1 2.08003e-06 0)
(0.999996 6.36747e-06 0)
(0.999988 1.08727e-05 0)
(0.999976 1.55099e-05 0)
(0.999959 2.03804e-05 0)
(0.999938 2.56624e-05 0)
(0.999912 3.14666e-05 0)
(0.99988 3.79764e-05 0)
(0.999842 4.53212e-05 0)
(0.999797 5.40615e-05 0)
(0.999743 6.42961e-05 0)
(0.999679 7.72512e-05 0)
(0.999601 9.24652e-05 0)
(0.999511 0.000115222 0)
(0.999393 0.000140067 0)
(0.999261 0.000192046 0)
(0.999063 0.000232604 0)
(0.998855 0.000404473 0)
(0.998523 0.000505578 0)
(0.998115 0.0011512 0)
(1 2.24659e-06 0)
(0.999996 6.86609e-06 0)
(0.999988 1.17144e-05 0)
(0.999976 1.67107e-05 0)
(0.999959 2.1958e-05 0)
(0.999938 2.76471e-05 0)
(0.999912 3.38979e-05 0)
(0.999881 4.09068e-05 0)
(0.999842 4.88168e-05 0)
(0.999797 5.82183e-05 0)
(0.999743 6.92354e-05 0)
(0.99968 8.31391e-05 0)
(0.999603 9.95428e-05 0)
(0.999512 0.000123799 0)
(0.999396 0.00015077 0)
(0.999265 0.000205139 0)
(0.999071 0.000250863 0)
(0.998866 0.000423794 0)
(0.998554 0.000541448 0)
(0.99818 0.00115719 0)
(1 2.4229e-06 0)
(0.999996 7.39283e-06 0)
(0.999988 1.26023e-05 0)
(0.999976 1.79771e-05 0)
(0.99996 2.36219e-05 0)
(0.999939 2.974e-05 0)
(0.999912 3.64614e-05 0)
(0.999881 4.39956e-05 0)
(0.999843 5.25002e-05 0)
(0.999798 6.25959e-05 0)
(0.999744 7.44357e-05 0)
(0.999681 8.93303e-05 0)
(0.999604 0.000106983 0)
(0.999514 0.000132784 0)
(0.9994 0.000161986 0)
(0.999269 0.000218719 0)
(0.999081 0.000269778 0)
(0.998879 0.000443364 0)
(0.998586 0.00057668 0)
(0.998246 0.00116269 0)
(1 2.60944e-06 0)
(0.999996 7.9491e-06 0)
(0.999988 1.35385e-05 0)
(0.999976 1.93122e-05 0)
(0.99996 2.53763e-05 0)
(0.999939 3.1946e-05 0)
(0.999913 3.91629e-05 0)
(0.999881 4.72492e-05 0)
(0.999843 5.63812e-05 0)
(0.999798 6.72039e-05 0)
(0.999745 7.99071e-05 0)
(0.999682 9.5834e-05 0)
(0.999606 0.0001148 0)
(0.999517 0.000142185 0)
(0.999403 0.000173717 0)
(0.999274 0.000232781 0)
(0.999091 0.000289323 0)
(0.998894 0.000463166 0)
(0.998619 0.000611167 0)
(0.998311 0.00116801 0)
(1 2.80674e-06 0)
(0.999996 8.53645e-06 0)
(0.999988 1.45257e-05 0)
(0.999976 2.07196e-05 0)
(0.99996 2.72256e-05 0)
(0.999939 3.42709e-05 0)
(0.999913 4.20093e-05 0)
(0.999881 5.06761e-05 0)
(0.999844 6.04676e-05 0)
(0.999799 7.20522e-05 0)
(0.999746 8.56612e-05 0)
(0.999683 0.000102664 0)
(0.999608 0.000123003 0)
(0.999519 0.000152015 0)
(0.999408 0.000185969 0)
(0.99928 0.000247335 0)
(0.999102 0.000309432 0)
(0.99891 0.00048318 0)
(0.998653 0.000644651 0)
(0.998376 0.00117283 0)
(1 3.01527e-06 0)
(0.999996 9.15632e-06 0)
(0.999988 1.55661e-05 0)
(0.999976 2.22024e-05 0)
(0.99996 2.91742e-05 0)
(0.999939 3.67198e-05 0)
(0.999913 4.50068e-05 0)
(0.999882 5.42832e-05 0)
(0.999844 6.47688e-05 0)
(0.9998 7.71507e-05 0)
(0.999747 9.17079e-05 0)
(0.999685 0.00010983 0)
(0.99961 0.000131603 0)
(0.999522 0.000162283 0)
(0.999412 0.000198738 0)
(0.999286 0.000262374 0)
(0.999114 0.000330054 0)
(0.998927 0.000503387 0)
(0.998688 0.000677023 0)
(0.998441 0.00117738 0)
(1 3.23553e-06 0)
(0.999996 9.81035e-06 0)
(0.999988 1.66624e-05 0)
(0.999976 2.37643e-05 0)
(0.99996 3.12266e-05 0)
(0.999939 3.92986e-05 0)
(0.999914 4.81624e-05 0)
(0.999882 5.80792e-05 0)
(0.999845 6.92927e-05 0)
(0.999801 8.25091e-05 0)
(0.999748 9.80579e-05 0)
(0.999686 0.000117345 0)
(0.999612 0.00014061 0)
(0.999525 0.000172998 0)
(0.999417 0.000212023 0)
(0.999293 0.000277899 0)
(0.999127 0.000351109 0)
(0.998946 0.000523752 0)
(0.998725 0.000708045 0)
(0.998505 0.00118139 0)
(1 3.468e-06 0)
(0.999996 1.05e-05 0)
(0.999988 1.7817e-05 0)
(0.999976 2.54084e-05 0)
(0.99996 3.33875e-05 0)
(0.99994 4.20125e-05 0)
(0.999914 5.14825e-05 0)
(0.999883 6.20703e-05 0)
(0.999846 7.40494e-05 0)
(0.999802 8.81364e-05 0)
(0.999749 0.000104721 0)
(0.999688 0.000125215 0)
(0.999615 0.000150031 0)
(0.999529 0.000184164 0)
(0.999423 0.000225813 0)
(0.9993 0.000293896 0)
(0.999141 0.000372528 0)
(0.998967 0.000544244 0)
(0.998762 0.000737654 0)
(0.998569 0.00118508 0)
(1 3.7132e-06 0)
(0.999996 1.1227e-05 0)
(0.999989 1.90328e-05 0)
(0.999977 2.71388e-05 0)
(0.99996 3.56615e-05 0)
(0.99994 4.48677e-05 0)
(0.999914 5.4974e-05 0)
(0.999883 6.62656e-05 0)
(0.999846 7.9046e-05 0)
(0.999803 9.40422e-05 0)
(0.999751 0.000111706 0)
(0.99969 0.000133452 0)
(0.999618 0.000159871 0)
(0.999533 0.000195785 0)
(0.999429 0.000240094 0)
(0.999309 0.000310351 0)
(0.999156 0.000394217 0)
(0.998989 0.000564804 0)
(0.9988 0.000765629 0)
(0.998631 0.00118818 0)
(1 3.9716e-06 0)
(0.999996 1.19928e-05 0)
(0.999989 2.03122e-05 0)
(0.999977 2.89588e-05 0)
(0.999961 3.80532e-05 0)
(0.99994 4.78695e-05 0)
(0.999915 5.86431e-05 0)
(0.999884 7.06718e-05 0)
(0.999847 8.42912e-05 0)
(0.999804 0.000100235 0)
(0.999753 0.000119021 0)
(0.999692 0.000142064 0)
(0.999621 0.000170133 0)
(0.999537 0.000207862 0)
(0.999436 0.000254845 0)
(0.999318 0.000327246 0)
(0.999172 0.000416084 0)
(0.999012 0.00058538 0)
(0.99884 0.000791927 0)
(0.998693 0.00119081 0)
(1 4.24369e-06 0)
(0.999996 1.27992e-05 0)
(0.999989 2.1658e-05 0)
(0.999977 3.08723e-05 0)
(0.999961 4.0567e-05 0)
(0.99994 5.10239e-05 0)
(0.999915 6.24967e-05 0)
(0.999885 7.52972e-05 0)
(0.999848 8.97919e-05 0)
(0.999805 0.000106724 0)
(0.999754 0.000126673 0)
(0.999695 0.000151056 0)
(0.999624 0.000180818 0)
(0.999542 0.000220392 0)
(0.999443 0.000270044 0)
(0.999329 0.000344549 0)
(0.999189 0.00043803 0)
(0.999037 0.000605885 0)
(0.99888 0.000816394 0)
(0.998754 0.00119275 0)
(1 4.52986e-06 0)
(0.999996 1.36473e-05 0)
(0.999989 2.30727e-05 0)
(0.999977 3.28821e-05 0)
(0.999961 4.32076e-05 0)
(0.999941 5.43354e-05 0)
(0.999916 6.65406e-05 0)
(0.999886 8.01465e-05 0)
(0.999849 9.55566e-05 0)
(0.999807 0.000113513 0)
(0.999757 0.00013467 0)
(0.999698 0.00016043 0)
(0.999628 0.000191924 0)
(0.999547 0.000233363 0)
(0.999451 0.000285662 0)
(0.99934 0.000362222 0)
(0.999207 0.000459964 0)
(0.999064 0.000626248 0)
(0.998921 0.000839065 0)
(0.998814 0.00119413 0)
(1 4.83064e-06 0)
(0.999996 1.45391e-05 0)
(0.999989 2.45591e-05 0)
(0.999977 3.49926e-05 0)
(0.999961 4.59792e-05 0)
(0.999941 5.78102e-05 0)
(0.999916 7.07809e-05 0)
(0.999886 8.52284e-05 0)
(0.999851 0.00010159 0)
(0.999808 0.000120611 0)
(0.999759 0.000143012 0)
(0.999701 0.000170191 0)
(0.999633 0.000203444 0)
(0.999553 0.000246767 0)
(0.99946 0.00030166 0)
(0.999352 0.000380218 0)
(0.999226 0.000481773 0)
(0.999092 0.00064635 0)
(0.998962 0.000859812 0)
(0.998873 0.00119471 0)
(1 5.14642e-06 0)
(0.999996 1.54759e-05 0)
(0.999989 2.61197e-05 0)
(0.999977 3.72068e-05 0)
(0.999962 4.88858e-05 0)
(0.999942 6.14528e-05 0)
(0.999917 7.52224e-05 0)
(0.999887 9.05475e-05 0)
(0.999852 0.000107897 0)
(0.99981 0.000128022 0)
(0.999761 0.000151703 0)
(0.999704 0.000180336 0)
(0.999637 0.000215364 0)
(0.99956 0.000260581 0)
(0.999469 0.00031799 0)
(0.999366 0.000398474 0)
(0.999246 0.000503351 0)
(0.999121 0.000666088 0)
(0.999004 0.000878686 0)
(0.998931 0.00119457 0)
(1 5.47766e-06 0)
(0.999997 1.64591e-05 0)
(0.999989 2.77567e-05 0)
(0.999978 3.9528e-05 0)
(0.999962 5.19313e-05 0)
(0.999942 6.52679e-05 0)
(0.999918 7.98702e-05 0)
(0.999888 9.61093e-05 0)
(0.999854 0.000114482 0)
(0.999812 0.000135748 0)
(0.999764 0.000160741 0)
(0.999708 0.000190861 0)
(0.999643 0.000227674 0)
(0.999567 0.000274785 0)
(0.999479 0.00033461 0)
(0.99938 0.000416924 0)
(0.999267 0.000524601 0)
(0.999151 0.000685332 0)
(0.999047 0.000895648 0)
(0.998988 0.00119355 0)
(1 5.8246e-06 0)
(0.999997 1.74895e-05 0)
(0.999989 2.9472e-05 0)
(0.999978 4.19587e-05 0)
(0.999962 5.51182e-05 0)
(0.999943 6.92585e-05 0)
(0.999919 8.47268e-05 0)
(0.99989 0.000101916 0)
(0.999855 0.000121346 0)
(0.999815 0.000143789 0)
(0.999767 0.000170122 0)
(0.999712 0.000201756 0)
(0.999649 0.000240349 0)
(0.999575 0.00028934 0)
(0.999491 0.000351461 0)
(0.999395 0.000435493 0)
(0.99929 0.000545424 0)
(0.999183 0.000703983 0)
(0.99909 0.000910809 0)
(0.999043 0.00119175 0)
(1 6.18763e-06 0)
(0.999997 1.85684e-05 0)
(0.999989 3.12676e-05 0)
(0.999978 4.45015e-05 0)
(0.999963 5.84498e-05 0)
(0.999944 7.3428e-05 0)
(0.99992 8.97962e-05 0)
(0.999891 0.000107971 0)
(0.999857 0.000128491 0)
(0.999817 0.000152144 0)
(0.999771 0.000179841 0)
(0.999717 0.000213009 0)
(0.999655 0.00025337 0)
(0.999584 0.000304214 0)
(0.999503 0.000368489 0)
(0.999412 0.00045409 0)
(0.999313 0.00056573 0)
(0.999215 0.000721899 0)
(0.999134 0.000924162 0)
(0.999097 0.00118904 0)
(1 6.56687e-06 0)
(0.999997 1.96963e-05 0)
(0.99999 3.31446e-05 0)
(0.999978 4.71578e-05 0)
(0.999963 6.19277e-05 0)
(0.999944 7.77773e-05 0)
(0.999921 9.50789e-05 0)
(0.999893 0.000114272 0)
(0.999859 0.000135913 0)
(0.99982 0.000160805 0)
(0.999775 0.000189887 0)
(0.999722 0.000224597 0)
(0.999662 0.000266704 0)
(0.999593 0.000319353 0)
(0.999515 0.000385627 0)
(0.99943 0.000472621 0)
(0.999338 0.00058543 0)
(0.999249 0.000738982 0)
(0.999178 0.000935833 0)
(0.99915 0.0011855 0)
(1 6.96259e-06 0)
(0.999997 2.08737e-05 0)
(0.99999 3.51042e-05 0)
(0.999979 4.99291e-05 0)
(0.999964 6.55534e-05 0)
(0.999945 8.23078e-05 0)
(0.999922 0.000100576 0)
(0.999894 0.00012082 0)
(0.999861 0.00014361 0)
(0.999823 0.000169766 0)
(0.999779 0.000200247 0)
(0.999728 0.000236501 0)
(0.999669 0.000280319 0)
(0.999603 0.000334707 0)
(0.999529 0.000402806 0)
(0.999448 0.000490985 0)
(0.999364 0.000604441 0)
(0.999283 0.000755107 0)
(0.999222 0.000945842 0)
(0.999202 0.00118108 0)
(1 7.37468e-06 0)
(0.999997 2.21005e-05 0)
(0.99999 3.71463e-05 0)
(0.999979 5.28153e-05 0)
(0.999964 6.9326e-05 0)
(0.999946 8.70179e-05 0)
(0.999923 0.000106283 0)
(0.999896 0.000127608 0)
(0.999864 0.000151573 0)
(0.999826 0.000179013 0)
(0.999783 0.0002109 0)
(0.999734 0.00024869 0)
(0.999677 0.000294169 0)
(0.999614 0.000350216 0)
(0.999544 0.000419948 0)
(0.999468 0.000509088 0)
(0.99939 0.000622678 0)
(0.999318 0.000770211 0)
(0.999266 0.000954323 0)
(0.999253 0.00117588 0)
(1 7.80321e-06 0)
(0.999997 2.33768e-05 0)
(0.99999 3.92711e-05 0)
(0.999979 5.58163e-05 0)
(0.999965 7.32453e-05 0)
(0.999947 9.19059e-05 0)
(0.999925 0.000112199 0)
(0.999898 0.000134631 0)
(0.999867 0.000159792 0)
(0.99983 0.00018853 0)
(0.999788 0.000221824 0)
(0.99974 0.000261128 0)
(0.999686 0.000308209 0)
(0.999626 0.000365812 0)
(0.999559 0.000436973 0)
(0.999489 0.000526816 0)
(0.999418 0.000640069 0)
(0.999353 0.000784186 0)
(0.999309 0.000961301 0)
(0.999303 0.00116987 0)
(1 8.24779e-06 0)
(0.999997 2.47013e-05 0)
(0.99999 4.1477e-05 0)
(0.99998 5.89298e-05 0)
(0.999966 7.73078e-05 0)
(0.999948 9.69664e-05 0)
(0.999926 0.000118315 0)
(0.9999 0.000141877 0)
(0.99987 0.000168253 0)
(0.999834 0.000198295 0)
(0.999794 0.000232988 0)
(0.999747 0.000273773 0)
(0.999696 0.000322384 0)
(0.999638 0.000381421 0)
(0.999576 0.000453798 0)
(0.999511 0.000544075 0)
(0.999446 0.000656545 0)
(0.999389 0.000796994 0)
(0.999353 0.0009669 0)
(0.999352 0.00116315 0)
(1 8.70824e-06 0)
(0.999997 2.60736e-05 0)
(0.999991 4.37627e-05 0)
(0.99998 6.21537e-05 0)
(0.999966 8.15101e-05 0)
(0.999949 0.000102194 0)
(0.999928 0.000124624 0)
(0.999902 0.000149335 0)
(0.999873 0.000176937 0)
(0.999838 0.000208284 0)
(0.999799 0.000244359 0)
(0.999755 0.000286578 0)
(0.999706 0.000336631 0)
(0.999652 0.000396962 0)
(0.999593 0.000470327 0)
(0.999533 0.000560749 0)
(0.999475 0.000672028 0)
(0.999426 0.000808555 0)
(0.999396 0.000971131 0)
(0.999399 0.00115571 0)
(1 9.18381e-06 0)
(0.999997 2.74912e-05 0)
(0.999991 4.61247e-05 0)
(0.999981 6.54831e-05 0)
(0.999967 8.58451e-05 0)
(0.99995 0.000107579 0)
(0.99993 0.000131112 0)
(0.999905 0.000156986 0)
(0.999876 0.000185821 0)
(0.999843 0.000218463 0)
(0.999806 0.000255893 0)
(0.999763 0.000299488 0)
(0.999717 0.000350881 0)
(0.999666 0.000412353 0)
(0.999612 0.000486472 0)
(0.999557 0.00057675 0)
(0.999505 0.000686461 0)
(0.999462 0.000818857 0)
(0.999439 0.000974095 0)
(0.999445 0.00114763 0)
(1 9.67396e-06 0)
(0.999997 2.89526e-05 0)
(0.999991 4.85597e-05 0)
(0.999981 6.89127e-05 0)
(0.999968 9.03053e-05 0)
(0.999952 0.000113111 0)
(0.999932 0.000137763 0)
(0.999908 0.00016481 0)
(0.99988 0.000194877 0)
(0.999848 0.000228797 0)
(0.999812 0.000267543 0)
(0.999772 0.000312441 0)
(0.999728 0.000365058 0)
(0.99968 0.000427499 0)
(0.999631 0.000502126 0)
(0.999581 0.000591967 0)
(0.999535 0.000699773 0)
(0.999499 0.000827845 0)
(0.999481 0.000975793 0)
(0.999491 0.00113888 0)
(1 1.01775e-05 0)
(0.999997 3.0454e-05 0)
(0.999991 5.10619e-05 0)
(0.999982 7.24343e-05 0)
(0.999969 9.48792e-05 0)
(0.999953 0.000118774 0)
(0.999934 0.000144559 0)
(0.999911 0.000172781 0)
(0.999884 0.00020407 0)
(0.999854 0.000239242 0)
(0.99982 0.000279254 0)
(0.999782 0.00032537 0)
(0.99974 0.000379081 0)
(0.999696 0.000442312 0)
(0.99965 0.000517201 0)
(0.999605 0.000606322 0)
(0.999565 0.000711917 0)
(0.999535 0.000835528 0)
(0.999522 0.000976307 0)
(0.999535 0.00112955 0)
(1 1.06933e-05 0)
(0.999997 3.19923e-05 0)
(0.999992 5.36251e-05 0)
(0.999982 7.60387e-05 0)
(0.99997 9.95539e-05 0)
(0.999955 0.000124551 0)
(0.999936 0.000151474 0)
(0.999914 0.000180869 0)
(0.999889 0.000213362 0)
(0.99986 0.00024975 0)
(0.999827 0.000290963 0)
(0.999792 0.000338201 0)
(0.999753 0.000392862 0)
(0.999712 0.00045669 0)
(0.999671 0.00053159 0)
(0.999631 0.000619714 0)
(0.999596 0.000722835 0)
(0.999571 0.000841873 0)
(0.999563 0.000975642 0)
(0.999578 0.00111962 0)
(1 1.12196e-05 0)
(0.999997 3.3562e-05 0)
(0.999992 5.62405e-05 0)
(0.999983 7.97133e-05 0)
(0.999971 0.000104312 0)
(0.999956 0.00013042 0)
(0.999939 0.000158481 0)
(0.999918 0.000189037 0)
(0.999893 0.000222708 0)
(0.999866 0.000260264 0)
(0.999835 0.000302604 0)
(0.999802 0.000350854 0)
(0.999766 0.000406313 0)
(0.999729 0.000470541 0)
(0.999692 0.000545207 0)
(0.999656 0.000632078 0)
(0.999627 0.000732498 0)
(0.999607 0.000846903 0)
(0.999603 0.000973863 0)
(0.999619 0.00110913 0)
(1 1.17547e-05 0)
(0.999998 3.51578e-05 0)
(0.999992 5.88987e-05 0)
(0.999984 8.34442e-05 0)
(0.999972 0.000109135 0)
(0.999958 0.000136355 0)
(0.999941 0.000165548 0)
(0.999921 0.000197244 0)
(0.999898 0.000232056 0)
(0.999873 0.000270723 0)
(0.999844 0.000314103 0)
(0.999813 0.000363244 0)
(0.99978 0.000419337 0)
(0.999746 0.000483761 0)
(0.999713 0.000557953 0)
(0.999682 0.000643331 0)
(0.999658 0.000740863 0)
(0.999642 0.000850604 0)
(0.999641 0.000970982 0)
(0.99966 0.00109808 0)
(1 1.22962e-05 0)
(0.999998 3.67723e-05 0)
(0.999993 6.15873e-05 0)
(0.999984 8.72137e-05 0)
(0.999974 0.000114 0)
(0.99996 0.000142327 0)
(0.999944 0.000172635 0)
(0.999925 0.000205445 0)
(0.999904 0.000241351 0)
(0.99988 0.000281059 0)
(0.999853 0.000325383 0)
(0.999824 0.000375284 0)
(0.999795 0.000431843 0)
(0.999764 0.000496261 0)
(0.999735 0.000569752 0)
(0.999709 0.000653423 0)
(0.999688 0.000747916 0)
(0.999677 0.000853006 0)
(0.999679 0.000967051 0)
(0.999699 0.00108649 0)
(1 1.28413e-05 0)
(0.999998 3.83978e-05 0)
(0.999993 6.42929e-05 0)
(0.999985 9.10024e-05 0)
(0.999975 0.000118879 0)
(0.999962 0.000148301 0)
(0.999947 0.000179701 0)
(0.999929 0.000213586 0)
(0.999909 0.00025053 0)
(0.999887 0.000291201 0)
(0.999862 0.000336359 0)
(0.999836 0.000386881 0)
(0.999809 0.000443732 0)
(0.999782 0.000507943 0)
(0.999757 0.000580517 0)
(0.999735 0.000662289 0)
(0.999718 0.000753632 0)
(0.999711 0.000854113 0)
(0.999716 0.000962086 0)
(0.999736 0.00107436 0)
(1 1.33871e-05 0)
(0.999998 4.00246e-05 0)
(0.999993 6.69995e-05 0)
(0.999986 9.47872e-05 0)
(0.999976 0.000123742 0)
(0.999965 0.000154239 0)
(0.99995 0.000186699 0)
(0.999934 0.000221612 0)
(0.999915 0.000259527 0)
(0.999895 0.000301071 0)
(0.999872 0.000346947 0)
(0.999849 0.000397945 0)
(0.999825 0.000454913 0)
(0.999801 0.000518725 0)
(0.999779 0.000590185 0)
(0.999761 0.000669896 0)
(0.999748 0.000758012 0)
(0.999744 0.000853957 0)
(0.999752 0.000956132 0)
(0.999772 0.0010617 0)
(1 1.39299e-05 0)
(0.999998 4.16425e-05 0)
(0.999994 6.96893e-05 0)
(0.999987 9.85428e-05 0)
(0.999978 0.000128557 0)
(0.999967 0.000160098 0)
(0.999954 0.000193577 0)
(0.999938 0.00022946 0)
(0.999921 0.00026827 0)
(0.999902 0.000310588 0)
(0.999882 0.000357057 0)
(0.999861 0.000408381 0)
(0.99984 0.000465294 0)
(0.99982 0.00052852 0)
(0.999801 0.000598687 0)
(0.999787 0.000676201 0)
(0.999778 0.000761044 0)
(0.999777 0.000852553 0)
(0.999786 0.000949206 0)
(0.999807 0.0010485 0)
(1 1.44658e-05 0)
(0.999998 4.32394e-05 0)
(0.999994 7.23424e-05 0)
(0.999988 0.000102241 0)
(0.99998 0.000133286 0)
(0.999969 0.000165833 0)
(0.999957 0.000200279 0)
(0.999943 0.000237066 0)
(0.999928 0.000276685 0)
(0.999911 0.00031967 0)
(0.999893 0.000366604 0)
(0.999874 0.000418102 0)
(0.999856 0.00047479 0)
(0.999838 0.000537257 0)
(0.999823 0.000605974 0)
(0.999812 0.000681185 0)
(0.999806 0.000762741 0)
(0.999808 0.000849934 0)
(0.999819 0.000941344 0)
(0.99984 0.00103478 0)
(1 1.49906e-05 0)
(0.999998 4.48026e-05 0)
(0.999995 7.49371e-05 0)
(0.999989 0.000105851 0)
(0.999981 0.000137888 0)
(0.999972 0.000171394 0)
(0.999961 0.000206746 0)
(0.999948 0.000244361 0)
(0.999934 0.000284694 0)
(0.999919 0.000328233 0)
(0.999903 0.000375496 0)
(0.999887 0.000427017 0)
(0.999871 0.000483319 0)
(0.999857 0.000544866 0)
(0.999845 0.000611998 0)
(0.999837 0.000684825 0)
(0.999834 0.000763107 0)
(0.999838 0.00084612 0)
(0.99985 0.000932564 0)
(0.999872 0.00102053 0)
(1 1.54995e-05 0)
(0.999998 4.63181e-05 0)
(0.999995 7.745e-05 0)
(0.99999 0.000109339 0)
(0.999983 0.000142322 0)
(0.999974 0.000176729 0)
(0.999964 0.000212916 0)
(0.999953 0.000251274 0)
(0.999941 0.00029222 0)
(0.999927 0.000336194 0)
(0.999914 0.000383651 0)
(0.9999 0.000435047 0)
(0.999887 0.000490809 0)
(0.999875 0.000551294 0)
(0.999866 0.000616727 0)
(0.999861 0.000687118 0)
(0.99986 0.000762161 0)
(0.999866 0.000841148 0)
(0.99988 0.000922897 0)
(0.999902 0.00100576 0)
(1 1.59876e-05 0)
(0.999999 4.77708e-05 0)
(0.999996 7.98562e-05 0)
(0.999991 0.000112672 0)
(0.999985 0.000146543 0)
(0.999977 0.000181783 0)
(0.999968 0.000218726 0)
(0.999958 0.000257734 0)
(0.999947 0.000299185 0)
(0.999936 0.000343471 0)
(0.999924 0.000390987 0)
(0.999913 0.000442113 0)
(0.999902 0.000497193 0)
(0.999893 0.000556489 0)
(0.999887 0.000620133 0)