/*--------------------------------*- C++ -*----------------------------------*\
| =========                 |                                                 |
| \\      /  F ield         | OpenFOAM: The Open Source CFD Toolbox           |
|  \\    /   O peration     | Version:  v1912                                 |
|   \\  /    A nd           | Website:  www.openfoam.com                      |
|    \\/     M anipulation  |                                                 |
\*---------------------------------------------------------------------------*/
FoamFile
{
    version     2.0;
    format      ascii;
    class       volScalarField;
    location    "50";
    object      epsilon;
}
// * * * * * * * * * * * * * * * * * * * * * * * * * * * * * * * * * * * * * //

dimensions      [0 2 -3 0 0 0 0];


internalField   nonuniform List<scalar> 
2000
(
0.0135126
0.0111846
0.0081904
0.00480222
0.00122925
0.000132251
0.000109818
0.000130595
0.000143172
0.000115901
7.40643e-05
5.03034e-05
5.67849e-05
6.31417e-05
6.90805e-05
6.91774e-05
7.80501e-05
9.91634e-05
0.000130455
0.000171681
0.000222047
0.000280314
0.000345376
0.000416891
0.00049595
0.000587498
0.000666229
0.000712098
0.000704657
0.000631183
0.000512634
0.000437413
0.000609799
0.00107834
0.00170024
0.00242391
0.00319167
0.00396251
0.00471273
0.00542745
0.00609406
0.00670133
0.00724474
0.00773518
0.00820774
0.0085151
0.00867854
0.00873701
0.00872422
0.00866577
0.00858035
0.00848116
0.00837684
0.00827213
0.00816847
0.00806537
0.00796572
0.00786748
0.0077586
0.00763328
0.00748751
0.00738078
0.00727649
0.00715628
0.00702368
0.00688594
0.00675038
0.00662327
0.00650954
0.00641296
0.00633653
0.00628277
0.00625414
0.00625336
0.00628373
0.00634976
0.00645727
0.00661717
0.00683794
0.00718807
0.122256
0.040141
0.0185259
0.0102231
0.00591066
0.00348406
0.00206916
0.00120244
0.00154246
0.000779413
0.000371117
0.000262483
0.000233287
0.000202498
0.000174183
0.000169307
0.000178369
0.000196523
0.000226333
0.000269637
0.000326657
0.000396367
0.000477254
0.000567799
0.000666859
0.00077302
0.000893663
0.00100689
0.00109084
0.00112686
0.0011183
0.00112763
0.00130327
0.00170836
0.00228336
0.00295106
0.00364986
0.00436823
0.00512956
0.00595557
0.00683312
0.00770487
0.00848858
0.00910992
0.00951115
0.00973072
0.00979738
0.00975049
0.00962352
0.00944285
0.00922868
0.00899663
0.00875891
0.00852482
0.00830061
0.00808786
0.00788934
0.00772048
0.00756369
0.00740866
0.00724476
0.00706372
0.00686167
0.006639
0.00640047
0.00615326
0.00590483
0.00566153
0.0054281
0.00520775
0.00500253
0.00481375
0.00464228
0.00448868
0.00435356
0.00423622
0.00413858
0.00404709
0.00399416
0.00387474
0.111973
0.0306045
0.0126525
0.00692881
0.00433068
0.00288179
0.0020069
0.0014788
0.00141083
0.00136731
0.00137744
0.00164253
0.00179939
0.00123513
0.000866804
0.000701411
0.000636351
0.000600044
0.000589917
0.000610209
0.000661459
0.000742848
0.000853128
0.000990769
0.00115378
0.00133833
0.00153773
0.00178278
0.00203202
0.00225158
0.00240712
0.00248016
0.00250264
0.00271272
0.0030898
0.00360395
0.00420931
0.00489379
0.00567898
0.0065811
0.00757399
0.00857787
0.00947289
0.0101233
0.0105302
0.0107213
0.0107484
0.0106539
0.0104678
0.0102135
0.0099101
0.00957393
0.00921876
0.00885618
0.00849554
0.00814375
0.00780538
0.0074819
0.00716985
0.00686324
0.00655656
0.00624762
0.00593815
0.00563243
0.00533608
0.00505452
0.00479172
0.00454962
0.00432848
0.00412754
0.00394563
0.00378169
0.00363495
0.00350498
0.00339164
0.00329407
0.00321257
0.00313733
0.00309274
0.00300229
0.109258
0.0267997
0.0092636
0.00444646
0.00268904
0.00184512
0.00135698
0.00105242
0.000924797
0.000901697
0.000976803
0.00125011
0.00177365
0.00233031
0.00285264
0.00301882
0.00273317
0.00232878
0.0020255
0.00184237
0.00175084
0.00173578
0.00179035
0.00191074
0.00209593
0.00234532
0.00265169
0.00300979
0.00346215
0.00395189
0.0044204
0.00481469
0.00506506
0.00512635
0.00522884
0.0053682
0.00555863
0.00582063
0.006185
0.00667781
0.00729916
0.00800732
0.00871986
0.00933834
0.00980226
0.0100916
0.0102177
0.0102039
0.0100745
0.00985228
0.00955701
0.0092061
0.00881467
0.00839575
0.00796026
0.00751693
0.00707232
0.00663071
0.00619441
0.0057652
0.00534617
0.00494273
0.00456187
0.00421034
0.0038929
0.00361141
0.00336486
0.00315012
0.00296309
0.0027997
0.00265646
0.00253078
0.00242091
0.00232587
0.00224519
0.00217812
0.00212445
0.00207779
0.00205168
0.00200559
0.108843
0.026042
0.00822862
0.00339474
0.00179853
0.00115701
0.000843018
0.000662504
0.000564365
0.000523006
0.0005335
0.000625741
0.000859477
0.00127565
0.00195267
0.00290889
0.00390777
0.00466163
0.00500954
0.0049727
0.00471898
0.00442967
0.00421177
0.00410463
0.00411645
0.00424748
0.00449704
0.00485321
0.00533606
0.00593232
0.00659661
0.00726111
0.00781848
0.00809546
0.00812313
0.00799763
0.00777345
0.00752721
0.00734061
0.00727557
0.00735785
0.0075734
0.00787862
0.00822863
0.00855556
0.0088064
0.00895421
0.00899132
0.00892166
0.00875511
0.00850413
0.00818187
0.0078013
0.0073747
0.00691337
0.00642764
0.00592704
0.00542075
0.0049184
0.00443062
0.00396871
0.00354324
0.00316222
0.00282983
0.00254603
0.00230724
0.00210763
0.00194064
0.00180018
0.00168125
0.00158008
0.00149404
0.00142146
0.00136138
0.00131346
0.00127719
0.00125229
0.00123487
0.00123084
0.00122083
0.108786
0.0259478
0.00802262
0.00308847
0.00145451
0.00082703
0.000552194
0.000415514
0.000342822
0.000305343
0.000293079
0.000310556
0.000376512
0.000517445
0.000782194
0.00124417
0.00193671
0.00285473
0.00393826
0.00504934
0.00601081
0.0066897
0.0070598
0.00719447
0.0072102
0.00721414
0.00728191
0.00745528
0.00773413
0.00815274
0.00871606
0.00938725
0.0100664
0.0105893
0.0107613
0.0105901
0.0101732
0.00962851
0.00906836
0.00858065
0.00821564
0.00798471
0.00787163
0.00785192
0.00788353
0.00792259
0.00793311
0.00789026
0.00777969
0.00759545
0.00733767
0.00701072
0.00662191
0.00618061
0.00569778
0.00518594
0.00465922
0.00413332
0.00362486
0.00314967
0.00272053
0.00234545
0.00202725
0.00176404
0.00155034
0.0013786
0.00124087
0.00113
0.00104022
0.000967164
0.000907689
0.000859638
0.000821693
0.000793269
0.000774335
0.000764992
0.000765922
0.00077696
0.000807129
0.000843633
0.108778
0.0259455
0.0079996
0.00302529
0.00135555
0.000706528
0.000424147
0.000289695
0.000221467
0.000186032
0.000169161
0.000166478
0.000180546
0.000218697
0.000295744
0.000437854
0.000668565
0.00101344
0.00149901
0.00214224
0.00293947
0.00385724
0.00483142
0.00578075
0.00663253
0.00734675
0.00792501
0.00840181
0.00882347
0.0092193
0.0096516
0.010182
0.010806
0.0114308
0.0118877
0.0119961
0.0117426
0.0112275
0.0105835
0.00992472
0.00932624
0.00882218
0.00841362
0.00808378
0.00781778
0.00759189
0.0073802
0.00715907
0.0069096
0.00661854
0.00627833
0.00588683
0.00544692
0.00496614
0.00445639
0.00393339
0.00341558
0.00292193
0.00246923
0.00206937
0.00172835
0.00144704
0.00122232
0.00104805
0.000916267
0.000818683
0.000747738
0.000697122
0.000661841
0.000638152
0.000623491
0.000616456
0.000616935
0.000626471
0.000648002
0.000685872
0.00074157
0.000811935
0.000900419
0.000990005
0.108777
0.0259494
0.00800226
0.00301734
0.00133372
0.000671663
0.000379122
0.000237949
0.000165376
0.000126671
0.000106143
9.67187e-05
9.60181e-05
0.000104523
0.000125391
0.000165189
0.000229896
0.000326869
0.0004657
0.000657201
0.000912202
0.0012395
0.0016432
0.0021201
0.0026585
0.00323966
0.00384235
0.00444942
0.0050559
0.00569604
0.00639902
0.00715755
0.0079817
0.00884594
0.00963964
0.0102454
0.0105635
0.0105672
0.0103146
0.00990217
0.00942005
0.00892028
0.00842833
0.00796504
0.00753598
0.00713603
0.00675396
0.00637624
0.00598977
0.00558395
0.00515209
0.00469245
0.00420879
0.00371049
0.00321175
0.00272966
0.00228119
0.00187993
0.00153403
0.00124633
0.00101618
0.00084066
0.000714676
0.000631381
0.000583182
0.000562648
0.000563029
0.000578591
0.000604876
0.000638921
0.000679433
0.000727146
0.000785831
0.000864552
0.000966801
0.00108565
0.00121505
0.00134505
0.00148222
0.0015994
0.108777
0.0259522
0.00800562
0.00301815
0.00133031
0.000663342
0.000365837
0.000220125
0.000143559
0.000101291
7.73381e-05
6.3958e-05
5.74357e-05
5.62459e-05
6.03181e-05
7.08613e-05
8.8939e-05
0.00011588
0.000153499
0.000203867
0.000269164
0.000351387
0.000451903
0.000570896
0.000706868
0.000856515
0.00101534
0.00117932
0.00134794
0.00152953
0.00174388
0.00203917
0.00244739
0.00299414
0.00370807
0.00455618
0.0054227
0.00616835
0.0066962
0.00698182
0.0070567
0.0069625
0.00674725
0.00645702
0.00612314
0.00576378
0.00538756
0.00499713
0.00459238
0.00417293
0.00374025
0.00329906
0.00285799
0.00242893
0.00202523
0.001659
0.00133869
0.00106823
0.000848349
0.000678809
0.000558919
0.000486469
0.00045723
0.000465531
0.000505024
0.000569223
0.000651944
0.000747791
0.000852652
0.000964134
0.00108189
0.0012079
0.00135485
0.00151254
0.00167172
0.0018307
0.00198593
0.00212288
0.00225841
0.00235992
0.108778
0.0259538
0.00800774
0.00301958
0.00133042
0.000661795
0.000362421
0.000214715
0.000136104
9.17737e-05
6.57211e-05
5.00636e-05
4.07434e-05
3.5659e-05
3.38214e-05
3.49832e-05
3.90772e-05
4.61425e-05
5.63867e-05
7.00579e-05
8.73566e-05
0.000108336
0.000132781
0.000160076
0.000189103
0.000218257
0.000245652
0.000269593
0.000289307
0.000305852
0.00032302
0.000348889
0.000396767
0.000487082
0.000647794
0.000906546
0.00127272
0.00172311
0.00220513
0.00265685
0.00302878
0.00331291
0.0034854
0.00354707
0.0035112
0.00339568
0.00321793
0.00299291
0.00273307
0.00244939
0.00215247
0.00185323
0.00156268
0.00129098
0.00104612
0.000833215
0.000654769
0.000512408
0.000408721
0.000347037
0.000329523
0.000356059
0.000424532
0.000531354
0.000671314
0.000837216
0.00102023
0.00121118
0.00140207
0.00158741
0.00176472
0.00194183
0.00210065
0.0022426
0.00237975
0.00251964
0.00266271
0.00278325
0.00290258
0.00298479
0.108779
0.025955
0.0080091
0.00302077
0.00133107
0.000661798
0.000361716
0.000213239
0.000133777
8.85175e-05
6.14556e-05
4.46839e-05
3.40648e-05
2.73421e-05
2.32676e-05
2.11792e-05
2.07225e-05
2.16148e-05
2.37099e-05
2.69352e-05
3.12323e-05
3.65084e-05
4.25921e-05
4.91969e-05
5.59033e-05
6.21823e-05
6.74753e-05
7.13303e-05
7.35628e-05
7.43785e-05
7.4421e-05
7.47985e-05
7.7247e-05
8.47039e-05
0.000102328
0.000138168
0.000201473
0.000297933
0.000424695
0.000569303
0.000713417
0.000844665
0.000972452
0.00108009
0.00115547
0.00119173
0.00118735
0.00114519
0.00107119
0.000973149
0.00085965
0.000739156
0.000619176
0.000505799
0.000403713
0.000316786
0.00024933
0.000207425
0.000198713
0.000230544
0.000308471
0.000435922
0.000613525
0.000836847
0.00109406
0.0013666
0.00163366
0.00187799
0.0020897
0.00226685
0.00241543
0.00253202
0.00262526
0.00271332
0.00281176
0.00292978
0.00307029
0.00319256
0.00331388
0.00339254
0.108782
0.0259566
0.00801054
0.00302206
0.00133192
0.000662198
0.000361738
0.000212921
0.000133115
8.74775e-05
5.99904e-05
4.27348e-05
3.15527e-05
2.41498e-05
1.92105e-05
1.59643e-05
1.39982e-05
1.29506e-05
1.25843e-05
1.27511e-05
1.3348e-05
1.42874e-05
1.54767e-05
1.68046e-05
1.81371e-05
1.93253e-05
2.0229e-05
2.07507e-05
2.0868e-05
2.06488e-05
2.0242e-05
1.98528e-05
1.97323e-05
2.02226e-05
2.1909e-05
2.58733e-05
3.38094e-05
4.75508e-05
6.7897e-05
9.34192e-05
0.000120192
0.000143015
0.000167438
0.000193017
0.000217065
0.00023657
0.000248881
0.000252278
0.000246254
0.000231516
0.000209727
0.000183162
0.000154416
0.000126334
0.000102276
8.69621e-05
8.77318e-05
0.000115107
0.000181763
0.000300395
0.000481397
0.000729505
0.0010379
0.0013835
0.00173039
0.00204201
0.00229423
0.0024807
0.00260925
0.00269437
0.00274968
0.00278805
0.00282851
0.00288367
0.00296461
0.00307796
0.00323367
0.00338116
0.00352865
0.00361711
0.108787
0.0259594
0.00801301
0.00302405
0.00133319
0.000662867
0.000362018
0.000212955
0.000132968
8.71697e-05
5.95123e-05
4.20628e-05
3.06531e-05
2.29773e-05
1.77026e-05
1.40313e-05
1.15457e-05
9.8714e-06
8.75337e-06
8.03025e-06
7.59381e-06
7.36548e-06
7.28199e-06
7.28704e-06
7.32758e-06
7.35472e-06
7.32864e-06
7.22537e-06
7.04226e-06
6.79843e-06
6.52984e-06
6.28129e-06
6.10024e-06
6.03697e-06
6.15692e-06
6.57083e-06
7.46715e-06
9.08551e-06
1.1564e-05
1.47007e-05
1.78047e-05
1.98045e-05
2.19148e-05
2.41225e-05
2.62984e-05
2.82312e-05
2.96496e-05
3.02784e-05
2.99137e-05
2.84928e-05
2.61507e-05
2.32853e-05
2.07162e-05
2.01096e-05
2.49319e-05
4.20853e-05
8.37601e-05
0.000167704
0.000314473
0.000542345
0.00085922
0.00125128
0.00167682
0.00207684
0.00239932
0.00261945
0.0027425
0.00279283
0.00279943
0.00278624
0.00277143
0.00277199
0.00279656
0.0028494
0.00293549
0.00305784
0.00323728
0.00342283
0.00361671
0.00372592
0.108794
0.0259643
0.00801739
0.00302742
0.00133525
0.000663943
0.000362512
0.000213138
0.000132988
8.70921e-05
5.93599e-05
4.18357e-05
3.03403e-05
2.25614e-05
1.71607e-05
1.33337e-05
1.06647e-05
8.77916e-06
7.42032e-06
6.42645e-06
5.6913e-06
5.1418e-06
4.72518e-06
4.40131e-06
4.13859e-06
3.91211e-06
3.70349e-06
3.50134e-06
3.3015e-06
3.10609e-06
2.92167e-06
2.75688e-06
2.62058e-06
2.52109e-06
2.46675e-06
2.46825e-06
2.54184e-06
2.70733e-06
2.97064e-06
3.29242e-06
3.56848e-06
3.67793e-06
3.76007e-06
3.80381e-06
3.80082e-06
3.74552e-06
3.63548e-06
3.47434e-06
3.28216e-06
3.12444e-06
3.18706e-06
3.96025e-06
6.67426e-06
1.42862e-05
3.34232e-05
7.72218e-05
0.000167478
0.000333054
0.000602018
0.000986092
0.00146117
0.00196082
0.0023989
0.0027095
0.00287258
0.00291069
0.00286753
0.00278755
0.00270467
0.00263837
0.00260439
0.0026061
0.00264291
0.00271379
0.00281947
0.00295905
0.00316299
0.00338816
0.00364334
0.00378832
0.108805
0.0259716
0.00802426
0.0030326
0.00133839
0.000665588
0.00036328
0.00021345
0.000133082
8.70872e-05
5.93065e-05
4.17509e-05
3.0226e-05
2.24122e-05
1.69682e-05
1.3087e-05
1.03548e-05
8.39797e-06
6.9603e-06
5.88094e-06
5.05515e-06
4.41236e-06
3.9034e-06
3.49295e-06
3.15504e-06
2.87043e-06
2.62506e-06
2.4092e-06
2.21672e-06
2.04433e-06
1.89069e-06
1.75561e-06
1.63937e-06
1.54236e-06
1.46487e-06
1.40708e-06
1.36911e-06
1.35056e-06
1.34852e-06
1.35426e-06
1.35186e-06
1.32836e-06
1.30076e-06
1.26691e-06
1.22575e-06
1.17841e-06
1.1324e-06
1.11422e-06
1.20261e-06
1.60792e-06
2.85247e-06
6.17891e-06
1.44553e-05
3.40616e-05
7.82458e-05
0.000171268
0.000349575
0.000653076
0.00110083
0.0016593
0.0022338
0.0027068
0.00299737
0.00309264
0.00303541
0.00289125
0.00272051
0.00256524
0.00244721
0.00238029
0.00236245
0.00238784
0.0024512
0.00254983
0.00268319
0.00284633
0.00307484
0.00333552
0.00366233
0.00386843
0.108818
0.025981
0.00803354
0.00303964
0.00134267
0.000667858
0.000364354
0.000213899
0.000133235
8.7111e-05
5.92794e-05
4.17046e-05
3.01705e-05
2.23484e-05
1.6893e-05
1.2996e-05
1.02443e-05
8.26515e-06
6.8027e-06
5.69682e-06
4.84354e-06
4.17326e-06
3.638e-06
3.2039e-06
2.84653e-06
2.54802e-06
2.2952e-06
2.07844e-06
1.89074e-06
1.72712e-06
1.58402e-06
1.45887e-06
1.34976e-06
1.25521e-06
1.17397e-06
1.10489e-06
1.04679e-06
9.98226e-07
9.5726e-07
9.21113e-07
8.86238e-07
8.50371e-07
8.16142e-07
7.83343e-07
7.54926e-07
7.45013e-07
8.00048e-07
1.04644e-06
1.78846e-06
3.7051e-06
8.24603e-06
1.84418e-05
4.05885e-05
8.75851e-05
0.000184253
0.000371752
0.000701203
0.00120357
0.00184266
0.00249758
0.00301461
0.00329148
0.00331966
0.00316375
0.00291381
0.00264812
0.00241768
0.00224723
0.00214266
0.00210341
0.00211784
0.00217559
0.00227055
0.00240062
0.00256685
0.00276081
0.00301841
0.00331104
0.00371528
0.00402521
0.108832
0.025991
0.00804435
0.00304799
0.00134783
0.000670629
0.000365688
0.000214467
0.000133434
8.71498e-05
5.92568e-05
4.16635e-05
3.01267e-05
2.2306e-05
1.68515e-05
1.29534e-05
1.01985e-05
8.21428e-06
6.74555e-06
5.63254e-06
4.77172e-06
4.09389e-06
3.55153e-06
3.11124e-06
2.74903e-06
2.4474e-06
2.19336e-06
1.97725e-06
1.79176e-06
1.6314e-06
1.49195e-06
1.3702e-06
1.26362e-06
1.17025e-06
1.08847e-06
1.01691e-06
9.54331e-07
8.99487e-07
8.51085e-07
8.0774e-07
7.6804e-07
7.31143e-07
6.99209e-07
6.83417e-07
7.25326e-07
9.39513e-07
1.58997e-06
3.22049e-06
6.87465e-06
1.44776e-05
2.95452e-05
5.86225e-05
0.000114248
0.000220345
0.000418566
0.000766248
0.00130758
0.00201518
0.00275367
0.003332
0.00361461
0.00358716
0.00333408
0.0029738
0.00260682
0.00229552
0.00206639
0.00192234
0.00185671
0.00185632
0.00190717
0.00199862
0.00212605
0.00228916
0.00249282
0.00272735
0.00302502
0.00335122
0.00383572
0.0043178
0.108847
0.0259997
0.00805509
0.00305659
0.00135324
0.000673589
0.000367132
0.000215088
0.000133652
8.71906e-05
5.92297e-05
4.16169e-05
3.00795e-05
2.22641e-05
1.68156e-05
1.29221e-05
1.017e-05
8.18713e-06
6.71866e-06
5.60516e-06
4.74335e-06
4.06429e-06
3.52067e-06
3.07927e-06
2.71626e-06
2.41427e-06
2.16038e-06
1.9449e-06
1.76045e-06
1.60139e-06
1.46333e-06
1.34288e-06
1.23738e-06
1.14472e-06
1.06323e-06
9.91508e-07
9.28342e-07
8.7263e-07
8.23346e-07
7.79543e-07
7.40422e-07
7.18379e-07
7.92734e-07
1.14197e-06
2.13723e-06
4.44864e-06
9.18615e-06
1.80952e-05
3.38618e-05
6.06931e-05
0.000105497
0.000180331
0.000306957
0.000523237
0.000885078
0.00144572
0.00219683
0.00300958
0.00366488
0.00398146
0.00392025
0.00357694
0.00310133
0.00262328
0.00222134
0.0019263
0.00173765
0.0016409
0.00162102
0.00166028
0.00174617
0.00187016
0.00203012
0.00222822
0.00247522
0.0027641
0.00311994
0.00348846
0.00405763
0.00481909
0.108859
0.0260047
0.00806384
0.00306408
0.0013581
0.000676294
0.000368462
0.000215657
0.000133844
8.72148e-05
5.91905e-05
4.15609e-05
3.00253e-05
2.22173e-05
1.67769e-05
1.28904e-05
1.01436e-05
8.16467e-06
6.699e-06
5.58754e-06
4.72727e-06
4.04946e-06
3.50702e-06
3.06695e-06
2.70572e-06
2.40628e-06
2.15628e-06
1.94688e-06
1.77215e-06
1.62879e-06
1.51649e-06
1.43701e-06
1.39476e-06
1.39585e-06
1.44627e-06
1.55065e-06
1.71243e-06
1.93584e-06
2.22968e-06
2.61236e-06
3.11903e-06
4.28257e-06
7.50852e-06
1.3844e-05
2.47054e-05
4.19293e-05
6.78446e-05
0.000105474
0.000158977
0.000234628
0.000342723
0.000501216
0.000741559
0.00111345
0.0016734
0.00243482
0.00329499
0.00402809
0.00440476
0.00433858
0.00391807
0.00332252
0.00271945
0.00221234
0.00183966
0.00159841
0.00146729
0.00142323
0.001447
0.00152297
0.0016417
0.0017976
0.00199133
0.00222866
0.00252929
0.00289486
0.00333751
0.00376259
0.00442738
0.00563694
0.108869
0.0260042
0.00806892
0.00306922
0.00136161
0.000678294
0.000369443
0.000216057
0.000133954
8.71992e-05
5.9131e-05
4.14944e-05
2.99666e-05
2.21716e-05
1.6746e-05
1.28767e-05
1.01507e-05
8.19914e-06
6.77248e-06
5.71915e-06
4.9478e-06
4.40765e-06
4.07906e-06
3.97059e-06
4.1207e-06
4.60358e-06
5.53748e-06
7.09331e-06
9.4968e-06
1.30139e-05
1.81354e-05
2.46277e-05
3.25955e-05
4.20581e-05
5.26353e-05
6.38731e-05
7.53934e-05
8.70321e-05
9.89196e-05
0.000111504
0.000125563
0.000143157
0.000169634
0.000206131
0.000253583
0.00031294
0.000385485
0.000473466
0.000581181
0.000717009
0.000896811
0.00114917
0.00151987
0.00206468
0.00281023
0.00368287
0.00447191
0.00491569
0.00486815
0.00438576
0.00366567
0.00291896
0.00228514
0.00181789
0.0015126
0.00134033
0.00126913
0.00127462
0.00133851
0.00144923
0.00160072
0.0017905
0.00202227
0.00230762
0.00268281
0.00316997
0.00375006
0.00424618
0.00502324
0.00695186
0.108873
0.0259964
0.0080686
0.00307069
0.00136297
0.000679156
0.000369886
0.000216259
0.000134069
8.73469e-05
5.94192e-05
4.20554e-05
3.10033e-05
2.40221e-05
1.99738e-05
1.83923e-05
1.91375e-05
2.21479e-05
2.75385e-05
3.55471e-05
4.6503e-05
6.08206e-05
7.90082e-05
0.000101685
0.000129588
0.00016356
0.000204462
0.000253005
0.000309459
0.000373257
0.000442668
0.000514616
0.000585485
0.000650873
0.000707432
0.000753427
0.00078907
0.00081629
0.00083815
0.000858198
0.000880087
0.000905769
0.000938655
0.000979233
0.00102812
0.0010869
0.00115901
0.00125104
0.00137449
0.00154829
0.00180193
0.00217728
0.00272138
0.00345616
0.00432075
0.00512752
0.00561056
0.00557621
0.00503262
0.00417526
0.00325695
0.00246442
0.0018764
0.00149015
0.00126685
0.00116416
0.00114912
0.00120013
0.00130317
0.00145071
0.00163968
0.00187044
0.00215057
0.00250128
0.00299588
0.00370664
0.00452957
0.00510594
0.00600331
0.00912686
0.108871
0.0259776
0.00806036
0.00306783
0.00136362
0.000682704
0.00037684
0.000228494
0.000155262
0.000123497
0.000119157
0.000136511
0.000173315
0.000228735
0.000302458
0.000394191
0.000497944
0.000609824
0.000727568
0.000849259
0.000973299
0.00109842
0.00122367
0.00134831
0.00147165
0.00159277
0.00171018
0.00182161
0.00192386
0.00201302
0.00208501
0.00213739
0.00216823
0.00217806
0.00216946
0.00214655
0.00211427
0.00207781
0.0020421
0.00201143
0.00198978
0.00197953
0.0019822
0.00199924
0.00203353
0.00209123
0.00218267
0.00232328
0.00253466
0.00284532
0.00328888
0.00389493
0.00466399
0.00552564
0.00630543
0.00675428
0.00666425
0.00600454
0.00495678
0.0038085
0.00280075
0.00204769
0.00155176
0.00126183
0.00112008
0.00108251
0.0011211
0.00121902
0.00136744
0.00156258
0.00180379
0.00209437
0.002447
0.00289958
0.00361283
0.0047833
0.0061003
0.00678693
0.00775132
0.0130403
0.109015
0.0261394
0.00825423
0.00330799
0.00168034
0.00112165
0.0010055
0.00113137
0.00141658
0.00180638
0.00225155
0.00270836
0.00314274
0.00353162
0.0038614
0.00412513
0.00431083
0.0044282
0.00449192
0.00451516
0.00450935
0.00448416
0.00444753
0.00440569
0.00436321
0.004323
0.00428638
0.00425323
0.00422223
0.00419098
0.00415659
0.00411612
0.0040672
0.00400878
0.00394173
0.00386879
0.00379423
0.00372328
0.0036615
0.00361397
0.00358617
0.00358053
0.00360043
0.00365105
0.0037461
0.00390436
0.00414759
0.00449915
0.00498128
0.00560961
0.00638192
0.00725817
0.00813314
0.00882117
0.00908764
0.00874434
0.00776562
0.00633977
0.00479487
0.00343623
0.00242153
0.00175667
0.00136864
0.00117429
0.00111108
0.00114078
0.00124192
0.00140356
0.00162245
0.00189844
0.00223338
0.00263451
0.00312507
0.00378288
0.00495538
0.00712725
0.00957006
0.0107091
0.0115096
0.0196202
0.117491
0.0358477
0.0174849
0.012364
0.0112302
0.0116287
0.0127094
0.0139719
0.0150306
0.0156473
0.0157647
0.0154644
0.0148887
0.0141762
0.0134297
0.0127115
0.012055
0.0114782
0.0109788
0.0105456
0.0101669
0.00983331
0.0095376
0.00927453
0.00903995
0.00883013
0.00864134
0.00846963
0.00831099
0.00816144
0.00801772
0.0078778
0.00774142
0.0076105
0.00748918
0.00738308
0.00729862
0.00724207
0.00721873
0.00723404
0.00728647
0.00739549
0.00760752
0.00794336
0.00841728
0.00904011
0.00981714
0.0107419
0.0117867
0.012891
0.0139491
0.0147951
0.0152017
0.0149252
0.0138112
0.0119095
0.00950609
0.0070349
0.00490402
0.00333515
0.00232789
0.00175537
0.00147547
0.00138437
0.00142217
0.00155805
0.00177858
0.00208072
0.00246964
0.00295172
0.00353312
0.00422797
0.00509791
0.00637651
0.00878642
0.0132197
0.0184151
0.0229436
0.0241693
0.024753
0.223501
0.161831
0.121104
0.094479
0.0764441
0.0640306
0.0554094
0.0494114
0.0451819
0.0420501
0.0395261
0.0373088
0.0352544
0.033319
0.0315046
0.0298236
0.0283218
0.027014
0.0258782
0.0248882
0.0240201
0.0232531
0.0225693
0.0219529
0.0213906
0.0208719
0.0203895
0.0199401
0.0195254
0.0191524
0.0188328
0.0185817
0.0184155
0.0183496
0.0183956
0.0185596
0.01884
0.0192274
0.0197037
0.0202419
0.0208139
0.0213575
0.0217833
0.0220462
0.0221348
0.0220628
0.0218611
0.0215647
0.021197
0.0207532
0.0201878
0.0194091
0.0182916
0.0167148
0.0146301
0.0121284
0.00946993
0.00703176
0.00514049
0.00390479
0.00322875
0.00295433
0.00295932
0.00317502
0.00357584
0.00416389
0.00495562
0.00597943
0.0072718
0.00887794
0.0108506
0.0133018
0.0165473
0.0215869
0.0300569
0.0425435
0.0534287
0.0666854
0.0758802
0.092286
)
;

boundaryField
{
    inlet
    {
        type            fixedValue;
        value           uniform 0.63;
    }
    outlet
    {
        type            zeroGradient;
    }
    fixedWalls
    {
        lowReCorrection 0;
        type            epsilonWallFunction;
        value           nonuniform List<scalar> 
160
(
0.223501
0.161831
0.121104
0.094479
0.0764441
0.0640306
0.0554094
0.0494114
0.0451819
0.0420501
0.0395261
0.0373088
0.0352544
0.033319
0.0315046
0.0298236
0.0283218
0.027014
0.0258782
0.0248882
0.0240201
0.0232531
0.0225693
0.0219529
0.0213906
0.0208719
0.0203895
0.0199401
0.0195254
0.0191524
0.0188328
0.0185817
0.0184155
0.0183496
0.0183956
0.0185596
0.01884
0.0192274
0.0197037
0.0202419
0.0208139
0.0213575
0.0217833
0.0220462
0.0221348
0.0220628
0.0218611
0.0215647
0.021197
0.0207532
0.0201878
0.0194091
0.0182916
0.0167148
0.0146301
0.0121284
0.00946993
0.00703176
0.00514049
0.00390479
0.00322875
0.00295433
0.00295932
0.00317502
0.00357584
0.00416389
0.00495562
0.00597943
0.0072718
0.00887794
0.0108506
0.0133018
0.0165473
0.0215869
0.0300569
0.0425435
0.0534287
0.0666854
0.0758802
0.092286
0.0135126
0.0111846
0.0081904
0.00480222
0.00122925
0.000132251
0.000109818
0.000130595
0.000143172
0.000115901
7.40643e-05
5.03034e-05
5.67849e-05
6.31417e-05
6.90805e-05
6.91774e-05
7.80501e-05
9.91634e-05
0.000130455
0.000171681
0.000222047
0.000280314
0.000345376
0.000416891
0.00049595
0.000587498
0.000666229
0.000712098
0.000704657
0.000631183
0.000512634
0.000437413
0.000609799
0.00107834
0.00170024
0.00242391
0.00319167
0.00396251
0.00471273
0.00542745
0.00609406
0.00670133
0.00724474
0.00773518
0.00820774
0.0085151
0.00867854
0.00873701
0.00872422
0.00866577
0.00858035
0.00848116
0.00837684
0.00827213
0.00816847
0.00806537
0.00796572
0.00786748
0.0077586
0.00763328
0.00748751
0.00738078
0.00727649
0.00715628
0.00702368
0.00688594
0.00675038
0.00662327
0.00650954
0.00641296
0.00633653
0.00628277
0.00625414
0.00625336
0.00628373
0.00634976
0.00645727
0.00661717
0.00683794
0.00718807
)
;
    }
    frontAndBack
    {
        type            empty;
    }
}


// ************************************************************************* //
