/*--------------------------------*- C++ -*----------------------------------*\
| =========                 |                                                 |
| \\      /  F ield         | OpenFOAM: The Open Source CFD Toolbox           |
|  \\    /   O peration     | Version:  v1912                                 |
|   \\  /    A nd           | Website:  www.openfoam.com                      |
|    \\/     M anipulation  |                                                 |
\*---------------------------------------------------------------------------*/
FoamFile
{
    version     2.0;
    format      ascii;
    class       volScalarField;
    location    "50";
    object      k;
}
// * * * * * * * * * * * * * * * * * * * * * * * * * * * * * * * * * * * * * //

dimensions      [0 2 -2 0 0 0 0];


internalField   nonuniform List<scalar> 
2000
(
0.0162095
0.0147777
0.0124078
0.00897706
0.0037356
0.000871566
0.000793624
0.000917521
0.00100386
0.000898027
0.000684871
0.000543214
0.00060394
0.000664142
0.000721509
0.000740728
0.000823468
0.000985682
0.00120431
0.00146911
0.00176892
0.00209285
0.00243274
0.00278497
0.00315268
0.0035564
0.00389942
0.00411099
0.00412009
0.00386876
0.00340001
0.00305612
0.00375675
0.0054547
0.00739101
0.00937818
0.0112854
0.0130501
0.0146531
0.0160907
0.0173599
0.018457
0.019388
0.0201827
0.0209085
0.0213332
0.0214953
0.0214669
0.0213079
0.0210627
0.020763
0.0204316
0.0200832
0.0197268
0.0193658
0.0190009
0.0186352
0.0182716
0.0178922
0.0174873
0.0170504
0.0166524
0.0162715
0.0158635
0.0154311
0.0149843
0.0145344
0.014091
0.0136616
0.0132518
0.0128655
0.0125057
0.0121744
0.0118735
0.0116047
0.0113703
0.0111732
0.0110207
0.0109162
0.0109247
0.00683763
0.00499925
0.00452657
0.00410446
0.00326672
0.00245919
0.00191869
0.00165882
0.00480748
0.0037095
0.00225246
0.00180798
0.00192977
0.00200882
0.00197856
0.00207934
0.00227545
0.00253845
0.00289316
0.00335812
0.00393711
0.00461825
0.00537789
0.00618237
0.00698982
0.00773646
0.00850554
0.00916374
0.00958755
0.0096731
0.0094198
0.00911596
0.00950434
0.0109326
0.0130873
0.0156903
0.0186244
0.0219441
0.025751
0.0300529
0.0346637
0.0392023
0.0431992
0.0462325
0.0478619
0.0485956
0.0486683
0.0482579
0.0475003
0.0465005
0.0453397
0.0440812
0.0427751
0.0414594
0.0401587
0.0388771
0.0376226
0.0364968
0.0354284
0.0343814
0.0333235
0.03223
0.0310955
0.0299255
0.028737
0.0275523
0.026393
0.0252765
0.0242145
0.0232137
0.0222773
0.0214061
0.0206
0.0198578
0.0191789
0.0185588
0.0180006
0.0174631
0.0170401
0.0164836
0.0051462
0.00248515
0.00187954
0.00175516
0.00163547
0.00147538
0.00133004
0.00124881
0.00177286
0.00213585
0.00257953
0.00414252
0.00652465
0.00604085
0.00493526
0.00447718
0.00455488
0.00477393
0.00509137
0.00556228
0.00621789
0.00705586
0.00805209
0.00916868
0.0103588
0.0115644
0.0127168
0.01397
0.0151748
0.0162078
0.0169288
0.0172215
0.0170965
0.0175423
0.0187524
0.020775
0.0235506
0.0270807
0.0313832
0.0363399
0.0416105
0.0466778
0.0509654
0.0539381
0.0556594
0.0563708
0.0563211
0.0557019
0.0546485
0.053265
0.0516367
0.0498352
0.0479217
0.0459479
0.0439568
0.0419822
0.040051
0.0381823
0.0363735
0.0346136
0.0328922
0.0312088
0.0295737
0.0280039
0.0265182
0.0251334
0.0238596
0.0226998
0.0216504
0.0207043
0.0198529
0.019088
0.0184027
0.0177917
0.0172508
0.016774
0.0163591
0.0159703
0.0156878
0.0152567
0.00490121
0.00193921
0.00108624
0.000850949
0.00079247
0.000769981
0.000752055
0.000744371
0.000867457
0.00106615
0.00138084
0.00209832
0.00354951
0.00529475
0.00733559
0.00911332
0.00982618
0.00977211
0.00960813
0.00966015
0.0100055
0.010645
0.0115575
0.012717
0.0141005
0.0156802
0.0173972
0.0191611
0.0211191
0.0231834
0.0251939
0.0269613
0.0281817
0.0284456
0.0287061
0.0292721
0.0303647
0.0321063
0.0345496
0.0376552
0.0412548
0.0450351
0.0485723
0.0514211
0.0534022
0.0545128
0.054847
0.054526
0.0536662
0.05237
0.0507265
0.0488132
0.0466978
0.0444397
0.0420907
0.0396951
0.0372903
0.0349063
0.0325654
0.0302869
0.0280918
0.0260061
0.0240584
0.0222739
0.0206691
0.0192491
0.0180079
0.016931
0.0159999
0.0151953
0.0144999
0.0138992
0.0133822
0.0129409
0.0125698
0.0122628
0.0120162
0.0118028
0.0116716
0.0114622
0.00486817
0.00184217
0.000889158
0.000553982
0.000439063
0.000406962
0.000404719
0.000413834
0.000455004
0.00053267
0.000663962
0.000930175
0.00149261
0.00245729
0.00402802
0.00636194
0.00910815
0.0117248
0.0137712
0.0150718
0.015804
0.016313
0.0168814
0.0176631
0.0187228
0.0200811
0.0217362
0.0236481
0.0258073
0.0282362
0.0308752
0.033567
0.0359862
0.0375698
0.038232
0.0383253
0.0381691
0.0380823
0.0383332
0.0390881
0.0403766
0.042083
0.0439808
0.0458182
0.0473393
0.0483704
0.0488426
0.0487572
0.0481542
0.0470907
0.0456295
0.0438335
0.0417632
0.0394763
0.0370273
0.0344678
0.0318477
0.0292161
0.0266227
0.0241185
0.0217541
0.0195739
0.0176112
0.0158837
0.0143924
0.0131242
0.0120564
0.0111622
0.0104154
0.00979272
0.00927507
0.00884745
0.00849866
0.00822094
0.00800951
0.00785974
0.00776856
0.00771732
0.0077273
0.00771268
0.00486377
0.00182805
0.000849448
0.000474214
0.000317478
0.000253119
0.000231548
0.00023066
0.000245917
0.000277269
0.000329525
0.000424572
0.000613518
0.000961674
0.00158176
0.00264825
0.00425825
0.00644038
0.00912215
0.012074
0.014963
0.0174931
0.0195352
0.0211506
0.0225137
0.0238152
0.0252072
0.0267874
0.0285822
0.0306726
0.0331272
0.0359019
0.038762
0.0412676
0.0429125
0.0435188
0.0433147
0.042634
0.0418178
0.0411446
0.0407809
0.040764
0.0410179
0.0414509
0.0419159
0.0422499
0.0423269
0.0420678
0.0414352
0.0404227
0.0390454
0.0373331
0.0353251
0.0330684
0.0306163
0.0280289
0.0253733
0.0227224
0.0201521
0.0177332
0.015523
0.0135589
0.0118572
0.0104154
0.00921548
0.00823017
0.00742862
0.00678129
0.00626238
0.00585041
0.00552804
0.00528173
0.00510167
0.00498167
0.00491883
0.00491133
0.00496076
0.00506572
0.00527037
0.0055113
0.00486318
0.00182655
0.000843155
0.000456547
0.000283039
0.000199634
0.00015988
0.000143532
0.000141897
0.000151458
0.000171829
0.000207824
0.000273427
0.000390981
0.00059866
0.000961356
0.00153734
0.00239154
0.00359439
0.00519968
0.00722067
0.00960769
0.0122419
0.0149585
0.0175946
0.0200398
0.0222614
0.0243005
0.0262722
0.0282474
0.0303595
0.032775
0.0355003
0.038311
0.0407842
0.0424605
0.0431601
0.0430326
0.0423657
0.0414561
0.0405301
0.0397082
0.0389895
0.0383991
0.037894
0.0373959
0.0368167
0.0360767
0.0351145
0.0338903
0.0323858
0.0306027
0.0285615
0.0263008
0.0238763
0.0213603
0.0188368
0.0163934
0.0141094
0.0120441
0.010232
0.0086858
0.00740078
0.00635868
0.00553244
0.00489164
0.00440666
0.00405066
0.00380023
0.00363582
0.00354218
0.0035089
0.00353138
0.00361229
0.00376112
0.0039934
0.00431675
0.00471927
0.0052092
0.00570744
0.0048631
0.00182658
0.000842589
0.000453357
0.00027473
0.000183891
0.000135022
0.000108705
9.60069e-05
9.26763e-05
9.69032e-05
0.000109022
0.000132396
0.000173731
0.000244623
0.000364517
0.000550276
0.000822622
0.00120851
0.0017389
0.00244628
0.00335979
0.00449836
0.00586319
0.00743284
0.00916449
0.0110037
0.0129015
0.0148416
0.0169234
0.0192361
0.0217667
0.0245593
0.0275697
0.030534
0.0331941
0.0352564
0.0365385
0.0370725
0.0370278
0.0366045
0.0359238
0.0350933
0.0342011
0.0332766
0.032313
0.0312802
0.0301375
0.0288445
0.0273683
0.0256904
0.0238103
0.021749
0.0195506
0.0172802
0.015018
0.0128473
0.0108404
0.00904718
0.00749398
0.0061898
0.0051319
0.00430702
0.00369346
0.00326496
0.00299384
0.00285285
0.00281691
0.00286497
0.00298145
0.00315731
0.00339154
0.00369443
0.0040935
0.0045986
0.00518547
0.00582901
0.00649115
0.00718655
0.00780285
0.00486309
0.0018267
0.000842725
0.000452979
0.000273009
0.0001798
0.000127464
9.66563e-05
7.84081e-05
6.82812e-05
6.40518e-05
6.4859e-05
7.11086e-05
8.45661e-05
0.000108722
0.000149489
0.000211355
0.000299444
0.000420197
0.000580868
0.000789334
0.00105344
0.00137983
0.00177225
0.00222991
0.00274659
0.00331193
0.00391591
0.00455827
0.00526623
0.00610311
0.00721472
0.00870251
0.0106476
0.0131348
0.0160783
0.0191584
0.0219769
0.0242319
0.0258061
0.0267358
0.0270997
0.0270189
0.0266132
0.0259675
0.0251328
0.0241336
0.0229773
0.0216629
0.0201895
0.0185639
0.016807
0.014957
0.0130695
0.011211
0.00944803
0.00783559
0.00640915
0.00518721
0.0041796
0.00339075
0.00281691
0.00244518
0.00225588
0.00222521
0.00232796
0.00254021
0.00284147
0.00321606
0.00365405
0.00415194
0.00471326
0.0053722
0.00609489
0.00684874
0.00762371
0.00840233
0.00913247
0.00985205
0.0104312
0.00486308
0.00182673
0.000842819
0.000453006
0.000272725
0.000178845
0.000125373
9.28858e-05
7.23414e-05
5.91982e-05
5.10614e-05
4.66886e-05
4.56041e-05
4.7981e-05
5.4683e-05
6.74291e-05
8.74658e-05
0.000116138
0.00015503
0.000205679
0.000269448
0.000347282
0.000439351
0.000544588
0.000660264
0.00078184
0.000903462
0.00101939
0.00112659
0.00122837
0.00133852
0.00148809
0.00172976
0.00214439
0.00284039
0.00392291
0.00542873
0.00727611
0.00927626
0.0112031
0.0128695
0.0142262
0.015166
0.0156849
0.015821
0.0156276
0.0151559
0.0144496
0.0135458
0.0124787
0.0112855
0.0100094
0.00869959
0.0074079
0.00618224
0.00506088
0.00406984
0.00322699
0.0025488
0.00205047
0.00173988
0.00161474
0.00166433
0.00187275
0.00222135
0.00268932
0.00325406
0.00389251
0.00458334
0.00530959
0.00606063
0.00685378
0.0076315
0.00838887
0.00915166
0.00993299
0.0107233
0.0114367
0.0121175
0.0126294
0.00486306
0.00182666
0.000842774
0.000452996
0.000272675
0.000178634
0.00012483
9.17856e-05
7.04005e-05
5.60702e-05
4.63192e-05
3.97675e-05
3.56638e-05
3.36754e-05
3.38112e-05
3.6422e-05
4.17761e-05
5.01395e-05
6.18578e-05
7.72495e-05
9.65346e-05
0.000119738
0.000146567
0.000176275
0.000207572
0.00023864
0.000267371
0.000291835
0.00031093
0.000325013
0.000336359
0.000349611
0.000372812
0.000420112
0.000516253
0.000699452
0.00101434
0.00149166
0.00212592
0.00286849
0.00364126
0.00438553
0.00511427
0.00574358
0.00621339
0.0064889
0.00655962
0.00643427
0.00613508
0.00569322
0.00514536
0.00453055
0.00388701
0.00324953
0.00264793
0.00210701
0.00164926
0.00129888
0.00108071
0.00101402
0.001109
0.0013679
0.00178723
0.0023562
0.00305243
0.00384092
0.0046798
0.00552993
0.00636286
0.00716471
0.00794093
0.0086688
0.00935237
0.0100288
0.0107334
0.0114853
0.0122814
0.0129939
0.0136543
0.0141189
0.00486301
0.00182646
0.000842571
0.000452861
0.000272588
0.000178545
0.000124672
9.14695e-05
6.98083e-05
5.50526e-05
4.46881e-05
3.72811e-05
3.19898e-05
2.83247e-05
2.60308e-05
2.50354e-05
2.53303e-05
2.68666e-05
2.9634e-05
3.36332e-05
3.88421e-05
4.51811e-05
5.24753e-05
6.04211e-05
6.85717e-05
7.63636e-05
8.32018e-05
8.86012e-05
9.23453e-05
9.45975e-05
9.59219e-05
9.72339e-05
9.97976e-05
0.000105475
0.000117488
0.000141695
0.000187281
0.000264772
0.000380564
0.000530685
0.000698226
0.000857972
0.00103525
0.0012244
0.00140671
0.00156116
0.00166896
0.0017172
0.0017007
0.0016221
0.00149063
0.00132011
0.00112704
0.000929198
0.000744958
0.000594479
0.000502258
0.000497206
0.000608727
0.000861992
0.00127567
0.001859
0.00260321
0.0034728
0.00440852
0.00534486
0.00623133
0.00704382
0.00778219
0.00845974
0.00909251
0.00968469
0.0102722
0.0108834
0.0115468
0.0122778
0.0130925
0.0138345
0.0145125
0.0149517
0.00486294
0.00182612
0.000842199
0.000452579
0.000272399
0.000178418
0.00012457
9.1349e-05
6.96175e-05
5.47278e-05
4.415e-05
3.64291e-05
3.06919e-05
2.6399e-05
2.32159e-05
2.09442e-05
1.95092e-05
1.87816e-05
1.866e-05
1.9072e-05
1.99541e-05
2.12352e-05
2.28237e-05
2.45986e-05
2.64081e-05
2.8082e-05
2.94584e-05
3.0422e-05
3.09393e-05
3.10765e-05
3.09912e-05
3.09062e-05
3.10846e-05
3.18329e-05
3.35668e-05
3.69721e-05
4.31845e-05
5.36784e-05
6.94911e-05
8.98948e-05
0.000111323
0.000127487
0.000145441
0.000165181
0.000185749
0.000205359
0.000221555
0.000231706
0.000233673
0.00022643
0.000210468
0.000187986
0.000163098
0.00014255
0.000137624
0.000167149
0.000259916
0.000453323
0.000787301
0.00129604
0.0019961
0.00286971
0.00385524
0.00486152
0.00580258
0.00662847
0.00733276
0.00793968
0.00848409
0.00899757
0.00949469
0.0100051
0.0105475
0.0111352
0.0117844
0.0125012
0.0133303
0.0141116
0.014843
0.0152823
0.00486282
0.00182562
0.000841641
0.000452138
0.000272087
0.000178209
0.000124432
9.12484e-05
6.9523e-05
5.46071e-05
4.39675e-05
3.61428e-05
3.02489e-05
2.57306e-05
2.22289e-05
1.95088e-05
1.74823e-05
1.60024e-05
1.49472e-05
1.4231e-05
1.37879e-05
1.35619e-05
1.34993e-05
1.35447e-05
1.36398e-05
1.37274e-05
1.37584e-05
1.37008e-05
1.35475e-05
1.3318e-05
1.30541e-05
1.28119e-05
1.26531e-05
1.26414e-05
1.28448e-05
1.3349e-05
1.42741e-05
1.57629e-05
1.78801e-05
2.04197e-05
2.27538e-05
2.4075e-05
2.52301e-05
2.61334e-05
2.6712e-05
2.69049e-05
2.66628e-05
2.59607e-05
2.48415e-05
2.35243e-05
2.26496e-05
2.38174e-05
3.07229e-05
5.13487e-05
0.000101648
0.000210011
0.000419236
0.000781572
0.00134487
0.00212929
0.00310052
0.00416226
0.00518791
0.00607532
0.0067834
0.00733108
0.00777014
0.00815762
0.00853886
0.00893876
0.00937818
0.00986598
0.0104053
0.0109991
0.0116521
0.0123566
0.0131823
0.0139885
0.0147985
0.0152802
0.00486266
0.00182492
0.000840891
0.000451533
0.000271646
0.000177907
0.000124233
9.11178e-05
6.94314e-05
5.45308e-05
4.38859e-05
3.60356e-05
3.0094e-05
2.5501e-05
2.18907e-05
1.90174e-05
1.67913e-05
1.50626e-05
1.37058e-05
1.26334e-05
1.17821e-05
1.11032e-05
1.05571e-05
1.01099e-05
9.73149e-06
9.39566e-06
9.08156e-06
8.77525e-06
8.47107e-06
8.17139e-06
7.88498e-06
7.62448e-06
7.4041e-06
7.23794e-06
7.13932e-06
7.12079e-06
7.19413e-06
7.36688e-06
7.62921e-06
7.93107e-06
8.16992e-06
8.254e-06
8.29336e-06
8.2712e-06
8.17677e-06
8.01021e-06
7.79743e-06
7.63328e-06
7.79083e-06
8.96913e-06
1.28096e-05
2.29081e-05
4.67328e-05
9.90697e-05
0.000207255
0.00041622
0.000787295
0.00138227
0.00222811
0.00327594
0.00439359
0.00541713
0.00622792
0.0067954
0.00716528
0.00741918
0.0076369
0.00787645
0.00816884
0.00853356
0.00896941
0.00946919
0.0100269
0.0106403
0.0113066
0.0120011
0.012806
0.0136094
0.0145081
0.0150955
0.00486245
0.00182405
0.000839963
0.000450775
0.000271082
0.000177514
0.000123971
9.09461e-05
6.93173e-05
5.44502e-05
4.38219e-05
3.59751e-05
3.00255e-05
2.54129e-05
2.17699e-05
1.88479e-05
1.65575e-05
1.47489e-05
1.32962e-05
1.21126e-05
1.11362e-05
1.03214e-05
9.63339e-06
9.04498e-06
8.5342e-06
8.08342e-06
7.67884e-06
7.31039e-06
6.97156e-06
6.65905e-06
6.372e-06
6.11119e-06
5.87829e-06
5.67533e-06
5.5042e-06
5.36625e-06
5.26162e-06
5.18804e-06
5.13878e-06
5.10007e-06
5.05101e-06
4.97743e-06
4.89867e-06
4.81283e-06
4.72971e-06
4.69821e-06
4.87636e-06
5.68373e-06
8.0966e-06
1.41756e-05
2.79711e-05
5.7096e-05
0.000115525
0.000228455
0.000438946
0.000811264
0.00141796
0.00229778
0.00339843
0.00456037
0.00558216
0.00632214
0.00675317
0.00694481
0.00700853
0.00704885
0.00713845
0.00731546
0.00759031
0.0079651
0.00842303
0.0089477
0.00953004
0.0101657
0.0108492
0.0115383
0.0123154
0.0130886
0.0140649
0.01484
0.00486222
0.00182302
0.000838898
0.000449899
0.000270422
0.000177048
0.000123655
9.07363e-05
6.91769e-05
5.43533e-05
4.37509e-05
3.59187e-05
2.99755e-05
2.5363e-05
2.17141e-05
1.87799e-05
1.64715e-05
1.46394e-05
1.31582e-05
1.19413e-05
1.09278e-05
1.00731e-05
9.34419e-06
8.7158e-06
8.16838e-06
7.68662e-06
7.25852e-06
6.87481e-06
6.52851e-06
6.21448e-06
5.92909e-06
5.66978e-06
5.43481e-06
5.22299e-06
5.03342e-06
4.86522e-06
4.71718e-06
4.58726e-06
4.47223e-06
4.36731e-06
4.26655e-06
4.16676e-06
4.07885e-06
4.04224e-06
4.19676e-06
4.91641e-06
7.03926e-06
1.22221e-05
2.34495e-05
4.57683e-05
8.74113e-05
0.000161782
0.000291255
0.000513602
0.000888096
0.00148903
0.00236734
0.00348357
0.00467189
0.00570065
0.006395
0.00671561
0.00674574
0.00662496
0.00648531
0.00641779
0.00646693
0.00664296
0.00694061
0.00734284
0.00782779
0.00837664
0.00898105
0.00963561
0.0103353
0.0110247
0.0117777
0.012504
0.0135279
0.0145798
0.00486199
0.00182189
0.000837768
0.000448966
0.00026971
0.000176538
0.000123305
9.04994e-05
6.90155e-05
5.42401e-05
4.3668e-05
3.58546e-05
2.99231e-05
2.53175e-05
2.1672e-05
1.87381e-05
1.64273e-05
1.45905e-05
1.31025e-05
1.18773e-05
1.08541e-05
9.9888e-06
9.24895e-06
8.60996e-06
8.05298e-06
7.56332e-06
7.12949e-06
6.74238e-06
6.39484e-06
6.08123e-06
5.79713e-06
5.5391e-06
5.30453e-06
5.09142e-06
4.89823e-06
4.72366e-06
4.5664e-06
4.42497e-06
4.29757e-06
4.18216e-06
4.07681e-06
4.02983e-06
4.31641e-06
5.50208e-06
8.72322e-06
1.59478e-05
3.02477e-05
5.60846e-05
9.96345e-05
0.000169348
0.000277137
0.000441046
0.000690319
0.00107209
0.00165168
0.00248688
0.00356435
0.00474115
0.00577595
0.00645554
0.00670694
0.00660848
0.00632054
0.00600481
0.00577526
0.00568842
0.00575544
0.00596267
0.00629374
0.00672218
0.00722729
0.00779231
0.00841112
0.0090776
0.00978834
0.0104826
0.0112208
0.0118967
0.0129303
0.0143419
0.00486179
0.00182072
0.000836654
0.000448048
0.000269005
0.000176026
0.000122946
9.02516e-05
6.88425e-05
5.41158e-05
4.35749e-05
3.57818e-05
2.98638e-05
2.52674e-05
2.16283e-05
1.86989e-05
1.63909e-05
1.45556e-05
1.30683e-05
1.18429e-05
1.08191e-05
9.95308e-06
9.21286e-06
8.5744e-06
8.01968e-06
7.53521e-06
7.11134e-06
6.74202e-06
6.42517e-06
6.16371e-06
5.96762e-06
5.85325e-06
5.84479e-06
5.9715e-06
6.26188e-06
6.7395e-06
7.42356e-06
8.3364e-06
9.51731e-06
1.10418e-05
1.30488e-05
1.71106e-05
2.71835e-05
4.60376e-05
7.70751e-05
0.000124257
0.000191973
0.000285037
0.000408933
0.000570736
0.000781165
0.00105883
0.00143711
0.00196932
0.00271542
0.00369087
0.00479687
0.0058119
0.00649463
0.00672154
0.00654013
0.00611558
0.00563655
0.00524573
0.00501642
0.0049654
0.00507618
0.00532278
0.00568066
0.00612479
0.00663805
0.00720761
0.0078298
0.00849871
0.00921319
0.00991523
0.0106491
0.0112771
0.0122868
0.0141213
0.00486164
0.00181958
0.00083563
0.000447216
0.000268363
0.000175554
0.000122609
9.00114e-05
6.86697e-05
5.39881e-05
4.34776e-05
3.57057e-05
2.98039e-05
2.52222e-05
2.15993e-05
1.86918e-05
1.64159e-05
1.46299e-05
1.32203e-05
1.21198e-05
1.12977e-05
1.07573e-05
1.05395e-05
1.07325e-05
1.1487e-05
1.30395e-05
1.57394e-05
2.0075e-05
2.6679e-05
3.62879e-05
5.00343e-05
6.76745e-05
8.94574e-05
0.00011529
0.000144217
0.000175088
0.000206953
0.000239411
0.000272812
0.000308314
0.000347898
0.000395585
0.000460304
0.000543659
0.000646276
0.000768068
0.000908652
0.00106819
0.00124876
0.00145683
0.00170718
0.00202875
0.00246905
0.003086
0.00391081
0.00488585
0.00583114
0.00650521
0.00673728
0.00652144
0.0060024
0.00538456
0.00484067
0.00446815
0.00429333
0.00430036
0.00445686
0.00473438
0.00510649
0.00555294
0.00606093
0.00662164
0.00723373
0.00789335
0.0086049
0.00932333
0.010065
0.0106386
0.0115952
0.0138888
0.00486156
0.00181852
0.00083478
0.000446544
0.000267853
0.000175185
0.000122355
8.9857e-05
6.8613e-05
5.40539e-05
4.37315e-05
3.62836e-05
3.09665e-05
2.74494e-05
2.57427e-05
2.61989e-05
2.92732e-05
3.54525e-05
4.53802e-05
5.98156e-05
7.96191e-05
0.000105757
0.000139322
0.000181565
0.000233903
0.000297882
0.000375018
0.000466488
0.000572609
0.000692187
0.00082184
0.000956493
0.00108961
0.00121371
0.00132322
0.00141527
0.00149022
0.0015512
0.00160323
0.00165211
0.00170377
0.00176064
0.00182245
0.00188907
0.00196034
0.00203697
0.00212154
0.00221975
0.00234202
0.00250594
0.00273916
0.00308099
0.00357611
0.00425009
0.00506571
0.00588836
0.00650923
0.00674055
0.00652181
0.00595244
0.0052304
0.004552
0.0040423
0.00374376
0.00364326
0.00370638
0.00389731
0.00419021
0.0045619
0.00499714
0.00548644
0.00602407
0.00661085
0.00724601
0.00795159
0.00871397
0.00948675
0.00997475
0.0108384
0.0136274
0.00486184
0.00181811
0.000834871
0.000447025
0.000268855
0.000177084
0.00012596
9.67921e-05
8.19049e-05
7.88209e-05
8.77715e-05
0.000110375
0.00014886
0.000205619
0.000282929
0.00038271
0.0005001
0.000631571
0.000774851
0.000927685
0.00108794
0.00125369
0.00142331
0.00159541
0.0017687
0.00194171
0.00211242
0.00227803
0.00243479
0.00257818
0.00270346
0.00280757
0.00288773
0.00294365
0.0029771
0.00299148
0.00299142
0.00298214
0.002969
0.00295705
0.00295113
0.00295385
0.00296023
0.00297052
0.00298658
0.00301332
0.00305925
0.00313712
0.00326472
0.0034654
0.00376686
0.00419501
0.00475808
0.00542098
0.00608324
0.00658586
0.00676425
0.00653083
0.00593388
0.00514078
0.00435351
0.00372122
0.00330534
0.00309964
0.00306792
0.00317134
0.00337945
0.00367052
0.00402691
0.0044376
0.00489516
0.00539586
0.00594055
0.00653047
0.00723042
0.00808947
0.00895018
0.00930166
0.00999037
0.0134045
0.00487622
0.00184331
0.000873735
0.000506004
0.000361102
0.000324622
0.000362149
0.000465469
0.000631579
0.00085359
0.00111889
0.00141153
0.00171562
0.00201751
0.00230653
0.00257474
0.00280598
0.00299957
0.00316032
0.00329346
0.00340427
0.00349772
0.00357838
0.00365018
0.00371623
0.00377876
0.00383892
0.00389684
0.00395159
0.0040013
0.00404344
0.00407525
0.00409424
0.0040988
0.00408883
0.00406585
0.00403286
0.00399397
0.00395394
0.00391742
0.00388964
0.00387204
0.00385742
0.00384923
0.00385809
0.00389838
0.00398623
0.00413828
0.00436999
0.00469274
0.00510873
0.00560238
0.00612863
0.00660442
0.00691494
0.00694295
0.00661657
0.00595703
0.00509277
0.00421111
0.00347144
0.00294993
0.00264658
0.00252454
0.00254162
0.00266389
0.00286947
0.00314085
0.003466
0.0038372
0.00424868
0.00469767
0.0051826
0.00570687
0.0063954
0.00739683
0.00844436
0.00868924
0.00904644
0.012938
0.00556854
0.00287807
0.00213707
0.00201027
0.00218364
0.00254501
0.00303311
0.00357683
0.00409464
0.00452095
0.00482627
0.00501637
0.00511766
0.00516172
0.00517528
0.0051767
0.00517015
0.00516202
0.00515523
0.00514961
0.00514432
0.00513878
0.00513296
0.00512714
0.00512178
0.00511717
0.00511324
0.0051094
0.0051046
0.00509728
0.00508565
0.00506808
0.00504339
0.00501131
0.00497275
0.00492973
0.00488523
0.00484281
0.00480622
0.00477979
0.0047647
0.00476792
0.00480445
0.00489083
0.00503881
0.00525584
0.00554454
0.00590111
0.00631282
0.00675581
0.00719288
0.00756984
0.00781344
0.00783973
0.00757793
0.00700135
0.00614988
0.00513534
0.00411958
0.00325579
0.0026256
0.00222966
0.00202486
0.00196194
0.00200231
0.00212045
0.00230027
0.00252968
0.00280159
0.00311186
0.00345677
0.00383325
0.00423932
0.00469066
0.00531291
0.00633061
0.00759975
0.00831817
0.00840504
0.0104223
0.0142815
0.011909
0.0101445
0.00887888
0.00795718
0.0072929
0.00682636
0.00651457
0.00631754
0.00619465
0.00611012
0.00603902
0.0059685
0.00589472
0.00581874
0.00574305
0.00567227
0.00560787
0.00554964
0.00549687
0.00544861
0.00540378
0.00536129
0.00532005
0.00527905
0.0052375
0.00519491
0.00515139
0.00510771
0.00506555
0.00502737
0.00499624
0.00497548
0.00496825
0.00497694
0.00500282
0.00504568
0.00510377
0.0051738
0.00525097
0.00533025
0.00540268
0.00545376
0.00547631
0.00546851
0.00543251
0.00537302
0.00529556
0.00520427
0.00509965
0.00497666
0.00482373
0.00462317
0.0043546
0.00400199
0.00356318
0.00305854
0.00253521
0.00205845
0.00168446
0.00143448
0.00129625
0.00124419
0.00125485
0.00131232
0.00140768
0.00153576
0.00169432
0.00188263
0.00210374
0.00236359
0.00267268
0.00303833
0.0034701
0.00399067
0.004656
0.00526324
0.00588668
0.00653164
0.00906107
)
;

boundaryField
{
    inlet
    {
        type            fixedValue;
        value           uniform 0.017;
    }
    outlet
    {
        type            zeroGradient;
    }
    fixedWalls
    {
        type            kqRWallFunction;
        value           nonuniform List<scalar> 
160
(
0.0142815
0.011909
0.0101445
0.00887888
0.00795718
0.0072929
0.00682636
0.00651457
0.00631754
0.00619465
0.00611012
0.00603902
0.0059685
0.00589472
0.00581874
0.00574305
0.00567227
0.00560787
0.00554964
0.00549687
0.00544861
0.00540378
0.00536129
0.00532005
0.00527905
0.0052375
0.00519491
0.00515139
0.00510771
0.00506555
0.00502737
0.00499624
0.00497548
0.00496825
0.00497694
0.00500282
0.00504568
0.00510377
0.0051738
0.00525097
0.00533025
0.00540268
0.00545376
0.00547631
0.00546851
0.00543251
0.00537302
0.00529556
0.00520427
0.00509965
0.00497666
0.00482373
0.00462317
0.0043546
0.00400199
0.00356318
0.00305854
0.00253521
0.00205845
0.00168446
0.00143448
0.00129625
0.00124419
0.00125485
0.00131232
0.00140768
0.00153576
0.00169432
0.00188263
0.00210374
0.00236359
0.00267268
0.00303833
0.0034701
0.00399067
0.004656
0.00526324
0.00588668
0.00653164
0.00906107
0.0162095
0.0147777
0.0124078
0.00897706
0.0037356
0.000871566
0.000793624
0.000917521
0.00100386
0.000898027
0.000684871
0.000543214
0.00060394
0.000664142
0.000721509
0.000740728
0.000823468
0.000985682
0.00120431
0.00146911
0.00176892
0.00209285
0.00243274
0.00278497
0.00315268
0.0035564
0.00389942
0.00411099
0.00412009
0.00386876
0.00340001
0.00305612
0.00375675
0.0054547
0.00739101
0.00937818
0.0112854
0.0130501
0.0146531
0.0160907
0.0173599
0.018457
0.019388
0.0201827
0.0209085
0.0213332
0.0214953
0.0214669
0.0213079
0.0210627
0.020763
0.0204316
0.0200832
0.0197268
0.0193658
0.0190009
0.0186352
0.0182716
0.0178922
0.0174873
0.0170504
0.0166524
0.0162715
0.0158635
0.0154311
0.0149843
0.0145344
0.014091
0.0136616
0.0132518
0.0128655
0.0125057
0.0121744
0.0118735
0.0116047
0.0113703
0.0111732
0.0110207
0.0109162
0.0109247
)
;
    }
    frontAndBack
    {
        type            empty;
    }
}


// ************************************************************************* //
