/*--------------------------------*- C++ -*----------------------------------*\
| =========                 |                                                 |
| \\      /  F ield         | OpenFOAM: The Open Source CFD Toolbox           |
|  \\    /   O peration     | Version:  v1912                                 |
|   \\  /    A nd           | Website:  www.openfoam.com                      |
|    \\/     M anipulation  |                                                 |
\*---------------------------------------------------------------------------*/
FoamFile
{
    version     2.0;
    format      ascii;
    class       volScalarField;
    location    "50";
    object      nut;
}
// * * * * * * * * * * * * * * * * * * * * * * * * * * * * * * * * * * * * * //

dimensions      [0 2 -1 0 0 0 0];


internalField   nonuniform List<scalar> 
2000
(
0.00175001
0.00175726
0.00169171
0.00151032
0.0010217
0.000516944
0.000516177
0.00058016
0.000633479
0.000626229
0.000569969
0.000527944
0.000578092
0.000628707
0.000678219
0.000713831
0.00078192
0.00088179
0.00100059
0.00113143
0.00126828
0.00140629
0.00154221
0.00167441
0.00180371
0.00193757
0.00205408
0.00213597
0.0021681
0.00213418
0.00202953
0.00192173
0.00208296
0.00248328
0.00289161
0.0032656
0.00359136
0.00386813
0.00410043
0.00429336
0.0044507
0.00457513
0.00466968
0.00473949
0.00479363
0.00481021
0.00479162
0.00474699
0.0046838
0.00460746
0.00452188
0.00442986
0.0043334
0.00423386
0.00413212
0.0040287
0.0039236
0.00381908
0.00371351
0.00360558
0.00349444
0.00338137
0.00327472
0.00316487
0.00305119
0.00293463
0.0028165
0.00269807
0.00258045
0.00246452
0.00235097
0.00224031
0.0021329
0.00202902
0.00192882
0.00183244
0.00174
0.00165191
0.00156841
0.00149433
3.44179e-05
5.60357e-05
9.95409e-05
0.00014831
0.000162492
0.000156222
0.000160124
0.000205957
0.00134854
0.00158893
0.0012304
0.0011208
0.0014367
0.00179352
0.00202271
0.00229836
0.00261252
0.00295099
0.00332843
0.00376404
0.00427077
0.00484284
0.00545402
0.0060584
0.00659387
0.00696845
0.00728571
0.00750593
0.00758397
0.00747313
0.00714115
0.00663253
0.00623808
0.00629662
0.00675106
0.00750803
0.00855325
0.00992141
0.0116346
0.0136488
0.0158261
0.0179514
0.019786
0.0211165
0.0216765
0.0218419
0.0217583
0.0214958
0.0211009
0.0206089
0.0200475
0.0194388
0.0188007
0.0181469
0.017486
0.0168189
0.0161473
0.0155277
0.0149352
0.0143599
0.0137949
0.0132352
0.0126826
0.0121401
0.0116122
0.0111033
0.0106173
0.0101565
0.00972179
0.00931284
0.00892848
0.00856712
0.00822705
0.00790654
0.00760406
0.00731752
0.00704638
0.00678178
0.0065428
0.00631105
2.12863e-05
1.81619e-05
2.51288e-05
4.00146e-05
5.55868e-05
6.79813e-05
7.93323e-05
9.49128e-05
0.000200501
0.000300273
0.000434762
0.000940284
0.00212927
0.00265905
0.00252896
0.00257205
0.00293427
0.00341832
0.00395476
0.0045632
0.00526049
0.00603174
0.00683984
0.00763632
0.00837028
0.00899343
0.00946486
0.00985224
0.010199
0.0105003
0.010715
0.0107623
0.0105113
0.0102097
0.0102429
0.0107782
0.0118586
0.0134871
0.0156087
0.0180598
0.0205742
0.0228604
0.0246781
0.0258649
0.0264778
0.0266749
0.0265608
0.0262105
0.025677
0.0250008
0.0242148
0.0233467
0.0224199
0.021455
0.0204694
0.0194782
0.0184959
0.017537
0.0166075
0.0157111
0.0148509
0.0140308
0.0132557
0.0125309
0.0118607
0.0112477
0.0106925
0.0101932
0.00974629
0.00934703
0.00899032
0.00867119
0.00838513
0.00812814
0.00789681
0.00768746
0.0074974
0.00731655
0.00716177
0.00697767
1.97876e-05
1.26288e-05
1.14634e-05
1.46567e-05
2.10189e-05
2.89186e-05
3.75118e-05
4.73839e-05
7.32305e-05
0.000113454
0.000175679
0.000316984
0.000639311
0.00108273
0.00169772
0.00247605
0.0031794
0.00369055
0.00410193
0.00455862
0.00514601
0.00587545
0.00671475
0.00761745
0.0085376
0.00943505
0.0102725
0.0109786
0.0115943
0.0122403
0.0129232
0.013588
0.0141121
0.0142058
0.0141836
0.0143655
0.0149284
0.0159387
0.0173696
0.0191099
0.0209854
0.022796
0.0243507
0.0254833
0.0261839
0.0265022
0.0264968
0.0262232
0.0257288
0.0250536
0.0242321
0.0232939
0.0222653
0.0211702
0.0200303
0.0188658
0.0176959
0.0165382
0.0154083
0.0143198
0.0132849
0.0123148
0.0114192
0.0106052
0.00987674
0.00923396
0.00867363
0.00818995
0.00777555
0.0074225
0.00712307
0.00687016
0.0066576
0.00648016
0.00633354
0.00621359
0.00611692
0.00603407
0.00597578
0.00589567
1.95963e-05
1.17281e-05
8.64716e-06
8.13629e-06
9.64668e-06
1.28829e-05
1.74869e-05
2.32651e-05
3.30151e-05
4.88261e-05
7.43694e-05
0.000124445
0.000233292
0.000426012
0.00074782
0.00125226
0.00191062
0.00265407
0.00340715
0.00411129
0.00476352
0.0054068
0.00608967
0.00684073
0.0076641
0.0085445
0.00945545
0.0103706
0.0112333
0.0120957
0.0130059
0.0139657
0.0149071
0.015692
0.0161947
0.0165292
0.0168675
0.0173402
0.0180161
0.0189001
0.0199411
0.0210458
0.0220962
0.022961
0.0235743
0.0239113
0.0239779
0.0237956
0.0233919
0.0227956
0.0220346
0.021135
0.0201216
0.0190183
0.0178483
0.0166348
0.0154015
0.0141719
0.0129695
0.0118163
0.0107318
0.00973191
0.00882736
0.0080239
0.00732223
0.00671881
0.00620698
0.00577825
0.00542346
0.00513354
0.00490003
0.00471537
0.00457309
0.00446791
0.00439579
0.00435315
0.00433729
0.00434066
0.00436612
0.00438529
1.95712e-05
1.15909e-05
8.09469e-06
6.55313e-06
6.23666e-06
6.9722e-06
8.73845e-06
1.15239e-05
1.58763e-05
2.26599e-05
3.33453e-05
5.22402e-05
8.99743e-05
0.000160855
0.00028788
0.000507319
0.000842638
0.00130768
0.00190166
0.00259842
0.00335232
0.00411691
0.00486505
0.00559615
0.00632687
0.00707565
0.00785321
0.00866241
0.00950653
0.0103858
0.0113316
0.0123578
0.0134333
0.0144742
0.0154009
0.0160952
0.016598
0.01699
0.0173555
0.0177561
0.0182186
0.01873
0.0192364
0.019694
0.0200576
0.0202781
0.0203251
0.020186
0.0198618
0.0193615
0.0186993
0.0178923
0.01696
0.0159234
0.0148062
0.0136342
0.012436
0.0112422
0.010083
0.00898568
0.00797147
0.00705443
0.00624166
0.00553455
0.00493005
0.00442202
0.0040025
0.00366259
0.0033931
0.00318505
0.00303004
0.00292065
0.00285074
0.00281561
0.00281214
0.00283781
0.00289171
0.00297253
0.00309729
0.00324039
1.95678e-05
1.1573e-05
7.99814e-06
6.20077e-06
5.31887e-06
5.07673e-06
5.42396e-06
6.40024e-06
8.18236e-06
1.10979e-05
1.57085e-05
2.33496e-05
3.72681e-05
6.29089e-05
0.000109065
0.000189968
0.000318155
0.000507924
0.000775688
0.00113587
0.00159635
0.00215379
0.0027917
0.00348364
0.00420072
0.00491967
0.00562791
0.00632557
0.0070404
0.00778936
0.00859476
0.00949503
0.0104965
0.0115561
0.0125931
0.013526
0.0142772
0.0148441
0.0152631
0.0155848
0.0158523
0.0160852
0.0162613
0.0164161
0.016531
0.0165783
0.0165297
0.0163621
0.0160606
0.0156182
0.0150352
0.014318
0.0134789
0.012536
0.0115132
0.0104398
0.00934961
0.00827774
0.00725601
0.00630886
0.00545169
0.00469225
0.00403284
0.00347213
0.00300645
0.00263048
0.00233729
0.00211829
0.00196385
0.00186433
0.00181115
0.00179756
0.00181925
0.0018746
0.00196472
0.0020926
0.00226154
0.00246872
0.00271231
0.00296134
1.95674e-05
1.15716e-05
7.98476e-06
6.13056e-06
5.09321e-06
4.53119e-06
4.32785e-06
4.46947e-06
5.01618e-06
6.10242e-06
7.9621e-06
1.10602e-05
1.64301e-05
2.59888e-05
4.29505e-05
7.23929e-05
0.000118542
0.000186324
0.000282252
0.000414091
0.000590424
0.000819633
0.0011083
0.00145933
0.00187032
0.00233324
0.00283609
0.00336679
0.00392106
0.0045253
0.00520429
0.0059575
0.00680113
0.00773326
0.00870459
0.00967915
0.0105904
0.0113707
0.0119921
0.0124614
0.0128014
0.0130206
0.0131507
0.0132171
0.0132246
0.0131686
0.0130383
0.0128202
0.0125014
0.0120725
0.0115292
0.0108736
0.010115
0.00927112
0.00836757
0.00743631
0.00651186
0.00562585
0.00480215
0.00405542
0.00339332
0.00281954
0.00233608
0.00194454
0.0016451
0.00143372
0.00130098
0.00123429
0.00122128
0.00125213
0.00132048
0.00142369
0.00156318
0.00174438
0.00196859
0.00222909
0.00251675
0.00281933
0.00313595
0.00342604
1.95672e-05
1.15718e-05
7.98397e-06
6.11868e-06
5.04249e-06
4.38616e-06
3.99697e-06
3.81973e-06
3.85419e-06
4.14261e-06
4.77433e-06
5.91955e-06
7.92327e-06
1.14431e-05
1.76373e-05
2.83826e-05
4.52037e-05
6.96413e-05
0.000103525
0.000148953
0.000208327
0.000284237
0.000379183
0.00049515
0.000633108
0.000792678
0.000972286
0.00117025
0.0013873
0.00163186
0.00192234
0.00229735
0.00278503
0.00340782
0.0041874
0.00510648
0.00609177
0.00704703
0.00789205
0.00858457
0.00911647
0.00949305
0.00973759
0.00987201
0.00991127
0.00986313
0.00972956
0.00950863
0.0091968
0.00879128
0.00829243
0.00770602
0.00704484
0.00632916
0.00558538
0.0048426
0.00412768
0.00346083
0.00285454
0.00231613
0.00185134
0.00146803
0.00117688
0.000983848
0.000882417
0.000856864
0.000890785
0.000971738
0.00109174
0.00124639
0.00143404
0.00165522
0.00191714
0.00221037
0.00252523
0.00285732
0.00319948
0.00353584
0.00386805
0.00414971
1.9567e-05
1.15715e-05
7.98364e-06
6.11653e-06
5.03159e-06
4.34983e-06
3.90333e-06
3.61642e-06
3.46057e-06
3.4367e-06
3.57045e-06
3.9187e-06
4.59402e-06
5.81048e-06
7.95714e-06
1.16971e-05
1.76196e-05
2.63084e-05
3.83616e-05
5.43458e-05
7.47991e-05
0.000100192
0.000130836
0.000166745
0.000207481
0.000252064
0.000299049
0.00034691
0.000394835
0.000444006
0.000499188
0.00057123
0.000678706
0.000849663
0.00112089
0.00152781
0.00208405
0.00276521
0.003512
0.00425159
0.00492154
0.00549808
0.00593929
0.0062422
0.00641589
0.0064729
0.00642433
0.00627861
0.00604224
0.00572166
0.00532533
0.00486549
0.00435883
0.00382573
0.00328816
0.00276654
0.00227672
0.00182903
0.00143049
0.00109037
0.000826793
0.000659065
0.000587231
0.000594043
0.00066153
0.000777479
0.000934098
0.00112588
0.00134846
0.00159836
0.00187328
0.00217716
0.00249522
0.00282422
0.00316746
0.00352423
0.00388667
0.00422953
0.00455287
0.0048094
1.95666e-05
1.15701e-05
7.98142e-06
6.11382e-06
5.02725e-06
4.33956e-06
3.87715e-06
3.55571e-06
3.33437e-06
3.19653e-06
3.14197e-06
3.18528e-06
3.3604e-06
3.7328e-06
4.42194e-06
5.63717e-06
7.57974e-06
1.04677e-05
1.45245e-05
1.99395e-05
2.68537e-05
3.53439e-05
4.53925e-05
5.68444e-05
6.9365e-05
8.24255e-05
9.53515e-05
0.000107459
0.000118279
0.000127819
0.000136821
0.000147068
0.000161935
0.000187529
0.000234408
0.000318677
0.000459611
0.000672144
0.000957767
0.00130078
0.00167264
0.00204928
0.00242071
0.00274883
0.00300705
0.00317985
0.00326153
0.00325359
0.00316239
0.00299764
0.00277174
0.00249924
0.00219614
0.00187891
0.00156309
0.00126128
0.000981848
0.000732014
0.000528976
0.000401406
0.000358832
0.000386314
0.000468565
0.000597065
0.000766465
0.000971564
0.00120652
0.00146551
0.00174366
0.00203806
0.00234958
0.00267112
0.00299857
0.00333609
0.00368758
0.00405221
0.00442143
0.00475973
0.00506339
0.00528836
1.95657e-05
1.15669e-05
7.97616e-06
6.10758e-06
5.02085e-06
4.33263e-06
3.86712e-06
3.53651e-06
3.29481e-06
3.11818e-06
2.99602e-06
2.92711e-06
2.91896e-06
2.98992e-06
3.17454e-06
3.53347e-06
4.12526e-06
5.01622e-06
6.28053e-06
7.9842e-06
1.01726e-05
1.28589e-05
1.60131e-05
1.95519e-05
2.33327e-05
2.71574e-05
3.07987e-05
3.40478e-05
3.67783e-05
3.90038e-05
4.09095e-05
4.28605e-05
4.54261e-05
4.95112e-05
5.67032e-05
6.9839e-05
9.33664e-05
0.000132687
0.000191976
0.000271319
0.000365055
0.000463242
0.000576079
0.000699028
0.000820472
0.000927209
0.00100726
0.00105198
0.00105709
0.00102286
0.000953511
0.0008563
0.000740341
0.000615091
0.000488349
0.000365751
0.000258785
0.000193292
0.000183477
0.000222616
0.00030424
0.000426358
0.000587634
0.000784555
0.00101084
0.00125909
0.00152323
0.00180005
0.00208896
0.00239056
0.002706
0.0030277
0.00335749
0.00369679
0.00404763
0.00440778
0.00477083
0.00509451
0.0053718
0.00556237
1.95643e-05
1.15613e-05
7.96666e-06
6.09595e-06
5.0091e-06
4.32209e-06
3.8578e-06
3.52666e-06
3.28044e-06
3.09238e-06
2.94779e-06
2.8395e-06
2.76577e-06
2.72973e-06
2.74018e-06
2.81366e-06
2.96689e-06
3.21609e-06
3.58007e-06
4.07669e-06
4.71896e-06
5.51002e-06
6.43822e-06
7.47331e-06
8.5656e-06
9.6501e-06
1.06571e-05
1.15281e-05
1.22335e-05
1.27849e-05
1.32378e-05
1.36863e-05
1.42556e-05
1.51069e-05
1.64702e-05
1.87228e-05
2.24773e-05
2.85425e-05
3.75831e-05
4.94735e-05
6.26435e-05
7.38606e-05
8.68722e-05
0.000101798
0.000118078
0.000134444
0.000149001
0.000159582
0.000164282
0.000161948
0.000152451
0.000136588
0.000115567
9.09443e-05
6.83719e-05
5.97477e-05
7.25889e-05
0.000110285
0.000177395
0.000278742
0.000417354
0.000592333
0.000797733
0.0010242
0.00126298
0.00150959
0.00176454
0.00203144
0.0023141
0.00261502
0.00292752
0.0032501
0.00358031
0.00391639
0.00425771
0.0045997
0.0049402
0.00523616
0.00548244
0.00564143
1.9562e-05
1.15527e-05
7.95176e-06
6.07733e-06
4.98993e-06
4.30497e-06
3.84398e-06
3.51587e-06
3.27106e-06
3.0815e-06
2.93098e-06
2.81021e-06
2.7142e-06
2.64104e-06
2.59145e-06
2.56894e-06
2.57922e-06
2.62517e-06
2.70983e-06
2.83624e-06
3.00628e-06
3.21937e-06
3.47096e-06
3.75142e-06
4.0458e-06
4.33521e-06
4.60012e-06
4.82504e-06
5.00321e-06
5.13929e-06
5.24937e-06
5.35864e-06
5.49847e-06
5.70483e-06
6.0197e-06
6.4976e-06
7.21427e-06
8.25986e-06
9.68576e-06
1.13979e-05
1.30577e-05
1.41831e-05
1.52365e-05
1.6159e-05
1.68958e-05
1.73938e-05
1.75993e-05
1.74584e-05
1.69215e-05
1.59406e-05
1.44868e-05
1.28917e-05
1.27281e-05
1.66105e-05
2.7822e-05
5.1403e-05
9.44499e-05
0.00016507
0.000270392
0.000413805
0.000592124
0.000795175
0.00100975
0.001226
0.00144167
0.00166181
0.00189492
0.00214856
0.00242621
0.0027256
0.0030393
0.00336149
0.00368697
0.00401219
0.00433392
0.00464397
0.00494453
0.00519783
0.00540976
0.00554695
1.95588e-05
1.15407e-05
7.93081e-06
6.05072e-06
4.9621e-06
4.27978e-06
3.8236e-06
3.50068e-06
3.26013e-06
3.07306e-06
2.92274e-06
2.79924e-06
2.69663e-06
2.61139e-06
2.54172e-06
2.48717e-06
2.45059e-06
2.43148e-06
2.42897e-06
2.44251e-06
2.47145e-06
2.51458e-06
2.56976e-06
2.63358e-06
2.70144e-06
2.76791e-06
2.82764e-06
2.87666e-06
2.91345e-06
2.93956e-06
2.95953e-06
2.98013e-06
3.0096e-06
3.05693e-06
3.13154e-06
3.24326e-06
3.40221e-06
3.61657e-06
3.88458e-06
4.18027e-06
4.44373e-06
4.6159e-06
4.75889e-06
4.85995e-06
4.90915e-06
4.90043e-06
4.83219e-06
4.70646e-06
4.54239e-06
4.50275e-06
5.17714e-06
7.6438e-06
1.35974e-05
2.59334e-05
4.94074e-05
9.10359e-05
0.000159579
0.00026331
0.000405877
0.00058209
0.000777743
0.000975718
0.00116463
0.00134382
0.00152227
0.00171344
0.00192942
0.00217659
0.0024541
0.00275343
0.00306484
0.00337959
0.00369144
0.0039961
0.004288
0.00455405
0.00480007
0.00499755
0.00517255
0.00530158
1.95548e-05
1.15255e-05
7.90416e-06
6.01646e-06
4.92577e-06
4.24644e-06
3.79627e-06
3.48018e-06
3.2457e-06
3.06315e-06
2.91555e-06
2.79294e-06
2.6893e-06
2.6008e-06
2.52494e-06
2.46014e-06
2.40851e-06
2.36871e-06
2.33893e-06
2.31786e-06
2.30438e-06
2.29743e-06
2.29582e-06
2.29815e-06
2.30278e-06
2.30797e-06
2.31213e-06
2.31412e-06
2.3135e-06
2.3107e-06
2.30693e-06
2.30398e-06
2.30403e-06
2.30945e-06
2.3226e-06
2.34565e-06
2.38024e-06
2.42672e-06
2.48275e-06
2.54146e-06
2.59088e-06
2.62207e-06
2.64626e-06
2.66129e-06
2.66691e-06
2.66652e-06
2.67497e-06
2.77839e-06
3.2989e-06
4.88117e-06
8.53922e-06
1.59093e-05
2.95932e-05
5.3631e-05
9.41129e-05
0.000159336
0.000258065
0.00039481
0.000564099
0.000749416
0.000930287
0.0010929
0.00123641
0.00137202
0.00151717
0.00168865
0.00189693
0.00214327
0.00241995
0.00271457
0.00301499
0.00331199
0.00359999
0.00387431
0.00412703
0.00433997
0.00452231
0.00465653
0.00479211
0.00492403
1.95503e-05
1.1508e-05
7.87354e-06
5.97667e-06
4.88306e-06
4.20669e-06
3.76318e-06
3.45497e-06
3.22774e-06
3.0509e-06
2.90723e-06
2.78694e-06
2.68426e-06
2.59551e-06
2.51818e-06
2.45044e-06
2.39426e-06
2.34812e-06
2.31002e-06
2.27848e-06
2.25234e-06
2.23067e-06
2.21264e-06
2.19747e-06
2.18441e-06
2.17275e-06
2.16186e-06
2.15131e-06
2.14087e-06
2.13055e-06
2.12062e-06
2.1115e-06
2.10375e-06
2.09799e-06
2.09485e-06
2.0949e-06
2.09849e-06
2.1055e-06
2.11504e-06
2.12519e-06
2.13311e-06
2.13716e-06
2.14146e-06
2.15179e-06
2.18543e-06
2.31545e-06
2.80484e-06
4.1746e-06
7.19879e-06
1.30219e-05
2.3275e-05
4.01826e-05
6.68252e-05
0.000107744
0.000169589
0.000260424
0.000385741
0.000541975
0.000713371
0.000877781
0.00101827
0.00113152
0.00122836
0.0013283
0.00145209
0.00161485
0.00182149
0.00206602
0.00233504
0.00261407
0.00289155
0.00315975
0.00341446
0.00365027
0.00385651
0.00401084
0.00412702
0.00419895
0.00429394
0.00443079
1.95459e-05
1.14899e-05
7.84187e-06
5.93515e-06
4.83796e-06
4.16414e-06
3.72718e-06
3.42703e-06
3.20744e-06
3.03678e-06
2.89754e-06
2.78011e-06
2.67907e-06
2.59107e-06
2.51378e-06
2.44546e-06
2.3881e-06
2.34019e-06
2.2997e-06
2.26513e-06
2.23534e-06
2.20945e-06
2.18677e-06
2.16669e-06
2.14874e-06
2.13247e-06
2.11753e-06
2.10364e-06
2.09063e-06
2.0784e-06
2.06693e-06
2.05628e-06
2.0466e-06
2.03807e-06
2.03092e-06
2.02536e-06
2.02154e-06
2.01945e-06
2.01886e-06
2.01931e-06
2.02025e-06
2.03452e-06
2.11525e-06
2.38585e-06
3.20439e-06
5.14535e-06
8.96384e-06
1.56447e-05
2.63847e-05
4.25271e-05
6.55227e-05
9.70822e-05
0.000139722
0.000197701
0.000277404
0.000385007
0.000520482
0.000672208
0.000819273
0.000942029
0.00103271
0.00109884
0.00115932
0.00123707
0.00135136
0.00151183
0.00171569
0.00195003
0.00219923
0.00244953
0.0026922
0.00292211
0.00313639
0.00332833
0.00348375
0.0035779
0.00363196
0.00365145
0.00370839
0.00384141
1.9542e-05
1.1473e-05
7.81254e-06
5.89646e-06
4.79547e-06
4.12347e-06
3.69217e-06
3.39929e-06
3.18682e-06
3.02204e-06
2.88712e-06
2.77256e-06
2.67328e-06
2.58626e-06
2.50944e-06
2.44122e-06
2.3837e-06
2.33543e-06
2.29439e-06
2.25911e-06
2.22849e-06
2.20171e-06
2.17818e-06
2.15746e-06
2.13931e-06
2.12367e-06
2.11077e-06
2.10128e-06
2.09658e-06
2.09924e-06
2.11352e-06
2.14574e-06
2.20436e-06
2.29917e-06
2.44008e-06
2.63624e-06
2.89638e-06
3.23094e-06
3.65618e-06
4.20039e-06
4.91317e-06
6.15277e-06
8.85723e-06
1.37787e-05
2.16411e-05
3.3141e-05
4.88887e-05
6.93267e-05
9.46698e-05
0.000124949
0.000160245
0.000201312
0.000250656
0.000313474
0.000396567
0.000503539
0.000628501
0.000754709
0.000861845
0.000937202
0.000982522
0.0010131
0.00105145
0.00111944
0.0012311
0.00138824
0.00158052
0.00179161
0.00200712
0.00221683
0.00241563
0.00260095
0.00277077
0.00291679
0.0030204
0.00305648
0.00305804
0.00304192
0.00306883
0.00318381
1.95391e-05
1.14588e-05
7.78853e-06
5.86474e-06
4.76028e-06
4.08928e-06
3.66216e-06
3.37496e-06
3.16822e-06
3.00834e-06
2.87713e-06
2.76521e-06
2.6678e-06
2.58234e-06
2.50733e-06
2.44197e-06
2.38932e-06
2.34938e-06
2.32261e-06
2.31155e-06
2.32172e-06
2.36286e-06
2.45088e-06
2.61088e-06
2.88195e-06
3.32406e-06
4.02632e-06
5.11332e-06
6.74534e-06
9.10666e-06
1.24237e-05
1.67366e-05
2.20962e-05
2.84433e-05
3.55628e-05
4.31952e-05
5.11273e-05
5.92722e-05
6.77151e-05
7.67248e-05
8.67529e-05
9.83811e-05
0.000112414
0.000129048
0.000148238
0.000169661
0.000192766
0.000216896
0.000241486
0.000266401
0.000292483
0.000322343
0.000360991
0.000415128
0.000489818
0.000583359
0.000684315
0.000774784
0.000839167
0.000872739
0.000884584
0.000893954
0.000922869
0.000988397
0.00109675
0.00124177
0.00140862
0.00158266
0.00175333
0.00191492
0.00206541
0.00220394
0.00232878
0.00242997
0.00248396
0.00246791
0.00243127
0.00239892
0.00240886
0.0024973
1.95377e-05
1.1449e-05
7.773e-06
5.84435e-06
4.73749e-06
4.06693e-06
3.64268e-06
3.36026e-06
3.16029e-06
3.01057e-06
2.8967e-06
2.81735e-06
2.78367e-06
2.82291e-06
2.986e-06
3.35871e-06
4.02994e-06
5.10745e-06
6.73031e-06
9.05875e-06
1.22686e-05
1.65504e-05
2.21111e-05
2.91777e-05
3.79969e-05
4.88262e-05
6.19062e-05
7.74093e-05
9.53577e-05
0.000115526
0.000137322
0.000160001
0.000182502
0.000203693
0.000222752
0.000239266
0.000253294
0.000265299
0.000276003
0.000286242
0.00029685
0.000308012
0.000318455
0.000327984
0.000336402
0.000343575
0.000349511
0.000354469
0.000359154
0.000365032
0.000374748
0.000392383
0.000422938
0.000470374
0.000534521
0.000608588
0.000679667
0.000733321
0.000760649
0.000763746
0.000755965
0.000756713
0.000783744
0.000846507
0.000942971
0.00106201
0.00118962
0.00131669
0.00143725
0.00154919
0.00165221
0.00174614
0.00182895
0.0018892
0.00189944
0.00184372
0.00178822
0.00175376
0.00176111
0.00183124
1.95404e-05
1.14521e-05
7.78263e-06
5.8624e-06
4.77072e-06
4.13397e-06
3.7892e-06
3.69018e-06
3.88864e-06
4.52762e-06
5.81877e-06
8.03179e-06
1.1507e-05
1.66355e-05
2.38195e-05
3.34407e-05
4.52039e-05
5.88684e-05
7.42685e-05
9.12018e-05
0.000109447
0.000128781
0.000148996
0.000169902
0.000191314
0.000213038
0.000234834
0.000256394
0.000277327
0.000297181
0.000315482
0.000331909
0.000346139
0.000358052
0.000367685
0.000375211
0.000380923
0.000385205
0.000388497
0.00039125
0.000393925
0.000396696
0.000397875
0.000397229
0.000394767
0.00039078
0.000385908
0.000381244
0.000378455
0.000379854
0.000388287
0.000406639
0.000436865
0.000478647
0.000528198
0.000577948
0.000617917
0.000639292
0.000639324
0.000624519
0.000609041
0.000608624
0.000633652
0.000685272
0.000756281
0.000836175
0.000916831
0.00099469
0.00106728
0.00113421
0.00119561
0.00125115
0.00129796
0.00132372
0.00130233
0.00123128
0.00118183
0.00114733
0.00115886
0.00124011
1.963e-05
1.16989e-05
8.32387e-06
6.96605e-06
6.98402e-06
8.45557e-06
1.17391e-05
1.72354e-05
2.5343e-05
3.6302e-05
5.00418e-05
6.62087e-05
8.42899e-05
0.000103729
0.000123999
0.000144634
0.000164381
0.000182867
0.000200112
0.00021621
0.0002313
0.000245545
0.000259118
0.00027218
0.000284867
0.000297272
0.000309436
0.000321328
0.000332848
0.000343819
0.000354002
0.000363131
0.000370931
0.000377175
0.000381727
0.000384565
0.000385785
0.000385592
0.000384277
0.000382171
0.000379692
0.000376855
0.000371947
0.000365234
0.000357609
0.000350318
0.000344803
0.000342572
0.000345034
0.000353316
0.000368059
0.000389189
0.000415634
0.000445026
0.000473553
0.000496139
0.000507379
0.000503765
0.000486826
0.000464466
0.00044789
0.000445836
0.000460599
0.000488461
0.000523265
0.000559855
0.000596696
0.000632566
0.00066639
0.000698031
0.000727425
0.000753891
0.000773531
0.000774847
0.000742851
0.000690894
0.000670597
0.000634531
0.000639938
0.000767838
2.37532e-05
2.07962e-05
2.35081e-05
2.94165e-05
3.82135e-05
5.01291e-05
6.5147e-05
8.24108e-05
0.000100392
0.000117561
0.000132978
0.00014645
0.000158317
0.000169149
0.000179492
0.000189737
0.000199563
0.000208933
0.000217863
0.000226319
0.000234265
0.000241693
0.000248621
0.000255094
0.000261167
0.000266892
0.000272303
0.000277408
0.000282172
0.000286518
0.000290325
0.000293444
0.000295711
0.000296983
0.000297167
0.000296245
0.000294288
0.000291458
0.000287998
0.000284236
0.000280412
0.000276651
0.000273078
0.000271021
0.000271473
0.000275013
0.000281831
0.000291762
0.000304297
0.000318648
0.000333813
0.000348576
0.000361439
0.000370618
0.000374208
0.000370437
0.000358076
0.000337383
0.000311456
0.00028605
0.000266525
0.00025489
0.000250093
0.000250243
0.00025372
0.000259728
0.000267748
0.000276796
0.000286035
0.000295262
0.000304387
0.000312785
0.00031728
0.000310547
0.000289132
0.000272843
0.000282272
0.000271416
0.000263062
0.000394952
8.21313e-05
7.8873e-05
7.64794e-05
7.50972e-05
7.45448e-05
7.47577e-05
7.56898e-05
7.73013e-05
7.95013e-05
8.21315e-05
8.50077e-05
8.79761e-05
9.09408e-05
9.38592e-05
9.67223e-05
9.95332e-05
0.000102244
0.000104773
0.000107112
0.000109265
0.000111235
0.000113021
0.000114621
0.000116033
0.000117255
0.000118284
0.000119122
0.000119775
0.000120253
0.000120579
0.000120784
0.000120904
0.000120984
0.000121066
0.000121186
0.000121368
0.000121619
0.000121928
0.000122268
0.000122594
0.000122853
0.000123001
0.000122888
0.000122429
0.000121592
0.000120388
0.000118852
0.000117037
0.000114998
0.000112782
0.000110416
0.000107895
0.000105165
0.000102103
9.85249e-05
9.42141e-05
8.89047e-05
8.22634e-05
7.41851e-05
6.53979e-05
5.73586e-05
5.11871e-05
4.70783e-05
4.46357e-05
4.33457e-05
4.28301e-05
4.28341e-05
4.3209e-05
4.38662e-05
4.48658e-05
4.63376e-05
4.83308e-05
5.02093e-05
5.02039e-05
4.7686e-05
4.58601e-05
4.66631e-05
4.67684e-05
5.06009e-05
8.00693e-05
)
;

boundaryField
{
    inlet
    {
        type            fixedValue;
        value           uniform 0;
    }
    outlet
    {
        type            zeroGradient;
    }
    fixedWalls
    {
        type            nutkWallFunction;
        Cmu             0.09;
        kappa           0.41;
        E               9.8;
        value           nonuniform List<scalar> 
160
(
9.29709e-06
8.85643e-06
8.53121e-06
8.34276e-06
8.26724e-06
8.29624e-06
8.4234e-06
8.64283e-06
8.9415e-06
9.29717e-06
9.68445e-06
1.00824e-05
1.0478e-05
1.08658e-05
1.12447e-05
1.16152e-05
1.1971e-05
1.23019e-05
1.26069e-05
1.28869e-05
1.31426e-05
1.33741e-05
1.35813e-05
1.37638e-05
1.39214e-05
1.40538e-05
1.41613e-05
1.42448e-05
1.43063e-05
1.43493e-05
1.43784e-05
1.43994e-05
1.44184e-05
1.44414e-05
1.44727e-05
1.45149e-05
1.45678e-05
1.46287e-05
1.46922e-05
1.47509e-05
1.4797e-05
1.48174e-05
1.47918e-05
1.47111e-05
1.45741e-05
1.4385e-05
1.41518e-05
1.38829e-05
1.35849e-05
1.32592e-05
1.28991e-05
1.24885e-05
1.20015e-05
1.14061e-05
1.06718e-05
9.7806e-06
8.74122e-06
7.60587e-06
6.47878e-06
5.48953e-06
4.73264e-06
4.22913e-06
3.94218e-06
3.81495e-06
3.79715e-06
3.85298e-06
3.9566e-06
4.0907e-06
4.24289e-06
4.40871e-06
4.58755e-06
4.78324e-06
4.99207e-06
5.21152e-06
5.44997e-06
5.73769e-06
5.8889e-06
5.98102e-06
6.02169e-06
7.00978e-06
0.000184713
0.00018541
0.000179097
0.000161502
0.00011298
6.0234e-05
6.01553e-05
6.70743e-05
7.28041e-05
7.19103e-05
6.58917e-05
6.14098e-05
6.6898e-05
7.24071e-05
7.78221e-05
8.13737e-05
8.80875e-05
9.83696e-05
0.00011057
0.000123869
0.000137615
0.000151342
0.00016478
0.000177849
0.00019066
0.000203753
0.000214637
0.000221799
0.000223695
0.000218752
0.000207328
0.000198305
0.0002185
0.000259429
0.000298184
0.00033233
0.00036124
0.000385276
0.000405104
0.00042131
0.000434303
0.000444373
0.000451834
0.000457183
0.000461229
0.000461752
0.000459306
0.000454693
0.000448548
0.000441331
0.000433372
0.000424904
0.000416088
0.000407022
0.000397757
0.000388311
0.00037873
0.000369052
0.000359128
0.000348886
0.000338284
0.000327974
0.00031777
0.000307289
0.000296571
0.000285722
0.000274852
0.000264054
0.000253403
0.000242951
0.000232736
0.000222782
0.000213105
0.000203716
0.000194623
0.00018583
0.000177347
0.000169204
0.000161397
0.000154312
)
;
    }
    frontAndBack
    {
        type            empty;
    }
}


// ************************************************************************* //
