/*--------------------------------*- C++ -*----------------------------------*\
| =========                 |                                                 |
| \\      /  F ield         | OpenFOAM: The Open Source CFD Toolbox           |
|  \\    /   O peration     | Version:  v1912                                 |
|   \\  /    A nd           | Website:  www.openfoam.com                      |
|    \\/     M anipulation  |                                                 |
\*---------------------------------------------------------------------------*/
FoamFile
{
    version     2.0;
    format      ascii;
    class       volScalarField;
    location    "50";
    object      p;
}
// * * * * * * * * * * * * * * * * * * * * * * * * * * * * * * * * * * * * * //

dimensions      [0 2 -2 0 0 0 0];


internalField   nonuniform List<scalar> 
2000
(
0.0437341
0.160423
0.21673
0.21284
0.19967
0.194588
0.194
0.194572
0.194541
0.194912
0.195172
0.195151
0.195116
0.195221
0.195391
0.195559
0.195729
0.195905
0.19606
0.196165
0.196209
0.196219
0.196274
0.196504
0.197046
0.198019
0.19937
0.200944
0.202514
0.203912
0.205149
0.206385
0.207633
0.208447
0.208095
0.205544
0.199818
0.190478
0.178102
0.164278
0.151068
0.140324
0.133271
0.130385
0.131361
0.136112
0.143679
0.153318
0.164488
0.176832
0.190117
0.204185
0.218926
0.234252
0.250073
0.266265
0.282653
0.298974
0.31485
0.32982
0.343423
0.355182
0.364616
0.371281
0.374891
0.375349
0.372691
0.367037
0.358549
0.347392
0.333698
0.317528
0.298835
0.27742
0.252859
0.224521
0.191169
0.151986
0.10169
0.0472739
0.101883
0.186259
0.224298
0.21159
0.195389
0.193272
0.197948
0.198786
0.194718
0.192718
0.193915
0.194803
0.194837
0.195054
0.195387
0.195553
0.195727
0.19595
0.196156
0.196241
0.196139
0.195856
0.195488
0.19521
0.195253
0.195851
0.196952
0.198608
0.200686
0.20296
0.205251
0.207572
0.210062
0.212391
0.212893
0.209372
0.199858
0.183987
0.163904
0.143535
0.126686
0.115613
0.110905
0.112118
0.117636
0.125152
0.134236
0.144675
0.156244
0.168752
0.182053
0.196038
0.210626
0.225749
0.241339
0.25729
0.273423
0.289485
0.30513
0.319881
0.333151
0.344363
0.353058
0.358865
0.361545
0.361034
0.357398
0.350779
0.341349
0.329272
0.314672
0.297587
0.277933
0.255458
0.229691
0.199966
0.16525
0.12499
0.0763785
0.0304982
0.149697
0.183125
0.205889
0.205374
0.198031
0.195961
0.197174
0.196561
0.19487
0.194813
0.19694
0.196554
0.194386
0.193864
0.19494
0.19562
0.195927
0.196171
0.196386
0.19644
0.19621
0.195685
0.194964
0.194221
0.193695
0.193668
0.194599
0.196359
0.199204
0.203023
0.207563
0.212436
0.216988
0.220129
0.2199
0.213889
0.200759
0.181541
0.159748
0.139674
0.124414
0.11509
0.111322
0.111879
0.11576
0.122072
0.13025
0.139931
0.150829
0.162723
0.175447
0.188878
0.202926
0.217518
0.232582
0.248023
0.263684
0.279316
0.294549
0.308881
0.32172
0.332486
0.340694
0.345999
0.348231
0.347377
0.34354
0.336881
0.327585
0.315822
0.30171
0.285272
0.266378
0.244697
0.219659
0.190531
0.15636
0.116967
0.0704509
0.028323
0.171605
0.181808
0.195302
0.20116
0.200614
0.1995
0.198985
0.197944
0.196749
0.196091
0.196363
0.196454
0.196256
0.195703
0.1957
0.195766
0.195749
0.196048
0.196496
0.19671
0.196536
0.195981
0.195128
0.194135
0.193247
0.192795
0.193183
0.194961
0.19818
0.202917
0.208953
0.215616
0.221986
0.22611
0.226037
0.219684
0.206226
0.187127
0.16584
0.146194
0.130839
0.120753
0.115682
0.114811
0.11726
0.122296
0.129374
0.13809
0.148132
0.159258
0.171284
0.184072
0.197519
0.211541
0.226059
0.24097
0.256108
0.271206
0.285859
0.299523
0.311591
0.321491
0.328792
0.33324
0.334753
0.33338
0.329253
0.32256
0.31351
0.302308
0.289099
0.273905
0.25653
0.236489
0.212965
0.184958
0.151385
0.112283
0.0665711
0.0259973
0.181739
0.186053
0.195201
0.201426
0.202533
0.201995
0.201866
0.201658
0.20078
0.199591
0.198717
0.198303
0.197898
0.197064
0.19684
0.197108
0.197209
0.197179
0.197163
0.197098
0.196882
0.196413
0.195668
0.194746
0.193869
0.193378
0.193694
0.195298
0.198501
0.203454
0.209923
0.217158
0.223892
0.228366
0.228672
0.223143
0.211242
0.194216
0.174852
0.156352
0.141141
0.130354
0.124034
0.121628
0.122516
0.126089
0.131846
0.13939
0.1484
0.158619
0.16984
0.181907
0.194695
0.208098
0.222011
0.2363
0.250759
0.265069
0.278773
0.291306
0.302091
0.310648
0.316665
0.320002
0.320648
0.31868
0.314251
0.307577
0.298924
0.288575
0.276757
0.263531
0.248643
0.231373
0.210453
0.184298
0.15137
0.11183
0.0654563
0.0247962
0.187923
0.190797
0.197101
0.202208
0.203904
0.204081
0.204426
0.204734
0.204426
0.203692
0.202992
0.202362
0.201439
0.200295
0.19965
0.199507
0.199364
0.19916
0.199002
0.198812
0.198437
0.197795
0.196933
0.195997
0.195211
0.194875
0.195354
0.197039
0.200246
0.205113
0.211403
0.218345
0.224646
0.228658
0.228763
0.223695
0.213245
0.198493
0.181594
0.165045
0.150871
0.14019
0.133273
0.129868
0.129602
0.132005
0.136642
0.143152
0.151231
0.160621
0.171108
0.182515
0.194696
0.207515
0.220824
0.234435
0.248074
0.261354
0.273778
0.284805
0.293956
0.300898
0.305451
0.307546
0.307196
0.304485
0.29959
0.292784
0.284425
0.274915
0.26462
0.253717
0.241955
0.228362
0.211023
0.187358
0.15498
0.113982
0.0652454
0.0235965
0.192189
0.194393
0.198915
0.203095
0.205161
0.205942
0.206605
0.207181
0.207321
0.207096
0.20677
0.206349
0.205649
0.204747
0.203989
0.203433
0.202909
0.202433
0.202061
0.201701
0.201208
0.200509
0.199644
0.198745
0.198019
0.197754
0.198301
0.200021
0.203173
0.20781
0.21366
0.219964
0.225494
0.228759
0.22837
0.223432
0.21395
0.200951
0.186177
0.171576
0.158762
0.148723
0.141831
0.138063
0.1372
0.13889
0.142781
0.148563
0.155959
0.164726
0.174651
0.185546
0.19724
0.209557
0.22229
0.235173
0.247854
0.259884
0.270769
0.280064
0.287442
0.29271
0.295764
0.296552
0.295085
0.291473
0.285945
0.278854
0.270649
0.261851
0.252994
0.244466
0.236138
0.226886
0.214056
0.193747
0.162025
0.118551
0.0655837
0.0223271
0.195223
0.197067
0.200706
0.204384
0.206637
0.207764
0.20861
0.209349
0.209769
0.209866
0.209806
0.209638
0.209288
0.208761
0.208217
0.20772
0.20721
0.206689
0.206179
0.205647
0.205031
0.204303
0.203501
0.20273
0.202165
0.202056
0.202706
0.204421
0.207417
0.211684
0.216888
0.222315
0.226875
0.229243
0.22835
0.223466
0.214712
0.203031
0.189908
0.17693
0.165407
0.156185
0.149666
0.145936
0.144862
0.146194
0.149658
0.154995
0.161961
0.170332
0.179896
0.190454
0.201802
0.213706
0.225882
0.237978
0.249564
0.260178
0.269403
0.276938
0.282601
0.286274
0.287867
0.287325
0.284691
0.280137
0.27397
0.266594
0.258491
0.250241
0.242537
0.236098
0.231083
0.226491
0.219038
0.203063
0.172289
0.125489
0.0663094
0.020759
0.197453
0.199154
0.202421
0.205844
0.208175
0.209512
0.210512
0.21138
0.21197
0.212258
0.212373
0.212387
0.212266
0.212004
0.211696
0.211406
0.211095
0.210734
0.210326
0.209861
0.209311
0.208673
0.207997
0.207387
0.207007
0.207066
0.207804
0.209448
0.212137
0.215829
0.220216
0.224678
0.228307
0.230068
0.228921
0.224382
0.216454
0.205914
0.194058
0.182288
0.171762
0.163254
0.157171
0.153616
0.152517
0.153699
0.156947
0.162043
0.168773
0.176929
0.1863
0.196662
0.207761
0.219292
0.230883
0.242102
0.252488
0.26163
0.269239
0.275153
0.279265
0.281474
0.281688
0.279889
0.276196
0.270871
0.264261
0.256748
0.248747
0.24081
0.233773
0.228802
0.226489
0.226574
0.225233
0.214789
0.185725
0.135215
0.0677898
0.0186825
0.199135
0.20082
0.203975
0.207278
0.209637
0.211123
0.212276
0.213269
0.213991
0.214418
0.214662
0.214795
0.21481
0.214707
0.214559
0.214422
0.214269
0.214066
0.213812
0.213504
0.213129
0.212693
0.212248
0.211892
0.211765
0.212034
0.212877
0.214445
0.216803
0.219866
0.223345
0.226723
0.229297
0.23029
0.228964
0.224909
0.218095
0.209041
0.198711
0.188244
0.178682
0.170782
0.165015
0.161541
0.16038
0.161429
0.164518
0.169457
0.176049
0.184086
0.193342
0.203556
0.214412
0.225529
0.236462
0.246738
0.255921
0.263695
0.269885
0.274402
0.277159
0.278057
0.277041
0.274184
0.269707
0.263921
0.257136
0.249622
0.241655
0.233707
0.226715
0.222146
0.221978
0.226368
0.231723
0.228269
0.202337
0.14838
0.0706719
0.0157762
0.200409
0.20216
0.205365
0.208636
0.211002
0.212598
0.213887
0.214995
0.215827
0.216374
0.21673
0.216961
0.217076
0.217082
0.217038
0.216993
0.216933
0.21683
0.216683
0.216493
0.216257
0.215991
0.215745
0.215611
0.215707
0.216167
0.217121
0.218661
0.220799
0.223418
0.226238
0.228814
0.230574
0.230911
0.229292
0.225432
0.219361
0.211496
0.202571
0.193471
0.185047
0.17799
0.17271
0.169464
0.168323
0.169264
0.172192
0.176964
0.183401
0.191297
0.200401
0.210409
0.220951
0.231592
0.241849
0.251244
0.25939
0.266043
0.271079
0.274425
0.275998
0.275743
0.27371
0.270086
0.265153
0.259192
0.25241
0.244931
0.236873
0.228594
0.221064
0.216238
0.216982
0.224989
0.237354
0.242579
0.221921
0.165655
0.0759185
0.0118546
0.201365
0.203253
0.20662
0.209906
0.212265
0.213945
0.215351
0.216555
0.217478
0.218127
0.218582
0.218904
0.219107
0.219205
0.219245
0.21927
0.219276
0.219241
0.219164
0.21905
0.218904
0.218748
0.218635
0.218647
0.218888
0.219468
0.220483
0.221989
0.223964
0.226274
0.228654
0.230711
0.231964
0.231918
0.230162
0.226486
0.220945
0.213898
0.205953
0.19785
0.190312
0.183935
0.179116
0.176152
0.175152
0.176123
0.179004
0.183683
0.19
0.197751
0.206678
0.216457
0.226692
0.236921
0.246642
0.25538
0.262767
0.268573
0.272671
0.274985
0.275489
0.274252
0.271457
0.267361
0.262225
0.256253
0.249544
0.24209
0.233849
0.225016
0.216477
0.21057
0.211074
0.22164
0.240941
0.256548
0.244001
0.187644
0.0849007
0.00719404
0.202065
0.204161
0.207765
0.211082
0.213418
0.215167
0.216676
0.217959
0.218957
0.219689
0.220229
0.220631
0.220913
0.221093
0.221209
0.2213
0.221365
0.221389
0.22137
0.221315
0.221236
0.221161
0.221141
0.221253
0.221591
0.222246
0.223293
0.224761
0.226609
0.228695
0.230765
0.232465
0.233376
0.233081
0.231244
0.227706
0.222537
0.216059
0.208801
0.201406
0.194512
0.188651
0.184204
0.181474
0.180596
0.181604
0.184462
0.189084
0.195323
0.202982
0.211802
0.221451
0.231518
0.241517
0.250925
0.259254
0.266111
0.271231
0.274468
0.275802
0.27535
0.273333
0.270022
0.265669
0.260478
0.25457
0.247957
0.240523
0.232083
0.222575
0.212805
0.20507
0.204144
0.215842
0.241415
0.268799
0.26772
0.214661
0.0994884
0.00309857
0.202555
0.204933
0.20882
0.212155
0.214461
0.216272
0.217869
0.219218
0.220277
0.221079
0.221691
0.222161
0.222512
0.222761
0.222945
0.223097
0.223219
0.223298
0.223333
0.223332
0.223313
0.223304
0.223359
0.22355
0.22396
0.22467
0.225736
0.227173
0.228921
0.230837
0.232677
0.234115
0.234778
0.234303
0.232411
0.228975
0.224076
0.218004
0.211236
0.204345
0.197909
0.192423
0.188273
0.185733
0.184964
0.186021
0.188888
0.193493
0.199705
0.207335
0.216124
0.225735
0.235742
0.24564
0.254883
0.262943
0.269364
0.273825
0.276206
0.276625
0.275369
0.272779
0.269145
0.264677
0.259508
0.253694
0.247188
0.239799
0.231216
0.221122
0.20997
0.1999
0.196382
0.207485
0.237959
0.277843
0.291738
0.246412
0.121002
0.00142942
0.202871
0.205609
0.209797
0.213127
0.215399
0.217269
0.218941
0.220344
0.221454
0.222315
0.222987
0.223516
0.223925
0.224234
0.224476
0.224681
0.224855
0.224984
0.225068
0.225116
0.225149
0.225198
0.225316
0.22557
0.22604
0.226793
0.227875
0.229286
0.230959
0.232745
0.234412
0.235656
0.236136
0.235533
0.233604
0.230252
0.225558
0.219794
0.213395
0.206885
0.200797
0.195606
0.191679
0.189289
0.188605
0.189704
0.192584
0.197188
0.203395
0.211022
0.219814
0.229432
0.239442
0.249325
0.258496
0.266351
0.272345
0.27613
0.277686
0.277303
0.275424
0.272443
0.268629
0.264128
0.259016
0.253307
0.246924
0.239628
0.230985
0.220479
0.208019
0.19535
0.188225
0.196836
0.230156
0.282262
0.314251
0.281773
0.150422
0.00449203
0.203044
0.206221
0.210703
0.213997
0.216239
0.218166
0.219901
0.221348
0.222501
0.223412
0.224136
0.224715
0.225173
0.225533
0.225825
0.226078
0.226297
0.22647
0.226597
0.226688
0.226766
0.226864
0.227033
0.227341
0.227857
0.228645
0.22974
0.231133
0.232748
0.234437
0.235976
0.237075
0.237421
0.236725
0.234774
0.231489
0.226953
0.221424
0.215305
0.209084
0.203264
0.198296
0.194538
0.19226
0.191642
0.192774
0.195666
0.200272
0.206481
0.21412
0.222938
0.2326
0.242668
0.252592
0.261722
0.269358
0.274887
0.277998
0.278814
0.277791
0.275464
0.272238
0.268335
0.263847
0.258808
0.253209
0.246965
0.239816
0.23127
0.220539
0.207014
0.191737
0.180267
0.184526
0.218105
0.280966
0.333149
0.318688
0.187526
0.0153417
0.203098
0.206792
0.21154
0.214771
0.21699
0.218972
0.220759
0.222242
0.223432
0.224385
0.225153
0.225775
0.226276
0.22668
0.227015
0.227309
0.227567
0.227779
0.227943
0.228072
0.228188
0.228326
0.228539
0.228889
0.229444
0.23026
0.231366
0.232745
0.234317
0.235934
0.237377
0.238368
0.238617
0.237854
0.23589
0.232658
0.228245
0.222895
0.216988
0.210987
0.205369
0.20057
0.196939
0.194747
0.19418
0.195336
0.198238
0.202849
0.209068
0.216732
0.225598
0.23533
0.24547
0.255425
0.264472
0.271834
0.276882
0.279383
0.279599
0.278103
0.275479
0.272111
0.268178
0.263727
0.258766
0.253277
0.247185
0.24022
0.231909
0.221204
0.206965
0.189332
0.173162
0.171486
0.202477
0.273446
0.346334
0.354287
0.230631
0.036241
0.203057
0.207339
0.212308
0.215456
0.217663
0.219694
0.221522
0.223035
0.224257
0.225247
0.226053
0.226712
0.22725
0.227691
0.228064
0.228394
0.228687
0.228933
0.22913
0.22929
0.229439
0.229612
0.22986
0.230244
0.23083
0.231669
0.232784
0.234154
0.235694
0.237256
0.238627
0.239539
0.239714
0.238903
0.236932
0.233743
0.229425
0.224212
0.218467
0.212633
0.20717
0.2025
0.198967
0.196839
0.196309
0.197483
0.200395
0.205014
0.211251
0.218947
0.227862
0.237647
0.247822
0.257751
0.266657
0.273723
0.278333
0.280334
0.2801
0.27828
0.275473
0.272036
0.268107
0.263703
0.258819
0.253438
0.247504
0.240781
0.232786
0.222354
0.207815
0.1883
0.167525
0.158822
0.184468
0.259962
0.352119
0.385253
0.27657
0.0679487
0.202939
0.207874
0.213006
0.216059
0.218264
0.220342
0.222202
0.223739
0.224987
0.226009
0.226847
0.227538
0.228108
0.228583
0.228988
0.22935
0.229674
0.229949
0.230174
0.230362
0.230539
0.230741
0.231018
0.231432
0.232043
0.232901
0.234025
0.235389
0.236906
0.238427
0.239746
0.240599
0.240721
0.239874
0.237898
0.234743
0.230496
0.225388
0.219767
0.214059
0.208714
0.204143
0.200685
0.198606
0.198106
0.199295
0.202217
0.206843
0.213089
0.220798
0.229726
0.239517
0.249676
0.259536
0.268281
0.275071
0.279314
0.280934
0.280385
0.278361
0.275455
0.271996
0.26809
0.263737
0.258923
0.253649
0.24785
0.24141
0.233799
0.223845
0.209429
0.188666
0.163822
0.14765
0.16564
0.241573
0.349633
0.408446
0.321116
0.109178
0.202763
0.208403
0.213634
0.216589
0.2188
0.220917
0.222807
0.224366
0.225639
0.226686
0.227551
0.228269
0.228866
0.229368
0.229802
0.230192
0.230543
0.230844
0.231095
0.231307
0.231508
0.231734
0.232035
0.232471
0.233103
0.233976
0.235107
0.236467
0.237968
0.239458
0.240735
0.241544
0.241629
0.240759
0.238782
0.235654
0.231465
0.226436
0.220909
0.215298
0.210042
0.205546
0.202143
0.2001
0.199614
0.200805
0.203718
0.20833
0.214559
0.222251
0.231163
0.240934
0.251053
0.260828
0.269414
0.275962
0.279918
0.281267
0.280518
0.278381
0.275436
0.271982
0.268109
0.263804
0.259057
0.253885
0.248228
0.24205
0.234857
0.225524
0.21161
0.190317
0.162286
0.138905
0.147669
0.220006
0.339063
0.421612
0.359864
0.156768
0.202543
0.208926
0.214193
0.217062
0.219281
0.221425
0.223334
0.224912
0.226208
0.227281
0.228171
0.228914
0.229535
0.230062
0.230519
0.230933
0.231307
0.231631
0.231904
0.232138
0.23236
0.232608
0.232931
0.233388
0.234038
0.234926
0.236064
0.237422
0.238911
0.240383
0.241622
0.242393
0.242436
0.241542
0.239558
0.236445
0.232292
0.227318
0.221856
0.216313
0.211119
0.206673
0.203304
0.201277
0.200795
0.201977
0.204874
0.209465
0.215672
0.223341
0.232229
0.241966
0.252029
0.261705
0.270138
0.276487
0.280234
0.28141
0.280551
0.278368
0.27542
0.271989
0.268149
0.26389
0.259206
0.254118
0.248604
0.242666
0.235886
0.227242
0.214129
0.19301
0.162865
0.13316
0.132026
0.197273
0.32162
0.423885
0.389292
0.206798
0.202296
0.209444
0.21467
0.217481
0.219729
0.221898
0.223817
0.225406
0.226715
0.227805
0.228716
0.22948
0.230124
0.230673
0.231154
0.231589
0.231984
0.232327
0.232617
0.232865
0.2331
0.23336
0.233695
0.234162
0.23482
0.235711
0.236847
0.238197
0.23967
0.241117
0.242323
0.243061
0.243079
0.24217
0.240183
0.237082
0.232957
0.228023
0.222607
0.217111
0.21196
0.207546
0.2042
0.202185
0.201702
0.202874
0.205754
0.210323
0.216504
0.224143
0.232995
0.242685
0.252678
0.262253
0.270551
0.276746
0.280352
0.28143
0.280525
0.278339
0.27541
0.272008
0.268203
0.263988
0.25936
0.254347
0.248959
0.243228
0.236826
0.228869
0.216752
0.196404
0.165228
0.130543
0.119767
0.175399
0.299871
0.416657
0.407765
0.255456
0.202031
0.209986
0.215062
0.2178
0.220087
0.222293
0.224238
0.225847
0.227173
0.228279
0.229201
0.229976
0.23063
0.231188
0.231678
0.232122
0.232526
0.232877
0.233173
0.233427
0.233667
0.233932
0.234271
0.234742
0.235403
0.236294
0.237429
0.238772
0.240236
0.24167
0.242861
0.243581
0.243587
0.242669
0.240684
0.237596
0.233493
0.228588
0.223207
0.217743
0.212623
0.208239
0.204901
0.202888
0.202398
0.203554
0.206412
0.210953
0.217102
0.224704
0.233514
0.243149
0.25307
0.262551
0.270737
0.276822
0.280341
0.281375
0.280468
0.278304
0.275406
0.272036
0.268266
0.26409
0.259508
0.254564
0.249281
0.243719
0.237631
0.2303
0.219198
0.199958
0.168733
0.130688
0.111376
0.156691
0.277432
0.403301
0.416101
0.29835
0.201705
0.21062
0.215538
0.218156
0.220423
0.222622
0.224564
0.226175
0.227506
0.228617
0.229546
0.230326
0.230984
0.231548
0.232044
0.232493
0.232902
0.233258
0.233559
0.233817
0.234063
0.234333
0.234676
0.235151
0.235815
0.236707
0.237839
0.239177
0.240633
0.242059
0.243243
0.243957
0.24396
0.243044
0.241065
0.237989
0.233904
0.229021
0.223661
0.218216
0.213108
0.208729
0.205406
0.203387
0.202887
0.204029
0.206862
0.211371
0.217481
0.225034
0.233785
0.243352
0.253195
0.26259
0.270696
0.276722
0.28022
0.281268
0.280397
0.278275
0.275414
0.272075
0.268332
0.264185
0.259648
0.254756
0.24955
0.244124
0.238277
0.231464
0.221249
0.203169
0.172486
0.132458
0.106452
0.141946
0.257053
0.387936
0.41758
0.332459
0.200998
0.210791
0.215817
0.218447
0.220719
0.222909
0.224833
0.226435
0.227764
0.228878
0.229813
0.230601
0.231269
0.231843
0.232348
0.232807
0.233227
0.233593
0.233903
0.23417
0.234422
0.234699
0.23505
0.235531
0.236199
0.237095
0.23823
0.239568
0.241024
0.242447
0.243627
0.244338
0.244341
0.243428
0.241458
0.238396
0.234329
0.229466
0.224125
0.218697
0.213604
0.20924
0.205917
0.203876
0.203335
0.204436
0.20722
0.211671
0.217714
0.225193
0.23386
0.243339
0.253098
0.262424
0.270487
0.276509
0.28004
0.281147
0.280337
0.278266
0.275443
0.272134
0.268418
0.264296
0.259789
0.254931
0.249776
0.244433
0.238764
0.232304
0.222736
0.205564
0.175523
0.134511
0.104171
0.132203
0.241806
0.374844
0.415966
0.354386
)
;

boundaryField
{
    inlet
    {
        type            zeroGradient;
    }
    outlet
    {
        type            fixedValue;
        value           uniform 0;
    }
    fixedWalls
    {
        type            zeroGradient;
    }
    frontAndBack
    {
        type            empty;
    }
}


// ************************************************************************* //
