/*--------------------------------*- C++ -*----------------------------------*\
| =========                 |                                                 |
| \\      /  F ield         | OpenFOAM: The Open Source CFD Toolbox           |
|  \\    /   O peration     | Version:  v1912                                 |
|   \\  /    A nd           | Website:  www.openfoam.com                      |
|    \\/     M anipulation  |                                                 |
\*---------------------------------------------------------------------------*/
FoamFile
{
    version     2.0;
    format      ascii;
    class       surfaceScalarField;
    location    "50";
    object      phi;
}
// * * * * * * * * * * * * * * * * * * * * * * * * * * * * * * * * * * * * * //

dimensions      [0 3 -1 0 0 0 0];
oriented        oriented;


internalField   nonuniform List<scalar> 
3895
(
0.000812978
0.000383199
0.000495806
0.000317172
0.000248485
0.000247321
6.46477e-05
0.000183837
-5.6412e-05
0.00012106
-0.000113631
5.72195e-05
-0.00011966
6.02849e-06
-9.98017e-05
-1.98583e-05
-9.78221e-05
-1.97958e-06
-8.97475e-05
-8.07462e-06
-7.70445e-05
-1.2703e-05
-7.8819e-05
1.77451e-06
-9.05358e-05
1.17168e-05
-9.34758e-05
2.93997e-06
-8.89863e-05
-4.48947e-06
-8.82738e-05
-7.12543e-07
-9.42893e-05
6.01556e-06
-0.000106753
1.24637e-05
-0.000125415
1.86622e-05
-0.000149663
2.42474e-05
-0.000177546
2.78833e-05
-0.000205732
2.81866e-05
-0.000229988
2.42556e-05
-0.000245848
1.58598e-05
-0.00024839
2.5416e-06
-0.000237373
-1.10161e-05
-0.000211779
-2.5594e-05
-0.000172999
-3.87803e-05
-0.000125808
-4.71908e-05
-7.85815e-05
-4.72268e-05
-4.21165e-05
-3.6465e-05
-2.70615e-05
-1.50549e-05
-4.64045e-05
1.9343e-05
-0.000107308
6.0903e-05
-0.000211751
0.000104443
-0.000356806
0.000145055
-0.000530724
0.000173919
-0.000715017
0.000184292
-0.000889793
0.000174776
-0.00103877
0.000148973
-0.00115201
0.000113245
-0.0012262
7.4193e-05
-0.00126283
3.66221e-05
-0.0012654
2.57789e-06
-0.00124757
-1.78377e-05
-0.00121419
-3.3381e-05
-0.00116921
-4.49737e-05
-0.00111553
-5.36862e-05
-0.00105498
-6.05422e-05
-0.000988743
-6.62404e-05
-0.000917486
-7.12576e-05
-0.000841565
-7.5921e-05
-0.00076111
-8.04544e-05
-0.000676116
-8.49947e-05
-0.000586528
-8.95879e-05
-0.000492328
-9.41997e-05
-0.000393591
-9.87367e-05
-0.000290565
-0.000103026
-0.000183853
-0.000106712
-7.45088e-05
-0.000109345
3.62878e-05
-0.000110797
0.000147188
-0.0001109
0.000256142
-0.000108954
0.000361175
-0.000105033
0.000460695
-9.95197e-05
0.000553526
-9.28311e-05
0.000638904
-8.53784e-05
0.000716431
-7.75265e-05
0.000786006
-6.95752e-05
0.000847767
-6.1761e-05
0.000902036
-5.42687e-05
0.000949277
-4.72416e-05
0.000990071
-4.07934e-05
0.00102509
-3.5016e-05
0.00105509
-3.00002e-05
0.00108097
-2.58782e-05
0.00110383
-2.28681e-05
0.00112561
-2.17763e-05
0.00114848
-2.28671e-05
-3.57969e-05
0.00108705
0.000351961
0.00104378
0.000360438
0.000925114
0.000365988
0.000762379
0.000346572
0.000579188
0.000304251
0.000384862
0.000251545
0.000194966
0.000195925
3.93317e-05
0.000135776
-4.49699e-05
8.2322e-05
-8.16517e-05
2.86072e-05
-9.21893e-05
-2.16541e-06
-8.54313e-05
-4.98345e-06
-9.31718e-05
1.94572e-05
-0.000102874
1.26424e-05
-0.000109927
2.56318e-06
-0.00012016
9.52057e-06
-0.000130487
1.63421e-05
-0.000140541
2.25181e-05
-0.000151751
2.98724e-05
-0.000165607
3.8103e-05
-0.000182239
4.45158e-05
-0.000200958
4.69052e-05
-0.000220785
4.40827e-05
-0.000240542
3.5617e-05
-0.000259505
2.15043e-05
-0.00027208
1.5589e-06
-0.000278055
-1.96193e-05
-0.000274825
-4.201e-05
-0.000261976
-6.00402e-05
-0.000241898
-6.73045e-05
-0.000220901
-5.74617e-05
-0.000210697
-2.52589e-05
-0.000217436
2.60818e-05
-0.000249187
9.26542e-05
-0.00030896
0.000164216
-0.000387537
0.000223632
-0.000470355
0.000256737
-0.000542978
0.000256916
-0.000594614
0.000226412
-0.000620688
0.000175047
-0.00062341
0.000115967
-0.000609668
6.04511e-05
-0.000588544
1.54975e-05
-0.000566171
-1.97951e-05
-0.000539035
-4.49741e-05
-0.000508136
-6.428e-05
-0.000473342
-7.97676e-05
-0.000434542
-9.24861e-05
-0.000391838
-0.000103246
-0.000345413
-0.000112665
-0.00029544
-0.000121231
-0.000242028
-0.000129333
-0.000185207
-0.000137275
-0.000124927
-0.000145275
-6.10713e-05
-0.000153443
6.49498e-06
-0.000161766
7.78499e-05
-0.000170092
0.000152807
-0.000177982
0.000230833
-0.000184738
0.00031105
-0.000189561
0.000391956
-0.000191703
0.000471645
-0.000190589
0.000548671
-0.00018598
0.000621777
-0.000178139
0.00068994
-0.000167682
0.000752462
-0.000155354
0.000808949
-0.000141865
0.000859248
-0.000127825
0.000903392
-0.000113719
0.000941563
-9.99324e-05
0.000974064
-8.67695e-05
0.0010013
-7.44743e-05
0.00102374
-6.32375e-05
0.00104193
-5.32044e-05
0.00105641
-4.44825e-05
0.00106773
-3.71949e-05
0.00107639
-3.15292e-05
0.0010827
-2.80862e-05
0.00108693
-2.70972e-05
-3.16738e-05
0.000976121
0.000307754
0.00102675
0.000309806
0.00105929
0.00033345
0.00105212
0.00035374
0.000998642
0.000357732
0.000903564
0.000346623
0.00077584
0.000323649
0.000622341
0.000289275
0.000459521
0.000245142
0.000292906
0.000195222
0.000145126
0.000145615
4.24268e-05
9.77162e-05
-8.44782e-07
6.27288e-05
-2.12952e-05
3.30928e-05
-3.7875e-05
1.9143e-05
-5.08895e-05
2.25351e-05
-6.20129e-05
2.74655e-05
-6.97902e-05
3.02953e-05
-7.39585e-05
3.40407e-05
-7.59901e-05
4.01346e-05
-7.83548e-05
4.68806e-05
-8.28822e-05
5.14325e-05
-9.07836e-05
5.19841e-05
-0.000102818
4.76512e-05
-0.00011909
3.77766e-05
-0.000139471
2.19395e-05
-0.000159363
2.73329e-07
-0.000178298
-2.30755e-05
-0.00019195
-4.63876e-05
-0.00019666
-6.25945e-05
-0.000190377
-6.37454e-05
-0.000172943
-4.26922e-05
-0.000150148
3.28623e-06
-0.000126758
6.92647e-05
-0.000106097
0.000143554
-8.8739e-05
0.000206274
-7.39845e-05
0.000241982
-6.06744e-05
0.000243606
-4.85911e-05
0.000214329
-3.8455e-05
0.000164911
-3.07113e-05
0.000108224
-2.46928e-05
5.44325e-05
-1.79279e-05
8.73264e-06
-9.87344e-06
-2.78496e-05
1.96378e-06
-5.68113e-05
1.77996e-05
-8.01158e-05
3.74195e-05
-9.93876e-05
6.06616e-05
-0.000115728
8.73507e-05
-0.000129935
0.000117326
-0.00014264
0.000150456
-0.000154361
0.000186656
-0.000165533
0.000225889
-0.000176509
0.000268168
-0.000187554
0.000313531
-0.000198806
0.000361983
-0.000210218
0.000413366
-0.000221474
0.000467294
-0.000231911
0.000523076
-0.00024052
0.000579625
-0.00024611
0.000635544
-0.000247622
0.000689416
-0.000244461
0.000740105
-0.00023667
0.000786839
-0.000224873
0.00082918
-0.000210023
0.000866941
-0.000193115
0.000900082
-0.000175006
0.000928634
-0.000156377
0.000952682
-0.000137767
0.000972376
-0.000119627
0.000987957
-0.00010235
0.000999759
-8.62761e-05
0.00100819
-7.16725e-05
0.00101371
-5.87176e-05
0.0010167
-4.74772e-05
0.00101746
-3.79548e-05
0.00101607
-3.01363e-05
0.00101233
-2.43456e-05
0.00100634
-2.11053e-05
-2.04367e-05
0.000857368
0.000272944
0.00089759
0.000269585
0.00094974
0.0002813
0.00100253
0.000300955
0.00104097
0.00031929
0.00105515
0.000332442
0.00103988
0.000338921
0.000992111
0.000337039
0.00091254
0.000324714
0.00080552
0.000302241
0.000678806
0.000272328
0.000539884
0.000236638
0.000405354
0.000197259
0.000283359
0.000155088
0.000186329
0.000116173
0.000124227
8.46365e-05
9.19917e-05
5.9701e-05
7.63896e-05
4.58975e-05
6.90085e-05
4.14218e-05
6.71076e-05
4.20355e-05
6.9244e-05
4.47442e-05
7.33325e-05
4.7344e-05
7.69682e-05
4.83484e-05
7.81173e-05
4.65021e-05
7.52474e-05
4.06464e-05
6.71964e-05
2.99905e-05
5.30435e-05
1.44262e-05
3.48425e-05
-4.87452e-06
1.45099e-05
-2.6055e-05
-3.3524e-06
-4.47322e-05
-1.22438e-05
-5.4854e-05
-5.31683e-06
-4.96192e-05
2.16836e-05
-2.37142e-05
6.83105e-05
2.26377e-05
0.000130283
8.15813e-05
0.000198329
0.000138228
0.00026307
0.000177242
0.000317197
0.000189479
0.000356671
0.000174855
0.000381088
0.000140494
0.000393086
9.62257e-05
0.000397038
5.04798e-05
0.000397291
8.48004e-06
0.000397557
-2.81152e-05
0.000399673
-5.89275e-05
0.000404499
-8.49424e-05
0.000412284
-0.000107172
0.000423065
-0.000126509
0.000436827
-0.000143698
0.000453543
-0.000159356
0.000473189
-0.000174007
0.00049575
-0.000188094
0.00052122
-0.00020198
0.000549588
-0.000215921
0.000580794
-0.000230012
0.000614672
-0.000244096
0.000650847
-0.00025765
0.000688634
-0.000269698
0.000726984
-0.00027887
0.000764582
-0.000283708
0.000800108
-0.000283148
0.000832557
-0.000276911
0.000861431
-0.000265543
0.000886679
-0.000250121
0.000908483
-0.000231827
0.000927033
-0.000211666
0.000942408
-0.000190381
0.000954581
-0.00016855
0.000963503
-0.000146688
0.000969197
-0.000125321
0.000971827
-0.00010498
0.00097171
-8.61596e-05
0.000969287
-6.92491e-05
0.000965035
-5.44659e-05
0.000959341
-4.17825e-05
0.00095235
-3.09637e-05
0.000943903
-2.16899e-05
0.000933532
-1.39741e-05
0.000921002
-8.5753e-06
-3.9115e-06
0.000759121
0.000239857
0.000789427
0.000239278
0.000826155
0.000244572
0.000871834
0.000255276
0.000923011
0.000268112
0.000973731
0.000281722
0.00101719
0.000295465
0.00104669
0.000307537
0.00105618
0.000315225
0.00104181
0.000316612
0.00100275
0.000311389
0.000939586
0.0002998
0.000855642
0.000281202
0.000755301
0.00025543
0.000646511
0.000224963
0.000538854
0.000192294
0.00044567
0.000152884
0.00037363
0.000117938
0.00032397
9.10821e-05
0.00029393
7.20753e-05
0.000278878
5.97962e-05
0.000273862
5.23598e-05
0.000274678
4.75319e-05
0.000278018
4.31623e-05
0.000281217
3.74475e-05
0.000282098
2.91101e-05
0.000278972
1.75517e-05
0.000271072
3.02539e-06
0.000258311
-1.32939e-05
0.000242752
-2.91732e-05
0.000228841
-4.09429e-05
0.000223302
-4.40799e-05
0.000233933
-3.43454e-05
0.000266604
-1.00333e-05
0.000321212
2.69732e-05
0.000391355
6.80851e-05
0.000466138
0.000102459
0.000534632
0.000120984
0.000589256
0.000120231
0.000627155
0.000102596
0.000649629
7.37516e-05
0.000660406
3.97026e-05
0.000663819
5.06674e-06
0.000663475
-2.77712e-05
0.00066206
-5.75123e-05
0.000661199
-8.40812e-05
0.000661807
-0.00010778
0.000664392
-0.000129094
0.000669244
-0.000148549
0.000676543
-0.000166656
0.000686413
-0.000183877
0.000698938
-0.000200619
0.000714166
-0.000217207
0.00073207
-0.000233825
0.000752496
-0.000250438
0.000775066
-0.000266666
0.000799078
-0.000281662
0.000823446
-0.000294066
0.000846802
-0.000302226
0.000867812
-0.000304718
0.000885591
-0.000300927
0.000899949
-0.000291268
0.000911301
-0.000276896
0.000920301
-0.00025912
0.000927433
-0.000238959
0.000932815
-0.000217048
0.000936241
-0.000193807
0.00093737
-0.000169678
0.00093593
-0.000145249
0.000931856
-0.000121247
0.00092533
-9.84544e-05
0.000916771
-7.76002e-05
0.000906758
-5.92364e-05
0.000895915
-4.36233e-05
0.000884718
-3.05852e-05
0.000873227
-1.9473e-05
0.000860952
-9.41446e-06
0.000847124
-1.46373e-07
0.000831413
7.13603e-06
1.42097e-05
0.000671951
0.000208742
0.000700418
0.000210812
0.00072969
0.0002153
0.00076259
0.000222377
0.000800427
0.000230275
0.000843529
0.00023862
0.000890865
0.000248129
0.00093962
0.000258781
0.000985375
0.00026947
0.00102317
0.000278819
0.00104879
0.000285766
0.00105914
0.000289449
0.00105171
0.000288634
0.00102497
0.000282171
0.000979757
0.000270175
0.000918678
0.000253373
0.000848831
0.000222731
0.000776989
0.00018978
0.000708822
0.000159249
0.000648909
0.000131989
0.00060031
0.000108396
0.000564189
8.84802e-05
0.000539834
7.1887e-05
0.000525102
5.78944e-05
0.000517075
4.54748e-05
0.000512681
3.35033e-05
0.000509173
2.106e-05
0.000504465
7.73369e-06
0.000497207
-6.03651e-06
0.000487101
-1.90669e-05
0.000475557
-2.93989e-05
0.000466009
-3.45323e-05
0.000463676
-3.20122e-05
0.000474067
-2.04238e-05
0.000501456
-4.16525e-07
0.000545136
2.44053e-05
0.000599599
4.79969e-05
0.000656446
6.41369e-05
0.000707824
6.88527e-05
0.000748794
6.16268e-05
0.000777846
4.46992e-05
0.000796064
2.14849e-05
0.000805901
-4.77077e-06
0.000809908
-3.17782e-05
0.000810492
-5.80959e-05
0.000809449
-8.30385e-05
0.000808071
-0.000106402
0.000807248
-0.000128271
0.000807588
-0.000148889
0.000809512
-0.000168579
0.000813315
-0.00018768
0.000819198
-0.000206502
0.00082725
-0.000225258
0.000837397
-0.000243973
0.000849322
-0.000262363
0.000862363
-0.000279708
0.000875462
-0.00029476
0.000887249
-0.000305854
0.000896399
-0.000311375
0.000902135
-0.000310455
0.00090459
-0.000303381
0.00090468
-0.000291358
0.000903556
-0.000275773
0.000901989
-0.000257552
0.000900052
-0.000237023
0.000897245
-0.000214241
0.000892849
-0.000189411
0.000886277
-0.000163106
0.000877269
-0.000136241
0.000865921
-0.000109899
0.000852632
-8.51655e-05
0.000838025
-6.29933e-05
0.00082287
-4.40816e-05
0.000807983
-2.8736e-05
0.000793957
-1.65588e-05
0.000780642
-6.15786e-06
0.0007672
4.02687e-06
0.000752569
1.44851e-05
0.000735963
2.37417e-05
3.23162e-05
0.000593749
0.00018063
0.000620762
0.000183798
0.000647706
0.000188356
0.000675573
0.00019451
0.000704931
0.000200917
0.000736664
0.000206888
0.000771926
0.000212867
0.000811348
0.000219359
0.000854436
0.000226382
0.000899552
0.000233704
0.000944285
0.000241033
0.00098584
0.000247893
0.00102108
0.000253394
0.00104686
0.000256388
0.00106084
0.0002562
0.00106164
0.00025257
0.00104941
0.000234961
0.00102622
0.000212974
0.000994774
0.000190691
0.000958075
0.000168687
0.000919152
0.000147319
0.000880851
0.000126782
0.00084557
0.000107168
0.00081498
8.84847e-05
0.000789803
7.06511e-05
0.000769772
5.35351e-05
0.0007538
3.70316e-05
0.000740337
2.11965e-05
0.000727914
6.38692e-06
0.000715477
-6.63004e-06
0.000702641
-1.65629e-05
0.000690149
-2.20403e-05
0.000680173
-2.20362e-05
0.000675928
-1.61792e-05
0.000680852
-5.34032e-06
0.000696719
8.53877e-06
0.000722571
2.21443e-05
0.00075472
3.19883e-05
0.00078821
3.53624e-05
0.000818654
3.11823e-05
0.000843337
2.00171e-05
0.00086135
3.47132e-06
0.00087314
-1.65608e-05
0.000879818
-3.84555e-05
0.000882707
-6.09849e-05
0.00088306
-8.33921e-05
0.000881956
-0.000105298
0.000880269
-0.000126584
0.000878682
-0.000147303
0.000877716
-0.000167613
0.000877751
-0.000187715
0.000879019
-0.00020777
0.000881563
-0.000227802
0.000885164
-0.000247574
0.000889265
-0.000266464
0.000892934
-0.000283377
0.000894945
-0.00029677
0.000894108
-0.000305017
0.000889833
-0.000307101
0.000882573
-0.000303195
0.000873709
-0.000294517
0.000864831
-0.00028248
0.000856868
-0.00026781
0.00084968
-0.000250365
0.000842307
-0.00022965
0.000833579
-0.000205513
0.000822657
-0.000178489
0.000809258
-0.000149707
0.000793593
-0.000120576
0.000776188
-9.2494e-05
0.000757722
-6.66996e-05
0.000738977
-4.42481e-05
0.000720803
-2.59073e-05
0.000704043
-1.19767e-05
0.000689156
-1.67085e-06
0.000675923
7.07469e-06
0.000663408
1.65418e-05
0.000650191
2.77017e-05
0.000634769
3.91646e-05
4.86945e-05
0.000524266
0.000155626
0.000548873
0.000159191
0.000573646
0.000163583
0.000599086
0.00016907
0.000625143
0.00017486
0.000651798
0.000180232
0.000679517
0.000185148
0.000709068
0.000189808
0.000741164
0.000194286
0.000776232
0.000198636
0.000814256
0.000203009
0.000854655
0.000207495
0.000896183
0.000211866
0.000936991
0.00021558
0.000975015
0.000218176
0.0010083
0.00021929
0.00103401
0.000209243
0.00105147
0.000195515
0.00106098
0.000181184
0.00106323
0.000166435
0.00105918
0.000151371
0.00104996
0.000136006
0.00103681
0.000120314
0.00102103
0.000104268
0.00100379
8.78874e-05
0.000986035
7.12911e-05
0.000968317
5.47493e-05
0.000950777
3.8736e-05
0.000933197
2.39673e-05
0.000915244
1.13225e-05
0.000896933
1.7484e-06
0.000878777
-3.88429e-06
0.000861843
-5.10163e-06
0.000847731
-2.06797e-06
0.000838516
3.87507e-06
0.000835626
1.14286e-05
0.000839462
1.83081e-05
0.000849021
2.24298e-05
0.000862164
2.22191e-05
0.000876363
1.6983e-05
0.000889454
6.92626e-06
0.000900052
-7.12641e-06
0.00090758
-2.40888e-05
0.00091205
-4.29253e-05
0.000913836
-6.27708e-05
0.000913482
-8.30385e-05
0.000911574
-0.00010339
0.00090867
-0.000123679
0.000905259
-0.000143891
0.000901736
-0.000164091
0.000898375
-0.000184353
0.00089527
-0.000204665
0.000892276
-0.000224809
0.000888957
-0.000244254
0.000884578
-0.000262085
0.000878198
-0.000276996
0.000868937
-0.00028751
0.0008565
-0.000292579
0.000841652
-0.000292253
0.000826132
-0.000287676
0.000811798
-0.000280183
0.000799524
-0.000270205
0.000788722
-0.000257008
0.0007778
-0.000239443
0.000765113
-0.000216964
0.000749716
-0.000190115
0.000731557
-0.000160331
0.000711255
-0.000129405
0.000689709
-9.90289e-05
0.000667803
-7.05885e-05
0.000646265
-4.5161e-05
0.000625773
-2.37568e-05
0.000606935
-7.06922e-06
0.000590475
4.48381e-06
0.000576891
1.19134e-05
0.000566096
1.78693e-05
0.000556939
2.5699e-05
0.000547452
3.71885e-05
0.000535254
5.13628e-05
6.22167e-05
0.000462814
0.000133486
0.000484784
0.000137222
0.000507018
0.000141349
0.000529968
0.000146119
0.000553621
0.000151208
0.000577744
0.000156109
0.000602258
0.000160634
0.000627278
0.000164788
0.000653061
0.000168503
0.000679992
0.000171705
0.000708544
0.000174457
0.000739137
0.000176901
0.000771935
0.000179068
0.000806693
0.000180823
0.000842809
0.00018206
0.000879407
0.000182691
0.000913881
0.000174769
0.000944981
0.000164414
0.000972192
0.000153973
0.000995237
0.000143389
0.00101403
0.000132576
0.00102863
0.000121406
0.0010392
0.000109743
0.001046
9.74751e-05
0.00104932
8.45669e-05
0.00104949
7.11142e-05
0.00104683
5.74085e-05
0.00104159
4.39793e-05
0.00103395
3.16093e-05
0.00102403
2.1241e-05
0.00101196
1.38226e-05
0.000998023
1.00483e-05
0.000982834
1.00877e-05
0.000967344
1.34223e-05
0.000952576
1.86423e-05
0.000939969
2.40359e-05
0.000930604
2.76732e-05
0.000924924
2.81102e-05
0.000922538
2.4605e-05
0.000922435
1.70858e-05
0.000923402
5.95958e-06
0.000924371
-8.09624e-06
0.000924603
-2.43206e-05
0.000923643
-4.19651e-05
0.000921344
-6.04722e-05
0.000917751
-7.94453e-05
0.000913012
-9.8651e-05
0.00090732
-0.000117987
0.000900862
-0.000137434
0.000893773
-0.000157001
0.000886071
-0.000176651
0.000877606
-0.000196201
0.00086803
-0.000215233
0.000856829
-0.000233053
0.000843424
-0.000248681
0.00082737
-0.000260942
0.000808741
-0.000268881
0.000788569
-0.000272408
0.000768777
-0.000272461
0.00075125
-0.000270149
0.000736571
-0.000265503
0.000723506
-0.00025714
0.000709745
-0.000243247
0.00069324
-0.000222937
0.000673137
-0.000196861
0.000649878
-0.000166856
0.000624713
-0.000135166
0.000599097
-0.000103789
0.000574252
-7.41842e-05
0.000550982
-4.7318e-05
0.000529662
-2.38411e-05
0.000510643
-4.73779e-06
0.00049412
9.454e-06
0.000480758
1.78453e-05
0.00047085
2.18215e-05
0.000464367
2.43522e-05
0.000459911
3.0155e-05
0.000455198
4.19018e-05
0.000446886
5.96747e-05
7.30955e-05
0.000408522
0.000113928
0.000427998
0.000117745
0.000447755
0.000121593
0.00046816
0.000125713
0.000489271
0.000130097
0.000510969
0.000134411
0.000533153
0.00013845
0.000555738
0.000142203
0.000578639
0.000145602
0.000601832
0.000148512
0.000625422
0.000150868
0.000649638
0.000152685
0.000674756
0.00015395
0.000700989
0.00015459
0.000728463
0.000154586
0.000757169
0.000153985
0.000785629
0.000146309
0.000813145
0.000136898
0.00083938
0.000127738
0.000864028
0.000118741
0.000886823
0.000109781
0.000907537
0.000100693
0.000925972
9.13072e-05
0.000941962
8.14849e-05
0.00095537
7.11597e-05
0.000966096
6.03879e-05
0.0009741
4.94044e-05
0.000979422
3.86569e-05
0.000982219
2.88124e-05
0.000982779
2.06814e-05
0.000981521
1.508e-05
0.000978947
1.2623e-05
0.000975528
1.35065e-05
0.000971611
1.7339e-05
0.000967243
2.30109e-05
0.000962368
2.89103e-05
0.000956898
3.31435e-05
0.000950927
3.40814e-05
0.000944714
3.08174e-05
0.00093852
2.32796e-05
0.000932432
1.20477e-05
0.000926356
-2.02042e-06
0.000920196
-1.81598e-05
0.000913682
-3.54514e-05
0.000906589
-5.33794e-05
0.000898744
-7.16003e-05
0.000890038
-8.99443e-05
0.000880399
-0.000108349
0.000869758
-0.000126793
0.000857998
-0.000145241
0.000844923
-0.000163577
0.000830255
-0.000181533
0.000813694
-0.000198672
0.000795026
-0.000214384
0.00077424
-0.000227895
0.000751755
-0.000238457
0.000728739
-0.000245864
0.00070707
-0.000250739
0.000688433
-0.000253823
0.000672962
-0.000254678
0.000658743
-0.000251284
0.000642831
-0.000241229
0.000622944
-0.000223361
0.000598514
-0.000198507
0.00057061
-0.000168957
0.000541181
-0.000137427
0.000512238
-0.000106223
0.000485336
-7.68864e-05
0.000461372
-5.02208e-05
0.000440629
-2.65752e-05
0.000422968
-6.17947e-06
0.000408068
1.01624e-05
0.000396054
2.14672e-05
0.000386998
2.69017e-05
0.00038123
2.75899e-05
0.000378865
2.67165e-05
0.00037856
3.04599e-05
0.000378103
4.23593e-05
0.000373223
6.45545e-05
8.23183e-05
0.000360567
9.6681e-05
0.000377771
0.000100542
0.000395274
0.00010409
0.000413345
0.000107643
0.000432022
0.00011142
0.000451266
0.000115167
0.000471047
0.000118668
0.00049132
0.00012193
0.000511988
0.000124933
0.00053293
0.000127571
0.000554045
0.000129752
0.00057529
0.000131441
0.000596668
0.000132571
0.000618218
0.00013304
0.000640017
0.000132787
0.00066217
0.000131832
0.000683781
0.000124698
0.000704613
0.000116066
0.000724661
0.00010769
0.000743872
9.95304e-05
0.00076215
9.15035e-05
0.000779361
8.34815e-05
0.000795341
7.53273e-05
0.000809897
6.69285e-05
0.000822824
5.82334e-05
0.00083392
4.92913e-05
0.00084303
4.02949e-05
0.000850084
3.16026e-05
0.000855161
2.37361e-05
0.000858525
1.73168e-05
0.000860652
1.2953e-05
0.000862189
1.10866e-05
0.000863858
1.18371e-05
0.000866306
1.48909e-05
0.00086987
1.94476e-05
0.000874441
2.43394e-05
0.000879405
2.81793e-05
0.000883839
2.96476e-05
0.000886841
2.78153e-05
0.000887803
2.23176e-05
0.000886501
1.33496e-05
0.000882932
1.54864e-06
0.0008772
-1.24283e-05
0.00086962
-2.78717e-05
0.000860483
-4.42423e-05
0.000849984
-6.1101e-05
0.000838196
-7.81563e-05
0.000825094
-9.52466e-05
0.000810579
-0.000112278
0.000794509
-0.000129171
0.000776733
-0.000145801
0.000757171
-0.000161971
0.0007359
-0.000177402
0.000713222
-0.000191706
0.000689733
-0.000204406
0.000666527
-0.000215252
0.000645206
-0.000224543
0.000627104
-0.000232636
0.000611947
-0.000238666
0.000597351
-0.000240082
0.000580008
-0.000233942
0.000557611
-0.000218831
0.000529946
-0.000195696
0.000498662
-0.000167224
0.000466286
-0.000136581
0.000435242
-0.000106383
0.000407284
-7.82661e-05
0.000383346
-5.29482e-05
0.000363619
-3.04939e-05
0.000347767
-1.07232e-05
0.000335182
6.40594e-06
0.000325211
2.0133e-05
0.000317568
2.91107e-05
0.000312258
3.22115e-05
0.000309671
3.01767e-05
0.000310163
2.62248e-05
0.000312648
2.7975e-05
0.000315348
3.96597e-05
0.000313335
6.65671e-05
9.07577e-05
0.000318217
8.14969e-05
0.000333373
8.53857e-05
0.000348857
8.86056e-05
0.000364848
9.16521e-05
0.000381349
9.49187e-05
0.000398347
9.81692e-05
0.000415837
0.000101179
0.000433801
0.000103966
0.000452194
0.00010654
0.000470941
0.000108823
0.000489951
0.000110742
0.000509128
0.000112264
0.000528373
0.000113327
0.00054758
0.000113833
0.000566669
0.000113698
0.000585599
0.000112902
0.000603562
0.000106736
0.000620411
9.92167e-05
0.000636238
9.18625e-05
0.00065111
8.46581e-05
0.000665059
7.7555e-05
0.000678074
7.04666e-05
0.000690103
6.32979e-05
0.000701057
5.59745e-05
0.000710817
4.84732e-05
0.000719256
4.08525e-05
0.000726266
3.32848e-05
0.000731801
2.60677e-05
0.000735919
1.96178e-05
0.000738821
1.44152e-05
0.00074086
1.0914e-05
0.000742522
9.42406e-06
0.000744365
9.99418e-06
0.000746923
1.23335e-05
0.000750583
1.57868e-05
0.000755493
1.94296e-05
0.000761463
2.2209e-05
0.000767965
2.31461e-05
0.000774235
2.15457e-05
0.000779452
1.70999e-05
0.000782926
9.87549e-06
0.00078422
2.55364e-07
0.000783041
-1.12501e-05
0.000779304
-2.41339e-05
0.000773017
-3.79556e-05
0.000764292
-5.23763e-05
0.000753281
-6.71449e-05
0.000740134
-8.20994e-05
0.000724986
-9.71297e-05
0.000707975
-0.00011216
0.000689285
-0.000127111
0.000669208
-0.000141895
0.000648171
-0.000156364
0.000626749
-0.000170284
0.000605789
-0.000183446
0.000586486
-0.000195949
0.00056983
-0.000207887
0.000555392
-0.000218198
0.000540749
-0.000224023
0.000522609
-0.000221943
0.000498787
-0.000210119
0.00046934
-0.000189385
0.000436285
-0.00016264
0.000402487
-0.000133425
0.000370585
-0.000104678
0.000342393
-7.81911e-05
0.000318803
-5.46757e-05
0.000299951
-3.40967e-05
0.000285487
-1.60297e-05
0.000274745
1.87572e-08
0.000266866
1.42849e-05
0.000261087
2.59124e-05
0.000256903
3.32944e-05
0.000254326
3.47886e-05
0.000253766
3.07361e-05
0.000255791
2.42004e-05
0.000259683
2.40823e-05
0.000264384
3.49594e-05
0.000264881
6.607e-05
9.87579e-05
0.000280819
6.81512e-05
0.000294147
7.20571e-05
0.000307833
7.49201e-05
0.000321972
7.75132e-05
0.000336546
8.0344e-05
0.000351559
8.31562e-05
0.000367005
8.57325e-05
0.000382865
8.81064e-05
0.00039911
9.02952e-05
0.0004157
9.22337e-05
0.000432581
9.38606e-05
0.000449691
9.51544e-05
0.000466946
9.60716e-05
0.000484243
9.65359e-05
0.000501465
9.64764e-05
0.000518507
9.58601e-05
0.000534567
9.06758e-05
0.000549466
8.43178e-05
0.00056326
7.80687e-05
0.000576004
7.19132e-05
0.000587745
6.58148e-05
0.000598504
5.97076e-05
0.00060828
5.35217e-05
0.000617047
4.72074e-05
0.00062476
4.07602e-05
0.000631368
3.42447e-05
0.000636833
2.78194e-05
0.00064116
2.17409e-05
0.000644421
1.63565e-05
0.000646782
1.2055e-05
0.000648503
9.19255e-06
0.000649927
7.99992e-06
0.000651432
8.4895e-06
0.000653368
1.03975e-05
0.000655985
1.31695e-05
0.000659376
1.60386e-05
0.000663436
1.81487e-05
0.000667866
1.87163e-05
0.000672216
1.71962e-05
0.000675961
1.33548e-05
0.000678575
7.26161e-06
0.000679662
-8.3243e-07
0.000678952
-1.05399e-05
0.000676284
-2.14661e-05
0.000671555
-3.32265e-05
0.000664733
-4.55543e-05
0.000655844
-5.8256e-05
0.000644967
-7.12223e-05
0.000632231
-8.43937e-05
0.000617828
-9.77568e-05
0.000602018
-0.000111301
0.000585137
-0.000125014
0.000567608
-0.000138835
0.000550023
-0.000152698
0.000533231
-0.000166654
0.000518002
-0.000180719
0.000504033
-0.000193919
0.000489288
-0.000203454
0.000470818
-0.000205553
0.000446608
-0.000197732
0.0004168
-0.000180311
0.000383492
-0.000156077
0.000349627
-0.000128775
0.00031788
-0.000101678
0.00029005
-7.68486e-05
0.000266977
-5.51188e-05
0.000248772
-3.64702e-05
0.000235093
-2.04177e-05
0.000225372
-6.30914e-06
0.000218846
6.54496e-06
0.000214716
1.84149e-05
0.00021212
2.85091e-05
0.000210484
3.49298e-05
0.000209768
3.55044e-05
0.000210358
3.01465e-05
0.000212906
2.16528e-05
0.000217101
1.98874e-05
0.00022268
2.93798e-05
0.000225427
6.33232e-05
0.000106015
0.000247795
5.64425e-05
0.000259506
6.03462e-05
0.000271597
6.28292e-05
0.000284087
6.50231e-05
0.000296953
6.7478e-05
0.000310212
6.98971e-05
0.000323855
7.20893e-05
0.000337858
7.41038e-05
0.000352194
7.59586e-05
0.000366833
7.75952e-05
0.000381734
7.89597e-05
0.000396853
8.00353e-05
0.000412135
8.07896e-05
0.000427505
8.11653e-05
0.000442875
8.11064e-05
0.00045815
8.05853e-05
0.000472596
7.62293e-05
0.000486027
7.08871e-05
0.000498465
6.5631e-05
0.000509935
6.04431e-05
0.00052046
5.52903e-05
0.00053005
5.01169e-05
0.000538706
4.48661e-05
0.000546413
3.95004e-05
0.000553149
3.40236e-05
0.000558895
2.84986e-05
0.000563646
2.30684e-05
0.000567432
1.79554e-05
0.000570333
1.34552e-05
0.000572497
9.89109e-06
0.000574138
7.55173e-06
0.00057552
6.61741e-06
0.000576927
7.08264e-06
0.000578611
8.71367e-06
0.000580742
1.10384e-05
0.000583367
1.34135e-05
0.000586387
1.51288e-05
0.000589567
1.55364e-05
0.000592578
1.41855e-05
0.000595053
1.08794e-05
0.000596644
5.67073e-06
0.000597043
-1.23085e-06
0.000596018
-9.51484e-06
0.000593416
-1.88646e-05
0.000589154
-2.89644e-05
0.0005832
-3.96007e-05
0.00057557
-5.06257e-05
0.000566318
-6.19701e-05
0.000555533
-7.36087e-05
0.000543343
-8.55673e-05
0.000529927
-9.78848e-05
0.000515551
-0.000110637
0.000500625
-0.000123909
0.000485742
-0.000137815
0.000471457
-0.000152369
0.000457609
-0.000166872
0.000442682
-0.000178992
0.000424248
-0.000185019
0.000400489
-0.000181795
0.000371472
-0.000168714
0.000339122
-0.000147962
0.000306239
-0.000123193
0.000275402
-9.79386e-05
0.000248365
-7.46405e-05
0.000225957
-5.44405e-05
0.00020829
-3.74517e-05
0.000195049
-2.32292e-05
0.000185714
-1.10825e-05
0.000179706
-3.01179e-07
0.00017634
9.91056e-06
0.000174924
1.98312e-05
0.000174633
2.87999e-05
0.000174841
3.47215e-05
0.000175409
3.49361e-05
0.000176635
2.89206e-05
0.000179089
1.91989e-05
0.000182833
1.6144e-05
0.000188331
2.38819e-05
0.000192934
5.87198e-05
0.000111825
0.000218635
4.61897e-05
0.000228923
5.00587e-05
0.000239603
5.21484e-05
0.000250628
5.39987e-05
0.00026198
5.61257e-05
0.000273687
5.81904e-05
0.000285735
6.00414e-05
0.000298098
6.17406e-05
0.000310754
6.33024e-05
0.000323675
6.46749e-05
0.000336823
6.58113e-05
0.00035016
6.66984e-05
0.00036364
6.73096e-05
0.000377205
6.76005e-05
0.000390786
6.75251e-05
0.00040431
6.70613e-05
0.000417134
6.34057e-05
0.000429091
5.89301e-05
0.000440196
5.45256e-05
0.000450464
5.01753e-05
0.000459903
4.58508e-05
0.000468516
4.15043e-05
0.000476294
3.70884e-05
0.000483221
3.25735e-05
0.000489278
2.79662e-05
0.000494453
2.33239e-05
0.000498748
1.87728e-05
0.0005022
1.45036e-05
0.000504887
1.07679e-05
0.000506942
7.83654e-06
0.000508548
5.94529e-06
0.000509927
5.2387e-06
0.000511308
5.70202e-06
0.00051289
7.13126e-06
0.000514805
9.12388e-06
0.00051708
1.11387e-05
0.000519626
1.25824e-05
0.000522247
1.29154e-05
0.000524672
1.17604e-05
0.000526604
8.94752e-06
0.000527761
4.51338e-06
0.000527899
-1.36868e-06
0.000526826
-8.44164e-06
0.000524407
-1.64459e-05
0.000520565
-2.51219e-05
0.000515262
-3.42978e-05
0.000508496
-4.38595e-05
0.000500295
-5.377e-05
0.000490722
-6.40353e-05
0.000479883
-7.47284e-05
0.000467966
-8.59676e-05
0.000455266
-9.79379e-05
0.000442153
-0.000110796
0.000428908
-0.00012457
0.000415356
-0.000138818
0.000400445
-0.00015196
0.00038238
-0.000160927
0.000359662
-0.000162301
0.000332231
-0.000154364
0.000301686
-0.00013817
0.00027052
-0.000116796
0.000241129
-9.38022e-05
0.000215204
-7.20137e-05
0.000193595
-5.3032e-05
0.000176468
-3.73135e-05
0.000163547
-2.45301e-05
0.000154355
-1.40375e-05
0.000148344
-5.07146e-06
0.000145
3.04226e-06
0.00014382
1.10906e-05
0.00014424
1.94115e-05
0.00014556
2.74802e-05
0.000147127
3.31543e-05
0.000148671
3.3392e-05
0.000150312
2.72797e-05
0.000152422
1.70893e-05
0.000155317
1.32481e-05
0.000160003
1.9196e-05
0.000165953
5.27701e-05
0.000115476
0.000192889
3.72304e-05
0.000201931
4.10169e-05
0.000211365
4.27144e-05
0.000221088
4.42753e-05
0.000231102
4.61116e-05
0.000241436
4.78568e-05
0.000252071
4.94064e-05
0.000262983