/*--------------------------------*- C++ -*----------------------------------*\
| =========                 |                                                 |
| \\      /  F ield         | OpenFOAM: The Open Source CFD Toolbox           |
|  \\    /   O peration     | Version:  v1912                                 |
|   \\  /    A nd           | Website:  www.openfoam.com                      |
|    \\/     M anipulation  |                                                 |
\*---------------------------------------------------------------------------*/
FoamFile
{
    version     2.0;
    format      ascii;
    class       volScalarField;
    location    "90";
    object      nut;
}
// * * * * * * * * * * * * * * * * * * * * * * * * * * * * * * * * * * * * * //

dimensions      [0 2 -1 0 0 0 0];


internalField   nonuniform List<scalar> 
12441
(
5.82242e-24
1.79057e-20
8.12791e-20
3.33433e-19
1.07115e-18
3.89851e-18
1.01482e-17
2.51367e-17
6.17016e-17
1.28188e-16
3.07246e-16
7.76282e-16
2.18629e-15
7.44883e-15
1.04223e-13
1.904e-11
0.000212441
0.00121377
0.00381679
0.00290301
0.00363543
0.00775321
6.34276e-24
3.0336e-20
1.12172e-19
4.25561e-19
1.30706e-18
4.82539e-18
1.22696e-17
3.02234e-17
7.4126e-17
1.55532e-16
3.82471e-16
1.03765e-15
2.83956e-15
9.44836e-15
1.13869e-13
3.92478e-11
6.15518e-05
0.00147561
0.00434983
0.00315598
0.003996
0.00781733
6.36551e-24
3.58978e-20
1.21225e-19
4.49741e-19
1.38277e-18
4.9247e-18
1.30013e-17
3.22612e-17
8.10632e-17
1.72945e-16
4.20772e-16
1.12659e-15
2.79524e-15
7.72839e-15
5.39242e-14
6.61812e-12
1.15059e-05
0.00106989
0.00170749
0.00297085
0.00414762
0.0078909
6.31999e-24
3.76951e-20
1.19009e-19
4.3099e-19
1.33067e-18
4.73272e-18
1.25903e-17
3.15581e-17
7.90703e-17
1.7495e-16
4.269e-16
1.16398e-15
2.62223e-15
8.54461e-15
3.87989e-14
1.55395e-12
1.65533e-06
0.000733015
0.00125929
0.00287835
0.00430926
0.0079647
6.28591e-24
4.38887e-20
1.3025e-19
4.59934e-19
1.40784e-18
4.79736e-18
1.31648e-17
3.30187e-17
8.48718e-17
1.88807e-16
4.57311e-16
1.29523e-15
3.03041e-15
4.10624e-14
2.49124e-13
2.31413e-12
1.41204e-07
0.000506317
0.00121454
0.00285365
0.00444953
0.00803394
6.23576e-24
4.12937e-20
1.21032e-19
4.30902e-19
1.3483e-18
4.64181e-18
1.28313e-17
3.26358e-17
8.35126e-17
1.94125e-16
4.80533e-16
1.4582e-15
4.55406e-15
1.34006e-12
1.19898e-11
5.14067e-11
4.63542e-07
0.000446831
0.00124673
0.00290218
0.00457792
0.00809948
6.2008e-24
5.02726e-20
1.38295e-19
4.77454e-19
1.46562e-18
4.81121e-18
1.36715e-17
3.46905e-17
9.13269e-17
2.12587e-16
5.24502e-16
2.01671e-15
2.51214e-14
4.18142e-11
6.63117e-10
9.44597e-09
1.8868e-05
0.000432166
0.00139301
0.00308884
0.00472982
0.00816218
6.15107e-24
4.34593e-20
1.23685e-19
4.41953e-19
1.41421e-18
4.74384e-18
1.36006e-17
3.51106e-17
9.20137e-17
2.2555e-16
5.76889e-16
5.48422e-15
6.12815e-13
2.27184e-09
8.47932e-08
4.9862e-06
0.000190645
0.000460158
0.0018211
0.00348835
0.00493516
0.00822577
6.11821e-24
5.57148e-20
1.46654e-19
5.0143e-19
1.55997e-18
4.97837e-18
1.46965e-17
3.78285e-17
1.02779e-16
2.52693e-16
6.49912e-16
6.18625e-14
2.60078e-11
7.48432e-08
1.04455e-05
0.00014967
0.000744767
0.000775334
0.00273379
0.00418518
0.00523081
0.00829204
6.07141e-24
4.43571e-20
1.25963e-19
4.58509e-19
1.51411e-18
4.9762e-18
1.48453e-17
3.9022e-17
1.0568e-16
2.77221e-16
7.54364e-16
1.69691e-12
1.0891e-09
4.46272e-06
0.000185862
0.000565601
0.00145969
0.0013737
0.00435324
0.00525805
0.00563348
0.00836448
6.04216e-24
6.02718e-20
1.53974e-19
5.27724e-19
1.67899e-18
5.22674e-18
1.61177e-17
4.23207e-17
1.20114e-16
3.19573e-16
8.98375e-16
5.27424e-11
5.53046e-08
8.11414e-05
0.000661279
0.00142416
0.00285889
0.00252042
0.00697218
0.0067961
0.00615693
0.00844366
5.9968e-24
4.46364e-20
1.28273e-19
4.78904e-19
1.64086e-18
5.30525e-18
1.65114e-17
4.44013e-17
1.26455e-16
3.67401e-16
1.16744e-15
1.46939e-09
3.26035e-06
0.000327984
0.0013195
0.00282342
0.00531792
0.00463262
0.0108637
0.00882345
0.00678735
0.00853143
5.97111e-24
6.41623e-20
1.60999e-19
5.55669e-19
1.82164e-18
5.56382e-18
1.80102e-17
4.85439e-17
1.47696e-16
4.47771e-16
1.70637e-15
3.54979e-08
7.13684e-05
0.000943753
0.00287288
0.00553597
0.00960334
0.00825401
0.0160636
0.0113006
0.00751102
0.00862633
5.9272e-24
4.4333e-20
1.30212e-19
5.01353e-19
1.79101e-18
5.7182e-18
1.86553e-17
5.17716e-17
1.61056e-16
5.63351e-16
3.62845e-15
8.0259e-07
0.000326643
0.0021821
0.00567349
0.0100396
0.0162849
0.0137965
0.0222682
0.014081
0.00829006
0.00872852
5.90473e-24
6.75294e-20
1.67207e-19
5.84522e-19
1.98513e-18
5.96328e-18
2.03819e-17
5.71537e-17
1.97357e-16
7.83952e-16
1.66305e-14
1.52208e-05
0.000985486
0.00460353
0.0102633
0.0167007
0.0255152
0.0212145
0.028848
0.0169953
0.00909967
0.00883515
5.86111e-24
4.39668e-20
1.32543e-19
5.26927e-19
1.96633e-18
6.21407e-18
2.13414e-17
6.21378e-17
2.29861e-16
1.22525e-15
3.04392e-13
0.000134497
0.00222506
0.00861262
0.0169604
0.0255267
0.0368408
0.0298072
0.0350919
0.0198401
0.00989858
0.00894576
5.84191e-24
7.05547e-20
1.74054e-19
6.17045e-19
2.17817e-18
6.46395e-18
2.34361e-17
6.98178e-17
3.10223e-16
2.32008e-15
1.26869e-11
0.00048857
0.00460395
0.014496
0.0255779
0.0361287
0.0491255
0.038375
0.0404157
0.0224831
0.0106696
0.00905718
5.79803e-24
4.35103e-20
1.35039e-19
5.55332e-19
2.16997e-18
6.80255e-18
2.47772e-17
7.77914e-17
4.1143e-16
5.48486e-15
5.51914e-10
0.00116467
0.00847486
0.0222776
0.0357922
0.0476478
0.0607444
0.045647
0.0445698
0.0248133
0.0113831
0.00916919
5.78156e-24
7.32786e-20
1.80835e-19
6.51082e-19
2.39607e-18
7.03753e-18
2.73241e-17
8.96177e-17
6.65881e-16
1.70312e-14
4.43568e-08
0.00259868
0.0141392
0.0314616
0.0467262
0.0589242
0.0700342
0.0508191
0.0475905
0.0268136
0.0120386
0.00927899
5.73711e-24
4.30614e-20
1.37415e-19
5.84665e-19
2.397e-18
7.47177e-18
2.91907e-17
1.03041e-16
1.08806e-15
7.57989e-14
8.55796e-06
0.00507989
0.0214721
0.0415228
0.0575572
0.068675
0.0758056
0.0537936
0.0497461
0.0284689
0.012622
0.00938714
5.72393e-24
7.57445e-20
1.87339e-19
6.85128e-19
2.63776e-18
7.70029e-18
3.24651e-17
1.22967e-16
2.20704e-15
7.85006e-13
0.00016256
0.00904718
0.0300189
0.0516248
0.0671563
0.0758895
0.0777404
0.0551079
0.0513408
0.0298295
0.013148
0.00949146
5.67866e-24
4.24427e-20
1.39108e-19
6.13231e-19
2.64606e-18
8.22968e-18
3.51547e-17
1.47469e-16
4.36984e-15
1.34965e-11
0.000602382
0.0146245
0.0391393
0.0611747
0.0748138
0.0800231
0.076436
0.0555435
0.0526609
0.0309189
0.0136148
0.00959327
5.66816e-24
7.80377e-20
1.92996e-19
7.17431e-19
2.89885e-18
8.44715e-18
3.96216e-17
1.84624e-16
1.03357e-14
1.67086e-10
0.00147515
0.0215866
0.0481775
0.0694519
0.0799044
0.0811809
0.0731097
0.0557807
0.0538834
0.0318068
0.0140499
0.00969106
5.62235e-24
4.19728e-20
1.40318e-19
6.40341e-19
2.91439e-18
9.07704e-18
4.37611e-17
2.33031e-16
2.25687e-14
1.56805e-09
0.00313622
0.0294936
0.0565909
0.0761035
0.082467
0.0799626
0.0690857
0.0561956
0.0551219
0.03253
0.0144617
0.00978684
5.61538e-24
8.029e-20
1.98087e-19
7.47733e-19
3.18054e-18
9.29762e-18
5.0492e-17
3.08088e-16
5.67558e-14
1.3855e-08
0.00586353
0.0377068
0.0639894
0.0808196
0.0827526
0.0772745
0.0653719
0.0569033
0.0564122
0.0331681
0.0148866
0.00987966
5.56779e-24
4.18009e-20
1.41275e-19
6.66215e-19
3.20464e-18
1.00351e-17
5.74821e-17
4.11072e-16
1.31311e-13
3.20624e-07
0.00981914
0.0457122
0.0701347
0.0837013
0.0814414
0.0739945
0.0624835
0.0578602
0.0577701
0.0337687
0.0153397
0.00997203
5.56331e-24
8.24983e-20
2.02589e-19
7.75905e-19
3.48266e-18
1.02643e-17
6.87552e-17
5.76332e-16
3.94645e-13
1.87036e-05
0.0148253
0.0530437
0.0749214
0.0849096
0.0791319
0.070805
0.0605281
0.0589803
0.0591772
0.0344149
0.0158608
0.0100634
5.51459e-24
4.18686e-20
1.41719e-19
6.89871e-19
3.51502e-18
1.11152e-17
8.17827e-17
8.1539e-16
1.84116e-12
0.000206922
0.0205732
0.0594575
0.0783608
0.0848636
0.0764662
0.0680895
0.0593864
0.0601804
0.0606187
0.0351498
0.0164638
0.0101564
5.51348e-24
8.46892e-20
2.06268e-19
8.01056e-19
3.80635e-18
1.13779e-17
1.0293e-16
1.21034e-15
1.28669e-11
0.000665778
0.0265884
0.0647866
0.0805581
0.0839065
0.0738161
0.0659985
0.0588699
0.0614077
0.0620623
0.036037
0.017181
0.0102507
5.46251e-24
4.20439e-20
1.41444e-19
7.1074e-19
3.84797e-18
1.23549e-17
1.29521e-16
1.80638e-15
7.45249e-11
0.00127614
0.0325167
0.0690037
0.0816853
0.0824459
0.0714687
0.0645189
0.0588038
0.0626295
0.0634845
0.0370899
0.0180129
0.0103488
5.46342e-24
8.68197e-20
2.09431e-19
8.23599e-19
4.15371e-18
1.26892e-17
1.73143e-16
2.82288e-15
3.58131e-10
0.00208822
0.0380166
0.0721148
0.0819475
0.0807312
0.0694996
0.0635714
0.0590552
0.0638336
0.0648497
0.0383325
0.0189738
0.01045
5.41139e-24
4.22561e-20
1.40358e-19
7.28911e-19
4.20614e-18
1.37964e-17
2.3133e-16
4.41463e-15
1.3945e-09
0.00313112
0.0429004
0.0742093
0.0815548
0.0789998
0.067955
0.0630522
0.0595333
0.0650145
0.0661315
0.039738
0.0200419
0.0105565
5.41541e-24
8.89303e-20
2.11846e-19
8.44126e-19
4.53349e-18
1.42315e-17
3.27587e-16
7.11551e-15
4.76742e-09
0.0044429
0.0470087
0.075385
0.0806996
0.0773498
0.066781
0.0628698
0.0601811
0.0661739
0.0672933
0.0412949
0.0212094
0.010667
5.35992e-24
4.22887e-20
1.38244e-19
7.45138e-19
4.60122e-18
1.55141e-17
4.60556e-16
1.13575e-14
1.45229e-08
0.00602306
0.0503111
0.0757844
0.0795449
0.0758765
0.065948
0.0629468
0.0609644
0.0673128
0.0683077
0.0429527
0.0224336
0.0107831
5.36586e-24
8.84686e-20
2.10744e-19
8.58914e-19
4.9478e-18
1.60891e-17
6.80312e-16
1.85862e-14
4.29591e-08
0.00785233
0.0528076
0.0755374
0.0782185
0.0745854
0.0653843
0.0632273
0.0618656
0.0684353
0.0691386
0.0446905
0.0236931
0.0109032
5.30634e-24
4.14959e-20
1.32979e-19
7.53829e-19
5.02754e-18
1.75299e-17
9.85253e-16
3.00756e-14
2.20114e-07
0.00993634
0.0545953
0.0747911
0.0768163
0.0735029
0.065057
0.0636685
0.062877
0.0695428
0.0697602
0.0464649
0.0249379
0.0110282
5.31267e-24
8.52736e-20
2.042e-19
8.63681e-19
5.39285e-18
1.82318e-17
1.47957e-15
5.76953e-14
1.07812e-05
0.0123086
0.0557794
0.0736657
0.075404
0.0725998
0.0649094
0.0642433
0.0639987
0.0706403
0.0701406
0.0482771
0.0261492
0.0111563
5.24639e-24
4.16253e-20
1.277e-19
7.59852e-19
5.50149e-18
1.99332e-17
2.15258e-15
4.6739e-13
0.000159195
0.0150752
0.0565114
0.0722826
0.0740252
0.0718813
0.0649226
0.0649321
0.0652355
0.0717303
0.0702602
0.0501147
0.0272894
0.0112883
5.24961e-24
5.37968e-20
1.54985e-19
8.00884e-19
5.78104e-18
2.06897e-17
3.21175e-15
2.32184e-11
0.000837785
0.018377
0.0569113
0.0707318
0.0727038
0.0713134
0.0650561
0.0657254
0.0665964
0.072819
0.0700976
0.0520111
0.0283655
0.011422
5.17297e-24
4.3292e-20
1.14787e-19
7.26198e-19
5.96027e-18
2.36348e-17
4.68424e-15
1.03755e-09
0.00262909
0.0222949
0.0570944
0.0691
0.0714501
0.0709019
0.065305
0.0666165
0.0680921
0.0739089
0.069648
0.0539724
0.029374
0.0115584
5.16618e-24
1.93981e-21
1.12266e-20
4.013e-19
5.4606e-18
2.45e-17
7.2298e-15
1.81821e-07
0.00607545
0.0267686
0.0571138
0.0674451
0.0702612
0.0706177
0.0656389
0.0676057
0.0697344
0.0750037
0.0689082
0.0560132
0.0303629
0.0116955
5.07816e-24
1.71214e-20
4.48784e-20
4.18338e-19
5.47961e-18
3.63445e-17
1.80846e-14
3.78462e-05
0.0114986
0.0316642
0.057002
0.0658244
0.069125
0.0704757
0.0660648
0.0686924
0.0715329
0.0760986
0.0678967
0.0580431
0.0313544
0.0118345
5.03921e-24
6.72151e-22
8.46924e-23
2.35537e-19
5.07525e-18
8.29991e-17
3.71785e-13
0.000521674
0.0190419
0.036808
0.0567382
0.0642721
0.0680192
0.0704471
0.0665551
0.0698828
0.0734945
0.0771839
0.0666346
0.0598452
0.0323529
0.011976
4.83869e-24
2.10391e-19
4.58755e-19
1.03219e-18
7.29706e-18
9.18908e-16
7.21377e-12
0.00238596
0.0286842
0.0421357
0.0563843
0.0628536
0.0669247
0.0705449
0.0671124
0.0711713
0.0756107
0.0781965
0.0651516
0.0609202
0.0330239
0.0121338
0.00987657
0.00927487
0.00986053
0.00416288
0.00334294
0.00345715
0.00366988
0.00373453
0.00390099
0.0039642
0.00444926
0.00384843
0.00383973
0.00390115
0.0064931
0.0178551
0.0292935
0.0332424
0.0312217
0.0255372
0.0221362
0.0217548
0.0219903
0.0304751
0.0586661
0.080786
0.0907412
0.0969241
0.0995603
0.0943576
0.0869461
0.0830846
0.0840727
0.0949712
0.112682
0.00986353
0.00941967
0.00944606
0.00369846
0.00300363
0.00311932
0.00336794
0.0034423
0.00364586
0.00379186
0.00431491
0.00369555
0.00368965
0.00374019
0.00595154
0.0168501
0.0286199
0.0333275
0.0317652
0.0258973
0.022239
0.0218243
0.0220941
0.0304596
0.0586586
0.0807625
0.0907006
0.0968855
0.0995477
0.0943053
0.0869085
0.0830549
0.0840684
0.0949675
0.112688
0.00983842
0.00959921
0.00870706
0.00317597
0.0026803
0.00265021
0.00291666
0.00303441
0.00325278
0.00346089
0.00402034
0.00355898
0.0036246
0.00380355
0.00543864
0.0139374
0.0241237
0.0292023
0.0292106
0.0248476
0.0219451
0.0218069
0.0223667
0.0308659
0.058754
0.0806397
0.0905418
0.0967384
0.0994681
0.0941516
0.0867913
0.0829559
0.0840238
0.0949222
0.112663
0.00979929
0.00975498
0.00781143
0.0027389
0.00239977
0.00223066
0.00249281
0.00261298
0.00279457
0.00301517
0.00352758
0.0032109
0.00334217
0.00368129
0.00503453
0.0109863
0.0188157
0.0235937
0.0250941
0.0229184
0.0213376
0.021696
0.0227395
0.0315481
0.0589129
0.0804149
0.0902636
0.0964818
0.0993196
0.0938953
0.0865936
0.0827863
0.0839379
0.0948343
0.112607
0.00974597
0.00983857
0.00689119
0.00244249
0.00223754
0.00195454
0.00216073
0.00223532
0.00236035
0.0025417
0.00290221
0.00265908
0.00283453
0.00327233
0.00461233
0.00865525
0.0142198
0.0182189
0.0206175
0.0205466
0.0204805
0.0214821
0.0231553
0.0323939
0.0591091
0.080101
0.0898802
0.0961291
0.0991122
0.0935463
0.0863239
0.0825545
0.0838183
0.0947131
0.112529
0.00967615
0.009822
0.00603049
0.00226908
0.00219128
0.00183925
0.00195674
0.00195574
0.00202638
0.00214357
0.00228765
0.00206247
0.0022386
0.00266828
0.00399582
0.00688766
0.0107071
0.0138045
0.0164987
0.0180457
0.0194206
0.0211524
0.0235672
0.0333195
0.0593274
0.0797206
0.0894162
0.0957029
0.0988636
0.0931223
0.0859971
0.0822749
0.0836779
0.0945732
0.112443
0.00959042
0.00969181
0.00526306
0.0021672
0.00221563
0.00185521
0.00189119
0.00180221
0.00182675
0.00188024
0.0018252
0.00160443
0.00174038
0.00208221
0.00319812
0.00543024
0.00809495
0.0104207
0.0130204
0.0155957
0.018183
0.0206889
0.0239357
0.034264
0.0595611
0.0793026
0.0889025
0.0952316
0.098596
0.092645
0.0856315
0.0819655
0.0835333
0.0944336
0.11237
0.00948687
0.00943821
0.00459219
0.00208746
0.00225964
0.00195023
0.00194913
0.00177082
0.00174901
0.0017443
0.00155801
0.00134854
0.00143742
0.0016833
0.00244348
0.00415128
0.00610069
0.00786156
0.0101846
0.0132681
0.0167745
0.0200664
0.0242244
0.0351839
0.0598109
0.0788784
0.0883729
0.0947464
0.0983343
0.0921393
0.085248
0.081647
0.0834033
0.0943156
0.112333
0.00936733
0.00906173
0.00401135
0.00200497
0.00229442
0.0020699
0.0020953
0.00183622
0.00175682
0.00169402
0.00143453
0.00123985
0.0012987
0.00148786
0.00193466
0.00310262
0.00455062
0.00591067
0.00789264
0.0110839
0.0151981
0.0192551
0.0243968
0.0360484
0.0600815
0.0784789
0.0878611
0.0942787
0.0981036
0.0916306
0.0848686
0.0813417
0.0833081
0.0942425
0.112355
0.0092307
0.00856555
0.00351552
0.00192037
0.00231849
0.00217754
0.00228421
0.00196313
0.00181345
0.00168872
0.00138435
0.00120115
0.00124725
0.00141784
0.00169439
0.0023823
0.00339156
0.00443441
0.0060595
0.00906834
0.0134744
0.0182263
0.0244136
0.0368342
0.0603797
0.0781327
0.0873982
0.0938584
0.0979281
0.0911446
0.0845154
0.0810721
0.0832686
0.0942384
0.11246
0.00908003
0.00796403
0.0031027
0.001848
0.00234588
0.0022644
0.0024757
0.00211602
0.00189535
0.00170194
0.00136148
0.00118513
0.00122719
0.00139737
0.00163119
0.00199898
0.00261959
0.00337354
0.00464645
0.00727914
0.0116622
0.0169651
0.0242321
0.0375208
0.0607115
0.0778632
0.0870114
0.0935119
0.0978294
0.090705
0.0842098
0.0808608
0.0833058
0.0943278
0.112676
0.00891508
0.00727464
0.00277302
0.0018031
0.0023922
0.00234342
0.00264841
0.00226945
0.00198844
0.00172119
0.00134855
0.00117529
0.00121556
0.00138977
0.0016474
0.00186811
0.00219946
0.002693
0.0036382
0.00579396
0.00986453
0.0154845
0.0238083
0.038087
0.0610808
0.0776887
0.0867221
0.0932615
0.097826
0.0903338
0.0839722
0.0807296
0.0834402
0.094535
0.113025
0.00874002
0.0065257
0.00252664
0.00179649
0.00246918
0.00243541
0.00280201
0.00241262
0.00208395
0.0017427
0.00134211
0.00116986
0.00120773
0.00138759
0.00168673
0.00188394
0.00204803
0.00233937
0.00300898
0.00467706
0.0082138
0.0138394
0.0231036
0.0385078
0.0614874
0.077621
0.0865465
0.0931247
0.0979326
0.0900497
0.0838208
0.0806988
0.0836912
0.0948836
0.113532
0.00855535
0.00574747
0.00236361
0.00183482
0.00258551
0.00255902
0.0029489
0.00254782
0.00217902
0.00176801
0.00134482
0.00117116
0.00120501
0.00139258
0.00173124
0.00196687
0.00206866
0.00223308
0.00270267
0.00394639
0.00683458
0.0121287
0.0220952
0.038753
0.061927
0.0776662
0.0864949
0.0931146
0.0981606
0.089869
0.0837722
0.0807879
0.0840775
0.0953965
0.114221
0.00836592
0.00497697
0.00228319
0.00192327
0.0027503
0.00272834
0.00310786
0.00268468
0.00227699
0.00180107
0.0013595
0.00118195
0.00120925
0.00140599
0.00178076
0.00207463
0.0021831
0.00229066
0.00264108
0.00356664
0.00580479
0.0104801
0.020789
0.0387873
0.0623905
0.0778253
0.086573
0.0932401
0.0985174
0.0898048
0.0838408
0.0810144
0.0846164
0.0960958
0.115112
0.00817267
0.00424933
0.00228389
0.0020673
0.0029759
0.00295466
0.00329987
0.00283645
0.00238446
0.00184751
0.00139058
0.0012055
0.0012227
0.00142757
0.00183753
0.00219117
0.00234092
0.00244313
0.00274418
0.00346675
0.00513802
0.00901754
0.0192295
0.0385729
0.0628646
0.0780949
0.0867827
0.0935066
0.0990081
0.0898677
0.0840393
0.0813948
0.0853242
0.0970026
0.116227
0.00798033
0.00359941
0.00236361
0.00227391
0.00328021
0.00325047
0.00354674
0.00301822
0.0025107
0.00191362
0.00144226
0.00124593
0.00124819
0.00145693
0.00190165
0.00231231
0.0025156
0.0026428
0.00294506
0.00356589
0.00479517
0.00782854
0.0175007
0.0380741
0.0633323
0.078469
0.0871228
0.093917
0.099635
0.090066
0.0843784
0.0819444
0.0862164
0.0981376
0.117585
0.00778933
0.00305717
0.00252121
0.00255207
0.0036876
0.0036354
0.0038697
0.00324666
0.0026664
0.00200738
0.00152168
0.0013092
0.00129038
0.00149486
0.0019714
0.00243638
0.00269443
0.0028601
0.00319417
0.00379028
0.00470949
0.00694891
0.0157128
0.037264
0.0637742
0.0789393
0.0875906
0.0944727
0.100399
0.0904065
0.0848681
0.0826775
0.0873077
0.0995207
0.119204
0.00760307
0.00264304
0.00275693
0.00291308
0.00422641
0.00414297
0.0042925
0.00354152
0.00286534
0.00213886
0.00163806
0.00140387
0.0013562
0.00154421
0.00204511
0.00256158
0.00287174
0.00307859
0.00345834
0.00408124
0.00480797
0.00636899
0.0139788
0.0361318
0.0641692
0.0794971
0.0881827
0.095174
0.101301
0.0908944
0.0855168
0.0836084
0.0886122
0.101172
0.121104
0.00742066
0.00236369
0.00307259
0.00337172
0.00493427
0.00481353
0.0048426
0.00392643
0.00312428
0.00232236
0.00180696
0.00154343
0.00145696
0.00161117
0.0021229
0.0026861
0.00304451
0.00328949
0.00371635
0.00439557
0.00502398
0.00604973
0.0123916
0.0346898
0.0644969
0.0801343
0.0888961
0.0960218
0.102339
0.0915346
0.0863328
0.0847507
0.0901441
0.103112
0.1233
0.00724378
0.00221449
0.0034745
0.00396055
0.00585075
0.00569186
0.00555097
0.00442896
0.00346455
0.00257655
0.00204981
0.00174846
0.00161023
0.00170678
0.00220863
0.00281031
0.00321268
0.00348983
0.0039562
0.00470389
0.00530309
0.0059386
0.011012
0.0329769
0.0647387
0.080844
0.0897289
0.0970174
0.103514
0.0923313
0.0873239
0.0861187
0.0919176
0.10536
0.125812
0.00707145
0.00218517
0.00399833
0.00472126
0.00702254
0.00682579
0.00645048
0.00507897
0.00391061
0.00292573
0.00239766
0.00205043
0.00184442
0.00184997
0.00231178
0.0029386
0.00337932
0.00368106
0.00417249
0.00498697
0.00560434
0.00598049
0.00986878
0.0310581
0.0648807
0.0816215
0.0906811
0.0981636
0.104827
0.0932891
0.0884981
0.087727
0.0939471
0.107939
0.128655
0.00690537
0.0022561
0.00471946
0.00571027
0.00850691
0.00826755
0.00757636
0.00590735
0.00449026
0.00339799
0.00288803
0.00249327
0.0022026
0.00207198
0.0024502
0.00308186
0.00355298
0.00387025
0.00436656
0.00523404
0.00589917
0.00612501
0.00896625
0.0290187
0.0649158
0.0824653
0.0917551
0.099465
0.106278
0.0944129
0.0898634
0.0895912
0.0962477
0.110871
0.131848
0.00674534
0.00242309
0.00572462
0.00701231
0.0103763
0.0100771
0.00896749
0.00694482
0.00523209
0.0040243
0.00356421
0.00313308
0.00274554
0.00242336
0.00265363
0.00325902
0.00374788
0.00406941
0.00454573
0.00544056
0.0061692
0.00633003
0.00829206
0.0269529
0.0648464
0.0833772
0.092956
0.100929
0.107872
0.0957083
0.0914288
0.091728
0.0988352
0.11418
0.135407
0.00659312
0.00268626
0.0071182
0.00874063
0.0127211
0.0123234
0.0106664
0.0082202
0.00616346
0.00483338
0.00446494
0.00402902
0.00354459
0.00297892
0.00296945
0.0034993
0.00398515
0.00429612
0.00472408
0.00560861
0.00640428
0.00656338
0.00782348
0.0249523
0.0646868
0.0843632
0.0942921
0.102563
0.109611
0.0971814
0.0932034
0.0941553
0.101726
0.11789
0.139351
0.00644962
0.00305039
0.0090036
0.0110339
0.0156439
0.0150743
0.0127101
0.0097525
0.00730264
0.00584628
0.00561758
0.00522952
0.00466404
0.00383038
0.00346813
0.00384411
0.00429171
0.00457123
0.00492059
0.00574591
0.00660069
0.00680232
0.00753195
0.0230957
0.0644648
0.0854336
0.0957748
0.104381
0.111502
0.0988393
0.0951973
0.0968922
0.104938
0.122028
0.143698
0.00631698
0.00352231
0.0114554
0.0140435
0.0192417
0.0183702
0.0151096
0.0115363
0.0086481
0.00706486
0.00702251
0.00675236
0.0061332
0.00505431
0.00423984
0.00434877
0.00470074
0.00491821
0.00515813
0.00586691
0.00676026
0.00703288
0.00738742
0.0214446
0.0642222
0.086603
0.0974186
0.106396
0.113551
0.10069
0.0974211
0.0999596
0.108489
0.126623
0.148465
0.00619775
0.00411502
0.0145093
0.0179131
0.0235772
0.0221881
0.0178219
0.0135219
0.0101629
0.00846176
0.00864666
0.0085713
0.00792744
0.00666686
0.00536531
0.00507644
0.00524822
0.00535953
0.00545942
0.00599104
0.00688948
0.00724825
0.00736182
0.0200438
0.0640151
0.0878902
0.099241
0.108624
0.115766
0.102741
0.0998862
0.10338
0.112399
0.131704
0.153671
0.00609509
0.0048527
0.0181764
0.0227576
0.0286474
0.0264094
0.020726
0.0156
0.0117634
0.00996945
0.0104134
0.0106078
0.00996149
0.00859915
0.00686392
0.0060777
0.00596685
0.0059144
0.00584468
0.00614264
0.00699936
0.00744797
0.00743201
0.0189252
0.0639112
0.089318
0.101262
0.111084
0.118156
0.105002
0.102605
0.107176
0.116687
0.137302
0.159333
0.00601408
0.00578566
0.0224739
0.0286394
0.0343528
0.0308044
0.0236137
0.0175976
0.0133153
0.0114792
0.0122078
0.0127366
0.0121007
0.0107074
0.0086549
0.00735362
0.00686902
0.00659033
0.00632593
0.00634689
0.00710479
0.00763648
0.00758152
0.0181132
0.063987
0.090912
0.103503
0.113796
0.12073
0.107483
0.105589
0.111374
0.121376
0.143451
0.165469
0.00596079
0.00699349
0.0274328
0.0355171
0.04046
0.0350324
0.0262003
0.0192891
0.0146438
0.0128469
0.013882
0.0147971
0.0141784
0.0128048
0.0105707
0.00882849
0.00792887
0.007375
0.00690254
0.00662756
0.00722425
0.00782264
0.00780142
0.0176284
0.0643229
0.0926995
0.105987
0.116779
0.123499
0.110191
0.108854
0.116
0.126488
0.150188
0.172099
0.00594609
0.00857373
0.0330753
0.0431589
0.0465666
0.0386622
0.0281537
0.0204247
0.0155571
0.0139135
0.0152776
0.0166147
0.0160217
0.0146957
0.0124027
0.0103543
0.0090692
0.00822559
0.00755321
0.00700004
0.00737853
0.00801844
0.0080902
0.017491
0.0649978
0.0947083
0.108737
0.120057
0.126473
0.113138
0.112413
0.121085
0.132049
0.157552
0.179243
0.00598322
0.0105942
0.0393419
0.051055
0.0520982
0.041221
0.0291447
0.0207753
0.0158858
0.0145341
0.016248
0.0180258
0.0174752
0.0162099
0.0139558
0.0117545
0.0101748
0.00907134
0.0082342
0.00746642
0.00758915
0.00823853
0.00845337
0.0177232
0.0660835
0.0969641
0.111775
0.123649
0.129662
0.116332
0.116284
0.12666
0.138086
0.165586
0.186921
0.00609167
0.0130602
0.046012
0.0584198
0.056379
0.042279
0.0289149
0.0201902
0.0155303
0.0146172
0.0166936
0.0189067
0.0184267
0.0172277
0.015084
0.0128706
0.0111196
0.00982423
0.00888147
0.00800714
0.00787503
0.00849867
0.00890253
0.018351
0.0676389
0.0994893
0.115121
0.127578
0.133076
0.119785
0.120484
0.132762
0.14463
0.174341
0.195158
0.00628805
0.0159027
0.0526551
0.0643431
0.0587788
0.0415512
0.0273504
0.018659
0.0145075
0.0141574
0.016587
0.0191978
0.0188243
0.0176998
0.0157163
0.0136029
0.0118046
0.0104043
0.0094264
0.00858155
0.00824814
0.00881476
0.00945463
0.0194053
0.0697071
0.102301
0.118793
0.131863
0.136728
0.123508
0.125035
0.139432
0.151719
0.183873
0.203983
0.00658505
0.0190325
0.0587059
0.0680565
0.0588845
0.0389864
0.0245452
0.0163551
0.0129747
0.0132534
0.015989
0.0189187
0.018685
0.017647
0.0158546
0.0139176
0.0121749
0.0107561
0.00981097
0.00913128
0.00870736
0.00920008
0.0101307
0.0209229
0.072313
0.105409
0.122806
0.136526
0.140628
0.127515
0.129964
0.146722
0.159394
0.194249
0.213431
0.00697682
0.0223483
0.0635979
0.069154
0.0566111
0.0348068
0.0208286
0.013634
0.0112078
0.0120907
0.0150358
0.0181625
0.0180871
0.0171526
0.0155651
0.0138453
0.0122293
0.0108629
0.0100048
0.00959781
0.0092342
0.00966332
0.0109552
0.0229462
0.0754638
0.108818
0.127172
0.141588
0.144791
0.131823
0.135302
0.154688
0.167706
0.20555
0.223544
0.00744499
0.0257378
0.0668925
0.0676499
0.0522027
0.0294895
0.016733
0.0109526
0.0095209
0.0108912
0.0139068
0.017074
0.0171517
0.0163339
0.0149488
0.0134555
0.0120043
0.0107406
0.0100065
0.00993445
0.00979181
0.0102048
0.0119545
0.0255235
0.0791516
0.112527
0.131905
0.147075
0.149234
0.136455
0.141089
0.163403
0.176717
0.217869
0.234375
0.00795396
0.0289432
0.0682814
0.0638604
0.0461416
0.0236863
0.0128689
0.00871095
0.00815455
0.0098414
0.0127713
0.0158122
0.0160136
0.0153199
0.0141209
0.0128392
0.0115636
0.0104324
0.00984328
0.0101213
0.0103317
0.0108157
0.0131568
0.0287089
0.0833572
0.11653
0.137019
0.153015
0.153979
0.141443
0.147371
0.172951
0.186498
0.231319
0.245986
0.00846726
0.0315245
0.0675513
0.0582351
0.039028
0.0180905
0.00972079
0.0070965
0.00719728
0.0090344
0.0117444
0.0145138
0.0147942
0.0142209
0.0131826
0.0120835
0.0109755
0.00999097
0.00955709
0.0101617
0.010804
0.0114775
0.0145917
0.0325643
0.0880577
0.120826
0.142536
0.159449
0.159052
0.146823
0.154207
0.183435
0.197134
0.246027
0.258452
0.00894498
0.0328254
0.0645354
0.05123
0.0314762
0.0132667
0.00746503
0.00605028
0.0065857
0.00845168
0.0108589
0.0132648
0.0135796
0.0131175
0.0122136
0.0112635
0.0103056
0.00947228
0.00919801
0.0100824
0.0111706
0.0121669
0.016293
0.0371631
0.0932341
0.125418
0.148487
0.166422
0.164488
0.152645
0.161665
0.194971
0.208721
0.262142
0.27186
0.0093615
0.0322296
0.0591416
0.0432795
0.0240546
0.00950909
0.00595842
0.00536243
0.00616223
0.00798871
0.010073
0.0120921
0.0124126
0.01205
0.0112612
0.0104311
0.00960391
0.00892242
0.00881139
0.00991875
0.0114114
0.0128622
0.018301
0.0425985
0.0988815
0.130323
0.154916
0.173995
0.170331
0.158967
0.169821
0.207692
0.221368
0.27983
0.286306
0.0096768
0.0292486
0.0513683
0.0348181
0.0172665
0.00679887
0.00489728
0.00479558
0.00574604
0.00750399
0.00930015
0.0109749
0.011296
0.0110299
0.010351
0.0096197
0.00890689
0.00837877
0.008437
0.00971252
0.0115289
0.0135515
0.0206693
0.0489932
0.105019
0.135572
0.161882
0.182238
0.17663
0.16586
0.178762
0.221743
0.235192
0.299266
0.301895
0.00988074
0.0239519
0.0414665
0.0262737
0.0115023
0.00485885
0.0039807
0.00415187
0.00516709
0.00684173
0.0084179
0.0098365
0.0101781
0.0100257
0.00947408
0.00883077
0.00822489
0.00785757
0.00810023
0.00949998
0.0115433
0.0142363
0.0234692
0.0565124
0.111698
0.141215
0.169455
0.191228
0.183444
0.173398
0.188578
0.23728
0.250315
0.320638
0.318733
4.88306e-24
3.18127e-19
1.07927e-18
4.14773e-18
2.54837e-17
3.30642e-14
9.12092e-11
0.00797421
0.0374542
0.0461391
0.0560196
0.0619009
0.0661251
0.0707407
0.0676072
0.0722604
0.0773573
0.0787981
0.0638911
0.0609063
0.032717
0.0122138
4.99699e-24
7.4173e-20
8.11922e-20
6.05169e-18
6.29131e-17
2.56644e-13
9.34216e-10
0.0144862
0.0433343
0.0485313
0.0556777
0.0613421
0.0656833
0.070994
0.0680602
0.073076
0.0786316
0.079184
0.0632573
0.0605058
0.0323173
0.0123163
5.10287e-24
2.76646e-19
8.75258e-19
8.8218e-18
1.22427e-16
9.48094e-13
9.3591e-09
0.0221296
0.0486015
0.0505096
0.0553378
0.0608947
0.0653612
0.0713267
0.0685864
0.0739076
0.079903
0.0795406
0.0629254
0.0597173
0.031788
0.012524
5.06274e-24
5.72446e-20
2.16635e-20
6.88746e-18
1.9292e-16
2.29609e-12
1.69677e-07
0.0301933
0.0532301
0.0521763
0.0551091
0.0605854
0.0651738
0.071744
0.069187
0.0747262
0.0811286
0.0798634
0.0628803
0.0585792
0.0311682
0.0128322
5.16634e-24
2.21179e-19
6.3923e-19
7.29913e-18
2.88676e-16
3.60262e-12
6.5226e-06
0.0375472
0.0572692
0.0536262
0.0550664
0.060434
0.0651355
0.0722278
0.0698368
0.075507
0.0822628
0.0801433
0.0630872
0.0571683
0.030509
0.0132318
5.11468e-24
4.59105e-20
1.22132e-20
4.66712e-18
4.11341e-16
4.86223e-12
1.85541e-05
0.0429204
0.0607878
0.0549545
0.0552706
0.0604647
0.0652598
0.0727897
0.0705405
0.076226
0.0832591
0.0803665
0.0635087
0.0555462
0.0298229
0.01374
5.22973e-24
1.78611e-19
4.78725e-19
4.68507e-18
5.81339e-16
5.03564e-12
3.42394e-05
0.0456849
0.0638664
0.0562367
0.0557561
0.0606942
0.0655583
0.0734164
0.0712759
0.0768689
0.0840751
0.0805191
0.0640901
0.0537978
0.0291393
0.014371
5.17075e-24
3.80336e-20
7.96843e-21
2.80903e-18
7.74941e-16
4.36481e-12
2.56565e-05
0.0459941
0.0665613
0.0575409
0.0565525
0.0611439
0.0660415
0.0741261
0.0720547
0.0774238
0.0846747
0.0805814
0.0647818
0.0519796
0.0284568
0.0151433
5.2983e-24
1.46619e-19
3.73375e-19
2.88831e-18
9.8721e-16
2.86589e-12
2.72214e-05
0.0444638
0.0689097
0.058911
0.0576703
0.0618274
0.0667181
0.0749097
0.0728601
0.0778913
0.0850335
0.0805358
0.0655236
0.0501648
0.0277975
0.0160608
5.22398e-24
3.24386e-20
5.94505e-21
1.70222e-18
1.15141e-15
1.68499e-12
3.50912e-05
0.041649
0.0709007
0.0603798
0.0591217
0.0627639
0.0675967
0.0757897
0.073711
0.0782747
0.0851406
0.0803607
0.0662685
0.0483924
0.0271526
0.0171267
5.358e-24
1.21916e-19
3.00108e-19
1.85736e-18
1.25349e-15
8.48532e-13
3.98648e-05
0.0378563
0.0724874
0.0619518
0.0609023
0.0639652
0.068685
0.0767598
0.0745964
0.0785892
0.0850014
0.0800403
0.0669629
0.0467174
0.0265394
0.0183254
5.27154e-24
2.84274e-20
4.73138e-21
1.08898e-18
1.24213e-15
4.15667e-13
4.08835e-05
0.0333635
0.0735636
0.0636166
0.0630117
0.0654504
0.0699928
0.077845
0.0755416
0.0788504
0.0846352
0.0795584
0.067572