/*--------------------------------*- C++ -*----------------------------------*\
| =========                 |                                                 |
| \\      /  F ield         | OpenFOAM: The Open Source CFD Toolbox           |
|  \\    /   O peration     | Version:  v1912                                 |
|   \\  /    A nd           | Website:  www.openfoam.com                      |
|    \\/     M anipulation  |                                                 |
\*---------------------------------------------------------------------------*/
FoamFile
{
    version     2.0;
    format      ascii;
    class       volVectorField;
    location    "90";
    object      U;
}
// * * * * * * * * * * * * * * * * * * * * * * * * * * * * * * * * * * * * * //

dimensions      [0 1 -1 0 0 0 0];


internalField   nonuniform List<vector> 
12441
(
(29.9913 -6.22358e-06 0)
(30.0057 3.34943e-05 0)
(29.9491 0.000165751 0)
(29.9256 5.79338e-05 0)
(29.8605 0.000170484 0)
(29.794 0.000238969 0)
(29.6914 0.000481096 0)
(29.5791 0.000630722 0)
(29.4481 0.000758875 0)
(29.2568 0.00107697 0)
(29.0237 0.00150824 0)
(28.762 0.00211809 0)
(28.4049 0.0029125 0)
(28.0026 0.00440746 0)
(27.458 0.00603148 0)
(26.7008 0.0101598 0)
(25.7817 0.0129982 0)
(24.3322 0.0273685 0)
(22.2811 0.0480063 0)
(18.8849 0.0885408 0)
(13.109 0.127426 0)
(6.39947 0.214059 0)
(29.9885 -2.4098e-05 0)
(30.0191 3.86109e-05 0)
(29.9407 0.000463452 0)
(29.912 0.000460816 0)
(29.8601 0.000438829 0)
(29.8097 0.000519807 0)
(29.6956 0.0014081 0)
(29.5718 0.00199869 0)
(29.4445 0.00226026 0)
(29.2572 0.00335235 0)
(29.0239 0.00460812 0)
(28.7633 0.00628437 0)
(28.3996 0.00856914 0)
(27.9996 0.013102 0)
(27.4568 0.0182244 0)
(26.7012 0.0306421 0)
(25.7682 0.0418794 0)
(24.3177 0.0781611 0)
(22.2641 0.124805 0)
(18.8605 0.256196 0)
(13.093 0.373633 0)
(6.39 0.637561 0)
(29.9887 -5.49152e-05 0)
(30.0176 2.64941e-05 0)
(29.9431 0.000917945 0)
(29.9131 0.000784216 0)
(29.8598 0.000597165 0)
(29.8079 0.000750939 0)
(29.6956 0.0024319 0)
(29.5727 0.00340805 0)
(29.4452 0.00376463 0)
(29.2576 0.00556091 0)
(29.0242 0.00766248 0)
(28.7637 0.0104254 0)
(28.3987 0.0143416 0)
(28.0035 0.021763 0)
(27.4579 0.0303971 0)
(26.7028 0.0502897 0)
(25.7673 0.0715394 0)
(24.319 0.127161 0)
(22.2557 0.199424 0)
(18.8429 0.421738 0)
(13.0753 0.616645 0)
(6.38111 1.0587 0)
(29.9885 -8.67453e-05 0)
(30.0187 2.15702e-05 0)
(29.9394 0.00137602 0)
(29.9103 0.00105867 0)
(29.8586 0.000750905 0)
(29.8076 0.00103415 0)
(29.6931 0.00350378 0)
(29.5699 0.00480836 0)
(29.4429 0.00525073 0)
(29.2556 0.00775894 0)
(29.0224 0.0107252 0)
(28.7618 0.014577 0)
(28.3987 0.0201084 0)
(27.9981 0.0304592 0)
(27.4551 0.0425989 0)
(26.7027 0.0700708 0)
(25.7667 0.100472 0)
(24.3218 0.179375 0)
(22.254 0.298827 0)
(18.8342 0.5953 0)
(13.0679 0.863586 0)
(6.37853 1.48073 0)
(29.989 -0.000117389 0)
(30.0163 2.5501e-05 0)
(29.9421 0.00182132 0)
(29.9113 0.00133324 0)
(29.8582 0.000929102 0)
(29.8052 0.00134356 0)
(29.6926 0.00456764 0)
(29.5703 0.00617963 0)
(29.4432 0.00671323 0)
(29.2556 0.00995239 0)
(29.0221 0.0137953 0)
(28.7615 0.0187418 0)
(28.3967 0.0258754 0)
(28.0017 0.0391752 0)
(27.456 0.0548129 0)
(26.7024 0.0896025 0)
(25.7688 0.128901 0)
(24.325 0.232379 0)
(22.2605 0.381002 0)
(18.8352 0.765225 0)
(13.0716 1.1102 0)
(6.38254 1.9034 0)
(29.9886 -0.000146821 0)
(30.0182 3.16501e-05 0)
(29.9372 0.00227511 0)
(29.9076 0.00161663 0)
(29.8568 0.00110911 0)
(29.8053 0.00164807 0)
(29.6898 0.00562 0)
(29.5669 0.00753926 0)
(29.4403 0.00817575 0)
(29.253 0.0121593 0)
(29.0199 0.0168784 0)
(28.7594 0.0229165 0)
(28.3975 0.031645 0)
(27.9954 0.0478535 0)
(27.453 0.0670135 0)
(26.7021 0.109022 0)
(25.7699 0.15701 0)
(24.3279 0.284693 0)
(22.271 0.461707 0)
(18.8445 0.934103 0)
(13.0867 1.35647 0)
(6.39327 2.32661 0)
(29.9892 -0.000175409 0)
(30.0152 4.48811e-05 0)
(29.9404 0.00272935 0)
(29.9084 0.00190114 0)
(29.8559 0.00128367 0)
(29.8019 0.00195656 0)
(29.6889 0.00667727 0)
(29.5671 0.00890087 0)
(29.4403 0.00964317 0)
(29.2528 0.0143721 0)
(29.0193 0.0199604 0)
(28.7586 0.0270813 0)
(28.3946 0.0374094 0)
(27.9999 0.056549 0)
(27.4542 0.0792035 0)
(26.7015 0.128293 0)
(25.7734 0.184494 0)
(24.3316 0.335025 0)
(22.2837 0.544804 0)
(18.8611 1.10331 0)
(13.1137 1.60284 0)
(6.41093 2.75072 0)
(29.9887 -0.000202925 0)
(30.0177 6.02973e-05 0)
(29.935 0.0031977 0)
(29.9048 0.00218683 0)
(29.855 0.00145525 0)
(29.8031 0.00226894 0)
(29.6867 0.00774039 0)
(29.564 0.0102587 0)
(29.4378 0.0111065 0)
(29.2505 0.016582 0)
(29.0174 0.0230385 0)
(28.757 0.0312448 0)
(28.3966 0.0431757 0)
(27.9927 0.0651877 0)
(27.451 0.0912554 0)
(26.7014 0.147265 0)
(25.7773 0.213297 0)
(24.3356 0.38779 0)
(22.2966 0.629237 0)
(18.884 1.27217 0)
(13.1533 1.84941 0)
(6.4358 3.17617 0)
(29.9895 -0.00022974 0)
(30.0142 8.36491e-05 0)
(29.9392 0.00365867 0)
(29.9064 0.00246927 0)
(29.8544 0.00162528 0)
(29.7995 0.00258976 0)
(29.6862 0.00880467 0)
(29.5648 0.0116127 0)
(29.4385 0.0125673 0)
(29.2509 0.0187922 0)
(29.0174 0.0261162 0)
(28.7564 0.0354049 0)
(28.3925 0.048937 0)
(27.9983 0.0739559 0)
(27.4533 0.103472 0)
(26.7045 0.166638 0)
(25.7779 0.240917 0)
(24.333 0.44041 0)
(22.3046 0.713415 0)
(18.9121 1.44005 0)
(13.206 2.09619 0)
(6.4682 3.60343 0)
(29.9889 -0.000255102 0)
(30.0171 0.000107943 0)
(29.933 0.00413559 0)
(29.9026 0.00275281 0)
(29.8538 0.00179348 0)
(29.8013 0.00291279 0)
(29.6843 0.00987125 0)
(29.562 0.0129599 0)
(29.436 0.0140234 0)
(29.2487 0.0210013 0)
(29.0158 0.0291936 0)
(28.7557 0.0395661 0)
(28.3974 0.0547085 0)
(27.9919 0.0825096 0)
(27.4505 0.116125 0)
(26.7021 0.186393 0)
(25.7629 0.269011 0)
(24.3129 0.491596 0)
(22.3054 0.797133 0)
(18.9448 1.60668 0)
(13.2722 2.34316 0)
(6.50846 4.03295 0)
(29.9897 -0.000279839 0)
(30.013 0.000141262 0)
(29.938 0.00460081 0)
(29.9044 0.00303414 0)
(29.8529 0.00196067 0)
(29.7971 0.00324437 0)
(29.6838 0.0109373 0)
(29.5629 0.0143052 0)
(29.4368 0.0154805 0)
(29.2492 0.0232129 0)
(29.0158 0.0322722 0)
(28.7547 0.0437179 0)
(28.3914 0.0605242 0)
(27.9934 0.0911314 0)
(27.4461 0.128178 0)
(26.6828 0.205445 0)
(25.7319 0.298358 0)
(24.2793 0.542682 0)
(22.3032 0.880496 0)
(18.9818 1.77162 0)
(13.3516 2.59023 0)
(6.55677 4.46517 0)
(29.9891 -0.000302661 0)
(30.0163 0.000174241 0)
(29.9313 0.00508471 0)
(29.9008 0.00331757 0)
(29.8529 0.00212641 0)
(29.7998 0.00357674 0)
(29.6825 0.0120046 0)
(29.5605 0.0156435 0)
(29.4347 0.0169338 0)
(29.2473 0.0254226 0)
(29.0147 0.0353491 0)
(28.7547 0.0478631 0)
(28.3998 0.0663652 0)
(27.9882 0.0998876 0)
(27.4274 0.141214 0)
(26.6479 0.225179 0)
(25.6962 0.328179 0)
(24.246 0.592861 0)
(22.3019 0.962993 0)
(19.0216 1.93446 0)
(13.443 2.8373 0)
(6.61322 4.90056 0)
(29.99 -0.000324819 0)
(30.0116 0.000217104 0)
(29.9374 0.00554737 0)
(29.9035 0.00359557 0)
(29.8524 0.00229256 0)
(29.7954 0.00391859 0)
(29.6826 0.0130669 0)
(29.5622 0.0169804 0)
(29.4363 0.0183905 0)
(29.2485 0.0276346 0)
(29.0156 0.0384223 0)
(28.7539 0.0520269 0)
(28.3999 0.0722398 0)
(27.9812 0.108729 0)
(27.3977 0.154981 0)
(26.61 0.244974 0)
(25.6653 0.358079 0)
(24.2204 0.641811 0)
(22.3021 1.04445 0)
(19.0618 2.09497 0)
(13.5445 3.0842 0)
(6.67776 5.33953 0)
(29.9893 -0.000344574 0)
(30.0153 0.000258206 0)
(29.93 0.00603138 0)
(29.8996 0.00387508 0)
(29.8526 0.00245753 0)
(29.7986 0.00426018 0)
(29.6813 0.0141295 0)
(29.5598 0.018309 0)
(29.4341 0.0198428 0)
(29.2466 0.0298443 0)
(29.0148 0.041513 0)
(28.7533 0.0561946 0)
(28.4134 0.0786621 0)
(27.9623 0.117937 0)
(27.365 0.168712 0)
(26.5782 0.264279 0)
(25.6415 0.387741 0)
(24.2019 0.68967 0)
(22.3029 1.125 0)
(19.1003 2.25315 0)
(13.6539 3.33074 0)
(6.75018 5.78246 0)
(29.9904 -0.000363783 0)
(30.0101 0.000310582 0)
(29.9368 0.00648936 0)
(29.9024 0.00415091 0)
(29.8518 0.00262394 0)
(29.7936 0.00461248 0)
(29.6812 0.015186 0)
(29.5616 0.0196378 0)
(29.4357 0.0213014 0)
(29.2478 0.032052 0)
(29.0154 0.0446281 0)
(28.7537 0.0602509 0)
(28.4115 0.0850589 0)
(27.9387 0.127423 0)
(27.3368 0.182427 0)
(26.5537 0.283341 0)
(25.623 0.417252 0)
(24.1877 0.736777 0)
(22.3031 1.20482 0)
(19.1356 2.40903 0)
(13.769 3.57668 0)
(6.83019 6.22968 0)
(29.9896 -0.000380138 0)
(30.0142 0.000359735 0)
(29.9289 0.00697272 0)
(29.8986 0.00442958 0)
(29.8525 0.0027893 0)
(29.7976 0.00496277 0)
(29.6804 0.0162422 0)
(29.5595 0.0209581 0)
(29.4337 0.022754 0)
(29.2462 0.0342662 0)
(29.0129 0.0477159 0)
(28.7544 0.0645166 0)
(28.4053 0.0916207 0)
(27.9147 0.136963 0)
(27.3142 0.196016 0)
(26.5348 0.302274 0)
(25.608 0.446689 0)
(24.1756 0.783422 0)
(22.3026 1.28404 0)
(19.1673 2.56261 0)
(13.888 3.82176 0)
(6.91739 6.68148 0)
(29.9908 -0.000396004 0)
(30.0084 0.000421285 0)
(29.9369 0.0074201 0)
(29.9024 0.00470144 0)
(29.852 0.00295764 0)
(29.7924 0.0053251 0)
(29.681 0.0172884 0)
(29.562 0.0222797 0)
(29.4359 0.0242152 0)
(29.248 0.0364898 0)
(29.0133 0.050852 0)
(28.7547 0.0689156 0)
(28.3917 0.0982363 0)
(27.8943 0.14658 0)
(27.2964 0.209556 0)
(26.5198 0.321141 0)
(25.5952 0.476092 0)
(24.1643 0.829795 0)
(22.3014 1.36274 0)
(19.1955 2.71388 0)
(14.0097 4.06573 0)
(7.0114 7.13808 0)
(29.9899 -0.000408575 0)
(30.0129 0.000477993 0)
(29.928 0.00789709 0)
(29.8981 0.00497549 0)
(29.8528 0.0031247 0)
(29.7969 0.00568403 0)
(29.6801 0.0183341 0)
(29.5598 0.0235905 0)
(29.434 0.0256709 0)
(29.2463 0.0387094 0)
(29.0119 0.054003 0)
(28.7514 0.0733854 0)
(28.3778 0.105003 0)
(27.8771 0.156154 0)
(27.2821 0.223058 0)
(26.5075 0.339967 0)
(25.5836 0.505487 0)
(24.1531 0.876006 0)
(22.2997 1.44096 0)
(19.2207 2.86284 0)
(14.1333 4.30839 0)
(7.11182 7.59968 0)
(29.9911 -0.000420923 0)
(30.0067 0.000548579 0)
(29.9368 0.00833342 0)
(29.902 0.00524466 0)
(29.852 0.00329569 0)
(29.791 0.00605634 0)
(29.6805 0.0193692 0)
(29.5623 0.0249041 0)
(29.4361 0.0271372 0)
(29.2475 0.040941 0)
(29.0143 0.0571598 0)
(28.7457 0.0778207 0)
(28.364 0.111824 0)
(27.8631 0.165734 0)
(27.2703 0.236539 0)
(26.4968 0.358774 0)
(25.5727 0.5349 0)
(24.1416 0.922117 0)
(22.2978 1.51871 0)
(19.2436 3.00946 0)
(14.2585 4.54953 0)
(7.21831 8.06649 0)
(29.9902 -0.000429606 0)
(30.0115 0.000612787 0)
(29.9273 0.00880487 0)
(29.8977 0.0055173 0)
(29.8531 0.00346493 0)
(29.7962 0.00642315 0)
(29.6798 0.0204042 0)
(29.5601 0.0262052 0)
(29.4345 0.0286 0)
(29.2457 0.0431664 0)
(29.0152 0.0603673 0)
(28.7387 0.0822839 0)
(28.3521 0.118726 0)
(27.8513 0.175288 0)
(27.2601 0.250001 0)
(26.4872 0.377579 0)
(25.562 0.564352 0)
(24.1295 0.968156 0)
(22.2961 1.59599 0)
(19.2651 3.15371 0)
(14.3853 4.78896 0)
(7.3306 8.53866 0)
(29.9915 -0.000438236 0)
(30.0049 0.000692185 0)
(29.9371 0.00922638 0)
(29.9024 0.00578234 0)
(29.8525 0.00363959 0)
(29.7901 0.00680486 0)
(29.6807 0.0214257 0)
(29.5632 0.0275097 0)
(29.4373 0.0300769 0)
(29.2474 0.0454026 0)
(29.0185 0.0636088 0)
(28.7315 0.0868503 0)
(28.3414 0.125635 0)
(27.8413 0.184844 0)
(27.2511 0.263455 0)
(26.4782 0.396401 0)
(25.5513 0.593867 0)
(24.1169 1.01412 0)
(22.2948 1.67276 0)
(19.2857 3.29559 0)
(14.5143 5.02654 0)
(7.44848 9.01638 0)
(29.9906 -0.000442832 0)
(30.0101 0.000763597 0)
(29.9267 0.00968819 0)
(29.8976 0.00604989 0)
(29.8538 0.00381177 0)
(29.7957 0.00717961 0)
(29.68 0.0224474 0)
(29.5609 0.0288 0)
(29.4355 0.0315452 0)
(29.2459 0.0476639 0)
(29.0188 0.0668786 0)
(28.7244 0.0915099 0)
(28.3322 0.132584 0)
(27.8324 0.194387 0)
(27.2429 0.276906 0)
(26.4695 0.415255 0)
(25.5401 0.623466 0)
(24.1034 1.05999 0)
(22.294 1.749 0)
(19.3063 3.43505 0)
(14.6461 5.26213 0)
(7.57185 9.49982 0)
(29.9919 -0.000447716 0)
(30.0031 0.000851631 0)
(29.9372 0.0100958 0)
(29.9024 0.00631196 0)
(29.8527 0.00399026 0)
(29.7889 0.00757072 0)
(29.6806 0.0234554 0)
(29.5639 0.0300961 0)
(29.4379 0.0330261 0)
(29.2481 0.0499613 0)
(29.0182 0.0702031 0)
(28.7177 0.0962555 0)
(28.3239 0.139537 0)
(27.8246 0.203931 0)
(27.2351 0.290365 0)
(26.4607 0.434156 0)
(25.5285 0.653165 0)
(24.0892 1.1057 0)
(22.2937 1.82469 0)
(19.3274 3.57207 0)
(14.7814 5.49562 0)
(7.70068 9.9892 0)
(29.9909 -0.000448256 0)
(30.0086 0.000930126 0)
(29.9261 0.0105497 0)
(29.8975 0.0065779 0)
(29.8544 0.00416575 0)
(29.7952 0.00795272 0)
(29.6801 0.0244634 0)
(29.5618 0.0313778 0)
(29.4361 0.0344959 0)
(29.2472 0.0522801 0)
(29.016 0.0734908 0)
(28.7115 0.101066 0)
(28.3165 0.146513 0)
(27.8174 0.21347 0)
(27.2276 0.303843 0)
(26.4517 0.453118 0)
(25.516 0.682967 0)
(24.0741 1.15121 0)
(22.2938 1.8998 0)
(19.3494 3.70657 0)
(14.9214 5.72691 0)
(7.83502 10.4847 0)
(29.9924 -0.000449288 0)
(30.0014 0.00102656 0)
(29.9377 0.0109401 0)
(29.9031 0.00683557 0)
(29.8535 0.00434913 0)
(29.7881 0.00835269 0)
(29.6811 0.0254548 0)
(29.5653 0.0326673 0)
(29.4388 0.0359772 0)
(29.2503 0.0546524 0)
(29.0134 0.0767535 0)
(28.7057 0.105921 0)
(28.3097 0.153492 0)
(27.8107 0.223017 0)
(27.2202 0.317351 0)
(26.4421 0.472153 0)
(25.5026 0.712858 0)
(24.0583 1.1965 0)
(22.2944 1.9743 0)
(19.3728 3.83849 0)
(15.067 5.95591 0)
(7.97499 10.9866 0)
(29.9913 -0.000445666 0)
(30.0071 0.0011118 0)
(29.9257 0.0113826 0)
(29.8976 0.00709605 0)
(29.8552 0.00452854 0)
(29.7949 0.00874195 0)
(29.6805 0.0264467 0)
(29.563 0.033942 0)
(29.4368 0.0374428 0)
(29.2493 0.0570443 0)
(29.0105 0.0800274 0)
(28.7003 0.110812 0)
(28.3035 0.160485 0)
(27.8044 0.232573 0)
(27.2126 0.330897 0)
(26.4319 0.491267 0)
(25.4882 0.742821 0)
(24.0417 1.24155 0)
(22.2951 2.04815 0)
(19.3977 3.96773 0)
(15.2194 6.18253 0)
(8.12082 11.4952 0)
(29.9928 -0.000442947 0)
(29.9997 0.00121634 0)
(29.938 0.0117576 0)
(29.9033 0.0073503 0)
(29.8539 0.00471646 0)
(29.7871 0.00915039 0)
(29.6813 0.0274225 0)
(29.5662 0.035228 0)
(29.4395 0.0389321 0)
(29.2509 0.0593737 0)
(29.0076 0.0833456 0)
(28.6951 0.115727 0)
(28.2977 0.167482 0)
(27.7983 0.242147 0)
(27.2048 0.344491 0)
(26.4209 0.510465 0)
(25.4727 0.772847 0)
(24.0244 1.28635 0)
(22.2958 2.12133 0)
(19.4243 4.09414 0)
(15.3799 6.40671 0)
(8.27276 12.0107 0)
(29.9917 -0.000435346 0)
(30.0056 0.00130817 0)
(29.9252 0.0121912 0)
(29.8977 0.00760883 0)
(29.8559 0.00489951 0)
(29.7945 0.00954579 0)
(29.6809 0.0283995 0)
(29.5641 0.0364958 0)
(29.4375 0.0404409 0)
(29.2494 0.0616018 0)
(29.0046 0.0867157 0)
(28.6902 0.120663 0)
(28.2923 0.174489 0)
(27.7923 0.251743 0)
(27.1967 0.358141 0)
(26.4089 0.529753 0)
(25.456 0.802936 0)
(24.0064 1.3309 0)
(22.2963 2.19379 0)
(19.4527 4.21758 0)
(15.5494 6.62836 0)
(8.43113 12.5335 0)
(29.9931 -0.000428909 0)
(29.998 0.00142062 0)
(29.9386 0.0125491 0)
(29.904 0.00785868 0)
(29.8546 0.0050926 0)
(29.7866 0.0099619 0)
(29.682 0.0293589 0)
(29.5677 0.037773 0)
(29.4409 0.0420028 0)
(29.2495 0.0639164 0)
(29.0015 0.0901338 0)
(28.6855 0.125615 0)
(28.2871 0.181505 0)
(27.7864 0.261368 0)
(27.1882 0.371856 0)
(26.396 0.549135 0)
(25.4382 0.833091 0)
(23.9876 1.37519 0)
(22.2966 2.2655 0)
(19.4826 4.33785 0)
(15.7288 6.84739 0)
(8.59629 13.0639 0)
(29.992 -0.000417358 0)
(30.0041 0.00151886 0)
(29.9248 0.0129715 0)
(29.8978 0.00811152 0)
(29.8568 0.00527936 0)
(29.7944 0.0103636 0)
(29.6814 0.03032 0)
(29.5654 0.0390326 0)
(29.4389 0.0435526 0)
(29.2485 0.0663143 0)
(28.9983 0.0935948 0)
(28.6809 0.130581 0)
(28.2822 0.188533 0)
(27.7804 0.271027 0)
(27.1791 0.385643 0)
(26.3821 0.56862 0)
(25.4193 0.863312 0)
(23.9683 1.41921 0)
(22.2966 2.33642 0)
(19.5138 4.45475 0)
(15.9187 7.06372 0)
(8.76862 13.6024 0)
(29.9935 -0.000407399 0)
(29.9964 0.00163885 0)
(29.9388 0.0133152 0)
(29.9041 0.00835834 0)
(29.8549 0.00547652 0)
(29.7856 0.010787 0)
(29.6822 0.0312652 0)
(29.5685 0.0403044 0)
(29.4419 0.0451453 0)
(29.2478 0.0686984 0)
(28.995 0.0970896 0)
(28.6764 0.135558 0)
(28.2775 0.195572 0)
(27.7744 0.280727 0)
(27.1696 0.399513 0)
(26.3672 0.588215 0)
(25.3992 0.893596 0)
(23.9483 1.46294 0)
(22.2962 2.40653 0)
(19.5461 4.56807 0)
(16.1195 7.27723 0)
(8.9485 14.1492 0)
(29.9924 -0.000392169 0)
(30.0027 0.00174321 0)
(29.9244 0.0137295 0)
(29.8979 0.00860948 0)
(29.8575 0.00566674 0)
(29.7942 0.0111938 0)
(29.6819 0.0322126 0)
(29.5664 0.0415552 0)
(29.4402 0.0467383 0)
(29.2463 0.0710561 0)
(28.9915 0.100611 0)
(28.6721 0.140543 0)
(28.273 0.202625 0)
(27.7682 0.290473 0)
(27.1594 0.413473 0)
(26.3513 0.607928 0)
(25.378 0.923938 0)
(23.9278 1.50637 0)
(22.2955 2.47581 0)
(19.5791 4.6776 0)
(16.3312 7.48781 0)
(9.13628 14.7049 0)
(29.9939 -0.000378783 0)
(29.9949 0.00187051 0)
(29.9394 0.0140571 0)
(29.9048 0.00885192 0)
(29.8555 0.00586863 0)
(29.7851 0.0116237 0)
(29.6829 0.0331427 0)
(29.5697 0.0428168 0)
(29.444 0.0483707 0)
(29.2445 0.0734172 0)
(28.9879 0.104154 0)
(28.6678 0.145535 0)
(28.2685 0.209694 0)
(27.762 0.300271 0)
(27.1488 0.427535 0)
(26.3344 0.627767 0)
(25.3557 0.954332 0)
(23.9068 1.5495 0)
(22.2944 2.54423 0)
(19.6125 4.78314 0)
(16.5535 7.69532 0)
(9.33231 15.2699 0)
(29.9927 -0.00035995 0)
(30.0014 0.00198055 0)
(29.9239 0.0144617 0)
(29.8981 0.00909837 0)
(29.8583 0.00606311 0)
(29.7942 0.0120357 0)
(29.6826 0.0340759 0)
(29.5678 0.0440541 0)
(29.4424 0.0500028 0)
(29.2419 0.075792 0)
(28.9841 0.107713 0)
(28.6636 0.150532 0)
(28.2642 0.216779 0)
(27.7555 0.310128 0)
(27.1375 0.441704 0)
(26.3167 0.647736 0)
(25.3324 0.984772 0)
(23.8854 1.5923 0)
(22.2931 2.6118 0)
(19.6462 4.88447 0)
(16.7859 7.89962 0)
(9.53687 15.8445 0)
(29.9942 -0.000343435 0)
(29.9935 0.00211463 0)
(29.9399 0.0147745 0)
(29.9055 0.00933511 0)
(29.8561 0.006269 0)
(29.7848 0.0124728 0)
(29.6836 0.034993 0)
(29.5713 0.0452982 0)
(29.4469 0.0516812 0)
(29.2388 0.0781906 0)
(28.9801 0.111282 0)
(28.6594 0.155531 0)
(28.2599 0.223885 0)
(27.7489 0.32005 0)
(27.1258 0.455989 0)
(26.298 0.667841 0)
(25.308 1.01525 0)
(23.8635 1.63478 0)
(22.2917 2.67848 0)
(19.68 4.98141 0)
(17.0281 8.10054 0)
(9.75023 16.4292 0)
(29.993 -0.000321391 0)
(30.0002 0.00223008 0)
(29.9233 0.0151732 0)
(29.8978 0.00957599 0)
(29.8589 0.0064621 0)
(29.7941 0.0128881 0)
(29.683 0.0359179 0)
(29.5689 0.046515 0)
(29.4451 0.0533359 0)
(29.2349 0.0806127 0)
(28.976 0.114856 0)
(28.6553 0.160531 0)
(28.2557 0.231011 0)
(27.742 0.330041 0)
(27.1134 0.470396 0)
(26.2784 0.688087 0)
(25.2827 1.04576 0)
(23.8413 1.67692 0)
(22.2901 2.74429 0)
(19.7138 5.07379 0)
(17.2797 8.29792 0)
(9.97262 17.0244 0)
(29.9945 -0.000302084 0)
(29.9923 0.00237099 0)
(29.9399 0.0154776 0)
(29.9052 0.00981251 0)
(29.8561 0.00666602 0)
(29.784 0.0133244 0)
(29.6838 0.036826 0)
(29.5722 0.0477691 0)
(29.4466 0.0549585 0)
(29.2304 0.0830659 0)
(28.9717 0.118431 0)
(28.6511 0.165532 0)
(28.2515 0.23816 0)
(27.735 0.340107 0)
(27.1005 0.484933 0)
(26.2581 0.708478 0)
(25.2565 1.07629 0)
(23.8189 1.71871 0)
(22.2886 2.80922 0)
(19.7475 5.16144 0)
(17.5405 8.49158 0)
(10.2042 17.6305 0)
(29.9933 -0.000277191 0)
(29.9992 0.00249215 0)
(29.9225 0.0158718 0)
(29.8971 0.0100569 0)
(29.8591 0.00686186 0)
(29.7939 0.0137353 0)
(29.6829 0.0377323 0)
(29.5707 0.0490219 0)
(29.4421 0.0566626 0)
(29.2254 0.0855738 0)
(28.9672 0.122003 0)
(28.6469 0.170532 0)
(28.2472 0.245333 0)
(27.7278 0.350252 0)
(27.0871 0.499604 0)
(26.237 0.729016 0)
(25.2296 1.10684 0)
(23.7962 1.76012 0)
(22.2873 2.87326 0)
(19.7811 5.2442 0)
(17.8106 8.68133 0)
(10.4453 18.2479 0)
(29.9948 -0.000255393 0)
(29.9912 0.00264042 0)
(29.9401 0.016163 0)
(29.9048 0.0102922 0)
(29.8557 0.00707929 0)
(29.7829 0.0141838 0)
(29.6826 0.0386136 0)
(29.5749 0.0503468 0)
(29.4386 0.0584499 0)
(29.2202 0.088135 0)
(28.9627 0.125569 0)
(28.6427 0.17553 0)
(28.243 0.252533 0)
(27.7203 0.36048 0)
(27.0733 0.514415 0)
(26.2153 0.749704 0)
(25.2019 1.1374 0)
(23.7734 1.80116 0)
(22.2863 2.93641 0)
(19.8142 5.32189 0)
(18.0901 8.86697 0)
(10.696 18.8771 0)
(29.9935 -0.000227968 0)
(29.9981 0.00276845 0)
(29.9219 0.0165549 0)
(29.8967 0.0105182 0)
(29.8593 0.00728008 0)
(29.7938 0.0146268 0)
(29.6823 0.0394894 0)
(29.5737 0.0516565 0)
(29.4343 0.0601771 0)
(29.2152 0.0907252 0)
(28.9581 0.129131 0)
(28.6385 0.180527 0)
(28.2387 0.259761 0)
(27.7126 0.370794 0)
(27.0589 0.529368 0)
(26.1929 0.770543 0)
(25.1737 1.16796 0)
(23.7504 1.84181 0)
(22.2856 2.9987 0)
(19.8464 5.39435 0)
(18.3787 9.04829 0)
(10.9566 19.5186 0)
(29.9949 -0.000204571 0)
(29.9906 0.00292283 0)
(29.9393 0.0168617 0)
(29.9042 0.0107266 0)
(29.856 0.00746567 0)
(29.7837 0.0151217 0)
(29.6823 0.0404102 0)
(29.5811 0.0529562 0)
(29.431 0.0618872 0)
(29.2105 0.0933278 0)
(28.9534 0.132689 0)
(28.6342 0.185522 0)
(28.2343 0.267014 0)
(27.7047 0.381202 0)
(27.0442 0.544469 0)
(26.1701 0.791535 0)
(25.1451 1.19852 0)
(23.7273 1.88205 0)
(22.2855 3.06012 0)
(19.8771 5.46142 0)
(18.6751 9.22513 0)
(11.2273 20.1725 0)
(29.9939 -0.000175065 0)
(29.9964 0.00304975 0)
(29.9231 0.017277 0)
(29.8973 0.0109738 0)
(29.8592 0.0075218 0)
(29.7935 0.0154913 0)
(29.6803 0.0413168 0)
(29.5868 0.0542818 0)
(29.4278 0.0636461 0)
(29.206 0.0959407 0)
(28.9487 0.136247 0)
(28.6298 0.190517 0)
(28.2299 0.274298 0)
(27.6965 0.391698 0)
(27.0291 0.559714 0)
(26.1469 0.812677 0)
(25.1163 1.22908 0)
(23.7042 1.92187 0)
(22.286 3.12073 0)
(19.9056 5.523 0)
(18.9752 9.39742 0)
(11.5082 20.8403 0)
(29.9952 -0.000144167 0)
(29.9893 0.00317806 0)
(29.9405 0.017527 0)
(29.9051 0.0115133 0)
(29.856 0.00773137 0)
(29.7833 0.0157377 0)
(29.6784 0.0420967 0)
(29.5952 0.0555675 0)
(29.4249 0.0654833 0)
(29.202 0.0985673 0)
(28.944 0.139811 0)
(28.6253 0.195511 0)
(28.2253 0.281597 0)
(27.6882 0.402288 0)
(27.0137 0.575112 0)
(26.1234 0.833972 0)
(25.0873 1.25963 0)
(23.681 1.96128 0)
(22.2873 3.18055 0)
(19.9313 5.57911 0)
(19.2706 9.56487 0)
(11.7984 21.5284 0)
(29.9936 -0.000113426 0)
(29.997 0.00332209 0)
(29.9193 0.0174366 0)
(29.8939 0.0119438 0)
(29.8589 0.00836552 0)
(29.7976 0.0161947 0)
(29.6796 0.0425691 0)
(29.5974 0.0568913 0)
(29.4221 0.0673662 0)
(29.1984 0.101163 0)
(28.9394 0.143391 0)
(28.6208 0.200554 0)
(28.2206 0.288938 0)
(27.6797 0.412969 0)
(26.998 0.590651 0)
(26.0999 0.855428 0)
(25.0586 1.2902 0)
(23.6579 2.00025 0)
(22.2893 3.23966 0)
(19.954 5.62994 0)
(19.548 9.72555 0)
(12.1827 22.2603 0)
(-0.658621 0.0613371 0)
(-4.86007 0.108729 0)
(-10.9748 0.0828333 0)
(-12.7775 0.0021385 0)
(-10.6186 -0.0401217 0)
(-8.12049 -0.032467 0)
(-6.5011 -0.0200511 0)
(-5.28772 -0.0174866 0)
(-3.90326 -0.0218925 0)
(-1.8694 -0.0302865 0)
(1.41205 -0.0331768 0)
(4.62596 -0.0296261 0)
(7.6123 -0.025655 0)
(10.6108 -0.0248755 0)
(13.9028 -0.0206841 0)
(16.109 -0.0119229 0)
(17.2787 -0.00676381 0)
(18.148 -0.00516152 0)
(18.9564 -0.00447903 0)
(19.7286 -0.00397849 0)
(20.492 -0.00361057 0)
(21.2459 -0.00433522 0)
(22.459 -0.00795091 0)
(25.2201 -0.0095563 0)
(27.6355 -0.00563355 0)
(28.5008 -0.00182226 0)
(28.7817 -0.00068648 0)
(28.9688 -0.000479231 0)
(29.1352 -0.000399841 0)
(29.2886 -0.000311267 0)
(29.4039 -0.000224091 0)
(29.4987 -0.000159905 0)
(29.5659 -0.00012393 0)
(29.6355 -9.81679e-05 0)
(29.6823 -3.75395e-05 0)
(-0.684261 0.189344 0)
(-5.06003 0.326693 0)
(-10.9685 0.238991 0)
(-12.4362 -0.00504417 0)
(-10.2339 -0.11981 0)
(-7.97547 -0.093431 0)
(-6.43468 -0.0613448 0)
(-5.12926 -0.0523888 0)
(-3.75487 -0.061866 0)
(-1.89242 -0.0881208 0)
(1.11133 -0.0994952 0)
(4.17015 -0.0911061 0)
(7.14217 -0.0806101 0)
(10.0448 -0.0783289 0)
(13.404 -0.0640159 0)
(15.9382 -0.0371923 0)
(17.237 -0.0203485 0)
(18.1284 -0.0152382 0)
(18.9341 -0.0132194 0)
(19.7021 -0.0118255 0)
(20.4636 -0.0107481 0)
(21.2096 -0.0126463 0)
(22.3436 -0.0234956 0)
(25.0439 -0.028999 0)
(27.5609 -0.0173903 0)
(28.4892 -0.00563047 0)
(28.7814 -0.00207906 0)
(28.9681 -0.00143686 0)
(29.1342 -0.00119926 0)
(29.2875 -0.000934493 0)
(29.4032 -0.000673975 0)
(29.4985 -0.000481151 0)
(29.5659 -0.000372231 0)
(29.6354 -0.000294923 0)
(29.6825 -0.000113154 0)
(-0.712057 0.32036 0)
(-5.1748 0.541207 0)
(-10.8447 0.386721 0)
(-12.0464 -0.0159913 0)
(-9.89716 -0.197104 0)
(-7.73917 -0.149506 0)
(-6.18855 -0.103013 0)
(-4.85019 -0.0889978 0)
(-3.56981 -0.101204 0)
(-1.87479 -0.139571 0)
(0.926957 -0.158223 0)
(3.89353 -0.149498 0)
(6.85259 -0.132015 0)
(9.68722 -0.129166 0)
(12.996 -0.110455 0)
(15.7703 -0.0652625 0)
(17.1961 -0.0348519 0)
(18.1124 -0.0252585 0)
(18.9168 -0.0217628 0)
(19.6822 -0.019558 0)
(20.4429 -0.0178327 0)
(21.1815 -0.0206269 0)
(22.2446 -0.0383938 0)
(24.8892 -0.0484413 0)
(27.4927 -0.0296639 0)
(28.4785 -0.00969848 0)
(28.7813 -0.00350894 0)
(28.9676 -0.00239201 0)
(29.1334 -0.00199698 0)
(29.2865 -0.00155789 0)
(29.4025 -0.00112555 0)
(29.4983 -0.000803893 0)
(29.566 -0.000620824 0)
(29.6355 -0.000491827 0)
(29.6828 -0.000189145 0)
(-0.73005 0.454205 0)
(-5.22206 0.752227 0)
(-10.6428 0.524532 0)
(-11.5656 -0.0319689 0)
(-9.44383 -0.27261 0)
(-7.34975 -0.204373 0)
(-5.81698 -0.145365 0)
(-4.48343 -0.124295 0)
(-3.29565 -0.13681 0)
(-1.74096 -0.187384 0)
(0.873448 -0.21481 0)
(3.77462 -0.206687 0)
(6.72167 -0.182904 0)
(9.5189 -0.178458 0)
(12.6949 -0.157733 0)
(15.5976 -0.0962893 0)
(17.1518 -0.0506721 0)
(18.0994 -0.0356641 0)
(18.9042 -0.0304388 0)
(19.6686 -0.0273506 0)
(20.4301 -0.0248956 0)
(21.1618 -0.0282798 0)
(22.1622 -0.052822 0)
(24.7564 -0.0679883 0)
(27.4309 -0.0424267 0)
(28.4686 -0.013976 0)
(28.7815 -0.00496823 0)
(28.9675 -0.00334544 0)
(29.1329 -0.00279353 0)
(29.2858 -0.0021816 0)
(29.402 -0.00157893 0)
(29.4984 -0.0011282 0)
(29.5663 -0.000869703 0)
(29.6356 -0.000688895 0)
(29.683 -0.000265456 0)
(-0.73624 0.588746 0)
(-5.21131 0.958258 0)
(-10.3669 0.652033 0)
(-10.9994 -0.053067 0)
(-8.88421 -0.347641 0)
(-6.80323 -0.257933 0)
(-5.30623 -0.186966 0)
(-4.00586 -0.158373 0)
(-2.90157 -0.170102 0)
(-1.4624 -0.231803 0)
(0.970809 -0.26893 0)
(3.82274 -0.26317 0)
(6.7509 -0.233461 0)
(9.51959 -0.226167 0)
(12.5237 -0.203717 0)
(15.433 -0.128985 0)
(17.1049 -0.0677129 0)
(18.0907 -0.046368 0)
(18.8977 -0.0391675 0)
(19.6626 -0.0351684 0)
(20.4258 -0.0319394 0)
(21.1508 -0.0356568 0)
(22.0955 -0.0668215 0)
(24.6447 -0.0875719 0)
(27.3756 -0.0555829 0)
(28.4596 -0.0184471 0)
(28.782 -0.00645671 0)
(28.9676 -0.00429693 0)
(29.1326 -0.00358856 0)
(29.2853 -0.00280533 0)
(29.4017 -0.00203392 0)
(29.4986 -0.00145392 0)
(29.5666 -0.00111871 0)
(29.6359 -0.000885939 0)
(29.6833 -0.000341908 0)
(-0.729444 0.722443 0)
(-5.14987 1.15763 0)
(-10.0227 0.768431 0)
(-10.3785 -0.0794689 0)
(-8.26558 -0.422902 0)
(-6.14293 -0.310959 0)
(-4.66032 -0.227487 0)
(-3.40368 -0.191067 0)
(-2.3695 -0.201291 0)
(-1.01759 -0.273024 0)
(1.2565 -0.320911 0)
(4.07728 -0.319564 0)
(6.97437 -0.28394 0)
(9.7026 -0.272535 0)
(12.5 -0.247256 0)
(15.3041 -0.161885 0)
(17.0621 -0.0857359 0)
(18.0903 -0.0573406 0)
(18.9006 -0.0479199 0)
(19.6663 -0.043002 0)
(20.4311 -0.0389629 0)
(21.1489 -0.0427841 0)
(22.0435 -0.0804371 0)
(24.5521 -0.107165 0)
(27.3266 -0.0690595 0)
(28.4515 -0.0230904 0)
(28.7828 -0.00797237 0)
(28.9681 -0.00524641 0)
(29.1326 -0.00438183 0)
(29.285 -0.00342881 0)
(29.4016 -0.00249037 0)
(29.4991 -0.00178092 0)
(29.5671 -0.00136768 0)
(29.6363 -0.00108279 0)
(29.6837 -0.00041835 0)
(-0.708996 0.853887 0)
(-5.04375 1.3492 0)
(-9.61875 0.873932 0)
(-9.73509 -0.110701 0)
(-7.63372 -0.498921 0)
(-5.44378 -0.364975 0)
(-3.91754 -0.267521 0)
(-2.69193 -0.22257 0)
(-1.71461 -0.230851 0)
(-0.419397 -0.31176 0)
(1.75554 -0.371321 0)
(4.57616 -0.376021 0)
(7.43618 -0.334146 0)
(10.1085 -0.317204 0)
(12.651 -0.287945 0)
(15.2477 -0.193806 0)
(17.038 -0.104411 0)
(18.1055 -0.0685752 0)
(18.9183 -0.0566863 0)
(19.6831 -0.0508403 0)
(20.4475 -0.0459559 0)
(21.1567 -0.0496773 0)
(22.0051 -0.0937045 0)
(24.4768 -0.126744 0)
(27.2839 -0.0827955 0)
(28.4444 -0.0278857 0)
(28.7839 -0.00951333 0)
(28.969 -0.00619384 0)
(29.133 -0.00517313 0)
(29.2851 -0.00405182 0)
(29.4017 -0.00294814 0)
(29.4997 -0.00210908 0)
(29.5677 -0.00161648 0)
(29.6367 -0.00127928 0)
(29.684 -0.000494635 0)
(-0.67461 0.981811 0)
(-4.89816 1.53207 0)
(-9.16409 0.969254 0)
(-9.08137 -0.145964 0)
(-7.00627 -0.575575 0)
(-4.76508 -0.421091 0)
(-3.14403 -0.308276 0)
(-1.91955 -0.253316 0)
(-0.986048 -0.25932 0)
(0.280256 -0.349228 0)
(2.43144 -0.421033 0)
(5.2827 -0.432143 0)
(8.12216 -0.38359 0)
(10.7496 -0.359328 0)
(13.02 -0.32521 0)
(15.3087 -0.223771 0)
(17.0565 -0.123256 0)
(18.1481 -0.0800095 0)
(18.9591 -0.065436 0)
(19.7177 -0.0586507 0)
(20.4771 -0.0528933 0)
(21.1749 -0.0563399 0)
(21.9795 -0.106648 0)
(24.4168 -0.146287 0)
(27.2473 -0.0967384 0)
(28.4383 -0.0328139 0)
(28.7854 -0.0110776 0)
(28.9702 -0.00713916 0)
(29.1336 -0.00596222 0)
(29.2854 -0.00467409 0)
(29.402 -0.00340711 0)
(29.5006 -0.00243827 0)
(29.5685 -0.00186495 0)
(29.6374 -0.00147524 0)
(29.6844 -0.000570614 0)
(-0.626302 1.10506 0)
(-4.71773 1.7055 0)
(-8.66557 1.05511 0)
(-8.41084 -0.184439 0)
(-6.37769 -0.652204 0)
(-4.12593 -0.479378 0)
(-2.39921 -0.350649 0)
(-1.14608 -0.283789 0)
(-0.238092 -0.287134 0)
(1.02329 -0.386528 0)
(3.1982 -0.471065 0)
(6.09118 -0.487993 0)
(8.93594 -0.432289 0)
(11.5482 -0.398778 0)
(13.6259 -0.358216 0)
(15.5409 -0.250789 0)
(17.1529 -0.141607 0)
(18.2365 -0.0914747 0)
(19.0346 -0.0740929 0)
(19.7767 -0.0663651 0)
(20.5229 -0.0597283 0)
(21.2047 -0.0627609 0)
(21.9657 -0.119282 0)
(24.3703 -0.165771 0)
(27.2165 -0.110843 0)
(28.4334 -0.0378568 0)
(28.7872 -0.0126631 0)
(28.9719 -0.00808227 0)
(29.1346 -0.00674883 0)
(29.286 -0.00529537 0)
(29.4025 -0.00386712 0)
(29.5017 -0.00276836 0)
(29.5694 -0.00211292 0)
(29.6381 -0.0016705 0)
(29.6848 -0.000646134 0)
(-0.564309 1.22258 0)
(-4.50643 1.86887 0)
(-8.1273 1.13183 0)
(-7.71012 -0.225464 0)
(-5.73656 -0.72784 0)
(-3.51651 -0.539116 0)
(-1.71009 -0.394844 0)
(-0.412907 -0.314473 0)
(0.496795 -0.314836 0)
(1.77335 -0.424301 0)
(3.98905 -0.521943 0)
(6.92131 -0.544097 0)
(9.78362 -0.48084 0)
(12.3906 -0.436795 0)
(14.3993 -0.387102 0)
(15.9842 -0.273992 0)
(17.373 -0.158611 0)
(18.3974 -0.102644 0)
(19.1613 -0.0825068 0)
(19.8695 -0.0738652 0)
(20.5887 -0.0663839 0)
(21.2473 -0.0689118 0)
(21.9632 -0.131607 0)
(24.3355 -0.185175 0)
(27.1914 -0.125069 0)
(28.4297 -0.0429968 0)
(28.7895 -0.0142675 0)
(28.9739 -0.00902302 0)
(29.136 -0.0075327 0)
(29.2869 -0.00591538 0)
(29.4033 -0.00432801 0)
(29.503 -0.00309917 0)
(29.5705 -0.0023602 0)
(29.639 -0.00186488 0)
(29.6853 -0.000721037 0)
(-0.489027 1.3334 0)
(-4.26751 2.02164 0)
(-7.55144 1.19935 0)
(-6.96877 -0.268556 0)
(-5.07628 -0.801438 0)
(-2.91881 -0.599239 0)
(-1.07459 -0.440526 0)
(0.266461 -0.345716 0)
(1.20721 -0.343037 0)
(2.5157 -0.462941 0)
(4.78087 -0.574016 0)