/*--------------------------------*- C++ -*----------------------------------*\
| =========                 |                                                 |
| \\      /  F ield         | OpenFOAM: The Open Source CFD Toolbox           |
|  \\    /   O peration     | Version:  v1912                                 |
|   \\  /    A nd           | Website:  www.openfoam.com                      |
|    \\/     M anipulation  |                                                 |
\*---------------------------------------------------------------------------*/
FoamFile
{
    version     2.0;
    format      ascii;
    class       volScalarField;
    location    "90";
    object      yPlus;
}
// * * * * * * * * * * * * * * * * * * * * * * * * * * * * * * * * * * * * * //

dimensions      [0 0 0 0 0 0 0];


internalField   uniform 0;

boundaryField
{
    inlet
    {
        type            calculated;
        value           uniform 0;
    }
    outlet
    {
        type            calculated;
        value           uniform 0;
    }
    lowerSymmetry
    {
        type            symmetryPlane;
    }
    obstical
    {
        type            calculated;
        value           nonuniform List<scalar> 
88
(
522.388
523.75
527.146
532.956
541.11
551.498
564.002
578.502
594.878
613.01
632.776
654.059
676.742
700.712
725.862
752.093
779.314
807.448
836.426
866.193
896.703
927.922
959.825
992.396
1025.63
1059.52
1094.07
1129.29
1165.21
1201.83
1239.18
1277.28
1316.15
1355.81
1396.28
1437.59
1479.75
1522.78
1566.71
1611.56
1657.35
1704.14
1752.28
1805.69
69.2285
73.5173
79.7226
86.5718
93.6835
100.818
107.828
114.628
121.179
127.471
133.512
139.322
144.929
150.368
155.676
160.894
166.066
171.231
176.416
181.615
186.753
191.692
196.34
200.6
204.368
207.52
209.907
211.338
211.577
210.331
207.251
201.935
193.927
182.74
167.935
149.232
126.587
100.131
70.0456
37.3143
29.3469
65.0379
103.458
142.117
)
;
    }
    obsticalTop
    {
        type            calculated;
        value           nonuniform List<scalar> 
20
(
52.3679
36.2771
45.3517
51.8771
54.9439
56.7503
57.4932
57.3574
56.5762
55.2907
53.4932
51.0972
48.0326
44.1539
39.4432
33.3112
27.4257
18.581
16.5885
11.6264
)
;
    }
    top
    {
        type            calculated;
        value           uniform 0;
    }
    defaultFaces
    {
        type            empty;
    }
}


// ************************************************************************* //
