# Solver information
# Time        	U_solver      	Ux_initial    	Ux_final      	Ux_iters      	Uy_initial    	Uy_final      	Uy_iters      	U_converged   	p_solver      	p_initial     	p_final       	p_iters       	p_converged   
1             	smoothSolver	1.000000e+00	8.015900e-02	4	1.000000e+00	7.528280e-02	3	false	GAMG	1.000000e+00	6.201660e-02	6	true
2             	smoothSolver	5.402590e-02	3.368950e-03	2	4.735610e-01	3.952510e-02	1	false	GAMG	1.670800e-01	1.375300e-02	5	true
3             	smoothSolver	6.132130e-02	3.776380e-03	2	4.444430e-01	2.376990e-02	1	false	GAMG	1.723070e-01	1.326130e-02	4	true
4             	smoothSolver	4.577450e-02	3.512490e-03	2	3.609570e-01	1.569730e-02	1	false	GAMG	1.374570e-01	1.030560e-02	4	true
5             	smoothSolver	3.823030e-02	3.482080e-03	2	2.617100e-01	1.458140e-02	1	false	GAMG	1.137740e-01	8.036210e-03	3	true
6             	smoothSolver	3.198390e-02	1.955010e-03	3	1.928960e-01	1.461090e-02	1	false	GAMG	1.076230e-01	7.346680e-03	3	true
7             	smoothSolver	3.108560e-02	1.842110e-03	3	1.529540e-01	1.380680e-02	1	false	GAMG	1.109150e-01	7.497940e-03	3	true
8             	smoothSolver	3.328250e-02	3.117450e-03	2	1.316850e-01	4.461310e-03	2	false	GAMG	1.253610e-01	9.333110e-03	3	true
9             	smoothSolver	3.614520e-02	3.087020e-03	2	1.312720e-01	1.169030e-02	1	false	GAMG	1.402550e-01	1.288640e-02	3	true
10            	smoothSolver	4.029560e-02	3.079600e-03	2	1.586130e-01	1.390910e-02	1	false	GAMG	1.034890e-01	5.749740e-03	4	true
11            	smoothSolver	4.523290e-02	3.184800e-03	2	1.835400e-01	1.757820e-02	1	false	GAMG	8.196870e-02	5.652990e-03	4	true
12            	smoothSolver	4.945060e-02	3.746030e-03	2	2.002080e-01	1.080440e-02	2	false	GAMG	9.086030e-02	5.445890e-03	4	true
13            	smoothSolver	5.423530e-02	4.364890e-03	2	2.299240e-01	1.302190e-02	2	false	GAMG	8.824340e-02	5.992390e-03	4	true
14            	smoothSolver	5.484800e-02	5.277760e-03	2	2.690160e-01	1.477170e-02	2	false	GAMG	8.772320e-02	5.896450e-03	4	true
15            	smoothSolver	5.372800e-02	2.892660e-03	3	3.078470e-01	1.641550e-02	2	false	GAMG	8.464520e-02	5.738580e-03	4	true
16            	smoothSolver	5.172800e-02	2.714860e-03	3	3.077280e-01	1.793480e-02	2	false	GAMG	7.638030e-02	4.339780e-03	4	true
17            	smoothSolver	4.818410e-02	2.533580e-03	3	2.849790e-01	1.978130e-02	2	false	GAMG	7.807250e-02	4.189810e-03	4	true
18            	smoothSolver	4.670050e-02	4.519270e-03	2	2.659010e-01	1.983820e-02	2	false	GAMG	8.284350e-02	8.021980e-03	3	true
19            	smoothSolver	4.419360e-02	4.302980e-03	2	2.670360e-01	1.964480e-02	2	false	GAMG	8.381980e-02	7.630000e-03	3	true
20            	smoothSolver	4.068190e-02	3.858360e-03	2	2.473370e-01	1.759590e-02	2	false	GAMG	7.709780e-02	6.868450e-03	3	true
21            	smoothSolver	3.691900e-02	3.594060e-03	2	2.307140e-01	1.589130e-02	2	false	GAMG	6.807630e-02	6.284250e-03	3	true
22            	smoothSolver	3.273260e-02	1.895950e-03	3	2.206140e-01	1.664890e-02	2	false	GAMG	6.338670e-02	5.680890e-03	3	true
23            	smoothSolver	2.942380e-02	1.949450e-03	3	2.105710e-01	1.661580e-02	2	false	GAMG	6.052300e-02	5.111670e-03	3	true
24            	smoothSolver	2.705570e-02	2.021030e-03	3	2.000220e-01	1.680910e-02	2	false	GAMG	5.965000e-02	4.903890e-03	3	true
25            	smoothSolver	2.544670e-02	2.040800e-03	3	1.864900e-01	1.616390e-02	2	false	GAMG	5.806370e-02	4.704600e-03	3	true
26            	smoothSolver	2.414010e-02	1.995840e-03	3	1.760970e-01	1.463640e-02	2	false	GAMG	5.706020e-02	4.536190e-03	3	true
27            	smoothSolver	2.314530e-02	1.906780e-03	3	1.597870e-01	1.291190e-02	2	false	GAMG	5.321750e-02	4.275210e-03	3	true
28            	smoothSolver	2.189090e-02	1.817240e-03	3	1.534360e-01	1.100490e-02	2	false	GAMG	4.977550e-02	4.001960e-03	3	true
29            	smoothSolver	2.060600e-02	1.744310e-03	3	1.387500e-01	1.020210e-02	2	false	GAMG	4.470490e-02	3.746630e-03	3	true
30            	smoothSolver	1.888080e-02	1.699290e-03	3	1.309230e-01	9.334590e-03	2	false	GAMG	4.147620e-02	3.584590e-03	3	true
31            	smoothSolver	1.752170e-02	1.664030e-03	3	1.188400e-01	9.074430e-03	2	false	GAMG	3.944210e-02	3.429310e-03	3	true
32            	smoothSolver	1.635410e-02	1.618480e-03	3	1.134290e-01	8.923410e-03	2	false	GAMG	3.718640e-02	3.161700e-03	3	true
33            	smoothSolver	1.521990e-02	1.009670e-03	4	1.088990e-01	8.903240e-03	2	false	GAMG	3.574500e-02	2.872250e-03	3	true
34            	smoothSolver	1.453710e-02	9.904600e-04	4	1.060870e-01	8.471870e-03	2	false	GAMG	3.371640e-02	2.700070e-03	3	true
35            	smoothSolver	1.411360e-02	9.760040e-04	4	1.027130e-01	7.788860e-03	2	false	GAMG	3.189740e-02	2.537390e-03	3	true
36            	smoothSolver	1.352890e-02	9.684130e-04	4	9.587520e-02	7.015420e-03	2	false	GAMG	2.946180e-02	2.291710e-03	3	true
37            	smoothSolver	1.283500e-02	9.640750e-04	4	9.169950e-02	6.314810e-03	2	false	GAMG	2.698380e-02	2.027650e-03	3	true
38            	smoothSolver	1.201570e-02	9.600920e-04	4	8.514910e-02	5.865350e-03	2	false	GAMG	2.504940e-02	1.820140e-03	3	true
39            	smoothSolver	1.108490e-02	9.561740e-04	4	7.784210e-02	5.260010e-03	2	false	GAMG	2.294070e-02	1.679660e-03	3	true
40            	smoothSolver	1.041630e-02	9.530000e-04	4	7.122010e-02	4.795840e-03	2	false	GAMG	2.164280e-02	1.577060e-03	3	true
41            	smoothSolver	9.962000e-03	9.521120e-04	4	6.421630e-02	4.479430e-03	2	false	GAMG	2.035540e-02	1.460360e-03	3	true
42            	smoothSolver	9.637380e-03	9.539210e-04	4	6.099910e-02	4.183590e-03	2	false	GAMG	1.895680e-02	1.338300e-03	3	true
43            	smoothSolver	9.495150e-03	6.398970e-04	5	5.609480e-02	3.746660e-03	2	false	GAMG	1.764410e-02	1.225380e-03	3	true
44            	smoothSolver	9.348430e-03	6.431520e-04	5	5.149470e-02	3.303970e-03	2	false	GAMG	1.628540e-02	1.124280e-03	3	true
45            	smoothSolver	9.203300e-03	6.459870e-04	5	4.810410e-02	2.850840e-03	2	false	GAMG	1.530910e-02	1.061090e-03	3	true
46            	smoothSolver	8.913790e-03	6.484050e-04	5	4.408930e-02	2.489340e-03	2	false	GAMG	1.439840e-02	1.018560e-03	3	true
47            	smoothSolver	8.626400e-03	6.504060e-04	5	4.052770e-02	2.106900e-03	2	false	GAMG	1.356370e-02	9.756390e-04	3	true
48            	smoothSolver	8.354000e-03	6.520510e-04	5	3.739710e-02	1.920470e-03	2	false	GAMG	1.294430e-02	9.505530e-04	3	true
49            	smoothSolver	8.128030e-03	6.534500e-04	5	3.512960e-02	1.687820e-03	2	false	GAMG	1.227660e-02	9.277330e-04	3	true
50            	smoothSolver	7.950220e-03	6.546730e-04	5	3.324350e-02	1.570080e-03	2	false	GAMG	1.171850e-02	9.064450e-04	3	true
51            	smoothSolver	7.795590e-03	6.559320e-04	5	3.111900e-02	1.450320e-03	2	false	GAMG	1.116980e-02	8.857340e-04	3	true
52            	smoothSolver	7.730190e-03	6.573190e-04	5	2.937790e-02	1.403260e-03	2	false	GAMG	1.061970e-02	8.593870e-04	3	true
53            	smoothSolver	7.725350e-03	6.588520e-04	5	2.806030e-02	1.334200e-03	2	false	GAMG	1.012690e-02	8.262490e-04	3	true
54            	smoothSolver	7.726510e-03	6.605900e-04	5	2.721260e-02	1.234080e-03	2	false	GAMG	9.648480e-03	7.831450e-04	3	true
55            	smoothSolver	7.683520e-03	6.624360e-04	5	2.621900e-02	1.197060e-03	2	false	GAMG	9.119400e-03	7.355840e-04	3	true
56            	smoothSolver	7.612610e-03	6.643530e-04	5	2.505910e-02	1.184180e-03	2	false	GAMG	8.661510e-03	6.831860e-04	3	true
57            	smoothSolver	7.508480e-03	6.662620e-04	5	2.358750e-02	1.167910e-03	2	false	GAMG	8.203070e-03	6.313220e-04	3	true
58            	smoothSolver	7.382380e-03	6.680690e-04	5	2.206030e-02	1.077970e-03	2	false	GAMG	7.803470e-03	5.823210e-04	3	true
59            	smoothSolver	7.271350e-03	6.696650e-04	5	2.056130e-02	9.673770e-04	2	false	GAMG	7.419040e-03	5.358690e-04	3	true
60            	smoothSolver	7.185560e-03	6.710000e-04	5	1.921270e-02	8.640010e-04	2	false	GAMG	7.005740e-03	4.931900e-04	3	true
61            	smoothSolver	7.125020e-03	6.720300e-04	5	1.786390e-02	1.710820e-03	1	false	GAMG	6.865070e-03	4.544670e-04	3	true
62            	smoothSolver	7.050600e-03	6.726360e-04	5	1.625590e-02	1.516830e-03	1	false	GAMG	6.386440e-03	4.119530e-04	3	true
63            	smoothSolver	6.969590e-03	6.728890e-04	5	1.473760e-02	1.336190e-03	1	false	GAMG	5.963660e-03	3.759590e-04	3	true
64            	smoothSolver	6.890160e-03	6.728140e-04	5	1.354570e-02	1.187300e-03	1	false	GAMG	5.579090e-03	3.430070e-04	3	true
65            	smoothSolver	6.800870e-03	6.723850e-04	5	1.250010e-02	1.050330e-03	1	false	GAMG	5.231990e-03	3.158330e-04	3	true
66            	smoothSolver	6.705710e-03	4.485990e-04	6	1.160110e-02	9.313800e-04	1	false	GAMG	4.913320e-03	2.983580e-04	3	true
67            	smoothSolver	6.619450e-03	4.478210e-04	6	1.086850e-02	8.571710e-04	1	false	GAMG	4.646580e-03	2.847430e-04	3	true
68            	smoothSolver	6.523880e-03	4.468160e-04	6	1.033670e-02	8.186050e-04	1	false	GAMG	4.417000e-03	2.723370e-04	3	true
69            	smoothSolver	6.439690e-03	4.456320e-04	6	9.990850e-03	7.973970e-04	1	false	GAMG	4.194570e-03	2.619110e-04	3	true
70            	smoothSolver	6.362800e-03	4.442170e-04	6	9.693290e-03	7.779470e-04	1	false	GAMG	3.988020e-03	2.544340e-04	3	true
71            	smoothSolver	6.293440e-03	4.426050e-04	6	9.367320e-03	7.482050e-04	1	false	GAMG	3.794880e-03	2.485930e-04	3	true
72            	smoothSolver	6.227670e-03	4.407940e-04	6	8.997060e-03	7.141380e-04	1	false	GAMG	3.622940e-03	2.426000e-04	3	true
73            	smoothSolver	6.169110e-03	4.387890e-04	6	8.644710e-03	7.031290e-04	1	false	GAMG	3.464030e-03	2.358870e-04	3	true
74            	smoothSolver	6.129940e-03	4.366060e-04	6	8.323150e-03	6.863760e-04	1	false	GAMG	3.297060e-03	2.284460e-04	3	true
75            	smoothSolver	6.096640e-03	4.342590e-04	6	8.013410e-03	6.597460e-04	1	false	GAMG	3.127320e-03	2.208960e-04	3	true
76            	smoothSolver	6.059630e-03	4.317090e-04	6	7.732870e-03	6.325430e-04	1	false	GAMG	2.965010e-03	2.127390e-04	3	true
77            	smoothSolver	6.023650e-03	4.289440e-04	6	7.465540e-03	6.062510e-04	1	false	GAMG	2.800830e-03	2.045630e-04	3	true
78            	smoothSolver	5.983040e-03	4.260020e-04	6	7.199350e-03	5.764190e-04	1	false	GAMG	2.649490e-03	1.967270e-04	3	true
79            	smoothSolver	5.939700e-03	4.228630e-04	6	6.920870e-03	5.495920e-04	1	false	GAMG	2.508560e-03	1.889040e-04	3	true
80            	smoothSolver	5.888600e-03	4.195290e-04	6	6.630410e-03	5.309500e-04	1	false	GAMG	2.374720e-03	1.819200e-04	3	true
81            	smoothSolver	5.838040e-03	4.159980e-04	6	6.309920e-03	5.061330e-04	1	false	GAMG	2.230760e-03	1.745300e-04	3	true
82            	smoothSolver	5.778550e-03	4.122940e-04	6	5.931800e-03	4.770950e-04	1	false	GAMG	2.096830e-03	1.685000e-04	3	true
83            	smoothSolver	5.718010e-03	4.084090e-04	6	5.630890e-03	4.568940e-04	1	false	GAMG	1.968910e-03	1.625650e-04	3	true
84            	smoothSolver	5.648780e-03	4.043240e-04	6	5.350880e-03	4.401900e-04	1	false	GAMG	1.855270e-03	1.570110e-04	3	true
85            	smoothSolver	5.575790e-03	4.000560e-04	6	5.030230e-03	4.218880e-04	1	false	GAMG	1.747230e-03	1.510830e-04	3	true
86            	smoothSolver	5.491710e-03	3.955770e-04	6	4.724920e-03	4.057280e-04	1	false	GAMG	1.642770e-03	1.454710e-04	3	true
87            	smoothSolver	5.408090e-03	3.909250e-04	6	4.438250e-03	3.908800e-04	1	false	GAMG	1.549380e-03	1.393160e-04	3	true
88            	smoothSolver	5.316010e-03	3.860690e-04	6	4.171610e-03	3.757820e-04	1	false	GAMG	1.467530e-03	1.337370e-04	3	true
89            	smoothSolver	5.231470e-03	3.810260e-04	6	3.918750e-03	3.595190e-04	1	false	GAMG	1.394310e-03	1.277640e-04	3	true
90            	smoothSolver	5.140910e-03	3.758010e-04	6	3.721430e-03	3.440920e-04	1	false	GAMG	1.322620e-03	1.224160e-04	3	true
91            	smoothSolver	5.054790e-03	3.704030e-04	6	3.550030e-03	3.296890e-04	1	false	GAMG	1.256710e-03	1.163010e-04	3	true
92            	smoothSolver	4.966820e-03	3.648170e-04	6	3.438720e-03	3.159220e-04	1	false	GAMG	1.195300e-03	1.101300e-04	3	true
93            	smoothSolver	4.880320e-03	3.590570e-04	6	3.363160e-03	3.040800e-04	1	false	GAMG	1.136660e-03	1.042350e-04	3	true
94            	smoothSolver	4.801650e-03	3.531190e-04	6	3.292500e-03	2.929110e-04	1	false	GAMG	1.083250e-03	9.905470e-05	3	true
95            	smoothSolver	4.717670e-03	3.470150e-04	6	3.197360e-03	2.819150e-04	1	false	GAMG	1.031670e-03	9.414970e-05	3	true
96            	smoothSolver	4.637620e-03	3.407230e-04	6	3.107940e-03	2.712880e-04	1	false	GAMG	9.863710e-04	8.988630e-05	3	true
97            	smoothSolver	4.551810e-03	3.342850e-04	6	3.026580e-03	2.614710e-04	1	false	GAMG	9.428870e-04	8.621280e-05	3	true
98            	smoothSolver	4.467140e-03	3.276870e-04	6	2.948020e-03	2.527840e-04	1	false	GAMG	9.018750e-04	8.280240e-05	3	true
99            	smoothSolver	4.389060e-03	3.209530e-04	6	2.864650e-03	2.440580e-04	1	false	GAMG	8.626370e-04	7.986600e-05	3	true
100           	smoothSolver	4.303290e-03	3.140660e-04	6	2.785900e-03	2.357660e-04	1	false	GAMG	8.261410e-04	7.726810e-05	3	true
101           	smoothSolver	4.226830e-03	3.070660e-04	6	2.696920e-03	2.275160e-04	1	false	GAMG	7.899850e-04	7.500180e-05	3	true
102           	smoothSolver	4.133490e-03	2.999310e-04	6	2.608710e-03	2.198050e-04	1	false	GAMG	7.536130e-04	7.294590e-05	3	true
103           	smoothSolver	4.052470e-03	2.926790e-04	6	2.522560e-03	2.114290e-04	1	false	GAMG	7.203320e-04	7.099270e-05	3	true
104           	smoothSolver	3.956830e-03	2.852970e-04	6	2.432750e-03	2.037420e-04	1	false	GAMG	6.878850e-04	3.965000e-05	4	true
105           	smoothSolver	3.881170e-03	2.778340e-04	6	2.490740e-03	1.981970e-04	1	false	GAMG	6.547550e-04	4.089210e-05	4	true
106           	smoothSolver	3.778420e-03	2.702800e-04	6	2.339140e-03	1.891680e-04	1	false	GAMG	6.221580e-04	4.048060e-05	4	true
107           	smoothSolver	3.681230e-03	2.626510e-04	6	2.172470e-03	1.803430e-04	1	false	GAMG	5.894260e-04	3.948370e-05	4	true
108           	smoothSolver	3.580990e-03	2.549510e-04	6	2.040730e-03	1.718490e-04	1	false	GAMG	5.593180e-04	3.830230e-05	4	true
109           	smoothSolver	3.477660e-03	2.472110e-04	6	1.939510e-03	1.634370e-04	1	false	GAMG	5.308110e-04	3.694550e-05	4	true
110           	smoothSolver	3.379270e-03	2.394180e-04	6	1.850710e-03	1.554580e-04	1	false	GAMG	5.032300e-04	3.540890e-05	4	true
111           	smoothSolver	3.272100e-03	2.315870e-04	6	1.764360e-03	1.476000e-04	1	false	GAMG	4.779530e-04	3.373230e-05	4	true
112           	smoothSolver	3.173180e-03	2.237340e-04	6	1.682020e-03	1.401650e-04	1	false	GAMG	4.551270e-04	3.198370e-05	4	true
113           	smoothSolver	3.066480e-03	2.158830e-04	6	1.600480e-03	1.327520e-04	1	false	GAMG	4.332560e-04	3.022640e-05	4	true
114           	smoothSolver	2.969650e-03	2.080330e-04	6	1.521820e-03	1.257070e-04	1	false	GAMG	4.135010e-04	2.842100e-05	4	true
115           	smoothSolver	2.862810e-03	2.002030e-04	6	1.464880e-03	1.185790e-04	1	false	GAMG	3.946410e-04	2.686650e-05	4	true
116           	smoothSolver	2.764490e-03	1.924030e-04	6	1.422540e-03	1.119690e-04	1	false	GAMG	3.749580e-04	2.466510e-05	4	true
117           	smoothSolver	2.666250e-03	1.846430e-04	6	1.381610e-03	1.062070e-04	1	false	GAMG	3.587770e-04	2.265840e-05	4	true
118           	smoothSolver	2.566140e-03	1.769360e-04	6	1.336940e-03	1.006330e-04	1	false	GAMG	3.407580e-04	2.094190e-05	4	true
119           	smoothSolver	2.469690e-03	1.692950e-04	6	1.296660e-03	9.536990e-05	1	false	GAMG	3.260650e-04	1.944570e-05	4	true
120           	smoothSolver	2.368260e-03	1.617520e-04	6	1.254460e-03	9.025150e-05	1	false	GAMG	3.091240e-04	1.809330e-05	4	true
121           	smoothSolver	2.275810e-03	1.542740e-04	6	1.236500e-03	8.558390e-05	1	false	GAMG	2.953400e-04	1.699010e-05	4	true
122           	smoothSolver	2.178840e-03	1.468950e-04	6	1.220820e-03	8.137470e-05	1	false	GAMG	2.808370e-04	1.603280e-05	4	true
123           	smoothSolver	2.094190e-03	1.396360e-04	6	1.206030e-03	7.738610e-05	1	false	GAMG	2.697170e-04	1.533870e-05	4	true
124           	smoothSolver	1.999950e-03	1.324860e-04	6	1.182040e-03	7.330140e-05	1	false	GAMG	2.567710e-04	1.477430e-05	4	true
125           	smoothSolver	1.922600e-03	1.901550e-04	5	1.155800e-03	6.934070e-05	1	false	GAMG	2.486280e-04	1.424350e-05	4	true
126           	smoothSolver	1.833860e-03	1.802090e-04	5	1.119620e-03	6.514830e-05	1	false	GAMG	2.369650e-04	1.389480e-05	4	true
127           	smoothSolver	1.754640e-03	1.705110e-04	5	1.082790e-03	6.120000e-05	1	false	GAMG	2.302190e-04	1.391770e-05	4	true
128           	smoothSolver	1.670760e-03	1.610400e-04	5	1.039650e-03	5.768280e-05	1	false	GAMG	2.191770e-04	1.333010e-05	4	true
129           	smoothSolver	1.594390e-03	1.517750e-04	5	9.956640e-04	5.399820e-05	1	false	GAMG	2.130010e-04	1.308680e-05	4	true
130           	smoothSolver	1.514620e-03	1.427160e-04	5	9.630590e-04	5.062050e-05	1	false	GAMG	2.030060e-04	1.314280e-05	4	true
131           	smoothSolver	1.440210e-03	1.339020e-04	5	9.448830e-04	4.753400e-05	1	false	GAMG	1.975310e-04	1.310640e-05	4	true
132           	smoothSolver	1.365770e-03	1.253050e-04	5	9.258890e-04	4.458810e-05	1	false	GAMG	1.881910e-04	1.320740e-05	4	true
133           	smoothSolver	1.296490e-03	1.169790e-04	5	9.052860e-04	4.173220e-05	1	false	GAMG	1.831420e-04	1.326620e-05	4	true
134           	smoothSolver	1.224070e-03	1.089140e-04	5	8.787790e-04	3.902830e-05	1	false	GAMG	1.746020e-04	1.366230e-05	4	true
135           	smoothSolver	1.155540e-03	1.011510e-04	5	8.503990e-04	3.633330e-05	1	false	GAMG	1.697770e-04	1.359890e-05	4	true
136           	smoothSolver	1.085260e-03	9.370200e-05	5	8.188470e-04	3.416130e-05	1	false	GAMG	1.635820e-04	1.345040e-05	4	true
137           	smoothSolver	1.022810e-03	8.653610e-05	5	7.872370e-04	3.210640e-05	1	false	GAMG	1.587430e-04	1.326130e-05	4	true
138           	smoothSolver	9.624970e-04	7.964060e-05	5	7.517650e-04	3.053540e-05	1	false	GAMG	1.536610e-04	1.302970e-05	4	true
139           	smoothSolver	9.011910e-04	7.299120e-05	5	7.191100e-04	2.899000e-05	1	false	GAMG	1.492300e-04	1.282790e-05	4	true
140           	smoothSolver	8.421930e-04	6.667270e-05	5	7.012850e-04	2.752820e-05	1	false	GAMG	1.445510e-04	1.263530e-05	4	true
141           	smoothSolver	7.849100e-04	6.061270e-05	5	6.839100e-04	2.614040e-05	1	false	GAMG	1.405940e-04	1.246870e-05	4	true
142           	smoothSolver	7.280140e-04	5.487390e-05	5	6.626680e-04	2.488570e-05	1	false	GAMG	1.363650e-04	1.228510e-05	4	true
143           	smoothSolver	6.737030e-04	4.939510e-05	5	6.391640e-04	2.374810e-05	1	false	GAMG	1.329310e-04	1.212780e-05	4	true
144           	smoothSolver	6.204880e-04	4.426550e-05	5	6.149550e-04	2.274440e-05	1	false	GAMG	1.292350e-04	1.198670e-05	4	true
145           	smoothSolver	5.723560e-04	3.946650e-05	5	5.969470e-04	2.179410e-05	1	false	GAMG	1.258570e-04	1.186720e-05	4	true
146           	smoothSolver	5.305600e-04	3.498560e-05	5	5.846000e-04	2.098360e-05	1	false	GAMG	1.219570e-04	1.172980e-05	4	true
147           	smoothSolver	4.877360e-04	4.798780e-05	4	5.717540e-04	2.009370e-05	1	false	GAMG	1.181490e-04	1.152310e-05	4	true
148           	smoothSolver	4.495430e-04	4.227680e-05	4	5.551300e-04	1.899930e-05	1	false	GAMG	1.142920e-04	1.136140e-05	4	true
149           	smoothSolver	4.105760e-04	3.691330e-05	4	5.373550e-04	1.799970e-05	1	false	GAMG	1.105800e-04	6.575040e-06	5	true
150           	smoothSolver	3.786020e-04	3.199730e-05	4	5.416410e-04	1.758540e-05	1	false	GAMG	1.066090e-04	1.053830e-05	4	true
151           	smoothSolver	3.380240e-04	2.746830e-05	4	5.022590e-04	1.616240e-05	1	false	GAMG	1.030760e-04	6.309490e-06	5	true
152           	smoothSolver	3.111970e-04	2.341920e-05	4	4.943640e-04	1.578780e-05	1	false	GAMG	9.966210e-05	5.937230e-06	5	true
153           	smoothSolver	2.811590e-04	1.988850e-05	4	4.729520e-04	1.497830e-05	1	false	GAMG	9.620390e-05	9.562890e-06	4	true
154           	smoothSolver	2.539900e-04	1.675950e-05	4	4.359590e-04	1.372470e-05	1	false	GAMG	9.253290e-05	5.717910e-06	5	true
155           	smoothSolver	2.342370e-04	2.263050e-05	3	4.289570e-04	1.347440e-05	1	false	GAMG	8.863330e-05	5.288690e-06	5	true
156           	smoothSolver	2.117730e-04	1.903100e-05	3	4.077690e-04	1.261810e-05	1	false	GAMG	8.494820e-05	8.448200e-06	4	true
157           	smoothSolver	1.889150e-04	1.579050e-05	3	3.703380e-04	1.143050e-05	1	false	GAMG	8.100770e-05	4.928790e-06	5	true
158           	smoothSolver	1.734260e-04	1.297680e-05	3	3.614980e-04	1.108970e-05	1	false	GAMG	7.780670e-05	7.705170e-06	4	true
159           	smoothSolver	1.538710e-04	1.050890e-05	3	3.282070e-04	9.989790e-06	1	false	GAMG	7.412840e-05	4.453280e-06	5	true
160           	smoothSolver	1.404600e-04	8.425570e-06	3	3.204990e-04	9.628860e-06	1	false	GAMG	7.070370e-05	6.910130e-06	4	true
161           	smoothSolver	1.234340e-04	1.169240e-05	2	2.889540e-04	8.575100e-06	1	false	GAMG	6.689780e-05	6.679050e-06	4	true
162           	smoothSolver	1.105680e-04	9.581770e-06	2	2.644090e-04	7.820450e-06	1	false	GAMG	6.352490e-05	6.331350e-06	4	true
163           	smoothSolver	9.889340e-05	7.750990e-06	2	2.466710e-04	7.157250e-06	1	false	GAMG	6.023740e-05	5.954480e-06	4	true
164           	smoothSolver	8.798170e-05	6.231420e-06	2	2.292270e-04	6.518130e-06	1	false	GAMG	5.708090e-05	5.584490e-06	4	true
165           	smoothSolver	7.784000e-05	4.937730e-06	2	2.119510e-04	5.936480e-06	1	false	GAMG	5.388220e-05	5.210430e-06	4	true
166           	smoothSolver	6.898020e-05	8.825970e-06	1	1.956290e-04	5.363270e-06	1	false	GAMG	5.091180e-05	4.817660e-06	4	true
167           	smoothSolver	6.137350e-05	7.582080e-06	1	1.790540e-04	4.807410e-06	1	false	GAMG	4.780680e-05	4.429170e-06	4	true
168           	smoothSolver	5.458950e-05	6.527600e-06	1	1.635870e-04	4.284820e-06	1	false	GAMG	4.491970e-05	4.064450e-06	4	true
169           	smoothSolver	4.814080e-05	5.528100e-06	1	1.491550e-04	3.834780e-06	1	false	GAMG	4.194650e-05	3.714690e-06	4	true
170           	smoothSolver	4.287510e-05	4.733010e-06	1	1.360640e-04	3.412450e-06	1	false	GAMG	3.926420e-05	3.394140e-06	4	true
171           	smoothSolver	3.764140e-05	3.986780e-06	1	1.240390e-04	3.056020e-06	1	false	GAMG	3.654570e-05	3.087220e-06	4	true
172           	smoothSolver	3.364820e-05	3.379670e-06	1	1.132190e-04	2.716450e-06	1	false	GAMG	3.417310e-05	2.809210e-06	4	true
173           	smoothSolver	2.942920e-05	2.823280e-06	1	1.032020e-04	2.430460e-06	1	false	GAMG	3.173820e-05	2.544400e-06	4	true
174           	smoothSolver	2.649200e-05	2.414680e-06	1	9.421330e-05	2.158190e-06	1	false	GAMG	2.960640e-05	2.311400e-06	4	true
175           	smoothSolver	2.336300e-05	2.008350e-06	1	8.580050e-05	1.934000e-06	1	false	GAMG	2.737850e-05	2.091530e-06	4	true
176           	smoothSolver	2.114730e-05	1.730470e-06	1	7.832450e-05	1.716450e-06	1	false	GAMG	2.546360e-05	1.900420e-06	4	true
177           	smoothSolver	1.876570e-05	1.442450e-06	1	7.123670e-05	1.543650e-06	1	false	GAMG	2.348870e-05	1.717940e-06	4	true
178           	smoothSolver	1.701990e-05	1.268120e-06	1	6.494760e-05	1.371070e-06	1	false	GAMG	2.190880e-05	1.563470e-06	4	true
179           	smoothSolver	1.526160e-05	1.072430e-06	1	5.912550e-05	1.238700e-06	1	false	GAMG	2.024320e-05	1.413600e-06	4	true
180           	smoothSolver	1.392360e-05	9.680580e-07	1	5.394890e-05	1.097940e-06	1	false	GAMG	1.890130e-05	1.289360e-06	4	true
181           	smoothSolver	1.262010e-05	8.363880e-07	1	4.923660e-05	9.980960e-07	1	false	GAMG	1.744760e-05	1.165900e-06	4	true
182           	smoothSolver	1.153830e-05	7.615260e-07	1	4.496510e-05	8.848290e-07	1	false	GAMG	1.628940e-05	1.066080e-06	4	true
183           	smoothSolver	1.056450e-05	6.657350e-07	1	4.111050e-05	8.109930e-07	1	false	GAMG	1.500180e-05	9.636260e-07	4	true
184           	smoothSolver	9.731270e-06	9.731270e-06	0	3.757940e-05	7.182990e-07	1	false	GAMG	1.385210e-05	8.282070e-07	4	true
185           	smoothSolver	1.039830e-05	6.211190e-07	1	3.329030e-05	6.373120e-07	1	false	GAMG	1.288110e-05	8.013230e-07	4	true
186           	smoothSolver	7.868430e-06	7.868430e-06	0	3.163750e-05	5.899340e-07	1	false	GAMG	1.190730e-05	6.974960e-07	4	true
187           	smoothSolver	8.664680e-06	8.664680e-06	0	2.826480e-05	5.328340e-07	1	false	GAMG	1.100350e-05	6.293930e-07	4	true
188           	smoothSolver	8.705860e-06	8.705860e-06	0	2.607260e-05	4.838000e-07	1	false	GAMG	1.029510e-05	5.874690e-07	4	true
189           	smoothSolver	8.653310e-06	8.653310e-06	0	2.411190e-05	4.541350e-07	1	false	GAMG	9.519070e-06	5.302860e-07	4	true
190           	smoothSolver	8.424890e-06	8.424890e-06	0	2.246230e-05	4.170830e-07	1	false	GAMG	8.864390e-06	4.937580e-07	4	true
191           	smoothSolver	8.607990e-06	8.607990e-06	0	2.029280e-05	3.792610e-07	1	false	GAMG	8.135550e-06	9.015850e-07	3	true
192           	smoothSolver	8.481730e-06	8.481730e-06	0	1.906440e-05	3.480410e-07	1	false	GAMG	7.713160e-06	8.146910e-07	3	true
193           	smoothSolver	9.030770e-06	9.030770e-06	0	1.760410e-05	3.450500e-07	1	false	GAMG	7.249020e-06	7.377430e-07	3	true
194           	smoothSolver	9.397380e-06	9.397380e-06	0	1.665820e-05	3.370790e-07	1	false	GAMG	6.801080e-06	7.023720e-07	3	true
195           	smoothSolver	9.980680e-06	9.980680e-06	0	1.574460e-05	3.585540e-07	1	false	GAMG	6.452210e-06	6.255740e-07	3	true
196           	smoothSolver	1.099160e-05	7.342850e-07	1	1.466320e-05	3.474240e-07	1	false	GAMG	5.810890e-06	6.108820e-07	3	true
197           	smoothSolver	6.938340e-06	6.938340e-06	0	1.335890e-05	3.136410e-07	1	false	GAMG	5.505850e-06	8.939100e-07	2	true
198           	smoothSolver	8.612480e-06	8.612480e-06	0	1.252870e-05	3.051580e-07	1	false	GAMG	5.407880e-06	9.059140e-07	2	true
199           	smoothSolver	1.011260e-05	6.747500e-07	1	1.154900e-05	3.077460e-07	1	false	GAMG	4.707870e-06	8.330740e-07	2	true
200           	smoothSolver	5.866310e-06	5.866310e-06	0	1.004090e-05	2.383040e-07	1	false	GAMG	4.577980e-06	7.937130e-07	2	true
201           	smoothSolver	7.683200e-06	7.683200e-06	0	9.247010e-06	9.247010e-06	0	false	GAMG	4.720970e-06	7.427290e-07	2	true
202           	smoothSolver	9.493470e-06	9.493470e-06	0	9.815850e-06	9.815850e-06	0	false	GAMG	4.645630e-06	7.381240e-07	2	true
203           	smoothSolver	1.144490e-05	6.865500e-07	1	1.074060e-05	3.572740e-07	1	false	GAMG	3.635510e-06	6.387260e-07	2	true
204           	smoothSolver	6.420210e-06	6.420210e-06	0	8.457980e-06	8.457980e-06	0	false	GAMG	3.807320e-06	6.202250e-07	2	true
205           	smoothSolver	8.445290e-06	8.445290e-06	0	9.263520e-06	9.263520e-06	0	false	GAMG	3.708250e-06	5.612830e-07	2	true
206           	smoothSolver	1.071090e-05	6.616860e-07	1	1.061090e-05	3.419150e-07	1	false	GAMG	3.020750e-06	5.275520e-07	2	true
207           	smoothSolver	6.014110e-06	6.014110e-06	0	7.631950e-06	7.631950e-06	0	false	GAMG	3.056500e-06	9.857620e-07	1	true
208           	smoothSolver	8.105100e-06	8.105100e-06	0	8.437840e-06	8.437840e-06	0	false	GAMG	3.214770e-06	4.963240e-07	2	true
209           	smoothSolver	1.029410e-05	6.094320e-07	1	1.044160e-05	3.249110e-07	1	false	GAMG	2.405830e-06	9.097180e-07	1	true
210           	smoothSolver	5.693020e-06	5.693020e-06	0	6.360150e-06	6.360150e-06	0	false	GAMG	2.676220e-06	8.986690e-07	1	true
211           	smoothSolver	7.237150e-06	7.237150e-06	0	7.375560e-06	7.375560e-06	0	false	GAMG	2.682890e-06	8.924880e-07	1	true
212           	smoothSolver	9.304890e-06	9.304890e-06	0	8.825750e-06	8.825750e-06	0	false	GAMG	2.683950e-06	8.827030e-07	1	true
213           	smoothSolver	1.189550e-05	6.304490e-07	1	1.006070e-05	3.357690e-07	1	false	GAMG	2.096210e-06	8.219130e-07	1	true
214           	smoothSolver	6.146900e-06	6.146900e-06	0	6.088820e-06	6.088820e-06	0	false	GAMG	2.246470e-06	7.518670e-07	1	true
215           	smoothSolver	7.981550e-06	7.981550e-06	0	7.221540e-06	7.221540e-06	0	false	GAMG	2.234440e-06	7.290750e-07	1	true
216           	smoothSolver	1.003170e-05	6.041840e-07	1	8.678520e-06	8.678520e-06	0	false	GAMG	3.000240e-06	8.137550e-07	1	true
217           	smoothSolver	5.847990e-06	5.847990e-06	0	9.737680e-06	9.737680e-06	0	false	GAMG	2.823510e-06	7.553300e-07	1	true
218           	smoothSolver	7.807640e-06	7.807640e-06	0	1.143930e-05	3.193080e-07	1	false	GAMG	2.166580e-06	7.023090e-07	1	true
219           	smoothSolver	9.668640e-06	9.668640e-06	0	6.296780e-06	6.296780e-06	0	false	GAMG	1.893830e-06	6.053420e-07	1	true
220           	smoothSolver	1.170830e-05	6.321020e-07	1	7.722700e-06	7.722700e-06	0	false	GAMG	2.784650e-06	6.825880e-07	1	true
221           	smoothSolver	6.146020e-06	6.146020e-06	0	8.977630e-06	8.977630e-06	0	false	GAMG	2.403800e-06	6.243860e-07	1	true
222           	smoothSolver	8.225150e-06	8.225150e-06	0	1.082200e-05	2.657920e-07	1	false	GAMG	2.070610e-06	6.070670e-07	1	true
223           	smoothSolver	1.045620e-05	5.836130e-07	1	6.038250e-06	6.038250e-06	0	false	GAMG	2.296540e-06	5.799160e-07	1	true
224           	smoothSolver	5.711880e-06	5.711880e-06	0	7.116280e-06	7.116280e-06	0	false	GAMG	2.260010e-06	5.539490e-07	1	true
225           	smoothSolver	7.540160e-06	7.540160e-06	0	8.776920e-06	8.776920e-06	0	false	GAMG	2.025350e-06	5.157670e-07	1	true
226           	smoothSolver	9.782360e-06	9.782360e-06	0	1.091960e-05	2.580980e-07	1	false	GAMG	2.073960e-06	5.331010e-07	1	true
227           	smoothSolver	1.199710e-05	6.334080e-07	1	6.058870e-06	6.058870e-06	0	false	GAMG	2.122030e-06	5.030250e-07	1	true
228           	smoothSolver	6.067230e-06	6.067230e-06	0	7.180140e-06	7.180140e-06	0	false	GAMG	2.132620e-06	4.921110e-07	1	true
229           	smoothSolver	8.280480e-06	8.280480e-06	0	9.268990e-06	9.268990e-06	0	false	GAMG	1.900010e-06	4.606130e-07	1	true
230           	smoothSolver	1.093140e-05	5.804710e-07	1	1.207280e-05	2.568430e-07	1	false	GAMG	1.337990e-06	4.477780e-07	1	true
231           	smoothSolver	5.763360e-06	5.763360e-06	0	6.059510e-06	6.059510e-06	0	false	GAMG	1.595300e-06	4.198640e-07	1	true
232           	smoothSolver	7.518770e-06	7.518770e-06	0	7.790950e-06	7.790950e-06	0	false	GAMG	1.758170e-06	4.429540e-07	1	true