/*--------------------------------*- C++ -*----------------------------------*\
| =========                 |                                                 |
| \\      /  F ield         | OpenFOAM: The Open Source CFD Toolbox           |
|  \\    /   O peration     | Version:  v1912                                 |
|   \\  /    A nd           | Website:  www.openfoam.com                      |
|    \\/     M anipulation  |                                                 |
\*---------------------------------------------------------------------------*/
FoamFile
{
    version     2.0;
    format      ascii;
    class       volScalarField;
    location    "775";
    object      p;
}
// * * * * * * * * * * * * * * * * * * * * * * * * * * * * * * * * * * * * * //

dimensions      [0 2 -2 0 0 0 0];


internalField   nonuniform List<scalar> 
2000
(
-0.0460012
0.0714101
0.12599
0.119102
0.103274
0.0969686
0.0963634
0.0977121
0.0979295
0.0977082
0.0978483
0.0975252
0.0972676
0.0972119
0.0972696
0.0972912
0.0972481
0.0972265
0.097221
0.0972247
0.0972285
0.0972221
0.0972009
0.0971664
0.0971251
0.0970833
0.0970462
0.0970151
0.0969879
0.0969619
0.0969352
0.0969075
0.0968791
0.0968503
0.0968213
0.0967928
0.0967652
0.0967384
0.0967119
0.0966854
0.0966588
0.0966321
0.0966059
0.0965806
0.0965577
0.0965378
0.0965227
0.0965143
0.0965154
0.0965269
0.0965392
0.0965101
0.0963208
0.0957283
0.09437
0.0918549
0.0878937
0.0824367
0.0759517
0.069864
0.0662757
0.0662875
0.0708842
0.0796613
0.0916558
0.105865
0.121448
0.137618
0.153466
0.167911
0.179909
0.188583
0.193094
0.192624
0.186378
0.173685
0.153419
0.125379
0.0838598
0.0415473
0.00724596
0.0924224
0.13124
0.118045
0.100303
0.0961058
0.0996473
0.102087
0.099333
0.0960892
0.0956517
0.0969519
0.0974
0.0972679
0.0974923
0.097394
0.09727
0.0971673
0.0971325
0.0971213
0.0971392
0.0971797
0.0971869
0.0971636
0.0971286
0.0970913
0.097056
0.0970243
0.0969968
0.0969706
0.0969413
0.0969108
0.0968804
0.0968509
0.0968223
0.0967947
0.0967686
0.0967445
0.0967216
0.0966985
0.0966749
0.0966504
0.0966252
0.0965991
0.0965724
0.0965462
0.0965227
0.0965074
0.0965154
0.0965717
0.0966806
0.0967558
0.096517
0.0954059
0.0926499
0.0875861
0.08006
0.0706737
0.0610602
0.0543092
0.0539848
0.0592651
0.0676883
0.0785272
0.0913132
0.105691
0.121104
0.136792
0.151851
0.165275
0.176051
0.183199
0.185813
0.183155
0.174556
0.159476
0.137006
0.107315
0.0664125
0.0294417
0.0583138
0.0921118
0.114803
0.113246
0.104048
0.0998728
0.0999111
0.0992737
0.0973678
0.0966831
0.0982732
0.0998718
0.0988915
0.0964321
0.0955379
0.0964117
0.0972962
0.0974717
0.0973121
0.097207
0.0971486
0.0971122
0.0970937
0.0971063
0.0971145
0.0971041
0.0970741
0.0970292
0.0969925
0.0969565
0.0969279
0.096901
0.0968746
0.0968508
0.0968297
0.0968099
0.0967901
0.0967704
0.0967511
0.0967325
0.0967146
0.0966967
0.0966763
0.0966497
0.0966188
0.0966014
0.0966324
0.0967491
0.0969836
0.0973485
0.0977866
0.0980786
0.09781
0.0963616
0.0930595
0.0874876
0.0798735
0.0714213
0.0641781
0.0597125
0.058707
0.0621558
0.0694135
0.0793511
0.0911949
0.104485
0.11866
0.13291
0.146286
0.157799
0.166496
0.171519
0.172146
0.167817
0.158052
0.142508
0.120597
0.092852
0.0565606
0.025
0.083301
0.0933148
0.105865
0.109944
0.107252
0.104232
0.102572
0.10084
0.0992172
0.0984001
0.0982131
0.0981156
0.097771
0.0970763
0.0965521
0.0974961
0.0987497
0.0980113
0.0968526
0.0964502
0.0963994
0.0965728
0.0968615
0.0970861
0.0972166
0.0972956
0.0973395
0.0973159
0.0972299
0.0971282
0.097029
0.0969432
0.096879
0.0968443
0.0968264
0.0968138
0.0968
0.0967885
0.0967797
0.0967733
0.096769
0.0967652
0.0967553
0.0967302
0.0966927
0.0966746
0.0967394
0.0969339
0.0972956
0.0978256
0.0984864
0.0989314
0.0987734
0.0974736
0.0945238
0.0896949
0.0832642
0.0760359
0.0691793
0.0645793
0.0633334
0.0661257
0.0725527
0.0815956
0.0924211
0.104428
0.116962
0.129212
0.140301
0.149381
0.15569
0.15857
0.157482
0.152004
0.141777
0.126576
0.106011
0.0806908
0.0487309
0.0208076
0.0956416
0.0992421
0.106762
0.110732
0.109604
0.107275
0.105894
0.104855
0.103552
0.102101
0.100751
0.0996625
0.0989358
0.0980984
0.0971358
0.0971651
0.0977192
0.0979331
0.0977839
0.0973319
0.0969915
0.0968777
0.0969358
0.0971162
0.0973091
0.0974242
0.0973834
0.0972016
0.0970711
0.0969685
0.0968859
0.0968229
0.0967799
0.0967771
0.0968003
0.096825
0.0968454
0.0968507
0.0968456
0.0968375
0.0968281
0.0968144
0.0967873
0.0967304
0.096633
0.0965102
0.0964378
0.09656
0.0969046
0.0974339
0.0980468
0.0984795
0.0983278
0.0971038
0.0943915
0.0900523
0.0843938
0.0782305
0.0728075
0.0695414
0.0692649
0.0721987
0.0779916
0.0859286
0.0952867
0.105437
0.115749
0.125535
0.13409
0.140754
0.144939
0.146138
0.143919
0.13793
0.127859
0.113518
0.0945887
0.0716576
0.0432331
0.0181865
0.104083
0.105917
0.10987
0.112041
0.111226
0.109618
0.108659
0.107984
0.107025
0.105833
0.104705
0.103715
0.102702
0.10138
0.100006
0.0992979
0.0991676
0.0990374
0.0984716
0.097587
0.0969704
0.0967665
0.0968553
0.0970629
0.0972342
0.0973297
0.0973715
0.0973657
0.0972849
0.0971715
0.0970547
0.0969501
0.0968678
0.0968249
0.0967802
0.0967407
0.0967272
0.0967367
0.0967405
0.0967445
0.0967552
0.0967682
0.096774
0.0967635
0.0967384
0.0967283
0.0968005
0.0970362
0.0974445
0.0979676
0.0984825
0.0987553
0.0984542
0.097238
0.0948774
0.0913867
0.0871162
0.0827509
0.0791778
0.0772623
0.0775592
0.0802144
0.0850131
0.0914708
0.0990072
0.107064
0.115103
0.122576
0.128932
0.133649
0.136249
0.136304
0.13343
0.127292
0.117585
0.104109
0.0865622
0.0654748
0.0394983
0.0165469
0.110893
0.111717
0.112954
0.113292
0.112505
0.11152
0.110861
0.110322
0.109655
0.108899
0.108174
0.107455
0.106595
0.105487
0.10432
0.103466
0.102952
0.102354
0.101384
0.100284
0.0994691
0.0990293
0.0988394
0.0987491
0.098664
0.0985631
0.0984447
0.0982816
0.0980627
0.0978434
0.0976558
0.0975027
0.0973782
0.0973128
0.0974594
0.0975413
0.0975637
0.0976044
0.097669
0.0977503
0.0978465
0.0979543
0.0980678
0.0981834
0.0983072
0.0984625
0.0986894
0.0990272
0.099474
0.0999696
0.100394
0.100564
0.100248
0.0992364
0.0974165
0.0948519
0.0918272
0.0888305
0.0864636
0.0853069
0.0857613
0.0879486
0.091722
0.0967365
0.102556
0.108738
0.11485
0.120455
0.125109
0.128376
0.129843
0.12912
0.125843
0.119681
0.110318
0.0975417
0.0810357
0.0612769
0.0369556
0.0155071
0.11677
0.116716
0.1158
0.114592
0.113769
0.113251
0.112775
0.112304
0.111862
0.111424
0.110973
0.110476
0.109877
0.109135
0.10833
0.107638
0.107096
0.106468
0.105601
0.104647
0.103847
0.103279
0.10288
0.102568
0.102291
0.10203
0.10177
0.101497
0.101218
0.100966
0.100761
0.100607
0.10051
0.100501
0.100596
0.100665
0.100708
0.100779
0.100886
0.10102
0.101173
0.101342
0.101522
0.101713
0.101918
0.10215
0.102429
0.10277
0.10316
0.103541
0.103815
0.103849
0.103494
0.102622
0.101182
0.0992467
0.0970325
0.0948872
0.0932299
0.0924607
0.0928612
0.0945271
0.0973675
0.10115
0.10556
0.110256
0.114886
0.119084
0.122475
0.124677
0.125318
0.124035
0.12048
0.114323
0.105243
0.0930072
0.0772768
0.0584695
0.0352865
0.0148303
0.122174
0.121185
0.118221
0.115678
0.114922
0.114833
0.114499
0.114091
0.113826
0.113608
0.113339
0.113013
0.112625
0.112146
0.111609
0.111118
0.110705
0.110232
0.109597
0.108878
0.108227
0.107721
0.107337
0.107023
0.106741
0.106469
0.106201
0.105931
0.105668
0.105428
0.105227
0.105075
0.104981
0.104953
0.104955
0.105006
0.105073
0.105158
0.105268
0.105401
0.10555
0.105711
0.105882
0.10606
0.106246
0.106447
0.106672
0.10692
0.107175
0.10739
0.107491
0.107386
0.106975
0.106181
0.104983
0.103444
0.101728
0.100085
0.0988148
0.0982036
0.0984609
0.0996714
0.101786
0.104642
0.108005
0.111597
0.115122
0.118265
0.1207
0.12209
0.122097
0.120387
0.116626
0.11049
0.10165
0.0898496
0.0747181
0.056609
0.0342211
0.0143739
0.127404
0.125217
0.120023
0.116379
0.115915
0.116242
0.116014
0.11569
0.115605
0.115573
0.115451
0.115259
0.115018
0.114707
0.114345
0.114006
0.113715
0.113381
0.112929
0.112404
0.111918
0.111536
0.111247
0.11101
0.110793
0.110579
0.110365
0.110151
0.10994
0.109746
0.109582
0.109458
0.109382
0.109352
0.109311
0.109347
0.10941
0.109479
0.109561
0.109659
0.109769
0.109887
0.110009
0.110134
0.110261
0.110392
0.11053
0.11067
0.110795
0.110868
0.110835
0.110628
0.110178
0.109435
0.108394
0.107106
0.105698
0.104359
0.103311
0.10277
0.102899
0.103771
0.105354
0.107527
0.110103
0.112852
0.11552
0.117838
0.119517
0.120262
0.119768
0.117724
0.113815
0.107721
0.0991023
0.0876773
0.0730301
0.0554491
0.0336027
0.0141045
0.132643
0.128794
0.121101
0.11671
0.116802
0.117493
0.117322
0.117108
0.117211
0.117348
0.117358
0.117287
0.117166
0.116981
0.116746
0.116516
0.11631
0.116068
0.115736
0.115346
0.114984
0.114701
0.114489
0.114317
0.11416
0.114004
0.113846
0.113687
0.113529
0.113383
0.113258
0.113163
0.113099
0.113057
0.113026
0.113047
0.113091
0.113139
0.113196
0.113264
0.11334
0.11342
0.1135
0.113578
0.113653
0.113725
0.113793
0.113851
0.113882
0.113857
0.113735
0.113465
0.112997
0.1123
0.111373
0.110261
0.109065
0.107932
0.107032
0.106533
0.106562
0.107177
0.108356
0.110002
0.111962
0.114042
0.116025
0.117675
0.118743
0.118966
0.11807
0.11577
0.111763
0.105734
0.0973308
0.0862433
0.0720021
0.0548318
0.0333194
0.0140219
0.13801
0.131841
0.121426
0.116767
0.117634
0.118597
0.118447
0.118371
0.118657
0.118939
0.119068
0.119109
0.119099
0.119025
0.118897
0.118758
0.118624
0.118453
0.118207
0.117914
0.117638
0.117422
0.117262
0.117134
0.117018
0.116903
0.116786
0.116667
0.116549
0.116438
0.116342
0.116268
0.116216
0.11618
0.116161
0.116173
0.116205
0.116243
0.116285
0.116335
0.116388
0.116441
0.116491
0.116535
0.116571
0.116599
0.116615
0.116612
0.116577
0.116485
0.116303
0.115994
0.115522
0.114864
0.114025
0.113045
0.112003
0.111017
0.110221
0.109746
0.10969
0.1101
0.110957
0.112181
0.113643
0.115177
0.116596
0.117698
0.118263
0.118061
0.116847
0.114355
0.110295
0.104353
0.0961625
0.0853851
0.0714922
0.0546513
0.0332968
0.0141406
0.143582
0.134254
0.121034
0.116672
0.118434
0.119551
0.119418
0.119505
0.119961
0.120362
0.120596
0.12074
0.120829
0.120854
0.120822
0.120765
0.1207
0.120594
0.120423
0.120207
0.12
0.119837
0.119718
0.119625
0.119541
0.119457
0.11937
0.119281
0.119192
0.119107
0.119033
0.118974
0.118931
0.11891
0.118898
0.118905
0.118929
0.118959
0.11899
0.119025
0.11906
0.119093
0.119119
0.119136
0.119142
0.119135
0.11911
0.119061
0.118975
0.118833
0.118609
0.118274
0.117801
0.117177
0.116407
0.115526
0.1146
0.113722
0.112999
0.112534
0.112404
0.112643
0.113235
0.114109
0.115157
0.116238
0.11719
0.117839
0.117996
0.117455
0.115996
0.11337
0.109296
0.103456
0.0954717
0.084978
0.0713862
0.054819
0.0334782
0.0144646
0.149401
0.135916
0.120021
0.116539
0.1192
0.120359
0.120264
0.120533
0.121136
0.121636
0.121962
0.122198
0.122376
0.122487
0.122538
0.122556
0.122555
0.122511
0.122406
0.122258
0.122111
0.121996
0.121915
0.121853
0.121797
0.12174
0.12168
0.121615
0.121551
0.121488
0.121431
0.121386
0.121355
0.12134
0.121332
0.121337
0.121355
0.121377
0.1214
0.121423
0.121444
0.121459
0.121466
0.121461
0.121441
0.121404
0.121345
0.121258
0.121132
0.12095
0.120692
0.120336
0.119863
0.119264
0.118546
0.117739
0.116898
0.116098
0.115423
0.114954
0.114752
0.114841
0.115204
0.115784
0.116486
0.117191
0.117761
0.118046
0.11788
0.11708
0.115443
0.112733
0.108673
0.102944
0.0951511
0.0849113
0.0715788
0.0552497
0.0338146
0.0149754
0.155475
0.136719
0.118535
0.116461
0.119914
0.121033
0.121015
0.121468
0.122194
0.122777
0.123186
0.123504
0.123759
0.123945
0.124068
0.124154
0.12421
0.124222
0.124176
0.124087
0.123994
0.123922
0.123875
0.123843
0.123814
0.123782
0.123745
0.123703
0.12366
0.123616
0.123575
0.123543
0.12352
0.12351
0.123505
0.123509
0.123523
0.123539
0.123555
0.123567
0.123576
0.123577
0.123567
0.123542
0.123499
0.123436
0.123347
0.123226
0.123064
0.122847
0.122558
0.122182
0.121704
0.12112
0.120436
0.11968
0.118896
0.118144
0.117492
0.117004
0.116727
0.116679
0.116846
0.117178
0.117595
0.117998
0.118267
0.118271
0.117864
0.116878
0.115122
0.112369
0.108342
0.102721
0.0950997
0.0850811
0.0719693
0.0558581
0.0342616
0.0156288
0.161783
0.136586
0.11675
0.116485
0.120552
0.121593
0.121694
0.122321
0.123145
0.1238
0.124284
0.124675
0.124999
0.12525
0.125437
0.125581
0.12569
0.125752
0.125757
0.12572
0.125673
0.12564
0.125624
0.125619
0.125614
0.125605
0.125589
0.125567
0.125544
0.125517
0.125489
0.125468
0.125453
0.125447
0.125445
0.125449
0.125458
0.125469
0.125477
0.12548
0.125476
0.125462
0.125435
0.12539
0.125325
0.125235
0.125115
0.124961
0.124762
0.124509
0.124188
0.123787
0.123295
0.122712
0.122044
0.121314
0.120559
0.119828
0.119177
0.118656
0.118303
0.118134
0.118136
0.118267
0.118462
0.118634
0.11868
0.118482
0.117906
0.116797
0.11497
0.112202
0.10822
0.102698
0.0952249
0.0853951
0.0724689
0.0565645
0.0347814
0.0163703
0.168272
0.135508
0.114846
0.116623
0.121094
0.122062
0.122315
0.123096
0.124
0.124719
0.125271
0.125727
0.126109
0.126418
0.126661
0.126857
0.127013
0.127119
0.127169
0.127178
0.127171
0.127171
0.127183
0.127201
0.127218
0.127228
0.12723
0.127225
0.127218
0.127205
0.127189
0.127175
0.127167
0.127162
0.12716
0.12716
0.127163
0.127164
0.127161
0.127151
0.127131
0.127098
0.127049
0.12698
0.126887
0.126766
0.126612
0.126419
0.126181
0.125889
0.125531
0.1251
0.124587
0.123992
0.123324
0.122601
0.121854
0.121125
0.120458
0.119898
0.119476
0.119207
0.119079
0.119061
0.119093
0.119102
0.118993
0.11866
0.117976
0.116793
0.114929
0.112167
0.108232
0.102799
0.0954507
0.0857799
0.073009
0.057303
0.0353403
0.0171494
0.17486
0.133505
0.112985
0.116855
0.121534
0.122465
0.122889
0.123798
0.124766
0.125541
0.126152
0.126664
0.127098
0.127456
0.127746
0.127987
0.128184
0.128327
0.128416
0.128461
0.128488
0.128516
0.12855
0.128586
0.128619
0.128644
0.128658
0.128665
0.12867
0.128663
0.128651
0.128641
0.128631
0.128622
0.128613
0.128603
0.128593
0.128578
0.128557
0.128527
0.128485
0.128427
0.128351
0.128253
0.128127
0.127972
0.127781
0.127551
0.127274
0.126942
0.126549
0.126087
0.12555
0.124939
0.124262
0.123535
0.122784
0.122047
0.121361
0.120765
0.120288
0.119943
0.119723
0.1196
0.119523
0.119424
0.119217
0.1188
0.118053
0.11683
0.114954
0.112209
0.108321
0.102965
0.0957213
0.0861842
0.0735431
0.0580249
0.0359094
0.017926
0.181454
0.130675
0.111276
0.11714
0.121873
0.122816
0.123411
0.12442
0.125434
0.126255
0.126914
0.12747
0.127943
0.128339
0.128667
0.128942
0.129169
0.129342
0.129458
0.129531
0.129582
0.129628
0.129676
0.129724
0.129766
0.129798
0.129818
0.129832
0.129835
0.129825
0.129812
0.129796
0.129778
0.129758
0.129735
0.12971
0.129682
0.129648
0.129605
0.129552
0.129485
0.129402
0.129298
0.129171
0.129016
0.128829
0.128607
0.128343
0.128034
0.127672
0.12725
0.126762
0.126206
0.12558
0.124893
0.124159
0.123402
0.122654
0.121952
0.121328
0.120811
0.120415
0.120134
0.119944
0.119798
0.119633
0.119368
0.118904
0.118124
0.116886
0.115013
0.11229
0.108447
0.103157
0.0960004
0.0865753
0.0740429
0.0586995
0.0364672
0.0186731
0.187963
0.12715
0.109791
0.117428
0.122119
0.123112
0.123856
0.124931
0.125975
0.126826
0.127517
0.1281
0.128599
0.129019
0.12937
0.129667
0.129914
0.130104
0.130238
0.130327
0.130391
0.130448
0.130502
0.130553
0.130598
0.130631
0.130652
0.130662
0.130656
0.130642
0.130623
0.130598
0.130569
0.130536
0.1305
0.130459
0.130413
0.130361
0.1303
0.130227
0.13014
0.130036
0.129911
0.129761
0.129584
0.129375
0.12913
0.128844
0.128513
0.12813
0.127689
0.127185
0.126615
0.125979
0.125285
0.124546
0.123784
0.123028
0.122313
0.121671
0.121128
0.120699
0.120381
0.12015
0.119964
0.119762
0.119466
0.118979
0.118186
0.116946
0.115084
0.112386
0.108583
0.103351
0.0962668
0.0869358
0.074495
0.0593104
0.0369997
0.0193756
0.194309
0.123086
0.108569
0.117682
0.12228
0.123335
0.124183
0.125293
0.126349
0.127215
0.127923
0.12852
0.129033
0.129466
0.129829
0.130137
0.130394
0.130593
0.130735
0.130833
0.130904
0.130964
0.13102
0.131071
0.131114
0.131146
0.131165
0.131167
0.131158
0.13114
0.131114
0.131081
0.131043
0.131001
0.130954
0.130902
0.130844
0.13078
0.130706
0.13062
0.13052
0.130402
0.130264
0.130101
0.12991
0.129688
0.129429
0.12913
0.128786
0.128392
0.12794
0.127428
0.126851
0.12621
0.125512
0.124769
0.124004
0.123243
0.12252
0.121866
0.121308
0.120859
0.120519
0.120265
0.120058
0.119837
0.119526
0.119031
0.118237
0.117002
0.115156
0.112483
0.108716
0.103533
0.0965099
0.0872583
0.0748956
0.0598519
0.0374986
0.020029
0.200492
0.118753
0.107637
0.117874
0.122364
0.123467
0.124376
0.125498
0.126558
0.127432
0.128146
0.128751
0.129269
0.129708
0.130078
0.130391
0.130652
0.130855
0.131002
0.131103
0.131177
0.131238
0.131294
0.131345
0.131387
0.131417
0.131433
0.131434
0.131422
0.1314
0.13137
0.131332
0.131289
0.131241
0.131188
0.13113
0.131066
0.130994
0.130914
0.130821
0.130714
0.130589
0.130444
0.130274
0.130076
0.129847
0.129582
0.129277
0.128927
0.128527
0.128072
0.127555
0.126975
0.126333
0.125633
0.124889
0.124122
0.123358
0.12263
0.121969
0.121402
0.120942
0.12059
0.120325
0.120107
0.119878
0.119563
0.119067
0.118277
0.117053
0.115223
0.112574
0.108839
0.103698
0.096727
0.0875429
0.0752477
0.0603262
0.0379607
0.0206373
0.206655
0.114665
0.107002
0.117991
0.122381
0.123516
0.124455
0.125584
0.126646
0.127523
0.128241
0.128849
0.12937
0.129812
0.130184
0.1305
0.130764
0.130968
0.131117
0.13122
0.131294
0.131356
0.131413
0.131464
0.131505
0.131533
0.131548
0.13155
0.131536
0.131512
0.13148
0.131441
0.131395
0.131345
0.131289
0.131228
0.131161
0.131087
0.131003
0.130907
0.130797
0.13067
0.130521
0.130349
0.130149
0.129917
0.12965
0.129343
0.128991
0.128589
0.128132
0.127615
0.127035
0.126392
0.125692
0.124948
0.12418
0.123415
0.122684
0.122019
0.121446
0.120981
0.120622
0.120351
0.120129
0.119898
0.119584
0.119092
0.118309
0.117097
0.115283
0.112657
0.108952
0.103848
0.0969228
0.0877973
0.0755625
0.0607463
0.0383921
0.0212198
0.212752
0.111458
0.106606
0.11804
0.122361
0.123509
0.124463
0.125598
0.126664
0.127543
0.128264
0.128873
0.129396
0.12984
0.130213
0.13053
0.130795
0.131
0.13115
0.131253
0.131329
0.131391
0.131448
0.131498
0.131539
0.131567
0.131582
0.131584
0.13157
0.131546
0.131514
0.131474
0.131428
0.131376
0.13132
0.131258
0.131191
0.131116
0.131031
0.130935
0.130824
0.130696
0.130547
0.130374
0.130173
0.129941
0.129673
0.129366
0.129014
0.128613
0.128156
0.12764
0.12706
0.126418
0.125719
0.124976
0.124208
0.123441
0.122709
0.122041
0.121465
0.120996
0.120635
0.120361
0.120138
0.119908
0.119597
0.119111
0.118336
0.117136
0.11534
0.112736
0.109058
0.103989
0.0971063
0.0880345
0.0758563
0.0611347
0.0388044
0.0218096
0.217479
0.109516
0.106381
0.118067
0.122339
0.123485
0.124447
0.125588
0.126656
0.127538
0.12826
0.12887
0.129394
0.129838
0.130212
0.130529
0.130794
0.131
0.131149
0.131253
0.131329
0.131392
0.131449
0.131499
0.131541
0.13157
0.131585
0.131586
0.131572
0.131548
0.131516
0.131476
0.13143
0.131379
0.131322
0.131261
0.131193
0.131118
0.131034
0.130938
0.130827
0.130699
0.13055
0.130378
0.130177
0.129945
0.129679
0.129372
0.129021
0.12862
0.128165
0.127649
0.127071
0.12643
0.125732
0.124989
0.124221
0.123454
0.12272
0.122051
0.121473
0.121002
0.120639
0.120364
0.120141
0.119913
0.119605
0.119125
0.118359
0.117171
0.11539
0.112805
0.109152
0.104115
0.0972686
0.088244
0.0761145
0.0614774
0.0391632
0.0223713
)
;

boundaryField
{
    inlet
    {
        type            zeroGradient;
    }
    outlet
    {
        type            fixedValue;
        value           uniform 0;
    }
    fixedWalls
    {
        type            zeroGradient;
    }
    frontAndBack
    {
        type            empty;
    }
}


// ************************************************************************* //
