/*--------------------------------*- C++ -*----------------------------------*\
| =========                 |                                                 |
| \\      /  F ield         | OpenFOAM: The Open Source CFD Toolbox           |
|  \\    /   O peration     | Version:  v1912                                 |
|   \\  /    A nd           | Website:  www.openfoam.com                      |
|    \\/     M anipulation  |                                                 |
\*---------------------------------------------------------------------------*/
FoamFile
{
    version     2.0;
    format      ascii;
    class       surfaceScalarField;
    location    "775";
    object      phi;
}
// * * * * * * * * * * * * * * * * * * * * * * * * * * * * * * * * * * * * * //

dimensions      [0 3 -1 0 0 0 0];
oriented        oriented;


internalField   nonuniform List<scalar> 
3895
(
0.000814746
0.00038143
0.000499361
0.000315385
0.000251565
0.000247796
6.4863e-05
0.000186702
-6.21962e-05
0.000127059
-0.000127327
6.51304e-05
-0.000137639
1.0312e-05
-0.000113632
-2.40063e-05
-9.03514e-05
-2.32808e-05
-8.49476e-05
-5.40388e-06
-6.61301e-05
-1.88175e-05
-4.47464e-05
-2.13836e-05
-4.04657e-05
-4.28067e-06
-4.86717e-05
8.20592e-06
-4.57134e-05
-2.95824e-06
-3.20542e-05
-1.36592e-05
-2.51422e-05
-6.91204e-06
-2.59248e-05
7.82628e-07
-2.89465e-05
3.02176e-06
-3.04901e-05
1.54358e-06
-2.91879e-05
-1.30218e-06
-2.49005e-05
-4.28745e-06
-1.85775e-05
-6.32295e-06
-1.19704e-05
-6.60713e-06
-6.19331e-06
-5.7771e-06
-1.88898e-06
-4.30433e-06
8.54364e-07
-2.74335e-06
2.46136e-06
-1.60699e-06
3.51167e-06
-1.05031e-06
4.41286e-06
-9.01189e-07
5.29493e-06
-8.82079e-07
6.13504e-06
-8.4011e-07
6.91628e-06
-7.81231e-07
7.6042e-06
-6.8792e-07
8.12782e-06
-5.23626e-07
8.42097e-06
-2.93152e-07
8.43107e-06
-1.00958e-08
8.06506e-06
3.66014e-07
7.32639e-06
7.38672e-07
6.16908e-06
1.1573e-06
4.50866e-06
1.66042e-06
2.23193e-06
2.27673e-06
-7.8836e-07
3.02029e-06
-4.67754e-06
3.88918e-06
-9.54886e-06
4.87132e-06
-1.55445e-05
5.99567e-06
-2.29815e-05
7.43695e-06
-3.25469e-05
9.56543e-06
-4.55495e-05
1.30026e-05
-6.41261e-05
1.85766e-05
-9.11699e-05
2.70438e-05
-0.000129715
3.85451e-05
-0.000182099
5.23837e-05
-0.00024926
6.71614e-05
-0.000329863
8.06029e-05
-0.000419479
8.96163e-05
-0.000510795
9.13152e-05
-0.000594925
8.41302e-05
-0.000663001
6.80759e-05
-0.00070628
4.32798e-05
-0.000713795
7.51495e-06
-0.00069604
-1.77553e-05
-0.000657336
-3.87044e-05
-0.000601256
-5.60795e-05
-0.000531698
-6.95586e-05
-0.000451696
-8.00016e-05
-0.00036323
-8.84659e-05
-0.000267835
-9.53951e-05
-0.000167111
-0.000100724
-6.27535e-05
-0.000104358
4.32675e-05
-0.000106021
0.000148975
-0.000105707
0.000252779
-0.000103804
0.000353311
-0.000100532
0.000449675
-9.63638e-05
0.000541786
-9.21116e-05
0.000629892
-8.81055e-05
0.00071712
-8.7228e-05
0.000803821
-8.67008e-05
-0.000107447
0.00108795
0.000349294
0.00104738
0.000355946
0.000933278
0.000361903
0.000775747
0.000344233
0.000598431
0.000304375
0.000410383
0.000253178
0.000221248
0.000199447
5.3877e-05
0.000143365
-6.04246e-05
9.10208e-05
-0.000110188
4.43597e-05
-0.000131882
2.87623e-06
-0.000123967
-2.92984e-05
-0.00010567
-2.25782e-05
-0.000107782
1.03181e-05
-0.000103373
-7.36679e-06
-9.07473e-05
-2.62852e-05
-7.67549e-05
-2.09043e-05
-7.8867e-05
2.8947e-06
-8.71342e-05
1.1289e-05
-9.26353e-05
7.04461e-06
-9.45906e-05
6.53123e-07
-9.09631e-05
-7.91491e-06
-8.48077e-05
-1.24784e-05
-7.80668e-05
-1.33479e-05
-7.15001e-05
-1.23439e-05
-6.58382e-05
-9.96618e-06
-6.17006e-05
-6.88102e-06
-5.95476e-05
-3.75999e-06
-5.92558e-05
-1.34209e-06
-6.03329e-05
1.75889e-07
-6.2569e-05
1.35407e-06
-6.52846e-05
1.87547e-06
-6.81693e-05
2.10348e-06
-7.11393e-05
2.28205e-06
-7.43207e-05
2.65781e-06
-7.78618e-05
3.24793e-06
-8.18818e-05
4.00995e-06
-8.64235e-05
4.90767e-06
-9.16009e-05
5.91613e-06
-9.74654e-05
7.02176e-06
-0.000104031
8.22582e-06
-0.000111295
9.54107e-06
-0.000119247
1.09722e-05
-0.000127851
1.24931e-05
-0.000137024
1.40449e-05
-0.000146635
1.56059e-05
-0.000156564
1.73662e-05
-0.000166802
1.98038e-05
-0.000177467
2.36673e-05
-0.000188697
2.98064e-05
-0.000200709
3.90556e-05
-0.000213829
5.16658e-05
-0.000228099
6.66533e-05
-0.000242686
8.17488e-05
-0.000255432
9.33483e-05
-0.000262485
9.66691e-05
-0.000259042
8.7872e-05
-0.000240972
6.60612e-05
-0.00020701
3.41134e-05
-0.000166073
2.34285e-06
-0.000119505
-3.90527e-05
-6.75688e-05
-6.96918e-05
-1.30593e-05
-9.32138e-05
4.30791e-05
-0.000112218
0.000102451
-0.000128931
0.00016629
-0.00014384
0.000234511
-0.000156688
0.000306094
-0.000166978
0.000379512
-0.000174141
0.000452983
-0.000177829
0.000524967
-0.000178005
0.000594217
-0.000174957
0.000659652
-0.00016924
0.000720696
-0.000161576
0.00077718
-0.000152848
0.00082921
-0.000144141
0.000877646
-0.000136542
0.00092252
-0.000132102
0.00096655
-0.000130731
-0.000142024
0.000975282
0.000305926
0.00102604
0.000305187
0.00106097
0.000326974
0.00105862
0.000346584
0.00101217
0.00035082
0.000925048
0.000340304
0.000805752
0.000318743
0.000661765
0.000287352
0.000504928
0.000247857
0.000345844
0.000203445
0.000190168
0.000158552
4.70571e-05
0.000113812
-4.98373e-05
7.43162e-05
-8.59839e-05
4.64647e-05
-0.000105868
1.25175e-05
-0.000113872
-1.82813e-05
-0.000101869
-3.29078e-05
-9.15488e-05
-7.42509e-06
-9.90016e-05
1.87418e-05
-0.000108459
1.65021e-05
-0.000114965
7.15865e-06
-0.000119603
-3.27672e-06
-0.000121682
-1.0399e-05
-0.000120588
-1.44421e-05
-0.000118965
-1.39666e-05
-0.000118701
-1.02304e-05
-0.000120395
-5.18677e-06
-0.000124217
6.18393e-08
-0.000128302
2.74278e-06
-0.000132815
4.68931e-06
-0.000137359
5.89784e-06
-0.000141965
6.48094e-06
-0.000146507
6.64601e-06
-0.000150891
6.66566e-06
-0.000155171
6.93845e-06
-0.000159507
7.58351e-06
-0.000163996
8.49867e-06
-0.000168626
9.53787e-06
-0.000173329
1.06196e-05
-0.000178027
1.17196e-05
-0.000182632
1.28304e-05
-0.000187049
1.39582e-05
-0.00019117
1.50928e-05
-0.000194806
1.61295e-05
-0.000197598
1.68368e-05
-0.000198877
1.68853e-05
-0.000197609
1.60976e-05
-0.000192772
1.4967e-05
-0.000183383
1.4278e-05
-0.000168367
1.47907e-05
-0.00014634
1.70289e-05
-0.000116574
2.18991e-05
-7.82305e-05
2.83103e-05
-3.0718e-05
3.42363e-05
2.56432e-05
3.69872e-05
8.82682e-05
3.40441e-05
0.000152624
2.35162e-05
0.000212463
6.22199e-06
0.00026716
-2.05838e-05
0.000319168
-4.96644e-05
0.000361584
-8.14692e-05
0.000402684
-0.000110792
0.000445959
-0.000136489
0.000492991
-0.00015925
0.000543302
-0.000179241
0.000595529
-0.000196067
0.000647964
-0.000209123
0.000698897
-0.000217911
0.000746914
-0.000222158
0.000790982
-0.000221898
0.00083047
-0.000217494
0.000865106
-0.000209592
0.00089492
-0.000199054
0.00092021
-0.000186866
0.000941452
-0.00017409
0.000959152
-0.000161841
0.000973912
-0.000151302
0.000985609
-0.000143798
0.000995306
-0.000140428
-0.00014486
0.000857109
0.000271374
0.000897355
0.000264941
0.000950164
0.000274165
0.00100471
0.000292042
0.00104637
0.000309153
0.00106531
0.000321372
0.00105664
0.000327411
0.00101794
0.000326054
0.000949552
0.000316241
0.00085508
0.000297917
0.000740895
0.000272737
0.000611932
0.000242776
0.000476494
0.000209754
0.000348327
0.000174632
0.000223535
0.00013731
0.000102247
0.000103006
-1.41879e-07
6.9481e-05
-5.1631e-05
4.40641e-05
-6.28809e-05
2.99917e-05
-6.47458e-05
1.83669e-05
-6.70969e-05
9.50969e-06
-7.30025e-05
2.62889e-06
-8.04641e-05
-2.93731e-06
-8.89866e-05
-5.91962e-06
-9.63311e-05
-6.62217e-06
-0.000101823
-4.73809e-06
-0.000106777
-2.33227e-07
-0.000112137
5.42229e-06
-0.000117725
8.33088e-06
-0.000122878
9.84221e-06
-0.000127265
1.02847e-05
-0.000130815
1.00306e-05
-0.000133592
9.42302e-06
-0.000135425
8.49887e-06
-0.000136639
8.15209e-06
-0.000137322
8.26699e-06
-0.000137524
8.70076e-06
-0.000136964
8.97734e-06
-0.000135486
9.14188e-06
-0.000132973
9.20647e-06
-0.000129287
9.14421e-06
-0.000124269
8.94019e-06
-0.000117785
8.60864e-06
-0.000109657
8.0019e-06
-9.96358e-05
6.8156e-06
-8.7498e-05
4.74752e-06
-7.23325e-05
9.32153e-07
-5.41923e-05
-3.1733e-06
-3.19927e-05
-7.92151e-06
-4.2092e-06
-1.29928e-05
3.04447e-05
-1.7625e-05
7.39512e-05
-2.16074e-05
0.000127097
-2.48354e-05
0.000189232
-2.78992e-05
0.000258262
-3.20423e-05
0.000331178
-3.88715e-05
0.000404601
-4.99074e-05
0.000476914
-6.60906e-05
0.000543811
-8.7481e-05
0.000606003
-0.000111856
0.000662017
-0.000137483
0.000713553
-0.000162328
0.000761931
-0.000184867
0.000807068
-0.000204386
0.000848206
-0.000220379
0.00088447
-0.000232331
0.000915164
-0.000239817
0.000939897
-0.000242643
0.000958645
-0.000240906
0.000971731
-0.000234984
0.000979743
-0.000225505
0.00098343
-0.00021328
0.00098361
-0.000199234
0.000981074
-0.000184329
0.000976514
-0.000169531
0.000970444
-0.00015577
0.000963158
-0.000144016
0.000954491
-0.000135131
0.0009443
-0.000130237
-0.000130316
0.000759397
0.000238011
0.000790536
0.000233802
0.000828351
0.000236349
0.000874985
0.000245408
0.000927002
0.000257137
0.000978871
0.000269503
0.00102441
0.000281869
0.00105755
0.000292918
0.00107319
0.000300602
0.00106786
0.000303244
0.00104042
0.000300179
0.000991565
0.000291629
0.000923239
0.00027808
0.00083886
0.000259011
0.000741525
0.000234645
0.000636635
0.000207896
0.00053215
0.000173966
0.000433901
0.000142313
0.000348946
0.000114947
0.000276032
9.12809e-05
0.000213748
7.17934e-05
0.000160428
5.59492e-05
0.000114128
4.33629e-05
7.45219e-05
3.3686e-05
4.17005e-05
2.61993e-05
1.65753e-05
2.03871e-05
3.28661e-07
1.60134e-05
-7.28689e-06
1.30378e-05
-9.51662e-06
1.05606e-05
-8.29462e-06
8.6202e-06
-4.99107e-06
6.98118e-06
-4.52453e-07
5.49199e-06
4.91234e-06
4.05823e-06
1.07756e-05
2.63563e-06
1.71446e-05
1.78304e-06
2.46946e-05
7.17038e-07
3.39233e-05
-5.27927e-07
4.4774e-05
-1.8734e-06
5.75524e-05
-3.63653e-06
7.252e-05
-5.76109e-06
8.99504e-05
-8.28623e-06
0.000110134
-1.12429e-05
0.000133398
-1.4656e-05
0.000159989
-1.8589e-05
0.000189962
-2.31569e-05
0.000223205
-2.84957e-05
0.000258802
-3.46647e-05
0.000297009
-4.13811e-05
0.000337556
-4.8468e-05
0.000380252
-5.5689e-05
0.00042531
-6.26826e-05
0.000472925
-6.9223e-05
0.000523458
-7.53676e-05
0.000577063
-8.15047e-05
0.000633401
-8.83801e-05
0.000691466
-9.69365e-05
0.000749595
-0.000108037
0.000805621
-0.000122116
0.00085713
-0.00013899
0.000902953
-0.00015768
0.000942319
-0.000176849
0.000975079
-0.000195088
0.00100133
-0.000211114
0.00102099
-0.000224054
0.001034
-0.000233383
0.00104044
-0.000238778
0.00104072
-0.000240095
0.00103549
-0.000237414
0.00102563
-0.000231046
0.00101215
-0.000221499
0.000996073
-0.000209431
0.000978382
-0.000195589
0.000959905
-0.000180757
0.000941287
-0.000165712
0.000922958
-0.000151201
0.000905107
-0.00013792
0.000887668
-0.000126578
0.000870267
-0.00011773
0.00085226
-0.000112231
-0.000110215
0.000672433
0.000206414
0.000702275
0.000203961
0.000733372
0.000205252
0.000767839
0.00021094
0.000806614
0.000218362
0.000850036
0.000226081
0.000897301
0.000234604
0.000946031
0.000244187
0.000992641
0.000253992
0.00103305
0.000262834
0.00106349
0.000269743
0.00108117
0.000273948
0.00108444
0.000274805
0.00107207
0.000271382
0.0010437
0.000263018
0.00100103
0.000250564
0.000949033
0.000225965
0.000891657
0.000199689
0.000831902
0.000174702
0.000772159
0.000151024
0.000714627
0.000129325
0.000660591
0.000109985
0.000610856
9.30983e-05
0.000566009
7.85327e-05
0.000526253
6.59555e-05
0.000491567
5.50729e-05
0.000461926
4.56551e-05
0.000437544
3.7419e-05
0.000418085
3.00197e-05
0.000403328
2.33778e-05
0.000392953
1.73559e-05
0.000386614
1.18311e-05
0.00038403
6.64193e-06
0.000385389
1.27715e-06
0.000390378
-3.20615e-06
0.000399017
-7.92205e-06
0.000411179
-1.26898e-05
0.000426772
-1.74663e-05
0.000445524
-2.23886e-05
0.00046725
-2.74874e-05
0.000491742
-3.27778e-05
0.000518783
-3.82843e-05
0.00054816
-4.40333e-05
0.00057963
-5.00585e-05
0.000612874
-5.64013e-05
0.000647466
-6.30878e-05
0.000682892
-7.00901e-05
0.000718777
-7.72668e-05
0.00075474
-8.44304e-05
0.000790439
-9.13886e-05
0.00082571
-9.79533e-05
0.000860518
-0.000104031
0.00089487
-0.000109719
0.0009287
-0.000115335
0.000961715
-0.000121395
0.000993289
-0.00012851
0.00102245
-0.0001372
0.00104803
-0.000147698
0.00106886
-0.00015982
0.00108409
-0.000172909
0.00109322
-0.000185978
0.0010961
-0.000197967
0.00109292
-0.000207934
0.00108407
-0.000215207
0.0010701
-0.00021941
0.00105171
-0.000220385
0.00102976
-0.000218146
0.00100521
-0.000212871
0.00097906
-0.000204891
0.000952222
-0.000194661
0.000925507
-0.000182716
0.000899553
-0.000169635
0.000874807
-0.000156011
0.00085152
-0.000142425
0.000829756
-0.000129437
0.000809395
-0.000117559
0.000790141
-0.000107324
0.000771475
-9.90643e-05
0.000752761
-9.35169e-05
-9.02305e-05
0.000594386
0.000177665
0.00062317
0.000175177
0.000652323
0.000176099
0.000682115
0.000181149
0.000712924
0.000187552
0.000745613
0.000193392
0.000781181
0.000199036
0.000820193
0.000205175
0.000862411
0.000211774
0.000906707
0.000218538
0.000951215
0.000225234
0.000993659
0.000231504
0.00103171
0.000236754
0.00106298
0.000240113
0.0010853
0.000240698
0.00109753
0.000238336
0.00109977
0.000223726
0.00109369
0.000205769
0.00108083
0.000187562
0.00106268
0.000169173
0.00104092
0.000151079
0.00101711
0.000133794
0.000992589
0.000117624
0.000968437
0.000102685
0.000945445
8.89479e-05
0.00092419
7.63277e-05
0.000905124
6.47211e-05
0.000888569
5.39746e-05
0.000874662
4.39265e-05
0.000863545
3.44945e-05
0.000855296
2.56052e-05
0.000849956
1.71705e-05
0.000847513
9.08487e-06
0.000847392
1.39833e-06
0.000850322
-6.13582e-06
0.000855756
-1.33563e-05
0.000863526
-2.046e-05
0.000873486
-2.74264e-05
0.000885379
-3.42814e-05
0.000898948
-4.10558e-05
0.000913934
-4.77647e-05
0.00093007
-5.44199e-05
0.000947071
-6.10346e-05
0.000964636
-6.76231e-05
0.000982431
-7.41965e-05
0.00100009
-8.07493e-05
0.00101724
-8.72394e-05
0.00103354
-9.35691e-05
0.00104872
-9.96071e-05
0.00106256
-0.000105232
0.00107497
-0.00011036
0.00108593
-0.000114986
0.00109544
-0.000119237
0.00110349
-0.000123383
0.00110991
-0.000127814
0.00111436
-0.000132953
0.00111629
-0.000139139
0.0011151
-0.000146499
0.00111015
-0.00015487
0.00110101
-0.000163771
0.00108753
-0.000172504
0.00106988
-0.00018031
0.00104846
-0.000186518
0.00102389
-0.000190639
0.000996876
-0.000192393
0.000968166
-0.000191675
0.000938537
-0.000188517
0.00090873
-0.000183063
0.000879403
-0.000175564
0.000851092
-0.000166351
0.000824192
-0.000155816
0.000798948
-0.000144391
0.000775467
-0.000132529
0.000753727
-0.000120685
0.000733601
-0.000109311
0.000714853
-9.88106e-05
0.00069715
-8.96203e-05
0.000679988
-8.19026e-05
0.000662898
-7.64275e-05
-7.20234e-05
0.000525111
0.000151816
0.000551936
0.000148352
0.000579146
0.000148889
0.000606467
0.000153827
0.000634006
0.000160013
0.000661953
0.000165445
0.000690628
0.000170361
0.000720605
0.000175198
0.000752535
0.000179845
0.000786873
0.000184199
0.000823722
0.000188386
0.00086273
0.000192496
0.00090308
0.000196403
0.000943486
0.000199707
0.000982309
0.000201875
0.00101803
0.000202617
0.00104832
0.000193431
0.00107278
0.000181313
0.00109162
0.000168723
0.00110524
0.000155554
0.00111427
0.000142043
0.00111951
0.000128557
0.00112176
0.000115375
0.00112179
0.000102653
0.00112029
9.04531e-05
0.00111783
7.87839e-05
0.00111492
6.7628e-05
0.00111196
5.6942e-05
0.00110921
4.66685e-05
0.00110693
3.67739e-05
0.0011053
2.72403e-05
0.00110443
1.80428e-05
0.00110434
9.16912e-06
0.00110497
7.69125e-07
0.00110642
-7.58125e-06
0.00110849
-1.543e-05
0.00111107
-2.30428e-05
0.00111406
-3.04177e-05
0.00111733
-3.75498e-05
0.00112073
-4.44528e-05
0.0011241
-5.11364e-05
0.00112729
-5.76056e-05
0.00113012
-6.38662e-05
0.00113242
-6.99247e-05
0.00113401
-7.57836e-05
0.00113469
-8.14333e-05
0.00113429
-8.68416e-05
0.00113267
-9.19478e-05
0.00112974
-9.66761e-05
0.00112547
-0.000100964
0.0011199
-0.000104789
0.00111311
-0.000108192
0.00110518
-0.000111305
0.00109615
-0.000114354
0.00108597
-0.000117634
0.00107446
-0.000121449
0.00106135
-0.000126029
0.00104631
-0.000131453
0.00102903
-0.00013759
0.00100935
-0.000144097
0.000987322
-0.000150473
0.000963178
-0.000156166
0.000937327
-0.000160668
0.000910276
-0.000163588
0.000882559
-0.000164676
0.0008547
-0.000163816
0.000827177
-0.000160994
0.000800399
-0.000156285
0.000774686
-0.000149851
0.000750259
-0.000141924
0.000727248
-0.000132804
0.000705693
-0.000122836
0.000685566
-0.000112402
0.00066678
-0.000101899
0.000649197
-9.17274e-05
0.00063262
-8.2234e-05
0.000616796
-7.37954e-05
0.000601328
-6.64356e-05
0.000585891
-6.09902e-05
-5.55413e-05
0.00046394
0.000128551
0.000488639
0.000123652
0.00051348
0.000124049
0.000538159
0.000129148
0.000563122
0.00013505
0.000588445
0.000140122
0.00061397
0.000144837
0.000639764
0.000149404
0.000666083
0.000153526
0.000693245
0.000157037
0.00072161
0.00016002
0.00075152
0.000162587
0.00078317
0.000164753
0.000816474
0.000166403
0.000850999
0.00016735
0.000886112
0.000167504
0.000919682
0.000159861
0.000950826
0.000150169
0.000979171
0.000140378
0.00100445
0.000130273
0.00102659
0.000119901
0.0010457
0.000109451
0.00106199
9.90851e-05
0.00107574
8.88982e-05
0.00108726
7.89322e-05
0.00109685
6.92003e-05
0.00110477
5.97039e-05
0.00111128
5.04334e-05
0.00111658
4.13721e-05
0.00112083
3.25165e-05
0.0011242
2.38783e-05
0.00112677
1.54719e-05
0.00112862
7.31664e-06
0.00112982
-4.35628e-07
0.00113032
-8.08037e-06
0.00113018
-1.52849e-05
0.00112936
-2.22243e-05
0.00112785
-2.89077e-05
0.00112563
-3.53277e-05
0.00112266
-4.14866e-05
0.00111892
-4.73897e-05
0.00111435
-5.30407e-05
0.00110893
-5.84438e-05
0.00110261
-6.36037e-05
0.00109535
-6.85224e-05
0.00108711
-7.31937e-05
0.00107786
-7.75981e-05
0.00106762
-8.1701e-05
0.0010564
-8.54624e-05
0.00104429
-8.88556e-05
0.00103139
-9.18867e-05
0.00101781
-9.46115e-05
0.00100365
-9.7149e-05
0.000988982
-9.96812e-05
0.000973779
-0.000102431
0.000957952
-0.000105622
0.00094134
-0.000109417
0.000923754
-0.000113867
0.000905036
-0.000118872
0.000885114
-0.000124174
0.000864037
-0.000129397
0.000841979
-0.000134108
0.000819205
-0.000137894
0.000796031
-0.000140414
0.000772778
-0.000141424
0.000749742
-0.000140779
0.000727171
-0.000138423
0.000705267
-0.00013438
0.000684169
-0.000128753
0.000663967
-0.000121722
0.000644702
-0.000113539
0.000626379
-0.000104513
0.000608975
-9.49985e-05
0.000592446
-8.53699e-05
0.000576721
-7.60026e-05
0.000561697
-6.72098e-05
0.000547214
-5.93129e-05
0.000533009
-5.223e-05
0.000518797
-4.67783e-05
-4.04778e-05
0.000410014
0.000107501
0.000432754
0.000100912
0.000455183
0.00010162
0.000477152
0.000107179
0.000499455
0.000112747
0.000522203
0.000117374
0.000545203
0.000121836
0.00056844
0.000126167
0.00059194
0.000130026
0.000615686
0.00013329
0.000639722
0.000135985
0.000664189
0.000138119
0.000689281
0.000139662
0.000715152
0.000140532
0.000741864
0.000140638
0.000769388
0.000139981
0.000796435
0.000132815
0.000822523
0.000124082
0.000847429
0.000115471
0.000870887
0.000106815
0.000892681
9.81069e-05
0.000912686
8.9446e-05
0.000930852
8.092e-05
0.00094718
7.25693e-05
0.000961712
6.44009e-05
0.000974505
5.6407e-05
0.000985633
4.85763e-05
0.00099517
4.08959e-05
0.00100319
3.33537e-05
0.00100976
2.59491e-05
0.00101494
1.86964e-05
0.00101879
1.16175e-05
0.00102137
4.74096e-06
0.0010228
-1.86727e-06
0.00102303
-8.31105e-06
0.00102221
-1.44662e-05
0.00102036
-2.03725e-05
0.0010175
-2.60522e-05
0.00101368
-3.15033e-05
0.00100892
-3.67241e-05
0.00100325
-4.17175e-05
0.000996692
-4.64876e-05
0.000989286
-5.10382e-05
0.000981056
-5.53728e-05
0.000972026
-5.94929e-05
0.000962226
-6.33942e-05
0.000951692
-6.70638e-05
0.000940472
-7.0481e-05
0.000928633
-7.36235e-05
0.000916259
-7.64809e-05
0.000903441
-7.90695e-05
0.000890274
-8.14438e-05
0.000876829
-8.37046e-05
0.000863145
-8.5997e-05
0.000849207
-8.84933e-05
0.000834947
-9.13616e-05
0.000820254
-9.47234e-05
0.000804999
-9.8613e-05
0.000789076
-0.000102948
0.000772426
-0.000107525
0.00075507
-0.000112041
0.000737102
-0.000116139
0.000718671
-0.000119463
0.00069996
-0.000121703
0.000681152
-0.000122615
0.000662411
-0.000122039
0.000643878
-0.00011989
0.000625661
-0.000116164
0.000607845
-0.000110936
0.000590488
-0.000104366
0.000573636
-9.66868e-05
0.000557322
-8.82e-05
0.000541577
-7.92529e-05
0.000526419
-7.02123e-05
0.000511854
-6.14371e-05
0.000497859
-5.32146e-05
0.000484348
-4.58027e-05
0.000471171
-3.90527e-05
0.000458009
-3.36164e-05
-2.67816e-05
0.000362528
8.82933e-05
0.000383496
7.99438e-05
0.000403597
8.15192e-05
0.000423064
8.77118e-05
0.00044288
9.29311e-05
0.000463078
9.71768e-05
0.000483524
0.00010139
0.000504297
0.000105394
0.00052542
0.000108903
0.000546805
0.000111905
0.000568367
0.000114423
0.000590058
0.000116428
0.000611865
0.000117854
0.000633785
0.000118613
0.000655815
0.000118608
0.000677971
0.000117824
0.000699348
0.000111438
0.00071975
0.000103679
0.00073919
9.60319e-05
0.000757603
8.84019e-05
0.00077491
8.07994e-05
0.000791051
7.33055e-05
0.000805981
6.59893e-05
0.000819673
5.88775e-05
0.000832108
5.19664e-05
0.000843275
4.52393e-05
0.000853174
3.86773e-05
0.000861808
3.2262e-05
0.000869184
2.59774e-05
0.000875316
1.98179e-05
0.000880221
1.37914e-05
0.000883926
7.91246e-06
0.000886473
2.19319e-06
0.000887934
-3.32802e-06
0.000888327
-8.70366e-06
0.000887738
-1.38779e-05
0.00088621
-1.88438e-05
0.000883776
-2.36189e-05
0.00088048
-2.82071e-05
0.000876363
-3.26067e-05
0.000871465
-3.68196e-05
0.000865826
-4.08488e-05
0.000859485
-4.46973e-05
0.000852479
-4.83669e-05
0.000844844
-5.18573e-05
0.000836613
-5.5164e-05
0.000827826
-5.82768e-05
0.000818526
-6.1181e-05
0.000808766
-6.38628e-05
0.000798604
-6.63192e-05
0.000788103
-6.8569e-05
0.000777322
-7.06625e-05
0.000766303
-7.26854e-05
0.000755063
-7.47568e-05
0.000743585
-7.70152e-05
0.000731817
-7.95934e-05
0.000719679
-8.25856e-05
0.000707081
-8.60155e-05
0.000693945
-8.98119e-05
0.000680223
-9.38034e-05
0.000665916
-9.77331e-05
0.000651069
-0.000101292
0.000635767
-0.000104161
0.000620112
-0.000106048
0.000604212
-0.000106715
0.000588167
-0.000105994
0.000572067
-0.00010379
0.000555993
-0.00010009
0.000540023
-9.49661e-05
0.000524233
-8.85755e-05
0.000508703
-8.11565e-05
0.000493516
-7.30133e-05
0.000478756
-6.44936e-05
0.000464502
-5.59576e-05
0.000450809
-4.77443e-05
0.00043771
-4.01161e-05
0.000425163
-3.32554e-05
0.000413099
-2.69889e-05
0.000401126
-2.16433e-05
-1.46517e-05
0.000320758
7.05686e-05
0.000340087
6.06147e-05
0.000357962
6.3644e-05
0.000375206
7.04679e-05
0.000392819
7.53176e-05
0.00041069
7.93065e-05
0.000428757
8.33231e-05
0.000447162
8.69891e-05
0.000465939
9.01263e-05
0.000485023
9.28205e-05
0.000504347
9.50997e-05
0.000523846
9.69281e-05
0.000543446
9.82545e-05
0.000563056
9.90022e-05
0.000582581
9.90829e-05
0.000601945
9.84602e-05
0.000620301
9.30823e-05
0.000637492
8.6487e-05
0.000653584
7.99401e-05
0.000668602
7.33841e-05
0.000682559
6.68421e-05
0.000695473
6.03918e-05
0.000707362
5.41004e-05
0.000718242
4.7997e-05
0.000728127
4.20815e-05
0.000737026
3.63407e-05
0.000744946
3.07576e-05
0.000751893
2.53151e-05
0.000757873
1.99972e-05
0.000762894
1.47968e-05
0.000766967
9.71803e-06
0.000770108
4.77145e-06
0.000772352
-5.00798e-08
0.000773729
-4.70502e-06
0.000774262
-9.2367e-06
0.000773991
-1.36077e-05
0.000772954
-1.78064e-05
0.000771178
-2.18431e-05
0.000768695
-2.57236e-05
0.000765536
-2.94479e-05
0.000761733
-3.30167e-05
0.000757317
-3.64323e-05
0.000752316
-3.96964e-05
0.000746758
-4.28095e-05
0.000740671
-4.57701e-05
0.00073408
-4.85732e-05
0.000727013
-5.121e-05
0.000719502
-5.36691e-05
0.00071158
-5.59416e-05
0.000703289
-5.80281e-05
0.000694669
-5.99486e-05
0.000685755
-6.17488e-05
0.000676574
-6.35037e-05
0.000667131
-6.53144e-05
0.000657412
-6.72963e-05
0.000647377
-6.95583e-05
0.000636967
-7.21756e-05
0.000626115
-7.5163e-05
0.000614758
-7.84548e-05
0.000602852
-8.1898e-05
0.000590383
-8.52637e-05
0.000577364
-8.8273e-05
0.000563834
-9.06317e-05
0.000549852
-9.20655e-05
0.000535483
-9.23466e-05
0.000520802
-9.13125e-05
0.000505889
-8.88774e-05
0.000490838
-8.50388e-05
0.000475753
-7.98817e-05
0.000460755
-7.35774e-05
0.000445973
-6.63743e-05
0.00043154
-5.85801e-05
0.000417582
-5.05359e-05
0.00040421
-4.25853e-05
0.000391502
-3.50364e-05
0.000379509
-2.81228e-05
0.000368196
-2.19429e-05
0.000357553
-1.63456e-05
0.000347105
-1.11949e-05
-4.41345e-06
0.000284047
5.3995e-05
0.000301804
4.28575e-05
0.000317587
4.78611e-05
0.000332893
5.51619e-05
0.000348559
5.96515e-05
0.000364356
6.35097e-05
0.00038032
6.73584e-05
0.000396611
7.06988e-05
0.000413236
7.35008e-05
0.000430146
7.59107e-05
0.000447302
7.79438e-05
0.000464664
7.95663e-05
0.000482171
8.07472e-05
0.000499741
8.14325e-05
0.000517271
8.15521e-05
0.000534662
8.10698e-05
0.000551105
7.66393e-05
0.000566422
7.11702e-05
0.000580652
6.57095e-05
0.000593821
6.02152e-05
0.000605953
5.47103e-05
0.00061708
4.92644e-05
0.000627241
4.394e-05
0.000636471
3.87668e-05
0.000644804
3.37486e-05
0.000652268
2.88766e-05
0.000658887
2.41385e-05
0.000664682
1.95207e-05
0.000669669
1.50095e-05
0.000673867
1.05994e-05
0.000677289
6.29511e-06
0.000679958
2.10244e-06
0.000681887
-1.97874e-06
0.000683107
-5.92468e-06
0.000683626
-9.75575e-06
0.000683472
-1.34542e-05
0.000682674
-1.70083e-05
0.000681254
-2.04233e-05
0.000679236
-2.37051e-05
0.000676643
-2.68547e-05
0.000673499
-2.98726e-05
0.000669826
-3.27602e-05
0.000665648
-3.55183e-05
0.000660985
-3.81464e-05
0.000655857
-4.0642e-05
0.000650284
-4.29996e-05
0.000644285
-4.52108e-05
0.000637881
-4.72659e-05
0.000631098
-4.9158e-05
0.000623959
-5.08895e-05
0.00061649
-5.24795e-05
0.000608711
-5.39695e-05
0.000600633
-5.54259e-05
0.000592255
-5.69364e-05
0.000583558
-5.85995e-05
0.000574506
-6.05065e-05
0.000565049
-6.27179e-05
0.000555126
-6.52407e-05
0.000544682
-6.80102e-05
0.000533669
-7.08848e-05
0.000522059
-7.36543e-05
0.000509849
-7.6063e-05
0.000497058
-7.78408e-05
0.000483729
-7.8736e-05
0.000469925
-7.85428e-05
0.000455733
-7.71211e-05
0.000441264
-7.44084e-05
0.000426651
-7.04258e-05
0.000412049
-6.5279e-05
0.000397624
-5.91528e-05
0.000383549
-5.22986e-05
0.000369983
-4.50147e-05
0.000357067
-3.76201e-05
0.000344908
-3.04263e-05
0.000333571
-2.36992e-05
0.00032309
-1.76417e-05
0.000313414
-1.22665e-05
0.000304565
-7.49718e-06
0.000296014
-2.64338e-06
3.64933e-06
0.000251798
3.82832e-05
0.000267991
2.66645e-05
0.000281861
3.39914e-05
0.000295501
4.15218e-05
0.000309433
4.57198e-05
0.00032339
4.95522e-05
0.000337519
5.32298e-05
0.00035196
5.62579e-05
0.000366692
5.87689e-05
0.00038167
6.09326e-05
0.000396868
6.27456e-05
0.000412256
6.41785e-05
0.000427787
6.52162e-05
0.000443398
6.5821e-05
0.000459011
6.5939e-05
0.00047454
6.55413e-05
0.000489254
6.19246e-05
0.00050298
5.74449e-05
0.000515738
5.29512e-05
0.000527542
4.84108e-05
0.000538408
4.38449e-05
0.000548358
3.93141e-05
0.000557424
3.48741e-05
0.000565638
3.05528e-05
0.000573032
2.63548e-05
0.000579635
2.22738e-05
0.000585473
1.83004e-05
0.000590569
1.44241e-05
0.000594947
1.06323e-05
0.000598624
6.92217e-06
0.000601619
3.29972e-06
0.000603952
-2.30032e-07
0.000605638
-3.66456e-06
0.000606702
-6.98889e-06
0.000607157
-1.02107e-05
0.000607024
-1.33218e-05
0.000606328
-1.63118e-05
0.000605087
-1.91826e-05
0.000603321
-2.19391e-05
0.000601049
-2.45828e-05
0.00059829
-2.71134e-05
0.000595061
-2.95311e-05
0.000591378
-3.18354e-05
0.000587256
-3.40245e-05
0.000582708
-3.60941e-05
0.000577746
-3.80376e-05
0.000572381
-3.98461e-05
0.000566625
-4.15099e-05
0.00056049
-4.30226e-05
0.000553988
-4.43871e-05
0.000547129
-4.56212e-05
0.000539923
-4.67629e-05
0.000532369
-4.78721e-05
0.000524459
-4.90267e-05
0.000516172
-5.03127e-05
0.000507474
-5.18081e-05
0.000498318
-5.3562e-05
0.000488652
-5.55747e-05
0.000478424
-5.77824e-05
0.000467592
-6.00528e-05
0.000456132
-6.21939e-05
0.000444043
-6.39743e-05
0.000431355
-6.51529e-05
0.000418129
-6.55095e-05
0.000404457
-6.48706e-05
0.000390463
-6.31279e-05
0.000376303
-6.02482e-05
0.000362154
-5.62765e-05
0.000348207
-5.13326e-05
0.000334658
-4.56029e-05
0.000321685
-3.93263e-05
0.000309445
-3.27748e-05
0.000298055
-2.623e-05
0.00028759
-1.99607e-05
0.000278074
-1.41839e-05
0.000269509
-9.07666e-06
0.000261811
-4.56828e-06
0.000255029
-7.14937e-07
0.000248624
3.76111e-06
9.43018e-06
0.000223468
2.31975e-05
0.000238065
1.2068e-05
0.000250245
2.18105e-05
0.00026246
2.93075e-05
0.000274839
3.33406e-05
0.000287177
3.72144e-05
0.000299706
4.07001e-05
0.00031253
4.34339e-05
0.000325606
4.56933e-05
0.000338896
4.76424e-05
0.00035238
4.92613e-05
0.000366029
5.05295e-05
0.000379802
5.14436e-05
0.000393646
5.19771e-05
0.000407498
5.20873e-05
0.000421286
5.17526e-05
0.000434366
4.88447e-05
0.00044658
4.52311e-05
0.000457947
4.15846e-05
0.000468477
3.78805e-05
0.000478182
3.41396e-05
0.00048708
3.04165e-05
0.000495193
2.67615e-05
0.000502545
2.32003e-05
0.000509163
1.97374e-05
0.000515069
1.63675e-05
0.000520286
1.30834e-05
0.000524834
9.87657e-06
0.000528732
6.73377e-06
0.000531999
3.65551e-06
0.000534651
6.47317e-07
0.000536709
-2.28746e-06
0.000538188
-5.14355e-06
0.000539108
-7.90914e-06
0.000539482
-1.05854e-05
0.000539328
-1.31671e-05
0.000538661
-1.56451e-05
0.000537497
-1.80188e-05
0.000535849
-2.02912e-05
0.00053373
-2.24633e-05
0.00053115
-2.45338e-05
0.00052812
-2.65012e-05
0.000524649
-2.83636e-05
0.000520742
-3.01176e-05
0.000516405
-3.17575e-05
0.000511643
-3.32759e-05
0.000506461
-3.46634e-05
0.000500862
-3.59111e-05
0.000494853
-3.70139e-05
0.000488441
-3.79753e-05
0.000481634
-3.88135e-05
0.000474435
-3.95647e-05
0.000466848
-4.02845e-05
0.000458864
-4.10434e-05
0.000450469
-4.19177e-05
0.000441636
-4.29747e-05
0.000432328
-4.42544e-05
0.000422506
-4.57523e-05
0.000412131
-4.7407e-05
0.000401175
-4.90974e-05
0.000389633
-5.06516e-05
0.000377526
-5.18667e-05
0.000364908
-5.25352e-05
0.000351871
-5.24729e-05
0.000338542
-5.15416e-05
0.000325079
-4.96648e-05
0.000311665
-4.68337e-05
0.000298496
-4.31075e-05
0.000285771
-3.86076e-05
0.000273676
-3.35078e-05
0.000262369
-2.80201e-05
0.000251974
-2.23789e-05
0.000242564
-1.68205e-05
0.000234171
-1.1568e-05
0.000226777
-6.78983e-06
0.000220348
-2.64704e-06
0.000214767
1.01179e-06
0.0002101
3.95293e-06
0.000205881
7.97971e-06
1.30122e-05
0.00019856
8.56662e-06
0.000211521
-8.92927e-07