/*--------------------------------*- C++ -*----------------------------------*\
| =========                 |                                                 |
| \\      /  F ield         | OpenFOAM: The Open Source CFD Toolbox           |
|  \\    /   O peration     | Version:  v1912                                 |
|   \\  /    A nd           | Website:  www.openfoam.com                      |
|    \\/     M anipulation  |                                                 |
\*---------------------------------------------------------------------------*/
FoamFile
{
    version     2.0;
    format      ascii;
    class       volVectorField;
    location    "775";
    object      U;
}
// * * * * * * * * * * * * * * * * * * * * * * * * * * * * * * * * * * * * * //

dimensions      [0 1 -1 0 0 0 0];


internalField   nonuniform List<vector> 
2000
(
(0.84616 0.187394 0)
(0.515133 0.124089 0)
(0.223448 0.0684415 0)
(0.0598068 0.0174443 6.19507e-20)
(-0.00455617 -0.0232232 1.20675e-17)
(-0.0642033 -0.0384872 1.04227e-17)
(-0.0776008 -0.0372471 0)
(-0.0715949 -0.016659 0)
(-0.0590606 0.0117119 0)
(-0.0421583 0.0254668 2.36679e-17)
(-0.0415844 0.0109781 -1.45003e-17)
(-0.0273672 -0.000621136 -1.36186e-17)
(-0.0163179 -0.00266704 0)
(-0.0200721 -0.00264045 0)
(-0.021907 -0.00227025 -1.08188e-17)
(-0.0168735 0.000848107 0)
(-0.0105743 0.00349385 9.73899e-18)
(-0.00962278 0.00623757 3.09754e-21)
(-0.010631 0.00612824 9.41464e-18)
(-0.0113972 0.00488888 -4.64675e-18)
(-0.0112586 0.0027824 9.18685e-18)
(-0.0100661 0.000804402 0)
(-0.00791378 -0.000199663 0)
(-0.00539425 -0.000630312 -6.93791e-23)
(-0.00309909 -0.0007954 0)
(-0.00127166 -0.000814099 -4.51685e-18)
(-4.88393e-05 -0.000750614 0)
(0.00064751 -0.0006694 4.52602e-18)
(0.00104397 -0.000654126 0)
(0.00133099 -0.000658822 0)
(0.00160299 -0.000584162 0)
(0.00187614 -0.000473132 1.14941e-18)
(0.00213529 -0.00038402 0)
(0.00237033 -0.000346212 -5.83375e-19)
(0.00256894 -0.000347489 1.94701e-14)
(0.0027068 -0.000366046 1.94567e-14)
(0.00277738 -0.000403858 6.01667e-19)
(0.00272475 -0.000499096 -6.09177e-19)
(0.00254865 -0.000641585 0)
(0.00224674 -0.000798581 2.50596e-18)
(0.00179714 -0.000946362 0)
(0.00116365 -0.00107222 -2.58842e-18)
(0.000302424 -0.00116346 0)
(-0.000844699 -0.00120406 -5.35804e-18)
(-0.00232902 -0.00121527 2.72194e-18)
(-0.00418922 -0.00128749 0)
(-0.00651016 -0.00146923 0)
(-0.00944659 -0.00167205 -2.85505e-18)
(-0.0133163 -0.00158725 0)
(-0.0187286 -0.000623983 2.93158e-18)
(-0.0266579 0.00191537 0)
(-0.0383847 0.00632551 5.91003e-18)
(-0.0552944 0.0120618 -5.85983e-18)
(-0.0785276 0.0177274 5.73936e-18)
(-0.108431 0.0214334 -2.74169e-18)
(-0.144105 0.0213391 0)
(-0.183462 0.0162426 2.33219e-18)
(-0.223588 0.00598797 -2.07635e-18)
(-0.260747 -0.00839988 -4.08468e-18)
(-0.290107 -0.0247124 3.30946e-18)
(-0.3068 -0.0397239 -3.26403e-18)
(-0.30929 -0.0502227 3.48946e-18)
(-0.30291 -0.0562523 -3.97884e-18)
(-0.287938 -0.0591624 4.78196e-18)
(-0.265474 -0.0599916 -1.1538e-20)
(-0.236361 -0.0594762 7.16546e-18)
(-0.201011 -0.0578219 0)
(-0.159592 -0.0550177 0)
(-0.112362 -0.0510512 7.63184e-20)
(-0.0600577 -0.0459605 0)
(-0.00394639 -0.03968 1.98894e-17)
(0.0557709 -0.0318697 0)
(0.119369 -0.0223811 1.98835e-17)
(0.186353 -0.0113725 -4.88295e-19)
(0.255977 0.000911847 1.71669e-17)
(0.329545 0.0141678 2.98664e-17)
(0.403562 0.028019 7.34635e-19)
(0.491213 0.0420089 -1.01493e-17)
(0.557146 0.0544838 -6.53125e-18)
(0.713703 0.0652134 0)
(1.0153 0.210384 0)
(0.944633 0.194211 0)
(0.804475 0.179983 -3.52866e-18)
(0.654422 0.152313 7.28769e-18)
(0.509224 0.111169 0)
(0.360042 0.0683704 -7.28846e-18)
(0.216493 0.0293252 0)
(0.0821323 -0.00530894 0)
(-0.0282879 -0.01804 0)
(-0.0562033 -0.0189156 -1.73085e-17)
(-0.0667323 -0.0249883 1.57461e-17)
(-0.0718832 -0.0159767 1.44433e-17)
(-0.0637611 0.0064038 0)
(-0.0508832 0.0207205 6.32272e-18)
(-0.0545092 0.00998974 0)
(-0.0483037 -0.00293892 0)
(-0.0376346 -0.00402666 0)
(-0.0329322 -0.00109654 5.26982e-18)
(-0.0367035 0.000899922 -1.0336e-17)
(-0.0388906 0.000901328 -5.09124e-18)
(-0.0395848 7.06234e-05 0)
(-0.0384927 -0.00112742 0)
(-0.0357737 -0.0023533 0)
(-0.0325279 -0.00294362 -7.41309e-18)
(-0.0293647 -0.00274372 0)
(-0.0265502 -0.00194424 4.95088e-18)
(-0.0243288 -0.000880961 2.48294e-18)
(-0.0228685 7.88794e-07 0)
(-0.0222351 0.000374715 0)
(-0.0222962 0.000408384 0)
(-0.0228718 0.000235495 0)
(-0.0237306 4.68686e-05 -6.32679e-19)
(-0.0247024 -0.000110614 0)
(-0.0257262 -0.000205829 3.2024e-19)
(-0.0268197 -0.000201317 1.61333e-19)
(-0.0280501 -7.8766e-05 0)
(-0.0294604 0.000145874 0)
(-0.0310764 0.00044299 6.62825e-19)
(-0.0329604 0.000795127 0)
(-0.0351325 0.00120101 -1.35279e-18)
(-0.0376111 0.00166839 0)
(-0.0404058 0.00220992 -1.3828e-18)
(-0.0435274 0.0028334 0)
(-0.0469831 0.00352987 1.41332e-18)
(-0.0507654 0.00428312 1.43081e-18)
(-0.0548463 0.00512671 0)
(-0.0591964 0.00624045 0)
(-0.0638074 0.00799468 -2.96938e-18)
(-0.0686655 0.0109066 0)
(-0.0737324 0.0155746 1.36223e-20)
(-0.0790246 0.0225296 0)
(-0.0847367 0.0319048 0)
(-0.0912252 0.0430004 0)
(-0.0988102 0.0541686 0)
(-0.107232 0.0630804 6.0305e-18)
(-0.114973 0.067292 0)
(-0.119612 0.0648292 -5.48974e-18)
(-0.119214 0.0547967 2.65649e-18)
(-0.112338 0.0381583 -2.31545e-18)
(-0.0951115 0.0177223 -4.88843e-18)
(-0.0633156 -0.00474126 5.0344e-18)
(-0.0452056 -0.0306427 -5.55127e-18)
(-0.0200023 -0.0512476 6.49518e-18)
(0.0078571 -0.0658971 0)
(0.0387358 -0.0761972 -1.29336e-17)
(0.0731296 -0.0836183 -9.65027e-18)
(0.111818 -0.0888832 0)
(0.154997 -0.0919865 5.73271e-18)
(0.202307 -0.0926228 1.25487e-17)
(0.253164 -0.090571 0)
(0.306909 -0.0857303 0)
(0.362954 -0.078075 0)
(0.420822 -0.0677428 0)
(0.480245 -0.0550714 -1.3616e-17)
(0.540972 -0.0406013 5.9356e-18)
(0.603856 -0.0250014 -1.17694e-17)
(0.667318 -0.00921271 1.01617e-17)
(0.739137 0.0057258 -3.46811e-18)
(0.796081 0.0173702 0)
(0.911781 0.0228968 0)
(0.978489 0.201538 0)
(0.978854 0.193006 -2.78543e-18)
(0.969154 0.205111 3.48114e-18)
(0.939083 0.208532 -3.06017e-18)
(0.878034 0.194606 2.88476e-18)
(0.785605 0.168719 2.84281e-18)
(0.669349 0.138081 0)
(0.541012 0.106021 0)
(0.40822 0.0750633 0)
(0.285943 0.0459344 6.86574e-18)
(0.173879 0.018021 0)
(0.0721777 -0.00640557 0)
(-0.0214749 -0.0141538 0)
(-0.0469106 -0.0038563 -7.18358e-18)
(-0.0508316 -0.0116811 0)
(-0.0586937 -0.0181539 -6.05038e-18)
(-0.0592948 -0.0112543 0)
(-0.0481126 0.00906343 5.87544e-18)
(-0.0464826 0.016484 2.87242e-18)
(-0.0509065 0.0125885 0)
(-0.0532645 0.00614945 -2.78941e-18)
(-0.0550532 -0.000293379 0)
(-0.0556703 -0.00470033 0)
(-0.0547694 -0.00653568 5.43526e-18)
(-0.0532176 -0.00661342 0)
(-0.0520371 -0.00573307 1.35802e-18)
(-0.0518347 -0.0042249 -4.07676e-18)
(-0.0526278 -0.00223142 0)
(-0.0539865 -0.000214004 0)
(-0.0554614 0.00125489 -6.81474e-19)
(-0.0570671 0.00220795 0)
(-0.0587842 0.00273172 1.25717e-22)
(-0.0605337 0.00296949 0)
(-0.0622687 0.00308396 6.90614e-19)
(-0.0639933 0.00323741 8.68699e-20)
(-0.0657781 0.00348598 0)
(-0.0676809 0.00381998 1.76328e-19)
(-0.0697174 0.00420756 -3.55624e-19)
(-0.071873 0.00464465 -3.5886e-19)
(-0.0741194 0.0051351 -7.24751e-19)
(-0.0764223 0.00568593 7.32367e-19)
(-0.0787472 0.00630575 7.39699e-19)
(-0.0810687 0.00699461 0)
(-0.0833533 0.00772872 1.51679e-18)
(-0.0854957 0.00847179 -3.07621e-18)
(-0.0872377 0.00923719 0)
(-0.0881621 0.0101891 -1.59054e-18)
(-0.0877849 0.0117002 3.24315e-18)
(-0.0855684 0.0142666 0)
(-0.0808547 0.0184675 -1.69667e-18)
(-0.0729347 0.0247987 1.77907e-18)
(-0.0612924 0.0335183 -1.84589e-18)
(-0.0455641 0.0437485 -1.91486e-18)
(-0.0257195 0.0539506 0)
(-0.00197821 0.0619096 -3.94422e-18)
(0.0257035 0.0651029 -1.88729e-18)
(0.0572182 0.0612494 1.63776e-18)
(0.090736 0.0494947 1.53391e-18)
(0.124709 0.0288685 2.57249e-18)
(0.156546 0.00214463 0)
(0.186675 -0.0241818 0)
(0.214334 -0.0461271 0)
(0.242465 -0.0643618 -1.31432e-18)
(0.274033 -0.0800161 0)
(0.309999 -0.0936508 3.22015e-18)
(0.349821 -0.105239 0)
(0.392565 -0.114432 -1.98651e-18)
(0.437347 -0.120758 -4.46041e-18)
(0.483367 -0.123784 0)
(0.52995 -0.123256 -2.47344e-18)
(0.576608 -0.119165 2.57785e-18)
(0.623079 -0.11177 0)
(0.669306 -0.101588 0)
(0.715478 -0.089314 0)
(0.761835 -0.0757882 -5.41e-18)
(0.809254 -0.0619345 0)
(0.857032 -0.0489419 -1.88539e-18)
(0.910115 -0.0379187 3.36995e-18)
(0.953001 -0.0312459 0)
(1.03533 -0.0302944 3.93369e-19)
(0.970611 0.209117 0)
(0.963917 0.194765 1.52491e-18)
(0.96643 0.198514 0)
(0.977152 0.206407 1.6942e-18)
(0.982034 0.208884 -3.00364e-18)
(0.968293 0.204266 -1.34076e-18)
(0.930748 0.193726 0)
(0.870757 0.177878 0)
(0.79113 0.156581 0)
(0.695411 0.131331 1.35075e-18)
(0.58948 0.10541 1.38252e-18)
(0.48005 0.0806999 0)
(0.369265 0.0579964 0)
(0.266647 0.0376063 0)
(0.17965 0.0185392 0)
(0.100391 0.00267229 6.39938e-18)
(0.0300558 -0.00993241 -3.38656e-18)
(-0.0310545 -0.00937881 0)
(-0.0328196 0.00101217 -3.28205e-18)
(-0.034702 0.00246157 1.61806e-18)
(-0.0346424 0.00136385 3.21029e-18)
(-0.0358991 -0.00129744 0)
(-0.0391081 -0.00397946 0)
(-0.0434905 -0.00523969 -3.11939e-18)
(-0.0472029 -0.00436323 0)
(-0.0494949 -0.0016688 -1.54356e-18)
(-0.0511704 0.00172143 1.54313e-18)
(-0.0536741 0.00423946 0)
(-0.0558119 0.00542146 0)
(-0.058066 0.00597996 7.66781e-19)
(-0.0600231 0.00605931 0)
(-0.0616664 0.00579761 -7.69744e-19)
(-0.0629454 0.00535798 0)
(-0.0638419 0.00490982 -1.9471e-19)
(-0.0644809 0.00468732 -9.80816e-20)
(-0.0649484 0.00477752 -2.47409e-20)
(-0.0652553 0.00513711 -2.99838e-19)
(-0.0652999 0.00570119 4.04207e-19)
(-0.0650051 0.0063643 4.09285e-19)
(-0.0643022 0.00706873 1.24533e-18)
(-0.0631087 0.00779684 -4.21275e-19)
(-0.0613411 0.00853856 4.28572e-19)
(-0.0589447 0.00926721 0)
(-0.0558749 0.00990367 8.92844e-19)
(-0.0520232 0.0102608 9.13454e-19)
(-0.0470884 0.0100223 0)
(-0.040636 0.00881332 1.935e-18)
(-0.032694 0.0065933 9.99381e-19)
(-0.0225387 0.00403856 0)
(-0.00996056 0.00178643 -3.25997e-18)
(0.0065042 0.000413725 -2.23122e-18)
(0.027904 0.000523887 1.10735e-18)
(0.0541583 0.00195985 2.16824e-18)
(0.0858542 0.00385895 0)
(0.123006 0.00470494 9.81751e-19)
(0.164763 0.00270528 2.68553e-18)
(0.20983 -0.0037002 1.58868e-18)
(0.256114 -0.0150308 -1.39303e-18)
(0.303079 -0.0301595 -6.43985e-19)
(0.348968 -0.0474892 0)
(0.393279 -0.0662347 0)
(0.436024 -0.0851031 0)
(0.478078 -0.103032 1.71673e-18)
(0.520252 -0.119399 6.46778e-19)
(0.562491 -0.13373 0)
(0.604134 -0.145485 -1.56559e-18)
(0.644468 -0.154096 1.74053e-18)
(0.682986 -0.159113 -1.87422e-18)
(0.719429 -0.160307 -2.02175e-18)
(0.753777 -0.15771 1.26801e-19)
(0.786242 -0.151617 -2.41985e-18)
(0.817241 -0.142551 0)
(0.847331 -0.131203 0)
(0.877189 -0.118366 0)
(0.907425 -0.104903 0)
(0.938952 -0.0916987 0)
(0.971438 -0.079806 3.67806e-18)
(1.00822 -0.0700721 -1.34598e-18)
(1.03845 -0.0644252 0)
(1.09567 -0.0626855 -4.24135e-19)
(0.972988 0.216082 0)
(0.965831 0.201808 1.87064e-18)
(0.959206 0.1956 2.49218e-19)
(0.961489 0.195546 1.90711e-18)
(0.972668 0.197536 0)
(0.985519 0.199235 -1.60736e-18)
(0.992497 0.199295 0)
(0.988452 0.196253 -3.62512e-19)
(0.970218 0.189033 0)
(0.935631 0.177562 -1.60567e-18)
(0.884731 0.162749 -1.24288e-18)
(0.819618 0.145667 -3.15416e-19)
(0.743324 0.126729 3.13103e-19)
(0.658087 0.106111 0)
(0.569157 0.0852834 3.13158e-19)
(0.47934 0.066243 0)
(0.393491 0.050268 2.65414e-18)
(0.314099 0.0363417 -3.51294e-19)
(0.247073 0.0242769 0)
(0.192399 0.0147284 -1.8993e-18)
(0.147779 0.00792661 0)
(0.110716 0.00341131 0)
(0.0798828 0.0008225 0)
(0.0539911 -0.000620636 0)
(0.0324756 -0.00159348 -2.21668e-19)
(0.0157006 -0.00204213 0)
(0.00281355 -0.00140405 0)
(-0.00263518 0.000672538 1.15597e-19)
(-0.00511353 0.0021028 0)
(-0.00515799 0.003108 0)
(-0.00382874 0.00368772 0)
(-0.00157883 0.00395567 -5.87358e-20)
(0.00100007 0.00402753 0)
(0.00444661 0.00382341 -2.67829e-19)
(0.00745531 0.00430047 0)
(0.0111267 0.0051222 3.01056e-20)
(0.0155252 0.00558743 1.51306e-19)
(0.0208471 0.00550603 3.03832e-20)
(0.0272724 0.00515926 -6.09857e-20)
(0.0348684 0.00464264 -4.89273e-19)
(0.0438027 0.00393408 -4.89946e-19)
(0.0542888 0.00301306 4.89879e-19)
(0.0665204 0.00186227 -1.22232e-19)
(0.0806931 0.000444949 -9.73622e-19)
(0.0970153 -0.00130691 9.67207e-19)
(0.115471 -0.00347081 -1.19908e-19)
(0.13629 -0.0061579 0)
(0.158977 -0.00943529 -9.39274e-19)
(0.183574 -0.013271 0)
(0.210232 -0.0175125 9.18035e-19)
(0.238975 -0.0218078 0)
(0.269994 -0.0260083 8.95545e-19)
(0.303594 -0.030069 0)
(0.340123 -0.0341859 -2.11822e-19)
(0.3798 -0.0388617 -8.05173e-19)
(0.422503 -0.0448288 -7.47496e-19)
(0.467647 -0.0528442 1.73764e-19)
(0.514172 -0.0634527 0)
(0.560672 -0.076963 5.44834e-19)
(0.605731 -0.0928483 -1.37549e-19)
(0.648496 -0.110127 0)
(0.688572 -0.127455 1.37282e-19)
(0.725842 -0.143587 -5.34992e-19)
(0.76024 -0.157677 -5.90411e-19)
(0.791584 -0.169155 0)
(0.819651 -0.17757 1.47815e-18)
(0.844356 -0.182581 0)
(0.865864 -0.184035 1.83244e-18)
(0.884587 -0.181993 2.01023e-18)
(0.901136 -0.176737 2.1749e-18)
(0.91626 -0.168724 2.70748e-19)
(0.930784 -0.158552 0)
(0.945534 -0.146903 0)
(0.961307 -0.134502 0)
(0.978719 -0.12209 -2.69689e-19)
(0.99852 -0.110398 0)
(1.02034 -0.100233 -1.67538e-18)
(1.04667 -0.0922444 1.64994e-18)
(1.06866 -0.0876579 1.04003e-19)
(1.11229 -0.0864004 4.50974e-20)
(0.974194 0.218514 -1.2323e-18)
(0.970935 0.206364 1.19272e-18)
(0.965119 0.198172 -2.82011e-19)
(0.961139 0.194112 0)
(0.962197 0.191942 0)
(0.96826 0.190544 0)
(0.977772 0.189885 0)
(0.988502 0.189481 1.25233e-18)
(0.997432 0.188308 0)
(1.00093 0.185358 -1.11963e-18)
(0.995773 0.179955 -1.3957e-18)
(0.979839 0.171905 3.20005e-19)
(0.952674 0.161434 9.66789e-19)
(0.914336 0.148646 0)
(0.865647 0.133742 -1.47548e-18)
(0.80825 0.117845 0)
(0.746068 0.102471 -1.17954e-18)
(0.683644 0.0879754 2.9502e-19)
(0.622836 0.074387 -1.23407e-18)
(0.565749 0.0621136 -9.503e-19)
(0.513199 0.0513543 0)
(0.465539 0.0420956 0)
(0.422944 0.0342185 -6.83088e-19)
(0.385368 0.0276153 0)
(0.352675 0.0221512 -5.42388e-19)
(0.324652 0.0176484 0)
(0.300896 0.0138409 0)
(0.281179 0.0104648 -9.55995e-20)
(0.265363 0.00755774 0)
(0.25311 0.00512469 0)
(0.244077 0.0030951 0)
(0.237988 0.00138473 5.05212e-20)
(0.234522 -8.8281e-05 2.04756e-19)
(0.233711 -0.00131686 1.28995e-19)
(0.235318 -0.00275599 0)
(0.239466 -0.00438813 0)
(0.246052 -0.00607999 -2.59494e-20)
(0.254939 -0.00785688 -1.30013e-19)
(0.266124 -0.00979497 5.16697e-20)
(0.279514 -0.0119482 0)
(0.29501 -0.0143567 0)
(0.312536 -0.0170543 -2.04172e-19)
(0.332027 -0.0200728 1.00542e-19)
(0.353414 -0.0234539 -4.01176e-19)
(0.376607 -0.0272546 3.96963e-19)
(0.401468 -0.0315376 9.71082e-20)
(0.427801 -0.0363353 0)
(0.455363 -0.0415518 3.8445e-19)
(0.483968 -0.0470439 0)
(0.513468 -0.0526545 0)
(0.543754 -0.0582123 0)
(0.574804 -0.063603 0)
(0.60669 -0.0688424 0)
(0.639495 -0.0741447 1.77976e-19)
(0.673218 -0.079936 0)
(0.707657 -0.0867794 6.69997e-19)
(0.742334 -0.095223 -1.52757e-19)
(0.776494 -0.105608 0)
(0.809211 -0.117883 5.81028e-19)
(0.839573 -0.131469 1.28019e-19)
(0.866862 -0.145468 5.67752e-19)
(0.890627 -0.158897 -1.32526e-19)
(0.910672 -0.17088 0)
(0.92702 -0.180774 -6.62539e-19)
(0.939844 -0.188147 0)
(0.949445 -0.192723 0)
(0.956279 -0.194368 -8.53231e-19)
(0.960971 -0.193108 0)
(0.964285 -0.189138 0)
(0.967058 -0.182794 -1.06327e-18)
(0.970134 -0.174526 -2.95532e-19)
(0.974309 -0.164854 0)
(0.980278 -0.154343 0)
(0.988641 -0.143564 0)
(0.999783 -0.133092 3.01331e-19)
(1.01419 -0.12348 -1.03018e-18)
(1.03131 -0.115309 -2.40118e-19)
(1.05322 -0.109055 -1.88539e-19)
(1.07176 -0.105437 -1.17789e-19)
(1.11017 -0.104562 -2.40675e-19)
(0.974501 0.21901 4.35449e-18)
(0.973757 0.208036 -4.18121e-18)
(0.971714 0.200425 0)
(0.969159 0.196211 -2.53679e-18)
(0.967053 0.192937 0)
(0.966166 0.189312 -2.23682e-18)
(0.967419 0.185818 0)
(0.971669 0.183008 2.97874e-18)
(0.978978 0.18073 -3.69851e-18)
(0.988283 0.178484 1.68875e-18)
(0.99769 0.175773 1.57881e-18)
(1.00497 0.172151 0)
(1.00811 0.167265 -4.27066e-18)
(1.00544 0.1607 -2.72014e-18)
(0.995587 0.152111 3.82332e-18)
(0.977795 0.141797 0)
(0.953045 0.130626 1.17109e-18)
(0.923753 0.119347 0)
(0.891694 0.108147 1.16756e-18)
(0.858158 0.0970052 1.16726e-18)
(0.824185 0.0861313 0)
(0.790763 0.0758034 0)
(0.758774 0.0662261 -6.39272e-19)
(0.72889 0.0575051 0)
(0.701554 0.0496237 6.20846e-19)
(0.677 0.0424972 0)
(0.655348 0.0360312 0)
(0.636631 0.0301389 0)
(0.620878 0.0247304 0)
(0.60803 0.0197212 0)
(0.598012 0.015031 0)
(0.590757 0.0105884 0)
(0.586188 0.00632102 1.76961e-19)
(0.584184 0.00216519 -8.58581e-20)
(0.584519 -0.00202217 4.39601e-20)
(0.587285 -0.00627638 0)
(0.59238 -0.0105729 0)
(0.599602 -0.0149111 8.61708e-20)
(0.608803 -0.0193351 -3.51858e-19)
(0.619842 -0.023884 3.51477e-19)
(0.632574 -0.0285807 0)
(0.646845 -0.0334424 8.71842e-19)
(0.662503 -0.0384871 -6.99466e-19)
(0.679384 -0.0437353 -3.57898e-19)
(0.69731 -0.0492078 -3.39141e-19)
(0.716078 -0.0549137 0)
(0.735463 -0.0608298 0)
(0.755232 -0.0668791 -1.03344e-18)
(0.775178 -0.0729578 0)
(0.79514 -0.0789597 0)
(0.815015 -0.0847892 0)
(0.834765 -0.0904045 7.03207e-19)
(0.854411 -0.0958697 1.40468e-18)
(0.873972 -0.101381 0)
(0.893406 -0.107253 0)
(0.912535 -0.113852 -6.48908e-19)
(0.931001 -0.12149 0)
(0.948277 -0.130302 1.29406e-18)
(0.963736 -0.140159 6.86692e-19)
(0.97677 -0.150646 0)
(0.986925 -0.161152 7.00132e-19)
(0.993992 -0.171004 1.33572e-18)
(0.998033 -0.179573 1.4068e-18)
(0.999341 -0.186369 7.14257e-19)
(0.998371 -0.191073 -1.616e-18)
(0.99569 -0.193521 1.74616e-18)
(0.991939 -0.193678 2.83143e-18)
(0.987822 -0.191631 0)
(0.984061 -0.187578 0)
(0.981353 -0.18181 1.19479e-18)
(0.980322 -0.174685 0)
(0.981501 -0.166607 2.49831e-18)
(0.985311 -0.158007 2.53119e-18)
(0.99209 -0.149328 0)
(1.002 -0.141015 2.40168e-18)
(1.01534 -0.1335 -1.04073e-18)
(1.03146 -0.127222 0)
(1.05227 -0.122526 0)
(1.06991 -0.119858 0)
(1.10679 -0.119405 -1.93021e-19)
(0.974733 0.218938 -3.35441e-18)
(0.975458 0.208201 3.21115e-18)
(0.976056 0.201058 -6.23651e-18)
(0.975936 0.197366 2.86912e-18)
(0.974875 0.19446 0)
(0.9732 0.190786 2.52977e-18)
(0.971487 0.186584 -4.8427e-18)
(0.970472 0.182339 -4.48986e-18)
(0.970994 0.17813 -7.92479e-20)
(0.973704 0.17395 0)
(0.978806 0.169868 0)
(0.985964 0.165856 3.5963e-18)
(0.994363 0.161685 3.29153e-18)
(1.00283 0.15694 -3.27735e-18)
(1.00995 0.151228 -8.89734e-18)
(1.01427 0.144451 0)
(1.01489 0.136908 0)
(1.01186 0.128902 0)
(1.00564 0.120422 0)
(0.996717 0.11145 0)
(0.985584 0.102193 0)
(0.972871 0.0929275 0)
(0.959261 0.0838656 1.23999e-18)
(0.945385 0.0751219 -2.58638e-18)
(0.931766 0.0667308 0)
(0.918812 0.0586929 0)
(0.906841 0.0510008 0)
(0.896094 0.0436254 0)
(0.886739 0.036507 0)
(0.878876 0.0296021 -6.62219e-19)
(0.872573 0.0228815 0)
(0.867866 0.0163144 0)
(0.86476 0.00986424 1.26066e-20)
(0.863199 0.00346592 0)
(0.863085 -0.00275093 -4.10086e-20)
(0.864363 -0.00884206 0)
(0.866941 -0.0148871 1.70643e-19)
(0.87069 -0.0209109 0)
(0.875494 -0.0269254 6.72296e-19)
(0.881244 -0.0329429 -3.30571e-19)
(0.887823 -0.0389719 -6.889e-19)
(0.895107 -0.0450185 -6.65294e-19)
(0.902968 -0.0510885 6.67895e-19)
(0.911271 -0.0571876 6.70875e-19)
(0.919874 -0.0633179 1.40236e-18)
(0.928628 -0.0694708 1.41104e-18)
(0.937377 -0.0756172 0)
(0.945977 -0.0817008 -7.43744e-19)
(0.954314 -0.0876485 0)
(0.962321 -0.0933899 0)
(0.969979 -0.0988778 -1.47821e-18)
(0.977319 -0.104115 -7.22028e-19)
(0.984397 -0.109183 4.80975e-20)
(0.991261 -0.114248 0)
(0.997898 -0.119547 0)
(1.00419 -0.125337 0)
(1.0099 -0.131824 1.49279e-18)
(1.01468 -0.139087 -1.39987e-18)
(1.01813 -0.147026 -1.38993e-18)
(1.0199 -0.155348 0)
(1.01978 -0.163613 -1.42921e-18)
(1.01776 -0.17132 9.47097e-20)
(1.01405 -0.178002 -1.57688e-18)
(1.00902 -0.183297 1.75767e-18)
(1.00314 -0.186971 -4.74692e-20)
(0.996957 -0.18891 -1.97857e-18)
(0.991003 -0.189096 -2.14194e-18)
(0.985813 -0.18759 0)
(0.981884 -0.184533 0)
(0.979655 -0.180128 0)
(0.979493 -0.17464 0)
(0.981697 -0.168375 -2.83523e-18)
(0.986494 -0.161677 -2.87069e-18)
(0.994075 -0.154914 0)
(1.00452 -0.148464 -2.72158e-18)
(1.01807 -0.142692 4.906e-18)
(1.03412 -0.137956 0)
(1.05454 -0.1345 0)
(1.0718 -0.132641 0)
(1.10765 -0.132403 9.13235e-19)
(0.975035 0.218502 8.33984e-18)
(0.977127 0.207476 0)
(0.979623 0.200809 1.42744e-17)
(0.980942 0.19772 0)
(0.980747 0.195178 6.21331e-18)
(0.979838 0.19182 0)
(0.978655 0.187904 5.47253e-18)
(0.977181 0.183662 0)
(0.975604 0.178993 -5.03625e-18)
(0.974439 0.173897 0)
(0.97427 0.168549 8.88025e-18)
(0.975577 0.163112 -4.11078e-18)
(0.978659 0.157621 0)
(0.983537 0.151978 7.30698e-18)
(0.989866 0.146033 -1.87027e-19)
(0.996991 0.139703 -6.68137e-18)
(1.00405 0.133126 6.47553e-18)
(1.01036 0.12639 0)
(1.01555 0.119354 0)
(1.01936 0.111922 6.08584e-18)
(1.02167 0.104162 0)
(1.02251 0.0962134 -2.96068e-18)
(1.02211 0.0881946 0)
(1.02073 0.0801807 2.80425e-18)
(1.01864 0.0722163 0)
(1.01612 0.0643297 2.89624e-18)
(1.01338 0.0565374 0)
(1.01061 0.0488387 0)
(1.00799 0.0412227 1.44717e-18)
(1.00561 0.0336888 6.9556e-19)
(1.00358 0.026243 0)
(1.00194 0.0188867 0)
(1.00074 0.0116199 -1.08706e-18)
(1 0.00444303 0)
(0.99968 -0.00255167 0)
(0.999739 -0.00941657 0)
(1.00016 -0.0162097 -1.77925e-19)
(1.00091 -0.0229382 0)
(1.00193 -0.0295924 -1.10517e-18)
(1.00317 -0.0361692 -7.50439e-19)
(1.00458 -0.0426688 7.24714e-19)
(1.00611 -0.0490908 0)
(1.00769 -0.0554343 0)
(1.00926 -0.0616984 1.54391e-18)
(1.01077 -0.0678791 -1.4984e-18)
(1.01215 -0.0739658 -1.51457e-18)
(1.01335 -0.0799356 0)
(1.01431 -0.0857516 -5.82613e-20)
(1.01502 -0.0913697 1.63295e-18)
(1.01551 -0.0967545 0)
(1.01582 -0.101895 1.62462e-18)
(1.01603 -0.106823 1.70008e-18)
(1.01624 -0.111622 -1.66636e-18)
(1.01651 -0.116437 0)
(1.01684 -0.121449 0)
(1.01718 -0.126848 0)
(1.01735 -0.132779 -1.68034e-18)
(1.01713 -0.13929 0)
(1.01627 -0.146299 0)
(1.01455 -0.153587 0)
(1.01188 -0.160827 3.6626e-18)
(1.00829 -0.167649 -1.80454e-18)
(1.00396 -0.173698 0)
(0.99919 -0.178688 -2.00471e-18)
(0.994334 -0.182415 -2.22661e-18)
(0.989769 -0.184754 4.61958e-18)
(0.985862 -0.185655 -4.89384e-18)
(0.982951 -0.185129 -5.17425e-18)
(0.981337 -0.183255 0)
(0.981282 -0.180177 -5.69506e-18)
(0.983005 -0.176099 0)
(0.986699 -0.171282 0)
(0.992528 -0.166033 0)
(1.00067 -0.16069 5.98571e-18)
(1.01121 -0.155607 -5.73261e-18)
(1.02447 -0.151119 -7.99391e-18)
(1.03993 -0.14753 0)
(1.05947 -0.145006 3.60571e-18)
(1.07599 -0.143758 0)
(1.11028 -0.143594 -1.50341e-18)
(0.975434 0.21769 -9.45994e-18)
(0.979143 0.20609 -9.20847e-18)
(0.983423 0.200245 -1.64403e-17)
(0.98558 0.197996 0)
(0.985486 0.195678 -1.41275e-17)
(0.984786 0.192413 -6.73022e-18)
(0.9842 0.188726 0)
(0.983452 0.184719 1.1995e-17)
(0.982353 0.180193 1.11973e-17)
(0.981033 0.175095 0)
(0.979702 0.169516 -1.0043e-17)
(0.978603 0.163553 0)
(0.97805 0.15727 0)
(0.978376 0.150691 8.70816e-18)
(0.979804 0.14382 8.07104e-18)
(0.982396 0.13669 -1.82316e-19)
(0.986006 0.129512 1.84343e-19)
(0.990363 0.12244 0)
(0.995174 0.115376 0)
(1.0001 0.108199 -6.97349e-18)
(1.00479 0.100886 -7.06434e-18)
(1.00904 0.0934771 1.03536e-17)
(1.01274 0.0860162 3.45091e-18)
(1.01588 0.0785341 3.4227e-18)
(1.01847 0.0710486 0)
(1.02058 0.0635696 -3.27163e-18)
(1.02224 0.056102 0)
(1.02353 0.0486465 0)
(1.02448 0.0412031 -3.30543e-18)
(1.02514 0.033778 0)
(1.02556 0.0263832 0)
(1.02575 0.0190317 0)
(1.02575 0.0117388 8.20008e-19)
(1.02559 0.00453768 -4.27552e-19)
(1.02531 -0.00255596 2.13628e-19)
(1.02491 -0.00954115 0)
(1.02443 -0.0164293 0)
(1.02387 -0.0232201 0)
(1.02324 -0.0299064 8.33844e-19)
(1.02252 -0.0364843 8.3886e-19)
(1.02171 -0.0429531 -1.75038e-18)
(1.02082 -0.0493122 0)
(1.01983 -0.0555607 0)
(1.01875 -0.0616978 -3.53219e-18)
(1.01757 -0.067721 -1.81479e-18)
(1.01629 -0.0736236 0)
(1.01491 -0.0793917 0)
(1.01343 -0.0850043 1.82407e-18)
(1.0119 -0.0904386 5.66151e-20)
(1.01036 -0.0956807 0)
(1.00887 -0.100738 0)
(1.00753 -0.105647 -1.93379e-18)
(1.00642 -0.110487 0)
(1.00557 -0.115372 0)
(1.005 -0.120444 0)
(1.00466 -0.125844 0)
(1.00441 -0.131675 0)
(1.00409 -0.137972 -4.16378e-18)
(1.00351 -0.144669 0)
(1.00252 -0.151599 0)
(1.00103 -0.158511 1.66726e-19)
(0.999055 -0.165111 0)
(0.996715 -0.171104 0)
(0.994198 -0.176231 0)
(0.991737 -0.180288 9.98906e-18)
(0.989577 -0.183132 -5.23342e-18)
(0.987951 -0.184684 5.53637e-18)
(0.987072 -0.184923 1.42015e-20)
(0.987137 -0.183894 0)
(0.988324 -0.18171 6.42468e-18)
(0.990807 -0.178552 -6.54293e-18)
(0.994764 -0.174665 0)
(1.00038 -0.170348 0)
(1.00789 -0.165938 -1.45943e-19)
(1.01746 -0.16178 6.48118e-18)
(1.02949 -0.158201 5.97327e-18)
(1.0436 -0.155456 0)
(1.0617 -0.153668 -4.09291e-18)
(1.07708 -0.152867 0)
(1.10953 -0.152784 1.13314e-18)
(0.975986 0.216474 0)
(0.981692 0.204215 2.12127e-17)
(0.987769 0.199647 1.88198e-17)
(0.990441 0.198411 0)
(0.990122 0.196236 8.02867e-18)
(0.989271 0.192974 -7.76935e-18)
(0.988772 0.189389 0)
(0.988281 0.185463 -1.35632e-17)
(0.987611 0.180999 0)
(0.986852 0.175995 0)
(0.98604 0.170512 0)
(0.985145 0.164577 0)
(0.984206 0.1582 0)
(0.983343 0.151386 1.82804e-19)
(0.982702 0.144142 -9.52751e-18)
(0.982426 0.13652 -1.82176e-19)
(0.98266 0.128777 1.83589e-19)
(0.9835 0.121146 0)
(0.984945 0.113609 0)
(0.986875 0.106091 0)
(0.989103 0.0985715 -2.02558e-19)
(0.991462 0.0910722 2.06479e-19)
(0.99384 0.083619 -3.95177e-18)
(0.996164 0.076222 -3.92064e-18)
(0.998377 0.0688784 0)
(1.00044 0.0615793 -3.98516e-18)
(1.00231 0.0543152 3.97265e-18)
(1.00396 0.0470781 0)
(1.00538 0.0398619 1.92499e-18)
(1.00655 0.0326668 1.98308e-18)
(1.00745 0.0255004 0)
(1.00809 0.0183759 0)
(1.00847 0.0113068 1.00199e-18)
(1.00862 0.00433027 -1.48691e-20)
(1.00858 -0.00258591 -4.94631e-19)
(1.00836 -0.00941131 0)
(1.008 -0.0161365 0)
(1.00752 -0.0227661 -1.01108e-18)
(1.00693 -0.0293004 0)
(1.00625 -0.0357373 -1.02134e-18)
(1.00548 -0.0420759 -5.8899e-20)
(1.00464 -0.0483158 0)
(1.00375 -0.0544567 2.08898e-18)
(1.00282 -0.060498 4.15812e-18)
(1.00186 -0.0664378 2.07125e-18)
(1.00089 -0.0722712 0)
(0.999925 -0.0779886 -4.35395e-18)
(0.998977 -0.0835768 0)
(0.998081 -0.0890226 -2.17579e-18)
(0.99728 -0.0943211 0)
(0.99663 -0.0994841 0)
(0.996189 -0.104548 0)
(0.996009 -0.109578 0)
(0.996119 -0.114669 0)
(0.996512 -0.119933 -4.77361e-18)
(0.997136 -0.125478 4.80708e-18)
(0.997888 -0.131386 0)
(0.998631 -0.137679 4.72499e-18)
(0.999215 -0.144304 -4.91763e-18)
(0.999511 -0.151124 0)
(0.999436 -0.157931 -4.91552e-18)
(0.998977 -0.16447 0)
(0.998189 -0.170479 0)
(0.997179 -0.175714 0)
(0.996085 -0.179969 -5.68545e-18)
(0.995057 -0.183092 6.02591e-18)
(0.99424 -0.184983 -6.29374e-18)
(0.993779 -0.185604 1.31422e-17)
(0.993824 -0.184985 -6.84001e-18)
(0.99454 -0.18323 0)
(0.99612 -0.18052 7.38834e-18)
(0.998795 -0.177106 -7.44021e-18)
(1.00283 -0.1733 0)
(1.00854 -0.169448 -1.1713e-19)
(1.01622 -0.165902 -7.10128e-18)
(1.02634 -0.162986 0)
(1.03866 -0.160906 0)
(1.05514 -0.159788 -4.56756e-18)
(1.06932 -0.159341 0)
(1.10039 -0.159528 -1.28536e-18)
(0.976761 0.214804 0)
(0.984936 0.20201 -1.22213e-17)
(0.992771 0.199204 -1.07025e-17)
(0.995649 0.198991 0)
(0.994983 0.196871 1.84244e-17)
(0.993957 0.193635 1.73984e-17)
(0.993389 0.19014 0)
(0.992829 0.186205 1.56634e-17)
(0.992161 0.181685 -1.48741e-17)
(0.99156 0.176662 0)
(0.991075 0.171202 0)
(0.990636 0.165313 0)
(0.990183 0.158988 0)
(0.989696 0.15221 -1.13209e-17)
(0.989165 0.144966 -1.11252e-17)
(0.988598 0.137281 1.02261e-17)
(0.988069 0.12939 -3.02712e-17)
(0.9877 0.12154 0)
(0.987573 0.113753 0)
(0.987691 0.10599 9.70064e-18)
(0.988004 0.0982512 1.89724e-17)
(0.988459 0.0905685 -9.2894e-18)
(0.989024 0.0829709 0)
(0.98968 0.0754696 0)
(0.990405 0.0680606 -4.65843e-18)
(0.991171 0.0607335 9.17746e-18)
(0.99195 0.0534767 -9.15476e-18)
(0.992711 0.0462792 0)
(0.993427 0.0391315 0)
(0.994073 0.0320294 -2.25996e-18)
(0.994627 0.0249757 0)
(0.995075 0.0179773 2.33015e-18)
(0.995407 0.0110471 -1.14182e-18)
(0.995646 0.00418328 -1.45029e-20)
(0.995797 -0.00262363 -7.27343e-21)
(0.995862 -0.00934846 0)
(0.995858 -0.0159824 0)
(0.995799 -0.0225311 -2.90094e-20)
(0.995695 -0.0289968 1.18331e-18)
(0.995554 -0.0353776 3.53966e-18)
(0.995387 -0.0416722 4.72979e-18)
(0.995206 -0.04788 2.41071e-18)
(0.995022 -0.0540012 -2.37197e-18)
(0.994846 -0.0600349 -2.39302e-18)
(0.994685 -0.0659791 2.4734e-18)
(0.99455 -0.0718296 0)
(0.994451 -0.0775789 4.93627e-18)
(0.994402 -0.0832175 -5.1065e-18)
(0.994425 -0.088737 0)
(0.994551 -0.0941364 0)
(0.994816 -0.0994289 0)
(0.995258 -0.104648 0)
(0.995908 -0.109851 0)
(0.99678 -0.115115 0)
(0.997857 -0.120534 5.3904e-18)
(0.999088 -0.126195 -1.09791e-17)
(1.00038 -0.132161 -5.59477e-18)
(1.00162 -0.138448 5.6402e-18)
(1.00266 -0.145006 5.54499e-18)
(1.00339 -0.151712 -5.77139e-18)
(1.00371 -0.158381 5.87204e-18)
(1.00357 -0.164784 0)
(1.00296 -0.170673 6.16989e-18)
(1.00191 -0.175812 -6.37013e-18)
(1.00048 -0.179993 0)
(0.998768 -0.183055 -1.36577e-17)
(0.996865 -0.184894 7.10504e-18)
(0.994905 -0.185471 -1.48568e-17)
(0.993062 -0.184821 7.74431e-18)
(0.991561 -0.183065 0)
(0.990684 -0.180405 8.22486e-18)
(0.990773 -0.177117 8.47778e-18)
(0.992211 -0.173534 -8.45178e-18)
(0.995431 -0.17002 -8.45359e-18)
(1.00081 -0.166927 8.14338e-18)
(1.00893 -0.164584 0)
(1.01957 -0.163131 0)
(1.03486 -0.16275 5.25744e-18)
(1.04824 -0.162672 0)
(1.07922 -0.163492 1.48315e-18)
(0.977833 0.212617 1.62056e-17)
(0.988995 0.19965 0)
(0.998472 0.199058 -2.40937e-17)
(1.00125 0.199733 2.1828e-17)
(1.00018 0.19759 -2.08156e-17)
(0.99903 0.194434 1.99649e-17)
(0.998399 0.191033 0)
(0.997724 0.187058 1.60212e-19)
(0.996946 0.182455 1.67929e-17)
(0.996278 0.177367 0)
(0.995792 0.171857 0)
(0.995442 0.165931 0)
(0.995188 0.159586 2.77062e-17)
(0.995003 0.152813 0)
(0.994848 0.145595 2.46894e-17)
(0.994672 0.13794 0)
(0.994465 0.130056 4.61788e-17)
(0.994268 0.122182 0)
(0.994123 0.114345 0)
(0.994033 0.106519 -2.20804e-17)
(0.993975 0.0987118 -1.08141e-17)
(0.993934 0.0909544 0)
(0.993915 0.0832775 0)
(0.993933 0.0756957 0)
(0.993998 0.0682101 5.26003e-18)
(0.994115 0.0608146 -5.24294e-18)
(0.99428 0.0535011 -1.07961e-19)
(0.994483 0.0462604 0)
(0.994713 0.0390835 5.33875e-18)
(0.994959 0.031966 0)
(0.995206 0.0249088 0)
(0.995446 0.0179155 -2.63382e-18)