/*--------------------------------*- C++ -*----------------------------------*\
| =========                 |                                                 |
| \\      /  F ield         | OpenFOAM: The Open Source CFD Toolbox           |
|  \\    /   O peration     | Version:  v1912                                 |
|   \\  /    A nd           | Website:  www.openfoam.com                      |
|    \\/     M anipulation  |                                                 |
\*---------------------------------------------------------------------------*/
FoamFile
{
    version     2.0;
    format      ascii;
    class       volScalarField;
    location    "510";
    object      epsilon;
}
// * * * * * * * * * * * * * * * * * * * * * * * * * * * * * * * * * * * * * //

dimensions      [0 2 -3 0 0 0 0];


internalField   nonuniform List<scalar> 
12441
(
0.0102964
0.00908498
0.00832709
0.00770261
0.00718364
0.00674892
0.0063822
0.00607078
0.00580483
0.00557627
0.00537876
0.00520357
0.00505456
0.00490931
0.0047935
0.00469112
0.0048891
0.0205112
0.278056
3.05153
20.9486
39.25
0.0101189
0.00892016
0.008184
0.00757688
0.00707192
0.00664864
0.00629134
0.00598779
0.0057285
0.00550561
0.00531301
0.00514171
0.00499667
0.00485549
0.00474314
0.00464527
0.00480923
0.0202697
0.261872
3.0438
21.2384
40.2318
0.0098969
0.00871739
0.00800032
0.00740908
0.00691748
0.00650551
0.00615791
0.00586276
0.00561083
0.00539451
0.00520788
0.00504196
0.00490212
0.00476397
0.00465693
0.00456442
0.00464669
0.0183548
0.221525
3.01245
21.6174
41.3784
0.00967332
0.00851375
0.00781495
0.00723885
0.00675991
0.00635865
0.00602018
0.00573294
0.00548793
0.00527775
0.00509668
0.00493611
0.00480108
0.0046709
0.00456841
0.00448081
0.00450206
0.0160582
0.182281
2.9892
22.0848
42.5504
0.00942908
0.00828912
0.00760905
0.00704859
0.00658283
0.0061928
0.00586402
0.00558526
0.00534774
0.00514434
0.0049695
0.00481476
0.00468537
0.00455866
0.00446248
0.00438225
0.00435155
0.0139884
0.162111
2.9955
22.6031
43.6698
0.00922311
0.00809951
0.00743466
0.00688681
0.00643161
0.00605051
0.00572933
0.00545711
0.00522528
0.00502688
0.00485652
0.00470608
0.00458047
0.00446127
0.00436875
0.00429215
0.00427765
0.0140728
0.181437
3.10229
23.2355
44.7472
0.00900244
0.00789589
0.00724749
0.00671338
0.00626975
0.00589852
0.00558583
0.00532103
0.00509575
0.00490325
0.0047383
0.00459293
0.00447211
0.00435553
0.00426695
0.00419831
0.00602875
0.023089
0.287289
3.40502
24.084
45.7945
0.00882399
0.00773125
0.00709569
0.00657217
0.00613738
0.00577356
0.00546713
0.00520766
0.00498696
0.00479842
0.00463694
0.00449481
0.00437691
0.00426726
0.00418627
0.0051622
0.0342301
0.0791419
0.602132
4.04588
25.2752
46.8732
0.00862985
0.00755203
0.00693099
0.00641959
0.00599501
0.00563989
0.00534096
0.00508802
0.00487308
0.0046897
0.0045329
0.00439527
0.00428227
0.00413408
0.00538125
0.0267962
0.172217
0.293725
1.29167
5.17964
26.9439
48.0153
0.00847516
0.00740915
0.0067991
0.00629675
0.00587969
0.00553084
0.00523719
0.00498871
0.00477755
0.00459742
0.00444344
0.00430853
0.00419813
0.00426528
0.0249407
0.144901
0.499986
0.768172
2.37479
6.86641
29.1882
49.2846
0.00830571
0.00725267
0.00665535
0.00616363
0.00575553
0.00541432
0.00512723
0.00488447
0.00467835
0.00450269
0.00435274
0.00422276
0.00408615
0.00942383
0.1096
0.401837
0.950274
1.43319
3.62677
8.99746
32.0351
50.6975
0.0081707
0.00712799
0.00654023
0.00605636
0.00565474
0.00531894
0.00503636
0.00479739
0.00459447
0.00442154
0.00427394
0.00414754
0.00416097
0.0470819
0.29496
0.715926
1.35832
2.08116
4.78742
11.348
35.4279
52.295
0.00802155
0.0069903
0.0064139
0.0059395
0.00554586
0.00521684
0.0049401
0.00470621
0.00450773
0.00433873
0.00419465
0.0040341
0.00832973
0.15398
0.518567
0.975487
1.65428
2.58873
5.74574
13.6975
39.2526
54.0597
0.00790067
0.00687869
0.00631084
0.00584346
0.00545563
0.00513144
0.00485874
0.00462824
0.00443264
0.0042661
0.00412413
0.0038789
0.0360876
0.304097
0.699688
1.15391
1.85299
2.95215
6.50633
15.8977
43.3674
56.0037
0.00776927
0.0067573
0.00619948
0.00574047
0.00535967
0.00504147
0.0047739
0.00454785
0.00435612
0.00419299
0.00405404
0.00425887
0.105432
0.441268
0.826
1.27299
1.98722
3.2097
7.11097
17.8781
47.636
58.0812
0.00766021
0.00665665
0.00610656
0.00565388
0.00527832
0.00496447
0.00470055
0.00447758
0.00428845
0.00412756
0.0039906
0.00939125
0.197931
0.544251
0.911792
1.35474
2.08133
3.39755
7.60151
19.6198
51.9403
60.2902
0.00754425
0.00654956
0.00600838
0.00556312
0.00519379
0.00488521
0.00462579
0.00440668
0.0042209
0.00406292
0.00392895
0.0312397
0.284845
0.617556
0.971918
1.41342
2.15047
3.54081
8.01042
21.1327
56.1918
62.571
0.00744274
0.006456
0.00592211
0.00548285
0.0051185
0.00481409
0.00455818
0.00434206
0.00415884
0.00400308
0.00387371
0.0754713
0.353986
0.670236
1.01601
1.45755
2.20378
3.6556
8.36088
22.438
60.3278
64.9213
0.00734011
0.00636107
0.00583502
0.00540226
0.00504335
0.00474352
0.0044915
0.00427871
0.00409836
0.00394508
0.00380972
0.128652
0.405891
0.709541
1.04987
1.49225
2.24689
3.75214
8.66885
23.5603
64.3128
67.2818
0.00724549
0.00627395
0.00575474
0.00532764
0.00497344
0.00467758
0.00442893
0.00421901
0.00404114
0.00389004
0.00427332
0.177669
0.44485
0.74016
1.07702
1.52071
2.28338
3.83694
8.94511
24.5231
68.1305
69.6617
0.00715525
0.00619041
0.00567808
0.00525664
0.00490713
0.00461518
0.00436982
0.00416268
0.00398718
0.00383816
0.00980052
0.218361
0.474962
0.765007
1.09963
1.54499
2.31566
3.91413
9.19679
25.3476
71.7848
72.0102
0.00706448
0.00610702
0.00560142
0.00518558
0.00484078
0.00455285
0.00431091
0.00410673
0.0039338
0.00378755
0.0271791
0.251057
0.499133
0.785912
1.11916
1.56651
2.34542
3.98623
9.42846
26.0527
75.2927
74.3523
0.00698518
0.00603338
0.00553367
0.00512264
0.00478179
0.00449712
0.0042579
0.00405599
0.00388499
0.00374245
0.0546578
0.277374
0.519266
0.80406
1.13658
1.58624
2.37382
4.05462
9.64303
26.6548
78.6871
76.6493
0.00689869
0.00595401
0.00546081
0.00505523
0.00471901
0.00443829
0.00420248
0.00400353
0.00383511
0.00370267
0.0837721
0.298899
0.536592
0.820259
1.15259
1.60492
2.40165
4.11996
9.84237
27.1685
82.0108
78.9445
0.0068304
0.00589048
0.00540225
0.00500066
0.00466764
0.0043895
0.00415579
0.00395854
0.00379154
0.00368404
0.109582
0.316945
0.551917
0.835075
1.16771
1.62304
2.42935
4.18255
10.0277
27.6067
85.3202
81.212
0.00674472
0.00581214
0.00533064
0.00493475
0.00460662
0.00433271
0.00410266
0.00390863
0.00374445
0.00364471
0.131243
0.332492
0.565785
0.84892
1.18231
1.64095
2.45711
4.24253
10.2
27.9807
88.6793
83.5114
0.00668556
0.00575677
0.00527932
0.0048866
0.00456097
0.00428902
0.00406053
0.00386774
0.00370462
0.00383526
0.149482
0.346229
0.578575
0.862095
1.19663
1.65887
2.48488
4.3
10.3599
28.3003
92.1615
85.8273
0.00660185
0.00568037
0.00520965
0.00482269
0.00450202
0.0042344
0.00400968
0.0038202
0.00366008
0.00574198
0.165214
0.358638
0.59056
0.874821
1.21085
1.67689
2.51256
4.3551
10.5083
28.5739
95.8426
88.2307
0.00655216
0.00563361
0.00516605
0.00478145
0.00446254
0.0041962
0.00397244
0.00378365
0.00362447
0.0109261
0.179149
0.37005
0.601939
0.887255
1.22508
1.695
2.54002
4.40797
10.6457
28.8086
99.7996
90.7106
0.00646809
0.00555721
0.00509674
0.00471826
0.00440468
0.00414301
0.00392332
0.00373812
0.00358306
0.0200999
0.191769
0.380698
0.612859
0.899504
1.23934
1.71317
2.56713
4.45875
10.773
29.0102
104.102
93.3406
0.00642584
0.00551702
0.00505886
0.004682
0.00436953
0.00410859
0.0038894
0.0037045
0.00355191
0.032919
0.20338
0.390753
0.623427
0.911633
1.25365
1.73133
2.59381
4.50757
10.8908
29.1838
108.812
96.1058
0.00634339
0.00544224
0.00499117
0.00462049
0.00431342
0.00405724
0.00384221
0.00366097
0.00351599
0.0481433
0.214179
0.400335
0.633721
0.92368
1.26797
1.74942
2.62
4.55452
10.9999
29.3339
113.976
99.0732
0.00630969
0.00540983
0.00496026
0.00459043
0.00428376
0.00402765
0.00381253
0.00363107
0.00349485
0.064386
0.2243
0.409537
0.643794
0.935655
1.28228
1.76736
2.64565
4.59967
11.1009
29.4647
119.628
102.217
0.00622523
0.0053336
0.00489167
0.00452857
0.00422782
0.00397695
0.0037664
0.00358896
0.00347371
0.0805451
0.233835
0.418425
0.65368
0.947556
1.29651
1.78511
2.67074
4.64307
11.1945
29.5805
125.788
105.592
0.00619837
0.00530727
0.00486601
0.00450301
0.004202
0.00395063
0.00373951
0.00356147
0.00347829
0.0959447
0.242852
0.427045
0.663395
0.959365
1.31064
1.80261
2.69522
4.68471
11.2815
29.6852
132.471
109.157
0.0061114
0.00522919
0.0047962
0.00444048
0.00414591
0.00390022
0.00369404
0.00352033
0.00354716
0.110209
0.251399
0.435432
0.672947
0.971061
1.3246
1.81982
2.71908
4.72458
11.3626
29.7824
139.681
112.957
0.00608783
0.00520579
0.00477305
0.00441704
0.00412183
0.00387533
0.00366835
0.00349387
0.0061657
0.123141
0.259506
0.443603
0.682329
0.982615
1.33837
1.83671
2.74227
4.76263
11.4383
29.875
147.419
116.938
0.00599586
0.00512382
0.00470025
0.00435231
0.00406421
0.00382396
0.0036224
0.00345263
0.0248347
0.134576
0.267189
0.451569
0.691531
0.993995
1.3519
1.85324
2.76476
4.79879
11.5095
29.9648
155.67
121.137
0.00596753
0.00509632
0.00467352
0.00432572
0.00403735
0.00379663
0.00359457
0.00342487
0.0450785
0.144233
0.274456
0.459331
0.700534
1.00517
1.36514
1.86936
2.78651
4.83297
11.5769
30.0523
164.38
125.495
0.00586287
0.00500344
0.00459142
0.00425307
0.00397302
0.0037396
0.00354389
0.00338451
0.0559491
0.152121
0.281307
0.466881
0.709316
1.01609
1.37806
1.88504
2.80745
4.86507
11.641
30.1366
173.417
130.045
0.00582126
0.00496395
0.00455385
0.00421661
0.00393716
0.0037041
0.00350872
0.00333979
0.0618047
0.15851
0.287746
0.474208
0.717852
1.02673
1.39062
1.90024
2.82753
4.895
11.7025
30.2164
182.512
134.727
0.00569964
0.00485644
0.00445883
0.00413229
0.00386213
0.00363718
0.00344888
0.00335771
0.0652821
0.163702
0.293777
0.481293
0.726115
1.03704
1.40276
1.9149
2.84667
4.92267
11.7616
30.2904
191.186
139.588
0.00561733
0.00478988
0.0044043
0.0040861
0.00382156
0.00360026
0.00341412
0.00363033
0.0675214
0.167949
0.299408
0.488114
0.73408
1.04696
1.41444
1.92897
2.86478
4.94802
11.818
30.3589
198.746
144.654
0.00525492
0.00446063
0.00411238
0.00382684
0.00358962
0.00339111
0.00322377
0.0037513
0.0690417
0.171441
0.304648
0.494645
0.741721
1.05645
1.42561
1.94238
2.88178
4.97107
11.8708
30.4235
204.386
150.447
95.0235
43.6619
27.3691
21.9246
22.5695
19.6773
19.1762
17.1076
16.0043
15.4135
14.7147
13.9235
14.6248
16.7588
19.9169
23.3491
26.1447
28.6034
31.0716
32.9754
34.4675
36.3104
38.1935
39.4226
39.9695
39.5961
38.5166
37.207
35.9853
34.1426
32.7215
32.9247
34.2556
5.62412
2.92019
94.6475
43.6704
27.3863
22.1027
22.9615
19.9911
19.4949
17.3524
16.222
15.6005
14.812
14.0157
14.7315
16.8869
20.0242
23.4494
26.3229
28.8716
31.4751
33.4845
34.991
36.7987
38.7056
40.0026
40.6332
40.3033
39.194
37.7835
36.4545
34.5179
33.0312
33.2681
34.6884
5.64953
2.91802
93.9266
43.6744
27.4196
22.4631
23.7416
20.6198
20.1171
17.8284
16.6529
15.9728
15.0167
14.2117
14.9543
17.1202
20.2224
23.6502
26.6318
29.3604
32.303
34.5961
36.1409
37.8532
39.7725
41.1779
41.9713
41.7425
40.5965
38.9941
37.4378
35.2932
33.6656
33.9708
34.6761
5.68881
2.91368
92.8104
43.6646
27.4727
23.0221
24.8989
21.5632
21.0181
18.5196
17.2894
16.5253
15.355
14.5432
15.3191
17.4817
20.5589
23.9944
27.1087
30.1266
33.6772
36.5479
38.1565
39.6441
41.5035
43.021
44.0442
43.9868
42.825
40.9503
39.0245
36.5263
34.6564
35.0637
34.5001
5.74554
2.90726
91.3035
43.6317
27.5517
23.7926
26.4157
22.8151
22.1747
19.4165
18.1242
17.252
15.856
15.0477
15.863
18.0059
21.077
24.5434
27.8211
31.2586
35.788
39.7392
41.4667
42.4859
44.1024
45.6672
46.96
47.1531
46.0314
43.8226
41.3537
38.3061
36.0535
36.5947
34.3877
5.8244
2.8988
89.3553
43.5668
27.6652
24.7898
28.2875
24.378
23.58
20.5227
19.16
18.1548
16.5463
15.7611
16.622
18.7267
21.8085
25.3558
28.8569
32.8853
38.8892
44.762
46.7952
46.9368
47.9338
49.3557
50.8992
51.4169
50.4304
47.8575
44.6329
40.7649
37.9305
38.631
34.5146
5.93106
2.88841
87.0012
43.4615
27.8258
26.039
30.5282
26.2703
25.2469
21.8561
20.413
19.2497
17.4545
16.7198
17.638
19.6938
22.7879
26.481
30.3246
35.1919
43.2979
52.4165
55.3188
53.9773
53.6427
54.5003
56.1577
57.0383
56.3178
53.4006
49.164
44.0961
40.3925
41.2624
35.0241
6.07226
2.87617
84.2135
43.3076
28.0512
27.5748
33.1623
28.5226
27.2046
23.4473
21.913
20.5674
18.6188
17.9673
18.9713
20.9926
24.083
27.9825
32.3608
38.4484
49.4111
63.6414
68.8277
65.3051
62.3672
61.8104
63.2145
64.4027
64.096
60.9244
55.3769
48.5773
43.5863
44.6052
36.0525
6.25606
2.86217
81.0699
43.0966
28.3656
29.4372
36.2157
31.1711
29.4936
25.3376
23.7017
22.1532
20.0927
19.5619
20.7078
22.758
25.8171
29.9693
35.1563
43.0496
57.7418
79.2085
89.5536
83.6666
76.0723
72.4829
72.8318
74.0762
74.3048
71.0542
63.8662
54.5994
47.714
48.8057
37.7541
6.49212
2.84652
77.574
42.8201
28.8019
31.6643
39.7055
34.251
32.1601
27.5766
25.8307
24.066
21.9483
21.5779
22.9561
25.1842
28.1922
32.6269
38.9917
49.5529
68.9057
98.9881
118.649
112.514
97.8422
88.4318
86.1645
86.8527
87.6335
84.5626
75.4081
62.6908
53.0453
54.0411
40.3283
6.79206
2.82931
73.8369
42.4689
29.4031
34.2834
43.6338
37.7907
35.2512
30.2193
28.359
26.3767
24.2776
24.1083
25.8383
28.5227
31.5121
36.2459
44.2758
58.6746
83.3915
120.992
152.383
152.589
131.036
112.215
104.74
103.71
104.844
102.252
90.8819
73.5039
59.9216
60.5105
44.0473
7.16949
2.81062
69.8857
42.0328
30.2241
37.3039
47.9845
41.8074
38.8086
33.322
31.348
29.1652
27.191
27.2592
29.4688
33.0537
36.2085
41.2565
51.5579
71.0926
100.908
141.562
180.576
194.363
174.387
145.395
129.83
125.435
126.431
124.539
110.918
87.6738
68.7271
68.4056
49.2859
7.63968
2.79045
65.8489
41.5009
31.3316
40.7142
52.7228
46.3062
42.8625
36.9364
34.8548
32.5133
30.8081
31.1464
33.9204
38.9901
42.8219
48.2395
61.4538
86.8313
119.575
157.57
195.198
220.002
214.366
183.657
160.365
151.537
151.788
150.513
134.99
105.369
79.7745
77.8391
56.5365
8.21785
2.76878
61.7626
40.8616
32.8003
44.4854
57.799
51.2813
47.4298
41.1024
38.9219
36.4923
35.2396
35.8659
39.1779
46.2787
51.8517
57.8427
74.3083
104.286
136.111
168.142
198.213
223.278
232.732
213.588
190.034
178.573
178.017
176.715
160.021
125.381
93.0295
88.7051
66.3636
8.91512
2.74544
57.7502
40.1033
34.7053
48.5805
63.1534
56.7223
52.5087
45.8421
43.5719
41.1471
40.5514
41.4629
45.0915
54.3353
63.2723
70.3904
89.4799
120.203
147.83
174.031
196.078
213.946
227.673
223.167
208.982
200.055
199.764
197.225
180.023
144.228
107.653
100.473
79.1808
9.73007
2.7201
53.8399
39.2166
37.1086
52.9648
68.7282
62.6013
58.0803
51.1597
48.8032
46.482
46.7244
47.8744
51.3587
61.9877
75.7474
85.0175
104.67
131.746
154.452
176.508
192.826
202.363
211.63
214.547
212.289
210.368
211.755
206.647
189.067
156.911
121.636
112.007
94.6736
10.6347
2.69224
50.1273
38.199
40.0454
57.6004
74.471
68.8749
64.1093
57.0429
54.5931
52.4578
53.6397
54.9145
57.6015
67.9376
86.3402
98.8425
116.71
138.587
157.722
176.885
189.444
192.447
194.81
198.162
203.834
209.123
212.282
203.71
185.687
160.094
132.177
121.64
110.905
11.5573
2.66113
46.6135
37.0625
43.5112
62.4332
80.3379
75.477
70.5424
63.4631
60.9065
59.0013
61.0846
62.2983
63.5221
71.587
92.1556
108.039
123.773
142.315
159.585
176.231
185.668
184.102
180.607
181.642
190.621
200.272
203.633
191.382
173.34
154.527
137.08
127.709
124.022
12.3743
2.62589
43.349
35.8463
47.4432
67.4131
86.2746
82.3117
77.3045
70.3722
67.704
66.0332
68.8455
69.7879
69.0806
73.384
92.6772
110.847
126.544
144.777
161.162
175.068
181.109
176.198
168.843
167.656
177.339
188.173
189.587
174.088
156.97
143.729
136.023
129.304
129.98
12.9324
2.58566
40.3033
34.6288
51.7025
72.4964
92.2134
89.2509
84.2943
77.6956
74.9438
73.4884
76.7901
77.3
74.5322
74.4583
89.9524
108.917
127.121
147.18
162.67
173.356
175.557
167.903
158.534
156.258
165.703
175.42
173.237
155.423
140.229
131.194
130.417
126.625
127.358
13.1035
2.53978
37.4893
33.5162
56.1183
77.6208
98.0749
96.1451
91.3867
85.3257
82.5748
81.3321
84.9027
84.9882
80.3489
75.985
86.587
105.339
127.602
150.171
163.956
170.746
168.905
158.947
148.961
146.778
155.78
162.95
156.446
137.539
124.956
119.033
122.236
120.657
117.943
12.8385
2.48805
34.8769
32.6234
60.5128
82.7074
103.774
102.842
98.443
93.1248
90.5264
89.5359
93.2828
93.1331
87.0508
78.9107
84.4974
102.634
129.402
154.014
164.787
166.936
161.159
149.449
139.841
138.585
147.063
150.842
140.186
121.44
111.739
108.1
113.065
112.584
104.8
12.1806
2.43078
32.4767
32.0639
64.7269
87.6655
109.229
109.208
105.326
100.938
98.7051
98.0771
102.047
102.04
95.0839
83.8841
84.6987
102.192
133.369
158.839
165.094
161.856
152.463
139.713
131.17
131.256
138.983
138.936
124.96
107.436
100.539
98.5288
103.827
103.379
90.4834
11.2376
2.36873
30.2708
31.9401
68.6456
92.3988
114.364
115.137
111.913
108.614
106.986
106.88
111.248
111.875
104.703
91.3556
87.7995
104.758
139.953
164.661
164.874
155.691
143.133
130.087
123.058
124.527
131.091
127.136
111.042
95.4771
91.0707
90.1452
94.9298
93.6997
76.5617
10.1377
2.30298
28.2673
32.3392
72.2073
96.8137
119.117
120.557
118.107
116.02
115.252
115.871
120.873
122.667
115.949
101.522
94.184
110.775
149.463
171.493
164.248
148.774
133.581
120.896
115.604
118.224
123.094
115.502
98.5746
85.3486
82.9945
82.6884
86.4814
83.9554
63.8372
8.99568
2.2347
26.4614
33.331
75.3982
100.83
123.443
125.432
123.842
123.061
123.396
124.975
130.871
134.331
128.688
114.348
104.23
120.712
162.08
179.243
163.309
141.508
124.245
112.394
108.854
112.2
114.853
104.219
87.5941
76.781
75.9929
75.9105
78.4632
74.4082
52.6508
7.89568
2.16502
24.8623
34.9669
78.2368
104.397
127.318
129.757
129.088
129.687
131.352
134.147
141.223
146.819
142.779
129.555
118.103
135.023
177.945
187.751
162.184
134.282
115.486
104.748
102.792
106.323
106.362
93.52
78.0528
69.504
69.8014
69.6148
70.8275
65.2489
43.0836
6.88855
2.09492
23.4808
37.2794
80.757
107.495
130.747
133.563
133.853
135.895
139.097
143.39
151.981
160.183
158.222
146.902
135.816
154.191
196.978
196.62
160.868
127.432
107.571
98.0261
97.3501
100.472
97.7229
83.6184
69.8397
63.2716
64.2119
63.6637
63.5443
56.6321
35.0698
5.99786
2.0252
22.3333
40.278
82.9946
110.142
133.755
136.903
138.178
141.726
146.671
152.785
163.315
174.701
175.324
166.397
157.186
178.486
218.845
205.285
159.302
121.183
100.638
92.22
92.4198
94.553
89.1124
74.6586
62.8058
57.8731
59.0702
57.976
56.6152
48.6828
28.4648
5.22828
1.95646
21.4546
43.9434
84.9796
112.377
136.386
139.848
142.133
147.261
154.168
162.492
175.536
190.927
194.825
188.588
182.338
208.065
242.668
212.899
157.261
115.642
94.7294
87.257
87.874
88.5182
80.7379
66.7043
56.7875
53.1349
54.2677
52.5176
50.0693
41.4901
23.0873
4.57317
1.8891
20.8892
48.217
86.7339
114.253
138.694
142.472
145.802
152.613
161.741
172.773
189.152
209.837
218.129
214.728
211.933
242.908
267.076
218.559
154.529
110.78
89.7893
83.0231
83.5788
82.3725
72.7977
59.7447
51.6234
48.9184
49.7349
47.2894
43.9509
35.101
18.7481
4.02035
1.8234
20.7351
52.9912
88.2745
115.827
140.738
144.853
149.281
157.919
169.606
184.009
204.916
232.967
247.614
247.171
247.63
283.015
290.075
221.322
150.848
106.47
85.7023
79.376
79.4106
76.176
65.449
53.716
47.1656
45.1159
45.4319
42.3144
38.3047
29.5197
15.2677
3.5557
1.75953
21.1259
58.1085
89.6169
117.157
142.58
147.067
152.678
163.351
178.051
196.738
223.927
262.656
287.064
289.726
292.074
327.842
309.346
220.54
146.101
102.515
82.2969
76.1602
75.2688
70.031
58.7912
48.5216
43.2849
41.6461
41.3421
37.6257
33.1647
24.7141
12.4859
3.16538
1.69755
22.2957
63.3743
90.7799
118.299
144.28
149.193
156.112
169.12
187.467
211.714
247.754
302.235
341.835
347.79
348.641
375.368
322.258
215.845
140.228
98.6995
79.378
73.2146
71.087
64.0608
52.8647
44.0522
39.8729
38.4489
37.4634
33.2563
28.5478
20.626
10.265
2.83678
1.63749
24.5223
68.5843
91.7856
119.305
145.903
151.315
159.731
175.499
198.389
230.007
278.628
356.029
417.496
426.147
418.685
420.113
326.397
207.332
133.331
94.8259
76.7306
70.3845
66.8374
58.3854
47.6593
40.1981
36.8413
35.4812
33.8028
29.2321
24.4521
17.1817
8.49097
2.55901
1.57934
28.1637
73.555
92.6579
120.22
147.516
153.532
163.716
182.862
211.575
253.162
319.653
428.246
513.685
520.708
494.836
452.318
319.992
195.408
125.553
90.7494
74.1519
67.5307
62.5307
53.1014
43.1294
36.8585
34.1198
32.7128
30.3703
25.5684
20.8589
14.3013
7.07069
2.32289
1.52306
33.4954
78.1489
93.4205
121.088
149.195
155.967
168.32
191.741
228.153
283.48
374.909
519.025
611.822
604.742
553.073
460.483
302.899
180.849
117.135
86.3862
71.4603
64.5426
58.2063
48.2701
39.2075
33.9449
31.6539
30.123
27.1755
22.2683
17.737
11.9056
5.92964
2.12082
1.46861
40.701
82.2868
94.0947
121.95
151.034
158.787
173.903
202.945
249.872
324.435
448.58
615.633
672.42
635.265
563.312
439.218
276.992
164.595
108.325
81.7229
68.5268
61.3454
53.9201
43.9154
35.8172
31.3832
29.4023
27.6979
24.2247
19.3241
15.0466
9.92075
5.00874
1.94662
1.41594
49.6321
85.9555
94.6993
122.853
153.156
162.236
181.028
217.777
279.588
381.112
540.53
686.431
666.116
596.071
519.697
394.595
245.918
147.693
99.4113
76.805
65.2768
57.9066
49.729
40.0278
32.8814
29.1133
27.3347
25.428
21.5197
16.7197
12.7441
8.28028
4.26146
1.79522
1.36501
59.8743
89.1954
95.2522
123.852
155.74
166.699
190.616
238.469
322.099
459.429
634.465
697.891
603.259
515.417
447.089
339.978
213.528
131.031
90.6482
71.731
61.7039
54.2326
45.6801
36.5731
30.3278
27.0875
25.4294
23.3073
19.0579
14.4326
10.7848
6.9263
3.65139
1.66257
1.31577
70.5911
92.0791
95.7716
125.027
159.068
172.825
204.303
269.075
385.115
558.893
689.664
645.749
515.889
429.174
372.592
286.36
182.629
115.279
82.2794
66.6314
57.857
50.3654
41.8039
33.5007
28.0914
25.2689
23.6716
21.3319
16.8325
12.4366
9.12541
5.80928
3.15004
1.54535
1.2682
80.9187
94.6962
96.2798
126.497
163.626
181.805
225.203
317.111
477.001
650.769
669.592
554.445
428.557
354.849
308.712
238.637
154.512
100.808
74.4829
61.6549
53.8361
46.3739
38.1149
30.7516
26.1145
23.6284
22.0517
19.4996
14.8335
10.7039
7.72539
4.8875
2.73517
1.44089
1.22228
89.3733
97.1491
96.8086
128.471
170.328
196.026
259.638
394.66
585.77
671.55
581.722
452.922
352.122
295.298
256.648
197.231
129.47
87.7983
67.4003
56.9439
49.7703
42.3499
34.617
28.2639
24.3463
22.143
20.5634
17.8092
13.0486
9.2066
6.54782
4.12619
2.3894
1.34703
1.17798
95.1437
99.5679
97.4122
131.337
181.1
220.726
320.093
503.666
636.88
591.296
464.319
359.818
288.871
248.129
214.128
161.248
107.373
76.27
61.0905
52.6146
45.8028
38.4021
31.3131
25.9783
22.7406
20.7928
19.2024
16.2603
11.4645
7.9176
5.55965
3.49656
2.0991
1.26198
1.13531
0.00337793
0.00250592
0.00228019
0.00217002
0.00213044
0.00213441
0.0021661
0.00379034
0.0698446
0.173604
0.308286
0.499249
0.747069
1.063
1.4333
1.95156
2.89323
4.98632
11.9064
30.4722
206.624
160.182
0.00334452
0.00224277
0.00184341
0.00160858
0.00148874
0.00145203
0.00148453
0.00381313
0.0702398
0.174776
0.310374
0.501787
0.749826
1.06623
1.43695
1.95585
2.89859
4.99383
11.9269
30.5088
207.536
170.326
0.00354056
0.00237583
0.00188227
0.00154507
0.00132405
0.00119431
0.00116412
0.00382991
0.0704989
0.175637
0.312005
0.503623
0.75157
1.06805
1.43883
1.95794
2.90115
4.99787
11.941
30.5465
207.598
180.009
0.00367092
0.00251743
0.00200373
0.00162962
0.0013581
0.0011673
0.00103245
0.00384177
0.0706415
0.176206
0.313176
0.504744
0.75228
1.06845
1.4389
1.95778
2.90084
4.99828
11.947
30.5859
206.874
189.1
0.00392267
0.00276386
0.00222603
0.00182151
0.00151353
0.00127943
0.000997449
0.00384962
0.0706787
0.176498
0.313882
0.50514
0.751941
1.06741
1.43715
1.95533
2.89757
4.99491
11.9434
30.6274
205.408
198.059
0.00406034
0.00292972
0.00239818
0.00199145
0.00167433
0.0014242
0.000985846
0.00385406
0.0706171
0.176519
0.314122
0.504806
0.750546
1.06493
1.43356
1.95058
2.89129
4.98761
11.9289
30.671
203.234
207.054
0.00434057
0.00320789
0.00265905
0.00223262
0.0018949
0.00162327
0.00105448
0.0038555
0.0704606
0.176275
0.313892
0.503739
0.748096
1.06102
1.42814
1.94352
2.88195
4.97625
11.9021
30.7165
200.39
216.085
0.0044787
0.00337927
0.00284357
0.00242278
0.00208547
0.00181005
0.00118092
0.003854
0.0702111
0.17577
0.313196
0.501944
0.744598
1.05568
1.42091
1.93414
2.86951
4.96073
11.862
30.7629
196.926
225.09
0.00478413
0.00368453
0.00313413
0.00269602
0.00234076
0.00204743
0.00130545
0.0038494
0.0698695
0.175008
0.312041
0.49943
0.740072
1.04895
1.41189
1.92245
2.85393
4.94092
11.8074
30.8089
192.899
233.996
0.00490882
0.00384887
0.0033192
0.00289397
0.00254585
0.00225502
0.00139598
0.00384137
0.0694361
0.173992
0.310437
0.496212
0.734542
1.04084
1.40113
1.90848
2.83517
4.91674
11.7379
30.8521
188.369
242.721
0.00522947
0.00417113
0.00362954
0.00318955
0.0028258
0.00251931
0.00151
0.00382953
0.0689103
0.172728
0.308398
0.492313
0.728043
1.03141
1.38866
1.89226
2.81321
4.88807
11.6527
30.8893
183.401
251.153
0.00533942
0.00432473
0.00380958
0.0033884
0.00303757
0.00273914
0.00162977
0.00381331
0.0682907
0.171221
0.305941
0.487761
0.720616
1.02071
1.37456
1.87385
2.78803
4.85481
11.5514
30.9165
178.063
259.158
0.00567215
0.0046608
0.00413622
0.00370243
0.00333779
0.00302539
0.0018341
0.0037921
0.0675744
0.169475
0.303086
0.482586
0.712311
1.00879
1.3589
1.85331
2.75963
4.81684
11.4339
30.9284
172.423
266.587
0.00575638
0.00479294
0.00430089
0.00389231
0.0035469
0.00324868
0.00211183
0.00376491
0.0667565
0.167495
0.299853
0.476828
0.70318
0.99572
1.34176
1.83072
2.72801
4.77403
11.2999
30.9188
166.549
273.288
0.00609212
0.00513318
0.00463381
0.00421464
0.00385735
0.0035471
0.00251606
0.00373071
0.0658288
0.165285
0.296262
0.470527
0.693282
0.981572
1.32323
1.80619
2.69322
4.72625
11.1495
30.8805
160.506
279.113
0.00615229
0.00524301
0.00477994
0.00439045
0.0040572
0.00376608
0.00298213
0.00368745
0.0647787
0.162845
0.292333
0.463727
0.68268
0.966423
1.3034
1.77981
2.65531
4.67335
10.9828
30.8057
154.353
283.929
0.00648677
0.00558294
0.00511431
0.00471583
0.00437213
0.00407036
0.00349422
0.00363299
0.0635863
0.160169
0.28808
0.456472
0.67144
0.950352
1.28238
1.75171
2.61436
4.61516
10.8002
30.6856
148.145
287.627
0.00651847
0.00566551
0.00523632
0.00487142
0.00455603
0.00427787
0.00389099
0.00356262
0.0622222
0.157245
0.283515
0.448808
0.659631
0.933446
1.26026
1.72202
2.57049
4.55154
10.6019
30.5113
141.93
290.125
0.006839
0.00599231
0.00555934
0.00518729
0.00486328
0.0045763
0.00426764
0.00347647
0.0606423
0.154049
0.278641
0.440778
0.647321
0.915788
1.23716
1.69089
2.52383
4.48232
10.3886
30.2738
135.75
291.365
0.0068536
0.0060558
0.00566215
0.00532452
0.00503036
0.00476905
0.00452335
0.00338318
0.0587823
0.150542
0.273453
0.43242
0.634583
0.897467
1.21319
1.65845
2.47455
4.40737
10.1608
29.9642
129.638
291.316
0.00716008
0.00636927
0.00597334
0.00562996
0.00532839
0.00505931
0.00481837
0.0033447
0.0565489
0.146659
0.267926
0.423762
0.621486
0.87857
1.18844
1.62485
2.42285
4.32657
9.91944
29.5745
123.622
289.966
0.00715673
0.00641257
0.00605542
0.00574684
0.00547622
0.00523437
0.00501925
0.00352984
0.0538098
0.142305
0.262016
0.414823
0.608095
0.859186
1.16304
1.59025
2.36892
4.23986
9.66531
29.0976
117.722
287.323
0.00744654
0.00670953
0.00635102
0.00603767
0.00576054
0.00551176
0.00528823
0.00402412
0.0503834
0.137337
0.255647
0.405597
0.594469
0.839403
1.13707
1.55478
2.31301
4.14721
9.39938
28.5281
111.953
283.401
0.00743064
0.00673707
0.00641562
0.00613621
0.00588984
0.00566863
0.00546772
0.00463214
0.0460334
0.131549
0.248698
0.396052
0.580653
0.819309
1.11064
1.5186
2.25537
4.04866
9.12269
27.8624
106.325
278.23
0.00770414
0.00701765
0.00669547
0.00641194
0.00615967
0.00593198
0.00572366
0.0052304
0.0404983
0.124652
0.240985
0.386112
0.566671
0.798986
1.08386
1.48186
2.19624
3.94434
8.83627
27.0995
100.842
271.841
0.00767679
0.00703046
0.00674333
0.00649252
0.00627039
0.00607017
0.00588592
0.00561279
0.0336092
0.11625
0.232235
0.375638
0.552512
0.778509
1.05681
1.44468
2.13592
3.83446
8.54117
26.2407
95.5048
264.28
0.00793326
0.00729363
0.00700606
0.00675152
0.00652387
0.00631749
0.00612712
0.0059208
0.0255878
0.105847
0.222056
0.364407
0.538112
0.757932
1.0296
1.40721
2.0747
3.71934
8.23841
25.2904
90.3106
255.597
0.00789957
0.00729642
0.0070413
0.00681751
0.0066186
0.00643875
0.00627244
0.00610832
0.0174102
0.0929262
0.209896
0.352071
0.523326
0.737275
1.0023
1.36959
2.01287
3.59943
7.92897
24.2556
85.2527
245.857
0.00814114
0.00754419
0.0072887
0.00706137
0.00685712
0.0066712
0.00649902
0.00633476
0.0109004
0.0772009
0.195006
0.338118
0.507897
0.7165
0.974978
1.33194
1.95077
3.47529
7.61379
23.1462
80.3228
235.138
0.00810338
0.00753942
0.00731377
0.00711513
0.00693803
0.00677747
0.00662862
0.0064864
0.00743142
0.0591494
0.176451
0.321801
0.491405
0.69547
0.947659
1.29437
1.88872
3.34767
7.2938
21.9741
75.509
223.537
0.00833019
0.00777186
0.00754582
0.00734379
0.00716152
0.00699501
0.00684036
0.0066938
0.00652164
0.0405855
0.153277
0.302069
0.473209
0.673902
0.920302
1.25698
1.82708
3.21744
6.96996
20.7537
70.799
211.167
0.00829266
0.00776381
0.00756481
0.00738909
0.00723199
0.00708921
0.00695659
0.0068301
0.00658232
0.024502
0.125037
0.277515
0.452358
0.651302
0.892748
1.21982
1.76617
3.08565
6.64333
19.5002
66.1789
198.164
0.00850597
0.00798221
0.00778282
0.00760386
0.00744179
0.00729321
0.00715483
0.00702364
0.00684018
0.0137569
0.092848
0.24647
0.427473
0.626887
0.864661
1.18284
1.70632
2.95353
6.3152
18.2299
61.6369
184.678
0.00847102
0.00797347
0.00779841
0.00764338
0.00750442
0.00737784
0.00726003
0.00714756
0.00701942
0.0086697
0.0605217
0.207532
0.396626
0.599469
0.835445
1.14585
1.64778
2.82241
5.98718
16.9591
57.1635
170.877
0.00867161
0.00817867
0.00800321
0.00784511
0.00770142
0.00756926
0.00744582
0.00732855
0.00720927
0.00711893
0.0339721
0.160952
0.357332
0.567311
0.80414
1.10846
1.59064
2.6937
5.66131
15.7038
52.7562
156.936
0.00864158
0.00817179
0.00801802
0.00788148
0.00775879
0.00764677
0.00754228
0.00744234
0.00734212
0.00695364
0.0174893
0.11074
0.307034
0.527935
0.769286
1.06998
1.53483
2.56873
5.34006
14.4791
48.4205
143.037
0.00883156
0.00836589
0.00821166
0.00807218
0.00794495
0.00782753
0.00771753
0.00761272
0.00751001
0.00720246
0.0102186
0.0653947
0.244787
0.478065
0.728731
1.02927
1.47993
2.44863
5.0263
13.2989
44.1731
129.358
0.00880913
0.00836382
0.00822881
0.00810858
0.00800025