/*--------------------------------*- C++ -*----------------------------------*\
| =========                 |                                                 |
| \\      /  F ield         | OpenFOAM: The Open Source CFD Toolbox           |
|  \\    /   O peration     | Version:  v1912                                 |
|   \\  /    A nd           | Website:  www.openfoam.com                      |
|    \\/     M anipulation  |                                                 |
\*---------------------------------------------------------------------------*/
FoamFile
{
    version     2.0;
    format      ascii;
    class       volScalarField;
    location    "510";
    object      nut;
}
// * * * * * * * * * * * * * * * * * * * * * * * * * * * * * * * * * * * * * //

dimensions      [0 2 -1 0 0 0 0];


internalField   nonuniform List<scalar> 
12441
(
5.82186e-24
1.79047e-20
8.10471e-20
3.32533e-19
1.06828e-18
3.88829e-18
1.01056e-17
2.50054e-17
6.1385e-17
1.27536e-16
3.05678e-16
7.72116e-16
2.17695e-15
7.41401e-15
1.03753e-13
1.89542e-11
0.00019361
0.000929025
0.00299222
0.00260905
0.00364766
0.00775321
6.34181e-24
3.03336e-20
1.11727e-19
4.2393e-19
1.30205e-18
4.80718e-18
1.21983e-17
3.00101e-17
7.36097e-17
1.54457e-16
3.79823e-16
1.03016e-15
2.82244e-15
9.38808e-15
1.13167e-13
3.90074e-11
5.76696e-05
0.00112523
0.00342652
0.00284062
0.00401036
0.00781733
6.36457e-24
3.58938e-20
1.20773e-19
4.48111e-19
1.37768e-18
4.90657e-18
1.29286e-17
3.20407e-17
8.05132e-17
1.71774e-16
4.17906e-16
1.11854e-15
2.77876e-15
7.67845e-15
5.35842e-14
6.5758e-12
1.11005e-05
0.000826766
0.00136829
0.00268035
0.00416359
0.0078909
6.31903e-24
3.76899e-20
1.18528e-19
4.29288e-19
1.32528e-18
4.71336e-18
1.25129e-17
3.13261e-17
7.84923e-17
1.73674e-16
4.2377e-16
1.15507e-15
2.6051e-15
8.48539e-15
3.85361e-14
1.54327e-12
1.62555e-06
0.000577609
0.00102143
0.00260469
0.00432633
0.0079647
6.285e-24
4.3881e-20
1.29772e-19
4.58291e-19
1.40262e-18
4.7791e-18
1.30903e-17
3.27936e-17
8.42947e-17
1.87523e-16
4.54172e-16
1.28587e-15
3.01225e-15
4.07895e-14
2.47487e-13
2.29832e-12
1.39703e-07
0.000408866
0.00100417
0.00259269
0.00446654
0.00803394
6.23481e-24
4.1286e-20
1.20533e-19
4.29165e-19
1.34264e-18
4.62182e-18
1.27497e-17
3.23917e-17
8.28904e-17
1.92684e-16
4.76952e-16
1.44687e-15
4.52361e-15
1.33059e-12
1.19066e-11
5.10388e-11
4.58717e-07
0.000377884
0.00107374
0.00264952
0.00459236
0.00809948
6.19993e-24
5.02615e-20
1.37788e-19
4.75742e-19
1.46006e-18
4.79218e-18
1.35923e-17
3.44519e-17
9.06978e-17
2.1112e-16
5.20844e-16
2.00191e-15
2.49671e-14
4.15281e-11
6.58595e-10
9.37802e-09
1.87656e-05
0.000401065
0.0012637
0.00283175
0.00473609
0.00816218
6.15014e-24
4.345e-20
1.23165e-19
4.40132e-19
1.40807e-18
4.72249e-18
1.35114e-17
3.4843e-17
9.13143e-17
2.23843e-16
5.7251e-16
5.44091e-15
6.08596e-13
2.25619e-09
8.42258e-08
4.98277e-06
0.000196889
0.000467183
0.00171556
0.00320105
0.00492289
0.00822577
6.11736e-24
5.57016e-20
1.46123e-19
4.99648e-19
1.55402e-18
4.95832e-18
1.46108e-17
3.75684e-17
1.02068e-16
2.50939e-16
6.45341e-16
6.14043e-14
2.58449e-11
7.43914e-08
1.04634e-05
0.000155997
0.000822594
0.000845821
0.00264797
0.00382768
0.00518415
0.00829204
6.07049e-24
4.43474e-20
1.25429e-19
4.56603e-19
1.50744e-18
4.95328e-18
1.47464e-17
3.87229e-17
1.04871e-16
2.75112e-16
7.48612e-16
1.68347e-12
1.0811e-09
4.44365e-06
0.000194474
0.000641084
0.00180734
0.00163647
0.00437889
0.00478861
0.00553252
0.00836448
6.04135e-24
6.02574e-20
1.53426e-19
5.25876e-19
1.67261e-18
5.20558e-18
1.6024e-17
4.20318e-17
1.19286e-16
3.17358e-16
8.92058e-16
5.23528e-11
5.49054e-08
8.30034e-05
0.000758276
0.00187284
0.00415499
0.00336048
0.00739435
0.0061867
0.00598118
0.00844366
5.99591e-24
4.46267e-20
1.27729e-19
4.76913e-19
1.63358e-18
5.28057e-18
1.6401e-17
4.4062e-17
1.25491e-16
3.64616e-16
1.15858e-15
1.45797e-09
3.24218e-06
0.000360328
0.00175732
0.00446521
0.00909419
0.00693313
0.0122
0.0080712
0.00651975
0.00853143
5.97033e-24
6.41466e-20
1.60442e-19
5.53776e-19
1.81484e-18
5.54151e-18
1.79071e-17
4.82185e-17
1.46693e-16
4.44708e-16
1.6945e-15
3.52504e-08
7.3066e-05
0.00118407
0.00461861
0.0104219
0.0187766
0.0136219
0.0189885
0.0104286
0.00714006
0.00862633
5.92633e-24
4.43231e-20
1.29663e-19
4.99282e-19
1.78307e-18
5.69148e-18
1.8531e-17
5.138e-17
1.59839e-16
5.59129e-16
3.60126e-15
7.97266e-07
0.000359015
0.00325519
0.0108138
0.0216584
0.0351538
0.0245179
0.0274504
0.0131379
0.00781123
0.00872852
5.90399e-24
6.75128e-20
1.66646e-19
5.82587e-19
1.97786e-18
5.93968e-18
2.02675e-17
5.67783e-17
1.9604e-16
7.78672e-16
1.65165e-14
1.52185e-05
0.00123368
0.00811505
0.022374
0.0398373
0.0591297
0.0397792
0.0367655
0.016045
0.00851419
0.00883515
5.86027e-24
4.39568e-20
1.3199e-19
5.24773e-19
1.95766e-18
6.18507e-18
2.12005e-17
6.16743e-17
2.2815e-16
1.21621e-15
3.0215e-13
0.000139507
0.00326008
0.0174284
0.0409046
0.0655452
0.0898364
0.0580978
0.0459169
0.0189528
0.00921338
0.00894576
5.84122e-24
7.05375e-20
1.73496e-19
6.15087e-19
2.17046e-18
6.43907e-18
2.33089e-17
6.93731e-17
3.08208e-16
2.30483e-15
1.2602e-11
0.000550296
0.0078448
0.0326879
0.0665632
0.0979733
0.124294
0.0769325
0.0540004
0.0217231
0.00989467
0.00905718
5.79723e-24
4.35003e-20
1.34486e-19
5.53105e-19
2.16052e-18
6.77109e-18
2.46165e-17
7.7224e-17
4.08434e-16
5.44535e-15
5.4797e-10
0.00148689
0.0163942
0.0546498
0.0987218
0.13462
0.157881
0.0934127
0.0605468
0.0242327
0.0105313
0.00916919
5.78091e-24
7.32613e-20
1.80281e-19
6.49101e-19
2.38787e-18
7.0112e-18
2.71807e-17
8.90648e-17
6.61678e-16
1.69222e-14
4.40876e-08
0.00382399
0.0303156
0.0824703
0.134843
0.171746
0.185622
0.105557
0.0654956
0.0264478
0.0111231
0.00927899
5.73635e-24
4.30515e-20
1.36864e-19
5.82374e-19
2.38673e-18
7.43765e-18
2.90053e-17
1.02309e-16
1.08034e-15
7.52675e-14
8.57442e-06
0.0085131
0.050009
0.114791
0.172137
0.204981
0.203741
0.112902
0.0691407
0.0283369
0.0116562
0.00938714
5.72332e-24
7.57273e-20
1.86796e-19
6.83151e-19
2.62913e-18
7.67261e-18
3.23022e-17
1.22238e-16
2.19361e-15
7.80154e-13
0.000171214
0.0169312
0.0747934
0.149054
0.206651
0.230647
0.210925
0.116421
0.0718608
0.0299351
0.0121435
0.00949146
5.67793e-24
4.24327e-20
1.38566e-19
6.10897e-19
2.63497e-18
8.19277e-18
3.49374e-17
1.46453e-16
4.33982e-15
1.34051e-11
0.000699173
0.0300022
0.103134
0.183102
0.235547
0.246528
0.208561
0.117707
0.0740352
0.0312536
0.0125825
0.00959327
5.6676e-24
7.80209e-20
1.92464e-19
7.15458e-19
2.88975e-18
8.41789e-18
3.9431e-17
1.83572e-16
1.0275e-14
1.66094e-10
0.00194686
0.0478435
0.133114
0.21424
0.256254
0.252557
0.199941
0.118198
0.0759041
0.0323528
0.0129971
0.00969106
5.62166e-24
4.1963e-20
1.39787e-19
6.37975e-19
2.90245e-18
9.03706e-18
4.34982e-17
2.31476e-16
2.24185e-14
1.55797e-09
0.00471358
0.0698363
0.162867
0.240813
0.268405
0.250411
0.188781
0.118709
0.0776264
0.0332623
0.0133946
0.00978684
5.61486e-24
8.02738e-20
1.97573e-19
7.45794e-19
3.17108e-18
9.26697e-18
5.0262e-17
3.06411e-16
5.64367e-14
1.37803e-08
0.0098883
0.094573
0.190822
0.261318
0.272495
0.242902
0.17797
0.119497
0.0792543
0.0340577
0.0138074
0.00987966
5.56713e-24
4.17909e-20
1.40759e-19
6.63842e-19
3.19187e-18
9.99189e-18
5.71485e-17
4.0843e-16
1.3047e-13
3.19002e-07
0.018276
0.120642
0.21579
0.275646
0.270596
0.232866
0.169023
0.120483
0.0808137
0.0347841
0.0142492
0.00997203
5.56284e-24
8.24828e-20
2.02093e-19
7.73998e-19
3.47278e-18
1.02319e-17
6.84575e-17
5.7333e-16
3.92516e-13
1.87726e-05
0.0300516
0.146547
0.236995
0.284007
0.264662
0.222569
0.162299
0.121497
0.0822845
0.0355242
0.0147563
0.0100634
5.51397e-24
4.18586e-20
1.41217e-19
6.87497e-19
3.50136e-18
1.10683e-17
8.13235e-17
8.10334e-16
1.82979e-12
0.00021531
0.0449829
0.17126
0.254072
0.287596
0.256885
0.213331
0.157507
0.122382
0.0836534
0.0363204
0.0153413
0.0101564
5.51305e-24
8.46747e-20
2.05794e-19
7.99203e-19
3.79616e-18
1.13439e-17
1.0251e-16
1.20434e-15
1.28007e-11
0.000742066
0.0622929
0.193916
0.267033
0.287471
0.248596
0.205708
0.154157
0.123052
0.0848863
0.0372372
0.016034
0.0102507
5.46191e-24
4.20337e-20
1.40962e-19
7.0839e-19
3.83344e-18
1.2304e-17
1.2882e-16
1.79562e-15
7.40859e-11
0.00156296
0.0812675
0.214052
0.276193
0.285003
0.240857
0.199719
0.151793
0.123467
0.0859636
0.0382865
0.0168345
0.0103488
5.46302e-24
8.6806e-20
2.08976e-19
8.21791e-19
4.14312e-18
1.26529e-17
1.72472e-16
2.80948e-15
3.56385e-10
0.00287107
0.101054
0.23133
0.282072
0.281075
0.234003
0.19515
0.150072
0.123632
0.0868526
0.0394916
0.0177563
0.01045
5.41083e-24
4.22459e-20
1.39896e-19
7.26584e-19
4.19066e-18
1.37408e-17
2.30119e-16
4.38932e-15
1.38679e-09
0.00490279
0.121044
0.245716
0.285278
0.276568
0.228257
0.191704
0.148768
0.123571
0.0875361
0.0408229
0.0187784
0.0105565
5.41505e-24
8.89179e-20
2.11413e-19
8.42376e-19
4.52258e-18
1.4193e-17
3.26391e-16
7.08335e-15
4.74637e-09
0.00798715
0.140594
0.25726
0.286432
0.271889
0.223489
0.189112
0.147742
0.12332
0.0879864
0.0422671
0.0198933
0.010667
5.35938e-24
4.22784e-20
1.37806e-19
7.42853e-19
4.58474e-18
1.54529e-17
4.58229e-16
1.1295e-14
1.4452e-08
0.0124687
0.15934
0.266218
0.286097
0.267444
0.21964
0.187149
0.146918
0.122916
0.088191
0.0437718
0.0210604
0.0107831
5.36554e-24
8.84575e-20
2.10338e-19
8.57231e-19
4.93654e-18
1.60478e-17
6.77969e-16
1.85067e-14
4.28096e-08
0.0187146
0.176959
0.272863
0.284753
0.263314
0.2165
0.185651
0.146259
0.1224
0.0881282
0.0453163
0.022259
0.0109032
5.30583e-24
4.14857e-20
1.32573e-19
7.51598e-19
5.00991e-18
1.74618e-17
9.8042e-16
2.99167e-14
2.19897e-07
0.0271995
0.193416
0.277584
0.282783
0.25966
0.213987
0.184499
0.145752
0.121806
0.0877919
0.0468594
0.0234411
0.0110282
5.31237e-24
8.52636e-20
2.03825e-19
8.62065e-19
5.38105e-18
1.81865e-17
1.47468e-15
5.74576e-14
1.17511e-05
0.0385414
0.208721
0.280722
0.280482
0.256432
0.211935
0.183618
0.145399
0.121175
0.0871695
0.0484081
0.0245878
0.0111563
5.2459e-24
4.16147e-20
1.27322e-19
7.57672e-19
5.48241e-18
1.9856e-17
2.14224e-15
4.65003e-13
0.000250549
0.0536849
0.223084
0.282666
0.278065
0.253708
0.210307
0.182957
0.145215
0.12054
0.0862659
0.049959
0.0256617
0.0112883
5.24933e-24
5.37903e-20
1.54723e-19
7.99485e-19
5.76881e-18
2.06389e-17
3.20148e-15
2.31287e-11
0.00219092
0.0737783
0.23665
0.283722
0.275686
0.251419
0.208996
0.182497
0.145221
0.119938
0.0850842
0.0515594
0.0266655
0.011422
5.17249e-24
4.32803e-20
1.1447e-19
7.24247e-19
5.94004e-18
2.35433e-17
4.66234e-15
1.03287e-09
0.00970194
0.0995938
0.249607
0.284211
0.273439
0.249642
0.208013
0.18223
0.145441
0.119401
0.0836496
0.0532341
0.027591
0.0115584
5.16591e-24
1.93952e-21
1.12092e-20
4.00648e-19
5.44901e-18
2.44373e-17
7.20691e-15
1.84933e-07
0.0279822
0.131147
0.261943
0.284363
0.271375
0.248325
0.207295
0.182172
0.145901
0.118959
0.0819904
0.0550228
0.0284758
0.0116955
5.07773e-24
1.71165e-20
4.47722e-20
4.17364e-19
5.46191e-18
3.62045e-17
1.80043e-14
5.66003e-05
0.0616441
0.167895
0.273607
0.284427
0.269499
0.247579
0.206902
0.182342
0.146628
0.11863
0.0801635
0.0568684
0.0293338
0.0118345
5.03897e-24
6.72024e-22
8.45921e-23
2.35241e-19
5.06618e-18
8.28143e-17
3.70767e-13
0.00149762
0.113906
0.208837
0.284333
0.284568
0.267779
0.247355
0.206791
0.182785
0.147644
0.118424
0.0782323
0.0585972
0.0301651
0.011976
4.83817e-24
2.10322e-19
4.58128e-19
1.0295e-18
7.26023e-18
9.13512e-16
7.18206e-12
0.0100249
0.186159
0.253351
0.294296
0.285103
0.266184
0.247761
0.207023
0.183521
0.148949
0.118274
0.0762759
0.0597662
0.0306645
0.0121338
0.00987657
0.0338865
0.0384763
0.0143646
0.0104147
0.0100524
0.0100629
0.0105142
0.0105411
0.0111966
0.016382
0.0158539
0.0149118
0.014834
0.0156221
0.017038
0.0188066
0.0198652
0.0187753
0.0153175
0.0129371
0.0121918
0.0119288
0.0119205
0.0122061
0.0127185
0.0133815
0.0140983
0.0147058
0.0154616
0.0161504
0.0160439
0.015452
0.094011
0.181385
0.00986353
0.0345034
0.0374693
0.0140222
0.0103374
0.00995141
0.0101688
0.0106499
0.0105912
0.0112372
0.0160488
0.0154445
0.0145331
0.0144324
0.0152496
0.0167111
0.0186102
0.0198988
0.0189044
0.0152889
0.0127716
0.0120124
0.0117485
0.0117202
0.0119776
0.0124644
0.0131192
0.0138531
0.0144914
0.0152639
0.0159703
0.0158482
0.0152334
0.0934216
0.181235
0.00983842
0.0350783
0.0357164
0.0134359
0.0103353
0.00986427
0.010437
0.0109417
0.0107359
0.0113482
0.0148752
0.0140998
0.0134276
0.0132934
0.0137409
0.0146547
0.0161551
0.0174762
0.0170506
0.0141986
0.0121511
0.011562
0.0113522
0.011313
0.0115259
0.0119632
0.0125959
0.0133558
0.0140547
0.0148632
0.0156059
0.0154543
0.0151809
0.0924099
0.180874
0.00979929
0.0356006
0.0334872
0.0129181
0.0104634
0.00988654
0.0108325
0.0112628
0.0109528
0.0115443
0.0136077
0.0126139
0.0121579
0.0121433
0.0123015
0.0125212
0.0132738
0.0142566
0.0142563
0.0124404
0.0111468
0.0108505
0.0107484
0.0107159
0.0108781
0.0112466
0.011837
0.0126183
0.0133995
0.0142636
0.015064
0.0148735
0.0151681
0.0909365
0.180299
0.00974597
0.0359305
0.0309346
0.0124406
0.0106023
0.00993044
0.011215
0.0114975
0.0111341
0.0117112
0.0125349
0.0113448
0.0111014
0.0113377
0.0113522
0.0109458
0.0108733
0.0112665
0.0113425
0.010373
0.00983553
0.0098915
0.00994938
0.00995228
0.010071
0.0103598
0.0108848
0.0116679
0.0125399
0.0134768
0.0143576
0.0141244
0.0150969
0.0889677
0.179522
0.00967615
0.0359454
0.0281778
0.0119146
0.010656
0.00990981
0.0114681
0.0115747
0.0111887
0.011726
0.0116313
0.0103101
0.0102573
0.0107668
0.0107803
0.00993285
0.00915868
0.00891592
0.00879022
0.00829126
0.0083109
0.00870742
0.00897
0.00904779
0.0091443
0.00935483
0.00979424
0.0105472
0.0115004
0.0125216
0.0135045
0.0132328
0.0148937
0.0864797
0.178565
0.00959042
0.0355628
0.0253425
0.0113079
0.0105996
0.00979795
0.0115421
0.0114755
0.0110774
0.0115282
0.0107928
0.00940195
0.00947144
0.0101744
0.0102957
0.00923721
0.00798188
0.00720651
0.00676939
0.00640489
0.00669268
0.00734123
0.00783042
0.00802791
0.00813637
0.00828351
0.00862656
0.00931209
0.0103175
0.0114241
0.0125264
0.0122293
0.0145082
0.0834612
0.177454
0.00948687
0.0347193
0.0225578
0.0106491
0.0104612
0.00961401
0.0114468
0.0112207
0.0108082
0.0111218
0.00994984
0.00853702
0.00863191
0.00939626
0.00967954
0.00861613
0.00710665
0.00596235
0.0052463
0.00483295
0.00512814
0.00587387
0.00656532
0.0069199
0.007082
0.00719282
0.00744215
0.00802766
0.00904024
0.010218
0.011449
0.0111483
0.0139115
0.0799168
0.176219
0.00936733
0.0334007
0.0199339
0.00999513
0.0102893
0.00939781
0.0112244
0.0108514
0.0104151
0.0105516
0.00908987
0.0076887
0.00772011
0.00841568
0.00885902
0.00793411
0.00634904
0.00499461
0.00410724
0.00361673
0.00377092
0.00443704
0.00523992
0.00575981
0.00601431
0.00612297
0.00629489
0.00676131
0.00772838
0.00894594
0.0103017
0.0100265
0.0130955
0.0758696
0.174894
0.0092307
0.0316127
0.0175537
0.00940359
0.0101327
0.00919262
0.0109302
0.0104168
0.00994401
0.00987866
0.00823323
0.00686688
0.00677684
0.00730516
0.00786081
0.00714884
0.00560797
0.00417345
0.00324191
0.00274033
0.00273616
0.00319559
0.00396397
0.00460386
0.00497003
0.00510899
0.00522926
0.00557576
0.00644903
0.00765937
0.00911807
0.00890068
0.0120729
0.0713644
0.173512
0.00908003
0.0294085
0.0154686
0.0089209
0.010033
0.0090373
0.0106198
0.00996604
0.00944193
0.00916466
0.00741144
0.00609268
0.00585953
0.00616684
0.00675914
0.00627639
0.0048522
0.00344106
0.00257818
0.00215339
0.00205859
0.00228575
0.00288028
0.00353697
0.00399602
0.00418432
0.00428042
0.0045233
0.00527006
0.0064175
0.00793664
0.00780656
0.0108766
0.0664716
0.172106
0.00891508
0.0268565
0.0137079
0.00857978
0.0100241
0.00896408
0.0103442
0.0095445
0.00895333
0.00846464
0.00665426
0.00538646
0.00501779
0.00509292
0.00563681
0.00535775
0.00409495
0.00279489
0.00208023
0.00178756
0.00168694
0.00174432
0.00210761
0.00266181
0.00315124
0.00338362
0.00347593
0.00364243
0.00425219
0.0052833
0.00680059
0.0067775
0.00955948
0.0612916
0.170711
0.00874002
0.0240667
0.0122838
0.00840172
0.0101351
0.0089992
0.0101479
0.00919152
0.00851715
0.0078238
0.00598552
0.00476325
0.00428538
0.00415352
0.00457397
0.00444711
0.00337586
0.00226124
0.00172927
0.00157253
0.00152216
0.00150145
0.00167151
0.00205609
0.00249512
0.0027404
0.0028359
0.00295623
0.00344089
0.00431608
0.00575639
0.00584341
0.00819261
0.0559592
0.169364
0.00855535
0.0211568
0.0111996
0.00840051
0.0103944
0.00916513
0.0100677
0.0089401
0.0081669
0.00727727
0.00542273
0.0042347
0.00368
0.00339179
0.00364103
0.00360317
0.00274413
0.00186441
0.00150436
0.0014512
0.00146766
0.00144486
0.00150305
0.00172667
0.00206092
0.00227688
0.00236967
0.00247057
0.00285938
0.00356135
0.00484959
0.00502972
0.00686036
0.0506459
0.168103
0.00836592
0.0182695
0.0104487
0.00858611
0.0108318
0.00948394
0.0101351
0.00881666
0.00792897
0.00685069
0.00497908
0.00380896
0.00320669
0.00282444
0.00289347
0.0028844
0.00224223
0.00160384
0.00137571
0.00138604
0.00145715
0.00147603
0.00150228
0.00161585
0.00183614
0.00199161
0.00207084
0.00217313
0.00250478
0.00304048
0.00411774
0.0043559
0.0056518
0.0455575
0.166974
0.00817267
0.0155395
0.0100178
0.00896913
0.011482
0.00998524
0.0103797
0.00884369
0.0078245
0.00656174
0.00466465
0.00349271
0.00286184
0.00244327
0.00235942
0.00233514
0.00188914
0.0014523
0.00130991
0.00135433
0.00145892
0.00153079
0.00158271
0.00164559
0.00177292
0.00185777
0.00191729
0.00203735
0.00235153
0.00274568
0.00358177
0.00383352
0.00464701
0.0409244
0.166033
0.00798033
0.0130989
0.00989269
0.00956753
0.0123881
0.0107114
0.0108347
0.0090443
0.00787159
0.00642306
0.00448732
0.00329059
0.00263634
0.00222279
0.00203481
0.00197272
0.00167364
0.00137153
0.00127717
0.00134145
0.00146497
0.00158198
0.0016864
0.0017467
0.00181319
0.001835
0.00187861
0.00203157
0.00236208
0.00264511
0.00324067
0.00346429
0.00390087
0.0369801
0.165343
0.00778933
0.0110578
0.0100759
0.0104129
0.0136046
0.011723
0.0115436
0.00944867
0.00809
0.00644664
0.00445653
0.00320687
0.00251896
0.00212857
0.00188785
0.00178148
0.00156335
0.00132826
0.00125713
0.00133767
0.00147684
0.0016279
0.00178675
0.00187066
0.00190613
0.00188337
0.00192538
0.00212722
0.00249773
0.00269512
0.0030736
0.00323964
0.00343149
0.0339271
0.164979
0.00760307
0.00948605
0.0106046
0.0115496
0.0152015
0.0131024
0.0125638
0.010099
0.0085051
0.00664772
0.00458435
0.00324546
0.00249901
0.00212632
0.00187449
0.00172387
0.00152026
0.00130044
0.00123984
0.00133835
0.00149753
0.00167673
0.00187989
0.00199215
0.00201654
0.00197222
0.00203491
0.00230216
0.0027243
0.00285142
0.00304833
0.00314297
0.00322221
0.0318999
0.165017
0.00742066
0.00839387
0.0115671
0.0130356
0.0172644
0.0149519
0.0139679
0.0110519
0.00915119
0.00704868
0.00488955
0.00341418
0.00257034
0.00218684
0.00194822
0.00175403
0.00151163
0.00127689
0.00122345
0.00134336
0.00152929
0.00173656
0.0019717
0.00210355
0.00212628
0.00208358
0.00219315
0.00254037
0.00301379
0.00307603
0.00313061
0.00315431
0.00323786
0.0309504
0.165521
0.00724378
0.00774051
0.0130994
0.0149477
0.0198929
0.0173886
0.0158398
0.012377
0.0100719
0.00767974
0.00540047
0.00372703
0.00273484
0.00229178
0.00206924
0.00182969
0.0015139
0.00125364
0.00120953
0.00135534
0.00157434
0.0018122
0.0020688
0.00220633
0.0022305
0.00221109
0.00239358
0.00283009
0.00334441
0.00334049
0.00329077
0.00325523
0.00344411
0.031069
0.166536
0.00707145
0.0074622
0.0153783
0.0173893
0.023202
0.0205387
0.0182707
0.0141508
0.0113179
0.00857828
0.00615242
0.00420884
0.0030069
0.00243631
0.00220754
0.00191755
0.00151408
0.00123128
0.00120068
0.0013771
0.00163485
0.00190561
0.00217483
0.00230462
0.00233219
0.00235653
0.00263473
0.00316203
0.00370018
0.00362657
0.00350709
0.00343255
0.00382003
0.0322226
0.168079
0.00690537
0.00749397
0.0186017
0.0205066
0.0273323
0.024541
0.0213583
0.0164513
0.0129419
0.00978126
0.00718204
0.0048925
0.00341464
0.00263392
0.00234992
0.00199865
0.00150824
0.00121274
0.00119926
0.00141065
0.00171268
0.00201686
0.00229029
0.00240217
0.0024379
0.00252614
0.00291743
0.00352813
0.00407054
0.00392518
0.00376679
0.00368014
0.00436259
0.0343837
0.170141
0.00674534
0.00778437
0.0229628
0.0245137
0.032467
0.0295577
0.0252116
0.0193538
0.014994
0.0113204
0.00851442
0.00581157
0.00399552
0.00291622
0.00249912
0.00206697
0.00149955
0.0012025
0.00120816
0.00145683
0.00180844
0.00214463
0.00241361
0.00250187
0.00255539
0.00272768
0.0032426
0.00392117
0.00444995
0.00423475
0.00406545
0.00399936
0.00508612
0.0375383
0.172688
0.00659312
0.00829215
0.0286178
0.029712
0.0388413
0.0357772
0.0299483
0.022923
0.0175092
0.0132052
0.0101453
0.00698014
0.00477944
0.00332972
0.00267695
0.00212886
0.0014947
0.00120539
0.00123078
0.00151627
0.00192148
0.00228638
0.00254235
0.00260631
0.00269256
0.00296867
0.00360986
0.00433479
0.00483729
0.00455929
0.00440574
0.00439872
0.00601992
0.0416818
0.175677
0.00644962
0.00898868
0.035657
0.0364874
0.0467241
0.0433829
0.0356689
0.0271932
0.0204913
0.0154108
0.0120258
0.00837316
0.00576352
0.00391373
0.00291638
0.00219711
0.0015019
0.00122656
0.00127177
0.00158965
0.00204961
0.00243847
0.00267418
0.00271855
0.00285726
0.00325524
0.00401701
0.00476401
0.00523535
0.00490699
0.00479607
0.00489316
0.00720584
0.0468077
0.179054
0.00631698
0.00985202
0.0440846
0.0452693
0.0563608
0.0524751
0.0423978
0.0321277
0.0238856
0.0178606
0.0140529
0.00991041
0.00689093
0.00466805
0.00325179
0.00228838
0.00152856
0.00127088
0.00133636
0.00167864
0.00218987
0.00259672
0.00280764
0.00284268
0.00305714
0.00359158
0.00446014
0.00520564
0.00565
0.00528893
0.00524943
0.00550347
0.00869635
0.0528979
0.182767
0.00619775
0.0108754
0.0538612
0.0564653
0.0678883
0.0629663
0.0500047
0.0375708
0.027551
0.0204142
0.0160706
0.0114578
0.0080494
0.00552416
0.00368771
0.00241401
0.00158096
0.00134344
0.001431
0.00178599
0.00233875
0.00275709
0.00294257
0.00298396
0.00329947
0.00397951
0.00493423
0.00565865
0.00608972
0.00571848
0.00578261
0.00625571
0.010553
0.0599143
0.186767
0.00609509
0.0120667
0.0649852
0.0703908
0.0812444
0.0744914
0.0581406
0.0432142
0.031243
0.0228654
0.01788
0.0128387
0.00908689
0.00635621
0.00417786
0.00257271
0.00166237
0.00144892
0.00156227
0.00191647
0.00249364
0.00291657
0.00308063
0.00314881
0.00359083
0.00441853
0.00543407
0.0061241
0.0065649
0.00621076
0.0064157
0.00718103
0.0128451
0.0677949
0.191009
0.00601408
0.0134632
0.0775767
0.0871871
0.0960815
0.08637
0.066222
0.0485995
0.0346245
0.0249582
0.0192621
0.0138585
0.00983656
0.00701137
0.00462322
0.00274006
0.00177179
0.00159146
0.00173708
0.00207652
0.00265337
0.00307389
0.00322523
0.00334447
0.00393659
0.0049059
0.00595502
0.00660511
0.0070876
0.00678257
0.00717198
0.00831561
0.0156475
0.0764537
0.195455
0.00596079
0.0151303
0.0918543
0.106659
0.111673
0.0976234
0.073472
0.0531609
0.0373021
0.0264182
0.0200074
0.0143333
0.0101445
0.00734933
0.00491164
0.00287489
0.00190183
0.00177261
0.00196027
0.00227442
0.00281985
0.00323017
0.0033816
0.00357865
0.00434049
0.0054372
0.00649373
0.00710639
0.00767113
0.00745227
0.00807788
0.00970083
0.0190387
0.0857842
0.200071
0.00594609
0.0171731
0.108015
0.128016
0.126837
0.107057
0.0790213
0.0563071
0.0388885
0.0269986
0.0199538
0.0141284
0.00990289
0.00726943
0.00495277
0.00293394
0.00204057
0.00199028
0.00223335
0.00251806
0.00299811
0.00338915
0.00355646
0.00385885
0.00480419
0.00600693
0.00704843
0.00763397
0.00833007
0.00823998
0.00916337
0.0113836
0.0230978
0.0956668
0.204831
0.00598322
0.01972
0.125968
0.149632
0.139967
0.113429
0.0820575
0.0575278
0.0390757
0.0265317
0.0190273
0.0131997
0.00908966
0.00674506
0.00471281
0.00289592
0.00217546
0.00223738
0.00255095
0.00281303
0.00319671
0.00355718
0.00375762
0.00419174
0.00532698
0.00660935
0.00761904
0.00819465
0.00908006
0.00916767
0.0104623
0.0134165
0.0279013
0.105976
0.209715
0.00609167
0.0229266
0.145079
0.169097
0.149275
0.115712
0.0820061
0.0565128
0.0377114
0.0249768
0.0172755
0.0116312
0.00780788
0.00584967
0.00422701
0.00277068
0.00229937
0.0025036
0.00290098
0.00315829
0.003426
0.00374282
0.00399344
0.00458236
0.00590572
0.00723898
0.00820683
0.00879586
0.00993806
0.0102596
0.0120131
0.0158586
0.0335202
0.116591
0.214708
0.00628805
0.0269403
0.164016
0.183718
0.153232
0.113372
0.078686
0.0532393
0.0348475
0.0224462
0.0148781
0.00964316
0.00629466
0.00477012
0.00360609
0.00259936
0.00241318
0.0027772
0.0032649
0.00354474
0.00369645
0.00395619
0.00427216
0.00503335
0.0065351
0.00789117
0.00881417
0.0094453
0.0109223
0.0115424
0.0138594
0.0187754
0.0400177
0.127402
0.219803
0.00658505
0.0319027
0.181008
0.191341
0.151033
0.106543
0.0723803
0.0480015
0.0307481
0.0191948
0.0121211
0.00755047
0.0048582
0.00375479
0.0030023
0.00243578
0.00252527
0.003048
0.00362249
0.00395406
0.00401488
0.00420768
0.00460106
0.00554417
0.00720793
0.00856203
0.00944397
0.0101509
0.0120528
0.0130459
0.0160512
0.02224
0.0474474
0.13832
0.225001
0.00697682
0.0378654
0.19427
0.190997
0.142836
0.0960024
0.0637738
0.0413487
0.0258365
0.0155715
0.00933618
0.00566859
0.00374487
0.00300408
0.0025495
0.00232804
0.00264654
0.00330777
0.00395505
0.00436393
0.00438198
0.00450658
0.00498566
0.00611076
0.00791572
0.00924848
0.0100994
0.010921
0.0133513
0.0148035
0.0186453
0.0263332
0.0558542
0.149282
0.230314
0.00744499
0.044731
0.202419
0.183027
0.129657
0.0829542
0.0537839
0.0339617
0.0206074
0.011947
0.00682796
0.00421121
0.0030335
0.00257675
0.00230133
0.00229944
0.00278388
0.00355
0.00424904
0.00475149
0.00478983
0.00485909
0.00542882
0.00672549
0.00864928
0.00994776
0.0107833
0.011764
0.0148423
0.0168531
0.0217072
0.0311446
0.0652754
0.160253
0.235761
0.00795396
0.051992
0.204508
0.168686
0.113006
0.0687138
0.0433491
0.0265083
0.0155284
0.00864684
0.00481418
0.0032319
0.00265227
0.00240933
0.00223115
0.00234437
0.00293483
0.00376858
0.00449648
0.00510003
0.00522356
0.00526692
0.00593039
0.00737794
0.00939938
0.0106573
0.0114984
0.0126892
0.0165533
0.0192379
0.0253114
0.0367742
0.0757447
0.171231
0.241375
0.00846726
0.0586389
0.199943
0.149607
0.0944711
0.0544473
0.0332646
0.0195397
0.0109761
0.00591137
0.00338974
0.0026484
0.00247564
0.00238896
0.00226546
0.00243209
0.00308828
0.003958
0.00469493
0.00539839
0.00566351
0.00572648
0.0064874
0.00805644
0.0101575
0.0113746
0.0122466
0.0137062
0.0185157
0.0220078
0.0295432
0.043333
0.0872973
0.182246
0.247196
0.00894498
0.0630866
0.188364
0.127414
0.0754349
0.0410263
0.0241011
0.0134473
0.00721289
0.00388106
0.00250942
0.00232638
0.0023945
0.00241136
0.00232701
0.00252728
0.00323149
0.0041145
0.00484594
0.00564332
0.0060901
0.00622983
0.00709537
0.00875054
0.0109171
0.0120971
0.0130294
0.0148254
0.0207655
0.0252204
0.0344992
0.0509453
0.0999756
0.193359
0.253277
0.0093615
0.0636867
0.169755
0.10361
0.0569954
0.029029
0.0162208
0.00848315
0.00439957
0.00257344
0.00202319
0.00215002
0.00233608
0.00240694
0.0023615
0.00260615
0.00335752
0.00423712
0.00495368
0.0058348
0.0064859
0.00676628
0.0077504
0.00945389
0.0116746
0.0128228
0.0138471
0.0160575
0.0233438
0.0289425
0.0402885
0.0597495
0.113835
0.204661
0.259677
0.0096768
0.0590073
0.144496
0.079617
0.0400601
0.0188468
0.00985765
0.00480831
0.00258469
0.00185138
0.00176802
0.00203787
0.00225773
0.00234557
0.00235063
0.0026668
0.00346857
0.00432799
0.00502404
0.00597773
0.00683851
0.0073249
0.00845171
0.0101674
0.0124312
0.013551
0.0146992
0.0174125
0.026297
0.0332515
0.0470331
0.0698993
0.12895
0.216267
0.266461
0.00988074
0.0488727
0.113794
0.0567482
0.0253983
0.0107439
0.00516593
0.00247567
0.00161274
0.00148254
0.00161717
0.00192802
0.00213203
0.00221865
0.00229381
0.00271541
0.00356829
0.00438744
0.00506367
0.00607863
0.00713988
0.00789393
0.00920253
0.0109017
0.0131949
0.0142834
0.0155842
0.0188982
0.0296757
0.0382357
0.054867
0.0815642
0.145417
0.228314
0.273693
4.88222e-24
3.15067e-19
1.13986e-18
4.30117e-18
2.49228e-17
3.14402e-14
9.0105e-11
0.0378014
0.254687
0.28806
0.300966
0.285847
0.265082
0.248567
0.207487
0.1844
0.150244
0.118056
0.0748308
0.0599808
0.0302915
0.0121387
4.99586e-24
7.3927e-20
8.34567e-20
6.23367e-18
6.22403e-17
2.44862e-13
9.20044e-10
0.0719452
0.301517
0.309106
0.30407
0.286154
0.264403
0.249354
0.208095
0.185226
0.151422
0.117961
0.0741401
0.0597628
0.029867
0.0121863
5.10205e-24
2.76609e-19
8.77684e-19
8.89387e-18
1.22036e-16
9.25579e-13
9.29092e-09
0.112791
0.343397
0.326381
0.306095
0.286315
0.263874
0.25028
0.208936
0.186229
0.152826
0.117963
0.073839
0.0591653
0.0293413
0.0123438
5.06176e-24
5.72568e-20
2.14769e-20
6.84911e-18
1.92169e-16
2.27547e-12
1.69475e-07
0.155902
0.379451
0.340313
0.307658
0.286493
0.263594
0.251411
0.21006
0.187383
0.15441
0.118072
0.0739163
0.0582211
0.0287486
0.0126001
5.1657e-24
2.21308e-19
6.32271e-19
7.2314e-18
2.88202e-16
3.60912e-12
6.56058e-06
0.194553
0.409501
0.351366
0.309198
0.286808
0.263659
0.252723
0.211437
0.188672
0.156122
0.118288
0.0743387
0.0570025
0.0281347
0.0129465
5.11384e-24
4.59224e-20
1.20678e-20
4.61581e-18
4.09785e-16
4.87158e-12
1.86776e-05
0.221442
0.433677
0.360067
0.311078
0.287398
0.264144
0.254292
0.213121
0.190077
0.157908
0.118608
0.0750696
0.0555687
0.0275097
0.0134004
5.22923e-24
1.78691e-19
4.7341e-19
4.63759e-18
5.80479e-16
5.06238e-12
3.45482e-05
0.233052
0.45233
0.366858
0.313501
0.288353
0.265116
0.256097
0.215078
0.191601
0.159716
0.119028
0.0760523
0.0540038
0.0268993
0.0139753
5.17004e-24
3.80396e-20
7.88089e-21
2.7802e-18
7.72272e-16
4.37663e-12
2.58419e-05
0.230404
0.46576
0.372156
0.316626
0.289774
0.266617
0.258222
0.217372
0.193246
0.161502
0.119534
0.0772364
0.0523648
0.0263013
0.0146892
5.29795e-24
1.4666e-19
3.69585e-19
2.8618e-18
9.86072e-16
2.88096e-12
2.74595e-05
0.217203
0.474233
0.37623
0.320485
0.291714
0.268682
0.26064
0.219969
0.195037
0.163239
0.120115
0.0785589
0.0507269
0.025735
0.0155459
5.22339e-24
3.24407e-20
5.8877e-21
1.68695e-18
1.14792e-15
1.68904e-12
3.53387e-05
0.196959
0.477777
0.379285
0.325099
0.29424
0.271323
0.263429
0.222936
0.196998
0.164919
0.120757
0.0799729
0.049132
0.0251914
0.0165488
5.35775e-24
1.21933e-19
2.97412e-19
1.84243e-18
1.25239e-15
8.52576e-13
4.01796e-05
0.171982
0.476284
0.381353
0.33038
0.297368
0.274547
0.266552
0.226238
0.199171
0.166554
0.121448
0.0814232
0.0476391
0.0246861
0.0176839
5.27104e-24
2.84269e-20
4.69195e-21
1.08058e-18
1.2388e-15
4.16481e-13
4.11304e-05
0.144406
0.469375
0.382381
0.336247
0.301136
0.278349
0.270071
0.229938
0.201592