/*--------------------------------*- C++ -*----------------------------------*\
| =========                 |                                                 |
| \\      /  F ield         | OpenFOAM: The Open Source CFD Toolbox           |
|  \\    /   O peration     | Version:  v1912                                 |
|   \\  /    A nd           | Website:  www.openfoam.com                      |
|    \\/     M anipulation  |                                                 |
\*---------------------------------------------------------------------------*/
FoamFile
{
    version     2.0;
    format      ascii;
    class       volScalarField;
    location    "510";
    object      p;
}
// * * * * * * * * * * * * * * * * * * * * * * * * * * * * * * * * * * * * * //

dimensions      [0 2 -2 0 0 0 0];


internalField   nonuniform List<scalar> 
12441
(
9.04766
9.35195
10.2199
11.5658
13.3074
15.4903
18.2132
21.5673
25.7401
30.8839
37.2208
44.9296
54.4973
66.7939
82.0553
101.438
129.78
165.35
223.012
285.83
376.632
438.531
9.04765
9.35194
10.2199
11.5658
13.3074
15.4903
18.2131
21.5672
25.74
30.8837
37.2204
44.9291
54.4963
66.7921
82.0523
101.431
129.764
165.325
222.932
285.755
376.585
438.339
9.04763
9.35192
10.2199
11.5657
13.3073
15.4902
18.213
21.567
25.7397
30.8832
37.2197
44.9279
54.4943
66.7886
82.0463
101.417
129.739
165.268
222.764
285.576
376.457
437.992
9.04761
9.35189
10.2198
11.5657
13.3072
15.4901
18.2128
21.5667
25.7392
30.8825
37.2186
44.9262
54.4914
66.7832
82.0374
101.396
129.705
165.18
222.587
285.3
376.223
437.452
9.04758
9.35186
10.2198
11.5656
13.3071
15.4899
18.2126
21.5663
25.7386
30.8816
37.2171
44.9239
54.4874
66.776
82.0256
101.368
129.661
165.071
222.422
284.955
375.893
436.715
9.04754
9.35181
10.2197
11.5655
13.307
15.4897
18.2123
21.5658
25.7379
30.8804
37.2153
44.9211
54.4825
66.767
82.0108
101.334
129.607
164.942
222.236
284.537
375.472
435.783
9.04749
9.35176
10.2197
11.5654
13.3068
15.4895
18.2119
21.5652
25.737
30.879
37.2131
44.9176
54.4766
66.7562
81.9931
101.294
129.542
164.791
222.019
284.049
374.964
434.654
9.04743
9.3517
10.2196
11.5653
13.3066
15.4892
18.2115
21.5645
25.736
30.8773
37.2105
44.9136
54.4698
66.7436
81.9725
101.248
129.472
164.618
221.781
283.504
374.374
433.326
9.04737
9.35162
10.2195
11.5652
13.3064
15.4889
18.211
21.5637
25.7348
30.8755
37.2076
44.9091
54.4619
66.7293
81.9496
101.198
129.4
164.434
221.544
282.914
373.706
431.794
9.0473
9.35154
10.2194
11.565
13.3062
15.4885
18.2105
21.5629
25.7334
30.8734
37.2043
44.9039
54.4531
66.7133
81.9255
101.147
129.333
164.248
221.334
282.287
372.96
430.053
9.04722
9.35145
10.2193
11.5648
13.3059
15.4881
18.2099
21.5619
25.732
30.871
37.2006
44.8982
54.4433
66.6959
81.902
101.104
129.29
164.083
221.183
281.636
372.133
428.096
9.04713
9.35135
10.2191
11.5646
13.3056
15.4877
18.2092
21.5608
25.7303
30.8684
37.1966
44.892
54.4326
66.6781
81.8834
101.08
129.308
163.978
221.124
280.962
371.219
425.913
9.04704
9.35124
10.219
11.5644
13.3053
15.4872
18.2085
21.5596
25.7285
30.8656
37.1922
44.8851
54.4212
66.6624
81.8811
101.104
129.441
163.987
221.166
280.26
370.21
423.493
9.04694
9.35113
10.2188
11.5642
13.305
15.4867
18.2077
21.5583
25.7266
30.8626
37.1874
44.8777
54.41
66.6545
81.9144
101.211
129.741
164.152
221.279
279.51
369.095
420.822
9.04683
9.351
10.2187
11.5639
13.3046
15.4861
18.2069
21.5569
25.7245
30.8593
37.1822
44.8697
54.4006
66.6651
82.0058
101.428
130.236
164.479
221.398
278.686
367.865
417.888
9.04671
9.35086
10.2185
11.5637
13.3042
15.4855
18.206
21.5554
25.7223
30.8558
37.1767
44.8615
54.3969
66.7077
82.1728
101.767
130.9
164.907
221.445
277.765
366.512
414.676
9.04658
9.35072
10.2183
11.5634
13.3038
15.4849
18.205
21.5538
25.7199
30.852
37.1708
44.8535
54.4055
66.7943
82.4203
102.213
131.653
165.329
221.36
276.724
365.028
411.171
9.04645
9.35057
10.2181
11.5631
13.3033
15.4842
18.204
21.5521
25.7174
30.848
37.1644
44.8472
54.435
66.9291
82.7369
102.725
132.37
165.623
221.111
275.555
363.408
407.358
9.04631
9.3504
10.2179
11.5628
13.3029
15.4835
18.2029
21.5504
25.7147
30.8438
37.1576
44.8453
54.4925
67.1087
83.098
103.241
132.92
165.71
220.701
274.253
361.646
403.223
9.04615
9.35023
10.2176
11.5624
13.3023
15.4827
18.2018
21.5485
25.7119
30.8393
37.1505
44.852
54.5808
67.319
83.4668
103.689
133.203
165.575
220.156
272.823
359.742
398.749
9.046
9.35005
10.2174
11.5621
13.3018
15.4819
18.2006
21.5465
25.7089
30.8346
37.1434
44.8723
54.6957
67.5448
83.8037
104.006
133.183
165.259
219.506
271.27
357.694
393.921
9.04583
9.34986
10.2172
11.5617
13.3013
15.4811
18.1993
21.5444
25.7058
30.8296
37.1368
44.9103
54.8298
67.7646
84.071
104.155
132.9
164.831
218.78
269.604
355.502
388.72
9.04566
9.34966
10.2169
11.5613
13.3007
15.4802
18.198
21.5422
25.7025
30.8243
37.1318
44.9664
54.9716
67.9633
84.245
104.135
132.439
164.352
217.996
267.833
353.167
383.13
9.04548
9.34946
10.2166
11.5609
13.3001
15.4793
18.1966
21.54
25.699
30.8187
37.1304
45.0377
55.1126
68.1227
84.3163
103.972
131.899
163.857
217.166
265.965
350.693
377.132
9.04529
9.34924
10.2163
11.5605
13.2994
15.4783
18.1952
21.5376
25.6954
30.8128
37.1352
45.1192
55.242
68.2374
84.2952
103.713
131.356
163.359
216.295
264.011
348.08
370.706
9.04509
9.34901
10.216
11.56
13.2988
15.4773
18.1937
21.5351
25.6917
30.8067
37.1483
45.205
55.356
68.3004
84.2002
103.405
130.853
162.854
215.383
261.98
345.332
363.831
9.04488
9.34878
10.2157
11.5596
13.2981
15.4763
18.1921
21.5325
25.6878
30.8004
37.1706
45.2899
55.4475
68.3194
84.0577
103.086
130.399
162.337
214.43
259.882
342.451
356.484
9.04467
9.34854
10.2154
11.5591
13.2974
15.4752
18.1905
21.5298
25.6837
30.7942
37.2017
45.3695
55.5175
68.2973
83.8888
102.779
129.988
161.802
213.436
257.725
339.439
348.64
9.04445
9.34828
10.2151
11.5586
13.2966
15.4741
18.1888
21.5271
25.6794
30.7883
37.2393
45.4408
55.563
68.2481
83.7124
102.493
129.607
161.244
212.399
255.516
336.295
340.274
9.04422
9.34802
10.2147
11.5581
13.2959
15.4729
18.187
21.5242
25.675
30.7828
37.2811
45.5019
55.5885
68.1764
83.5375
102.229
129.243
160.662
211.32
253.259
333.017
331.357
9.04398
9.34775
10.2144
11.5576
13.2951
15.4718
18.1852
21.5212
25.6704
30.7781
37.3247
45.5517
55.5939
68.0947
83.371
101.984
128.887
160.058
210.198
250.957
329.602
321.857
9.04374
9.34747
10.214
11.557
13.2942
15.4705
18.1834
21.5181
25.6656
30.7745
37.3684
45.5899
55.5855
68.0041
83.2129
101.753
128.532
159.432
209.033
248.609
326.042
311.743
9.04349
9.34718
10.2136
11.5565
13.2934
15.4692
18.1815
21.5149
25.6606
30.7729
37.4107
45.6168
55.5634
67.9133
83.0642
101.531
128.174
158.785
207.826
246.216
322.328
300.978
9.04323
9.34689
10.2132
11.5559
13.2925
15.4679
18.1795
21.5116
25.6555
30.7737
37.4503
45.6332
55.5339
67.8202
82.9219
101.314
127.812
158.12
206.577
243.777
318.449
289.526
9.04296
9.34658
10.2128
11.5553
13.2916
15.4666
18.1774
21.5082
25.6502
30.7778
37.4867
45.6404
55.4964
67.7305
82.7859
101.099
127.445
157.437
205.287
241.291
314.394
277.346
9.04268
9.34626
10.2124
11.5547
13.2907
15.4652
18.1753
21.5047
25.6447
30.7859
37.5195
45.6396
55.456
67.6403
82.6531
100.886
127.072
156.739
203.955
238.76
310.149
264.397
9.0424
9.34594
10.212
11.554
13.2897
15.4637
18.1732
21.5011
25.6392
30.7996
37.5489
45.6321
55.4113
67.5543
82.5237
100.672
126.693
156.026
202.584
236.187
305.705
250.636
9.0421
9.34561
10.2115
11.5534
13.2888
15.4623
18.1709
21.4974
25.634
30.8211
37.5752
45.6196
55.3664
67.4682
82.3953
100.456
126.309
155.3
201.173
233.576
301.051
236.014
9.0418
9.34526
10.2111
11.5527
13.2878
15.4608
18.1686
21.4935
25.6308
30.8521
37.599
45.603
55.3193
67.3863
82.2687
100.239
125.92
154.561
199.726
230.932
296.179
220.483
9.0415
9.34491
10.2106
11.552
13.2867
15.4592
18.1663
21.4895
25.6344
30.8933
37.6206
45.5837
55.2734
67.3043
82.142
100.021
125.526
153.81
198.246
228.26
291.083
203.991
9.04118
9.34455
10.2101
11.5513
13.2857
15.4576
18.1639
21.4854
25.6523
30.9451
37.6401
45.5624
55.2259
67.2269
82.0167
99.8011
125.13
153.048
196.735
225.567
285.762
186.483
9.04086
9.34418
10.2096
11.5506
13.2846
15.456
18.1614
21.4815
25.6916
31.0066
37.6573
45.5401
55.1801
67.1495
81.8909
99.5803
124.73
152.275
195.198
222.853
280.214
167.911
9.04053
9.3438
10.2091
11.5498
13.2835
15.4543
18.1589
21.4789
25.7567
31.0764
37.6717
45.5176
55.1324
67.0776
81.7668
99.3593
124.328
151.49
193.641
220.115
274.413
148.188
9.04019
9.34342
10.2086
11.5491
13.2823
15.4526
18.1562
21.4825
25.8469
31.1512
37.6831
45.4959
55.0866
67.0058
81.6423
99.1384
123.924
150.689
192.07
217.342
268.279
126.569
-19.5953
-20.9378
-19.6668
-20.8486
-18.1147
-17.5895
-15.5814
-15.0659
-13.6004
-12.5119
-10.3583
-7.21395
-2.2313
-0.643559
-4.62426
-9.6229
-6.16525
4.30831
13.0642
14.9375
14.6049
12.5566
10.5113
9.6002
8.13041
6.48108
4.92344
3.52947
2.57427
2.39272
1.4589
0.213723
-4.85967
-5.10036
1.86184
-19.5935
-20.9185
-19.6905
-20.8523
-18.1158
-17.5881
-15.5817
-15.0654
-13.5998
-12.5109
-10.3572
-7.21498
-2.23257
-0.643348
-4.61973
-9.614
-6.15539
4.3156
13.0683
14.9405
14.6077
12.5595
10.5136
9.60203
8.13219
6.48291
4.92516
3.53098
2.57568
2.39357
1.45907
0.218003
-4.85937
-5.1206
1.8519
-19.5901
-20.8996
-19.7248
-20.8589
-18.1171
-17.587
-15.582
-15.0649
-13.5992
-12.51
-10.3574
-7.21551
-2.23205
-0.640404
-4.61228
-9.60015
-6.1344
4.33986
13.0875
14.9513
14.6141
12.5644
10.5176
9.60558
8.13563
6.48628
4.92823
3.53362
2.57797
2.39522
1.45976
0.223453
-4.85956
-5.13801
1.84217
-19.5852
-20.8887
-19.7687
-20.8671
-18.1195
-17.5863
-15.5821
-15.0644
-13.5987
-12.5091
-10.3582
-7.21538
-2.23044
-0.636784
-4.60479
-9.58514
-6.10675
4.3777
13.1215
14.971
14.6246
12.5718
10.5234
9.61075
8.14065
6.49122
4.93282
3.53759
2.58138
2.39787
1.46094
0.229724
-4.86056
-5.14294
1.83349
-19.579
-20.8898
-19.8195
-20.8762
-18.1224
-17.5856
-15.5817
-15.0639
-13.5983
-12.5083
-10.3593
-7.21525
-2.22806
-0.632993
-4.59923
-9.57438
-6.08287
4.41566
13.1602
14.9956
14.6384
12.5814
10.5309
9.61725
8.14692
6.49743
4.93871
3.54279
2.58584
2.40144
1.46264
0.236576
-4.86057
-5.13601
1.82624
-19.5716
-20.9074
-19.8746
-20.8858
-18.1249
-17.5842
-15.5806
-15.0633
-13.5981
-12.508
-10.3609
-7.21519
-2.22492
-0.628764
-4.59534
-9.56859
-6.06649
4.44652
13.1958
15.0214
14.6546
12.5929
10.5397
9.62471
8.154
6.50444
4.94551
3.54899
2.59124
2.40581
1.4648
0.243864
-4.85813
-5.11844
1.82044
-19.5631
-20.9453
-19.9315
-20.8955
-18.1267
-17.582
-15.5787
-15.0629
-13.5982
-12.5084
-10.3631
-7.21524
-2.22071
-0.623412
-4.59211
-9.56625
-6.05677
4.46908
13.2251
15.0456
14.6719
12.6059
10.5495
9.63284
8.16151
6.51182
4.95281
3.55588
2.59739
2.41084
1.46736
0.251505
-4.85241
-5.09088
1.81602
-19.5537
-21.0065
-19.9876
-20.9049
-18.1278
-17.579
-15.576
-15.0626
-13.5987
-12.5096
-10.3661
-7.21525
-2.21529
-0.61678
-4.58902
-9.56578
-6.05149
4.48486
13.2474
15.0664
14.6889
12.6196
10.5601
9.64135
8.16911
6.51915
4.96017
3.56311
2.60405
2.41638
1.47025
0.259418
-4.84306
-5.05377
1.81296
-19.5434
-21.0921
-20.0409
-20.9138
-18.1283
-17.5758
-15.5728
-15.0626
-13.5995
-12.5117
-10.3698
-7.21518
-2.2087
-0.608991
-4.58608
-9.56644
-6.04889
4.4958
13.2633
15.0824
14.7038
12.6329
10.5709
9.64995
8.17651
6.52608
4.96717
3.57024
2.61093
2.42222
1.47338
0.267515
-4.83002
-5.00772
1.81124
-19.5327
-21.2024
-20.0899
-20.9221
-18.1286
-17.5726
-15.5695
-15.0628
-13.6007
-12.5146
-10.3741
-7.21509
-2.20133
-0.600555
-4.58356
-9.56795
-6.04775
4.50348
13.2735
15.0929
14.7151
12.6446
10.5811
9.65824
8.18341
6.53231
4.97343
3.57686
2.61766
2.42813
1.47666
0.275704
-4.81352
-4.9536
1.81088
-19.5217
-21.3355
-20.1335
-20.9298
-18.1288
-17.5699
-15.5664
-15.0633
-13.6023
-12.5183
-10.379
-7.21512
-2.1936
-0.591863
-4.5816
-9.57033
-6.04749
4.50879
13.2789
15.0977
14.7218
12.6533
10.5899
9.6657
8.18953
6.53758
4.97864
3.58256
2.62386
2.43383
1.47997
0.283905
-4.79409
-4.8925
1.81193
-19.5107
-21.4885
-20.1709
-20.9369
-18.129
-17.5678
-15.5638
-15.0642
-13.6045
-12.5229
-10.3843
-7.21543
-2.18608
-0.583451
-4.58026
-9.57337
-6.04769
4.51217
13.2805
15.0977
14.7236
12.6583
10.5964
9.67174
8.19453
6.54167
4.98256
3.58704
2.62919
2.43904
1.4832
0.292047
-4.77246
-4.82586
1.8145
-19.5001
-21.6564
-20.2022
-20.9437
-18.1294
-17.5667
-15.562
-15.0656
-13.6071
-12.5283
-10.3902
-7.21618
-2.1792
-0.575687
-4.57952
-9.57685
-6.0482
4.51363
13.2789
15.0938
14.7211
12.6595
10.6001
9.67585
8.19809
6.54441
4.98507
3.59011
2.63338
2.44347
1.48618
0.300074
-4.74961
-4.75538
1.81879
-19.4901
-21.833
-20.2274
-20.9502
-18.1301
-17.5667
-15.5611
-15.0677
-13.6104
-12.5345
-10.3965
-7.21752
-2.17338
-0.569037
-4.57933
-9.58027
-6.04892
4.51308
13.2748
15.0872
14.7154
12.6575
10.601
9.67783
8.20002
6.54574
4.98619
3.59176
2.6363
2.44693
1.48876
0.307938
-4.72662
-4.68314
1.82506
-19.4811
-22.0107
-20.2473
-20.9566
-18.1314
-17.568
-15.5615
-15.0705
-13.6144
-12.5416
-10.4035
-7.21954
-2.16886
-0.563735
-4.57958
-9.58328
-6.04995
4.51052
13.2684
15.0786
14.7074
12.6532
10.5998
9.6778
8.20033
6.54571
4.98603
3.59214
2.638
2.4493
1.49076
0.315603
-4.70454
-4.61149
1.83369
-19.4734
-22.1821
-20.2626
-20.9629
-18.1334
-17.5707
-15.5633
-15.0742
-13.6192
-12.5498
-10.4111
-7.22237
-2.16579
-0.560008
-4.5802
-9.5855
-6.05122
4.50622
13.2599
15.0681
14.6978
12.6474
10.5971
9.6762
8.19921
6.54449
4.98483
3.59151
2.63866
2.45063
1.49204
0.323042
-4.68418
-4.54303
1.84516
-19.4671
-22.3399
-20.2742
-20.9692
-18.1364
-17.5751
-15.5667
-15.0792
-13.6252
-12.5591
-10.4198
-7.2261
-2.16413
-0.557803
-4.58109
-9.58685
-6.05264
4.50062
13.2494
15.0558
14.6869
12.6409
10.5936
9.67353
8.19697
6.54229
4.9828
3.59013
2.63852
2.45105
1.49258
0.330252
-4.66593
-4.48047
1.85995
-19.4625
-22.479
-20.283
-20.9755
-18.1406
-17.5815
-15.5721
-15.0856
-13.6325
-12.5698
-10.4296
-7.2309
-2.16384
-0.557087
-4.58225
-9.58735
-6.05381
4.49424
13.2368
15.0413
14.6745
12.6337
10.5898
9.67023
8.19395
6.53933
4.98014
3.58826
2.63785
2.45077
1.49243
0.337262
-4.64971
-4.42635
1.87843
-19.4594
-22.597
-20.2897
-20.9821
-18.1462
-17.5901
-15.5796
-15.0938
-13.6416
-12.5822
-10.4411
-7.23697
-2.16478
-0.557587
-4.58373
-9.58721
-6.05441
4.48745
13.2222
15.0245
14.6603
12.6259
10.5857
9.66659
8.19044
6.53583
4.97701
3.58607
2.63686
2.44995
1.49173
0.344153
-4.63503
-4.38257
1.90073
-19.4576
-22.6952
-20.295
-20.9894
-18.1533
-17.6013
-15.5899
-15.1044
-13.6529
-12.5968
-10.4548
-7.24474
-2.16695
-0.559188
-4.58569
-9.58652
-6.054
4.4805
13.2055
15.0052
14.6443
12.6172
10.5815
9.66277
8.18663
6.53193
4.97353
3.58368
2.63567
2.44877
1.49063
0.351047
-4.62125
-4.34979
1.92658
-19.4568
-22.7778
-20.2994
-20.9981
-18.162
-17.6154
-15.6036
-15.1181
-13.6671
-12.6143
-10.4717
-7.2548
-2.17047
-0.561652
-4.58827
-9.58546
-6.05243
4.47339
13.1867
14.9835
14.6262
12.6075
10.5771
9.65879
8.18264
6.52774
4.96979
3.58116
2.63436
2.44731
1.48926
0.358073
-4.6078
-4.32714
1.95533
-19.4565
-22.8494
-20.3042
-21.0094
-18.1722
-17.633
-15.6212
-15.1358
-13.685
-12.6353
-10.4929
-7.26813
-2.17578
-0.56508
-4.5916
-9.58397
-6.04943
4.46606
13.1655
14.9591
14.6061
12.5969
10.5723
9.65465
8.1785
6.52333
4.96587
3.57856
2.63295
2.44566
1.48772
0.365326
-4.59433
-4.31261
1.98609
-19.4561
-22.9138
-20.3115
-21.0246
-18.1841
-17.6544
-15.6435
-15.1586
-13.7076
-12.661
-10.5197
-7.28587
-2.18344
-0.569494
-4.59575
-9.58203
-6.04507
4.45828
13.1418
14.9321
14.5839
12.5851
10.5672
9.65034
8.17423
6.5187
4.96181
3.57589
2.63147
2.44388
1.48607
0.372848
-4.58067
-4.30371
2.01795
-19.4553
-22.974
-20.3231
-21.0455
-18.198
-17.6803
-15.6714
-15.1873
-13.7358
-12.6922
-10.5534
-7.30932
-2.19431
-0.575399
-4.60085
-9.5795
-6.03926
4.44981
13.1152
14.9024
14.5597
12.5724
10.5617
9.64585
8.16978
6.51386
4.95766
3.57318
2.62992
2.442
1.48435
0.380633
-4.56681
-4.29818
2.05016
-19.4536
-23.0327
-20.3396
-21.074
-18.2143
-17.7115
-15.7061
-15.2233
-13.7709
-12.7299
-10.5949
-7.33938
-2.20882
-0.583082
-4.60721
-9.57647
-6.03233
4.4403
13.0855
14.87
14.5337
12.5587
10.5558
9.64118
8.16512
6.50881
4.95343
3.57042
2.62832
2.44005
1.4826
0.388645
-4.55281
-4.29422
2.08221
-19.4508
-23.0922
-20.3602
-21.1119
-18.2338
-17.7488
-15.7484
-15.2674
-13.8136
-12.7747
-10.6445
-7.3764
-2.22698
-0.593078
-4.61552
-9.57308
-6.02443
4.42941
13.0524
14.8347
14.5057
12.544
10.5496
9.63633
8.16022
6.50354
4.94916
3.56764
2.62669
2.43804
1.48082
0.396819
-4.53878
-4.29052
2.11382
-19.4466
-23.1543
-20.3828
-21.1604
-18.2572
-17.7929
-15.7991
-15.3202
-13.8644
-12.8268
-10.7016
-7.41946
-2.24749
-0.604846
-4.62668
-9.57002
-6.01619
4.4167
13.0156
14.7967
14.476
12.5285
10.5431
9.6313
8.15502
6.49805
4.94484
3.56485
2.62504
2.43598
1.47903
0.405085
-4.52482
-4.28612
2.14494
-19.4408
-23.2209
-20.4047
-21.2201
-18.285
-17.8437
-15.8579
-15.3808
-13.9225
-12.8849
-10.7642
-7.46669
-2.26835
-0.617442
-4.64154
-9.56794
-6.00801
4.40186
12.9751
14.7558
14.4445
12.5122
10.5363
9.62606
8.14949
6.49234
4.9405
3.56207
2.62342
2.43386
1.47721
0.413355
-4.51104
-4.28032
2.17564
-19.4332
-23.2939
-20.4238
-21.2903
-18.3174
-17.9002
-15.9234
-15.4474
-13.9862
-12.9474
-10.8296
-7.51474
-2.28646
-0.628454
-4.66015
-9.56752
-6.00065
4.38451
12.9307
14.7123
14.4115
12.4951
10.5293
9.62057
8.14357
6.48641
4.93613
3.55932
2.62182
2.4317
1.47536
0.421538
-4.49756
-4.27254
2.20606
-19.4236
-23.3757
-20.4398
-21.3692
-18.3543
-17.9601
-15.992
-15.5159
-14.0518
-13.0104
-10.8933
-7.55969
-2.29903
-0.636082
-4.68154
-9.56849
-5.99423
4.3646
12.8826
14.6661
14.3768
12.4772
10.5221
9.61477
8.1372
6.48024
4.93177
3.55666
2.62029
2.42946
1.47346
0.429526
-4.48449
-4.26235
2.23639
-19.4117
-23.4701
-20.4541
-21.4536
-18.3948
-18.0197
-16.0586
-15.5809
-14.1149
-13.07
-10.9511
-7.59683
-2.30305
-0.638378
-4.70368
-9.56993
-5.98883
4.34218
12.8311
14.6176
14.3408
12.4588
10.5148
9.60858
8.13034
6.47384
4.92741
3.55412
2.61884
2.42716
1.4715
0.437215
-4.47196
-4.24938
2.26679
-19.3972
-23.5826
-20.4692
-21.5379
-18.4374
-18.074
-16.1167
-15.6357
-14.1695
-13.121
-10.9979
-7.62204
-2.29708
-0.63542
-4.7242
-9.56982
-5.98349
4.31781
12.7766
14.5668
14.3033
12.4398
10.5072
9.60188
8.12291
6.4672
4.92311
3.55175
2.61752
2.42476
1.46945
0.444474
-4.46013
-4.23341
2.29746
-19.3796
-23.7213
-20.4866
-21.6146
-18.4795
-18.1174
-16.1596
-15.6741
-14.2105
-13.1595
-11.03
-7.63189
-2.28062
-0.627782
-4.74099
-9.56641
-5.97734
4.29211
12.7198
14.5144
14.2648
12.4204
10.4994
9.59461
8.11486
6.46031
4.91886
3.54958
2.61633
2.42227
1.46728
0.451176
-4.44917
-4.21422
2.32855
-19.3585
-23.8968
-20.506
-21.6747
-18.5182
-18.1448
-16.1816
-15.6908
-14.2333
-13.1818
-11.0447
-7.62545
-2.25595
-0.618168
-4.75295
-9.55804
-5.96885
4.26608
12.6615
14.4607
14.2252
12.4005
10.4913
9.5866
8.10611
6.45317
4.91473
3.54769
2.61533
2.41965
1.46496
0.457157
-4.43924
-4.1917
2.36018
-19.333
-24.1219
-20.5243
-21.7108
-18.5505
-18.1526
-16.1795
-15.6833
-14.2361
-13.1872
-11.0419
-7.60436
-2.22714
-0.609553
-4.76047
-9.54433
-5.95726
4.24039
12.6025
14.4063
14.1848
12.3803
10.4828
9.57777
8.09661
6.44579
4.91073
3.5461
2.61451
2.41691
1.46248
0.462255
-4.43057
-4.16575
2.39246
-19.302
-24.4118
-20.5363
-21.719
-18.5744
-18.1401
-16.1532
-15.6522
-14.2195
-13.1765
-11.0237
-7.57367
-2.20043
-0.606044
-4.76536
-9.52516
-5.94155
4.21576
12.5432
14.3517
14.1438
12.3597
10.4738
9.56796
8.08629
6.43818
4.90691
3.5449
2.61395
2.41401
1.45978
0.466258
-4.42335
-4.13635
2.4255
-19.2643
-24.781
-20.5362
-21.7005
-18.5893
-18.1093
-16.1063
-15.6016
-14.1868
-13.1529
-10.9945
-7.54012
-2.18152
-0.610806
-4.77014
-9.50133
-5.92189
4.19236
12.4841
14.2974
14.1024
12.3387
10.4642
9.55708
8.07513
6.43037
4.90332
3.54411
2.61364
2.41094
1.45683
0.468953
-4.41782
-4.10348
2.45938
-19.218
-25.2388
-20.518
-21.6607
-18.596
-18.0645
-16.0443
-15.5374
-14.1428
-13.1204
-10.9599
-7.51056
-2.17434
-0.626239
-4.77683
-9.4732
-5.89797
4.1705
12.4255
14.2435
14.0608
12.3173
10.4539
9.54502
8.06311
6.42239
4.90002
3.54382
2.61367
2.40767
1.45358
0.470068
-4.41423
-4.06715
2.49418
-19.1606
-25.7783
-20.4746
-21.6063
-18.5962
-18.011
-15.974
-15.4665
-14.093
-13.083
-10.9263
-7.48907
-2.17935
-0.652488
-4.78641
-9.44141
-5.87033
4.14989
12.367
14.1902
14.0191
12.2954
10.4426
9.53178
8.05027
6.41429
4.89702
3.54403
2.614
2.40418
1.45
0.469305
-4.41285
-4.02728
2.53002
-19.0915
-26.3598
-20.3977
-21.5437
-18.5917
-17.9537
-15.9014
-15.3948
-14.0414
-13.045
-10.8991
-7.47608
-2.19498
-0.68849
-4.79832
-9.40537
-5.83871
4.13018
12.3081
14.1371
13.9773
12.2732
10.4306
9.51736
8.03663
6.40607
4.89436
3.54481
2.61474
2.40045
1.44601
0.46624
-4.41392
-3.98372
2.56698
-19.0041
-26.8968
-20.2783
-21.4771
-18.5838
-17.8964
-15.8314
-15.3265
-13.9913
-13.0115
-10.881
-7.4693
-2.21861
-0.731506
-4.81053
-9.36457
-5.80438
4.10976
12.2479
14.0839
13.936
12.2511
10.418
9.50188
8.02218
6.39768
4.89196
3.54614
2.61589
2.39652
1.44159
0.460501
-4.41763
-3.9365
2.60495
-18.8719
-27.2565
-20.1083
-21.4087
-18.5721
-17.8408
-15.7667
-15.2637
-13.9468
-12.987
-10.8704
-7.4664
-2.24796
-0.777884
-4.81986
-9.31889
-5.76967
4.08645
12.1856
14.0306
13.8959
12.2298
10.4051
9.48517
8.0066
6.38887
4.88977
3.54815
2.61771
2.39237
1.43661
0.452144
-4.4239
-3.88732
2.64314
-18.703
-27.2797
-19.8805
-21.3395
-18.5559
-17.7874
-15.7078
-15.2089
-13.9137
-12.9722
-10.8642
-7.46618
-2.2796
-0.821841
-4.82394
-9.27257
-5.74084
4.05775
12.1222
13.9792
13.8594
12.2105
10.3915
9.46646
7.98926
6.37941
4.8879
3.55111
2.62042
2.38799
1.43109
0.441663
-4.43295
-3.8384
2.68098
-18.7856
-26.8372
-19.5889
-21.2724
-18.5374
-17.7387
-15.655
-15.166
-13.8937
-12.9636
-10.8607
-7.46781
-2.31033
-0.86066
-4.82498
-9.23215
-5.72169
4.02583
12.0626
13.9337
13.8281
12.1922
10.3743
9.44295
7.96898
6.36984
4.8876
3.55613
2.62439
2.38277
1.42437
0.424719
-4.44825
-3.77827
2.72567
9.03992
9.34311
10.2082
11.5485
13.2814
15.4512
18.1541
21.5032
25.9321
31.2091
37.6888
45.4801
55.0512
66.9541
81.5474
98.9684
123.612
150.052
190.848
215.147
263.21
104.836
9.03972
9.34288
10.2079
11.548
13.2808
15.4502
18.1525
21.5348
25.9945
31.2454
37.6892
45.4689
55.0295
66.914
81.4781
98.8462
123.385
149.583
189.964
213.551
259.339
101.88
9.03951
9.34264
10.2076
11.5476
13.2801
15.4492
18.1509
21.5739
26.0484
31.2733
37.6859
45.4564
55.0053
66.8764
81.409
98.7206
123.151
149.096
189.059
211.895
255.308
103.54
9.03929
9.34239
10.2073
11.5471
13.2793
15.448
18.1491
21.6133
26.0928
31.2938
37.6806
45.4429
54.9832
66.8344
81.3372
98.5896
122.906
148.588
188.131
210.17
251.163
103.411
9.03906
9.34212
10.2069
11.5465
13.2785
15.4468
18.1473
21.6477
26.1288
31.3085
37.6746
45.4289
54.9589
66.7951
81.2656
98.4534
122.65
148.058
187.174
208.377
246.893
101.599
9.03881
9.34184
10.2065
11.546
13.2777
15.4456
18.1454
21.6713
26.1567
31.3182
37.6688
45.415
54.9374
66.7516
81.1911
98.3107
122.38
147.506
186.183
206.517
242.495
99.533
9.03855
9.34155
10.2061
11.5454
13.2768
15.4443
18.1433
21.6801
26.1768
31.3239
37.664
45.4013
54.9145
66.7106
81.1163
98.1617
122.093
146.931
185.152
204.591
237.972
97.6095
9.03828
9.34124
10.2057
11.5448
13.2759
15.4428
18.1412
21.6749
26.1897
31.3264
37.6603
45.3883
54.8946
66.6658
81.0385
98.0053
121.789
146.33
184.073
202.601
233.33
95.6652
9.03799
9.34091
10.2053
11.5442
13.275
15.4414
18.1389
21.6591
26.1956
31.326
37.6579
45.3761
54.8738
66.6235
80.96
97.842
121.466
145.703
182.941
200.546
228.574
93.6018
9.03769
9.34056
10.2048
11.5435
13.2739
15.4398
18.1365
21.6361
26.1946
31.3232
37.6568
45.3648
54.8558
66.5776
80.8781
97.671
121.122
145.048
181.749
198.426
223.707
91.4435
9.03737
9.34019
10.2043
11.5428
13.2729
15.4381
18.1339
21.6081
26.1865
31.3181
37.6566
45.3545
54.8369
66.5339
80.7952
97.4928
120.757
144.364
180.491
196.24
218.735
89.2252
9.03703
9.3398
10.2038
11.542
13.2717
15.4363
18.1312
21.577
26.1707
31.3104
37.6572
45.3453
54.8207
66.4865
80.7084
97.3066
120.37
143.648
179.163
193.988
213.661
86.958
9.03667
9.33939
10.2033
11.5412
13.2705
15.4345
18.1284
21.5445
26.1466
31.2997
37.658
45.3369
54.8033
66.4409
80.62
97.1129
119.962
142.9
177.76
191.668
208.493
84.6457
9.03629
9.33896
10.2027
11.5403
13.2692
15.4325
18.1253
21.5125
26.1133
31.2854
37.6584
45.3295
54.7881
66.3913
80.5271
96.9109
119.532
142.117
176.277
189.279
203.234
82.297
9.03589
9.3385
10.2021
11.5394
13.2679
15.4304
18.1221
21.4829
26.0702
31.2664
37.6575
45.3228
54.7715
66.3428
80.4318
96.7008
119.08
141.298
174.713
186.818
197.889
79.9241
9.03546
9.33801
10.2014
11.5385
13.2665
15.4281
18.1187
21.4568
26.0169
31.2416
37.6541
45.3166
54.7567
66.2897
80.3312
96.4816
118.606
140.443
173.064
184.286
192.464
77.5401
9.03501
9.3375
10.2007
11.5375
13.2649
15.4258
18.1151
21.435
25.9538
31.2094
37.6468
45.3105
54.7403
66.2369
80.2271
96.2533
118.11
139.548
171.33
181.68
186.962
75.1589
9.03454
9.33695
10.2
11.5364
13.2633
15.4233
18.1112
21.4178
25.8825
31.1683
37.6339
45.3039
54.7254
66.1789
80.1165
96.0145
117.59
138.614
169.509
178.998
181.387
72.7945
9.03403
9.33637
10.1992
11.5353
13.2616
15.4206
18.1071
21.4044
25.8056
31.1165
37.6128
45.2958
54.7086
66.1202
80.0011
95.765
117.047
137.639
167.6
176.24
175.744
70.4596
9.0335
9.33576
10.1984
11.5341
13.2598
15.4178
18.1028
21.3939
25.727
31.0531
37.5808
45.2849
54.6928
66.0556
79.8779
95.5034
116.478
136.621
165.603
173.403
170.037
68.1646
9.03293
9.33511
10.1976
11.5328
13.2579
15.4148
18.0982
21.3851
25.651
30.9776
37.5345
45.2688
54.6744
65.9895
79.7484
95.2293
115.882
135.559
163.518
170.486
164.27
65.9168
9.03233
9.33443
10.1967
11.5315
13.2559
15.4116
18.0932
21.3772
25.5815
30.8914
37.4702
45.2444
54.6556
65.9169
79.6094
94.941
115.257
134.451
161.343
167.488
158.449
63.7191
9.03169
9.3337
10.1957
11.5301
13.2538
15.4083
18.088
21.3694
25.5217
30.7974
37.3848
45.2069
54.6317
65.8419
79.4625
94.6381
114.603
133.295
159.08
164.407
152.578
61.5697
9.03101
9.33292
10.1946
11.5285
13.2515
15.4047
18.0824
21.3614
25.473
30.7002
37.2765
45.1503
54.6029
65.7595
79.3046
94.3189
113.916
132.091
156.726
161.241
146.667
59.4618
9.03029
9.3321
10.1935
11.5269
13.2491
15.4009
18.0764
21.3528
25.4348
30.6051
37.1464
45.0669
54.5616
65.6732
79.1371
93.9829
113.197
130.835
154.283
157.99
140.722
57.3835
9.02953
9.33122
10.1924
11.5252
13.2465
15.3969
18.0701
21.3437
25.405
30.5169
36.9991
44.9486
54.5029
65.5766
78.9568
93.6285
112.443
129.526
151.75
154.65
134.753
55.3186
9.02871
9.3303
10.1911
11.5234
13.2438
15.3926
18.0634
21.334
25.3808
30.4391
36.8425
44.7899
54.4126
65.4704
78.7647
93.255
111.653
128.162
149.126
151.222
128.771
53.2474
9.02785
9.32931
10.1898
11.5215
13.2409
15.3881
18.0563
21.3235
25.3598
30.3727
36.6864
44.5905
54.2783
65.3439
78.5564
92.8608
110.826
126.741
146.412
147.701
122.788
51.1474
9.02693
9.32826
10.1884
11.5194
13.2378
15.3833
18.0487
21.3123
25.34
30.317
36.5399
44.358
54.082
65.1892
78.3304
92.4449
109.961
125.262
143.609
144.088
116.816
48.9954
9.02595
9.32714
10.1869
11.5173
13.2345
15.3782
18.0407
21.3003
25.3203
30.2696
36.4092
44.1076
53.8143
64.9853
78.0772
92.0045
109.056
123.722
140.716
140.381
110.869
46.7678
9.02491
9.32595
10.1853
11.5149
13.231
15.3727
18.0321
21.2876
25.2999
30.2276
36.2966
43.8578
53.4752
64.7129
77.7859
91.536
108.112
122.121
137.735
136.579
104.962
44.443
9.0238
9.32469
10.1837
11.5125
13.2273
15.367
18.023
21.274
25.2783
30.1882
36.2007
43.6252
53.0834
64.3483
77.4342
91.0316
107.127
120.457
134.668
132.681
99.1094
42.0019
9.02262
9.32334
10.1819
11.5098
13.2234
15.3608
18.0134
21.2595
25.2554
30.1492
36.1174
43.4194
52.6687
63.8843
76.9962
90.4792
106.096
118.728
131.515
128.688
93.3257
39.4291
9.02136
9.32191
10.1799
11.507
13.2192
15.3543
18.0032
21.244
25.2309
30.1092
36.0419
43.2422
52.2655
63.3314
76.442
89.8586
105.015
116.933
128.279
124.601
87.6256
36.714
9.02002
9.32038
10.1779
11.504
13.2147
15.3473
17.9923
21.2276
25.2049
30.0672
35.9693
43.089
51.8985
62.7261
75.7563
89.1438
103.874
115.071
124.962
120.424
82.0235
33.8514
9.01859
9.31875
10.1757
11.5009
13.2099
15.3399
17.9807
21.2101
25.1772
30.0228
35.8962
42.9515
51.5782
62.1146
74.9468
88.3068
102.656
113.14
121.569
116.16
76.5335
30.8419
9.01706
9.31701
10.1734
11.4975
13.2048
15.3321
17.9683
21.1914
25.1477
29.9757
35.8203
42.8212
51.3004
61.5388
74.0543
87.3297
101.342
111.138
118.104
111.815
71.1691
27.6921
9.01543
9.31516
10.1709
11.4938
13.1994
15.3237
17.9552
21.1715
25.1164
29.9256
35.7404
42.6911
51.0522
61.0202
73.1381
86.217
99.9111
109.061
114.575
107.398
65.9435
24.4145
9.01369
9.31318
10.1683
11.49
13.1936
15.3147
17.9412
21.1504
25.0829
29.8724
35.6558
42.5566
50.8185
60.5587
72.2554
85.0025
98.3512
106.909
110.997
102.92
60.8703
21.0273
9.01183
9.31107
10.1654
11.4859
13.1874
15.3052
17.9264
21.1278
25.0473
29.8158
35.5661
42.4151
50.586
60.1374
71.4387
83.7409
96.6666
104.683
107.387
98.3959
55.9636
17.5535
9.00985
9.30882
10.1624
11.4815
13.1808
15.295
17.9105
21.1037
25.0094
29.7557
35.4708
42.2655
50.3459
59.7342
70.6895
82.4877
94.8834
102.388
103.771
93.8478
51.2388
14.0208
9.00773
9.30641
10.1592
11.4768
13.1738
15.2842
17.8936
21.078
24.9691
29.6917
35.3696
42.1069
50.0935
59.329
69.9853
81.2774
93.042
100.037
100.184
89.3043
46.7138
10.4611
9.00546
9.30384
10.1558
11.4718
13.1663
15.2726
17.8756
21.0506
24.926
29.6236
35.2621
41.9388
49.8269
58.9087
69.295
80.1144
91.1826
97.6417
96.6598
84.8019
42.4086
6.90971
9.00304
9.30109
10.1521
11.4664
13.1583
15.2602
17.8564
21.0214
24.8802
29.5512
35.1479
41.7604
49.5449
58.4662
68.591
78.9787
89.3305
95.2131
93.2299
80.384
38.3454
3.40562
9.00045
9.29815
10.1482
11.4607
13.1497
15.2471
17.836
20.9902
24.8314
29.4741
35.0265
41.5711
49.2467
57.9994
67.8554
77.8392
87.4906
92.749
89.9055
76.0958
34.5469
-0.00962339
8.99768
9.29501
10.144
11.4546
13.1405
15.233
17.8142
20.957
24.7793
29.3921
34.8976
41.3702
48.9312
57.5071
67.0801
76.6665
85.6502
90.2383
86.6677
71.9754
31.0336
-3.29289
8.99471
9.29165
10.1395
11.448
13.1307
15.218
17.7909
20.9215
24.7238
29.3048
34.7606
41.1571
48.5972
56.9881
66.2639
75.4412
83.7839
87.6714
83.4656
68.04
27.8187
-6.40149
8.99154
9.28806
10.1347
11.441
13.1203
15.202
17.7661
20.8836
24.6647
29.2119
34.6151
40.931
48.2439
56.441
65.4073
74.1561
81.8645
85.0457
80.2341
64.2723
24.9019
-9.29612
8.98814
9.28421
10.1295
11.4335
13.1091
15.1848
17.7396
20.8431