/*--------------------------------*- C++ -*----------------------------------*\
| =========                 |                                                 |
| \\      /  F ield         | OpenFOAM: The Open Source CFD Toolbox           |
|  \\    /   O peration     | Version:  v1912                                 |
|   \\  /    A nd           | Website:  www.openfoam.com                      |
|    \\/     M anipulation  |                                                 |
\*---------------------------------------------------------------------------*/
FoamFile
{
    version     2.0;
    format      ascii;
    class       surfaceScalarField;
    location    "510";
    object      phi;
}
// * * * * * * * * * * * * * * * * * * * * * * * * * * * * * * * * * * * * * //

dimensions      [0 3 -1 0 0 0 0];
oriented        oriented;


internalField   nonuniform List<scalar> 
24588
(
6.81683e-05
1.99296e-08
6.81139e-05
5.4831e-08
6.80284e-05
8.52016e-08
6.7912e-05
1.16352e-07
6.77608e-05
1.50874e-07
6.75702e-05
1.90625e-07
6.73346e-05
2.35514e-07
6.70386e-05
2.96402e-07
6.66736e-05
3.64516e-07
6.62184e-05
4.54847e-07
6.56529e-05
5.66111e-07
6.49956e-05
6.82235e-07
6.40386e-05
8.66802e-07
6.29386e-05
1.19412e-06
6.14794e-05
1.44645e-06
5.9166e-05
2.30582e-06
5.62362e-05
2.92775e-06
5.14012e-05
4.8356e-06
4.46654e-05
6.73588e-06
3.34505e-05
1.12146e-05
1.98437e-05
1.36068e-05
1.98438e-05
6.81686e-05
4.03241e-08
6.81138e-05
1.10187e-07
6.80284e-05
1.70251e-07
6.79121e-05
2.32533e-07
6.77608e-05
3.01658e-07
6.75704e-05
3.81216e-07
6.73348e-05
4.70975e-07
6.70386e-05
5.92959e-07
6.66732e-05
7.29471e-07
6.62185e-05
9.09147e-07
6.56545e-05
1.13083e-06
6.49978e-05
1.36715e-06
6.40301e-05
1.73458e-06
6.29522e-05
2.36446e-06
6.14833e-05
2.90239e-06
5.9239e-05
4.54273e-06
5.62618e-05
5.90146e-06
5.13718e-05
9.72633e-06
4.47096e-05
1.33981e-05
3.33526e-05
2.25713e-05
1.98072e-05
2.71522e-05
3.96511e-05
6.81686e-05
6.07224e-08
6.81138e-05
1.65565e-07
6.80284e-05
2.55326e-07
6.79121e-05
3.48732e-07
6.77608e-05
4.52457e-07
6.75703e-05
5.71827e-07
6.73347e-05
7.06441e-07
6.70386e-05
8.8954e-07
6.66732e-05
1.09434e-06
6.62184e-05
1.3635e-06
6.56536e-05
1.69641e-06
6.50002e-05
2.04985e-06
6.40271e-05
2.60322e-06
6.29388e-05
3.56273e-06
6.14693e-05
4.35678e-06
5.92658e-05
6.73808e-06
5.62571e-05
8.90569e-06
5.13924e-05
1.45922e-05
4.46866e-05
2.01041e-05
3.33748e-05
3.38825e-05
1.98276e-05
4.06994e-05
5.94788e-05
6.81686e-05
8.11198e-08
6.81138e-05
2.20887e-07
6.80284e-05
3.40368e-07
6.79121e-05
4.64917e-07
6.77609e-05
6.03232e-07
6.75704e-05
7.6241e-07
6.73347e-05
9.41922e-07
6.70386e-05
1.1861e-06
6.66731e-05
1.45932e-06
6.62184e-05
1.81782e-06
6.56539e-05
2.26171e-06
6.49963e-05
2.73564e-06
6.40317e-05
3.46902e-06
6.29512e-05
4.73197e-06
6.14754e-05
5.82006e-06
5.92904e-05
8.91654e-06
5.62832e-05
1.19091e-05
5.14081e-05
1.94681e-05
4.46771e-05
2.68352e-05
3.34049e-05
4.51543e-05
1.98618e-05
5.42425e-05
7.93407e-05
6.81686e-05
1.01519e-07
6.81138e-05
2.76231e-07
6.80284e-05
4.25441e-07
6.79121e-05
5.81122e-07
6.77608e-05
7.54018e-07
6.75703e-05
9.53013e-07
6.73347e-05
1.1774e-06
6.70386e-05
1.48267e-06
6.66732e-05
1.82422e-06
6.62183e-05
2.27225e-06
6.56533e-05
2.82743e-06
6.5e-05
3.41779e-06
6.40288e-05
4.33553e-06
6.29381e-05
5.93305e-06
6.14651e-05
7.27742e-06
5.92947e-05
1.10787e-05
5.63062e-05
1.4893e-05
5.14099e-05
2.43657e-05
4.46959e-05
3.35494e-05
3.34516e-05
5.6398e-05
1.99106e-05
6.77835e-05
9.92513e-05
6.81686e-05
1.21919e-07
6.81138e-05
3.31515e-07
6.80284e-05
5.10466e-07
6.79121e-05
6.97306e-07
6.77609e-05
9.04772e-07
6.75704e-05
1.14358e-06
6.73348e-05
1.41289e-06
6.70386e-05
1.77922e-06
6.66731e-05
2.18923e-06
6.62184e-05
2.72656e-06
6.56538e-05
3.3928e-06
6.49947e-05
4.10477e-06
6.40332e-05
5.20115e-06
6.29517e-05
7.09801e-06
6.14718e-05
8.74551e-06
5.92989e-05
1.32452e-05
5.63231e-05
1.78652e-05
5.1422e-05
2.92675e-05
4.47282e-05
4.02432e-05
3.35182e-05
6.76075e-05
1.99762e-05
8.13255e-05
0.000119228
6.81686e-05
1.42322e-07
6.81138e-05
3.86833e-07
6.80284e-05
5.9553e-07
6.79121e-05
8.13516e-07
6.77609e-05
1.05553e-06
6.75704e-05
1.33417e-06
6.73348e-05
1.64837e-06
6.70386e-05
2.07576e-06
6.66732e-05
2.55414e-06
6.62183e-05
3.18106e-06
6.56536e-05
3.95817e-06
6.50003e-05
4.78593e-06
6.40301e-05
6.06742e-06
6.29371e-05
8.30281e-06
6.14621e-05
1.02035e-05
5.92894e-05
1.54102e-05
5.63353e-05
2.08155e-05
5.14432e-05
3.41608e-05
4.47773e-05
4.69093e-05
3.36124e-05
7.8772e-05
2.00617e-05
9.48761e-05
0.000139289
6.81685e-05
1.62724e-07
6.81138e-05
4.42082e-07
6.80284e-05
6.80539e-07
6.79121e-05
9.29695e-07
6.77609e-05
1.20626e-06
6.75704e-05
1.52472e-06
6.73348e-05
1.88387e-06
6.70387e-05
2.37228e-06
6.66731e-05
2.91916e-06
6.62185e-05
3.63527e-06
6.56541e-05
4.52336e-06
6.49928e-05
5.47474e-06
6.40336e-05
6.93542e-06
6.29515e-05
9.46232e-06
6.14619e-05
1.16802e-05
5.92784e-05
1.75872e-05
5.63522e-05
2.3739e-05
5.14935e-05
3.902e-05
4.48625e-05
5.35402e-05
3.37466e-05
8.98876e-05
2.01713e-05
0.000108451
0.000159461
6.81685e-05
1.8313e-07
6.81138e-05
4.97375e-07
6.80284e-05
7.65596e-07
6.79121e-05
1.0459e-06
6.77609e-05
1.357e-06
6.75704e-05
1.71529e-06
6.73348e-05
2.11934e-06
6.70387e-05
2.66878e-06
6.66733e-05
3.28407e-06
6.62183e-05
4.08981e-06
6.56541e-05
5.08825e-06
6.50013e-05
6.1542e-06
6.40313e-05
7.80145e-06
6.29291e-05
1.06744e-05
6.14282e-05
1.31665e-05
5.92729e-05
1.97371e-05
5.63583e-05
2.66517e-05
5.16043e-05
4.37749e-05
4.50074e-05
6.01374e-05
3.39336e-05
0.000100961
2.03096e-05
0.000122075
0.00017977
6.81685e-05
2.03534e-07
6.81138e-05
5.5259e-07
6.80284e-05
8.50593e-07
6.79121e-05
1.16207e-06
6.77609e-05
1.5077e-06
6.75705e-05
1.90581e-06
6.73349e-05
2.35482e-06
6.70388e-05
2.96526e-06
6.66732e-05
3.64911e-06
6.62188e-05
4.54382e-06
6.5655e-05
5.65284e-06
6.49898e-05
6.8464e-06
6.40264e-05
8.68196e-06
6.29232e-05
1.18477e-05
6.14046e-05
1.46736e-05
5.92984e-05
2.18393e-05
5.63765e-05
2.95724e-05
5.17818e-05
4.83697e-05
4.52168e-05
6.67023e-05
3.41786e-05
0.000111999
2.04802e-05
0.000135774
0.000200251
6.81685e-05
2.23941e-07
6.81138e-05
6.0786e-07
6.80284e-05
9.35647e-07
6.79121e-05
1.27828e-06
6.77609e-05
1.65841e-06
6.75705e-05
2.09637e-06
6.73349e-05
2.59027e-06
6.70388e-05
3.26171e-06
6.66733e-05
4.01407e-06
6.62187e-05
4.99807e-06
6.56551e-05
6.21701e-06
6.49977e-05
7.52882e-06
6.4034e-05
9.54743e-06
6.29074e-05
1.30629e-05
6.13864e-05
1.61877e-05
5.93339e-05
2.38904e-05
5.64199e-05
3.24858e-05
5.19922e-05
5.2798e-05
4.54641e-05
7.32306e-05
3.44732e-05
0.00012299
2.06846e-05
0.000149562
0.000220935
6.81685e-05
2.44345e-07
6.81139e-05
6.63043e-07
6.80284e-05
1.02064e-06
6.79122e-05
1.39444e-06
6.7761e-05
1.80908e-06
6.75705e-05
2.28687e-06
6.73349e-05
2.82574e-06
6.70389e-05
3.55811e-06
6.66732e-05
4.37922e-06
6.62193e-05
5.45161e-06
6.5657e-05
6.78008e-06
6.49799e-05
8.23055e-06
6.40234e-05
1.04369e-05
6.29054e-05
1.42229e-05
6.13822e-05
1.77049e-05
5.93672e-05
2.59037e-05
5.64741e-05
3.53785e-05
5.2186e-05
5.70859e-05
4.57137e-05
7.97028e-05
3.48001e-05
0.000133903
2.09215e-05
0.000163441
0.000241857
6.81685e-05
2.64752e-07
6.81138e-05
7.18286e-07
6.80284e-05
1.10569e-06
6.79121e-05
1.51064e-06
6.7761e-05
1.95977e-06
6.75705e-05
2.4774e-06
6.7335e-05
3.06115e-06
6.7039e-05
3.85449e-06
6.66733e-05
4.74442e-06
6.62196e-05
5.90485e-06
6.56572e-05
7.34307e-06
6.49713e-05
8.93808e-06
6.40198e-05
1.13154e-05
6.29007e-05
1.53798e-05
6.13817e-05
1.92233e-05
5.93922e-05
2.78932e-05
5.65231e-05
3.82475e-05
5.23393e-05
6.127e-05
4.59438e-05
8.60985e-05
3.5142e-05
0.000144705
2.11874e-05
0.000177396
0.000263044
6.81685e-05
2.85155e-07
6.81139e-05
7.73436e-07
6.80284e-05
1.19068e-06
6.79122e-05
1.6268e-06
6.7761e-05
2.11041e-06
6.75706e-05
2.66787e-06
6.7335e-05
3.29657e-06
6.70391e-05
4.15081e-06
6.66732e-05
5.10981e-06
6.622e-05
6.35767e-06
6.56577e-05
7.90607e-06
6.49439e-05
9.67099e-06
6.40114e-05
1.22159e-05
6.28955e-05
1.65052e-05
6.13828e-05
2.07332e-05
5.94088e-05
2.98664e-05
5.65611e-05
4.1095e-05
5.24542e-05
6.53767e-05
4.61478e-05
9.24048e-05
3.54862e-05
0.000155366
2.14777e-05
0.000191404
0.000284522
6.81685e-05
3.05561e-07
6.81139e-05
8.28656e-07
6.80284e-05
1.27574e-06
6.79122e-05
1.74299e-06
6.7761e-05
2.26107e-06
6.75706e-05
2.85839e-06
6.73351e-05
3.53192e-06
6.70392e-05
4.44711e-06
6.66732e-05
5.47524e-06
6.622e-05
6.81047e-06
6.5657e-05
8.46962e-06
6.49269e-05
1.04162e-05
6.40149e-05
1.3099e-05
6.28912e-05
1.76425e-05
6.13843e-05
2.22409e-05
5.94194e-05
3.18316e-05
5.65887e-05
4.39257e-05
5.25406e-05
6.94251e-05
4.63264e-05
9.86191e-05
3.58251e-05
0.000165868
2.17877e-05
0.000205441
0.00030631
6.81685e-05
3.25962e-07
6.81139e-05
8.83771e-07
6.80285e-05
1.36073e-06
6.79122e-05
1.85914e-06
6.7761e-05
2.41169e-06
6.75707e-05
3.04883e-06
6.73352e-05
3.76729e-06
6.70393e-05
4.74334e-06
6.66731e-05
5.84088e-06
6.62196e-05
7.26361e-06
6.56531e-05
9.03678e-06
6.49194e-05
1.11609e-05
6.40151e-05
1.39973e-05
6.28888e-05
1.87687e-05
6.13856e-05
2.37425e-05
5.94259e-05
3.37907e-05
5.66083e-05
4.67432e-05
5.26074e-05
7.34258e-05
4.64832e-05
0.000104743
3.61548e-05
0.000176196
2.21132e-05
0.000219483
0.000328423
6.81685e-05
3.46366e-07
6.81139e-05
9.38965e-07
6.80284e-05
1.4458e-06
6.79122e-05
1.97532e-06
6.7761e-05
2.56232e-06
6.75707e-05
3.23932e-06
6.73352e-05
4.00258e-06
6.70394e-05
5.03951e-06
6.6673e-05
6.20673e-06
6.622e-05
7.71626e-06
6.56438e-05
9.61343e-06
6.49198e-05
1.18908e-05
6.4014e-05
1.48919e-05
6.28875e-05
1.99017e-05
6.13868e-05
2.52442e-05
5.94299e-05
3.57479e-05
5.66221e-05
4.95511e-05
5.26614e-05
7.73868e-05
4.66223e-05
0.000110782
3.64742e-05
0.000186344
2.24512e-05
0.000233506
0.000350874
6.81685e-05
3.66764e-07
6.81139e-05
9.94046e-07
6.80285e-05
1.53079e-06
6.79122e-05
2.09145e-06
6.77611e-05
2.71291e-06
6.75707e-05
3.42973e-06
6.73353e-05
4.2379e-06
6.70396e-05
5.33555e-06
6.66728e-05
6.57298e-06
6.62206e-05
8.1681e-06
6.56328e-05
1.02018e-05
6.49196e-05
1.26072e-05
6.40123e-05
1.57999e-05
6.28869e-05
2.1025e-05
6.13878e-05
2.6742e-05
5.94323e-05
3.7703e-05
5.66322e-05
5.23511e-05
5.2707e-05
8.13118e-05
4.67477e-05
0.000116742
3.67836e-05
0.000196308
2.27993e-05
0.00024749
0.000373674
6.81685e-05
3.87165e-07
6.81139e-05
1.04922e-06
6.80284e-05
1.61587e-06
6.79122e-05
2.20763e-06
6.77611e-05
2.86352e-06
6.75707e-05
3.62018e-06
6.73353e-05
4.47316e-06
6.70397e-05
5.6315e-06
6.66729e-05
6.93936e-06
6.6221e-05
8.61954e-06
6.56254e-05
1.07979e-05
6.49178e-05
1.33159e-05
6.40112e-05
1.67008e-05
6.28866e-05
2.2154e-05
6.13887e-05
2.82409e-05
5.94337e-05
3.96583e-05
5.66399e-05
5.5145e-05
5.27477e-05
8.52041e-05
4.6863e-05
0.000122627
3.70842e-05
0.000206087
2.31561e-05
0.000261418
0.00039683
6.81685e-05
4.07558e-07
6.81139e-05
1.10426e-06
6.80285e-05
1.70086e-06
6.79123e-05
2.32374e-06
6.77612e-05
3.01408e-06
6.75708e-05
3.81053e-06
6.73354e-05
4.70845e-06
6.70399e-05
5.92736e-06
6.6673e-05
7.30581e-06
6.62176e-05
9.07454e-06
6.56229e-05
1.13929e-05
6.49154e-05
1.40243e-05
6.40105e-05
1.76079e-05
6.28866e-05
2.32755e-05
6.13896e-05
2.97368e-05
5.94347e-05
4.16128e-05
5.66464e-05
5.79332e-05
5.27859e-05
8.90645e-05
4.69714e-05
0.000128441
3.73779e-05
0.00021568
2.35207e-05
0.000275276
0.000420351
6.81685e-05
4.27955e-07
6.81139e-05
1.15941e-06
6.80285e-05
1.78596e-06
6.79122e-05
2.43991e-06
6.77611e-05
3.16466e-06
6.75708e-05
4.00094e-06
6.73355e-05
4.94365e-06
6.704e-05
6.22318e-06
6.66736e-05
7.67171e-06
6.6209e-05
9.53874e-06
6.56245e-05
1.19776e-05
6.49133e-05
1.47358e-05
6.40102e-05
1.85069e-05
6.28868e-05
2.44023e-05
6.13907e-05
3.12339e-05
5.94358e-05
4.3568e-05
5.66528e-05
6.07162e-05
5.28234e-05
9.28941e-05
4.70755e-05
0.000134189
3.76668e-05
0.000225089
2.38932e-05
0.000289049
0.000444244
6.81685e-05
4.48345e-07
6.81139e-05
1.21442e-06
6.80285e-05
1.87095e-06
6.79123e-05
2.556e-06
6.77612e-05
3.31519e-06
6.75709e-05
4.19126e-06
6.73356e-05
5.17886e-06
6.70401e-05
6.51901e-06
6.66744e-05
8.03687e-06
6.61985e-05
1.00144e-05
6.56264e-05
1.25499e-05
6.49117e-05
1.54507e-05
6.40102e-05
1.94108e-05
6.28873e-05
2.55228e-05
6.1392e-05
3.27283e-05
5.94373e-05
4.55224e-05
5.66598e-05
6.34936e-05
5.28615e-05
9.66922e-05
4.71773e-05
0.000139873
3.7953e-05
0.000234313
2.42737e-05
0.000302729
0.000468517
6.81685e-05
4.68737e-07
6.81139e-05
1.26953e-06
6.80285e-05
1.95606e-06
6.79123e-05
2.67216e-06
6.77612e-05
3.46574e-06
6.75709e-05
4.38163e-06
6.73357e-05
5.41395e-06
6.70401e-05
6.8149e-06
6.66754e-05
8.40109e-06
6.61907e-05
1.04988e-05
6.56268e-05
1.31138e-05
6.49107e-05
1.61668e-05
6.40105e-05
2.03078e-05
6.28879e-05
2.66485e-05
6.13936e-05
3.42234e-05
5.94397e-05
4.74765e-05
5.66681e-05
6.62653e-05
5.2901e-05
0.00010046
4.72783e-05
0.000145496
3.82391e-05
0.000243353
2.4663e-05
0.000316305
0.00049318
6.81685e-05
4.89121e-07
6.81139e-05
1.32451e-06
6.80285e-05
2.04105e-06
6.79123e-05
2.78823e-06
6.77613e-05
3.61623e-06
6.7571e-05
4.57191e-06
6.73358e-05
5.64904e-06
6.70403e-05
7.11079e-06
6.6676e-05
8.76483e-06
6.61859e-05
1.09887e-05
6.56262e-05
1.36735e-05
6.49102e-05
1.68831e-05
6.40109e-05
2.12093e-05
6.28888e-05
2.77683e-05
6.13958e-05
3.57156e-05
5.94434e-05
4.94286e-05
5.66781e-05
6.90305e-05
5.29424e-05
0.000104195
4.738e-05
0.000151058
3.85272e-05
0.000252205
2.50621e-05
0.00032977
0.000518243
6.81685e-05
5.09509e-07
6.81139e-05
1.3796e-06
6.80285e-05
2.12617e-06
6.79123e-05
2.90437e-06
6.77613e-05
3.76674e-06
6.75711e-05
4.76224e-06
6.73359e-05
5.88404e-06
6.70404e-05
7.4066e-06
6.66765e-05
9.1283e-06
6.61833e-05
1.14816e-05
6.56254e-05
1.42313e-05
6.49099e-05
1.75986e-05
6.40116e-05
2.21048e-05
6.289e-05
2.88927e-05
6.13985e-05
3.72078e-05
5.94486e-05
5.13788e-05
5.66903e-05
7.17889e-05
5.29859e-05
0.0001079
4.7483e-05
0.000156561
3.88198e-05
0.000260869
2.54723e-05
0.000343117
0.000543715
6.81685e-05
5.29888e-07
6.81139e-05
1.43454e-06
6.80286e-05
2.21117e-06
6.79124e-05
3.02042e-06
6.77614e-05
3.9172e-06
6.75712e-05
4.95245e-06
6.7336e-05
6.11907e-06
6.70407e-05
7.70221e-06
6.66752e-05
9.49332e-06
6.61823e-05
1.19743e-05
6.56247e-05
1.4789e-05
6.49099e-05
1.83136e-05
6.40124e-05
2.30046e-05
6.28914e-05
3.00113e-05
6.1402e-05
3.86965e-05
5.94555e-05
5.3325e-05
5.67048e-05
7.45395e-05
5.30316e-05
0.000111573
4.75881e-05
0.000162005
3.91191e-05
0.000269338
2.5895e-05
0.000356341
0.00056961
6.81685e-05
5.50271e-07
6.81139e-05
1.4896e-06
6.80285e-05
2.2963e-06
6.79123e-05
3.13654e-06
6.77614e-05
4.06768e-06
6.75712e-05
5.1427e-06
6.73361e-05
6.35406e-06
6.70411e-05
7.99746e-06
6.66701e-05
9.86393e-06
6.6185e-05
1.24591e-05
6.56243e-05
1.53496e-05
6.491e-05
1.90279e-05
6.40133e-05
2.38987e-05
6.28932e-05
3.1134e-05
6.14062e-05
4.01843e-05
5.94642e-05
5.52673e-05
5.67217e-05
7.7282e-05
5.30795e-05
0.000115215
4.76956e-05
0.000167389
3.94271e-05
0.000277606
2.63318e-05
0.000369436
0.000595942
6.81685e-05
5.70643e-07
6.81139e-05
1.54451e-06
6.80286e-05
2.3813e-06
6.79124e-05
3.25256e-06
6.77614e-05
4.21811e-06
6.75713e-05
5.33281e-06
6.73361e-05
6.58918e-06
6.70417e-05
8.2922e-06
6.66622e-05
1.0243e-05
6.61893e-05
1.29319e-05
6.5624e-05
1.5915e-05
6.49103e-05
1.97417e-05
6.40144e-05
2.47968e-05
6.28954e-05
3.22508e-05
6.14113e-05
4.16676e-05
5.94745e-05
5.72037e-05
5.67411e-05
8.00153e-05
5.31295e-05
0.000118827
4.78057e-05
0.000172712
3.97457e-05
0.000285666
2.67842e-05
0.000382398
0.000622726
6.81685e-05
5.91021e-07
6.81139e-05
1.59954e-06
6.80285e-05
2.46644e-06
6.79124e-05
3.36866e-06
6.77614e-05
4.36857e-06
6.75714e-05
5.52295e-06
6.73362e-05
6.82428e-06
6.70423e-05
8.58638e-06
6.66558e-05
1.0629e-05
6.61926e-05
1.3395e-05
6.56239e-05
1.64836e-05
6.49107e-05
2.04549e-05
6.40156e-05
2.56895e-05
6.28978e-05
3.33712e-05
6.14171e-05
4.31491e-05
5.94865e-05
5.91345e-05
5.6763e-05
8.27389e-05
5.31817e-05
0.000122408
4.79185e-05
0.000177976
4.00762e-05
0.000293508
2.72536e-05
0.000395221
0.00064998
6.81685e-05
6.11387e-07
6.81139e-05
1.65441e-06
6.80286e-05
2.55143e-06
6.79125e-05
3.48465e-06
6.77615e-05
4.51897e-06
6.75715e-05
5.71294e-06
6.73362e-05
7.05949e-06
6.70428e-05
8.8801e-06
6.66515e-05
1.10199e-05
6.61945e-05
1.3852e-05
6.5624e-05
1.70541e-05
6.49113e-05
2.11678e-05
6.40169e-05
2.65859e-05
6.29007e-05
3.44852e-05
6.14236e-05
4.46253e-05
5.95001e-05
6.10578e-05
5.67873e-05
8.54516e-05
5.32362e-05
0.000125959
4.80338e-05
0.000183178
4.04195e-05
0.000301123
2.77412e-05
0.000407899
0.000677721
6.81685e-05
6.31759e-07
6.81139e-05
1.70942e-06
6.80286e-05
2.63658e-06
6.79124e-05
3.60072e-06
6.77615e-05
4.6694e-06
6.75716e-05
5.90296e-06
6.73363e-05
7.29463e-06
6.70433e-05
9.17348e-06
6.66488e-05
1.14139e-05
6.61957e-05
1.4305e-05
6.56242e-05
1.76255e-05
6.49119e-05
2.18801e-05
6.40184e-05
2.74771e-05
6.29038e-05
3.56024e-05
6.14309e-05
4.60991e-05
5.9515e-05
6.2974e-05
5.68141e-05
8.81525e-05
5.3293e-05
0.00012948
4.81515e-05
0.00018832
4.07759e-05
0.000308498
2.82481e-05
0.000420427
0.000705969
6.81685e-05
6.52119e-07
6.81139e-05
1.76425e-06
6.80286e-05
2.72158e-06
6.79125e-05
3.71668e-06
6.77616e-05
4.81977e-06
6.75717e-05
6.09286e-06
6.73365e-05
7.5298e-06
6.70436e-05
9.46663e-06
6.66471e-05
1.181e-05
6.61965e-05
1.47556e-05
6.56245e-05
1.81975e-05
6.49126e-05
2.25921e-05
6.402e-05
2.83717e-05
6.29072e-05
3.67129e-05
6.14388e-05
4.75667e-05
5.95313e-05
6.48811e-05
5.68434e-05
9.08403e-05
5.33522e-05
0.000132971
4.82715e-05
0.0001934
4.11456e-05
0.000315624
2.87748e-05
0.000432797
0.000734744
6.81685e-05
6.72486e-07
6.81139e-05
1.81924e-06
6.80286e-05
2.80673e-06
6.79125e-05
3.83273e-06
6.77616e-05
4.97016e-06
6.75718e-05
6.28281e-06
6.73366e-05
7.76481e-06
6.70438e-05
9.75971e-06
6.66462e-05
1.22072e-05
6.61973e-05
1.52045e-05
6.56249e-05
1.87699e-05
6.49134e-05
2.33037e-05
6.40217e-05
2.92611e-05
6.29109e-05
3.78263e-05
6.14472e-05
4.90313e-05
5.95488e-05
6.67798e-05
5.68752e-05
9.35141e-05
5.3414e-05
0.000136433
4.83937e-05
0.000198421
4.15281e-05
0.00032249
2.93216e-05
0.000445004
0.000764065
6.81685e-05
6.9284e-07
6.8114e-05
1.87404e-06
6.80287e-05
2.89172e-06
6.79126e-05
3.94866e-06
6.77617e-05
5.12048e-06
6.75719e-05
6.47265e-06
6.73368e-05
7.99976e-06
6.7044e-05
1.00528e-05
6.66457e-05
1.26052e-05
6.6198e-05
1.56521e-05
6.56254e-05
1.93425e-05
6.49142e-05
2.4015e-05
6.40235e-05
3.01537e-05
6.29149e-05
3.89325e-05
6.14562e-05
5.04892e-05
5.95676e-05
6.86681e-05
5.69094e-05
9.61722e-05
5.34786e-05
0.000139863
4.85183e-05
0.000203381
4.1923e-05
0.000329085
2.98888e-05
0.000457038
0.000793954
6.81685e-05
7.13202e-07
6.81139e-05
1.92899e-06
6.80286e-05
2.97687e-06
6.79125e-05
4.06467e-06
6.77617e-05
5.27081e-06
6.75719e-05
6.66257e-06
6.73371e-05
8.23446e-06
6.70441e-05
1.03461e-05
6.66453e-05
1.30036e-05
6.61988e-05
1.60986e-05
6.5626e-05
1.99153e-05
6.49151e-05
2.47259e-05
6.40254e-05
3.10413e-05
6.29191e-05
4.00417e-05
6.14656e-05
5.19435e-05
5.95875e-05
7.05465e-05
5.69461e-05
9.88136e-05
5.35461e-05
0.000143264
4.86456e-05
0.000208282
4.23301e-05
0.000335401
3.04764e-05
0.000468892
0.00082443
6.81685e-05
7.3355e-07
6.8114e-05
1.98376e-06
6.80287e-05
3.06185e-06
6.79126e-05
4.18058e-06
6.77618e-05
5.42106e-06
6.7572e-05
6.85238e-06
6.73374e-05
8.46901e-06
6.70438e-05
1.064e-05
6.66452e-05
1.34018e-05
6.61995e-05
1.65443e-05
6.56266e-05
2.04883e-05
6.4916e-05
2.54365e-05
6.40274e-05
3.19319e-05
6.29234e-05
4.11432e-05
6.14754e-05
5.33907e-05
5.96084e-05
7.24131e-05
5.69853e-05
0.000101437
5.36168e-05
0.000146632
4.87758e-05
0.000213122
4.27493e-05
0.000341427
3.10846e-05
0.000480556
0.000855515
6.81685e-05
7.53907e-07
6.81139e-05
2.03869e-06
6.80287e-05
3.147e-06
6.79126e-05
4.29657e-06
6.77619e-05
5.57131e-06
6.7572e-05
7.04232e-06
6.73378e-05
8.70315e-06
6.70402e-05
1.0938e-05
6.66473e-05
1.37944e-05
6.62003e-05
1.69913e-05
6.56272e-05
2.10613e-05
6.4917e-05
2.61467e-05
6.40294e-05
3.28174e-05
6.2928e-05
4.22475e-05
6.14857e-05
5.48339e-05
5.96304e-05
7.42687e-05
5.70268e-05
0.00010404
5.36908e-05
0.000149968
4.89095e-05
0.000217904
4.31806e-05
0.000347156
3.17138e-05
0.000492023
0.000887229
6.81685e-05
7.74251e-07
6.8114e-05
2.09342e-06
6.80287e-05
3.23196e-06
6.79127e-05
4.41244e-06
6.7762e-05
5.72146e-06
6.75721e-05
7.23225e-06
6.73384e-05
8.93672e-06
6.70278e-05
1.12489e-05
6.66551e-05
1.4167e-05
6.6201e-05
1.74454e-05
6.56279e-05
2.16344e-05
6.49181e-05
2.68567e-05
6.40315e-05
3.37059e-05
6.29327e-05
4.33438e-05
6.14963e-05
5.62694e-05
5.96534e-05
7.61112e-05
5.70707e-05
0.000106623
5.37684e-05
0.00015327
4.90471e-05
0.000222625
4.36246e-05
0.000352578
3.23645e-05
0.000503283
0.000919594
6.81685e-05
7.94602e-07
6.8114e-05
2.14833e-06
6.80287e-05
3.3171e-06
6.79127e-05
4.52842e-06
6.77621e-05
5.8716e-06
6.75721e-05
7.42235e-06
6.73389e-05
9.16972e-06
6.70203e-05
1.15678e-05
6.66595e-05
1.45278e-05
6.62017e-05
1.79032e-05
6.56286e-05
2.22075e-05
6.49191e-05
2.75661e-05
6.40337e-05
3.45891e-05
6.29375e-05
4.44429e-05
6.15073e-05
5.77006e-05
5.96774e-05
7.79415e-05
5.71167e-05
0.000109184
5.38498e-05
0.000156537
4.91889e-05
0.000227286
4.40816e-05
0.000357686
3.30374e-05
0.000514327
0.000952631
6.81685e-05
8.1494e-07
6.8114e-05
2.20303e-06
6.80288e-05
3.40204e-06
6.79128e-05
4.64427e-06
6.77622e-05
6.02166e-06
6.75722e-05
7.61228e-06
6.73392e-05
9.40269e-06
6.70179e-05
1.18893e-05
6.66606e-05
1.48852e-05
6.62024e-05
1.83615e-05
6.56293e-05
2.27805e-05
6.49202e-05
2.82753e-05
6.40359e-05
3.54755e-05
6.29425e-05
4.55336e-05
6.15186e-05
5.91235e-05
5.97021e-05
7.97575e-05
5.71649e-05
0.000111721
5.39355e-05
0.000159767
4.9335e-05
0.000231887
4.45517e-05
0.000362469
3.3733e-05
0.000525146
0.000986364
6.81685e-05
8.35288e-07
6.8114e-05
2.2579e-06
6.80287e-05
3.48716e-06
6.79128e-05
4.76019e-06
6.77622e-05
6.17177e-06
6.75724e-05
7.8021e-06
6.73375e-05
9.63751e-06
6.70172e-05
1.22098e-05
6.66608e-05
1.52415e-05
6.6203e-05
1.88193e-05
6.56301e-05
2.33534e-05
6.49213e-05
2.8984e-05
6.40381e-05
3.6356e-05
6.29476e-05
4.66275e-05
6.15302e-05
6.05422e-05
5.97277e-05
8.15604e-05
5.72149e-05
0.000114234
5.40256e-05
0.000162956
4.94852e-05
0.000236427
4.50333e-05
0.000366921
3.44506e-05
0.000535729
0.00102081
6.81685e-05
8.55623e-07
6.8114e-05
2.31258e-06
6.80288e-05
3.57212e-06
6.79129e-05
4.87593e-06
6.7762e-05
6.3221e-06
6.75736e-05
7.99054e-06
6.73241e-05
9.88688e-06
6.70201e-05
1.25139e-05
6.66608e-05
1.56008e-05
6.62035e-05
1.92766e-05
6.56307e-05
2.39262e-05
6.49224e-05
2.96925e-05
6.40404e-05
3.72403e-05
6.29527e-05
4.77121e-05
6.1542e-05
6.19517e-05
5.9754e-05
8.3348e-05
5.72667e-05
0.000116721
5.41206e-05
0.000166102
4.9639e-05
0.000240908
4.55221e-05
0.000371038
3.51871e-05
0.000546064
0.001056
6.81685e-05
8.75965e-07
6.8114e-05
2.36741e-06
6.80287e-05
3.65727e-06
6.79129e-05
4.9917e-06
6.77619e-05
6.47271e-06
6.75745e-05
8.17801e-06
6.73149e-05
1.01463e-05
6.70222e-05
1.28067e-05
6.66608e-05
1.59622e-05
6.62039e-05
1.97335e-05
6.56314e-05
2.44987e-05
6.49235e-05
3.04004e-05
6.40426e-05
3.81184e-05
6.29579e-05
4.88001e-05
6.15541e-05
6.33568e-05
5.97809e-05
8.51217e-05
5.73199e-05
0.000119182
5.42208e-05
0.000169201
4.97963e-05
0.000245333
4.60085e-05
0.000374825
3.59349e-05
0.000556137
0.00109194
6.81684e-05
8.9624e-07
6.8114e-05
2.42202e-06
6.80288e-05
3.7422e-06
6.79131e-05
5.10729e-06
6.77619e-05
6.62323e-06
6.75749e-05
8.36504e-06
6.73123e-05
1.04088e-05
6.70222e-05
1.30968e-05
6.66607e-05
1.63236e-05
6.62043e-05
2.019e-05
6.5632e-05
2.50709e-05
6.49245e-05
3.11079e-05
6.40449e-05
3.90004e-05
6.29632e-05
4.98789e-05
6.15664e-05
6.47524e-05
5.98083e-05
8.68794e-05
5.73742e-05
0.000121616
5.43273e-05
0.000172248
4.9956e-05
0.000249704
4.64896e-05
0.000378292
3.67734e-05
0.000565854
0.00112871
3.34556e-07
-3.34616e-07
-2.02881e-06
2.36336e-06
-2.95908e-06
9.30249e-07
-2.94652e-06
-1.25701e-08
-2.37949e-06
-5.67214e-07
-1.76582e-06
-6.13727e-07
-1.46952e-06
-2.96381e-07
-1.4291e-06
-4.03631e-08
-1.47554e-06
4.63494e-08
-1.53019e-06
5.46719e-08
-1.60375e-06
7.23327e-08
-1.43062e-06
-1.63315e-07
-1.091e-06
-3.3552e-07
-7.00343e-07
-3.96665e-07
-7.50953e-08
-6.33921e-07
1.19319e-06
-1.27284e-06
3.25348e-06
-2.05576e-06
5.96585e-06
-2.70992e-06
9.03575e-06
-3.0604e-06
1.22366e-05
-3.20757e-06
1.5519e-05
-3.28549e-06
1.88749e-05
-3.35368e-06
2.22115e-05
-3.33707e-06
2.5443e-05
-3.23134e-06
2.85513e-05
-3.10868e-06
3.15438e-05
-2.99351e-06
3.44234e-05
-2.88052e-06
3.7211e-05
-2.78615e-06
4.00148e-05
-2.79874e-06
4.27417e-05
-2.72827e-06
4.45275e-05
-1.78589e-06
4.89602e-05
-4.43371e-06
5.9577e-05
-1.06172e-05
6.71598e-05
-7.58316e-06
-7.83246e-07
3.71389e-07
-7.06121e-07
-1.99058e-06
4.7253e-06
-2.90837e-06
1.848e-06
-2.90157e-06
-1.93931e-08
-2.33079e-06
-1.13831e-06
-1.72862e-06
-1.21602e-06
-1.43117e-06
-5.93953e-07
-1.39799e-06
-7.34415e-08
-1.4535e-06
1.01748e-07
-1.52904e-06
1.30343e-07
-1.61837e-06
1.60006e-07
-1.43177e-06
-3.31809e-07
-1.03054e-06
-7.28712e-07
-5.88992e-07
-8.50134e-07
-2.86161e-09
-1.23746e-06
1.14909e-06
-2.43415e-06
3.13726e-06
-4.03475e-06
5.88022e-06
-5.44784e-06
9.02845e-06
-6.19016e-06
1.22759e-05
-6.46803e-06
1.55593e-05
-6.57487e-06
1.88776e-05
-6.66782e-06
2.21817e-05
-6.64223e-06
2.54031e-05
-6.45239e-06
2.85151e-05
-6.22123e-06
3.15142e-05
-5.9946e-06
3.44003e-05
-5.76839e-06
3.719e-05
-5.57307e-06
3.99852e-05
-5.58441e-06
4.27195e-05
-5.46514e-06
4.45333e-05
-3.59993e-06
4.87214e-05
-8.62367e-06
5.92362e-05
-2.11329e-05
6.70895e-05
-1.54371e-05
-1.64629e-06
4.11294e-07
-1.11752e-06
-1.9457e-06
7.08227e-06
-2.85125e-06
2.75351e-06
-2.83333e-06
-3.73373e-08
-2.26371e-06
-1.70824e-06
-1.66938e-06
-1.81046e-06
-1.37881e-06
-8.84654e-07
-1.35372e-06
-9.84524e-08
-1.42282e-06
1.70713e-07
-1.51945e-06
2.26967e-07
-1.62175e-06
2.61319e-07
-1.40117e-06
-5.34628e-07
-9.24133e-07
-1.19772e-06
-4.55267e-07
-1.33099e-06
4.98473e-08
-1.75996e-06
1.0826e-06
-3.4766e-06
3.026e-06
-5.96836e-06
5.82095e-06
-8.23743e-06
9.05236e-06
-9.40144e-06
1.23499e-05
-9.7792e-06
1.56317e-05
-9.86257e-06
1.8917e-05
-9.94886e-06
2.21896e-05
-9.91577e-06
2.53992e-05
-9.6617e-06
2.85131e-05
-9.33577e-06
3.15167e-05
-9.0001e-06
3.44076e-05
-8.66107e-06
3.71982e-05
-8.36095e-06
3.99849e-05
-8.3614e-06
4.27215e-05
-8.20435e-06
4.45613e-05
-5.44e-06
4.8526e-05
-1.25903e-05
5.89337e-05
-3.15414e-05
6.70225e-05
-2.35265e-05
-2.58463e-06
4.56548e-07
-1.57419e-06
-1.89618e-06
9.43497e-06
-2.78305e-06
3.64034e-06
-2.74582e-06
-7.45821e-08
-2.17509e-06
-2.27927e-06
-1.59136e-06
-2.3943e-06
-1.31064e-06
-1.16549e-06
-1.29416e-06
-1.14828e-07
-1.37571e-06
2.52189e-07
-1.49389e-06
3.45336e-07
-1.60828e-06
3.75533e-07
-1.35008e-06
-7.73806e-07
-7.9678e-07
-1.74181e-06
-3.06103e-07
-1.83569e-06
1.11791e-07
-2.19842e-06
1.02019e-06
-4.39718e-06
2.91721e-06
-7.8529e-06
5.77242e-06
-1.10855e-05
9.10125e-06
-1.27058e-05
1.246e-05
-1.31542e-05
1.5746e-05
-1.31553e-05
1.89992e-05
-1.31975e-05
2.22391e-05
-1.31567e-05
2.54344e-05
-1.28567e-05
2.85478e-05
-1.24498e-05
3.1554e-05
-1.20085e-05
3.44481e-05
-1.15571e-05
3.72386e-05
-1.11483e-05
4.00147e-05
-1.11274e-05
4.27486e-05
-1.0941e-05
4.46123e-05
-7.30404e-06
4.83751e-05
-1.63551e-05
5.86683e-05
-4.18354e-05
6.69582e-05
-3.1817e-05
-3.59429e-06
5.07182e-07
-2.08147e-06
-1.84182e-06
1.17839e-05
-2.70282e-06
4.50131e-06
-2.63893e-06
-1.38501e-07
-2.0656e-06
-2.85289e-06
-1.49548e-06
-2.96453e-06
-1.22731e-06
-1.43378e-06
-1.21938e-06
-1.22685e-07
-1.31227e-06
3.44953e-07
-1.45149e-06
4.84491e-07
-1.57591e-06
5.01152e-07
-1.27666e-06
-1.05574e-06
-6.46987e-07
-2.36258e-06
-1.39006e-07
-2.35742e-06
1.86999e-07
-2.54361e-06
9.66145e-07
-5.18858e-06
2.81346e-06
-9.68684e-06
5.73844e-06
-1.40025e-05
9.18391e-06
-1.61219e-05
1.26176e-05
-1.66068e-05
1.59124e-05
-1.64571e-05
1.91331e-05
-1.64131e-05
2.23374e-05
-1.63621e-05
2.55147e-05
-1.60336e-05
2.86246e-05
-1.55605e-05
3.16313e-05
-1.50175e-05
3.45268e-05
-1.44546e-05
3.73152e-05
-1.39334e-05
4.0078e-05
-1.38795e-05
4.28034e-05
-1.36694e-05
4.46886e-05
-9.18953e-06
4.82681e-05
-1.99367e-05
5.84382e-05
-5.20063e-05
6.68963e-05
-4.02756e-05
-4.67165e-06
5.6317e-07
-2.64476e-06
-1.78229e-06
1.41294e-05
-2.6093e-06
5.32827e-06
-2.51191e-06
-2.35914e-07
-1.93513e-06
-3.42996e-06
-1.38179e-06
-3.51799e-06
-1.12857e-06
-1.68709e-06
-1.12877e-06
-1.22368e-07
-1.23207e-06
4.48209e-07
-1.39107e-06
6.43731e-07
-1.52255e-06
6.34542e-07
-1.1801e-06
-1.37858e-06
-4.76e-07
-3.05618e-06
4.57442e-08
-2.89537e-06
2.79725e-07
-2.80055e-06
9.29676e-07
-5.85365e-06
2.72612e-06
-1.14662e-05
5.73122e-06
-1.69964e-05
9.31682e-06
-1.96696e-05
1.28412e-05
-2.01553e-05
1.61476e-05
-1.97725e-05
1.93319e-05
-1.95915e-05
2.24953e-05
-1.95268e-05
2.56493e-05
-1.91872e-05
2.87521e-05
-1.8664e-05
3.1757e-05
-1.80252e-05
3.46514e-05
-1.73514e-05
3.74349e-05
-1.67131e-05
4.01801e-05
-1.66129e-05
4.289e-05
-1.63826e-05
4.47934e-05
-1.10933e-05
4.82049e-05
-2.33504e-05
5.82411e-05
-6.20434e-05
6.68366e-05
-4.88718e-05
-5.81321e-06
6.2437e-07
-3.26922e-06
-1.71709e-06
1.64708e-05
-2.50067e-06
6.11179e-06
-2.36303e-06
-3.73585e-07
-1.7826e-06
-4.01066e-06
-1.24934e-06
-4.05135e-06
-1.01326e-06
-1.92329e-06
-1.02093e-06
-1.14622e-07
-1.13381e-06
5.60956e-07
-1.31092e-06
8.20761e-07
-1.44614e-06
7.73332e-07
-1.05984e-06
-1.74792e-06
-2.84539e-07
-3.82153e-06
2.49621e-07
-3.44537e-06
3.96022e-07
-2.96751e-06
9.22816e-07
-6.39477e-06
2.67328e-06
-1.31998e-05
5.77224e-06
-2.00834e-05
9.52701e-06
-2.3378e-05
1.31614e-05
-2.382e-05
1.64788e-05
-2.31001e-05
1.96169e-05
-2.27227e-05
2.27295e-05
-2.26406e-05
2.58524e-05
-2.23096e-05
2.8943e-05
-2.17555e-05
3.19433e-05
-2.10285e-05
3.48338e-05
-2.02444e-05
3.76082e-05
-1.94832e-05
4.03294e-05
-1.93212e-05
4.30144e-05
-1.90713e-05
4.49314e-05
-1.30106e-05
4.8186e-05
-2.66075e-05
5.80752e-05
-7.19333e-05
6.6779e-05
-5.75762e-05
-7.01567e-06
6.90465e-07
-3.95981e-06
-1.64554e-06
1.88068e-05
-2.37468e-06
6.84087e-06
-2.18989e-06
-5.58401e-07
-1.60648e-06
-4.59435e-06
-1.09656e-06
-4.5614e-06
-8.79542e-07
-2.1404e-06
-8.93771e-07
-1.00267e-07
-1.01524e-06
6.82405e-07
-1.20841e-06
1.01425e-06
-1.34384e-06
9.13015e-07
-9.14003e-07
-2.15732e-06
-7.01505e-08
-4.65324e-06
4.7817e-07
-4.01311e-06
5.44242e-07
-3.05932e-06
9.58235e-07
-6.82654e-06
2.67593e-06
-1.48961e-05
5.8913e-06
-2.32826e-05
9.85503e-06
-2.72822e-05
1.36267e-05
-2.76311e-05
1.69506e-05
-2.64378e-05
2.00222e-05
-2.57856e-05
2.30656e-05
-2.56857e-05