/*--------------------------------*- C++ -*----------------------------------*\
| =========                 |                                                 |
| \\      /  F ield         | OpenFOAM: The Open Source CFD Toolbox           |
|  \\    /   O peration     | Version:  v1912                                 |
|   \\  /    A nd           | Website:  www.openfoam.com                      |
|    \\/     M anipulation  |                                                 |
\*---------------------------------------------------------------------------*/
FoamFile
{
    version     2.0;
    format      ascii;
    class       volVectorField;
    location    "510";
    object      U;
}
// * * * * * * * * * * * * * * * * * * * * * * * * * * * * * * * * * * * * * //

dimensions      [0 1 -1 0 0 0 0];


internalField   nonuniform List<vector> 
12441
(
(29.9988 1.71044e-05 0)
(29.9854 5.20436e-05 0)
(29.9558 9.06053e-05 0)
(29.9111 0.000139147 0)
(29.8525 0.000202774 0)
(29.7779 0.000287927 0)
(29.6854 0.000399504 0)
(29.5701 0.000564974 0)
(29.4259 0.000781476 0)
(29.2493 0.00109576 0)
(29.0293 0.00152992 0)
(28.7448 0.00208097 0)
(28.4355 0.00296153 0)
(27.9525 0.00458388 0)
(27.4132 0.00622111 0)
(26.6332 0.0112048 0)
(25.5864 0.015089 0)
(23.9164 0.0315976 0)
(21.5602 0.0529952 0)
(17.8643 0.091354 0)
(12.0821 0.12201 0)
(5.79456 0.196085 0)
(29.9988 5.08214e-05 0)
(29.9853 0.000155424 0)
(29.9558 0.000270208 0)
(29.9111 0.000414966 0)
(29.8525 0.000605081 0)
(29.7779 0.000859271 0)
(29.6854 0.00119383 0)
(29.5701 0.00169011 0)
(29.4257 0.00233613 0)
(29.2491 0.00327642 0)
(29.0304 0.00458498 0)
(28.744 0.00621526 0)
(28.4345 0.00887994 0)
(27.9544 0.0136844 0)
(27.4184 0.0187268 0)
(26.637 0.0333172 0)
(25.5926 0.0479353 0)
(23.919 0.0907001 0)
(21.5605 0.138438 0)
(17.8621 0.264337 0)
(12.0827 0.358473 0)
(5.79832 0.585641 0)
(29.9988 8.43831e-05 0)
(29.9853 0.000258671 0)
(29.9558 0.000449013 0)
(29.9111 0.000689698 0)
(29.8525 0.00100623 0)
(29.7779 0.00143002 0)
(29.6854 0.00198683 0)
(29.5701 0.00281316 0)
(29.4257 0.00389206 0)
(29.2492 0.00545368 0)
(29.0304 0.0076288 0)
(28.7434 0.0103686 0)
(28.4375 0.0148049 0)
(27.9492 0.022735 0)
(27.4133 0.0313058 0)
(26.6337 0.0545909 0)
(25.5931 0.0814121 0)
(23.9234 0.148054 0)
(21.5641 0.221426 0)
(17.8621 0.434991 0)
(12.0888 0.591448 0)
(5.80661 0.973262 0)
(29.9988 0.000118373 0)
(29.9853 0.000362677 0)
(29.9558 0.00062875 0)
(29.9111 0.00096575 0)
(29.8525 0.00140909 0)
(29.7779 0.0020027 0)
(29.6854 0.00278236 0)
(29.5702 0.00393988 0)
(29.4257 0.00545084 0)
(29.2492 0.00763607 0)
(29.0305 0.0106838 0)
(28.7439 0.014525 0)
(28.4344 0.0207236 0)
(27.9559 0.0318367 0)
(27.4191 0.0439089 0)
(26.6373 0.0759089 0)
(25.5966 0.114147 0)
(23.9287 0.208381 0)
(21.573 0.329143 0)
(17.8669 0.613683 0)
(12.1012 0.828387 0)
(5.81962 1.36253 0)
(29.9988 0.000152427 0)
(29.9853 0.00046658 0)
(29.9558 0.0008083 0)
(29.9111 0.00124156 0)
(29.8525 0.00181158 0)
(29.7779 0.00257481 0)
(29.6854 0.00357723 0)
(29.5702 0.00506562 0)
(29.4258 0.00700868 0)
(29.2493 0.00981756 0)
(29.0304 0.0137366 0)
(28.7437 0.0186771 0)
(28.4382 0.0266402 0)
(27.9501 0.0409281 0)
(27.4147 0.0565157 0)
(26.6357 0.0969905 0)
(25.598 0.146402 0)
(23.9331 0.269471 0)
(21.584 0.419693 0)
(17.8775 0.788563 0)
(12.1214 1.06512 0)
(5.83763 1.75309 0)
(29.9988 0.000186483 0)
(29.9853 0.000570411 0)
(29.9559 0.000987824 0)
(29.9111 0.00151739 0)
(29.8525 0.00221406 0)
(29.778 0.00314696 0)
(29.6855 0.00437223 0)
(29.5702 0.00619154 0)
(29.4258 0.00856684 0)
(29.2493 0.0119988 0)
(29.0306 0.0167904 0)
(28.7442 0.0228343 0)
(28.4339 0.0325486 0)
(27.9577 0.0500213 0)
(27.4206 0.0691346 0)
(26.6391 0.117969 0)
(25.6017 0.178391 0)
(23.9378 0.330023 0)
(21.5969 0.508687 0)
(17.8947 0.962129 0)
(12.151 1.30155 0)
(5.86108 2.14474 0)
(29.9988 0.000220538 0)
(29.9853 0.000674218 0)
(29.9559 0.00116735 0)
(29.9111 0.00179323 0)
(29.8525 0.00261653 0)
(29.778 0.0037191 0)
(29.6855 0.00516724 0)
(29.5702 0.00731737 0)
(29.4258 0.010125 0)
(29.2494 0.0141808 0)
(29.0305 0.0198426 0)
(28.7443 0.0269874 0)
(28.439 0.0384678 0)
(27.9506 0.0590792 0)
(27.4164 0.0817185 0)
(26.6384 0.1388 0)
(25.6037 0.209693 0)
(23.9416 0.38802 0)
(21.6144 0.599807 0)
(17.9221 1.13579 0)
(12.1927 1.53809 0)
(5.89045 2.53781 0)
(29.9988 0.000254594 0)
(29.9853 0.000777995 0)
(29.9559 0.00134686 0)
(29.9112 0.00206906 0)
(29.8526 0.00301895 0)
(29.778 0.0042912 0)
(29.6855 0.00596224 0)
(29.5703 0.00844315 0)
(29.4259 0.0116832 0)
(29.2493 0.0163619 0)
(29.0308 0.0228951 0)
(28.7447 0.0311455 0)
(28.4329 0.0443795 0)
(27.9591 0.0681441 0)
(27.4232 0.0941417 0)
(26.6415 0.159265 0)
(25.6086 0.242546 0)
(23.9473 0.447908 0)
(21.6461 0.691965 0)
(17.967 1.30895 0)
(12.2497 1.77496 0)
(5.92638 2.93277 0)
(29.9988 0.000288653 0)
(29.9853 0.000881748 0)
(29.9559 0.00152636 0)
(29.9112 0.0023449 0)
(29.8526 0.00342135 0)
(29.778 0.00486328 0)
(29.6855 0.00675724 0)
(29.5703 0.00956885 0)
(29.426 0.0132413 0)
(29.2495 0.0185438 0)
(29.0305 0.0259456 0)
(28.7451 0.0353014 0)
(28.4401 0.0502978 0)
(27.9518 0.0772681 0)
(27.4178 0.106635 0)
(26.6384 0.180111 0)
(25.6152 0.27382 0)
(23.959 0.507141 0)
(21.7052 0.783791 0)
(18.0379 1.48131 0)
(12.3257 2.01245 0)
(5.96951 3.33015 0)
(29.9988 0.000322714 0)
(29.9853 0.000985468 0)
(29.9559 0.00170585 0)
(29.9112 0.00262072 0)
(29.8526 0.0038237 0)
(29.778 0.00543531 0)
(29.6856 0.0075522 0)
(29.5703 0.0106945 0)
(29.426 0.0147995 0)
(29.2494 0.0207247 0)
(29.0311 0.0289945 0)
(28.7456 0.0394626 0)
(28.4307 0.0562245 0)
(27.9588 0.0862301 0)
(27.422 0.119815 0)
(26.6377 0.2013 0)
(25.6297 0.30572 0)
(23.9884 0.564445 0)
(21.7942 0.875357 0)
(18.138 1.65323 0)
(12.4234 2.25101 0)
(6.02055 3.73055 0)
(29.9988 0.000356776 0)
(29.9853 0.00108917 0)
(29.9559 0.00188534 0)
(29.9112 0.00289654 0)
(29.8526 0.00422602 0)
(29.778 0.00600734 0)
(29.6856 0.00834715 0)
(29.5704 0.01182 0)
(29.4261 0.0163578 0)
(29.2495 0.0229054 0)
(29.0309 0.0320418 0)
(28.7461 0.0436283 0)
(28.4386 0.0621842 0)
(27.9622 0.0950988 0)
(27.4214 0.13235 0)
(26.6372 0.221454 0)
(25.6495 0.33857 0)
(24.0357 0.620885 0)
(21.896 0.966734 0)
(18.2601 1.82471 0)
(12.5433 2.49103 0)
(6.08017 4.13462 0)
(29.9988 0.000390838 0)
(29.9853 0.00119284 0)
(29.9559 0.00206481 0)
(29.9112 0.00317235 0)
(29.8526 0.0046283 0)
(29.7781 0.0065793 0)
(29.6856 0.00914206 0)
(29.5704 0.0129454 0)
(29.4261 0.0179163 0)
(29.2495 0.0250845 0)
(29.0316 0.0350887 0)
(28.7474 0.047801 0)
(28.4272 0.0680402 0)
(27.9697 0.104199 0)
(27.421 0.14594 0)
(26.639 0.241861 0)
(25.6685 0.371015 0)
(24.0861 0.67542 0)
(21.9904 1.05708 0)
(18.3917 1.99519 0)
(12.6835 2.73267 0)
(6.14891 4.54302 0)
(29.9988 0.0004249 0)
(29.9853 0.00129648 0)
(29.9559 0.00224429 0)
(29.9112 0.00344815 0)
(29.8526 0.00503055 0)
(29.7781 0.00715126 0)
(29.6856 0.0099369 0)
(29.5705 0.0140706 0)
(29.4262 0.0194753 0)
(29.2495 0.0272611 0)
(29.0319 0.0381242 0)
(28.7483 0.052096 0)
(28.4277 0.0738002 0)
(27.9692 0.113366 0)
(27.4182 0.159692 0)
(26.6419 0.261731 0)
(25.6829 0.402769 0)
(24.1278 0.727892 0)
(22.0681 1.14599 0)
(18.5215 2.16401 0)
(12.8403 2.97577 0)
(6.22709 4.95637 0)
(29.9988 0.000458961 0)
(29.9853 0.00140009 0)
(29.9559 0.00242377 0)
(29.9112 0.00372394 0)
(29.8526 0.00543276 0)
(29.7781 0.00772315 0)
(29.6857 0.0107317 0)
(29.5705 0.0151957 0)
(29.4263 0.0210348 0)
(29.2494 0.0294378 0)
(29.0323 0.0411673 0)
(28.7508 0.0564571 0)
(28.4166 0.080009 0)
(27.9649 0.122518 0)
(27.4164 0.172896 0)
(26.6447 0.280946 0)
(25.6926 0.433918 0)
(24.1584 0.778778 0)
(22.1298 1.23346 0)
(18.6427 2.33071 0)
(13.0091 3.22002 0)
(6.31469 5.3752 0)
(29.9988 0.000493022 0)
(29.9853 0.00150369 0)
(29.9559 0.00260325 0)
(29.9112 0.00399973 0)
(29.8526 0.00583494 0)
(29.7781 0.00829503 0)
(29.6857 0.0115263 0)
(29.5706 0.0163206 0)
(29.4264 0.0225952 0)
(29.2494 0.0316102 0)
(29.0324 0.0442157 0)
(28.7539 0.0607744 0)
(28.4122 0.086265 0)
(27.9611 0.13138 0)
(27.4154 0.185897 0)
(26.6469 0.299942 0)
(25.6987 0.46476 0)
(24.18 0.828604 0)
(22.1789 1.31961 0)
(18.7526 2.49497 0)
(13.1859 3.46499 0)
(6.41147 5.79995 0)
(29.9988 0.00052708 0)
(29.9853 0.00160724 0)
(29.9559 0.00278273 0)
(29.9112 0.0042755 0)
(29.8526 0.00623707 0)
(29.7782 0.00886686 0)
(29.6857 0.0123209 0)
(29.5706 0.0174455 0)
(29.4265 0.0241552 0)
(29.2494 0.0337884 0)
(29.0322 0.0472524 0)
(28.757 0.0652379 0)
(28.407 0.092579 0)
(27.9591 0.140034 0)
(27.415 0.198783 0)
(26.6486 0.318882 0)
(25.7023 0.495444 0)
(24.1953 0.877723 0)
(22.2191 1.40454 0)
(18.8512 2.65663 0)
(13.3671 3.71025 0)
(6.51699 6.23095 0)
(29.9988 0.000561137 0)
(29.9853 0.00171078 0)
(29.9559 0.00296223 0)
(29.9112 0.00455127 0)
(29.8526 0.00663919 0)
(29.7782 0.00943867 0)
(29.6857 0.0131154 0)
(29.5707 0.0185701 0)
(29.4266 0.0257167 0)
(29.2492 0.0359623 0)
(29.0327 0.0503445 0)
(28.7575 0.0697724 0)
(28.4035 0.0987889 0)
(27.9579 0.148658 0)
(27.4148 0.211669 0)
(26.6499 0.337812 0)
(25.7043 0.526023 0)
(24.2063 0.926327 0)
(22.2532 1.48834 0)
(18.9395 2.81557 0)
(13.5503 3.95537 0)
(6.63071 6.66848 0)
(29.9988 0.000595191 0)
(29.9854 0.00181428 0)
(29.9559 0.00314172 0)
(29.9112 0.00482701 0)
(29.8527 0.00704125 0)
(29.7782 0.0100104 0)
(29.6858 0.0139098 0)
(29.5707 0.0196941 0)
(29.4267 0.02728 0)
(29.249 0.0381282 0)
(29.0335 0.0534581 0)
(28.755 0.0743557 0)
(28.4008 0.104952 0)
(27.9575 0.157249 0)
(27.4147 0.224559 0)
(26.6509 0.356743 0)
(25.7053 0.556526 0)
(24.2145 0.974523 0)
(22.2834 1.57108 0)
(19.0191 2.9717 0)
(13.7342 4.19999 0)
(6.75208 7.11275 0)
(29.9988 0.000629243 0)
(29.9854 0.00191776 0)
(29.9559 0.00332123 0)
(29.9112 0.00510275 0)
(29.8527 0.00744329 0)
(29.7782 0.0105821 0)
(29.6858 0.0147041 0)
(29.5708 0.0208179 0)
(29.4269 0.0288439 0)
(29.249 0.0403006 0)
(29.0344 0.0565685 0)
(28.7518 0.0787875 0)
(28.3992 0.111086 0)
(27.9573 0.165854 0)
(27.4146 0.237458 0)
(26.6518 0.375676 0)
(25.7056 0.586969 0)
(24.221 1.02237 0)
(22.3112 1.65282 0)
(19.0919 3.12499 0)
(13.9178 4.44377 0)
(6.88057 7.56395 0)
(29.9988 0.000663291 0)
(29.9854 0.00202121 0)
(29.9559 0.00350074 0)
(29.9112 0.00537846 0)
(29.8527 0.00784528 0)
(29.7782 0.0111537 0)
(29.6859 0.0154984 0)
(29.5708 0.0219414 0)
(29.427 0.0304097 0)
(29.249 0.0424801 0)
(29.0345 0.0597393 0)
(28.7491 0.0831117 0)
(28.3982 0.117221 0)
(27.9573 0.174458 0)
(27.4146 0.250358 0)
(26.6526 0.394615 0)
(25.7057 0.617363 0)
(24.2266 1.0699 0)
(22.3379 1.7336 0)
(19.1595 3.27541 0)
(14.1011 4.68643 0)
(7.01572 8.02224 0)
(29.9988 0.000697336 0)
(29.9854 0.00212463 0)
(29.9559 0.00368026 0)
(29.9112 0.00565417 0)
(29.8527 0.00824726 0)
(29.7783 0.0117252 0)
(29.6859 0.0162926 0)
(29.5709 0.0230642 0)
(29.4271 0.031975 0)
(29.2495 0.0446749 0)
(29.033 0.0629394 0)
(28.7471 0.0874144 0)
(28.3976 0.123349 0)
(27.9574 0.183073 0)
(27.4147 0.263257 0)
(26.6534 0.413561 0)
(25.7057 0.64772 0)
(24.232 1.11712 0)
(22.3644 1.81346 0)
(19.2233 3.42296 0)
(14.2843 4.92774 0)
(7.15716 8.48777 0)
(29.9988 0.000731377 0)
(29.9854 0.00222802 0)
(29.9559 0.00385979 0)
(29.9113 0.00592984 0)
(29.8527 0.00864916 0)
(29.7783 0.0122967 0)
(29.6859 0.0170866 0)
(29.571 0.0241874 0)
(29.4271 0.0335352 0)
(29.2502 0.0469299 0)
(29.0302 0.0661346 0)
(28.7457 0.0917177 0)
(28.3973 0.129483 0)
(27.9576 0.191686 0)
(27.4149 0.276153 0)
(26.6543 0.432514 0)
(25.7061 0.678049 0)
(24.2375 1.164 0)
(22.3912 1.89243 0)
(19.2847 3.56765 0)
(14.4681 5.16749 0)
(7.30462 8.96069 0)
(29.9988 0.000765415 0)
(29.9854 0.00233138 0)
(29.9559 0.00403933 0)
(29.9112 0.00620551 0)
(29.8527 0.00905104 0)
(29.7783 0.0128681 0)
(29.6859 0.0178805 0)
(29.5711 0.0253106 0)
(29.4272 0.0350918 0)
(29.251 0.0492335 0)
(29.0273 0.0693154 0)
(28.7448 0.0960368 0)
(28.3972 0.135614 0)
(27.9579 0.200302 0)
(27.4151 0.289045 0)
(26.6555 0.451473 0)
(25.7071 0.708352 0)
(24.2437 1.21052 0)
(22.4187 1.97052 0)
(19.3447 3.70946 0)
(14.6533 5.40551 0)
(7.45793 9.44117 0)
(29.9988 0.000799448 0)
(29.9854 0.00243471 0)
(29.9559 0.00421887 0)
(29.9113 0.00648115 0)
(29.8528 0.00945285 0)
(29.7784 0.0134395 0)
(29.686 0.0186742 0)
(29.5712 0.0264341 0)
(29.4272 0.0366436 0)
(29.2515 0.0515713 0)
(29.0253 0.072398 0)
(28.7442 0.100365 0)
(28.3971 0.141747 0)
(27.9583 0.208914 0)
(27.4156 0.301932 0)
(26.6569 0.470433 0)
(25.7088 0.738617 0)
(24.2506 1.25662 0)
(22.4471 2.04776 0)
(19.4042 3.8484 0)
(14.8409 5.64165 0)
(7.61702 9.92939 0)
(29.9988 0.000833478 0)
(29.9854 0.00253802 0)
(29.9559 0.00439842 0)
(29.9113 0.00675678 0)
(29.8528 0.00985463 0)
(29.7784 0.0140108 0)
(29.686 0.0194676 0)
(29.5712 0.0275577 0)
(29.4274 0.0381913 0)
(29.2517 0.0538929 0)
(29.0239 0.0754126 0)
(28.7438 0.104698 0)
(28.3972 0.147876 0)
(27.9587 0.217526 0)
(27.4161 0.314813 0)
(26.6586 0.489385 0)
(25.7115 0.768821 0)
(24.2584 1.30232 0)
(22.4764 2.12416 0)
(19.464 3.98442 0)
(15.0323 5.8758 0)
(7.78193 10.4255 0)
(29.9988 0.000867502 0)
(29.9854 0.00264129 0)
(29.9559 0.00457798 0)
(29.9113 0.00703238 0)
(29.8528 0.0102563 0)
(29.7784 0.014582 0)
(29.6861 0.0202611 0)
(29.5713 0.0286798 0)
(29.4276 0.039754 0)
(29.2514 0.0561952 0)
(29.0231 0.0784004 0)
(28.7436 0.109033 0)
(28.3974 0.154002 0)
(27.9592 0.226133 0)
(27.4169 0.327683 0)
(26.6608 0.508316 0)
(25.7153 0.798936 0)
(24.2672 1.34762 0)
(22.5067 2.19975 0)
(19.5247 4.11747 0)
(15.2285 6.10784 0)
(7.95276 10.9299 0)
(29.9988 0.000901523 0)
(29.9854 0.00274454 0)
(29.9559 0.00475754 0)
(29.9113 0.00730796 0)
(29.8528 0.0106581 0)
(29.7784 0.0151531 0)
(29.6861 0.0210545 0)
(29.5713 0.0298027 0)
(29.428 0.041326 0)
(29.2507 0.0585974 0)
(29.0225 0.0813977 0)
(28.7435 0.113367 0)
(28.3976 0.160124 0)
(27.9598 0.234737 0)
(27.4179 0.340538 0)
(26.6634 0.527212 0)
(25.7202 0.828948 0)
(24.2771 1.39253 0)
(22.5378 2.2745 0)
(19.5866 4.24747 0)
(15.4309 6.33769 0)
(8.12973 11.4426 0)
(29.9988 0.000935538 0)
(29.9854 0.00284775 0)
(29.9559 0.00493711 0)
(29.9113 0.0075835 0)
(29.8528 0.0110597 0)
(29.7785 0.0157241 0)
(29.6862 0.0218477 0)
(29.5713 0.0309244 0)
(29.4285 0.0429081 0)
(29.2495 0.0609677 0)
(29.0222 0.0844214 0)
(28.7435 0.117699 0)
(28.3978 0.166241 0)
(27.9605 0.243336 0)
(27.4191 0.353372 0)
(26.6666 0.546059 0)
(25.726 0.85885 0)
(24.2881 1.43706 0)
(22.5696 2.34844 0)
(19.65 4.3743 0)
(15.6407 6.56525 0)
(8.31308 11.9641 0)
(29.9988 0.000969549 0)
(29.9854 0.00295094 0)
(29.9559 0.00511669 0)
(29.9113 0.00785901 0)
(29.8528 0.0114613 0)
(29.7785 0.0162948 0)
(29.6863 0.0226417 0)
(29.5713 0.032041 0)
(29.429 0.0445465 0)
(29.2482 0.0631967 0)
(29.022 0.0874722 0)
(28.7435 0.12203 0)
(28.3982 0.172354 0)
(27.9612 0.251926 0)
(27.4205 0.366179 0)
(26.6701 0.564844 0)
(25.7328 0.888643 0)
(24.3002 1.48122 0)
(22.6023 2.42154 0)
(19.715 4.49783 0)
(15.8588 6.79043 0)
(8.50313 12.4946 0)
(29.9988 0.00100355 0)
(29.9854 0.00305409 0)
(29.956 0.00529627 0)
(29.9113 0.00813448 0)
(29.8529 0.0118629 0)
(29.7785 0.0168654 0)
(29.6864 0.0234356 0)
(29.5713 0.0331561 0)
(29.4295 0.0462102 0)
(29.2471 0.0654015 0)
(29.0219 0.0905423 0)
(28.7436 0.126358 0)
(28.3985 0.178462 0)
(27.962 0.260506 0)
(27.4221 0.378954 0)
(26.6741 0.583561 0)
(25.7405 0.918321 0)
(24.3137 1.52501 0)
(22.6357 2.4938 0)
(19.7815 4.61789 0)
(16.0861 7.01313 0)
(8.70022 13.0346 0)
(29.9988 0.00103756 0)
(29.9854 0.00315722 0)
(29.9559 0.00547585 0)
(29.9113 0.00840994 0)
(29.8529 0.0122645 0)
(29.7786 0.0174359 0)
(29.6864 0.0242295 0)
(29.5713 0.0342705 0)
(29.4298 0.0478856 0)
(29.2464 0.0675976 0)
(29.022 0.0936226 0)
(28.7437 0.130684 0)
(28.3989 0.184564 0)
(27.9628 0.269074 0)
(27.4239 0.391693 0)
(26.6785 0.602204 0)
(25.7491 0.947876 0)
(24.3284 1.56843 0)
(22.67 2.56521 0)
(19.8493 4.73433 0)
(16.323 7.23327 0)
(8.90471 13.5842 0)
(29.9988 0.00107155 0)
(29.9854 0.00326032 0)
(29.956 0.00565544 0)
(29.9114 0.00868534 0)
(29.8529 0.012666 0)
(29.7786 0.0180061 0)
(29.6865 0.0250235 0)
(29.5714 0.0353836 0)
(29.43 0.049572 0)
(29.2459 0.0697734 0)
(29.022 0.096708 0)
(28.7439 0.135008 0)
(28.3993 0.190661 0)
(27.9638 0.277628 0)
(27.426 0.404394 0)
(26.6833 0.620768 0)
(25.7584 0.977297 0)
(24.3444 1.61148 0)
(22.705 2.63579 0)
(19.9184 4.84697 0)
(16.5696 7.45071 0)
(9.11694 14.1441 0)
(29.9988 0.00110554 0)
(29.9854 0.00336339 0)
(29.956 0.00583502 0)
(29.9113 0.00896072 0)
(29.8529 0.0130674 0)
(29.7786 0.0185763 0)
(29.6866 0.0258172 0)
(29.5715 0.0364964 0)
(29.4301 0.0512654 0)
(29.2458 0.0719351 0)
(29.0222 0.0997963 0)
(28.7441 0.139329 0)
(28.3998 0.196752 0)
(27.9648 0.286167 0)
(27.4282 0.417055 0)
(26.6883 0.639246 0)
(25.7685 1.00657 0)
(24.3619 1.65417 0)
(22.741 2.70553 0)
(19.9886 4.95565 0)
(16.826 7.66535 0)
(9.33723 14.7144 0)
(29.9988 0.00113953 0)
(29.9854 0.00346642 0)
(29.956 0.00601461 0)
(29.9114 0.00923606 0)
(29.8529 0.0134688 0)
(29.7787 0.0191463 0)
(29.6866 0.0266102 0)
(29.5717 0.0376093 0)
(29.4301 0.0529634 0)
(29.2458 0.0740851 0)
(29.0223 0.102886 0)
(28.7443 0.143649 0)
(28.4003 0.202836 0)
(27.9658 0.29469 0)
(27.4305 0.429673 0)
(26.6937 0.657632 0)
(25.7793 1.03568 0)
(24.3807 1.69649 0)
(22.778 2.77444 0)
(20.0598 5.0602 0)
(17.0917 7.87705 0)
(9.56588 15.2957 0)
(29.9988 0.00117351 0)
(29.9854 0.00356944 0)
(29.956 0.00619419 0)
(29.9114 0.00951139 0)
(29.8529 0.0138701 0)
(29.7787 0.0197166 0)
(29.6866 0.0274029 0)
(29.5719 0.0387176 0)
(29.4299 0.0546635 0)
(29.246 0.0762269 0)
(29.0226 0.105978 0)
(28.7446 0.147966 0)
(28.4008 0.208914 0)
(27.967 0.303196 0)
(27.433 0.442246 0)
(26.6993 0.67592 0)
(25.7909 1.06462 0)
(24.401 1.73843 0)
(22.8162 2.84253 0)
(20.1322 5.16047 0)
(17.3667 8.08566 0)
(9.80313 15.8884 0)
(29.9988 0.00120749 0)
(29.9854 0.00367242 0)
(29.956 0.00637376 0)
(29.9114 0.00978662 0)
(29.853 0.0142714 0)
(29.7788 0.0202858 0)
(29.6867 0.0281988 0)
(29.5721 0.0398212 0)
(29.4296 0.056278 0)
(29.2462 0.0783617 0)
(29.0228 0.109071 0)
(28.7449 0.152282 0)
(28.4013 0.214985 0)
(27.9681 0.311683 0)
(27.4356 0.454773 0)
(26.7052 0.694103 0)
(25.8031 1.09337 0)
(24.4227 1.77999 0)
(22.8557 2.90979 0)
(20.2059 5.25633 0)
(17.6507 8.29104 0)
(10.0492 16.4927 0)
(29.9988 0.00124146 0)
(29.9854 0.00377539 0)
(29.956 0.00655333 0)
(29.9114 0.0100619 0)
(29.853 0.0146723 0)
(29.7788 0.020857 0)
(29.6867 0.0289841 0)
(29.5725 0.0409894 0)
(29.4288 0.0576387 0)
(29.2465 0.0804999 0)
(29.0231 0.112165 0)
(28.7452 0.156595 0)
(28.4019 0.221049 0)
(27.9693 0.320152 0)
(27.4383 0.467251 0)
(26.7113 0.712175 0)
(25.816 1.12191 0)
(24.4458 1.82116 0)
(22.8968 2.97622 0)
(20.2811 5.34763 0)
(17.9437 8.49304 0)
(10.3044 17.1093 0)
(29.9988 0.00127543 0)
(29.9854 0.00387831 0)
(29.956 0.00673287 0)
(29.9114 0.0103371 0)
(29.853 0.0150734 0)
(29.7789 0.0214261 0)
(29.6867 0.0297794 0)
(29.5731 0.0421092 0)
(29.4269 0.0595984 0)
(29.2468 0.0826688 0)
(29.0233 0.115259 0)
(28.7455 0.160907 0)
(28.4025 0.227106 0)
(27.9706 0.328601 0)
(27.4411 0.47968 0)
(26.7176 0.730131 0)
(25.8295 1.15023 0)
(24.4703 1.86192 0)
(22.9396 3.04184 0)
(20.358 5.43425 0)
(18.246 8.69151 0)
(10.5688 17.7384 0)
(29.9988 0.0013094 0)
(29.9854 0.00398122 0)
(29.956 0.00691243 0)
(29.9114 0.0106122 0)
(29.853 0.0154746 0)
(29.779 0.0219957 0)
(29.6866 0.0305662 0)
(29.5735 0.043293 0)
(29.4255 0.0614218 0)
(29.2471 0.0848634 0)
(29.0236 0.118353 0)
(28.7458 0.165216 0)
(28.403 0.233154 0)
(27.9719 0.337029 0)
(27.444 0.492056 0)
(26.7242 0.747963 0)
(25.8435 1.17831 0)
(24.4961 1.90226 0)
(22.9845 3.10661 0)
(20.4366 5.51604 0)
(18.5578 8.88628 0)
(10.8428 18.3805 0)
(29.9988 0.00134336 0)
(29.9854 0.00408409 0)
(29.956 0.0070919 0)
(29.9115 0.0108876 0)
(29.8531 0.0158743 0)
(29.779 0.0225712 0)
(29.6867 0.0313296 0)
(29.5736 0.044499 0)
(29.4249 0.0629388 0)
(29.2473 0.0870643 0)
(29.0239 0.121448 0)
(28.7462 0.169523 0)
(28.4036 0.239196 0)
(27.9732 0.345436 0)
(27.447 0.504379 0)
(26.7309 0.765667 0)
(25.8581 1.20615 0)
(24.5232 1.94215 0)
(23.0317 3.17056 0)
(20.5168 5.59288 0)
(18.8794 9.0772 0)
(11.1265 19.036 0)
(29.9988 0.00137732 0)
(29.9854 0.00418694 0)
(29.956 0.00727141 0)
(29.9114 0.0111625 0)
(29.8531 0.0162759 0)
(29.779 0.0231358 0)
(29.6869 0.0321639 0)
(29.5728 0.0453655 0)
(29.4245 0.0643981 0)
(29.2475 0.0892625 0)
(29.0242 0.124541 0)
(28.7465 0.173827 0)
(28.4043 0.245228 0)
(27.9745 0.353823 0)
(27.45 0.516647 0)
(26.7379 0.783238 0)
(25.8732 1.23372 0)
(24.5514 1.98157 0)
(23.0816 3.23367 0)
(20.5979 5.66463 0)
(19.21 9.26415 0)
(11.4202 19.7052 0)
(29.9988 0.00141127 0)
(29.9854 0.00428982 0)
(29.956 0.00745093 0)
(29.9115 0.0114376 0)
(29.8532 0.0166764 0)
(29.7788 0.0237068 0)
(29.6881 0.032967 0)
(29.5684 0.0467629 0)
(29.4242 0.0658893 0)
(29.2477 0.0914577 0)
(29.0245 0.127634 0)
(28.7468 0.17813 0)
(28.4049 0.251253 0)
(27.9758 0.362187 0)
(27.4531 0.528858 0)
(26.745 0.800671 0)
(25.8888 1.26102 0)
(24.5806 2.02049 0)
(23.1346 3.29595 0)
(20.6794 5.73119 0)
(19.5464 9.44711 0)
(11.724 20.3896 0)
(29.9988 0.00144505 0)
(29.9855 0.00439266 0)
(29.956 0.00763062 0)
(29.9114 0.0117125 0)
(29.8533 0.0170781 0)
(29.7786 0.0242727 0)
(29.689 0.0337951 0)
(29.5652 0.048201 0)
(29.424 0.0674143 0)
(29.2478 0.0936533 0)
(29.0247 0.130726 0)
(28.7472 0.182429 0)
(28.4055 0.257268 0)
(27.9771 0.37053 0)
(27.4562 0.54101 0)
(26.7523 0.817961 0)
(25.9047 1.28804 0)
(24.6108 2.05885 0)
(23.1912 3.35742 0)
(20.7604 5.79255 0)
(19.8817 9.62579 0)
(12.0377 21.0965 0)
(29.9988 0.00147836 0)
(29.9854 0.00449459 0)
(29.9561 0.00780929 0)
(29.9115 0.0119857 0)
(29.8533 0.0174784 0)
(29.7787 0.0248258 0)
(29.6892 0.0346819 0)
(29.5641 0.049341 0)
(29.4238 0.0689456 0)
(29.2479 0.0958462 0)
(29.0249 0.133818 0)
(28.7475 0.186725 0)
(28.4061 0.263274 0)
(27.9785 0.378854 0)
(27.4594 0.553103 0)
(26.7597 0.83511 0)
(25.9209 1.31476 0)
(24.6417 2.09658 0)
(23.2518 3.4181 0)
(20.8412 5.8488 0)
(20.2046 9.79814 0)
(12.4474 21.8471 0)
(0.787154 -0.00327253 0)
(-0.548597 0.0223736 0)
(-1.26354 0.00812608 0)
(-1.34721 -0.000123473 0)
(-1.23635 -0.0042232 0)
(-0.845448 -0.00422096 0)
(-0.700183 -0.00189 0)
(-0.590565 -0.000257673 0)
(-0.66922 0.000223974 0)
(-0.628486 0.000247094 0)
(-0.721513 0.000342464 0)
(-0.688748 -0.00059593 0)
(-0.563477 -0.00121093 0)
(-0.389167 -0.00147644 0)
(-0.222004 -0.00231648 0)
(0.169252 -0.00414237 0)
(0.911013 -0.00601168 0)
(1.99702 -0.0072796 0)
(3.30583 -0.00756698 0)
(4.70031 -0.00728691 0)
(6.12445 -0.00686817 0)
(7.5902 -0.00646271 0)
(9.07877 -0.0059323 0)
(10.5252 -0.00529806 0)
(11.92 -0.00470838 0)
(13.2584 -0.0041881 0)
(14.5517 -0.0037172 0)
(15.7902 -0.00331805 0)
(17.0038 -0.00307937 0)
(18.2594 -0.00276518 0)
(19.3986 -0.0016662 0)
(19.8018 -0.00392503 0)
(23.4268 -0.00851974 0)
(29.2322 -0.00550685 0)
(29.8949 -0.000519437 0)
(0.800879 -0.0104356 0)
(-0.531871 0.0669698 0)
(-1.24496 0.0242496 0)
(-1.32418 -0.000253121 0)
(-1.21552 -0.0126438 0)
(-0.826549 -0.0125611 0)
(-0.684046 -0.00564429 0)
(-0.574275 -0.000682255 0)
(-0.657247 0.000769785 0)
(-0.622501 0.000860418 0)
(-0.727362 0.00103183 0)
(-0.699039 -0.00211799 0)
(-0.552117 -0.00409002 0)
(-0.338949 -0.0044091 0)
(-0.170466 -0.0062825 0)
(0.171254 -0.0115974 0)
(0.862355 -0.0175375 0)
(1.94595 -0.0216018 0)
(3.28751 -0.0226034 0)
(4.71355 -0.0218253 0)
(6.14636 -0.0205422 0)
(7.60061 -0.0192938 0)
(9.07035 -0.0177228 0)
(10.5073 -0.0158548 0)
(11.9028 -0.0140875 0)
(13.2439 -0.0125287 0)
(14.5401 -0.0111385 0)
(15.7816 -0.00994892 0)
(16.9935 -0.0092198 0)
(18.244 -0.00831423 0)
(19.3949 -0.00503507 0)
(19.8113 -0.0113701 0)
(23.1972 -0.025369 0)
(29.1689 -0.0169366 0)
(29.8991 -0.00163046 0)
(0.81777 -0.0184031 0)
(-0.513489 0.111423 0)
(-1.22378 0.0401341 0)
(-1.29496 -0.000412531 0)
(-1.18446 -0.021144 0)
(-0.798717 -0.0207976 0)
(-0.659953 -0.00939869 0)
(-0.552286 -0.00103378 0)
(-0.640517 0.00143953 0)
(-0.612476 0.0017328 0)
(-0.729486 0.00191383 0)
(-0.700132 -0.00358531 0)
(-0.522625 -0.00740001 0)
(-0.272829 -0.007853 0)
(-0.119209 -0.0101479 0)
(0.163087 -0.0183606 0)
(0.809587 -0.0284401 0)
(1.90171 -0.0358165 0)
(3.28168 -0.0377322 0)
(4.74165 -0.0364213 0)
(6.18372 -0.0341348 0)
(7.6264 -0.0319089 0)
(9.07853 -0.0293568 0)
(10.5057 -0.0263646 0)
(11.901 -0.0234925 0)
(13.2441 -0.0209061 0)
(14.5422 -0.0185772 0)
(15.7859 -0.0165702 0)
(16.9962 -0.0153222 0)
(18.2407 -0.0138626 0)
(19.4003 -0.00845467 0)
(19.8311 -0.0184344 0)
(22.9966 -0.0421427 0)
(29.1089 -0.0286513 0)
(29.9027 -0.00285763 0)
(0.83794 -0.0272478 0)
(-0.493794 0.155851 0)
(-1.19974 0.055772 0)
(-1.2587 -0.000816465 0)
(-1.14336 -0.0296337 0)
(-0.761949 -0.0289008 0)
(-0.628366 -0.0130316 0)
(-0.523908 -0.00127255 0)
(-0.616705 0.00225573 0)
(-0.595046 0.00281014 0)
(-0.725028 0.00291387 0)
(-0.693059 -0.00546758 0)
(-0.483071 -0.0113788 0)
(-0.198235 -0.0114503 0)
(-0.062858 -0.0134129 0)
(0.157511 -0.0245174 0)
(0.757177 -0.0394135 0)
(1.85977 -0.0506701 0)
(3.28385 -0.0535331 0)
(4.78382 -0.0514003 0)
(6.23891 -0.0477761 0)
(7.67107 -0.0444264 0)
(9.10557 -0.0408976 0)
(10.5219 -0.0368429 0)
(11.9158 -0.0329004 0)
(13.2599 -0.0292913 0)
(14.5592 -0.0260288 0)
(15.8046 -0.0231973 0)
(17.013 -0.021408 0)
(18.25 -0.0194175 0)
(19.4151 -0.0119239 0)
(19.8619 -0.025114 0)
(22.8249 -0.0586734 0)
(29.0516 -0.0407398 0)
(29.9058 -0.00418415 0)
(0.861531 -0.0370673 0)
(-0.472932 0.200198 0)
(-1.17249 0.0710291 0)
(-1.21494 -0.00160042 0)
(-1.09265 -0.0381248 0)
(-0.716471 -0.0368205 0)
(-0.589829 -0.0165128 0)
(-0.489174 -0.00141265 0)
(-0.58582 0.00319901 0)
(-0.57032 0.00409755 0)
(-0.713032 0.00402469 0)
(-0.676874 -0.00768836 0)
(-0.432862 -0.0159752 0)
(-0.114651 -0.0152052 0)
(0.000123953 -0.0160648 0)
(0.157025 -0.0298844 0)
(0.706489 -0.0501578 0)
(1.82074 -0.0659695 0)
(3.29684 -0.0699254 0)
(4.84507 -0.0667327 0)
(6.31679 -0.0614473 0)
(7.73884 -0.0568163 0)
(9.15485 -0.0523173 0)
(10.5586 -0.0472691 0)
(11.9496 -0.0423055 0)
(13.2937 -0.0376859 0)
(14.5935 -0.0334906 0)
(15.8396 -0.0298236 0)
(17.0453 -0.0274683 0)
(18.273 -0.0249628 0)
(19.4404 -0.0154361 0)
(19.9045 -0.0314606 0)
(22.6808 -0.0750067 0)
(28.9968 -0.0531065 0)
(29.9084 -0.00560636 0)
(0.88858 -0.0479745 0)
(-0.450988 0.244474 0)
(-1.14161 0.0857673 0)
(-1.16297 -0.00287114 0)
(-1.03231 -0.0466574 0)
(-0.662218 -0.0445274 0)
(-0.544436 -0.0198176 0)
(-0.447782 -0.0014549 0)
(-0.547613 0.00425937 0)
(-0.538188 0.00558724 0)
(-0.692543 0.00522187 0)
(-0.650673 -0.0102662 0)
(-0.372259 -0.0211593 0)
(-0.0229705 -0.0190591 0)
(0.0703781 -0.018065 0)
(0.164988 -0.0343858 0)
(0.662574 -0.0605427 0)
(1.78932 -0.0816511 0)
(3.32678 -0.0869269 0)
(4.93385 -0.082455 0)
(6.42533 -0.0751527 0)
(7.83626 -0.069062 0)
(9.23163 -0.063598 0)
(10.6202 -0.0576269 0)
(12.0062 -0.0516948 0)
(13.3492 -0.0460802 0)
(14.6485 -0.0409546 0)
(15.8942 -0.0364418 0)
(17.0958 -0.0334935 0)
(18.312 -0.0304844 0)
(19.4776 -0.0189862 0)
(19.9603 -0.037504 0)
(22.5623 -0.0911415 0)
(28.9445 -0.0656958 0)
(29.9104 -0.00711861 0)
(0.918969 -0.0600796 0)
(-0.427987 0.288681 0)
(-1.10658 0.099837 0)
(-1.10174 -0.00473372 0)
(-0.96188 -0.055251 0)
(-0.598739 -0.0519861 0)
(-0.491792 -0.0229209 0)
(-0.399101 -0.00140539 0)
(-0.501476 0.00542756 0)
(-0.498111 0.00726582 0)
(-0.662566 0.0064804 0)
(-0.613645 -0.0132115 0)
(-0.301643 -0.026894 0)
(0.0766957 -0.0229927 0)
(0.14941 -0.0194568 0)
(0.185137 -0.0380755 0)
(0.632626 -0.0705697 0)
(1.77412 -0.0977364 0)
(3.384 -0.104628 0)
(5.06381 -0.0986516 0)
(6.57768 -0.0889014 0)
(7.9738 -0.0811334 0)
(9.34397 -0.0747102 0)
(10.7133 -0.0678938 0)
(12.0915 -0.0610549 0)
(13.4319 -0.0544664 0)
(14.7297 -0.0484139 0)
(15.9734 -0.0430434 0)
(17.1688 -0.0394713 0)
(18.3698 -0.0359663 0)
(19.5289 -0.0225669 0)
(20.0313 -0.0432683 0)
(22.4681 -0.107057 0)
(28.8944 -0.0784639 0)
(29.9118 -0.00871605 0)
(0.952377 -0.0734874 0)
(-0.40389 0.332804 0)
(-1.06681 0.113063 0)
(-1.02985 -0.00729776 0)
(-0.880665 -0.0639025 0)
(-0.525368 -0.0591515 0)
(-0.431162 -0.025796 0)
(-0.342244 -0.00127288 0)
(-0.446456 0.00669489 0)
(-0.449079 0.00911657 0)
(-0.621796 0.00776814 0)
(-0.564655 -0.0165226 0)
(-0.220484 -0.0331568 0)
(0.186206 -0.0270192 0)
(0.240364 -0.0203009 0)
(0.221431 -0.0410451 0)
(0.624009 -0.0803192 0)
(1.78647 -0.1143 0)
(3.48347 -0.123154 0)
(5.25597 -0.115435 0)
(6.79567 -0.102703 0)
(8.16867 -0.0929787 0)
(9.50452 -0.0856035 0)
(10.8477 -0.0780347 0)
(12.2137 -0.0703669 0)
(13.5496 -0.0628357 0)
(14.845 -0.0558602 0)
(16.0848 -0.0496159 0)
(17.2702 -0.0453836 0)
(18.451 -0.0413868 0)
(19.5971 -0.0261679 0)
(20.1201 -0.0487702 0)
(22.3976 -0.122725 0)
(28.8466 -0.0913703 0)
(29.9126 -0.0103941 0)
(0.988237 -0.0882933 0)
(-0.378597 0.376804 0)
(-1.02156 0.125239 0)
(-0.945865 -0.0106759 0)
(-0.788033 -0.0725922 0)
(-0.441468 -0.0659777 0)
(-0.361639 -0.0284192 0)
(-0.276161 -0.00106978 0)
(-0.381318 0.00804938 0)
(-0.389638 0.0111166 0)
(-0.568396 0.00905292 0)
(-0.501868 -0.0202 0)
(-0.126874 -0.0399408 0)
(0.309262 -0.0311745 0)
(0.347904 -0.0206518 0)
(0.278343 -0.0433778 0)
(0.6436 -0.0899211 0)
(1.83912 -0.131494 0)
(3.6445 -0.142702 0)
(5.53995 -0.132969 0)
(7.11428 -0.116569 0)
(8.4497 -0.104513 0)
(9.73364 -0.0961933 0)
(11.0381 -0.0879923 0)
(12.3847 -0.0796021 0)
(13.7131 -0.0711764 0)
(15.0053 -0.0632836 0)
(16.2391 -0.0561414 0)
(17.4092 -0.0512031 0)
(18.562 -0.0467151 0)
(19.6863 -0.0297743 0)
(20.2303 -0.0540192 0)
(22.3515 -0.138118 0)
(28.8014 -0.104373 0)
(29.9129 -0.012148 0)
(1.02571 -0.10458 0)
(-0.35194 0.420609 0)
(-0.969943 0.136134 0)
(-0.848532 -0.0149777 0)
(-0.683667 -0.0812847 0)
(-0.34666 -0.0724269 0)
(-0.282315 -0.0307751 0)
(-0.199739 -0.000813974 0)
(-0.30463 0.00947221 0)
(-0.317937 0.0132348 0)
(-0.499874 0.0102943 0)
(-0.422517 -0.0242405 0)
(-0.0175422 -0.047254 0)
(0.451082 -0.0355142 0)
(0.478025 -0.0205673 0)
(0.361403 -0.0451525 0)
(0.698721 -0.0995388 0)
(1.94646 -0.149567 0)
(3.88975 -0.163612 0)
(5.94985 -0.151531 0)
(7.58243 -0.13053 0)
(8.86315 -0.115601 0)
(10.0643 -0.106341 0)
(11.3072 -0.0976718 0)
(12.6216 -0.088713 0)
(13.9375 -0.0794724 0)
(15.2256 -0.0706745 0)
(16.4517 -0.0625957 0)
(17.5986 -0.0568895 0)
(18.7118 -0.0519067 0)
(19.8017 -0.0333637 0)
(20.3664 -0.0590187 0)
(22.3317 -0.153197 0)
(28.7589 -0.117429 0)
(29.9126 -0.0139728 0)
(1.06366 -0.12241 0)
(-0.323682 0.464106 0)