/*--------------------------------*- C++ -*----------------------------------*\
| =========                 |                                                 |
| \\      /  F ield         | OpenFOAM: The Open Source CFD Toolbox           |
|  \\    /   O peration     | Version:  v1912                                 |
|   \\  /    A nd           | Website:  www.openfoam.com                      |
|    \\/     M anipulation  |                                                 |
\*---------------------------------------------------------------------------*/
FoamFile
{
    version     2.0;
    format      ascii;
    class       volScalarField;
    location    "510";
    object      yPlus;
}
// * * * * * * * * * * * * * * * * * * * * * * * * * * * * * * * * * * * * * //

dimensions      [0 0 0 0 0 0 0];


internalField   uniform 0;

boundaryField
{
    inlet
    {
        type            calculated;
        value           uniform 0;
    }
    outlet
    {
        type            calculated;
        value           uniform 0;
    }
    lowerSymmetry
    {
        type            symmetryPlane;
    }
    obstical
    {
        type            calculated;
        value           nonuniform List<scalar> 
88
(
478.064
480.268
484.664
491.227
499.892
510.572
523.178
537.624
553.825
571.701
591.178
612.183
634.635
658.446
683.522
709.769
737.096
765.42
794.671
824.787
855.72
887.429
919.888
953.077
986.985
1021.61
1056.95
1093.03
1129.84
1167.42
1205.78
1244.95
1284.94
1325.77
1367.47
1410.07
1453.56
1498
1543.38
1589.74
1637.1
1685.53
1735.43
1790.74
80.2764
81.4757
82.9541
84.7213
86.7888
89.1596
91.823
94.7512
97.8963
101.188
104.535
107.82
110.91
113.656
115.899
117.485
118.273
118.15
117.037
114.904
111.769
107.7
102.811
97.2637
91.2771
85.1359
79.2125
73.9869
70.0456
68.0112
68.3722
71.2904
76.5595
83.7587
92.4524
102.314
113.172
125.007
138.013
152.561
169.052
187.802
209.097
233.755
)
;
    }
    obsticalTop
    {
        type            calculated;
        value           nonuniform List<scalar> 
20
(
53.4097
38.8365
47.1748
53.2512
56.0869
57.7138
58.3096
57.9932
57.0344
55.5642
53.5563
50.8986
47.4939
43.1508
37.839
30.9192
24.4955
14.9555
13.4378
11.3524
)
;
    }
    top
    {
        type            calculated;
        value           uniform 0;
    }
    defaultFaces
    {
        type            empty;
    }
}


// ************************************************************************* //
