/*--------------------------------*- C++ -*----------------------------------*\
| =========                 |                                                 |
| \\      /  F ield         | OpenFOAM: The Open Source CFD Toolbox           |
|  \\    /   O peration     | Version:  v1912                                 |
|   \\  /    A nd           | Website:  www.openfoam.com                      |
|    \\/     M anipulation  |                                                 |
\*---------------------------------------------------------------------------*/
FoamFile
{
    version     2.0;
    format      ascii;
    class       volScalarField;
    location    "600";
    object      alphat;
}
// * * * * * * * * * * * * * * * * * * * * * * * * * * * * * * * * * * * * * //

dimensions      [0 2 -1 0 0 0 0];


internalField   nonuniform List<scalar> 
4000
(
0.000441136
0.000412192
0.000369134
0.000213689
0.000141481
0.000130391
0.000121244
0.000118171
0.000138844
8.87676e-05
0.000151098
0.000113396
0.000111011
0.000117988
0.000130278
0.000148312
0.000292322
0.000384213
0.000421057
0.000447347
0.000468212
0.000439727
0.000389646
0.000327788
0.000284601
0.000177373
0.000159219
0.00015817
0.000162996
0.000135528
0.000179185
0.000155352
0.000152614
0.000154044
0.000185728
0.000284938
0.000337011
0.00039585
0.000443847
0.000472628
0.000485148
0.000463473
0.000420579
0.000372904
0.00033035
0.000282393
0.00022073
0.000169508
0.00017462
0.000182622
0.000184105
0.000174009
0.000168885
0.000235747
0.000284193
0.000327579
0.000369126
0.000420664
0.000465827
0.000488613
0.000495724
0.000480621
0.000444433
0.000397433
0.000346171
0.00030381
0.000258919
0.000214493
0.00017534
0.00019769
0.000195034
0.000175507
0.000225643
0.000269173
0.000309644
0.000350055
0.000398384
0.000445889
0.000482738
0.000498671
0.000503832
0.000496802
0.000473891
0.000438654
0.000393249
0.000345518
0.000304839
0.000262406
0.000219118
0.000194687
0.000195725
0.000226313
0.000272572
0.0003162
0.000357001
0.000401776
0.000443
0.000476313
0.00049898
0.00050649
0.000511182
0.000513236
0.000504588
0.000488943
0.000470767
0.000451553
0.000431259
0.000409046
0.000386729
0.000367996
0.000374677
0.000395994
0.000416538
0.000437641
0.000457145
0.000475528
0.000492541
0.000507425
0.000515797
0.000513658
0.000519186
0.000531102
0.000536206
0.000536166
0.000533489
0.000527811
0.00051909
0.00050701
0.000492102
0.000474029
0.000476136
0.000494584
0.000509785
0.00052202
0.000530895
0.000536598
0.000539139
0.000538998
0.00053377
0.000521512
0.000528496
0.000550451
0.000567237
0.000578433
0.000585754
0.000588563
0.000586862
0.000579905
0.000567205
0.000546618
0.000546966
0.000567006
0.000580421
0.00058799
0.00059024
0.00058786
0.000580856
0.000569825
0.000553074
0.000530654
0.000540317
0.000573753
0.000600861
0.000620924
0.000635764
0.000644706
0.000647944
0.000644498
0.000632754
0.000609088
0.000608262
0.000631041
0.000643812
0.000648174
0.000645675
0.00063731
0.000622948
0.000603193
0.000576181
0.000542282
0.000557356
0.000601431
0.000636737
0.000662678
0.000682663
0.000697166
0.000706374
0.000709378
0.000703905
0.000682709
0.000680874
0.000701417
0.000707908
0.000705818
0.000697366
0.0006835
0.000664053
0.000638525
0.000603438
0.000559058
0.000412255
0.00038739
0.00035034
0.000202245
0.000186465
0.000184615
0.000156051
0.000133369
9.69975e-05
0.000251916
9.01943e-05
0.000148948
0.000143682
0.000155911
0.000183907
0.000184384
0.00028147
0.000371041
0.000409977
0.000423212
0.0004398
0.000641975
0.000501768
0.000426889
0.000428059
0.000390588
0.000353148
0.000357673
0.000399969
0.000453128
0.000419715
0.000382045
0.000339566
0.000349909
0.00038013
0.00039874
0.000416093
0.000529183
0.000652426
0.000447608
0.000463545
0.000737426
0.000720523
0.000594016
0.00050994
0.000460547
0.000426156
0.000410412
0.000431753
0.000499565
0.000481515
0.000411769
0.000396479
0.000420773
0.000453033
0.000499783
0.000595774
0.000739739
0.000738723
0.000469529
0.00048068
0.000709417
0.000728882
0.00064411
0.000545353
0.000474336
0.000422343
0.000389417
0.000418077
0.000505723
0.000490001
0.000403575
0.000385791
0.000423054
0.000475538
0.000547589
0.000651167
0.000736953
0.000715722
0.000485812
0.000496843
0.00071489
0.000733517
0.000656484
0.000546733
0.00046699
0.000409079
0.000363983
0.000348594
0.000402362
0.000405874
0.000344366
0.000363903
0.000412221
0.000470603
0.000550648
0.000659261
0.000740045
0.00072243
0.000501198
0.000513253
0.00073603
0.000768813
0.00071992
0.000618308
0.000516266
0.000451383
0.000398392
0.00036265
0.000359142
0.000362409
0.00036437
0.000400078
0.000454151
0.000518835
0.000622651
0.000723412
0.00077479
0.000743561
0.000516898
0.000531101
0.000756382
0.000805232
0.000800912
0.00075749
0.000675901
0.000574747
0.000502318
0.000458158
0.000437499
0.000442181
0.000463557
0.000506436
0.00058161
0.00068289
0.000762968
0.000806278
0.000811468
0.000763801
0.000534003
0.000550438
0.00076814
0.00083283
0.000879789
0.000913101
0.000914808
0.000886438
0.000819175
0.000735025
0.000653118
0.000660419
0.000743705
0.000828134
0.000891921
0.000920811
0.000919632
0.000887088
0.00083939
0.000775277
0.000552777
0.000573737
0.00075412
0.000846911
0.000917393
0.00096799
0.00098571
0.000977775
0.000940316
0.00086589
0.000755144
0.000754841
0.000861149
0.000938747
0.000978543
0.0009883
0.000971774
0.000922708
0.000852659
0.000759764
0.000575661
0.00060141
0.000650854
0.000692105
0.000724081
0.000750088
0.000770179
0.000784145
0.000790472
0.000786343
0.000765811
0.000763139
0.000783268
0.000788429
0.000783058
0.0007699
0.000750494
0.000725067
0.000693502
0.000652417
0.000602613
0.00036927
0.00035041
0.000307191
0.000208793
0.000221552
0.000214646
0.000178029
0.000164069
0.000175093
0.000103758
0.000222561
0.000112815
0.000169491
0.000180227
0.000212651
0.000212646
0.000212513
0.000322643
0.000371728
0.000386712
0.000389744
0.000501818
0.000440505
0.00044387
0.000483125
0.000460268
0.000423175
0.000417387
0.000462253
0.000514139
0.000502593
0.00043412
0.000409165
0.000416826
0.000451144
0.000467481
0.000437317
0.000463876
0.000533206
0.000400883
0.000420672
0.000720682
0.000690438
0.000613935
0.000564811
0.000536579
0.000517605
0.000494787
0.000505197
0.00057782
0.000556843
0.000483663
0.00048358
0.000511954
0.000533479
0.000563307
0.000624304
0.000721309
0.000752502
0.000427255
0.00044454
0.000729026
0.000787881
0.000718435
0.00063226
0.000567604
0.000523334
0.000503572
0.00053118
0.00059047
0.000576162
0.000514344
0.000497542
0.00052456
0.000572098
0.000639893
0.00073179
0.000805262
0.000744354
0.000451894
0.000473962
0.000733669
0.000791952
0.000739139
0.000640725
0.000560797
0.000503147
0.000465861
0.000471437
0.000563202
0.000563374
0.000465616
0.000463965
0.000505437
0.000564357
0.000645165
0.000746273
0.000805587
0.000748804
0.00048033
0.000504622
0.000768941
0.000841878
0.000799723
0.000681239
0.000570857
0.000493885
0.000436283
0.00040187
0.000412649
0.000411462
0.000396999
0.000433502
0.000493689
0.00057175
0.000684352
0.000805624
0.000853905
0.000782738
0.00050967
0.00053621
0.000805337
0.000900616
0.00088881
0.000787355
0.000667237
0.00056434
0.000486399
0.000431597
0.000408783
0.000409704
0.000430266
0.00048428
0.000563623
0.000667844
0.000790247
0.000895747
0.00091285
0.000818585
0.000539785
0.000567224
0.000832908
0.00096711
0.00102399
0.0010062
0.000932218
0.000853623
0.000766609
0.000673972
0.000584199
0.000584025
0.000673701
0.000767278
0.000853811
0.000934028
0.00101006
0.00103229
0.000979736
0.000845364
0.00056977
0.000600841
0.000846955
0.00106391
0.00125065
0.00137217
0.00140895
0.00140224
0.00135242
0.00124079
0.00103745
0.00103657
0.00123109
0.00134804
0.0014011
0.00141061
0.00137607
0.00125912
0.00107433
0.000856475
0.000602807
0.00063671
0.000692096
0.000738662
0.000775971
0.000807195
0.0008321
0.000850176
0.00085941
0.000856543
0.000834597
0.000831117
0.000852901
0.000856825
0.00084854
0.000831292
0.000807108
0.000776519
0.000739649
0.000693265
0.000637606
0.000215927
0.000202295
0.000208787
0.000226315
0.000235504
0.000220451
0.000196293
0.000176872
0.000167052
0.000156702
0.00015908
0.000163297
0.000178441
0.000196466
0.000219207
0.000232679
0.00021955
0.000213316
0.000287104
0.000304271
0.000327757
0.00042673
0.000443835
0.000491764
0.000513049
0.000485304
0.000463883
0.000468143
0.000508092
0.000577364
0.000552059
0.000487858
0.000459331
0.000460141
0.000481126
0.00050491
0.000482039
0.00043752
0.000418751
0.000343394
0.000372908
0.000594013
0.000613915
0.000598435
0.000584919
0.00058155
0.000567804
0.000545348
0.000566192
0.00064148
0.000617307
0.000548414
0.000536242
0.00056243
0.000577796
0.000583792
0.000603394
0.000627363
0.000606056
0.00037511
0.000397554
0.000644341
0.000718538
0.000695243
0.000648515
0.000609791
0.000583619
0.000576249
0.000599744
0.000659256
0.000644053
0.000583943
0.000569453
0.000584665
0.00061549
0.000658611
0.000710541
0.000738406
0.00066473
0.000406052
0.000438741
0.000656775
0.000739327
0.000726716
0.000670276
0.000613331
0.000569118
0.00054412
0.000564372
0.000659838
0.000654621
0.000556919
0.000542958
0.000573145
0.000620008
0.000679429
0.000740022
0.000756967
0.000676273
0.000448397
0.000488982
0.000720187
0.000799952
0.000788111
0.000712203
0.000626552
0.000557952
0.000506775
0.000481184
0.000505857
0.000503938
0.000476471
0.000505582
0.000560357
0.00063154
0.000720763
0.000801476
0.000819344
0.000740226
0.000495462
0.00053617
0.000801091
0.000889026
0.000889707
0.000817531
0.000714143
0.000620448
0.000543802
0.000484161
0.000458998
0.000456927
0.000479768
0.000541273
0.000620888
0.000718077
0.000826905
0.000904615
0.000910152
0.000819744
0.000540201
0.000578418
0.000879853
0.00102413
0.00108805
0.00107258
0.000998563
0.000914823
0.000823996
0.000721472
0.000619615
0.00061511
0.000717797
0.000822375
0.00091502
0.00100266
0.00108362
0.00110688
0.00104395
0.000894948
0.000580968
0.000620903
0.000917446
0.00125071
0.00155123
0.0017014
0.00173157
0.0017234
0.00165551
0.00150233
0.0012706
0.00125763
0.00149656
0.00165339
0.00172282
0.00173415
0.001709
0.00156557
0.0012656
0.000928975
0.000622719
0.000662649
0.000724065
0.000775964
0.00081881
0.000855954
0.000886881
0.000909982
0.000922908
0.000922133
0.000904011
0.000899181
0.000917875
0.000919735
0.000907758
0.000885518
0.000855378
0.000818902
0.000776468
0.000724758
0.000663181
0.00014163
0.000185753
0.000221587
0.000235073
0.00023177
0.000218113
0.000202473
0.000187306
0.000175671
0.000172906
0.00017101
0.000177121
0.000189826
0.000204724
0.000219584
0.000231582
0.000233014
0.000213578
0.00018603
0.000152892
0.000284522
0.000427814
0.000482985
0.000512997
0.000511168
0.000498638
0.000491153
0.000502315
0.000556425
0.000643293
0.000612056
0.000528236
0.000492591
0.000488863
0.000497694
0.000508374
0.000506081
0.000468059
0.000398725
0.000290183
0.000330358
0.000509854
0.000564747
0.000584882
0.000599101
0.000604614
0.000588791
0.000572525
0.000610822
0.000701503
0.000672163
0.000585165
0.00056511
0.000585354
0.000599746
0.000594961
0.000584621
0.000565785
0.000505338
0.000333197
0.000346263
0.000545486
0.000632336
0.000648533
0.000639294
0.000627095
0.000619224
0.000617061
0.000638026
0.000709946
0.000692063
0.000622287
0.000610396
0.000618483
0.000630999
0.000647427
0.00066054
0.000645797
0.000557051
0.000357042
0.000393394
0.000547013
0.000640934
0.000670356
0.000657231
0.000630731
0.000606203
0.000596346
0.00062871
0.00071299
0.000702904
0.000618772
0.000594922
0.000610646
0.000638533
0.000667864
0.000683806
0.000656572
0.000566017
0.000408434
0.000470793
0.000618647
0.000681597
0.000712387
0.000693083
0.000648549
0.000602994
0.000568185
0.000561352
0.000615555
0.000614786
0.000559036
0.000570187
0.000609294
0.000658485
0.000707186
0.000731151
0.000704928
0.000642967
0.000478598
0.000533488
0.000757727
0.000787766
0.000817803
0.000802848
0.00074568
0.000677763
0.000615331
0.000567665
0.000563814
0.000563483
0.000566143
0.000617265
0.000684405
0.000757995
0.000822382
0.000843907
0.000816913
0.000780633
0.000537763
0.000585738
0.000913162
0.00100654
0.00107285
0.00108266
0.00103625
0.000971278
0.000892118
0.000791247
0.000686383
0.00068175
0.000788681
0.000892992
0.000976697
0.00104784
0.00110293
0.00110145
0.00103616
0.000930346
0.000588115
0.000635741
0.000968039
0.00137228
0.00170155
0.00185653
0.00194971
0.0019846
0.00193381
0.00175925
0.00147457
0.00145948
0.0017474
0.00192761
0.00198364
0.00195367
0.00186722
0.00171866
0.00138738
0.000979614
0.000637249
0.000682634
0.000750067
0.000807182
0.000855949
0.000900838
0.000938367
0.000967384
0.000985607
0.000989805
0.000978399
0.00097267
0.000984677
0.000981677
0.00096445
0.000936324
0.000899672
0.000855442
0.000807059
0.000750176
0.00068273
0.000130308
0.00018273
0.000216522
0.000220192
0.000218153
0.000211804
0.000202866
0.00019275
0.000185033
0.000186121
0.0001842
0.000187219
0.000196654
0.000206823
0.000215135
0.000220387
0.000221049
0.000215519
0.00018555
0.000133962
0.000177021
0.000390558
0.000460191
0.000485252
0.00049861
0.000503343
0.000508997
0.00052815
0.000591451
0.000683193
0.000650135
0.000560124
0.000517794
0.000507236
0.000504189
0.000499278
0.00048452
0.00045621
0.000386654
0.000197153
0.000282595
0.000460507
0.000536513
0.000581507
0.000604603
0.000605233
0.000590218
0.000585932
0.000636988
0.000722936
0.000693344
0.000608532
0.00057903
0.000589985
0.000603457
0.000601077
0.00057921
0.000534862
0.000455486
0.000289118
0.000303983
0.000474426
0.000567648
0.000609805
0.000627099
0.000634283
0.000634524
0.000630428
0.000655388
0.000717287
0.000700996
0.000639852
0.000625874
0.000633247
0.000635828
0.000632005
0.000617524
0.00057591
0.000480958
0.000314717
0.000345659
0.000467153
0.00056094
0.00061341
0.000630758
0.000629559
0.000623151
0.000627431
0.000665851
0.000728392
0.000720231
0.000655023
0.000624801
0.000626566
0.000636322
0.0006399
0.000623962
0.000571452
0.000478705
0.000363782
0.000451558
0.000516481
0.000571133
0.000626752
0.000648628
0.000641387
0.000622358
0.000608492
0.000623969
0.00069248
0.000692238
0.000622673
0.000612109
0.000630483
0.000652791
0.000662571
0.000642045
0.000586286
0.000530641
0.000459862
0.000527801
0.000676176
0.000667623
0.000714486
0.000745843
0.000735608
0.00070072
0.0006621
0.00064003
0.000670088
0.000672962
0.000642753
0.000668675
0.000712433
0.000752657
0.000767792
0.000738961
0.000691926
0.000701864
0.000532026
0.000588546
0.000914873
0.000932551
0.000998906
0.00103642
0.00102982
0.000996657
0.000936129
0.000841442
0.000740603
0.000738754
0.000842257
0.000940616
0.00100615
0.00104574
0.00105854
0.00102514
0.000957692
0.000933775
0.00059061
0.000644684
0.000985742
0.00140907
0.00173169
0.00194976
0.00209593
0.00215894
0.00209959
0.00186836
0.00148321
0.00147033
0.00185701
0.00209346
0.00215588
0.00209698
0.00195753
0.00174425
0.00142305
0.000996516
0.000645751
0.000697138
0.000770155
0.000832082
0.00088687
0.000938362
0.000982174
0.00101711
0.00104105
0.00105166
0.00104888
0.0010424
0.00104599
0.0010366
0.00101356
0.000979375
0.000936403
0.000885607
0.000831234
0.000769602
0.00069673
0.000120288
0.000152764
0.000183714
0.000197208
0.000202619
0.000202916
0.000200058
0.000196141
0.000194697
0.000202484
0.000200233
0.000196744
0.000200657
0.000204899
0.000207196
0.000205756
0.000198442
0.000183139
0.000157852
0.000120296
0.00015686
0.000353193
0.000423439
0.000463915
0.000491153
0.000509004
0.00052509
0.000555842
0.000624952
0.000705353
0.00067775
0.000593848
0.000543632
0.000522288
0.00050887
0.000491442
0.000463703
0.000421733
0.000358133
0.000154995
0.000220884
0.000426211
0.000517631
0.000567835
0.000588815
0.000590235
0.000586266
0.000599302
0.000649791
0.000667596
0.000654222
0.000624782
0.000590664
0.000587056
0.000592397
0.000589401
0.000566776
0.000515467
0.000423691
0.000244342
0.000259456
0.000422489
0.000523398
0.000583656
0.000619254
0.000634548
0.000633165
0.000630913
0.00065245
0.000615366
0.00061967
0.00064192
0.000627942
0.000633795
0.000635305
0.00062106
0.000587344
0.00052756
0.00042666
0.000274031
0.000305196
0.000409241
0.000503255
0.000569187
0.000606241
0.00062317
0.000631282
0.000644526
0.000669473
0.000609759
0.000620809
0.00066322
0.000640895
0.000632683
0.00062762
0.000612428
0.000575932
0.000509394
0.000416909
0.000321969
0.000431294
0.000451515
0.000494066
0.000558109
0.000603087
0.000622393
0.000626637
0.000632838
0.000654117
0.000613728
0.000624515
0.000654312
0.000635691
0.000633756
0.000631964
0.000613425
0.000567562
0.000501983
0.000460664
0.000439908
0.00051908
0.000574924
0.000564599
0.000620724
0.000677958
0.000700803
0.0006953
0.000683464
0.000686718
0.000675783
0.000685447
0.00069195
0.00069163
0.000707897
0.000716797
0.000695416
0.000637036
0.000579233
0.000594099
0.000523024
0.000586847
0.000886486
0.000853833
0.000915085
0.000971468
0.000996737
0.000987935
0.000937912
0.000846384
0.000743177
0.000745414
0.000850121
0.000944547
0.000997978
0.00101081
0.000988414
0.000933075
0.000871232
0.000906028
0.000588494
0.000647926
0.000977776
0.00140229
0.00172343
0.00198461
0.00215892
0.00222017
0.00211056
0.00176391
0.00119677
0.00119439
0.00175728
0.00211006
0.00221917
0.00215832
0.00198777
0.00173069
0.00141247
0.000986926
0.000648436
0.000706353
0.000784125
0.000850156
0.000909965
0.000967371
0.00101711
0.00105817
0.00108911
0.00110988
0.001124
0.00111657
0.00110377
0.00108424
0.0010541
0.00101368
0.000964647
0.000907896
0.000848516
0.000782846
0.00070538
0.000114791
0.000148362
0.00015615
0.00017845
0.000187362
0.000192684
0.000196108
0.000200058
0.000206582
0.000220745
0.000217999
0.000207923
0.000204245
0.000200962
0.000197292
0.000191078
0.000180538
0.000169461
0.00014324
0.00011201
0.000152204
0.000357186
0.000417085
0.000468335
0.000502344
0.000528177
0.00055587
0.000595462
0.000628481
0.000549786
0.000532584
0.000605748
0.000580825
0.000547798
0.00052308
0.000498037
0.000464409
0.000412019
0.000340891
0.000153009
0.00016801
0.000410224
0.000494776
0.000545422
0.000572582
0.000585989
0.000599351
0.000620568
0.000580969
0.000389478
0.000383679
0.00057737
0.000611879
0.000595267
0.000585282
0.000572339
0.000543686
0.000489759
0.000399615
0.000171151
0.000213763
0.000389379
0.000503632
0.000576325
0.000617135
0.000630493
0.000630958
0.000628751
0.000532259
0.000355357
0.00034949
0.000546396
0.000629343
0.000632039
0.000631779
0.000616578
0.000574681
0.000501456
0.000389646
0.000229751
0.000262134
0.000363997
0.00046593
0.000544185
0.000596402
0.000627479
0.000644562
0.000645502
0.000520141
0.000412474
0.000391539
0.000536201
0.000646348
0.000643531
0.00062763
0.00059731
0.000545051
0.000466365
0.000367608
0.000277786
0.000408944
0.000398408
0.000436391
0.000506896
0.000568273
0.000608541
0.000632859
0.000640906
0.000515239
0.000480527
0.000456654
0.000529036
0.000644468
0.00063655
0.000613652
0.000573136
0.000510175
0.000438638
0.000404112
0.000417935
0.000506996
0.000502356
0.000486531
0.000543993
0.000615502
0.000662207
0.00068351
0.000695008
0.000617487
0.000578307
0.000562762
0.000631066
0.000702609
0.000693428
0.000673671
0.000626364
0.000552463
0.000493462
0.000512375
0.000510598
0.000579904
0.000819184
0.000766722
0.000824173
0.000892281
0.000936228
0.00093796
0.000888863
0.000793296
0.000718499
0.000708758
0.000800205
0.00089741
0.000947931
0.000947463
0.00090444
0.000836849
0.00078126
0.000841705
0.000581069
0.000644497
0.000940325
0.00135244
0.00165545
0.0019338
0.00209958
0.00211056
0.0018787
0.00139043
0.0011843
0.00116645
0.00140243
0.00189153
0.00211672
0.00210196
0.00193679
0.00166212
0.00136166
0.000948778
0.000644367
0.000709375
0.000790467
0.000859401
0.000922895
0.000985594
0.00104104
0.0010891
0.00113072
0.00117203
0.0012287
0.00121906
0.00116502
0.00112513
0.00108431
0.00103685
0.000982005
0.00091996
0.000856888
0.000788349
0.000707728
0.000101791
0.000194986
0.000126063
0.000160284
0.000175275
0.000185144
0.000194751
0.000206603
0.000215452
0.000230017
0.000227772
0.000216245
0.000208948
0.000197849
0.000188329
0.000178327
0.000164208
0.000117499
0.000185123
0.0001072
0.000147921
0.000406754
0.000457646
0.000507765
0.000556536
0.000591585
0.000625064
0.000628546
0.000483596
0.000537736
0.000520372
0.000473381
0.000615922
0.000608251
0.000574263
0.000540798
0.000497215
0.000439466
0.000385152
0.000151871
0.000176541
0.000432474
0.000504977
0.000566336
0.000611008
0.000637169
0.000649946
0.000581043
0.000364036
0.000672909
0.000640686
0.000361417
0.000586107
0.000639648
0.000623179
0.000598138
0.000558261
0.000490238
0.000411065
0.000176683
0.00017761
0.000418304
0.000531319
0.000599898
0.000638177
0.000655536
0.000652582
0.000532327
0.000372558
0.000930305
0.000882365
0.000361447
0.000552491
0.000653023
0.000650597
0.000632019
0.000591597
0.000518667
0.000402735
0.000180388
0.00021959
0.000348742
0.000471508
0.00056445
0.000628808
0.000665966
0.000669585
0.00052021
0.000457221
0.00125469
0.00118836
0.000428949
0.000540877
0.000670796
0.000660657
0.000620841
0.000554784
0.000460901
0.000342899
0.00023194
0.000386631
0.000362647
0.000401957
0.000481295
0.000561442
0.000624029
0.000654165
0.00051528
0.000546898
0.00156145
0.0014795
0.000504379
0.000531016
0.000655819
0.000622068
0.000558043
0.000476268
0.000397523
0.000365428
0.000396764
0.000492055
0.000458073
0.00043163
0.000484296
0.000567818
0.000640143
0.000686788
0.000617533
0.000664769
0.00176645
0.0016781
0.000625076
0.000631525
0.000692742
0.00064522
0.000571549
0.000486333
0.000434607
0.000465583
0.000495162
0.000567219
0.00073495
0.00067404
0.000721642
0.000791432
0.00084159
0.000846485
0.000793372
0.000835997
0.00185348
0.00176979
0.000806135
0.000803669
0.000856684
0.000851552
0.000801062
0.000731449
0.000686266
0.000754541
0.000567616
0.00063279
0.000866014
0.00124101
0.0015025
0.00175943
0.00186857
0.00176417
0.00139073
0.00125793
0.00177291
0.00171805
0.00123106
0.00141317
0.0017802
0.00187582
0.00176366
0.0015085
0.00124863
0.000872427
0.000631689
0.000703941
0.000786378
0.000856569
0.000922149
0.000989811
0.00105165
0.00110986
0.00117199
0.00125516
0.00136243
0.00135169
0.00124488
0.00116423
0.00110346
0.00104605
0.000984885
0.00091794
0.000852825
0.0007831
0.000701371
0.000179268
7.99196e-05
0.000209147
0.000160288
0.000171968
0.000185587
0.000202303
0.0002207
0.000230006
0.000238273
0.000236943
0.00022967
0.000220546
0.000202621
0.000186293
0.000173005
0.000161786
0.000221928
8.32633e-05
0.000164361
0.000183987
0.000438874
0.000524388
0.000576734
0.000643215
0.000683187
0.000705358
0.000549841
0.000537778
0.000354566
0.000351217
0.000530486
0.000547053
0.000695029
0.000666806
0.000626942
0.000561158
0.000507675
0.00042166
0.000180389
0.000184691
0.0004991
0.000578277
0.000641559
0.00070165
0.000723045
0.000667704
0.000389555
0.000672941
0.000516666
0.000511378
0.000652567
0.000393067
0.000669694
0.000709576
0.000686474
0.000625249
0.000559593
0.000479879
0.00018528
0.000196748
0.000505698
0.000590594
0.0006594
0.000710114
0.000717444
0.00061554
0.000355433
0.000930276
0.000689962
0.000685031
0.000893411
0.000355851
0.00062879
0.000710714
0.000699527
0.000646096
0.000575988
0.000487816
0.000195823
0.000194634
0.000402349
0.000563171
0.000659911
0.000713105
0.000728543
0.00060995
0.000412496
0.00125453
0.000887883
0.000885417
0.00119667
0.000397962
0.000624959
0.000722393
0.00070018
0.000642607
0.000538556
0.000379203
0.000199914
0.000367035
0.000358738
0.000412557
0.000505883
0.000615595
0.000692543
0.00061388
0.00048042
0.00156107
0.00110473
0.00110631
0.00148196
0.000457195
0.000622443
0.000682842
0.000600443
0.000489805
0.000399799
0.000358125
0.000379657
0.000474003
0.000437323
0.000408711
0.000459048
0.000563897
0.000670156
0.000675916
0.000578136
0.00176585
0.00131976
0.00132739
0.0016757
0.000559044
0.000683365
0.000667414
0.000558973
0.000454527
0.000408523
0.000443209
0.000476205
0.000546672
0.000653108
0.000584327
0.000619836
0.000686626
0.00074081
0.000743353
0.000718368
0.00185263
0.00147717
0.00149061
0.00176167
0.000706897
0.000753038
0.000748039
0.000692059
0.000625043
0.000592118
0.000667431
0.000545734
0.000609179
0.000755506
0.00103811
0.0012713
0.00147527
0.00148392
0.0011974
0.00118403
0.00177225
0.00159302
0.00160359
0.00170717
0.00116106
0.0012119
0.0014939
0.00147601
0.00126974
0.0010417
0.000756533
0.000606375
0.000682817
0.000765914
0.000834699
0.000904103
0.000978461
0.0010489
0.00112396
0.00122859
0.00136228
0.0013821
0.00139191
0.00134863
0.00121577
0.00111415
0.00104097
0.000971532
0.000897912
0.000829306
0.00076109
0.000678731
9.7104e-05
0.000211529
9.72985e-05
0.000156423
0.000171696
0.000184731
0.000200445
0.000218076
0.000227813
0.000236954
0.000236889
0.00022867
0.000219306
0.000201554
0.000185813
0.000173176
0.000157669
0.000100623
0.000224306
9.25035e-05
0.00013406
0.000431945
0.000492896
0.000552655
0.000611702
0.000649841
0.000677631
0.000532553
0.000520328
0.000351221
0.000353119
0.000527173
0.000542487
0.0006859
0.000656427
0.000617281
0.000555494
0.00049161
0.000429234
0.000136854
0.00017881
0.000480992
0.000556018
0.000617054
0.000671935
0.000693132
0.000654373
0.000383839
0.0006404
0.000511352
0.000512666
0.000641591
0.000389802
0.000662328
0.000697511
0.000675022
0.000616356
0.000551596
0.000473533
0.000179955
0.000195037
0.000489434
0.000575765
0.000643845
0.000691975
0.000700989
0.000620118
0.000349607
0.000881676
0.000685003
0.000685
0.000873161
0.000350638
0.00062527
0.000700123
0.000688949
0.000637674
0.000568971
0.000480383
0.000195067
0.00019545
0.000405455
0.000563189
0.000654515
0.000702855
0.000720308
0.000621329
0.000391317
0.00118711
0.000885416
0.000883682
0.00116493
0.000385451
0.000622892
0.000712287
0.000689502
0.000632964
0.000530334
0.000372772
0.000215378
0.000375318
0.000362545
0.000411404
0.000503894
0.000614838
0.000692371
0.000624945
0.000456264
0.00147775
0.00110636
0.00110276
0.0014401
0.000441437
0.000620079
0.000674676
0.000592365
0.000482877
0.000395854
0.000359931
0.000384375
0.000476235
0.00044224
0.000409683
0.000456893
0.000563527
0.0006731
0.000685751
0.0005625
0.00167619
0.00132756
0.00132279
0.00162846
0.000545938
0.000680691
0.000662317
0.000553645
0.00045062
0.000408809
0.000447277
0.000477327
0.000547036
0.000660662
0.000584124
0.000615137
0.000681747
0.000738757
0.000745486
0.000708506
0.00176802
0.00149091
0.00148628
0.00171425
0.000696794
0.000748738
0.000742543
0.000685947
0.000620408
0.00059149
0.000672554
0.000544997
0.000608323
0.000755128
0.00103704
0.00125791
0.00145947
0.00147022
0.00119466
0.00116609
0.00171684
0.00160383
0.00159739
0.00167606
0.00114684
0.00120538
0.00148409
0.00146225
0.00125678
0.00103852
0.00075352
0.000604366
0.000680917
0.000763153
0.000831106
0.000899121
0.000972555
0.00104224
0.00111637
0.00121877
0.00135135
0.00139203
0.00138669
0.00133773
0.00120612
0.00110605
0.00103382
0.000965051
0.000892139
0.000824683
0.00075718
0.000675581
0.000114946
0.000120335
0.000194322
0.000165132
0.000176668
0.000187029
0.000196747
0.000207991
0.0002163
0.000229669
0.000228698
0.000216194
0.000208388
0.000197201
0.000187624
0.000177692
0.000167673
0.000178895
0.000106946
0.000129243
0.000150488
0.000380661
0.00043775
0.000487944
0.000528192
0.000560016
0.000593776
0.00060577
0.000473326
0.000530228
0.000527396
0.000475133
0.000610153
0.000598177
0.000564064
0.000531767
0.000490565
0.000438553
0.000375376
0.000155841
0.000171758
0.000410996
0.000483848
0.000548487
0.00058515
0.000608497
0.000624805
0.000577666
0.000361473
0.000652036
0.000641989
0.000361595
0.000582317
0.00062862
0.000612027
0.000588808
0.000551673
0.000486104
0.000405239
0.000174635
0.000175733
0.000403109
0.000514175
0.000583924
0.000622352
0.000639951
0.0006421
0.000546933
0.000361301
0.000892487
0.000873688
0.000357033
0.000551025
0.000643385
0.000640613
0.000623131
0.00058415
0.000512384
0.000396806
0.00018341
0.000226941
0.000344393
0.000465579
0.000556914
0.000618804
0.000655088
0.000663378
0.000536731
0.00042836
0.00119519
0.00116556
0.000416203
0.000539479
0.000660342
0.000649288
0.000610655
0.00054629
0.000454341
0.000339821
0.000241123
0.000396275
0.000364492
0.000396988
0.000476473
0.000559116
0.000622798
0.000654486
0.000529467
0.000503432
0.00147992
0.00144078
0.000484141
0.000530264
0.000647922
0.000614145
0.000550413
0.000469072
0.000393198
0.000367608
0.000401474
0.000494657
0.000463697
0.000430282
0.000479727
0.000566169
0.000642878
0.000692139
0.000631389
0.000624164
0.00167329
0.00162917
0.000603272
0.000629651
0.000686859
0.000639187
0.000564881
0.000480743
0.000433714
0.00046954
0.000495003
0.00056701
0.000743903
0.000673781
0.000717737
0.000788592
0.000842197
0.000850113
0.000800279
0.000805404
0.00175913
0.00171495
0.00078797
0.000801205
0.000851905
0.000845102
0.000793636
0.000724985
0.000682943
0.000756284
0.000565043
0.000631007
0.000861072
0.00123088
0.00149624
0.00174689
0.0018564
0.00175672
0.00140255
0.00123036
0.00170542
0.00167643
0.00121298
0.00142141
0.00177813
0.00186391
0.00174819
0.00149544
0.00123268
0.000862063
0.000627667
0.000701355
0.000783184
0.000852788
0.000917728
0.000984495
0.00104578
0.00110354
0.00116477
0.00124455
0.00134822
0.00133778
0.00123379
0.00115567
0.00109594
0.00103893
0.000978111
0.000911728
0.000847162
0.000777979
0.00069676
0.000116546
0.000136862
0.000150584
0.000178375
0.000190134
0.000196801
0.000200771
0.000204361
0.000209009
0.000220559
0.000219302
0.000208413
0.000204286
0.000200884
0.000197168
0.00019089
0.000179452
0.000160952
0.000139797
0.000117245
0.000152238
0.000339091
0.000407911
0.000459215
0.000492696
0.000517907
0.000543713
0.000580803
0.000615613
0.000546692
0.000542786
0.000610381
0.000578763
0.000543323
0.000518493
0.000493937
0.000460983
0.000409826
0.000339337
0.000155069
0.000168685
0.000396308
0.000483497
0.000536459
0.000565375
0.000579267
0.000590819
0.000611909
0.000586085
0.00039291
0.000389945
0.000582486
0.000609617
0.000591054
0.000581465
0.000569107
0.000540998
0.000487713
0.000398376
0.000171027
0.000226038
0.000386015
0.00049771
0.000569638
0.0006106
0.000626095
0.000628136
0.000629473
0.000552777
0.0003557
0.000350762
0.000551109
0.000626734
0.000627537
0.000626694
0.000611181
0.000570024