/*--------------------------------*- C++ -*----------------------------------*\
| =========                 |                                                 |
| \\      /  F ield         | OpenFOAM: The Open Source CFD Toolbox           |
|  \\    /   O peration     | Version:  v1912                                 |
|   \\  /    A nd           | Website:  www.openfoam.com                      |
|    \\/     M anipulation  |                                                 |
\*---------------------------------------------------------------------------*/
FoamFile
{
    version     2.0;
    format      ascii;
    class       volScalarField;
    location    "600";
    object      epsilon;
}
// * * * * * * * * * * * * * * * * * * * * * * * * * * * * * * * * * * * * * //

dimensions      [0 2 -3 0 0 0 0];


internalField   nonuniform List<scalar> 
4000
(
4.76639e-07
3.88342e-07
2.78192e-07
4.84132e-08
1.57013e-08
1.231e-08
9.80393e-09
8.82533e-09
9.95831e-09
9.55335e-09
1.08358e-08
8.24577e-09
8.09708e-09
9.23522e-09
1.23031e-08
1.80134e-08
1.36239e-07
3.14165e-07
4.14231e-07
4.97171e-07
5.70348e-07
4.72229e-07
3.28176e-07
1.9638e-07
1.28597e-07
3.08781e-08
2.2011e-08
2.09433e-08
2.128e-08
2.05035e-08
2.20377e-08
2.00187e-08
1.97015e-08
2.04522e-08
3.53449e-08
1.28217e-07
2.11728e-07
3.44257e-07
4.85706e-07
5.86632e-07
6.3474e-07
5.5335e-07
4.13659e-07
2.88973e-07
2.00747e-07
1.25163e-07
5.94698e-08
2.67479e-08
3.00232e-08
3.43554e-08
3.34575e-08
2.87831e-08
2.66735e-08
7.19201e-08
1.27455e-07
1.95325e-07
2.79572e-07
4.13828e-07
5.61851e-07
6.484e-07
6.77312e-07
6.17252e-07
4.88071e-07
3.48854e-07
2.30516e-07
1.55764e-07
9.64893e-08
5.44844e-08
3.04984e-08
4.2687e-08
4.13687e-08
2.98217e-08
6.3471e-08
1.07971e-07
1.6483e-07
2.38351e-07
3.51665e-07
4.92885e-07
6.25447e-07
6.89417e-07
7.11194e-07
6.81844e-07
5.91748e-07
4.69029e-07
3.37356e-07
2.28837e-07
1.57346e-07
1.00154e-07
5.87568e-08
4.10735e-08
4.14777e-08
6.4064e-08
1.12079e-07
1.75162e-07
2.5234e-07
3.60072e-07
4.83281e-07
6.00879e-07
6.90842e-07
7.22464e-07
7.42852e-07
7.51856e-07
7.14452e-07
6.49916e-07
5.7992e-07
5.11609e-07
4.45632e-07
3.79972e-07
3.20891e-07
2.75522e-07
2.91883e-07
3.44555e-07
4.01207e-07
4.65559e-07
5.30845e-07
5.97694e-07
6.64365e-07
7.26552e-07
7.63136e-07
7.53656e-07
7.78367e-07
8.33243e-07
8.5751e-07
8.57281e-07
8.44439e-07
8.17691e-07
7.77757e-07
7.24608e-07
6.62396e-07
5.91967e-07
5.99879e-07
6.72404e-07
7.36453e-07
7.90899e-07
8.3205e-07
8.59242e-07
8.71582e-07
8.70932e-07
8.45818e-07
7.88829e-07
8.21068e-07
9.27782e-07
1.01534e-06
1.07669e-06
1.11809e-06
1.13424e-06
1.12437e-06
1.08477e-06
1.01493e-06
9.08285e-07
9.09965e-07
1.01379e-06
1.08756e-06
1.13076e-06
1.14388e-06
1.13013e-06
1.09021e-06
1.02924e-06
9.41049e-07
8.31122e-07
8.77481e-07
1.05079e-06
1.20698e-06
1.33206e-06
1.42991e-06
1.49113e-06
1.51366e-06
1.48954e-06
1.40947e-06
1.25705e-06
1.25191e-06
1.398e-06
1.48469e-06
1.51517e-06
1.49778e-06
1.4403e-06
1.34505e-06
1.22102e-06
1.06412e-06
8.87043e-07
9.63225e-07
1.21045e-06
1.43651e-06
1.61943e-06
1.77047e-06
1.88573e-06
1.96141e-06
1.98648e-06
1.94075e-06
1.77049e-06
1.75626e-06
1.92025e-06
1.97412e-06
1.95672e-06
1.88728e-06
1.77689e-06
1.62943e-06
1.44855e-06
1.22253e-06
9.72027e-07
3.88514e-07
3.22143e-07
2.37559e-07
4.53251e-08
3.59475e-08
3.44746e-08
2.05401e-08
1.51109e-08
1.23699e-08
2.03066e-08
1.22263e-08
1.38902e-08
1.54607e-08
2.10004e-08
3.4522e-08
3.47423e-08
1.21288e-07
2.82441e-07
3.81353e-07
4.20624e-07
4.7247e-07
6.19516e-07
3.68983e-07
2.4236e-07
1.96134e-07
1.14957e-07
3.9208e-08
3.00893e-08
2.18322e-08
1.98867e-08
1.97706e-08
2.1708e-08
3.21099e-08
4.37548e-08
1.0914e-07
1.70508e-07
2.26105e-07
3.89823e-07
6.17688e-07
4.981e-07
5.5361e-07
7.42579e-07
6.23916e-07
3.98313e-07
2.6371e-07
1.83936e-07
1.27335e-07
7.00225e-08
3.33491e-08
2.82812e-08
2.8616e-08
3.49214e-08
7.67918e-08
1.28709e-07
1.80397e-07
2.5556e-07
3.98256e-07
6.3476e-07
7.30804e-07
5.75256e-07
6.17481e-07
6.46427e-07
5.65092e-07
4.06755e-07
2.71027e-07
1.85737e-07
1.26742e-07
8.51371e-08
5.83726e-08
4.24019e-08
4.41038e-08
6.24867e-08
9.10645e-08
1.33435e-07
1.92298e-07
2.79275e-07
4.20447e-07
5.76144e-07
6.56165e-07
6.37371e-07
6.82012e-07
6.5773e-07
5.79926e-07
4.49586e-07
3.02228e-07
2.03969e-07
1.4088e-07
9.57575e-08
6.69733e-08
5.65784e-08
5.59641e-08
6.79932e-08
1.01259e-07
1.50378e-07
2.16477e-07
3.1646e-07
4.57657e-07
5.90291e-07
6.70459e-07
7.00006e-07
7.51929e-07
7.08707e-07
6.50836e-07
5.61435e-07
4.53329e-07
3.40081e-07
2.66886e-07
2.08669e-07
1.67773e-07
1.47402e-07
1.54258e-07
1.76147e-07
2.16575e-07
2.75686e-07
3.49195e-07
4.61455e-07
5.67689e-07
6.59224e-07
7.21139e-07
7.67974e-07
8.33234e-07
7.78177e-07
7.41356e-07
6.9366e-07
6.43322e-07
5.6048e-07
4.5491e-07
3.78163e-07
3.29046e-07
2.98436e-07
3.03869e-07
3.35032e-07
3.82421e-07
4.61136e-07
5.66221e-07
6.48019e-07
6.99938e-07
7.48494e-07
7.89925e-07
8.46893e-07
9.27713e-07
8.86155e-07
8.86435e-07
8.87536e-07
9.05643e-07
8.96086e-07
8.54267e-07
7.66374e-07
6.64501e-07
5.54224e-07
5.62169e-07
6.71561e-07
7.71003e-07
8.53635e-07
8.96881e-07
9.09259e-07
8.95332e-07
8.95198e-07
8.98646e-07
9.39522e-07
1.0507e-06
1.12551e-06
1.24299e-06
1.33575e-06
1.42283e-06
1.47377e-06
1.48084e-06
1.42291e-06
1.28621e-06
1.04858e-06
1.04376e-06
1.27255e-06
1.41588e-06
1.47876e-06
1.47589e-06
1.42847e-06
1.34545e-06
1.25527e-06
1.13968e-06
1.06125e-06
1.21032e-06
1.53431e-06
1.84514e-06
2.11304e-06
2.34909e-06
2.54296e-06
2.68376e-06
2.74911e-06
2.70609e-06
2.49947e-06
2.47346e-06
2.6745e-06
2.72782e-06
2.67254e-06
2.54012e-06
2.35281e-06
2.12159e-06
1.85623e-06
1.54531e-06
1.21755e-06
2.78472e-07
2.37715e-07
1.60044e-07
5.0392e-08
6.05964e-08
5.55943e-08
3.25643e-08
2.29735e-08
1.94607e-08
1.53417e-08
2.11397e-08
1.6048e-08
2.31746e-08
3.22348e-08
5.34654e-08
5.3638e-08
5.32009e-08
1.85432e-07
2.84104e-07
3.2043e-07
3.28443e-07
3.69057e-07
2.54642e-07
2.10396e-07
1.89609e-07
1.18829e-07
5.92882e-08
4.04095e-08
2.78575e-08
2.44577e-08
2.41041e-08
2.94756e-08
4.30882e-08
6.04075e-08
1.14362e-07
1.77676e-07
2.03137e-07
2.72156e-07
3.96082e-07
3.57524e-07
4.13955e-07
6.24243e-07
5.03396e-07
3.50367e-07
2.53139e-07
1.89484e-07
1.40335e-07
8.55838e-08
4.77397e-08
3.44795e-08
3.62136e-08
5.22673e-08
9.03504e-08
1.42554e-07
1.90219e-07
2.52684e-07
3.57726e-07
5.2891e-07
6.58033e-07
4.33362e-07
4.8843e-07
5.65338e-07
5.11536e-07
3.8194e-07
2.70888e-07
1.94924e-07
1.41206e-07
1.03384e-07
7.53779e-08
5.22952e-08
5.47689e-08
7.93474e-08
1.08514e-07
1.47665e-07
2.02307e-07
2.80601e-07
3.97243e-07
5.31166e-07
5.87692e-07
5.12885e-07
5.92018e-07
5.8012e-07
4.97957e-07
3.87075e-07
2.73409e-07
1.93777e-07
1.39723e-07
1.0164e-07
7.86654e-08
7.03855e-08
7.03578e-08
7.98765e-08
1.0583e-07
1.46469e-07
2.01746e-07
2.81649e-07
3.95117e-07
5.12337e-07
6.01426e-07
6.16067e-07
7.14596e-07
6.50978e-07
5.61381e-07
4.51824e-07
3.38241e-07
2.44875e-07
1.84153e-07
1.39921e-07
1.09328e-07
9.54579e-08
9.6703e-08
1.10528e-07
1.42022e-07
1.87734e-07
2.49064e-07
3.41957e-07
4.55694e-07
5.7171e-07
6.6815e-07
7.36136e-07
8.57527e-07
7.41483e-07
6.60737e-07
5.45631e-07
4.31012e-07
3.42241e-07
2.69966e-07
2.16748e-07
1.799e-07
1.58776e-07
1.60146e-07
1.80311e-07
2.15686e-07
2.68949e-07
3.41173e-07
4.29919e-07
5.4743e-07
6.70502e-07
7.56857e-07
8.74694e-07
1.01527e-06
8.86535e-07
8.69896e-07
7.79929e-07
6.22003e-07
5.57906e-07
5.07233e-07
4.43057e-07
3.69506e-07
2.90266e-07
2.89577e-07
3.67635e-07
4.39864e-07
5.01853e-07
5.52818e-07
6.20167e-07
7.80603e-07
8.82705e-07
9.02498e-07
1.02891e-06
1.20686e-06
1.24304e-06
1.47914e-06
1.69767e-06
1.88207e-06
1.95669e-06
1.95932e-06
1.82895e-06
1.51503e-06
1.01677e-06
1.01204e-06
1.51225e-06
1.82866e-06
1.95879e-06
1.95872e-06
1.88553e-06
1.70956e-06
1.49514e-06
1.26078e-06
1.21867e-06
1.43633e-06
1.84506e-06
2.24343e-06
2.60107e-06
2.92801e-06
3.20752e-06
3.42099e-06
3.53346e-06
3.49798e-06
3.23585e-06
3.19564e-06
3.45363e-06
3.50165e-06
3.40122e-06
3.1981e-06
2.92697e-06
2.60648e-06
2.25232e-06
1.85434e-06
1.44235e-06
4.99641e-08
4.54723e-08
5.04228e-08
6.45246e-08
7.25014e-08
5.94083e-08
4.22053e-08
3.10208e-08
2.45071e-08
2.19953e-08
2.18885e-08
2.4534e-08
3.15434e-08
4.20493e-08
5.84891e-08
6.99715e-08
5.89097e-08
5.38374e-08
1.29195e-07
1.54306e-07
1.96318e-07
2.42231e-07
2.10395e-07
1.96775e-07
1.57927e-07
9.53161e-08
6.22051e-08
4.5587e-08
3.45371e-08
3.07252e-08
3.18123e-08
3.72975e-08
4.88712e-08
6.49342e-08
9.71392e-08
1.5679e-07
1.91738e-07
2.04093e-07
2.30715e-07
2.24063e-07
2.89037e-07
3.98444e-07
3.50389e-07
2.78382e-07
2.20008e-07
1.7813e-07
1.33254e-07
8.41596e-08
5.37305e-08
4.17121e-08
4.40894e-08
5.91184e-08
9.0174e-08
1.37106e-07
1.80092e-07
2.21793e-07
2.83242e-07
3.62469e-07
4.15793e-07
2.93203e-07
3.49202e-07
4.07097e-07
3.82067e-07
3.0836e-07
2.36652e-07
1.81728e-07
1.39599e-07
1.07287e-07
7.8669e-08
5.89096e-08
6.19508e-08
8.37363e-08
1.12664e-07
1.46202e-07
1.8973e-07
2.47453e-07
3.24159e-07
4.04748e-07
4.394e-07
3.72098e-07
4.69332e-07
4.49898e-07
3.87233e-07
3.11096e-07
2.36868e-07
1.78726e-07
1.3561e-07
1.04238e-07
8.53417e-08
7.78664e-08
7.84463e-08
8.70158e-08
1.0837e-07
1.41718e-07
1.85883e-07
2.45057e-07
3.21844e-07
4.04001e-07
4.75772e-07
5.00889e-07
6.50078e-07
5.61649e-07
4.51969e-07
3.55809e-07
2.70502e-07
2.0141e-07
1.52718e-07
1.17329e-07
9.2692e-08
8.11112e-08
8.03502e-08
9.24715e-08
1.18767e-07
1.55724e-07
2.05211e-07
2.74861e-07
3.62119e-07
4.64759e-07
5.81938e-07
6.76141e-07
8.57296e-07
6.93752e-07
5.45783e-07
4.23527e-07
3.31709e-07
2.59685e-07
2.05657e-07
1.64833e-07
1.33177e-07
1.12527e-07
1.11506e-07
1.31358e-07
1.63056e-07
2.04538e-07
2.59286e-07
3.32637e-07
4.27384e-07
5.57895e-07
7.08209e-07
8.76667e-07
1.0766e-06
8.87542e-07
7.80082e-07
6.15409e-07
5.52613e-07
5.22383e-07
4.93287e-07
4.43065e-07
3.62053e-07
2.64335e-07
2.5811e-07
3.58705e-07
4.41495e-07
4.92061e-07
5.22329e-07
5.5457e-07
6.19859e-07
7.95659e-07
8.99614e-07
1.0908e-06
1.33191e-06
1.33577e-06
1.69769e-06
2.06061e-06
2.32671e-06
2.61896e-06
2.80434e-06
2.76123e-06
2.37809e-06
1.74451e-06
1.69292e-06
2.36201e-06
2.7565e-06
2.80221e-06
2.62441e-06
2.34189e-06
2.08433e-06
1.71598e-06
1.35223e-06
1.34354e-06
1.61921e-06
2.1129e-06
2.601e-06
3.05645e-06
3.49173e-06
3.88411e-06
4.19543e-06
4.37647e-06
4.36515e-06
4.11266e-06
4.04734e-06
4.30509e-06
4.33152e-06
4.16473e-06
3.86618e-06
3.48459e-06
3.05737e-06
2.60596e-06
2.11887e-06
1.62307e-06
1.57399e-08
3.5895e-08
6.06111e-08
7.24417e-08
6.91741e-08
5.76004e-08
4.6084e-08
3.64477e-08
2.99816e-08
2.85043e-08
2.79403e-08
3.07725e-08
3.80799e-08
4.76771e-08
5.88084e-08
6.89805e-08
7.02655e-08
5.43476e-08
3.5723e-08
1.97304e-08
1.28551e-07
1.95975e-07
1.89618e-07
1.57937e-07
1.12297e-07
7.86678e-08
5.99637e-08
4.60776e-08
3.86783e-08
4.01926e-08
3.972e-08
4.08902e-08
4.98925e-08
6.37299e-08
8.26612e-08
1.16517e-07
1.58044e-07
1.79665e-07
1.73096e-07
1.35381e-07
2.00812e-07
2.63747e-07
2.53151e-07
2.20009e-07
1.88472e-07
1.5525e-07
1.13303e-07
7.42545e-08
5.26633e-08
4.71774e-08
4.86555e-08
5.75861e-08
8.13835e-08
1.19361e-07
1.5833e-07
1.90146e-07
2.2319e-07
2.56985e-07
2.65393e-07
2.05397e-07
2.30726e-07
2.71233e-07
2.70994e-07
2.36684e-07
1.95881e-07
1.59575e-07
1.28993e-07
1.00475e-07
7.38385e-08
6.10331e-08
6.34781e-08
7.94892e-08
1.0654e-07
1.3532e-07
1.67106e-07
2.05532e-07
2.49559e-07
2.87277e-07
2.9192e-07
2.52853e-07
3.3778e-07
3.02597e-07
2.73602e-07
2.36935e-07
1.94964e-07
1.56717e-07
1.25042e-07
1.01062e-07
8.63404e-08
7.95509e-08
8.01357e-08
8.81299e-08
1.04981e-07
1.30761e-07
1.63644e-07
2.03483e-07
2.48527e-07
2.91635e-07
3.3459e-07
3.78377e-07
5.80052e-07
4.53566e-07
3.3844e-07
2.70591e-07
2.16003e-07
1.69747e-07
1.337e-07
1.06769e-07
8.92387e-08
8.39664e-08
8.32691e-08
8.9385e-08
1.08688e-07
1.37158e-07
1.74399e-07
2.22265e-07
2.80057e-07
3.53963e-07
4.77091e-07
6.09268e-07
8.44437e-07
6.43438e-07
4.31209e-07
3.31822e-07
2.69577e-07
2.20459e-07
1.82163e-07
1.5239e-07
1.28147e-07
1.13998e-07
1.12728e-07
1.26874e-07
1.52132e-07
1.83209e-07
2.23032e-07
2.74336e-07
3.39504e-07
4.42632e-07
6.58021e-07
8.64785e-07
1.11799e-06
9.05593e-07
6.22324e-07
5.52772e-07
5.66589e-07
5.85797e-07
5.91697e-07
5.60833e-07
4.70215e-07
3.42393e-07
3.33587e-07
4.65978e-07
5.61039e-07
5.94441e-07
5.91879e-07
5.76188e-07
5.6384e-07
6.37063e-07
9.13019e-07
1.13155e-06
1.42975e-06
1.42279e-06
1.88204e-06
2.32684e-06
2.98889e-06
3.62634e-06
4.06003e-06
4.13007e-06
3.62081e-06
2.66945e-06
2.59692e-06
3.56473e-06
4.10191e-06
4.03563e-06
3.6187e-06
3.00393e-06
2.35407e-06
1.89405e-06
1.43483e-06
1.43985e-06
1.77023e-06
2.34888e-06
2.92787e-06
3.49167e-06
4.0706e-06
4.60084e-06
5.04074e-06
5.33063e-06
5.39869e-06
5.21406e-06
5.12347e-06
5.31552e-06
5.26727e-06
4.99508e-06
4.57085e-06
4.05474e-06
3.48536e-06
2.92642e-06
2.34983e-06
1.77094e-06
1.23181e-08
3.435e-08
5.58104e-08
5.93969e-08
5.76128e-08
5.27161e-08
4.63236e-08
3.96988e-08
3.518e-08
3.56884e-08
3.48753e-08
3.64165e-08
4.22828e-08
4.91604e-08
5.53105e-08
5.94444e-08
5.9962e-08
5.5629e-08
3.56583e-08
1.33095e-08
3.09464e-08
1.14909e-07
1.18913e-07
9.53271e-08
7.86733e-08
6.56807e-08
5.42877e-08
4.47496e-08
4.161e-08
4.84667e-08
4.64528e-08
4.32091e-08
4.8724e-08
5.86874e-08
7.00814e-08
8.32632e-08
9.92292e-08
1.19072e-07
1.15959e-07
4.25066e-08
1.25298e-07
1.83969e-07
1.89494e-07
1.78143e-07
1.55262e-07
1.23343e-07
8.91695e-08
6.28903e-08
5.0301e-08
5.11735e-08
5.09488e-08
5.42913e-08
6.99757e-08
9.6938e-08
1.29448e-07
1.59365e-07
1.8198e-07
1.93225e-07
1.85609e-07
1.34116e-07
1.55938e-07
1.85865e-07
1.95002e-07
1.81765e-07
1.59589e-07
1.36006e-07
1.12042e-07
8.62162e-08
6.62919e-08
6.14239e-08
6.24499e-08
7.15448e-08
9.31839e-08
1.18678e-07
1.43092e-07
1.68025e-07
1.9205e-07
2.06976e-07
1.99694e-07
1.73104e-07
2.29065e-07
2.04153e-07
1.93903e-07
1.7879e-07
1.56738e-07
1.32784e-07
1.10651e-07
9.33805e-08
8.23543e-08
7.96275e-08
7.98557e-08
8.42922e-08
9.69713e-08
1.15875e-07
1.39267e-07
1.64768e-07
1.89207e-07
2.08372e-07
2.26782e-07
2.66965e-07
5.11681e-07
3.40243e-07
2.45022e-07
2.01501e-07
1.6978e-07
1.41171e-07
1.16651e-07
9.80131e-08
8.83134e-08
9.33686e-08
9.26311e-08
8.87336e-08
1.00142e-07
1.20271e-07
1.46066e-07
1.76239e-07
2.1031e-07
2.57462e-07
3.59267e-07
5.40303e-07
8.17665e-07
5.60672e-07
3.4242e-07
2.59815e-07
2.20515e-07
1.92345e-07
1.69718e-07
1.52067e-07
1.38681e-07
1.41865e-07
1.4145e-07
1.38817e-07
1.53429e-07
1.72519e-07
1.96637e-07
2.26332e-07
2.66919e-07
3.51645e-07
5.78895e-07
8.37323e-07
1.13414e-06
8.96078e-07
5.58022e-07
5.22503e-07
5.85861e-07
6.55174e-07
7.00667e-07
6.87798e-07
5.80678e-07
4.23489e-07
4.15273e-07
5.77382e-07
6.8943e-07
7.04655e-07
6.62133e-07
5.95997e-07
5.30655e-07
5.5988e-07
9.02436e-07
1.146e-06
1.49097e-06
1.47368e-06
1.95665e-06
2.61887e-06
3.62645e-06
4.55007e-06
5.20659e-06
5.33104e-06
4.55879e-06
3.2157e-06
3.13776e-06
4.48809e-06
5.29107e-06
5.16389e-06
4.50812e-06
3.62084e-06
2.63121e-06
1.96736e-06
1.48127e-06
1.49828e-06
1.8855e-06
2.54272e-06
3.2073e-06
3.88395e-06
4.60075e-06
5.27568e-06
5.85867e-06
6.28171e-06
6.47532e-06
6.42403e-06
6.30635e-06
6.37168e-06
6.20175e-06
5.79768e-06
5.23079e-06
4.572e-06
3.86733e-06
3.19744e-06
2.5372e-06
1.88217e-06
9.77123e-09
2.03611e-08
3.30508e-08
4.23106e-08
4.61084e-08
4.63325e-08
4.44157e-08
4.18571e-08
4.09901e-08
4.60931e-08
4.46995e-08
4.23181e-08
4.4901e-08
4.77979e-08
4.94174e-08
4.83764e-08
4.32879e-08
3.37284e-08
2.2215e-08
9.76689e-09
2.18636e-08
3.92832e-08
5.92507e-08
6.2183e-08
5.99495e-08
5.42805e-08
4.81577e-08
4.41634e-08
4.82278e-08
7.08222e-08
6.53573e-08
4.82572e-08
4.77531e-08
5.26704e-08
5.88805e-08
6.42607e-08
6.59418e-08
6.20892e-08
4.50609e-08
2.11021e-08
5.95933e-08
1.27356e-07
1.40338e-07
1.33266e-07
1.13313e-07
8.91696e-08
6.83157e-08
5.44927e-08
5.26875e-08
7.03886e-08
6.63714e-08
5.4435e-08
6.047e-08
7.61482e-08
9.75842e-08
1.21253e-07
1.40249e-07
1.46619e-07
1.33834e-07
8.04052e-08
9.66659e-08
1.26809e-07
1.41254e-07
1.3963e-07
1.29012e-07
1.1205e-07
9.11465e-08
7.14686e-08
6.41643e-08
8.50777e-08
8.07417e-08
6.71123e-08
7.82781e-08
9.87639e-08
1.19494e-07
1.36864e-07
1.48625e-07
1.51283e-07
1.38352e-07
1.14037e-07
1.57487e-07
1.40958e-07
1.39789e-07
1.35654e-07
1.25065e-07
1.10659e-07
9.606e-08
8.38207e-08
8.06027e-08
1.12767e-07
1.06094e-07
8.1397e-08
8.71033e-08
1.00603e-07
1.16467e-07
1.32161e-07
1.44327e-07
1.50681e-07
1.56537e-07
1.84799e-07
4.45645e-07
2.66935e-07
1.84222e-07
1.52777e-07
1.33733e-07
1.16662e-07
1.01252e-07
9.02082e-08
9.16554e-08
1.44584e-07
1.36973e-07
9.0928e-08
9.18874e-08
1.04397e-07
1.20912e-07
1.39003e-07
1.59163e-07
1.92471e-07
2.81535e-07
4.72729e-07
7.7771e-07
4.55035e-07
2.70081e-07
2.05752e-07
1.8222e-07
1.69738e-07
1.60649e-07
1.54587e-07
1.57001e-07
2.23284e-07
2.18498e-07
1.57084e-07
1.56377e-07
1.63689e-07
1.73686e-07
1.86532e-07
2.09843e-07
2.75211e-07
4.69413e-07
7.95413e-07
1.12429e-06
8.54295e-07
5.07296e-07
4.93335e-07
5.91717e-07
7.0064e-07
7.76449e-07
7.63662e-07
6.21798e-07
4.85448e-07
4.77616e-07
6.21184e-07
7.67538e-07
7.80892e-07
7.0623e-07
5.98725e-07
4.97747e-07
5.06217e-07
8.59899e-07
1.13366e-06
1.51352e-06
1.48071e-06
1.95908e-06
2.80393e-06
4.05959e-06
5.20599e-06
6.04548e-06
6.06529e-06
4.7148e-06
3.2525e-06
3.18407e-06
4.66672e-06
6.04876e-06
6.01328e-06
5.16646e-06
4.04607e-06
2.80737e-06
1.96417e-06
1.48333e-06
1.517e-06
1.96123e-06
2.68353e-06
3.42075e-06
4.19518e-06
5.04053e-06
5.85852e-06
6.5967e-06
7.19206e-06
7.611e-06
7.90476e-06
7.74989e-06
7.48664e-06
7.09638e-06
6.52131e-06
5.79976e-06
4.99817e-06
4.16666e-06
3.40098e-06
2.67042e-06
1.95313e-06
8.71717e-09
1.58162e-08
2.25182e-08
3.1158e-08
3.64645e-08
3.97002e-08
4.18578e-08
4.44503e-08
4.89815e-08
5.9789e-08
5.76344e-08
4.9971e-08
4.73553e-08
4.51027e-08
4.26856e-08
3.88088e-08
3.26325e-08
2.41856e-08
1.59984e-08
8.50152e-09
2.05985e-08
3.04375e-08
4.0093e-08
4.56369e-08
4.61056e-08
4.47579e-08
4.41663e-08
4.79839e-08
6.53852e-08
1.11963e-07
1.00707e-07
6.19147e-08
5.01795e-08
4.79443e-08
4.89832e-08
5.03925e-08
4.98318e-08
4.43431e-08
3.33968e-08
2.03051e-08
2.66594e-08
7.0133e-08
8.56584e-08
8.41913e-08
7.42723e-08
6.28954e-08
5.44949e-08
5.36269e-08
7.36539e-08
1.92384e-07
1.74306e-07
7.0038e-08
5.72292e-08
6.0753e-08
7.06093e-08
8.28979e-08
9.30023e-08
9.46071e-08
8.17851e-08
2.78657e-08
5.44473e-08
8.52263e-08
1.03443e-07
1.07332e-07
1.00503e-07
8.623e-08
7.14739e-08
6.49448e-08
9.47418e-08
3.60715e-07
3.22891e-07
8.86181e-08
6.94368e-08
7.88895e-08
9.45919e-08
1.08797e-07
1.15497e-07
1.11661e-07
9.45639e-08
6.73712e-08
1.00093e-07
9.57906e-08
1.0168e-07
1.04272e-07
1.01085e-07
9.33958e-08
8.38295e-08
7.91777e-08
1.28389e-07
6.81871e-07
5.8798e-07
1.16819e-07
8.1318e-08
8.77739e-08
9.80148e-08
1.06413e-07
1.10388e-07
1.087e-07
1.0548e-07
1.18764e-07
3.79827e-07
2.08628e-07
1.39939e-07
1.17361e-07
1.06794e-07
9.80253e-08
9.02122e-08
8.97329e-08
1.63176e-07
1.02592e-06
9.00374e-07
1.47399e-07
8.9693e-08
9.21864e-08
1.00836e-07
1.10087e-07
1.21001e-07
1.44817e-07
2.19706e-07
4.05261e-07
7.24544e-07
3.78175e-07
2.16793e-07
1.64887e-07
1.5243e-07
1.52083e-07
1.54589e-07
1.64591e-07
2.6337e-07
1.33432e-06
1.20176e-06
2.47911e-07
1.64922e-07
1.56722e-07
1.54566e-07
1.54554e-07
1.66232e-07
2.18567e-07
3.854e-07
7.39896e-07
1.08475e-06
7.66382e-07
4.43078e-07
4.43058e-07
5.60801e-07
6.87735e-07
7.6361e-07
7.16367e-07
6.2125e-07
1.53669e-06
1.41869e-06
6.1479e-07
7.25062e-07
7.70147e-07
6.93036e-07
5.65825e-07
4.46254e-07
4.42892e-07
7.75256e-07
1.09117e-06
1.48952e-06
1.42285e-06
1.8286e-06
2.76048e-06
4.12928e-06
5.33022e-06
6.06449e-06
5.50146e-06
3.79559e-06
5.46422e-06
5.22212e-06
3.81294e-06
5.55251e-06
6.06501e-06
5.31228e-06
4.11735e-06
2.76552e-06
1.83634e-06
1.42175e-06
1.48853e-06
1.98645e-06
2.74904e-06
3.53334e-06
4.37628e-06
5.3304e-06
6.28144e-06
7.19179e-06
8.0475e-06
8.96166e-06
1.03247e-05
1.00846e-05
8.80278e-06
7.92944e-06
7.0978e-06
6.20623e-06
5.27263e-06
4.33478e-06
3.5025e-06
2.72705e-06
1.97266e-06
8.72797e-09
1.66968e-08
1.69112e-08
2.40915e-08
2.99648e-08
3.51994e-08
4.10036e-08
4.89904e-08
5.55794e-08
6.76544e-08
6.57196e-08
5.62258e-08
5.0718e-08
4.30498e-08
3.71161e-08
3.15555e-08
2.53533e-08
1.69089e-08
1.6303e-08
8.60109e-09
2.04091e-08
2.16768e-08
2.80374e-08
3.43665e-08
3.86475e-08
4.16053e-08
4.82311e-08
6.53929e-08
1.06713e-07
7.76946e-07
7.00498e-07
9.97927e-08
6.39221e-08
4.96218e-08
4.39677e-08
4.14881e-08
3.79007e-08
3.04313e-08
2.26678e-08
2.04799e-08
3.0173e-08
3.32383e-08
4.77357e-08
5.37092e-08
5.2651e-08
5.03002e-08
5.26955e-08
7.36672e-08
2.3605e-07
2.9101e-06
2.67885e-06
2.18071e-07
7.21348e-08
5.57947e-08
5.50673e-08
5.84737e-08
6.04856e-08
5.42978e-08
3.75678e-08
3.00865e-08
3.06881e-08
5.8404e-08
7.54065e-08
7.8687e-08
7.3848e-08
6.62994e-08
6.4176e-08
9.47601e-08
5.10162e-07
6.03171e-06
5.56647e-06
4.45974e-07
9.10556e-08
6.85953e-08
7.27314e-08
8.1246e-08
8.61855e-08
8.21176e-08
6.4756e-08
3.20625e-08
5.88174e-08
6.70019e-08
7.86866e-08
8.53658e-08
8.63652e-08
8.23771e-08
8.06229e-08
1.28407e-07
1.00077e-06
1.04136e-05
9.61169e-06
8.62986e-07
1.19668e-07
8.32105e-08
8.57178e-08
8.937e-08
8.79698e-08
8.08169e-08
7.04878e-08
6.88186e-08
3.20517e-07
1.67616e-07
1.09295e-07
9.27027e-08
8.92562e-08
8.83263e-08
9.16602e-08
1.63158e-07
1.54037e-06
1.48526e-05
1.36696e-05
1.31285e-06
1.48692e-07
9.1619e-08
8.91244e-08
9.00232e-08
9.36715e-08
1.12073e-07
1.77683e-07
3.46616e-07
6.62301e-07
3.28959e-07
1.79881e-07
1.33204e-07
1.28181e-07
1.38701e-07
1.57005e-07
2.63323e-07
2.03373e-06
1.76439e-05
1.62089e-05
1.75713e-06
2.47008e-07
1.5701e-07
1.39401e-07
1.28481e-07
1.33206e-07
1.81192e-07
3.35168e-07
6.74792e-07
1.01503e-06
6.64396e-07
3.69484e-07
3.62096e-07
4.70269e-07
5.80726e-07
6.21867e-07
6.21262e-07
2.29464e-06
1.69201e-05
1.55535e-05
2.02572e-06
6.17637e-07
6.29878e-07
5.85849e-07
4.7407e-07
3.64571e-07
3.70248e-07
6.72437e-07
1.01703e-06
1.40971e-06
1.2864e-06
1.51454e-06
2.37806e-06
3.62087e-06
4.55904e-06
4.71567e-06
3.79564e-06
5.18039e-06
1.33676e-05
1.25906e-05
4.87261e-06
3.82323e-06
4.74717e-06
4.54696e-06
3.604e-06
2.37718e-06
1.52453e-06
1.27944e-06
1.40228e-06
1.94105e-06
2.70644e-06
3.49829e-06
4.36537e-06
5.39878e-06
6.47513e-06
7.61041e-06
8.96077e-06
1.10061e-05
1.40745e-05
1.3746e-05
1.07392e-05
8.78485e-06
7.48034e-06
6.37286e-06
5.31897e-06
4.30611e-06
3.45278e-06
2.67284e-06
1.9199e-06
1.29263e-08
1.24087e-08
2.07041e-08
2.22163e-08
2.84449e-08
3.56494e-08
4.6077e-08
5.9788e-08
6.76569e-08
7.52129e-08
7.3992e-08
6.7398e-08
5.97041e-08
4.63367e-08
3.60835e-08
2.89494e-08
2.27371e-08
2.15998e-08
1.24564e-08
1.18622e-08
2.33839e-08
2.06435e-08
2.39766e-08
3.11244e-08
4.01974e-08
4.84553e-08
7.08054e-08
1.11989e-07
7.76942e-07
1.13276e-06
1.09268e-06
7.28857e-07
1.06305e-07
6.90753e-08
4.83128e-08
4.0972e-08
3.26204e-08
2.4851e-08
2.06679e-08
2.27674e-08
3.45213e-08
2.82315e-08
3.45789e-08
4.17535e-08
4.71982e-08
5.11829e-08
7.03937e-08
1.92428e-07
2.90988e-06
2.50026e-06
2.44898e-06
2.7273e-06
1.8085e-07
6.9415e-08
5.21848e-08
4.94898e-08
4.46728e-08
3.71475e-08
2.96145e-08
3.43963e-08
4.26038e-08
4.23998e-08
5.23158e-08
5.89287e-08
6.10512e-08
6.14404e-08
8.50923e-08
3.60736e-07
6.03085e-06
4.32575e-06
4.3055e-06
5.61375e-06
3.32074e-07
8.35249e-08
6.32479e-08
6.40173e-08
6.25426e-08
5.61983e-08
4.63367e-08
4.17993e-08
4.10552e-08
5.65607e-08
7.03869e-08
7.78855e-08
7.95742e-08
7.96518e-08
1.12781e-07
6.81763e-07
1.04112e-05
6.71247e-06
6.77924e-06
9.62511e-06
6.0232e-07
1.08601e-07
8.04928e-08
8.02975e-08
7.765e-08
6.87131e-08
5.51629e-08
4.44536e-08
2.74847e-07
1.47145e-07
9.53693e-08
8.10947e-08
8.39727e-08
9.33786e-08
1.4456e-07
1.02533e-06
1.48472e-05
9.48805e-06
9.69278e-06
1.36117e-05
9.00061e-07
1.3649e-07
9.15386e-08
8.22906e-08
8.02006e-08
9.77245e-08
1.58609e-07
3.03485e-07
5.91931e-07
2.98293e-07
1.5871e-07
1.12528e-07
1.14029e-07
1.41887e-07
2.23224e-07
1.33327e-06
1.76355e-05
1.22238e-05
1.26166e-05
1.60704e-05
1.18465e-06
2.15087e-07
1.40185e-07
1.12642e-07
1.11931e-07
1.60289e-07
3.0434e-07
6.00036e-07
9.08552e-07
5.54199e-07
2.90364e-07
2.64547e-07
3.42683e-07
4.23783e-07
4.8558e-07
1.53539e-06
1.69087e-05
1.36288e-05
1.41847e-05
1.53491e-05
1.39139e-06
4.83474e-07
4.25582e-07
3.42307e-07
2.63252e-07
2.89856e-07
5.59889e-07
9.03823e-07
1.25761e-06
1.04923e-06
1.01822e-06
1.74638e-06
2.67193e-06
3.21837e-06
3.25376e-06
5.46174e-06
1.33602e-05
1.40918e-05
1.45628e-05
1.24186e-05
5.14863e-06
3.18994e-06
3.19009e-06
2.63196e-06
1.71145e-06
1.00959e-06
1.03257e-06
1.24034e-06
1.77133e-06
2.50049e-06
3.23703e-06
4.11391e-06
5.21504e-06
6.42435e-06
7.90382e-06
1.03216e-05
1.407e-05
1.4694e-05
1.50076e-05
1.36532e-05
1.00038e-05
7.70002e-06
6.28057e-06
5.10564e-06
4.03039e-06
3.17495e-06
2.45372e-06
1.73984e-06
8.96137e-09
1.7599e-08
1.48256e-08
2.17371e-08
2.79913e-08
3.49223e-08
4.47279e-08
5.76552e-08
6.5742e-08
7.39968e-08
7.39586e-08
6.65185e-08
5.8678e-08
4.55105e-08
3.55387e-08
2.85884e-08
2.22568e-08
1.52341e-08
1.85317e-08
9.05223e-09
1.94471e-08
1.95166e-08
2.44913e-08
3.14423e-08
3.97623e-08
4.64655e-08
6.53481e-08
1.00622e-07
6.99946e-07
1.09204e-06
1.08459e-06
7.0617e-07
1.03134e-07
6.70038e-08
4.73163e-08
4.04406e-08
3.19705e-08
2.52219e-08
2.00484e-08
2.00433e-08
3.30178e-08
2.8653e-08
3.61572e-08
4.41483e-08
4.87186e-08
5.09852e-08
6.63818e-08
1.74123e-07
2.67595e-06
2.44801e-06
2.42342e-06
2.63825e-06
1.73698e-07
6.69962e-08
5.13739e-08
4.93112e-08
4.49426e-08
3.72794e-08
2.95378e-08
3.35273e-08
4.13122e-08
4.41117e-08
5.48344e-08
6.20414e-08
6.35623e-08
6.25121e-08
8.07485e-08
3.22341e-07
5.55828e-06
4.3047e-06
4.25372e-06
5.40679e-06
3.14401e-07
8.00596e-08
6.23947e-08
6.37618e-08
6.26823e-08
5.6439e-08
4.654e-08
4.12644e-08
4.15059e-08
5.59691e-08
7.03403e-08
7.84614e-08
8.01668e-08
7.98931e-08
1.06049e-07
5.86277e-07
9.59429e-06
6.77944e-06
6.69489e-06
9.23895e-06
5.5762e-07
1.03175e-07
7.87109e-08
7.87817e-08
7.61634e-08
6.75915e-08
5.59135e-08
5.40509e-08
2.9234e-07
1.54357e-07
9.66893e-08
8.03102e-08
8.32451e-08
9.26228e-08
1.36872e-07
8.97732e-07
1.36415e-05
9.69486e-06
9.57513e-06
1.30313e-05
8.3493e-07
1.29845e-07
8.92615e-08
8.07063e-08
7.93808e-08
9.8761e-08
1.63786e-07
3.14767e-07
6.00192e-07
3.03951e-07
1.60145e-07
1.11475e-07
1.12701e-07
1.41439e-07
2.18403e-07
1.19881e-06
1.61733e-05
1.26217e-05
1.24768e-05
1.53659e-05
1.11239e-06
2.08297e-07
1.37552e-07
1.10843e-07
1.11387e-07
1.61911e-07
3.08907e-07
6.04264e-07
9.10317e-07
5.62447e-07
2.89644e-07
2.58104e-07
3.33491e-07
4.15118e-07
4.77392e-07
1.41566e-06
1.55192e-05
1.41933e-05
1.40601e-05
1.46584e-05
1.32297e-06
4.72559e-07
4.15567e-07
3.3305e-07
2.57252e-07
2.88686e-07
5.64594e-07
9.002e-07
1.25229e-06
1.0442e-06
1.01295e-06
1.6933e-06
2.59627e-06
3.1367e-06
3.18288e-06
5.21521e-06
1.25693e-05
1.45696e-05
1.44014e-05
1.1991e-05
4.98707e-06
3.11513e-06
3.1174e-06
2.56229e-06
1.65852e-06
9.9664e-07
1.02169e-06
1.22815e-06
1.7566e-06
2.4736e-06
3.19552e-06
4.04652e-06
5.12163e-06
6.30346e-06
7.74566e-06
1.00774e-05
1.37356e-05
1.50117e-05
1.48406e-05
1.33278e-05
9.76938e-06
7.5346e-06
6.15318e-06
5.00498e-06
3.95378e-06
3.12257e-06
2.41638e-06
1.7159e-06
8.29334e-09
1.26764e-08
2.02743e-08
2.46698e-08
3.07591e-08
3.64291e-08
4.23578e-08
5.00287e-08
5.62714e-08
6.73881e-08
6.65543e-08
5.61877e-08
5.03113e-08
4.26405e-08
3.67516e-08
3.12058e-08
2.53105e-08
1.99317e-08
1.25153e-08
9.11936e-09
1.97401e-08
2.16396e-08
2.95192e-08
3.74154e-08
4.09241e-08
4.32532e-08
4.83042e-08
6.19435e-08
9.97164e-08
7.27715e-07
7.06988e-07
9.90032e-08
6.26991e-08
4.87925e-08
4.35264e-08
4.12274e-08
3.8028e-08
3.04115e-08
2.27622e-08
2.05895e-08
2.86259e-08
3.52755e-08
5.24119e-08
5.92748e-08
5.77235e-08
5.44033e-08
5.45193e-08
7.00546e-08
2.17768e-07
2.7231e-06
2.64024e-06
2.12137e-07
7.0074e-08
5.50411e-08
5.50697e-08
5.88425e-08
6.10659e-08
5.53096e-08
3.89359e-08
2.99461e-08
2.99664e-08
6.25951e-08
7.94966e-08
8.3892e-08
7.96486e-08
7.1688e-08
6.72208e-08
8.8581e-08
4.44748e-07
5.60374e-06
5.40999e-06
4.24878e-07
8.72609e-08
6.75673e-08
7.24395e-08
8.09406e-08
8.56941e-08
8.15555e-08
6.45717e-08
3.39371e-08
6.43915e-08
6.80923e-08
7.99414e-08
8.70783e-08
8.81982e-08
8.43644e-08
8.14567e-08
1.16659e-07
8.59985e-07
9.60544e-06
9.24313e-06
8.06907e-07
1.12788e-07
8.08363e-08
8.37876e-08
8.73764e-08
8.61386e-08
7.95959e-08
7.13336e-08
7.71478e-08
3.4506e-07
1.7634e-07
1.10567e-07
9.24734e-08
8.93939e-08
8.87511e-08
9.09351e-08
1.47113e-07
1.3077e-06
1.35803e-05
1.30363e-05
1.21292e-06
1.39607e-07
8.90244e-08
8.72623e-08
8.83738e-08
9.25836e-08
1.12971e-07
1.83572e-07
3.58825e-07
6.72658e-07
3.35172e-07
1.80327e-07
1.31316e-07
1.26832e-07
1.38794e-07
1.57061e-07
2.47544e-07
1.7507e-06
1.60302e-05
1.53711e-05
1.62724e-06
2.35649e-07
1.53691e-07
1.36878e-07
1.26146e-07
1.31708e-07
1.81782e-07
3.38252e-07
6.74048e-07
1.01381e-06
6.7167e-07
3.67587e-07
3.58545e-07
4.65714e-07
5.77039e-07
6.2087e-07
6.14437e-07
2.01925e-06
1.53086e-05
1.46636e-05
1.8895e-06
6.07431e-07
6.2145e-07
5.74852e-07
4.63762e-07
3.57361e-07
3.65602e-07
6.70603e-07
1.00335e-06
1.39777e-06
1.27222e-06
1.51175e-06
2.36069e-06
3.56206e-06
4.48437e-06
4.66336e-06
3.8124e-06
4.86374e-06
1.23944e-05
1.1993e-05
4.64195e-06
3.79492e-06
4.6975e-06
4.45977e-06
3.52022e-06
2.3249e-06
1.49474e-06
1.25218e-06
1.37585e-06
1.91975e-06
2.67365e-06
3.45225e-06
4.30301e-06
5.31254e-06
6.3678e-06
7.48188e-06
8.79691e-06
1.07304e-05
1.36408e-05
1.33292e-05
1.04568e-05
8.59401e-06
7.32961e-06
6.24461e-06
5.21077e-06
4.21992e-06
3.38495e-06
2.62112e-06
1.88255e-06
8.26553e-09
1.51559e-08
2.20544e-08
3.15586e-08
3.81356e-08
4.23407e-08
4.49702e-08
4.74336e-08
5.07659e-08
5.96859e-08
5.8713e-08
5.03219e-08
4.7368e-08
4.50203e-08
4.25429e-08
3.85593e-08
3.22415e-08
2.34024e-08
1.56943e-08
8.55077e-09
1.96756e-08
3.19441e-08
4.34036e-08
4.8979e-08
4.99764e-08
4.88087e-08
4.78368e-08
5.02517e-08
6.38834e-08
1.06126e-07
1.03276e-07
6.27422e-08
5.02169e-08
4.78921e-08
4.89811e-08
5.03863e-08
4.97958e-08
4.46828e-08
3.31445e-08
2.02598e-08
2.66871e-08
7.7096e-08
9.07039e-08
9.04e-08
8.15894e-08
7.0153e-08
6.06128e-08
5.73255e-08
7.20734e-08
1.80524e-07
1.73899e-07