/*--------------------------------*- C++ -*----------------------------------*\
| =========                 |                                                 |
| \\      /  F ield         | OpenFOAM: The Open Source CFD Toolbox           |
|  \\    /   O peration     | Version:  v1912                                 |
|   \\  /    A nd           | Website:  www.openfoam.com                      |
|    \\/     M anipulation  |                                                 |
\*---------------------------------------------------------------------------*/
FoamFile
{
    version     2.0;
    format      ascii;
    class       volScalarField;
    location    "600";
    object      k;
}
// * * * * * * * * * * * * * * * * * * * * * * * * * * * * * * * * * * * * * //

dimensions      [0 2 -2 0 0 0 0];


internalField   nonuniform List<scalar> 
4000
(
4.45676e-05
3.8889e-05
3.11531e-05
9.9441e-06
4.58187e-06
3.89158e-06
3.3374e-06
3.09293e-06
3.09415e-06
4.01691e-06
3.1506e-06
2.9928e-06
2.98608e-06
3.22276e-06
3.89616e-06
5.02606e-06
1.94148e-05
3.37721e-05
4.05921e-05
4.58359e-05
5.02238e-05
4.42891e-05
3.47568e-05
2.4654e-05
1.85869e-05
7.18051e-06
5.71102e-06
5.48764e-06
5.45557e-06
5.96977e-06
5.28314e-06
5.33538e-06
5.32319e-06
5.46452e-06
7.88922e-06
1.85797e-05
2.5968e-05
3.588e-05
4.51261e-05
5.11753e-05
5.39318e-05
4.9218e-05
4.05361e-05
3.18976e-05
2.50238e-05
1.82758e-05
1.11384e-05
6.5151e-06
7.07537e-06
7.74212e-06
7.51804e-06
6.83356e-06
6.5185e-06
1.26526e-05
1.84998e-05
2.45846e-05
3.12209e-05
4.05494e-05
4.97202e-05
5.47035e-05
5.63143e-05
5.29344e-05
4.52634e-05
3.61878e-05
2.74538e-05
2.11455e-05
1.53763e-05
1.04881e-05
7.15109e-06
8.90638e-06
8.73118e-06
7.03236e-06
1.16357e-05
1.65694e-05
2.19578e-05
2.80734e-05
3.63754e-05
4.55606e-05
5.34017e-05
5.69841e-05
5.81753e-05
5.65633e-05
5.14647e-05
4.40832e-05
3.54016e-05
2.73324e-05
2.12981e-05
1.57491e-05
1.1038e-05
8.68946e-06
8.74941e-06
1.17145e-05
1.69919e-05
2.2875e-05
2.91734e-05
3.69684e-05
4.49684e-05
5.19925e-05
5.706e-05
5.8789e-05
5.98877e-05
6.03704e-05
5.83518e-05
5.47848e-05
5.07799e-05
4.67123e-05
4.26087e-05
3.83147e-05
3.42433e-05
3.09185e-05
3.21685e-05
3.5908e-05
3.97351e-05
4.38714e-05
4.78775e-05
5.1813e-05
5.5594e-05
5.90091e-05
6.09733e-05
6.04677e-05
6.17803e-05
6.46503e-05
6.58993e-05
6.58881e-05
6.52295e-05
6.38456e-05
6.17512e-05
5.89068e-05
5.5486e-05
5.1482e-05
5.19426e-05
5.60474e-05
5.95496e-05
6.24469e-05
6.45923e-05
6.59905e-05
6.66196e-05
6.65858e-05
6.52999e-05
6.23335e-05
6.40184e-05
6.94504e-05
7.37529e-05
7.6694e-05
7.86479e-05
7.94034e-05
7.8943e-05
7.70801e-05
7.37366e-05
6.84782e-05
6.85636e-05
7.36829e-05
7.72136e-05
7.92437e-05
7.98539e-05
7.92122e-05
7.73358e-05
7.44256e-05
7.01119e-05
6.45408e-05
6.69169e-05
7.5459e-05
8.2761e-05
8.83827e-05
9.26592e-05
9.52848e-05
9.62428e-05
9.52191e-05
9.17771e-05
8.5037e-05
8.48054e-05
9.12792e-05
9.50136e-05
9.63083e-05
9.5569e-05
9.31081e-05
8.89576e-05
8.34025e-05
7.60967e-05
6.74029e-05
7.12067e-05
8.29188e-05
9.29436e-05
0.000100674
0.000106839
0.000111427
0.000114389
0.000115363
0.000113586
0.000106844
0.000106271
0.000112785
0.000114884
0.000114207
0.000111489
0.000107099
0.000101089
9.34636e-05
8.34708e-05
7.16406e-05
3.89006e-05
3.43387e-05
2.8046e-05
9.30685e-06
7.94016e-06
7.71299e-06
5.44456e-06
4.60177e-06
4.7663e-06
3.91655e-06
4.94389e-06
3.96777e-06
4.47106e-06
5.56477e-06
7.7461e-06
7.78035e-06
1.79775e-05
3.14709e-05
3.84376e-05
4.10087e-05
4.43042e-05
6.13125e-05
4.18314e-05
3.1258e-05
2.81508e-05
2.05912e-05
1.14367e-05
1.00753e-05
9.15768e-06
9.08035e-06
8.98301e-06
8.83727e-06
1.01428e-05
1.20278e-05
1.97986e-05
2.53384e-05
2.9817e-05
4.41563e-05
6.16992e-05
4.58919e-05
4.92334e-05
7.19217e-05
6.51729e-05
4.72741e-05
3.5636e-05
2.82853e-05
2.26402e-05
1.64699e-05
1.16703e-05
1.15463e-05
1.14059e-05
1.1648e-05
1.69536e-05
2.26167e-05
2.77841e-05
3.47354e-05
4.73477e-05
6.66095e-05
7.14042e-05
5.05099e-05
5.29475e-05
6.58162e-05
6.2377e-05
4.97485e-05
3.73651e-05
2.88483e-05
2.24882e-05
1.7693e-05
1.51837e-05
1.42309e-05
1.42843e-05
1.54295e-05
1.82184e-05
2.30922e-05
2.9391e-05
3.80081e-05
5.08554e-05
6.33291e-05
6.66015e-05
5.40803e-05
5.65726e-05
6.66438e-05
6.33885e-05
5.27997e-05
3.95072e-05
2.99959e-05
2.33337e-05
1.81423e-05
1.48498e-05
1.46627e-05
1.464e-05
1.48715e-05
1.86576e-05
2.41985e-05
3.10212e-05
4.05709e-05
5.3384e-05
6.42361e-05
6.76389e-05
5.75651e-05
6.03744e-05
7.01924e-05
6.87471e-05
6.17876e-05
5.14541e-05
4.07227e-05
3.37327e-05
2.80199e-05
2.39729e-05
2.2352e-05
2.29842e-05
2.46239e-05
2.86092e-05
3.43892e-05
4.13667e-05
5.20942e-05
6.22808e-05
6.94572e-05
7.11668e-05
6.12317e-05
6.46498e-05
7.4561e-05
7.50884e-05
7.2438e-05
6.7843e-05
5.98164e-05
4.96932e-05
4.23574e-05
3.77347e-05
3.5117e-05
3.56273e-05
3.83028e-05
4.27717e-05
5.0331e-05
6.04319e-05
6.83354e-05
7.3008e-05
7.57406e-05
7.54894e-05
6.53557e-05
6.9447e-05
8.01806e-05
8.35007e-05
8.5876e-05
8.83753e-05
8.79905e-05
8.45711e-05
7.70047e-05
6.79234e-05
5.84762e-05
5.92234e-05
6.86887e-05
7.76613e-05
8.48029e-05
8.83187e-05
8.88677e-05
8.66092e-05
8.42422e-05
8.11181e-05
7.00363e-05
7.54546e-05
8.95326e-05
9.97084e-05
0.000107576
0.000114046
0.000117126
0.000116934
0.000112409
0.000102559
8.64808e-05
8.6265e-05
0.000101736
0.000112039
0.000116899
0.000117364
0.000114495
0.000108278
0.000100539
9.04313e-05
7.59596e-05
8.2913e-05
9.71139e-05
0.00010982
0.000120206
0.000128998
0.000136002
0.000140977
0.000143258
0.000141761
0.000134452
0.000133517
0.000140656
0.000142518
0.000140585
0.000135901
0.000129136
0.000120531
0.000110261
9.75786e-05
8.32437e-05
3.11745e-05
2.8059e-05
2.15553e-05
9.96939e-06
1.12595e-05
1.06619e-05
7.51547e-06
5.82202e-06
4.80774e-06
5.51287e-06
4.40799e-06
5.42998e-06
5.73847e-06
7.38774e-06
1.03663e-05
1.03808e-05
1.03364e-05
2.37811e-05
3.15923e-05
3.42173e-05
3.47758e-05
4.18378e-05
3.25567e-05
2.9697e-05
2.94087e-05
2.27261e-05
1.53998e-05
1.26173e-05
1.09717e-05
1.10058e-05
1.05956e-05
1.10418e-05
1.28834e-05
1.54245e-05
2.20781e-05
2.80118e-05
2.89717e-05
3.4544e-05
4.46781e-05
3.67969e-05
4.05554e-05
6.51971e-05
5.73045e-05
4.5076e-05
3.67469e-05
3.09877e-05
2.61933e-05
1.99977e-05
1.50875e-05
1.37221e-05
1.37945e-05
1.54574e-05
2.03112e-05
2.62567e-05
3.09619e-05
3.66715e-05
4.59385e-05
6.00477e-05
6.84036e-05
4.18206e-05
4.52857e-05
6.23968e-05
6.17063e-05
5.09146e-05
4.02236e-05
3.23285e-05
2.64208e-05
2.21744e-05
1.9447e-05
1.7079e-05
1.72617e-05
1.96324e-05
2.25836e-05
2.70506e-05
3.3066e-05
4.11851e-05
5.2404e-05
6.35651e-05
6.42813e-05
4.6789e-05
5.14804e-05
6.34057e-05
6.10331e-05
5.19845e-05
4.0678e-05
3.20387e-05
2.57694e-05
2.11474e-05
1.8715e-05
1.9349e-05
1.93459e-05
1.87413e-05
2.15364e-05
2.64444e-05
3.27943e-05
4.14289e-05
5.27749e-05
6.24394e-05
6.52228e-05
5.28678e-05
5.83597e-05
6.87604e-05
6.68125e-05
5.84192e-05
4.66516e-05
3.63359e-05
2.93088e-05
2.40104e-05
2.03692e-05
1.92847e-05
1.93843e-05
2.03571e-05
2.41142e-05
2.95866e-05
3.66735e-05
4.70135e-05
5.8885e-05
6.79054e-05
7.02849e-05
5.95288e-05
6.59001e-05
7.50998e-05
7.4968e-05
6.7677e-05
5.6613e-05
4.64391e-05
3.79311e-05
3.1553e-05
2.70787e-05
2.47583e-05
2.48938e-05
2.70692e-05
3.14081e-05
3.78354e-05
4.63867e-05
5.66437e-05
6.8052e-05
7.6032e-05
7.64971e-05
6.67784e-05
7.37494e-05
8.35094e-05
8.91352e-05
8.68445e-05
7.68761e-05
7.00784e-05
6.39412e-05
5.66331e-05
4.84957e-05
4.00196e-05
3.9967e-05
4.83657e-05
5.6455e-05
6.36084e-05
6.98248e-05
7.6908e-05
8.72324e-05
9.03739e-05
8.48867e-05
7.44101e-05
8.27555e-05
9.9713e-05
0.000121906
0.000141597
0.000156161
0.000161342
0.000161065
0.000152829
0.000133237
9.98087e-05
9.95352e-05
0.000132596
0.000152571
0.000160979
0.00016152
0.000156526
0.000142571
0.000123163
0.000100986
8.32953e-05
9.29357e-05
0.000109817
0.0001251
0.000138062
0.0001494
0.000158762
0.000165731
0.000169347
0.000168213
0.000159702
0.000158375
0.000166788
0.000168329
0.000165093
0.000158452
0.000149365
0.000138254
0.000125431
0.000110186
9.31959e-05
1.01491e-05
9.33272e-06
9.97495e-06
1.17434e-05
1.26867e-05
1.11152e-05
8.86647e-06
7.23098e-06
6.09153e-06
5.77101e-06
5.68688e-06
6.18566e-06
7.28914e-06
8.82589e-06
1.10045e-05
1.24011e-05
1.10546e-05
1.04182e-05
1.87382e-05
2.1074e-05
2.46487e-05
3.12437e-05
2.9696e-05
3.0228e-05
2.7661e-05
2.09014e-05
1.65106e-05
1.42003e-05
1.2868e-05
1.2936e-05
1.28886e-05
1.31112e-05
1.45587e-05
1.68e-05
2.10132e-05
2.73498e-05
2.95512e-05
2.90459e-05
3.02169e-05
2.69649e-05
3.19018e-05
4.72816e-05
4.50765e-05
3.9667e-05
3.48618e-05
3.12783e-05
2.67331e-05
2.08214e-05
1.6951e-05
1.58966e-05
1.6033e-05
1.75006e-05
2.13734e-05
2.69912e-05
3.1354e-05
3.49765e-05
4.01857e-05
4.6356e-05
4.87972e-05
3.22321e-05
3.62126e-05
4.97784e-05
5.09268e-05
4.50032e-05
3.80759e-05
3.23539e-05
2.77413e-05
2.41651e-05
2.11107e-05
1.91529e-05
1.94119e-05
2.14911e-05
2.46185e-05
2.84168e-05
3.32144e-05
3.92383e-05
4.6647e-05
5.31359e-05
5.25287e-05
3.77787e-05
4.41026e-05
5.28299e-05
5.20018e-05
4.62111e-05
3.87257e-05
3.21782e-05
2.70003e-05
2.31455e-05
2.13282e-05
2.20281e-05
2.20212e-05
2.13937e-05
2.35757e-05
2.76998e-05
3.29947e-05
3.96577e-05
4.74316e-05
5.37473e-05
5.51307e-05
4.60603e-05
5.47941e-05
6.18109e-05
5.8437e-05
5.14637e-05
4.26569e-05
3.4524e-05
2.83689e-05
2.36972e-05
2.05235e-05
1.96841e-05
1.95541e-05
2.03989e-05
2.38148e-05
2.87087e-05
3.49866e-05
4.3257e-05
5.23573e-05
5.99741e-05
6.37892e-05
5.62514e-05
6.58889e-05
7.24509e-05
6.76946e-05
5.96551e-05
5.0607e-05
4.18493e-05
3.47127e-05
2.90937e-05
2.46756e-05
2.20852e-05
2.19353e-05
2.43958e-05
2.88696e-05
3.463e-05
4.19313e-05
5.0967e-05
6.04267e-05
6.9252e-05
7.40514e-05
6.68797e-05
7.66899e-05
8.58794e-05
8.68588e-05
7.95165e-05
7.48104e-05
7.01786e-05
6.52728e-05
5.87101e-05
4.96624e-05
3.93274e-05
3.87209e-05
4.9308e-05
5.8549e-05
6.51979e-05
7.03173e-05
7.53265e-05
8.04915e-05
8.85683e-05
8.72017e-05
7.73645e-05
8.83762e-05
0.000107579
0.000141601
0.00017373
0.000193327
0.000206917
0.00021361
0.000207749
0.000183667
0.000144672
0.000141789
0.000182697
0.000207441
0.000213494
0.000207286
0.000194389
0.000175534
0.000143208
0.00010892
8.88914e-05
0.000100665
0.000120201
0.000138059
0.000153735
0.000168003
0.000180364
0.000189879
0.000195306
0.000194971
0.00018738
0.000185388
0.000193178
0.000193965
0.000188951
0.000179809
0.000167775
0.000153767
0.000138236
0.000120428
0.000100825
4.58824e-06
7.94969e-06
1.12607e-05
1.26924e-05
1.23055e-05
1.08947e-05
9.39188e-06
8.03176e-06
7.04564e-06
6.8045e-06
6.73135e-06
7.16505e-06
8.26843e-06
9.60127e-06
1.10445e-05
1.22841e-05
1.24347e-05
1.04764e-05
7.92791e-06
5.33846e-06
1.85828e-05
2.8131e-05
2.94064e-05
2.76608e-05
2.32836e-05
1.92481e-05
1.6679e-05
1.47852e-05
1.42559e-05
1.56246e-05
1.51519e-05
1.42838e-05
1.52365e-05
1.71558e-05
1.97152e-05
2.36577e-05
2.74905e-05
2.81858e-05
2.55317e-05
1.92674e-05
2.50294e-05
3.56355e-05
3.67455e-05
3.48608e-05
3.26545e-05
2.9774e-05
2.51025e-05
2.0039e-05
1.74303e-05
1.76797e-05
1.75751e-05
1.78408e-05
2.08446e-05
2.56927e-05
2.99522e-05
3.26927e-05
3.51116e-05
3.70644e-05
3.55954e-05
2.54251e-05
2.74715e-05
3.73841e-05
4.02339e-05
3.8079e-05
3.43931e-05
3.07445e-05
2.74678e-05
2.41996e-05
2.1095e-05
2.02307e-05
2.03701e-05
2.16161e-05
2.4786e-05
2.81182e-05
3.15614e-05
3.54554e-05
3.94625e-05
4.18642e-05
3.9194e-05
2.92035e-05
3.54334e-05
3.95421e-05
4.06991e-05
3.87334e-05
3.47902e-05
3.05563e-05
2.67582e-05
2.3859e-05
2.26428e-05
2.31458e-05
2.30653e-05
2.2695e-05
2.42893e-05
2.74642e-05
3.14175e-05
3.58289e-05
4.0066e-05
4.25287e-05
4.2296e-05
3.82087e-05
5.07885e-05
5.14821e-05
4.66777e-05
4.26695e-05
3.76034e-05
3.22461e-05
2.75947e-05
2.39366e-05
2.17511e-05
2.20936e-05
2.19875e-05
2.17243e-05
2.4194e-05
2.80952e-05
3.29347e-05
3.85311e-05
4.39782e-05
4.85476e-05
5.38299e-05
5.24819e-05
6.52296e-05
6.78599e-05
5.66408e-05
5.06241e-05
4.521e-05
3.94012e-05
3.41452e-05
2.97568e-05
2.62092e-05
2.46368e-05
2.4492e-05
2.60442e-05
2.97785e-05
3.44104e-05
3.99561e-05
4.6159e-05
5.20189e-05
5.84405e-05
6.96567e-05
6.62753e-05
7.86432e-05
8.83759e-05
7.69092e-05
7.48306e-05
7.61028e-05
7.57024e-05
7.36567e-05
6.87255e-05
5.92662e-05
4.71057e-05
4.63397e-05
5.89042e-05
6.87721e-05
7.40324e-05
7.65183e-05
7.74602e-05
7.65785e-05
7.89542e-05
8.95708e-05
7.92794e-05
9.26522e-05
0.000114048
0.000156166
0.000193341
0.000228884
0.000258359
0.000275808
0.0002746
0.00024524
0.000192786
0.000189173
0.000242515
0.000273226
0.000274913
0.00025835
0.000230121
0.000195447
0.000157525
0.000115214
9.30895e-05
0.00010683
0.000128991
0.000149395
0.000168001
0.00018609
0.000201918
0.000214594
0.000222748
0.000224643
0.000219493
0.000216939
0.000222327
0.000220978
0.000213295
0.000201039
0.000185606
0.000167799
0.000149347
0.000129026
0.000106859
3.89502e-06
7.74055e-06
1.06367e-05
1.11214e-05
1.08952e-05
1.02702e-05
9.4234e-06
8.50073e-06
7.84387e-06
7.9095e-06
7.80058e-06
8.01946e-06
8.8638e-06
9.80025e-06
1.06021e-05
1.11243e-05
1.11886e-05
1.06456e-05
7.92361e-06
4.10109e-06
7.20194e-06
2.05839e-05
2.27322e-05
2.09014e-05
1.92483e-05
1.76708e-05
1.61553e-05
1.494e-05
1.52446e-05
1.7683e-05
1.68884e-05
1.5119e-05
1.54374e-05
1.67696e-05
1.82709e-05
1.98183e-05
2.13134e-05
2.26561e-05
2.05852e-05
8.93057e-06
1.82845e-05
2.82851e-05
3.09862e-05
3.12783e-05
2.9775e-05
2.65535e-05
2.22966e-05
1.86565e-05
1.73956e-05
1.86925e-05
1.82658e-05
1.76652e-05
1.95647e-05
2.32452e-05
2.71667e-05
3.00829e-05
3.1556e-05
3.12465e-05
2.82594e-05
1.91377e-05
2.1159e-05
2.88604e-05
3.23362e-05
3.23576e-05
3.0746e-05
2.85453e-05
2.59141e-05
2.26589e-05
2.0258e-05
2.04002e-05
2.03347e-05
2.07949e-05
2.34726e-05
2.66449e-05
2.93168e-05
3.1673e-05
3.34716e-05
3.35564e-05
3.01208e-05
2.2685e-05
2.73497e-05
3.00145e-05
3.20532e-05
3.21861e-05
3.0559e-05
2.81003e-05
2.55207e-05
2.35245e-05
2.27583e-05
2.34062e-05
2.33077e-05
2.28368e-05
2.39231e-05
2.61884e-05
2.89328e-05
3.15586e-05
3.3394e-05
3.3537e-05
3.20224e-05
3.02883e-05
4.67179e-05
4.07415e-05
3.63558e-05
3.45374e-05
3.22513e-05
2.92442e-05
2.61859e-05
2.37337e-05
2.28129e-05
2.47109e-05
2.46085e-05
2.28435e-05
2.40618e-05
2.67624e-05
3.00103e-05
3.32104e-05
3.57122e-05
3.77584e-05
4.2435e-05
4.84461e-05
6.38447e-05
5.9839e-05
4.64648e-05
4.18699e-05
3.94105e-05
3.65534e-05
3.35114e-05
3.08338e-05
2.89503e-05
2.99615e-05
2.99817e-05
2.90263e-05
3.1125e-05
3.40679e-05
3.73849e-05
4.05106e-05
4.31603e-05
4.79379e-05
6.19512e-05
6.48663e-05
7.93988e-05
8.79933e-05
7.00983e-05
7.01988e-05
7.57125e-05
7.98073e-05
8.11895e-05
7.79593e-05
6.79142e-05
5.44148e-05
5.38178e-05
6.77549e-05
7.82389e-05
8.18072e-05
8.08487e-05
7.7177e-05
7.16696e-05
7.11581e-05
8.92154e-05
7.99532e-05
9.52779e-05
0.000117125
0.000161347
0.00020692
0.000258366
0.000300053
0.000325763
0.000325077
0.000283579
0.0002122
0.000208698
0.000280516
0.000323385
0.000324197
0.000298744
0.000258683
0.000208162
0.000162592
0.000118068
9.55906e-05
0.000111418
0.000135993
0.000158755
0.000180359
0.000201915
0.000221209
0.000237222
0.000248512
0.000253596
0.000252255
0.000249159
0.000250878
0.000246396
0.000235571
0.000219952
0.000201073
0.000179844
0.00015843
0.000135796
0.000111287
3.34489e-06
5.47923e-06
7.45771e-06
8.85836e-06
9.39148e-06
9.42329e-06
9.16219e-06
8.80596e-06
8.6836e-06
9.38489e-06
9.19894e-06
8.86635e-06
9.22539e-06
9.61838e-06
9.8347e-06
9.69546e-06
8.99857e-06
7.60881e-06
5.80035e-06
3.34416e-06
5.7337e-06
1.14455e-05
1.53894e-05
1.65056e-05
1.66762e-05
1.61539e-05
1.5454e-05
1.52256e-05
1.68706e-05
2.17203e-05
2.04539e-05
1.64518e-05
1.56592e-05
1.61202e-05
1.68241e-05
1.72724e-05
1.69954e-05
1.57294e-05
1.23487e-05
5.60029e-06
1.11543e-05
2.264e-05
2.61924e-05
2.67339e-05
2.51037e-05
2.22968e-05
1.94505e-05
1.75628e-05
1.79817e-05
2.10682e-05
2.02522e-05
1.79232e-05
1.83686e-05
2.05505e-05
2.33699e-05
2.59844e-05
2.74035e-05
2.67195e-05
2.31412e-05
1.36159e-05
1.53807e-05
2.24936e-05
2.64259e-05
2.77449e-05
2.74702e-05
2.59154e-05
2.33486e-05
2.06381e-05
1.98857e-05
2.22389e-05
2.17404e-05
2.01729e-05
2.15488e-05
2.43174e-05
2.67793e-05
2.83364e-05
2.87163e-05
2.74575e-05
2.36131e-05
1.71789e-05
2.12983e-05
2.33406e-05
2.57775e-05
2.70061e-05
2.67614e-05
2.5522e-05
2.39331e-05
2.25895e-05
2.25765e-05
2.54857e-05
2.49429e-05
2.25813e-05
2.2963e-05
2.45201e-05
2.62769e-05
2.76504e-05
2.80206e-05
2.69257e-05
2.48273e-05
2.37026e-05
4.26076e-05
3.3739e-05
2.93193e-05
2.83783e-05
2.76002e-05
2.61879e-05
2.44799e-05
2.32198e-05
2.37951e-05
2.89483e-05
2.84226e-05
2.37041e-05
2.3488e-05
2.49981e-05
2.68648e-05
2.83789e-05
2.92095e-05
3.0208e-05
3.50003e-05
4.43206e-05
6.17488e-05
4.97074e-05
3.79477e-05
3.47285e-05
3.41555e-05
3.35153e-05
3.24767e-05
3.15849e-05
3.19058e-05
3.77449e-05
3.76045e-05
3.20356e-05
3.19565e-05
3.30781e-05
3.42876e-05
3.49997e-05
3.55306e-05
3.88014e-05
5.13251e-05
6.2685e-05
7.89394e-05
8.4575e-05
6.39531e-05
6.52854e-05
7.36652e-05
8.11912e-05
8.50902e-05
8.22222e-05
7.04813e-05
5.83583e-05
5.79732e-05
7.06025e-05
8.27221e-05
8.57667e-05
8.20891e-05
7.47453e-05
6.62202e-05
6.45354e-05
8.57858e-05
7.93794e-05
9.62373e-05
0.000116929
0.000161058
0.000213596
0.000275794
0.000325744
0.000355975
0.00034765
0.000280212
0.000191698
0.000189478
0.000278256
0.000347136
0.000354947
0.000324461
0.000275557
0.00021418
0.000161855
0.000117582
9.63859e-05
0.000114382
0.000140969
0.000165724
0.000189871
0.000214588
0.000237218
0.000256751
0.00027198
0.000282446
0.00028967
0.000285867
0.000279355
0.000269558
0.000254788
0.000235627
0.000213383
0.000189009
0.000165085
0.00014051
0.000114067
3.11889e-06
4.46514e-06
5.9081e-06
7.21648e-06
8.03314e-06
8.50268e-06
8.80694e-06
9.16542e-06
9.7768e-06
1.11638e-05
1.08951e-05
9.90609e-06
9.55828e-06
9.25322e-06
8.92046e-06
8.37358e-06
7.45526e-06
5.95976e-06
4.61786e-06
3.0999e-06
5.54749e-06
1.0138e-05
1.25716e-05
1.42058e-05
1.47899e-05
1.49421e-05
1.52267e-05
1.64262e-05
1.96997e-05
2.41119e-05
2.25082e-05
1.88213e-05
1.65918e-05
1.57504e-05
1.5557e-05
1.53969e-05
1.47832e-05
1.31175e-05
1.03788e-05
5.45798e-06
6.53422e-06
1.64872e-05
2.00089e-05
2.08263e-05
2.00425e-05
1.86581e-05
1.75639e-05
1.77289e-05
2.01048e-05
2.66043e-05
2.51349e-05
1.95448e-05
1.81871e-05
1.84829e-05
1.97585e-05
2.11712e-05
2.18552e-05
2.09192e-05
1.75691e-05
6.71615e-06
1.05056e-05
1.77067e-05
2.2183e-05
2.41719e-05
2.42046e-05
2.2662e-05
2.06397e-05
1.96398e-05
2.18266e-05
3.47957e-05
3.26484e-05
2.1388e-05
2.03175e-05
2.17029e-05
2.376e-05
2.51728e-05
2.50391e-05
2.29986e-05
1.8659e-05
1.21109e-05
1.57508e-05
1.81481e-05
2.11535e-05
2.31507e-05
2.38629e-05
2.35274e-05
2.25913e-05
2.19717e-05
2.51166e-05
5.1537e-05
4.66285e-05
2.43252e-05
2.22814e-05
2.30982e-05
2.41051e-05
2.45024e-05
2.38388e-05
2.1882e-05
1.91393e-05
1.76627e-05
3.83081e-05
2.80192e-05
2.40153e-05
2.37034e-05
2.39413e-05
2.37361e-05
2.32207e-05
2.33053e-05
2.81775e-05
6.82258e-05
6.2306e-05
2.71373e-05
2.33649e-05
2.35417e-05
2.41747e-05
2.44112e-05
2.41457e-05
2.44935e-05
2.896e-05
4.00031e-05
5.89033e-05
4.23598e-05
3.15607e-05
2.91037e-05
2.97649e-05
3.08379e-05
3.15862e-05
3.28637e-05
3.91817e-05
8.53519e-05
7.9903e-05
3.84306e-05
3.30761e-05
3.20332e-05
3.13566e-05
3.0235e-05
2.94493e-05
3.19158e-05
4.31891e-05
5.97351e-05
7.70792e-05
7.70056e-05
5.66386e-05
5.8716e-05
6.87298e-05
7.79599e-05
8.22215e-05
7.75243e-05
6.82034e-05
0.000102093
9.74264e-05
6.81431e-05
7.83679e-05
8.30113e-05
7.87292e-05
6.95074e-05
5.93808e-05
5.71637e-05
7.85123e-05
7.73846e-05
9.52185e-05
0.000112408
0.000152815
0.000207717
0.000274574
0.000325052
0.000347627
0.000312383
0.000223214
0.000247192
0.000239822
0.000224688
0.000314899
0.00034815
0.000324691
0.000274391
0.000208328
0.000153663
0.000112871
9.51774e-05
0.000115361
0.000143256
0.000169343
0.0001953
0.000222741
0.000248505
0.000271973
0.000293145
0.000314949
0.000346131
0.000340736
0.000311209
0.000290266
0.000269594
0.000246514
0.000221127
0.000194062
0.000168355
0.00014249
0.000114827
3.38258e-06
3.90358e-06
5.28289e-06
6.16668e-06
7.05253e-06
7.84435e-06
8.68434e-06
9.77758e-06
1.06352e-05
1.21233e-05
1.1891e-05
1.07162e-05
1.00046e-05
8.96887e-06
8.12438e-06
7.29414e-06
6.34544e-06
5.53594e-06
3.95467e-06
3.22723e-06
5.60841e-06
9.04774e-06
1.10634e-05
1.2843e-05
1.42518e-05
1.52451e-05
1.68725e-05
1.97018e-05
2.20768e-05
6.28155e-05
5.86775e-05
2.1124e-05
1.92837e-05
1.68834e-05
1.54419e-05
1.4557e-05
1.33381e-05
1.13053e-05
9.00845e-06
5.52778e-06
7.05592e-06
1.16428e-05
1.50936e-05
1.69499e-05
1.74304e-05
1.73977e-05
1.79852e-05
2.01078e-05
2.84899e-05
0.000135993
0.000127321
2.72861e-05
1.99844e-05
1.83597e-05
1.80031e-05
1.81751e-05
1.78601e-05
1.58623e-05
1.20708e-05
7.03887e-06
7.12986e-06
1.51882e-05
1.94536e-05
2.11156e-05
2.10987e-05
2.02613e-05
1.98895e-05
2.183e-05
4.23698e-05
0.000230204
0.000215376
3.90209e-05
2.18003e-05
2.05697e-05
2.11411e-05
2.20229e-05
2.19455e-05
2.00563e-05
1.56912e-05
7.36275e-06
1.10317e-05
1.48534e-05
1.8719e-05
2.13327e-05
2.26478e-05
2.27635e-05
2.25813e-05
2.512e-05
6.57345e-05
0.000351268
0.000328428
5.91249e-05
2.47268e-05
2.29607e-05
2.31266e-05
2.28908e-05
2.14679e-05
1.87542e-05
1.51076e-05
1.22747e-05
3.42139e-05
2.39593e-05
2.03681e-05
2.05271e-05
2.1755e-05
2.28157e-05
2.37966e-05
2.8177e-05
8.91861e-05
0.000467981
0.00043701
7.90697e-05
2.73067e-05
2.38207e-05
2.28815e-05
2.17808e-05
2.05251e-05
2.05113e-05
2.47663e-05
3.60499e-05
5.54825e-05
3.77269e-05
2.70784e-05
2.46816e-05
2.62163e-05
2.8955e-05
3.19079e-05
3.91796e-05
0.000112976
0.000542514
0.000506802
0.000101826
3.83742e-05
3.20459e-05
2.91423e-05
2.63326e-05
2.47337e-05
2.72715e-05
3.83946e-05
5.61821e-05
7.37416e-05
6.79151e-05
4.84968e-05
4.96712e-05
5.92766e-05
6.7923e-05
7.04894e-05
6.82073e-05
0.000134572
0.000544205
0.000509836
0.000124158
6.84484e-05
7.13688e-05
6.86256e-05
5.9878e-05
5.018e-05
4.89878e-05
6.92341e-05
7.38408e-05
9.17875e-05
0.000102575
0.000133227
0.000183677
0.000245255
0.000283602
0.000280259
0.00022324
0.000248053
0.000473085
0.000451963
0.000237983
0.000225852
0.000282469
0.000283777
0.000244979
0.000184012
0.000134079
0.000102677
9.14661e-05
0.000113598
0.000141774
0.000168224
0.000194978
0.000224646
0.000253591
0.000282431
0.000314928
0.000361199
0.000425553
0.000418896
0.000355325
0.000310785
0.000279198
0.000250909
0.000222422
0.000193207
0.000166759
0.000140597
0.000112771
3.28957e-06
5.43236e-06
4.51114e-06
5.73562e-06
6.81631e-06
7.91672e-06
9.38733e-06
1.11649e-05
1.21239e-05
1.30103e-05
1.28682e-05
1.20914e-05
1.11527e-05
9.41998e-06
7.97722e-06
6.89108e-06
5.81484e-06
4.50086e-06
5.30529e-06
3.22806e-06
5.47428e-06
9.39854e-06
1.07907e-05
1.30278e-05
1.56276e-05
1.76814e-05
2.1718e-05
2.41159e-05
6.28177e-05
6.15912e-05
6.02052e-05
6.04299e-05
2.34358e-05
2.12926e-05
1.74415e-05
1.55741e-05
1.31667e-05
1.0797e-05
9.21272e-06
5.41339e-06
7.71669e-06
1.15407e-05
1.37376e-05
1.59063e-05
1.76854e-05
1.86956e-05
2.10706e-05
2.66099e-05
0.000135991
0.000110457
0.000108759
0.000129651
2.59119e-05
2.09536e-05
1.87001e-05
1.79113e-05
1.62418e-05
1.40056e-05
1.1585e-05
7.67587e-06
8.91925e-06
1.42325e-05
1.70833e-05
1.91578e-05
2.02361e-05
2.04052e-05
2.2244e-05
3.48005e-05
0.000230184
0.000167895
0.000166902
0.00021764
3.34078e-05
2.22727e-05
2.06044e-05
2.05653e-05
1.95341e-05
1.74838e-05
1.461e-05
8.79745e-06
8.68719e-06
1.46603e-05
1.93489e-05
2.20321e-05
2.31511e-05
2.34122e-05
2.54914e-05
5.15344e-05
0.000351206
0.000237251
0.000238097
0.000329807
4.75781e-05
2.53186e-05
2.34338e-05
2.30416e-05
2.1704e-05
1.86882e-05
1.40582e-05
9.23048e-06
3.09055e-05
2.23384e-05
1.92779e-05
1.96835e-05
2.20953e-05
2.47134e-05
2.89495e-05
6.8199e-05
0.00046784
0.000314629
0.000318234
0.000436448
6.23307e-05
2.83233e-05
2.42939e-05
2.15985e-05
1.92571e-05
1.92045e-05
2.31614e-05
3.29938e-05
5.14813e-05
3.51048e-05
2.47523e-05
2.20871e-05
2.46422e-05
2.99654e-05
3.77436e-05
8.53061e-05
0.000542295
0.000390327
0.000397696
0.000504273
7.90679e-05
3.72511e-05
2.97218e-05
2.43824e-05
2.19175e-05
2.48674e-05
3.56953e-05
5.1952e-05
6.84915e-05
5.84746e-05
4.0031e-05
3.93503e-05
4.71341e-05
5.44414e-05
5.83732e-05
0.000102041
0.000543898
0.000436032
0.00044686
0.000505311
9.63561e-05
5.86242e-05
5.48219e-05
4.72942e-05
3.94188e-05
4.02628e-05
5.9418e-05
6.82547e-05
8.50624e-05
8.65284e-05
9.9912e-05
0.00014479
0.000192922
0.000212339
0.000191785
0.000247107
0.000472868
0.000460435
0.000469621
0.000447439
0.000237575
0.000191042
0.000212115
0.000191522
0.000143248
9.96623e-05
8.58986e-05
8.42815e-05
0.000106878
0.000134488
0.000159741
0.000187418
0.00021952
0.000252264
0.000289647
0.000346064
0.000425463
0.000437945
0.000444165
0.000417005
0.00033891
0.000284637
0.000248478
0.000216434
0.000184869
0.000157689
0.000132804
0.000105606
3.57115e-06
3.87482e-06
5.58385e-06
5.71596e-06
6.72434e-06
7.79497e-06
9.19765e-06
1.0896e-05
1.18932e-05
1.28685e-05
1.28634e-05
1.19853e-05
1.10228e-05
9.30264e-06
7.88311e-06
6.80971e-06
5.80431e-06
5.59305e-06
3.90043e-06
3.72099e-06
5.73494e-06
8.79317e-06
1.07772e-05
1.28008e-05
1.51568e-05
1.68873e-05
2.04508e-05
2.2498e-05
5.86518e-05
6.01881e-05
6.01418e-05
5.92943e-05
2.29864e-05
2.08323e-05
1.71254e-05
1.53523e-05
1.29301e-05
1.09274e-05
8.87247e-06
5.81015e-06
7.57639e-06
1.14065e-05
1.37823e-05
1.60388e-05
1.75832e-05
1.82695e-05
2.02561e-05
2.5127e-05
0.000127224
0.000108734
0.000108322
0.000126437
2.52885e-05
2.04713e-05
1.8395e-05
1.77292e-05
1.61716e-05
1.3939e-05
1.1489e-05
7.64944e-06
8.72014e-06
1.42751e-05
1.72673e-05
1.94231e-05
2.03822e-05
2.03447e-05
2.17492e-05
3.26261e-05
0.000215134
0.000166883
0.000165887
0.000211149
3.22678e-05
2.17449e-05
2.03115e-05
2.03676e-05
1.94282e-05
1.7414e-05
1.4526e-05
8.7147e-06
8.76304e-06
1.46351e-05
1.934e-05
2.20215e-05
2.30689e-05
2.33144e-05
2.49481e-05
4.65478e-05
0.000327959
0.0002381
0.000236374
0.000318796
4.50518e-05
2.46377e-05
2.30102e-05
2.26482e-05
2.13334e-05
1.83927e-05
1.40162e-05
1.04406e-05
3.21763e-05
2.29837e-05
1.93789e-05
1.9548e-05
2.19852e-05
2.46098e-05
2.84219e-05
6.21881e-05
0.000436302
0.000318276
0.000315783
0.000420947
5.8987e-05
2.75733e-05
2.3846e-05
2.12451e-05
1.90222e-05
1.92108e-05
2.35949e-05
3.38071e-05
5.19592e-05
3.56324e-05
2.48923e-05
2.19313e-05
2.44901e-05
2.99837e-05
3.76047e-05
7.97865e-05
0.000505958
0.0003978
0.000394793
0.000486072
7.57131e-05
3.65874e-05
2.9329e-05
2.40713e-05
2.17701e-05
2.50023e-05
3.61278e-05
5.21962e-05
6.8581e-05
5.92489e-05
3.99749e-05
3.87212e-05
4.63329e-05
5.38079e-05
5.79626e-05
9.73052e-05
0.000509018
0.000447039
0.00044424
0.000487096
9.32821e-05
5.77936e-05
5.3974e-05
4.64439e-05
3.88225e-05
4.01607e-05
5.98969e-05
6.80716e-05
8.48227e-05
8.62997e-05
9.96023e-05
0.000141821
0.000189149
0.000208655
0.000189465
0.000239627
0.000451421
0.000469764
0.000466101
0.00043563
0.000232378
0.000188278
0.000208993
0.000188085
0.000140293
9.88696e-05
8.52745e-05
8.37269e-05
0.000106285
0.000133522
0.000158371
0.000185364
0.000216887
0.000249083
0.000285763
0.000340575
0.000418685
0.000444243
0.000440854
0.000410333
0.00033358
0.000280534
0.000245097
0.000213572
0.000182512
0.000155946
0.00013145
0.000104633
2.98096e-06
4.21522e-06
4.65025e-06
6.16975e-06
7.17459e-06
8.02747e-06
8.87376e-06
9.91417e-06
1.07221e-05
1.20899e-05
1.19901e-05
1.07113e-05
9.95145e-06
8.91301e-06
8.07396e-06
7.23972e-06
6.24861e-06
4.83859e-06
4.5106e-06
2.99882e-06
5.38285e-06
8.82866e-06
1.09972e-05
1.31298e-05
1.42873e-05
1.51253e-05
1.64589e-05
1.88262e-05
2.11148e-05
6.03679e-05
5.93411e-05
2.10785e-05
1.90081e-05
1.6602e-05
1.52264e-05
1.43881e-05
1.3273e-05
1.11768e-05
9.02227e-06
5.45844e-06
6.85992e-06
1.16988e-05
1.54695e-05
1.75234e-05
1.78616e-05
1.76828e-05
1.79374e-05
1.95522e-05
2.72693e-05
0.000129499
0.000126523
2.69187e-05
1.96331e-05
1.80773e-05
1.78416e-05
1.80895e-05
1.78374e-05
1.59299e-05
1.22094e-05
7.06333e-06
7.05684e-06
1.54314e-05
1.96472e-05
2.15107e-05
2.16389e-05
2.08173e-05
2.01921e-05
2.1394e-05
3.89594e-05
0.000217334
0.000211275
3.78531e-05
2.13135e-05
2.02639e-05
2.09364e-05
2.18267e-05
2.17446e-05
1.98652e-05
1.55519e-05
7.6675e-06
1.17462e-05
1.48792e-05
1.87476e-05
2.14012e-05
2.27044e-05
2.28478e-05
2.25923e-05
2.43207e-05
5.89816e-05
0.000329267
0.000318956
5.63137e-05
2.39753e-05
2.2454e-05
2.26674e-05
2.2448e-05
2.10803e-05
1.84788e-05
1.51273e-05
1.32478e-05
3.59374e-05
2.46379e-05
2.03592e-05
2.03989e-05
2.17269e-05
2.28481e-05
2.37083e-05
2.71221e-05
7.88404e-05
0.000435645
0.000421129
7.44564e-05
2.64418e-05
2.33397e-05
2.24971e-05
2.14327e-05
2.02508e-05
2.04804e-05
2.5246e-05
3.68884e-05
5.60604e-05
3.83154e-05
2.70704e-05
2.43907e-05
2.60404e-05
2.90268e-05
3.20377e-05
3.8412e-05
0.000101565
0.000503281
0.000486261
9.62611e-05
3.74273e-05
3.15713e-05
2.87427e-05
2.59398e-05
2.44524e-05
2.72878e-05
3.87341e-05
5.61386e-05
7.36835e-05
6.87031e-05
4.83653e-05
4.9295e-05
5.88843e-05
6.77325e-05
7.05845e-05
6.81269e-05
0.000123904
0.000504281
0.000487282
0.000118549
6.77778e-05
7.06927e-05
6.7721e-05
5.89483e-05
4.94613e-05
4.85618e-05
6.92201e-05
7.31753e-05
9.12693e-05
0.000101718
0.000132562
0.000182627
0.000242389
0.000280354
0.000278111
0.000224682
0.000237699
0.000446775
0.000435714
0.000230565
0.000225673
0.000280825
0.000280148
0.000241049
0.000181186
0.000131911
0.000100972
9.03104e-05
0.000112766
0.000140626
0.000166743
0.000193116
0.000222244
0.000250777
0.000279237
0.000311071
0.000355132
0.000416753
0.000410363
0.000349053
0.000306257
0.000275425
0.000247522
0.000219388
0.000190614
0.000164563
0.000138773
0.0001113
2.94465e-06
4.53735e-06
5.9421e-06
7.29439e-06
8.27041e-06
8.87028e-06
9.2346e-06
9.56872e-06
1.00111e-05
1.11492e-05
1.10287e-05
9.95255e-06
9.56051e-06
9.2418e-06
8.8986e-06
8.33187e-06
7.40646e-06
5.99303e-06
4.61395e-06
3.0214e-06
5.32592e-06
1.01183e-05
1.2954e-05
1.45791e-05
1.5251e-05
1.54524e-05
1.56741e-05
1.66034e-05
1.92731e-05
2.34085e-05
2.30084e-05
1.90183e-05
1.65683e-05
1.56775e-05
1.54885e-05
1.53325e-05
1.47264e-05
1.31553e-05
1.03051e-05
5.39782e-06
6.52664e-06
1.6992e-05
2.03588e-05
2.14049e-05
2.08757e-05
1.95935e-05
1.83927e-05
1.82029e-05
1.99755e-05
2.58834e-05
2.53078e-05
1.96416e-05