/*--------------------------------*- C++ -*----------------------------------*\
| =========                 |                                                 |
| \\      /  F ield         | OpenFOAM: The Open Source CFD Toolbox           |
|  \\    /   O peration     | Version:  v1912                                 |
|   \\  /    A nd           | Website:  www.openfoam.com                      |
|    \\/     M anipulation  |                                                 |
\*---------------------------------------------------------------------------*/
FoamFile
{
    version     2.0;
    format      ascii;
    class       volScalarField;
    location    "600";
    object      nut;
}
// * * * * * * * * * * * * * * * * * * * * * * * * * * * * * * * * * * * * * //

dimensions      [0 2 -1 0 0 0 0];


internalField   nonuniform List<scalar> 
4000
(
0.000375053
0.000350495
0.000313979
0.000183827
0.000120335
0.000110723
0.000102249
9.75554e-05
8.65246e-05
0.00015201
8.24452e-05
9.77615e-05
9.91098e-05
0.000101216
0.000111045
0.000126212
0.000249004
0.000326739
0.000357999
0.00038032
0.000398036
0.000373837
0.000331295
0.00027856
0.000241783
0.00015028
0.000133361
0.00012941
0.000125878
0.000156433
0.000113988
0.000127979
0.000129446
0.000131403
0.000158483
0.000242313
0.000286643
0.000336562
0.000377333
0.000401789
0.000412416
0.000393995
0.000357507
0.000316884
0.000280737
0.000240171
0.000187754
0.000142822
0.000150067
0.000157025
0.00015204
0.000146016
0.00014337
0.000200333
0.000241668
0.00027849
0.000313791
0.000357595
0.000395993
0.000415364
0.000421398
0.00040856
0.000377794
0.000337849
0.00029427
0.000258351
0.000220528
0.000181705
0.000150907
0.000167243
0.00016585
0.00014925
0.000191979
0.000228848
0.000263259
0.000297588
0.000338633
0.000379032
0.000410358
0.000423905
0.000428283
0.000422306
0.000402833
0.000372897
0.000334348
0.000293813
0.000259459
0.000222889
0.000186622
0.00016545
0.000166106
0.000192787
0.000231847
0.00026886
0.00030355
0.000341597
0.00037658
0.000404891
0.000424158
0.000430545
0.000434526
0.000436271
0.000428922
0.000415629
0.000400182
0.000383854
0.000366659
0.000347713
0.00032888
0.000312265
0.000319077
0.000336796
0.000354179
0.000372075
0.000388631
0.000404242
0.00041869
0.000431334
0.00043845
0.000436633
0.000441325
0.000451452
0.000455789
0.000455757
0.000453484
0.000448657
0.000441254
0.000430992
0.000418303
0.000402955
0.000404786
0.000420458
0.000433367
0.000443755
0.00045129
0.000456131
0.000458287
0.000458165
0.000453722
0.000443305
0.000449235
0.000467893
0.000482158
0.000491673
0.000497896
0.000500283
0.000498839
0.000492934
0.000482138
0.000464649
0.000464949
0.000481979
0.000493377
0.000499805
0.000501713
0.000499689
0.000493735
0.000484361
0.000470125
0.000451072
0.000459279
0.000487694
0.000510731
0.000527781
0.000540393
0.000547992
0.000550746
0.000547822
0.000537843
0.000517733
0.000517031
0.00053639
0.000547241
0.000550946
0.000548819
0.000541709
0.000529504
0.000512716
0.000489761
0.000460952
0.000473757
0.000511214
0.000541219
0.000563265
0.00058025
0.000592576
0.000600404
0.00060296
0.000598311
0.0005803
0.000578739
0.000596194
0.00060171
0.000599932
0.000592749
0.000580964
0.000564436
0.000542742
0.000512924
0.000475207
0.000350548
0.000329428
0.000297997
0.000171992
0.000157845
0.000155306
0.000129887
0.000126126
0.000165288
6.79846e-05
0.000179923
0.000102006
0.000116368
0.000132711
0.000156428
0.000156813
0.000239819
0.000315597
0.00034868
0.000359832
0.000373902
0.00054612
0.000426817
0.000362831
0.000363639
0.000331951
0.000300242
0.00030363
0.000345714
0.000373152
0.000367339
0.000323787
0.000288351
0.000297569
0.00032324
0.000338888
0.000353884
0.000450154
0.000554668
0.000380538
0.000394057
0.00062693
0.000612704
0.00050497
0.000433405
0.000391469
0.00036229
0.000348648
0.000367555
0.000424259
0.00040916
0.000349668
0.000336862
0.000357678
0.00038513
0.000424907
0.000506615
0.000629079
0.000627898
0.000399149
0.000408611
0.000603099
0.000619687
0.000547608
0.000463621
0.00040326
0.000359113
0.000330922
0.000355459
0.000429856
0.000416376
0.000342892
0.000328031
0.000359668
0.000404294
0.000465546
0.000553611
0.000626497
0.000608412
0.000412979
0.000422341
0.000607735
0.000623578
0.000558076
0.000464794
0.000397011
0.000347827
0.000309353
0.000296336
0.000341994
0.000344681
0.000292744
0.000309401
0.000350458
0.00040008
0.000468116
0.000560434
0.000629123
0.000614135
0.000426049
0.000436286
0.000625685
0.000653552
0.000611993
0.000525616
0.000438868
0.000383723
0.000338624
0.00030829
0.00030505
0.000308215
0.000309798
0.000340132
0.000386077
0.000441038
0.000529289
0.000614951
0.000658635
0.00063209
0.000439389
0.000451451
0.000642966
0.000684481
0.000680814
0.000643909
0.000574543
0.000488553
0.000426994
0.000389465
0.0003719
0.000375944
0.00039411
0.00043054
0.000494407
0.000580482
0.000648554
0.000685368
0.000689782
0.000649275
0.000453922
0.000467882
0.000652937
0.000707907
0.000747825
0.000776153
0.000777614
0.000753517
0.000696365
0.000624865
0.000555284
0.000561517
0.000632307
0.000704037
0.000758214
0.000782732
0.000781705
0.000754027
0.000713481
0.000659005
0.000469874
0.000487681
0.000640994
0.000719843
0.000779733
0.000822721
0.000837763
0.000831033
0.000799227
0.000736009
0.000641917
0.00064167
0.000732002
0.000797918
0.000831699
0.000839965
0.000825932
0.000784245
0.000724729
0.000645798
0.000489318
0.000511196
0.000553214
0.000588269
0.000615443
0.000637545
0.000654621
0.000666493
0.000671875
0.000668369
0.00065092
0.000648648
0.000665753
0.000670138
0.00066557
0.000654385
0.000637892
0.000616283
0.000589459
0.000554545
0.000512221
0.000314094
0.000298078
0.000261283
0.000177508
0.000188293
0.000184027
0.000156104
0.000132789
0.000106897
0.000178289
8.27227e-05
0.000165356
0.000127886
0.000152384
0.00018089
0.000180815
0.000180742
0.000274486
0.000316175
0.000328853
0.000331387
0.00042686
0.000374621
0.00037725
0.000410519
0.000391174
0.00036
0.000354564
0.000388911
0.000445731
0.000419183
0.000372268
0.000346691
0.000354465
0.000383606
0.000397463
0.000371878
0.000394612
0.000453573
0.000340848
0.000357592
0.000612838
0.000587098
0.000521928
0.000480091
0.000456089
0.000440005
0.000420543
0.00042914
0.0004915
0.000472913
0.000411422
0.000410947
0.000435254
0.000453569
0.000478986
0.00053094
0.000613555
0.000639959
0.000363222
0.000377888
0.000619811
0.000669925
0.000610847
0.000537544
0.000482558
0.000444921
0.00042805
0.000451549
0.000502002
0.00048964
0.000437178
0.000423
0.000445982
0.000486401
0.000544042
0.000622178
0.00068462
0.000632795
0.000384158
0.000402895
0.000623708
0.000673258
0.000628342
0.000544688
0.000476748
0.000427745
0.000395997
0.000400717
0.000478713
0.00047875
0.000395752
0.000394439
0.000429698
0.000479771
0.000548454
0.000634413
0.000684865
0.000636589
0.000408317
0.000428951
0.000653661
0.000715649
0.000679805
0.000579094
0.000485255
0.000419818
0.000370816
0.000341553
0.000350636
0.000349706
0.000337445
0.000368496
0.000419653
0.000485998
0.000581722
0.000684823
0.000725899
0.000665415
0.00043325
0.000455793
0.000684571
0.000765537
0.000755484
0.000669244
0.000567124
0.00047965
0.000413398
0.000366831
0.000347455
0.000348266
0.000365739
0.000411627
0.000479038
0.000567616
0.000671675
0.000761371
0.000775954
0.000695856
0.000458837
0.000482147
0.000707973
0.000822004
0.000870307
0.00085513
0.000792228
0.000725434
0.000651513
0.000572831
0.000496581
0.000496456
0.000572664
0.000652121
0.000725596
0.000793742
0.000858374
0.00087734
0.000832747
0.000718581
0.000484315
0.000510714
0.000719881
0.000904236
0.00106291
0.00116615
0.00119733
0.00119163
0.00114935
0.00105456
0.00088177
0.000881041
0.00104635
0.00114566
0.00119068
0.00119873
0.00116945
0.0010701
0.000913101
0.000727987
0.000512388
0.000541196
0.000588261
0.000627831
0.000659535
0.000686071
0.000707238
0.000722604
0.000730458
0.000728026
0.000709374
0.000706413
0.000724928
0.000728259
0.000721214
0.000706551
0.000685998
0.000660003
0.000628672
0.000589257
0.000541959
0.000185539
0.00017239
0.000177597
0.000192355
0.000199799
0.000187166
0.00016764
0.000151699
0.000136271
0.000136275
0.000132976
0.000140361
0.000151596
0.000166725
0.000186341
0.000197806
0.000186699
0.000181444
0.000244598
0.000259033
0.000278529
0.000362692
0.000377226
0.000417919
0.000436034
0.000412504
0.000394406
0.000398106
0.000431496
0.000490169
0.000469955
0.000414808
0.000390331
0.000391192
0.000409104
0.00042937
0.000409907
0.000372034
0.000356178
0.000292058
0.000316899
0.000504963
0.000521907
0.000508697
0.000497167
0.0004943
0.000482681
0.000463617
0.000481295
0.000545242
0.000524734
0.000466259
0.000455941
0.000478223
0.000491287
0.000496417
0.00051313
0.000533561
0.000515413
0.000318896
0.000337976
0.000547807
0.000610935
0.000591113
0.000551356
0.000518411
0.000496153
0.000489859
0.000509852
0.000560436
0.000547433
0.000496416
0.000484149
0.000497094
0.000523309
0.000559976
0.000604133
0.000627818
0.000565167
0.000345206
0.000372985
0.000558325
0.000628503
0.000617788
0.000569814
0.000521409
0.000483822
0.000462541
0.000479724
0.000560848
0.000556356
0.000473385
0.000461599
0.000487271
0.000527098
0.000577604
0.000629118
0.000643536
0.000574952
0.000381201
0.000415667
0.00061222
0.00068
0.000669926
0.000605412
0.000532603
0.000474283
0.000430755
0.000408981
0.000429926
0.000428284
0.000404995
0.000429773
0.000476336
0.00053684
0.00061269
0.000681311
0.000696533
0.000629304
0.000421184
0.000455761
0.000680966
0.000755668
0.000756234
0.000694875
0.000606977
0.000527321
0.000462164
0.000411477
0.000390113
0.00038836
0.000407769
0.00046003
0.000527685
0.000610297
0.000702829
0.000768922
0.000773668
0.000696863
0.000459194
0.00049166
0.000747879
0.000870422
0.000924684
0.000911476
0.000848521
0.000777334
0.000700166
0.000613091
0.000526596
0.00052279
0.000610013
0.000698804
0.000777482
0.000851967
0.000920835
0.000940697
0.000887303
0.000760739
0.000493833
0.000527762
0.000779777
0.00106296
0.00131825
0.00144573
0.00147132
0.00146439
0.00140676
0.00127667
0.00107979
0.00106879
0.00127181
0.001405
0.0014639
0.00147351
0.00145217
0.00133045
0.00107564
0.000789598
0.00052931
0.00056324
0.000615428
0.000659529
0.000695938
0.000727504
0.000753788
0.000773425
0.000784418
0.000783765
0.000768365
0.000764254
0.000780142
0.000781719
0.000771535
0.00075263
0.000727015
0.000696018
0.00065996
0.000616019
0.000563694
0.000120374
0.000158456
0.000188286
0.000200145
0.000197015
0.00018546
0.000172265
0.000159292
0.000149015
0.000146193
0.000145954
0.000150147
0.000161582
0.000174016
0.000186678
0.000196882
0.000198048
0.000181756
0.000158348
0.000129998
0.000241761
0.000363423
0.000410437
0.000436001
0.000434485
0.000423859
0.000417536
0.000426979
0.000472898
0.000546657
0.000520195
0.000449068
0.000418774
0.000415642
0.000423196
0.000432313
0.000430358
0.000397958
0.000338935
0.000246792
0.000280771
0.000433331
0.000480034
0.000497136
0.000509192
0.000513908
0.000500535
0.000486714
0.000519212
0.000596292
0.000571356
0.000497456
0.0004805
0.000497736
0.000509959
0.00050589
0.000497128
0.000481114
0.000429677
0.000283252
0.000294383
0.00046374
0.00053761
0.000551371
0.000543491
0.000533103
0.000526407
0.00052457
0.000542397
0.000603533
0.000588306
0.000529043
0.000518969
0.00052584
0.000536493
0.000550465
0.000561616
0.00054907
0.000473606
0.00030356
0.00033453
0.000465047
0.00054487
0.000569883
0.000558728
0.000536202
0.000515347
0.000506945
0.000534427
0.000606097
0.000597495
0.000525991
0.000505777
0.000519157
0.000542856
0.000567782
0.000581328
0.00055817
0.000481203
0.00034725
0.000400226
0.000525913
0.000579402
0.00060557
0.000589166
0.00055131
0.00051258
0.000482973
0.000477145
0.000523202
0.000522529
0.000475192
0.000484701
0.00051795
0.000559763
0.000601164
0.000621542
0.000599268
0.000546623
0.000406867
0.000453487
0.000644114
0.000669596
0.000695108
0.000682383
0.000633772
0.000576026
0.000522948
0.000482439
0.000479199
0.000478919
0.000481161
0.000524599
0.000581665
0.000644231
0.000698993
0.000717331
0.000694428
0.000663633
0.000457128
0.000497882
0.000776206
0.000855426
0.000911705
0.000919974
0.000880469
0.000825216
0.000757957
0.000672295
0.000583264
0.000579347
0.000670147
0.000758705
0.000829807
0.000890308
0.000937205
0.000936051
0.000880665
0.000790852
0.000499908
0.000540372
0.000822762
0.00116624
0.00144585
0.00157748
0.00165662
0.00168627
0.00164319
0.00149492
0.00125306
0.00124023
0.00148489
0.00163795
0.00168548
0.00165999
0.00158659
0.00146043
0.00117911
0.000832629
0.000541658
0.000580224
0.000637526
0.000686059
0.000727499
0.000765647
0.000797544
0.00082221
0.000837704
0.000841278
0.000831586
0.000826708
0.000836914
0.00083436
0.000819714
0.000795806
0.000764655
0.00072707
0.000685956
0.000637621
0.000580308
0.000110846
0.000156985
0.000182449
0.000187412
0.000185437
0.000180078
0.000172526
0.000163824
0.000157401
0.000157766
0.000157029
0.000158941
0.000167232
0.000175833
0.000182901
0.000187361
0.000187897
0.000183351
0.000158463
0.000113731
0.000150845
0.000331852
0.000391107
0.000412456
0.00042384
0.000427874
0.000432682
0.000448906
0.000502662
0.000580644
0.000552595
0.000476118
0.000440199
0.000431262
0.000428705
0.000424543
0.00041201
0.000387973
0.000328888
0.000168867
0.00024014
0.000391394
0.00045602
0.000494264
0.000513902
0.000514485
0.00050177
0.000498101
0.00054143
0.000614518
0.000589365
0.000517306
0.000492315
0.000501665
0.000513121
0.00051108
0.000492472
0.00045476
0.00038723
0.000245776
0.000258394
0.000403318
0.000482594
0.000518424
0.000533109
0.000539207
0.000539427
0.000535961
0.000557152
0.000609782
0.000595919
0.000543974
0.000532139
0.000538393
0.000540582
0.000537338
0.000525026
0.000489636
0.000408895
0.000267555
0.000293893
0.000397144
0.000476871
0.000521478
0.000536225
0.000535205
0.000529753
0.00053337
0.000566027
0.000619215
0.000612259
0.000556834
0.000531169
0.000532684
0.000540974
0.000544007
0.000530447
0.000485793
0.000406952
0.000309271
0.000383892
0.000439064
0.000485495
0.000532776
0.000551379
0.000545226
0.000529043
0.000517236
0.000530365
0.000588596
0.000588377
0.000529275
0.000520331
0.000535962
0.000554923
0.000563233
0.000545778
0.000498377
0.0004511
0.000390952
0.00044866
0.000574782
0.000567456
0.00060727
0.000633912
0.000625195
0.000595522
0.000562678
0.000543918
0.0005695
0.000571943
0.000546239
0.000568269
0.000605475
0.000639687
0.000652581
0.000628105
0.000588161
0.000596681
0.000452259
0.000500271
0.000777671
0.000792512
0.000848813
0.000880609
0.000874925
0.000846702
0.000795275
0.000714871
0.000629266
0.000627712
0.000715584
0.000799095
0.00085477
0.000888472
0.000899445
0.000871165
0.000813947
0.000793791
0.000502031
0.000547973
0.000837789
0.00119743
0.00147142
0.00165665
0.00178083
0.0018344
0.00178404
0.0015876
0.00126026
0.00124928
0.00157796
0.00177885
0.00183182
0.00178175
0.0016633
0.00148214
0.00120937
0.00084698
0.000548884
0.000592552
0.0006546
0.000707222
0.000753778
0.000797539
0.000834777
0.000864478
0.00088483
0.000893851
0.000891488
0.000885967
0.000889026
0.00088104
0.000861455
0.000832395
0.000795873
0.000752705
0.000706501
0.00065413
0.000592206
0.000103052
0.000132703
0.000151451
0.000166917
0.000172159
0.000172489
0.0001701
0.000166735
0.000165563
0.000171975
0.000170379
0.000167189
0.000170591
0.000174196
0.000176151
0.000174882
0.000168354
0.000154483
0.000136303
0.000103053
0.000135329
0.000300128
0.000359743
0.000394308
0.000417492
0.000432669
0.000446333
0.00047242
0.000531133
0.000599523
0.000576105
0.000504782
0.000462149
0.000444036
0.000432647
0.000417831
0.000394226
0.000358632
0.000304571
0.000133763
0.000187902
0.000362222
0.000439963
0.000482666
0.00050054
0.000501777
0.000498406
0.000509439
0.000552327
0.000567536
0.000556168
0.000531121
0.000502175
0.000499148
0.000503705
0.000501158
0.000481898
0.000438236
0.000360123
0.000207515
0.000220254
0.000359098
0.000444939
0.000496171
0.000526426
0.000539444
0.000538298
0.000536374
0.000554666
0.000523184
0.00052684
0.000545731
0.000533885
0.000538863
0.00054013
0.000528011
0.00049935
0.000448513
0.000362713
0.000232908
0.000259232
0.000347837
0.000427809
0.000483873
0.000515378
0.000529768
0.000536657
0.000547901
0.000569124
0.000518388
0.000527773
0.00056381
0.000544836
0.000537866
0.000533565
0.000520646
0.000489609
0.000433028
0.000354393
0.000273613
0.000366629
0.000383798
0.000419961
0.000474415
0.000512659
0.000529073
0.00053267
0.000537916
0.00055598
0.000521636
0.000530805
0.000556152
0.000540355
0.000538728
0.000537208
0.000521444
0.000482448
0.000426698
0.000391609
0.000373974
0.000441246
0.000488698
0.000479867
0.000527557
0.000576193
0.000595593
0.000590891
0.000580803
0.000583551
0.00057425
0.00058247
0.000587998
0.000587744
0.000601597
0.000609189
0.000591042
0.000541445
0.000492348
0.000505066
0.000444608
0.00049883
0.000753562
0.000725613
0.000777557
0.000825378
0.00084677
0.000839244
0.000796744
0.00071902
0.000631401
0.000633314
0.000722209
0.000802391
0.000847791
0.000858752
0.000839813
0.000792894
0.00074046
0.00077024
0.000500238
0.000550731
0.000831034
0.00119167
0.00146441
0.00168628
0.00183439
0.00188647
0.00179339
0.00149883
0.00101686
0.0010148
0.0014932
0.00179298
0.00188564
0.0018339
0.00168901
0.00147062
0.00120038
0.000838845
0.000551169
0.000600385
0.000666475
0.000722587
0.000773411
0.000822199
0.000864471
0.000899376
0.000925686
0.000943345
0.000955348
0.000949018
0.000938143
0.000921534
0.000895915
0.000861556
0.000819881
0.000771651
0.000721192
0.000665388
0.000599559
0.000100431
0.000113451
0.00013951
0.000150426
0.000159273
0.000163894
0.00016677
0.000170088
0.000175632
0.000187606
0.000185363
0.000176738
0.000173633
0.000170855
0.000167778
0.000162605
0.000153291
0.000132173
0.000119963
0.000101728
0.000134462
0.000303904
0.000354778
0.000397977
0.000426992
0.000448946
0.000472455
0.000506081
0.000534175
0.000467337
0.000452753
0.000514932
0.000493746
0.00046568
0.000444679
0.000423394
0.000394703
0.000349238
0.00029029
0.000132039
0.000144138
0.000348829
0.000420649
0.000463659
0.000486764
0.000498151
0.000509481
0.000527503
0.000493908
0.000331114
0.000326201
0.000490875
0.00052018
0.000506074
0.000497608
0.000486618
0.00046223
0.000416303
0.000339678
0.000145685
0.000182434
0.000331089
0.000428136
0.000489931
0.000524637
0.000536019
0.000536414
0.00053453
0.000452555
0.000302085
0.000297106
0.000464579
0.00053505
0.000537353
0.000537133
0.000524191
0.000488551
0.000426328
0.000331356
0.000195939
0.00022307
0.000309443
0.00039607
0.0004626
0.000506994
0.000533413
0.000547933
0.000548742
0.000442218
0.000350573
0.0003328
0.000455873
0.000549465
0.00054706
0.000533542
0.000507766
0.000463332
0.000396448
0.000312553
0.000236415
0.000347727
0.000338675
0.00037092
0.000430863
0.000483049
0.000517278
0.000537935
0.000544751
0.000437914
0.000408344
0.000388043
0.000449658
0.000547787
0.000541069
0.000521614
0.000487172
0.000433644
0.000372844
0.000343555
0.000355382
0.00043098
0.000427029
0.000413513
0.000462328
0.000523095
0.00056277
0.000580843
0.000590567
0.000524616
0.000491371
0.000478136
0.000536167
0.000597025
0.000589269
0.000572512
0.000532332
0.000469545
0.000419438
0.000435593
0.000434041
0.00049293
0.000696373
0.000651609
0.000700317
0.000758096
0.000795359
0.000796785
0.000755062
0.000673888
0.000610448
0.000602157
0.000679766
0.000762332
0.000805274
0.00080493
0.000768462
0.000711135
0.000664027
0.000715605
0.000493925
0.00054782
0.000799235
0.00114937
0.00140671
0.00164318
0.00178404
0.00179339
0.00159639
0.00118143
0.00100643
0.000991228
0.00119163
0.0016073
0.00179864
0.00178608
0.00164575
0.00141241
0.00115725
0.000806458
0.000547714
0.000602956
0.000671869
0.000730449
0.000784406
0.000837693
0.000884818
0.000925675
0.000961053
0.000996173
0.00104435
0.00103614
0.000990209
0.000956293
0.000921594
0.000881249
0.000834639
0.000781908
0.000728311
0.000670069
0.000601556
0.000117984
8.21366e-05
0.000148529
0.000142063
0.00014939
0.000157334
0.000165537
0.000175628
0.000183157
0.000195518
0.000193634
0.000183818
0.000177616
0.000168169
0.000160052
0.000151745
0.000142933
0.000163121
8.63365e-05
0.00010898
0.000138706
0.000339882
0.000392902
0.000431958
0.000472999
0.000502755
0.000531219
0.000534224
0.000411055
0.000457072
0.000442363
0.000402437
0.000523569
0.000517002
0.000488102
0.000459685
0.00042246
0.000377993
0.000322206
0.000134282
0.000148502
0.000367041
0.00042952
0.000481426
0.000519339
0.000541574
0.000552457
0.000493969
0.000309473
0.000571966
0.00054462
0.000307276
0.000498286
0.000543729
0.000529717
0.000508436
0.000474634
0.000417054
0.000349057
0.000148209
0.000149085
0.000355477
0.000451682
0.000509972
0.000542517
0.000557275
0.000554779
0.000452612
0.0003167
0.00079073
0.000749996
0.000307275
0.000469743
0.000555139
0.000553066
0.000537267
0.000502921
0.000440867
0.000342196
0.000152169
0.000186218
0.00029635
0.000400783
0.000479791
0.000534511
0.000566127
0.000569221
0.000442276
0.000388591
0.0010664
0.00101
0.000364568
0.000459833
0.000570211
0.000561557
0.000527683
0.000471506
0.000391687
0.000291419
0.000197043
0.000328698
0.000308231
0.000341621
0.000409078
0.000477223
0.000530418
0.000556022
0.00043795
0.000464741
0.00132708
0.00125738
0.000428595
0.00045133
0.000557398
0.000528709
0.00047428
0.000404766
0.000337854
0.000310682
0.000337445
0.000418311
0.000389408
0.000366863
0.000411595
0.000482571
0.000544016
0.000583613
0.000524656
0.000564839
0.00150131
0.00142615
0.00053107
0.000536551
0.000588654
0.00054831
0.000485725
0.000413328
0.000369419
0.00039584
0.000420986
0.000482158
0.00062481
0.000572892
0.000613236
0.000672453
0.000714997
0.000719106
0.000673954
0.000710295
0.0015753
0.00150409
0.00068488
0.000682709
0.000727784
0.000723483
0.000680666
0.000621616
0.000583345
0.00064155
0.000482502
0.000537874
0.000736115
0.00105474
0.00127681
0.00149508
0.00158778
0.00149905
0.00118168
0.00106898
0.00150684
0.00146016
0.0010461
0.00120078
0.00151269
0.00159396
0.0014987
0.00128196
0.00106127
0.000741605
0.000536942
0.000598341
0.000668398
0.000728048
0.000783778
0.000841283
0.000893842
0.000943321
0.000996141
0.00106684
0.00115802
0.00114889
0.00105809
0.00098953
0.000937874
0.000889077
0.000837089
0.000780196
0.000724862
0.00066561
0.000596155
7.53439e-05
0.00021404
8.84624e-05
0.00013327
0.000147006
0.000158227
0.000172124
0.000187647
0.000195531
0.000202546
0.000201415
0.000195232
0.000187498
0.000172353
0.000158722
0.000147631
0.000133839
8.44082e-05
0.000203361
7.90605e-05
0.00011534
0.000385105
0.000437069
0.000490779
0.000546797
0.000580676
0.000599535
0.000467383
0.000457106
0.000301398
0.000298551
0.000450925
0.000464993
0.000590714
0.000566691
0.000532794
0.00047831
0.000422189
0.000369592
0.000115843
0.000155245
0.00042459
0.000491193
0.000545365
0.000596413
0.000614605
0.000567626
0.000331177
0.000571993
0.000439185
0.000434693
0.000554707
0.000334136
0.000569254
0.000603095
0.000583422
0.000531455
0.000475241
0.000407882
0.000154165
0.000168054
0.000429971
0.000502056
0.000560543
0.000603672
0.000609915
0.000523332
0.000302151
0.000790707
0.000586484
0.000582296
0.000759391
0.000302485
0.000534531
0.000604109
0.000594586
0.000549104
0.000489544
0.000414589
0.000166643
0.000165437
0.00034199
0.0004787
0.000560916
0.000606198
0.000619345
0.000518551
0.000350593
0.00106627
0.000754703
0.00075261
0.00101708
0.000338243
0.000531236
0.000614005
0.000595067
0.000545985
0.000457444
0.000322443
0.000172498
0.000312769
0.000305212
0.000350713
0.000429986
0.000523244
0.000588654
0.000521767
0.000408257
0.00132677
0.000938996
0.000940344
0.00125949
0.000388486
0.000528969
0.000580274
0.000510199
0.000416147
0.00033966
0.0003044
0.000322827
0.000402968
0.00037182
0.000347431
0.000390172
0.000479275
0.000569561
0.000574365
0.000491229
0.00150081
0.00112175
0.00112824
0.00142412
0.000474954
0.000580641
0.000567141
0.000475
0.000386257
0.000347215
0.000376796
0.000404827
0.000464694
0.000555279
0.000496697
0.000526787
0.000583471
0.000629444
0.000631552
0.000610339
0.00157459
0.00125552
0.00126696
0.00149718
0.000600553
0.000639769
0.000635578
0.000588088
0.000531226
0.000503349
0.000567515
0.0004639
0.00051781
0.000642226
0.000882338
0.00108039
0.00125366
0.00126085
0.00101739
0.00100619
0.00150629
0.00135398
0.00136299
0.0014509
0.000986628
0.00102972
0.00126935
0.00125429
0.00107909
0.000885437
0.000643127
0.000515427
0.000580391
0.000651008
0.000709461
0.000768443
0.000831638
0.000891503
0.000955311
0.00104425
0.0011579
0.00117474
0.00118309
0.00114628
0.00103335
0.000946965
0.000884751
0.000825739
0.000763173
0.000704872
0.000646903
0.000576915
0.000128081
7.67818e-05
0.000189277
0.000135275
0.000145385
0.000156592
0.000170223
0.000185328
0.00019364
0.000201413
0.000201356
0.000194357
0.000186358
0.000171137
0.000157375
0.000145986
0.000136233
0.000184809
7.38844e-05
0.000137659
0.00015221
0.000356558
0.000426817
0.000469032
0.000519981
0.000552374
0.000576008
0.000452728
0.000442324
0.000298554
0.000300144
0.000448084
0.000461088
0.000582932
0.000557841
0.000524535
0.000470648
0.000426086
0.000353388
0.000151583
0.000156465
0.000408675
0.000472817
0.000524412
0.000571143
0.000589185
0.000556297
0.000326337
0.000544378
0.000434671
0.000435759
0.000545346
0.000331356
0.000562968
0.000592786
0.00057369
0.000523711
0.000469072
0.000402185
0.000157074
0.000165658
0.000415763
0.000489374
0.000547265
0.000588227
0.000595911
0.000527221
0.000297206
0.000749414
0.000582271
0.000582236
0.000742132
0.000298055
0.000531548
0.000595084
0.000585548
0.000541955
0.000483571
0.000408043
0.000165643
0.000166511
0.000344417
0.000478574
0.000556265
0.000597453
0.000612323
0.000528215
0.000332612
0.00100895
0.000752608
0.000751099
0.000990026
0.000327589
0.0005295
0.000605408
0.00058598
0.000537794
0.000450446
0.000316216
0.000181505
0.000318733
0.000308004
0.000349561
0.000428231
0.000522571
0.00058849
0.000531171
0.000387712
0.0012559
0.000940389
0.00093729
0.0012238
0.000375064
0.000526981
0.000573335
0.000503328
0.000410251
0.000336317
0.000305915
0.000326791
0.000404835
0.00037595
0.000348226
0.000388324
0.000478957
0.000572062
0.00058273
0.000477915
0.00142453
0.00112838
0.00112429
0.00138384
0.000463795
0.000578393
0.000562819
0.000470472
0.000382937
0.000347478
0.000380275
0.000405783
0.000465005
0.000561722
0.000496538
0.000522812
0.000579346
0.000627716
0.000633377
0.000601944
0.00150259
0.00126721
0.00126325
0.00145675
0.000591954
0.00063613
0.000630915
0.000582895
0.00052729
0.000502828
0.000571893
0.000463272
0.000517083
0.000641914
0.000881442
0.00106903
0.00124023
0.00124919
0.00101503
0.000990927
0.00145913
0.00136319
0.00135768
0.00142437
0.00097451
0.00102415
0.001261
0.00124258
0.00106805
0.000882733
0.000640561
0.000513714
0.000578776
0.00064866
0.000706405
0.000764204
0.000826611
0.000885834
0.000948849
0.0010359
0.0011486
0.00118319
0.00117864
0.00113699
0.00102512
0.000940056
0.000878659
0.000820216
0.000758254
0.000700932
0.000643571
0.000574231
9.6433e-05
0.00012615
9.59951e-05
0.000138872
0.000150613
0.000159203
0.000167311
0.000176822
0.000183872
0.000195212
0.000194406
0.000183776
0.000177154
0.000167675
0.000159639
0.000151165
0.000138838
0.000105715
0.000146308
8.8752e-05
0.000132104
0.000324177
0.000368723
0.000414675
0.000448918
0.000476025
0.000504731
0.000514956
0.000402393
0.000450707
0.000448272
0.000403898
0.000518633
0.000508403
0.000479384
0.000451919
0.000416945
0.000369693
0.000321855
0.000130237
0.000147952
0.00034918
0.000410926
0.000466238
0.000497427
0.000517274
0.000531142
0.000491129
0.000307324
0.000554257
0.000545685
0.000307421
0.000495066
0.000534346
0.000520233
0.000500498
0.000468929
0.000412922
0.000344572
0.000149942
0.000149564
0.000342384
0.000437016
0.0004964
0.000529099
0.000544059
0.000545886
0.000465036
0.000307152
0.000758609
0.000742581
0.000303516
0.000468524
0.000546955
0.00054459
0.000529727
0.000496584
0.000435488
0.000337107
0.00015591
0.000192844
0.000292621
0.000395694
0.000473381
0.00052602
0.000556891
0.000563946
0.000456326
0.00036407
0.00101583
0.000990567
0.00035371
0.000458679
0.000561337
0.000551906
0.000519043
0.000464299
0.000386098
0.000288715
0.000204741
0.000336853
0.000309814
0.000337394
0.000404986
0.000475259
0.000529383
0.000556304
0.000450027
0.000427793
0.00125777
0.00122439
0.000411353
0.00045073
0.000550711
0.000521997
0.000467812
0.00039865
0.00033416
0.00031248
0.000341302
0.000420495
0.000394205
0.00036574
0.00040773
0.000481184
0.000546348
0.000588163
0.000536444
0.000530298
0.00142208
0.00138445
0.000512498
0.000535002
0.000583684
0.000543204
0.000480069
0.000408579
0.000368662
0.000399198
0.000420798
0.000481979
0.000632469
0.00057273
0.000609963
0.000670072
0.000715536
0.000722206
0.000679832
0.000684262
0.00149504
0.00145735
0.000669408
0.000680644
0.000723746
0.000718015
0.000674358
0.000616121
0.000580528
0.000643045
0.000480306
0.00053636
0.000731938
0.00104617
0.00127155
0.00148445
0.00157744
0.00149273
0.00119174
0.00104551
0.00144942
0.00142468
0.0010307
0.00120782
0.00151094
0.00158382
0.00148553
0.00127083
0.0010477
0.000732786
0.000533516
0.000596143
0.000665682
0.000724832
0.000780018
0.000836759
0.000888848
0.000937948
0.000989992
0.00105781
0.00114594
0.00113704
0.00104864
0.000982241
0.000931469
0.000883012
0.000831318
0.000774904
0.000720038
0.000661247
0.000592228
9.44148e-05
0.000122255
0.000144088
0.000151741
0.000161423
0.000167247
0.000170669
0.000173726
0.000177677
0.000187439
0.000186448
0.000177155
0.000173668
0.000170745
0.000167517
0.000162031
0.000153126
0.000138126
0.000122081
9.60844e-05
0.000129749
0.000288448
0.000347957
0.000390567
0.000418864
0.00044029
0.000462217
0.000493728
0.000523308
0.000464693
0.000461334
0.000518833
0.000491979
0.000461882
0.000440792
0.000419908
0.000391963
0.000348582
0.000288362
0.000129433
0.000143655
0.000337053
0.000411263
0.000456142
0.000480719
0.000492517
0.000502309
0.000520208
0.000498269
0.000334002
0.000331479
0.000495207
0.000518256
0.000502504
0.000494376
0.000483879
0.000459985
0.000414723
0.000338818
0.000145759
0.00019224
0.000328197
0.000423151
0.00048431
0.000519143
0.000532329
0.000534052
0.000535162