/*--------------------------------*- C++ -*----------------------------------*\
| =========                 |                                                 |
| \\      /  F ield         | OpenFOAM: The Open Source CFD Toolbox           |
|  \\    /   O peration     | Version:  v1912                                 |
|   \\  /    A nd           | Website:  www.openfoam.com                      |
|    \\/     M anipulation  |                                                 |
\*---------------------------------------------------------------------------*/
FoamFile
{
    version     2.0;
    format      ascii;
    class       surfaceScalarField;
    location    "600";
    object      phi;
}
// * * * * * * * * * * * * * * * * * * * * * * * * * * * * * * * * * * * * * //

dimensions      [0 3 -1 0 0 0 0];
oriented        oriented;


internalField   nonuniform List<scalar> 
11200
(
0.00319213
-0.00639083
0.0031913
0.00340583
-0.0026752
0.00246158
0.000345931
0.00146353
0.00159632
-0.0012309
0.00140633
0.000170221
-0.00141324
0.000254756
-7.25509e-05
-0.00109911
-0.000287187
-2.65277e-05
-0.000768997
-0.000240142
-9.03304e-05
-0.000522351
-0.000197109
-5.39191e-05
-0.000400656
3.68804e-05
-0.000155124
0.000296883
-0.000740247
4.95658e-05
0.000339035
0.000174143
-0.000229699
0.000626724
-0.000241338
-4.37162e-05
0.000866068
-0.000213444
-2.72246e-05
0.00117453
-0.000248079
-5.70689e-05
0.00147265
-0.000281079
-1.75073e-05
0.000900733
0.000521706
4.99873e-05
-0.00180454
0.00223202
0.000473012
-0.00407306
0.000734588
0.00153391
-0.00346057
-0.00318513
0.00257271
-0.00679418
0.00333369
0.00176132
-0.00991181
0.00175971
0.00300998
-0.00548511
0.00156135
0.00352975
-0.000510135
0.00145405
0.00239218
0.00120253
0.00134154
8.54458e-05
0.00143835
0.00112328
-0.00125706
0.000620681
0.000434057
-0.00130258
-4.02517e-05
-0.000155928
-0.000979217
-0.000290615
-0.000231396
-0.000381356
-0.000234846
-0.000317511
-0.000142729
-0.000459272
-0.000524228
0.000667114
-0.000314896
-0.000312782
0.00100025
-0.0002499
-0.000332325
0.00129668
-0.00032118
-0.000184764
0.00112585
-1.93877e-05
-5.83674e-05
-0.000289464
0.000629769
0.000504092
-0.00244866
0.00161115
0.00106961
-0.00313342
0.00180562
0.00111108
-0.00293726
-0.000695697
0.00123422
-0.00177502
-0.00580795
0.00146075
-0.0102882
0.00171904
0.0010321
-0.0119758
0.00103201
0.00207742
-0.00773645
0.00120602
0.00344926
-0.00312253
0.00124052
0.00352842
-4.84282e-05
0.00117189
0.00259214
0.00134428
0.00103045
0.000991223
0.00136401
0.000857075
-0.000496063
0.000815982
0.000629139
-0.000950992
0.000161077
1.11531e-05
-0.000531837
-0.000197679
-0.000470276
1.85075e-05
-0.000229834
-0.00077068
0.000636488
-0.000238747
-0.000696281
0.000919078
-0.000142627
-0.000388841
0.000231737
0.000198757
0.000168229
-0.00134796
0.000811609
0.000748982
-0.00281166
0.00120262
0.000890837
-0.00355629
0.00127948
0.00107626
-0.00314061
0.000217848
0.00117216
-0.00189595
-0.00311468
0.00117447
-0.000977732
-0.00786872
0.0011427
-0.0122546
0.000988766
0.000517026
-0.0130111
0.000518404
0.000855571
-0.0091024
0.00102746
0.0016686
-0.00517366
0.00123809
0.00239605
-0.00208691
0.00131107
0.00249493
6.90623e-05
0.00117643
0.00191825
0.000883256
0.00105728
0.00104125
0.000840353
0.00085065
-4.88359e-06
0.000635958
0.000575408
-0.000358537
0.000263067
-0.000112016
3.90109e-05
0.000144453
-0.000768895
0.000360808
0.000144431
-0.000703532
-0.000157623
0.000346382
3.03232e-05
-0.00130538
0.000641356
0.000705783
-0.00217662
0.000722342
0.00096065
-0.00271207
0.000592683
0.00114545
-0.00250317
-0.00022635
0.00129702
-0.00153675
-0.00215226
0.00140382
-0.000702886
-0.00521101
0.00126255
-0.000443833
-0.0091495
0.00102178
-0.0132141
0.000515666
0.000115491
-0.0132446
0.000118017
-0.000184963
-0.00973252
0.000930477
-0.00016219
-0.00653479
0.0013383
0.000119314
-0.00402885
0.0016604
0.000614011
-0.00219536
0.00176981
0.00102589
-0.00112343
0.00159497
0.00104257
-0.000561598
0.00138484
0.000754126
-0.00019737
0.00112338
0.000236072
2.96165e-05
0.000752227
5.81295e-06
0.00011543
0.000260906
-0.000143144
5.7992e-05
0.000237698
-0.000500549
-8.88653e-05
0.000793591
-0.000722631
-0.000338686
0.00120238
-0.000690577
-0.000763806
0.00145422
-0.000377983
-0.00139721
0.0016774
5.91966e-06
-0.00246114
0.00185102
0.000295621
-0.0041626
0.00172074
0.000308724
-0.00659924
0.00137515
-3.05682e-05
-0.00977031
0.000960093
-0.0134001
0.000155394
-0.000214026
-0.0128198
-0.000210896
-0.000936655
-0.00982797
0.000817875
-0.00142253
-0.00733206
0.00128297
-0.00157493
-0.00549227
0.00161573
-0.00143066
-0.00421704
0.00187745
-0.00109555
-0.00335757
0.00189925
-0.000730446
-0.00271286
0.00178624
-0.000424142
-0.00217604
0.0016729
-0.000193539
-0.00179336
0.00159294
2.41776e-06
-0.00161102
0.00153107
0.00027021
-0.00174346
0.00153437
0.00060114
-0.00202144
0.00160193
0.000974042
-0.00239401
0.0016826
0.00135039
-0.00292293
0.0017829
0.0016338
-0.00356569
0.00188516
0.00171855
-0.00440579
0.00185994
0.0015488
-0.0056193
0.00162642
0.0010516
-0.0074117
0.00130955
0.000304191
-0.00988218
0.000859135
-0.0129468
-0.000149228
-0.000528022
-0.0117671
-0.000524794
-0.00155052
-0.00938933
0.000583531
-0.00227458
-0.00760872
0.00100043
-0.00256312
-0.00643178
0.00122781
-0.00249207
-0.0056657
0.00137748
-0.00216182
-0.00515307
0.00146523
-0.00165131
-0.00474064
0.00151732
-0.00102298
-0.00433497
0.00153066
-0.000389994
-0.00399069
0.0015646
8.75022e-05
-0.00373457
0.00164612
0.000566616
-0.00384863
0.00162608
0.00118883
-0.00417298
0.00152933
0.00181608
-0.00450541
0.00148413
0.00232817
-0.00489554
0.00146049
0.00265041
-0.00529939
0.00141139
0.00270468
-0.00579839
0.00133822
0.00240599
-0.006536
0.00121522
0.00167056
-0.00768576
0.00100924
0.000618562
-0.00944839
0.000617938
-0.0118728
-0.000455712
-0.000928802
-0.00991281
-0.000925663
-0.00223078
-0.00813693
4.91045e-05
-0.00311752
-0.00703286
0.000310506
-0.00346258
-0.00643574
0.000348715
-0.00335263
-0.00610835
0.000332494
-0.00289183
-0.00592423
0.000310201
-0.00218461
-0.00577373
0.000325734
-0.00133276
-0.00558554
0.000398579
-0.000493036
-0.00536807
0.000537539
9.9475e-05
-0.00511186
0.000784639
0.000682422
-0.0051839
0.00075218
0.00150064
-0.00547348
0.000482159
0.00234299
-0.00568177
0.000333874
0.00304626
-0.00586216
0.000263204
0.00350161
-0.0060078
0.00025288
0.00360334
-0.00618601
0.000285661
0.00325017
-0.00650328
0.000320158
0.00235336
-0.00708916
0.000299852
0.00101989
-0.00818844
7.30966e-05
-0.00999287
-0.000860376
-0.00164252
-0.00663099
-0.00163959
-0.00323949
-0.00551162
-0.001029
-0.00421027
-0.00505215
-0.00101043
-0.00455278
-0.00493234
-0.0011613
-0.00436744
-0.00492887
-0.00136514
-0.00378064
-0.00498794
-0.00152334
-0.00288769
-0.00504165
-0.00162526
-0.00178808
-0.00504871
-0.00163668
-0.000667801
-0.00499661
-0.00149201
0.00010646
-0.00487839
-0.00100804
0.000866352
-0.00491017
-0.00103395
0.00195562
-0.00503686
-0.00152618
0.00304187
-0.00508417
-0.00168409
0.00392997
-0.00507497
-0.00167554
0.00451373
-0.00502032
-0.0015715
0.00469423
-0.0049607
-0.00140612
0.00434548
-0.00496218
-0.00119271
0.00336155
-0.00508055
-0.00102514
0.00173184
-0.00554104
-0.00101822
-0.00667664
-0.00158487
-0.00331703
-0.00331438
-0.00526811
-0.00356118
-0.00618933
-0.00413135
-0.00644317
-0.00467884
-0.00614001
-0.00523229
-0.00537991
-0.00574826
-0.00421654
-0.00620524
-0.0027168
-0.00654867
-0.00105252
-0.00666115
0.000116653
-0.00604786
0.00125404
-0.00604786
0.00288424
-0.00666731
0.00437272
-0.00657287
0.00553339
-0.00623585
0.00629163
-0.00577878
0.00659043
-0.00525975
0.00632834
-0.00470041
0.00539036
-0.00414296
0.00340461
-0.00355579
-0.00327247
0.00246201
-0.00268258
0.00341195
0.00242316
7.48935e-05
0.00242563
-2.31531e-06
0.00265307
0.00136833
-0.00090322
0.000938495
0.000132459
-0.000828096
-1.40619e-05
-0.000133747
-0.000613357
-0.000267654
2.55317e-05
-0.000396294
-0.000279416
-2.94506e-05
-0.000231002
-0.000222429
6.26487e-06
-5.44779e-05
-0.000395085
6.35221e-05
1.56395e-05
1.2465e-05
-3.52448e-05
0.000217222
-0.000487484
5.18831e-05
0.000316246
-0.000117109
-1.56066e-05
0.000441411
-0.00021209
5.88915e-05
0.000635171
-0.000300456
4.84989e-05
0.000869896
-0.000307694
5.52884e-05
0.000637719
0.000210486
7.16186e-05
-0.00120401
0.00231757
-3.07272e-06
-0.00301328
0.00202725
0.00131591
-0.00271061
-0.000686351
0.00295656
-0.00348078
0.00410408
0.00156386
-0.00549357
0.00300692
0.00276244
-0.00232302
0.00275986
0.00349325
0.00098861
0.0023877
0.00251482
0.00136814
0.00189036
0.000964963
0.00133677
0.00132226
-0.000256582
0.000657835
0.000728158
-0.000614151
-7.38467e-05
-1.17414e-05
-0.000411163
-0.000381388
-0.00026027
-0.000270952
-0.000349116
-0.000517237
5.42482e-05
-0.000304213
-0.000530141
0.000181258
-0.000326269
-0.000600183
0.000423137
-0.000341786
-0.000346485
0.000532922
-0.000414743
-9.29254e-05
0.000134737
-0.000140132
0.000179407
-0.00105754
0.000574433
0.000813993
-0.00255903
0.00139865
0.00138284
-0.00303818
0.0018646
0.00204324
-0.00270165
0.00069067
0.00223446
-0.00157453
-0.00295084
0.00259832
-0.00620413
0.00286788
0.00120749
-0.00774449
0.00207544
0.00258191
-0.00507061
0.00257928
0.00387994
-0.00169971
0.0026309
0.00384166
0.000338752
0.00223967
0.00307018
0.00132434
0.00181459
0.00188669
0.00127833
0.00142015
0.000668963
0.000791106
0.000978419
-7.27526e-05
0.000100051
0.000274758
-0.00017554
-0.00025132
-0.000466937
8.62376e-06
-0.000378434
-0.000882364
0.000167571
-0.000364839
-0.00081323
-4.1337e-05
-0.000221788
-0.000299172
-0.000893734
0.000102376
0.000503839
-0.00209819
0.000701294
0.0011121
-0.00323375
0.00111255
0.00148827
-0.00386723
0.00122949
0.00187894
-0.0036519
0.000513946
0.00230759
-0.00246415
-0.0018325
0.00251
-0.00120097
-0.00542892
0.00235769
-0.00825708
0.00184075
0.00102745
-0.00910952
0.000856037
0.00187209
-0.0067593
0.00187157
0.00282768
-0.00373358
0.00231636
0.00329314
-0.00105146
0.00223588
0.00311977
0.000743317
0.00193098
0.00249717
0.00131622
0.00164224
0.00172742
0.00112792
0.00128269
0.000898659
0.00071873
0.000787585
0.000275143
0.000288151
-2.67341e-05
-1.71999e-05
2.07749e-05
-0.000874992
-0.00035481
4.50111e-05
-0.000774501
-0.00106183
0.000345728
0.000170634
-0.00192678
0.000725609
0.000947789
-0.00271238
0.0010434
0.00140427
-0.00332016
0.00112574
0.00174014
-0.00340041
0.000561871
0.00204503
-0.00275104
-0.00105435
0.00232284
-0.00180225
-0.00380008
0.00228139
-0.00101548
-0.00697935
0.00178545
-0.00949115
0.000734221
0.000929274
-0.00973816
-0.000182704
0.00129371
-0.00748863
0.00129521
0.00151894
-0.00469858
0.00207797
0.00178972
-0.00202371
0.00236181
0.00201378
-2.35188e-05
0.00231271
0.00196599
0.00089617
0.00206314
0.00167519
0.00106678
0.0017367
0.00119271
0.00100989
0.00131554
0.000573592
0.000906869
0.000753412
6.20938e-05
0.000812523
-1.82461e-05
-0.000430916
0.000810869
-3.398e-05
-0.00100759
0.000910948
0.00080554
-0.00147634
0.001002
0.00139494
-0.00179402
0.00100797
0.00180745
-0.00189348
0.00076197
0.00214076
-0.00172245
-0.000165164
0.0024071
-0.00143673
-0.00205273
0.00243339
-0.00122217
-0.00473782
0.00209827
-0.000898615
-0.00764387
0.00130098
-0.0100404
-0.000194046
0.000816157
-0.00983197
-0.000933453
0.000822851
-0.00750324
0.000825528
0.000545836
-0.00494151
0.00180268
0.000312843
-0.00249359
0.00231842
0.000355828
-0.000736479
0.0025474
0.000496033
0.000233879
0.0024215
0.000468779
0.00070521
0.00217519
0.000301596
0.00096585
0.00188435
9.92528e-05
0.00110304
0.00159969
3.21186e-05
0.00109665
0.00131439
2.00376e-05
0.0010597
0.00129793
-9.46364e-05
0.00103556
0.00159218
-0.000203843
0.000912288
0.00188161
-0.000230133
0.000650078
0.00216716
-0.000160945
0.000156228
0.00242172
-0.000195764
-0.00082473
0.00255422
-0.000438859
-0.00253256
0.00234915
-0.00073609
-0.00496839
0.00183711
-0.000771582
-0.00762656
0.000877059
-0.010073
-0.000888421
0.000581725
-0.00939192
-0.00154689
0.000308561
-0.00695862
0.000311652
-0.000194643
-0.0047928
0.00135453
-0.000521677
-0.00288543
0.00194636
-0.000619575
-0.00153601
0.0022747
-0.000534326
-0.000692448
0.00230622
-0.000408168
-0.000146539
0.00224285
-0.000303484
0.000256924
0.00213479
-0.000162701
0.000488194
0.00203871
7.46088e-05
0.000557711
0.00194774
0.00032632
0.000502993
0.00193107
0.000494029
0.0003883
0.00200887
0.000619141
0.000180824
0.00209039
0.000745107
-0.000202322
0.00218675
0.000803016
-0.000747677
0.00225714
0.000664292
-0.00159477
0.00224665
0.000321458
-0.00293153
0.0019566
-0.000199613
-0.00482671
0.00138816
-0.00052286
-0.00705531
0.00036945
-0.00957273
-0.00147923
4.72956e-05
-0.00813832
-0.00222702
-0.000516635
-0.00583266
-0.000513623
-0.00113642
-0.00423981
0.000376645
-0.00143351
-0.00306627
0.000826075
-0.00146726
-0.00225767
0.00108745
-0.00127835
-0.00169343
0.00112189
-0.000939547
-0.00129072
0.00113077
-0.000552773
-0.000943744
0.00121209
-0.000167617
-0.00069219
0.00133239
9.72981e-05
-0.000412047
0.00148907
0.000364838
-0.000472778
0.00145999
0.000746794
-0.000781748
0.00126985
0.00112817
-0.00100404
0.00113696
0.00145955
-0.00133113
0.00106021
0.00163811
-0.00172922
0.0010554
0.00158924
-0.00229483
0.00103406
0.0012704
-0.00310665
0.000813491
0.000636065
-0.00428263
0.000389397
2.33457e-05
-0.0059017
-0.000468526
-0.00825664
-0.00215364
-0.00103048
-0.00551224
-0.00323586
-0.00205882
-0.00377799
-0.00205621
-0.00279316
-0.00290903
-0.00160761
-0.00307959
-0.00243141
-0.00151036
-0.00295886
-0.00215261
-0.00159145
-0.00256523
-0.00199421
-0.00161666
-0.0019896
-0.00188595
-0.00160611
-0.00131705
-0.00177839
-0.00147507
-0.000618227
-0.00168965
-0.00119392
0.00012673
-0.00146776
-0.00069797
0.000839828
-0.00148961
-0.000730913
0.00151217
-0.00171408
-0.00126676
0.00217215
-0.00179662
-0.00155197
0.00274102
-0.0019006
-0.0016754
0.00312792
-0.00200816
-0.00167995
0.00323674
-0.00216862
-0.0016417
0.00293485
-0.00245002
-0.00154811
0.00217502
-0.00293262
-0.00161608
0.00109835
-0.00381404
-0.00203004
-0.0055727
-0.0031711
-0.00356254
-0.00526474
-0.00545232
-0.00545001
-0.00638184
-0.00611131
-0.00664429
-0.00684814
-0.00639654
-0.00763295
-0.00573473
-0.00840455
-0.00470898
-0.00911721
-0.00334641
-0.0096899
-0.00173619
-0.00996133
0.000120738
-0.00937295
0.00195006
-0.00936716
0.00353725
-0.00996887
0.00488596
-0.00971846
0.00590179
-0.00915253
0.00655437
-0.0084398
0.00679076
-0.0076651
0.0065126
-0.00687269
0.00555853
-0.00612201
0.0036272
-0.00543911
-0.00521825
0.0015907
0.00145065
0.000370547
0.00136377
0.00265181
2.91047e-07
-0.000206382
0.00314124
-0.000202586
-0.000444437
0.000435477
-6.50012e-05
-0.000252602
-0.00021471
-0.000111222
2.75175e-05
-0.000409775
0.000153556
0.000137613
-0.00033353
0.000186817
0.000125442
-0.000228494
0.000255001
3.27605e-05
-0.000114239
0.000272227
0.000116951
-0.000369725
0.000238377
-4.80342e-05
-1.21624e-05
0.000226443
-4.73341e-05
-0.000342569
0.000327932
-6.30116e-05
-0.00020943
0.000284598
7.86312e-05
-0.000335523
0.000241283
0.000376636
-0.000429393
0.00018629
0.000624104
-0.000176951
1.14062e-06
0.000177644
0.000657034
-0.00021367
-0.00134556
0.00298707
-0.000147926
-0.00162218
0.00195121
0.00128199
0.000424526
0.00205744
0.00145487
-0.000517915
0.00352071
0.00238862
0.000986737
0.00349109
0.00295481
0.00200766
0.00295499
0.00206644
0.00138425
0.00182971
0.00096107
0.00105304
0.00115987
0.000191998
0.000401003
0.000687325
-0.000109481
-0.000243702
0.000197878
-5.03598e-05
-0.000505475
-4.9209e-05
3.57411e-05
-0.000424384
-0.00028646
-7.39119e-05
-0.000323951
-0.000467672
6.51678e-06
-0.000341316
-0.000351675
-6.25102e-05
-0.000433218
-0.000184876
5.25512e-05
-0.000537652
0.000119356
-0.000191942
-0.000278813
0.000367174
-0.000942249
0.000342737
0.000791949
-0.00204429
0.00104898
0.00125894
-0.00282419
0.00149956
0.0019806
-0.0023204
0.00191857
0.00279923
-0.00131204
0.000530541
0.0030107
-0.00116938
0.00314982
0.00124244
-0.00313086
0.00344589
0.00263375
-0.00170309
0.00387786
0.00369239
-0.000110355
0.00369027
0.00362634
0.000751887
0.00293806
0.00298183
0.00121068
0.00230142
0.00199952
0.001067
0.0017363
0.000989071
0.000603678
0.00114033
0.000319392
-1.68225e-05
0.000457129
5.36193e-05
-0.000396087
-0.00022952
-2.51383e-05
-0.000457115
-0.000669781
-0.000137535
-0.000465589
-0.000575878
-0.000468584
-0.00039661
-4.50604e-06
-0.00117603
-2.31601e-05
0.000696924
-0.00218498
0.000535827
0.00130648
-0.00314546
0.000952829
0.00183868
-0.00371583
0.0011143
0.00238404
-0.00367955
0.000760653
0.00301028
-0.00262222
-0.00021841
0.00358968
-0.00123331
-0.00206977
0.00356911
-0.00363519
0.00307332
0.00123836
-0.0051811
0.00166788
0.00231771
-0.00373761
0.00282674
0.00329702
-0.00206872
0.00329539
0.00362132
-0.000343114
0.00300658
0.00333996
0.000896273
0.00252683
0.0027021
0.00128442
0.00206287
0.0019482
0.00105996
0.00158005
0.00113792
0.000605508
0.000976113
0.000447519
0.000107372
0.000160801
-3.23625e-05
-0.000247027
-0.000604628
-0.000550844
-0.00022899
-0.00049211
-0.0012979
0.000141626
0.000379794
-0.00214073
0.000604723
0.00116288
-0.002915
0.000993223
0.0017212
-0.00354366
0.00114565
0.00217605
-0.00376404
0.000744792
0.00263497
-0.00334078
-0.000422279
0.00308257
-0.00233374
-0.00219893
0.00325488
-0.00126729
-0.00402526
0.00267448
-0.00560561
0.00143734
0.0013374
-0.00654049
-0.000160766
0.00207736
-0.0047027
0.00152023
0.00253231
-0.00297837
0.00253263
0.00279651
-0.00106477
0.00281929
0.0028035
0.000522891
0.00267922
0.00252022
0.00127133
0.00235972
0.00206397
0.00129193
0.00196106
0.00148515
0.00103474
0.00146547
0.000785095
0.000753987
0.000807393
7.35704e-05
0.000496636
-4.97712e-05
-0.000660198
0.000499799
-2.83256e-05
-0.00137116
0.000773347
0.000885194
-0.00196823
0.00104554
0.0015514
-0.00246381
0.0012625
0.00203388
-0.00278928
0.00118419
0.00242778
-0.00280321
0.000415898
0.00274997
-0.00252431
-0.00113266
0.00286487
-0.00206394
-0.00309595
0.0025349
-0.00132787
-0.00495117
0.00149079
-0.00688771
-0.000239877
0.00128173
-0.00733612
-0.00141972
0.00180083
-0.00494525
0.000548732
0.00186963
-0.0031164
0.00187175
0.00177508
-0.00117981
0.00252793
0.00170554
0.000373461
0.00276638
0.00159788
0.00117743
0.00262317
0.00134969
0.00137751
0.0023379
0.000958952
0.00134328
0.00196672
0.00049326
0.00127944
0.00154026
5.62902e-05
0.00122322
0.00102511
-0.000349007
0.00121243
0.00099094
-0.000763127
0.00126012
0.00151974
-0.00112574
0.00133077
0.00195909
-0.00138904
0.00136121
0.0023318
-0.0015488
0.00114062
0.00262503
-0.00167562
0.000322103
0.00277474
-0.00179063
-0.00121837
0.00254971
-0.00173873
-0.00321228
0.00190136
-0.00124491
-0.00515959
0.000591442
-0.00761658
-0.00140465
0.000999262
-0.00761125
-0.0022713
0.00135207
-0.00479532
-0.000191482
0.00124523
-0.0029036
0.0012482
0.00100856
-0.00108417
0.00208705
0.000818568
0.000301669
0.00253623
0.000711847
0.00100314
0.00258707
0.000586018
0.00126017
0.00248591
0.000391986
0.00135498
0.00231701
0.000192976
0.00138907
0.00212803
6.45633e-05
0.00142087
0.00187846
-3.6974e-05
0.00140027
0.00184474
-0.00019495
0.00134806
0.00207885
-0.000362605
0.00132801
0.00226069
-0.000486154
0.00124471
0.00242663
-0.000617638
0.000987192
0.00254181
-0.000846447
0.000281172
0.00251605
-0.00111489
-0.0010981
0.00210433
-0.00124765
-0.00297902
0.0012872
-0.000944111
-0.00495741
-0.000136716
-0.00781651
-0.00222373
0.000309631
-0.00703426
-0.00311401
0.000374261
-0.00424082
-0.00113339
0.000196155
-0.00254883
0.000199294
6.51732e-05
-0.00113162
0.00100383
5.38387e-05
-8.18947e-05
0.00148176
0.000102006
0.000454573
0.00162182
0.000154014
0.000698214
0.00164033
0.000191659
0.000863809
0.00166523
0.000211772
0.000974744
0.00172623
8.83435e-05
0.00125347
0.0017795
-2.92272e-05
0.00122342
0.00175401
1.76008e-06
0.00092044
0.0016661
4.65495e-05
0.000823511
0.00159628
0.00010407
0.000674072
0.0015729
0.000148294
0.000433246
0.00156463
0.000119752
-0.000101819
0.00144496
-3.34778e-05
-0.00114803
0.00101589
-0.000247207
-0.00260352
0.000226827
-0.00024751
-0.00433551
-0.00109085
-0.00716422
-0.00305385
-0.00101125
-0.00505274
-0.00420663
-0.00160955
-0.00290934
-0.00279013
-0.0019526
-0.00186418
-0.0019499
-0.00197358
-0.00121872
-0.0014029
-0.00168072
-0.000813982
-0.00115277
-0.00121958
-0.00053352
-0.00109018
-0.000744759
-0.000354691
-0.00102847
-0.000315451
-0.000180489
-0.000860542
2.50173e-05
-3.58916e-05
-0.000524292
0.000118569
0.000471422
-1.00977e-05
0.00021279
0.000442194
-4.45075e-05
0.000548492
-6.42881e-05
-0.000618244
0.000963665
-0.000199339
-0.000944744
0.00142525
-0.000364946
-0.00109841
0.00187006
-0.000541086
-0.00115093
0.0021458
-0.000820995
-0.00119887
0.00211226
-0.00122955
-0.00143374
0.00173099
-0.00188671
-0.00195237
0.00107585
-0.00294871
-0.0027624
-0.00511372
-0.00414622
-0.00413218
-0.00618572
-0.00611301
-0.00637897
-0.00704559
-0.00704323
-0.00727104
-0.00784168
-0.00699974
-0.00871846
-0.00632782
-0.00961019
-0.00530584
-0.0104941
-0.00391882
-0.0112576
-0.00219738
-0.0117189
0.000130579
-0.0112298
0.0024207
-0.0112153
0.00411723
-0.0117299
0.00548518
-0.0112859
0.00649278
-0.0105253
0.00715182
-0.00964013
0.00741046
-0.008745
0.00716911
-0.00786121
0.00621141
-0.00705139
0.00419055
-0.00636739
-0.00614163
0.000165726
0.00142831
-0.00122383
0.000127286
0.000940242
-0.000901916
-6.71885e-05
0.000434517
-0.000443047
4.29127e-05
-0.000217888
4.19263e-05
0.000163905
-0.000399304
0.000166496
0.000425267
-0.000515009
0.000407504
0.000502071
-0.000375587
0.000484927
0.000438125
-0.000276843
0.000589599
0.000269697
-0.000211483
0.000658997
2.16863e-05
-0.000184057
0.000672768
-0.000244083
-0.000196493
0.000685719
-0.000424423
-0.0002095
0.000720037
-0.000464947
-0.000294517
0.000619096
-0.00034748
-0.000387711
0.00051128
-5.42485e-05
-0.000515423
0.000408178
0.000176732
-0.00038341
0.000153537
0.000259418
-0.000141261
-0.000154929
3.00093e-05
0.000669404
-0.000587889
-0.000521792
0.0024096
-0.000575925
0.00229963
-0.000764046
0.00134775
0.00120653
0.00239473
0.00189436
0.00136824
0.00251617
0.00183156
0.00138433
0.00206747
0.00121395
0.00101546
0.00121341
0.000587415
0.000602425
0.000784015
0.000253507
-2.18529e-05
0.000527166
0.000199149
-0.000442099
0.0003174
0.000247189
-0.000589863
0.000217823
0.000160632
-0.000484895
6.94227e-05
-7.91837e-05
-0.000371235
-3.64193e-05
-0.000281802
-0.000383916
3.74488e-05
-0.000358751
-0.000525156
0.000207638
-0.00027805
-0.000620461
0.000364506
-0.000312679
-0.00045201
0.000466101
-0.000681159
-1.19444e-05
0.000656858
-0.00137133
0.000645243
0.000920333
-0.00201125
0.00110593
0.00137323
-0.0021118
0.00149507
0.00207403
-0.00116672
0.00184499
0.00263014
0.00169097
0.00259169
0.00117536
-5.27176e-05
0.00352976
0.00224314
0.000336068
0.0038422
0.00294072
0.000751176
0.0036258
0.00294184
0.001012
0.00294039
0.00248181
0.00106226
0.00230166
0.00170922
0.000808377
0.00167875
0.000953906
0.000329503
0.00112349
0.000450139
-0.000218962
0.000590818
0.000163667
-0.000524402
9.62018e-05
-6.86678e-05
-0.000559634
-0.000248394
-0.000319873
-0.000570774
-0.00013748
-0.000639168
-0.000537836
0.000327705
-0.00117752
-0.000215822
0.000830708
-0.00195219
0.000301807
0.00132738
-0.00271745
0.000747367
0.00184468
-0.00314276
0.00100262
0.00245202
-0.00310551
0.000988415
0.00309058
-0.00241875
0.00070754
0.00369049
-0.00123959
0.000346707
0.00388829
-9.5496e-05
0.00362027
0.00131182
-0.00209386
0.00239714
0.00223769
-0.00105633
0.00329324
0.00300864
-0.000344932
0.00362051
0.00327521
0.000478317
0.00327373
0.00305229
0.00106413
0.00274798
0.00252462
0.00117156
0.00222753
0.00183838
0.00087907
0.00171668
0.00109588
0.000389059
0.00111101
0.000440981
-0.000134918
0.000426629
-5.73132e-05
-0.000501215
-0.000164234
-0.000594929
-0.000485892
-3.89135e-05
-0.00130266
-0.000103304
0.000653332
-0.00207653
0.000394424
0.00132668
-0.00277924
0.00083122
0.00189457
-0.00330669
0.0010647
0.00238622
-0.0034994
0.000925197
0.00290515
-0.00318857
0.000342483
0.00341771
-0.00241048
-0.000520685
0.00370507
-0.00143971
-0.00129763
0.00334805
-0.00249155
0.00239362
0.00165954
-0.00403361
0.000119362
0.00236161
-0.00202844
0.00179018
0.00281974
-0.00106714
0.00279672
0.00306219
-6.39483e-06
0.0030616
0.00301242
0.000905506
0.00288772
0.00269388
0.00131285
0.00253714
0.00221174
0.00119949
0.00212292
0.00160188
0.000833339
0.00163134
0.00085889
0.000429697
0.000986182
2.14042e-05
5.98084e-05
0.00022723
-0.00083431
5.73007e-05
0.000284768
-0.00158922
0.000443689
0.00109349
-0.002219
0.000842099
0.0017337
-0.00273694
0.00117283
0.00221036
-0.00308755
0.00123057
0.00261263
-0.00314735
0.000780581
0.00295446
-0.00289491
-0.000147362
0.00310231
-0.00242373
-0.00125275
0.0027958
-0.00167113
-0.00228699
0.00172754
-0.00441359
1.10163e-05
0.00161458
-0.00549564
-0.00157236
0.00231681
-0.00249758
0.000315462
0.00252639
-0.00118218
0.00177712
0.00253486
-2.3113e-05
0.00253613
0.00246832
0.000922422
0.00281601
0.00227471
0.00140809
0.00272161
0.00193369
0.00141578
0.00246272
0.0014402
0.00120127
0.00209242
0.000807669
0.000976425
0.00162631
6.20398e-05
0.000842585
0.000988305
-0.000677744
0.00082948
0.000958874
-0.00129281
0.000966561
0.00161215
-0.00178038
0.00120034
0.00208855
-0.00214178
0.00140806
0.00245803
-0.00237222
0.00137157
0.0027145
-0.00247323
0.000850493
0.0028058
-0.00247527
-0.000123215
0.00252752
-0.0022665
-0.00133818
0.00177788
-0.00156675
-0.00273006
0.000334569
-0.00579929
-0.00158586
0.00122689
-0.00643384
-0.00256023
0.00194427
-0.00288788
-0.000518872
0.00208437
-0.00108591
0.00101149
0.00194484
0.000255709
0.00194746
0.00180667
0.00108557
0.00251105
0.00165332
0.00146957
0.00267883
0.00140738
0.00150705
0.0026405
0.00102573
0.00141654
0.00248333
0.000554795
0.00131848
0.0022569
7.32116e-05
0.00130646
0.0018962
-0.000393056
0.00128658
0.00185392
-0.000838096
0.00128995
0.00220048
-0.00120433
0.00140088
0.00242632
-0.00145251
0.00149859
0.00258418
-0.00162454
0.00145433
0.00263092
-0.00179057
0.00105303
0.0024793
-0.00194947
0.00019863
0.00194104
-0.00183121
-0.00119818
0.0010285
-0.00115879
-0.00305498
-0.000484671
-0.00664954
-0.00253258
0.000348077
-0.00643682
-0.00345941
0.000824069
-0.00306732
-0.0014305
0.00100078
-0.00113239
6.83995e-05
0.000990203
0.000275929
0.000993553
0.0010037
0.000963658
0.00158972
0.00102203
0.00121681
0.00185592
0.000968944
0.00126061
0.00193958
0.000816076
0.0012799
0.00195449
0.000569963
0.00131082
0.00197975
0.000104946
0.00159618
0.00195454
-0.000369147
0.00159079
0.00192364
-0.000614144
0.00127952
0.00192127
-0.000760942
0.00124878
0.00189491
-0.000810208
0.00123878
0.00188166
-0.000794874
0.00119823
0.001805
-0.000795725
0.000940221
0.0015581
-0.000822366
0.000243469
0.000997009
-0.000683635
-0.00119769
8.68078e-05
-0.00027511
-0.00315922
-0.0013958
-0.00656615
-0.0034127
-0.00116171
-0.00493278
-0.00454935
-0.00151162
-0.00243174
-0.00307642
-0.0014051
-0.00121886
-0.00197057
-0.00105077
-0.000433822
-0.00104804
-0.000664412
7.92995e-05
-0.00065525
-0.000344082
0.000332312
-0.000526434
-8.96427e-05
0.00047302
-0.000495721
9.74937e-05
0.000653699
-0.000421881
0.000224888
0.000855503
-0.000196802
0.00011881
0.00150074
0.000190968
2.22984e-05
0.00146997
0.00017239
0.000145632
0.000809268
-0.000271719
0.000319002
0.000632734
-0.000502439
0.000560674
0.000464708
-0.000566394
0.000867665
0.000327079
-0.000587205
0.00123889
7.29142e-05
-0.000703324
0.00157014
-0.000443324
-0.00107886
0.0016291
-0.00123731
-0.00197245
0.00122656
-0.00246702
-0.00305267
-0.00498967
-0.00449653
-0.00467927
-0.00643956
-0.00684927
-0.00664105
-0.0078435
-0.00726813
-0.00806085
-0.00805838
-0.00775998
-0.00894022
-0.00708744
-0.00995059
-0.00608371
-0.0110249
-0.00465567
-0.0120321
-0.00275266
-0.0127666
0.000145735
-0.0126276
0.00299557
-0.0125954
0.00485606
-0.0127813
0.00625677
-0.0120541
0.00724225
-0.0110462
0.0079
-0.009971
0.00818621
-0.00895852
0.007953
-0.00807161
0.00693699
-0.00727301
0.00473209
-0.00662985
-0.00639939
-6.8188e-05
0.000257209
-0.00141324
-0.0001328
-1.46887e-05
-0.000822982
-0.000109085
-0.000215101
-0.000252731
0.000168334
-0.00039971
0.000162684
0.000437051
-0.000538906
0.000435856
0.000682201
-0.000506555
0.000668067
0.000763813
-0.000403476
0.00080607
0.000680896
-0.00030778
0.00098117
0.000416444
-0.000237188
0.0011577
-1.69477e-05
-0.000210725
0.00132014
-0.000462664
-0.000216297
0.00134647
-0.000714584
-0.000248418
0.00122038
-0.000777136
-0.000336536
0.00101801
-0.00066509
-0.000433168
0.000832258
-0.000400429
-0.000526883
0.00067022
-0.000134971
-0.000522803
0.000410688
2.04329e-05
-0.000380117
6.97595e-05
-5.85202e-05
-0.000171053
-0.000337751
-5.82881e-05
0.000262127
-0.000838363
0.000602703
-0.001425
0.00112647
0.00143691
8.84894e-05
0.00132478
0.0013361
0.000966473
0.00116157
0.00105322
0.000961324
0.000785262
0.000602879
0.000586803
0.000478489
7.41458e-05
0.000477418
0.000386522
-0.000356742
0.000469126
0.000430712
-0.00062116
0.000489982
0.000464882
-0.00064744
0.00052455
0.000282531
-0.000520247
0.000533204
-0.000122672
-0.000396845
0.000556048
-0.000485637
-0.000423178
0.000607158
-0.000599118
-0.000580349
0.000652985
-0.000530847
-0.000689039
0.000648636
-0.000478906
-0.000628984
0.000609927
-0.000589578
-0.000339564
0.000580186
-0.000911001
0.00013035
0.000588537
-0.00126221
0.000654924
0.000689178
-0.00140795
0.00106074
0.000987872
-0.00108651
0.00141049
0.00116021
0.00162488
0.000482807
0.00103234
0.00134017
0.00259404
0.00181665
0.00132241
0.00307125
0.0023034
0.00121033
0.00298183
0.00230313
0.00106239
0.00248104
0.00191449
0.000851049
0.0019134
0.00133958
0.000496897
0.00140013
0.000816668
1.29491e-05
0.00101205
0.00048181
-0.000431194
0.000709926
0.000211211
-0.000626144
0.000472592
-0.000108474
-0.000625328
0.000300167
-0.000414997
-0.000648067
0.000394167
-0.000689101
-0.000649041
0.000670683
-0.00105445
-0.000422901
0.000929993
-0.0015963
1.31528e-05
0.00122714
-0.00216102
0.000465458
0.00160442
-0.00250378
0.000800993
0.00212419
-0.00245799
0.00100224
0.00269752
-0.00195848
0.00109112
0.00316062
-0.00113279
0.00117053
0.00330263
0.00118341
0.00292922
0.00117719
6.38499e-05
0.0024961
0.00193226
0.000740099
0.00312034
0.00252846
0.000894853
0.00333973
0.00274942
0.00106386
0.00305133
0.00260097
0.00114778
0.00259979
0.00219059
0.00100751
0.00212746
0.00159584