/*--------------------------------*- C++ -*----------------------------------*\
| =========                 |                                                 |
| \\      /  F ield         | OpenFOAM: The Open Source CFD Toolbox           |
|  \\    /   O peration     | Version:  v1912                                 |
|   \\  /    A nd           | Website:  www.openfoam.com                      |
|    \\/     M anipulation  |                                                 |
\*---------------------------------------------------------------------------*/
FoamFile
{
    version     2.0;
    format      ascii;
    class       volVectorField;
    location    "600";
    object      U;
}
// * * * * * * * * * * * * * * * * * * * * * * * * * * * * * * * * * * * * * //

dimensions      [0 1 -1 0 0 0 0];


internalField   nonuniform List<vector> 
4000
(
(0.00855227 -0.0215587 0.00854965)
(0.0146213 -0.00895493 0.00740826)
(0.0122422 0.00326261 0.0059625)
(-0.00638282 0.00278923 0.00101522)
(-0.00535103 -0.00261988 -0.000100443)
(-0.00540098 -0.00138274 -0.00030219)
(-0.00359609 -0.000719587 -0.000490395)
(-0.00286151 -0.000769007 -0.000473136)
(-0.00121877 -0.000172697 -0.000193358)
(-0.000513293 -0.00374474 -0.00255545)
(0.000789196 -0.000148823 -0.000403876)
(0.00241329 -0.00107154 -0.000725596)
(0.00289733 -0.000676577 -0.000429375)
(0.00414366 -0.00062829 -0.000413382)
(0.00502829 -0.00144753 -0.000278892)
(0.00781927 -0.00190434 9.04298e-05)
(-0.00115213 0.00566922 0.00237562)
(-0.0155307 -0.000633245 0.00562236)
(-0.0161847 -0.0113513 0.00745736)
(-0.00916738 -0.0233094 0.00884615)
(0.00404968 -0.0335016 0.00404985)
(0.0093373 -0.0157252 0.00366766)
(0.0151818 0.00486595 0.00400906)
(0.0119897 0.00758645 0.00375931)
(0.00759741 0.00565465 0.0034594)
(-0.00577692 -0.000401388 0.000382414)
(-0.00526939 -0.00158514 -0.00084596)
(-0.00481019 -0.000979159 -0.00110219)
(-0.00269835 -0.000133417 -0.0012536)
(-0.00145019 -0.00202839 -0.00178302)
(0.00124767 -0.000122364 -0.00122614)
(0.00345918 -0.000891176 -0.00130394)
(0.00477903 -0.00120175 -0.0010254)
(0.00544025 -0.00181479 -0.00070673)
(0.00416275 -0.000305596 0.000707565)
(-0.00779988 0.00654612 0.00301187)
(-0.0110353 0.0100662 0.00296022)
(-0.0142246 0.00329275 0.00317826)
(-0.00928324 -0.0173386 0.00352251)
(-0.00409965 -0.0350729 0.00409188)
(0.002233 -0.0451384 0.00223687)
(0.00577754 -0.0276869 0.00265482)
(0.0110576 -0.00850047 0.00273351)
(0.015487 0.00254785 0.00280987)
(0.0132516 0.00580565 0.00271614)
(0.00763565 0.00508127 0.00223766)
(0.000610612 0.0017687 0.00142569)
(-0.0046559 -0.00127902 -0.00108718)
(-0.00303337 -0.00123567 -0.00198493)
(-0.00116581 -0.00187055 -0.002838)
(0.00159096 -0.00119163 -0.00266555)
(0.00314886 -0.00126548 -0.00181787)
(0.00448236 -0.0012811 -0.000715784)
(-0.00260519 0.00221152 0.0019913)
(-0.00881536 0.0050532 0.00233228)
(-0.0137606 0.00662131 0.00277029)
(-0.0146613 0.00506029 0.00273971)
(-0.00992993 -0.00836215 0.00265066)
(-0.00540039 -0.0284967 0.00259502)
(-0.00209689 -0.0464484 0.00228524)
(0.00118127 -0.0507795 0.00118831)
(0.00279017 -0.0344328 0.00233449)
(0.00421646 -0.0171162 0.00289481)
(0.00824042 -0.00408192 0.0035477)
(0.0111196 0.00450528 0.00327661)
(0.00931684 0.00599927 0.00302941)
(0.00597195 0.00459972 0.00250198)
(0.0023447 0.00256079 0.00172288)
(-0.00215952 -0.000445272 -0.00116911)
(-0.000612291 -0.000957155 -0.00295287)
(0.000880012 -0.000839603 -0.00274433)
(0.00192434 0.000154072 -0.000681644)
(-0.00332091 0.00285884 0.00219241)
(-0.00713721 0.00429056 0.00292775)
(-0.010396 0.00497415 0.00336217)
(-0.0116471 0.0033815 0.00370787)
(-0.00828115 -0.00405405 0.00384194)
(-0.00342303 -0.0171639 0.00302748)
(-0.00236672 -0.0347112 0.00237442)
(-0.000972222 -0.0517058 0.00130801)
(0.000381579 -0.0532183 0.000390981)
(0.000317294 -0.0382568 0.00206412)
(-0.00161225 -0.0240121 0.00293097)
(-0.00014072 -0.0125429 0.00419627)
(0.00104515 -0.00400533 0.00517811)
(0.00395745 0.000993155 0.00490855)
(0.00439915 0.00250684 0.00444822)
(0.00389327 0.00313789 0.00379162)
(0.00205814 0.00343078 0.00264942)
(0.000164327 0.00328812 0.00111037)
(-0.000185841 0.00336062 0.000961109)
(-0.00115191 0.00338575 0.00271801)
(-0.00276734 0.00283526 0.00402991)
(-0.00307463 0.00171124 0.0046358)
(-0.00267304 -0.000454316 0.00509113)
(-0.000337899 -0.00538306 0.0052593)
(0.000558054 -0.0131573 0.00429391)
(0.00214704 -0.0242408 0.00302788)
(0.000131083 -0.0383511 0.00215283)
(-0.000129477 -0.0539162 0.000578614)
(-0.000361733 -0.052707 -0.000351125)
(-0.00170731 -0.0395403 0.0015065)
(-0.00557154 -0.0281222 0.00211698)
(-0.00609395 -0.0194708 0.00282248)
(-0.00637131 -0.0134779 0.00348399)
(-0.00510316 -0.00971507 0.00383666)
(-0.00366761 -0.00680519 0.0038657)
(-0.00226329 -0.00444771 0.00393967)
(-0.00112513 -0.00286103 0.00416065)
(-0.000382453 -0.00224336 0.0044545)
(0.000451512 -0.00291027 0.00438731)
(0.00167609 -0.00389981 0.00400482)
(0.00312829 -0.00538968 0.00376342)
(0.00471189 -0.00769054 0.00364277)
(0.00605907 -0.0105669 0.00356222)
(0.00704149 -0.0142982 0.00327737)
(0.00661085 -0.0199841 0.00274654)
(0.0060456 -0.0284308 0.00212841)
(0.00215509 -0.0397508 0.00157714)
(0.000638205 -0.0532578 -0.00012709)
(-0.00129707 -0.0499785 -0.00128672)
(-0.00350719 -0.0391742 0.000361818)
(-0.00858762 -0.0306007 0.000372417)
(-0.00988395 -0.0246129 0.000248238)
(-0.0105023 -0.0205739 5.8881e-05)
(-0.00948582 -0.0178105 -0.000164693)
(-0.00777224 -0.0157015 -0.000305589)
(-0.00544163 -0.0138088 -0.000276819)
(-0.00268924 -0.0123484 4.61933e-05)
(-0.000468722 -0.0114333 0.000835197)
(0.0011861 -0.01191 0.000706545)
(0.00336597 -0.0131417 -0.000153159)
(0.00609539 -0.0145795 -0.000533679)
(0.00843773 -0.0164322 -0.000570144)
(0.010147 -0.0185287 -0.000414388)
(0.0111016 -0.021224 -0.000134455)
(0.0104281 -0.025097 0.000139167)
(0.00908861 -0.0309318 0.000322783)
(0.00396592 -0.0394086 0.000392498)
(0.00157178 -0.0504485 -0.00106752)
(-0.00274086 -0.0442681 -0.00273104)
(-0.0057059 -0.0361119 -0.00164689)
(-0.0117134 -0.0304717 -0.00226965)
(-0.013491 -0.027097 -0.00306206)
(-0.0140852 -0.0250779 -0.00386365)
(-0.0127453 -0.0238265 -0.00463105)
(-0.0103401 -0.0228221 -0.00527923)
(-0.00717396 -0.0217619 -0.00572013)
(-0.00343206 -0.0207722 -0.00570702)
(-0.000613284 -0.0198002 -0.00477982)
(0.00142253 -0.0201464 -0.00481321)
(0.0041293 -0.02131 -0.00575863)
(0.00781581 -0.022272 -0.00585686)
(0.010964 -0.0232922 -0.00545516)
(0.0133552 -0.0242694 -0.00480989)
(0.0146656 -0.0254859 -0.00401823)
(0.0140398 -0.0274414 -0.00316863)
(0.0122265 -0.0307487 -0.00233466)
(0.00617001 -0.0363451 -0.00164046)
(0.00301702 -0.0446436 -0.00253566)
(-0.00537358 -0.0331345 -0.00536428)
(-0.00943938 -0.0278605 -0.0048819)
(-0.0159467 -0.0252828 -0.0059233)
(-0.0179499 -0.0243324 -0.00707915)
(-0.0183228 -0.0240853 -0.0082224)
(-0.0165997 -0.0242105 -0.00923453)
(-0.0135756 -0.0243665 -0.0101006)
(-0.00955837 -0.0243053 -0.0107344)
(-0.00464279 -0.0239508 -0.0108813)
(-0.0010206 -0.0232107 -0.00979103)
(0.00188892 -0.0233829 -0.00976772)
(0.00534858 -0.0242021 -0.0108621)
(0.0101894 -0.0245284 -0.0107992)
(0.0141786 -0.0245757 -0.0102052)
(0.0171917 -0.0244137 -0.00934866)
(0.0188994 -0.024282 -0.00832572)
(0.0185071 -0.0245148 -0.00716073)
(0.0164684 -0.0254502 -0.0059747)
(0.00989229 -0.028031 -0.00487639)
(0.00565211 -0.0333819 -0.0051944)
(-0.010564 -0.019973 -0.0105551)
(-0.0176386 -0.0157792 -0.0117123)
(-0.0239359 -0.0140869 -0.0137948)
(-0.0257393 -0.0134537 -0.0156976)
(-0.0256639 -0.0130636 -0.0175818)
(-0.0234032 -0.0127165 -0.0193361)
(-0.0195102 -0.0121804 -0.0209131)
(-0.0141561 -0.0113462 -0.022142)
(-0.00730065 -0.0102401 -0.022616)
(-0.00208733 -0.00916997 -0.0204796)
(0.00300818 -0.00937729 -0.020451)
(0.00800068 -0.0104477 -0.0225858)
(0.0147945 -0.0114922 -0.0222004)
(0.0201267 -0.012293 -0.0210082)
(0.0240144 -0.0128124 -0.0194383)
(0.0262642 -0.0131518 -0.0176771)
(0.0263173 -0.0135344 -0.0157757)
(0.0244683 -0.0141654 -0.0138433)
(0.0180783 -0.0158622 -0.0117071)
(0.0108536 -0.020105 -0.0104099)
(0.00741009 -0.00897638 0.014625)
(0.0113499 -6.42019e-05 0.0113503)
(0.00831691 0.00846491 0.00707491)
(-0.00637659 -0.000600585 0.00067643)
(-0.00283966 -0.0043045 -0.000540807)
(-0.00310805 -0.00224499 -1.52915e-05)
(-0.00199227 -0.000794171 -0.000354323)
(-0.000809695 -0.000462235 -6.80276e-05)
(-0.00144428 -0.00198999 0.000243491)
(-8.8844e-05 -0.00105936 -3.39716e-05)
(0.00118124 -0.00256049 6.44778e-05)
(0.000638115 -0.000265915 0.000132573)
(0.0015012 -0.000404589 -9.5178e-05)
(0.00232028 -0.000837692 -9.20649e-05)
(0.00266322 -0.00242332 8.89116e-05)
(0.00482719 -0.00352622 0.000271103)
(0.000285326 0.00669795 0.00178189)
(-0.0111167 0.00507684 0.00696428)
(-0.0129073 -0.00309214 0.0123918)
(-0.00785585 -0.0121012 0.0157862)
(0.00367238 -0.0157597 0.00932564)
(0.00883676 -0.00205974 0.00882262)
(0.0136699 0.0104192 0.00805536)
(0.0126964 0.0079104 0.00674153)
(0.00831961 0.00525705 0.00524287)
(2.59257e-05 0.000697175 0.00280566)
(-0.00260624 -0.0020846 -0.000536311)
(-0.00218194 -0.0017364 -0.00105177)
(-0.00132094 -0.00135471 -0.00180585)
(-0.000399853 5.90189e-06 -0.00235526)
(0.000411697 -0.00125164 -0.001783)
(0.0013318 -0.000947919 -0.00154601)
(0.00199285 -0.00186214 -0.000575882)
(0.00221522 -0.00230504 0.000201182)
(-0.000763606 0.000513288 0.00310466)
(-0.00896938 0.00591048 0.00519663)
(-0.0108162 0.0103797 0.00637469)
(-0.013132 0.0088523 0.00729258)
(-0.00867766 -0.0050611 0.00813901)
(-0.00377757 -0.0189066 0.00899746)
(0.00265698 -0.0277203 0.00577425)
(0.00721117 -0.0162142 0.00720261)
(0.0134935 -0.00198144 0.0076135)
(0.0166533 0.00373443 0.00680808)
(0.0145011 0.0056643 0.00571587)
(0.0100757 0.00458509 0.00463852)
(0.00518077 0.00208608 0.00341784)
(0.000302188 -0.00117251 0.000902555)
(-0.000976237 -0.00178094 -0.0020116)
(-0.000394978 -0.00161743 -0.00349858)
(0.000467346 -0.00170308 -0.00327225)
(0.000860833 -0.00174793 -0.00153369)
(-0.00111016 -0.00115137 0.00177212)
(-0.00611945 0.00184558 0.00385785)
(-0.0109586 0.00419863 0.00484786)
(-0.0150285 0.00579156 0.00595153)
(-0.0158953 0.00527963 0.00693259)
(-0.0127311 -0.00278292 0.00721927)
(-0.00704933 -0.0180384 0.00674378)
(-0.0026889 -0.0301051 0.00539527)
(0.00233331 -0.0344634 0.00279511)
(0.00599939 -0.0246419 0.00599897)
(0.0090717 -0.0121212 0.00726784)
(0.0128323 -0.00176286 0.00709967)
(0.0136575 0.00453194 0.00619742)
(0.0115416 0.00567322 0.00542575)
(0.00848574 0.00424923 0.00432713)
(0.0052892 0.00203815 0.00278976)
(0.00199588 -0.000297191 -1.80218e-05)
(0.000275901 -0.00159196 -0.0034797)
(-0.000390488 -0.00148744 -0.00311083)
(-0.00254144 -2.45949e-05 0.000693727)
(-0.00602334 0.00206103 0.00337405)
(-0.00936113 0.00384127 0.00478124)
(-0.0124603 0.00482908 0.00580951)
(-0.0143173 0.00377151 0.00669253)
(-0.0128505 -0.00165224 0.00750007)
(-0.00861518 -0.0123899 0.00728904)
(-0.00588376 -0.0256966 0.00591679)
(-0.00231353 -0.0361864 0.00266539)
(0.00206071 -0.0382834 0.000328546)
(0.00531204 -0.0292856 0.00531839)
(0.00515719 -0.0176888 0.00765223)
(0.00650486 -0.00674492 0.0086699)
(0.00786843 0.00150802 0.00845844)
(0.00835471 0.00492985 0.00751777)
(0.00745594 0.0050034 0.00639263)
(0.00593079 0.00405469 0.0049922)
(0.00357654 0.00310443 0.00312099)
(0.00119858 0.00239659 0.000633207)
(-0.000725015 0.00250904 0.000514528)
(-0.00287388 0.00330696 0.00332487)
(-0.00513623 0.00409092 0.0053234)
(-0.00669437 0.00469432 0.00670095)
(-0.00779289 0.00417472 0.0078917)
(-0.00744996 0.000691412 0.00891584)
(-0.00629219 -0.00690626 0.00900047)
(-0.00477542 -0.0179007 0.00781508)
(-0.00512256 -0.0299942 0.00545801)
(-0.00198453 -0.0396283 0.000444605)
(0.00150289 -0.039559 -0.00169291)
(0.00468644 -0.0305601 0.00469644)
(0.00212175 -0.0198049 0.00763112)
(0.0018653 -0.00932612 0.00925732)
(0.000728078 -0.00161056 0.0102315)
(0.00204302 0.00246396 0.00984398)
(0.00205517 0.00386984 0.00893861)
(0.00167107 0.00448225 0.00796367)
(0.000771606 0.00474677 0.00710849)
(0.000119393 0.00465598 0.00634527)
(0.000141867 0.00449898 0.00637046)
(-8.13272e-05 0.00452618 0.00722197)
(-0.000694793 0.00433109 0.00809868)
(-0.000933346 0.00367746 0.00902745)
(-0.00106107 0.00212229 0.00992627)
(-0.000152363 -0.00197889 0.0102654)
(-0.00145884 -0.00942936 0.00938927)
(-0.00169088 -0.0199351 0.00779583)
(-0.00442045 -0.0311099 0.00493802)
(-0.00139663 -0.0406454 -0.00142519)
(0.000358758 -0.0391873 -0.00349165)
(0.00355021 -0.0296374 0.00356168)
(-0.000640094 -0.0199173 0.00667081)
(-0.00133917 -0.010968 0.00828394)
(-0.00266441 -0.00486394 0.00929237)
(-0.00238325 -0.00134386 0.00980655)
(-0.00184829 0.000860577 0.0100289)
(-0.00140722 0.00224969 0.0098894)
(-0.000966627 0.00300868 0.00968564)
(-0.000239237 0.0030851 0.00950667)
(0.000833819 0.00290031 0.0095076)
(0.00168335 0.002638 0.00966503)
(0.00222234 0.00193046 0.00981587)
(0.00271732 0.000578859 0.00987643)
(0.00320155 -0.00164399 0.00964444)
(0.00329487 -0.00517208 0.00917999)
(0.00186043 -0.0111645 0.00828888)
(0.00113902 -0.019994 0.00678129)
(-0.0031881 -0.0300795 0.00379737)
(-0.000231879 -0.0400368 -0.00316302)
(-0.00164958 -0.0361196 -0.00569043)
(0.00081799 -0.0261137 0.000830133)
(-0.00433349 -0.0184094 0.00341786)
(-0.00517783 -0.0120038 0.00428913)
(-0.0061367 -0.00725916 0.00464051)
(-0.0056121 -0.00393681 0.00490703)
(-0.00454049 -0.0015936 0.00534328)
(-0.00299675 0.000350322 0.00609963)
(-0.00135637 0.00145527 0.00690039)
(-8.88807e-05 0.00179343 0.00776874)
(0.000877683 0.00157412 0.00761413)
(0.00213962 0.00106949 0.00662183)
(0.00376843 0.00011615 0.00580132)
(0.00527513 -0.0017106 0.0050905)
(0.00632115 -0.00404186 0.00466875)
(0.00679256 -0.00739913 0.00444454)
(0.00576181 -0.0121596 0.00417599)
(0.00483318 -0.0185883 0.00341146)
(-0.000371129 -0.026435 0.00102012)
(0.00178546 -0.0367132 -0.00536309)
(-0.00488486 -0.0278637 -0.00942497)
(-0.00516359 -0.0201479 -0.00515423)
(-0.0106591 -0.015792 -0.0040466)
(-0.0119787 -0.0133333 -0.00424584)
(-0.0124633 -0.0120357 -0.00494973)
(-0.0112144 -0.0114351 -0.00550297)
(-0.00924094 -0.0112625 -0.00578727)
(-0.00670898 -0.0112032 -0.00563983)
(-0.00377517 -0.0111821 -0.00489299)
(-0.00129072 -0.0101845 -0.00282054)
(0.00227914 -0.010304 -0.00295197)
(0.00458883 -0.0113629 -0.00506568)
(0.00745577 -0.0113616 -0.00587765)
(0.00995382 -0.0114031 -0.00603371)
(0.0119076 -0.0115683 -0.00574028)
(0.0131169 -0.012169 -0.00515598)
(0.0125852 -0.0134756 -0.00440594)
(0.0111834 -0.015945 -0.00409891)
(0.00556865 -0.0203642 -0.00506135)
(0.00504249 -0.0281944 -0.00915457)
(-0.011716 -0.0157806 -0.0176258)
(-0.018339 -0.00927992 -0.0183311)
(-0.02474 -0.00619772 -0.0208508)
(-0.0264834 -0.00436813 -0.0235118)
(-0.0265537 -0.00300785 -0.0262991)
(-0.0245968 -0.00181262 -0.0289881)
(-0.0212069 -0.000503897 -0.0314155)
(-0.0164643 0.00102387 -0.0333183)
(-0.0101029 0.00266931 -0.0341359)
(-0.00428405 0.00450084 -0.0319018)
(0.00523707 0.00429612 -0.0318759)
(0.0108821 0.00250528 -0.0341552)
(0.0171984 0.000932962 -0.0334248)
(0.021893 -0.000556022 -0.0315523)
(0.0252472 -0.00184845 -0.0291253)
(0.0271645 -0.00304269 -0.0264241)
(0.027044 -0.00440606 -0.0236077)
(0.0252254 -0.00625159 -0.020893)
(0.0186973 -0.00936656 -0.0182878)
(0.0119071 -0.0159385 -0.0174326)
(0.00594642 0.00321552 0.012273)
(0.00705575 0.00845648 0.00833235)
(0.00379634 0.0108323 0.00381602)
(-0.00427974 -0.0031332 6.09481e-05)
(-0.000518334 -0.00425555 -0.000549875)
(-0.000806897 -0.00273122 0.000354042)
(0.000448263 -0.00118821 0.000246819)
(0.000455837 -0.00044492 0.000312196)
(0.000674426 -0.000181909 8.48957e-05)
(-3.17823e-06 -0.00182817 0.000893587)
(7.36799e-05 -0.000209189 -0.000140238)
(0.000194472 -0.00123936 0.000631329)
(-0.000579793 -0.000331555 0.00057687)
(-3.93801e-06 -0.00111434 0.00054177)
(0.000988638 -0.00276513 0.000487177)
(0.0016437 -0.00427854 0.000146784)
(0.00433534 -0.00234867 -0.00139584)
(-0.00374073 0.00959086 0.00377364)
(-0.00726795 0.00480673 0.0110605)
(-0.00600391 -0.00132582 0.0158758)
(0.00400801 0.00482517 0.0151637)
(0.00806169 0.0104148 0.0136633)
(0.0109643 0.0125653 0.0109637)
(0.0113134 0.00709517 0.00807494)
(0.00650873 0.00368463 0.00539759)
(0.00132761 -0.000124096 0.00314305)
(-0.000152402 -0.00236816 0.000537008)
(-0.000474941 -0.00211086 -0.00075332)
(-7.02843e-06 -0.00115854 -0.00179808)
(-3.80726e-06 -0.00115124 -0.0023627)
(-0.000197286 -0.000488217 -0.00213198)
(-0.00014615 -0.00167621 -0.00130901)
(8.82761e-05 -0.00220939 -3.17188e-05)
(8.97383e-05 -0.00248342 0.00126044)
(-0.00125222 -0.000314846 0.00350643)
(-0.00672766 0.00386326 0.00585074)
(-0.0105616 0.0076452 0.00887657)
(-0.0107403 0.0121694 0.0105265)
(-0.00774494 0.00854872 0.0128003)
(-0.0033165 0.00154022 0.0138326)
(0.00273743 -0.00852966 0.0110447)
(0.00762438 -0.0019926 0.0134819)
(0.0132852 0.0044048 0.0132742)
(0.0156614 0.00487748 0.0109411)
(0.0136485 0.00501919 0.00867926)
(0.0101739 0.0035668 0.00665005)
(0.00601463 0.0011807 0.00446186)
(0.00201453 -0.0015672 0.00152721)
(0.000446405 -0.00218885 -0.00150031)
(-3.0356e-06 -0.0018217 -0.00336676)
(-0.000200192 -0.00188433 -0.00303344)
(-0.000909997 -0.00224712 -0.000682168)
(-0.00274122 -0.00157298 0.00245695)
(-0.00677403 0.000998648 0.00504771)
(-0.0109397 0.0033057 0.006976)
(-0.0142429 0.00491309 0.00897122)
(-0.0156623 0.00526712 0.0112249)
(-0.0132014 0.00403034 0.0127264)
(-0.00759815 -0.00377541 0.012194)
(-0.00274242 -0.0105139 0.00941274)
(0.00289359 -0.0171506 0.00421512)
(0.00727133 -0.0121367 0.00906859)
(0.0112651 -0.00579333 0.0112586)
(0.0145775 0.000613236 0.0107229)
(0.0145024 0.00447905 0.00920154)
(0.0123356 0.00502348 0.00765525)
(0.00933732 0.00365266 0.00589736)
(0.00625506 0.00154416 0.00359772)
(0.00293294 -0.000796038 0.000144354)
(0.000720566 -0.0018862 -0.00317035)
(-0.000972781 -0.00182142 -0.00275041)
(-0.00350269 -0.000683273 0.000988302)
(-0.00696508 0.00149968 0.00428047)
(-0.0101791 0.00331866 0.00640483)
(-0.0132244 0.00440935 0.00804811)
(-0.0152504 0.00384831 0.00960321)
(-0.0149033 0.000327495 0.0109898)
(-0.0113034 -0.00625437 0.0110181)
(-0.0073999 -0.0132986 0.00845191)
(-0.00294617 -0.0190526 0.00333024)
(0.00292735 -0.024038 -0.00160568)
(0.00764913 -0.0177056 0.0051631)
(0.00910807 -0.0109568 0.00911024)
(0.010786 -0.00356926 0.0103917)
(0.011579 0.00254407 0.0101054)
(0.0109319 0.00512381 0.00898625)
(0.00929194 0.00479596 0.00749888)
(0.00723542 0.00330267 0.0055784)
(0.00461327 0.00168948 0.00301837)
(0.00189325 3.10917e-05 -0.00049091)
(-0.00132861 9.26415e-05 -0.000508789)
(-0.00413852 0.00183148 0.00326313)
(-0.00679715 0.00333976 0.00590064)
(-0.0089811 0.00458154 0.00777648)
(-0.0108188 0.0046032 0.00926802)
(-0.0115779 0.0019313 0.0104317)
(-0.0108104 -0.00392456 0.0106342)
(-0.00901684 -0.0114856 0.00913984)
(-0.00764437 -0.0187869 0.00508027)
(-0.00283921 -0.0255611 -0.00182061)
(0.00211379 -0.0281417 -0.00556008)
(0.00762485 -0.0198209 0.0021336)
(0.00714683 -0.0127197 0.0071557)
(0.00747247 -0.00483742 0.00977553)
(0.00678668 0.00179314 0.010853)
(0.00683313 0.00519695 0.0102752)
(0.00602786 0.00575086 0.00913316)
(0.00476423 0.00525819 0.00772445)
(0.00291465 0.0046993 0.00622367)
(0.00107123 0.00430994 0.00456962)
(-0.000616331 0.00427885 0.00445956)
(-0.00221499 0.00469166 0.00616018)
(-0.00388942 0.00527733 0.00770232)
(-0.00512057 0.0057056 0.00911337)
(-0.00608588 0.0050053 0.0103038)
(-0.00628844 0.00153216 0.0109137)
(-0.00716126 -0.00502785 0.00990541)
(-0.00681507 -0.0131428 0.00729316)
(-0.00746871 -0.0207506 0.00232139)
(-0.00195726 -0.029417 -0.00545737)
(0.000370555 -0.0306136 -0.00857401)
(0.00666338 -0.0199312 -0.000626813)
(0.00477262 -0.0123875 0.00478493)
(0.00477921 -0.00489082 0.00810003)
(0.00344377 0.000749328 0.00996781)
(0.00308458 0.00380002 0.0100484)
(0.00265674 0.0048084 0.00958353)
(0.00202201 0.00498419 0.00894792)
(0.00112565 0.00498325 0.00834976)
(0.00044186 0.0049373 0.00768966)
(8.0417e-05 0.00486439 0.00757922)
(-0.000404396 0.00482432 0.00816255)
(-0.00116136 0.00486051 0.0087026)
(-0.00173102 0.00471463 0.0093077)
(-0.00221582 0.00368391 0.00983658)
(-0.00270843 0.000590102 0.00986634)
(-0.00423605 -0.00502699 0.00817235)
(-0.00424039 -0.0127326 0.00494962)
(-0.00637247 -0.0207179 -0.000391173)
(-0.000204006 -0.0315885 -0.00835348)
(-0.00227075 -0.0304792 -0.0116989)
(0.00341155 -0.0184157 -0.00432162)
(0.000319875 -0.0107036 0.000332378)
(0.000708135 -0.00331856 0.00322524)
(0.00013349 0.00250851 0.00528152)
(0.000337256 0.00522002 0.00567068)
(0.000523201 0.00640423 0.00566041)
(0.000693161 0.00709009 0.00581406)
(0.000889118 0.00738021 0.00619005)
(0.000690622 0.00754819 0.00664666)
(1.7407e-05 0.00749049 0.00653625)
(-0.000136531 0.00729154 0.00591935)
(0.000100049 0.0070742 0.00548645)
(0.000298419 0.00643318 0.00532858)
(0.000481463 0.00524486 0.00537592)
(0.000657433 0.00252579 0.00505362)
(-3.52949e-05 -0.00327096 0.00323547)
(0.000327996 -0.0109515 0.000428058)
(-0.00304936 -0.0189143 -0.00415061)
(0.00242294 -0.0311483 -0.0114381)
(-0.00592433 -0.025286 -0.0159321)
(-0.00405268 -0.0157936 -0.0106476)
(-0.00808603 -0.0107129 -0.00807666)
(-0.0078716 -0.0074858 -0.00698552)
(-0.00764666 -0.00562076 -0.00681997)
(-0.00577324 -0.00454938 -0.00626358)
(-0.00391768 -0.00432544 -0.00564257)
(-0.00209401 -0.00427983 -0.00446967)
(-0.000360074 -0.00438013 -0.00260378)
(0.000375712 -0.00229204 -0.000169584)
(0.00057082 -0.00242814 -0.000372489)
(0.00132049 -0.0046407 -0.00308025)
(0.00299804 -0.00451238 -0.00487672)
(0.00476387 -0.00448301 -0.00596303)
(0.00657266 -0.00467618 -0.00653466)
(0.00835671 -0.00572909 -0.00700975)
(0.00855362 -0.00760759 -0.00712018)
(0.00865993 -0.0108698 -0.00809963)
(0.00445577 -0.0160315 -0.0105375)
(0.00605965 -0.0256262 -0.0156828)
(-0.0137967 -0.0140882 -0.0239217)
(-0.0208561 -0.00619845 -0.0247295)
(-0.027469 -0.00250317 -0.0274609)
(-0.0290616 -0.000184304 -0.0306426)
(-0.0289982 0.00154222 -0.0340961)
(-0.0269622 0.00304628 -0.0375165)
(-0.0235976 0.00467959 -0.0407331)
(-0.0188622 0.00655491 -0.04339)
(-0.0123246 0.00856146 -0.0447841)
(-0.00567081 0.0105952 -0.0422634)
(0.00669043 0.0104246 -0.0422471)
(0.013135 0.00844787 -0.0448131)
(0.0196153 0.00650298 -0.0435054)
(0.0242832 0.00465438 -0.0408732)
(0.0275959 0.00303095 -0.0376549)
(0.029582 0.00152466 -0.0342207)
(0.0295925 -0.000206795 -0.0307383)
(0.027924 -0.00255434 -0.0275042)
(0.0211827 -0.00629055 -0.0246868)
(0.0139687 -0.0142415 -0.0237423)
(0.00104309 0.00290525 -0.00624126)
(0.000638075 -0.000590779 -0.00636685)
(4.74895e-05 -0.00314129 -0.00426912)
(-0.000164739 -0.00440187 -0.000163254)
(0.000497831 -0.00351523 6.80076e-05)
(0.000989868 -0.00254958 0.00105751)
(0.00202757 -0.00129138 0.00130899)
(0.00200637 -0.000572784 0.00164763)
(0.00151079 -0.000398323 0.00184498)
(0.000717239 -0.000447916 0.00137556)
(-0.000561925 -0.00054307 0.00192907)
(-0.00147469 -0.000279007 0.0018308)
(-0.00190595 -0.00055912 0.00178769)
(-0.00177315 -0.00126735 0.00144651)
(-0.000662089 -0.00256988 0.00113635)
(0.000148746 -0.00362172 0.000223615)
(0.000934537 -0.00465663 -0.000818686)
(0.00167737 -0.00232601 -0.00413559)
(-0.00184365 0.00713349 0.000356185)
(-0.00278289 0.00602347 0.00276131)
(0.00377733 0.00762025 0.0119569)
(0.00676275 0.0079141 0.0126882)
(0.00808804 0.00709694 0.0113145)
(0.00673191 0.00404648 0.00672744)
(0.00346549 0.00114006 0.0040424)
(0.00104863 -0.00186098 0.00235719)
(0.000875424 -0.00261168 0.00106736)
(0.000877169 -0.00224447 0.000352646)
(0.00094242 -0.00151742 -0.000569576)
(0.00027146 -0.00106708 -0.00120381)
(-0.000849405 -0.00108339 -0.000891013)
(-0.00142518 -0.00167234 4.20959e-05)
(-0.0012583 -0.00243235 0.000983062)
(-0.00111982 -0.00271449 0.00169271)
(-0.00126433 -0.00177583 0.00284685)
(-0.00406597 0.00147034 0.00451307)
(-0.00741915 0.00456726 0.00736913)
(-0.00910292 0.00770558 0.0105764)
(-0.00663858 0.0105869 0.0109709)
(-0.00317412 0.0100051 0.0116139)
(0.00282078 0.0025504 0.0154778)
(0.00682282 0.00373178 0.0166486)
(0.010954 0.00487703 0.0156555)
(0.0124358 0.00459041 0.0124276)
(0.0111458 0.00386386 0.00964601)
(0.00869871 0.00219069 0.00720178)
(0.00518736 -0.00019671 0.00471687)
(0.00245219 -0.00223293 0.00215829)
(0.00110392 -0.00250238 -0.000296393)
(0.000194687 -0.00205594 -0.00196114)
(-0.00074156 -0.00214811 -0.0015395)
(-0.00180251 -0.00266491 0.000693915)
(-0.00328078 -0.00223759 0.00313035)
(-0.00615387 -0.000203859 0.00545779)
(-0.00968905 0.0021373 0.00771164)
(-0.0120457 0.0038863 0.0100668)
(-0.0131077 0.00483345 0.0128054)
(-0.0116855 0.00518562 0.0154202)
(-0.00732239 0.00493666 0.0157788)
(-0.0029117 0.00421454 0.0147001)
(0.00354762 -0.00411526 0.00823798)
(0.00710554 -0.00178214 0.0128279)
(0.0107313 0.000607515 0.0145711)
(0.0131579 0.00326862 0.0131501)
(0.0130731 0.0046541 0.0109751)
(0.0113891 0.00432457 0.00887256)
(0.00882914 0.00283158 0.00677438)
(0.00593129 0.000652211 0.00425942)
(0.00286584 -0.00150136 0.00117158)
(0.00077704 -0.00241123 -0.00162446)
(-0.00123744 -0.00235777 -0.00115041)
(-0.0036268 -0.00139531 0.00206699)
(-0.00683507 0.000671701 0.00506437)
(-0.00983101 0.00262871 0.00740215)
(-0.0124396 0.00391415 0.00939322)
(-0.0140635 0.00416507 0.0114641)
(-0.0139429 0.00283083 0.0135245)
(-0.011401 -2.69404e-05 0.0145276)
(-0.00777288 -0.00266252 0.0124384)
(-0.0038567 -0.00569723 0.00766468)
(0.00419184 -0.0125655 -0.000134845)
(0.00866805 -0.00676453 0.00650978)
(0.0103919 -0.00357798 0.0107869)
(0.0120175 0.000383727 0.0120146)
(0.01247 0.00368383 0.01135)
(0.0116497 0.00490728 0.00994959)
(0.0099346 0.0041287 0.00825406)
(0.00776991 0.00236734 0.00620666)
(0.0050363 0.000356446 0.00351998)
(0.00206404 -0.00167474 0.000179909)
(-0.00191939 -0.00162746 0.000363994)
(-0.00495494 0.000470352 0.00389119)
(-0.00773881 0.00238845 0.0065764)
(-0.0100351 0.00394235 0.00856307)
(-0.0119095 0.00445274 0.0102171)
(-0.0128173 0.00305183 0.0115962)
(-0.0123446 -0.000275589 0.0121566)
(-0.0106534 -0.00435962 0.0108043)
(-0.00889694 -0.00784542 0.00644984)
(-0.00404014 -0.0142501 -0.000418419)
(0.002819 -0.0194869 -0.006083)
(0.00925195 -0.00934475 0.00187633)
(0.00976818 -0.00484772 0.0074808)
(0.010281 -0.000329806 0.0102864)
(0.0100453 0.00367362 0.0112612)
(0.00966775 0.0057192 0.0107415)
(0.00855561 0.00563779 0.00960327)
(0.00691613 0.00454478 0.00805612)
(0.00458913 0.00339313 0.00618173)
(0.00197803 0.00259483 0.00378681)
(-0.00148204 0.00254279 0.00362744)
(-0.00403684 0.003394 0.00608647)
(-0.00628768 0.00457992 0.0080175)
(-0.00796155 0.00559945 0.00957458)
(-0.00920916 0.00551017 0.0107306)
(-0.00974306 0.00330345 0.0112692)
(-0.0100879 -0.000797862 0.0103387)
(-0.00952541 -0.00555353 0.00759396)
(-0.00912079 -0.0103696 0.00204702)
(-0.00254552 -0.0208583 -0.00604958)
(0.000246481 -0.0246235 -0.00987158)
(0.00827835 -0.0109806 -0.00132729)
(0.0080891 -0.0048991 0.00479092)
(0.00831817 -0.000240545 0.00832889)
(0.00741418 0.00332832 0.0102306)
(0.00699357 0.0051741 0.010586)
(0.0062349 0.00528978 0.0102215)
(0.00500646 0.0046241 0.00949879)
(0.00318775 0.00392308 0.00860257)
(0.00130964 0.00357588 0.00731026)
(-0.00072022 0.00350587 0.00713918)
(-0.00248371 0.00382381 0.00837073)
(-0.00420716 0.00456983 0.00926077)
(-0.00540889 0.00525437 0.00999098)
(-0.00622065 0.00508018 0.010412)
(-0.00673194 0.00311873 0.0101529)
(-0.00778007 -0.000578088 0.00839446)
(-0.00751983 -0.00544407 0.00494038)
(-0.007967 -0.0117932 -0.00112522)
(4.81804e-06 -0.0256671 -0.00971378)
(-0.00306269 -0.027103 -0.0134776)
(0.00428447 -0.0120108 -0.00516567)
(0.00321394 -0.0033244 0.000721065)
(0.00441295 0.00313374 0.00442615)
(0.00388434 0.00621936 0.00640973)
(0.00410175 0.00750535 0.00713834)
(0.00407196 0.00782187 0.00726729)
(0.00364389 0.00789867 0.00727196)
(0.00290486 0.00792005 0.00738029)
(0.00158419 0.00818756 0.0073827)
(-0.000753514 0.00811037 0.00727075)
(-0.00211744 0.00784892 0.00714227)
(-0.00281764 0.00788848 0.00702159)
(-0.00322745 0.00784619 0.00702881)
(-0.00325736 0.00752294 0.00694372)
(-0.00306526 0.00620251 0.00631363)
(-0.00369161 0.00305197 0.00449637)
(-0.00248807 -0.00366591 0.000842019)
(-0.00389084 -0.012512 -0.00500469)
(0.00326122 -0.0277856 -0.0132611)
(-0.00707933 -0.0243346 -0.0179356)
(-0.0042494 -0.0133347 -0.011966)
(-0.00699213 -0.00748619 -0.00785958)
(-0.00464838 -0.00343567 -0.00463768)
(-0.0032969 -0.00111958 -0.00263278)
(-0.00195931 -0.000571415 -0.0024337)
(-0.000811471 -0.000947956 -0.00245437)
(2.6459e-05 -0.00128617 -0.00217932)
(0.000811029 -0.00153292 -0.00125342)
(0.000812815 0.000723559 0.000486735)
(0.000158768 0.000712559 0.000409682)
(0.000176141 -0.00179503 -0.00156466)
(0.000924111 -0.00149841 -0.00249409)
(0.0017003 -0.00109145 -0.00272826)
(0.00280114 -0.00068349 -0.00267028)
(0.00407897 -0.00123445 -0.00282005)
(0.00539393 -0.00356219 -0.00475159)
(0.00754118 -0.0076223 -0.00785855)
(0.00464438 -0.0135464 -0.011857)
(0.00722112 -0.0246531 -0.0177063)
(-0.0156983 -0.0134547 -0.0257247)
(-0.023515 -0.00436913 -0.026471)
(-0.0306483 -0.000184867 -0.0290509)
(-0.0322735 0.00236207 -0.0322648)
(-0.0320694 0.00417435 -0.0357828)
(-0.0299546 0.00578087 -0.0394346)
(-0.0267072 0.0076029 -0.0432418)
(-0.0219871 0.00972102 -0.046642)
(-0.0150609 0.0120552 -0.0488482)
(-0.00734227 0.0147036 -0.0473602)
(0.00847306 0.0145021 -0.0472707)
(0.0159169 0.0119837 -0.0489271)
(0.0227252 0.0096923 -0.0467581)
(0.0273552 0.00758465 -0.0433552)
(0.0305424 0.00576489 -0.039541)
(0.0326023 0.00415708 -0.0358743)
(0.0327452 0.00233721 -0.0323263)
(0.03105 -0.000236703 -0.0290755)
(0.0238076 -0.00445737 -0.0264244)
(0.0158593 -0.0135973 -0.0255557)
(-8.74281e-05 -0.00261146 -0.00538017)
(-0.000528016 -0.00430739 -0.00283615)
(-0.000541738 -0.0042592 -0.00052143)
(7.56032e-05 -0.003518 0.000495026)
(0.00120321 -0.00293438 0.00119939)
(0.00222146 -0.00207417 0.00212085)
(0.00305289 -0.00119684 0.00256221)
(0.00305785 -0.000613386 0.00309675)
(0.00237129 -0.000423772 0.0035563)
(0.00106224 -0.000504593 0.00381946)
(-0.00123441 -0.000474124 0.00393167)
(-0.00253579 -0.000368265 0.00378484)
(-0.00316295 -0.000657541 0.00322665)