/*--------------------------------*- C++ -*----------------------------------*\
| =========                 |                                                 |
| \\      /  F ield         | OpenFOAM: The Open Source CFD Toolbox           |
|  \\    /   O peration     | Version:  v1912                                 |
|   \\  /    A nd           | Website:  www.openfoam.com                      |
|    \\/     M anipulation  |                                                 |
\*---------------------------------------------------------------------------*/
FoamFile
{
    version     2.0;
    format      ascii;
    class       volScalarField;
    location    "500";
    object      epsilon;
}
// * * * * * * * * * * * * * * * * * * * * * * * * * * * * * * * * * * * * * //

dimensions      [0 2 -3 0 0 0 0];


internalField   nonuniform List<scalar> 
2000
(
0.0317387
0.000949442
0.000544717
0.000346866
0.00037807
0.00036838
0.000407901
0.000439753
0.000487556
0.000540432
0.000588057
0.000642327
0.000700275
0.000765472
0.000836828
0.000915163
0.00100005
0.00109179
0.00119042
0.00129602
0.00140874
0.0015286
0.00165575
0.00179022
0.00193205
0.00208116
0.00223752
0.00240104
0.0025716
0.00274904
0.0029332
0.0031238
0.00332055
0.00352301
0.00373066
0.00394274
0.00415831
0.00437632
0.00459674
0.00482478
0.00505773
0.00529673
0.00554179
0.00579296
0.00604994
0.00631256
0.00658033
0.0068529
0.00712965
0.0074101
0.0076936
0.00797957
0.00826729
0.0085561
0.00884527
0.00913422
0.00942239
0.00970784
0.00998942
0.0102715
0.0105564
0.01086
0.0113068
0.0118431
0.0124162
0.0130276
0.0136858
0.0143963
0.0151697
0.0160222
0.01697
0.0180379
0.0192404
0.020664
0.0222555
0.0243497
0.0264249
0.0302706
0.0327083
0.0435476
0.112681
0.0139201
0.00213914
0.000793155
0.000339169
0.000333803
0.000291694
0.000302253
0.000323178
0.000348214
0.000373493
0.000402757
0.0004359
0.000473276
0.000514701
0.000560146
0.000609472
0.000662695
0.000719799
0.000780752
0.000845551
0.000914146
0.000986506
0.00106256
0.00114226
0.00122551
0.00131215
0.00140207
0.00149512
0.00159112
0.00168991
0.00179125
0.00189493
0.00200064
0.00210808
0.00221688
0.00232675
0.00243771
0.00255078
0.00266926
0.00279033
0.00291388
0.00304001
0.00316866
0.00329973
0.00343311
0.0035686
0.00370602
0.00384513
0.0039857
0.00412746
0.00427013
0.00441342
0.00455703
0.00470062
0.00484391
0.00498655
0.00512787
0.00526754
0.00540639
0.00554583
0.00569089
0.00586231
0.00605212
0.00625092
0.00645957
0.00668006
0.00691373
0.00716376
0.00743493
0.00773231
0.00806335
0.00843566
0.0088597
0.00936094
0.00993042
0.0106568
0.0115169
0.0125381
0.0146711
0.100178
0.0136586
0.00450206
0.00280386
0.000820277
0.000691894
0.000447993
0.000424233
0.000407896
0.000418761
0.000434218
0.000454511
0.000481356
0.000513266
0.000550264
0.000591803
0.000637629
0.000687536
0.000741411
0.000799111
0.000860541
0.000925568
0.000994049
0.00106583
0.00114069
0.00121843
0.00129909
0.00138251
0.00146852
0.00155695
0.00164765
0.00174044
0.00183515
0.00193163
0.0020297
0.00212929
0.00223042
0.00233341
0.00243908
0.00254794
0.00265881
0.00277165
0.00288644
0.00300312
0.00312157
0.00324164
0.00336313
0.00348584
0.0036095
0.00373383
0.00385855
0.00398334
0.00410788
0.00423184
0.00435488
0.00447664
0.00459677
0.00471483
0.00483055
0.00494418
0.0050564
0.0051694
0.00528997
0.00541687
0.00554714
0.00567898
0.00581411
0.00595492
0.00610394
0.0062644
0.00644014
0.00663673
0.0068605
0.00711209
0.00742961
0.00775312
0.00826612
0.0086879
0.00956649
0.0104791
0.0920261
0.0124427
0.00355347
0.00443781
0.00402339
0.00177534
0.00102231
0.000769254
0.000641213
0.000610934
0.000599572
0.000599458
0.000613565
0.000636316
0.000667276
0.000704768
0.000748061
0.000796519
0.000849802
0.000907606
0.000969718
0.0010359
0.00110594
0.00117965
0.00125693
0.00133766
0.00142158
0.00150851
0.00159827
0.00169069
0.00178562
0.00188291
0.00198242
0.00208403
0.00218762
0.00229313
0.00240058
0.00251004
0.00262154
0.00273522
0.00285065
0.00296779
0.00308657
0.00320689
0.00332857
0.00345142
0.00357515
0.00369947
0.00382401
0.00394839
0.00407221
0.00419503
0.00431643
0.00443598
0.00455322
0.00466771
0.00477903
0.00488672
0.00499051
0.00509038
0.00518661
0.00528024
0.0053739
0.0054678
0.00556119
0.00565486
0.0057499
0.0058475
0.00594992
0.00605996
0.00618138
0.00631524
0.00646975
0.00664657
0.00688163
0.00711235
0.00751853
0.00782622
0.00857451
0.00903827
0.0898631
0.0123699
0.00280678
0.00252469
0.00568387
0.0055199
0.00286972
0.00173545
0.0012413
0.0010411
0.000946661
0.000887371
0.000865672
0.000864111
0.00087933
0.000906209
0.000942584
0.000986755
0.00103772
0.00109482
0.00115756
0.0012255
0.00129822
0.00137546
0.00145703
0.00154272
0.00163226
0.0017254
0.00182192
0.00192163
0.00202432
0.00212985
0.00223805
0.00234878
0.00246188
0.00257723
0.00269471
0.00281422
0.0029356
0.00305874
0.00318338
0.00330946
0.00343687
0.00356547
0.00369502
0.00382522
0.00395571
0.00408603
0.00421569
0.00434418
0.00447094
0.00459537
0.00471692
0.00483501
0.00494906
0.0050585
0.00516282
0.00526155
0.00535427
0.00544092
0.00552152
0.0055966
0.00566751
0.00573469
0.0057982
0.00585934
0.00591926
0.00597939
0.00604209
0.00611016
0.00618732
0.00627791
0.00638666
0.00651328
0.00669028
0.00686607
0.00719652
0.00744503
0.00808852
0.00831991
0.0889602
0.012409
0.00273157
0.00133919
0.00290411
0.00752604
0.00744082
0.00458282
0.00286332
0.00207482
0.00170177
0.00147009
0.00134357
0.00127584
0.00124878
0.00124604
0.00126175
0.00129156
0.00133248
0.00138303
0.00144199
0.00150833
0.00158123
0.00166018
0.00174484
0.00183486
0.00192984
0.00202939
0.00213319
0.00224093
0.00235236
0.00246725
0.00258539
0.00270654
0.00283044
0.00295685
0.0030855
0.00321609
0.00334832
0.00348195
0.00361676
0.00375262
0.00388941
0.0040269
0.00416479
0.00430268
0.00444005
0.0045763
0.0047108
0.00484284
0.0049717
0.00509663
0.00521691
0.00533183
0.0054407
0.00554279
0.00563758
0.00572451
0.00580305
0.00587326
0.00593493
0.00598839
0.00603479
0.00607432
0.00610753
0.00613649
0.00616207
0.00618601
0.00621104
0.00623999
0.00627696
0.00632603
0.00639015
0.00647524
0.00660429
0.00673952
0.00700451
0.00720724
0.00775473
0.00784945
0.0885802
0.012346
0.00282341
0.00106611
0.001182
0.00352853
0.00910242
0.00989502
0.00716279
0.00464274
0.00342069
0.00270646
0.00230263
0.00205903
0.00191976
0.00184025
0.00180182
0.00179269
0.00180438
0.00183362
0.00187722
0.00193267
0.00199816
0.00207257
0.00215521
0.00224545
0.00234247
0.00244562
0.00255438
0.00266821
0.00278669
0.00290948
0.00303621
0.00316652
0.00329999
0.00343617
0.00357461
0.00371484
0.00385642
0.00399899
0.00414229
0.00428614
0.00443034
0.00457461
0.00471855
0.00486161
0.00500314
0.00514238
0.00527848
0.0054106
0.00553784
0.00565927
0.00577404
0.00588134
0.0059804
0.00607031
0.00615064
0.0062208
0.00628002
0.00632889
0.00636674
0.00639398
0.00641214
0.00642074
0.00642078
0.00641574
0.00640539
0.00639201
0.00637897
0.00636899
0.00636559
0.00637216
0.00639634
0.00644399
0.00652751
0.00662841
0.00683188
0.00699458
0.0074526
0.007468
0.088411
0.0120864
0.00279452
0.00091087
0.000651724
0.00111351
0.00376194
0.0100443
0.0124708
0.0102923
0.00720902
0.00535658
0.00427415
0.00360123
0.00318619
0.00291904
0.0027486
0.00264302
0.00258283
0.00255777
0.00256013
0.00258374
0.00262459
0.0026801
0.00274863
0.00282903
0.00291943
0.00301864
0.00312576
0.0032398
0.00335997
0.0034857
0.00361641
0.00375147
0.00389019
0.00403189
0.00417587
0.00432145
0.00446805
0.00461521
0.00476257
0.00490985
0.00505681
0.00520306
0.00534806
0.00549111
0.0056314
0.00576798
0.00589981
0.00602591
0.00614522
0.00625667
0.00635927
0.0064522
0.00653469
0.00660554
0.00666473
0.00671159
0.00674486
0.00676654
0.0067747
0.00677036
0.00675596
0.00672942
0.00669375
0.00665102
0.0066027
0.00654891
0.00649453
0.00644325
0.00640311
0.00637455
0.00636327
0.00637342
0.00641208
0.00648167
0.00662827
0.0067552
0.00712976
0.0071073
0.088433
0.0119093
0.00278139
0.000873069
0.000459859
0.000362968
0.00126439
0.00342858
0.0109248
0.0135569
0.0128327
0.0106139
0.00819425
0.00660375
0.00557897
0.00489324
0.00442928
0.0041095
0.00388882
0.00374214
0.00365057
0.00359976
0.0035812
0.0035888
0.00361864
0.00366907
0.00373505
0.00381474
0.00390669
0.0040088
0.00411949
0.00423799
0.0043632
0.00449408
0.00462947
0.00476834
0.0049097
0.00505262
0.00519634
0.00534026
0.00548391
0.0056269
0.00576885
0.00590926
0.00604739
0.00618234
0.00631312
0.00643864
0.00655758
0.00666895
0.0067715
0.00686408
0.00694551
0.00701526
0.00707254
0.00711563
0.00714562
0.00716154
0.00716094
0.00714935
0.00712211
0.00708041
0.00702721
0.0069606
0.00688265
0.00679744
0.00670713
0.00661762
0.00652958
0.00644533
0.00636842
0.00630301
0.00625496
0.00622917
0.00623654
0.00627104
0.00636614
0.00646294
0.00676533
0.0067292
0.0884577
0.0117585
0.0026709
0.000928147
0.000436021
0.000280422
0.000258473
0.0010623
0.00290789
0.00816816
0.0127732
0.0142791
0.0135873
0.0116443
0.00971375
0.00831352
0.00730635
0.00657576
0.00604444
0.00565922
0.00538016
0.00517886
0.00503829
0.00494706
0.00489601
0.0048796
0.004889
0.00492111
0.00497402
0.00504275
0.00512405
0.00521758
0.00532088
0.00543236
0.00554987
0.00567205
0.0057975
0.00592493
0.00605336
0.00618201
0.00631022
0.00643742
0.00656306
0.00668647
0.00680654
0.00692208
0.00703207
0.00713526
0.00722985
0.00731517
0.00738969
0.00745221
0.00750128
0.00753731
0.00755923
0.00756437
0.00755644
0.00753341
0.00749247
0.0074355
0.00736176
0.0072743
0.00717519
0.00706778
0.00695452
0.00683527
0.00671196
0.00658644
0.00646231
0.00634308
0.00623246
0.0061343
0.00605431
0.00599572
0.00597112
0.00598138
0.00603429
0.00610496
0.00634802
0.00631313
0.0885735
0.0114842
0.00250717
0.000876923
0.000380602
0.000253753
0.000212458
0.000281136
0.000541704
0.00178647
0.00471042
0.0106635
0.0140126
0.0148739
0.0144096
0.0131087
0.0115465
0.0103034
0.00933222
0.00857228
0.007984
0.00752896
0.00717954
0.00691551
0.00671979
0.00658059
0.00648675
0.00643032
0.00640613
0.00640869
0.00642926
0.00647123
0.00652782
0.00659721
0.00667503
0.00676016
0.00685053
0.00694426
0.00704004
0.0071368
0.00723364
0.00732964
0.00742403
0.0075158
0.00760324
0.00768479
0.0077598
0.00782666
0.00788273
0.00792844
0.00796165
0.00798121
0.00798507
0.00797633
0.00795223
0.00790655
0.00784377
0.007766
0.00767277
0.0075684
0.00745446
0.00732912
0.00719345
0.00704831
0.00689561
0.00673823
0.00657873
0.0064196
0.00626389
0.00611494
0.00597635
0.00585164
0.00574614
0.00566253
0.00561027
0.00559742
0.00562578
0.00567386
0.00587021
0.00584905
0.0887911
0.0116961
0.00205889
0.000636769
0.000299424
0.000182419
9.76718e-05
0.00012472
0.000103718
0.000466211
0.000797897
0.00266881
0.00561654
0.0108401
0.0138515
0.0149956
0.0148606
0.0143037
0.0132872
0.0122496
0.0113716
0.0106361
0.0100266
0.00953051
0.00913114
0.00881397
0.00856509
0.00837271
0.00822795
0.00812322
0.00805018
0.00800561
0.00798404
0.00798351
0.00799338
0.00801624
0.00804798
0.00808566
0.00812761
0.00817236
0.00821862
0.00826497
0.00831029
0.0083531
0.00839046
0.0084209
0.00844503
0.00846002
0.00846167
0.00845368
0.00843107
0.00838734
0.0083276
0.00825323
0.00816412
0.00806445
0.00795385
0.00783047
0.00769415
0.00754493
0.0073839
0.00721317
0.00703456
0.00684984
0.00666096
0.00647041
0.00628074
0.00609459
0.00591466
0.00574401
0.00558579
0.0054432
0.00532083
0.0052211
0.00515189
0.00511842
0.00513497
0.00516649
0.00532707
0.00533385
0.0891124
0.0121392
0.00220293
0.00050087
0.000165132
7.46787e-05
6.8515e-05
7.38916e-05
4.71943e-05
0.000140641
0.000167752
0.000598133
0.00100809
0.00256847
0.00511169
0.00902959
0.0124116
0.0140936
0.0146793
0.014561
0.0142173
0.0136038
0.0129335
0.0123151
0.0117751
0.0113063
0.0109068
0.0105689
0.0102865
0.0100532
0.00986183
0.00970702
0.00958312
0.00948641
0.0094084
0.00934653
0.00929743
0.00925795
0.00922586
0.00919918
0.00917618
0.00915478
0.0091336
0.00911023
0.00907902
0.00904062
0.00899058
0.00892957
0.00885546
0.0087691
0.00867266
0.00856788
0.00845113
0.00832167
0.00817989
0.00802428
0.00785599
0.00767655
0.00748708
0.00728869
0.00708267
0.00687091
0.00665529
0.00643791
0.00622072
0.00600606
0.00579611
0.00559336
0.00540004
0.00521884
0.00505215
0.00490292
0.00477454
0.00466946
0.00459403
0.00455063
0.0045616
0.00458468
0.00471784
0.00477023
0.0885864
0.0137134
0.00304322
0.000793837
0.000239708
0.000111336
7.19033e-05
6.00959e-05
4.31504e-05
4.74926e-05
4.7129e-05
0.000137025
0.000191419
0.0005027
0.000860179
0.00176143
0.00329345
0.00617146
0.00903515
0.0115924
0.0130641
0.0136536
0.0137486
0.0136398
0.0134044
0.0130549
0.0126969
0.0123402
0.012009
0.0117093
0.0114405
0.0112029
0.0109948
0.0108113
0.0106468
0.0104985
0.0103622
0.0102351
0.0101157
0.0100024
0.00989351
0.00978654
0.00968045
0.00957087
0.00946204
0.00934953
0.00922898
0.00909953
0.00895936
0.00880859
0.00864674
0.00847223
0.00828659
0.00809048
0.00788481
0.00766999
0.00744693
0.00721697
0.00698158
0.00674237
0.00650094
0.0062592
0.00601888
0.00578202
0.00555031
0.00532583
0.00511021
0.00490558
0.00471342
0.00453606
0.0043748
0.0042325
0.00411082
0.00401286
0.00394209
0.00390307
0.00391347
0.00393566
0.00405175
0.00416023
0.0873471
0.0130068
0.00490897
0.00154491
0.000528682
0.000210011
9.44433e-05
6.21431e-05
4.32198e-05
3.25996e-05
2.37852e-05
4.25791e-05
4.67527e-05
0.000110861
0.000146188
0.000311518
0.000492987
0.00100631
0.00171713
0.00295691
0.00474791
0.00686425
0.00880732
0.010437
0.0114875
0.0120443
0.0122663
0.012243
0.0121739
0.0120496
0.0118847
0.0117096
0.0115361
0.0113515
0.0111621
0.0109754
0.0107879
0.010603
0.0104231
0.0102487
0.0100783
0.00990955
0.00974235
0.0095719
0.00939406
0.0092093
0.00901554
0.00881261
0.00860039
0.00837935
0.00815019
0.0079129
0.00766832
0.00741748
0.00716146
0.00690155
0.00663902
0.00637546
0.00611239
0.0058516
0.00559463
0.00534332
0.00509901
0.00486351
0.00463785
0.0044238
0.00422211
0.00403453
0.00386157
0.00370516
0.00356531
0.00344506
0.00334378
0.00326595
0.00321138
0.00319023
0.00320492
0.00323414
0.0033442
0.00351025
0.0877566
0.0111682
0.00383211
0.00143372
0.000531922
0.000244512
0.00019125
9.53173e-05
5.83309e-05
4.32363e-05
2.43684e-05
2.21855e-05
2.15627e-05
2.2944e-05
3.36329e-05
4.87942e-05
7.9873e-05
0.000139881
0.000243594
0.000416901
0.000693452
0.00114117
0.00174341
0.00255826
0.00366448
0.00491227
0.00618373
0.00735184
0.00836312
0.00912052
0.00962757
0.00991962
0.0100713
0.0100729
0.010034
0.00995678
0.00983132
0.00969268
0.00954556
0.00939095
0.00922335
0.00904736
0.00886582
0.00866859
0.00845821
0.00823526
0.00800025
0.00775546
0.00750287
0.00724382
0.00697976
0.00671149
0.00644025
0.00616754
0.00589462
0.00562334
0.00535516
0.00509175
0.00483455
0.00458524
0.00434496
0.00411537
0.00389704
0.00369155
0.00349891
0.00332069
0.00315642
0.00300774
0.00287387
0.00275647
0.00265437
0.00257086
0.00250288
0.00245711
0.00243084
0.00243236
0.00246016
0.00250598
0.00262075
0.0028281
0.0886846
0.0110733
0.00360072
0.00147848
0.000691237
0.000304934
0.000157875
5.62926e-05
6.14155e-05
3.48565e-05
2.6269e-05
1.96334e-05
1.36182e-05
1.27299e-05
1.25997e-05
1.29519e-05
1.62474e-05
2.31005e-05
3.40384e-05
5.74035e-05
8.77839e-05
0.00014335
0.000216286
0.000331008
0.000481244
0.000705293
0.000985899
0.00135978
0.00179663
0.00233327
0.00294819
0.0035967
0.004239
0.00484019
0.00537202
0.00583297
0.00618353
0.00642181
0.00656506
0.00662417
0.00661021
0.00656929
0.00649316
0.0063628
0.00620429
0.00602339
0.00582697
0.00561807
0.00540293
0.00518072
0.00495333
0.00472217
0.00448977
0.00425839
0.00402935
0.00380534
0.00358723
0.00337659
0.0031747
0.00298305
0.00280237
0.00263405
0.00247786
0.00233526
0.00220507
0.00208913
0.00198538
0.00189606
0.00181856
0.00175496
0.0017033
0.00166669
0.00164109
0.00163572
0.0016416
0.00166408
0.00172048
0.00178357
0.001906
0.00213568
0.0876944
0.012664
0.00383936
0.00185915
0.000695309
0.000326022
0.000142552
6.52933e-05
3.41695e-05
2.87364e-05
1.88904e-05
1.5216e-05
1.24638e-05
1.00101e-05
8.45209e-06
7.3231e-06
7.20651e-06
7.36272e-06
8.16028e-06
1.00881e-05
1.31229e-05
1.92906e-05
2.62783e-05
3.79027e-05
5.32966e-05
7.42524e-05
0.000103274
0.000139119
0.000188342
0.000246388
0.000325905
0.000418485
0.0005387
0.000673915
0.000838875
0.00101536
0.0012215
0.00144225
0.00165979
0.00186468
0.00203953
0.00218423
0.00228936
0.0023612
0.00240834
0.00241662
0.00240144
0.00236766
0.00232547
0.00225441
0.00216966
0.00207551
0.00197408
0.0018686
0.00176155
0.00165621
0.00155147
0.00144972
0.00135391
0.00126433
0.00118277
0.00110925
0.0010441
0.00098801
0.000939481
0.000901099
0.000868641
0.000846874
0.000829723
0.000822818
0.000821487
0.000831101
0.000846378
0.000873964
0.000911267
0.000958596
0.00102669
0.00110359
0.00123488
0.0014647
0.0844835
0.0143238
0.00570851
0.00240144
0.00101042
0.000398685
0.000164143
7.17962e-05
2.75745e-05
2.73319e-05
1.47163e-05
8.02664e-06
6.31018e-06
5.70747e-06
5.11695e-06
4.65681e-06
4.22173e-06
4.02154e-06
3.73552e-06
3.74398e-06
3.86169e-06
4.24376e-06
4.82394e-06
5.77229e-06
6.84235e-06
8.81803e-06
1.06317e-05
1.39983e-05
1.67372e-05
2.16811e-05
2.55294e-05
3.21632e-05
3.71709e-05
4.54e-05
5.13522e-05
6.10376e-05
6.76294e-05
8.05518e-05
9.64846e-05
0.000119969
0.00014598
0.000178047
0.0002105
0.000245827
0.000278526
0.000310058
0.000336024
0.000358214
0.00037365
0.000383619
0.000386118
0.000383355
0.00037652
0.000366235
0.00035614
0.000335486
0.000324297
0.000296596
0.000287259
0.000264092
0.00025656
0.000239026
0.000233442
0.000222599
0.00021869
0.00021684
0.000214226
0.000218884
0.000219224
0.000230772
0.000237377
0.000258024
0.000273057
0.000306445
0.000334818
0.000386388
0.000438074
0.000516109
0.000650488
0.000863941
0.080389
0.00707345
0.00118329
0.000333304
0.000114266
3.72399e-05
1.21447e-05
2.21922e-06
6.84854e-07
6.66941e-07
9.95496e-07
1.44341e-06
1.25689e-06
1.2822e-06
1.39736e-06
1.32752e-06
1.36776e-06
1.39134e-06
1.38522e-06
1.3683e-06
1.36495e-06
1.35854e-06
1.38725e-06
1.40804e-06
1.44463e-06
1.55452e-06
1.64826e-06
1.86869e-06
2.00713e-06
2.31179e-06
2.48355e-06
2.79126e-06
2.98022e-06
3.19299e-06
3.29292e-06
3.24488e-06
3.15077e-06
2.88526e-06
2.79238e-06
2.78036e-06
2.76391e-06
2.98533e-06
3.28369e-06
3.89124e-06
4.70176e-06
5.79379e-06
7.13672e-06
8.61741e-06
1.03038e-05
1.18742e-05
1.35008e-05
1.47997e-05
1.61243e-05
1.69493e-05
1.78022e-05
1.80905e-05
1.8612e-05
1.85242e-05
1.89946e-05
1.8855e-05
1.96565e-05
1.99855e-05
2.12633e-05
2.26005e-05
2.43218e-05
2.75411e-05
2.92797e-05
3.55601e-05
3.67926e-05
4.57273e-05
4.81928e-05
6.01605e-05
6.49351e-05
8.3038e-05
9.24314e-05
0.000121654
0.000146094
0.000189466
0.000288575
0.000427264
0.0843981
0.00592402
0.00125016
0.000445196
0.000107829
1.98874e-05
8.86582e-07
3.08458e-08
1.01376e-08
4.22072e-08
3.51128e-08
9.55656e-08
1.29982e-07
1.47768e-07
1.95522e-07
2.26838e-07
2.53495e-07
2.71995e-07
2.88947e-07
3.0562e-07
3.1516e-07
3.14057e-07
3.31616e-07
3.33505e-07
3.21328e-07
3.28304e-07
3.27696e-07
3.25271e-07
3.29217e-07
3.38283e-07
3.53616e-07
3.58284e-07
3.63293e-07
3.50634e-07
3.49098e-07
3.11507e-07
3.06648e-07
2.85093e-07
2.70291e-07
2.48857e-07
2.24127e-07
2.09231e-07
1.87791e-07
1.85903e-07
1.81221e-07
1.6841e-07
1.9713e-07
1.89617e-07
2.68747e-07
2.71579e-07
4.39131e-07
4.48028e-07
7.78708e-07
8.41129e-07
1.36761e-06
1.57693e-06
2.34407e-06
2.80633e-06
4.06442e-06
4.90087e-06
7.1379e-06
8.29684e-06
1.21527e-05
1.38119e-05
1.946e-05
2.17932e-05
2.92654e-05
3.32008e-05
4.27043e-05
4.94308e-05
6.10989e-05
7.22592e-05
8.65274e-05
0.000104333
0.00012196
0.000149216
0.000171347
0.00021018
0.000248375
0.000315797
0.0982488
0.0191387
0.00364228
0.000453587
9.71861e-05
3.57339e-05
1.48605e-05
1.67787e-06
2.19215e-07
5.19532e-09
1.1039e-09
4.52875e-09
8.23223e-09
1.18334e-08
1.65806e-08
2.15216e-08
2.63558e-08
3.07202e-08
3.48417e-08
3.84684e-08
4.16067e-08
4.41312e-08
4.62601e-08
4.78048e-08
4.72691e-08
4.68425e-08
4.63141e-08
4.5715e-08
4.50747e-08
4.45032e-08
4.39259e-08
4.32737e-08
4.27796e-08
4.00317e-08
3.98046e-08
3.54697e-08
3.6053e-08
4.15565e-08
5.46502e-08
7.8703e-08
9.76285e-08
2.64875e-07
2.99677e-07
6.0672e-07
6.55102e-07
9.12496e-07
1.23784e-06
1.73142e-06
2.38445e-06
3.14833e-06
4.33749e-06
5.46209e-06
7.51273e-06
9.19623e-06
1.24788e-05
1.50509e-05
1.99727e-05
2.44644e-05
3.40718e-05
4.14235e-05
5.77787e-05
6.76836e-05
9.16354e-05
0.000104458
0.00013723
0.000153915
0.000197551
0.000220094
0.000277283
0.000309022
0.000382919
0.000426712
0.0005202
0.000575557
0.000688399
0.000749327
0.000874192
0.000931686
0.00105457
0.00107183
0.0926566
0.0315813
0.00735229
0.00289125
0.00106775
0.000230111
1.23202e-05
1.88883e-06
7.35645e-07
4.54864e-07
2.43271e-07
4.03099e-07
5.52362e-07
7.26534e-07
7.56173e-07
7.35551e-07
7.0883e-07
7.00351e-07
6.96071e-07
6.97223e-07
7.02509e-07
7.11297e-07
7.23297e-07
7.38409e-07
7.56702e-07
7.78288e-07
8.03799e-07
8.33016e-07
8.66734e-07
9.05472e-07
9.49912e-07
1.0009e-06
1.0595e-06
1.12702e-06
1.20774e-06
1.43055e-06
1.86161e-06
2.55357e-06
3.46262e-06
4.79872e-06
5.8192e-06
9.68034e-06
1.1216e-05
1.53754e-05
1.75122e-05
2.23336e-05
2.63422e-05
3.37667e-05
3.92021e-05
4.97835e-05
5.71812e-05
7.13815e-05
8.25535e-05
0.000101077
0.000118302
0.000142649
0.000171327
0.000231379
0.000298192
0.00037954
0.000459826
0.000556132
0.000658091
0.000775351
0.000904841
0.00104504
0.0012026
0.00136047
0.00153745
0.00169757
0.00187262
0.00201225
0.00215276
0.00224929
0.00232711
0.0023631
0.00238872
0.00238131
0.0023924
0.00230489
0.0834486
0.00801846
0.00139123
0.000513512
0.000323579
0.000237405
0.000111355
0.000239436
0.00030124
0.000306803
0.000290251
0.000268237
0.000248029
0.00023131
0.000216907
0.000205046
0.000195258
0.000187124
0.000180276
0.000174531
0.0001697
0.00016567
0.000162395
0.000159695
0.000157743
0.000156086
0.000155485
0.000155391
0.000155699
0.000156443
0.00015762
0.000159275
0.000161421
0.000164147
0.000170215
0.000180037
0.000192764
0.000209386
0.000221283
0.000258357
0.000274758
0.000308018
0.000330136
0.000360406
0.000391524
0.000430093
0.000467252
0.00051574
0.000560919
0.000623847
0.000681505
0.000766635
0.000844937
0.00096477
0.00107774
0.00125127
0.00141374
0.00161506
0.00180874
0.00207326
0.00234877
0.00269306
0.00304058
0.00343362
0.00380182
0.00416713
0.00446712
0.00470781
0.00486176
0.0049182
0.00491845
0.00481238
0.00470514
0.00451998
0.00439233
0.00420742
0.00410552
0.003946
0.003903
0.00378172
0.0385907
0.028496
0.0218973
0.0174474
0.0143158
0.0120597
0.010373
0.00907426
0.00805006
0.00722833
0.00655872
0.00600661
0.00554556
0.00515784
0.00482663
0.0045432
0.00429728
0.00408447
0.00389752
0.00373479
0.00359044
0.00346461
0.00335207
0.00325424
0.00316607
0.00309005
0.00302096
0.00296232
0.00290849
0.002864
0.00282259
0.00278987
0.00275877
0.00273614
0.00271499
0.00269438
0.00267271
0.00265147
0.00262766
0.002604
0.00257729
0.00255006
0.00251865
0.00248612
0.0024487
0.00241009
0.00236579
0.00232041
0.00226872
0.00221654
0.0021578
0.00209986
0.00203583
0.001975
0.00190984
0.00185178
0.00179282
0.00174428
0.00169952
0.00167117
0.00165619
0.00166433
0.0016963
0.00176971
0.00186938
0.00202215
0.0022112
0.00245154
0.00273397
0.0030492
0.00341651
0.00379519
0.00421095
0.00466525
0.00512507
0.00572486
0.00625704
0.00714224
0.0079998
0.0096314
)
;

boundaryField
{
    inlet
    {
        type            fixedValue;
        value           uniform 0.63;
    }
    outlet
    {
        type            zeroGradient;
    }
    fixedWalls
    {
        lowReCorrection 0;
        type            epsilonWallFunction;
        value           nonuniform List<scalar> 
160
(
0.0385907
0.028496
0.0218973
0.0174474
0.0143158
0.0120597
0.010373
0.00907426
0.00805006
0.00722833
0.00655872
0.00600661
0.00554556
0.00515784
0.00482663
0.0045432
0.00429728
0.00408447
0.00389752
0.00373479
0.00359044
0.00346461
0.00335207
0.00325424
0.00316607
0.00309005
0.00302096
0.00296232
0.00290849
0.002864
0.00282259
0.00278987
0.00275877
0.00273614
0.00271499
0.00269438
0.00267271
0.00265147
0.00262766
0.002604
0.00257729
0.00255006
0.00251865
0.00248612
0.0024487
0.00241009
0.00236579
0.00232041
0.00226872
0.00221654
0.0021578
0.00209986
0.00203583
0.001975
0.00190984
0.00185178
0.00179282
0.00174428
0.00169952
0.00167117
0.00165619
0.00166433
0.0016963
0.00176971
0.00186938
0.00202215
0.0022112
0.00245154
0.00273397
0.0030492
0.00341651
0.00379519
0.00421095
0.00466525
0.00512507
0.00572486
0.00625704
0.00714224
0.0079998
0.0096314
0.0317387
0.000949442
0.000544717
0.000346866
0.00037807
0.00036838
0.000407901
0.000439753
0.000487556
0.000540432
0.000588057
0.000642327
0.000700275
0.000765472
0.000836828
0.000915163
0.00100005
0.00109179
0.00119042
0.00129602
0.00140874
0.0015286
0.00165575
0.00179022
0.00193205
0.00208116
0.00223752
0.00240104
0.0025716
0.00274904
0.0029332
0.0031238
0.00332055
0.00352301
0.00373066
0.00394274
0.00415831
0.00437632
0.00459674
0.00482478
0.00505773
0.00529673
0.00554179
0.00579296
0.00604994
0.00631256
0.00658033
0.0068529
0.00712965
0.0074101
0.0076936
0.00797957
0.00826729
0.0085561
0.00884527
0.00913422
0.00942239
0.00970784
0.00998942
0.0102715
0.0105564
0.01086
0.0113068
0.0118431
0.0124162
0.0130276
0.0136858
0.0143963
0.0151697
0.0160222
0.01697
0.0180379
0.0192404
0.020664
0.0222555
0.0243497
0.0264249
0.0302706
0.0327083
0.0435476
)
;
    }
    frontAndBack
    {
        type            empty;
    }
}


// ************************************************************************* //
