/*--------------------------------*- C++ -*----------------------------------*\
| =========                 |                                                 |
| \\      /  F ield         | OpenFOAM: The Open Source CFD Toolbox           |
|  \\    /   O peration     | Version:  v1912                                 |
|   \\  /    A nd           | Website:  www.openfoam.com                      |
|    \\/     M anipulation  |                                                 |
\*---------------------------------------------------------------------------*/
FoamFile
{
    version     2.0;
    format      ascii;
    class       volScalarField;
    location    "500";
    object      k;
}
// * * * * * * * * * * * * * * * * * * * * * * * * * * * * * * * * * * * * * //

dimensions      [0 2 -2 0 0 0 0];


internalField   nonuniform List<scalar> 
2000
(
0.0136656
0.00138205
0.00100186
0.000882128
0.00080069
0.00087972
0.000929063
0.00102009
0.00111969
0.0012296
0.00133221
0.00144423
0.00156182
0.00168962
0.00182574
0.00197107
0.00212462
0.00228649
0.00245628
0.00263376
0.00281866
0.00301062
0.00320939
0.00341462
0.00362594
0.00384284
0.00406489
0.00429156
0.00452233
0.0047566
0.00499381
0.00523323
0.00547422
0.00571587
0.00595735
0.00619746
0.00643498
0.00666853
0.00689788
0.00712787
0.00735554
0.00758149
0.00780534
0.00802672
0.00824492
0.00845935
0.00866915
0.00887361
0.00907177
0.00926285
0.00944592
0.00962016
0.00978466
0.00993856
0.010081
0.0102113
0.0103288
0.0104317
0.0105192
0.010594
0.0106573
0.0107192
0.0108584
0.0110332
0.0112066
0.011377
0.0115467
0.0117153
0.011885
0.0120594
0.0122412
0.0124353
0.0126396
0.0128816
0.0131236
0.0134823
0.0137346
0.0144552
0.0146781
0.0168535
0.00850936
0.00191068
0.00286253
0.0021054
0.00186622
0.00190765
0.00196339
0.00211006
0.0023025
0.00253531
0.00274982
0.00297659
0.00321566
0.00347378
0.00375005
0.00404542
0.00435858
0.00468933
0.00503725
0.00540175
0.00578247
0.00617871
0.00658994
0.00701564
0.00745524
0.00790797
0.00837295
0.00884933
0.0093362
0.00983261
0.0103375
0.0108498
0.0113683
0.0118916
0.0124181
0.012946
0.0134734
0.0139972
0.0145134
0.0150162
0.0155168
0.0160161
0.0165138
0.0170091
0.0175012
0.017989
0.018471
0.0189459
0.0194122
0.0198681
0.0203121
0.0207425
0.0211574
0.0215552
0.021934
0.0222923
0.0226286
0.0229395
0.023222
0.0234768
0.0237077
0.0239165
0.0241191
0.0243067
0.0244703
0.0246122
0.0247364
0.0248423
0.0249337
0.0250172
0.0250968
0.0251779
0.0252676
0.0253822
0.0255323
0.0257186
0.0260483
0.0263875
0.0271548
0.0289327
0.00529241
0.00147004
0.00177311
0.00440492
0.00352366
0.0031018
0.00303781
0.00311435
0.00331943
0.00361805
0.00390312
0.00419741
0.00451334
0.00485402
0.00522061
0.00561278
0.00602902
0.00646814
0.00692951
0.00741184
0.00791427
0.00843557
0.00897447
0.00952983
0.0101005
0.0106852
0.0112826
0.0118913
0.01251
0.0131373
0.0137717
0.0144118
0.0150563
0.0157034
0.0163518
0.0169997
0.0176458
0.0182886
0.0189273
0.0195621
0.0201939
0.0208224
0.0214468
0.0220662
0.0226794
0.023285
0.0238813
0.0244665
0.0250386
0.0255956
0.0261355
0.026656
0.0271551
0.0276307
0.0280805
0.0285027
0.0288951
0.0292552
0.0295812
0.0298725
0.0301303
0.0303564
0.0305572
0.0307316
0.0308759
0.0309915
0.0310837
0.0311516
0.0312026
0.0312449
0.0312837
0.0313271
0.031387
0.0314792
0.0316282
0.0318191
0.0322262
0.0325653
0.0335807
0.0349067
0.00450345
0.00110109
0.000849989
0.00332606
0.00696718
0.00517464
0.00458404
0.00436333
0.00442912
0.0047164
0.0050301
0.00534625
0.00569829
0.0060828
0.00650252
0.00695522
0.00743864
0.00795009
0.00848868
0.00905243
0.00964006
0.0102499
0.0108801
0.0115291
0.0121952
0.0128771
0.013573
0.0142812
0.0150001
0.0157279
0.0164631
0.0172039
0.0179487
0.018696
0.0194441
0.0201913
0.0209364
0.021678
0.0224153
0.0231476
0.0238744
0.024595
0.0253085
0.0260138
0.0267095
0.0273938
0.0280648
0.0287202
0.0293577
0.0299748
0.0305691
0.0311381
0.0316793
0.0321902
0.0326686
0.0331121
0.0335185
0.0338854
0.0342114
0.0344955
0.0347382
0.0349411
0.0351065
0.0352364
0.0353294
0.0353878
0.0354189
0.0354208
0.0354053
0.035382
0.035356
0.0353379
0.0353434
0.0353906
0.035508
0.0356866
0.0360886
0.0364256
0.037565
0.0381807
0.00430716
0.00101826
0.000522388
0.000983715
0.00577633
0.00938872
0.00757465
0.00643155
0.00605957
0.00615652
0.00641613
0.00668127
0.00701804
0.00740381
0.00784152
0.00832384
0.00884671
0.00940458
0.00999597
0.0106179
0.0112684
0.0119454
0.0126462
0.013369
0.0141119
0.0148729
0.0156503
0.0164417
0.0172451
0.0180585
0.0188799
0.0197076
0.0205396
0.0213741
0.0222092
0.0230429
0.0238735
0.0246991
0.0255183
0.0263296
0.027132
0.0279248
0.0287069
0.0294768
0.0302331
0.0309736
0.031696
0.0323976
0.0330756
0.0337272
0.0343495
0.0349397
0.035495
0.0360126
0.0364899
0.0369248
0.0373146
0.0376572
0.0379515
0.0381961
0.0383918
0.0385405
0.0386423
0.0387015
0.0387176
0.038695
0.0386436
0.0385604
0.038458
0.0383472
0.0382373
0.0381401
0.0380731
0.0380622
0.0381231
0.0382681
0.0386183
0.0389339
0.0400481
0.0401101
0.00425599
0.00102602
0.000370124
0.00042555
0.0020274
0.00816059
0.0119457
0.0104558
0.00889574
0.00842092
0.00842252
0.00848357
0.00871001
0.0090262
0.00943037
0.00989998
0.0104273
0.011001
0.0116179
0.0122733
0.0129643
0.0136872
0.014439
0.015217
0.016019
0.0168427
0.0176856
0.0185451
0.0194185
0.0203033
0.0211975
0.0220985
0.0230044
0.0239127
0.0248212
0.0257274
0.0266288
0.0275229
0.0284076
0.029281
0.0301417
0.0309887
0.0318206
0.032636
0.033433
0.0342092
0.0349618
0.0356877
0.0363836
0.0370463
0.0376726
0.0382592
0.0388033
0.0393015
0.0397516
0.0401512
0.0404976
0.0407889
0.0410245
0.0412027
0.0413251
0.0413943
0.0414086
0.0413759
0.0412971
0.0411724
0.0410159
0.0408323
0.0406277
0.0404156
0.0402083
0.0400193
0.0398678
0.039772
0.0397759
0.0398618
0.0401312
0.040404
0.0413762
0.0411076
0.00423605
0.00104058
0.00033704
0.000254787
0.000560563
0.00303307
0.0103897
0.0144977
0.0137656
0.0122281
0.0115938
0.0111562
0.011098
0.0112178
0.011502
0.0118892
0.0123657
0.0129093
0.0135114
0.0141656
0.0148663
0.0156074
0.016384
0.0171934
0.0180324
0.0188978
0.0197869
0.0206959
0.0216211
0.02256
0.0235098
0.0244674
0.0254303
0.0263956
0.0273604
0.0283215
0.0292755
0.0302194
0.0311504
0.0320663
0.0329652
0.0338459
0.0347067
0.035546
0.0363616
0.037151
0.0379107
0.0386372
0.0393267
0.0399756
0.0405806
0.041138
0.041645
0.0420979
0.0424946
0.0428333
0.043111
0.0433259
0.0434784
0.0435665
0.0435933
0.0435625
0.0434734
0.0433267
0.0431331
0.0428947
0.0426209
0.0423152
0.0419903
0.0416623
0.0413447
0.0410522
0.0408055
0.0406192
0.0405422
0.0405794
0.040771
0.0409946
0.0418118
0.0413747
0.00422913
0.00104312
0.000349135
0.000179596
0.000224315
0.000743332
0.00368701
0.0120173
0.0175685
0.0172533
0.016345
0.01513
0.0145912
0.0143254
0.0143591
0.0145549
0.0148947
0.0153371
0.0158625
0.0164633
0.0171286
0.0178467
0.0186106
0.0194168
0.0202614
0.0211391
0.0220471
0.0229797
0.023932
0.0249008
0.025883
0.0268743
0.0278716
0.0288713
0.0298697
0.0308626
0.0318458
0.0328155
0.0337687
0.0347027
0.0356154
0.0365049
0.0373697
0.0382076
0.0390161
0.0397926
0.040533
0.0412332
0.0418891
0.0424967
0.0430527
0.0435535
0.0439961
0.0443763
0.0446932
0.0449455
0.0451296
0.0452442
0.0452916
0.0452682
0.0451818
0.0450186
0.0447946
0.0445153
0.0441878
0.0438178
0.0434143
0.0429881
0.0425576
0.0421291
0.0417154
0.0413321
0.0410007
0.0407348
0.0405787
0.0405563
0.0406823
0.0408503
0.0415159
0.0410048
0.00422735
0.00104071
0.000371074
0.000161678
0.00013972
0.000236299
0.000841547
0.00367224
0.013206
0.0176997
0.0201112
0.0198305
0.0192675
0.0185682
0.0182618
0.0181634
0.0182541
0.0185036
0.0188692
0.0193464
0.0199145
0.0205521
0.0212502
0.0220051
0.022811
0.0236603
0.0245489
0.0254692
0.0264141
0.0273798
0.0283626
0.0293567
0.030358
0.0313621
0.0323644
0.0333594
0.0343418
0.0353072
0.0362525
0.0371747
0.0380713
0.0389402
0.0397794
0.0405862
0.0413578
0.0420917
0.0427828
0.0434266
0.0440185
0.0445545
0.0450318
0.0454464
0.045796
0.0460753
0.0462853
0.0464162
0.0464706
0.0464492
0.0463614
0.0461947
0.0459634
0.045672
0.0453286
0.0449328
0.0444902
0.0440079
0.0434949
0.0429607
0.0424174
0.0418807
0.0413657
0.0408881
0.0404703
0.0401246
0.0398928
0.0397963
0.0398785
0.0399989
0.0405479
0.0400401
0.00422881
0.00103707
0.000382771
0.000170279
9.37961e-05
0.000110432
0.000223147
0.000775047
0.00316387
0.00892724
0.0177093
0.021391
0.0231625
0.0230989
0.0229253
0.0226043
0.0224732
0.0224917
0.0226216
0.0229151
0.0233248
0.0238175
0.0243884
0.025035
0.0257483
0.0265188
0.0273396
0.0282013
0.0290948
0.0300149
0.0309578
0.0319152
0.0328823
0.0338533
0.0348226
0.0357828
0.0367277
0.0376523
0.0385538
0.0394289
0.0402749
0.041089
0.0418691
0.0426115
0.0433128
0.0439714
0.0445801
0.0451348
0.0456301
0.0460619
0.0464172
0.046701
0.0469145
0.0470484
0.0471124
0.047101
0.0470323
0.0468825
0.0466646
0.0463747
0.0460191
0.0455985
0.0451199
0.0445907
0.0440187
0.0434123
0.0427819
0.0421381
0.0414933
0.0408619
0.0402599
0.0397026
0.0392128
0.038802
0.0385108
0.0383484
0.0384026
0.0384898
0.0389677
0.0385279
0.00422805
0.00104642
0.000396052
0.000187357
0.000102797
7.11543e-05
8.8309e-05
0.000163147
0.000666734
0.00185955
0.00600212
0.0143915
0.0211882
0.0240718
0.0258278
0.0263981
0.0266658
0.0267189
0.0267751
0.02694
0.027192
0.0275167
0.0279277
0.0284289
0.0290072
0.0296538
0.0303595
0.0311152
0.0319112
0.0327401
0.0335982
0.0344749
0.0353653
0.0362611
0.037156
0.0380399
0.038906
0.0397491
0.0405676
0.0413574
0.0421153
0.0428383
0.0435237
0.0441661
0.0447582
0.0452957
0.0457745
0.0461918
0.0465404
0.0468218
0.0470427
0.0471922
0.047272
0.0472656
0.047198
0.0470433
0.0468149
0.046512
0.0461403
0.0457008
0.0451983
0.0446376
0.0440254
0.0433698
0.0426792
0.0419629
0.0412314
0.0404959
0.039769
0.039064
0.038397
0.0377825
0.037243
0.0367889
0.0364604
0.036255
0.0362932
0.0363687
0.0368215
0.036508
0.00422369
0.00104382
0.000411978
0.000197557
0.000115085
7.23877e-05
5.96693e-05
5.64207e-05
0.000178167
0.000338603
0.00118491
0.00310634
0.00761329
0.0159251
0.0226265
0.0257581
0.0277725
0.0289384
0.0296848
0.0302576
0.0306282
0.0309486
0.0313008
0.0317167
0.0321868
0.032716
0.0332987
0.0339304
0.0346042
0.0353129
0.0360522
0.0368142
0.0375925
0.0383773
0.0391603
0.0399291
0.0406771
0.0413999
0.0420921
0.0427516
0.0433757
0.0439607
0.044504
0.0450023
0.0454577
0.0458592
0.0461985
0.046475
0.0466771
0.0468119
0.046867
0.0468461
0.04676
0.0465826
0.0463368
0.0460148
0.0456204
0.0451565
0.0446284
0.0440403
0.0433978
0.0427069
0.0419746
0.0412094
0.0404202
0.0396168
0.0388095
0.0380096
0.0372292
0.0364808
0.0357794
0.0351382
0.0345788
0.0341106
0.0337717
0.0335588
0.0335928
0.0336805
0.0341464
0.0340197
0.004219
0.00102778
0.000400569
0.000207738
0.000122423
8.29003e-05
6.34727e-05
4.45214e-05
6.00852e-05
8.56303e-05
0.000184525
0.00061855
0.00136483
0.00357633
0.00780293
0.0143175
0.0214258
0.0260007
0.0285324
0.0301484
0.0312776
0.032199
0.032962
0.0336305
0.0342232
0.0347971
0.0353662
0.0359476
0.0365473
0.0371647
0.0378014
0.0384546
0.039119
0.0397756
0.0404197
0.0410447
0.0416466
0.0422225
0.0427697
0.0432852
0.0437665
0.0442088
0.0446099
0.0449599
0.0452529
0.0454859
0.0456515
0.0457547
0.0457707
0.0457289
0.0456083
0.0453992
0.0451213
0.0447664
0.0443421
0.04385
0.0432934
0.0426762
0.042004
0.0412826
0.0405188
0.0397197
0.0388929
0.0380472
0.0371915
0.0363356
0.0354892
0.0346629
0.0338679
0.0331152
0.0324187
0.0317893
0.0312475
0.0308013
0.0304837
0.0303069
0.0303495
0.0304734
0.0309681
0.0311143
0.00423064
0.000983798
0.000362688
0.000194614
0.000120368
8.39652e-05
6.25112e-05
4.78573e-05
3.79437e-05
4.00495e-05
4.84405e-05
0.000135821
0.000248188
0.000676607
0.00134563
0.00294155
0.00555816
0.0108218
0.0162414
0.0223598
0.0264384
0.0291383
0.0309301
0.0322576
0.0333059
0.034236
0.0350585
0.035816
0.0365297
0.0372123
0.0378735
0.0385196
0.0391465
0.0397363
0.0402892
0.040804
0.0412833
0.0417275
0.0421382
0.0425124
0.0428492
0.0431424
0.0433914
0.0435789
0.0437013
0.0437586
0.0437413
0.0436662
0.0435007
0.0432613
0.0429511
0.042565
0.0421103
0.041588
0.0410028
0.0403591
0.0396619
0.0389166
0.0381295
0.0373079
0.0364591
0.0355915
0.0347127
0.0338316
0.0329563
0.0320962
0.03126
0.0304569
0.0296966
0.0289882
0.0283441
0.0277723
0.0272919
0.0269089
0.0266509
0.0265537
0.0266217
0.0268036
0.0273288
0.0278413
0.0042553
0.00101178
0.00028503
0.000128581
7.66074e-05
6.01525e-05
5.37337e-05
4.59479e-05
3.8224e-05
3.06887e-05
2.89991e-05
4.30154e-05
5.9299e-05
0.000135659
0.000228887
0.000499934
0.000911468
0.00181976
0.00341248
0.00573631
0.009425
0.0140071
0.0185155
0.0228683
0.0262543
0.0287312
0.0305221
0.0319226
0.0330656
0.0340481
0.0349371
0.0357519
0.0364767
0.037125
0.0377007
0.0382032
0.0386451
0.0390323
0.0393726
0.0396622
0.0399043
0.0400894
0.0402214
0.0402642
0.0402402
0.0401602
0.0399906
0.0397429
0.0394189
0.0390218
0.0385561
0.038024
0.0374303
0.0367796
0.0360768
0.0353277
0.034539
0.0337177
0.0328711
0.0320072
0.031134
0.03026
0.0293923
0.0285398
0.0277088
0.0269085
0.0261449
0.0254264
0.0247599
0.0241525
0.0236151
0.0231516
0.0227809
0.0225047
0.0223547
0.0223616
0.0224863
0.0227466
0.0233129
0.0242376
0.00424369
0.0010885
0.000312771
0.000121748
6.88904e-05
5.51589e-05
3.82604e-05
3.56414e-05
3.19018e-05
2.60647e-05
2.13779e-05
2.09074e-05
2.22834e-05
3.61617e-05
4.78112e-05
9.16355e-05
0.000152436
0.000285918
0.000504601
0.000859181
0.00150435
0.002494
0.00401575
0.00599105
0.0086064
0.0117808
0.0151333
0.0184468
0.0214856
0.0240822
0.0262244
0.0279125
0.0292027
0.0302389
0.0310844
0.0317803
0.0323861
0.032907
0.0333526
0.0337105
0.0339924
0.0341855
0.0342941
0.0342735
0.0341947
0.0340319
0.0337731
0.0334369
0.0330268
0.0325479
0.0320065
0.0314078
0.0307576
0.0300619
0.0293265
0.0285591
0.0277673
0.0269591
0.0261427
0.0253267
0.0245183
0.0237264
0.0229562
0.0222169
0.0215113
0.0208493
0.0202323
0.019669
0.0191619
0.0187173
0.0183429
0.0180392
0.0178268
0.0177015
0.0177049
0.0177994
0.0180585
0.0184158
0.0190154
0.0203531
0.00422252
0.00108839
0.000349768
0.00012726
5.86771e-05
3.79481e-05
2.41537e-05
2.28993e-05
1.90543e-05
1.98967e-05
1.81049e-05
1.71262e-05
1.59117e-05
1.71932e-05
1.81268e-05
2.44343e-05
3.2143e-05
5.01823e-05
7.48667e-05
0.00012489
0.000197713
0.000333166
0.00051355
0.00083132
0.00123587
0.001869
0.00269488
0.00383244
0.00522058
0.00694622
0.00885872
0.0109823
0.0131544
0.0152826
0.0172716
0.0190514
0.0205369
0.0217288
0.0226774
0.0234059
0.0239872
0.0243773
0.0246165
0.0246992
0.024661
0.024571
0.0244059
0.0241389
0.023798
0.0233925
0.0229311
0.0224174
0.0218611
0.0212665
0.0206418
0.0199969
0.0193391
0.0186776
0.0180202
0.017376
0.0167511
0.0161543
0.0155877
0.0150618
0.0145735
0.0141365
0.0137428
0.0134061
0.0131204
0.012896
0.0127319
0.012631
0.012619
0.0126692
0.0128206
0.0130639
0.0134509
0.013949
0.0145543
0.0162475
0.00424256
0.00104038
0.000337946
9.83197e-05
3.55176e-05
1.32424e-05
4.99192e-06
4.42907e-06
4.93912e-06
7.45331e-06
1.1516e-05
1.16142e-05
1.21091e-05
1.24676e-05
1.24311e-05
1.28615e-05
1.36418e-05
1.55119e-05
1.85232e-05
2.40598e-05
3.21001e-05
4.68777e-05
6.53288e-05
9.79402e-05
0.000141827
0.000204976
0.000295698
0.000415107
0.000585052
0.000801638
0.00110277
0.00146986
0.00195864
0.00253415
0.00324694
0.00404253
0.00496267
0.00594737
0.00692663
0.00786642
0.00869972
0.00946848
0.0101103
0.0106691
0.0110768
0.0113965
0.0115949
0.0117209
0.0117028
0.0116264
0.0115146
0.01132
0.0110801
0.0107874
0.0104652
0.0101241
0.00976896
0.00941433
0.00906512
0.00873149
0.00841722
0.00812985
0.0078699
0.0076471
0.00745213
0.00730799
0.00718564
0.00711978
0.00708661
0.0071101
0.00715902
0.00729057
0.00745062
0.00770973
0.00798247
0.00837457
0.00881663
0.00945718
0.0101124
0.0119818
0.00431844
0.000996658
0.000272874
7.70707e-05
2.29856e-05
2.897e-06
3.34892e-07
2.20518e-07
3.14061e-07
4.20003e-07
1.1229e-06
3.08894e-06
4.64564e-06
5.50688e-06
5.97425e-06
6.49842e-06
6.90841e-06
7.41292e-06
7.82692e-06
8.63169e-06
9.43637e-06
1.10237e-05
1.26381e-05
1.58366e-05
1.92606e-05
2.55656e-05
3.18802e-05
4.34572e-05
5.38437e-05
7.30103e-05
8.8747e-05
0.000118455
0.000140217
0.000182549
0.000214433
0.000271078
0.000316131
0.000399199
0.000496729
0.000641215
0.000796974
0.000994719
0.00119318
0.00142095
0.00163315
0.00184903
0.00203714
0.00221075
0.00234605
0.00244802
0.00251444
0.00256156
0.00257288
0.00255718
0.00252322
0.00247493
0.00242064
0.00236084
0.00230193
0.00224304
0.00219045
0.00214543
0.00210912
0.00208699
0.00207026
0.00208707
0.00208275
0.00215188
0.00217965
0.00231049
0.00238676
0.00259842
0.0027431
0.00307916
0.00333963
0.00388147
0.00432974
0.00512806
0.00589372
0.00772349
0.00438791
0.001299
0.000462099
0.000159897
5.28387e-05
1.83147e-05
2.65788e-06
2.4328e-07
4.03873e-08
3.89568e-08
8.3477e-08
3.10598e-07
7.30801e-07
1.16766e-06
1.54135e-06
1.92127e-06
2.13263e-06
2.48851e-06
2.73209e-06
2.95558e-06
3.30295e-06
3.53275e-06
3.83029e-06
3.89748e-06
4.14341e-06
4.6542e-06
5.14794e-06
6.12421e-06
6.83771e-06
8.23154e-06
9.0723e-06
1.06832e-05
1.16203e-05
1.29776e-05
1.37576e-05
1.44206e-05
1.42337e-05
1.41943e-05
1.38797e-05
1.4925e-05
1.52967e-05
1.79396e-05
2.06851e-05
2.62686e-05
3.30621e-05
4.26329e-05
5.39861e-05
6.72038e-05
8.19841e-05
9.67593e-05
0.000111659
0.000125368
0.000138518
0.000149468
0.000158141
0.000165155
0.000169959
0.000176024
0.000178377
0.000185477
0.000186711
0.000197273
0.000197722
0.000216568
0.000216513
0.000248946
0.000248794
0.000297307
0.000300678
0.000372801
0.000386164
0.000493624
0.000528042
0.000695485
0.000776975
0.0010581
0.00127046
0.00175129
0.00239669
0.0037668
0.0043063
0.00139128
0.000429428
7.5082e-05
9.27676e-06
9.15485e-07
2.45756e-07
1.4118e-08
1.87553e-10
6.55005e-10
6.47786e-09
2.29483e-08
6.70225e-08
1.28753e-07
2.18703e-07
3.16488e-07
4.00448e-07
4.66031e-07
5.55315e-07
6.29044e-07
7.11444e-07
7.76192e-07
8.19612e-07
9.17716e-07
9.56188e-07
9.58009e-07
9.49629e-07
1.03616e-06
1.10637e-06
1.24547e-06
1.33254e-06
1.45337e-06
1.51868e-06
1.57784e-06
1.57538e-06
1.55439e-06
1.5011e-06
1.45686e-06
1.36947e-06
1.28161e-06
1.16417e-06
1.0571e-06
9.80314e-07
9.54758e-07
9.46175e-07
8.81566e-07
1.00557e-06
9.23783e-07
1.32807e-06
1.19397e-06
2.1101e-06
1.96385e-06
3.67766e-06
3.67865e-06
6.1878e-06
6.85074e-06
1.04707e-05
1.22823e-05
1.77547e-05
2.18789e-05
2.98443e-05
3.76715e-05
4.84813e-05
6.15834e-05
7.54746e-05
9.56541e-05
0.000113123
0.000142952
0.000164347
0.000208649
0.000233372
0.00030205
0.000328733
0.00043471
0.000472952
0.000624755
0.000694055
0.000914627
0.00110565
0.00167532
0.00405671
0.000832933
0.000268712
0.000127755
5.29439e-05
1.96235e-05
3.92568e-06
8.35619e-07
2.07818e-08
2.23833e-11
2.44397e-11
1.32773e-09
4.27083e-09
9.59158e-09
1.7855e-08
2.85996e-08
4.05612e-08
5.28087e-08
6.59672e-08
7.93924e-08
9.27002e-08
1.05474e-07
1.16783e-07
1.28386e-07
1.3838e-07
1.46136e-07
1.52012e-07
1.57889e-07
1.63257e-07
1.68696e-07
1.73122e-07
1.72683e-07
1.7166e-07
1.66617e-07
1.65289e-07
1.55381e-07
1.6247e-07
1.8921e-07
2.30209e-07
3.43719e-07
4.4152e-07
7.75997e-07
9.90071e-07
1.45374e-06
2.06247e-06
3.13613e-06
4.38994e-06
6.19826e-06
8.52528e-06
1.13818e-05
1.56005e-05
1.99996e-05
2.74347e-05
3.38931e-05
4.60811e-05
5.56073e-05
7.65164e-05
9.30047e-05
0.000130723
0.000155242
0.000212182
0.000245628
0.000324462
0.000369363
0.000473926
0.000533505
0.000672229
0.000750751
0.000934963
0.00104214
0.00128111
0.00143224
0.00172849
0.00192171
0.00226937
0.00248266
0.00285727
0.00304335
0.00337267
0.00348997
0.00418547
0.000649585
8.41031e-05
1.09794e-05
2.50509e-06
6.70424e-07
3.76608e-07
3.52845e-07
5.1688e-07
7.33285e-07
9.64093e-07
1.12756e-06
1.24198e-06
1.32233e-06
1.39812e-06
1.48433e-06
1.58335e-06
1.68897e-06
1.79982e-06
1.91573e-06
2.03726e-06
2.16522e-06
2.30075e-06
2.44553e-06
2.60096e-06
2.76949e-06
2.95308e-06
3.15298e-06
3.37252e-06
3.61536e-06
3.88566e-06
4.18839e-06
4.52955e-06
4.91655e-06
5.36449e-06
6.27649e-06
7.86429e-06
1.02599e-05
1.30374e-05
1.78178e-05
2.16652e-05
3.05045e-05
3.59358e-05
4.59408e-05
5.57611e-05
7.25234e-05
8.61218e-05
0.000110022
0.000128317
0.000161594
0.000185576
0.000232535
0.000265138
0.00032732
0.000376459
0.000479685
0.00059918
0.000778611
0.000939579
0.00114362
0.0013415
0.0015829
0.00183242
0.00212213
0.00243503
0.00277757
0.00315652
0.0035413
0.00397011
0.0043609
0.00479493
0.00513526
0.00549241
0.00572627
0.00594934
0.00605654
0.0061414
0.00610502
0.00611899
0.00588714
0.0044493
0.00152447
0.000772263
0.000447466
0.000407906
0.000408106
0.0004363
0.000439607
0.000433991
0.000424095
0.00041584
0.000406652
0.000399214
0.000394675
0.000388557
0.00038651
0.000386506
0.000387122
0.000388357
0.000390238
0.000392774
0.000396005
0.000399933
0.000404626
0.000410064
0.000416364
0.000423458
0.000431387
0.000440205
0.00045003
0.000460921
0.000473032
0.000486467
0.000501507
0.000522874
0.000549192
0.000584532
0.000613078
0.000678197
0.000712808
0.000771987
0.000830197
0.000898755
0.000972651
0.0010574
0.00114815
0.00124795
0.00135953
0.00147918
0.00162063
0.00176923
0.00195519
0.00214786
0.00240104
0.00266177
0.00299515
0.00328141
0.00364949
0.00401541
0.00450526
0.00499392
0.0056005
0.00618738
0.00685778
0.00746146
0.00808465
0.00857596
0.00901723
0.00928071
0.00945344
0.00948657
0.00934778
0.00921771
0.00891067
0.00870097
0.00829813
0.00809603
0.00765455
0.00749937
0.00702571
0.01557
0.0133181
0.0116583
0.0104131
0.00946218
0.00872211
0.0081361
0.00766
0.00726485
0.00693278
0.00665108
0.00641077
0.0062037
0.00602552
0.00586961
0.0057339
0.00561379
0.00550866
0.00541466
0.00533246
0.00525838
0.00519406
0.00513564
0.00508564
0.00503976
0.00500141
0.00496565
0.0049369
0.00490939
0.0048886
0.00486776
0.0048536
0.00483819
0.0048297
0.00482012
0.00480833
0.00479286
0.00477439
0.00475135
0.00472487
0.00469266
0.00465693
0.0046139
0.00456683
0.0045113
0.0044519
0.00438312
0.0043107
0.00422819
0.00414284
0.00404717
0.00395041
0.00384402
0.0037397
0.00362813
0.00352381
0.00341676
0.00332145
0.00322957
0.00315704
0.00309986
0.00306939
0.00306539
0.00310653
0.00317137
0.00328589
0.00342533
0.00359949
0.00379224
0.0039904
0.00420487
0.0043992
0.0045896
0.00477626
0.00492948
0.00513541
0.0052536
0.00553932
0.00561865
0.00624042
)
;

boundaryField
{
    inlet
    {
        type            fixedValue;
        value           uniform 0.017;
    }
    outlet
    {
        type            zeroGradient;
    }
    fixedWalls
    {
        type            kqRWallFunction;
        value           nonuniform List<scalar> 
160
(
0.01557
0.0133181
0.0116583
0.0104131
0.00946218
0.00872211
0.0081361
0.00766
0.00726485
0.00693278
0.00665108
0.00641077
0.0062037
0.00602552
0.00586961
0.0057339
0.00561379
0.00550866
0.00541466
0.00533246
0.00525838
0.00519406
0.00513564
0.00508564
0.00503976
0.00500141
0.00496565
0.0049369
0.00490939
0.0048886
0.00486776
0.0048536
0.00483819
0.0048297
0.00482012
0.00480833
0.00479286
0.00477439
0.00475135
0.00472487
0.00469266
0.00465693
0.0046139
0.00456683
0.0045113
0.0044519
0.00438312
0.0043107
0.00422819
0.00414284
0.00404717
0.00395041
0.00384402
0.0037397
0.00362813
0.00352381
0.00341676
0.00332145
0.00322957
0.00315704
0.00309986
0.00306939
0.00306539
0.00310653
0.00317137
0.00328589
0.00342533
0.00359949
0.00379224
0.0039904
0.00420487
0.0043992
0.0045896
0.00477626
0.00492948
0.00513541
0.0052536
0.00553932
0.00561865
0.00624042
0.0136656
0.00138205
0.00100186
0.000882128
0.00080069
0.00087972
0.000929063
0.00102009
0.00111969
0.0012296
0.00133221
0.00144423
0.00156182
0.00168962
0.00182574
0.00197107
0.00212462
0.00228649
0.00245628
0.00263376
0.00281866
0.00301062
0.00320939
0.00341462
0.00362594
0.00384284
0.00406489
0.00429156
0.00452233
0.0047566
0.00499381
0.00523323
0.00547422
0.00571587
0.00595735
0.00619746
0.00643498
0.00666853
0.00689788
0.00712787
0.00735554
0.00758149
0.00780534
0.00802672
0.00824492
0.00845935
0.00866915
0.00887361
0.00907177
0.00926285
0.00944592
0.00962016
0.00978466
0.00993856
0.010081
0.0102113
0.0103288
0.0104317
0.0105192
0.010594
0.0106573
0.0107192
0.0108584
0.0110332
0.0112066
0.011377
0.0115467
0.0117153
0.011885
0.0120594
0.0122412
0.0124353
0.0126396
0.0128816
0.0131236
0.0134823
0.0137346
0.0144552
0.0146781
0.0168535
)
;
    }
    frontAndBack
    {
        type            empty;
    }
}


// ************************************************************************* //
