/*--------------------------------*- C++ -*----------------------------------*\
| =========                 |                                                 |
| \\      /  F ield         | OpenFOAM: The Open Source CFD Toolbox           |
|  \\    /   O peration     | Version:  v1912                                 |
|   \\  /    A nd           | Website:  www.openfoam.com                      |
|    \\/     M anipulation  |                                                 |
\*---------------------------------------------------------------------------*/
FoamFile
{
    version     2.0;
    format      ascii;
    class       volScalarField;
    location    "500";
    object      mag(U);
}
// * * * * * * * * * * * * * * * * * * * * * * * * * * * * * * * * * * * * * //

dimensions      [0 1 -1 0 0 0 0];


internalField   nonuniform List<scalar> 
2000
(
0.550543
0.343486
0.110172
0.109733
0.100635
0.0987145
0.0972154
0.0979518
0.100341
0.103599
0.107135
0.11092
0.115027
0.119491
0.124249
0.129253
0.134444
0.139778
0.145215
0.150722
0.156262
0.161808
0.167327
0.172793
0.178173
0.183434
0.188546
0.19347
0.198173
0.202621
0.206775
0.210598
0.214051
0.217095
0.21969
0.221791
0.223348
0.2243
0.224565
0.224061
0.222981
0.221299
0.218991
0.216017
0.212338
0.207914
0.202703
0.196664
0.189757
0.181943
0.173183
0.163443
0.152688
0.140886
0.12801
0.114034
0.0989382
0.0827107
0.0653618
0.0469733
0.0279598
0.0119124
0.0208904
0.0430272
0.0677972
0.09429
0.122391
0.152137
0.183616
0.21696
0.252329
0.289963
0.330053
0.373225
0.419191
0.470874
0.522827
0.595813
0.639243
0.810079
0.906701
0.214076
0.137583
0.0976673
0.0948552
0.0943928
0.0958897
0.0978819
0.101003
0.104382
0.108012
0.111869
0.116035
0.120443
0.125024
0.129713
0.13446
0.139223
0.143972
0.14868
0.153315
0.157854
0.162271
0.166544
0.170644
0.174544
0.178217
0.181636
0.184774
0.187605
0.190102
0.192236
0.193986
0.195325
0.196234
0.196698
0.196711
0.19629
0.19548
0.194351
0.192726
0.190541
0.187756
0.184336
0.180241
0.175432
0.169869
0.163513
0.156326
0.148271
0.139314
0.129424
0.118572
0.106738
0.093911
0.080097
0.0653445
0.0498133
0.0340625
0.0207097
0.0205407
0.0359027
0.0565167
0.0794777
0.104206
0.130567
0.15855
0.188201
0.219615
0.252924
0.288297
0.325971
0.366181
0.409476
0.455817
0.507502
0.560887
0.63156
0.682154
0.831699
1.01504
0.65719
0.182205
0.0664428
0.0703547
0.0770402
0.0819103
0.085372
0.0890746
0.0925878
0.0961801
0.099838
0.103668
0.10765
0.111723
0.115837
0.119948
0.124026
0.128046
0.131992
0.135843
0.139583
0.143196
0.146667
0.149977
0.153107
0.156033
0.158735
0.16119
0.163377
0.165274
0.166859
0.168108
0.169001
0.169523
0.16966
0.169406
0.168756
0.1677
0.166206
0.164216
0.161695
0.158609
0.154924
0.150605
0.145615
0.13992
0.133485
0.126277
0.11827
0.109438
0.0997684
0.0892619
0.0779459
0.0659049
0.0533553
0.0408752
0.0301829
0.0259644
0.0328397
0.0474814
0.0659397
0.08672
0.109305
0.133524
0.159334
0.186751
0.215831
0.246677
0.279424
0.314247
0.351386
0.391103
0.433899
0.479876
0.530997
0.58449
0.653215
0.706585
0.839712
1.02965
0.903606
0.555633
0.182114
0.016709
0.0420384
0.0567262
0.0656443
0.0717526
0.0763817
0.0805257
0.0844272
0.0882566
0.0920748
0.0958572
0.099582
0.103224
0.106772
0.110213
0.113542
0.116748
0.11982
0.122755
0.125544
0.128176
0.130634
0.132904
0.134966
0.136802
0.138395
0.139725
0.140772
0.141516
0.141938
0.142021
0.141748
0.141109
0.140088
0.138658
0.13679
0.134451
0.131617
0.128259
0.12435
0.119862
0.114768
0.109042
0.102664
0.0956198
0.0879103
0.0795571
0.0706221
0.0612434
0.0517182
0.0427007
0.0356217
0.0330601
0.037237
0.0474481
0.0616406
0.0784589
0.0972531
0.117729
0.139761
0.163313
0.188394
0.215042
0.24333
0.27337
0.305304
0.339314
0.375645
0.414577
0.456583
0.501858
0.552134
0.605132
0.672032
0.726001
0.847764
1.01421
0.999939
0.826435
0.517466
0.207958
0.0436859
0.0151515
0.032763
0.045254
0.0530468
0.059042
0.0641488
0.0686471
0.0727913
0.076649
0.080263
0.0836562
0.0868533
0.0898585
0.0926911
0.0953504
0.0978361
0.100155
0.102311
0.104295
0.106101
0.107717
0.109132
0.11033
0.111299
0.112023
0.112485
0.112666
0.112552
0.112124
0.111366
0.110266
0.108803
0.106956
0.104701
0.102017
0.0988904
0.0953035
0.0912416
0.0866932
0.0816545
0.0761333
0.070158
0.0637931
0.0571653
0.0505165
0.0442997
0.0393261
0.0368483
0.0381711
0.0437362
0.0529338
0.0648825
0.0789383
0.0947183
0.112015
0.130721
0.150791
0.172225
0.19505
0.219312
0.24508
0.272442
0.30152
0.332468
0.365477
0.4008
0.438733
0.479731
0.524053
0.573259
0.625376
0.690419
0.743873
0.857191
0.998966
1.01418
0.965138
0.791135
0.519423
0.254093
0.100708
0.0404984
0.019452
0.021554
0.0294912
0.0368716
0.0430288
0.0482294
0.0527146
0.0566335
0.0601023
0.0632037
0.065978
0.0684781
0.0707206
0.0727212
0.0745034
0.0760815
0.0774576
0.0786321
0.0796012
0.0803594
0.0808992
0.0812132
0.0812911
0.0811209
0.0806893
0.0799837
0.0789917
0.0777013
0.0761005
0.0741769
0.0719175
0.0693122
0.0663595
0.0630662
0.0594484
0.0555379
0.0513943
0.0471235
0.0429073
0.0390505
0.0360348
0.0345266
0.035223
0.0385251
0.044363
0.0523763
0.0621833
0.0735008
0.0861454
0.100006
0.115024
0.131169
0.148437
0.166839
0.186398
0.207161
0.22919
0.252553
0.277336
0.303651
0.331628
0.361438
0.393282
0.427426
0.464168
0.503966
0.547114
0.595052
0.646006
0.7091
0.76142
0.868077
0.992861
1.00058
1.00619
0.946884
0.78758
0.55194
0.32028
0.17016
0.0959277
0.0569235
0.0360849
0.0242177
0.020745
0.0222713
0.0257327
0.0293497
0.0327309
0.0357237
0.0383254
0.0405722
0.0424726
0.0440542
0.0453554
0.0463966
0.0471848
0.04773
0.0480358
0.0481052
0.0479399
0.0475401
0.0469035
0.046027
0.0449063
0.0435403
0.0419291
0.0400765
0.0379917
0.0356917
0.0332097
0.0306082
0.0280016
0.0255843
0.0236648
0.0226767
0.0230913
0.0252091
0.029023
0.0343197
0.0408575
0.0484513
0.0569813
0.0663752
0.0765966
0.0876257
0.0994565
0.112094
0.125551
0.139843
0.154995
0.171031
0.187988
0.205899
0.224817
0.244805
0.265937
0.288299
0.311991
0.337138
0.363889
0.392421
0.422947
0.455743
0.491115
0.529541
0.571315
0.617804
0.667358
0.728399
0.779214
0.880355
0.993305
0.988354
1.00035
1.0008
0.944821
0.808495
0.60867
0.404053
0.257897
0.168151
0.117235
0.0853741
0.064697
0.0502475
0.0403281
0.033304
0.0285185
0.0252915
0.0232259
0.0219674
0.0211684
0.0206282
0.0202055
0.0197736
0.0192387
0.018552
0.017677
0.0165873
0.0152685
0.01371
0.0118967
0.00981978
0.00747902
0.00490134
0.00230374
0.00225704
0.00542502
0.00923052
0.0134305
0.0180086
0.0229764
0.0283517
0.0341549
0.0404054
0.0471216
0.054321
0.0620191
0.0702298
0.078968
0.0882476
0.0980827
0.108487
0.119478
0.131071
0.143282
0.15613
0.169637
0.183827
0.198732
0.214376
0.230804
0.248061
0.266199
0.28529
0.30541
0.326654
0.349134
0.372984
0.398364
0.425466
0.454519
0.485809
0.519653
0.556538
0.596748
0.641612
0.689567
0.748451
0.797533
0.893936
0.995665
0.985027
0.986085
0.999199
0.999675
0.95503
0.846782
0.682279
0.504372
0.357329
0.258034
0.194518
0.1536
0.125294
0.105335
0.0904439
0.079215
0.0704907
0.0636339
0.0582262
0.0539148
0.0504788
0.0477476
0.0455859
0.0438999
0.0426265
0.0417286
0.0411769
0.0409624
0.0410952
0.0415911
0.0424645
0.0437433
0.0454497
0.0476027
0.050212
0.0532855
0.0568242
0.0608299
0.065305
0.0702533
0.0756797
0.0815919
0.0879973
0.0949017
0.102311
0.110226
0.11865
0.127587
0.137039
0.147008
0.157499
0.168521
0.180073
0.192169
0.20482
0.218041
0.231844
0.246254
0.261299
0.277013
0.293442
0.310639
0.328668
0.347617
0.367588
0.388704
0.411108
0.434972
0.4605
0.487937
0.517576
0.549741
0.584921
0.6234
0.666484
0.712661
0.769307
0.816522
0.908744
0.997456
0.987392
0.979717
0.984178
0.997397
1.00106
0.972008
0.893789
0.766466
0.616736
0.476091
0.368661
0.294262
0.242248
0.205548
0.178679
0.158824
0.143486
0.131534
0.122176
0.114783
0.10894
0.104352
0.100804
0.09813
0.0962057
0.0949264
0.0942136
0.0940101
0.0942797
0.0950016
0.0961479
0.0977165
0.099702
0.102106
0.104928
0.108168
0.111834
0.11593
0.120467
0.125456
0.130907
0.136832
0.14324
0.150136
0.157522
0.165396
0.173758
0.182607
0.191941
0.20176
0.212059
0.222839
0.234087
0.245813
0.258019
0.270711
0.283894
0.297584
0.311807
0.326591
0.341979
0.358028
0.37481
0.392416
0.410955
0.430558
0.45138
0.473597
0.497424
0.523107
0.550953
0.581295
0.614626
0.651232
0.692396
0.73664
0.790984
0.836263
0.92471
0.998288
0.990857
0.981177
0.976399
0.981687
0.994187
1.00214
0.989265
0.940459
0.852895
0.734577
0.60952
0.499117
0.414251
0.352685
0.306807
0.272466
0.24607
0.225805
0.21001
0.197434
0.187406
0.179454
0.17321
0.168372
0.164716
0.162053
0.160245
0.159189
0.158801
0.159019
0.15979
0.161079
0.162852
0.165094
0.167782
0.170906
0.174463
0.178454
0.182887
0.18777
0.19311
0.198918
0.205199
0.211956
0.219183
0.226868
0.235011
0.2436
0.252633
0.262101
0.271997
0.28231
0.293024
0.304139
0.315648
0.327547
0.339852
0.352572
0.365731
0.37936
0.393505
0.408223
0.42359
0.439698
0.45666
0.474608
0.493701
0.514128
0.536108
0.559901
0.585819
0.614206
0.645556
0.680158
0.719284
0.761467
0.813466
0.856773
0.941759
0.998585
0.993234
0.98521
0.977399
0.974003
0.9782
0.989081
1.00033
1.00043
0.978115
0.926389
0.845933
0.746777
0.645207
0.55554
0.483794
0.429262
0.387431
0.354425
0.328213
0.307181
0.290408
0.277012
0.266291
0.257711
0.250924
0.245638
0.241634
0.238737
0.236808
0.235728
0.235407
0.235771
0.236748
0.238291
0.240364
0.24294
0.246004
0.24955
0.253574
0.258076
0.263056
0.268514
0.274445
0.28084
0.287682
0.294955
0.302651
0.310749
0.319241
0.328105
0.337317
0.346871
0.356764
0.36698
0.37752
0.38838
0.399569
0.411094
0.42298
0.435255
0.447964
0.461164
0.474928
0.489354
0.504557
0.52068
0.537887
0.556373
0.576367
0.598139
0.622004
0.648315
0.677568
0.71006
0.747043
0.787074
0.836702
0.878029
0.959816
0.998741
0.994452
0.988382
0.981558
0.975363
0.972087
0.974193
0.982484
0.993969
1.00212
0.999078
0.977684
0.934421
0.870373
0.792122
0.710968
0.635575
0.572581
0.521825
0.482008
0.450022
0.423946
0.40253
0.384925
0.370477
0.358739
0.349247
0.341654
0.335679
0.331096
0.327719
0.325397
0.324004
0.323431
0.323587
0.32442
0.325883
0.327943
0.330579
0.333771
0.337502
0.341753
0.346511
0.351752
0.357439
0.363547
0.370057
0.376952
0.384207
0.391806
0.399728
0.407951
0.416457
0.425246
0.434299
0.443616
0.453191
0.463022
0.473115
0.483487
0.494167
0.505201
0.516649
0.528591
0.54113
0.554387
0.568509
0.583669
0.60007
0.617946
0.637575
0.659275
0.68341
0.710475
0.740778
0.775532
0.813354
0.860602
0.899964
0.978798
0.998895
0.99511
0.990124
0.98488
0.979564
0.974458
0.970866
0.970776
0.975484
0.984362
0.994696
1.00192
1.00081
0.986938
0.957498
0.913179
0.85679
0.794402
0.732752
0.676521
0.628696
0.5894
0.557317
0.531095
0.509358
0.491181
0.475949
0.463308
0.452863
0.444319
0.437438
0.432008
0.427832
0.424776
0.422718
0.421558
0.421224
0.421649
0.422784
0.424581
0.427002
0.430007
0.433565
0.437622
0.44214
0.447086
0.452417
0.458105
0.464133
0.47047
0.477095
0.483993
0.49114
0.498519
0.506111
0.513901
0.52188
0.530042
0.538396
0.54696
0.555766
0.564861
0.574312
0.584204
0.594644
0.605762
0.617711
0.630672
0.644852
0.660492
0.677876
0.697327
0.719212
0.744023
0.77209
0.80456
0.840158
0.885051
0.922489
0.99861
0.999044
0.995598
0.991076
0.986667
0.98264
0.978569
0.974359
0.970722
0.968893
0.970037
0.974749
0.982529
0.991586
0.999215
1.00216
0.997436
0.983166
0.958348
0.924138
0.882425
0.836867
0.79099
0.747845
0.709366
0.67638
0.648767
0.625819
0.60673
0.590728
0.577231
0.565858
0.556337
0.548417
0.54198
0.536855
0.532906
0.530032
0.528117
0.527076
0.526829
0.527324
0.528493
0.530273
0.532588
0.535402
0.538665
0.542327
0.546349
0.550709
0.555367
0.560288
0.565446
0.570817
0.576379
0.582106
0.587981
0.593989
0.600125
0.6064
0.612835
0.619466
0.626346
0.633546
0.641158
0.649296
0.658095
0.667716
0.678345
0.690195
0.703515
0.718588
0.735741
0.755347
0.777886
0.803702
0.833883
0.867295
0.909894
0.945478
1.01913
0.999167
0.996003
0.991745
0.98762
0.984176
0.981128
0.978048
0.974792
0.971574
0.968927
0.967636
0.968469
0.97182
0.977534
0.9848
0.99218
0.99799
1.00042
0.997908
0.989547
0.974905
0.954235
0.928533
0.899179
0.86791
0.836427
0.806259
0.778479
0.753797
0.732473
0.714323
0.69907
0.686311
0.675639
0.666738
0.659315
0.653144
0.648098
0.644106
0.641092
0.638988
0.63766
0.637003
0.63695
0.637418
0.638366
0.639754
0.641524
0.643637
0.646049
0.648723
0.651628
0.654727
0.657992
0.661392
0.664906
0.668521
0.672237
0.676068
0.68004
0.684197
0.688594
0.69331
0.698442
0.704107
0.710451
0.717636
0.725856
0.735327
0.746306
0.759068
0.773949
0.79131
0.811629
0.835229
0.863221
0.894514
0.934925
0.96876
1.04022
0.99926
0.996305
0.992252
0.988272
0.98498
0.982287
0.979915
0.977651
0.975327
0.972863
0.970382
0.968223
0.966845
0.966708
0.968151
0.971249
0.975786
0.981267
0.986936
0.991936
0.995394
0.996546
0.994831
0.989924
0.981772
0.970448
0.956315
0.939863
0.921746
0.902651
0.883306
0.864341
0.846362
0.829744
0.814778
0.801597
0.790365
0.780956
0.773117
0.76658
0.761086
0.756476
0.752601
0.749403
0.746764
0.744665
0.74305
0.741873
0.741068
0.740592
0.740412
0.740487
0.740754
0.741183
0.741746
0.742424
0.74322
0.744136
0.745196
0.746426
0.747878
0.749604
0.751692
0.754241
0.757372
0.76124
0.766003
0.771868
0.779044
0.7878
0.798383
0.811154
0.826414
0.844693
0.866228
0.892203
0.921503
0.959915
0.992117
1.06175
0.999331
0.996493
0.992572
0.988724
0.985522
0.9829
0.980688
0.978802
0.977142
0.975552
0.973893
0.972112
0.970255
0.96847
0.966973
0.966006
0.96579
0.966475
0.9681
0.970573
0.973701
0.977199
0.980731
0.983941
0.986498
0.988123
0.988609
0.98781
0.985652
0.982101
0.977218
0.971085
0.963824
0.95561
0.946615
0.937074
0.927039
0.916715
0.906394
0.896367
0.886832
0.87798
0.869902
0.862618
0.856114
0.850304
0.845106
0.840447
0.836246
0.832426
0.828917
0.825676
0.822669
0.819869
0.817262
0.81484
0.812633
0.810618
0.808849
0.807324
0.806118
0.80527
0.804887
0.805054
0.805909
0.8076
0.810282
0.814172
0.819456
0.826403
0.835227
0.846289
0.859832
0.876408
0.896215
0.920452
0.948038
0.984683
1.01527
1.0835
0.999383
0.996571
0.992685
0.988937
0.985841
0.983284
0.981099
0.979254
0.977729
0.976449
0.975313
0.974232
0.973128
0.97195
0.970687
0.969365
0.968051
0.966841
0.965834
0.96512
0.964767
0.964806
0.965228
0.965986
0.967
0.968168
0.969381
0.97052
0.971477
0.972153
0.972464
0.972355
0.971789
0.970747
0.969228
0.967242
0.96482
0.961961
0.958653
0.954878
0.950657
0.945994
0.94094
0.935526
0.929848
0.923967
0.917974
0.911939
0.905942
0.900044
0.89428
0.888679
0.883289
0.878133
0.873228
0.868596
0.864229
0.860176
0.856438
0.853086
0.850147
0.847722
0.845872
0.844729
0.844402
0.845038
0.846797
0.849844
0.854364
0.860549
0.86863
0.878851
0.891495
0.90695
0.925536
0.948257
0.974234
1.00901
1.03774
1.10505
0.999415
0.996533
0.992591
0.988892
0.985891
0.983406
0.981267
0.979442
0.977925
0.97667
0.975616
0.974719
0.973934
0.973216
0.972517
0.971793
0.971019
0.970179
0.969272
0.968313
0.967323
0.966331
0.965365
0.964447
0.963588
0.962793
0.962052
0.961347
0.960651
0.95993
0.959146
0.958256
0.95722
0.956001
0.954561
0.952869
0.95091
0.94874
0.946365
0.943793
0.94103
0.938082
0.934953
0.931652
0.928185
0.924562
0.920801
0.916915
0.912917
0.908824
0.904665
0.90047
0.896271
0.892097
0.88799
0.884003
0.880182
0.876602
0.873321
0.87043
0.868004
0.866147
0.864951
0.864533
0.865009
0.866495
0.869139
0.873055
0.878417
0.885345
0.894063
0.904706
0.917597
0.932952
0.951178
0.973005
0.997838
1.03101
1.05811
1.12528
0.999419
0.996354
0.992268
0.988589
0.985667
0.983244
0.981147
0.979355
0.977861
0.976611
0.975553
0.97465
0.973878
0.973214
0.972632
0.972105
0.971607
0.971115
0.970604
0.970054
0.96945
0.968782
0.968043
0.967232
0.966349
0.965392
0.964364
0.963263
0.962087
0.960833
0.95949
0.958051
0.956505
0.954843
0.953057
0.951135
0.949072
0.946857
0.944484
0.941952
0.939261
0.936412
0.933406
0.930244
0.926934
0.923484
0.91991
0.916227
0.912454
0.908617
0.904752
0.9009
0.897111
0.893438
0.88994
0.886683
0.883732
0.881149
0.878991
0.877304
0.876135
0.87552
0.875509
0.876143
0.877485
0.879601
0.882584
0.886532
0.891577
0.897863
0.905585
0.914964
0.926306
0.940012
0.956474
0.976806
1.0003
1.03326
1.05997
1.13247
0.999384
0.996003
0.991679
0.987962
0.985078
0.982696
0.980644
0.978904
0.977459
0.976251
0.975226
0.974344
0.973584
0.97292
0.972335
0.97181
0.971329
0.970876
0.970437
0.969997
0.969537
0.969048
0.968515
0.967926
0.967271
0.96654
0.965725
0.964818
0.963813
0.962701
0.961475
0.960127
0.958655
0.957053
0.955317
0.953437
0.951417
0.949249
0.946929
0.944452
0.941817
0.939022
0.936075
0.932985
0.929772
0.926459
0.923081
0.919677
0.916294
0.912981
0.909792
0.906782
0.903998
0.901476
0.899242
0.897303
0.895648
0.894246
0.893055
0.892023
0.891099
0.890245
0.889442
0.888707
0.888079
0.887648
0.887522
0.887878
0.888888
0.890839
0.893983
0.898758
0.905544
0.91504
0.927675
0.94494
0.966075
0.998239
1.02446
1.10288
0.999274
0.995434
0.990949
0.987263
0.98439
0.981978
0.979902
0.978161
0.976728
0.975538
0.974534
0.973675
0.972935
0.972289
0.971716
0.971196
0.970712
0.970249
0.969796
0.969338
0.968863
0.96836
0.967818
0.967226
0.966572
0.965848
0.965042
0.964145
0.963145
0.962033
0.960798
0.959427
0.957914
0.956257
0.954441
0.952478
0.950381
0.948164
0.945843
0.943438
0.940969
0.938466
0.935955
0.93347
0.931038
0.928685
0.926433
0.924291
0.922258
0.920315
0.91843
0.916549
0.914604
0.912503
0.910156
0.907448
0.904295
0.900603
0.896339
0.89145
0.885964
0.879907
0.873408
0.86659
0.85969
0.852929
0.846656
0.841179
0.836952
0.834373
0.833966
0.836264
0.841778
0.851166
0.864856
0.884195
0.908187
0.944183
0.973851
1.06049
0.99867
0.993226
0.987967
0.984042
0.980977
0.978314
0.975984
0.973993
0.972307
0.970864
0.96961
0.96851
0.967532
0.96665
0.965838
0.965073
0.964335
0.963608
0.962875
0.962121
0.961332
0.960496
0.959598
0.958626
0.95757
0.956415
0.955151
0.953765
0.952244
0.950574
0.948742
0.946724
0.94453
0.942071
0.93972
0.937631
0.935816
0.934224
0.932818
0.931514
0.930253
0.928935
0.927474
0.925758
0.923684
0.921156
0.918059
0.914299
0.909769
0.904388
0.898072
0.890774
0.882452
0.873112
0.862781
0.851559
0.839632
0.827145
0.814286
0.801251
0.788316
0.775729
0.763803
0.752803
0.743066
0.734872
0.728575
0.724463
0.722901
0.724177
0.72867
0.736604
0.748227
0.763886
0.78381
0.809219
0.838848
0.880629
0.914583
1.01128
0.982624
0.96169
0.946605
0.935565
0.926818
0.919379
0.91292
0.907338
0.902492
0.898227
0.894423
0.890988
0.887853
0.884964
0.882269
0.879727
0.877302
0.874965
0.872685
0.870436
0.868195
0.865942
0.863655
0.861316
0.858907
0.856409
0.85381
0.85109
0.848232
0.84522
0.842033
0.838654
0.835028
0.831196
0.826707
0.821348
0.815044
0.807771
0.799481
0.790187
0.779868
0.76855
0.756238
0.742968
0.728769
0.713678
0.697763
0.681089
0.663765
0.645902
0.627667
0.609237
0.590844
0.572738
0.555205
0.538548
0.522988
0.508922
0.496663
0.486624
0.479033
0.47423
0.472316
0.473481
0.477635
0.484795
0.49471
0.507289
0.522242
0.539477
0.558842
0.580385
0.604409
0.631214
0.661182
0.695519
0.733061
0.782175
0.822389
0.924364
)
;

boundaryField
{
    inlet
    {
        type            calculated;
        value           uniform 1;
    }
    outlet
    {
        type            calculated;
        value           nonuniform List<scalar> 
25
(
0.810079
0.831699
0.839712
0.847764
0.857191
0.868077
0.880355
0.893936
0.908744
0.92471
0.941759
0.959816
0.978798
0.99861
1.01913
1.04022
1.06175
1.0835
1.10505
1.12528
1.13247
1.10288
1.06049
1.01128
0.924364
)
;
    }
    fixedWalls
    {
        type            calculated;
        value           uniform 0;
    }
    frontAndBack
    {
        type            empty;
    }
}


// ************************************************************************* //
