/*--------------------------------*- C++ -*----------------------------------*\
| =========                 |                                                 |
| \\      /  F ield         | OpenFOAM: The Open Source CFD Toolbox           |
|  \\    /   O peration     | Version:  v1912                                 |
|   \\  /    A nd           | Website:  www.openfoam.com                      |
|    \\/     M anipulation  |                                                 |
\*---------------------------------------------------------------------------*/
FoamFile
{
    version     2.0;
    format      ascii;
    class       volScalarField;
    location    "500";
    object      nut;
}
// * * * * * * * * * * * * * * * * * * * * * * * * * * * * * * * * * * * * * //

dimensions      [0 2 -1 0 0 0 0];


internalField   nonuniform List<scalar> 
2000
(
0.000529558
0.000181058
0.000165839
0.000201904
0.000152615
0.000189075
0.000190449
0.000212967
0.000231426
0.000251783
0.000271625
0.000292253
0.000313497
0.000335653
0.000358495
0.000382076
0.000406241
0.000430963
0.000456142
0.000481707
0.000507571
0.000533653
0.000559877
0.000586167
0.000612443
0.000638619
0.000664619
0.000690356
0.000715753
0.00074072
0.00076518
0.000789041
0.000812225
0.000834631
0.000856175
0.000876742
0.00089623
0.00091452
0.000931588
0.00094773
0.000962756
0.000976659
0.000989411
0.00100096
0.00101126
0.00102026
0.00102789
0.00103411
0.00103886
0.00104209
0.00104376
0.00104382
0.00104225
0.001039
0.00103405
0.00102739
0.00101901
0.00100887
0.000996935
0.000983396
0.000968328
0.000952226
0.000938508
0.000925079
0.000910334
0.0008942
0.000876766
0.000858028
0.000838039
0.00081691
0.000794707
0.000771553
0.000747301
0.000722713
0.000696488
0.000671856
0.000642478
0.000621251
0.000592818
0.000587026
5.78343e-05
2.36036e-05
0.000344749
0.000502984
0.000924173
0.000981181
0.0011894
0.00132575
0.00147639
0.00166134
0.00182208
0.00197987
0.00213499
0.00229473
0.00245901
0.00262947
0.00280529
0.00298642
0.00317262
0.00336356
0.00355902
0.00375857
0.00396192
0.0041689
0.00437926
0.00459259
0.00480856
0.00502682
0.00524696
0.0054686
0.00569133
0.00591468
0.00613821
0.00636136
0.00658359
0.00680414
0.00702176
0.00723344
0.00743202
0.00760271
0.00776591
0.00792289
0.00807346
0.00821733
0.00835412
0.00848335
0.00860451
0.008717
0.00882022
0.00891356
0.00899642
0.00906821
0.00912834
0.00917623
0.00921135
0.00923325
0.00924182
0.0092358
0.00921374
0.00917512
0.00912129
0.009046
0.00893092
0.00878589
0.00862137
0.00843992
0.00824398
0.00803364
0.00781044
0.00757603
0.00733109
0.00707564
0.00681163
0.00654456
0.00626763
0.00599471
0.00573027
0.00544133
0.00529304
0.00513519
2.51638e-05
1.42394e-05
6.28493e-05
0.000622819
0.00136229
0.0012515
0.00185393
0.00205766
0.00243119
0.00281336
0.00315762
0.00348868
0.00380866
0.00413145
0.00445773
0.00479096
0.00513059
0.00547654
0.00582892
0.0061871
0.00655078
0.00691931
0.0072921
0.00766875
0.00804935
0.0084335
0.00881902
0.00920524
0.00959133
0.00997647
0.0103598
0.0107405
0.0111174
0.0114897
0.0118561
0.012215
0.0125643
0.0129007
0.0132189
0.0135171
0.0138038
0.0140788
0.0143418
0.0145923
0.0148297
0.0150532
0.0152621
0.0154553
0.0156321
0.0157913
0.0159323
0.0160541
0.0161558
0.0162366
0.0162959
0.0163329
0.016347
0.0163374
0.0163034
0.016244
0.0161588
0.0160436
0.015886
0.0156915
0.0154673
0.0152215
0.0149563
0.0146665
0.0143553
0.0140256
0.0136768
0.0133085
0.0129237
0.0125399
0.0121179
0.0117528
0.0113073
0.0109859
0.0106089
0.0104649
1.98346e-05
8.76949e-06
1.82985e-05
0.000224354
0.00108584
0.00135745
0.00184994
0.00222745
0.00275343
0.00327694
0.00379799
0.00429124
0.00476289
0.00523331
0.00570297
0.00617759
0.00665721
0.00714151
0.00763141
0.00812598
0.00862496
0.0091277
0.00963335
0.0101409
0.0106491
0.0111565
0.0116633
0.0121682
0.0126702
0.0131681
0.0136608
0.014147
0.0146256
0.0150951
0.0155541
0.0160009
0.0164335
0.01685
0.0172495
0.0176305
0.0179955
0.0183444
0.0186767
0.0189918
0.0192893
0.0195682
0.0198277
0.0200668
0.0202846
0.0204802
0.0206527
0.0208013
0.0209251
0.0210233
0.0210952
0.0211404
0.0211579
0.0211471
0.0211076
0.0210386
0.0209398
0.0208095
0.0206409
0.0204368
0.0201998
0.019931
0.019636
0.0193103
0.0189613
0.0185925
0.0182005
0.0177964
0.0173769
0.0169598
0.0164893
0.0161154
0.0155901
0.0152582
0.0148115
0.0145159
1.85799e-05
7.54388e-06
8.75025e-06
3.44963e-05
0.000528326
0.00143722
0.0017994
0.00214517
0.00266225
0.00327659
0.00391376
0.00452747
0.0051206
0.00570931
0.00629349
0.00688115
0.00747285
0.008067
0.00866589
0.0092678
0.00987245
0.0104792
0.011087
0.0116948
0.0123011
0.0129047
0.0135051
0.0141009
0.0146907
0.0152734
0.0158476
0.016412
0.0169651
0.0175055
0.0180318
0.0185423
0.0190354
0.0195096
0.019964
0.0203981
0.0208123
0.0212064
0.02158
0.0219325
0.0222633
0.0225719
0.0228574
0.0231189
0.0233555
0.0235665
0.0237512
0.023909
0.0240391
0.0241409
0.024214
0.0242581
0.0242724
0.0242563
0.0242103
0.0241328
0.0240249
0.0238865
0.0237124
0.0235065
0.0232683
0.0229987
0.0227055
0.0223805
0.0220307
0.0216599
0.0212674
0.0208541
0.020427
0.0200185
0.0195512
0.0191959
0.0186512
0.0183245
0.0178459
0.0174033
1.83251e-05
7.6351e-06
4.51362e-06
1.21703e-05
0.000127382
0.000796377
0.00172601
0.00214697
0.00248736
0.00307597
0.00375168
0.00440612
0.00508181
0.0057472
0.00640936
0.00707914
0.00775557
0.00843322
0.00911664
0.00980245
0.01049
0.0111783
0.0118664
0.0125529
0.0132361
0.0139142
0.0145869
0.0152524
0.015909
0.0165557
0.0171912
0.0178138
0.018422
0.0190145
0.01959
0.0201467
0.0206833
0.0211984
0.0216913
0.0221611
0.0226079
0.0230311
0.0234302
0.0238049
0.0241545
0.0244787
0.0247766
0.0250475
0.0252906
0.0255054
0.0256914
0.0258483
0.0259756
0.0260726
0.0261394
0.0261764
0.0261824
0.0261571
0.0261019
0.0260144
0.0258974
0.0257522
0.0255718
0.0253652
0.0251314
0.0248619
0.0245709
0.0242572
0.0239179
0.023559
0.0231806
0.022785
0.022386
0.0219858
0.0215604
0.0212192
0.0206933
0.0203855
0.0198691
0.0193752
1.82318e-05
7.89344e-06
3.62103e-06
5.48016e-06
2.39262e-05
0.000234647
0.00106731
0.00191172
0.00238095
0.0028986
0.00353656
0.00413878
0.00481406
0.0055004
0.0062021
0.00691311
0.00763785
0.00836646
0.00910572
0.00984925
0.0105958
0.0113434
0.0120908
0.0128367
0.0135787
0.014314
0.0150426
0.0157623
0.0164708
0.0171672
0.0178505
0.0185184
0.0191696
0.0198027
0.0204162
0.0210087
0.0215786
0.0221245
0.0226457
0.0231414
0.023611
0.024054
0.0244699
0.0248582
0.0252186
0.0255507
0.0258538
0.026127
0.0263699
0.026582
0.0267632
0.0269134
0.0270326
0.0271198
0.0271756
0.0272016
0.0271956
0.0271576
0.0270913
0.0269911
0.0268636
0.0267114
0.0265269
0.0263129
0.0260781
0.0258108
0.0255236
0.0252114
0.0248765
0.0245278
0.0241681
0.0238029
0.0234287
0.0230435
0.0226626
0.0223586
0.0218981
0.0216239
0.0211121
0.0206304
1.8207e-05
8.10238e-06
3.92575e-06
3.18698e-06
6.94854e-06
4.46595e-05
0.000325222
0.00129401
0.00222751
0.00260301
0.00333532
0.00384622
0.00448304
0.00512869
0.00582408
0.00653161
0.00726431
0.00800996
0.00876777
0.00953706
0.010314
0.0110946
0.0118768
0.0126604
0.013442
0.014216
0.0149846
0.0157442
0.0164909
0.0172247
0.0179447
0.0186478
0.0193325
0.0199974
0.0206411
0.0212617
0.0218575
0.0224271
0.0229696
0.0234843
0.0239704
0.0244274
0.0248546
0.0252513
0.0256174
0.025953
0.026257
0.0265286
0.0267674
0.026973
0.027146
0.0272863
0.0273945
0.0274686
0.0275106
0.0275237
0.0275032
0.02745
0.0273719
0.0272561
0.0271194
0.026941
0.0267305
0.0265023
0.026253
0.025981
0.0256913
0.0253963
0.0250986
0.0247915
0.0244594
0.0241195
0.0237763
0.0234315
0.0231121
0.0228387
0.0224725
0.0222328
0.0217568
0.0212915
1.81871e-05
8.18491e-06
4.45554e-06
2.69461e-06
3.8206e-06
1.38452e-05
5.04103e-05
0.000353989
0.00143671
0.00207975
0.00283662
0.00333451
0.00407741
0.00469883
0.0053799
0.00606795
0.00677064
0.00749836
0.00824006
0.00900162
0.00977733
0.0105604
0.0113485
0.0121434
0.0129415
0.0137318
0.0145215
0.0153041
0.0160733
0.0168301
0.0175749
0.0183019
0.0190101
0.0196975
0.0203633
0.0210045
0.0216189
0.0222051
0.0227626
0.0232902
0.0237874
0.0242532
0.0246871
0.025088
0.025456
0.0257919
0.0260938
0.0263609
0.0265931
0.0267897
0.0269524
0.0270806
0.0271765
0.0272355
0.0272617
0.0272501
0.0271993
0.0271139
0.0270137
0.0268634
0.0266967
0.0265145
0.0263151
0.0261049
0.0258831
0.0256423
0.0253853
0.0251005
0.0247997
0.024492
0.024182
0.023872
0.0235663
0.0232613
0.0229661
0.0227295
0.0224824
0.0222797
0.0218721
0.0214422
1.81946e-05
8.23195e-06
4.93701e-06
2.81155e-06
1.81595e-06
3.91398e-06
1.73384e-05
5.08924e-05
0.000309814
0.000878117
0.00220976
0.00288405
0.0035537
0.00412391
0.0048695
0.00553147
0.00622116
0.00692375
0.00761962
0.00835085
0.00910084
0.00985828
0.0106249
0.0114022
0.012187
0.0129707
0.0137597
0.0145452
0.0153167
0.0160786
0.0168334
0.0175699
0.0182888
0.018987
0.0196645
0.0203166
0.0209406
0.0215349
0.0220994
0.0226331
0.0231348
0.0236039
0.0240394
0.0244399
0.0248056
0.0251389
0.0254356
0.0256955
0.0259188
0.0261037
0.0262407
0.0263397
0.0264071
0.0264311
0.0264262
0.0263955
0.0263461
0.0262586
0.0261573
0.0260312
0.0258903
0.0257248
0.0255355
0.0253191
0.0250755
0.0248149
0.0245422
0.0242628
0.0239779
0.0236908
0.023406
0.0231268
0.0228578
0.0226
0.0223539
0.0221277
0.0219956
0.0218399
0.0215284
0.0211616
1.81643e-05
8.58122e-06
5.63072e-06
3.60265e-06
2.49878e-06
1.7957e-06
3.30354e-06
8.52087e-06
7.38559e-05
0.000174206
0.000688323
0.00174805
0.00288343
0.00350619
0.00416647
0.00478441
0.00554244
0.00623588
0.00691385
0.00761975
0.00833498
0.00905108
0.00977723
0.0105181
0.0112693
0.0120264
0.0127881
0.0135505
0.0143065
0.0150534
0.015802
0.0165296
0.0172436
0.0179376
0.0186143
0.0192648
0.0198861
0.0204773
0.0210391
0.0215697
0.0220681
0.0225333
0.0229644
0.0233586
0.0237131
0.0240284
0.0243018
0.0245355
0.0247301
0.0248858
0.0250164
0.025114
0.0251867
0.0252075
0.0252116
0.0251913
0.025147
0.0250712
0.0249719
0.0248363
0.0246644
0.0244677
0.02425
0.0240178
0.023774
0.0235195
0.0232571
0.022991
0.0227241
0.0224597
0.0222025
0.0219556
0.0217248
0.0215112
0.0213256
0.0211344
0.0210722
0.0209807
0.020787
0.0205084
1.80825e-05
8.38405e-06
7.41922e-06
5.51627e-06
3.981e-06
2.58524e-06
3.28076e-06
2.29712e-06
2.75451e-05
2.21331e-05
0.000158367
0.000325404
0.000928791
0.00210559
0.00332644
0.00398202
0.0046713
0.0052692
0.00596867
0.00672651
0.00742447
0.00810475
0.00879428
0.00949954
0.0102111
0.0109293
0.0116511
0.0123752
0.0130981
0.013816
0.0145312
0.0152363
0.0159302
0.0166034
0.0172665
0.0178999
0.0185036
0.0190776
0.0196192
0.020128
0.0206033
0.0210441
0.0214498
0.0218205
0.0221652
0.0224769
0.0227456
0.0229779
0.0231736
0.0233297
0.0234474
0.0235486
0.0236304
0.0236628
0.0236693
0.02363
0.0235496
0.0234366
0.0232972
0.023136
0.0229558
0.0227568
0.0225413
0.0223128
0.0220751
0.0218308
0.0215828
0.0213347
0.0210902
0.0208524
0.0206264
0.0204149
0.0202248
0.0200567
0.0199243
0.0198025
0.0197786
0.0197608
0.019699
0.0195282
1.79773e-05
7.83169e-06
6.55535e-06
7.75443e-06
8.16842e-06
8.28244e-06
5.29213e-06
2.41427e-06
6.88474e-06
4.69231e-06
1.82678e-05
5.75699e-05
0.000166303
0.000448172
0.001072
0.00204319
0.00332881
0.0043171
0.00499131
0.00561796
0.0061929
0.00685907
0.00756058
0.00826558
0.00895198
0.00963843
0.0103211
0.0110041
0.0116866
0.0123651
0.0130407
0.0137105
0.0143718
0.0150098
0.0156283
0.016222
0.0167896
0.0173307
0.0178447
0.0183304
0.0187873
0.0192138
0.0196093
0.0199693
0.0203
0.0205967
0.0208625
0.0211001
0.0212915
0.0214619
0.0215863
0.0216503
0.0216816
0.0216739
0.0216336
0.0215663
0.0214726
0.0213525
0.0212086
0.021044
0.0208621
0.0206652
0.0204558
0.0202369
0.020012
0.0197841
0.0195568
0.019333
0.0191171
0.0189113
0.0187222
0.0185503
0.0184053
0.0182858
0.0182047
0.0181658
0.0181731
0.0182295
0.0182948
0.0182651
1.8184e-05
6.35196e-06
3.89025e-06
4.29397e-06
5.43983e-06
5.69909e-06
4.89113e-06
3.43e-06
3.00287e-06
3.03956e-06
4.48096e-06
1.21164e-05
2.89614e-05
8.19608e-05
0.000189453
0.000442111
0.000844217
0.00170787
0.00262758
0.00388154
0.00481541
0.00559659
0.0062625
0.0068659
0.007448
0.00808047
0.00871227
0.00935565
0.0100007
0.0106435
0.0112841
0.01192
0.0125441
0.0131444
0.0137214
0.0142732
0.0148027
0.0153107
0.0157979
0.0162619
0.0167023
0.0171168
0.0175046
0.0178584
0.0181654
0.0184323
0.0186583
0.0188588
0.0190089
0.0191221
0.0192016
0.0192464
0.0192594
0.01924
0.0191902
0.0191131
0.0190114
0.0188868
0.0187418
0.0185794
0.0184026
0.0182145
0.0180179
0.0178159
0.0176117
0.0174086
0.01721
0.0170186
0.0168392
0.0166727
0.0165276
0.0164009
0.0163072
0.0162398
0.0162159
0.0162587
0.0162987
0.0164289
0.0165898
0.0167689
1.86576e-05
7.0835e-06
1.48948e-06
9.63154e-07
9.99056e-07
1.55062e-06
2.75147e-06
3.0576e-06
3.04251e-06
2.60009e-06
3.18204e-06
3.91106e-06
6.7691e-06
1.49405e-05
3.22532e-05
7.22077e-05
0.000151666
0.000296171
0.00061035
0.00100154
0.00168385
0.00257244
0.00350323
0.00450955
0.0054003
0.00616837
0.00683531
0.00749116
0.0080829
0.00865876
0.00924333
0.00982426
0.0103804
0.0109275
0.0114603
0.011968
0.0124593
0.0129319
0.0133855
0.0138142
0.0142198
0.0145965
0.0149449
0.0152434
0.0155135
0.0157619
0.0159649
0.0161309
0.0162605
0.0163548
0.0164158
0.0164446
0.0164433
0.0164135
0.0163567
0.0162753
0.0161718
0.016049
0.0159096
0.0157567
0.0155934
0.015423
0.0152483
0.0150728
0.0148992
0.0147308
0.0145709
0.0144218
0.0142882
0.0141697
0.0140775
0.0140026
0.0139684
0.0139566
0.0140052
0.0141068
0.0141991
0.0143985
0.0146266
0.015062
1.84693e-05
9.54809e-06
2.29751e-06
9.30464e-07
8.02994e-07
1.11989e-06
6.88875e-07
1.19945e-06
1.57027e-06
1.41416e-06
1.6879e-06
1.77326e-06
2.07254e-06
5.12946e-06
6.11698e-06
1.54882e-05
2.61827e-05
5.25977e-05
9.40747e-05
0.00015936
0.000293713
0.000490552
0.000832485
0.00126271
0.00181917
0.00254277
0.0033332
0.0041657
0.00496785
0.00572289
0.00642891
0.0070688
0.00762089
0.00816999
0.00866663
0.00912933
0.0096017
0.0100549
0.0104882
0.0108909
0.011275
0.0116253
0.0119389
0.0121958
0.0124417
0.0126572
0.0128316
0.0129744
0.0130842
0.013162
0.0132092
0.0132281
0.0132204
0.0131875
0.0131313
0.0130538
0.012958
0.0128466
0.012723
0.0125903
0.012452
0.0123111
0.0121705
0.0120337
0.0119026
0.0117815
0.0116718
0.0115762
0.0114987
0.0114386
0.0114083
0.011392
0.0114275
0.0114772
0.0116058
0.0117227
0.0119301
0.0121799
0.0124173
0.0131829
1.80942e-05
9.62795e-06
3.05782e-06
9.85846e-07
4.48283e-07
4.25028e-07
3.32582e-07
8.3837e-07
5.32049e-07
1.02217e-06
1.12303e-06
1.34453e-06
1.67323e-06
2.08993e-06
2.34708e-06
4.14868e-06
5.72309e-06
9.8112e-06
1.48201e-05
2.44545e-05
4.00772e-05
6.96892e-05
0.000109744
0.000187906
0.000285642
0.00044575
0.000662961
0.000972125
0.00136528
0.00186112
0.00239569
0.00301803
0.00367383
0.00434285
0.00499768
0.00560027
0.00613872
0.00661694
0.00705001
0.00744326
0.00783405
0.0081413
0.00839921
0.00862899
0.00882207
0.00902081
0.00920005
0.00933452
0.00943396
0.00950614
0.00955419
0.00957795
0.00957989
0.00955851
0.00951708
0.00945749
0.00938326
0.00929832
0.00920573
0.00910923
0.00901167
0.00891645
0.00882535
0.00874303
0.00866851
0.00860915
0.00856155
0.00853092
0.00851939
0.0085287
0.00856518
0.00861518
0.00873295
0.00883149
0.00901142
0.00923029
0.00946437
0.00981835
0.0100023
0.0111245
1.84726e-05
7.69232e-06
2.67718e-06
4.6796e-07
1.63287e-07
4.84093e-08
1.57328e-08
2.70395e-08
6.42544e-08
1.73984e-07
6.31842e-07
7.97853e-07
1.05881e-06
1.39757e-06
1.64551e-06
2.03295e-06
2.32414e-06
2.94128e-06
3.78417e-06
5.16436e-06
7.06684e-06
1.02525e-05
1.46169e-05
2.27769e-05
3.39673e-05
5.09259e-05
7.6199e-05
0.000111475
0.000163563
0.000234736
0.000335829
0.000464639
0.000640925
0.000857636
0.00113108
0.00144853
0.00181459
0.00220725
0.00260155
0.00298671
0.00333981
0.00369407
0.00401842
0.00433877
0.00458516
0.00483698
0.00503856
0.00522212
0.00530043
0.00539635
0.00549982
0.00555661
0.00559714
0.00560477
0.0055955
0.00556981
0.005536
0.0055022
0.00546259
0.00542699
0.00539111
0.00536263
0.00533872
0.00532691
0.00532004
0.00533415
0.00534975
0.00538713
0.00544736
0.00552956
0.00561499
0.00575588
0.00590286
0.00612107
0.0062932
0.00658464
0.00681406
0.00729389
0.0074529
0.00882142
1.98667e-05
6.24131e-06
1.17394e-06
2.22612e-07
4.70598e-08
1.89457e-09
6.14935e-11
6.09578e-11
3.21932e-10
5.80868e-10
7.71122e-09
1.06986e-07
3.07816e-07
4.78201e-07
6.27767e-07
8.16149e-07
1.01744e-06
1.22978e-06
1.47596e-06
1.79102e-06
2.07527e-06
2.57718e-06
2.97992e-06
3.91035e-06
4.87953e-06
6.67088e-06
8.60362e-06
1.2142e-05
1.55895e-05
2.21274e-05
2.77657e-05
3.92635e-05
4.7604e-05
6.60608e-05
8.05872e-05
0.000108351
0.000132996
0.000178052
0.000230157
0.000308447
0.000391595
0.00050016
0.000608701
0.000739215
0.000861845
0.0009924
0.00111151
0.00122794
0.00132572
0.00140595
0.00147368
0.00154046
0.00158232
0.00160696
0.00160891
0.00164321
0.00162615
0.00169126
0.00166017
0.0017146
0.00168314
0.00173311
0.00171501
0.001761
0.00176386
0.00180791
0.0018224
0.001904
0.00195041
0.00208194
0.00215984
0.00235506
0.00248011
0.00278454
0.00299799
0.00350923
0.00385141
0.00458572
0.00480598
0.00621421
2.15557e-05
2.147e-05
1.62413e-05
6.90369e-06
2.19901e-06
8.1065e-07
5.23513e-08
2.40023e-09
2.14355e-10
2.04796e-10
6.29995e-10
6.01518e-09
3.82423e-08
9.5702e-08
1.53016e-07
2.50252e-07
2.99271e-07
4.00578e-07
4.84969e-07
5.74576e-07
7.19335e-07
8.26788e-07
9.51813e-07
9.70947e-07
1.06955e-06
1.25411e-06
1.44705e-06
1.80636e-06
2.09647e-06
2.63789e-06
2.98266e-06
3.67997e-06
4.07784e-06
4.74714e-06
5.17307e-06
5.76779e-06
5.78708e-06
6.28468e-06
6.20909e-06
7.21061e-06
7.61929e-06
9.70233e-06
1.17273e-05
1.59598e-05
2.09239e-05
2.82338e-05
3.67542e-05
4.71686e-05
5.8709e-05
7.09618e-05
8.31125e-05
9.55791e-05
0.000107096
0.000118628
0.000126432
0.000135699
0.000139681
0.000150539
0.000150762
0.000164209
0.000159615
0.000175251
0.00016547
0.000186773
0.000173467
0.000202522
0.000190263
0.000223713
0.000221149
0.00027354
0.000278487
0.000364521
0.000386456
0.000524253
0.00058781
0.000828268
0.000994327
0.0014569
0.00179147
0.00298876
1.97751e-05
2.94073e-05
1.32757e-05
1.13963e-06
7.18292e-08
3.79287e-09
6.13102e-09
5.81559e-10
3.12288e-13
9.14839e-13
1.07557e-10
4.95953e-10
3.11029e-09
1.00967e-08
2.20168e-08
3.97413e-08
5.69331e-08
7.18638e-08
9.60512e-08
1.16526e-07
1.44541e-07
1.72653e-07
1.82315e-07
2.27278e-07
2.56082e-07
2.51597e-07
2.47674e-07
2.97067e-07
3.34628e-07
4.12695e-07
4.51929e-07
5.30599e-07
5.71372e-07
6.39016e-07
6.39833e-07
6.98066e-07
6.61337e-07
6.70027e-07
6.24476e-07
5.94025e-07
5.44231e-07
4.8067e-07
4.60573e-07
4.41308e-07
4.44607e-07
4.15321e-07
4.61654e-07
4.05047e-07
5.90666e-07
4.72424e-07
9.12543e-07
7.74738e-07
1.56319e-06
1.44796e-06
2.51973e-06
2.67859e-06
4.20943e-06
4.83797e-06
6.98028e-06
8.79068e-06
1.12304e-05
1.53941e-05
1.74067e-05
2.47126e-05
2.63452e-05
3.77857e-05
3.93542e-05
5.53956e-05
5.69238e-05
7.92646e-05
8.02246e-05
0.000113633
0.000112403
0.000163012
0.000165067
0.000235422
0.000253019
0.000358211
0.00044297
0.000799885
1.50752e-05
3.26249e-06
1.7842e-06
3.23846e-06
2.5958e-06
9.69876e-07
9.33335e-08
3.74542e-08
1.77312e-10
8.67917e-15
4.86973e-14
3.50335e-11
1.99412e-10
6.99702e-10
1.73045e-09
3.42049e-09
5.61807e-09
8.17013e-09
1.12408e-08
1.47467e-08
1.85883e-08
2.26878e-08
2.65337e-08
3.10316e-08
3.64595e-08
4.10316e-08
4.49038e-08
4.9078e-08
5.32171e-08
5.75522e-08
6.14081e-08
6.20183e-08
6.1993e-08
6.24134e-08
6.17726e-08
6.12609e-08
6.5894e-08
7.75337e-08
8.7276e-08
1.35101e-07
1.79708e-07
2.04607e-07
2.94389e-07
3.13493e-07
5.84397e-07
9.70061e-07
1.40119e-06
1.997e-06
2.74329e-06
3.70325e-06
5.04986e-06
6.59063e-06
9.01667e-06
1.12423e-05
1.5315e-05
1.84902e-05
2.63825e-05
3.18212e-05
4.51388e-05
5.2362e-05
7.01277e-05
8.02261e-05
0.000103397
0.000117545
0.000147304
0.000166433
0.000205872
0.000230477
0.000283731
0.000316302
0.000385752
0.00043265
0.000516897
0.000577471
0.000673307
0.000740297
0.000840503
0.000894697
0.000970762
0.00102273
1.70159e-05
1.2025e-06
8.65854e-08
3.75247e-09
5.28956e-10
1.75794e-10
1.03611e-09
5.93223e-09
3.26854e-08
1.06391e-07
3.43866e-07
2.83862e-07
2.51334e-07
2.16604e-07
2.32652e-07
2.69584e-07
3.18315e-07
3.66582e-07
4.18837e-07
4.73741e-07
5.3172e-07
5.93191e-07
6.58664e-07
7.28941e-07
8.04612e-07
8.86955e-07
9.7644e-07
1.07406e-06
1.18104e-06
1.29918e-06
1.43051e-06
1.57742e-06
1.74282e-06
1.93033e-06
2.1445e-06
2.47841e-06
2.99001e-06
3.71007e-06
4.41792e-06
5.95425e-06
7.25947e-06
8.65127e-06
1.03623e-05
1.23541e-05
1.59795e-05
2.11953e-05
2.53406e-05
3.22635e-05
3.78008e-05
4.7207e-05
5.42042e-05
6.81761e-05
7.66392e-05
9.53974e-05
0.000107816
0.000145173
0.000188596
0.000235809
0.000266448
0.000310136
0.000352233
0.000405481
0.000459203
0.000522743
0.000589767
0.000664414
0.000745653
0.000829618
0.000922671
0.00100825
0.00110499
0.00117947
0.00126117
0.00131202
0.00136887
0.00139704
0.00142106
0.00140865
0.00140854
0.00135332
2.13505e-05
2.60849e-05
3.85811e-05
3.50924e-05
4.62789e-05
6.3139e-05
0.000153852
7.26414e-05
5.62718e-05
5.27604e-05
5.36194e-05
5.54842e-05
5.78297e-05
6.06077e-05
6.26437e-05
6.55711e-05
6.88567e-05
7.20789e-05
7.52948e-05
7.85291e-05
8.18172e-05
8.51921e-05
8.8643e-05
9.22693e-05
9.59392e-05
9.99595e-05
0.000103795
0.000107783
0.000112012
0.000116511
0.000121307
0.000126437
0.000131944
0.0001379
0.000144557
0.000150775
0.000159527
0.000161557
0.000187071
0.000176997
0.000195215
0.000201386
0.000220208
0.000236246
0.000257016
0.000275854
0.000299974
0.000322546
0.000351062
0.000378904
0.000413372
0.00044878
0.000491396
0.000537797
0.000591652
0.000645251
0.000685477
0.000742193
0.000802278
0.000881106
0.000955622
0.00104822
0.00113318
0.0012327
0.00131795
0.00141165
0.00148177
0.00155443
0.00159445
0.00163537
0.00164677
0.00163418
0.00162523
0.00158098
0.00155125
0.00147295
0.00143687
0.00133637
0.00129686
0.00117472
0.000565379
0.000560198
0.000558626
0.000559329
0.000562871
0.000567739
0.000574343
0.000581954
0.000590061
0.000598439
0.000607026
0.000615791
0.000624595
0.000633525
0.000642417
0.000651299
0.000660026
0.000668649
0.000677013
0.000685223
0.000693104
0.000700814
0.00070814
0.000715293
0.000722007
0.000728554
0.000734599
0.00074049
0.000745813
0.000750996
0.000755532
0.000759954
0.000763646
0.000767263
0.000770176
0.000772276
0.000773536
0.000773734
0.000773229
0.00077158
0.000768984
0.000765405
0.000760694
0.000755004
0.000748015
0.000740118
0.00073086
0.000720731
0.000709201
0.000696887
0.000683179
0.000668861
0.00065324
0.000637309
0.000620316
0.000603498
0.000586051
0.000569222
0.00055234
0.000536763
0.000522178
0.000509456
0.000498552
0.000490786
0.000484216
0.000480547
0.000477551
0.000475647
0.000473413
0.00046999
0.000465764
0.000458941
0.000450206
0.000440093
0.000426721
0.000414599
0.000396997
0.000386652
0.000355163
0.000363899
)
;

boundaryField
{
    inlet
    {
        type            fixedValue;
        value           uniform 0;
    }
    outlet
    {
        type            zeroGradient;
    }
    fixedWalls
    {
        type            nutkWallFunction;
        Cmu             0.09;
        kappa           0.41;
        E               9.8;
        value           nonuniform List<scalar> 
160
(
6.54637e-05
6.49241e-05
6.47293e-05
6.48334e-05
6.51863e-05
6.57352e-05
6.64362e-05
6.72338e-05
6.80896e-05
6.89851e-05
6.99075e-05
7.08497e-05
7.17996e-05
7.27576e-05
7.37065e-05
7.46498e-05
7.55732e-05
7.64834e-05
7.7365e-05
7.82299e-05
7.90599e-05
7.98718e-05
8.06431e-05
8.1396e-05
8.21026e-05
8.27911e-05
8.34267e-05
8.40456e-05
8.46045e-05
8.51484e-05
8.56244e-05
8.60879e-05
8.64752e-05
8.68541e-05
8.71591e-05
8.73808e-05
8.75067e-05
8.75426e-05
8.7475e-05
8.73136e-05
8.70389e-05
8.66699e-05
8.61743e-05
8.55805e-05
8.48506e-05
8.40246e-05
8.30552e-05
8.19928e-05
8.07815e-05
7.94858e-05
7.80403e-05
7.65278e-05
7.4873e-05
7.31823e-05
7.1373e-05
6.95789e-05
6.77111e-05
6.59049e-05
6.40864e-05
6.24043e-05
6.08222e-05
5.94414e-05
5.82517e-05
5.74018e-05
5.66795e-05
5.62728e-05
5.59409e-05
5.57276e-05
5.54828e-05
5.51012e-05
5.46446e-05
5.38878e-05
5.29401e-05
5.18062e-05
5.03466e-05
4.8978e-05
4.70609e-05
4.56709e-05
4.33026e-05
4.26202e-05
6.16073e-05
2.18492e-05
1.97854e-05
1.96756e-05
1.97824e-05
2.183e-05
2.35049e-05
2.57032e-05
2.79989e-05
3.04064e-05
3.27092e-05
3.51053e-05
3.75439e-05
4.0073e-05
4.26643e-05
4.53213e-05
4.80266e-05
5.07756e-05
5.35581e-05
5.6366e-05
5.91915e-05
6.20259e-05
6.48618e-05
6.76914e-05
7.05068e-05
7.32993e-05
7.6061e-05
7.87837e-05
8.14597e-05
8.40807e-05
8.66391e-05
8.91264e-05
9.15352e-05
9.38563e-05
9.60815e-05
9.82005e-05
0.000100203
0.000102079
0.000103826
0.000105476
0.000107008
0.000108425
0.000109722
0.000110895
0.00011194
0.000112852
0.000113626
0.000114255
0.000114736
0.000115063
0.000115232
0.000115239
0.00011508
0.000114752
0.000114253
0.00011358
0.000112732
0.000111704
0.000110493
0.000109117
0.000107584
0.00010594
0.000104536
0.000103162
0.000101651
9.9995e-05
9.82017e-05
9.62694e-05
9.42035e-05
9.20149e-05
8.97087e-05
8.72958e-05
8.47623e-05
8.21822e-05
7.94311e-05
7.68136e-05
7.37189e-05
7.15236e-05
6.79241e-05
6.79172e-05
)
;
    }
    frontAndBack
    {
        type            empty;
    }
}


// ************************************************************************* //
