/*--------------------------------*- C++ -*----------------------------------*\
| =========                 |                                                 |
| \\      /  F ield         | OpenFOAM: The Open Source CFD Toolbox           |
|  \\    /   O peration     | Version:  v1912                                 |
|   \\  /    A nd           | Website:  www.openfoam.com                      |
|    \\/     M anipulation  |                                                 |
\*---------------------------------------------------------------------------*/
FoamFile
{
    version     2.0;
    format      ascii;
    class       volScalarField;
    location    "500";
    object      p;
}
// * * * * * * * * * * * * * * * * * * * * * * * * * * * * * * * * * * * * * //

dimensions      [0 2 -2 0 0 0 0];


internalField   nonuniform List<scalar> 
2000
(
0.054963
0.125843
0.131915
0.134487
0.135508
0.136379
0.136985
0.137398
0.137692
0.137953
0.138196
0.138419
0.138615
0.138791
0.138956
0.13912
0.139292
0.139482
0.139695
0.13994
0.140224
0.140553
0.140936
0.141381
0.141897
0.142493
0.14318
0.14397
0.144871
0.145897
0.147059
0.148367
0.149832
0.151466
0.153277
0.155276
0.157468
0.159857
0.162447
0.165254
0.168289
0.171553
0.175047
0.178776
0.182741
0.186944
0.191381
0.196048
0.200935
0.20603
0.211315
0.216767
0.22236
0.228062
0.233833
0.23963
0.245403
0.251095
0.256643
0.261974
0.26701
0.271677
0.275908
0.279591
0.282589
0.284782
0.286041
0.286217
0.285134
0.282592
0.278349
0.272119
0.263534
0.252181
0.237351
0.218646
0.193655
0.164536
0.114721
0.0802967
0.0839457
0.123124
0.132171
0.134286
0.135397
0.136306
0.13695
0.137384
0.137681
0.137945
0.138196
0.138432
0.138635
0.138817
0.138982
0.139146
0.139316
0.139502
0.139711
0.139949
0.140224
0.140543
0.140913
0.141343
0.141841
0.142418
0.143083
0.143847
0.144723
0.14572
0.146851
0.148128
0.149561
0.15116
0.152937
0.1549
0.157058
0.159419
0.161997
0.164792
0.167804
0.171038
0.174502
0.178199
0.182131
0.1863
0.190702
0.195331
0.20018
0.205233
0.210475
0.215881
0.221425
0.227074
0.23279
0.238527
0.244238
0.249865
0.255345
0.26061
0.265588
0.270187
0.274281
0.277773
0.280571
0.282552
0.283581
0.283504
0.282144
0.279295
0.274711
0.268099
0.259084
0.24724
0.231842
0.212475
0.186655
0.156557
0.105452
0.0701732
0.0985996
0.12204
0.132612
0.134808
0.135492
0.136327
0.136987
0.137433
0.137721
0.137986
0.138245
0.138496
0.13871
0.138899
0.139069
0.139236
0.139408
0.139595
0.139804
0.140041
0.140314
0.140631
0.140996
0.14142
0.141909
0.142475
0.143126
0.143875
0.144733
0.14571
0.146819
0.148071
0.149478
0.15105
0.152797
0.154728
0.156853
0.159179
0.161716
0.164469
0.167438
0.170627
0.174042
0.177688
0.181567
0.185678
0.19002
0.194585
0.199366
0.204348
0.209514
0.214839
0.220297
0.225854
0.23147
0.237101
0.242697
0.248198
0.25354
0.258652
0.263454
0.267861
0.271775
0.275099
0.277722
0.279512
0.280333
0.280028
0.278416
0.27529
0.270399
0.263443
0.254039
0.241756
0.225838
0.205904
0.179267
0.148658
0.0960897
0.0634468
0.0992899
0.121095
0.133585
0.135576
0.136158
0.136543
0.137122
0.137553
0.137807
0.138059
0.138313
0.138575
0.13879
0.138982
0.139151
0.139316
0.139485
0.13967
0.139875
0.140109
0.140378
0.140689
0.141048
0.141464
0.141944
0.142498
0.143136
0.143871
0.144712
0.145671
0.14676
0.147992
0.149377
0.150926
0.15265
0.154559
0.15666
0.158961
0.161471
0.164194
0.167131
0.170289
0.173672
0.177284
0.181127
0.185201
0.189503
0.194028
0.198765
0.203701
0.208816
0.214089
0.219489
0.224983
0.230531
0.236086
0.241597
0.247004
0.252241
0.257238
0.261914
0.266185
0.269962
0.273142
0.275607
0.277225
0.277856
0.277342
0.2755
0.272119
0.266943
0.259669
0.249906
0.237214
0.220826
0.20038
0.173074
0.142176
0.0887486
0.0598034
0.102091
0.120528
0.13344
0.136423
0.13707
0.137183
0.137392
0.137752
0.137955
0.138187
0.138423
0.138684
0.138888
0.139074
0.139234
0.139393
0.139555
0.139733
0.139933
0.14016
0.140422
0.140726
0.141078
0.141483
0.141953
0.142495
0.143121
0.143842
0.144668
0.145612
0.146685
0.147899
0.149267
0.150799
0.152506
0.154397
0.156482
0.158766
0.161257
0.163959
0.166876
0.170013
0.173376
0.176967
0.180789
0.184841
0.189122
0.193624
0.198338
0.203249
0.208338
0.213581
0.218949
0.224406
0.229913
0.235421
0.240879
0.246226
0.251396
0.256316
0.260906
0.26508
0.268745
0.271797
0.274119
0.27558
0.276037
0.275332
0.27328
0.269666
0.264232
0.256671
0.246588
0.233532
0.216736
0.195854
0.168052
0.137
0.0833806
0.0576705
0.108163
0.121479
0.132386
0.136693
0.137962
0.138144
0.138038
0.138028
0.138168
0.138422
0.138624
0.138867
0.139042
0.139212
0.139354
0.139502
0.139654
0.139824
0.140015
0.140234
0.140488
0.140784
0.141127
0.141523
0.141982
0.142513
0.143127
0.143835
0.144648
0.145577
0.146636
0.147836
0.149189
0.150707
0.1524
0.154278
0.156349
0.158619
0.161095
0.163782
0.166684
0.169806
0.173154
0.17673
0.180538
0.184577
0.188843
0.193332
0.198031
0.202926
0.207998
0.213221
0.218566
0.223998
0.229474
0.234947
0.240363
0.245662
0.250776
0.255631
0.260146
0.264234
0.2678
0.270738
0.272932
0.274252
0.274554
0.273676
0.271435
0.267613
0.26195
0.254136
0.243774
0.23041
0.213271
0.192035
0.163884
0.132764
0.0793991
0.0561229
0.113896
0.123037
0.131966
0.136498
0.138466
0.139178
0.139141
0.138666
0.13856
0.138789
0.138943
0.139147
0.139282
0.139426
0.139542
0.139676
0.139813
0.139972
0.140154
0.140362
0.140608
0.140896
0.141229
0.141615
0.142064
0.142584
0.143186
0.143882
0.144683
0.1456
0.146645
0.147833
0.149173
0.150679
0.152361
0.154228
0.156287
0.158546
0.161011
0.163685
0.166575
0.169686
0.173022
0.176588
0.180385
0.184413
0.188669
0.193146
0.197834
0.202717
0.207774
0.212981
0.218307
0.223716
0.229164
0.234605
0.239982
0.245234
0.250294
0.255087
0.259531
0.263539
0.267012
0.269846
0.271923
0.273116
0.273278
0.272247
0.269837
0.265831
0.259968
0.251935
0.241333
0.227712
0.210295
0.188777
0.160394
0.129254
0.0764051
0.0548252
0.118277
0.124647
0.13241
0.136683
0.138752
0.139956
0.140393
0.13993
0.139505
0.139364
0.139388
0.13951
0.139615
0.139737
0.139822
0.13994
0.14006
0.140206
0.140378
0.140574
0.14081
0.141089
0.141413
0.141789
0.142227
0.142736
0.143326
0.144012
0.144802
0.145707
0.146742
0.147918
0.149249
0.150745
0.152417
0.154274
0.156325
0.158574
0.161028
0.163693
0.166573
0.169673
0.173
0.176557
0.180345
0.184365
0.188613
0.193081
0.197759
0.202631
0.207675
0.212865
0.218172
0.223557
0.228977
0.234384
0.239721
0.244926
0.249932
0.254663
0.259036
0.262962
0.266346
0.269081
0.27105
0.272123
0.272157
0.270987
0.268427
0.264257
0.258218
0.249997
0.239194
0.225362
0.207729
0.185992
0.157469
0.126333
0.0741507
0.0536231
0.121792
0.12644
0.133317
0.13741
0.139351
0.140582
0.141402
0.141496
0.1411
0.14026
0.140035
0.14001
0.140101
0.140184
0.140233
0.140331
0.140422
0.140553
0.140711
0.140893
0.141119
0.14139
0.141704
0.142069
0.142497
0.142996
0.143578
0.144253
0.145034
0.145929
0.146954
0.148122
0.149443
0.150931
0.152595
0.154446
0.156488
0.15873
0.161176
0.163832
0.166703
0.169796
0.173115
0.176664
0.180445
0.184458
0.188699
0.193158
0.197826
0.202685
0.207714
0.212886
0.218171
0.223529
0.228916
0.234283
0.239575
0.24473
0.249676
0.254341
0.25864
0.262484
0.265778
0.268417
0.270279
0.271237
0.271149
0.269852
0.267158
0.262846
0.256657
0.248278
0.23731
0.223308
0.205515
0.183627
0.155042
0.12391
0.0724855
0.0524254
0.124832
0.128419
0.134435
0.138411
0.140347
0.141508
0.142294
0.142679
0.142472
0.141772
0.141432
0.140925
0.140827
0.140822
0.140848
0.140907
0.140949
0.141056
0.141188
0.141353
0.141572
0.141831
0.142133
0.142489
0.142908
0.143399
0.143973
0.14464
0.145412
0.1463
0.147317
0.148478
0.149793
0.151275
0.152933
0.154777
0.156813
0.159047
0.161486
0.164135
0.166999
0.170084
0.173397
0.17694
0.180714
0.184721
0.188953
0.193402
0.198057
0.2029
0.207908
0.213055
0.218312
0.223639
0.228987
0.234309
0.239549
0.244645
0.249525
0.254116
0.258336
0.262094
0.265295
0.267833
0.269591
0.27044
0.270238
0.268824
0.266011
0.261578
0.255264
0.246757
0.235658
0.221526
0.20362
0.181642
0.153067
0.121926
0.0713059
0.0511809
0.127529
0.130432
0.135667
0.139515
0.141546
0.142751
0.143508
0.143848
0.143568
0.143475
0.143451
0.14288
0.142272
0.141737
0.141644
0.141697
0.141719
0.141784
0.141872
0.14201
0.142216
0.142454
0.142737
0.143082
0.143494
0.143979
0.144547
0.145206
0.145972
0.146855
0.147868
0.149022
0.150334
0.151812
0.153465
0.155304
0.157334
0.159561
0.161993
0.164636
0.167493
0.170573
0.17388
0.177416
0.181183
0.18518
0.1894
0.193837
0.198475
0.203298
0.208282
0.2134
0.218619
0.223903
0.229206
0.234477
0.239656
0.244682
0.249486
0.253993
0.258123
0.261787
0.264889
0.267325
0.26898
0.269726
0.269421
0.267902
0.264983
0.260447
0.25403
0.245423
0.234228
0.220005
0.202023
0.179998
0.151501
0.120331
0.0705298
0.0498681
0.129947
0.132393
0.136986
0.140689
0.142821
0.144133
0.144981
0.145385
0.14525
0.145174
0.145128
0.144956
0.144475
0.143824
0.143307
0.142832
0.142625
0.142687
0.142838
0.142969
0.143134
0.143323
0.143577
0.143908
0.144311
0.144785
0.145344
0.145995
0.146755
0.147635
0.148644
0.149795
0.151105
0.152581
0.154232
0.156065
0.158087
0.160307
0.162732
0.165368
0.16822
0.171294
0.174596
0.178129
0.181889
0.185874
0.190079
0.194497
0.199113
0.20391
0.208866
0.213951
0.219126
0.224355
0.229597
0.234797
0.2399
0.244843
0.249559
0.253972
0.258004
0.261567
0.264568
0.266902
0.268455
0.2691
0.268696
0.267083
0.264074
0.259451
0.252954
0.244274
0.233015
0.218738
0.200724
0.17868
0.150309
0.119091
0.0700985
0.0484871
0.132136
0.134286
0.138389
0.141944
0.144149
0.145564
0.146538
0.147103
0.147219
0.14717
0.147022
0.146744
0.146426
0.146225
0.145821
0.145217
0.144704
0.144301
0.144071
0.14403
0.144195
0.144453
0.144751
0.14508
0.145458
0.145904
0.14644
0.147073
0.147824
0.148698
0.149701
0.15085
0.152157
0.153629
0.155275
0.157101
0.159114
0.161327
0.163745
0.166375
0.169222
0.172293
0.175592
0.179121
0.182875
0.186848
0.191037
0.195432
0.200021
0.20478
0.209691
0.214723
0.219839
0.225001
0.230166
0.235281
0.240292
0.245139
0.249755
0.254064
0.257989
0.261445
0.264338
0.266566
0.268017
0.268565
0.268071
0.266373
0.263287
0.258596
0.252042
0.243314
0.232022
0.217725
0.199722
0.177685
0.149467
0.118186
0.0699792
0.04705
0.13413
0.136107
0.13986
0.143285
0.145542
0.147042
0.148126
0.148842
0.149166
0.149264
0.149226
0.149011
0.148688
0.148377
0.148001
0.147742
0.147512
0.147084
0.146629
0.146299
0.146058
0.14601
0.146129
0.146389
0.146787
0.147289
0.147859
0.148507
0.149265
0.150132
0.151125
0.152268
0.153565
0.155021
0.156655
0.15847
0.160475
0.162681
0.165096
0.167724
0.170569
0.173638
0.176934
0.180452
0.184186
0.188137
0.192303
0.196668
0.201215
0.205926
0.210775
0.215736
0.220776
0.225855
0.230929
0.235947
0.240853
0.245588
0.250087
0.254279
0.258085
0.261424
0.264204
0.266324
0.267675
0.268131
0.267554
0.265783
0.262636
0.257896
0.251306
0.242556
0.23126
0.216976
0.199019
0.177019
0.148969
0.117607
0.0701562
0.0455837
0.135956
0.137849
0.141374
0.144707
0.147008
0.148583
0.14976
0.150596
0.151079
0.151332
0.151446
0.151408
0.151228
0.150959
0.150604
0.150265
0.149963
0.149651
0.14947
0.149355
0.149138
0.148945
0.148823
0.148805
0.148912
0.149174
0.149598
0.150188
0.150938
0.151831
0.152863
0.154037
0.155347
0.156803
0.158433
0.160241
0.162239
0.164443
0.166858
0.169483
0.172325
0.175392
0.178677
0.182174
0.185877
0.189791
0.193917
0.198236
0.202727
0.207372
0.212147
0.217025
0.221974
0.226951
0.231913
0.236812
0.241592
0.246197
0.250564
0.254622
0.258299
0.261512
0.264174
0.266186
0.267438
0.267809
0.267159
0.26533
0.262137
0.257368
0.250764
0.242017
0.230745
0.216506
0.198624
0.176694
0.148816
0.117351
0.0706199
0.0441293
0.137631
0.139509
0.142914
0.146198
0.148544
0.150194
0.151459
0.152402
0.153015
0.153393
0.153625
0.153724
0.153699
0.153588
0.1534
0.153158
0.152896
0.152607
0.152358
0.152142
0.151988
0.151944
0.152005
0.152127
0.152268
0.152463
0.152751
0.15315
0.153666
0.15435
0.155218
0.156261
0.15749
0.158914
0.160536
0.162362
0.164394
0.166631
0.169066
0.171697
0.174536
0.177593
0.180852
0.184316
0.187986
0.191854
0.195922
0.200179
0.204601
0.209161
0.21384
0.218614
0.223449
0.228302
0.23313
0.237887
0.24252
0.246974
0.25119
0.255101
0.258637
0.261718
0.264259
0.266163
0.267322
0.267616
0.266905
0.26503
0.261809
0.25703
0.250433
0.241716
0.230491
0.216328
0.198546
0.176712
0.149021
0.117424
0.0713598
0.0427337
0.139169
0.141088
0.144471
0.147749
0.150142
0.151865
0.153222
0.154269
0.155
0.155488
0.155816
0.156016
0.156103
0.156113
0.156063
0.155969
0.155856
0.155716
0.155566
0.155428
0.155324
0.15527
0.155278
0.155344
0.155501
0.155783
0.156192
0.15671
0.157326
0.158063
0.158928
0.159917
0.161057
0.162368
0.163854
0.165526
0.167407
0.169519
0.171863
0.174437
0.177231
0.180235
0.183442
0.186863
0.190496
0.19432
0.198325
0.202506
0.20684
0.211297
0.215859
0.220505
0.225203
0.229908
0.234578
0.239168
0.243631
0.247915
0.251965
0.255717
0.259103
0.262048
0.264467
0.266268
0.267342
0.267571
0.266813
0.26491
0.26168
0.256912
0.250345
0.24168
0.230529
0.216462
0.198809
0.177089
0.149605
0.117852
0.0723769
0.0414396
0.140576
0.14259
0.146044
0.149356
0.151794
0.153591
0.155041
0.156192
0.157035
0.157629
0.158054
0.158348
0.158529
0.158629
0.158671
0.158676
0.158665
0.158642
0.15862
0.158619
0.158647
0.158706
0.158808
0.158962
0.159187
0.159495
0.159891
0.160383
0.160986
0.161721
0.162603
0.163644
0.164849
0.166225
0.167769
0.169502
0.171436
0.173557
0.175856
0.178342
0.181014
0.183874
0.186942
0.190228
0.19373
0.197433
0.201311
0.205348
0.209534
0.21385
0.218268
0.222755
0.227276
0.231796
0.236274
0.24067
0.244939
0.249034
0.252902
0.256483
0.259712
0.262518
0.264819
0.266523
0.267525
0.267704
0.266919
0.265013
0.261801
0.257071
0.250565
0.241986
0.230948
0.217006
0.199518
0.177932
0.150667
0.118742
0.0737579
0.0403383
0.141852
0.144021
0.147637
0.151017
0.153498
0.155367
0.156909
0.158159
0.159104
0.159802
0.160325
0.160715
0.160993
0.161184
0.161314
0.161405
0.161474
0.161535
0.161601
0.161688
0.161806
0.161963
0.162171
0.162438
0.162774
0.163185
0.163683
0.164276
0.164974
0.165789
0.166733
0.167815
0.16904
0.170417
0.171956
0.173672
0.175572
0.177655
0.179927
0.182395
0.185058
0.187916
0.190971
0.194216
0.197643
0.201242
0.204989
0.20887
0.212878
0.217007
0.221226
0.225496
0.229788
0.234073
0.238319
0.242486
0.246533
0.250413
0.254074
0.257464
0.260522
0.26318
0.265359
0.266968
0.267902
0.268038
0.267237
0.265342
0.262167
0.257496
0.251077
0.242611
0.231723
0.217955
0.200686
0.1793
0.152302
0.120259
0.0757177
0.0397163
0.142989
0.145389
0.149258
0.152727
0.155248
0.157195
0.158839
0.160187
0.161228
0.162019
0.162632
0.16311
0.163474
0.163749
0.163961
0.16413
0.164274
0.164407
0.164542
0.164694
0.164875
0.165094
0.165362
0.165689
0.166082
0.166552
0.16711
0.167765
0.168523
0.169396
0.170394
0.171527
0.172802
0.174228
0.175812
0.177559
0.179469
0.18155
0.183814
0.186263
0.188893
0.191704
0.194693
0.197859
0.201196
0.204696
0.208343
0.21212
0.216018
0.220017
0.22409
0.228202
0.232324
0.236428
0.240482
0.244452
0.248296
0.251971
0.255435
0.25864
0.261531
0.264044
0.266102
0.267615
0.268477
0.268567
0.267744
0.265848
0.262693
0.258063
0.25171
0.243336
0.232576
0.218977
0.201925
0.180777
0.154071
0.122047
0.0778939
0.0397242
0.143975
0.14671
0.150929
0.154491
0.157025
0.159033
0.160773
0.162221
0.163362
0.164256
0.164972
0.16555
0.166014
0.166387
0.166695
0.166957
0.167193
0.167415
0.167638
0.167873
0.168134
0.168432
0.168774
0.169173
0.169635
0.170174
0.170797
0.171513
0.172332
0.173264
0.174319
0.175507
0.176834
0.178308
0.179931
0.181711
0.18365
0.185754
0.18803
0.190479
0.1931
0.195891
0.19885
0.201973
0.205253
0.208678
0.212231
0.215897
0.219659
0.223499
0.227393
0.231312
0.23523
0.239119
0.24295
0.246692
0.25031
0.253766
0.257022
0.260034
0.262754
0.265118
0.267054
0.268472
0.269265
0.269309
0.26846
0.266555
0.263405
0.258797
0.252481
0.244165
0.233486
0.220001
0.203088
0.182108
0.155577
0.12357
0.0794085
0.0397764
0.144788
0.147998
0.152646
0.156347
0.158936
0.161017
0.162827
0.164332
0.165528
0.166481
0.167258
0.167898
0.168423
0.168859
0.169228
0.169552
0.169848
0.170129
0.170409
0.170701
0.171016
0.171365
0.171757
0.172202
0.17271
0.17329
0.173951
0.174703
0.175556
0.176519
0.177602
0.178815
0.180164
0.181655
0.183291
0.185083
0.187034
0.189146
0.191419
0.193858
0.196463
0.199233
0.202164
0.20525
0.208484
0.211852
0.21534
0.218931
0.222607
0.226349
0.230132
0.23393
0.237716
0.241462
0.245142
0.248723
0.252178
0.255472
0.258571
0.261435
0.264021
0.266272
0.268116
0.269467
0.270215
0.270237
0.269383
0.267488
0.26436
0.259787
0.253514
0.245259
0.234653
0.221262
0.204459
0.183603
0.157178
0.125167
0.0806844
0.0399452
0.145402
0.149367
0.154291
0.157989
0.160664
0.162918
0.164897
0.166543
0.167867
0.168945
0.169842
0.170596
0.171231
0.171773
0.172245
0.172669
0.173061
0.173436
0.173807
0.174187
0.174587
0.175017
0.175489
0.17601
0.176591
0.177241
0.177969
0.178786
0.179699
0.180719
0.181857
0.183121
0.184519
0.186049
0.187718
0.18954
0.191521
0.193656
0.195942
0.19838
0.200971
0.203712
0.206598
0.209623
0.212779
0.216054
0.219435
0.222906
0.226447
0.23004
0.233662
0.237287
0.24089
0.244446
0.247928
0.251306
0.254554
0.257645
0.26055
0.263236
0.265665
0.267783
0.269523
0.270795
0.27149
0.271477
0.270603
0.268698
0.265571
0.261009
0.254761
0.246551
0.23602
0.222736
0.206075
0.185394
0.159163
0.127296
0.0826029
0.040887
0.145566
0.151322
0.156664
0.160076
0.162548
0.164752
0.16672
0.168361
0.169694
0.170794
0.17172
0.172509
0.173184
0.173768
0.174284
0.174751
0.175186
0.175604
0.176017
0.176437
0.176877
0.177345
0.177853
0.178409
0.179023
0.179705
0.180463
0.181307
0.182246
0.183291
0.184453
0.185742
0.18717
0.188725
0.1904
0.192215
0.19418
0.1963
0.19858
0.201023
0.203626
0.206385
0.209296
0.21235
0.215537
0.218841
0.222247
0.225734
0.22928
0.232859
0.236446
0.240012
0.243532
0.246978
0.250325
0.253547
0.256618
0.259516
0.262224
0.264724
0.266987
0.26897
0.270609
0.271819
0.272489
0.272483
0.271642
0.269788
0.266727
0.262241
0.256089
0.247991
0.2376
0.224489
0.208042
0.187611
0.161674
0.130107
0.0855207
0.0427656
0.143748
0.151792
0.158476
0.162326
0.165038
0.167462
0.169608
0.171388
0.172844
0.17406
0.175095
0.175988
0.176764
0.177448
0.178061
0.178623
0.179149
0.179655
0.180152
0.180653
0.181169
0.181711
0.182286
0.182906
0.18358
0.184315
0.185121
0.186009
0.186985
0.188062
0.189249
0.19056
0.192011
0.193647
0.195468
0.197406
0.199437
0.201579
0.203853
0.206262
0.208803
0.211471
0.214264
0.217174
0.220192
0.223302
0.226488
0.229732
0.233013
0.23631
0.239598
0.242856
0.246062
0.249198
0.25225
0.255204
0.258029
0.260694
0.263192
0.26552
0.267654
0.269556
0.271164
0.272397
0.273145
0.27327
0.27261
0.270981
0.268183
0.26399
0.258159
0.250392
0.240358
0.227643
0.211646
0.19173
0.166386
0.135546
0.0917479
0.0490624
)
;

boundaryField
{
    inlet
    {
        type            zeroGradient;
    }
    outlet
    {
        type            fixedValue;
        value           uniform 0;
    }
    fixedWalls
    {
        type            zeroGradient;
    }
    frontAndBack
    {
        type            empty;
    }
}


// ************************************************************************* //
