/*--------------------------------*- C++ -*----------------------------------*\
| =========                 |                                                 |
| \\      /  F ield         | OpenFOAM: The Open Source CFD Toolbox           |
|  \\    /   O peration     | Version:  v1912                                 |
|   \\  /    A nd           | Website:  www.openfoam.com                      |
|    \\/     M anipulation  |                                                 |
\*---------------------------------------------------------------------------*/
FoamFile
{
    version     2.0;
    format      ascii;
    class       surfaceScalarField;
    location    "500";
    object      phi;
}
// * * * * * * * * * * * * * * * * * * * * * * * * * * * * * * * * * * * * * //

dimensions      [0 3 -1 0 0 0 0];
oriented        oriented;


internalField   nonuniform List<scalar> 
3895
(
-6.77911e-06
0.000396528
-6.65721e-05
5.98034e-05
-5.16224e-05
-1.49269e-05
-5.20061e-05
3.68051e-07
-5.2922e-05
9.10275e-07
-5.44833e-05
1.55892e-06
-5.65062e-05
2.02163e-06
-5.98368e-05
3.33361e-06
-6.40047e-05
4.16833e-06
-6.85855e-05
4.57967e-06
-7.34098e-05
4.82648e-06
-7.84879e-05
5.08375e-06
-8.39162e-05
5.43251e-06
-8.9672e-05
5.75759e-06
-9.57417e-05
6.07031e-06
-0.000102078
6.33685e-06
-0.000108643
6.56635e-06
-0.000115396
6.75461e-06
-0.0001223
6.90646e-06
-0.000129317
7.01965e-06
-0.000136407
7.09309e-06
-0.000143533
7.12772e-06
-0.000150655
7.1235e-06
-0.000157731
7.07766e-06
-0.000164717
6.98689e-06
-0.000171565
6.84927e-06
-0.000178228
6.66212e-06
-0.000184653
6.42474e-06
-0.00019079
6.13554e-06
-0.000196587
5.79464e-06
-0.000201989
5.39981e-06
-0.000206943
4.95194e-06
-0.000211394
4.44951e-06
-0.000215286
3.89339e-06
-0.000218566
3.28134e-06
-0.000221173
2.61001e-06
-0.000223038
1.86837e-06
-0.000224075
1.04227e-06
-0.000224219
1.49336e-07
-0.000223515
-6.99236e-07
-0.000222031
-1.47808e-06
-0.000219761
-2.2657e-06
-0.000216676
-3.07954e-06
-0.00021275
-3.92266e-06
-0.000207954
-4.79232e-06
-0.000202267
-5.68608e-06
-0.000195667
-6.59871e-06
-0.000188142
-7.52579e-06
-0.000179684
-8.46064e-06
-0.000170289
-9.39724e-06
-0.000159963
-1.03284e-05
-0.000148718
-1.12473e-05
-0.000136572
-1.21468e-05
-0.000123554
-1.30192e-05
-0.000109698
-1.38565e-05
-9.5047e-05
-1.46517e-05
-7.96496e-05
-1.53972e-05
-6.35641e-05
-1.60849e-05
-4.68538e-05
-1.67093e-05
-2.95876e-05
-1.7265e-05
-1.18611e-05
-1.7725e-05
6.21949e-06
-1.80791e-05
2.46186e-05
-1.83976e-05
4.32442e-05
-1.86244e-05
6.19673e-05
-1.87219e-05
8.07071e-05
-1.87388e-05
9.9382e-05
-1.8674e-05
0.000117906
-1.85236e-05
0.000136193
-1.82866e-05
0.000154162
-1.79682e-05
0.000171734
-1.75712e-05
0.000188836
-1.71024e-05
0.000205393
-1.6557e-05
0.000221404
-1.60106e-05
0.000236702
-1.52973e-05
0.000251736
-1.50342e-05
0.000265545
-1.3808e-05
0.000282258
-1.67108e-05
0.000293898
-1.16352e-05
-4.69595e-05
0.0002292
0.000557076
1.74964e-05
0.000271509
-5.3395e-05
5.59751e-05
-4.8314e-05
-4.73177e-06
-5.01595e-05
2.74787e-06
-5.27902e-05
4.18986e-06
-5.59846e-05
5.2179e-06
-5.98352e-05
7.18785e-06
-6.42208e-05
8.55495e-06
-6.88639e-05
9.22252e-06
-7.37464e-05
9.71031e-06
-7.8873e-05
1.02139e-05
-8.42982e-05
1.08607e-05
-8.99674e-05
1.14291e-05
-9.58481e-05
1.19527e-05
-0.000101885
1.23758e-05
-0.00010804
1.27223e-05
-0.000114269
1.29866e-05
-0.000120539
1.31776e-05
-0.00012681
1.32932e-05
-0.000133046
1.33305e-05
-0.000139209
1.32927e-05
-0.000145263
1.3179e-05
-0.000151169
1.29846e-05
-0.000156885
1.2704e-05
-0.00016237
1.23347e-05
-0.000167581
1.18737e-05
-0.000172475
1.13194e-05
-0.000177012
1.06717e-05
-0.000181149
9.93001e-06
-0.000184845
9.09392e-06
-0.000188059
8.16469e-06
-0.000190754
7.14423e-06
-0.000192897
6.03636e-06
-0.000194459
4.84438e-06
-0.00019542
3.57383e-06
-0.000195781
2.2316e-06
-0.000195572
8.3635e-07
-0.000194841
-5.78532e-07
-0.000193532
-2.00441e-06
-0.000191536
-3.47004e-06
-0.000188805
-4.994e-06
-0.000185305
-6.57657e-06
-0.000181009
-8.21621e-06
-0.000175891
-9.90793e-06
-0.000169931
-1.16457e-05
-0.000163108
-1.34208e-05
-0.000155412
-1.5223e-05
-0.000146834
-1.70404e-05
-0.000137372
-1.88601e-05
-0.000127034
-2.06684e-05
-0.000115831
-2.24515e-05
-0.000103783
-2.41954e-05
-9.09177e-05
-2.58848e-05
-7.72704e-05
-2.75039e-05
-6.28835e-05
-2.90385e-05
-4.78065e-05
-3.04738e-05
-3.20962e-05
-3.17946e-05
-1.58145e-05
-3.29902e-05
9.68349e-07
-3.4047e-05
1.81937e-05
-3.49492e-05
3.58032e-05
-3.56876e-05
5.36587e-05
-3.6252e-05
7.16586e-05
-3.66232e-05
8.97427e-05
-3.68049e-05
0.000107822
-3.68168e-05
0.000125809
-3.66607e-05
0.00014362
-3.63334e-05
0.00016117
-3.58364e-05
0.000178381
-3.51786e-05
0.000195178
-3.43671e-05
0.00021149
-3.34142e-05
0.000227263
-3.23304e-05
0.000242447
-3.11944e-05
0.000257039
-2.98893e-05
0.000271073
-2.90687e-05
0.000284788
-2.75222e-05
0.000298744
-3.06657e-05
0.000314804
-2.76929e-05
-7.14758e-05
0.000351776
0.000595048
0.000188559
0.000434731
2.80425e-05
0.000216501
-3.35843e-05
5.68869e-05
-3.92048e-05
8.3648e-06
-4.39899e-05
8.97598e-06
-4.81945e-05
9.4209e-06
-5.22522e-05
1.12468e-05
-5.65504e-05
1.28536e-05
-6.09223e-05
1.35945e-05
-6.54455e-05
1.42347e-05
-7.01042e-05
1.48751e-05
-7.49798e-05
1.5738e-05
-8.00297e-05
1.64795e-05
-8.52319e-05
1.7155e-05
-9.05339e-05
1.76778e-05
-9.59016e-05
1.80903e-05
-0.000101298
1.83842e-05
-0.000106695
1.85753e-05
-0.000112063
1.86622e-05
-0.000117371
1.86397e-05
-0.000122591
1.85135e-05
-0.000127696
1.82846e-05
-0.000132656
1.79449e-05
-0.000137439
1.74864e-05
-0.00014201
1.69051e-05
-0.000146334
1.61973e-05
-0.000150376
1.53602e-05
-0.0001541
1.43944e-05
-0.000157471
1.32993e-05
-0.000160454
1.20748e-05
-0.000163013
1.07224e-05
-0.000165117
9.24686e-06
-0.000166736
7.65449e-06
-0.000167844
5.95398e-06
-0.000168426
4.15656e-06
-0.000168469
2.27699e-06
-0.000167965
3.35195e-07
-0.000166888
-1.65274e-06
-0.000165192
-3.69774e-06
-0.000162835
-5.82391e-06
-0.000159786
-8.03952e-06
-0.000156018
-1.03425e-05
-0.000151504
-1.27286e-05
-0.000146219
-1.51906e-05
-0.000140145
-1.77193e-05
-0.000133263
-2.03024e-05
-0.000125562
-2.29246e-05
-0.000117035
-2.55686e-05
-0.000107681
-2.82152e-05
-9.75061e-05
-3.08442e-05
-8.65228e-05
-3.34353e-05
-7.47506e-05
-3.59679e-05
-6.22161e-05
-3.84194e-05
-4.89538e-05
-4.07664e-05
-3.50047e-05
-4.29876e-05
-2.04167e-05
-4.50619e-05
-5.24349e-06
-4.69678e-05
1.04543e-05
-4.8688e-05
2.661e-05
-5.02026e-05
4.31569e-05
-5.14962e-05
6.00236e-05
-5.25543e-05
7.71208e-05
-5.33493e-05
9.43628e-05
-5.38651e-05
0.000111671
-5.41131e-05
0.000128957
-5.41031e-05
0.000146135
-5.38389e-05
0.000163125
-5.33227e-05
0.000179847
-5.25589e-05
0.000196228
-5.15595e-05
0.000212198
-5.03375e-05
0.000227696
-4.89119e-05
0.000242672
-4.7306e-05
0.000257074
-4.55964e-05
0.00027093
-4.3745e-05
0.0002842
-4.23385e-05
0.00029731
-4.06319e-05
0.000310001
-4.33555e-05
0.000325379
-4.30696e-05
-8.54355e-05
0.000405951
0.000578845
0.000328645
0.000512038
0.00017707
0.000368077
4.3485e-05
0.000190469
-1.33149e-05
6.51642e-05
-2.68542e-05
2.2516e-05
-3.48184e-05
1.73887e-05
-4.06457e-05
1.70789e-05
-4.56619e-05
1.78726e-05
-5.01786e-05
1.81135e-05
-5.46156e-05
1.86745e-05
-5.89997e-05
1.92618e-05
-6.34765e-05
2.02173e-05
-6.80246e-05
2.10295e-05
-7.26512e-05
2.17831e-05
-7.73106e-05
2.23382e-05
-8.1982e-05
2.27631e-05
-8.6636e-05
2.30393e-05
-9.12513e-05
2.31921e-05
-9.58086e-05
2.32208e-05
-0.000100283
2.31156e-05
-0.000104654
2.28851e-05
-0.000108902
2.25338e-05
-0.000113007
2.20499e-05
-0.000116941
2.14213e-05
-0.000120678
2.06422e-05
-0.000124189
1.9707e-05
-0.000127441
1.86118e-05
-0.000130405
1.7357e-05
-0.00013305
1.59426e-05
-0.000135344
1.43669e-05
-0.000137255
1.26319e-05
-0.000138753
1.07436e-05
-0.000139809
8.71055e-06
-0.000140399
6.54456e-06
-0.000140501
4.25947e-06
-0.000140095
1.87273e-06
-0.000139159
-5.99427e-07
-0.00013766
-3.14958e-06
-0.000135565
-5.78977e-06
-0.000132849
-8.53782e-06
-0.000129486
-1.13997e-05
-0.000125453
-1.43739e-05
-0.000120726
-1.74543e-05
-0.000115283
-2.06323e-05
-0.000109106
-2.38959e-05
-0.000102179
-2.72292e-05
-9.44921e-05
-3.06123e-05
-8.6039e-05
-3.40226e-05
-7.682e-05
-3.7435e-05
-6.68417e-05
-4.08232e-05
-5.61171e-05
-4.41602e-05
-4.46654e-05
-4.74198e-05
-3.25129e-05
-5.0572e-05
-1.9693e-05
-5.35862e-05
-6.24519e-06
-5.64352e-05
7.78438e-06
-5.90912e-05
2.23415e-05
-6.15246e-05
3.73679e-05
-6.37141e-05
5.28009e-05
-6.56352e-05
6.85719e-05
-6.72668e-05
8.46087e-05
-6.85906e-05
0.000100838
-6.95786e-05
0.000117187
-7.02128e-05
0.000133575
-7.05008e-05
0.00014992
-7.04479e-05
0.000166142
-7.00602e-05
0.000182165
-6.93452e-05
0.000197917
-6.83105e-05
0.00021333
-6.69719e-05
0.000228341
-6.53486e-05
0.000242895
-6.34659e-05
0.000256948
-6.13588e-05
0.000270455
-5.91032e-05
0.000283442
-5.67323e-05
0.000295855
-5.47515e-05
0.000308079
-5.28553e-05
0.000319679
-5.49544e-05
0.000333159
-5.65475e-05
-9.41676e-05
0.000422224
0.000546369
0.000410381
0.000523884
0.000321719
0.000456744
0.000183379
0.000328807
6.62035e-05
0.000182339
1.00519e-05
7.86676e-05
-9.99446e-06
3.74344e-05
-2.12677e-05
2.83533e-05
-2.90705e-05
2.5676e-05
-3.48078e-05
2.38509e-05
-3.98666e-05
2.37338e-05
-4.44712e-05
2.38679e-05
-4.89006e-05
2.46479e-05
-5.32e-05
2.53294e-05
-5.74437e-05
2.60272e-05
-6.16071e-05
2.65018e-05
-6.56998e-05
2.6856e-05
-6.97061e-05
2.70461e-05
-7.36178e-05
2.71041e-05
-7.74286e-05
2.70321e-05
-8.1121e-05
2.68082e-05
-8.46816e-05
2.64459e-05
-8.81019e-05
2.59539e-05
-9.13687e-05
2.53165e-05
-9.44628e-05
2.45146e-05
-9.73631e-05
2.35415e-05
-0.000100047
2.23892e-05
-0.000102488
2.10515e-05
-0.000104661
1.95283e-05
-0.000106541
1.78199e-05
-0.000108099
1.59224e-05
-0.000109306
1.38373e-05
-0.000110135
1.15706e-05
-0.000110558
9.13298e-06
-0.00011055
6.53694e-06
-0.000110088
3.79848e-06
-0.000109149
9.35324e-07
-0.000107708
-2.03811e-06
-0.000105738
-5.11767e-06
-0.000103212
-8.3129e-06
-0.00010011
-1.1637e-05
-9.64121e-05
-1.50956e-05
-9.20964e-05
-1.86874e-05
-8.71428e-05
-2.24063e-05
-8.15326e-05
-2.62413e-05
-7.52497e-05
-3.01785e-05
-6.8281e-05
-3.41982e-05
-6.06177e-05
-3.82763e-05
-5.2256e-05
-4.23853e-05
-4.31973e-05
-4.64945e-05
-3.34495e-05
-5.05714e-05
-2.30266e-05
-5.45833e-05
-1.19479e-05
-5.84986e-05
-2.3914e-07
-6.22809e-05
1.20666e-05
-6.58919e-05
2.49299e-05
-6.92988e-05
3.83065e-05
-7.24679e-05
5.21449e-05
-7.53634e-05
6.63899e-05
-7.79593e-05
8.09805e-05
-8.02262e-05
9.58513e-05
-8.21379e-05
0.000110934
-8.3674e-05
0.000126163
-8.48074e-05
0.00014147
-8.55199e-05
0.000156783
-8.58144e-05
0.00017203
-8.56943e-05
0.000187136
-8.51667e-05
0.000202034
-8.42433e-05
0.000216659
-8.29354e-05
0.00023095
-8.12631e-05
0.000244852
-7.9251e-05
0.000258318
-7.69319e-05
0.000271308
-7.43485e-05
0.000283784
-7.15795e-05
0.000295764
-6.87118e-05
0.000307187
-6.61742e-05
0.000318355
-6.40225e-05
0.000328764
-6.53628e-05
0.00034018
-6.79624e-05
-9.96515e-05
0.000421981
0.000514137
0.000444011
0.000501855
0.000419146
0.000481609
0.00033082
0.000417133
0.000205607
0.000307553
9.86818e-05
0.000185593
3.98278e-05
9.62906e-05
1.3166e-05
5.50194e-05
-1.60216e-06
4.04474e-05
-1.10279e-05
3.32793e-05
-1.83349e-05
3.10436e-05
-2.42673e-05
2.98031e-05
-2.94004e-05
2.97824e-05
-3.39656e-05
2.98949e-05
-3.82004e-05
3.02616e-05
-4.21457e-05
3.04473e-05
-4.58748e-05
3.05858e-05
-4.9402e-05
3.05748e-05
-5.27421e-05
3.04459e-05
-5.5911e-05
3.02027e-05
-5.89024e-05
2.98011e-05
-6.17144e-05
2.9259e-05
-6.4351e-05
2.85911e-05
-6.681e-05
2.77754e-05
-6.90801e-05
2.67843e-05
-7.11483e-05
2.56086e-05
-7.29991e-05
2.42389e-05
-7.46135e-05
2.2664e-05
-7.59715e-05
2.08844e-05
-7.70534e-05
1.88992e-05
-7.78361e-05
1.67027e-05
-7.82948e-05
1.42934e-05
-7.84042e-05
1.16781e-05
-7.81402e-05
8.86777e-06
-7.74792e-05
5.87551e-06
-7.63981e-05
2.71803e-06
-7.4875e-05
-5.86477e-07
-7.28872e-05
-4.02404e-06
-7.04118e-05
-7.59101e-06
-6.74284e-05
-1.12941e-05
-6.39197e-05
-1.51434e-05
-5.98687e-05
-1.91445e-05
-5.52577e-05
-2.32966e-05
-5.00695e-05
-2.75932e-05
-4.42888e-05
-3.20213e-05
-3.79024e-05
-3.65648e-05
-3.09004e-05
-4.12007e-05
-2.32771e-05
-4.59006e-05
-1.50307e-05
-5.06325e-05
-6.16511e-06
-5.53608e-05
3.31037e-06
-6.00474e-05
1.33803e-05
-6.46535e-05
2.40249e-05
-6.91433e-05
3.52177e-05
-7.34738e-05
4.6926e-05
-7.76003e-05
5.91118e-05
-8.14847e-05
7.17325e-05
-8.50886e-05
8.47391e-05
-8.837e-05
9.80791e-05
-9.12993e-05
0.000111695
-9.38423e-05
0.000125527
-9.59694e-05
0.000139511
-9.76581e-05
0.000153587
-9.88828e-05
0.000167694
-9.96264e-05
0.000181768
-9.98887e-05
0.000195747
-9.9673e-05
0.000209568
-9.89869e-05
0.00022317
-9.78452e-05
0.000236499
-9.62641e-05
0.000249504
-9.42677e-05
0.000262138
-9.18846e-05
0.00027436
-8.91538e-05
0.000286135
-8.6123e-05
0.000297436
-8.28802e-05
0.000308266
-7.95421e-05
0.000318563
-7.64708e-05
0.000328536
-7.3995e-05
0.000337633
-7.44591e-05
0.000347048
-7.73763e-05
-0.000102742
0.000418035
0.00048585
0.00044979
0.000470103
0.000465305
0.000466097
0.000436948
0.000445489
0.000355426
0.000389074
0.000242946
0.000298072
0.000142909
0.000196327
8.02188e-05
0.000117709
4.66596e-05
7.40063e-05
2.76302e-05
5.23076e-05
1.48259e-05
4.38474e-05
5.38636e-06
3.92435e-05
-1.92597e-06
3.7095e-05
-7.77097e-06
3.57395e-05
-1.27268e-05
3.52171e-05
-1.69951e-05
3.47152e-05
-2.07781e-05
3.4369e-05
-2.41546e-05
3.39511e-05
-2.71846e-05
3.3476e-05
-2.99216e-05
3.29395e-05
-3.23804e-05
3.22597e-05
-3.45791e-05
3.1457e-05
-3.65402e-05
3.05514e-05
-3.82757e-05
2.95096e-05
-3.97856e-05
2.82927e-05
-4.10675e-05
2.68887e-05
-4.21164e-05
2.52855e-05
-4.29218e-05
2.34673e-05
-4.34719e-05
2.1432e-05
-4.37538e-05
1.91787e-05
-4.37514e-05
1.66978e-05
-4.34452e-05
1.39847e-05
-4.28147e-05
1.10458e-05
-4.18399e-05
7.89163e-06
-4.05007e-05
4.53607e-06
-3.87772e-05
9.95038e-07
-3.66501e-05
-2.71209e-06
-3.41009e-05
-6.5714e-06
-3.11113e-05
-1.05784e-05
-2.76652e-05
-1.47379e-05
-2.37485e-05
-1.90579e-05
-1.93474e-05
-2.35435e-05
-1.44475e-05
-2.81949e-05
-9.0349e-06
-3.30044e-05
-3.09839e-06
-3.79573e-05
3.37151e-06
-4.30347e-05
1.03809e-05
-4.82107e-05
1.79318e-05
-5.34525e-05
2.60227e-05
-5.87242e-05
3.46471e-05
-6.39858e-05
4.37933e-05
-6.9194e-05
5.34439e-05
-7.43044e-05
6.35783e-05
-7.9278e-05
7.41698e-05
-8.40656e-05
8.51858e-05
-8.86166e-05
9.65893e-05
-9.28885e-05
0.000108339
-9.68393e-05
0.00012039
-0.000100421
0.000132693
-0.000103602
0.000145193
-0.000106343
0.000157836
-0.000108613
0.000170564
-0.000110387
0.000183326
-0.000111645
0.000196068
-0.000112369
0.000208736
-0.000112557
0.000221277
-0.000112214
0.000233639
-0.000111349
0.000245775
-0.000109981
0.00025764
-0.000108129
0.00026919
-0.000105818
0.000280389
-0.000103084
0.000291205
-9.99696e-05
0.000301611
-9.65291e-05
0.000311589
-9.28579e-05
0.000321129
-8.90817e-05
0.000330164
-8.55057e-05
0.000338817
-8.2648e-05
0.000346501
-8.21425e-05
0.000354
-8.48742e-05
-0.000103901
0.00041568
0.000459919
0.000445584
0.000440199
0.000476418
0.000435263
0.00048958
0.000432327
0.000464459
0.000414196
0.000393953
0.000368579
0.000294717
0.000295564
0.000200897
0.000211531
0.000134247
0.000140658
9.27903e-05
9.37654e-05
6.73211e-05
6.93191e-05
5.04405e-05
5.61265e-05
3.84334e-05
4.91029e-05
2.94722e-05
4.46994e-05
2.24529e-05
4.22348e-05
1.6861e-05
4.03064e-05
1.22447e-05
3.89859e-05
8.40683e-06
3.77908e-05
5.19517e-06
3.66898e-05
2.49136e-06
3.56455e-05
2.3893e-07
3.45137e-05
-1.61728e-06
3.33142e-05
-3.12906e-06
3.2063e-05
-4.32804e-06
3.07079e-05
-5.23189e-06
2.91949e-05
-5.85369e-06
2.75085e-05
-6.203e-06
2.5632e-05
-6.28321e-06
2.35447e-05
-6.09316e-06
2.12385e-05
-5.6294e-06
1.87118e-05
-4.88494e-06
1.59498e-05
-3.84816e-06
1.29449e-05
-2.50558e-06
9.70054e-06
-8.43219e-07
6.22739e-06
1.15293e-06
2.53911e-06
3.49791e-06
-1.34983e-06
6.20616e-06
-5.41927e-06
9.29128e-06
-9.65494e-06
1.27669e-05
-1.40521e-05
1.66454e-05
-1.86143e-05
2.09375e-05
-2.3348e-05
2.56541e-05
-2.82581e-05
3.08059e-05
-3.33453e-05
3.64029e-05
-3.86003e-05
4.24521e-05
-4.40061e-05
4.89581e-05
-4.95409e-05
5.59219e-05
-5.51752e-05
6.33414e-05
-6.08728e-05
7.12112e-05
-6.65947e-05
7.95215e-05
-7.22968e-05
8.82582e-05
-7.79311e-05
9.74019e-05
-8.34486e-05
0.000106931
-8.88072e-05
0.000116817
-9.39526e-05
0.000127028
-9.88283e-05
0.000137528
-0.000103389
0.000148279
-0.00010759
0.000159238
-0.000111381
0.000170358
-0.000114722
0.000181592
-0.000117577
0.000192891
-0.000119912
0.000204207
-0.000121704
0.000215495
-0.000122932
0.000226707
-0.000123581
0.000237799
-0.000123649
0.000248729
-0.000123144
0.000259457
-0.000122078
0.000269948
-0.000120471
0.000280168
-0.000118348
0.000290089
-0.000115738
0.000299686
-0.000112681
0.000308936
-0.000109219
0.000317821
-0.000105414
0.000326324
-0.00010136
0.00033443
-9.71877e-05
0.000342071
-9.31467e-05
0.000349292
-8.98683e-05
0.000355481
-8.83309e-05
0.00036114
-9.05315e-05
-0.000103397
0.000415478
0.00043419
0.00044159
0.00041409
0.000472561
0.000404294
0.00050279
0.000402097
0.00051739
0.000399596
0.00050019
0.000385777
0.000444006
0.000351748
0.000359448
0.000296089
0.000271863
0.000228242
0.000201217
0.00016441
0.00015291
0.000117625
0.00012096
8.80767e-05
9.93604e-05
7.07019e-05
8.39974e-05
6.0061e-05
7.25916e-05
5.3639e-05
6.39297e-05
4.89672e-05
5.7132e-05
4.57829e-05
5.17697e-05
4.31528e-05
4.75157e-05
4.09432e-05
4.41476e-05
3.90131e-05
4.15251e-05
3.71352e-05
3.9523e-05
3.53148e-05
3.80452e-05
3.35391e-05
3.70298e-05
3.17212e-05
3.64323e-05
2.97902e-05
3.62144e-05
2.77239e-05
3.6345e-05
2.5499e-05
3.67991e-05
2.3088e-05
3.75631e-05
2.04723e-05
3.8628e-05
1.76444e-05
3.99883e-05
1.45873e-05
4.16434e-05
1.12876e-05
4.35974e-05
7.7446e-06
4.58554e-05
3.96819e-06
4.84225e-05
-2.86582e-08
5.13065e-05
-4.23353e-06
5.45147e-05
-8.62655e-06
5.80549e-05
-1.31936e-05
6.19361e-05
-1.79314e-05
6.61668e-05
-2.28431e-05
7.07546e-05
-2.79339e-05
7.57066e-05
-3.32086e-05
8.10302e-05
-3.86674e-05
8.67304e-05
-4.42998e-05
9.28092e-05
-5.00846e-05
9.92652e-05
-5.59972e-05
0.000106094
-6.20044e-05
0.000113288
-6.80677e-05
0.000120838
-7.41454e-05
0.00012873
-8.01892e-05
0.000136947
-8.61484e-05
0.000145468
-9.19699e-05
0.000154269
-9.7609e-05
0.000163322
-0.000103007
0.000172597
-0.000108104
0.000182059
-0.000112852
0.000191671
-0.000117203
0.000201392
-0.000121102
0.000211178
-0.000124509
0.000220989
-0.000127389
0.000230781
-0.000129705
0.000240513
-0.000131436
0.000250145
-0.000132564
0.000259639
-0.000133076
0.000268965
-0.000132975
0.000278095
-0.000132274
0.000287003
-0.000130986
0.000295668
-0.000129136
0.00030407
-0.000126751
0.000312195
-0.000123864
0.00032003
-0.000120515
0.00032756
-0.000116749
0.000334774
-0.000112629
0.000341656
-0.000108242
0.000348194
-0.000103726
0.000354318
-9.92703e-05
0.000360005
-9.55554e-05
0.000364637
-9.29622e-05
0.000368523
-9.44165e-05
-0.000101413
0.000416281
0.000407657
0.000440649
0.000389724
0.000467454
0.000377489
0.000498461
0.000371089
0.000528899
0.000369159
0.000547455
0.000367221
0.000541114
0.000358089
0.000502067
0.000335136
0.00043525
0.00029506
0.000356746
0.000242915
0.00028574
0.000188633
0.000231386
0.000142432
0.000192791
0.000109299
0.000165193
8.76593e-05
0.000145206
7.36254e-05
0.000130504
6.36689e-05
0.000119341
5.69462e-05
0.000110742
5.17515e-05
0.000104077
4.76091e-05
9.89246e-05
4.41662e-05
9.49915e-05
4.10683e-05
9.20392e-05
3.82665e-05
8.99085e-05
3.56686e-05
8.84895e-05
3.31381e-05
8.76911e-05
3.0586e-05
8.74334e-05
2.79781e-05
8.76525e-05
2.52763e-05
8.82953e-05
2.24411e-05
8.93265e-05
1.94374e-05
9.07196e-05
1.62477e-05
9.24503e-05
1.28534e-05
9.45009e-05
9.23397e-06
9.68624e-05
5.38053e-06
9.95269e-05
1.30195e-06
0.000102488
-2.99058e-06
0.000105742
-7.48795e-06
0.000109288
-1.21714e-05
0.000113126
-1.70305e-05
0.000117261
-2.20648e-05
0.000121698
-2.72775e-05
0.000126439
-3.26731e-05
0.000131488
-3.82561e-05
0.000136848
-4.4026e-05
0.000142518
-4.99691e-05
0.000148493
-5.60593e-05
0.000154764
-6.22688e-05
0.000161321
-6.85614e-05
0.000168151
-7.48984e-05
0.000175241
-8.12361e-05
0.000182575
-8.75235e-05
0.000190134
-9.37074e-05
0.000197891
-9.97283e-05
0.00020582
-0.000105538
0.00021389
-0.000111077
0.000222071
-0.000116286
0.000230331
-0.000121112
0.000238629
-0.000125502
0.000246929
-0.000129403
0.000255192
-0.000132774
0.000263382
-0.00013558
0.000271463
-0.000137786
0.000279402
-0.000139377
0.000287174
-0.000140336
0.000294756
-0.000140658
0.000302129
-0.000140349
0.00030928
-0.000139425
0.000316198
-0.000137903
0.000322874
-0.000135812
0.000329301
-0.000133178
0.000335475
-0.000130038
0.000341394
-0.000126434
0.000347055
-0.00012241
0.000352456
-0.000118029
0.000357584
-0.00011337
0.00036243
-0.00010857
0.00036692
-0.00010376
0.000370986
-9.96207e-05
0.000374013
-9.59901e-05
0.000376181
-9.65832e-05
-9.80582e-05
0.000417092
0.000380314
0.000441676
0.000365143
0.000465889
0.000353277
0.000492596
0.000344381
0.00052302
0.000338734
0.000553954
0.000336286
0.00057739
0.000334652
0.000583129
0.000329398
0.0005633
0.000314888
0.000517246
0.000288968
0.00045357
0.000252308
0.000386536
0.000209466
0.000328434
0.0001674
0.000283539
0.000132554
0.000250197
0.000106965
0.000225119
8.87451e-05
0.000206034
7.60296e-05
0.000191487
6.62973e-05
0.000180374
5.87202e-05
0.000171772
5.27672e-05
0.000165106
4.77325e-05
0.000159992
4.33791e-05
0.000156183
3.94752e-05
0.000153478
3.58399e-05
0.000151704
3.23575e-05
0.000150717
2.89628e-05
0.000150409
2.55816e-05
0.000150691
2.21574e-05
0.000151496
1.86301e-05
0.000152771
1.49713e-05
0.000154466
1.11566e-05
0.000156543
7.15603e-06
0.000158971
2.95067e-06
0.000161726
-1.45348e-06
0.000164784
-6.04865e-06
0.000168127
-1.08312e-05
0.000171743
-1.5787e-05
0.000175627
-2.09127e-05
0.000179775
-2.6212e-05
0.000184188
-3.16888e-05
0.000188864
-3.7347e-05
0.0001938
-4.31906e-05
0.000198993
-4.9219e-05
0.000204439
-5.54144e-05
0.000210123
-6.17431e-05
0.000216026
-6.81721e-05
0.000222129
-7.46648e-05
0.000228414
-8.11842e-05
0.000234862
-8.76844e-05
0.00024145
-9.41122e-05
0.000248156
-0.000100414
0.000254951
-0.000106523
0.000261801
-0.000112389
0.000268676
-0.000117953
0.000275543
-0.000123154
0.000282367
-0.000127937
0.000289116
-0.000132252
0.000295762
-0.00013605
0.000302274
-0.000139286
0.000308622
-0.000141929
0.000314784
-0.000143949
0.000320738
-0.000145331
0.000326467
-0.000146066
0.000331962
-0.000146153
0.000337215
-0.000145603
0.000342222
-0.000144432
0.000346985
-0.000142667
0.000351508
-0.000140335
0.0003558
-0.00013747
0.000359868
-0.000134107
0.000363724
-0.00013029
0.000367376
-0.000126062
0.00037083
-0.000121483
0.000374081
-0.000116622
0.00037712
-0.000111609
0.000379872
-0.000106512
0.000382241
-0.00010199
0.000383629
-9.73773e-05
0.000384123
-9.70759e-05
-9.3414e-05
0.00041757
0.000352493
0.000443019
0.000339694
0.000466975
0.000329321
0.000490881
0.000320475
0.000516831
0.000312783
0.000546045
0.000307072
0.000576977
0.000303719
0.000604603
0.000301772
0.000621244
0.000298247
0.000619998
0.000290214
0.000597023
0.000275284
0.00055422
0.000252271
0.00049943
0.00022219
0.000443324
0.000188661
0.000394279
0.000156009
0.000355107
0.000127917
0.000324991
0.000106144
0.000301589
8.96966e-05
0.000283142
7.7166e-05
0.00026852
6.73863e-05
0.000257042
5.92083e-05
0.000248112
5.23072e-05
0.000241243
4.6342e-05
0.000236033
4.10467e-05
0.000232187
3.62005e-05
0.00022949
3.16568e-05
0.000227777
2.72906e-05
0.000226907
2.30241e-05
0.000226773
1.87619e-05
0.00022728
1.44619e-05
0.000228345
1.00893e-05
0.000229902
5.59737e-06
0.000231892
9.59399e-07
0.00023426
-3.82337e-06
0.000236968
-8.75652e-06
0.000239983
-1.38462e-05
0.000243283
-1.90855e-05
0.000246851
-2.44797e-05
0.000250679
-3.0038e-05
0.000254756
-3.57641e-05
0.000259072
-4.16607e-05
0.000263615
-4.77317e-05
0.000268372
-5.3975e-05
0.000273326
-6.03675e-05
0.000278451
-6.68673e-05
0.000283718
-7.34395e-05
0.000289103
-8.00492e-05
0.000294578
-8.66594e-05
0.000300116
-9.32231e-05
0.000305686
-9.96824e-05
0.000311254
-0.000105982
0.00031679
-0.00011206
0.000322266
-0.000117866
0.000327657
-0.000123345
0.000332932
-0.000128431
0.000338065
-0.000133071
0.000343027
-0.000137216
0.000347793
-0.000140817
0.000352339
-0.000143833
0.000356643
-0.000146234
0.000360689
-0.000147997
0.000364464
-0.000149107
0.00036796
-0.000149563
0.000371177
-0.000149371
0.000374121
-0.000148547
0.000376804
-0.000147115
0.00037924
-0.000145103
0.000381449
-0.000142543
0.000383451
-0.000139472
0.00038527
-0.000135925
0.000386927
-0.000131946
0.000388442
-0.000127576
0.000389831
-0.000122872
0.000391095
-0.000117885
0.000392228
-0.000112742
0.000393151
-0.000107434
0.000393762
-0.000102601
0.000393483
-9.70988e-05
0.000392342
-9.59335e-05
-8.75356e-05
0.000417787
0.000324455
0.000443917
0.000313567
0.000468598
0.000304641
0.000492174
0.000296899
0.000515553
0.000289403
0.00054029
0.000282334
0.000567663
0.000276346
0.000597461
0.000271973
0.000626954
0.000268754
0.000651497
0.00026567
0.000665605
0.000261176
0.000664645
0.00025323
0.000646443
0.000240392
0.000612722
0.00022238
0.000569112
0.000199618
0.000522838
0.000174189
0.000480366
0.000148614
0.000444862
0.000125199
0.000416499
0.000105527
0.000394093
8.97907e-05
0.000376134
7.71657e-05
0.000361604
6.68343e-05
0.000349872
5.80724e-05
0.000340473
5.04441e-05
0.000333069
4.36027e-05
0.000327368
3.73563e-05
0.000323102
3.15553e-05
0.000320047
2.60773e-05
0.000318037
2.07718e-05
0.000316919
1.55796e-05
0.000316564
1.04449e-05
0.000316867
5.29407e-06
0.000317736
9.09362e-08
0.000319083
-5.17028e-06
0.000320849
-1.05228e-05
0.000322988
-1.59852e-05
0.000325463
-2.15591e-05
0.000328245
-2.72606e-05
0.000331312
-3.31032e-05
0.000334638
-3.90885e-05
0.000338197
-4.52186e-05
0.000341964
-5.1498e-05
0.00034591
-5.79199e-05
0.000349995
-6.44525e-05
0.000354177
-7.10491e-05
0.000358421
-7.76836e-05
0.000362697
-8.43254e-05
0.000366973
-9.09356e-05
0.000371217
-9.74676e-05
0.000375396
-0.000103862
0.000379477
-0.000110064
0.000383431
-0.000116014
0.000387229
-0.000121665
0.000390847
-0.000126964
0.000394261
-0.000131845
0.000397443
-0.000136254
0.000400368
-0.000140142
0.00040301
-0.00014346
0.000405349
-0.000146173
0.00040737
-0.000148256
0.000409063
-0.000149691
0.000410429
-0.000150473
0.000411472
-0.000150607
0.000412206
-0.000150106
0.00041265
-0.000148991
0.000412829
-0.000147294
0.000412773
-0.000145047
0.000412514
-0.000142285
0.000412087
-0.000139045
0.000411527
-0.000135365
0.000410866
-0.000131286
0.000410135
-0.000126845
0.000409358
-0.000122095
0.000408543
-0.000117071
0.00040769
-0.000111889
0.000406711
-0.000106455
0.000405517
-0.000101407
0.000403556
-9.51374e-05
0.000400817
-9.31927e-05
-8.04735e-05
0.000417895
0.000296309
0.000444381
0.000287082
0.000469699
0.000279322
0.000493961
0.000272638
0.000517216
0.000266148
0.000539994
0.000259556
0.00056335
0.00025299
0.00058847
0.000246853
0.000615803
0.000241421
0.000644559
0.000236914
0.00067251
0.000233225
0.000696183
0.000229558
0.000711743
0.000224832
0.000716021
0.000218102
0.000707292
0.000208345
0.000686143
0.000195336
0.000655449
0.000179306
0.000619803
0.000160842
0.000583929
0.000141398
0.000551439
0.000122278
0.000524
0.000104602
0.000501638
8.91938e-05
0.000483586
7.61221e-05
0.000468956
6.50722e-05
0.000456994
5.55636e-05
0.000447193
4.71555e-05
0.000439238
3.95091e-05
0.000432887
3.24276e-05
0.000427922
2.57365e-05
0.000424149
1.93526e-05
0.000421403
1.31908e-05
0.000419541
7.15591e-06
0.000418435
1.19731e-06
0.000417976
-4.71111e-06
0.000418085
-1.06316e-05
0.000418686
-1.65854e-05
0.000419716
-2.25872e-05
0.000421123
-2.86665e-05
0.000422863
-3.48407e-05
0.000424887
-4.11104e-05
0.000427151
-4.74814e-05
0.000429616
-5.39606e-05
0.00043223
-6.05332e-05
0.000434942
-6.71638e-05
0.000437702
-7.38085e-05
0.000440464
-8.04452e-05
0.000443187
-8.70479e-05
0.000445833
-9.35824e-05
0.000448371
-0.000100005
0.000450765
-0.000106257
0.000452987
-0.000112286
0.000455007
-0.000118035
0.000456794
-0.000123454
0.000458317
-0.000128488
0.00045955
-0.000133078
0.000460463
-0.000137169
0.000461035
-0.000140714
0.000461245
-0.000143672
0.000461083
-0.000146012
0.000460541
-0.000147716
0.000459622
-0.000148774
0.000458337
-0.000149189
0.000456703
-0.000148974
0.000454748
-0.000148151
0.000452503
-0.000146748
0.00045001
-0.000144801
0.000447309
-0.000142346
0.000444446
-0.000139423
0.000441468
-0.000136067
0.000438421
-0.000132317
0.000435348
-0.000128212
0.000432286
-0.000123783
0.000429268
-0.000119076
0.00042631
-0.000114113
0.000423409
-0.000108987
0.000420482
-0.000103529
0.000417456
-9.83798e-05
0.000413812
-9.14932e-05
0.000409516
-8.88961e-05
-7.22747e-05
0.000417971
0.000268087
0.000444634
0.000260421
0.000470263
0.000253694
0.000495095
0.000247805
0.000519041
0.000242202
0.000542037
0.000236558
0.000564305
0.000230721
0.000586463
0.000224696
0.000609311
0.000218572
0.000633574
0.00021265
0.000659516
0.000207282
0.000686534
0.000202539
0.000713121
0.000198245
0.000737113
0.000194108
0.000755942
0.000189514
0.000767408
0.000183869
0.000769952
0.000176759
0.00076304
0.000167753
0.000747522
0.000156914
0.000725388
0.00014441
0.000699376
0.000130613
0.000672419
0.00011615
0.000646857
0.000101683
0.000624184
8.77455e-05
0.000604994
7.47534e-05
0.00058918
6.29694e-05
0.000576265
5.24248e-05
0.000565699
4.29949e-05
0.000556989
3.44471e-05
0.000549784
2.65588e-05
0.000543851
1.9126e-05
0.000539011
1.19971e-05
0.00053513
5.07868e-06
0.000532098
-1.6778e-06
0.000529809
-8.3417e-06
0.000528163
-1.49391e-05
0.000527068
-2.14911e-05
0.00052644
-2.80374e-05
0.000526206
-3.46053e-05
0.0005263
-4.12024e-05
0.00052666
-4.7841e-05
0.000527226
-5.45251e-05
0.000527922
-6.12285e-05
0.000528687
-6.79285e-05
0.000529469
-7.45906e-05
0.000530213
-8.11894e-05
0.000530872
-8.77075e-05
0.000531405
-9.41158e-05
0.000531773
-0.000100374
0.000531937
-0.000106422
0.000531857
-0.000112206
0.000531502
-0.000117681
0.000530845
-0.000122797
0.000529853
-0.000127497
0.0005285
-0.000131726
0.000526761
-0.000135431
0.000524615
-0.00013857
0.000522052
-0.00014111
0.000519069
-0.00014303
0.000515671
-0.000144318
0.000511871
-0.000144974
0.000507692
-0.00014501
0.000503163
-0.000144447
0.000498325
-0.000143314
0.000493224
-0.000141647
0.00048791
-0.000139487
0.000482439
-0.000136876
0.000476867
-0.000133851