/*--------------------------------*- C++ -*----------------------------------*\
| =========                 |                                                 |
| \\      /  F ield         | OpenFOAM: The Open Source CFD Toolbox           |
|  \\    /   O peration     | Version:  v1912                                 |
|   \\  /    A nd           | Website:  www.openfoam.com                      |
|    \\/     M anipulation  |                                                 |
\*---------------------------------------------------------------------------*/
FoamFile
{
    version     2.0;
    format      ascii;
    class       volVectorField;
    location    "500";
    object      U;
}
// * * * * * * * * * * * * * * * * * * * * * * * * * * * * * * * * * * * * * //

dimensions      [0 1 -1 0 0 0 0];


internalField   nonuniform List<vector> 
2000
(
(0.539891 0.107775 0)
(-0.343459 0.0043449 -3.28815e-16)
(-0.10854 0.0188953 -3.30011e-16)
(-0.108028 0.0192701 -6.93849e-16)
(-0.0988354 0.0189471 0)
(-0.0969475 0.0185941 0)
(-0.095487 0.0182503 0)
(-0.0961729 0.0185828 3.20947e-16)
(-0.0985603 0.0188202 -3.00372e-16)
(-0.101841 0.0190026 2.80666e-16)
(-0.105411 0.0191422 -2.63402e-16)
(-0.109229 0.0192953 0)
(-0.113365 0.0194809 2.33371e-16)
(-0.117865 0.0196479 -1.07015e-20)
(-0.122663 0.0197863 0)
(-0.127716 0.0198738 -9.78036e-17)
(-0.132962 0.0199052 0)
(-0.138358 0.0198735 0)
(-0.143862 0.0197758 -8.30502e-17)
(-0.149441 0.0196072 0)
(-0.155058 0.0193641 7.52527e-17)
(-0.160683 0.0190435 -1.43769e-16)
(-0.166285 0.0186424 0)
(-0.171836 0.0181571 6.60791e-17)
(-0.177303 0.0175845 6.36133e-17)
(-0.182652 0.0169225 0)
(-0.187851 0.0161696 0)
(-0.192862 0.0153259 2.88307e-17)
(-0.19765 0.0143916 0)
(-0.202179 0.0133687 0)
(-0.206411 0.0122588 5.37214e-17)
(-0.210307 0.0110658 2.64133e-17)
(-0.213827 0.00979257 5.20825e-17)
(-0.216931 0.00844362 0)
(-0.219578 0.00702196 0)
(-0.221722 0.00553079 -1.27712e-17)
(-0.223313 0.00397429 0)
(-0.224288 0.00236733 -8.82013e-21)
(-0.224564 0.000748451 -3.23766e-18)
(-0.224059 -0.000831838 0)
(-0.222968 -0.00237435 0)
(-0.221265 -0.00390235 3.38845e-18)
(-0.218924 -0.00541053 6.95213e-18)
(-0.215907 -0.00688915 0)
(-0.212175 -0.00832572 1.46818e-17)
(-0.207687 -0.0097073 0)
(-0.202403 -0.0110192 1.57684e-17)
(-0.196282 -0.0122465 -6.57022e-17)
(-0.189285 -0.013373 -3.44283e-17)
(-0.181374 -0.0143824 -7.23408e-17)
(-0.17251 -0.0152576 0)
(-0.16266 -0.0159816 4.05164e-17)
(-0.15179 -0.0165374 0)
(-0.139868 -0.0169078 0)
(-0.126866 -0.0170763 0)
(-0.112756 -0.0170275 -2.50889e-19)
(-0.0975105 -0.016747 -2.82781e-19)
(-0.0811043 -0.0162219 0)
(-0.063511 -0.015444 0)
(-0.0447079 -0.0144115 0)
(-0.024694 -0.0131132 0)
(-0.00349561 -0.011388 0)
(0.0189191 -0.0088586 5.85802e-19)
(0.042662 -0.00559442 -1.76827e-16)
(0.0677718 -0.0018562 0)
(0.0942609 0.00234054 0)
(0.122189 0.00703119 1.32443e-16)
(0.151642 0.0122584 -2.43661e-16)
(0.182725 0.0180674 0)
(0.215572 0.024506 0)
(0.250339 0.0316286 0)
(0.28726 0.0395022 0)
(0.326514 0.0482004 0)
(0.368719 0.0578205 1.46716e-16)
(0.413562 0.0684654 0)
(0.463972 0.0803271 -1.15984e-16)
(0.514414 0.0934133 0)
(0.585857 0.108465 -1.60681e-16)
(0.627118 0.123914 0)
(0.797141 0.1442 6.59485e-17)
(0.893333 0.155123 0)
(0.203329 0.0669772 8.25926e-17)
(-0.136872 0.0139736 0)
(-0.0964371 0.0154527 2.41642e-16)
(-0.0932129 0.0175743 -2.75845e-16)
(-0.0925313 0.0186538 0)
(-0.0939705 0.0190889 0)
(-0.0958118 0.0200239 -1.92627e-16)
(-0.0988446 0.0207708 0)
(-0.102219 0.0211375 0)
(-0.10587 0.0214029 1.51375e-16)
(-0.109748 0.0216829 0)
(-0.113922 0.0220423 6.67862e-17)
(-0.118349 0.0223613 -2.47494e-20)
(-0.122958 0.0226373 0)
(-0.127688 0.0228303 0)
(-0.132488 0.0229419 0)
(-0.137316 0.022964 0)
(-0.14214 0.0228972 0)
(-0.146931 0.022738 4.6177e-17)
(-0.151657 0.0224835 0)
(-0.156294 0.022134 4.23493e-17)
(-0.160815 0.0216885 0)
(-0.165196 0.0211441 -3.92092e-17)
(-0.169408 0.0204978 0)
(-0.173423 0.0197487 1.83198e-17)
(-0.177212 0.0188957 0)
(-0.180748 0.0179394 -1.72884e-17)
(-0.184001 0.0168814 1.68509e-17)
(-0.186945 0.0157241 0)
(-0.18955 0.01447 -1.61569e-17)
(-0.191788 0.0131238 0)
(-0.193633 0.0116904 -1.56551e-17)
(-0.19506 0.0101764 0)
(-0.196046 0.00858799 0)
(-0.196576 0.00693131 0)
(-0.196642 0.00521018 -3.79527e-18)
(-0.19626 0.00343263 -3.80364e-18)
(-0.195473 0.00162561 1.90643e-18)
(-0.194351 -0.000161803 0)
(-0.192716 -0.00192665 0)
(-0.190505 -0.00369387 -1.94058e-18)
(-0.187677 -0.00545975 1.14104e-20)
(-0.184195 -0.00721475 3.96851e-18)
(-0.180019 -0.00894551 0)
(-0.175109 -0.0106375 -8.22445e-18)
(-0.169425 -0.0122735 0)
(-0.162927 -0.0138353 1.72874e-17)
(-0.155575 -0.0153028 0)
(-0.147333 -0.0166548 1.82894e-17)
(-0.138163 -0.0178692 0)
(-0.128033 -0.0189231 -1.95358e-17)
(-0.116908 -0.0197934 0)
(-0.10476 -0.0204556 -2.09524e-17)
(-0.0915592 -0.0208852 0)
(-0.0772792 -0.0210583 -6.85165e-17)
(-0.0618948 -0.0209508 -9.54025e-17)
(-0.0453819 -0.0205389 0)
(-0.0277167 -0.0197999 0)
(-0.00887756 -0.0187104 0)
(0.0111682 -0.0172393 0)
(0.0324745 -0.0153104 0)
(0.0550509 -0.0127879 5.32808e-17)
(0.078887 -0.0096716 0)
(0.104031 -0.00603277 0)
(0.130554 -0.00186204 -4.94299e-17)
(0.158524 0.00287354 0)
(0.188022 0.00821486 -4.68727e-17)
(0.219155 0.0142057 0)
(0.25206 0.020892 0)
(0.286902 0.028328 0)
(0.323912 0.036582 4.02606e-17)
(0.363315 0.045726 0)
(0.405649 0.0558512 -7.26921e-17)
(0.450855 0.0670748 0)
(0.501236 0.0795029 6.03797e-17)
(0.553082 0.0932449 -5.03349e-17)
(0.622206 0.108296 2.12391e-18)
(0.670763 0.124144 0)
(0.820985 0.133068 -1.8018e-17)
(0.997647 0.18712 2.03331e-17)
(0.645576 0.123003 0)
(0.174686 0.0518015 0)
(-0.0653197 0.0121646 0)
(-0.0691407 0.0130135 3.90299e-16)
(-0.0753687 0.0159607 0)
(-0.0800572 0.0173245 0)
(-0.0832511 0.018911 0)
(-0.086789 0.020049 0)
(-0.0902622 0.0206212 0)
(-0.0938457 0.0210619 -5.54545e-17)
(-0.0974992 0.0214834 0)
(-0.101306 0.0220039 -4.80582e-17)
(-0.105284 0.0224459 9.02565e-17)
(-0.109367 0.0228244 0)
(-0.113513 0.0230878 0)
(-0.117673 0.0232497 0)
(-0.121817 0.0233033 0)
(-0.125917 0.0232543 3.44507e-17)
(-0.129955 0.0231012 -3.28685e-17)
(-0.133909 0.0228412 0)
(-0.137761 0.0224772 3.01829e-17)
(-0.141494 0.0220096 0)
(-0.145092 0.0214351 0)
(-0.148535 0.0207499 -1.34966e-17)
(-0.151801 0.0199526 -2.61191e-17)
(-0.154867 0.019042 0)
(-0.157709 0.0180186 0)
(-0.160303 0.0168842 1.44985e-22)
(-0.162627 0.015641 0)
(-0.164655 0.0142917 0)
(-0.166364 0.0128404 0)
(-0.167728 0.0112933 0)
(-0.168725 0.00965808 0)
(-0.169337 0.0079437 0)
(-0.169548 0.00616168 0)
(-0.169351 0.00432613 2.67949e-18)
(-0.168738 0.00245587 -2.67014e-18)
(-0.167699 0.000569057 0)
(-0.166201 -0.00133447 -3.3278e-19)
(-0.164184 -0.00326422 3.33407e-19)
(-0.161611 -0.00521825 0)
(-0.158446 -0.00718763 5.40018e-18)
(-0.154653 -0.00916144 -2.72843e-18)
(-0.150193 -0.0111262 0)
(-0.145028 -0.0130668 1.11763e-17)
(-0.139117 -0.0149652 0)
(-0.132423 -0.0168016 0)
(-0.124907 -0.0185539 0)
(-0.116532 -0.0201988 0)
(-0.107263 -0.0217114 0)
(-0.0970653 -0.0230663 0)
(-0.0859083 -0.0242374 -1.29813e-17)
(-0.073761 -0.0251967 1.34168e-17)
(-0.0605957 -0.0259157 0)
(-0.0463855 -0.0263661 1.42585e-17)
(-0.0311051 -0.026519 2.94417e-17)
(-0.0147299 -0.0263446 0)
(0.00276462 -0.0258168 0)
(0.0214023 -0.0249076 0)
(0.0412115 -0.0235817 0)
(0.0622298 -0.0218059 0)
(0.084488 -0.0195481 3.01538e-17)
(0.108009 -0.0167803 2.98954e-17)
(0.132841 -0.0134865 0)
(0.159042 -0.00964538 2.79169e-19)
(0.186678 -0.00522904 -2.88064e-17)
(0.215831 -0.000203472 5.69001e-17)
(0.246616 0.00546849 0)
(0.279174 0.0118259 0)
(0.313677 0.0189158 0)
(0.350363 0.0267933 -2.544e-17)
(0.389486 0.0355227 -2.37949e-17)
(0.431541 0.0451726 0)
(0.476614 0.055855 0)
(0.526683 0.0675481 0)
(0.578925 0.0804654 3.25868e-17)
(0.646453 0.0937496 2.6418e-17)
(0.698344 0.107603 -1.56882e-17)
(0.832654 0.108648 0)
(1.00791 0.210446 -1.95688e-17)
(0.887434 0.17019 0)
(0.545007 0.108144 -2.38369e-17)
(0.176648 0.0442832 -5.22445e-17)
(-0.0100229 0.0133691 -2.14382e-16)
(-0.0400165 0.0128805 0)
(-0.054587 0.015431 -8.78122e-17)
(-0.0632541 0.0175524 0)
(-0.0691736 0.0190644 0)
(-0.0737726 0.019793 0)
(-0.0778913 0.0204288 4.92248e-17)
(-0.0817745 0.0209974 0)
(-0.0855491 0.0216928 0)
(-0.0893416 0.0222678 -3.85447e-17)
(-0.0931159 0.0227603 0)
(-0.0968654 0.0231013 0)
(-0.100555 0.0233225 0)
(-0.104173 0.0234166 0)
(-0.107701 0.0233965 -2.87733e-17)
(-0.111133 0.0232632 2.74267e-17)
(-0.114457 0.023013 0)
(-0.117659 0.0226515 -2.50944e-17)
(-0.120734 0.0221815 0)
(-0.123672 0.0215982 0)
(-0.126461 0.0208962 1.11998e-17)
(-0.129083 0.0200736 -1.20891e-21)
(-0.13152 0.0191288 0)
(-0.133752 0.0180609 0)
(-0.135758 0.0168718 -9.95924e-18)
(-0.137517 0.0155635 0)
(-0.139008 0.0141377 0)
(-0.140207 0.0125983 0)
(-0.141092 0.0109518 -4.60308e-18)
(-0.141639 0.00920648 0)
(-0.141829 0.00737297 0)
(-0.141643 0.00546369 0)
(-0.141066 0.00349379 -2.21844e-18)
(-0.14008 0.00147945 2.21432e-18)
(-0.138657 -0.000568293 1.10076e-18)
(-0.136764 -0.00265254 2.75046e-19)
(-0.134366 -0.00478031 -2.75172e-19)
(-0.131433 -0.00694898 -1.10176e-18)
(-0.127932 -0.00915018 -2.21885e-18)
(-0.123829 -0.0113729 2.23053e-18)
(-0.119088 -0.0136039 0)
(-0.113671 -0.0158274 -4.56548e-18)
(-0.107542 -0.0180251 0)
(-0.100662 -0.0201755 4.68879e-18)
(-0.0929939 -0.022255 0)
(-0.0845029 -0.0242381 0)
(-0.0751547 -0.026098 0)
(-0.0649173 -0.027807 0)
(-0.0537595 -0.0293372 1.04227e-17)
(-0.0416517 -0.030658 0)
(-0.0285667 -0.0317379 1.09257e-17)
(-0.0144783 -0.0325467 0)
(0.000638817 -0.0330539 0)
(0.0168079 -0.0332278 0)
(0.0340532 -0.0330409 0)
(0.0523994 -0.0324634 0)
(0.0718733 -0.0314647 0)
(0.0925047 -0.0300174 -2.28367e-17)
(0.114329 -0.0280902 -2.28722e-17)
(0.137387 -0.0256504 -4.5382e-17)
(0.161731 -0.0226764 0)
(0.187418 -0.0191474 2.24047e-17)
(0.214515 -0.0150399 1.70046e-19)
(0.243111 -0.0103262 -2.18037e-17)
(0.273325 -0.00497483 0)
(0.305302 0.00104677 -2.06432e-17)
(0.339225 0.00777777 0)
(0.375335 0.0152646 1.91784e-17)
(0.413907 0.0235573 1.84763e-17)
(0.45541 0.0327086 0)
(0.50003 0.042793 0)
(0.54951 0.0537639 -1.38638e-17)
(0.601558 0.0656679 1.17595e-17)
(0.667538 0.0775861 9.3434e-18)
(0.720527 0.0889873 1.20856e-17)
(0.843272 0.0871533 0)
(0.990766 0.216821 0)
(0.98004 0.198495 -1.26385e-17)
(0.810817 0.159908 7.54143e-20)
(0.5075 0.101067 5.13807e-17)
(0.203152 0.0444497 -3.09587e-19)
(0.0401739 0.0171614 0)
(-0.00525399 0.0142114 9.13313e-17)
(-0.0281599 0.0167461 7.9605e-17)
(-0.0413921 0.0182926 0)
(-0.0495842 0.0188514 0)
(-0.0556777 0.0196455 4.95887e-17)
(-0.060843 0.0203272 0)
(-0.0652978 0.0211806 0)
(-0.069428 0.0218707 -3.6917e-17)
(-0.073282 0.0224682 0)
(-0.0769349 0.022873 0)
(-0.0803912 0.0231435 0)
(-0.0836784 0.0232685 0)
(-0.0867934 0.0232691 0)
(-0.0897537 0.0231499 -2.52759e-17)
(-0.0925585 0.0229045 0)
(-0.0952038 0.0225418 1.15106e-17)
(-0.0976938 0.0220682 0)
(-0.100031 0.0214773 -1.06047e-17)
(-0.102208 0.0207611 1.02214e-17)
(-0.104215 0.0199168 9.87732e-18)
(-0.106039 0.0189417 9.57147e-18)
(-0.107665 0.017834 0)
(-0.109075 0.0165955 9.05558e-18)
(-0.110252 0.0152279 4.42102e-18)
(-0.111178 0.0137318 0)
(-0.111831 0.0121104 0)
(-0.112188 0.0103703 4.183e-18)
(-0.112229 0.00852035 0)
(-0.111931 0.0065717 -4.08138e-18)
(-0.111274 0.0045373 2.02456e-18)
(-0.110239 0.00243205 4.03007e-18)
(-0.108803 0.000269463 0)
(-0.106938 -0.0019429 -1.99334e-18)
(-0.104616 -0.00420747 2.48276e-19)
(-0.101808 -0.00652893 -2.48144e-19)
(-0.0984886 -0.00890541 1.99023e-18)
(-0.0946276 -0.01133 0)
(-0.0901931 -0.0137924 -4.02236e-18)
(-0.085151 -0.0162796 -2.02658e-18)
(-0.0794665 -0.0187758 4.09588e-18)
(-0.0731041 -0.0212618 0)
(-0.0660284 -0.023715 -4.21476e-18)
(-0.0582048 -0.0261105 0)
(-0.0495996 -0.0284209 0)
(-0.0401807 -0.0306175 -4.43676e-18)
(-0.0299182 -0.0326705 0)
(-0.0187827 -0.0345507 0)
(-0.00674581 -0.0362256 0)
(0.00621826 -0.0376612 -1.92199e-17)
(0.0201341 -0.0388262 0)
(0.0350258 -0.0396886 -9.65649e-18)
(0.0509165 -0.040215 0)
(0.0678308 -0.0403762 0)
(0.0857922 -0.0401405 0)
(0.104828 -0.039478 -9.71544e-18)
(0.124966 -0.0383613 1.94845e-17)
(0.146243 -0.0367563 0)
(0.168707 -0.0346328 1.93799e-17)
(0.192412 -0.0319726 0)
(0.217419 -0.0287567 0)
(0.243805 -0.0249657 3.76914e-17)
(0.271664 -0.0205783 -1.84979e-17)
(0.301118 -0.0155676 0)
(0.33232 -0.00990735 3.54644e-17)
(0.36546 -0.00356756 0)
(0.400785 0.003489 -1.77347e-19)
(0.438587 0.0113007 0)
(0.479318 0.0199074 -1.44591e-17)
(0.523231 0.0293381 1.32053e-17)
(0.571893 0.0395493 1.19213e-17)
(0.623342 0.050392 -1.99225e-17)
(0.687711 0.0610908 -8.01997e-18)
(0.740546 0.0702789 0)
(0.854492 0.0679734 0)
(0.975625 0.214685 1.15527e-17)
(0.992763 0.207323 1.24839e-17)
(0.945715 0.192652 1.44114e-17)
(0.775787 0.155077 3.38206e-21)
(0.509611 0.100481 2.54655e-17)
(0.24921 0.0495746 0)
(0.0979541 0.0233889 0)
(0.0363246 0.0179065 -6.96957e-17)
(0.00627679 0.0184115 0)
(-0.0111226 0.0184625 6.44075e-17)
(-0.022426 0.0191521 -1.08537e-16)
(-0.031125 0.0197673 0)
(-0.0377505 0.0206489 0)
(-0.0432429 0.0213572 3.81411e-17)
(-0.0479003 0.0220089 0)
(-0.0520007 0.0224339 -1.61257e-17)
(-0.0556408 0.0227243 0)
(-0.0589269 0.0228545 0)
(-0.0618933 0.0228541 0)
(-0.0645945 0.0227333 0)
(-0.0670534 0.0224778 0)
(-0.0692814 0.0221012 6.66245e-21)
(-0.0712991 0.0216148 0)
(-0.073123 0.0210102 -5.01127e-21)
(-0.0747569 0.0202754 -9.90558e-18)
(-0.0761995 0.0194072 -9.55878e-18)
(-0.077445 0.0184019 -9.24394e-18)
(-0.0784848 0.0172558 0)
(-0.0793071 0.0159709 -1.30877e-17)
(-0.0798994 0.0145488 4.99149e-23)
(-0.0802468 0.0129884 -4.16274e-18)
(-0.0803312 0.0112917 0)
(-0.0801322 0.00946528 0)
(-0.0796296 0.00751825 0)
(-0.0788027 0.00546151 3.91967e-18)
(-0.0776308 0.00330837 -1.944e-18)
(-0.0760929 0.00107329 -1.93238e-18)
(-0.0741667 -0.00123166 0)
(-0.0718273 -0.00360065 9.52374e-19)
(-0.069049 -0.00603487 -2.37211e-19)
(-0.065808 -0.00853744 2.36919e-19)
(-0.0620804 -0.0111074 -9.48765e-19)
(-0.0578389 -0.0137393 0)
(-0.0530539 -0.0164238 1.91493e-18)
(-0.0476942 -0.0191479 1.92994e-18)
(-0.0417276 -0.0218959 -5.84484e-18)
(-0.0351216 -0.0246477 0)
(-0.027844 -0.0273798 0)
(-0.0198631 -0.030066 0)
(-0.0111479 -0.0326774 4.12533e-18)
(-0.001669 -0.0351834 5.68037e-21)
(0.00860062 -0.0375528 0)
(0.0196881 -0.0397549 0)
(0.031619 -0.0417554 0)
(0.0444175 -0.0435183 1.71644e-17)
(0.0581065 -0.0450111 0)
(0.0727089 -0.0462001 8.67544e-18)
(0.0882465 -0.0470497 0)
(0.104744 -0.0475304 0)
(0.122223 -0.0476105 0)
(0.140713 -0.0472593 8.7995e-18)
(0.160242 -0.0464504 0)
(0.180847 -0.0451519 0)
(0.202578 -0.043336 0)
(0.225495 -0.0409873 0)
(0.249664 -0.0380878 0)
(0.275167 -0.0346205 -1.71623e-17)
(0.302108 -0.0305698 9.48351e-20)
(0.330614 -0.0259156 0)
(0.360848 -0.0206385 -1.61603e-17)
(0.393007 -0.0147165 0)
(0.427349 -0.00812401 -1.49876e-17)
(0.464167 -0.000832744 1.40412e-17)
(0.503915 0.00718512 1.65978e-19)
(0.546882 0.0159228 -1.20654e-17)
(0.594512 0.0253368 -1.04607e-17)
(0.64505 0.0351241 1.77063e-17)
(0.707689 0.0447139 6.86092e-18)
(0.759636 0.0520857 0)
(0.866612 0.0504153 -2.77786e-18)
(0.969656 0.2134 -1.19642e-17)
(0.979022 0.206596 -1.3138e-17)
(0.985135 0.204765 0)
(0.927687 0.189698 -1.51022e-17)
(0.772253 0.154619 0)
(0.541791 0.105358 0)
(0.314847 0.0587445 -3.37488e-17)
(0.167071 0.032277 4.42911e-17)
(0.0930979 0.0231281 0)
(0.0531942 0.0202647 -5.56601e-17)
(0.0299624 0.0201091 7.99669e-17)
(0.0134177 0.0201609 -2.529e-17)
(0.00176029 0.0206702 0)
(-0.00705197 0.0211253 2.10944e-17)
(-0.0138709 0.0216742 0)
(-0.0194238 0.0220027 1.72908e-17)
(-0.0240126 0.022242 0)
(-0.0278932 0.0223194 0)
(-0.0311894 0.0222723 0)
(-0.0340157 0.0221142 0)
(-0.0364409 0.021817 0)
(-0.0385072 0.0214002 -1.15489e-17)
(-0.040263 0.0208807 0)
(-0.0417461 0.0202461 1.04964e-17)
(-0.0429762 0.0194795 0)
(-0.0439664 0.018577 9.67856e-18)
(-0.0447213 0.0175342 0)
(-0.0452433 0.0163448 -4.52387e-18)
(-0.0455292 0.0150108 8.78256e-18)
(-0.0455731 0.0135335 -4.27573e-18)
(-0.0453662 0.01191 4.17676e-18)
(-0.044896 0.0101405 4.09344e-18)
(-0.0441455 0.00823119 0)
(-0.0430979 0.00619102 0)
(-0.0417349 0.00403089 0)
(-0.0400377 0.0017637 -1.94161e-18)
(-0.037987 -0.000596124 9.61776e-19)
(-0.0355622 -0.0030373 0)
(-0.0327419 -0.00555436 0)
(-0.0295038 -0.00814772 0)
(-0.0258268 -0.0108197 0)
(-0.0216889 -0.0135701 0)
(-0.0170654 -0.0163949 0)
(-0.0119291 -0.0192855 -9.45568e-19)
(-0.00625206 -0.0222288 1.90458e-18)
(-5.3543e-06 -0.0252091 1.17003e-21)
(0.00683957 -0.0282056 0)
(0.0143109 -0.0311936 0)
(0.0224367 -0.0341457 -3.85675e-18)
(0.0312439 -0.0370317 -3.87334e-18)
(0.0407587 -0.0398195 3.89095e-18)
(0.0510044 -0.0424761 0)
(0.0620056 -0.0449705 0)
(0.0737847 -0.0472661 -3.95639e-18)
(0.0863636 -0.0493247 -7.97318e-18)
(0.0997627 -0.0511129 0)
(0.114003 -0.0525967 8.06857e-18)
(0.129105 -0.0537391 0)
(0.145093 -0.0545104 -8.16126e-18)
(0.161987 -0.0548787 0)
(0.179819 -0.0548131 0)
(0.198613 -0.0542878 0)
(0.218413 -0.0532768 0)
(0.239272 -0.0517551 -8.23419e-18)
(0.26125 -0.0497071 8.1995e-18)
(0.284422 -0.0471193 0)
(0.308876 -0.0439782 8.05527e-18)
(0.334724 -0.0402737 2.38834e-17)
(0.362105 -0.0359921 -7.77589e-18)
(0.391185 -0.0311187 -7.57111e-18)
(0.422169 -0.0256383 0)
(0.455324 -0.0195362 0)
(0.490948 -0.0127957 -2.65549e-17)
(0.529513 -0.00540725 1.24109e-17)
(0.571309 0.00260537 0)
(0.617702 0.0111984 1.96939e-17)
(0.66706 0.0199564 -8.2862e-18)
(0.72784 0.0285383 -6.49702e-18)
(0.778452 0.0344527 0)
(0.879701 0.0339201 5.22212e-18)
(0.96983 0.214672 1.33521e-17)
(0.96685 0.205047 1.36437e-17)
(0.979164 0.204765 0)
(0.98004 0.2028 0)
(0.925781 0.188723 0)
(0.792942 0.157819 0)
(0.597824 0.114395 2.20469e-17)
(0.397586 0.0719992 -2.79413e-17)
(0.254178 0.0436424 -1.72355e-17)
(0.165561 0.0293984 0)
(0.114549 0.0249511 -2.14314e-17)
(0.0822218 0.0229851 2.17037e-17)
(0.0607215 0.0223295 -2.10154e-17)
(0.0451695 0.022012 -1.99998e-17)
(0.0337434 0.0220848 -1.88763e-17)
(0.0249468 0.0220638 0)
(0.0180402 0.0220874 0)
(0.0125048 0.0219839 0)
(0.00803182 0.0217929 0)
(0.00440047 0.0215221 0)
(0.00145589 0.0211183 1.31576e-17)
(-0.000906459 0.0206083 0)
(-0.00278343 0.0200129 5.89187e-18)
(-0.00424573 0.0193124 0)
(-0.00533831 0.0184832 0)
(-0.00609898 0.0175208 0)
(-0.00654803 0.0164195 -4.92235e-18)
(-0.00670649 0.0151711 4.7435e-18)
(-0.00658551 0.0137753 -4.59375e-18)
(-0.00618899 0.0122336 0)
(-0.00551657 0.0105404 4.3554e-18)
(-0.00456555 0.0086939 -4.25462e-18)
(-0.00332488 0.00669932 0)
(-0.00178357 0.00456531 0)
(7.20764e-05 0.00230261 0)
(0.00225573 -7.69272e-05 1.9951e-18)
(0.00478364 -0.00255884 -9.78878e-19)
(0.00767234 -0.00513202 0)
(0.0109397 -0.00779108 0)
(0.0146048 -0.0105361 -1.17044e-19)
(0.0186864 -0.0133691 1.15833e-19)
(0.0232043 -0.0162904 0)
(0.0281809 -0.0192975 0)
(0.03364 -0.0223818 9.09151e-19)
(0.0396062 -0.0255302 -1.81371e-18)
(0.046104 -0.0287262 1.81214e-18)
(0.0531569 -0.0319486 0)
(0.0607883 -0.0351712 0)
(0.0690217 -0.038366 3.64755e-18)
(0.0778798 -0.0415016 -3.66446e-18)
(0.0873843 -0.0445443 0)
(0.0975546 -0.0474597 0)
(0.108413 -0.0502166 0)
(0.119976 -0.0527766 3.7661e-18)
(0.132264 -0.0550994 3.79454e-18)
(0.145294 -0.057151 0)
(0.159084 -0.0588978 -3.86151e-18)
(0.173655 -0.0603019 3.88455e-18)
(0.189031 -0.0613334 7.83145e-18)
(0.205227 -0.0619604 0)
(0.222278 -0.0621547 0)
(0.240215 -0.0618933 0)
(0.25908 -0.061151 0)
(0.278929 -0.0599076 7.96945e-18)
(0.299823 -0.0581497 -7.9473e-18)
(0.321841 -0.0558671 0)
(0.34508 -0.0530501 -7.82635e-18)
(0.369659 -0.0496923 -7.71706e-18)
(0.395724 -0.0457878 7.56757e-18)
(0.423454 -0.0413301 1.47032e-17)
(0.453066 -0.0363121 7.0805e-18)
(0.484836 -0.0307245 0)
(0.519072 -0.0245635 1.92689e-17)
(0.556252 -0.0178326 5.92449e-18)
(0.596654 -0.0105675 0)
(0.641606 -0.0028124 -9.5168e-18)
(0.689549 0.00495004 0)
(0.748345 0.0126146 -3.01644e-18)
(0.797344 0.0173599 3.43925e-18)
(0.893751 0.0181741 -2.51589e-18)
(0.971786 0.216749 -1.37588e-17)
(0.96335 0.20551 7.26614e-18)
(0.965174 0.201995 7.45155e-18)
(0.97843 0.202664 -7.43673e-18)
(0.979303 0.20079 7.43973e-18)
(0.936115 0.189131 0)
(0.83084 0.163536 -8.60993e-18)
(0.670431 0.126597 0)
(0.496654 0.0878951 -1.26354e-19)
(0.352776 0.0568582 0)
(0.25494 0.0398402 0)
(0.1919 0.0318076 0)
(0.151026 0.028003 1.77145e-17)
(0.122638 0.025661 0)
(0.102455 0.024462 1.7059e-17)
(0.0873217 0.0235588 1.643e-17)
(0.0758039 0.0229954 7.82603e-18)
(0.06682 0.0224505 0)
(0.0597411 0.0219151 -7.06038e-18)
(0.0541622 0.0213716 0)
(0.0497685 0.0207341 -1.26927e-17)
(0.046334 0.0200316 -6.05421e-18)
(0.0436826 0.0192787 -5.7554e-18)
(0.0416888 0.0184423 5.50992e-18)
(0.0402655 0.0174898 0)
(0.0393387 0.016416 -5.05991e-18)
(0.0388564 0.0152138 9.7216e-18)
(0.0387699 0.0138719 0)
(0.039045 0.0123857 0)
(0.0396629 0.0107549 0)
(0.0406118 0.00897219 -2.12949e-18)
(0.041878 0.00703328 0)
(0.0434634 0.00494093 0)
(0.0453692 0.00270368 -1.99599e-18)
(0.0476015 0.000332009 0)
(0.0501654 -0.00216384 0)
(0.0530716 -0.00476957 0)
(0.0563305 -0.00747423 0)
(0.0599561 -0.0102733 0)
(0.0639639 -0.0131668 2.24674e-19)
(0.0683702 -0.0161567 -2.22362e-19)
(0.0731921 -0.0192439 0)
(0.0784492 -0.0224267 0)
(0.0841618 -0.0256965 0)
(0.0903496 -0.0290392 0)
(0.0970322 -0.0324377 0)
(0.104226 -0.0358693 1.74586e-18)
(0.11195 -0.0393076 0)
(0.120221 -0.0427238 0)
(0.129058 -0.0460849 1.76603e-18)
(0.138475 -0.0493562 0)
(0.14849 -0.0525025 0)
(0.159122 -0.0554923 0)
(0.170379 -0.058286 -3.65081e-18)
(0.182283 -0.0608432 -3.68471e-18)
(0.194848 -0.0631299 -3.71982e-18)
(0.208092 -0.0651109 -1.22744e-21)
(0.222028 -0.0667467 -3.79142e-18)
(0.236677 -0.068009 3.82072e-18)
(0.25206 -0.0688692 -3.85017e-18)
(0.268206 -0.069296 0)
(0.285149 -0.0692709 0)
(0.30293 -0.0687738 0)
(0.321602 -0.0677861 0)
(0.341236 -0.066299 0)
(0.361919 -0.0643079 0)
(0.383758 -0.0618094 -7.67789e-18)
(0.406881 -0.0588012 0)
(0.431445 -0.0552807 0)
(0.45764 -0.0512476 -3.68934e-20)
(0.485697 -0.0467052 -7.02936e-18)
(0.515897 -0.0416524 0)
(0.548555 -0.0360942 -1.26471e-17)
(0.584149 -0.0300437 -5.88837e-18)
(0.622955 -0.0235462 0)
(0.666276 -0.0166391 4.61197e-18)
(0.712593 -0.00983925 0)
(0.769301 -0.00302002 5.27381e-20)
(0.816522 0.000767391 -3.40923e-18)
(0.908739 0.00297478 -1.19419e-18)
(0.973247 0.218424 0)
(0.965361 0.207417 -1.50922e-17)
(0.958855 0.201101 -1.55329e-17)
(0.963813 0.199177 7.73888e-18)
(0.977203 0.199686 -7.59734e-18)
(0.981214 0.198359 0)
(0.953288 0.189848 7.67882e-18)
(0.877389 0.170434 0)
(0.753566 0.140028 9.10083e-18)
(0.607514 0.106255 0)
(0.46999 0.0759718 -5.94357e-18)
(0.364676 0.0540564 6.61974e-18)
(0.291287 0.0417399 -7.0638e-18)
(0.23968 0.0351786 -7.37984e-18)
(0.203153 0.0312882 -7.40481e-18)
(0.176423 0.028305 -1.45903e-17)
(0.156624 0.0263458 -7.0957e-18)
(0.141326 0.0248037 0)
(0.129415 0.0235168 -2.77061e-20)
(0.120106 0.0223966 6.36922e-18)
(0.112791 0.0212892 0)
(0.107049 0.0202089 1.16673e-17)
(0.102581 0.0191436 -5.59992e-18)
(0.099177 0.0180371 -2.66502e-18)
(0.0966726 0.0168493 0)
(0.0949372 0.0155713 2.46014e-18)
(0.0938598 0.0141901 -2.36947e-18)
(0.0933552 0.0126886 0)
(0.0933577 0.0110558 2.22739e-18)
(0.0938211 0.00928778 0)
(0.0947149 0.0073755 -4.1925e-18)
(0.0960011 0.00531093 0)
(0.0976675 0.00309304 0)
(0.0996993 0.000729924 1.95384e-18)
(0.102091 -0.0017687 9.59454e-19)
(0.104836 -0.00439436 0)
(0.107933 -0.00713354 0)
(0.111388 -0.00997672 0)
(0.115208 -0.0129212 0)
(0.119404 -0.0159675 -1.6415e-19)
(0.123991 -0.0191174 1.62476e-19)
(0.128981 -0.0223725 0)
(0.134391 -0.0257313 0)
(0.140235 -0.0291848 0)
(0.146528 -0.0327161 0)
(0.153281 -0.0363074 -8.51606e-19)
(0.160502 -0.0399353 -1.7035e-18)
(0.168206 -0.0435734 0)
(0.176403 -0.0471927 0)
(0.185107 -0.0507611 3.46384e-18)
(0.194332 -0.0542429 0)
(0.204087 -0.0575983 0)
(0.214385 -0.0607957 1.77953e-18)
(0.225226 -0.0637956 3.59329e-18)
(0.236631 -0.0665573 0)
(0.248609 -0.0690459 1.83523e-18)
(0.261172 -0.0712277 -3.71126e-18)
(0.274331 -0.0730645 -3.74995e-18)
(0.288101 -0.0745242 -3.78625e-18)
(0.302508 -0.0755825 3.81989e-18)
(0.317574 -0.0762126 3.84525e-18)
(0.333336 -0.0763973 0)
(0.349842 -0.0761201 -3.88279e-18)
(0.367154 -0.0753687 0)
(0.385349 -0.0741374 3.88637e-18)
(0.404523 -0.0724261 -3.87055e-18)
(0.424791 -0.0702362 1.15433e-17)
(0.446293 -0.0675733 3.79112e-18)
(0.469192 -0.064442 0)
(0.493688 -0.0608473 -1.09184e-17)
(0.520015 -0.0567966 0)
(0.548465 -0.052296 0)
(0.579363 -0.0473595 3.20235e-18)
(0.613189 -0.0420074 0)
(0.650219 -0.0363004 0)
(0.691735 -0.0302557 -4.63738e-20)
(0.736236 -0.0243864 -3.7883e-18)
(0.790771 -0.0183603 2.97002e-18)
(0.836121 -0.0153841 0)
(0.924634 -0.0118258 2.38182e-18)
(0.973856 0.219506 0)
(0.968433 0.209607 7.82657e-18)
(0.96008 0.202372 8.04573e-18)
(0.956176 0.197693 0)
(0.961983 0.195699 4.02478e-18)
(0.974742 0.195666 0)
(0.983002 0.194935 0)
(0.970916 0.189652 0)
(0.923808 0.176188 0)
(0.838901 0.153865 0)
(0.723771 0.125535 4.59944e-18)
(0.601712 0.0972458 -5.0288e-18)
(0.493764 0.072903 2.69054e-18)
(0.410499 0.0556245 5.84493e-18)
(0.349756 0.0453613 6.06386e-18)
(0.30432 0.0389848 3.13204e-18)
(0.270251 0.034675 0)
(0.2441 0.0310714 0)
(0.224044 0.0281477 6.03844e-18)
(0.208415 0.0258335 -5.87657e-18)
(0.19599 0.0238314 0)
(0.186106 0.022038 -5.52325e-18)
(0.178294 0.0203752 8.02441e-18)
(0.172191 0.0187609 -5.17091e-18)
(0.167497 0.0171424 0)
(0.163985 0.0154978 2.40581e-18)
(0.161464 0.0138004 -2.32593e-18)
(0.159793 0.0120251 0)
(0.158865 0.0101464 -2.18352e-18)
(0.158591 0.00815552 0)
(0.158904 0.00603998 2.06488e-18)
(0.159745 0.00378621 -1.01181e-18)
(0.161073 0.00138988 0)
(0.162848 -0.00114329 0)
(0.16505 -0.00380573 -9.41059e-19)
(0.167652 -0.00659143 0)
(0.170642 -0.00948871 0)
(0.174015 -0.0124916 2.22208e-19)
(0.177771 -0.0156 -1.09457e-19)
(0.181917 -0.0188157 5.38561e-20)
(0.18646 -0.0221405 -5.33297e-20)
(0.191409 -0.0255762 1.06238e-19)
(0.196775 -0.029122 -2.11349e-19)
(0.202566 -0.0327681 0)
(0.208791 -0.0364945 0)
(0.21545 -0.0402799 1.26136e-18)
(0.222541 -0.0441 0)
(0.230071 -0.0479302 0)
(0.238042 -0.0517413 8.54313e-19)
(0.246462 -0.0554979 -1.71752e-18)
(0.255336 -0.0591666 0)
(0.26467 -0.0627086 -8.76912e-19)
(0.274465 -0.0660892 -2.65457e-18)
(0.284719 -0.0692684 0)
(0.295444 -0.0722047 1.81257e-18)
(0.306641 -0.0748643 3.66522e-18)
(0.318316 -0.0772124 0)
(0.330491 -0.079215 5.62485e-18)
(0.343178 -0.0808426 0)
(0.356403 -0.082072 0)
(0.370196 -0.082878 -3.8651e-18)
(0.384599 -0.0832463 0)
(0.399662 -0.0831662 3.91956e-18)
(0.415452 -0.0826313 0)
(0.432052 -0.0816428 -3.93912e-18)
(0.449562 -0.0802048 5.89082e-18)
(0.468101 -0.0783237 -3.90603e-18)
(0.487815 -0.0760084 -5.78818e-18)
(0.50888 -0.0732694 0)
(0.531503 -0.0701183 3.70751e-18)
(0.55593 -0.0665696 -3.57115e-18)
(0.582461 -0.0626361 0)
(0.611429 -0.0583393 1.82108e-20)
(0.643318 -0.0537027 -2.98256e-18)
(0.678405 -0.0487964 -2.69164e-18)
(0.71796 -0.0436284 -7.08886e-18)
(0.760484 -0.038672 3.88451e-18)
(0.81278 -0.0334072 0)
(0.856207 -0.0311483 0)
(0.941391 -0.0263402 -1.79028e-18)
(0.974005 0.220194 0)
(0.970473 0.211412 0)
(0.963768 0.204427 0)
(0.956997 0.198658 -1.06235e-18)
(0.954462 0.194126 -4.18106e-18)
(0.959277 0.191478 0)
(0.970544 0.190594 1.00905e-18)
(0.982113 0.190043 0)
(0.982816 0.186928 0)
(0.961661 0.178656 9.74048e-19)
(0.911761 0.163975 0)
(0.833762 0.142981 -1.05992e-18)
(0.73727 0.118783 3.35388e-18)
(0.638095 0.0955362 1.19776e-18)
(0.550392 0.0754547 -1.25198e-18)
(0.480061 0.0599872 -1.27608e-18)
(0.426366 0.0497825 0)
(0.385038 0.0429968 0)
(0.352376 0.0380537 0)
(0.326454 0.0339313 0)
(0.305691 0.0302237 0)
(0.289152 0.0269781 0)
(0.275957 0.0241499 -2.51115e-18)
(0.265412 0.0216146 1.83205e-18)
(0.256991 0.0192477 -6.00142e-19)
(0.250349 0.0169745 0)
(0.245196 0.0147368 0)
(0.241311 0.0124944 0)
(0.238519 0.0102024 -5.3814e-19)
(0.236678 0.00784253 0)
(0.235666 0.00539957 0)
(0.23539 0.00285137 9.96195e-19)
(0.235771 0.000185374 0)
(0.236734 -0.0025928 0)
(0.238228 -0.00548351 2.3399e-19)
(0.240214 -0.008487 0)
(0.242663 -0.0115934 0)
(0.245558 -0.0148027 -2.19584e-19)
(0.248891 -0.0181186 5.38503e-20)
(0.252657 -0.0215429 0)
(0.256855 -0.0250774 0)
(0.261483 -0.0287245 -5.24482e-20)
(0.266542 -0.0324828 2.09947e-19)
(0.272029 -0.0363384 0)
(0.277938 -0.0402683 0)
(0.284258 -0.0442528 -4.19606e-19)
(0.290979 -0.048268 0)
(0.2981 -0.0522878 0)
(0.305609 -0.0562837 -8.52925e-19)
(0.31351 -0.0602212 0)
(0.32179 -0.0640606 0)
(0.330441 -0.0677619 8.78198e-19)
(0.339465 -0.0712967 8.88271e-19)
(0.348871 -0.0746284 0)
(0.358657 -0.0777144 -2.27859e-18)
(0.368833 -0.0805208 -1.84652e-18)
(0.379405 -0.0830121 -4.68529e-19)
(0.390389 -0.0851561 -1.89685e-18)
(0.401799 -0.0869249 0)
(0.413661 -0.088298 0)
(0.426005 -0.0892573 0)
(0.438873 -0.0897918 0)
(0.452317 -0.0898951 9.99584e-19)
(0.466406 -0.0895655 -1.00475e-18)
(0.481228 -0.0888081 -1.0071e-18)
(0.496889 -0.087633 -2.01636e-18)
(0.51352 -0.086053 1.00087e-18)
(0.531274 -0.0840832 2.97808e-18)
(0.550336 -0.0817397 -9.74995e-19)
(0.570922 -0.0790399 9.52453e-19)
(0.59329 -0.0760047 3.70269e-18)
(0.617746 -0.0726524 0)
(0.644631 -0.0690118 3.34696e-18)
(0.674433 -0.0651085 3.10117e-18)
(0.707434 -0.0610165 2.79959e-18)
(0.744886 -0.0567306 3.05126e-18)
(0.785309 -0.0526843 -4.97214e-19)
(0.835314 -0.0481702 0)
(0.876793 -0.0465783 2.17935e-19)
(0.958954 -0.0406624 6.08042e-19)
(0.974053 0.22069 0)
(0.971431 0.212738 0)
(0.966628 0.206225 0)
(0.96086 0.200508 2.19479e-18)
(0.955658 0.195064 0)
(0.953284 0.190271 0)
(0.956129 0.186733 -2.11748e-18)
(0.964967 0.184699 0)
(0.97692 0.18331 0)
(0.985592 0.181278 -1.95496e-18)
(0.983281 0.176961 0)
(0.96304 0.168581 1.93807e-18)
(0.921425 0.155301 -1.97712e-18)
(0.859422 0.137632 -2.04318e-18)
(0.783343 0.117607 2.11876e-18)
(0.70416 0.0981535 -2.20456e-18)
(0.630422 0.0807723 0)
(0.568728 0.06631 0)
(0.518902 0.055153 0)
(0.479694 0.047171 0)
(0.448128 0.0412463 0)
(0.422374 0.0364768 0)
(0.401236 0.0322452 0)
(0.383881 0.0283328 1.14707e-18)
(0.369654 0.0246733 1.12922e-18)
(0.358109 0.0212583 0)
(0.34878 0.0180493 0)
(0.341325 0.0149917 0)
(0.335464 0.0120036 1.04468e-18)
(0.330973 0.00904115 0)
(0.327663 0.00607237 0)
(0.325383 0.0030585 0)