/*--------------------------------*- C++ -*----------------------------------*\
| =========                 |                                                 |
| \\      /  F ield         | OpenFOAM: The Open Source CFD Toolbox           |
|  \\    /   O peration     | Version:  v1912                                 |
|   \\  /    A nd           | Website:  www.openfoam.com                      |
|    \\/     M anipulation  |                                                 |
\*---------------------------------------------------------------------------*/
FoamFile
{
    version     2.0;
    format      ascii;
    class       volScalarField;
    location    "570";
    object      epsilon;
}
// * * * * * * * * * * * * * * * * * * * * * * * * * * * * * * * * * * * * * //

dimensions      [0 2 -3 0 0 0 0];


internalField   nonuniform List<scalar> 
12441
(
0.0102964
0.009085
0.00832709
0.00770261
0.00718363
0.00674889
0.00638214
0.00607064
0.00580467
0.00557602
0.00537864
0.00520654
0.00505123
0.00491805
0.00480495
0.00469517
0.00490303
0.0206741
0.279856
3.06076
20.9489
39.25
0.010119
0.00892018
0.00818402
0.00757689
0.00707191
0.00664861
0.00629128
0.00598763
0.00572832
0.00550534
0.00531289
0.00514505
0.00499301
0.00486345
0.00475391
0.00464904
0.00482012
0.0204209
0.263486
3.05272
21.2385
40.2318
0.00989693
0.00871742
0.00800035
0.00740911
0.00691749
0.0065055
0.00615788
0.00586263
0.00561069
0.00539427
0.00520777
0.00504542
0.0048985
0.00477397
0.00466974
0.004569
0.00465589
0.0184867
0.22276
3.02095
21.6169
41.3784
0.00967334
0.00851377
0.00781498
0.00723887
0.00675992
0.00635864
0.00602016
0.00573282
0.00548779
0.00527752
0.00509658
0.00493942
0.00479763
0.0046782
0.00457847
0.00448462
0.00450792
0.0161653
0.183242
2.99739
22.084
42.5504
0.00942911
0.00828915
0.00760909
0.00704863
0.00658285
0.00619282
0.00586403
0.00558517
0.00534765
0.00514414
0.00496941
0.00481811
0.0046819
0.00456812
0.0044745
0.00438644
0.00435647
0.0140755
0.162921
3.00352
22.6024
43.6698
0.00922314
0.00809953
0.00743468
0.00688684
0.00643163
0.00605052
0.00572933
0.00545701
0.00522518
0.00502668
0.00485644
0.00470928
0.00457729
0.00446781
0.00437783
0.00429566
0.00428192
0.014145
0.182212
3.11051
23.2358
44.7472
0.00900247
0.00789593
0.00724754
0.00671342
0.00626979
0.00589855
0.00558586
0.00532097
0.00509569
0.00490308
0.00473822
0.00459609
0.00446881
0.00436486
0.00427817
0.00420234
0.00603095
0.0231465
0.288275
3.41434
24.0867
45.7945
0.00882402
0.00773127
0.00709572
0.0065722
0.00613741
0.00577357
0.00546715
0.00520759
0.00498689
0.00479824
0.00463686
0.00449788
0.00437406
0.0042745
0.00419514
0.00516206
0.0341432
0.0790814
0.604068
4.05842
25.2827
46.8732
0.00862987
0.00755207
0.00693103
0.00641964
0.00599506
0.00563993
0.00534101
0.00508799
0.00487304
0.00468955
0.00453283
0.00439822
0.00427888
0.00414551
0.00539451
0.0266869
0.17099
0.29256
1.29612
5.19943
26.9604
48.0153
0.00847519
0.00740918
0.00679913
0.00629678
0.00587971
0.00553086
0.00523721
0.00498865
0.0047775
0.00459726
0.00444337
0.00431146
0.00419431
0.00427137
0.0248791
0.143373
0.492528
0.761732
2.38152
6.89826
29.2191
49.2846
0.00830574
0.00725271
0.0066554
0.00616369
0.00575558
0.00541437
0.00512729
0.00488445
0.00467832
0.00450255
0.00435268
0.00422551
0.00407908
0.00942725
0.108413
0.393128
0.92683
1.41326
3.63034
9.04404
32.0859
50.6975
0.00817073
0.00712801
0.00654026
0.00605639
0.00565478
0.00531896
0.00503639
0.00479734
0.00459443
0.00442139
0.00427388
0.00415041
0.00415462
0.0468672
0.287991
0.691418
1.31317
2.04105
4.7809
11.4083
35.5035
52.295
0.00802158
0.00699034
0.00641395
0.00593955
0.00554592
0.0052169
0.00494017
0.0047062
0.00450772
0.00433861
0.00419459
0.00403753
0.00830375
0.151224
0.498919
0.932191
1.58929
2.52813
5.72569
13.7677
39.3558
54.0597
0.0079007
0.00687871
0.00631086
0.00584349
0.00545566
0.00513147
0.00485878
0.00462821
0.00443261
0.00426597
0.00412407
0.00388199
0.0357193
0.293844
0.665413
1.09482
1.77287
2.87466
6.47252
15.9733
43.4992
56.0037
0.00776929
0.00675735
0.00619954
0.00574053
0.00535973
0.00504153
0.00477397
0.00454784
0.00435612
0.00419288
0.00405399
0.00425656
0.103134
0.420745
0.779293
1.20209
1.89608
3.11926
7.06449
17.9547
47.7958
58.0812
0.00766023
0.00665667
0.00610658
0.00565391
0.00527835
0.0049645
0.0047006
0.00447755
0.00428843
0.00412744
0.00399054
0.00934561
0.190913
0.513959
0.855593
1.27514
1.98209
3.29717
7.54364
19.694
52.126
60.2902
0.00754428
0.0065496
0.00600844
0.00556318
0.00519385
0.00488527
0.00462586
0.00440668
0.0042209
0.00406283
0.0039289
0.0308338
0.271423
0.579247
0.908564
1.32727
2.04507
3.43256
7.94225
21.2019
56.4006
62.571
0.00744277
0.00645602
0.00592214
0.00548288
0.00511853
0.00481413
0.00455823
0.00434204
0.00415883
0.00400298
0.00387365
0.0735564
0.334184
0.625609
0.947138
1.36629
2.09349
3.54084
8.28323
22.5002
60.5563
64.9213
0.00734014
0.00636111
0.00583507
0.00540232
0.00504341
0.00474358
0.00449158
0.00427871
0.00409836
0.00394501
0.00380955
0.123746
0.380532
0.659895
0.976604
1.39686
2.13253
3.63174
8.58233
23.614
64.5575
67.2818
0.00724551
0.00627397
0.00575477
0.00532767
0.00497348
0.00467762
0.00442898
0.004219
0.00404113
0.00388996
0.0042698
0.169026
0.414878
0.68642
1.00011
1.42184
2.1655
3.71144
8.85016
24.5673
68.3881
69.6617
0.00715527
0.00619045
0.00567814
0.0052567
0.00490719
0.00461524
0.0043699
0.00416269
0.00398718
0.0038381
0.00973988
0.20596
0.441157
0.707826
1.01962
1.44309
2.1946
3.78384
9.0937
25.3816
72.0518
72.0102
0.00706451
0.00610703
0.00560144
0.00518561
0.00484082
0.00455288
0.00431096
0.00410672
0.00393379
0.00378747
0.026719
0.23521
0.462081
0.725749
1.03641
1.46186
2.22134
3.85134
9.31749
26.0758
75.5661
74.3523
0.0069852
0.00603342
0.00553372
0.00512269
0.00478185
0.00449718
0.00425798
0.00405601
0.00388499
0.00374239
0.0530121
0.258466
0.479392
0.741244
1.05133
1.47901
2.24679
3.91522
9.52437
26.6667
78.9641
76.6493
0.00689871
0.00595403
0.00546084
0.00505527
0.00471905
0.00443833
0.00420254
0.00400353
0.00383511
0.00370255
0.0802436
0.277286
0.494204
0.755021
1.06501
1.49519
2.27165
3.97613
9.71617
27.1689
82.2889
78.9445
0.00683043
0.00589052
0.0054023
0.00500071
0.0046677
0.00438956
0.00415587
0.00395855
0.00379154
0.00368387
0.10391
0.292924
0.507238
0.767576
1.07788
1.51083
2.29632
4.03432
9.89413
27.5954
85.5972
81.212
0.00674474
0.00581215
0.00533066
0.00493478
0.00460666
0.00433275
0.00410272
0.00390863
0.00374445
0.00364425
0.123453
0.306291
0.518979
0.779268
1.09025
1.52624
2.32095
4.08993
10.0592
27.9576
88.9533
83.5114
0.00668558
0.00575681
0.00527937
0.00488666
0.00456102
0.00428907
0.00406061
0.00386775
0.00370463
0.00383168
0.139693
0.318024
0.529762
0.790356
1.10236
1.5416
2.3455
4.14307
10.212
28.2654
92.4309
85.8273
0.00660187
0.00568039
0.00520968
0.00482273
0.00450207
0.00423445
0.00400975
0.00382021
0.00366008
0.00571425
0.153545
0.328557
0.539825
0.801031
1.11434
1.55697
2.36987
4.19384
10.3534
28.5272
96.1059
88.2307
0.00655218
0.00563365
0.00516609
0.0047815
0.00446259
0.00419625
0.00397251
0.00378366
0.00362448
0.0107914
0.165697
0.338192
0.549342
0.811426
1.12628
1.57237
2.39394
4.2424
10.484
28.7502
100.055
90.7106
0.0064681
0.00555723
0.00509676
0.0047183
0.00440472
0.00414306
0.00392339
0.00373813
0.00358306
0.0196513
0.176604
0.347137
0.558442
0.821632
1.13821
1.58775
2.41759
4.28885
10.6046
28.9401
104.35
93.3406
0.00642586
0.00551706
0.0050589
0.00468205
0.00436958
0.00410864
0.00388947
0.00370452
0.0035519
0.0318096
0.186555
0.355543
0.567216
0.831705
1.15013
1.60305
2.44075
4.33331
10.7158
29.1023
109.05
96.1058
0.00634341
0.00544225
0.0049912
0.00462053
0.00431347
0.00405729
0.00384228
0.00366099
0.00351597
0.0459604
0.195738
0.363519
0.575733
0.841675
1.16202
1.61821
2.46335
4.37586
10.8184
29.241
114.203
99.0732
0.00630971
0.00540987
0.0049603
0.00459048
0.00428381
0.0040277
0.00381259
0.00363108
0.00349477
0.0607519
0.20428
0.371147
0.584037
0.851552
1.17385
1.63319
2.48536
4.41656
10.9131
29.3607
119.843
102.217
0.00622525
0.00533361
0.0048917
0.00452861
0.00422787
0.00397701
0.00376648
0.00358899
0.00347356
0.075182
0.212272
0.378484
0.592158
0.861333
1.18558
1.64792
2.50674
4.45543
11.0004
29.4655
125.991
105.592
0.00619839
0.0053073
0.00486605
0.00450306
0.00420205
0.00395068
0.00373957
0.00356149
0.00347798
0.0886875
0.219782
0.385574
0.600111
0.871004
1.19716
1.66238
2.52746
4.49247
11.0812
29.5594
132.66
109.157
0.00611142
0.0052292
0.00479623
0.00444053
0.00414596
0.00390027
0.00369413
0.00352037
0.0035459
0.100994
0.226858
0.392445
0.607902
0.880547
1.20857
1.67652
2.54749
4.52765
11.156
29.6461
139.855
112.957
0.00608785
0.00520583
0.00477308
0.00441708
0.00412188
0.00387538
0.00366842
0.00349389
0.0061108
0.111989
0.233535
0.399116
0.615528
0.889938
1.21976
1.69031
2.56679
4.56091
11.2255
29.7283
147.576
116.938
0.00599588
0.00512383
0.00470028
0.00435236
0.00406427
0.00382403
0.00362249
0.00345267
0.0237018
0.121581
0.239832
0.405597
0.622979
0.899153
1.23071
1.70372
2.58533
4.59217
11.2904
29.8078
155.809
121.137
0.00596755
0.00509635
0.00467357
0.00432577
0.0040374
0.00379668
0.00359465
0.00342487
0.0414853
0.129582
0.245762
0.411889
0.630242
0.908162
1.24138
1.71671
2.60307
4.62135
11.3513
29.885
164.5
125.495
0.00586289
0.00500346
0.00459146
0.00425313
0.00397309
0.00373968
0.003544
0.00338444
0.0506244
0.136055
0.251331
0.41799
0.6373
0.916935
1.25173
1.72926
2.61996
4.64833
11.4088
29.9591
173.516
130.045
0.00582128
0.00496399
0.00455389
0.00421666
0.00393723
0.00370418
0.00350882
0.00333511
0.0554365
0.141258
0.256546
0.42389
0.644134
0.92544
1.26173
1.74133
2.63595
4.67302
11.4634
30.0286
182.589
134.727
0.00569966
0.00485646
0.00445888
0.00413237
0.00386223
0.00363729
0.00344903
0.00328046
0.0582551
0.14546
0.261415
0.429577
0.650723
0.93364
1.27135
1.75288
2.65097
4.69535
11.5151
30.0923
191.24
139.588
0.00561735
0.00478993
0.00440436
0.00408617
0.00382164
0.00360036
0.00341423
0.00346439
0.0600536
0.148881
0.265947
0.435034
0.657047
0.941498
1.28054
1.76385
2.66495
4.71526
11.5638
30.1504
198.776
144.654
0.00525495
0.00446067
0.00411245
0.00382691
0.00358971
0.00339121
0.0032239
0.00354634
0.0612668
0.151682
0.270153
0.44024
0.663087
0.948971
1.28927
1.77421
2.67783
4.73278
11.6082
30.2042
204.392
150.447
95.0235
43.8241
25.2445
20.3053
21.4521
18.9396
18.6597
16.641
15.5436
14.9346
14.1752
13.2865
13.7674
15.6051
18.4795
21.428
23.844
26.266
29.112
31.8872
34.3051
36.6506
38.5021
39.4537
39.7626
39.459
38.8474
38.1256
37.2914
35.5961
33.3605
31.7414
31.5047
25.0144
3.9846
94.6475
43.8016
25.2506
20.4426
21.7899
19.2207
18.9543
16.8683
15.7469
15.1071
14.2625
13.3666
13.8548
15.7036
18.5798
21.5348
23.9813
26.4475
29.3304
32.173
34.6989
37.1515
39.1297
40.1844
40.5443
40.2052
39.4977
38.6731
37.7789
36.028
33.7278
32.0315
31.8084
25.4324
3.99608
93.9266
43.749
25.2632
20.7224
22.4641
19.785
19.5303
17.3102
16.1478
15.4487
14.4463
13.5374
14.0391
15.8984
18.7852
21.7585
24.2577
26.825
29.8085
32.7941
35.5323
38.1806
40.4004
41.669
42.1544
41.7671
40.8726
39.8264
38.7914
36.9158
34.4816
32.626
32.4359
25.7246
4.01778
92.8104
43.6609
25.2857
21.1584
23.4655
20.6323
20.3647
17.9512
16.7384
15.9546
14.7503
13.8262
14.3441
16.2128
19.1346
22.1484
24.7313
27.4806
30.6737
33.896
36.9249
39.8273
42.3861
43.9823
44.6946
44.2779
43.1126
41.6992
40.4064
38.3132
35.6667
33.5531
33.4215
26.0013
4.05048
91.3035
43.5313
25.323
21.7615
24.7787
21.7563
21.4353
18.7817
17.5118
16.6185
15.2006
14.2656
14.8006
16.6734
19.6629
22.765
25.4889
28.5445
32.1433
35.7386
39.0934
42.2564
45.2196
47.2538
48.3263
47.9435
46.4394
44.4761
42.7505
40.3057
37.3501
34.8567
34.8159
26.3533
4.0954
89.3553
43.3548
25.3825
22.5452
26.4008
23.1593
22.7354
19.8048
18.4705
17.4423
15.8214
14.8865
15.4373
17.3015
20.3897
23.6553
26.6257
30.1838
34.5319
38.7345
42.4007
45.7506
49.1271
51.6912
53.2872
53.0601
51.1824
48.4409
46.0202
43.0214
39.6281
36.5997
36.6887
26.8564
4.15417
87.0012
43.1256
25.4754
23.5313
28.3456
24.8584
24.2766
21.0364
19.6296
18.4407
16.6388
15.7204
16.2861
18.1264
21.3311
24.8466
28.2224
32.5749
38.2403
43.4994
47.4352
50.7817
54.4842
57.6217
59.9201
60.0392
57.8139
54.0192
50.5122
46.6484
42.6357
38.8688
39.1324
27.58
4.22879
84.2135
42.8378
25.6172
24.7511
30.6388
26.8824
26.0862
22.5046
21.0166
19.6419
17.6881
16.8056
17.3934
19.2026
22.5261
26.3682
30.3422
35.8726
43.6982
50.8888
55.1293
58.125
61.9024
65.5553
68.7162
69.44
66.9929
61.834
56.6669
51.4594
46.5596
41.7808
42.2665
28.5956
4.32167
81.0699
42.4854
25.8306
26.2431
33.3095
29.2674
28.2024
24.2473
22.6699
21.0874
19.0186
18.1939
18.8275
20.6205
24.0542
28.2807
33.0582
40.207
51.2532
61.9276
66.8754
69.015
72.35
76.2665
80.3639
81.9927
79.5952
72.7671
65.122
57.8418
51.6548
45.4897
46.2409
29.9867
4.43565
77.574
42.0615
26.1463
28.0485
36.3832
32.051
30.6694
26.3107
24.6371
22.8309
20.6968
19.9525
20.6803
22.5125
26.049
30.6994
36.492
45.7157
61.0106
77.3981
84.4147
85.2408
87.2539
90.8532
95.7591
98.5619
96.6662
87.9702
76.7513
66.3262
58.2615
50.1943
51.2357
31.8598
4.57403
73.8369
41.5587
26.6061
30.2064
39.8756
35.2671
33.5333
28.7469
26.9725
24.9371
22.8074
22.1668
23.0636
25.0561
28.7105
33.8129
40.8518
52.5928
72.6761
96.799
108.808
108.719
108.328
110.598
115.832
119.903
119.114
108.657
92.6042
77.5787
66.8075
56.1405
57.4516
34.3563
4.7405
69.8857
40.9686
27.2642
32.749
43.7889
38.9431
36.8369
31.6111
29.7334
27.479
25.452
24.9375
26.1006
28.4669
32.318
37.9021
46.4543
61.1035
85.5305
117.234
137.768
139.449
136.406
136.194
140.887
145.952
146.821
135.283
113.508
92.2653
77.7632
63.6073
65.0788
37.6659
4.93899
65.8489
40.2822
28.1881
35.6972
48.1092
43.0965
40.6148
34.9565
32.9733
30.5327
28.7414
28.3778
29.9091
32.9652
37.2269
43.3476
53.7184
71.5126
98.6887
134.453
163.905
171.896
168.634
165.863
169.223
174.582
177.097
165.734
138.938
110.6
91.4686
72.8505
74.2266
42.0379
5.17315
61.7626
39.4897
29.4558
39.0551
52.806
47.7357
44.8895
38.8269
36.7373
34.1654
32.78
32.5951
34.5698
38.6939
43.8149
50.5956
63.0619
83.8392
111.468
146.319
179.908
195.802
196.701
193.628
195.968
200.85
203.896
193.642
165.255
131.417
107.719
83.9598
84.7902
47.7807
5.44539
57.7502
38.5822
31.149
42.8178
57.8355
52.8559
49.6664
43.2538
41.0552
38.4268
37.6363
37.6654
40.079
45.5669
52.2949
59.9966
74.623
97.4717
123.446
154.069
185.667
205.48
212.114
211.773
214.694
218.798
220.392
210.576
185.459
151.226
125.112
96.5872
96.2583
55.2209
5.75509
53.8399
37.5541
33.3413
46.9712
63.1442
58.4332
54.9326
48.2527
45.9378
43.336
43.3151
43.5864
46.2927
53.1027
62.3406
71.4167
87.7642
110.938
134.128
159.929
186.19
204.435
213.955
217.048
221.863
225.245
223.615
212.359
193.327
164.945
140.658
109.601
107.54
64.5663
6.09551
50.1273
36.4077
36.0842
51.4719
68.6813
64.4226
60.6552
53.8215
51.3782
48.8781
49.7355
50.2481
52.9121
60.4122
72.6731
83.6879
100.772
122.406
142.857
164.946
185.519
199.06
207.635
212.463
218.939
221.37
215.696
201.781
188.435
169.084
150.668
120.971
117.021
75.5916
6.44964
46.6135
35.1623
39.3929
56.261
74.3867
70.7512
66.7792
59.9376
57.356
55.0106
56.7445
57.4304
59.5552
66.5501
81.2676
94.5577
111.452
130.762
149.2
168.921
184.823
193.042
198.523
203.096
209.955
210.708
201.027
184.758
175.414
164.19
152.915
128.35
123.039
87.1648
6.78604
43.349
33.8662
43.2184
61.2762
80.1872
77.3119
73.2235
66.5521
63.8403
61.6798
64.1653
64.8968
65.942
71.0634
86.533
101.879
118.6
136.297
153.424
171.348
183.576
187.16
189.207
192.457
198.391
196.581
183.441
166.099
159.467
153.634
147.975
130.257
124.622
96.996
7.0585
40.3033
32.605
47.4451
66.4427
85.9971
83.9665
79.8792
73.5827
70.7883
68.8337
71.8767
72.5024
72.0648
74.2895
88.5042
105.229
122.735
140.247
156.328
172.137
181.051
180.977
180.258
182.004
186.117
181.109
165.368
148.386
143.816
140.867
138.329
126.876
121.914
102.334
7.2145
37.4893
31.4902
51.9057
71.67
91.7231
90.5586
86.6151
80.9107
78.1395
76.429
79.8418
80.2987
78.2403
77.1209
88.6152
106.029
125.494
143.942
158.722
171.579
176.993
174.066
171.531
172.015
173.797
165.397
148.101
132.607
129.767
128.045
126.601
119.7
115.925
101.566
7.21271
34.8769
30.6449
56.4022
76.8566
97.2724
96.9351
93.2904
88.3876
85.8099
84.4195
88.12
88.4882
84.9825
80.6118
88.6801
106.346
128.538
148.244
160.981
169.975
171.587
166.391
162.865
162.362
161.542
150.011
132.26
118.928
117.549
116.111
114.593
110.542
107.918
95.196
7.03992
32.4767
30.186
60.7454
81.8963
102.56
102.966
99.7707
95.8528
93.6918
92.7447
96.7533
97.333
92.8257
85.677
90.1329
107.871
133.083
153.561
163.098
167.393
165.128
158.195
154.259
152.879
149.333
135.294
118.087
107.181
106.954
105.309
103.234
100.815
98.9372
85.1836
6.71511
30.2708
30.2134
64.7922
86.6844
107.513
108.554
105.942
103.155
101.651
101.328
105.769
107.002
102.143
93.0225
93.9945
111.753
139.865
160.006
164.894
163.778
157.881
149.789
145.799
143.467
137.203
121.504
105.618
97.0852
97.6654
95.5857
92.8774
91.3528
89.6611
73.6524
6.27946
28.2673
30.8053
68.4636
91.1248
112.076
113.638
111.716
110.169
109.566
110.064
115.14
117.543
113.072
103.06
100.978
118.764
149.365
167.612
166.296
159.141
150.068
141.437
137.572
134.082
125.272
108.835
94.7692
88.3533
89.3905
86.8018
83.5764
82.5248
80.4689
62.1511
5.78115
26.4614
32.0185
71.7388
95.1411
116.209
118.192
117.04
116.811
117.335
118.874
124.825
128.903
125.538
115.895
111.662
129.56
161.889
176.339
167.338
153.699
141.973
133.34
129.617
124.727
113.721
97.4075
85.3857
80.726
81.9005
78.822
75.2563
74.4233
71.5609
51.5648
5.26333
24.8623
33.8891
74.6362
98.6874
119.898
122.219
121.892
123.037
124.897
127.713
134.808
141.04
139.414
131.33
126.394
144.742
177.668
186.076
168.144
147.817
133.915
125.647
121.931
115.433
102.747
87.2594
77.2836
73.9862
75.0358
71.5397
67.7996
67.0066
63.0559
42.2905
4.75832
23.4808
36.4328
77.1934
101.755
123.153
125.757
126.287
128.854
132.236
136.588
145.139
153.998
154.68
149.143
145.3
164.867
196.722
196.491
168.75
141.918
126.229
118.455
114.483
106.271
92.5239
78.3565
70.2732
67.9603
68.6927
64.8772
61.0856
60.1865
55.0451
34.4262
4.28669
22.3333
39.6423
79.451
104.366
126.005
128.86
130.271
134.305
139.388
145.566
155.961
167.99
171.557
169.322
168.317
190.279
218.782
207.038
169.093
136.344
119.171
111.811
107.232
97.3376
83.1762
70.6103
64.1756
62.5149
62.8094
58.7767
55.0056
53.8761
47.6102
27.9058
3.85916
21.4546
43.4803
81.4434
106.568
128.499
131.597
133.911
139.468
146.438
154.784
167.526
183.442
190.61
192.329
195.623
221.082
243.011
216.857
168.943
131.309
112.904
105.7
100.146
88.7497
74.7691
63.9002
58.8324
57.5508
57.3501
53.1922
49.4685
48.0096
40.8205
22.5844
3.47931
20.8892
47.8712
83.197
108.417
130.691
134.042
137.287
144.446
153.517
164.457
180.233
201.086
212.903
219.236
227.889
257.068
267.968
224.925
168.012
126.857
107.461
100.062
93.2086
80.626
67.3098
58.0921
54.1093
52.9974
52.2943
48.083
44.4012
42.5486
34.7239
18.2887
3.14618
20.7351
52.6932
84.7325
109.973
132.637
136.269
140.487
149.363
160.807
174.889
194.662
222.061
240.204
251.985
266.557
297.676
291.502
230.122
165.958
122.892
102.778
94.7943
86.4299
73.0704
60.759
53.0525
49.8964
48.8046
47.6274
43.4116
39.7481
37.478
29.3393
14.8456
2.85627
21.1259
57.7812
86.0689
111.296
134.399
138.348
143.609
154.369
168.546
186.506
211.654
248.097
275.286
293.601
313.643
341.431
311.034
231.548
162.543
119.202
98.6954
89.7831
79.8458
66.1563
55.0448
48.6576
46.1061
44.9382
43.3353
39.142
35.4684
32.7986
24.6556
12.0973
2.60488
22.2957
62.9423
87.2271
112.442
136.035
140.354
146.762
159.649
177.053
199.903
232.417
281.703
322.159
348.174
370.954
385.032
323.748
228.629
157.614
115.528
95.0042
84.9138
73.511
59.9216
50.0769
44.7982
42.67
41.3731
39.4019
35.2403
31.5336
28.518
20.6359
9.90717
2.38705
24.5223
67.9839
88.2312
113.463
137.606
142.366
150.078
165.443
186.772
215.935
258.703
326.368
385.629
419.273
437.241
422.296
327.26
221.328
151.203
111.611
91.4615
80.0949
67.4894
54.3672
45.7586
41.3808
39.5355
38.0902
35.808
31.6753
27.9239
24.6429
17.2245
8.16117
2.19798
28.1637
72.7421
89.1065
114.405
139.177
144.475
153.721
172.083
198.344
235.864
293.057
386.32
468.398
504.424
503.144
444.656
320.208
210.06
143.443
107.255
87.8432
75.2677
61.8401
49.4644
41.9952
38.3283
36.6622
35.0726
32.5319
28.4189
24.6255
21.1739
14.3556
6.76637
2.03331
33.4954
77.1049
89.8773
115.311
140.822
146.796
157.921
180.051
212.742
261.622
339.144
464.81
562.997
585.169
548.19
444.421
303.031
195.685
134.596
102.337
83.9614
70.4138
56.6076
45.1623
38.6996
35.5786
34.0189
32.3043
29.5501
25.4465
21.6275
18.1025
11.9598
5.64833
1.88922
40.701
81.024
90.5658
116.225
142.627
149.487
163.011
190.095
231.518
296.267
401.748
558.291
642.327
627.085
551.327
419.963
277.961
179.266
124.971
96.8308
79.7067
65.5487
51.8135
41.3971
35.7959
33.0828
31.5813
29.7687
26.8385
22.7368
18.9198
15.4118
9.96929
4.74808
1.76242
49.6321
84.5031
91.1914
117.192
144.713
152.776
169.511
203.436
257.276
344.648
484.801
646.226
669.853
607.473
510.265
377.621
248.429
161.928
114.925
90.7844
75.0402
60.7117
47.4563
38.0998
33.2199
30.8035
29.3301
27.4486
24.3735
20.2713
16.4913
13.077
8.32142
4.01932
1.65012
59.8743
87.5888
91.7723
118.271
147.25
157.027
178.282
222.194
294.558
413.714
582.632
691.184
633.286
539.798
443.761
327.714
217.745
144.617
104.801
84.3246
70.0001
55.9496
43.5125
35.2021
30.9194
28.7134
27.25
25.3265
22.1324
18.0341
14.3289
11.0684
6.9602
3.42584
1.54998
70.5911
90.3577
92.3276
119.542
150.507
162.85
190.851
250.262
351.203
508.766
663.623
668.236
554.374
455.551
373.233
278.553
188.286
128.056
94.9325
77.6299
64.6733
51.3057
39.9432
32.6396
28.8524
26.7929
25.3287
23.3851
20.0942
16.0106
12.4177
9.35321
5.83696
2.9394
1.46005
80.9187
92.9037
92.8809
121.129
154.949
171.365
210.131
295.011
438.166
614.432
677.935
589.035
463.162
376.748
310.275
234.168
161.237
112.687
85.5917
70.9173
59.1865
46.8127
36.6995
30.354
26.9855
25.0287
23.5572
21.6081
18.2399
14.1873
10.7405
7.898
4.91023
2.53799
1.37869
89.3733
95.3384
93.4663
123.245
161.451
184.815
242.101
369.199
553.946
668.515
609.741
485.66
378.62
310.919
257.463
195.338
136.983
98.764
77.006
64.4118
53.6839
42.4952
33.7293
28.2928
25.2918
23.4118
21.9289
19.9809
16.5521
12.5512
9.27847
6.67002
4.1452
2.20442
1.30454
95.1437
97.8128
94.1426
126.29
171.855
208.155
299.106
480.246
632.809
613.467
493.483
385
307.532
257.834
213.691
161.648
115.515
86.3699
69.3082
58.3178
48.3216
38.3756
30.982
26.4089
23.7481
21.9358
20.4398
18.4915
15.016
11.0893
8.01193
5.63846
3.51288
1.92526
1.23647
0.00337797
0.00250668
0.00228177
0.00217224
0.00213306
0.00213721
0.00216949
0.00357453
0.0619045
0.153411
0.273066
0.443898
0.667288
0.954093
1.29521
1.78118
2.68624
4.7438
11.6368
30.2444
206.611
160.194
0.00334455
0.00224299
0.00184408
0.00160983
0.00149059
0.00145444
0.00148782
0.00359271
0.0622182
0.154349
0.274739
0.445906
0.669428
0.956559
1.29794
1.78428
2.68984
4.74865
11.6524
30.2746
207.506
170.345
0.00354059
0.00237586
0.00188238
0.00154542
0.00132477
0.00119554
0.00116597
0.00360668
0.0624238
0.155039
0.276048
0.44735
0.670746
0.957881
1.2992
1.78553
2.69104
4.75038
11.6616
30.3059
207.551
180.034
0.00367095
0.00251739
0.00200366
0.00162958
0.0013582
0.00116765
0.00103287
0.00361691
0.062537
0.155498
0.27699
0.44822
0.671226
0.958041
1.29898
1.78491
2.68978
4.74886
11.6629
30.3388
206.809
189.131
0.0039227
0.0027638
0.00222587
0.00182127
0.00151326
0.00127923
0.00099693
0.003624
0.0625667
0.155736
0.277564
0.448508
0.670857
0.957029
1.29726
1.78238
2.68598
4.74394
11.6548
30.3737
205.324
198.094
0.00406036
0.00292966
0.00239802
0.0019912
0.00167399
0.00142381
0.000984943
0.00362841
0.0625181
0.15576
0.277765
0.44821
0.669632
0.954842
1.29402
1.77793
2.67961
4.73551
11.6361
30.4106
203.131
207.093
0.0043406
0.00320782
0.00265885
0.00223228
0.00189443
0.0016227
0.00105331
0.00363046
0.062394
0.155574
0.277594
0.447323
0.667551
0.951481
1.28928
1.77155
2.67062
4.72345
11.6055
30.4491
200.267
216.125
0.00447872
0.0033792
0.0028434
0.00242249
0.00208504
0.00180949
0.0011796
0.00363025
0.0621961
0.15518
0.27705
0.44585
0.66462
0.946956
1.28305
1.76323
2.65896
4.70767
11.5619
30.4886
196.784
225.129
0.00478415
0.00368446
0.0031339
0.00269563
0.00234022
0.00204675
0.00130406
0.00362764
0.0619247
0.154581
0.276139
0.443798
0.660852
0.941284
1.27534
1.75299
2.6446
4.68805
11.5045
30.5274
192.737
234.033
0.00490884
0.00384881
0.00331903
0.00289367
0.00254539
0.0022544
0.00139471
0.00362238
0.0615799
0.15378
0.274869
0.441177
0.656266
0.934489
1.26618
1.74083
2.62751
4.66451
11.4325
30.5634
188.187
242.753
0.00522949
0.00417105
0.0036293
0.00318914
0.00282522
0.00251857
0.00150879
0.00361418
0.0611608
0.152779
0.273249
0.438004
0.650888
0.926603
1.25561
1.72678
2.60765
4.63695
11.3454
30.5933
183.2
251.177
0.00533943
0.00432466
0.00380941
0.0033881
0.0030371
0.0027385
0.00162871
0.00360262
0.0606661
0.151581
0.271292
0.434299
0.64475
0.917663
1.24369
1.71089
2.585
4.60527
11.243
30.6132
177.843
259.172
0.00567217
0.00466071
0.00413598
0.00370201
0.00333718
0.00302461
0.00183303
0.00358727
0.0600929
0.150191
0.269011
0.430086
0.637888
0.907714
1.23047
1.6932
2.55956
4.56934
11.1249
30.6178
172.185
266.589
0.00575639
0.00479288
0.00430073
0.00389202
0.00354644
0.00324803
0.00211076
0.0035674
0.0594369
0.148611
0.266423
0.425394
0.630343
0.896807
1.216
1.67377
2.53131
4.52906
10.9911
30.6011
166.294
273.274
0.00609214
0.0051331
0.00463356
0.00421422
0.00385675
0.00354632
0.00251476
0.00354234
0.0586907
0.146841
0.26354
0.420254
0.62216
0.884998
1.20036
1.65268
2.50028
4.48428
10.8416
30.5559
160.234
279.079
0.00615229
0.00524295
0.00477979
0.00439019
0.00405677
0.00376546
0.00298072
0.0035106
0.0578435
0.144881
0.260378
0.414698
0.613388
0.872344
1.18363
1.63002
2.46652
4.43484
10.6766
30.4745
154.065
283.873
0.00648678
0.00558286
0.00511407
0.00471543
0.00437154
0.00406959
0.00349259
0.00347076
0.0568781
0.142725
0.256946
0.408761
0.604077
0.85891
1.16588
1.60588
2.43007
4.38059
10.4963
30.3483
147.843
287.546
0.00651847
0.00566546
0.0052362
0.00487118
0.00455564
0.0042773
0.00388963
0.00341916
0.0557692
0.140361
0.253252
0.402478
0.594282
0.844759
1.1472
1.58037
2.39104
4.32137
10.3012
30.1684
141.614
290.017
0.00683901
0.00599223
0.00555912
0.00518692
0.00486272
0.00457558
0.00426628
0.00335678
0.0544791
0.137768
0.249297
0.395882
0.584056
0.82996
1.12767
1.55359
2.34952
4.25701
10.0917
29.9259
135.421
291.228
0.0068536
0.00605575
0.00566204
0.00532432
0.00503001
0.00476854
0.00452233
0.00329241
0.052952
0.134911
0.245073
0.389
0.573455
0.814579
1.10737
1.52567
2.30565
4.18736
9.86856
29.6122
129.297
291.149
0.00716009
0.0063692
0.00597314
0.00562961
0.00532787
0.00505864
0.00481725
0.00328492
0.0511068
0.131734
0.240559
0.381856
0.562535
0.798687
1.08639
1.49673
2.2596
4.11229
9.63251
29.2193
123.271
289.77
0.00715672
0.00641252
0.00605532
0.00574667
0.00547591
0.00523392
0.00501842
0.00349709
0.0488266
0.128154
0.235715
0.37446
0.551347
0.782354
1.06481
1.46688
2.21153
4.03172
9.38441
28.7402
117.361
287.096
0.00744654
0.00670946
0.00635084
0.00603735
0.00576007
0.00551114
0.00528724
0.00400967
0.0459483
0.124046
0.230475
0.366808
0.539938
0.765651
1.04272
1.43624
2.16164
3.94559
9.12518
28.1697
111.584
283.146
0.00743063
0.00673703
0.00641554
0.00613606
0.00588957
0.00566823
0.005467
0.00462651
0.0422532
0.11923
0.224732
0.358867
0.528344
0.748648
1.02019
1.40494
2.11015
3.85393
8.85581
27.5044
105.949
277.948
0.00770414
0.00701759
0.0066953
0.00641166
0.00615924
0.00593143
0.00572277
0.00522774
0.0374857
0.113447
0.218328
0.350571
0.516582
0.731413
0.997316
1.3731
2.05727
3.75682
8.57731
26.7432
100.46
271.535
0.00767678
0.00703042
0.00674326
0.00649239
0.00627016
0.00606982
0.0058853
0.00561131
0.0314476
0.106338
0.211023
0.341801
0.50464
0.714005
0.974168
1.34083
2.00326
3.65445
8.29067
25.8877
95.1181
263.953
0.00793326
0.00729359
0.00700591
0.00675127
0.00652348
0.00631699
0.00612633
0.00591956
0.0242662
0.0974349
0.202471
0.332359
0.492461
0.696469
0.950824
1.30824
1.94837
3.54709
7.99686
24.9422
89.9206
255.253
0.00789956
0.00729638
0.00704124
0.00681739
0.0066184
0.00643845
0.00627191
0.00610749
0.016764
0.086221
0.192178
0.321944
0.479918
0.678819
0.92735
1.27546
1.89287
3.43516
7.69682
23.9139
84.8609
245.499
0.00814114
0.00754415
0.00728857
0.00706115
0.00685677
0.00667075
0.00649832
0.00633385
0.0106532
0.0723373
0.179456
0.310102
0.466786
0.66102
0.903801
1.24259
1.83704
3.31918
7.39144
22.8126
79.9307
234.771
0.00810337
0.00753938
0.00731371
0.00711503
0.00693786
0.00677721
0.00662817
0.00648575
0.00735242
0.0560775
0.163418
0.296168
0.452696
0.64295
0.880194
1.20974
1.78121
3.19983
7.08161
21.6504
75.1182
223.165
0.00833019
0.00777182
0.0075457
0.00734359
0.00716121
0.0069946
0.00683974
0.00669301
0.00649894
0.0389836
0.143098
0.279192
0.437083
0.624359
0.85649
1.17697
1.72566
3.07795
6.76823
20.4414
70.4114
210.795
0.00829265
0.00776377
0.00756476
0.007389
0.00723184
0.00708898
0.00695619
0.00682954
0.00657645
0.0238407
0.117897
0.257865
0.419098
0.604812
0.832549
1.14433
1.67073
2.95454
6.45233
19.2009
65.7966
197.795
0.00850596
0.00798217
0.00778272
0.00760368
0.0074415
0.00729284
0.00715428
0.00702294
0.00683819
0.0135357
0.0885723
0.230573
0.397496
0.583608
0.808069
1.11178
1.6167
2.83075
6.13515
17.945
61.262
184.316
0.008471
0.00797343
0.00779836
0.0076433
0.00750429
0.00737764
0.00725968
0.00714707
0.00701846
0.00860416
0.0584566
0.195816
0.370501
0.559686
0.782519
1.07916
1.56381
2.70786
5.81824
16.6898
56.7984
170.524
0.0086716
0.00817864
0.00800311
0.00784495
0.00770116
0.00756893
0.00744532
0.00732792
0.00720841
0.00710034
0.0331901
0.153456
0.335757
0.531468
0.755038
1.04611
1.51215
2.58721
5.50359
15.4512
52.4037
156.596
0.00864156
0.00817175
0.00801797
0.0078814
0.00775866
0.00764658
0.00754197
0.0074419
0.00734149
0.00694847
0.0172464
0.106812
0.290682
0.496668
0.724306
1.01201
1.46167
2.47009
5.19359
14.244
48.0833
142.712
0.00883155
0.00836586
0.00821157
0.00807202
0.00794471
0.00782723
0.00771708
0.00761215
0.00750929
0.00720064
0.0101512
0.0637761
0.233944
0.452187
0.688359
0.975836
1.412
2.35759
4.89104
13.0818