/*--------------------------------*- C++ -*----------------------------------*\
| =========                 |                                                 |
| \\      /  F ield         | OpenFOAM: The Open Source CFD Toolbox           |
|  \\    /   O peration     | Version:  v1912                                 |
|   \\  /    A nd           | Website:  www.openfoam.com                      |
|    \\/     M anipulation  |                                                 |
\*---------------------------------------------------------------------------*/
FoamFile
{
    version     2.0;
    format      ascii;
    class       volScalarField;
    location    "570";
    object      nut;
}
// * * * * * * * * * * * * * * * * * * * * * * * * * * * * * * * * * * * * * //

dimensions      [0 2 -1 0 0 0 0];


internalField   nonuniform List<scalar> 
12441
(
5.82185e-24
1.79047e-20
8.1047e-20
3.32533e-19
1.06828e-18
3.88831e-18
1.01057e-17
2.5006e-17
6.13868e-17
1.27541e-16
3.05684e-16
7.71677e-16
2.17838e-15
7.40083e-15
1.03506e-13
1.89379e-11
0.00019306
0.000921704
0.00297297
0.00260117
0.00364761
0.00775321
6.34179e-24
3.03335e-20
1.11726e-19
4.23929e-19
1.30205e-18
4.8072e-18
1.21984e-17
3.00108e-17
7.36119e-17
1.54464e-16
3.79832e-16
1.02949e-15
2.82451e-15
9.3727e-15
1.1291e-13
3.89758e-11
5.75393e-05
0.0011169
0.00340554
0.00283232
0.00401035
0.00781733
6.36455e-24
3.58937e-20
1.20772e-19
4.48109e-19
1.37768e-18
4.90657e-18
1.29287e-17
3.20414e-17
8.05152e-17
1.71782e-16
4.17914e-16
1.11777e-15
2.78081e-15
7.66238e-15
5.34373e-14
6.5692e-12
1.10785e-05
0.000820866
0.0013607
0.00267281
0.00416368
0.0078909
6.31901e-24
3.76897e-20
1.18528e-19
4.29287e-19
1.32528e-18
4.71337e-18
1.2513e-17
3.13268e-17
7.84942e-17
1.73682e-16
4.23779e-16
1.15429e-15
2.60697e-15
8.47214e-15
3.84514e-14
1.54197e-12
1.62344e-06
0.000573782
0.00101607
0.00259757
0.00432648
0.0079647
6.28498e-24
4.38808e-20
1.29772e-19
4.58288e-19
1.40261e-18
4.77909e-18
1.30903e-17
3.27942e-17
8.42962e-17
1.87531e-16
4.54181e-16
1.28498e-15
3.01448e-15
4.0705e-14
2.46822e-13
2.29612e-12
1.39546e-07
0.000406337
0.000999186
0.00258576
0.00446667
0.00803394
6.23479e-24
4.12858e-20
1.20532e-19
4.29163e-19
1.34264e-18
4.62182e-18
1.27497e-17
3.23922e-17
8.28919e-17
1.92692e-16
4.7696e-16
1.44589e-15
4.52674e-15
1.32865e-12
1.18819e-11
5.09971e-11
4.58259e-07
0.000375954
0.00106917
0.00264252
0.00459231
0.00809948
6.19991e-24
5.02613e-20
1.37788e-19
4.75739e-19
1.46005e-18
4.79215e-18
1.35923e-17
3.44523e-17
9.06989e-17
2.11128e-16
5.20852e-16
2.00053e-15
2.49855e-14
4.14392e-11
6.56868e-10
9.36902e-09
1.87588e-05
0.000400069
0.00125938
0.00282402
0.00473557
0.00816218
6.15012e-24
4.34499e-20
1.23164e-19
4.40129e-19
1.40807e-18
4.72248e-18
1.35114e-17
3.48435e-17
9.13157e-17
2.23851e-16
5.72519e-16
5.4372e-15
6.08992e-13
2.25237e-09
8.40475e-08
4.98291e-06
0.000197391
0.00046754
0.00171006
0.00319116
0.00492141
0.00822577
6.11734e-24
5.57013e-20
1.46122e-19
4.99644e-19
1.55401e-18
4.95829e-18
1.46107e-17
3.75687e-17
1.02069e-16
2.50947e-16
6.4535e-16
6.13631e-14
2.58654e-11
7.41863e-08
1.04377e-05
0.000156636
0.000828499
0.000849188
0.00263887
0.00381311
0.00518096
0.00829204
6.07047e-24
4.43472e-20
1.25428e-19
4.56601e-19
1.50743e-18
4.95326e-18
1.47464e-17
3.87234e-17
1.04872e-16
2.75122e-16
7.48624e-16
1.68233e-12
1.08209e-09
4.43731e-06
0.000194956
0.000647915
0.00183471
0.0016503
0.00436652
0.0047665
0.00552668
0.00836448
6.04133e-24
6.0257e-20
1.53425e-19
5.25871e-19
1.67259e-18
5.20553e-18
1.60238e-17
4.2032e-17
1.19287e-16
3.17368e-16
8.92071e-16
5.23187e-11
5.50005e-08
8.29733e-05
0.00076658
0.00191433
0.00426009
0.00340786
0.00738708
0.00615484
0.0059717
0.00844366
5.99589e-24
4.46266e-20
1.27728e-19
4.7691e-19
1.63357e-18
5.28054e-18
1.64009e-17
4.40624e-17
1.25492e-16
3.64628e-16
1.1586e-15
1.45696e-09
3.24713e-06
0.000361978
0.00179985
0.00462348
0.00940687
0.00706939
0.0122166
0.00802855
0.00650588
0.00853143
5.97031e-24
6.41462e-20
1.60441e-19
5.53771e-19
1.81482e-18
5.54145e-18
1.79069e-17
4.82186e-17
1.46693e-16
4.4472e-16
1.69453e-15
3.52205e-08
7.32946e-05
0.00120565
0.0048005
0.010906
0.0195444
0.0139484
0.019055
0.0103754
0.00712135
0.00862633
5.92631e-24
4.4323e-20
1.29662e-19
4.99279e-19
1.78306e-18
5.69145e-18
1.85309e-17
5.13804e-17
1.5984e-16
5.59147e-16
3.60132e-15
7.9663e-07
0.000362717
0.00336878
0.0113709
0.0228273
0.0367426
0.0251788
0.0275937
0.0130758
0.00778755
0.00872852
5.90397e-24
6.75124e-20
1.66645e-19
5.8258e-19
1.97784e-18
5.93961e-18
2.02672e-17
5.67783e-17
1.9604e-16
7.78691e-16
1.65167e-14
1.52267e-05
0.00126117
0.00851088
0.023715
0.0421868
0.0619718
0.0409326
0.0370074
0.0159765
0.00848572
0.00883515
5.86026e-24
4.39567e-20
1.3199e-19
5.2477e-19
1.95764e-18
6.18504e-18
2.12003e-17
6.16747e-17
2.28151e-16
1.21625e-15
3.02154e-13
0.000140188
0.00337991
0.0184556
0.0435914
0.0696367
0.0943342
0.0598666
0.0462691
0.0188814
0.00918055
0.00894576
5.8412e-24
7.05371e-20
1.73494e-19
6.15081e-19
2.17043e-18
6.43899e-18
2.33085e-17
6.93731e-17
3.08208e-16
2.30488e-15
1.26021e-11
0.00055754
0.00823275
0.0348497
0.0712046
0.104332
0.1307
0.0793587
0.0544639
0.0216522
0.00985804
0.00905718
5.79721e-24
4.35001e-20
1.34485e-19
5.53102e-19
2.1605e-18
6.77104e-18
2.46162e-17
7.72244e-17
4.08436e-16
5.44548e-15
5.47979e-10
0.0015256
0.0173657
0.0585483
0.105901
0.143611
0.166199
0.0964401
0.0611143
0.0241658
0.0104916
0.00916919
5.78089e-24
7.32608e-20
1.80279e-19
6.49094e-19
2.38784e-18
7.0111e-18
2.71802e-17
8.90647e-17
6.61678e-16
1.69225e-14
4.40896e-08
0.00397562
0.0323359
0.0886747
0.144959
0.183473
0.195575
0.109057
0.0661558
0.0263876
0.0110809
0.00927899
5.73633e-24
4.30514e-20
1.36864e-19
5.8237e-19
2.38671e-18
7.4376e-18
2.90049e-17
1.02309e-16
1.08034e-15
7.52692e-14
8.58148e-06
0.00894837
0.0536218
0.123778
0.185373
0.219233
0.214831
0.11672
0.0698826
0.0282859
0.0116123
0.00938714
5.7233e-24
7.57268e-20
1.86794e-19
6.83143e-19
2.6291e-18
7.67251e-18
3.23016e-17
1.22238e-16
2.1936e-15
7.80167e-13
0.00017228
0.0179507
0.0805247
0.161095
0.222866
0.246934
0.222561
0.12043
0.0726754
0.0298951
0.0120985
0.00949146
5.67791e-24
4.24326e-20
1.38565e-19
6.10893e-19
2.63495e-18
8.1927e-18
3.4937e-17
1.46454e-16
4.33982e-15
1.34054e-11
0.000711213
0.0320236
0.111403
0.19828
0.254353
0.264176
0.220211
0.121829
0.0749169
0.0312259
0.0125369
0.00959327
5.66758e-24
7.80203e-20
1.92463e-19
7.1545e-19
2.88971e-18
8.41777e-18
3.94303e-17
1.83571e-16
1.0275e-14
1.66097e-10
0.0020073
0.0513436
0.144185
0.232395
0.277031
0.270868
0.211245
0.122407
0.0768498
0.0323384
0.0129515
0.00969106
5.62164e-24
4.19629e-20
1.39786e-19
6.3797e-19
2.90243e-18
9.03698e-18
4.34976e-17
2.31476e-16
2.24185e-14
1.55802e-09
0.00492084
0.0752796
0.176836
0.26162
0.290478
0.268788
0.199584
0.123003
0.0786347
0.0332619
0.0133493
0.00978684
5.61484e-24
8.02733e-20
1.97572e-19
7.45786e-19
3.17104e-18
9.26684e-18
5.02611e-17
3.0641e-16
5.64367e-14
1.37809e-08
0.010428
0.102328
0.20763
0.284297
0.295206
0.260941
0.18828
0.123888
0.0803243
0.0340717
0.0137628
0.00987966
5.56712e-24
4.17908e-20
1.40758e-19
6.63837e-19
3.19184e-18
9.99179e-18
5.71477e-17
4.0843e-16
1.3047e-13
3.19042e-07
0.0194291
0.130962
0.235251
0.300284
0.293443
0.250368
0.178939
0.124978
0.0819449
0.0348128
0.0142053
0.00997203
5.56282e-24
8.24822e-20
2.02091e-19
7.73989e-19
3.47274e-18
1.02318e-17
6.84562e-17
5.73327e-16
3.92515e-13
1.87901e-05
0.0321576
0.159544
0.258833
0.309785
0.287295
0.239501
0.171944
0.126099
0.0834762
0.035568
0.0147133
0.0100634
5.51395e-24
4.18585e-20
1.41217e-19
6.87492e-19
3.50133e-18
1.10682e-17
8.13222e-17
8.10331e-16
1.82979e-12
0.000216355
0.0484014
0.186939
0.27795
0.314089
0.279133
0.229761
0.166991
0.127088
0.0849047
0.0363799
0.0152992
0.0101564
5.51303e-24
8.46742e-20
2.05793e-19
7.99194e-19
3.79611e-18
1.13437e-17
1.02508e-16
1.20433e-15
1.28007e-11
0.000751328
0.0673504
0.212183
0.2926
0.314336
0.270403
0.221752
0.163564
0.127854
0.0861955
0.0373128
0.015993
0.0102507
5.4619e-24
4.20336e-20
1.40962e-19
7.08384e-19
3.8334e-18
1.23039e-17
1.28818e-16
1.79561e-15
7.40858e-11
0.00159863
0.0882462
0.234747
0.303107
0.312015
0.262257
0.215496
0.161182
0.128358
0.0873286
0.0383792
0.0167946
0.0103488
5.46301e-24
8.68054e-20
2.08974e-19
8.21782e-19
4.14307e-18
1.26527e-17
1.72469e-16
2.80947e-15
3.56386e-10
0.00297121
0.110168
0.254238
0.310025
0.308087
0.255063
0.210767
0.159483
0.128604
0.0882707
0.0396022
0.0177175
0.01045
5.41082e-24
4.22458e-20
1.39895e-19
7.26578e-19
4.19062e-18
1.37406e-17
2.30115e-16
4.38929e-15
1.3868e-09
0.00513564
0.132448
0.270601
0.314011
0.303514
0.249069
0.207247
0.158228
0.128616
0.0890041
0.0409526
0.0187411
0.0105565
5.41503e-24
8.89173e-20
2.11411e-19
8.42367e-19
4.52253e-18
1.41928e-17
3.26386e-16
7.08333e-15
4.74648e-09
0.00846494
0.154373
0.28387
0.315739
0.298742
0.244132
0.204648
0.157271
0.128433
0.0895007
0.0424169
0.0198575
0.010667
5.35937e-24
4.22783e-20
1.37805e-19
7.42846e-19
4.58468e-18
1.54527e-17
4.5822e-16
1.12949e-14
1.44526e-08
0.0133582
0.175526
0.294311
0.315821
0.294216
0.240192
0.202728
0.15653
0.128093
0.0897472
0.0439426
0.0210265
0.0107831
5.36552e-24
8.8457e-20
2.10336e-19
8.57223e-19
4.93649e-18
1.60476e-17
6.77958e-16
1.85066e-14
4.28134e-08
0.020246
0.195534
0.302211
0.314782
0.290027
0.237022
0.201312
0.155967
0.127637
0.0897218
0.0455091
0.0222273
0.0109032
5.30582e-24
4.14856e-20
1.32572e-19
7.5159e-19
5.00985e-18
1.74616e-17
9.80398e-16
2.99164e-14
2.19976e-07
0.0296813
0.21434
0.307989
0.313041
0.286351
0.234532
0.20027
0.155569
0.127104
0.0894178
0.0470748
0.023412
0.0110282
5.31236e-24
8.5263e-20
2.03824e-19
8.62057e-19
5.38099e-18
1.81863e-17
1.47466e-15
5.74573e-14
1.18566e-05
0.0423795
0.231933
0.312012
0.310922
0.283136
0.232544
0.199522
0.15534
0.126534
0.0888224
0.0486469
0.0245616
0.0111563
5.24588e-24
4.16146e-20
1.27322e-19
7.57664e-19
5.48233e-18
1.98557e-17
2.14218e-15
4.64998e-13
0.000262524
0.0594229
0.248531
0.314705
0.308663
0.280469
0.231016
0.199013
0.155294
0.125963
0.0879405
0.0502221
0.0256387
0.0112883
5.24932e-24
5.37899e-20
1.54721e-19
7.99477e-19
5.76874e-18
2.06385e-17
3.20141e-15
2.31286e-11
0.00238068
0.0821197
0.264281
0.316401
0.306433
0.278274
0.229833
0.198724
0.155455
0.12543
0.0867753
0.051848
0.0266461
0.011422
5.17248e-24
4.32801e-20
1.14469e-19
7.24237e-19
5.93993e-18
2.35428e-17
4.66219e-15
1.0329e-09
0.0107224
0.111355
0.279377
0.317454
0.304337
0.276638
0.229008
0.198646
0.155849
0.124968
0.0853523
0.0535495
0.0275752
0.0115584
5.16589e-24
1.93951e-21
1.12091e-20
4.00642e-19
5.44892e-18
2.44368e-17
7.2067e-15
1.85192e-07
0.0311966
0.147164
0.293798
0.318118
0.302432
0.275505
0.228471
0.198797
0.156506
0.12461
0.0837008
0.0553669
0.0284638
0.0116955
5.07772e-24
1.71164e-20
4.47717e-20
4.17356e-19
5.46178e-18
3.62034e-17
1.80035e-14
5.79332e-05
0.06908
0.18895
0.307477
0.318668
0.300723
0.274997
0.228289
0.199197
0.157452
0.124373
0.081879
0.0572428
0.0293256
0.0118345
5.03895e-24
6.72018e-22
8.4591e-23
2.35237e-19
5.06606e-18
8.2812e-17
3.70754e-13
0.00156936
0.128071
0.235584
0.320107
0.319289
0.299174
0.275063
0.228415
0.199895
0.158715
0.12427
0.079952
0.0590026
0.0301606
0.011976
4.83815e-24
2.1032e-19
4.5812e-19
1.02948e-18
7.26006e-18
9.13485e-16
7.18179e-12
0.0106042
0.209784
0.286355
0.331873
0.320336
0.29775
0.275821
0.228916
0.200916
0.160293
0.124229
0.0780014
0.0602001
0.0306637
0.0121338
0.00987657
0.0337611
0.0417145
0.0155101
0.0109572
0.010444
0.0103414
0.010809
0.0108535
0.0115556
0.0170054
0.016614
0.0158405
0.0159306
0.0168373
0.0185654
0.0206212
0.021633
0.0200391
0.0158402
0.0129984
0.0120786
0.0118332
0.0119111
0.0122696
0.0127627
0.0132676
0.0137586
0.0141908
0.0148302
0.015841
0.016642
0.0168013
0.0211369
0.132931
0.00986353
0.0344001
0.0406385
0.015161
0.0108932
0.0103503
0.0104589
0.0109555
0.0109107
0.0116043
0.0166672
0.0161946
0.0154527
0.01552
0.0164351
0.0181968
0.0204274
0.0217227
0.0202868
0.0159121
0.0128792
0.0118984
0.0116212
0.0116672
0.0120038
0.0124948
0.0130184
0.0135345
0.0139834
0.0146241
0.0156405
0.01646
0.0166127
0.0207526
0.132341
0.00983842
0.0350185
0.0387649
0.0145645
0.0109231
0.0102804
0.0107505
0.0112692
0.0110718
0.0117332
0.0154625
0.0148022
0.0143028
0.014315
0.0147922
0.0159288
0.0177361
0.0191281
0.0184775
0.0149788
0.0123592
0.0114629
0.0111757
0.0111797
0.0114758
0.0119562
0.0125109
0.0130767
0.0135643
0.0142099
0.0152366
0.0160913
0.0162294
0.0204358
0.131169
0.00979929
0.0356037
0.0363835
0.0140559
0.0111025
0.0103326
0.0111801
0.0116194
0.0113134
0.0119573
0.0141656
0.013268
0.0129843
0.0130937
0.0132172
0.0135648
0.0145499
0.0156293
0.0156522
0.0134137
0.0115186
0.0108006
0.0105246
0.0104816
0.0107198
0.0111727
0.011758
0.0123917
0.0129413
0.0135983
0.0146373
0.0155431
0.0156576
0.0200943
0.129411
0.00974597
0.0360133
0.0336571
0.0136018
0.0113027
0.0104137
0.0116019
0.0118861
0.0115235
0.0121576
0.0130754
0.0119668
0.0118982
0.0122437
0.0121686
0.0118009
0.0118682
0.0123378
0.0126286
0.0115341
0.0104326
0.00994522
0.00970359
0.00961813
0.00978624
0.010189
0.0107891
0.0114964
0.0121301
0.0128082
0.0138592
0.0148287
0.0149112
0.019663
0.127069
0.00967615
0.0361212
0.0307118
0.0131008
0.0114175
0.0104313
0.0118941
0.0119943
0.0116063
0.012205
0.0121642
0.0109159
0.0110445
0.0116537
0.0115304
0.0106469
0.00992618
0.0097139
0.00989938
0.00958147
0.00917226
0.00893316
0.00875212
0.008639
0.00873452
0.00906513
0.00965034
0.0104201
0.0111537
0.0118648
0.012926
0.0139672
0.0140112
0.0190984
0.124157
0.00959042
0.0358399
0.0276807
0.012513
0.0114158
0.0103545
0.0120035
0.0119227
0.0115194
0.0120339
0.0113219
0.00999964
0.0102577
0.0110542
0.0109988
0.00984482
0.00857642
0.00778548
0.0076647
0.00771785
0.00780499
0.00780319
0.00770949
0.00759303
0.00762549
0.00786948
0.00840331
0.00920546
0.0100422
0.010799
0.0118673
0.0129824
0.0129851
0.0183755
0.120693
0.00948687
0.0351
0.024701
0.011864
0.0113229
0.0102006
0.0119375
0.0116908
0.0112692
0.0116459
0.0104734
0.00912712
0.009415
0.0102721
0.0103486
0.00914363
0.00757942
0.00639047
0.00593219
0.00604408
0.00640237
0.00659946
0.00661461
0.0065246
0.00651499
0.00667104
0.00712033
0.00790958
0.00883443
0.00964573
0.0107179
0.011902
0.0118662
0.017484
0.116707
0.00936733
0.0338813
0.0218902
0.0112117
0.011187
0.0100091
0.0117383
0.0113393
0.0108891
0.0110849
0.00960326
0.00826681
0.00849111
0.00928803
0.00950832
0.00840786
0.006752
0.00534773
0.00462721
0.00462598
0.00504969
0.00537901
0.00550951
0.00547406
0.00545062
0.00553178
0.00587649
0.00660214
0.00757936
0.00844446
0.00951574
0.0107574
0.010692
0.0164258
0.112236
0.0092307
0.0321828
0.0193366
0.0106158
0.011058
0.00982363
0.0114615
0.0109181
0.0104258
0.0104131
0.00873109
0.00742627
0.00752261
0.00817214
0.00850756
0.00759769
0.00599211
0.00452375
0.00366143
0.00350475
0.00384581
0.00421804
0.004445
0.00448116
0.00447206
0.00450203
0.00474063
0.00535978
0.00633617
0.00723955
0.00830171
0.00958281
0.0095027
0.0152139
0.107328
0.00908003
0.0300526
0.0170948
0.010125
0.0109786
0.00968397
0.0111638
0.0104765
0.00992728
0.00969375
0.0078892
0.00662629
0.00656446
0.00702005
0.00741873
0.00672801
0.00525888
0.00383898
0.00295831
0.00269159
0.00288302
0.00320808
0.00348408
0.00358868
0.00361335
0.00361921
0.00376761
0.00425667
0.00517204
0.00608042
0.0071186
0.00841422
0.00833889
0.0138713
0.102041
0.00891508
0.0275541
0.0151961
0.0097731
0.0109845
0.0096234
0.0108979
0.0100611
0.00943954
0.00898406
0.00710892
0.00588795
0.00566531
0.00591353
0.00631538
0.00583192
0.00454483
0.00325179
0.00245423
0.00215849
0.00221111
0.00243121
0.00269444
0.00284163
0.00290393
0.00290795
0.0029932
0.00335315
0.00415518
0.00502038
0.00601036
0.00728876
0.00723965
0.0124316
0.0964493
0.00874002
0.0247949
0.0136537
0.00958252
0.0111071
0.00966944
0.0107095
0.00971213
0.00900315
0.00833133
0.00641591
0.00522797
0.00486011
0.00491264
0.00526142
0.00494898
0.00386198
0.00274562
0.00209525
0.0018429
0.00181277
0.00192164
0.00212481
0.00227666
0.00236451
0.00237865
0.00243063
0.00268474
0.00334312
0.00411191
0.00502044
0.00624354
0.0062401
0.0109393
0.0906473
0.00855535
0.0218918
0.0124712
0.00956853
0.0113772
0.00984587
0.0106375
0.00946403
0.00865253
0.00777292
0.00582963
0.00465964
0.00417054
0.00405665
0.00430888
0.00411927
0.00323351
0.00231911
0.00183694
0.00166763
0.00161699
0.00164761
0.00177837
0.00190466
0.00199852
0.00202434
0.00206891
0.00225461
0.00276882
0.00339778
0.00418825
0.00531399
0.00536947
0.00944973
0.0847535
0.00836592
0.0189897
0.0116416
0.00974168
0.0118277
0.0101777
0.0107151
0.00934424
0.00841503
0.00733566
0.00536474
0.00419298
0.00360773
0.00336794
0.00350085
0.00338409
0.00268864
0.00197787
0.00164746
0.00156562
0.00153886
0.00153684
0.00161247
0.0017028
0.00178729
0.001821
0.00187701
0.00203535
0.00243138
0.0028998
0.00354312
0.00453116
0.0046491
0.00802735
0.0789191
0.00817267
0.0162275
0.0111497
0.0101136
0.0124974
0.0106975
0.0109745
0.00937648
0.00831255
0.00703808
0.0050318
0.00383632
0.00317502
0.00285207
0.00286683
0.00277986
0.00225305
0.00172469
0.0015084
0.00149473
0.00151092
0.00151528
0.00156552
0.00162663
0.00169641
0.00173507
0.0018156
0.00198256
0.00229971
0.00261193
0.00309737
0.00391767
0.00409102
0.00674066
0.0733326
0.00798033
0.0137433
0.0109787
0.0107067
0.0134324
0.0114517
0.0114517
0.00958564
0.00836414
0.00689347
0.00483957
0.00359618
0.00286999
0.00249967
0.00241748
0.00232995
0.00193835
0.00155283
0.00141006
0.00143855
0.00149596
0.00152943
0.00158223
0.00162913
0.0016881
0.00173348
0.00184888
0.002051
0.00232763
0.00250448
0.00284296
0.00348344
0.00369699
0.00565393
0.0682207
0.00778933
0.0116554
0.0111293
0.0115553
0.014693
0.0125061
0.0121941
0.0100044
0.0085908
0.0069143
0.00479739
0.00347869
0.00268675
0.00228967
0.00214078
0.00203547
0.00173617
0.0014456
0.00134463
0.00139555
0.00148359
0.0015525
0.00162551
0.00167306
0.0017306
0.00179009
0.00195033
0.00220349
0.0024682
0.0025365
0.00275531
0.00322346
0.00345889
0.00481642
0.0638396
0.00760307
0.0100407
0.0116412
0.0127064
0.0163555
0.0139497
0.0132641
0.0106786
0.00901985
0.00711691
0.00491873
0.00349006
0.00261795
0.00219575
0.00200759
0.00187562
0.00162209
0.00138134
0.00130237
0.00136741
0.0014774
0.00157852
0.00167755
0.00173544
0.00180255
0.00188787
0.00210308
0.0024129
0.00268165
0.00266758
0.0028021
0.00312
0.00336074
0.00425318
0.0604485
0.00742066
0.00891487
0.0126051
0.0142233
0.0185124
0.0158929
0.01474
0.0116697
0.0096884
0.00752533
0.0052238
0.0036401
0.00265834
0.00219181
0.0019801
0.0018155
0.00156564
0.00134001
0.00127309
0.00135287
0.00148288
0.00161111
0.00173407
0.00180597
0.00189306
0.00201813
0.00229752
0.00266085
0.00293864
0.00286479
0.00295155
0.00314806
0.00338244
0.00396311
0.0582696
0.00724378
0.0082385
0.0141625
0.0161889
0.0212705
0.0184613
0.0167125
0.0130524
0.0106436
0.00817241
0.00574279
0.00394469
0.00280855
0.00225802
0.00202188
0.00181779
0.00153932
0.00130789
0.00124942
0.00134876
0.0015024
0.0016548
0.00179659
0.00188262
0.00199926
0.00217837
0.00252845
0.00293536
0.00322041
0.00310538
0.00317731
0.00328127
0.00350406
0.00392728
0.0574471
0.00707145
0.00794397
0.016499
0.0187131
0.0247529
0.0217904
0.0192798
0.0149093
0.01194
0.00909818
0.00651288
0.00442977
0.00308009
0.0023849
0.00210342
0.00185062
0.00152426
0.0012792
0.00122907
0.00135248
0.0015355
0.00171158
0.00186737
0.00196712
0.00212314
0.00236959
0.00279263
0.00322881
0.00351729
0.00337636
0.00346031
0.00349599
0.00370964
0.00412299
0.0580352
0.00690537
0.00796017
0.0198209
0.0219512
0.0291096
0.0260288
0.0225475
0.0173242
0.0136344
0.0103436
0.00757499
0.00512912
0.0034977
0.0025788
0.00220824
0.00189342
0.00151149
0.00125442
0.00121393
0.00136399
0.00158132
0.00178122
0.00194749
0.0020624
0.00226893
0.00259414
0.00308723
0.00353654
0.00382638
0.00367247
0.00378843
0.00377373
0.00398982
0.00453595
0.0600165
0.00674534
0.00822925
0.0243284
0.0261297
0.0345359
0.0313501
0.0266327
0.0203779
0.015781
0.0119406
0.00895555
0.00607625
0.00409565
0.00286397
0.00233441
0.00193759
0.00150049
0.00123748
0.00120802
0.00138489
0.00163951
0.00186254
0.00203714
0.00217159
0.00244155
0.00285412
0.00340911
0.00385622
0.00414947
0.00399372
0.00415529
0.00410211
0.00434305
0.00516684
0.0633331
0.00659312
0.00870504
0.0301827
0.0315669
0.0412817
0.0379555
0.0316616
0.0241403
0.0184179
0.0139019
0.0106504
0.00728437
0.00490106
0.00328002
0.00249685
0.00198565
0.00149568
0.0012333
0.00121563
0.00141749
0.00171038
0.00195432
0.00213638
0.00229805
0.00264575
0.00315053
0.00375481
0.00418737
0.00449118
0.00434323
0.00455888
0.00447497
0.0047757
0.00603297
0.0679077
0.00644962
0.00935715
0.0374759
0.0386692
0.0496325
0.0460403
0.0377421
0.0286484
0.0215498
0.0162017
0.0126082
0.00872577
0.00590819
0.0038615
0.00272227
0.00204706
0.00150367
0.00124676
0.00124115
0.00146356
0.00179368
0.00205542
0.00224582
0.00244553
0.0028857
0.00348287
0.0041209
0.0045312
0.00485771
0.00472573
0.00500044
0.00489217
0.00530169
0.00716727
0.0736519
0.00631698
0.0101654
0.0462113
0.0478882
0.0598486
0.0557114
0.044901
0.0338642
0.02512
0.0187603
0.0147216
0.0103165
0.00705723
0.00460494
0.00303848
0.00213472
0.00153094
0.00128232
0.00128899
0.00152493
0.00188851
0.0021648
0.00236694
0.00261833
0.00316469
0.00384926
0.00450452
0.00489028
0.00525586
0.00514662
0.00548387
0.00535911
0.00594186
0.00861635
0.080466
0.00619775
0.0111281
0.0563476
0.0596509
0.0720741
0.0668749
0.0530003
0.0396238
0.0289805
0.0214309
0.0168281
0.011918
0.00823372
0.00544117
0.00344702
0.00225769
0.00158302
0.00134432
0.00136416
0.00160369
0.00199306
0.00228159
0.00250221
0.00282111
0.00348487
0.00424674
0.0049038
0.00526824
0.00569249
0.00561151
0.00601535
0.00588627
0.00672345
0.0104385
0.0882362
0.00609509
0.0122601
0.0678836
0.0742865
0.0862412
0.0791414
0.0616695
0.045602
0.0328754
0.0239994
0.018723
0.0133516
0.00928641
0.00624644
0.00390156
0.00241325
0.00166284
0.00143665
0.00147181
0.00170337
0.00210584
0.00240554
0.00265509
0.00305873
0.0038471
0.00467186
0.00531809
0.00566938
0.00617408
0.00612615
0.00660344
0.00648883
0.00767972
0.0127017
0.0968349
0.00601408
0.0136066
0.080945
0.0919399
0.101979
0.0917853
0.0702879
0.0513151
0.0364522
0.0262011
0.0201831
0.014424
0.0100541
0.00687501
0.00430926
0.00257872
0.00176929
0.00156242
0.00161696
0.00182876
0.00222625
0.00253754
0.00283001
0.00333575
0.00425084
0.00512118
0.00574804
0.00609829
0.00670667
0.00669656
0.0072591
0.00718639
0.00884993
0.0154813
0.106123
0.00596079
0.0152396
0.0957592
0.112401
0.118512
0.103763
0.0780292
0.0561665
0.0393003
0.0277542
0.0209975
0.0149571
0.0103935
0.00719824
0.00456775
0.00271653
0.0018955
0.00172244
0.00180296
0.00198617
0.00235614
0.00268014
0.00303223
0.00365617
0.00469438
0.00559188
0.00619539
0.00655945
0.00729568
0.00732927
0.00799598
0.00800282
0.0102794
0.0188577
0.115953
0.00594609
0.0172703
0.11253
0.13483
0.134584
0.113801
0.0839681
0.0595325
0.0410162
0.0284065
0.0210049
0.0148223
0.0102084
0.00713054
0.00460109
0.00278943
0.00203058
0.00191417
0.00203
0.00218156
0.0025
0.0028379
0.00326763
0.00402286
0.00517502
0.00608206
0.00666267
0.00705699
0.00794608
0.00803172
0.00883062
0.00896629
0.0120198
0.0229133
0.126181
0.00598322
0.0198317
0.131161
0.157512
0.148486
0.120577
0.0872393
0.0608751
0.0412795
0.0279873
0.0201306
0.0139743
0.00947854
0.00665604
0.00438871
0.00278066
0.00216365
0.00213101
0.00229291
0.00241922
0.00266557
0.00301744
0.00354223
0.00443724
0.00568954
0.00659087
0.00715283
0.00759433
0.00866242
0.00881253
0.00978275
0.0101095
0.0141295
0.0277297
0.136667
0.00609167
0.0230839
0.150988
0.177905
0.158322
0.122999
0.0872305
0.0598654
0.0399297
0.0264525
0.0184154
0.0124789
0.00828475
0.00584322
0.00397275
0.00270114
0.00228879
0.0023636
0.00258098
0.00269824
0.0028625
0.00322714
0.00386176
0.0048989
0.00623449
0.00711843
0.00766887
0.00817418
0.00944913
0.00968195
0.0108756
0.0114699
0.0166742
0.0333842
0.147287
0.00628805
0.0271782
0.170624
0.193176
0.162471
0.120499
0.083747
0.0564755
0.037015
0.0239089
0.016024
0.0105195
0.00681483
0.00484832
0.00345305
0.00258593
0.00240681
0.00260158
0.002879
0.00301165
0.0031011
0.00347655
0.00423089
0.00540536
0.00680656
0.00766564
0.00821352
0.00879834
0.0103107
0.0106521
0.0121363
0.0130907
0.019727
0.0399481
0.157937
0.00658505
0.0322593
0.188222
0.201066
0.160082
0.113222
0.0770865
0.0510084
0.0327992
0.0206026
0.0132211
0.00836989
0.00532791
0.00387601
0.00295272
0.00247775
0.00252357
0.00283541
0.0031707
0.00334557
0.00338912
0.00377516
0.00465244
0.00595182
0.00740261
0.0082337
0.00878907
0.00946795
0.0112519
0.0117373
0.0135961
0.0150214
0.0233697
0.0474852
0.168538
0.00697682
0.0383781
0.201928
0.200565
0.151329
0.102
0.0679731
0.0440334
0.0277081
0.0168725
0.0103207
0.00632976
0.00406964
0.00310456
0.00257221
0.00241218
0.00264539
0.00305699
0.00344197
0.00368373
0.00372954
0.00413082
0.00512646
0.00653128
0.00801962
0.0088238
0.00939725
0.0101836
0.0122784
0.0129545
0.0152913
0.0173187
0.0276924
0.0560522
0.179038
0.00744499
0.0454281
0.210306
0.192043
0.1373
0.0881152
0.0573777
0.0362575
0.0222411
0.0130829
0.0076239
0.00464374
0.00317562
0.00261036
0.00235135
0.00240487
0.00277418
0.00325948
0.00368308
0.00401014
0.004118
0.0045475
0.00564953
0.00713462
0.00865443
0.00943672
0.0100393
0.0109457
0.0133968
0.0143236
0.0172634
0.0200482
0.0327954
0.0657005
0.189412
0.00795396
0.0528856
0.212375
0.176834
0.119599
0.0729686
0.0462943
0.028377
0.0168751
0.00956167
0.00536757
0.00343297
0.00263748
0.00236411
0.00227239
0.00244975
0.00290517
0.0034373
0.0038895
0.0043147
0.00454393
0.00502356
0.00621441
0.0077513
0.00930359
0.0100725
0.0107161
0.0117551
0.0146151
0.0158674
0.0195602
0.0232852
0.0387894
0.07648
0.199669
0.00846726
0.0597145
0.207524
0.156668
0.0999182
0.0578011
0.035566
0.0209709
0.0120023
0.00656457
0.00369131
0.0026741
0.00235826
0.00228106
0.00228245
0.0025231
0.00302847
0.00358615
0.00406089
0.00459215
0.00499228
0.00555074
0.00681058
0.00837023
0.0099632
0.0107305
0.0114284
0.0126134
0.0159436
0.0176128
0.022236
0.0271166
0.045797
0.0884442
0.209844
0.00894498
0.0642885
0.19539
0.13326
0.0797256
0.0435394
0.0258
0.0144582
0.00790938
0.00426345
0.00260789
0.00224809
0.00222827
0.00227174
0.00232301
0.0025981
0.0031344
0.00370396
0.00420005
0.00484378
0.00544823
0.00611565
0.0074259
0.00898142
0.0106292
0.011409
0.0121769
0.0135238
0.0173948
0.0195906
0.0253524
0.0316421
0.053954
0.101656
0.219998
0.0093615
0.0649155
0.175967
0.108201
0.0601868
0.0307976
0.0173842
0.00911863
0.0047895
0.00272563
0.00199829
0.00202377
0.00216154
0.00226703
0.00234961
0.0026559
0.00321748
0.00379045
0.00431075
0.00507273
0.00589958
0.00670285
0.00804931
0.00957773
0.0112978
0.0121054
0.0129621
0.0144906
0.0189842
0.0218364
0.0289787
0.0369746
0.0634102
0.116192
0.230217
0.0096768
0.0601279
0.149663
0.0829927
0.0422627
0.01999
0.0105717
0.0051399
0.00273318
0.00185979
0.00168678
0.0019005
0.00209972
0.00222773
0.00234319
0.00269265
0.00327835
0.00384746
0.00439734
0.00528468
0.00633997
0.00729985
0.00867414
0.010157
0.0119665
0.0128167
0.0137839
0.01552
0.0207308
0.0243907
0.0331913
0.0432409
0.0743301
0.132151
0.24061
0.00988074
0.0497496
0.117746
0.0590163
0.0267646
0.0113927
0.0055284
0.0025964
0.00162312
0.00142896
0.0015216
0.00180191
0.00200266
0.00213514
0.00229851
0.00270869
0.00331678
0.00387438
0.00446328
0.00548416
0.0067677
0.00789938
0.00930087
0.0107239
0.0126351
0.0135391
0.0146407
0.016618
0.0226569
0.0272997
0.0380734
0.0505801
0.086893
0.149656
0.2513
4.88217e-24
3.14972e-19
1.13906e-18
4.29678e-18
2.48921e-17
3.13989e-14
8.99643e-11
0.0400836
0.287354
0.325977
0.339785
0.32149
0.296776
0.276941
0.229609
0.202039
0.161821
0.124091
0.0765642
0.0604326
0.0302934
0.0121378
4.99581e-24
7.39195e-20
8.34262e-20
6.22886e-18
6.21629e-17
2.44456e-13
9.18013e-10
0.0763593
0.34039
0.350015
0.343509
0.322015
0.296158
0.277942
0.230384
0.203037
0.163173
0.124052
0.0758868
0.0602251
0.0298713
0.0121849
5.102e-24
2.76606e-19
8.77632e-19
8.89187e-18
1.21969e-16
9.24627e-13
9.27616e-09
0.119772
0.387819
0.369744
0.345966
0.322332
0.29567
0.279065
0.23139
0.204211
0.164758
0.124109
0.075608
0.059635
0.0293479
0.0123421
5.06172e-24
5.72577e-20
2.14777e-20
6.84926e-18
1.92156e-16
2.27479e-12
1.69406e-07
0.165594
0.428625
0.385635
0.347849
0.322622
0.295424
0.280384
0.232687
0.205531
0.166526
0.124273
0.0757168
0.0586953
0.0287577
0.012598
5.16566e-24
2.21313e-19
6.32318e-19
7.23236e-18
2.88253e-16
3.60968e-12
6.56399e-06
0.206665
0.462594
0.398207
0.349655
0.323023
0.295526
0.281871
0.234237
0.206979
0.168421
0.124546
0.0761794
0.0574786
0.0281462
0.0129442
5.11381e-24
4.59233e-20
1.20686e-20
4.61639e-18
4.09869e-16
4.87292e-12
1.86947e-05
0.235214
0.489859
0.408054
0.351794
0.323688
0.296062
0.283611
0.236102
0.208535
0.170382
0.124922
0.0769584
0.0560446
0.0275237
0.0133979
5.2292e-24
1.78695e-19
4.73447e-19
4.63829e-18
5.80622e-16
5.06414e-12
3.45866e-05
0.247498
0.51081
0.415672
0.354494
0.32472
0.297104
0.28558
0.238243
0.2102
0.172355
0.125398
0.0779961
0.0544779
0.0269158
0.0139728
5.17002e-24
3.80403e-20
7.88136e-21
2.78053e-18
7.72431e-16
4.37799e-12
2.58709e-05
0.244605
0.525782
0.421535
0.357936
0.326231
0.298701
0.28787
0.240729
0.211976
0.174291
0.125959
0.0792408
0.052836
0.0263204
0.0146867
5.29792e-24
1.46663e-19
3.69612e-19
2.86221e-18
9.86301e-16
2.88191e-12
2.74887e-05
0.230481
0.535076
0.425946
0.362152
0.328282
0.30089
0.290451
0.243522
0.213891
0.17616
0.126594
0.0806279
0.0511946
0.0257567
0.0155434
5.22337e-24
3.24412e-20
5.88801e-21
1.68713e-18
1.14812e-15
1.68951e-12
3.53708e-05
0.208866
0.538731
0.429138
0.367166
0.330945
0.303684
0.29341
0.246697
0.215969
0.177953
0.127286
0.0821092
0.0495962
0.0252158
0.0165466
5.35773e-24
1.21935e-19
2.97431e-19
1.84266e-18
1.25264e-15
8.52826e-13
4.0212e-05
0.18223
0.536632
0.431149
0.372878
0.334239
0.307091
0.296702
0.250211
0.218258
0.179683
0.128025
0.0836281
0.0481001
0.0247132
0.0176821
5.27102e-24
2.84274e-20
4.69216e-21
1.08067e-18
1.239e-15
4.16579e-13
4.11573e-05
0.152852
0.528366
0.431923
0.379193
0.338205
0.311102
0.300398
0.254134
0.220794
0.181386
0.128798