/*--------------------------------*- C++ -*----------------------------------*\
| =========                 |                                                 |
| \\      /  F ield         | OpenFOAM: The Open Source CFD Toolbox           |
|  \\    /   O peration     | Version:  v1912                                 |
|   \\  /    A nd           | Website:  www.openfoam.com                      |
|    \\/     M anipulation  |                                                 |
\*---------------------------------------------------------------------------*/
FoamFile
{
    version     2.0;
    format      ascii;
    class       volScalarField;
    location    "570";
    object      p;
}
// * * * * * * * * * * * * * * * * * * * * * * * * * * * * * * * * * * * * * //

dimensions      [0 2 -2 0 0 0 0];


internalField   nonuniform List<scalar> 
12441
(
9.1309
9.43698
10.3101
11.6631
13.4138
15.6081
18.3437
21.7205
25.8971
31.0489
37.394
45.138
54.7519
66.5286
81.9497
101.504
129.782
165.442
223.422
286.38
377.095
438.701
9.13089
9.43697
10.3101
11.6631
13.4138
15.6081
18.3436
21.7204
25.8969
31.0486
37.3936
45.1375
54.7509
66.5269
81.9467
101.497
129.765
165.417
223.342
286.305
377.049
438.511
9.13087
9.43695
10.3101
11.663
13.4137
15.608
18.3435
21.7202
25.8966
31.0482
37.3929
45.1363
54.749
66.5233
81.9408
101.483
129.74
165.36
223.175
286.126
376.921
438.165
9.13085
9.43692
10.31
11.663
13.4136
15.6079
18.3433
21.7199
25.8962
31.0475
37.3918
45.1346
54.7462
66.5178
81.932
101.462
129.705
165.272
222.998
285.851
376.688
437.628
9.13082
9.43688
10.31
11.6629
13.4135
15.6077
18.3431
21.7195
25.8956
31.0465
37.3903
45.1324
54.7424
66.5106
81.9204
101.434
129.661
165.162
222.834
285.506
376.36
436.895
9.13078
9.43684
10.3099
11.6628
13.4134
15.6075
18.3428
21.7191
25.8948
31.0454
37.3885
45.1295
54.7376
66.5015
81.9058
101.4
129.605
165.033
222.648
285.088
375.941
435.966
9.13073
9.43678
10.3099
11.6627
13.4132
15.6073
18.3424
21.7185
25.8939
31.044
37.3863
45.1261
54.7319
66.4906
81.8884
101.36
129.54
164.881
222.432
284.602
375.436
434.842
9.13067
9.43672
10.3098
11.6626
13.4131
15.607
18.342
21.7178
25.8929
31.0424
37.3837
45.1221
54.7252
66.4778
81.8681
101.313
129.468
164.709
222.195
284.057
374.849
433.52
9.13061
9.43665
10.3097
11.6624
13.4128
15.6067
18.3415
21.717
25.8917
31.0405
37.3807
45.1176
54.7176
66.4634
81.8455
101.262
129.394
164.524
221.959
283.466
374.183
431.995
9.13054
9.43656
10.3096
11.6623
13.4126
15.6063
18.341
21.7161
25.8903
31.0384
37.3774
45.1125
54.709
66.4473
81.8218
101.211
129.326
164.339
221.75
282.84
373.441
430.262
9.13046
9.43647
10.3095
11.6621
13.4123
15.6059
18.3404
21.7151
25.8888
31.0361
37.3737
45.1068
54.6995
66.4298
81.7986
101.167
129.284
164.176
221.601
282.187
372.617
428.313
9.13037
9.43637
10.3093
11.6619
13.412
15.6055
18.3397
21.7141
25.8872
31.0335
37.3697
45.1006
54.6891
66.4121
81.7803
101.144
129.307
164.076
221.545
281.513
371.707
426.14
9.13028
9.43626
10.3092
11.6617
13.4117
15.605
18.339
21.7129
25.8854
31.0307
37.3653
45.0937
54.6781
66.3968
81.7792
101.171
129.45
164.093
221.591
280.809
370.701
423.729
9.13017
9.43615
10.309
11.6615
13.4114
15.6045
18.3382
21.7116
25.8834
31.0277
37.3605
45.0864
54.6672
66.3901
81.816
101.287
129.771
164.273
221.71
280.058
369.589
421.069
9.13006
9.43602
10.3089
11.6612
13.411
15.6039
18.3374
21.7102
25.8813
31.0244
37.3553
45.0785
54.6583
66.4036
81.9151
101.521
130.297
164.62
221.836
279.234
368.363
418.145
9.12994
9.43588
10.3087
11.6609
13.4106
15.6033
18.3365
21.7088
25.8791
31.0209
37.3497
45.0702
54.6554
66.4522
82.096
101.885
131.001
165.073
221.89
278.311
367.014
414.944
9.12981
9.43574
10.3085
11.6607
13.4102
15.6027
18.3355
21.7072
25.8767
31.0172
37.3438
45.0623
54.6657
66.5486
82.3643
102.364
131.801
165.52
221.811
277.269
365.534
411.451
9.12968
9.43558
10.3083
11.6604
13.4097
15.602
18.3345
21.7055
25.8741
31.0132
37.3374
45.056
54.6986
66.6983
82.7087
102.916
132.565
165.838
221.566
276.099
363.916
407.651
9.12954
9.43542
10.3081
11.66
13.4093
15.6013
18.3334
21.7038
25.8714
31.009
37.3306
45.0544
54.7619
66.8972
83.1023
103.472
133.154
165.942
221.16
274.796
362.159
403.527
9.12938
9.43525
10.3078
11.6597
13.4087
15.6005
18.3323
21.7019
25.8686
31.0045
37.3234
45.062
54.8586
67.1316
83.5064
103.956
133.464
165.817
220.617
273.364
360.258
399.066
9.12923
9.43506
10.3076
11.6593
13.4082
15.5997
18.3311
21.6999
25.8656
30.9998
37.3162
45.0845
54.9846
67.3834
83.8772
104.303
133.457
165.507
219.968
271.811
358.213
394.249
9.12906
9.43487
10.3073
11.659
13.4077
15.5989
18.3298
21.6979
25.8624
30.9948
37.3096
45.126
55.1315
67.6316
84.1752
104.472
133.174
165.082
219.243
270.143
356.024
389.06
9.12888
9.43467
10.3071
11.6586
13.4071
15.598
18.3285
21.6957
25.8591
30.9895
37.3047
45.1874
55.2876
67.8569
84.3729
104.46
132.704
164.603
218.459
268.369
353.693
383.482
9.1287
9.43446
10.3068
11.6582
13.4065
15.597
18.3271
21.6935
25.8556
30.984
37.3037
45.2657
55.4423
68.0426
84.4617
104.297
132.151
164.109
217.63
266.5
351.221
377.495
9.12851
9.43425
10.3065
11.6577
13.4058
15.5961
18.3257
21.6911
25.852
30.9781
37.3093
45.3555
55.5857
68.1788
84.4502
104.032
131.595
163.612
216.758
264.544
348.611
371.08
9.12831
9.43402
10.3062
11.6573
13.4052
15.5951
18.3242
21.6887
25.8482
30.972
37.3241
45.4505
55.7115
68.2616
84.3604
103.714
131.081
163.11
215.846
262.51
345.865
364.216
9.1281
9.43378
10.3059
11.6568
13.4045
15.594
18.3226
21.6861
25.8443
30.9657
37.3491
45.5449
55.8141
68.2949
84.2184
103.385
130.621
162.594
214.892
260.41
342.986
356.879
9.12789
9.43354
10.3056
11.6564
13.4038
15.593
18.321
21.6835
25.8401
30.9595
37.3839
45.6339
55.8922
68.2858
84.0489
103.069
130.205
162.06
213.897
258.25
339.975
349.045
9.12767
9.43328
10.3052
11.6559
13.403
15.5918
18.3193
21.6808
25.8358
30.9535
37.4263
45.7143
55.9448
68.2452
83.8702
102.775
129.821
161.503
212.86
256.037
336.833
340.687
9.12743
9.43302
10.3049
11.6554
13.4022
15.5907
18.3175
21.6779
25.8314
30.9481
37.4736
45.7839
55.9745
68.1822
83.6942
102.506
129.456
160.923
211.779
253.777
333.556
331.778
9.1272
9.43275
10.3045
11.6548
13.4014
15.5895
18.3157
21.675
25.8267
30.9434
37.5232
45.8412
55.9834
68.106
83.5263
102.257
129.099
160.319
210.655
251.471
330.141
322.286
9.12695
9.43246
10.3042
11.6543
13.4006
15.5882
18.3139
21.6719
25.8219
30.9402
37.5732
45.8861
55.976
68.0224
83.3685
102.023
128.744
159.693
209.488
249.12
326.581
312.177
9.12669
9.43217
10.3038
11.6537
13.3998
15.5869
18.312
21.6687
25.8168
30.939
37.622
45.9186
55.955
67.9361
83.2201
101.8
128.388
159.046
208.279
246.723
322.867
301.418
9.12643
9.43187
10.3034
11.6531
13.3989
15.5856
18.31
21.6655
25.8117
30.9407
37.6683
45.9398
55.9245
67.8494
83.0797
101.582
128.027
158.381
207.027
244.28
318.987
289.97
9.12616
9.43157
10.303
11.6525
13.398
15.5843
18.3079
21.6621
25.8063
30.9461
37.7112
45.9508
55.8866
67.7642
82.9453
101.368
127.66
157.698
205.734
241.79
314.931
277.794
9.12588
9.43125
10.3025
11.6519
13.3971
15.5829
18.3058
21.6586
25.8007
30.9562
37.7504
45.9532
55.8444
67.6806
82.8155
101.155
127.289
156.999
204.399
239.254
310.685
264.848
9.1256
9.43092
10.3021
11.6513
13.3961
15.5814
18.3037
21.6551
25.7951
30.9726
37.786
45.9483
55.7988
67.5995
82.6887
100.942
126.911
156.285
203.023
236.676
306.239
251.087
9.1253
9.43058
10.3017
11.6506
13.3951
15.5799
18.3014
21.6514
25.7898
30.998
37.8184
45.9377
55.7519
67.5204
82.5641
100.727
126.529
155.558
201.609
234.059
301.582
236.465
9.125
9.43024
10.3012
11.6499
13.3941
15.5784
18.2992
21.6476
25.7868
31.034
37.8482
45.9227
55.7038
67.4438
82.4407
100.512
126.142
154.818
200.157
231.41
296.706
220.932
9.12469
9.42989
10.3007
11.6492
13.3931
15.5768
18.2968
21.6436
25.7915
31.0819
37.8756
45.9047
55.6559
67.3693
82.3183
100.295
125.751
154.066
198.672
228.733
291.607
204.436
9.12437
9.42952
10.3003
11.6485
13.392
15.5752
18.2944
21.6396
25.8125
31.1421
37.9008
45.8846
55.6077
67.2976
82.1967
100.077
125.357
153.304
197.156
226.034
286.282
186.923
9.12405
9.42915
10.2998
11.6478
13.3909
15.5736
18.2919
21.6357
25.8577
31.2137
37.9235
45.8635
55.56
67.2284
82.076
99.8585
124.961
152.53
195.614
223.313
280.729
168.345
9.12371
9.42877
10.2993
11.6471
13.3898
15.5719
18.2894
21.6332
25.9323
31.2948
37.9431
45.8422
55.5118
67.1625
81.956
99.6403
124.563
151.744
194.052
220.569
274.923
148.614
9.12337
9.42838
10.2987
11.6463
13.3887
15.5702
18.2867
21.6374
26.0355
31.3819
37.9594
45.8217
55.464
67.0999
81.8377
99.4227
124.163
150.942
192.476
217.79
268.782
126.984
-19.398
-20.893
-18.4412
-20.3715
-17.3607
-17.4481
-15.1102
-14.8197
-13.073
-12.6317
-10.8306
-8.48364
-4.23406
-2.991
-4.97832
-6.72893
-2.68022
4.55163
10.0747
11.332
11.5562
11.5346
10.4856
9.65291
8.30947
6.56789
5.13264
4.17932
3.46017
2.4436
1.56868
-0.325464
-0.314361
-6.24598
-2.31504
-19.3964
-20.8763
-18.4643
-20.3748
-17.3622
-17.4468
-15.1108
-14.8193
-13.0728
-12.6307
-10.8298
-8.48416
-4.23464
-2.98982
-4.97371
-6.72132
-2.67237
4.55787
10.0781
11.3345
11.5589
11.5372
10.4878
9.65497
8.31155
6.5699
5.1344
4.18075
3.4614
2.44472
1.5694
-0.325089
-0.310905
-6.24273
-2.33832
-19.3932
-20.8612
-18.4966
-20.381
-17.3639
-17.4461
-15.1112
-14.8191
-13.0723
-12.6296
-10.8303
-8.48447
-4.23367
-2.98632
-4.96638
-6.70873
-2.65464
4.57861
10.0946
11.344
11.5648
11.5421
10.4921
9.65895
8.31534
6.57338
5.1374
4.18326
3.46355
2.44674
1.57086
-0.324295
-0.306148
-6.23848
-2.35926
-19.3887
-20.8539
-18.5373
-20.3888
-17.3662
-17.446
-15.1115
-14.8189
-13.0717
-12.6284
-10.8314
-8.48439
-4.23182
-2.98226
-4.95881
-6.69441
-2.63071
4.61094
10.1238
11.361
11.5742
11.5493
10.4984
9.66482
8.32094
6.57855
5.14188
4.18701
3.46673
2.44973
1.57322
-0.323089
-0.299957
-6.23379
-2.36975
-19.3831
-20.8579
-18.5841
-20.3972
-17.3691
-17.4458
-15.1115
-14.8185
-13.0711
-12.6274
-10.8328
-8.48436
-4.22956
-2.9785
-4.95337
-6.68364
-2.60943
4.64364
10.157
11.3819
11.5861
11.5584
10.5063
9.67218
8.32799
6.58513
5.1477
4.19192
3.47086
2.45359
1.5764
-0.321439
-0.29261
-6.22781
-2.36988
-19.3765
-20.8773
-18.6345
-20.4059
-17.372
-17.4452
-15.1109
-14.8181
-13.0706
-12.6268
-10.8347
-8.48444
-4.22689
-2.9749
-4.95
-6.67745
-2.5942
4.6706
10.1878
11.4037
11.5997
11.5688
10.5153
9.68046
8.33595
6.59272
5.15457
4.19781
3.47579
2.45818
1.58026
-0.319372
-0.284354
-6.21976
-2.36061
-19.3688
-20.9158
-18.6858
-20.4148
-17.3744
-17.444
-15.1096
-14.8176
-13.0703
-12.6269
-10.8372
-8.48465
-4.22352
-2.97069
-4.94759
-6.67455
-2.58454
4.69076
10.2138
11.4247
11.6141
11.5802
10.5249
9.68911
8.34428
6.60081
5.16215
4.20447
3.48136
2.46333
1.58468
-0.316951
-0.275377
-6.20921
-2.34254
-19.3604
-20.9757
-18.736
-20.4236
-17.3765
-17.4421
-15.1077
-14.8171
-13.0703
-12.6278
-10.8404
-8.48483
-4.21926
-2.96553
-4.94527
-6.67335
-2.57871
4.7052
10.2345
11.4438
11.6287
11.5919
10.5346
9.69765
8.35243
6.60886
5.16997
4.21158
3.48738
2.46886
1.58948
-0.314245
-0.265857
-6.19605
-2.31606
-19.3512
-21.0583
-18.783
-20.4318
-17.3783
-17.4401
-15.1055
-14.8167
-13.0706
-12.6295
-10.8443
-8.48499
-4.21414
-2.95944
-4.9428
-6.67292
-2.57525
4.71535
10.2501
11.4602
11.6426
11.6034
10.5441
9.70564
8.35993
6.61635
5.17753
4.21879
3.49362
2.47457
1.5945
-0.311337
-0.255973
-6.18035
-2.28163
-19.3416
-21.1635
-18.8254
-20.4395
-17.3798
-17.438
-15.1032
-14.8164
-13.0712
-12.6321
-10.8487
-8.48513
-4.20839
-2.95279
-4.94032
-6.67286
-2.57317
4.72233
10.2613
11.4731
11.6549
11.6141
10.5527
9.71268
8.36635
6.62279
5.18432
4.22564
3.4998
2.48025
1.59954
-0.308314
-0.245905
-6.16232
-2.23976
-19.3318
-21.2897
-18.8624
-20.4465
-17.3813
-17.4364
-15.101
-14.8163
-13.0721
-12.6355
-10.8536
-8.48537
-4.20234
-2.9459
-4.93798
-6.67314
-2.572
4.72689
10.2684
11.4822
11.6646
11.6231
10.5601
9.71839
8.37136
6.6278
5.18987
4.23169
3.5056
2.4857
1.60441
-0.305276
-0.235813
-6.1423
-2.19105
-19.322
-21.4341
-18.8935
-20.453
-17.3827
-17.4354
-15.0993
-14.8166
-13.0733
-12.6395
-10.859
-8.48581
-4.19635
-2.93913
-4.93591
-6.67366
-2.57135
4.72956
10.2718
11.4871
11.6709
11.6297
10.5655
9.72242
8.37472
6.63116
5.19388
4.23655
3.5107
2.49069
1.60891
-0.302327
-0.225831
-6.12077
-2.13623
-19.3125
-21.5922
-18.9189
-20.4591
-17.3843
-17.4352
-15.0982
-14.8173
-13.075
-12.6444
-10.8647
-8.48657
-4.19073
-2.93272
-4.93415
-6.67439
-2.57107
4.73079
10.2724
11.4884
11.6736
11.6333
10.5687
9.72454
8.37634
6.6328
5.19622
4.23998
3.51481
2.49499
1.61285
-0.299573
-0.216059
-6.09834
-2.07607
-19.3037
-21.7583
-18.9388
-20.465
-17.3861
-17.436
-15.0981
-14.8185
-13.0772
-12.6498
-10.8708
-8.48778
-4.18577
-2.92698
-4.93271
-6.67515
-2.57097
4.73095
10.2708
11.4866
11.6731
11.6342
10.5696
9.72471
8.37625
6.63285
5.19699
4.24195
3.51777
2.49845
1.61606
-0.297124
-0.206555
-6.07575
-2.01153
-19.2956
-21.9256
-18.9541
-20.4709
-17.3885
-17.4379
-15.0991
-14.8205
-13.0799
-12.6561
-10.8775
-8.48954
-4.1817
-2.92206
-4.93159
-6.67585
-2.57107
4.73026
10.2679
11.4829
11.6701
11.6325
10.5683
9.72308
8.37466
6.63156
5.19645
4.2426
3.51954
2.50094
1.61844
-0.295083
-0.197336
-6.05381
-1.94373
-19.2886
-22.0871
-18.9657
-20.477
-17.3915
-17.4412
-15.1015
-14.8233
-13.0834
-12.6632
-10.8847
-8.492
-4.17869
-2.91817
-4.93082
-6.67638
-2.57139
4.7288
10.264
11.4777
11.6653
11.6291
10.5654
9.71992
8.37179
6.62924
5.19496
4.24224
3.52024
2.50249
1.61992
-0.293538
-0.188385
-6.03333
-1.87403
-19.2828
-22.2364
-18.9745
-20.4834
-17.3955
-17.446
-15.1053
-14.8272
-13.0878
-12.6714
-10.8928
-8.4953
-4.17683
-2.91536
-4.9304
-6.67678
-2.57208
4.72655
10.2592
11.4717
11.6596
11.6245
10.5612
9.71556
8.3679
6.62614
5.19284
4.24118
3.52011
2.50321
1.62057
-0.292538
-0.179666
-6.01494
-1.80406
-19.2781
-22.3684
-18.9813
-20.4904
-17.4008
-17.4527
-15.111
-14.8324
-13.0934
-12.6807
-10.902
-8.49962
-4.17618
-2.91368
-4.93037
-6.67705
-2.57308
4.72351
10.2533
11.4647
11.653
11.6192
10.5562
9.71029
8.36317
6.62244
5.19032
4.23972
3.5194
2.50329
1.62047
-0.292075
-0.171144
-5.99897
-1.73578
-19.2746
-22.4812
-18.987
-20.4982
-17.4076
-17.4616
-15.1189
-14.8394
-13.1005
-12.6916
-10.9127
-8.50521
-4.17674
-2.91303
-4.93077
-6.6773
-2.57434
4.71971
10.2461
11.4565
11.6456
11.6133
10.5507
9.70434
8.35776
6.61825
5.18754
4.23802
3.51832
2.50293
1.61979
-0.292079
-0.162791
-5.98532
-1.67141
-19.2719
-22.576
-18.9922
-20.5075
-17.4162
-17.4732
-15.1296
-14.8487
-13.1095
-12.7044
-10.9255
-8.51244
-4.17861
-2.9134
-4.93164
-6.67747
-2.5756
4.71525
10.2373
11.4467
11.6372
11.6068
10.5447
9.69783
8.35178
6.61365
5.18458
4.23618
3.51703
2.5023
1.61867
-0.292447
-0.154569
-5.97362
-1.61314
-19.2696
-22.6562
-18.9977
-20.5189
-17.4266
-17.488
-15.1436
-14.861
-13.1211
-12.7197
-10.9413
-8.5219
-4.18192
-2.9147
-4.93305
-6.67756
-2.57665
4.71023
10.2268
11.4354
11.6276
11.5996
10.5383
9.69083
8.34528
6.60868
5.18145
4.23425
3.51561
2.50153
1.61722
-0.293077
-0.146415
-5.96331
-1.56261
-19.2675
-22.7255
-19.0059
-20.5337
-17.4392
-17.5064
-15.1618
-14.877
-13.1359
-12.7382
-10.961
-8.53445
-4.18709
-2.91708
-4.93504
-6.67741
-2.5772
4.70471
10.2147
11.4222
11.6167
11.5916
10.5314
9.68334
8.33831
6.60339
5.17819
4.23223
3.5141
2.50066
1.61553
-0.293883
-0.138239
-5.95385
-1.52038
-19.2651
-22.7872
-19.0191
-20.5532
-17.4542
-17.5292
-15.1849
-14.8978
-13.1548
-12.7607
-10.986
-8.55118
-4.1947
-2.92068
-4.93772
-6.67699
-2.57719
4.69862
10.2007
11.4072
11.6046
11.5828
10.524
9.67537
8.33088
6.59781
5.1748
4.23011
3.51254
2.49975
1.61366
-0.2948
-0.129954
-5.94484
-1.48577
-19.2621
-22.8442
-19.0393
-20.5796
-17.4722
-17.5571
-15.2138
-14.9243
-13.1786
-12.7881
-11.0173
-8.57327
-4.20555
-2.92607
-4.94126
-6.67618
-2.57655
4.69179
10.1847
11.3903
11.5911
11.5731
10.5161
9.6669
8.323
6.592
5.1713
4.22792
3.51093
2.49881
1.61165
-0.295781
-0.121504
-5.93603
-1.45722
-19.2582
-22.899
-19.0674
-20.615
-17.4941
-17.591
-15.2498
-14.9576
-13.2083
-12.8214
-11.056
-8.60161
-4.22018
-2.93377
-4.94613
-6.67516
-2.5755
4.68395
10.1665
11.3716
11.5763
11.5627
10.5077
9.65795
8.3147
6.58597
5.16769
4.22566
3.50927
2.49783
1.60952
-0.296787
-0.112875
-5.92729
-1.43287
-19.2531
-22.9535
-19.1026
-20.6619
-17.5207
-17.6321
-15.2938
-14.9984
-13.2445
-12.8608
-11.1023
-8.63646
-4.23869
-2.94454
-4.95312
-6.67421
-2.57425
4.67478
10.1457
11.3507
11.5603
11.5515
10.4989
9.64851
8.306
6.57976
5.16401
4.22334
3.50757
2.4968
1.60728
-0.297785
-0.104095
-5.91858
-1.411
-19.2466
-23.0095
-19.1425
-20.7223
-17.5531
-17.6809
-15.3466
-15.0471
-13.2875
-12.9066
-11.1555
-8.67703
-4.26001
-2.95831
-4.96325
-6.67402
-2.57327
4.66395
10.1223
11.3278
11.543
11.5396
10.4896
9.63858
8.29692
6.5734
5.16027
4.22099
3.50582
2.49572
1.60493
-0.298753
-0.0952187
-5.90994
-1.39029
-19.2384
-23.0688
-19.1839
-20.7973
-17.5921
-17.7376
-15.408
-15.1029
-13.3364
-12.9576
-11.2137
-8.72145
-4.2823
-2.97434
-4.97734
-6.67524
-2.57295
4.65117
10.0958
11.3027
11.5244
11.5269
10.4799
9.62814
8.28748
6.56691
5.1565
4.21864
3.50403
2.49456
1.60247
-0.299667
-0.0863259
-5.90137
-1.36979
-19.2283
-23.1331
-19.2242
-20.887
-17.6379
-17.801
-15.4764
-15.1636
-13.3894
-13.0119
-11.2744
-8.76669
-4.30274
-2.99055
-4.99538
-6.67844
-2.57385
4.63616
10.0664
11.2754
11.5046
11.5136
10.4697
9.61719
8.27772
6.56032
5.15272
4.21631
3.50218
2.49331
1.59991
-0.300515
-0.0775012
-5.89294
-1.34881
-19.2161
-23.2053
-19.2623
-20.9901
-17.6902
-17.8682
-15.5482
-15.2251
-13.4431
-13.0662
-11.3334
-8.80904
-4.31862
-3.00485
-5.01608
-6.68334
-2.57609
4.61883
10.034
11.2459
11.4836
11.4997
10.4591
9.6057
8.26763
6.55367
5.14898
4.21402
3.50027
2.49195
1.59725
-0.301284
-0.068848
-5.88467
-1.32691
-19.2013
-23.2893
-19.2994
-21.1029
-17.7474
-17.9352
-15.6181
-15.2821
-13.4931
-13.1166
-11.3869
-8.84435
-4.32716
-3.01499
-5.03713
-6.68907
-2.57967
4.59923
9.99869
11.2143
11.4616
11.4851
10.4479
9.59368
8.25725
6.54696
5.14529
4.21178
3.49828
2.49047
1.5945
-0.301969
-0.0604681
-5.87664
-1.30376
-19.1837
-23.3906
-19.3374
-21.2188
-17.8067
-17.9961
-15.6795
-15.3281
-13.5341
-13.1586
-11.43
-8.86883
-4.32677
-3.02004
-5.05586
-6.69387
-2.58388
4.5777
9.96083
11.1807
11.4384
11.47
10.4362
9.58107
8.24657
6.54025
5.14171
4.20963
3.49622
2.48885
1.59165
-0.302566
-0.0524866
-5.86889
-1.27912
-19.1628
-23.5174
-19.3778
-21.3277
-17.8641
-18.0448
-15.7256
-15.3569
-13.5615
-13.1886
-11.4596
-8.87955
-4.31679
-3.01962
-5.07019
-6.69629
-2.58801
4.55476
9.92093
11.1454
11.4142
11.4543
10.4239
9.56787
8.23563
6.53355
5.13827
4.20758
3.49407
2.4871
1.58872
-0.303074
-0.0450263
-5.86151
-1.25282
-19.1379
-23.6799
-19.4198
-21.4169
-17.9146
-18.0753
-15.7504
-15.3638
-13.5714
-13.2035
-11.4733
-8.87541
-4.29862
-3.01501
-5.07922
-6.69508
-2.59098
4.53107
9.87946
11.1086
11.389
11.4379
10.411
9.55404
8.22441
6.52691
5.135
4.20564
3.49182
2.48518
1.58571
-0.303486
-0.0382434
-5.85457
-1.22476
-19.1083
-23.8909
-19.46
-21.4742
-17.9535
-18.0838
-15.7507
-15.3465
-13.5624
-13.2028
-11.4711
-8.85753
-4.27522
-3.00823
-5.08372
-6.69003
-2.59224
4.50721
9.83704
11.0708
11.3629
11.4207
10.3973
9.53955
8.21296
6.52035
5.13193
4.20382
3.48948
2.48311
1.58262
-0.303803
-0.0322947
-5.84818
-1.19484
-19.0728
-24.1651
-19.4925
-21.4921
-17.9778
-18.0694
-15.7265
-15.3063
-13.5356
-13.1875
-11.4546
-8.82964
-4.25135
-3.00274
-5.08559
-6.68113
-2.59115
4.48363
9.79405
11.0323
11.3358
11.4028
10.3828
9.52437
8.20127
6.51393
5.1291
4.20215
3.48703
2.48084
1.57945
-0.304011
-0.0273863
-5.84243
-1.16302
-19.0281
-24.5186
-19.5105
-21.4699
-17.9867
-18.0345
-15.6812
-15.2471
-13.4944
-13.1608
-11.4275
-8.79728
-4.23199
-3.00188
-5.0871
-6.66901
-2.58779
4.46057
9.75084
10.9934
11.3077
11.3838
10.3674
9.50851
8.18941
6.50768
5.12654
4.20062
3.48446
2.47839
1.57621
-0.304103
-0.0237235
-5.83748
-1.12928
-18.9715
-24.9626
-19.5068
-21.413
-17.9818
-17.984
-15.6205
-15.1752
-13.4437
-13.1264
-11.3944
-8.76659
-4.22137
-3.00835
-5.08978
-6.65391
-2.58195
4.43813
9.70741
10.9545
11.2789
11.3638
10.351
9.49195
8.17738
6.50166
5.12428
4.19925
3.48178
2.47572
1.57289
-0.304055
-0.0215822
-5.83342
-1.09359
-18.9026
-25.4906
-19.4735
-21.3301
-17.9662
-17.9239
-15.551
-15.0972
-13.3888
-13.0881
-11.3606
-8.74237
-4.22113
-3.02276
-5.09426
-6.63628
-2.574
4.4161
9.66361
10.9155
11.2494
11.3428
10.3336
9.47478
8.16528
6.49587
5.12232
4.19803
3.47897
2.47283
1.5695
-0.303854
-0.0212561
-5.83047
-1.05587
-18.823
-26.0637
-19.4023
-21.2301
-17.9434
-17.8597
-15.4789
-15.0193
-13.334
-13.0491
-11.3314
-8.72644
-4.23054
-3.04434
-5.10003
-6.6158
-2.56397
4.39396
9.61893
10.8764
11.2195
11.3209
10.3153
9.45699
8.15308
6.49034
5.12066
4.19697
3.47604
2.4697
1.56603
-0.303476
-0.0231639
-5.8287
-1.01599
-18.7265
-26.5997
-19.2848
-21.1204
-17.916
-17.7957
-15.4088
-14.9458
-13.282
-13.0135
-11.3106
-8.71749
-4.24738
-3.071
-5.10576
-6.59243
-2.55296
4.37064
9.57302
10.8374
11.1899
11.2984
10.2962
9.43859
8.14073
6.48498
5.11928
4.1961
3.47303
2.46634
1.56249
-0.302933
-0.0276416
-5.82826
-0.973973
-18.5855
-26.9706
-19.1141
-21.0058
-17.8853
-17.7338
-15.3435
-14.8795
-13.2363
-12.9858
-11.2979
-8.71297
-4.26931
-3.09999
-5.10957
-6.56657
-2.54266
4.34497
9.52599
10.7992
11.1614
11.2756
10.2759
9.41926
8.128
6.47975
5.11829
4.19556
3.47001
2.46267
1.55877
-0.302185
-0.0346224
-5.82914
-0.931156
-18.4085
-27.0211
-18.8841
-20.8901
-17.8513
-17.675
-15.2842
-14.8227
-13.2016
-12.9678
-11.2907
-8.71105
-4.2933
-3.12744
-5.11055
-6.54139
-2.53644
4.31659
9.47971
10.7635
11.1349
11.2523
10.2536
9.39848
8.1148
6.47483
5.11793
4.19553
3.46699
2.45857
1.55485
-0.301103
-0.0436433
-5.83176
-0.889217
-18.4884
-26.6231
-18.5891
-20.7783
-17.8173
-17.622
-15.2313
-14.7783
-13.1805
-12.9569
-11.2867
-8.71079
-4.31699
-3.15188
-5.11062
-6.52067
-2.53542
4.28794
9.43745
10.732
11.1095
11.226
10.2274
9.37565
8.10183
6.47143
5.11907
4.19607
3.4634
2.45352
1.55073
-0.299324
-0.0590375
-5.83757
-0.838916
9.1231
9.42807
10.2983
11.6457
13.3878
15.5688
18.2846
21.6596
26.1331
31.4493
37.9682
45.8063
55.4264
67.056
81.7482
99.2551
123.854
150.304
191.25
215.589
263.709
105.24
9.1229
9.42784
10.298
11.6453
13.3871
15.5678
18.283
21.6932
26.2046
31.4915
37.9703
45.7947
55.4
67.0269
81.6858
99.1344
123.631
149.835
190.364
213.989
259.834
102.277
9.12269
9.4276
10.2977
11.6448
13.3864
15.5667
18.2814
21.7344
26.2664
31.5241
37.968
45.7814
55.3723
66.9976
81.6224
99.0101
123.399
149.347
189.457
212.329
255.799
103.933
9.12246
9.42734
10.2974
11.6443
13.3856
15.5656
18.2796
21.7756
26.3175
31.5483
37.9634
45.7671
55.3453
66.9664
81.5578
98.8806
123.158
148.838
188.527
210.6
251.65
103.799
9.12223
9.42708
10.297
11.6438
13.3849
15.5644
18.2777
21.811
26.3588
31.5657
37.958
45.7522
55.318
66.9344
81.4916
98.7457
122.904
148.307
187.569
208.803
247.375
101.982
9.12198
9.42679
10.2966
11.6432
13.384
15.5631
18.2758
21.8347
26.391
31.5776
37.9528
45.7374
55.2922
66.901
81.424
98.6043
122.636
147.754
186.576
206.938
242.972
99.9121
9.12172
9.4265
10.2962
11.6426
13.3832
15.5618
18.2737
21.8425
26.4143
31.5847
37.9485
45.723
55.2669
66.867
81.3545
98.4564
122.352
147.177
185.543
205.007
238.444
97.9845
9.12145
9.42618
10.2958
11.642
13.3822
15.5604
18.2715
21.8353
26.4292
31.5881
37.9456
45.7094
55.2434
66.8318
81.2833
98.3012
122.049
146.574
184.462
203.012
233.797
96.0362
9.12116
9.42585
10.2954
11.6414
13.3813
15.5589
18.2692
21.8169
26.4362
31.5882
37.944
45.6966
55.2207
66.7962
81.2099
98.1388
121.727
145.945
183.328
200.952
229.035
93.969
9.12085
9.4255
10.2949
11.6407
13.3803
15.5573
18.2668
21.7911
26.4352
31.5855
37.9439
45.685
55.1998
66.7595
81.1346
97.9687
121.384
145.288
182.134
198.827
224.163
91.8071
9.12053
9.42513
10.2944
11.64
13.3792
15.5556
18.2642
21.7601
26.4261
31.5801
37.9449
45.6745
55.1797
66.7224
81.0567
97.7913
121.019
144.602
180.874
196.636
219.184
89.5853
9.12018
9.42474
10.2939
11.6392
13.378
15.5538
18.2615
21.7259
26.4083
31.5718
37.9466
45.6653
55.1611
66.684
80.9765
97.6061
120.632
143.883
179.542
194.379
214.105
87.3147
9.11982
9.42432
10.2934
11.6384
13.3768
15.5519
18.2586
21.6906
26.3811
31.56
37.9485
45.6571
55.143
66.6449
80.8932
97.4134
120.223
143.132
178.135
192.053
208.93
84.9992
9.11944
9.42388
10.2928
11.6376
13.3755
15.5499
18.2556
21.656
26.3436
31.5441
37.9499
45.65
55.1261
66.604
80.8068
97.2125
119.792
142.346
176.648
189.658
203.665
82.6474
9.11903
9.42342
10.2922
11.6367
13.3742
15.5478
18.2523
21.6242
26.2949
31.5229
37.9498
45.6437
55.1092
66.5618
80.7165
97.0035
119.34
141.525
175.078
187.193
198.314
80.2716
9.11861
9.42293
10.2915
11.6357
13.3727
15.5456
18.2489
21.5964
26.2348
31.4951
37.9469
45.6381
55.0932
66.5173
80.6223
96.7856
118.865
140.666
173.424
184.654
192.881
77.8847
9.11815
9.42241
10.2908
11.6347
13.3712
15.5432
18.2452
21.5734
26.1639
31.4591
37.9397
45.6326
55.0769
66.4707
80.5232
96.5587
118.367
139.768
171.684
182.042
187.372
75.5008
9.11767
9.42186
10.2901
11.6336
13.3696
15.5407
18.2413
21.5552
26.0839
31.413
37.926
45.6266
55.0611
66.4209
80.4189
96.3214
117.847
138.831
169.855
179.355
181.791
73.1338
9.11716
9.42128
10.2893
11.6325
13.3679
15.538
18.2372
21.5414
25.9979
31.3551
37.9032
45.6191
55.0448
66.3682
80.3085
96.0736
117.302
137.852
167.939
176.59
176.141
70.7965
9.11663
9.42067
10.2885
11.6313
13.3661
15.5351
18.2328
21.5307
25.9103
31.2842
37.8682
45.6084
55.0284
66.3116
80.1913
95.8138
116.732
136.83
165.934
173.747
170.426
68.4992
9.11605
9.42001
10.2876
11.63
13.3642
15.5321
18.2282
21.5219
25.826
31.2001
37.8173
45.592
55.0108
66.2513
80.0664
95.5415
116.135
135.765
163.84
170.825
164.652
66.2493
9.11545
9.41932
10.2867
11.6287
13.3622
15.5289
18.2232
21.514
25.7493
31.1043
37.7465
45.5665
54.9916
66.1863
79.9332
95.2551
115.509
134.654
161.657
167.82
158.823
64.0498
9.1148
9.41858
10.2857
11.6272
13.36
15.5256
18.2178
21.5063
25.6836
31.0002
37.6523
45.5267
54.9683
66.1168
79.7907
94.9542
114.854
133.495
159.384
164.733
152.946
61.8988
9.11412
9.4178
10.2847
11.6257
13.3577
15.522
18.2122
21.4983
25.6307
30.8929
37.533
45.4657
54.9386
66.0417
79.638
94.637
114.168
132.287
157.021
161.561
147.027
59.7897
9.11339
9.41697
10.2836
11.6241
13.3553
15.5181
18.2062
21.4898
25.5896
30.7886
37.3898
45.3753
54.8967
65.9606
79.4744
94.3029
113.448
131.029
154.568
158.303
141.074
57.7106
9.11262
9.41609
10.2824
11.6224
13.3527
15.5141
18.1998
21.4807
25.5581
30.6926
37.2282
45.2467
54.8347
65.8707
79.2989
93.9505
112.693
129.717
152.025
154.958
135.097
55.6454
9.1118
9.41516
10.2811
11.6206
13.35
15.5098
18.193
21.471
25.533
30.6086
37.057
45.074
54.7395
65.7689
79.1101
93.5789
111.903
128.351
149.391
151.522
129.108
53.5744
9.11093
9.41416
10.2798
11.6186
13.3471
15.5053
18.1858
21.4606
25.5116
30.5379
36.8873
44.8571
54.5957
65.6472
78.906
93.1867
111.075
126.928
146.667
147.995
123.116
51.4751
9.11001
9.41311
10.2784
11.6166
13.344
15.5004
18.1782
21.4494
25.4916
30.4793
36.7292
44.6049
54.3853
65.4936
78.6823
92.7726
110.21
125.446
143.853
144.376
117.136
49.3242
9.10902
9.41198
10.2769
11.6144
13.3407
15.4953
18.1701
21.4374
25.4717
30.4302
36.5893
44.3342
54.0973
65.2886
78.4313
92.334
109.306
123.905
140.95
140.662
111.181
47.0983
9.10797
9.41078
10.2753
11.6121
13.3372
15.4898
18.1615
21.4246
25.4511
30.3874
36.4702
44.0657
53.7333
65.0085
78.1391
91.8668
108.363
122.302
137.96
136.852
105.266
44.7756
9.10685
9.40951
10.2736
11.6096
13.3335
15.484
18.1523
21.411
25.4294
30.3476
36.3701
43.8175
53.3134
64.6305
77.784
91.3629
107.378
120.636
134.882
132.947
99.405
42.3369
9.10566
9.40815
10.2718
11.607
13.3295
15.4778
18.1426
21.3965
25.4063
30.3083
36.2845
43.6001
52.8712
64.1451
77.3363
90.8095
106.349
118.906
131.72
128.947
93.6129
39.7668
9.10439
9.40671
10.2699
11.6041
13.3253
15.4712
18.1323
21.381
25.3817
30.2681
36.2077
43.4152
52.444
63.5659
76.7661
90.1851
105.269
117.111
128.475
124.853
87.9044
37.0546
9.10304
9.40517
10.2678
11.6011
13.3208
15.4643
18.1213
21.3645
25.3555
30.226
36.1345
43.2573
52.0589
62.9316
76.0558
89.4623
104.128
115.248
125.15
120.669
82.2942
34.1949
9.1016
9.40353
10.2656
11.598
13.316
15.4568
18.1096
21.347
25.3276
30.1814
36.061
43.1174
51.7265
62.2936
75.2157
88.6116
102.909
113.317
121.748
116.397
76.7963
31.1882
9.10006
9.40178
10.2633
11.5946
13.3109
15.4489
18.0972
21.3283
25.2979
30.1341
35.9848
42.986
51.4421
61.6967
74.2892
87.6146
101.592
111.314
118.276
112.045
71.4243
28.0409
9.09842
9.39991
10.2608
11.5909
13.3055
15.4404
18.0839
21.3084
25.2663
30.0838
35.9046
42.8554
51.1912
61.1642
73.341
86.4766
100.154
109.237
114.741
107.621
66.1919
24.7655
9.09666
9.39792
10.2581
11.587
13.2997
15.4314
18.0699
21.2871
25.2327
30.0304
35.8196
42.7205
50.957
60.695
72.4321
85.2342
98.5827
107.085
111.157
103.136
61.1126
21.3798
9.09479
9.3958
10.2553
11.5829
13.2935
15.4218
18.0549
21.2645
25.1969
29.9736
35.7295
42.5786
50.7251
60.2709
71.5975
83.9463
96.8839
104.858
107.543
98.6064
56.2007
17.9069
9.09279
9.39353
10.2522
11.5785
13.2869
15.4116
18.0389
21.2404
25.1588
29.9132
35.6339
42.4286
50.4859
59.8675
70.8383
82.6718
95.085
102.562
103.925
94.0535
51.4721
14.3743
9.09066
9.3911
10.249
11.5738
13.2798
15.4007
18.0219
21.2146
25.1182
29.849
35.5323
42.2696
50.2343
59.4633
70.1301
81.447
93.229
100.209
100.339
89.5065
46.9446
10.8139
9.08837
9.38851
10.2455
11.5688
13.2723
15.3891
18.0038
21.1872
25.0749
29.7807
35.4244
42.1011
49.9684
59.0441
69.4394
80.2762
91.3585
97.8139
96.8183
85.0024
42.6385
7.26099
9.08593
9.38575
10.2418
11.5634
13.2642
15.3767
17.9845
21.1579
25.0289
29.708
35.3098
41.9223
49.6872
58.6028
68.7365
79.1377
89.4997
95.386
93.3951
80.5849
38.5761
3.75465
9.08332
9.38279
10.2379
11.5576
13.2556
15.3634
17.9639
21.1266
24.9798
29.6307
35.1881
41.7326
49.3898
58.137
68.0023
77.9985
87.6573
92.9239
90.0804
76.2999
34.7801
0.336514
9.08053
9.37963
10.2337
11.5515
13.2464
15.3493
17.942
21.0933
24.9275
29.5484
35.0588
41.5314
49.075
57.6456
67.2283
76.8272
85.8177
90.416
86.8545
72.1856
31.271
-2.95014
9.07755
9.37624
10.2291
11.5449
13.2366
15.3342
17.9186
21.0577
24.8717
29.4608
34.9214
41.3179
48.7418
57.1277
66.4131
75.6034
83.9542
87.8523
83.6647
68.259
28.0621
-6.06244
9.07435
9.37263
10.2243
11.5379
13.2261
15.3181
17.8936
21.0197
24.8123
29.3676
34.7755
41.0914
48.3893
56.5816
65.5574
74.3194
82.038
85.23