/*--------------------------------*- C++ -*----------------------------------*\
| =========                 |                                                 |
| \\      /  F ield         | OpenFOAM: The Open Source CFD Toolbox           |
|  \\    /   O peration     | Version:  v1912                                 |
|   \\  /    A nd           | Website:  www.openfoam.com                      |
|    \\/     M anipulation  |                                                 |
\*---------------------------------------------------------------------------*/
FoamFile
{
    version     2.0;
    format      ascii;
    class       surfaceScalarField;
    location    "570";
    object      phi;
}
// * * * * * * * * * * * * * * * * * * * * * * * * * * * * * * * * * * * * * //

dimensions      [0 3 -1 0 0 0 0];
oriented        oriented;


internalField   nonuniform List<scalar> 
24588
(
6.81682e-05
2.00714e-08
6.81134e-05
5.52103e-08
6.80274e-05
8.58376e-08
6.79102e-05
1.17115e-07
6.77582e-05
1.51771e-07
6.75667e-05
1.91646e-07
6.73291e-05
2.37453e-07
6.70335e-05
2.96378e-07
6.6666e-05
3.66775e-07
6.62153e-05
4.51354e-07
6.56529e-05
5.61676e-07
6.4941e-05
7.04698e-07
6.41286e-05
8.50165e-07
6.29466e-05
1.14959e-06
6.14649e-05
1.44309e-06
5.91819e-05
2.32721e-06
5.62378e-05
2.94119e-06
5.13765e-05
4.8616e-06
4.46199e-05
6.75635e-06
3.33939e-05
1.12259e-05
1.98008e-05
1.35932e-05
1.98008e-05
6.81685e-05
4.06243e-08
6.81133e-05
1.10998e-07
6.80273e-05
1.71602e-07
6.79103e-05
2.34096e-07
6.77583e-05
3.03456e-07
6.75668e-05
3.83309e-07
6.73291e-05
4.74942e-07
6.70336e-05
5.92817e-07
6.66659e-05
7.33593e-07
6.62154e-05
9.02612e-07
6.56522e-05
1.12398e-06
6.4941e-05
1.40772e-06
6.41364e-05
1.69728e-06
6.29392e-05
2.31615e-06
6.14533e-05
2.88827e-06
5.92508e-05
4.57191e-06
5.62515e-05
5.93545e-06
5.13427e-05
9.77064e-06
4.46652e-05
1.34334e-05
3.32977e-05
2.25932e-05
1.97661e-05
2.71249e-05
3.95667e-05
6.81685e-05
6.11732e-08
6.81133e-05
1.6677e-07
6.80273e-05
2.57377e-07
6.79102e-05
3.5109e-07
6.77583e-05
4.55154e-07
6.75667e-05
5.74985e-07
6.73291e-05
7.12463e-07
6.70335e-05
8.89273e-07
6.66657e-05
1.10049e-06
6.62155e-05
1.35364e-06
6.5652e-05
1.68659e-06
6.49402e-05
2.11104e-06
6.41393e-05
2.54171e-06
6.29439e-05
3.47313e-06
6.14517e-05
4.33701e-06
5.92835e-05
6.79047e-06
5.62473e-05
8.96528e-06
5.13631e-05
1.46556e-05
4.46422e-05
2.01536e-05
3.33197e-05
3.39156e-05
1.97864e-05
4.06583e-05
5.9353e-05
6.81685e-05
8.17308e-08
6.81133e-05
2.22533e-07
6.80273e-05
3.43139e-07
6.79103e-05
4.68078e-07
6.77583e-05
6.06837e-07
6.75668e-05
7.66642e-07
6.73291e-05
9.49961e-07
6.70336e-05
1.18569e-06
6.66658e-05
1.46734e-06
6.62153e-05
1.80489e-06
6.56522e-05
2.2488e-06
6.49407e-05
2.81439e-06
6.4133e-05
3.39155e-06
6.29383e-05
4.63876e-06
6.14483e-05
5.78817e-06
5.93026e-05
8.97601e-06
5.62707e-05
1.19915e-05
5.13772e-05
1.95496e-05
4.46327e-05
2.68974e-05
3.33495e-05
4.51986e-05
1.98204e-05
5.41873e-05
7.91733e-05
6.81685e-05
1.02278e-07
6.81133e-05
2.78267e-07
6.80273e-05
4.28907e-07
6.79103e-05
5.85078e-07
6.77583e-05
7.58527e-07
6.75667e-05
9.5831e-07
6.73291e-05
1.1875e-06
6.70335e-05
1.48213e-06
6.66657e-05
1.83421e-06
6.62154e-05
2.25596e-06
6.56518e-05
2.81155e-06
6.49397e-05
3.51812e-06
6.41366e-05
4.23794e-06
6.2943e-05
5.79313e-06
6.1447e-05
7.24092e-06
5.93105e-05
1.1163e-05
5.62951e-05
1.50006e-05
5.13795e-05
2.44662e-05
4.46515e-05
3.36246e-05
3.33962e-05
5.64538e-05
1.98692e-05
6.77145e-05
9.90424e-05
6.81685e-05
1.2284e-07
6.81133e-05
3.34003e-07
6.80273e-05
5.14659e-07
6.79103e-05
7.02067e-07
6.77583e-05
9.10195e-07
6.75668e-05
1.14995e-06
6.73291e-05
1.42499e-06
6.70336e-05
1.77852e-06
6.66659e-05
2.20103e-06
6.62153e-05
2.70726e-06
6.56523e-05
3.37362e-06
6.49411e-05
4.22125e-06
6.41304e-05
5.08985e-06
6.29377e-05
6.9588e-06
6.14456e-05
8.69672e-06
5.93102e-05
1.33365e-05
5.63103e-05
1.7995e-05
5.13913e-05
2.93854e-05
4.46835e-05
4.03316e-05
3.34629e-05
6.76741e-05
1.99349e-05
8.12425e-05
0.000118977
6.81685e-05
1.43387e-07
6.81133e-05
3.89703e-07
6.80273e-05
6.00418e-07
6.79103e-05
8.1907e-07
6.77583e-05
1.06187e-06
6.75668e-05
1.3416e-06
6.73291e-05
1.66253e-06
6.70336e-05
2.07493e-06
6.66658e-05
2.56783e-06
6.62154e-05
3.15838e-06
6.56516e-05
3.9366e-06
6.49396e-05
4.92506e-06
6.4135e-05
5.93722e-06
6.2943e-05
8.11002e-06
6.14437e-05
1.01541e-05
5.93034e-05
1.55254e-05
5.6325e-05
2.09681e-05
5.14144e-05
3.42971e-05
4.47333e-05
4.70122e-05
3.35576e-05
7.88498e-05
2.00206e-05
9.47796e-05
0.000138998
6.81684e-05
1.63953e-07
6.81133e-05
4.45416e-07
6.80273e-05
6.8616e-07
6.79103e-05
9.36057e-07
6.77583e-05
1.21352e-06
6.75668e-05
1.53322e-06
6.73292e-05
1.90001e-06
6.70337e-05
2.37129e-06
6.6666e-05
2.93458e-06
6.62153e-05
3.60974e-06
6.56526e-05
4.49838e-06
6.49424e-05
5.62733e-06
6.41284e-05
6.79071e-06
6.29362e-05
9.2773e-06
6.14354e-05
1.16224e-05
5.9288e-05
1.77073e-05
5.63429e-05
2.3909e-05
5.14665e-05
3.91736e-05
4.48199e-05
5.3658e-05
3.36929e-05
8.99765e-05
2.01306e-05
0.000108342
0.000159128
6.81685e-05
1.84501e-07
6.81133e-05
5.01087e-07
6.80273e-05
7.7191e-07
6.79103e-05
1.05306e-06
6.77583e-05
1.36518e-06
6.75668e-05
1.72485e-06
6.73291e-05
2.13754e-06
6.70336e-05
2.66765e-06
6.6666e-05
3.30128e-06
6.62154e-05
4.06091e-06
6.56514e-05
5.06163e-06
6.49394e-05
6.33154e-06
6.41307e-05
7.6415e-06
6.29405e-05
1.0426e-05
6.14181e-05
1.31101e-05
5.92862e-05
1.98725e-05
5.6354e-05
2.68389e-05
5.15826e-05
4.39459e-05
4.49689e-05
6.02715e-05
3.38824e-05
0.000101063
2.02696e-05
0.000121955
0.000179398
6.81684e-05
2.0507e-07
6.81133e-05
5.56776e-07
6.80273e-05
8.57645e-07
6.79103e-05
1.17004e-06
6.77583e-05
1.51681e-06
6.75669e-05
1.91645e-06
6.73292e-05
2.375e-06
6.70338e-05
2.96396e-06
6.66661e-05
3.66793e-06
6.62153e-05
4.5124e-06
6.56531e-05
5.62291e-06
6.49451e-05
7.03188e-06
6.41205e-05
8.50202e-06
6.29237e-05
1.15991e-05
6.13961e-05
1.46199e-05
5.93075e-05
2.19783e-05
5.63752e-05
2.97689e-05
5.1768e-05
4.85529e-05
4.51855e-05
6.68536e-05
3.41313e-05
0.000112117
2.04414e-05
0.000135645
0.000199839
6.81684e-05
2.25618e-07
6.81133e-05
6.12418e-07
6.80273e-05
9.4339e-07
6.79103e-05
1.28704e-06
6.77583e-05
1.66844e-06
6.75669e-05
2.10805e-06
6.73292e-05
2.61251e-06
6.70337e-05
3.26026e-06
6.66662e-05
4.03452e-06
6.62154e-05
4.96377e-06
6.56519e-05
6.18558e-06
6.49385e-05
7.73801e-06
6.41036e-05
9.37578e-06
6.29108e-05
1.27568e-05
6.13818e-05
1.61322e-05
5.93403e-05
2.40324e-05
5.64236e-05
3.26853e-05
5.19883e-05
5.29889e-05
4.54418e-05
7.34001e-05
3.44312e-05
0.000123128
2.06474e-05
0.000149429
0.000220486
6.81684e-05
2.4619e-07
6.81133e-05
6.68085e-07
6.80273e-05
1.02912e-06
6.79103e-05
1.40402e-06
6.77583e-05
1.82005e-06
6.75669e-05
2.29962e-06
6.73293e-05
2.84995e-06
6.70339e-05
3.55649e-06
6.66664e-05
4.40102e-06
6.62152e-05
5.41559e-06
6.56538e-05
6.74613e-06
6.49435e-05
8.44124e-06
6.40784e-05
1.02698e-05
6.28976e-05
1.39227e-05
6.13759e-05
1.76507e-05
5.93723e-05
2.60401e-05
5.64827e-05
3.55739e-05
5.21908e-05
5.72804e-05
4.57002e-05
7.98905e-05
3.47642e-05
0.000134064
2.08864e-05
0.000163306
0.000241373
6.81684e-05
2.66736e-07
6.81133e-05
7.23698e-07
6.80273e-05
1.11486e-06
6.79103e-05
1.52102e-06
6.77584e-05
1.97167e-06
6.75669e-05
2.4912e-06
6.73293e-05
3.08744e-06
6.70339e-05
3.85271e-06
6.66664e-05
4.76749e-06
6.6215e-05
5.86759e-06
6.56528e-05
7.30757e-06
6.49388e-05
9.14892e-06
6.4049e-05
1.1187e-05
6.28929e-05
1.50632e-05
6.13755e-05
1.91612e-05
5.93973e-05
2.80222e-05
5.65355e-05
3.84359e-05
5.23504e-05
6.14659e-05
4.5938e-05
8.6303e-05
3.51125e-05
0.000144889
2.11548e-05
0.000177264
0.000262528
6.81684e-05
2.87309e-07
6.81133e-05
7.79342e-07
6.80273e-05
1.20059e-06
6.79103e-05
1.63799e-06
6.77584e-05
2.12325e-06
6.7567e-05
2.68274e-06
6.73294e-05
3.32485e-06
6.70341e-05
4.14884e-06
6.66667e-05
5.13383e-06
6.62148e-05
6.32021e-06
6.56521e-05
7.86941e-06
6.49362e-05
9.85934e-06
6.40361e-05
1.21006e-05
6.28884e-05
1.62081e-05
6.13768e-05
2.06741e-05
5.94143e-05
2.99851e-05
5.6576e-05
4.12737e-05
5.24696e-05
6.5572e-05
4.61483e-05
9.26241e-05
3.5463e-05
0.000155574
2.1448e-05
0.000191279
0.000283975
6.81684e-05
3.07853e-07
6.81133e-05
8.34925e-07
6.80273e-05
1.28633e-06
6.79103e-05
1.75498e-06
6.77584e-05
2.27484e-06
6.7567e-05
2.87429e-06
6.73294e-05
3.56231e-06
6.7034e-05
4.44497e-06
6.66669e-05
5.5e-06
6.62141e-05
6.77357e-06
6.56486e-05
8.43424e-06
6.49243e-05
1.05791e-05
6.40259e-05
1.30089e-05
6.28842e-05
1.73436e-05
6.13786e-05
2.21762e-05
5.94253e-05
3.19401e-05
5.66052e-05
4.40941e-05
5.25591e-05
6.96185e-05
4.63323e-05
9.88511e-05
3.58078e-05
0.000166099
2.1761e-05
0.000205326
0.000305736
6.81684e-05
3.28425e-07
6.81133e-05
8.90544e-07
6.80273e-05
1.37206e-06
6.79103e-05
1.87194e-06
6.77584e-05
2.4264e-06
6.7567e-05
3.0658e-06
6.73295e-05
3.79967e-06
6.70342e-05
4.74104e-06
6.66673e-05
5.86594e-06
6.62136e-05
7.22793e-06
6.56409e-05
9.00612e-06
6.49172e-05
1.12997e-05
6.40178e-05
1.39111e-05
6.2881e-05
1.84811e-05
6.13802e-05
2.3679e-05
5.94322e-05
3.38877e-05
5.66259e-05
4.69001e-05
5.26282e-05
7.36159e-05
4.64935e-05
0.000104986
3.61431e-05
0.000176449
2.20897e-05
0.00021938
0.000327826
6.81684e-05
3.48966e-07
6.81133e-05
9.46098e-07
6.80274e-05
1.45781e-06
6.79104e-05
1.98893e-06
6.77585e-05
2.57797e-06
6.75671e-05
3.25731e-06
6.73295e-05
4.03711e-06
6.70342e-05
5.03707e-06
6.66674e-05
6.23179e-06
6.62133e-05
7.68263e-06
6.56281e-05
9.59059e-06
6.49138e-05
1.20121e-05
6.40111e-05
1.48171e-05
6.2879e-05
1.96101e-05
6.13815e-05
2.51738e-05
5.94365e-05
3.58339e-05
5.66405e-05
4.96964e-05
5.2684e-05
7.75727e-05
4.66363e-05
0.000111033
3.64677e-05
0.000186618
2.24309e-05
0.000233417
0.000350257
6.81684e-05
3.69537e-07
6.81133e-05
1.00169e-06
6.80273e-05
1.54354e-06
6.79104e-05
2.10588e-06
6.77585e-05
2.72951e-06
6.75671e-05
3.44877e-06
6.73296e-05
4.27445e-06
6.70345e-05
5.33296e-06
6.66676e-05
6.59775e-06
6.62139e-05
8.13689e-06
6.56156e-05
1.01882e-05
6.49112e-05
1.27157e-05
6.40064e-05
1.57221e-05
6.28778e-05
2.07402e-05
6.13827e-05
2.66707e-05
5.94391e-05
3.7777e-05
5.6651e-05
5.24841e-05
5.27311e-05
8.14924e-05
4.6765e-05
0.000116999
3.67819e-05
0.000196601
2.27821e-05
0.000247416
0.000373039
6.81684e-05
3.90073e-07
6.81134e-05
1.05721e-06
6.80274e-05
1.62929e-06
6.79104e-05
2.22285e-06
6.77585e-05
2.88105e-06
6.75671e-05
3.64024e-06
6.73296e-05
4.51187e-06
6.70345e-05
5.62876e-06
6.66675e-05
6.96386e-06
6.6214e-05
8.59097e-06
6.56077e-05
1.07939e-05
6.49077e-05
1.34152e-05
6.40034e-05
1.66279e-05
6.28771e-05
2.18642e-05
6.13838e-05
2.81619e-05
5.94407e-05
3.9721e-05
5.66591e-05
5.52659e-05
5.27729e-05
8.53789e-05
4.68831e-05
0.000122889
3.70869e-05
0.000206397
2.3142e-05
0.000261361
0.000396181
6.81684e-05
4.10643e-07
6.81133e-05
1.11278e-06
6.80274e-05
1.71502e-06
6.79104e-05
2.33979e-06
6.77585e-05
3.03256e-06
6.75672e-05
3.83165e-06
6.73298e-05
4.74918e-06
6.70348e-05
5.92446e-06
6.66678e-05
7.32995e-06
6.62107e-05
9.04861e-06
6.56061e-05
1.13981e-05
6.49043e-05
1.41169e-05
6.40015e-05
1.75303e-05
6.28768e-05
2.29905e-05
6.13848e-05
2.96555e-05
5.94418e-05
4.16636e-05
5.66659e-05
5.80415e-05
5.28121e-05
8.92325e-05
4.6994e-05
0.000128707
3.73847e-05
0.000216006
2.35098e-05
0.000275236
0.000419691
6.81684e-05
4.31174e-07
6.81134e-05
1.16828e-06
6.80274e-05
1.80077e-06
6.79104e-05
2.45675e-06
6.77586e-05
3.18408e-06
6.75672e-05
4.02308e-06
6.73298e-05
4.98654e-06
6.70347e-05
6.22023e-06
6.66682e-05
7.69556e-06
6.62017e-05
9.51564e-06
6.56093e-05
1.19902e-05
6.49015e-05
1.48246e-05
6.40004e-05
1.84324e-05
6.28767e-05
2.41123e-05
6.1386e-05
3.11444e-05
5.94429e-05
4.36074e-05
5.66725e-05
6.08121e-05
5.28504e-05
9.30548e-05
4.71002e-05
0.000134458
3.76773e-05
0.000225429
2.38853e-05
0.000289028
0.000443576
6.81684e-05
4.51741e-07
6.81133e-05
1.22382e-06
6.80274e-05
1.8865e-06
6.79104e-05
2.57367e-06
6.77586e-05
3.33555e-06
6.75673e-05
4.21445e-06
6.733e-05
5.22372e-06
6.70348e-05
6.51612e-06
6.66692e-05
8.0602e-06
6.61909e-05
9.99452e-06
6.56129e-05
1.25681e-05
6.48995e-05
1.5538e-05
6.39997e-05
1.93317e-05
6.28769e-05
2.52365e-05
6.13873e-05
3.26354e-05
5.94445e-05
4.55498e-05
5.66797e-05
6.35768e-05
5.28892e-05
9.68451e-05
4.72039e-05
0.000140143
3.79671e-05
0.000234666
2.42687e-05
0.000302727
0.000467844
6.81684e-05
4.72266e-07
6.81134e-05
1.27928e-06
6.80274e-05
1.97226e-06
6.79104e-05
2.69062e-06
6.77586e-05
3.48703e-06
6.75673e-05
4.40585e-06
6.733e-05
5.46091e-06
6.70346e-05
6.81222e-06
6.66701e-05
8.42384e-06
6.61826e-05
1.04825e-05
6.56142e-05
1.31365e-05
6.48981e-05
1.6254e-05
6.39994e-05
2.02312e-05
6.28773e-05
2.6357e-05
6.13891e-05
3.41221e-05
5.9447e-05
4.74925e-05
5.6688e-05
6.63359e-05
5.29293e-05
0.000100604
4.73067e-05
0.000145766
3.82563e-05
0.000243716
2.46609e-05
0.000316322
0.000492505
6.81684e-05
4.92831e-07
6.81133e-05
1.3348e-06
6.80274e-05
2.05799e-06
6.79105e-05
2.80753e-06
6.77587e-05
3.63847e-06
6.75674e-05
4.59718e-06
6.73303e-05
5.69792e-06
6.70348e-05
7.10837e-06
6.6671e-05
8.78673e-06
6.61777e-05
1.09764e-05
6.56137e-05
1.37004e-05
6.48972e-05
1.69704e-05
6.39994e-05
2.11286e-05
6.2878e-05
2.74797e-05
6.13912e-05
3.56103e-05
5.94506e-05
4.94327e-05
5.66982e-05
6.90881e-05
5.29713e-05
0.000104331
4.74098e-05
0.000151327
3.85474e-05
0.000252579
2.50627e-05
0.000329807
0.000517568
6.81684e-05
5.1335e-07
6.81134e-05
1.39023e-06
6.80274e-05
2.14374e-06
6.79105e-05
2.92447e-06
6.77587e-05
3.78991e-06
6.75674e-05
4.78855e-06
6.73303e-05
5.93499e-06
6.70348e-05
7.40451e-06
6.66713e-05
9.14935e-06
6.61746e-05
1.14734e-05
6.56128e-05
1.42623e-05
6.48967e-05
1.76865e-05
6.39996e-05
2.20263e-05
6.2879e-05
2.85988e-05
6.1394e-05
3.70937e-05
5.94558e-05
5.13715e-05
5.67104e-05
7.18337e-05
5.30152e-05
0.000108026
4.75142e-05
0.000156828
3.88428e-05
0.00026125
2.54756e-05
0.000343174
0.000543043
6.81684e-05
5.33912e-07
6.81133e-05
1.44572e-06
6.80274e-05
2.22948e-06
6.79105e-05
3.04135e-06
6.77587e-05
3.94131e-06
6.75676e-05
4.97982e-06
6.73305e-05
6.17194e-06
6.70352e-05
7.70043e-06
6.66703e-05
9.5134e-06
6.61736e-05
1.19705e-05
6.56119e-05
1.4824e-05
6.48964e-05
1.84021e-05
6.4e-05
2.29222e-05
6.28803e-05
2.97198e-05
6.13974e-05
3.8578e-05
5.94627e-05
5.33058e-05
5.67249e-05
7.45713e-05
5.30613e-05
0.00011169
4.76206e-05
0.000162269
3.91446e-05
0.000269726
2.59008e-05
0.000356418
0.000568944
6.81684e-05
5.54425e-07
6.81134e-05
1.50112e-06
6.80275e-05
2.31523e-06
6.79105e-05
3.15827e-06
6.77588e-05
4.09273e-06
6.75676e-05
5.1711e-06
6.73304e-05
6.40901e-06
6.70355e-05
7.99603e-06
6.66648e-05
9.88322e-06
6.61759e-05
1.24596e-05
6.56113e-05
1.53886e-05
6.48963e-05
1.9117e-05
6.40006e-05
2.38186e-05
6.28819e-05
3.08371e-05
6.14016e-05
4.00567e-05
5.94712e-05
5.52369e-05
5.67418e-05
7.73009e-05
5.31094e-05
0.000115322
4.77292e-05
0.000167649
3.9455e-05
0.000278
2.634e-05
0.000369533
0.000595284
6.81684e-05
5.74983e-07
6.81133e-05
1.55658e-06
6.80274e-05
2.40096e-06
6.79105e-05
3.27513e-06
6.77588e-05
4.2441e-06
6.75678e-05
5.36226e-06
6.73306e-05
6.64605e-06
6.70362e-05
8.29109e-06
6.66568e-05
1.02617e-05
6.61801e-05
1.29366e-05
6.56108e-05
1.59578e-05
6.48964e-05
1.98315e-05
6.40013e-05
2.47133e-05
6.28838e-05
3.19559e-05
6.14065e-05
4.15354e-05
5.94815e-05
5.71615e-05
5.67611e-05
8.0021e-05
5.31597e-05
0.000118923
4.78403e-05
0.000172968
3.97758e-05
0.000286065
2.67947e-05
0.000382514
0.000622079
6.81684e-05
5.9549e-07
6.81134e-05
1.61195e-06
6.80275e-05
2.48672e-06
6.79106e-05
3.39203e-06
6.77589e-05
4.39549e-06
6.75678e-05
5.55341e-06
6.73305e-05
6.88326e-06
6.70366e-05
8.58561e-06
6.665e-05
1.06475e-05
6.6183e-05
1.34036e-05
6.56106e-05
1.65303e-05
6.48966e-05
2.05454e-05
6.40022e-05
2.56083e-05
6.28861e-05
3.30705e-05
6.14122e-05
4.30077e-05
5.94933e-05
5.9081e-05
5.67828e-05
8.27317e-05
5.32121e-05
0.000122494
4.79539e-05
0.000178226
4.01083e-05
0.00029391
2.72664e-05
0.000395356
0.000649345
6.81684e-05
6.16044e-07
6.81134e-05
1.66739e-06
6.80275e-05
2.57245e-06
6.79106e-05
3.50886e-06
6.77589e-05
4.54683e-06
6.7568e-05
5.74445e-06
6.73307e-05
7.12043e-06
6.70373e-05
8.8796e-06
6.66455e-05
1.10386e-05
6.61846e-05
1.38646e-05
6.56105e-05
1.71043e-05
6.48969e-05
2.1259e-05
6.40032e-05
2.65016e-05
6.28886e-05
3.41864e-05
6.14186e-05
4.44792e-05
5.95066e-05
6.09926e-05
5.6807e-05
8.5431e-05
5.32666e-05
0.000126034
4.807e-05
0.000183423
4.04535e-05
0.000301527
2.77562e-05
0.000408054
0.000677101
6.81684e-05
6.36545e-07
6.81134e-05
1.72272e-06
6.80275e-05
2.6582e-06
6.79106e-05
3.62573e-06
6.77589e-05
4.6982e-06
6.7568e-05
5.93548e-06
6.73306e-05
7.35772e-06
6.70377e-05
9.17321e-06
6.66424e-05
1.14331e-05
6.61853e-05
1.43215e-05
6.56106e-05
1.76791e-05
6.48974e-05
2.19721e-05
6.40043e-05
2.73952e-05
6.28915e-05
3.52977e-05
6.14256e-05
4.59435e-05
5.95213e-05
6.28976e-05
5.68336e-05
8.81188e-05
5.33235e-05
0.000129545
4.81884e-05
0.000188558
4.08117e-05
0.000308903
2.82651e-05
0.0004206
0.000705366
6.81684e-05
6.57096e-07
6.81134e-05
1.77813e-06
6.80275e-05
2.74392e-06
6.79106e-05
3.74253e-06
6.7759e-05
4.84951e-06
6.75682e-05
6.1264e-06
6.73309e-05
7.59489e-06
6.70382e-05
9.46651e-06
6.66405e-05
1.183e-05
6.61858e-05
1.47763e-05
6.56107e-05
1.82542e-05
6.48979e-05
2.2685e-05
6.40056e-05
2.8287e-05
6.28947e-05
3.641e-05
6.14332e-05
4.74064e-05
5.95373e-05
6.47931e-05
5.68627e-05
9.07932e-05
5.33827e-05
0.000133025
4.8309e-05
0.000193632
4.11829e-05
0.000316029
2.87937e-05
0.000432989
0.00073416
6.81684e-05
6.7759e-07
6.81134e-05
1.83344e-06
6.80276e-05
2.82967e-06
6.79107e-05
3.85937e-06
6.7759e-05
5.00084e-06
6.75682e-05
6.31735e-06
6.73309e-05
7.8321e-06
6.70384e-05
9.75968e-06
6.66393e-05
1.22283e-05
6.61862e-05
1.52292e-05
6.5611e-05
1.88294e-05
6.48985e-05
2.33975e-05
6.4007e-05
2.9179e-05
6.28981e-05
3.75174e-05
6.14414e-05
4.88615e-05
5.95545e-05
6.66806e-05
5.68942e-05
9.34536e-05
5.34445e-05
0.000136475
4.84317e-05
0.000198645
4.15669e-05
0.000322894
2.93424e-05
0.000445214
0.000763502
6.81684e-05
6.98138e-07
6.81134e-05
1.88882e-06
6.80275e-05
2.91539e-06
6.79107e-05
3.97615e-06
6.77591e-05
5.15209e-06
6.75683e-05
6.5082e-06
6.73312e-05
8.06908e-06
6.70387e-05
1.00528e-05
6.66385e-05
1.26278e-05
6.61866e-05
1.56812e-05
6.56114e-05
1.94047e-05
6.48991e-05
2.41098e-05
6.40085e-05
3.00692e-05
6.29018e-05
3.86255e-05
6.145e-05
5.03147e-05
5.95729e-05
6.85573e-05
5.69281e-05
9.60982e-05
5.3509e-05
0.000139894
4.85567e-05
0.000203597
4.19631e-05
0.000329488
2.99113e-05
0.000457266
0.000793414
6.81684e-05
7.18626e-07
6.81134e-05
1.9441e-06
6.80276e-05
3.00113e-06
6.79107e-05
4.09296e-06
6.77592e-05
5.30337e-06
6.75683e-05
6.69911e-06
6.73313e-05
8.306e-06
6.70386e-05
1.03462e-05
6.66379e-05
1.30279e-05
6.6187e-05
1.6132e-05
6.56118e-05
1.99799e-05
6.48998e-05
2.48217e-05
6.40101e-05
3.09594e-05
6.29057e-05
3.97283e-05
6.14591e-05
5.17597e-05
5.95923e-05
7.04248e-05
5.69645e-05
9.87261e-05
5.35763e-05
0.000143282
4.86843e-05
0.000208489
4.23715e-05
0.000335801
3.05006e-05
0.000469137
0.000823914
6.81683e-05
7.39171e-07
6.81134e-05
1.99946e-06
6.80276e-05
3.08684e-06
6.79108e-05
4.20971e-06
6.77592e-05
5.45456e-06
6.75685e-05
6.88993e-06
6.73318e-05
8.54259e-06
6.70385e-05
1.064e-05
6.66375e-05
1.34283e-05
6.61875e-05
1.6582e-05
6.56123e-05
2.05552e-05
6.49006e-05
2.55334e-05
6.40117e-05
3.18478e-05
6.29097e-05
4.08318e-05
6.14686e-05
5.32023e-05
5.96128e-05
7.228e-05
5.70032e-05
0.000101336
5.36468e-05
0.000146638
4.88148e-05
0.000213321
4.27917e-05
0.000341824
3.11105e-05
0.000480818
0.000855025
6.81684e-05
7.59655e-07
6.81135e-05
2.05471e-06
6.80276e-05
3.17257e-06
6.79108e-05
4.3265e-06
6.77593e-05
5.60575e-06
6.75684e-05
7.08087e-06
6.73321e-05
8.7789e-06
6.70344e-05
1.09384e-05
6.66392e-05
1.38231e-05
6.61879e-05
1.70332e-05
6.56128e-05
2.11303e-05
6.49014e-05
2.62448e-05
6.40135e-05
3.27362e-05
6.29139e-05
4.19297e-05
6.14784e-05
5.46362e-05
5.96343e-05
7.41248e-05
5.70443e-05
0.000103926
5.37206e-05
0.000149962
4.89487e-05
0.000218093
4.3224e-05
0.000347549
3.17412e-05
0.000492301
0.000886766
6.81683e-05
7.80197e-07
6.81134e-05
2.11005e-06
6.80276e-05
3.25826e-06
6.79108e-05
4.44324e-06
6.77594e-05
5.75681e-06
6.75685e-05
7.27189e-06
6.73331e-05
9.01416e-06
6.70209e-05
1.12511e-05
6.66459e-05
1.4198e-05
6.61884e-05
1.74907e-05
6.56134e-05
2.17054e-05
6.49022e-05
2.6956e-05
6.40152e-05
3.36227e-05
6.29182e-05
4.30282e-05
6.14886e-05
5.60673e-05
5.96568e-05
7.59561e-05
5.70877e-05
0.000106495
5.37979e-05
0.000153252
4.90865e-05
0.000222804
4.36689e-05
0.000352966
3.23934e-05
0.000503576
0.000919159
6.81684e-05
8.00673e-07
6.81135e-05
2.16526e-06
6.80277e-05
3.34397e-06
6.79109e-05
4.56002e-06
6.77595e-05
5.90786e-06
6.75684e-05
7.46309e-06
6.73336e-05
9.24885e-06
6.70131e-05
1.15723e-05
6.66493e-05
1.45617e-05
6.61889e-05
1.79511e-05
6.56139e-05
2.22803e-05
6.4903e-05
2.76669e-05
6.40171e-05
3.45092e-05
6.29227e-05
4.41209e-05
6.14991e-05
5.74893e-05
5.96801e-05
7.77758e-05
5.71331e-05
0.000109042
5.3879e-05
0.000156506
4.92283e-05
0.000227455
4.41267e-05
0.000358068
3.30677e-05
0.000514635
0.000952227
6.81683e-05
8.21211e-07
6.81134e-05
2.22057e-06
6.80276e-05
3.42965e-06
6.79109e-05
4.67673e-06
6.77596e-05
6.05881e-06
6.75685e-05
7.65419e-06
6.73341e-05
9.48323e-06
6.70106e-05
1.18963e-05
6.66499e-05
1.49224e-05
6.61894e-05
1.84116e-05
6.56145e-05
2.28552e-05
6.49039e-05
2.83775e-05
6.40189e-05
3.53938e-05
6.29273e-05
4.52141e-05
6.15099e-05
5.89082e-05
5.97042e-05
7.9581e-05
5.71806e-05
0.000111565
5.39642e-05
0.000159722
4.93745e-05
0.000232044
4.45974e-05
0.000362845
3.37646e-05
0.000525468
0.000985992
6.81684e-05
8.41689e-07
6.81135e-05
2.27576e-06
6.80277e-05
3.51534e-06
6.79109e-05
4.79346e-06
6.77596e-05
6.20984e-06
6.75688e-05
7.84509e-06
6.73322e-05
9.71976e-06
6.70095e-05
1.22193e-05
6.66498e-05
1.52821e-05
6.61899e-05
1.88716e-05
6.56151e-05
2.34299e-05
6.49047e-05
2.90879e-05
6.40207e-05
3.62784e-05
6.2932e-05
4.6301e-05
6.1521e-05
6.03172e-05
5.9729e-05
8.13737e-05
5.72299e-05
0.000114064
5.40539e-05
0.000162899
4.95246e-05
0.000236574
4.50796e-05
0.00036729
3.44835e-05
0.000536064
0.00102048
6.81683e-05
8.62219e-07
6.81134e-05
2.33103e-06
6.80277e-05
3.60103e-06
6.7911e-05
4.91005e-06
6.77594e-05
6.36113e-06
6.75701e-05
8.03443e-06
6.73181e-05
9.97165e-06
6.70117e-05
1.25259e-05
6.66497e-05
1.56441e-05
6.61902e-05
1.9331e-05
6.56157e-05
2.40045e-05
6.49056e-05
2.97981e-05
6.40226e-05
3.71609e-05
6.29367e-05
4.73886e-05
6.15323e-05
6.17233e-05
5.97545e-05
8.3151e-05
5.72809e-05
0.000116538
5.41483e-05
0.000166031
4.96783e-05
0.000241043
4.55688e-05
0.000371399
3.52212e-05
0.000546412
0.0010557
6.81684e-05
8.82688e-07
6.81135e-05
2.38616e-06
6.80277e-05
3.68674e-06
6.79111e-05
5.02659e-06
6.77592e-05
6.51274e-06
6.75711e-05
8.22261e-06
6.73086e-05
1.02341e-05
6.7013e-05
1.28216e-05
6.66496e-05
1.60075e-05
6.61906e-05
1.979e-05
6.56162e-05
2.45788e-05
6.49064e-05
3.05079e-05
6.40244e-05
3.80435e-05
6.29414e-05
4.84697e-05
6.15438e-05
6.31189e-05
5.97805e-05
8.4915e-05
5.73332e-05
0.000118985
5.42479e-05
0.000169117
4.98354e-05
0.000245456
4.60557e-05
0.000375179
3.59702e-05
0.000556497
0.00109167
6.81683e-05
9.03171e-07
6.81134e-05
2.44139e-06
6.80276e-05
3.77243e-06
6.79112e-05
5.14304e-06
6.77592e-05
6.66432e-06
6.75715e-05
8.41033e-06
6.7306e-05
1.04995e-05
6.70128e-05
1.31148e-05
6.66494e-05
1.6371e-05
6.61908e-05
2.02486e-05
6.56167e-05
2.51528e-05
6.49072e-05
3.12175e-05
6.40262e-05
3.8924e-05
6.29462e-05
4.95514e-05
6.15554e-05
6.45115e-05
5.98069e-05
8.6663e-05
5.73864e-05
0.000121405
5.43537e-05
0.000172149
4.99948e-05
0.000249815
4.6537e-05
0.000378637
3.68097e-05
0.000566224
0.00112848
9.71874e-07
-9.71902e-07
-1.19781e-06
2.16968e-06
-2.05761e-06
8.59787e-07
-2.20162e-06
1.43996e-07
-1.86554e-06
-3.36146e-07
-1.37404e-06
-4.91571e-07
-1.14057e-06
-2.33539e-07
-1.09721e-06
-4.34402e-08
-1.18783e-06
9.00912e-08
-1.2826e-06
9.40449e-08
-1.41115e-06
1.24984e-07
-1.29065e-06
-1.11745e-07
-9.93763e-07
-2.9479e-07
-5.4913e-07
-4.48135e-07
1.42713e-07
-6.96116e-07
1.28813e-06
-1.14705e-06
2.90185e-06
-1.61078e-06
5.03617e-06
-2.13287e-06
7.65691e-06
-2.61573e-06
1.06925e-05
-3.03998e-06
1.40496e-05
-3.36103e-06
1.75567e-05
-3.5044e-06
2.09868e-05
-3.42932e-06
2.42143e-05
-3.22825e-06
2.72549e-05
-3.04153e-06
3.0167e-05
-2.91232e-06
3.30006e-05
-2.83383e-06
3.57841e-05
-2.78241e-06
3.85236e-05
-2.73547e-06
4.12992e-05
-2.77786e-06
4.39684e-05
-2.67192e-06
4.56897e-05
-1.7206e-06
5.11308e-05
-5.44279e-06
6.18045e-05
-1.06711e-05
-5.73027e-06
9.94648e-07
-1.9666e-06
-1.17352e-06
4.33783e-06
-2.01944e-06
1.70569e-06
-2.16922e-06
2.9374e-07
-1.82465e-06
-6.80831e-07
-1.34563e-06
-9.70725e-07
-1.1078e-06
-4.71508e-07
-1.06761e-06
-8.37738e-08
-1.1576e-06
1.79109e-07
-1.27029e-06
2.05411e-07
-1.41672e-06
2.65672e-07
-1.29111e-06
-2.2164e-07
-9.54492e-07
-6.27248e-07
-4.81743e-07
-9.27853e-07
1.81941e-07
-1.36839e-06
1.2673e-06
-2.23579e-06
2.85822e-06
-3.19574e-06
5.01936e-06
-4.29101e-06
7.67585e-06
-5.26256e-06
1.07107e-05
-6.08325e-06
1.40417e-05
-6.69965e-06
1.7525e-05
-6.98268e-06
2.09543e-05
-6.85709e-06
2.41959e-05
-6.47127e-06
2.72481e-05
-6.09535e-06
3.01633e-05
-5.82797e-06
3.29941e-05
-5.66508e-06
3.57724e-05
-5.5587e-06
3.85047e-05
-5.46025e-06
4.12725e-05
-5.54986e-06
4.39541e-05
-5.35865e-06
4.569e-05
-3.45511e-06
5.09065e-05
-1.06623e-05
6.15326e-05
-2.12922e-05
-1.16765e-05
1.01697e-06
-2.98362e-06
-1.14375e-06
6.49853e-06
-1.97787e-06
2.53979e-06
-2.11514e-06
4.30984e-07
-1.769e-06
-1.02708e-06
-1.29491e-06
-1.44494e-06
-1.06083e-06
-7.05715e-07
-1.02163e-06
-1.23102e-07
-1.11876e-06
2.75333e-07
-1.25189e-06
3.37264e-07
-1.41397e-06
4.22462e-07
-1.26673e-06
-3.53361e-07
-8.82915e-07
-1.007e-06
-4.00625e-07
-1.41711e-06
2.1107e-07
-1.98863e-06
1.24011e-06
-3.26831e-06
2.82586e-06
-4.77517e-06
5.02577e-06
-6.48774e-06
7.72051e-06
-7.9469e-06
1.07579e-05
-9.1293e-06
1.40624e-05
-1.00116e-05
1.75269e-05
-1.04421e-05
2.09583e-05
-1.0287e-05
2.42125e-05
-9.72685e-06
2.72754e-05
-9.15998e-06
3.0193e-05
-8.74598e-06
3.30199e-05
-8.49253e-06
3.57919e-05
-8.32864e-06
3.85153e-05
-8.17599e-06
4.12721e-05
-8.31092e-06
4.39606e-05
-8.05235e-06
4.57125e-05
-5.20562e-06
5.07151e-05
-1.5668e-05
6.1285e-05
-3.18573e-05
-1.7816e-05
1.04204e-06
-4.0257e-06
-1.11122e-06
8.65178e-06
-1.92789e-06
3.35644e-06
-2.04499e-06
5.48046e-07
-1.69452e-06
-1.37766e-06
-1.22692e-06
-1.91266e-06
-9.98942e-07
-9.33823e-07
-9.61845e-07
-1.60335e-07
-1.0661e-06
3.78686e-07
-1.22006e-06
4.89952e-07
-1.39655e-06
5.9457e-07
-1.22525e-06
-5.08703e-07
-7.94379e-07
-1.43312e-06
-3.06093e-07
-1.91357e-06
2.50962e-07
-2.55584e-06
1.22257e-06
-4.24432e-06
2.80445e-06
-6.34895e-06
5.04882e-06
-8.72789e-06
7.78994e-06
-1.06756e-05
1.08375e-05
-1.2187e-05
1.41203e-05
-1.3303e-05
1.75674e-05
-1.38834e-05
2.10009e-05
-1.3719e-05
2.42674e-05
-1.29949e-05
2.73404e-05
-1.22349e-05
3.02595e-05
-1.16656e-05
3.30814e-05
-1.13149e-05
3.58451e-05
-1.109e-05
3.85566e-05
-1.08795e-05
4.12988e-05
-1.10577e-05
4.39897e-05
-1.07487e-05
4.57577e-05
-6.9721e-06
5.05572e-05
-2.04707e-05
6.10599e-05
-4.23549e-05
-2.41279e-05
1.06983e-06
-5.09558e-06
-1.07593e-06
1.07975e-05
-1.86896e-06
4.14945e-06
-1.95887e-06
6.37927e-07
-1.602e-06
-1.73464e-06
-1.14277e-06
-2.37202e-06
-9.23049e-07
-1.15366e-06
-8.88598e-07
-1.94905e-07
-9.99639e-07
4.88902e-07
-1.17376e-06
6.62812e-07
-1.36235e-06
7.80109e-07
-1.16464e-06
-6.91943e-07
-6.87081e-07
-1.90623e-06
-1.95617e-07
-2.41297e-06
3.05313e-07
-3.06622e-06
1.21937e-06
-5.16278e-06
2.79908e-06
-7.91996e-06
5.09531e-06
-1.10194e-05
7.89303e-06
-1.34585e-05
1.09582e-05
-1.52635e-05
1.42234e-05
-1.65768e-05
1.76534e-05
-1.73074e-05
2.10886e-05
-1.71525e-05
2.43671e-05
-1.6275e-05
2.74497e-05
-1.53195e-05
3.03691e-05
-1.45855e-05
3.31839e-05
-1.41303e-05
3.59366e-05
-1.38402e-05
3.86325e-05
-1.3567e-05
4.13555e-05
-1.37855e-05
4.40436e-05
-1.34423e-05
4.58273e-05
-8.75431e-06
5.0433e-05
-2.50795e-05
6.08563e-05
-5.27731e-05
-3.05919e-05
1.10025e-06
-6.19589e-06
-1.03778e-06
1.29355e-05
-1.80025e-06
4.91189e-06
-1.85646e-06
6.94096e-07
-1.49157e-06
-2.09963e-06
-1.04283e-06
-2.82088e-06
-8.33219e-07
-1.3634e-06
-8.01521e-07
-2.2674e-07
-9.18834e-07
6.05354e-07
-1.1117e-06
8.54423e-07
-1.30939e-06
9.75374e-07
-1.08373e-06
-9.01903e-07
-5.61162e-07
-2.42342e-06
-6.85269e-08
-2.91502e-06
3.77706e-07
-3.52383e-06
1.23752e-06
-6.02807e-06
2.81944e-06
-9.49067e-06
5.17712e-06
-1.33705e-05
8.04368e-06
-1.63062e-05
1.11337e-05
-1.83678e-05
1.43835e-05
-1.98371e-05
1.77956e-05
-2.07125e-05
2.12313e-05
-2.05862e-05
2.45216e-05
-1.95673e-05
2.76136e-05
-1.84139e-05
3.05318e-05
-1.75043e-05
3.33363e-05
-1.69355e-05
3.60736e-05
-1.65747e-05
3.87486e-05
-1.62328e-05
4.14467e-05
-1.6489e-05
4.41256e-05
-1.61274e-05
4.59243e-05
-1.05513e-05
5.03431e-05
-2.95018e-05
6.06735e-05
-6.30978e-05
-3.71887e-05
1.13305e-06
-7.32898e-06
-9.96581e-07
1.50652e-05
-1.72057e-06
5.63586e-06
-1.73656e-06
7.10047e-07
-1.3625e-06
-2.47379e-06
-9.26543e-07
-3.25696e-06
-7.28636e-07
-1.56141e-06
-6.99457e-07
-2.56041e-07
-8.2232e-07
7.27419e-07
-1.03212e-06
1.06291e-06
-1.23563e-06
1.17815e-06
-9.81598e-07
-1.14256e-06
-4.16499e-07
-2.98364e-06
7.67933e-08
-3.41737e-06
4.72375e-07
-3.92952e-06
1.28475e-06
-6.84562e-06
2.87811e-06
-1.10729e-05
5.31137e-06
-1.57965e-05
8.2623e-06
-1.92342e-05
1.13841e-05
-2.15064e-05
1.46185e-05
-2.30829e-05
1.801e-05
-2.40961e-05
2.14439e-05
-2.40181e-05
2.47461e-05
-2.28716e-05
2.78477e-05
-2.15181e-05
3.07628e-05
-2.04199e-05
3.35522e-05
-1.97257e-05
3.62673e-05
-1.92866e-05
3.89137e-05
-1.88692e-05
4.1579e-05
-1.91602e-05
4.42409e-05
-1.87958e-05
4.60529e-05
-1.23615e-05
5.02895e-05
-3.37422e-05
6.05109e-05
-7.33135e-05
-4.38992e-05
1.16781e-06
-8.49685e-06
-9.51977e-07
1.71849e-05
-1.6284e-06
6.31226e-06
-1.59744e-06
6.79039e-07
-1.21368e-06
-2.85765e-06
-7.9269e-07
-3.67808e-06
-6.07837e-07
-1.74639e-06
-5.8061e-07
-2.83415e-07
-7.07944e-07
8.53887e-07
-9.32451e-07
1.28609e-06
-1.13842e-06
1.38375e-06
-8.56319e-07
-1.40913e-06
-2.50714e-07
-3.58311e-06
2.44668e-07
-3.92394e-06
5.94971e-07
-4.29256e-06
1.36879e-06
-7.62589e-06
2.98863e-06
-1.26786e-05
5.51997e-06
-1.83182e-05
8.57792e-06
-2.22626e-05
1.17393e-05
-2.46897e-05
1.49553e-05
-2.63135e-05
1.83202e-05
-2.74514e-05