/*--------------------------------*- C++ -*----------------------------------*\
| =========                 |                                                 |
| \\      /  F ield         | OpenFOAM: The Open Source CFD Toolbox           |
|  \\    /   O peration     | Version:  v1912                                 |
|   \\  /    A nd           | Website:  www.openfoam.com                      |
|    \\/     M anipulation  |                                                 |
\*---------------------------------------------------------------------------*/
FoamFile
{
    version     2.0;
    format      ascii;
    class       volScalarField;
    location    "290";
    object      epsilon;
}
// * * * * * * * * * * * * * * * * * * * * * * * * * * * * * * * * * * * * * //

dimensions      [0 2 -3 0 0 0 0];


internalField   nonuniform List<scalar> 
12441
(
0.0102962
0.00908472
0.00832687
0.00770245
0.00718354
0.0067489
0.00638225
0.00607098
0.00580498
0.00557673
0.00537904
0.00520385
0.00505166
0.00491007
0.00479833
0.00468395
0.00481732
0.019684
0.26786
3.00046
20.9587
39.25
0.0101186
0.00891972
0.00818362
0.00757655
0.00707166
0.00664845
0.00629123
0.00598783
0.00572847
0.00550593
0.00531308
0.00514178
0.00499324
0.00485511
0.00474698
0.00463772
0.00476163
0.0194378
0.252338
2.99303
21.2497
40.2318
0.00989654
0.00871696
0.00799993
0.00740874
0.00691718
0.00650528
0.00615774
0.00586273
0.00561073
0.00539476
0.00520788
0.00504204
0.00489872
0.00476474
0.0046621
0.00455629
0.00462058
0.0176389
0.213975
2.96291
21.6296
41.3784
0.00967295
0.0085133
0.00781454
0.00723847
0.00675956
0.00635836
0.00601994
0.00573283
0.00548773
0.00527789
0.00509653
0.00493603
0.00479782
0.00467024
0.00457181
0.00447368
0.00448832
0.0154723
0.176311
2.94086
22.0971
42.5504
0.00942875
0.00828871
0.00760866
0.00704821
0.00658247
0.00619249
0.00586375
0.0055851
0.00534749
0.00514443
0.0049693
0.00481473
0.00468222
0.00455939
0.00446741
0.00437448
0.00434231
0.013522
0.157144
2.94802
22.6131
43.6698
0.00922276
0.00809907
0.00743424
0.00688641
0.00643123
0.00605016
0.00572902
0.0054569
0.00522497
0.00502689
0.0048562
0.0047059
0.00457749
0.0044604
0.00437174
0.00428545
0.00426946
0.013695
0.176844
3.05395
23.2392
44.7472
0.00900212
0.00789549
0.0072471
0.00671299
0.00626937
0.00589816
0.00558549
0.00532078
0.00509541
0.00490324
0.00473795
0.00459282
0.00446921
0.00435636
0.00427212
0.00419138
0.00602333
0.022809
0.28192
3.35111
24.0733
45.7945
0.00882365
0.00773083
0.00709527
0.00657176
0.00613698
0.00577317
0.00546677
0.00520739
0.00498658
0.00479835
0.00463651
0.00449457
0.00437424
0.00426634
0.00419033
0.00516239
0.0345136
0.0794766
0.592669
3.97534
25.2358
46.8732
0.00862954
0.00755165
0.0069306
0.00641919
0.00599461
0.0056395
0.00534059
0.00508773
0.00487268
0.00468961
0.00453248
0.0043951
0.0042796
0.00413491
0.0053971
0.027093
0.177162
0.299631
1.27218
5.0723
26.8534
48.0153
0.00847483
0.00740874
0.00679868
0.00629633
0.00587927
0.00553044
0.00523679
0.00498839
0.00477713
0.00459729
0.00444294
0.00430825
0.00419604
0.00426916
0.0253255
0.150845
0.533206
0.80109
2.34985
6.69901
29.0178
49.2846
0.00830542
0.00725231
0.00665497
0.00616324
0.00575512
0.00541391
0.00512683
0.00488414
0.00467791
0.00450255
0.00435227
0.00422257
0.00408521
0.00954111
0.115063
0.440598
1.06496
1.53948
3.62698
8.75787
31.7547
50.6975
0.00817037
0.00712758
0.00653982
0.00605594
0.00565432
0.00531851
0.00503595
0.00479705
0.00459402
0.00442136
0.00427341
0.00414723
0.00416113
0.0489407
0.326941
0.834991
1.59541
2.30292
4.84959
11.0429
35.0126
52.295
0.00802127
0.00698995
0.00641353
0.00593911
0.00554545
0.00521643
0.0049397
0.00470586
0.00450728
0.00433856
0.00419416
0.00403408
0.00837653
0.168128
0.613649
1.20027
2.01244
2.93263
5.88826
13.3467
38.6867
54.0597
0.00790035
0.00687829
0.00631043
0.00584304
0.0054552
0.00513101
0.00485832
0.00462788
0.00443217
0.00426589
0.00412359
0.00387904
0.0372866
0.353367
0.874439
1.47512
2.30865
3.40029
6.73061
15.5257
42.646
56.0037
0.007769
0.00675697
0.00619913
0.00574008
0.00535926
0.00504106
0.00477349
0.00454749
0.00435566
0.0041928
0.00405356
0.00426502
0.114934
0.542819
1.07427
1.67055
2.51632
3.73974
7.41109
17.5073
46.7635
58.0812
0.00765989
0.00665627
0.00610616
0.00565346
0.00527789
0.00496404
0.00470012
0.00447719
0.00428797
0.00412732
0.00399007
0.00952746
0.229461
0.699764
1.21965
1.81073
2.66563
3.99131
7.97023
19.2687
50.928
60.2902
0.00754399
0.00654924
0.00600804
0.00556275
0.00519339
0.00488481
0.00462538
0.00440631
0.00422044
0.00406272
0.00392851
0.0328024
0.34893
0.820557
1.32675
1.91451
2.77722
4.18533
8.44133
20.8154
55.0556
62.571
0.00744244
0.00645562
0.00592171
0.00548243
0.00511807
0.00481365
0.00455774
0.00434166
0.00415835
0.00400281
0.00387325
0.0835613
0.453083
0.912686
1.40821
1.99436
2.86431
4.34212
8.84895
22.1651
59.0861
64.9213
0.00733986
0.00636077
0.00583469
0.0054019
0.00504295
0.00474312
0.0044911
0.00427834
0.00409789
0.00394486
0.00380994
0.15088
0.537468
0.984626
1.47255
2.05822
2.93531
4.47483
9.21021
23.3395
62.9851
67.2818
0.00724519
0.00627358
0.00575436
0.00532723
0.004973
0.00467713
0.00442848
0.0042186
0.00404063
0.00388975
0.00428826
0.219065
0.604824
1.0427
1.52524
2.11126
2.99576
4.592
9.53684
24.3599
66.7362
69.6617
0.00715501
0.00619012
0.00567777
0.00525629
0.00490675
0.0046148
0.00436943
0.00416232
0.00398672
0.00383793
0.0100525
0.280433
0.659523
1.0912
1.56993
2.15697
3.04944
4.69909
9.83654
25.2461
70.3424
72.0102
0.0070642
0.00610666
0.00560103
0.00518517
0.00484035
0.00455239
0.00431045
0.00410631
0.00393328
0.00378723
0.0291313
0.333195
0.705239
1.13299
1.60907
2.19778
3.09903
4.79945
10.1143
26.0155
73.8197
74.3523
0.00698495
0.0060331
0.00553337
0.00512231
0.00478143
0.00449675
0.00425752
0.00405564
0.00388454
0.00374226
0.0620166
0.378223
0.74463
1.17002
1.64443
2.23545
3.14645
4.89494
10.3732
26.6837
77.1992
76.6493
0.00689841
0.00595366
0.00546043
0.00505482
0.00471857
0.00443783
0.00420201
0.0040031
0.00383459
0.00370249
0.100448
0.416987
0.77953
1.20367
1.67728
2.27129
3.193
4.98646
10.6152
27.2646
80.5226
78.9445
0.00683019
0.00589022
0.00540197
0.00500035
0.0046673
0.00438915
0.00415543
0.00395821
0.00379111
0.00368426
0.137702
0.450976
0.811205
1.23496
1.70861
2.30625
3.23947
5.07439
10.8417
27.7705
83.8445
81.212
0.00674445
0.00581179
0.00533026
0.00493434
0.00460617
0.00433224
0.00410219
0.00390819
0.00374393
0.00364597
0.171431
0.481429
0.840546
1.26464
1.73913
2.34102
3.2862
5.15894
11.0534
28.212
87.2275
83.5114
0.00668536
0.00575653
0.00527905
0.00488631
0.00456064
0.00428868
0.00406018
0.00386741
0.0037042
0.00385
0.201705
0.509296
0.868196
1.29329
1.76936
2.37604
3.3332
5.2403
11.2512
28.5989
90.7438
85.8273
0.00660159
0.00568004
0.00520928
0.00482228
0.00450158
0.00423393
0.0040092
0.00381975
0.00365956
0.00585838
0.229293
0.535276
0.894634
1.32134
1.79968
2.41151
3.38037
5.31869
11.4358
28.939
94.468
88.2307
0.00655197
0.00563339
0.0051658
0.00478118
0.00446223
0.00419588
0.00397211
0.00378334
0.00362408
0.011502
0.254961
0.559872
0.920225
1.34913
1.83032
2.44751
3.42755
5.39433
11.6079
29.2391
98.4761
90.7106
0.00646783
0.00555688
0.00509637
0.00471785
0.00440422
0.00414253
0.00392283
0.00373766
0.00358257
0.0220837
0.279286
0.583456
0.945247
1.37688
1.86138
2.48401
3.47463
5.46749
11.7682
29.5048
102.837
93.3406
0.00642566
0.00551681
0.00505862
0.00468174
0.00436923
0.00410828
0.00388908
0.0037042
0.00355159
0.0380605
0.302655
0.6063
0.96991
1.40475
1.8929
2.52093
3.52154
5.53839
11.9174
29.7407
107.613
96.1058
0.00634314
0.00544191
0.0049908
0.00462008
0.00431296
0.00405675
0.00384171
0.0036605
0.00351565
0.0588123
0.325314
0.62861
0.994369
1.43281
1.92486
2.5582
3.56825
5.60727
12.0563
29.9511
112.849
99.0732
0.00630951
0.00540963
0.00496004
0.00459019
0.00428349
0.00402738
0.00381223
0.00363078
0.00349483
0.0831535
0.347414
0.650539
1.01874
1.46112
1.95722
2.59573
3.61478
5.6743
12.1858
30.14
118.581
102.217
0.00622498
0.00533328
0.0048913
0.00452814
0.00422735
0.00397645
0.00376589
0.00358849
0.00347385
0.10977
0.369044
0.6722
1.04308
1.48968
1.98991
2.63349
3.66115
5.73966
12.3065
30.3113
124.828
105.592
0.00619821
0.00530708
0.00486581
0.00450279
0.00420175
0.00395037
0.00373923
0.0035612
0.00347916
0.13755
0.390251
0.693673
1.06744
1.51848
2.02287
2.6714
3.7074
5.80349
12.4194
30.469
131.605
109.157
0.00611116
0.00522887
0.00479582
0.00444005
0.00414542
0.0038997
0.00369352
0.00351985
0.00355222
0.165581
0.411041
0.715007
1.09183
1.54747
2.05603
2.70944
3.75356
5.8659
12.5252
30.6166
138.917
112.957
0.00608767
0.00520561
0.00477285
0.00441682
0.00412158
0.00387507
0.00366806
0.00349359
0.00640562
0.193095
0.431388
0.736226
1.11623
1.5766
2.08932
2.74758
3.79967
5.92698
12.6248
30.757
146.766
116.938
0.00599562
0.0051235
0.00469986
0.00435186
0.0040637
0.00382342
0.00362184
0.00345212
0.0303452
0.219297
0.451236
0.757332
1.14061
1.60582
2.12268
2.78579
3.84576
5.98679
12.7193
30.8921
155.136
121.137
0.00596738
0.00509614
0.00467333
0.00432549
0.00403708
0.00379633
0.00359425
0.00342464
0.0663797
0.24304
0.470508
0.778304
1.16492
1.63506
2.15604
2.82403
3.89182
6.04538
12.8095
31.0223
163.974
125.495
0.00586263
0.00500311
0.004591
0.00425258
0.00397245
0.00373899
0.00354326
0.00338445
0.0910234
0.263593
0.48912
0.799103
1.18911
1.66422
2.18933
2.86226
3.93787
6.10277
12.8966
31.147
173.147
130.045
0.0058211
0.00496376
0.00455361
0.00421632
0.00393682
0.00370371
0.00350829
0.00336506
0.10623
0.281023
0.506998
0.819674
1.2131
1.69322
2.22248
2.90043
3.98385
6.159
12.9814
31.2648
182.383
134.727
0.00569942
0.00485611
0.00445839
0.00413174
0.00386148
0.00363646
0.00344812
0.00384494
0.116061
0.295725
0.524083
0.839948
1.23681
1.72195
2.25538
2.93847
4.02972
6.2141
13.0648
31.3745
191.203
139.588
0.00561718
0.00478968
0.00440403
0.00408576
0.00382113
0.00359977
0.00341362
0.00486833
0.122767
0.308133
0.540338
0.859842
1.26016
1.75027
2.28794
2.97628
4.07538
6.26814
13.1472
31.4766
198.908
144.654
0.00525465
0.00446024
0.00411191
0.00382634
0.0035891
0.00339057
0.00322359
0.00538644
0.127511
0.318609
0.555734
0.879256
1.28307
1.77805
2.32003
3.01375
4.12071
6.32128
13.2283
31.5731
204.688
150.447
95.0235
62.9916
41.8622
32.7203
29.4716
24.2069
23.0467
20.7853
19.6652
19.1479
19.1352
18.8696
20.5678
25.0335
31.8498
36.5281
37.2293
36.0626
35.2942
35.0757
35.48
36.4543
37.2049
37.151
36.4078
34.9116
35.1499
46.7727
15.2853
4.77612
4.41419
4.48596
4.46455
4.1044
3.60437
94.6475
63.1246
42.1249
33.3792
30.3028
24.7625
23.5792
21.2021
20.0483
19.49
19.3487
19.1077
20.7751
25.1689
32.1184
37.0072
37.7835
36.6335
35.7228
35.4088
35.8353
36.869
37.7022
37.7142
36.991
35.4001
35.5442
46.8718
15.5753
4.7784
4.40995
4.48057
4.4587
4.09855
3.59946
93.9266
63.3289
42.6228
34.6978
31.9519
25.8796
24.6254
22.0219
20.8154
20.1768
19.7886
19.5401
21.1088
25.4587
32.5508
37.6526
38.7582
37.8187
36.71
36.1947
36.619
37.7115
38.6679
38.8014
38.1344
36.3744
36.3594
46.3034
15.7167
4.78171
4.40142
4.46978
4.44702
4.08686
3.58965
92.8104
63.5805
43.3798
36.7465
34.416
27.5702
26.1548
23.2246
21.9599
21.2021
20.5028
20.2202
21.6581
26.0096
33.2903
38.6938
40.3518
39.8768
38.5985
37.7282
38.028
39.106
40.1856
40.4814
39.9208
37.9342
37.6773
45.7325
15.8214
4.78684
4.38863
4.45362
4.42953
4.06938
3.57498
91.3035
63.8562
44.4286
39.5767
37.67
29.8332
28.1359
24.8008
23.4771
22.5647
21.5582
21.2436
22.526
26.937
34.577
40.4601
42.8911
43.2504
42.0042
40.5554
40.4224
41.271
42.3942
42.8583
42.4631
40.2143
39.6125
45.6523
15.99
4.79514
4.37163
4.4321
4.40627
4.04612
3.55547
89.3553
64.1354
45.8127
43.2323
41.7004
32.6799
30.5621
26.763
25.3795
24.2822
23.0268
22.7183
23.8283
28.3588
36.6552
43.3913
46.9073
48.6207
47.9421
45.6402
44.4456
44.5908
45.5302
46.0984
45.9221
43.3985
42.324
46.4443
16.3111
4.80839
4.35046
4.40524
4.37728
4.01714
3.53118
87.0012
64.4
47.5867
47.7431
46.5029
36.1407
33.4569
29.1488
27.7043
26.4014
24.9932
24.7802
25.716
30.4244
39.7834
48.0159
53.1685
56.9454
57.9493
54.6426
51.2486
49.7444
49.9991
50.4727
50.5324
47.7404
46.0298
48.4722
16.8659
4.82867
4.32518
4.37306
4.34261
3.98248
3.50216
84.2135
64.6338
49.8149
53.0789
52.051
40.2516
36.8655
32.0159
30.5115
28.9974
27.5664
27.61
28.4166
33.3811
44.3137
54.9765
62.6509
69.3503
73.9178
70.2192
62.8719
57.9366
56.4946
56.423
56.6451
53.5931
51.0267
52.1738
17.7371
4.8582
4.29584
4.33561
4.30231
3.94221
3.46848
81.0699
64.8224
52.568
59.0784
58.2618
45.0312
40.8411
35.4368
33.8791
32.1706
30.8819
31.4325
32.271
37.6443
50.7779
65.0498
76.3163
86.5131
96.7253
95.5049
82.6324
71.2514
66.1842
64.6592
64.7861
61.45
57.7121
58.1465
19.0161
4.89925
4.2625
4.29291
4.25647
3.89643
3.43024
77.574
64.951
55.9192
65.4048
64.9772
50.4566
45.4277
39.487
37.8913
36.0365
35.0847
36.4822
37.7441
43.8596
59.8683
78.8561
94.2769
107.214
122.953
130.08
114.19
92.8597
80.9128
76.2685
75.7194
71.9869
66.5976
67.2084
20.8076
4.95384
4.22521
4.24504
4.2052
3.84524
3.38753
73.8369
65.0034
59.9451
71.5992
71.978
56.4487
50.6423
44.2303
42.6237
40.7127
40.2992
42.8935
45.3475
52.8812
72.1322
95.9125
114.297
127.337
144.35
162.95
155.494
125.548
103.022
92.7075
90.4438
86.0542
78.2833
80.346
23.2276
5.02327
4.18401
4.19209
4.14862
3.78878
3.3405
69.8857
64.9595
64.73
77.2536
79.0302
62.8777
56.4573
49.6952
48.1161
46.2863
46.5575
50.5426
55.3448
65.3901
87.1119
113.387
131.647
142.094
155.599
179.434
190.498
165.439
133.425
115.207
109.902
104.462
93.2996
98.291
26.3835
5.10752
4.13893
4.13416
4.08689
3.72722
3.2893
65.8489
64.7919
70.3566
82.1942
85.9443
69.5944
62.7944
55.8527
54.3442
52.7703
53.7255
58.8518
67.1401
80.7281
102.251
126.949
142.559
149.856
158.8
179.41
202.253
196.312
166.755
142.742
133.958
127.232
111.641
120.31
30.3242
5.20429
4.08995
4.0714
4.02021
3.66077
3.23413
61.7626
64.4619
76.8472
86.5246
92.6177
76.4778
69.5369
62.6025
61.1939
60.0418
61.4299
66.8429
78.7349
95.5175
113.528
134.285
147.315
152.5
158.333
172.79
194.413
203.963
190.061
169.275
159.57
152.104
131.851
142.482
34.9498
5.30805
4.03706
4.00398
3.94881
3.58968
3.17518
57.7502
63.9164
84.0175
90.5139
99.04
83.4754
76.5651
69.7913
68.4762
67.8193
69.1462
73.4906
87.2698
104.809
118.636
136.707
148.768
152.815
156.772
166.08
180.509
193.148
194.631
185.684
180.259
173.548
150.178
158.079
39.9136
5.40919
3.98019
3.93209
3.87293
3.51421
3.11271
53.8399
63.0905
91.2808
94.4437
105.267
90.6223
83.7995
77.2502
75.9696
75.7187
76.3736
78.3764
91.0361
106.439
118.581
136.899
149.359
152.588
154.914
160.644
167.979
176.619
184.947
187.956
189.998
185.112
161.51
162.201
44.5966
5.49424
3.91928
3.85597
3.79289
3.43467
3.04698
50.1273
61.9271
97.6127
98.5178
111.415
97.9764
91.222
84.868
83.5155
83.425
82.9386
81.835
90.6657
102.594
116.064
136.894
150.183
152.371
152.74
155.76
157.986
161.545
170.404
180.09
188.102
184.291
162.707
155.649
48.2078
5.54726
3.85425
3.77589
3.70898
3.35141
2.97828
46.6135
60.4194
101.959
102.803
117.603
105.607
98.8739
92.6365
91.08
90.839
89.0442
84.7916
88.5026
97.0435
113.427
137.648
151.4
152.012
149.996
150.536
149.523
149.401
156.652
168.307
178.469
173.815
154.867
142.884
49.9886
5.55294
3.78511
3.69213
3.62157
3.2648
2.90691
43.349
58.6688
103.951
107.267
123.918
113.561
106.826
100.646
98.7769
98.1387
95.217
88.2032
86.8118
92.5218
112.134
139.551
152.9
151.215
146.443
144.501
141.529
139.52
145.256
156.421
165.422
158.366
141.793
128.073
49.4818
5.50052
3.71192
3.60501
3.53102
3.17522
2.83319
40.3033
56.9156
104.204
111.849
130.382
121.825
115.132
109.026
106.804
105.671
102.035
92.9407
87.1202
90.4583
112.919
142.705
154.562
149.82
141.995
137.605
133.48
131.01
135.956
145.668
151.559
141.609
127.137
113.555
46.7439
5.38714
3.63489
3.51487
3.43772
3.08308
2.75746
37.4893
55.4977
103.753
116.506
136.964
130.318
123.794
117.882
115.376
113.826
110.024
99.577
90.2098
91.4841
116.216
147.201
156.38
147.854
136.741
130.06
125.325
123.301
128.084
135.991
137.951
125.541
113.103
100.208
42.3248
5.21877
3.55431
3.42206
3.34207
2.98881
2.68007
34.8769
54.7277
103.414
121.21
143.592
138.902
132.749
127.244
124.637
122.894
119.499
108.54
96.585
96.0392
122.327
153.109
158.397
145.472
130.934
122.207
117.27
116.151
121.071
126.967
124.933
111.004
100.594
88.1601
37.0122
5.0081
3.47059
3.32695
3.24447
2.89284
2.60134
32.4767
54.6739
103.581
125.922
150.168
147.413
141.878
137.053
134.636
133.028
130.591
119.966
106.499
104.558
131.654
160.619
160.749
142.903
124.905
114.416
109.579
109.503
114.537
118.221
112.617
98.2351
89.7618
77.2745
31.5357
4.77069
3.38423
3.22994
3.14534
2.7956
2.52164
30.2708
55.2611
104.261
130.576
156.584
155.681
151.025
147.173
145.31
144.216
143.212
133.836
120.086
117.597
144.676
169.927
163.577
140.402
119.024
107.031
102.476
103.366
108.257
109.546
101.103
87.1926
80.4207
67.3806
26.403
4.5214
3.29575
3.13139
3.04508
2.69752
2.44128
28.2673
56.2403
105.32
135.084
162.73
163.552
160.023
157.43
156.527
156.345
157.168
149.859
137.137
135.584
162.013
181.309
167.038
138.213
113.621
100.326
96.0991
97.7381
102.096
100.901
90.497
77.7165
72.284
58.3613
21.8815
4.27219
3.20565
3.03169
2.94409
2.599
2.36059
26.4614
57.2327
106.612
139.345
168.509
170.901
168.716
167.644
168.11
169.238
172.201
167.706
157.251
158.608
184.119
194.859
171.148
136.499
108.965
94.4895
90.5104
92.5866
95.9798
92.3643
80.8885
69.6021
65.0692
50.1638
18.0572
4.03143
3.11443
2.93121
2.84275
2.50045
2.27988
24.8623
57.8981
108.025
143.268
173.843
177.65
176.982
177.668
179.905
182.743
188.122
186.996
179.831
186.138
211.04
210.429
175.772
135.309
105.199
89.6165
85.6999
87.8445
89.8722
84.0764
72.3194
62.6357
58.5439
42.7784
14.9069
3.80416
3.02254
2.83033
2.74145
2.40225
2.19945
23.4808
58.1553
109.484
146.788
178.687
183.768
184.755
187.411
191.805
196.774
204.848
207.556
204.456
217.323
241.856
227.239
180.49
134.539
102.343
85.7188
81.6129
83.4238
83.7717
76.1925
64.7773
56.6149
52.5382
36.2102
12.3545
3.59284
2.93037
2.7294
2.64051
2.30475
2.11956
22.3333
58.2565
110.943
149.876
183.032
189.277
192.026
196.86
203.806
211.386
222.507
229.396
230.905
251.335
274.909
243.973
184.698
133.958
100.279
82.7264
78.1544
79.2281
77.7101
68.8455
58.2017
51.3582
46.9452
30.4556
10.306
3.39811
2.83826
2.62874
2.54029
2.20828
2.04047
21.4546
58.6321
112.364
152.532
186.901
194.235
198.848
206.081
216.019
226.817
241.497
252.946
259.442
287.792
308.084
258.809
187.625
133.244
98.7967
80.507
75.2086
75.1654
71.7471
62.1288
52.5009
46.7112
41.7105
25.4898
8.66932
3.21947
2.74653
2.52869
2.44107
2.11314
1.96239
20.8892
59.6623
113.716
154.782
190.337
198.729
205.321
215.226
228.715
243.585
262.651
279.095
290.807
326.751
339.534
270.11
188.622
132.068
97.6133
78.871
72.6375
71.1593
65.9618
56.0884
47.5672
42.5473
36.8198
21.2648
7.36258
3.05579
2.65542
2.42952
2.34314
2.0196
1.88554
20.7351
61.5511
114.972
156.667
193.404
202.862
211.594
224.541
242.358
262.585
287.422
309.562
326.553
368.709
367.474
276.583
187.223
130.145
96.4448
77.5961
70.296
67.1593
60.4394
50.7288
43.2904
38.7673
32.2824
17.7137
6.31702
2.90561
2.56515
2.3315
2.24675
1.9279
1.81009
21.1259
64.3186
116.106
158.236
196.176
206.754
217.862
234.386
257.681
285.278
318.236
347.145
369.081
414.114
390.204
277.604
183.299
127.289
95.0265
76.4424
68.0351
63.1461
55.2586
46.0205
39.5655
35.2968
28.1171
14.7584
5.47681
2.76743
2.47593
2.23489
2.15212
1.83826
1.7362
22.2957
67.8466
117.104
159.545
198.735
210.543
224.382
245.274
275.785
313.924
358.884
396.21
421.76
462.534
405.577
272.912
176.925
123.408
93.1589
75.1871
65.7224
59.1342
50.4801
41.9121
36.2989
32.0829
24.3404
12.3171
4.79754
2.63976
2.38792
2.13991
2.05945
1.75084
1.66401
24.5223
71.9331
117.961
160.648
201.178
214.395
231.499
257.938
298.312
351.901
414.765
462.285
487.575
510.698
411.175
262.719
168.385
118.504
90.7017
73.642
63.2516
55.1652
46.1405
38.3392
33.4096
29.0904
20.9596
10.3106
4.24436
2.52126
2.30127
2.04675
1.96893
1.66582
1.59362
28.1637
76.3421
118.679
161.598
203.61
218.519
239.684
273.436
327.676
403.877
491.672
549.045
564.934
550.3
404.486
247.495
158.041
112.652
87.5864
71.6762
60.5618
51.2979
42.2506
35.2333
30.8303
26.2973
17.9697
8.66599
3.79006
2.41073
2.21611
1.9556
1.8807
1.58331
1.52514
33.4954
80.8439
119.268
162.445
206.162
223.193
249.608
293.325
367.382
475.15
590.012
647.991
638.553
567.836
384.147
228.158
146.36
105.992
83.7982
69.2117
57.6353
47.5921
38.7976
32.5268
28.5061
23.6913
15.3542
7.31902
3.41355
2.30713
2.13257
1.86663
1.7949
1.50345
1.45865
40.701
85.2462
119.739
163.24
208.999
228.802
262.255
319.945
422.207
567.854
691.454
725.177
676.086
551.174
351.061
205.925
133.832
98.7122
79.3814
66.2228
54.4945
44.0953
35.7503
30.1572
26.394
21.2664
13.0873
6.21471
3.09842
2.20957
2.05075
1.77998
1.71167
1.42633
1.39423
49.6321
89.4154
120.103
164.043
212.347
235.918
279.135
356.862
497.393
670.567
752.375
734.092
650.13
499.9
309.141
182.326
120.981
91.0413
74.426
62.724
51.1811
40.8334
33.0652
28.0689
24.4606
19.0195
11.1373
5.30701
2.83191
2.11731
1.97079
1.6958
1.63111
1.35204
1.33195
59.8743
93.2842
120.37
164.927
216.539
245.422
302.657
409.357
593.464
746.663
735.709
665.317
569.799
427.855
263.908
158.83
108.286
83.2276
69.0708
58.7693
47.7445
37.8083
30.6918
26.2138
22.6813
16.9493
9.46976
4.55807
2.6041
2.02973
1.89278
1.61424
1.55333
1.28065
1.27184
70.5911
96.843
120.553
165.999
222.096
258.777
336.812
483.79
691.103
751.48
651.368
556.513
469.867
352.508
220.346
136.661
96.1676
75.5207
63.4878
54.4489
44.2297
35.0008
28.5778
24.5517
21.038
15.0541
8.05014
3.93713
2.40719
1.94634
1.81685
1.53541
1.47841
1.21224
1.21398
80.9187
100.119
120.665
167.425
229.907
278.572
388.09
579.857
738.49
677.618
539.189
448.179
377.609
284.748
181.283
116.555
84.9302
68.1453
57.8733
49.8917
40.6789
32.3775
26.672
23.0484
19.5179
13.3314
6.84554
3.41941
2.23506
1.86671
1.74311
1.45945
1.40645
1.14685
1.15839
89.3733
103.159
120.724
169.489
241.625
309.665
464.216
663.869
691.076
559.156
430.827
357.869
302.011
227.611
147.605
98.8488
74.7792
61.2877
52.4236
45.2578
37.1345
29.8983
24.9257
21.675
18.1115
11.7775
5.82589
2.98507
2.08288
1.79054
1.67167
1.38647
1.33752
1.08454
1.10512
95.1437
106.016
120.759
172.721
260.611
360.616
555.83
659.152
567.306
434.802
339.234
287.097
242.137
180.312
119.103
83.5565
65.7946
55.0708
47.3153
40.7291
33.6497
27.5251
23.2939
20.4058
16.8111
10.3871
4.96441
2.61828
1.94677
1.71755
1.60265
1.31659
1.27168
1.02534
1.0542
0.00337766
0.00250313
0.00227368
0.00216036
0.00211837
0.00212139
0.00215443
0.00554358
0.130092
0.325232
0.566587
0.893233
1.29958
1.79793
2.3431
3.04085
4.15376
6.36027
13.2875
31.6459
207.025
160.119
0.00334417
0.00224168
0.00184048
0.00160307
0.00148019
0.00144079
0.00147277
0.00561599
0.131371
0.328812
0.572812
0.901088
1.30852
1.8084
2.35517
3.05522
4.17207
6.3832
13.3256
31.7004
208.019
170.232
0.00354029
0.00237562
0.00188173
0.00154351
0.00132068
0.00118861
0.00115765
0.00566224
0.132213
0.331415
0.577646
0.90694
1.31474
1.81532
2.363
3.06476
4.18513
6.40108
13.3575
31.7563
208.164
179.892
0.00367059
0.00251725
0.00200376
0.00162957
0.0013575
0.00116553
0.00103147
0.00569062
0.132678
0.333098
0.581071
0.910741
1.31818
1.81861
2.3665
3.06934
4.19275
6.41365
13.3815
31.8145
207.524
188.961
0.00392243
0.00276394
0.00222661
0.00182248
0.00151465
0.00128027
0.00100024
0.00570534
0.132801
0.333897
0.583069
0.912454
1.31878
1.81823
2.36561
3.06889
4.19478
6.42065
13.396
31.8753
206.143
197.903
0.00406001
0.00292961
0.00239854
0.00199231
0.00167567
0.00142581
0.000990199
0.00570866
0.132604
0.333839
0.583631
0.912062
1.31652
1.81418
2.36031
3.06336
4.19111
6.42186
13.3994
31.939
204.052
206.89
0.00434036
0.00320804
0.00265981
0.00223401
0.00189692
0.00162578
0.00106006
0.00570166
0.132102
0.332944
0.582761
0.909568
1.31142
1.80647
2.35061
3.05272
4.18163
6.41702
13.3902
32.0056
201.292
215.92
0.00447839
0.00337918
0.00284397
0.00242378
0.00208716
0.00181239
0.00118716
0.00568444
0.131304
0.331234
0.580478
0.904996
1.30351
1.79515
2.33658
3.03698
4.16625
6.40595
13.3669
32.0742
197.909
224.933
0.00478394
0.00368473
0.00313499
0.0026976
0.00234311
0.00205048
0.00131212
0.00565645
0.130218
0.328732
0.576821
0.898393
1.29286
1.78032
2.31828
3.01618
4.1449
6.3884
13.3285
32.1435
193.961
233.859
0.00490853
0.00384879
0.0033196
0.002895
0.00254765
0.00225762
0.00140216
0.0056167
0.128851
0.325466
0.571842
0.88983
1.27956
1.76208
2.29586
2.9904
4.11753
6.3642
13.2738
32.2113
189.507
242.615
0.00522931
0.00417137
0.00363046
0.00319124
0.00282833
0.00252265
0.00151603
0.00556403
0.127209
0.321468
0.56561
0.879398
1.26376
1.74059
2.26946
2.95974
4.08412
6.33312
13.2021
32.2743
184.612
251.091
0.00533915
0.00432464
0.00380996
0.00338942
0.00303939
0.00274184
0.00163508
0.00549673
0.125295
0.316773
0.558204
0.867209
1.24558
1.71601
2.23926
2.92435
4.04464
6.29498
13.1126
32.3284
179.343
259.155
0.00567203
0.00466107
0.0041372
0.00370421
0.00334046
0.00302893
0.00183944
0.00541278
0.123111
0.31142
0.549711
0.853392
1.22521
1.68853
2.20549
2.8844
3.99913
6.24955
13.0047
32.3684
173.769
266.658
0.00575613
0.00479284
0.00430122
0.00389325
0.00354866
0.00325134
0.00211687
0.00530904
0.120654
0.305446
0.540221
0.838088
1.20283
1.65838
2.16839
2.84013
3.94764
6.19663
12.8782
32.3878
167.956
273.448
0.00609203
0.00513348
0.0046348
0.00421643
0.00386005
0.0035507
0.00252184
0.00518176
0.117913
0.298885
0.529826
0.821451
1.17864
1.6258
2.12822
2.79179
3.89028
6.13599
12.7327
32.3794
161.97
279.375
0.00615206
0.0052429
0.00478021
0.00439129
0.00405883
0.00376862
0.00298786
0.00502502
0.114868
0.291764
0.518612
0.803638
1.15284
1.59101
2.08526
2.73966
3.8272
6.06741
12.5681
32.335
155.87
284.309
0.0064867
0.00558326
0.0051153
0.00471761
0.0043748
0.00407393
0.00350067
0.00483213
0.111484
0.2841
0.506658
0.784809
1.12565
1.55428
2.0398
2.68406
3.75862
5.99067
12.3845
32.2456
149.711
288.137
0.00651827
0.0056654
0.00523652
0.00487214
0.00455749
0.00428021
0.00389609
0.00459275
0.107703
0.275888
0.494027
0.765121
1.09729
1.51586
1.99213
2.62533
3.68479
5.90558
12.1819
32.1019
143.541
290.774
0.00683897
0.00599263
0.00556029
0.00518898
0.00486582
0.00457969
0.00427299
0.00430537
0.103443
0.267102
0.480765
0.744721
1.06797
1.47601
1.94255
2.56382
3.60603
5.81195
11.9607
31.8945
137.403
292.162
0.00685342
0.00605569
0.0056623
0.00532513
0.00503164
0.00477115
0.00452709
0.00398543
0.098584
0.257678
0.466891
0.723741
1.0379
1.43498
1.89137
2.49988
3.52271
5.70964
11.7214
31.6139
131.329
292.266
0.00716007
0.00636959
0.00597425
0.00563156
0.00533079
0.00506252
0.00482286
0.00372459
0.0929611
0.247505
0.452386
0.70229
1.0073
1.39303
1.83888
2.43388
3.43523
5.59856
11.4646
31.2515
125.348
291.072
0.00715658
0.00641245
0.00605552
0.00574734
0.00547731
0.00523621
0.00502232
0.003731
0.0863587
0.236411
0.437185
0.680441
0.976332
1.3504
1.78535
2.36619
3.34403
5.47872
11.191
30.7994
119.481
288.581
0.00744656
0.00670986
0.00635188
0.00603916
0.00576278
0.00551474
0.0052923
0.00411058
0.0785156
0.224146
0.421153
0.658221
0.94518
1.30734
1.73108
2.29715
3.2496
5.35017
10.9014
30.2515
113.744
284.806
0.00743051
0.00673696
0.00641569
0.00613661
0.00589077
0.00567023
0.00547038
0.00466383
0.0691599
0.210367
0.404072
0.63559
0.91397
1.26405
1.67631
2.22712
3.15243
5.2131
10.597
29.6034
108.144
279.773
0.00770418
0.00701798
0.00669628
0.00641334
0.00616174
0.00593475
0.00572738
0.00524367
0.058123
0.194627
0.385606
0.612417
0.882781
1.22077
1.62132
2.15643
3.05303
5.06779
10.2786
28.8528
102.688
273.511
0.00767669
0.00703035
0.00674336
0.00649283
0.00627116
0.00607154
0.00588822
0.00561938
0.0455909
0.176399
0.36528
0.588452
0.851616
1.17766
1.56632
2.0854
2.95193
4.91466
9.94756
28.0002
97.3757
266.062
0.00793332
0.00729396
0.00700683
0.00675281
0.00652578
0.00632003
0.00613049
0.00592635
0.03248
0.155165
0.342445
0.56328
0.82037
1.13486
1.51155
2.01434
2.84968
4.75425
9.60482
27.0489
92.2042
257.474
0.00789949
0.00729633
0.00704131
0.00681775
0.00661924
0.00643992
0.00627443
0.00611184
0.0205873
0.130657
0.316269
0.536278
0.78878
1.09244
1.4572
1.94353
2.74682
4.58727
9.25159
26.0049
87.1662
247.811
0.00814121
0.00754451
0.00728942
0.00706258
0.00685888
0.00667353
0.00650209
0.00633889
0.0120612
0.1033
0.285771
0.506563
0.756377
1.05034
1.40342
1.87325
2.6439
4.41459
8.88896
24.8772
82.2527
237.148
0.00810332
0.00753933
0.00731377
0.00711533
0.00693857
0.00677848
0.00663034
0.00648913
0.00779168
0.0748052
0.249994
0.472936
0.722408
1.00833
1.35028
1.80373
2.54151
4.23726
8.51811
23.6772
77.4507
225.584
0.00833027
0.00777217
0.0075465
0.00734491
0.00716313
0.00699715
0.00684315
0.0066974
0.00662371
0.0483544
0.208463
0.433868
0.685767
0.965901
1.29772
1.73515
2.44019
4.05651
8.14023
22.4186
72.7466
213.231
0.00829262
0.00776374
0.00756481
0.00738925
0.00723245
0.00709009
0.00695809
0.00683245
0.00660835
0.0275883
0.162032
0.387603
0.644899
0.922201
1.2455
1.66761
2.34049
3.87378
7.75669
21.1165
68.1247
200.224
0.00850606
0.00798252
0.00778347
0.0076049
0.00744327
0.00729518
0.00715738
0.00702688
0.00684883
0.0147675
0.113987
0.332598
0.597717
0.875914
1.19303
1.60104
2.24289
3.69068
7.36909
19.7874
63.5712
186.717
0.00847099
0.00797342
0.00779842
0.00764353
0.00750483
0.00737862
0.00726136
0.00714963
0.00702339
0.00896731
0.0703309
0.268603
0.541612
0.825144
1.13933
1.53515
2.14774
3.50899
6.97945
18.4479
59.0742
172.879
0.00867171
0.00817897
0.00800382
0.00784608
0.00770279
0.00757107
0.00744815
0.00733149
0.00721308
0.00720493
0.0375977
0.198492
0.473811
0.767283
1.08284
1.46927
2.0552
3.33053
6.59025
17.1151
54.6289
158.886
0.00864157
0.00817176
0.00801804
0.00788162
0.00775916
0.00764748
0.00754348
0.0074442
0.00734478
0.00697873
0.0186063
0.129781
0.392562
0.69895
1.02131
1.40229
1.96505
3.15703
6.20456
15.8051
50.2387
144.922
0.00883166
0.00836618
0.00821223
0.00807308
0.00794622
0.00782921
0.00771968
0.00761543
0.00751326
0.00721147
0.0105295
0.0731546
0.29972
0.616318
0.951583
1.33247
1.87666
2.9899
5.82588
14.5334
45.9187
131.164
0.00880914
0.0083638
0.00822884
0.00810873
0.00800061
0.00790175
0.00780944
0.00772107
0.00763357
0.00745701
0.00805297
0.0361957
0.203813