/*--------------------------------*- C++ -*----------------------------------*\
| =========                 |                                                 |
| \\      /  F ield         | OpenFOAM: The Open Source CFD Toolbox           |
|  \\    /   O peration     | Version:  v1912                                 |
|   \\  /    A nd           | Website:  www.openfoam.com                      |
|    \\/     M anipulation  |                                                 |
\*---------------------------------------------------------------------------*/
FoamFile
{
    version     2.0;
    format      ascii;
    class       volScalarField;
    location    "290";
    object      nut;
}
// * * * * * * * * * * * * * * * * * * * * * * * * * * * * * * * * * * * * * //

dimensions      [0 2 -1 0 0 0 0];


internalField   nonuniform List<scalar> 
12441
(
5.82198e-24
1.79052e-20
8.10492e-20
3.3254e-19
1.0683e-18
3.8883e-18
1.01056e-17
2.50046e-17
6.13834e-17
1.27525e-16
3.05662e-16
7.72075e-16
2.1782e-15
7.41287e-15
1.03649e-13
1.89832e-11
0.000196495
0.000968064
0.00310612
0.00265345
0.00364591
0.00775321
6.34204e-24
3.03351e-20
1.11732e-19
4.23948e-19
1.3021e-18
4.80731e-18
1.21985e-17
3.00099e-17
7.36101e-17
1.54448e-16
3.79818e-16
1.03015e-15
2.82438e-15
9.38882e-15
1.13075e-13
3.90709e-11
5.82461e-05
0.00117339
0.00355598
0.0028888
0.00400823
0.00781733
6.3648e-24
3.58956e-20
1.20779e-19
4.48132e-19
1.37774e-18
4.90674e-18
1.2929e-17
3.20409e-17
8.05147e-17
1.71766e-16
4.17906e-16
1.11852e-15
2.78068e-15
7.67722e-15
5.35248e-14
6.58752e-12
1.11632e-05
0.000860321
0.00141657
0.00272517
0.00416123
0.0078909
6.31927e-24
3.76918e-20
1.18534e-19
4.29311e-19
1.32535e-18
4.71357e-18
1.25134e-17
3.13267e-17
7.84951e-17
1.7367e-16
4.23783e-16
1.15508e-15
2.60687e-15
8.48658e-15
3.85075e-14
1.54574e-12
1.63052e-06
0.000599482
0.00105602
0.0026475
0.00432393
0.0079647
6.28522e-24
4.38832e-20
1.29779e-19
4.58315e-19
1.40269e-18
4.77934e-18
1.30909e-17
3.27946e-17
8.42986e-17
1.8752e-16
4.54191e-16
1.28588e-15
3.01428e-15
4.0783e-14
2.47214e-13
2.3024e-12
1.40001e-07
0.00042297
0.00103592
0.00263444
0.00446456
0.00803394
6.23505e-24
4.12882e-20
1.2054e-19
4.2919e-19
1.34272e-18
4.62209e-18
1.27504e-17
3.23929e-17
8.28953e-17
1.92684e-16
4.76983e-16
1.44693e-15
4.52655e-15
1.33086e-12
1.18985e-11
5.11186e-11
4.59597e-07
0.000388308
0.00110162
0.00269145
0.00459164
0.00809948
6.20015e-24
5.0264e-20
1.37796e-19
4.7577e-19
1.46015e-18
4.79247e-18
1.35932e-17
3.44535e-17
9.07039e-17
2.11121e-16
5.20881e-16
2.00196e-15
2.49833e-14
4.15201e-11
6.57799e-10
9.39351e-09
1.87825e-05
0.00040599
0.00128777
0.00287731
0.00473819
0.00816218
6.15038e-24
4.34524e-20
1.23172e-19
4.40159e-19
1.40816e-18
4.72281e-18
1.35123e-17
3.48448e-17
9.13212e-17
2.23846e-16
5.72563e-16
5.4412e-15
6.08966e-13
2.25667e-09
8.41441e-08
4.98259e-06
0.000195272
0.000465215
0.00174295
0.00325785
0.00493057
0.00822577
6.11758e-24
5.57044e-20
1.46131e-19
4.99679e-19
1.55412e-18
4.95867e-18
1.46118e-17
3.75706e-17
1.02076e-16
2.50943e-16
6.45401e-16
6.14066e-14
2.5861e-11
7.43765e-08
1.04327e-05
0.000154289
0.000799633
0.000829149
0.00268855
0.00390869
0.00520161
0.00829204
6.07073e-24
4.43499e-20
1.25436e-19
4.56633e-19
1.50754e-18
4.95365e-18
1.47475e-17
3.87254e-17
1.0488e-16
2.7512e-16
7.48696e-16
1.68358e-12
1.08164e-09
4.43961e-06
0.000191519
0.000615823
0.00169474
0.00156922
0.00442537
0.00490828
0.005565
0.00836448
6.04156e-24
6.02604e-20
1.53435e-19
5.2591e-19
1.67273e-18
5.20597e-18
1.60252e-17
4.20347e-17
1.19297e-16
3.17368e-16
8.92155e-16
5.23551e-11
5.4918e-08
8.19831e-05
0.000722274
0.00170809
0.00370753
0.00312845
0.00739393
0.00635595
0.006034
0.00844366
5.99615e-24
4.46293e-20
1.27737e-19
4.76946e-19
1.6337e-18
5.28099e-18
1.64024e-17
4.40651e-17
1.25503e-16
3.6463e-16
1.15873e-15
1.45808e-09
3.24205e-06
0.000346643
0.00158543
0.0038285
0.00774275
0.0062655
0.0120436
0.00829424
0.0065971
0.00853143
5.97054e-24
6.41498e-20
1.60451e-19
5.53813e-19
1.81497e-18
5.54195e-18
1.79086e-17
4.82221e-17
1.46708e-16
4.44725e-16
1.6947e-15
3.52506e-08
7.26578e-05
0.00108443
0.00390298
0.00847013
0.0154349
0.0120245
0.0185289
0.0107027
0.00724451
0.00862633
5.92657e-24
4.43257e-20
1.29671e-19
4.99317e-19
1.78321e-18
5.69196e-18
1.85326e-17
5.13841e-17
1.59856e-16
5.59157e-16
3.60174e-15
7.97236e-07
0.000347471
0.00280132
0.00865276
0.0169423
0.0282155
0.0212865
0.0265356
0.0134527
0.00794335
0.00872852
5.90419e-24
6.75162e-20
1.66656e-19
5.82625e-19
1.97801e-18
5.94017e-18
2.02693e-17
5.67828e-17
1.96061e-16
7.78707e-16
1.65184e-14
1.51965e-05
0.00113169
0.00659689
0.0172033
0.0303567
0.0466966
0.0341413
0.0352766
0.0163848
0.00867305
0.00883515
5.86051e-24
4.39594e-20
1.31999e-19
5.24812e-19
1.95782e-18
6.18562e-18
2.12024e-17
6.16796e-17
2.28176e-16
1.21628e-15
3.0219e-13
0.000137512
0.00281211
0.0135552
0.0305796
0.0490391
0.0701446
0.049455
0.0437927
0.0192981
0.00939651
0.00894576
5.84142e-24
7.0541e-20
1.73506e-19
6.15128e-19
2.17063e-18
6.43961e-18
2.3311e-17
6.93788e-17
3.08242e-16
2.30494e-15
1.26034e-11
0.000524081
0.00640402
0.0246011
0.0487612
0.0723301
0.0962438
0.0650852
0.0512438
0.0220542
0.0100989
0.00905718
5.79747e-24
4.35028e-20
1.34495e-19
5.53147e-19
2.1607e-18
6.77171e-18
2.46189e-17
7.72311e-17
4.08483e-16
5.44571e-15
5.48036e-10
0.00134294
0.0128085
0.0401324
0.0712268
0.0983848
0.121473
0.0786435
0.0572073
0.0245311
0.0107526
0.00916919
5.78111e-24
7.32648e-20
1.80291e-19
6.49145e-19
2.38805e-18
7.01178e-18
2.71831e-17
8.90724e-17
6.61754e-16
1.69232e-14
4.40852e-08
0.00326064
0.0228941
0.0594297
0.0961381
0.124519
0.142087
0.0885098
0.0616458
0.0266981
0.0113576
0.00927899
5.73658e-24
4.3054e-20
1.36874e-19
5.82419e-19
2.38694e-18
7.43836e-18
2.90082e-17
1.02319e-16
1.08048e-15
7.52733e-14
8.54453e-06
0.00690441
0.0367818
0.0814845
0.121551
0.147644
0.155292
0.0943379
0.0648508
0.0285268
0.0118997
0.00938714
5.72351e-24
7.57308e-20
1.86806e-19
6.83196e-19
2.62933e-18
7.67325e-18
3.23051e-17
1.22249e-16
2.19386e-15
7.80201e-13
0.000166923
0.0131836
0.0538632
0.104497
0.144745
0.165208
0.160171
0.0969738
0.0671871
0.0300555
0.0123925
0.00949146
5.67816e-24
4.24352e-20
1.38576e-19
6.10946e-19
2.63521e-18
8.19358e-18
3.49412e-17
1.46468e-16
4.34039e-15
1.34062e-11
0.00065232
0.0226062
0.0729928
0.127011
0.16383
0.175717
0.157844
0.0977625
0.0690149
0.0312983
0.0128335
0.00959327
5.66778e-24
7.80244e-20
1.92475e-19
7.15504e-19
2.88997e-18
8.41858e-18
3.94346e-17
1.83588e-16
1.02762e-14
1.66103e-10
0.00171585
0.0350866
0.0928265
0.14723
0.177115
0.179211
0.150844
0.097907
0.0705611
0.0323178
0.0132476
0.00969106
5.62189e-24
4.19654e-20
1.39796e-19
6.38026e-19
2.90272e-18
9.03799e-18
4.35031e-17
2.315e-16
2.24216e-14
1.55804e-09
0.00393106
0.0500591
0.11211
0.164105
0.184442
0.176943
0.141993
0.0980809
0.0719746
0.0331451
0.0136421
0.00978684
5.61504e-24
8.02773e-20
1.97584e-19
7.45841e-19
3.17131e-18
9.26771e-18
5.02664e-17
3.06437e-16
5.64431e-14
1.37795e-08
0.00786901
0.0664658
0.129829
0.176702
0.186231
0.170943
0.133463
0.0984955
0.0733041
0.0338569
0.0140505
0.00987966
5.56736e-24
4.17934e-20
1.40768e-19
6.63897e-19
3.19218e-18
9.99297e-18
5.71551e-17
4.08477e-16
1.30489e-13
3.18892e-07
0.0139916
0.0833195
0.145251
0.185034
0.183959
0.163229
0.126379
0.0990807
0.0745739
0.0344988
0.0144864
0.00997203
5.56301e-24
8.24862e-20
2.02103e-19
7.74045e-19
3.47303e-18
1.02327e-17
6.84634e-17
5.73378e-16
3.9256e-13
1.87007e-05
0.0222711
0.0996255
0.157936
0.189317
0.178992
0.155391
0.120993
0.0996957
0.0757659
0.0351532
0.0149869
0.0100634
5.51419e-24
4.18611e-20
1.41227e-19
6.87556e-19
3.50171e-18
1.10695e-17
8.13333e-17
8.10429e-16
1.83005e-12
0.000211032
0.0324118
0.114745
0.167716
0.190408
0.172836
0.148343
0.117072
0.10021
0.0768684
0.0358622
0.0155645
0.0101564
5.51321e-24
8.46781e-20
2.05804e-19
7.99249e-19
3.79642e-18
1.13447e-17
1.02518e-16
1.20444e-15
1.28021e-11
0.000704914
0.0437704
0.12817
0.174672
0.189055
0.166392
0.142461
0.11424
0.100552
0.0778503
0.0366889
0.0162495
0.0102507
5.46213e-24
4.20362e-20
1.40973e-19
7.08452e-19
3.83383e-18
1.23054e-17
1.28836e-16
1.79584e-15
7.4096e-11
0.00142255
0.0558016
0.139666
0.179072
0.18619
0.160367
0.137742
0.112147
0.100687
0.0786942
0.0376448
0.0170416
0.0103488
5.46318e-24
8.68094e-20
2.08986e-19
8.21836e-19
4.1434e-18
1.26538e-17
1.72487e-16
2.80971e-15
3.56417e-10
0.00248323
0.0679067
0.149089
0.181307
0.182408
0.154978
0.134026
0.110536
0.100622
0.079371
0.0387521
0.0179541
0.01045
5.41105e-24
4.22484e-20
1.39906e-19
7.26649e-19
4.19111e-18
1.37425e-17
2.30149e-16
4.38988e-15
1.38693e-09
0.00401338
0.0796927
0.156486
0.18181
0.178293
0.150361
0.131096
0.109233
0.100371
0.0798655
0.0399817
0.0189659
0.0105565
5.4152e-24
8.89211e-20
2.11422e-19
8.42419e-19
4.52287e-18
1.4194e-17
3.26417e-16
7.08391e-15
4.7464e-09
0.00618447
0.0907714
0.161954
0.181012
0.174109
0.146419
0.128761
0.108132
0.0999653
0.0801529
0.0413202
0.020069
0.010667
5.35959e-24
4.22809e-20
1.37817e-19
7.42922e-19
4.58525e-18
1.54548e-17
4.58291e-16
1.12965e-14
1.44515e-08
0.00914909
0.100962
0.165713
0.179292
0.170115
0.143105
0.126859
0.107174
0.0994322
0.0802222
0.0427164
0.0212225
0.0107831
5.36568e-24
8.84606e-20
2.10347e-19
8.57274e-19
4.93684e-18
1.60488e-17
6.7802e-16
1.85082e-14
4.27989e-08
0.0130539
0.110121
0.167982
0.176969
0.16636
0.140273
0.125274
0.106328
0.0988037
0.0800541
0.0441505
0.0224054
0.0109032
5.30604e-24
4.14882e-20
1.32583e-19
7.51671e-19
5.0105e-18
1.74641e-17
9.80559e-16
2.99208e-14
2.19585e-07
0.0181037
0.118297
0.169045
0.174293
0.162941
0.137862
0.123921
0.105582
0.0981063
0.0796429
0.0455826
0.0235699
0.0110282
5.31251e-24
8.52665e-20
2.03834e-19
8.62107e-19
5.38137e-18
1.81877e-17
1.4748e-15
5.74623e-14
1.13109e-05
0.0245787
0.125559
0.169145
0.171454
0.159821
0.135761
0.122746
0.104937
0.0973701
0.0789772
0.0470199
0.0246972
0.0111563
5.24611e-24
4.16173e-20
1.27333e-19
7.57751e-19
5.4831e-18
1.98589e-17
2.14256e-15
4.65072e-13
0.00020505
0.0329449
0.132094
0.168543
0.168586
0.157044
0.133941
0.121711
0.104397
0.0966201
0.0780611
0.0484594
0.0257499
0.0112883
5.24947e-24
5.37921e-20
1.54729e-19
7.99527e-19
5.76919e-18
2.06404e-17
3.20176e-15
2.31302e-11
0.00148785
0.0437838
0.138042
0.167444
0.165785
0.154562
0.13233
0.120803
0.103977
0.0958845
0.0768968
0.0499472
0.0267316
0.011422
5.1727e-24
4.32832e-20
1.14481e-19
7.24332e-19
5.94089e-18
2.35472e-17
4.66316e-15
1.03289e-09
0.00596347
0.057476
0.143556
0.166052
0.163109
0.152419
0.130933
0.120014
0.10369
0.0951853
0.0755059
0.0515072
0.0276341
0.0115584
5.16605e-24
1.9396e-21
1.12098e-20
4.00675e-19
5.44949e-18
2.44399e-17
7.2078e-15
1.83544e-07
0.0162801
0.0739726
0.148665
0.164513
0.160586
0.150579
0.129706
0.119352
0.103553
0.0945452
0.0739129
0.0531777
0.0284959
0.0116955
5.07793e-24
1.71176e-20
4.47767e-20
4.17419e-19
5.46284e-18
3.62117e-17
1.80082e-14
4.9428e-05
0.0346735
0.09294
0.153371
0.162977
0.15822
0.149104
0.128686
0.118826
0.103581
0.0939756
0.0721668
0.0549034
0.0293311
0.0118345
5.03911e-24
6.72053e-22
8.45973e-23
2.35261e-19
5.06674e-18
8.28254e-17
3.70821e-13
0.00111678
0.0626482
0.113828
0.157552
0.161543
0.15599
0.14796
0.127842
0.118466
0.103786
0.0934829
0.0703227
0.0565165
0.0301405
0.011976
4.83842e-24
2.10341e-19
4.58181e-19
1.02964e-18
7.26128e-18
9.13658e-16
7.18247e-12
0.00698164
0.100797
0.136327
0.16133
0.160391
0.153876
0.147209
0.127211
0.118281
0.104166
0.0930107
0.0684485
0.0575899
0.0306194
0.0121338
0.00987657
0.023488
0.0251554
0.00962515
0.00797563
0.00817142
0.00837287
0.00865383
0.00857872
0.0090129
0.0125974
0.0116983
0.0106031
0.00993066
0.00976911
0.0108908
0.0132071
0.0157563
0.0165291
0.0144003
0.0125679
0.0121436
0.0122458
0.0126494
0.0134002
0.0144251
0.0146632
0.011215
0.0346211
0.110529
0.11972
0.117754
0.11856
0.12882
0.146954
0.00986353
0.0238699
0.0243596
0.00928508
0.00783301
0.00803389
0.00840741
0.00871615
0.0085698
0.00899467
0.0122859
0.0113287
0.0103054
0.00968335
0.00950737
0.0105889
0.0129653
0.0156826
0.0166565
0.014458
0.0124707
0.0119895
0.0120612
0.0124313
0.0131569
0.0141908
0.0144664
0.011167
0.0339177
0.110262
0.11962
0.117672
0.118515
0.128774
0.146924
0.00983842
0.0241915
0.0229766
0.00869828
0.00767961
0.00785944
0.00852621
0.00885811
0.00858908
0.00898372
0.0112881
0.0102549
0.00951258
0.00893941
0.0085366
0.00920488
0.0111006
0.0135676
0.0150037
0.0135715
0.0119924
0.0116055
0.0116765
0.0120059
0.0126855
0.0137287
0.0140638
0.0112475
0.0334789
0.109703
0.119366
0.117455
0.118375
0.128632
0.146814
0.00979929
0.0244491
0.0212076
0.00809333
0.00756992
0.00773247
0.00870507
0.00898107
0.00862329
0.00899787
0.0101911
0.00907241
0.00859948
0.00816182
0.00759698
0.0077645
0.00891748
0.0107708
0.0124386
0.0120512
0.0111845
0.0109998
0.0111009
0.0113881
0.0120017
0.013041
0.0134542
0.0112988
0.0330509
0.108839
0.118958
0.1171
0.118139
0.128393
0.146624
0.00974597
0.0245506
0.0191836
0.00747901
0.00743475
0.00759434
0.00883891
0.00900136
0.00859548
0.00895385
0.00921939
0.00803601
0.00781765
0.00757861
0.00691991
0.00663978
0.00705291
0.00814272
0.0096639
0.0101642
0.0100896
0.0101827
0.0103503
0.0106046
0.0111375
0.0121474
0.0126486
0.0112002
0.0324308
0.107659
0.118409
0.116622
0.11782
0.128069
0.146366
0.00967615
0.0244175
0.0170159
0.00683193
0.00722849
0.00739236
0.00884812
0.00887584
0.00844678
0.00876707
0.00835782
0.00715276
0.00715519
0.00710984
0.00641387
0.00580428
0.00563434
0.00603041
0.00713037
0.00813172
0.00875024
0.00916552
0.00944353
0.00968712
0.0101354
0.0110833
0.0116702
0.0108681
0.0314691
0.106156
0.117742
0.116043
0.117436
0.127682
0.146061
0.00959042
0.0240003
0.0148188
0.0061673
0.00695843
0.00712204
0.0087098
0.00860452
0.00816201
0.00840536
0.00753739
0.00634372
0.00649625
0.00658591
0.00589738
0.00509437
0.00455246
0.00445358
0.00505788
0.00614396
0.00722421
0.00796591
0.00840105
0.00866852
0.00904212
0.0098968
0.0105547
0.0102589
0.0300755
0.104326
0.116983
0.11539
0.117012
0.127257
0.145735
0.00948687
0.0232635
0.0127025
0.00553228
0.00666499
0.00681256
0.00844707
0.00821768
0.00776232
0.00788853
0.0067203
0.00555549
0.00576278
0.00590908
0.00526051
0.00438553
0.00367076
0.00330558
0.00350695
0.00438023
0.00561392
0.00662092
0.00724778
0.00758062
0.00790332
0.0086436
0.00934827
0.00937408
0.0282244
0.10217
0.116164
0.114695
0.116575
0.126823
0.145415
0.00936733
0.0222062
0.0107563
0.00498031
0.00639585
0.00650527
0.00810576
0.00775884
0.00728634
0.00726605
0.00591415
0.00478502
0.00495388
0.00508773
0.00450422
0.00365535
0.00292478
0.00248536
0.00245189
0.0029996
0.00408677
0.00521017
0.00602278
0.00645674
0.00676122
0.00738105
0.00810473
0.00826222
0.0259561
0.0996974
0.115316
0.113991
0.116155
0.126412
0.145133
0.0092307
0.0208412
0.00904126
0.00455255
0.00619179
0.00624015
0.00773794
0.00727484
0.0067789
0.00659719
0.00515055
0.00406152
0.0041217
0.00419463
0.00370168
0.00295785
0.00231938
0.00192892
0.00181684
0.00208534
0.00284299
0.00387196
0.00479334
0.00533808
0.00565562
0.00616402
0.00688101
0.00701551
0.0233717
0.0969292
0.114472
0.113309
0.11578
0.126055
0.144919
0.00908003
0.0192136
0.00758737
0.00427154
0.00608211
0.0060502
0.00739224
0.00680907
0.00628203
0.00593755
0.00446491
0.00342439
0.00333866
0.00332622
0.00295284
0.00237189
0.00187961
0.00158559
0.00148943
0.00159892
0.00201742
0.00277805
0.0036635
0.00428122
0.00462764
0.0050428
0.00573272
0.00575656
0.02062
0.0939053
0.113665
0.112683
0.11548
0.125784
0.144806
0.00891508
0.0173778
0.0064006
0.00414297
0.00608627
0.00596022
0.00711059
0.00639985
0.00583316
0.00533361
0.0038863
0.00290509
0.00267176
0.0025744
0.00234297
0.00194945
0.00160373
0.00139834
0.00134905
0.00141026
0.00159907
0.00204928
0.00275465
0.00335929
0.00372264
0.00406292
0.00471025
0.00461512
0.0178765
0.0906912
0.112924
0.112143
0.115283
0.125629
0.144822
0.00874002
0.0154154
0.0054703
0.00416172
0.00621743
0.00598782
0.0069268
0.00607852
0.00546265
0.00482047
0.00343231
0.00252088
0.00216505
0.00200607
0.00191555
0.00168986
0.00145525
0.00131023
0.00130212
0.00138111
0.00146907
0.00168264
0.00214875
0.00264542
0.00298697
0.0032639
0.00385571
0.00369838
0.0153174
0.0873853
0.112278
0.111717
0.115213
0.125619
0.144995
0.00855535
0.013411
0.00478025
0.004319
0.00648671
0.00614557
0.006867
0.00586972
0.00519449
0.00442299
0.00311078
0.00227221
0.00183114
0.00164334
0.00166297
0.00155204
0.00138419
0.00127497
0.00129322
0.00141216
0.00149635
0.00158168
0.0018405
0.00217868
0.00245437
0.0026731
0.00319937
0.00306416
0.0130919
0.0841225
0.111753
0.11143
0.115295
0.125781
0.145351
0.00836592
0.0114629
0.00431607
0.00460833
0.00690694
0.00644442
0.00695072
0.00579117
0.00504526
0.00415642
0.00292003
0.00214898
0.00165686
0.00146425
0.00154319
0.00148518
0.00134864
0.00126156
0.00129725
0.0014524
0.00158284
0.00163497
0.00175732
0.00194204
0.00212872
0.00229579
0.00275459
0.00271129
0.0112974
0.0810701
0.111374
0.111302
0.115549
0.126139
0.145913
0.00817267
0.00965927
0.00407256
0.00502996
0.00749656
0.00689774
0.00719402
0.00585681
0.00502649
0.0040281
0.00285377
0.00213344
0.00161453
0.00142291
0.00150715
0.00145018
0.00132391
0.00125392
0.001306
0.00148807
0.00167472
0.00175391
0.00181106
0.0018784
0.00198093
0.00211124
0.00251374
0.00259562
0.00996929
0.0784143
0.111161
0.111355
0.115993
0.126713
0.146702
0.00798033
0.00807988
0.00405845
0.00559384
0.0082804
0.00752983
0.00761446
0.00607901
0.00514557
0.00403883
0.00290213
0.00220812
0.00167491
0.00147193
0.0015137
0.00142438
0.00130062
0.00124746
0.00131883
0.00152339
0.00175667
0.00188459
0.00192794
0.00192199
0.00196484
0.00208225
0.00245101
0.00265888
0.00909828
0.0763382
0.111135
0.111602
0.116643
0.127525
0.147736
0.00778933
0.00678311
0.00429992
0.00632383
0.00929365
0.00837839
0.00823586
0.00647306
0.0054099
0.00418719
0.00305719
0.00235616
0.00180797
0.0015702
0.00153382
0.00139828
0.00127806
0.00124352
0.00133749
0.00156599
0.00183384
0.00200601
0.00205998
0.00201888
0.00203592
0.00217005
0.00253165
0.00284925
0.0086611
0.0749995
0.111312
0.112057
0.117512
0.128591
0.149031
0.00760307
0.00579592
0.00483991
0.00725849
0.0105836
0.00949687
0.00909179
0.00706125
0.00582959
0.00447295
0.00331466
0.00256786
0.00198859
0.0016865
0.00154924
0.00136929
0.0012582
0.00124506
0.00136446
0.00162146
0.00191633
0.00211753
0.00218515
0.00213524
0.0021618
0.00234342
0.00272081
0.00312931
0.00864223
0.0745079
0.111706
0.112732
0.118612
0.129926
0.150599
0.00742066
0.00510703
0.00573921
0.00844919
0.0122104
0.010954
0.0102267
0.00787602
0.00642134
0.00490196
0.0036798
0.00283962
0.00219895
0.00180004
0.00155198
0.00133874
0.00124325
0.00125439
0.00140159
0.00169237
0.00201136
0.00222558
0.00229914
0.00225646
0.0023247
0.00258107
0.0029884
0.00347702
0.00904123
0.074911
0.112324
0.113636
0.119953
0.131544
0.152454
0.00724378
0.00467465
0.00708523
0.00995876
0.0142446
0.0128288
0.0116932
0.00895874
0.00720847
0.00548739
0.00416739
0.00318099
0.00243589
0.00190351
0.0015417
0.00130936
0.0012353
0.00127328
0.00145026
0.00177933
0.00212179
0.0023361
0.00240601
0.00238134
0.00251876
0.00286995
0.00331085
0.00388441
0.00987371
0.0761919
0.113173
0.114775
0.121544
0.133457
0.154604
0.00707145
0.00444825
0.00899863
0.0118656
0.0167682
0.0152067
0.013549
0.0103564
0.00822044
0.00624979
0.00480268
0.0036114
0.00271008
0.0020018
0.00152487
0.0012854
0.00123692
0.00130358
0.00151112
0.00188113
0.00224671
0.00245191
0.00251199
0.0025155
0.0027453
0.00320226
0.00367171
0.00435566
0.0111707
0.0782794
0.114254
0.116158
0.123391
0.135677
0.157058
0.00690537
0.00439489
0.011624
0.0142765
0.019881
0.0181807
0.0158557
0.0121163
0.00948804
0.0072114
0.0056122
0.00416146
0.00304865
0.00211312
0.0015118
0.00127162
0.00125135
0.00134798
0.00158512
0.00199554
0.00238294
0.00257327
0.00262288
0.00266703
0.00300866
0.00357276
0.00406143
0.00490523
0.0129772
0.0810666
0.115564
0.117788
0.125501
0.138213
0.159824
0.00674534
0.00449925
0.0151187
0.0173465
0.023713
0.02186
0.0186824
0.0142831
0.0110395
0.00838963
0.00661406
0.00485795
0.00348369
0.00226548
0.00151664
0.00127426
0.00128298
0.00141026
0.00167357
0.00211914
0.00252593
0.00269904
0.00274361
0.00284402
0.00331333
0.00397724
0.00447727
0.00555623
0.015349
0.08443
0.1171
0.119672
0.127879
0.141074
0.162906
0.00659312
0.00476814
0.0196204
0.0212943
0.0284315
0.0263721
0.0221038
0.0168934
0.0128921
0.00978672
0.00780239
0.00571356
0.00404102
0.00249322
0.00155621
0.00130068
0.00133744
0.00149564
0.00177919
0.00224849
0.00267092
0.0028281
0.00287872
0.00305376
0.00366243
0.00441203
0.00492281
0.00633927
0.0183474
0.0882451
0.118857
0.121812
0.130531
0.144269
0.166308
0.00644962
0.00523479
0.0252175
0.0264023
0.0342281
0.0318405
0.0261821
0.0199616
0.0150411
0.0113802
0.00913944
0.00670681
0.00471667
0.00282159
0.00165097
0.00136107
0.00142232
0.00161066
0.00190603
0.00238067
0.00281353
0.00296015
0.00303289
0.00330238
0.004057
0.00487425
0.00540757
0.00729183
0.0220327
0.092397
0.120829
0.124212
0.13346
0.147805
0.170033
0.00631698
0.00595002
0.0319283
0.0329868
0.0412773
0.0383283
0.0309243
0.0234514
0.0174393
0.0131109
0.0105495
0.00778109
0.00547114
0.00324904
0.00181978
0.00146835
0.00154745
0.00176344
0.00206027
0.00251529
0.00295098
0.00309638
0.00321127
0.00359485
0.0044962
0.0053625
0.00594641
0.00845785
0.026456
0.0967856
0.12301
0.126874
0.136669
0.151687
0.174081
0.00619775
0.00697148
0.0397287
0.0413504
0.0496745
0.045764
0.0362278
0.0272432
0.01998
0.0148759
0.0119231
0.00884264
0.00622917
0.00373412
0.00207086
0.001638
0.00172537
0.00196335
0.00224932
0.0026551
0.00308262
0.00323969
0.00341953
0.00393482
0.00497758
0.00587761
0.00655913
0.00988758
0.0316511
0.101329
0.125394
0.129799
0.14016
0.155921
0.178453
0.00609509
0.00834276
0.0486145
0.0517295
0.0593711
0.0538794
0.0418368
0.0311113
0.0224843
0.0165266
0.0131235
0.00977757
0.00689956
0.00420816
0.00238879
0.00188214
0.00196971
0.00222041
0.00248179
0.00280737
0.00321101
0.00339484
0.00366376
0.0043246
0.0054979
0.00642314
0.00726999
0.0116373
0.0376276
0.105963
0.127975
0.132988
0.143934
0.16051
0.183145
0.00601408
0.0100904
0.0586705
0.0642347
0.070113
0.0621859
0.0473344
0.0347283
0.0247107
0.0178801
0.014001
0.0104606
0.00738665
0.00459451
0.00273623
0.00220282
0.00229158
0.00254288
0.00276502
0.00298276
0.00334206
0.00356838
0.00395018
0.00476505
0.00605383
0.00700569
0.00810757
0.0137687
0.0443666
0.110641
0.130746
0.136441
0.147992
0.165458
0.188155
0.00596079
0.0122278
0.0700593
0.0787308
0.0813734
0.069988
0.0521737
0.0376953
0.026379
0.0187383
0.0144086
0.0107765
0.00760918
0.0048297
0.00306579
0.00258537
0.00269287
0.0029335
0.00310325
0.00319458
0.0034857
0.00376871
0.00428476
0.00525568
0.00664276
0.0076349
0.00910456
0.0163478
0.0518191
0.115326
0.133701
0.140155
0.152334
0.170767
0.193478
0.00594609
0.0147849
0.0829328
0.094645
0.092298
0.0764436
0.0557502
0.0396006
0.0272147
0.0189195
0.014226
0.0106327
0.00750903
0.00487319
0.00333752
0.00300216
0.00316158
0.00338463
0.00349314
0.00345504
0.00365519
0.00400566
0.00467279
0.00579458
0.00726326
0.00832321
0.010298
0.0194433
0.0599097
0.119999
0.136834
0.14413
0.156961
0.176442
0.199109
0.00598322
0.017816
0.0972292
0.110787
0.101727
0.0806834
0.0575059
0.0400929
0.0270003
0.0182972
0.0133885
0.00998714
0.00706976
0.00471904
0.00352761
0.00341999
0.00367143
0.00387646
0.00392201
0.00377246
0.00386682
0.00429029
0.00511833
0.00637873
0.00791547
0.0090857
0.0117291
0.0231241
0.0685415
0.124643
0.140141
0.148363
0.161873
0.182485
0.205046
0.00609167
0.0214153
0.112466
0.125382
0.108372
0.0819947
0.0570552
0.0389663
0.0256347
0.0168447
0.011926
0.00887243
0.00632826
0.00439851
0.00363361
0.00381085
0.00418815
0.00437888
0.00436673
0.00414594
0.00413785
0.00463402
0.00562364
0.00700395
0.00860092
0.00993964
0.0134439
0.0274569
0.0776051
0.129252
0.143617
0.152856
0.167076
0.188905
0.211286
0.00628805
0.0256861
0.127622
0.136438
0.11113
0.0800152
0.054292
0.0362237
0.023175
0.0146711
0.00999468
0.00742667
0.00538993
0.00398038
0.00367195
0.00415663
0.0046777
0.00485892
0.0047994
0.00456441
0.00448417
0.00504763
0.00618849
0.00766511
0.00932241
0.0109043
0.0154929
0.0325035
0.0869873
0.133825
0.147263
0.157613
0.172576
0.195714
0.217834
0.00658505
0.030738
0.141321
0.142347
0.109423
0.0748571
0.0494393
0.0321014
0.0198535
0.0120319
0.00788033
0.00588924
0.00441748
0.00355289
0.00367292
0.00445159
0.00511302
0.0052871
0.00519275
0.00500625
0.00491581
0.00553917
0.00680955
0.00835582
0.0100834
0.0120006
0.0179316
0.0383183
0.0965805
0.138366
0.15108
0.162641
0.178384
0.20293
0.224695
0.00697682
0.0366032
0.152167
0.142371
0.103367
0.0670866
0.043005
0.0270289
0.0160451
0.00929015
0.00593245
0.0045404
0.00358811
0.00319932
0.00367062
0.0046986
0.00547714
0.00564387
0.00552848
0.00544682
0.00543308
0.00611166
0.00747976
0.00906844
0.0108873
0.0132512
0.0208206
0.0449477
0.10629
0.142882
0.155077
0.167957
0.18452
0.210582
0.231887
0.00744499
0.0431781
0.159067
0.136733
0.0936974
0.0575696
0.0356645
0.0215424
0.0121959
0.00682576
0.00442963
0.00357507
0.00301705
0.00296988
0.0036927
0.00490447
0.00576182
0.00591937
0.0057983
0.00586362
0.00602321
0.00675996
0.00818795
0.00979376
0.0117373
0.0146801
0.0242261
0.0524303
0.116043
0.147391
0.159268
0.173585
0.191011
0.218708
0.239432
0.00795396
0.0499802
0.161252
0.126331
0.0815059
0.0472531
0.0281132
0.0161768
0.00872862
0.00491437
0.00345866
0.00302207
0.00271749
0.00287284
0.00375079
0.00507376
0.00596562
0.00611364
0.00600597
0.00624494
0.00666218
0.0074691
0.00891913
0.0105214
0.0126352
0.0163133
0.028221
0.0607989
0.125788
0.151916
0.163676
0.179561
0.197892
0.227358
0.247366
0.00846726
0.0560687
0.15822
0.112348
0.0679458
0.0369824
0.0209504
0.0113828
0.0059572
0.00363732
0.00292327
0.00277806
0.00262101
0.00287787
0.00383795
0.00520594
0.00608975
0.00623135
0.00616161
0.00658901
0.00731938
0.00821411
0.00965551
0.0112402
0.0135819
0.0181784
0.0328862
0.0700854
0.135505
0.156489
0.168333
0.185931
0.205209
0.236595
0.255734
0.00894498
0.0599832
0.149643
0.0959655
0.0540275
0.0273996
0.0146193
0.00747916
0.00401937
0.00288643
0.00265696
0.00269941
0.00262903
0.0029358
0.00393483
0.00529565
0.00613683
0.00628059
0.00628028
0.00690596
0.00796647
0.00896458
0.0103792
0.0119401
0.0145773
0.0203055
0.0383132
0.0803262
0.145204
0.161152
0.173277
0.192753
0.213017
0.246492
0.264591
0.0093615
0.0602372
0.135449
0.0782819
0.0405638
0.0189453
0.00941268
0.00463925
0.00284174
0.00247147
0.00251249
0.0026598
0.00265126
0.00299949
0.00402149
0.0053359
0.00610826
0.006268
0.00637538
0.00721051
0.00858371
0.00969127
0.0110755
0.0126135
0.0156203
0.022727
0.0446059
0.09157
0.154926
0.16596
0.178558
0.200093
0.221379
0.257134
0.273999
0.0096768
0.0555698
0.115871
0.060349
0.0282394
0.0119305
0.00551343
0.00285847
0.00219084
0.00222352
0.00238726
0.00257915
0.00263234
0.0030431
0.00408717
0.00532102
0.00600538
0.0062001
0.00645934
0.00752125
0.00916545
0.0103755
0.0117378
0.0132581
0.0167106
0.0254774
0.0518832
0.103885
0.164743
0.170972
0.184226
0.208023
0.230361
0.268609
0.284028
0.00988074
0.0459002
0.0917937
0.0431514
0.0176494
0.00657614
0.00297497
0.00189169
0.00181053
0.00201613
0.00221347
0.00241639
0.00254354
0.00305312
0.00412389
0.00524024
0.00582324
0.00607635
0.0065379
0.00785248
0.00971854
0.0110134
0.0123706
0.0138787
0.0178488
0.0285923
0.0602798
0.117364
0.174759
0.176259
0.190336
0.216616
0.240032
0.281008
0.29475
4.88262e-24
3.15419e-19
1.14312e-18
4.3204e-18
2.50648e-17
3.1633e-14
9.05932e-11
0.0258461
0.136738
0.153762
0.163759
0.159767
0.152384
0.146962
0.126922
0.118345
0.10465
0.0925535
0.0670525
0.0577562
0.0302327
0.0121434
4.99638e-24
7.39628e-20
8.35894e-20
6.2551e-18
6.25996e-17
2.46772e-13
9.2739e-10
0.0488492
0.161211
0.164302
0.164758
0.15935
0.151512
0.147018
0.126964
0.118576
0.105202
0.0922857
0.0663581
0.0575163
0.0297976
0.012193
5.10243e-24
2.76633e-19
8.77935e-19
8.90285e-18
1.22347e-16
9.30017e-13
9.34283e-09
0.0762912
0.183107
0.172969
0.165332
0.158991
0.150843
0.147253
0.127221
0.118974
0.10594
0.0921041
0.0660085
0.0569113
0.0292615
0.0123518
5.06222e-24
5.72608e-20
2.14766e-20
6.84933e-18
1.92255e-16
2.27891e-12
1.69637e-07
0.10525
0.202031
0.180023
0.165816
0.158778
0.150432
0.147706
0.127723
0.119522
0.106832
0.0920155
0.0659922
0.0559728
0.0286586
0.0126093
5.16602e-24
2.21302e-19
6.32105e-19
7.22756e-18
2.87988e-16
3.60674e-12
6.54226e-06
0.131272
0.217943
0.185732
0.16645
0.158779
0.150333
0.148363
0.128452
0.120211
0.107842
0.0920216
0.0662778
0.0547709
0.0280345
0.0129566
5.11425e-24
4.5924e-20
1.2066e-20
4.61382e-18
4.09458e-16
4.86608e-12
1.85955e-05
0.149501
0.230951
0.190387
0.167428
0.159068
0.150588
0.149271
0.129442
0.121031
0.108935
0.0921185
0.0668311
0.0533626
0.0273994
0.013411
5.22949e-24
1.78683e-19
4.73275e-19
4.6347e-18
5.7986e-16
5.05457e-12
3.43665e-05
0.157591
0.241264
0.19423
0.168861
0.159696
0.151234
0.150417
0.130673
0.121983
0.110075
0.0923032
0.0676006
0.0518286
0.0267789
0.0139861
5.1704e-24
3.80406e-20
7.87977e-21
2.77905e-18
7.71647e-16
4.37098e-12
2.57062e-05
0.156212
0.249053
0.197485
0.170835
0.160719
0.152299
0.151854
0.132188
0.123071
0.111235
0.092566
0.0685404
0.050224
0.0261707
0.0146995
5.29815e-24
1.46652e-19
3.69484e-19
2.86012e-18
9.85084e-16
2.87668e-12
2.73199e-05
0.147814
0.254454
0.200294
0.173372
0.162168
0.153802
0.153566
0.133967
0.124312
0.112397
0.0928996
0.0695938
0.0486207
0.0255941
0.015555
5.2237e-24
3.24414e-20
5.88699e-21
1.68635e-18
1.1471e-15
1.6871e-12
3.51828e-05
0.134704
0.257468
0.202764
0.176487
0.164082
0.155754
0.155605
0.136055
0.125724
0.113556
0.093292
0.0707191
0.0470589
0.0250401
0.016556
5.35791e-24
1.21926e-19
2.97336e-19
1.84145e-18
1.25126e-15
8.51447e-13
4.00198e-05
0.11837
0.258008
0.204905
0.180139
0.166475
0.158165
0.15795
0.138433
0.127337
0.114725
0.0937368
0.0718674
0.0455948
0.0245241
0.0176882
5.2713e-24
2.84275e-20
4.69148e-21
1.08025e-18
1.23806e-15
4.16072e-13
4.09969e-05
0.100181
0.255828
0.206683
0.184291
0.169373
0.161035
0.160643
0.141147
0.129176
0.115927
0.0942254
0.0730114
0.0442515
0.024033
0.0189359
5.41233e-24
1.0286e-19
2.48102e-19
1.26233e-18