/*--------------------------------*- C++ -*----------------------------------*\
| =========                 |                                                 |
| \\      /  F ield         | OpenFOAM: The Open Source CFD Toolbox           |
|  \\    /   O peration     | Version:  v1912                                 |
|   \\  /    A nd           | Website:  www.openfoam.com                      |
|    \\/     M anipulation  |                                                 |
\*---------------------------------------------------------------------------*/
FoamFile
{
    version     2.0;
    format      ascii;
    class       volScalarField;
    location    "290";
    object      p;
}
// * * * * * * * * * * * * * * * * * * * * * * * * * * * * * * * * * * * * * //

dimensions      [0 2 -2 0 0 0 0];


internalField   nonuniform List<scalar> 
12441
(
8.61587
8.90951
9.74794
11.0537
12.7483
14.88
17.5407
20.8379
24.9605
30.0607
36.3412
44.148
53.8759
65.6387
81.6016
101.159
129.315
164.09
220.574
282.883
374.126
437.75
8.61586
8.9095
9.74793
11.0537
12.7483
14.88
17.5406
20.8378
24.9604
30.0605
36.3409
44.1474
53.8749
65.637
81.5985
101.152
129.3
164.066
220.492
282.807
374.077
437.553
8.61585
8.90949
9.74791
11.0537
12.7482
14.8799
17.5405
20.8376
24.9601
30.06
36.3401
44.1461
53.8729
65.6336
81.5925
101.138
129.275
164.01
220.322
282.626
373.944
437.196
8.61582
8.90946
9.74787
11.0536
12.7482
14.8798
17.5403
20.8373
24.9596
30.0593
36.3391
44.1442
53.87
65.6285
81.5835
101.118
129.242
163.924
220.144
282.348
373.702
436.641
8.61579
8.90942
9.74783
11.0536
12.748
14.8796
17.5401
20.8369
24.9591
30.0584
36.3376
44.1417
53.866
65.6217
81.5715
101.092
129.199
163.816
219.979
281.999
373.361
435.884
8.61575
8.90938
9.74777
11.0535
12.7479
14.8794
17.5398
20.8364
24.9583
30.0572
36.3358
44.1385
53.861
65.6132
81.5565
101.059
129.146
163.69
219.792
281.577
372.928
434.926
8.61571
8.90933
9.7477
11.0534
12.7478
14.8792
17.5394
20.8358
24.9574
30.0558
36.3336
44.1347
53.8551
65.603
81.5385
101.02
129.084
163.542
219.574
281.086
372.405
433.767
8.61565
8.90927
9.74762
11.0533
12.7476
14.8789
17.539
20.8351
24.9564
30.0541
36.3311
44.1302
53.8481
65.5912
81.5176
100.976
129.015
163.373
219.336
280.537
371.798
432.402
8.61559
8.9092
9.74753
11.0531
12.7474
14.8786
17.5385
20.8343
24.9552
30.0522
36.3282
44.1251
53.8402
65.5777
81.4942
100.928
128.945
163.191
219.1
279.942
371.112
430.829
8.61552
8.90912
9.74743
11.053
12.7471
14.8782
17.538
20.8334
24.9539
30.0501
36.3249
44.1194
53.8312
65.5628
81.4694
100.879
128.878
163.007
218.888
279.314
370.346
429.043
8.61545
8.90903
9.74731
11.0528
12.7469
14.8779
17.5374
20.8324
24.9524
30.0478
36.3212
44.113
53.8213
65.5466
81.4446
100.835
128.828
162.839
218.73
278.662
369.499
427.035
8.61536
8.90894
9.74719
11.0526
12.7466
14.8774
17.5367
20.8313
24.9508
30.0452
36.3173
44.106
53.8104
65.5303
81.4229
100.805
128.825
162.719
218.656
277.989
368.564
424.797
8.61527
8.90883
9.74705
11.0524
12.7463
14.8769
17.536
20.8302
24.949
30.0423
36.3129
44.0984
53.7989
65.5158
81.4128
100.81
128.909
162.692
218.673
277.288
367.533
422.317
8.61517
8.90872
9.7469
11.0522
12.7459
14.8764
17.5352
20.8289
24.9471
30.0393
36.3082
44.0902
53.7873
65.5078
81.4281
100.874
129.12
162.793
218.751
276.539
366.398
419.583
8.61506
8.90859
9.74674
11.0519
12.7456
14.8759
17.5344
20.8275
24.9451
30.036
36.3031
44.0814
53.7771
65.5138
81.4843
101.017
129.476
163.024
218.83
275.717
365.147
416.583
8.61495
8.90846
9.74657
11.0517
12.7452
14.8753
17.5335
20.826
24.9429
30.0324
36.2976
44.0722
53.7711
65.543
81.5928
101.244
129.956
163.336
218.839
274.796
363.772
413.303
8.61482
8.90832
9.74639
11.0514
12.7448
14.8747
17.5325
20.8244
24.9405
30.0286
36.2917
44.0633
53.774
65.6024
81.7562
101.545
130.498
163.636
218.719
273.757
362.266
409.728
8.61469
8.90818
9.7462
11.0511
12.7443
14.874
17.5315
20.8228
24.938
30.0246
36.2853
44.0556
53.7912
65.6949
81.9653
101.888
131.005
163.824
218.443
272.588
360.624
405.843
8.61455
8.90802
9.74599
11.0508
12.7439
14.8733
17.5304
20.821
24.9354
30.0203
36.2786
44.0511
53.8275
65.8155
82.2023
102.227
131.377
163.834
218.015
271.288
358.841
401.636
8.61441
8.90785
9.74578
11.0505
12.7434
14.8725
17.5292
20.8191
24.9326
30.0158
36.2715
44.0526
53.8832
65.9561
82.4404
102.511
131.538
163.654
217.457
269.86
356.915
397.089
8.61425
8.90768
9.74555
11.0501
12.7429
14.8717
17.528
20.8171
24.9296
30.011
36.2644
44.0636
53.956
66.1028
82.6523
102.695
131.464
163.32
216.8
268.31
354.846
392.187
8.61409
8.90749
9.74531
11.0498
12.7423
14.8709
17.5268
20.815
24.9265
30.0059
36.2577
44.0861
54.0384
66.2441
82.8117
102.756
131.186
162.89
216.071
266.649
352.633
386.914
8.61392
8.9073
9.74506
11.0494
12.7417
14.87
17.5255
20.8129
24.9233
30.0006
36.2523
44.1201
54.1246
66.3658
82.9033
102.691
130.77
162.415
215.286
264.883
350.28
381.253
8.61375
8.9071
9.74479
11.049
12.7411
14.8691
17.5241
20.8106
24.9199
29.995
36.2495
44.163
54.2059
66.4605
82.9211
102.523
130.294
161.926
214.457
263.023
347.787
375.184
8.61356
8.90689
9.74452
11.0486
12.7405
14.8682
17.5226
20.8082
24.9163
29.9891
36.251
44.211
54.279
66.52
82.8733
102.285
129.815
161.43
213.588
261.078
345.158
368.69
8.61337
8.90668
9.74423
11.0481
12.7399
14.8672
17.5211
20.8058
24.9126
29.983
36.2579
44.2599
54.3373
66.5455
82.7733
102.013
129.364
160.929
212.679
259.057
342.395
361.748
8.61317
8.90645
9.74394
11.0477
12.7392
14.8662
17.5196
20.8032
24.9087
29.9767
36.2706
44.3063
54.3813
66.537
82.6401
101.731
128.95
160.414
211.731
256.97
339.501
354.338
8.61296
8.90621
9.74363
11.0472
12.7385
14.8651
17.5179
20.8005
24.9047
29.9705
36.2883
44.3474
54.4069
66.5029
82.4882
101.459
128.567
159.882
210.742
254.826
336.477
346.434
8.61275
8.90597
9.74331
11.0467
12.7378
14.864
17.5163
20.7978
24.9005
29.9644
36.3094
44.3816
54.4179
66.4471
82.3307
101.2
128.204
159.328
209.713
252.63
333.324
338.01
8.61252
8.90572
9.74298
11.0462
12.737
14.8629
17.5145
20.7949
24.8961
29.9587
36.3319
44.4079
54.4123
66.3787
82.1738
100.957
127.852
158.754
208.643
250.388
330.04
329.04
8.61229
8.90545
9.74263
11.0457
12.7362
14.8617
17.5127
20.7919
24.8915
29.9534
36.3542
44.4258
54.3957
66.3004
82.0221
100.725
127.504
158.158
207.532
248.101
326.619
319.491
8.61205
8.90518
9.74228
11.0452
12.7354
14.8605
17.5108
20.7888
24.8868
29.9488
36.3752
44.4353
54.367
66.2188
81.8755
100.503
127.155
157.542
206.381
245.77
323.056
309.332
8.61181
8.90491
9.74191
11.0446
12.7346
14.8592
17.5089
20.7856
24.8819
29.9453
36.3941
44.4371
54.3318
66.1339
81.7345
100.285
126.802
156.906
205.188
243.394
319.34
298.527
8.61156
8.90462
9.74153
11.0441
12.7338
14.8579
17.5069
20.7824
24.8769
29.943
36.41
44.4317
54.289
66.0499
81.5971
100.07
126.443
156.254
203.956
240.974
315.462
287.04
8.61129
8.90432
9.74115
11.0435
12.7329
14.8566
17.5049
20.779
24.8717
29.9423
36.4229
44.4202
54.2435
65.965
81.463
99.8549
126.078
155.584
202.683
238.508
311.41
274.832
8.61103
8.90402
9.74074
11.0429
12.732
14.8552
17.5028
20.7755
24.8663
29.9436
36.4327
44.4033
54.1935
65.8821
81.3303
99.6397
125.706
154.9
201.372
235.998
307.171
261.86
8.61075
8.9037
9.74033
11.0423
12.731
14.8538
17.5006
20.7719
24.8608
29.9474
36.4396
44.3824
54.1432
65.7989
81.1989
99.4221
125.327
154.2
200.022
233.447
302.734
248.082
8.61047
8.90338
9.73991
11.0416
12.7301
14.8523
17.4984
20.7682
24.8556
29.9552
36.4441
44.358
54.0902
65.7178
81.0674
99.2028
124.942
153.488
198.636
230.859
298.09
233.45
8.61017
8.90305
9.73947
11.041
12.7291
14.8508
17.4961
20.7643
24.8515
29.9677
36.4466
44.3313
54.0381
65.6364
80.9359
98.9803
124.551
152.763
197.214
228.24
293.23
217.917
8.60987
8.90271
9.73902
11.0403
12.7281
14.8493
17.4938
20.7604
24.8512
29.985
36.4474
44.3027
53.9842
65.5571
80.8036
98.7559
124.155
152.026
195.76
225.595
288.15
201.429
8.60957
8.90236
9.73856
11.0396
12.727
14.8477
17.4914
20.7563
24.8583
30.0072
36.4467
44.273
53.9317
65.4774
80.6711
98.5283
123.753
151.278
194.277
222.929
282.846
183.934
8.60925
8.90201
9.73809
11.0389
12.726
14.8461
17.4889
20.7524
24.8764
30.0336
36.4443
44.2426
53.8775
65.4
80.5375
98.2994
123.346
150.518
192.769
220.243
277.319
165.383
8.60893
8.90164
9.73761
11.0382
12.7249
14.8444
17.4863
20.7494
24.9079
30.0635
36.4402
44.2122
53.8247
65.3223
80.4037
98.0678
122.935
149.746
191.241
217.534
271.541
145.689
8.6086
8.90127
9.73712
11.0375
12.7238
14.8428
17.4837
20.7504
24.9518
30.0952
36.4343
44.182
53.77
65.2473
80.2694
97.8356
122.521
148.96
189.699
214.792
265.434
124.112
-18.5594
-24.7048
-28.554
-23.8892
-19.3402
-16.5026
-14.2245
-12.1313
-9.60647
-5.7829
-2.36976
-0.802647
-3.72925
-8.73062
-6.71619
5.35389
16.8504
21.3726
20.194
17.2139
14.1778
12.0131
9.84173
8.0582
6.39331
4.68683
2.51457
0.186992
-0.700885
1.88652
8.21487
5.14099
3.4172
1.82423
0.744242
-18.5686
-24.6994
-28.5791
-23.8887
-19.3365
-16.4993
-14.2239
-12.131
-9.60632
-5.78304
-2.37144
-0.805186
-3.7281
-8.72388
-6.70642
5.36504
16.863
21.384
20.2001
17.2172
14.1803
12.0152
9.84357
8.06004
6.3953
4.68814
2.51991
0.18557
-0.707197
1.84993
8.21256
5.1416
3.41736
1.82426
0.744244
-18.5837
-24.7031
-28.6229
-23.888
-19.3322
-16.4951
-14.2233
-12.131
-9.60675
-5.78301
-2.37246
-0.804939
-3.72486
-8.71622
-6.69258
5.38905
16.8967
21.4179
20.2222
17.2274
14.1857
12.0193
9.84713
8.06358
6.39897
4.69083
2.52621
0.181967
-0.715964
1.81477
8.21048
5.14227
3.41754
1.8243
0.744252
-18.6048
-24.7244
-28.6853
-23.8895
-19.3281
-16.4905
-14.2225
-12.131
-9.60743
-5.78304
-2.37343
-0.80375
-3.72175
-8.70959
-6.67887
5.41803
16.9428
21.4695
20.2603
17.2458
14.1943
12.0254
9.85244
8.06879
6.40444
4.69505
2.53227
0.178631
-0.716135
1.78527
8.2084
5.143
3.41774
1.82436
0.744265
-18.6318
-24.7679
-28.7632
-23.8938
-19.3233
-16.485
-14.2209
-12.1312
-9.60817
-5.7831
-2.37409
-0.801594
-3.71916
-8.70594
-6.67019
5.44172
16.9853
21.5212
20.3033
17.2687
14.2056
12.0333
9.85922
8.07543
6.41147
4.70084
2.53845
0.179066
-0.708297
1.76362
8.20646
5.14378
3.41795
1.82444
0.744284
-18.664
-24.8378
-28.8527
-23.8999
-19.3163
-16.4782
-14.2182
-12.1314
-9.60878
-5.783
-2.37422
-0.798558
-3.71699
-8.70503
-6.66636
5.45814
17.0178
21.5635
20.3429
17.293
14.219
12.0427
9.86717
8.0831
6.41967
4.70798
2.54506
0.185366
-0.69152
1.75001
8.2047
5.14463
3.41817
1.82452
0.744305
-18.7007
-24.9372
-28.9501
-23.9073
-19.307
-16.47
-14.2143
-12.1318
-9.60922
-5.78259
-2.37369
-0.794632
-3.71496
-8.70599
-6.66507
5.46957
17.0407
21.594
20.3753
17.3167
14.2338
12.0534
9.87599
8.09141
6.42857
4.71613
2.5522
0.198186
-0.664087
1.744
8.20313
5.14553
3.41839
1.82461
0.744328
-18.7413
-25.0677
-29.0518
-23.9164
-19.2961
-16.461
-14.2095
-12.1325
-9.60958
-5.78186
-2.37251
-0.790154
-3.71325
-8.70807
-6.66423
5.47849
17.0562
21.6137
20.3988
17.3377
14.2493
12.0649
9.8854
8.10001
6.43772
4.72483
2.55981
0.217224
-0.625223
1.74537
8.2017
5.14649
3.4186
1.8247
0.74435
-18.785
-25.2285
-29.1538
-23.9277
-19.2845
-16.4518
-14.2043
-12.1337
-9.61006
-5.78103
-2.37082
-0.785299
-3.71212
-8.71107
-6.6632
5.48576
17.0655
21.6239
20.4131
17.3542
14.264
12.0768
9.89507
8.1086
6.4467
4.73361
2.56771
0.241526
-0.575676
1.75388
8.20041
5.1475
3.4188
1.82479
0.744368
-18.8311
-25.4167
-29.2527
-23.9419
-19.2732
-16.4433
-14.1994
-12.1354
-9.61089
-5.78041
-2.36888
-0.780544
-3.71187
-8.71467
-6.66202
5.49111
17.0693
21.626
20.4188
17.3649
14.2763
12.088
9.90452
8.11682
6.45511
4.74195
2.57563
0.269558
-0.517715
1.76962
8.19923
5.14857
3.41899
1.82486
0.74438
-18.8788
-25.6272
-29.3453
-23.9588
-19.263
-16.4362
-14.1952
-12.1379
-9.61232
-5.78035
-2.36703
-0.776063
-3.71253
-8.71849
-6.66132
5.49367
17.068
21.6216
20.4172
17.3691
14.2847
12.0973
9.9131
8.12429
6.46257
4.74935
2.5833
0.299422
-0.454724
1.79262
8.19815
5.1497
3.41917
1.82492
0.744383
-18.9273
-25.8525
-29.4297
-23.9779
-19.2545
-16.4309
-14.1923
-12.1412
-9.61461
-5.78122
-2.36564
-0.772278
-3.71399
-8.72195
-6.66135
5.49299
17.062
21.6121
20.41
17.3676
14.2885
12.1039
9.92006
8.13054
6.4687
4.75537
2.59042
0.329213
-0.390815
1.82326
8.19716
5.15087
3.41931
1.82496
0.744377
-18.976
-26.0837
-29.5046
-23.9985
-19.2484
-16.4279
-14.1911
-12.1455
-9.618
-5.78327
-2.3651
-0.7693
-3.71593
-8.72463
-6.6622
5.48915
17.0521
21.5987
20.3988
17.3616
14.2882
12.1071
9.92479
8.13513
6.47322
4.75964
2.59676
0.357519
-0.330259
1.86175
8.19627
5.1521
3.41944
1.82498
0.744358
-19.024
-26.3106
-29.5697
-24.0192
-19.2452
-16.4274
-14.1922
-12.151
-9.62266
-5.78672
-2.36566
-0.76744
-3.71807
-8.72612
-6.66329
5.48295
17.0386
21.582
20.3847
17.3527
14.2846
12.1073
9.92708
8.13782
6.47596
4.76201
2.60223
0.383785
-0.276989
1.90839
8.1955
5.15337
3.41952
1.82496
0.744324
-19.0707
-26.5227
-29.625
-24.0383
-19.245
-16.4299
-14.1956
-12.1579
-9.62876
-5.7917
-2.3675
-0.76663
-3.72019
-8.7263
-6.66406
5.47523
17.0223
21.5622
20.3684
17.3418
14.279
12.1053
9.9272
8.13865
6.47697
4.76255
2.60684
0.408339
-0.23396
1.96279
8.1949
5.15468
3.41958
1.82492
0.744276
-19.1151
-26.7103
-29.6709
-24.0539
-19.2478
-16.4356
-14.2018
-12.1665
-9.63641
-5.79831
-2.37071
-0.766983
-3.72232
-8.72515
-6.66375
5.46695
17.0034
21.5393
20.3498
17.3296
14.2723
12.1019
9.92573
8.13792
6.47649
4.76152
2.61077
0.432061
-0.20257
2.02404
8.19452
5.15604
3.41959
1.82483
0.744211
-19.1566
-26.8653
-29.708
-24.0639
-19.2541
-16.4449
-14.2109
-12.1771
-9.64582
-5.80665
-2.3753
-0.768233
-3.72465
-8.72295
-6.66206
5.45856
16.9822
21.5131
20.3287
17.3162
14.265
12.0977
9.9233
8.13608
6.47487
4.75928
2.61423
0.4559
-0.182306
2.09007
8.19442
5.15742
3.41957
1.82471
0.744129
-19.194
-26.9833
-29.7376
-24.0667
-19.2643
-16.4581
-14.2233
-12.19
-9.65722
-5.81689
-2.38129
-0.770449
-3.72757
-8.71994
-6.65855
5.45047
16.9586
21.4835
20.305
17.3013
14.2572
12.0932
9.92036
8.13356
6.47245
4.75616
2.61748
0.48049
-0.171182
2.15841
8.19464
5.15882
3.4195
1.82455
0.744028
-19.2264
-27.0639
-29.7619
-24.0623
-19.2787
-16.4756
-14.2394
-12.2057
-9.67103
-5.82922
-2.38872
-0.77334
-3.73134
-8.71651
-6.65316
5.44267
16.9325
21.4504
20.2784
17.2848
14.2488
12.0885
9.91722
8.13068
6.4695
4.75244
2.62067
0.506067
-0.166661
2.22626
8.1952
5.16024
3.41939
1.82435
0.743909
-19.2529
-27.1106
-29.7831
-24.0524
-19.2967
-16.4977
-14.26
-12.2252
-9.68779
-5.84408
-2.39778
-0.777107
-3.73628
-8.71273
-6.64552
5.43527
16.9036
21.4134
20.2488
17.2666
14.2398
12.0835
9.91398
8.12762
6.46621
4.74833
2.62394
0.532571
-0.166572
2.29166
8.19608
5.16167
3.41922
1.82411
0.743772
-19.2738
-27.1282
-29.8024
-24.0391
-19.318
-16.525
-14.2858
-12.2492
-9.70837
-5.86196
-2.40879
-0.781561
-3.74246
-8.70873
-6.6356
5.42812
16.8718
21.3726
20.2163
17.2466
14.23
12.0783
9.91068
8.12447
6.46271
4.74397
2.62736
0.559855
-0.169381
2.35322
8.19728
5.16309
3.41901
1.82382
0.743616
-19.2901
-27.1233
-29.8177
-24.0245
-19.3418
-16.5581
-14.3179
-12.2792
-9.73376
-5.88362
-2.42231
-0.787196
-3.75024
-8.70449
-6.62313
5.42126
16.8367
21.3276
20.1808
17.2249
14.2194
12.0726
9.9073
8.12123
6.45905
4.73946
2.63099
0.587748
-0.17416
2.41086
8.19872
5.16451
3.41874
1.82349
0.743441
-19.302
-27.1017
-29.8245
-24.0096
-19.3677
-16.5976
-14.3575
-12.3164
-9.76523
-5.90978
-2.43875
-0.793898
-3.75992
-8.70046
-6.60849
5.4143
16.7982
21.2784
20.1423
17.2015
14.208
12.0666
9.9038
8.11789
6.45527
4.73484
2.63489
0.616115
-0.18024
2.46483
8.20039
5.1659
3.41842
1.82312
0.743249
-19.3086
-27.067
-29.8168
-23.9949
-19.3954
-16.6446
-14.4059
-12.3625
-9.80404
-5.94129
-2.4585
-0.802214
-3.77228
-8.69742
-6.59209
5.40696
16.756
21.2249
20.1007
17.1766
14.1959
12.0603
9.90017
8.11438
6.45136
4.73016
2.6391
0.644787
-0.187136
2.51622
8.20225
5.16727
3.41804
1.8227
0.743038
-19.3093
-27.0223
-29.7847
-23.98
-19.4249
-16.7002
-14.4649
-12.4192
-9.85154
-5.97861
-2.48128
-0.811458
-3.78783
-8.69703
-6.57544
5.3983
16.7096
21.167
20.0563
17.15
14.183
12.0536
9.89637
8.11069
6.44734
4.72544
2.64366
0.673592
-0.194327
2.56584
8.20431
5.16859
3.4176
1.82225
0.742811
-19.3035
-26.971
-29.7151
-23.9634
-19.456
-16.7658
-14.536
-12.4879
-9.9087
-6.02206
-2.50645
-0.821445
-3.80711
-8.70089
-6.56012
5.38745
16.6587
21.1048
20.0091
17.122
14.1695
12.0466
9.89238
8.10674
6.44321
4.72073
2.6486
0.702298
-0.201435
2.61492
8.20655
5.16989
3.41709
1.82174
0.742566
-19.2907
-26.9173
-29.5967
-23.9428
-19.4893
-16.8427
-14.6208
-12.5695
-9.97605
-6.07104
-2.53235
-0.830223
-3.82964
-8.71053
-6.54848
5.37288
16.603
21.0384
19.9591
17.0926
14.1554
12.0393
9.88816
8.10251
6.43897
4.71604
2.65393
0.730676
-0.208028
2.66409
8.20901
5.17113
3.41653
1.8212
0.742306
-19.2708
-26.8665
-29.4251
-23.9145
-19.5251
-16.9317
-14.7194
-12.6636
-10.0528
-6.12433
-2.55711
-0.836803
-3.85471
-8.72582
-6.54168
5.35359
16.542
20.9678
19.9067
17.0618
14.1407
12.0317
9.88365
8.09795
6.43461
4.71143
2.65966
0.75843
-0.213897
2.71434
8.21171
5.17233
3.41589
1.82061
0.74203
-19.2448
-26.8244
-29.2061
-23.8748
-19.5642
-17.0322
-14.8303
-12.7683
-10.1368
-6.17927
-2.57783
-0.838533
-3.88065
-8.74557
-6.54039
5.32862
16.4757
20.8934
19.8519
17.0298
14.1255
12.0239
9.8788
8.09302
6.43015
4.70696
2.66579
0.785288
-0.218739
2.76598
8.21471
5.17348
3.41519
1.81999
0.741741
-19.2148
-26.797
-28.9524
-23.8202
-19.6076
-17.1424
-14.9494
-12.8789
-10.2239
-6.23248
-2.59196
-0.834683
-3.90604
-8.76665
-6.54293
5.29852
16.4044
20.8157
19.7952
16.9966
14.1099
12.0158
9.87351
8.08766
6.42557
4.7027
2.67232
0.810879
-0.222523
2.81977
8.21803
5.17457
3.41441
1.81932
0.741437
-19.184
-26.7911
-28.6787
-23.7494
-19.6569
-17.2584
-15.0702
-12.989
-10.3086
-6.27931
-2.59633
-0.823281
-3.92884
-8.78587
-6.54734
5.26423
16.3287
20.7351
19.7368
16.9624
14.0938
12.0074
9.86771
8.08184
6.4209
4.69872
2.67923
0.83487
-0.225052
2.87578
8.22173
5.1756
3.41357
1.81862
0.741122
-19.1555
-26.8144
-28.3982
-23.6639
-19.7137
-17.3746
-15.1843
-13.0903
-10.384
-6.31512
-2.58897
-0.80501
-3.94762
-8.79934
-6.5501
5.22814
16.25
20.6525
19.677
16.9273
14.0773
11.9985
9.86128
8.07549
6.41614
4.69511
2.68656
0.85679
-0.226444
2.93461
8.22584
5.17659
3.41264
1.81787
0.740794
-19.1325
-26.8766
-28.1224
-23.5713
-19.7795
-17.484
-15.2824
-13.1744
-10.4436
-6.33526
-2.5683
-0.779747
-3.96079
-8.80469
-6.54897
5.19206
16.1696
20.5685
19.6165
16.8913
14.0602
11.9891
9.85412
8.06857
6.41132
4.69196
2.69428
0.876215
-0.226554
2.99615
8.23043
5.17751
3.41165
1.81709
0.740456
-19.1172
-26.9903
-27.8623
-23.4845
-19.8554
-17.5791
-15.3559
-13.2338
-10.4813
-6.3369
-2.53528
-0.750343
-3.96802
-8.80005
-6.54109
5.15836
16.0889
20.484
19.5555
16.8546
14.0425
11.9789
9.84608
8.06103
6.40645
4.68937
2.70248
0.892534
-0.225588
3.06093
8.23552
5.17838
3.41057
1.81627
0.740107
-19.111
-27.1714
-27.6282
-23.4206
-19.9414
-17.6541
-15.3991
-13.2641
-10.4941
-6.31933
-2.4927
-0.71944
-3.97003
-8.78602
-6.52582
5.12772
16.0087
20.3995
19.4945
16.8175
14.0241
11.9679
9.83705
8.05284
6.40157
4.68743
2.71116
0.905223
-0.223409
3.12868
8.24117
5.17918
3.40942
1.81542
0.739748
-19.1131
-27.4386
-27.4278
-23.3957
-20.0361
-17.7052
-15.4102
-13.2642
-10.4815
-6.28554
-2.44667
-0.69231
-3.96956
-8.76357
-6.50212
5.10116
15.9296
20.3154
19.4337
16.7803
14.0048
11.9558
9.82689
8.04394
6.39672
4.68626
2.72046
0.913523
-0.220289
3.19991
8.24738
5.17994
3.40817
1.81452
0.739379
-19.1206
-27.8117
-27.2641
-23.4207
-20.1369
-17.7324
-15.3919
-13.2375
-10.4471
-6.24152
-2.40465
-0.673714
-3.97015
-8.73516
-6.47121
5.07795
15.8516
20.2317
19.3732
16.7431
13.9848
11.9424
9.81549
8.03437
6.39197
4.68599
2.73041
0.9168
-0.216076
3.27429
8.25424
5.18062
3.40684
1.81359
0.739001
-19.129
-28.3055
-27.1346
-23.4979
-20.2404
-17.7384
-15.3502
-13.1898
-10.397
-6.19596
-2.37457
-0.668738
-3.97518
-8.70213
-6.43324
5.05824
15.7747
20.1481
19.3129
16.7063
13.9639
11.9276
9.80277
8.0241
6.38735
4.68678
2.74118
0.914112
-0.211095
3.35237
8.26174
5.18125
3.40541
1.81261
0.738611
-19.1334
-28.9173
-27.0331
-23.623
-20.3431
-17.7281
-15.293
-13.1285
-10.3395
-6.15769
-2.36124
-0.67941
-3.98623
-8.66603
-6.38987
5.04077
15.6983
20.0644
19.2526
16.6698
13.9425
11.9113
9.78874
8.01323
6.38296
4.68876
2.75276
0.904683
-0.205073
3.43389
8.26996
5.1818
3.40387
1.81158
0.738209
-19.1291
-29.6078
-26.951
-23.7866
-20.4415
-17.7063
-15.2277
-13.0605
-10.2841
-6.13321
-2.36557
-0.705553
-4.00287
-8.62638
-6.34093
5.02515
15.6214
19.9797
19.1916
16.6337
13.9208
11.8938
9.77349
8.00177
6.3788
4.69207
2.76522
0.887483
-0.198012
3.51944
8.2789
5.18227
3.40222
1.81049
0.737794
-19.1087
-30.282
-26.8791
-23.9767
-20.5322
-17.6772
-15.1596
-12.9927
-10.2401
-6.12397
-2.38456
-0.743742
-4.0224
-8.58252
-6.28824
5.00877
15.5425
19.8935
19.1302
16.5981
13.8994
11.8752
9.75712
7.98973
6.37483
4.69673
2.77844
0.862246
-0.189409
3.6081
8.28851
5.18263
3.40046
1.80935
0.737364
-19.0555
-30.7808
-26.8063
-24.1791
-20.6107
-17.6431
-15.0922
-12.9336
-10.2126
-6.12671
-2.41367
-0.789006
-4.04054
-8.53332
-6.23413
4.98886
15.4602
19.8058
19.0687
16.5637
13.8789
11.856
9.73949
7.97682
6.3708
4.7029
2.79336
0.829323
-0.181073
3.69807
8.29851
5.18295
3.39858
1.80813
0.736914
-18.9724
-30.9025
-26.7199
-24.379
-20.6722
-17.6041
-15.0295
-12.892
-10.1991
-6.13627
-2.44687
-0.833664
-4.05276
-8.48225
-6.18693
4.96056
15.3749
19.719
19.0095
16.5318
13.8597
11.8358
9.71985
7.96257
6.36663
4.71123
2.81163
0.789062
-0.175835
3.78682
8.30912
5.18319
3.39661
1.80685
0.736441
-19.0263
-30.4833
-26.6123
-24.57
-20.7185
-17.5618
-14.9793
-12.8691
-10.1933
-6.14884
-2.47986
-0.873872
-4.06065
-8.43665
-6.15265
4.92551
15.2922
19.638
18.9553
16.5028
13.8399
11.8114
9.69587
7.94629
6.36328
4.72401
2.83184
0.728262
-0.168014
3.89416
8.32404
5.1831
3.39425
1.80545
0.735956
8.60834
8.90097
9.73672
11.0369
12.7229
14.8414
17.4816
20.7627
24.9934
30.1193
36.4281
44.1594
53.7298
65.1898
80.167
97.6534
122.197
148.334
188.497
212.621
260.389
102.426
8.60815
8.90075
9.73643
11.0364
12.7222
14.8404
17.4801
20.7825
25.0235
30.1335
36.4219
44.1432
53.6996
65.1514
80.0942
97.5221
121.962
147.875
187.627
211.043
256.535
99.504
8.60794
8.90052
9.73613
11.036
12.7216
14.8393
17.4784
20.8072
25.0491
30.1433
36.4139
44.1265
53.6716
65.1107
80.0208
97.3857
121.718
147.397
186.734
209.404
252.522
101.19
8.60773
8.90027
9.73581
11.0355
12.7208
14.8382
17.4767
20.8322
25.0698
30.1494
36.405
44.1094
53.6414
65.0708
79.9452
97.2458
121.465
146.9
185.816
207.698
248.397
101.084
8.6075
8.90001
9.73547
11.035
12.7201
14.8371
17.4749
20.854
25.0861
30.1526
36.3959
44.0922
53.6134
65.0282
79.8682
97.0995
121.199
146.381
184.869
205.924
244.148
99.2947
8.60726
8.89974
9.73511
11.0345
12.7193
14.8358
17.473
20.8689
25.0983
30.1534
36.3871
44.075
53.5836
64.9864
79.7886
96.9485
120.921
145.841
183.888
204.084
239.771
97.2503
8.60701
8.89946
9.73473
11.0339
12.7184
14.8345
17.471
20.8741
25.1067
30.1524
36.3789
44.058
53.5562
64.9421
79.7072
96.7901
120.628
145.277
182.865
202.179
235.271
95.3468
8.60675
8.89916
9.73434
11.0333
12.7175
14.8331
17.4689
20.8702
25.1114
30.1497
36.3714
44.0414
53.5272
64.8984
79.6228
96.626
120.318
144.69
181.796
200.21
230.652
93.4214
8.60647
8.89884
9.73391
11.0327
12.7166
14.8317
17.4666
20.8593
25.1127
30.1459
36.3647
44.0252
53.5005
64.8522
79.5362
96.454
119.991
144.076
180.674
198.177
225.92
91.3759
8.60617
8.8985
9.73347
11.032
12.7156
14.8301
17.4643
20.8437
25.1105
30.1409
36.3588
44.0094
53.4723
64.8066
79.4463
96.2755
119.645
143.435
179.493
196.079
221.079
89.2347
8.60586
8.89815
9.733
11.0313
12.7145
14.8285
17.4618
20.8246
25.1047
30.1348
36.3535
43.9942
53.4461
64.7584
79.3537
96.0886
119.279
142.765
178.249
193.916
216.132
87.0326
8.60553
8.89777
9.73251
11.0306
12.7134
14.8267
17.4591
20.8034
25.0949
30.1275
36.3486
43.9794
53.4183
64.7104
79.2574
95.8947
118.894
142.064
176.936
191.687
211.086
84.7807
8.60518
8.89737
9.73198
11.0298
12.7122
14.8249
17.4563
20.781
25.0808
30.1188
36.344
43.9651
53.3924
64.6595
79.1577
95.6917
118.487
141.331
175.55
189.391
205.944
82.483
8.60481
8.89695
9.73143
11.029
12.711
14.8229
17.4533
20.7587
25.0616
30.1081
36.3391
43.951
53.3645
64.6085
79.0537
95.4812
118.061
140.565
174.087
187.026
200.713
80.1483
8.60442
8.89651
9.73084
11.0281
12.7097
14.8208
17.4502
20.7377
25.037
30.095
36.3336
43.9373
53.3381
64.5542
78.9456
95.2608
117.612
139.763
172.546
184.59
195.397
77.7887
8.60401
8.89604
9.73022
11.0272
12.7083
14.8187
17.4468
20.7187
25.0066
30.0787
36.3267
43.9236
53.3097
64.4991
78.8325
95.0319
117.142
138.925
170.923
182.083
190.001
75.4174
8.60357
8.89554
9.72956
11.0262
12.7068
14.8163
17.4433
20.7023
24.9702
30.0582
36.3177
43.9098
53.2824
64.4403
78.7144
94.792
116.649
138.048
169.218
179.503
184.529
73.0486
8.60311
8.89501
9.72886
11.0252
12.7052
14.8139
17.4395
20.6887
24.9287
30.0325
36.3054
43.8955
53.2529
64.3799
78.5903
94.5421
116.133
137.132
167.429
176.847
178.985
70.6959
8.60262
8.89446
9.72812
11.0241
12.7036
14.8112
17.4356
20.6774
24.8832
30.0007
36.2885
43.8801
53.2243
64.3153
78.46
94.2799
115.593
136.175
165.554
174.116
173.373
68.3723
8.6021
8.89386
9.72734
11.0229
12.7018
14.8085
17.4313
20.668
24.8357
29.9616
36.2651
43.8628
53.193
64.2484
78.3226
94.0062
115.026
135.175
163.594
171.306
167.697
66.088
8.60155
8.89324
9.72651
11.0217
12.6999
14.8055
17.4268
20.6598
24.7886
29.9151
36.2332
43.8422
53.1621
64.1766
78.1778
93.7183
114.433
134.13
161.549
168.417
161.963
63.8501
8.60097
8.89257
9.72562
11.0204
12.6979
14.8024
17.422
20.6519
24.7443
29.8614
36.1903
43.8162
53.1277
64.102
78.0245
93.4171
113.81
133.04
159.416
165.448
156.174
61.6614
8.60035
8.89187
9.72469
11.019
12.6959
14.7991
17.4169
20.6441
24.7047
29.8019
36.1342
43.782
53.0921
64.0218
77.8624
93.0999
113.157
131.902
157.196
162.396
150.338
59.5199
8.59969
8.89112
9.72369
11.0175
12.6936
14.7956
17.4115
20.6361
24.6708
29.739
36.0635
43.7355
53.05
63.9378
77.6904
92.7672
112.473
130.714
154.889
159.261
144.46
57.4185
8.59899
8.89032
9.72264
11.0159
12.6913
14.7919
17.4057
20.6275
24.6422
29.6756
35.9782
43.6719
53.0016
63.8471
77.5081
92.4165
111.754
129.474
152.493
156.04
138.551
55.3451
8.59825
8.88948
9.72152
11.0143
12.6888
14.7879
17.3996
20.6185
24.618
29.6147
35.8804
43.5856
52.9388
63.7505
77.3143
92.0484
111.001
128.18
150.008
152.732
132.618
53.2834
8.59746
8.88858
9.72032
11.0125
12.6861
14.7837
17.3931
20.6088
24.5968
29.5583
35.7746
43.4724
52.857
63.6433
77.1084
91.6602
110.211
126.831
147.434
149.335
126.673
51.2132
8.59662
8.88762
9.71905
11.0106
12.6832
14.7793
17.3862
20.5984
24.5771
29.5073
35.6662
43.3313
52.7432
63.523
76.8882
91.2524
109.383
125.424
144.771
145.848
120.728
49.1121
8.59573
8.88661
9.7177
11.0087
12.6802
14.7745
17.3788
20.5873
24.5578
29.4617
35.5607
43.1659
52.5888
63.3794
76.6512
90.8221
108.516
123.958
142.018
142.269
114.795
46.9565
8.59478
8.88553
9.71627
11.0065
12.677
14.7695
17.371
20.5755
24.5383
29.4202
35.4622
42.9851
52.3832
63.2022
76.3918
90.369
107.609
122.43
139.176
138.596
108.889
44.7232
8.59377
8.88438
9.71474
11.0043
12.6736
14.7642
17.3627
20.5629
24.518
29.3813
35.3724
42.8
52.1276
62.9736
76.101
89.8883
106.661
120.84
136.245
134.83
103.024
42.3903
8.5927
8.88315
9.71311
11.0019
12.67
14.7585
17.3539
20.5494
24.4966
29.3434
35.2911
42.6211
51.8305
62.6794
75.7635
89.3759
105.671
119.186
133.227
130.969
97.2138
39.9391
8.59155
8.88185
9.71137
10.9993
12.6661
14.7524
17.3445
20.5351
24.4739
29.3052
35.2162
42.4553
51.5121
62.31
75.3593
88.8211
104.635
117.465
130.123
127.014
91.4733
37.3544
8.59033
8.88046
9.70952
10.9966
12.662
14.746
17.3345
20.5199
24.4498
29.2656
35.1448
42.3042
51.1934
61.8726
74.8664
88.2102
103.549
115.678
126.934
122.967
85.817
34.6261
8.58903
8.87899
9.70755
10.9937
12.6576
14.7392
17.3239
20.5037
24.424
29.2242
35.0742
42.1657
50.8922
61.3884
74.271
87.5219
102.405
113.822
123.662
118.829
80.2588
31.7495
8.58764
8.87741
9.70545
10.9906
12.653
14.7319
17.3126
20.4864
24.3966
29.1804
35.0021
42.0352
50.616
60.8896
73.5765
86.7357
101.192
111.896
120.311
114.605
74.812
28.7258
8.58616
8.87573
9.70321
10.9873
12.648
14.7241
17.3005
20.468
24.3674
29.1338
34.9269
41.9073
50.3634
60.4045
72.8087
85.8354
99.8921
109.898
116.884
110.3
69.4895
25.5625
8.58458
8.87394
9.70081
10.9838
12.6427
14.7159
17.2877
20.4483
24.3363
29.0844
34.8477
41.7775
50.1268
59.9499
72.0088
84.8225
98.4913
107.825
113.391
105.922
64.3034
22.2728
8.5829
8.87202
9.69826
10.98
12.637
14.7071
17.2741
20.4274
24.3032
29.0318
34.764
41.6428
49.8963
59.5268
71.2177
83.7185
96.9786
105.678
109.841
101.48
59.2663
18.8757
8.5811
8.86998
9.69553
10.976
12.631
14.6977
17.2595
20.4051
24.268
28.9759
34.6751
41.501
49.6634
59.1251
70.4607
82.5624
95.3565
103.458
106.252
96.9895
54.3909
15.3951
8.57917
8.8678
9.69262
10.9717
12.6245
14.6877
17.244
20.3813
24.2305
28.9165
34.5806
41.3513
49.4217
58.7298
69.7412
81.3941
93.6427
101.17
102.648
92.4694
49.6916
11.8593
8.57712
8.86547
9.68951
10.9672
12.6176
14.677
17.2275
20.356
24.1905
28.8532
34.4803
41.1926
49.1677
58.3273
69.0451
80.2403
91.8668
98.8254
99.0599
87.9468
45.1848
8.30036
8.57493
8.86298
9.68618
10.9623
12.6103
14.6656
17.2099
20.3289
24.1479
28.7858
34.3737
41.0244
48.8996
57.9078
68.3507
79.1058
90.0586
96.4354
95.5201
83.4559
40.8896
4.75397
8.57258
8.86032
9.68263
10.9571
12.6024
14.6535
17.1911
20.3001
24.1025
28.7141
34.2603
40.846
48.6162
57.4663
67.6379
77.9776
88.2382
94.0071
92.0579
79.0376
36.8272
1.25877
8.57007
8.85748
9.67882
10.9515
12.594
14.6405
17.1711
20.2693
24.0541
28.6378
34.1399
40.6566
48.3165
57.0004
66.8933
76.8331
86.4106
91.5379
88.6861
74.7353
33.0201
-2.14416
8.56739
8.85444
9.67476
10.9455
12.585
14.6267
17.1497
20.2364
24.0025
28.5566
34.0119
40.4557
47.9995
56.5089
66.1104
75.6506
84.5668
89.0188
85.3904
70.5857
29.4886
-5.41245
8.56452
8.85119
9.67041
10.9392
12.5755
14.6119
17.1269
20.2014
23.9476
28.4701
33.8758
40.2426
47.6641
55.9904
65.2875
74.4156
82.6876
86.4416
82.1287
66.6066
26.2466
-8.50429
8.56145
8.84771
9.66575
10.9323
12.5652
14.5961
17.1025
20.1639
23.889
28.3781
33.7312
40.0165
47.3093
55.4436
64.4244
73.1223
80.7527
83.8036
78.8463
62.7849
23.2946
-11.3813
8.55816
8.84399
9.66077
10.925
12.5543
14.5793
17.0765
20.124
23.8265
28.2801
33.5775
39.7768
46.9343
54.867
63.5208
71.7709
78.7484
81.102
75.5026
59.0744
20.6125