/*--------------------------------*- C++ -*----------------------------------*\
| =========                 |                                                 |
| \\      /  F ield         | OpenFOAM: The Open Source CFD Toolbox           |
|  \\    /   O peration     | Version:  v1912                                 |
|   \\  /    A nd           | Website:  www.openfoam.com                      |
|    \\/     M anipulation  |                                                 |
\*---------------------------------------------------------------------------*/
FoamFile
{
    version     2.0;
    format      ascii;
    class       surfaceScalarField;
    location    "290";
    object      phi;
}
// * * * * * * * * * * * * * * * * * * * * * * * * * * * * * * * * * * * * * //

dimensions      [0 3 -1 0 0 0 0];
oriented        oriented;


internalField   nonuniform List<scalar> 
24588
(
6.81686e-05
1.94115e-08
6.8116e-05
5.33336e-08
6.80332e-05
8.22433e-08
6.79204e-05
1.12747e-07
6.77731e-05
1.46647e-07
6.75874e-05
1.85842e-07
6.73562e-05
2.30962e-07
6.70645e-05
2.91877e-07
6.67041e-05
3.61016e-07
6.62485e-05
4.5359e-07
6.56954e-05
5.55334e-07
6.50192e-05
7.01779e-07
6.40657e-05
8.9519e-07
6.29721e-05
1.16379e-06
6.14276e-05
1.44607e-06
5.91848e-05
2.32255e-06
5.63034e-05
2.87386e-06
5.15779e-05
4.7272e-06
4.4947e-05
6.63037e-06
3.37909e-05
1.11553e-05
2.00992e-05
1.36919e-05
2.00991e-05
6.81689e-05
3.93297e-08
6.81159e-05
1.07363e-07
6.80331e-05
1.64249e-07
6.79205e-05
2.2521e-07
6.77733e-05
2.93016e-07
6.75877e-05
3.71651e-07
6.73565e-05
4.61887e-07
6.70647e-05
5.83741e-07
6.67048e-05
7.21798e-07
6.62475e-05
9.08587e-07
6.56995e-05
1.10615e-06
6.50263e-05
1.40407e-06
6.40499e-05
1.80873e-06
6.29938e-05
2.2921e-06
6.14108e-05
2.92659e-06
5.92636e-05
4.54588e-06
5.63223e-05
5.80158e-06
5.15483e-05
9.50294e-06
4.49918e-05
1.31858e-05
3.36932e-05
2.24525e-05
2.00582e-05
2.73271e-05
4.01572e-05
6.81689e-05
5.92466e-08
6.81159e-05
1.61378e-07
6.80331e-05
2.46294e-07
6.79205e-05
3.37725e-07
6.77732e-05
4.39429e-07
6.75876e-05
5.57437e-07
6.73564e-05
6.92815e-07
6.70647e-05
8.7561e-07
6.67048e-05
1.08242e-06
6.62472e-05
1.36379e-06
6.56992e-05
1.65682e-06
6.50275e-05
2.10559e-06
6.4045e-05
2.72304e-06
6.29842e-05
3.43364e-06
6.14045e-05
4.39477e-06
5.92938e-05
6.7478e-06
5.63194e-05
8.75965e-06
5.15681e-05
1.42582e-05
4.49663e-05
1.97862e-05
3.3713e-05
3.37041e-05
2.00782e-05
4.09621e-05
6.02352e-05
6.81689e-05
7.91641e-08
6.81159e-05
2.15359e-07
6.80331e-05
3.2829e-07
6.79205e-05
4.50182e-07
6.77733e-05
5.85766e-07
6.75877e-05
7.43235e-07
6.73565e-05
9.23751e-07
6.70647e-05
1.16749e-06
6.67048e-05
1.44326e-06
6.62474e-05
1.81889e-06
6.56987e-05
2.20846e-06
6.50253e-05
2.80806e-06
6.40515e-05
3.63499e-06
6.29909e-05
4.56436e-06
6.14074e-05
5.88058e-06
5.93165e-05
8.91108e-06
5.63437e-05
1.17173e-05
5.15834e-05
1.90207e-05
4.49544e-05
2.64133e-05
3.37407e-05
4.49161e-05
2.01118e-05
5.45911e-05
8.03469e-05
6.81689e-05
9.90722e-08
6.81159e-05
2.69307e-07
6.80331e-05
4.10325e-07
6.79205e-05
5.62708e-07
6.77733e-05
7.32162e-07
6.75876e-05
9.28998e-07
6.73565e-05
1.15469e-06
6.70647e-05
1.45936e-06
6.67048e-05
1.80391e-06
6.62473e-05
2.27404e-06
6.5699e-05
2.75933e-06
6.50278e-05
3.50856e-06
6.40471e-05
4.54626e-06
6.29829e-05
5.70853e-06
6.14039e-05
7.34731e-06
5.93216e-05
1.10847e-05
5.63678e-05
1.46548e-05
5.15841e-05
2.3809e-05
4.49715e-05
3.30244e-05
3.37854e-05
5.61006e-05
2.01599e-05
6.82168e-05
0.000100507
6.81689e-05
1.18986e-07
6.81159e-05
3.23235e-07
6.80332e-05
4.92294e-07
6.79206e-05
6.75149e-07
6.77734e-05
8.78448e-07
6.75878e-05
1.11478e-06
6.73566e-05
1.38562e-06
6.70648e-05
1.75124e-06
6.67048e-05
2.16481e-06
6.62476e-05
2.72906e-06
6.56983e-05
3.31164e-06
6.5024e-05
4.21158e-06
6.40535e-05
5.4573e-06
6.29899e-05
6.83906e-06
6.14066e-05
8.83915e-06
5.93239e-05
1.3236e-05
5.63844e-05
1.75791e-05
5.15942e-05
2.86011e-05
4.50021e-05
3.96144e-05
3.38498e-05
6.72512e-05
2.02247e-05
8.1842e-05
0.000120731
6.81689e-05
1.38889e-07
6.81159e-05
3.77122e-07
6.80332e-05
5.74312e-07
6.79205e-05
7.8768e-07
6.77733e-05
1.0248e-06
6.75877e-05
1.3005e-06
6.73565e-05
1.61655e-06
6.70648e-05
2.04309e-06
6.67049e-05
2.52548e-06
6.62475e-05
3.18404e-06
6.56994e-05
3.8624e-06
6.50279e-05
4.91133e-06
6.40481e-05
6.36755e-06
6.29815e-05
7.98492e-06
6.14047e-05
1.03047e-05
5.9314e-05
1.54154e-05
5.63982e-05
2.04814e-05
5.16125e-05
3.33918e-05
4.50477e-05
4.61782e-05
3.39403e-05
7.83573e-05
2.03087e-05
9.54739e-05
0.00014104
6.81689e-05
1.58801e-07
6.81159e-05
4.31001e-07
6.80332e-05
6.56258e-07
6.79206e-05
9.001e-07
6.77735e-05
1.17103e-06
6.75879e-05
1.48626e-06
6.73567e-05
1.84748e-06
6.70649e-05
2.33494e-06
6.67049e-05
2.88642e-06
6.62479e-05
3.63891e-06
6.56979e-05
4.41541e-06
6.50221e-05
5.61557e-06
6.4055e-05
7.27884e-06
6.29894e-05
9.11325e-06
6.14028e-05
1.18069e-05
5.93007e-05
1.75778e-05
5.64146e-05
2.33554e-05
5.16553e-05
3.81519e-05
4.51229e-05
5.27085e-05
3.40671e-05
8.94117e-05
2.04156e-05
0.000109125
0.000161455
6.81689e-05
1.78699e-07
6.81159e-05
4.84834e-07
6.80332e-05
7.3826e-07
6.79206e-05
1.01263e-06
6.77734e-05
1.31734e-06
6.75878e-05
1.67195e-06
6.73566e-05
2.07839e-06
6.70649e-05
2.62676e-06
6.6705e-05
3.24709e-06
6.62479e-05
4.09366e-06
6.57001e-05
4.96577e-06
6.50297e-05
6.31299e-06
6.40487e-05
8.18838e-06
6.29681e-05
1.02695e-05
6.13856e-05
1.32949e-05
5.92921e-05
1.97338e-05
5.64143e-05
2.62275e-05
5.1744e-05
4.28264e-05
4.5243e-05
5.92094e-05
3.42399e-05
0.000100414
2.05494e-05
0.000122816
0.000182005
6.81688e-05
1.98607e-07
6.81159e-05
5.38668e-07
6.80332e-05
8.20191e-07
6.79207e-05
1.12502e-06
6.77735e-05
1.4635e-06
6.7588e-05
1.85767e-06
6.73568e-05
2.3093e-06
6.70651e-05
2.91857e-06
6.6705e-05
3.60805e-06
6.62484e-05
4.54823e-06
6.56976e-05
5.51963e-06
6.50188e-05
7.01957e-06
6.40489e-05
9.10837e-06
6.29546e-05
1.14186e-05
6.13752e-05
1.48221e-05
5.93081e-05
2.18304e-05
5.64132e-05
2.91157e-05
5.18797e-05
4.73592e-05
4.5411e-05
6.56767e-05
3.44619e-05
0.000111362
2.07131e-05
0.000136565
0.000202718
6.81689e-05
2.18498e-07
6.8116e-05
5.92449e-07
6.80332e-05
9.02191e-07
6.79206e-05
1.23755e-06
6.77735e-05
1.60977e-06
6.75879e-05
2.04332e-06
6.73567e-05
2.5402e-06
6.70651e-05
3.21032e-06
6.67051e-05
3.96878e-06
6.62486e-05
5.00244e-06
6.57004e-05
6.07032e-06
6.50297e-05
7.71544e-06
6.40543e-05
1.0014e-05
6.29323e-05
1.25987e-05
6.13706e-05
1.63349e-05
5.93282e-05
2.39007e-05
5.6426e-05
3.2017e-05
5.20381e-05
5.17504e-05
4.56082e-05
7.21069e-05
3.4726e-05
0.000122244
2.09079e-05
0.000150383
0.000223625
6.81688e-05
2.384e-07
6.8116e-05
6.46239e-07
6.80332e-05
9.84117e-07
6.79207e-05
1.34993e-06
6.77736e-05
1.75588e-06
6.75881e-05
2.22901e-06
6.73569e-05
2.7711e-06
6.70653e-05
3.50204e-06
6.67051e-05
4.32985e-06
6.62492e-05
5.45631e-06
6.56974e-05
6.62515e-06
6.50114e-05
8.42692e-06
6.40509e-05
1.09342e-05
6.29287e-05
1.37536e-05
6.13721e-05
1.78762e-05
5.93478e-05
2.59313e-05
5.64514e-05
3.491e-05
5.21867e-05
5.60137e-05
4.58094e-05
7.84832e-05
3.50183e-05
0.000133034
2.11325e-05
0.000164269
0.000244758
6.81689e-05
2.58282e-07
6.8116e-05
6.99971e-07
6.80332e-05
1.06612e-06
6.79206e-05
1.46245e-06
6.77735e-05
1.90211e-06
6.7588e-05
2.41462e-06
6.73568e-05
3.00199e-06
6.70653e-05
3.79364e-06
6.67052e-05
4.69076e-06
6.62499e-05
5.90919e-06
6.56975e-05
7.17988e-06
6.50071e-05
9.13913e-06
6.4054e-05
1.18302e-05
6.29241e-05
1.49078e-05
6.13744e-05
1.94056e-05
5.93628e-05
2.79539e-05
5.64789e-05
3.77949e-05
5.23068e-05
6.0188e-05
4.59976e-05
8.47931e-05
3.53243e-05
0.000143708
2.13839e-05
0.00017821
0.000266142
6.81688e-05
2.78177e-07
6.8116e-05
7.53717e-07
6.80333e-05
1.14806e-06
6.79207e-05
1.5748e-06
6.77737e-05
2.04817e-06
6.75882e-05
2.60028e-06
6.7357e-05
3.23289e-06
6.70655e-05
4.08522e-06
6.67051e-05
5.05204e-06
6.62509e-05
6.36153e-06
6.56922e-05
7.74138e-06
6.49781e-05
9.87324e-06
6.40507e-05
1.2739e-05
6.29208e-05
1.60473e-05
6.13756e-05
2.09508e-05
5.9373e-05
2.99557e-05
5.65026e-05
4.06632e-05
5.23984e-05
6.42907e-05
4.61665e-05
9.10244e-05
3.56332e-05
0.00015424
2.1658e-05
0.000192185
0.0002878
6.81689e-05
2.98047e-07
6.8116e-05
8.07398e-07
6.80332e-05
1.23008e-06
6.79206e-05
1.68733e-06
6.77736e-05
2.19437e-06
6.75881e-05
2.78584e-06
6.73569e-05
3.46378e-06
6.70656e-05
4.37665e-06
6.67052e-05
5.41319e-06
6.62521e-05
6.81221e-06
6.56892e-05
8.3065e-06
6.49643e-05
1.06132e-05
6.40584e-05
1.36174e-05
6.29171e-05
1.71964e-05
6.13764e-05
2.24821e-05
5.93793e-05
3.19588e-05
5.65206e-05
4.35231e-05
5.24679e-05
6.83451e-05
4.63158e-05
9.71771e-05
3.59384e-05
0.000164618
2.19507e-05
0.000206173
0.00030975
6.81688e-05
3.17932e-07
6.8116e-05
8.611e-07
6.80333e-05
1.31203e-06
6.79208e-05
1.79966e-06
6.77737e-05
2.34038e-06
6.75883e-05
2.97145e-06
6.73571e-05
3.69467e-06
6.70658e-05
4.66809e-06
6.67052e-05
5.77462e-06
6.62535e-05
7.26205e-06
6.56838e-05
8.87879e-06
6.49566e-05
1.13525e-05
6.40604e-05
1.45121e-05
6.29145e-05
1.83444e-05
6.13769e-05
2.40229e-05
5.93831e-05
3.39504e-05
5.65336e-05
4.63712e-05
5.2522e-05
7.23553e-05
4.6448e-05
0.000103251
3.62366e-05
0.000174829
2.22582e-05
0.000220151
0.000332008
6.81689e-05
3.3779e-07
6.8116e-05
9.14733e-07
6.80333e-05
1.39408e-06
6.79207e-05
1.91218e-06
6.77736e-05
2.48656e-06
6.75881e-05
3.15697e-06
6.7357e-05
3.92555e-06
6.70658e-05
4.95938e-06
6.67053e-05
6.13587e-06
6.62556e-05
7.70941e-06
6.56753e-05
9.461e-06
6.49585e-05
1.20752e-05
6.4061e-05
1.53958e-05
6.29126e-05
1.94959e-05
6.13774e-05
2.55517e-05
5.93853e-05
3.59468e-05
5.65427e-05
4.92148e-05
5.25659e-05
7.63335e-05
4.65661e-05
0.000109251
3.65268e-05
0.000184868
2.25779e-05
0.0002341
0.000354586
6.81688e-05
3.57663e-07
6.8116e-05
9.68391e-07
6.80333e-05
1.47605e-06
6.79208e-05
2.02449e-06
6.77738e-05
2.63252e-06
6.75884e-05
3.34253e-06
6.73572e-05
4.15643e-06
6.70661e-05
5.25068e-06
6.67054e-05
6.49739e-06
6.6257e-05
8.15604e-06
6.56659e-05
1.00544e-05
6.49609e-05
1.27843e-05
6.406e-05
1.63001e-05
6.29114e-05
2.06447e-05
6.13779e-05
2.70887e-05
5.93864e-05
3.7936e-05
5.65492e-05
5.20507e-05
5.26034e-05
8.02782e-05
4.66735e-05
0.00011518
3.68091e-05
0.000194732
2.29077e-05
0.000248002
0.000377494
6.81689e-05
3.77507e-07
6.8116e-05
1.02197e-06
6.80333e-05
1.55813e-06
6.79207e-05
2.13701e-06
6.77737e-05
2.77868e-06
6.75882e-05
3.52799e-06
6.73571e-05
4.38728e-06
6.70661e-05
5.54183e-06
6.67056e-05
6.85861e-06
6.62574e-05
8.6018e-06
6.56601e-05
1.06533e-05
6.49621e-05
1.34833e-05
6.40591e-05
1.71951e-05
6.29105e-05
2.17951e-05
6.13785e-05
2.86157e-05
5.93869e-05
3.99309e-05
5.65542e-05
5.48843e-05
5.26372e-05
8.41966e-05
4.67732e-05
0.000121045
3.70847e-05
0.000204421
2.32463e-05
0.00026184
0.00040074
6.81688e-05
3.97368e-07
6.8116e-05
1.07559e-06
6.80333e-05
1.64012e-06
6.79208e-05
2.2493e-06
6.77739e-05
2.92459e-06
6.75885e-05
3.71351e-06
6.73574e-05
4.61813e-06
6.70663e-05
5.83305e-06
6.67058e-05
7.21998e-06
6.62536e-05
9.05228e-06
6.56589e-05
1.12498e-05
6.49619e-05
1.41816e-05
6.40583e-05
1.81031e-05
6.29101e-05
2.2943e-05
6.13792e-05
3.015e-05
5.93873e-05
4.19205e-05
5.65586e-05
5.77119e-05
5.26694e-05
8.80847e-05
4.68679e-05
0.000126846
3.73553e-05
0.000213933
2.35932e-05
0.000275602
0.000424333
6.81689e-05
4.17196e-07
6.8116e-05
1.12912e-06
6.80333e-05
1.72223e-06
6.79207e-05
2.36182e-06
6.77737e-05
3.07073e-06
6.75883e-05
3.89892e-06
6.73573e-05
4.84891e-06
6.70663e-05
6.12414e-06
6.67062e-05
7.58079e-06
6.62449e-05
9.51119e-06
6.56617e-05
1.18334e-05
6.49615e-05
1.48818e-05
6.40578e-05
1.90006e-05
6.29099e-05
2.40922e-05
6.13801e-05
3.16755e-05
5.9388e-05
4.39156e-05
5.65632e-05
6.05376e-05
5.27018e-05
9.19472e-05
4.69598e-05
0.000132589
3.76228e-05
0.00022327
2.39483e-05
0.000289277
0.000448282
6.81688e-05
4.37044e-07
6.8116e-05
1.18269e-06
6.80334e-05
1.80424e-06
6.79209e-05
2.47408e-06
6.77739e-05
3.2166e-06
6.75886e-05
4.08439e-06
6.73576e-05
5.07968e-06
6.70665e-05
6.41536e-06
6.67067e-05
7.94147e-06
6.6235e-05
9.98126e-06
6.56653e-05
1.2404e-05
6.4961e-05
1.55868e-05
6.40575e-05
1.99083e-05
6.291e-05
2.52392e-05
6.13814e-05
3.32073e-05
5.93893e-05
4.59056e-05
5.65687e-05
6.33571e-05
5.27354e-05
9.57795e-05
4.70508e-05
0.000138273
3.78893e-05
0.000232432
2.4312e-05
0.000302854
0.000472593
6.81689e-05
4.56857e-07
6.81161e-05
1.23618e-06
6.80333e-05
1.88638e-06
6.79207e-05
2.5866e-06
6.77738e-05
3.36271e-06
6.75884e-05
4.26974e-06
6.73575e-05
5.31037e-06
6.70665e-05
6.70645e-06
6.67072e-05
8.30145e-06
6.62281e-05
1.0458e-05
6.56677e-05
1.29642e-05
6.49607e-05
1.62936e-05
6.40575e-05
2.08065e-05
6.29104e-05
2.63874e-05
6.13831e-05
3.47308e-05
5.93915e-05
4.78999e-05
5.65757e-05
6.61738e-05
5.27711e-05
9.95853e-05
4.71424e-05
0.000143902
3.81571e-05
0.000241417
2.4685e-05
0.000316326
0.000497278
6.81688e-05
4.76691e-07
6.81161e-05
1.28971e-06
6.80334e-05
1.96842e-06
6.79209e-05
2.69883e-06
6.7774e-05
3.50854e-06
6.75887e-05
4.45516e-06
6.73578e-05
5.54106e-06
6.70667e-05
6.99764e-06
6.67075e-05
8.66149e-06
6.6224e-05
1.09401e-05
6.5669e-05
1.35196e-05
6.49606e-05
1.70025e-05
6.40576e-05
2.17136e-05
6.29111e-05
2.75334e-05
6.13853e-05
3.62596e-05
5.93952e-05
4.9888e-05
5.65848e-05
6.89832e-05
5.28092e-05
0.00010336
4.72356e-05
0.000149475
3.84285e-05
0.000250224
2.50685e-05
0.000329686
0.000522347
6.81689e-05
4.96488e-07
6.81161e-05
1.34315e-06
6.80333e-05
2.0506e-06
6.79208e-05
2.81135e-06
6.77738e-05
3.65464e-06
6.75885e-05
4.64046e-06
6.73577e-05
5.77167e-06
6.70668e-05
7.28858e-06
6.67078e-05
9.02117e-06
6.62221e-05
1.14235e-05
6.56696e-05
1.40718e-05
6.49607e-05
1.77112e-05
6.4058e-05
2.26118e-05
6.29122e-05
2.86801e-05
6.13882e-05
3.77799e-05
5.94004e-05
5.18785e-05
5.65961e-05
7.17883e-05
5.28499e-05
0.000107107
4.73312e-05
0.000154994
3.87056e-05
0.000258849
2.54636e-05
0.000342928
0.00054781
6.81688e-05
5.16308e-07
6.81161e-05
1.39663e-06
6.80334e-05
2.13266e-06
6.7921e-05
2.92355e-06
6.77741e-05
3.80042e-06
6.75889e-05
4.82581e-06
6.7358e-05
6.00233e-06
6.70672e-05
7.57948e-06
6.67065e-05
9.38264e-06
6.62218e-05
1.19072e-05
6.567e-05
1.46238e-05
6.49609e-05
1.84207e-05
6.40586e-05
2.35181e-05
6.29136e-05
2.98246e-05
6.13919e-05
3.93045e-05
5.94074e-05
5.3861e-05
5.66099e-05
7.45849e-05
5.28932e-05
0.000110823
4.74296e-05
0.000160457
3.89907e-05
0.000267288
2.58719e-05
0.000356047
0.000573682
6.81689e-05
5.36089e-07
6.81161e-05
1.45002e-06
6.80334e-05
2.21487e-06
6.79208e-05
3.03606e-06
6.77739e-05
3.94649e-06
6.75887e-05
5.01102e-06
6.73579e-05
6.23293e-06
6.70674e-05
7.86997e-06
6.67015e-05
9.74914e-06
6.6225e-05
1.23817e-05
6.56704e-05
1.51782e-05
6.49613e-05
1.91295e-05
6.40593e-05
2.44159e-05
6.29155e-05
3.09693e-05
6.13964e-05
4.082e-05
5.94162e-05
5.58439e-05
5.66262e-05
7.73756e-05
5.2939e-05
0.000114511
4.75313e-05
0.000165866
3.92856e-05
0.000275534
2.62949e-05
0.000369038
0.000599977
6.81689e-05
5.55894e-07
6.81161e-05
1.50346e-06
6.80334e-05
2.29696e-06
6.7921e-05
3.14823e-06
6.77742e-05
4.09224e-06
6.7589e-05
5.19628e-06
6.73582e-05
6.46361e-06
6.7068e-05
8.16027e-06
6.66942e-05
1.01236e-05
6.62299e-05
1.28457e-05
6.56708e-05
1.57375e-05
6.49618e-05
1.9839e-05
6.40603e-05
2.53211e-05
6.29177e-05
3.21114e-05
6.14018e-05
4.23388e-05
5.94267e-05
5.78169e-05
5.66452e-05
8.01562e-05
5.29874e-05
0.000118168
4.76363e-05
0.000171216
3.95922e-05
0.000283578
2.67341e-05
0.000381896
0.000626711
6.81689e-05
5.75659e-07
6.81161e-05
1.55681e-06
6.80334e-05
2.3792e-06
6.79208e-05
3.26073e-06
6.7774e-05
4.2383e-06
6.75888e-05
5.3814e-06
6.7358e-05
6.69422e-06
6.70682e-05
8.45012e-06
6.66885e-05
1.05038e-05
6.62338e-05
1.32992e-05
6.56713e-05
1.62999e-05
6.49624e-05
2.05477e-05
6.40614e-05
2.62181e-05
6.29204e-05
3.32533e-05
6.1408e-05
4.38477e-05
5.9439e-05
5.97887e-05
5.66667e-05
8.29293e-05
5.30383e-05
0.000121797
4.77446e-05
0.000176511
3.99117e-05
0.000291411
2.7191e-05
0.000394617
0.000653902
6.81689e-05
5.9545e-07
6.81161e-05
1.61021e-06
6.80335e-05
2.46131e-06
6.79211e-05
3.37287e-06
6.77743e-05
4.384e-06
6.75892e-05
5.56656e-06
6.73584e-05
6.92489e-06
6.70688e-05
8.73983e-06
6.6685e-05
1.08882e-05
6.62364e-05
1.37477e-05
6.56719e-05
1.68646e-05
6.4963e-05
2.12568e-05
6.40627e-05
2.7122e-05
6.29235e-05
3.43921e-05
6.1415e-05
4.5359e-05
5.94528e-05
6.17488e-05
5.66908e-05
8.56903e-05
5.30918e-05
0.000125395
4.78561e-05
0.000181746
4.0245e-05
0.000299021
2.76667e-05
0.000407195
0.000681569
6.81689e-05
6.15199e-07
6.81161e-05
1.66351e-06
6.80334e-05
2.54358e-06
6.79209e-05
3.48536e-06
6.7774e-05
4.53004e-06
6.7589e-05
5.75159e-06
6.73582e-05
7.15545e-06
6.70689e-05
9.02927e-06
6.66828e-05
1.12748e-05
6.62384e-05
1.41912e-05
6.56725e-05
1.74303e-05
6.49638e-05
2.19653e-05
6.40642e-05
2.80178e-05
6.29269e-05
3.55302e-05
6.14228e-05
4.68596e-05
5.94681e-05
6.37063e-05
5.67174e-05
8.84417e-05
5.31478e-05
0.000128966
4.79705e-05
0.000186924
4.05925e-05
0.000306399
2.81622e-05
0.000419626
0.000709731
6.81689e-05
6.34977e-07
6.81161e-05
1.71686e-06
6.80335e-05
2.62571e-06
6.79211e-05
3.59746e-06
6.77744e-05
4.67568e-06
6.75894e-05
5.93669e-06
6.73587e-05
7.38602e-06
6.70693e-05
9.31874e-06
6.66817e-05
1.16629e-05
6.62399e-05
1.4633e-05
6.56732e-05
1.79972e-05
6.49647e-05
2.26741e-05
6.4066e-05
2.89201e-05
6.29308e-05
3.66649e-05
6.14313e-05
4.8362e-05
5.94847e-05
6.56507e-05
5.67466e-05
9.11789e-05
5.32064e-05
0.000132505
4.80877e-05
0.000192042
4.0954e-05
0.000313533
2.86781e-05
0.000431901
0.000738409
6.81689e-05
6.54711e-07
6.81161e-05
1.77012e-06
6.80334e-05
2.708e-06
6.79209e-05
3.70993e-06
6.77741e-05
4.82169e-06
6.75892e-05
6.12165e-06
6.73586e-05
7.61639e-06
6.70692e-05
9.60811e-06
6.66811e-05
1.20515e-05
6.62414e-05
1.5072e-05
6.5674e-05
1.85644e-05
6.49657e-05
2.33822e-05
6.40678e-05
2.98142e-05
6.29351e-05
3.77985e-05
6.14404e-05
4.98532e-05
5.95027e-05
6.75912e-05
5.67783e-05
9.39041e-05
5.32679e-05
0.000136017
4.82077e-05
0.000197103
4.13292e-05
0.000320411
2.92148e-05
0.000444016
0.000767624
6.81689e-05
6.74476e-07
6.81161e-05
1.82344e-06
6.80335e-05
2.79015e-06
6.79212e-05
3.822e-06
6.77745e-05
4.96727e-06
6.75895e-05
6.30669e-06
6.73591e-05
7.84674e-06
6.70696e-05
9.89769e-06
6.66811e-05
1.24404e-05
6.62427e-05
1.55104e-05
6.56748e-05
1.91325e-05
6.49668e-05
2.40906e-05
6.40699e-05
3.07145e-05
6.29396e-05
3.89284e-05
6.14502e-05
5.13454e-05
5.9522e-05
6.95172e-05
5.68126e-05
9.66125e-05
5.33323e-05
0.000139496
4.83304e-05
0.000202104
4.17176e-05
0.000327024
2.97723e-05
0.000455961
0.000797396
6.81689e-05
6.94196e-07
6.81162e-05
1.87666e-06
6.80335e-05
2.87246e-06
6.7921e-05
3.93446e-06
6.77742e-05
5.11324e-06
6.75893e-05
6.49162e-06
6.7359e-05
8.07682e-06
6.70694e-05
1.01873e-05
6.66811e-05
1.28292e-05
6.62441e-05
1.59468e-05
6.56757e-05
1.97007e-05
6.4968e-05
2.47981e-05
6.40722e-05
3.16068e-05
6.29445e-05
4.00567e-05
6.14605e-05
5.28261e-05
5.95425e-05
7.14381e-05
5.68495e-05
9.93063e-05
5.33997e-05
0.000142947
4.84562e-05
0.000207048
4.21189e-05
0.000333361
3.03508e-05
0.00046773
0.000827747
6.81689e-05
7.13949e-07
6.81161e-05
1.92994e-06
6.80335e-05
2.95462e-06
6.79212e-05
4.04649e-06
6.77746e-05
5.25874e-06
6.75897e-05
6.67663e-06
6.73596e-05
8.30683e-06
6.70694e-05
1.04776e-05
6.66816e-05
1.32174e-05
6.62454e-05
1.63832e-05
6.56767e-05
2.02694e-05
6.49692e-05
2.55059e-05
6.40746e-05
3.25048e-05
6.29498e-05
4.11812e-05
6.14714e-05
5.43073e-05
5.95642e-05
7.33431e-05
5.68888e-05
0.000101981
5.34704e-05
0.000146365
4.85853e-05
0.000211933
4.2533e-05
0.000339414
3.09504e-05
0.000479312
0.000858697
6.81689e-05
7.33657e-07
6.81162e-05
1.98312e-06
6.80335e-05
3.03695e-06
6.7921e-05
4.15893e-06
6.77744e-05
5.40465e-06
6.75894e-05
6.86152e-06
6.73596e-05
8.53651e-06
6.70665e-05
1.07707e-05
6.66841e-05
1.36001e-05
6.62466e-05
1.68202e-05
6.56777e-05
2.08382e-05
6.49706e-05
2.62129e-05
6.40771e-05
3.33947e-05
6.29553e-05
4.23038e-05
6.14828e-05
5.57764e-05
5.95871e-05
7.52418e-05
5.69307e-05
0.000104638
5.35445e-05
0.000149752
4.87181e-05
0.000216759
4.29599e-05
0.000345172
3.15715e-05
0.000490701
0.000890269
6.81689e-05
7.534e-07
6.81162e-05
2.03637e-06
6.80336e-05
3.11911e-06
6.79213e-05
4.27092e-06
6.77748e-05
5.55005e-06
6.75899e-05
7.04649e-06
6.73601e-05
8.76616e-06
6.70578e-05
1.1073e-05
6.66926e-05
1.39654e-05
6.62478e-05
1.72652e-05
6.56788e-05
2.14074e-05
6.4972e-05
2.692e-05
6.40799e-05
3.42903e-05
6.29611e-05
4.34222e-05
6.14947e-05
5.72456e-05
5.9611e-05
7.71232e-05
5.6975e-05
0.000107273
5.36222e-05
0.000153104
4.88552e-05
0.000221526
4.34001e-05
0.000350627
3.22145e-05
0.000501886
0.000922483
6.81689e-05
7.73094e-07
6.81162e-05
2.0895e-06
6.80335e-05
3.20145e-06
6.79211e-05
4.38335e-06
6.77745e-05
5.69591e-06
6.75897e-05
7.23128e-06
6.73599e-05
8.99567e-06
6.70512e-05
1.13818e-05
6.66994e-05
1.43173e-05
6.6249e-05
1.77152e-05
6.56799e-05
2.19763e-05
6.49735e-05
2.76261e-05
6.40827e-05
3.51775e-05
6.29671e-05
4.45384e-05
6.15072e-05
5.87021e-05
5.96361e-05
7.89971e-05
5.70216e-05
0.000109888
5.37039e-05
0.000156423
4.89966e-05
0.000226234
4.3854e-05
0.000355769
3.28803e-05
0.00051286
0.000955363
6.81689e-05
7.92826e-07
6.81162e-05
2.1427e-06
6.80336e-05
3.28361e-06
6.79214e-05
4.49529e-06
6.77749e-05
5.84125e-06
6.75902e-05
7.41609e-06
6.73603e-05
9.22538e-06
6.70493e-05
1.16929e-05
6.6702e-05
1.46646e-05
6.62501e-05
1.81674e-05
6.5681e-05
2.25455e-05
6.49751e-05
2.83324e-05
6.40857e-05
3.60705e-05
6.29735e-05
4.56503e-05
6.15201e-05
6.01585e-05
5.96622e-05
8.08526e-05
5.70705e-05
0.000112479
5.37898e-05
0.000159702
4.91426e-05
0.000230881
4.43215e-05
0.00036059
3.35691e-05
0.000523612
0.000988933
6.81689e-05
8.12515e-07
6.81162e-05
2.19581e-06
6.80336e-05
3.36594e-06
6.79212e-05
4.60765e-06
6.77746e-05
5.98706e-06
6.759e-05
7.60062e-06
6.73588e-05
9.45639e-06
6.70492e-05
1.20026e-05
6.67031e-05
1.50107e-05
6.6251e-05
1.86192e-05
6.56822e-05
2.31141e-05
6.49768e-05
2.90376e-05
6.40888e-05
3.69541e-05
6.298e-05
4.67597e-05
6.15336e-05
6.16008e-05
5.96894e-05
8.27001e-05
5.71214e-05
0.000115048
5.38802e-05
0.000162945
4.92927e-05
0.000235469
4.48011e-05
0.000365082
3.42805e-05
0.000534133
0.00102321
6.81689e-05
8.32234e-07
6.81162e-05
2.24897e-06
6.80336e-05
3.44813e-06
6.79215e-05
4.71957e-06
6.77749e-05
6.13249e-06
6.75908e-05
7.78485e-06
6.73499e-05
9.69708e-06
6.70549e-05
1.22977e-05
6.67036e-05
1.5362e-05
6.62518e-05
1.90712e-05
6.56833e-05
2.36828e-05
6.49785e-05
2.97428e-05
6.4092e-05
3.78446e-05
6.29869e-05
4.78644e-05
6.15475e-05
6.30434e-05
5.97175e-05
8.45274e-05
5.71744e-05
0.00011759
5.39755e-05
0.000166142
4.94467e-05
0.000239997
4.52883e-05
0.00036924
3.50112e-05
0.00054441
0.00105822
6.81689e-05
8.51905e-07
6.81162e-05
2.30201e-06
6.80336e-05
3.53049e-06
6.79212e-05
4.8319e-06
6.77746e-05
6.27845e-06
6.75908e-05
7.96862e-06
6.7342e-05
9.94565e-06
6.70598e-05
1.25798e-05
6.67039e-05
1.5718e-05
6.62526e-05
1.95222e-05
6.56845e-05
2.42507e-05
6.49802e-05
3.04469e-05
6.40953e-05
3.8725e-05
6.29939e-05
4.89664e-05
6.15619e-05
6.44713e-05
5.97465e-05
8.63461e-05
5.72291e-05
0.000120109
5.40762e-05
0.000169297
4.96042e-05
0.00024447
4.57737e-05
0.000373071
3.57536e-05
0.00055443
0.00109398
6.81688e-05
8.71581e-07
6.81162e-05
2.35514e-06
6.80337e-05
3.61261e-06
6.79216e-05
4.94365e-06
6.77751e-05
6.42369e-06
6.75915e-05
8.15237e-06
6.734e-05
1.0197e-05
6.70611e-05
1.28587e-05
6.6704e-05
1.6075e-05
6.62532e-05
1.99733e-05
6.56856e-05
2.48184e-05
6.4982e-05
3.11508e-05
6.40986e-05
3.96124e-05
6.30011e-05
5.00635e-05
6.15768e-05
6.5899e-05
5.97764e-05
8.81437e-05
5.72851e-05
0.000122599
5.41833e-05
0.000172397
4.97643e-05
0.000248888
4.62541e-05
0.000376581
3.65868e-05
0.000564097
0.00113056
-4.14898e-06
4.14907e-06
-7.99649e-06
3.84754e-06
-8.9017e-06
9.05219e-07
-7.16522e-06
-1.73627e-06
-5.23075e-06
-1.93474e-06
-4.08366e-06
-1.14652e-06
-3.5426e-06
-5.40603e-07
-3.31787e-06
-2.23807e-07
-3.00121e-06
-3.11124e-07
-2.7363e-06
-2.57041e-07
-2.66835e-06
-4.81663e-09
-2.65508e-06
-8.61243e-08
-2.4668e-06
-2.02178e-07
-1.35322e-06
-1.11418e-06
1.38616e-06
-2.72903e-06
5.40261e-06
-4.00847e-06
9.80108e-06
-4.39696e-06
1.40098e-05
-4.20883e-06
1.78633e-05
-3.85363e-06
2.1375e-05
-3.51385e-06
2.46851e-05
-3.31222e-06
2.79067e-05
-3.22055e-06
3.10692e-05
-3.16245e-06
3.4201e-05
-3.13214e-06
3.7428e-05
-3.22857e-06
4.04406e-05
-3.01317e-06
4.35796e-05
-3.13526e-06
5.30302e-05
-9.45127e-06
6.38546e-05
-1.08258e-05
6.68935e-05
-3.03656e-06
6.71077e-05
-2.14431e-07
6.72003e-05
-9.24543e-08
6.73472e-05
-1.47051e-07
6.74839e-05
-1.36622e-07
-6.7148e-08
-4.06953e-06
8.21878e-06
-7.88305e-06
7.66112e-06
-8.7908e-06
1.813e-06
-7.06483e-06
-3.46182e-06
-5.15357e-06
-3.84649e-06
-4.02973e-06
-2.26927e-06
-3.50589e-06
-1.06354e-06
-3.29933e-06
-4.28531e-07
-2.99581e-06
-6.04212e-07
-2.7095e-06
-5.28133e-07
-2.57564e-06
-3.75334e-08
-2.49402e-06
-2.87886e-07
-2.30902e-06
-4.14706e-07
-1.36293e-06
-2.06183e-06
1.16737e-06
-5.2386e-06
5.15319e-06
-7.97781e-06
9.66961e-06
-8.91008e-06
1.39723e-05
-8.51164e-06
1.78534e-05
-7.7353e-06
2.13459e-05
-7.01039e-06
2.46187e-05
-6.58921e-06
2.78068e-05
-6.40665e-06
3.09524e-05
-6.30795e-06
3.40803e-05
-6.26066e-06
3.73073e-05
-6.45856e-06
4.03475e-05
-6.05447e-06
4.33134e-05
-6.09412e-06
5.25152e-05
-1.86543e-05
6.35439e-05
-2.1857e-05
6.68748e-05
-6.36306e-06
6.71173e-05
-4.57194e-07
6.72036e-05
-1.78585e-07
6.73484e-05
-2.92061e-07
6.74848e-05
-2.72984e-07
-1.34304e-07
-3.97964e-06
1.21985e-05
-7.75687e-06
1.14384e-05
-8.65337e-06
2.7095e-06
-6.93018e-06
-5.1846e-06
-5.04519e-06
-5.73197e-06
-3.94815e-06
-3.36527e-06
-3.4428e-06
-1.56811e-06
-3.25338e-06
-6.1636e-07
-2.94942e-06
-8.98526e-07
-2.63027e-06
-8.33318e-07
-2.42579e-06
-1.37979e-07
-2.29245e-06
-5.47357e-07
-2.17789e-06
-5.56846e-07
-1.41967e-06
-2.8211e-06
9.59331e-07
-7.59669e-06
4.95819e-06
-1.19596e-05
9.58571e-06
-1.35343e-05
1.39696e-05
-1.28957e-05
1.7875e-05
-1.1641e-05
2.13538e-05
-1.04932e-05
2.45913e-05
-9.83086e-06
2.77455e-05
-9.55877e-06
3.08729e-05
-9.43534e-06
3.39944e-05
-9.38273e-06
3.72192e-05
-9.68641e-06
4.0283e-05
-9.11937e-06
4.31115e-05
-8.91548e-06
5.20747e-05
-2.76187e-05
6.32577e-05
-3.30426e-05
6.68564e-05
-9.95767e-06
6.71264e-05
-7.27486e-07
6.72071e-05
-2.59087e-07
6.73498e-05
-4.34923e-07
6.74859e-05
-4.09028e-07
-2.01392e-07
-3.87786e-06
1.60766e-05
-7.61434e-06
1.5175e-05
-8.48371e-06
3.57889e-06
-6.75036e-06
-6.91745e-06
-4.89517e-06
-7.58762e-06
-3.83104e-06
-4.42828e-06
-3.34744e-06
-2.05081e-06
-3.1744e-06
-7.87542e-07
-2.8681e-06
-1.19468e-06
-2.51841e-06
-1.16766e-06
-2.24547e-06
-3.21951e-07
-2.06618e-06
-8.41417e-07
-2.02907e-06
-6.25944e-07
-1.45043e-06
-3.40165e-06
7.86922e-07
-9.80933e-06
4.7941e-06
-1.5945e-05
9.53124e-06
-1.82668e-05
1.40013e-05
-1.7366e-05
1.79359e-05
-1.55764e-05
2.14054e-05
-1.39676e-05
2.46093e-05
-1.30395e-05
2.77271e-05
-1.26742e-05
3.08322e-05
-1.25405e-05
3.39441e-05
-1.24953e-05
3.71641e-05
-1.29097e-05
4.02496e-05
-1.2206e-05
4.29712e-05
-1.16296e-05
5.17058e-05
-3.63546e-05
6.29952e-05
-4.43346e-05
6.68376e-05
-1.37957e-05
6.71353e-05
-1.02547e-06
6.72107e-05
-3.34358e-07
6.73513e-05
-5.75668e-07
6.7487e-05
-5.44659e-07
-2.68357e-07
-3.76399e-06
1.98407e-05
-7.45327e-06
1.88643e-05
-8.27623e-06
4.40185e-06
-6.52112e-06
-8.67212e-06
-4.70206e-06
-9.40715e-06
-3.67828e-06
-5.451e-06
-3.22066e-06
-2.50771e-06
-3.06349e-06
-9.43167e-07
-2.75447e-06
-1.49451e-06
-2.37461e-06
-1.53351e-06
-2.03043e-06
-5.83371e-07
-1.80799e-06
-1.17586e-06
-1.8534e-06
-6.11833e-07
-1.44305e-06
-3.81298e-06
6.68141e-07
-1.18968e-05
4.68071e-06
-1.99357e-05
9.52424e-06
-2.31055e-05
1.40855e-05
-2.19275e-05
1.80524e-05
-1.95437e-05
2.15132e-05
-1.7434e-05
2.46818e-05
-1.62128e-05
2.77581e-05
-1.57481e-05
3.08353e-05
-1.56176e-05
3.39332e-05
-1.55938e-05
3.71452e-05
-1.61252e-05
4.02496e-05
-1.53116e-05
4.28901e-05
-1.42624e-05
5.14029e-05
-4.48686e-05
6.27544e-05
-5.56885e-05
6.68184e-05
-1.78556e-05
6.71439e-05
-1.3512e-06
6.72146e-05
-4.04914e-07
6.73531e-05
-7.14293e-07
6.74883e-05
-6.79786e-07
-3.3514e-07
-3.63751e-06
2.34784e-05
-7.27089e-06
2.24977e-05
-8.02422e-06
5.15522e-06
-6.23665e-06
-1.04591e-05
-4.46311e-06
-1.11811e-05
-3.48843e-06
-6.4245e-06
-3.06177e-06
-2.93346e-06
-2.92023e-06
-1.08273e-06
-2.60942e-06
-1.79502e-06
-2.1991e-06
-1.92756e-06
-1.77865e-06
-9.31709e-07
-1.51367e-06
-1.54664e-06
-1.64271e-06
-5.20311e-07
-1.38344e-06
-4.07458e-06
6.26495e-07
-1.38781e-05
4.65129e-06
-2.3932e-05
9.60045e-06
-2.80478e-05
1.4257e-05
-2.65843e-05
1.82539e-05
-2.3542e-05
2.16985e-05
-2.08857e-05
2.48234e-05
-1.93437e-05
2.78495e-05
-1.87713e-05
3.08904e-05
-1.86584e-05
3.39685e-05
-1.86728e-05
3.71682e-05
-1.93288e-05
4.02879e-05
-1.84329e-05
4.28675e-05
-1.68333e-05
5.11605e-05
-5.3163e-05
6.25328e-05
-6.70635e-05
6.67989e-05
-2.21171e-05
6.71522e-05
-1.70476e-06
6.72187e-05
-4.71216e-07
6.73551e-05
-8.50843e-07
6.74896e-05
-8.14315e-07
-4.01686e-07
-3.49773e-06
2.69762e-05
-7.06371e-06
2.60638e-05
-7.71937e-06
5.81087e-06
-5.88937e-06
-1.22886e-05
-4.17422e-06
-1.28968e-05
-3.25834e-06
-7.33924e-06
-2.86831e-06
-3.32279e-06
-2.74233e-06
-1.20705e-06
-2.43142e-06
-2.09658e-06
-1.99027e-06
-2.35343e-06
-1.48753e-06
-1.37172e-06
-1.17794e-06
-1.95616e-06
-1.38632e-06
-3.48496e-07
-1.25666e-06
-4.20544e-06
6.84089e-07
-1.57918e-05
4.74404e-06
-2.79637e-05
9.81216e-06
-3.31092e-05
1.45734e-05
-3.1346e-05
1.85914e-05
-2.75607e-05
2.1997e-05
-2.43004e-05
2.5058e-05
-2.24115e-05
2.80183e-05
-2.17282e-05
3.10108e-05
-2.16509e-05
3.40611e-05
-2.1724e-05
3.72429e-05
-2.25148e-05
4.03727e-05
-2.15643e-05
4.29063e-05
-1.93577e-05
5.09756e-05
-6.12337e-05
6.23283e-05
-7.8419e-05
6.67791e-05
-2.65636e-05
6.71601e-05
-2.08602e-06
6.72229e-05
-5.33875e-07
6.73572e-05
-9.85313e-07
6.74911e-05
-9.48154e-07
-4.67934e-07
-3.34379e-06
3.03202e-05
-6.82753e-06
2.95476e-05
-7.35241e-06
6.33579e-06
-5.4714e-06
-1.4169e-05
-3.83094e-06
-1.45377e-05
-2.98377e-06
-8.18511e-06
-2.63625e-06
-3.66932e-06
-2.52567e-06
-1.31539e-06
-2.21642e-06
-2.39475e-06
-1.74357e-06
-2.8078e-06
-1.15128e-06
-1.90667e-06
-7.91168e-07
-2.41728e-06
-1.06862e-06
-1.16987e-07
-1.04419e-06
-4.2329e-06
8.64876e-07
-1.76662e-05
5.00112e-06
-3.20629e-05
1.0226e-05
-3.83243e-05
1.51203e-05
-3.62407e-05
1.91499e-05
-3.15929e-05
2.24705e-05
-2.76334e-05
2.54252e-05
-2.5375e-05
2.82908e-05