/*--------------------------------*- C++ -*----------------------------------*\
| =========                 |                                                 |
| \\      /  F ield         | OpenFOAM: The Open Source CFD Toolbox           |
|  \\    /   O peration     | Version:  v1912                                 |
|   \\  /    A nd           | Website:  www.openfoam.com                      |
|    \\/     M anipulation  |                                                 |
\*---------------------------------------------------------------------------*/
FoamFile
{
    version     2.0;
    format      ascii;
    class       volVectorField;
    location    "290";
    object      U;
}
// * * * * * * * * * * * * * * * * * * * * * * * * * * * * * * * * * * * * * //

dimensions      [0 1 -1 0 0 0 0];


internalField   nonuniform List<vector> 
12441
(
(29.9989 1.66699e-05 0)
(29.9857 5.05719e-05 0)
(29.9573 8.74118e-05 0)
(29.9139 0.000134765 0)
(29.857 0.000197093 0)
(29.7843 0.000280754 0)
(29.6939 0.000391761 0)
(29.5805 0.000556651 0)
(29.4385 0.000773498 0)
(29.2636 0.00109135 0)
(29.0398 0.00150054 0)
(28.7696 0.00214802 0)
(28.441 0.00304902 0)
(27.96 0.0044733 0)
(27.4234 0.00621523 0)
(26.6193 0.0112426 0)
(25.5979 0.0147939 0)
(23.964 0.0309327 0)
(21.6581 0.0521905 0)
(18.0105 0.0908806 0)
(12.2323 0.122788 0)
(5.87939 0.198629 0)
(29.9989 4.9551e-05 0)
(29.9856 0.000151348 0)
(29.9572 0.000260691 0)
(29.9139 0.00040203 0)
(29.8571 0.000587992 0)
(29.7843 0.000837867 0)
(29.6939 0.00117087 0)
(29.5806 0.00166372 0)
(29.4386 0.00231339 0)
(29.2639 0.00327245 0)
(29.0399 0.00448738 0)
(28.7707 0.00639749 0)
(28.4412 0.00922826 0)
(27.9611 0.0132653 0)
(27.4251 0.018836 0)
(26.6198 0.0334534 0)
(25.6053 0.0470606 0)
(23.9645 0.0886435 0)
(21.658 0.136225 0)
(18.0082 0.262947 0)
(12.2325 0.360762 0)
(5.88278 0.593149 0)
(29.9989 8.23198e-05 0)
(29.9856 0.000252088 0)
(29.9572 0.000433162 0)
(29.9139 0.000667976 0)
(29.8571 0.000977336 0)
(29.7843 0.00139408 0)
(29.6939 0.00194847 0)
(29.5806 0.00276931 0)
(29.4386 0.00385011 0)
(29.264 0.00545296 0)
(29.0396 0.00745647 0)
(28.771 0.010649 0)
(28.4425 0.0154625 0)
(27.9558 0.0219623 0)
(27.4238 0.0315793 0)
(26.6182 0.0546555 0)
(25.6077 0.0800659 0)
(23.9686 0.144618 0)
(21.6608 0.217787 0)
(18.0073 0.432702 0)
(12.2379 0.595254 0)
(5.89058 0.985662 0)
(29.9989 0.000115507 0)
(29.9856 0.000353566 0)
(29.9572 0.000606482 0)
(29.9139 0.000935202 0)
(29.8571 0.00136838 0)
(29.7843 0.00195231 0)
(29.694 0.00272869 0)
(29.5806 0.0038781 0)
(29.4387 0.00539114 0)
(29.264 0.0076394 0)
(29.0399 0.0104334 0)
(28.7705 0.0149125 0)
(28.4415 0.0217001 0)
(27.9624 0.0306952 0)
(27.4253 0.0443371 0)
(26.6215 0.0759345 0)
(25.6103 0.112312 0)
(23.9733 0.203602 0)
(21.6691 0.324084 0)
(18.0112 0.610459 0)
(12.2495 0.833715 0)
(5.90314 1.37983 0)
(29.9989 0.000148751 0)
(29.9856 0.000454897 0)
(29.9572 0.000779603 0)
(29.9139 0.00120222 0)
(29.8571 0.00175909 0)
(29.7843 0.00251 0)
(29.694 0.00350823 0)
(29.5806 0.00498608 0)
(29.4387 0.00693106 0)
(29.2641 0.00982446 0)
(29.0398 0.0134089 0)
(28.7712 0.0191726 0)
(28.4434 0.0279244 0)
(27.957 0.0394257 0)
(27.4254 0.0570791 0)
(26.6205 0.096992 0)
(25.6124 0.144059 0)
(23.9775 0.263337 0)
(21.6797 0.413178 0)
(18.0211 0.784399 0)
(12.269 1.07194 0)
(5.92075 1.77529 0)
(29.9989 0.000181991 0)
(29.9856 0.000556145 0)
(29.9572 0.000952697 0)
(29.9139 0.00146924 0)
(29.8571 0.00214976 0)
(29.7844 0.00306769 0)
(29.694 0.00428786 0)
(29.5807 0.00609416 0)
(29.4388 0.00847142 0)
(29.264 0.0120093 0)
(29.0402 0.0163874 0)
(28.7705 0.0234322 0)
(28.4414 0.0341451 0)
(27.9644 0.048162 0)
(27.4263 0.0698418 0)
(26.6239 0.117963 0)
(25.6149 0.175546 0)
(23.982 0.322522 0)
(21.6922 0.50071 0)
(18.0375 0.957035 0)
(12.2977 1.30984 0)
(5.94378 2.17183 0)
(29.9989 0.000215224 0)
(29.9856 0.000657335 0)
(29.9572 0.00112578 0)
(29.9139 0.00173627 0)
(29.8571 0.00254038 0)
(29.7844 0.00362535 0)
(29.694 0.0050675 0)
(29.5807 0.00720226 0)
(29.4388 0.0100117 0)
(29.2642 0.014194 0)
(29.0401 0.0193647 0)
(28.7718 0.0276932 0)
(28.4439 0.0403647 0)
(27.9576 0.056871 0)
(27.4274 0.0825642 0)
(26.6236 0.138791 0)
(25.6168 0.206354 0)
(23.986 0.379233 0)
(21.7085 0.590405 0)
(18.063 1.12978 0)
(12.338 1.54782 0)
(5.97272 2.56976 0)
(29.9989 0.000248454 0)
(29.9856 0.000758483 0)
(29.9573 0.00129884 0)
(29.9139 0.00200328 0)
(29.8572 0.0029309 0)
(29.7844 0.00418294 0)
(29.6941 0.0058471 0)
(29.5808 0.00831024 0)
(29.4389 0.0115521 0)
(29.2642 0.0163779 0)
(29.0405 0.0223451 0)
(28.7704 0.0319515 0)
(28.4407 0.0465781 0)
(27.9667 0.0655717 0)
(27.4287 0.0951435 0)
(26.6276 0.159312 0)
(25.6201 0.238724 0)
(23.9917 0.437956 0)
(21.7359 0.681236 0)
(18.1035 1.30204 0)
(12.3927 1.78607 0)
(6.00813 2.96955 0)
(29.9989 0.00028168 0)
(29.9857 0.00085958 0)
(29.9573 0.00147188 0)
(29.9139 0.00227028 0)
(29.8571 0.00332138 0)
(29.7844 0.00474051 0)
(29.6941 0.00662669 0)
(29.5808 0.00941824 0)
(29.4389 0.0130925 0)
(29.2643 0.0185619 0)
(29.0404 0.0253227 0)
(28.7725 0.0362137 0)
(28.4456 0.0527899 0)
(27.9581 0.0743691 0)
(27.4271 0.107806 0)
(26.6283 0.180194 0)
(25.6239 0.269612 0)
(23.9995 0.496158 0)
(21.7825 0.771769 0)
(18.1651 1.47342 0)
(12.4648 2.02484 0)
(6.05064 3.37169 0)
(29.9989 0.000314903 0)
(29.9856 0.000960635 0)
(29.9573 0.00164491 0)
(29.9139 0.00253725 0)
(29.8572 0.00371177 0)
(29.7845 0.005298 0)
(29.6942 0.00740625 0)
(29.5809 0.0105261 0)
(29.439 0.014633 0)
(29.2643 0.0207446 0)
(29.041 0.0283034 0)
(28.7701 0.040469 0)
(28.4392 0.059005 0)
(27.9668 0.0830138 0)
(27.4267 0.121113 0)
(26.6318 0.20136 0)
(25.6323 0.300982 0)
(24.0169 0.55248 0)
(21.85 0.861938 0)
(18.2499 1.64413 0)
(12.5566 2.26446 0)
(6.10089 3.77674 0)
(29.9989 0.00034812 0)
(29.9857 0.00106164 0)
(29.9573 0.00181794 0)
(29.9139 0.00280422 0)
(29.8572 0.00410211 0)
(29.7845 0.00585546 0)
(29.6942 0.00818579 0)
(29.5809 0.0116339 0)
(29.4391 0.0161735 0)
(29.2644 0.0229267 0)
(29.0411 0.0312844 0)
(28.7726 0.0447263 0)
(28.4477 0.0652364 0)
(27.9679 0.0917194 0)
(27.4264 0.133715 0)
(26.6329 0.221458 0)
(25.6432 0.333399 0)
(24.0454 0.60814 0)
(21.9271 0.951849 0)
(18.3526 1.81406 0)
(12.6684 2.5052 0)
(6.15945 4.1853 0)
(29.9989 0.000381333 0)
(29.9857 0.00116261 0)
(29.9573 0.00199096 0)
(29.9139 0.00307117 0)
(29.8573 0.00449236 0)
(29.7845 0.00641284 0)
(29.6943 0.00896529 0)
(29.581 0.0127414 0)
(29.4392 0.0177143 0)
(29.2643 0.0251063 0)
(29.0418 0.0342702 0)
(28.7698 0.0489664 0)
(28.4391 0.0713373 0)
(27.9788 0.100711 0)
(27.4252 0.147259 0)
(26.6342 0.241901 0)
(25.6544 0.365721 0)
(24.0782 0.662225 0)
(21.9998 1.0408 0)
(18.4633 1.98271 0)
(12.7984 2.74716 0)
(6.22678 4.59797 0)
(29.9989 0.000414538 0)
(29.9857 0.00126352 0)
(29.9573 0.00216399 0)
(29.9139 0.00333811 0)
(29.8572 0.00488258 0)
(29.7845 0.0069702 0)
(29.6942 0.00974481 0)
(29.581 0.0138487 0)
(29.4393 0.0192554 0)
(29.2644 0.0272835 0)
(29.0424 0.037262 0)
(28.7705 0.0533018 0)
(28.4426 0.0773245 0)
(27.9814 0.109802 0)
(27.4231 0.161077 0)
(26.6354 0.262054 0)
(25.6633 0.397619 0)
(24.1071 0.714524 0)
(22.061 1.12846 0)
(18.5728 2.14954 0)
(12.9434 2.9902 0)
(6.30311 5.01534 0)
(29.9989 0.000447736 0)
(29.9857 0.0013644 0)
(29.9573 0.00233702 0)
(29.914 0.00360502 0)
(29.8573 0.00527272 0)
(29.7846 0.00752747 0)
(29.6943 0.0105243 0)
(29.5811 0.0149558 0)
(29.4394 0.0207969 0)
(29.2643 0.0294584 0)
(29.0434 0.0402775 0)
(28.7678 0.0576786 0)
(28.4331 0.0836464 0)
(27.9814 0.118923 0)
(27.4209 0.17454 0)
(26.6366 0.2816 0)
(25.6695 0.429016 0)
(24.1292 0.765373 0)
(22.1105 1.21484 0)
(18.6757 2.31421 0)
(13.0993 3.23402 0)
(6.3884 5.43787 0)
(29.9989 0.000480926 0)
(29.9857 0.00146523 0)
(29.9573 0.00251008 0)
(29.9139 0.00387194 0)
(29.8572 0.00566283 0)
(29.7846 0.00808469 0)
(29.6943 0.0113038 0)
(29.581 0.0160624 0)
(29.4395 0.0223395 0)
(29.2643 0.031625 0)
(29.0445 0.0433273 0)
(28.7682 0.0619959 0)
(28.4321 0.0898443 0)
(27.9795 0.127855 0)
(27.4196 0.18782 0)
(26.6377 0.300962 0)
(25.6734 0.460168 0)
(24.1451 0.815254 0)
(22.1504 1.30007 0)
(18.7695 2.4765 0)
(13.2626 3.47826 0)
(6.48241 5.86599 0)
(29.9989 0.000514106 0)
(29.9857 0.00156602 0)
(29.9573 0.00268315 0)
(29.914 0.00413883 0)
(29.8573 0.00605287 0)
(29.7847 0.00864182 0)
(29.6944 0.0120833 0)
(29.5811 0.0171689 0)
(29.4397 0.0238814 0)
(29.2643 0.0337898 0)
(29.0458 0.0463821 0)
(28.769 0.0664535 0)
(28.4283 0.0960828 0)
(27.9781 0.136653 0)
(27.4188 0.201021 0)
(26.6386 0.320251 0)
(25.6755 0.491192 0)
(24.1564 0.864486 0)
(22.1833 1.38423 0)
(18.8539 2.63628 0)
(13.4304 3.72252 0)
(6.58471 6.30001 0)
(29.9989 0.000547276 0)
(29.9857 0.00166676 0)
(29.9573 0.00285624 0)
(29.914 0.00440572 0)
(29.8572 0.00644287 0)
(29.7846 0.00919892 0)
(29.6944 0.0128628 0)
(29.5811 0.0182751 0)
(29.4398 0.0254243 0)
(29.2643 0.0359424 0)
(29.0475 0.0495029 0)
(28.7692 0.0709403 0)
(28.4264 0.102224 0)
(27.977 0.145444 0)
(27.4184 0.214192 0)
(26.6393 0.339544 0)
(25.6765 0.522144 0)
(24.1645 0.913267 0)
(22.2115 1.46742 0)
(18.93 2.79346 0)
(13.6003 3.96643 0)
(6.69483 6.74021 0)
(29.9989 0.000580437 0)
(29.9857 0.00176746 0)
(29.9573 0.00302936 0)
(29.914 0.00467258 0)
(29.8573 0.00683282 0)
(29.7847 0.0097559 0)
(29.6945 0.0136422 0)
(29.5812 0.0193808 0)
(29.4399 0.0269677 0)
(29.2643 0.0380823 0)
(29.0488 0.052646 0)
(28.7681 0.0754495 0)
(28.4245 0.108354 0)
(27.9763 0.154218 0)
(27.4181 0.227383 0)
(26.6399 0.35883 0)
(25.6768 0.553041 0)
(24.1705 0.961693 0)
(22.2368 1.54969 0)
(18.999 2.94797 0)
(13.7713 4.20967 0)
(6.81224 7.18679 0)
(29.9989 0.000613586 0)
(29.9857 0.00186812 0)
(29.9573 0.00320251 0)
(29.914 0.00493944 0)
(29.8573 0.00722273 0)
(29.7847 0.0103128 0)
(29.6944 0.0144216 0)
(29.5812 0.0204866 0)
(29.44 0.0285103 0)
(29.2645 0.0402294 0)
(29.0497 0.0557807 0)
(28.7667 0.0798147 0)
(28.4234 0.114458 0)
(27.9757 0.163006 0)
(27.4179 0.240568 0)
(26.6405 0.378127 0)
(25.6766 0.583898 0)
(24.1752 1.00982 0)
(22.2604 1.63109 0)
(19.0624 3.09978 0)
(13.9426 4.45194 0)
(6.93648 7.63994 0)
(29.9989 0.000646724 0)
(29.9857 0.00196873 0)
(29.9573 0.00337568 0)
(29.914 0.00520628 0)
(29.8574 0.00761259 0)
(29.7848 0.0108697 0)
(29.6946 0.015201 0)
(29.5813 0.0215921 0)
(29.4401 0.0300541 0)
(29.2646 0.0423827 0)
(29.0495 0.0589827 0)
(28.7656 0.0840803 0)
(28.4226 0.120589 0)
(27.9754 0.171799 0)
(27.4178 0.253762 0)
(26.6412 0.397428 0)
(25.6763 0.614725 0)
(24.1793 1.05769 0)
(22.2835 1.71165 0)
(19.1218 3.24887 0)
(14.1141 4.69299 0)
(7.06715 8.09983 0)
(29.9989 0.00067985 0)
(29.9857 0.0020693 0)
(29.9573 0.00354889 0)
(29.914 0.00547311 0)
(29.8573 0.00800242 0)
(29.7847 0.0114265 0)
(29.6945 0.0159802 0)
(29.5813 0.0226971 0)
(29.4401 0.0315977 0)
(29.265 0.0445519 0)
(29.0481 0.0621973 0)
(28.7648 0.0883219 0)
(28.4221 0.126715 0)
(27.9752 0.180602 0)
(27.4179 0.266946 0)
(26.6419 0.41674 0)
(25.6762 0.645531 0)
(24.1834 1.10528 0)
(22.3069 1.79138 0)
(19.1783 3.39524 0)
(14.2862 4.93259 0)
(7.20392 8.56661 0)
(29.9989 0.000712965 0)
(29.9857 0.00216983 0)
(29.9573 0.00372212 0)
(29.914 0.00573992 0)
(29.8574 0.00839219 0)
(29.7848 0.0119832 0)
(29.6946 0.0167593 0)
(29.5815 0.0238027 0)
(29.4402 0.033137 0)
(29.2653 0.0467825 0)
(29.046 0.0653676 0)
(28.7643 0.0925651 0)
(28.4218 0.132863 0)
(27.9752 0.189405 0)
(27.418 0.280129 0)
(26.6428 0.436059 0)
(25.6764 0.676323 0)
(24.1879 1.15258 0)
(22.3309 1.87031 0)
(19.2331 3.53888 0)
(14.4594 5.17058 0)
(7.34657 9.04044 0)
(29.9989 0.000746067 0)
(29.9857 0.00227031 0)
(29.9573 0.00389538 0)
(29.914 0.00600672 0)
(29.8573 0.00878192 0)
(29.7848 0.0125398 0)
(29.6946 0.0175383 0)
(29.5815 0.024908 0)
(29.4403 0.034675 0)
(29.2657 0.0490561 0)
(29.0443 0.0685119 0)
(28.7641 0.0968281 0)
(28.4216 0.139011 0)
(27.9753 0.198209 0)
(27.4183 0.293303 0)
(26.6439 0.455386 0)
(25.6772 0.707102 0)
(24.1931 1.19954 0)
(22.3561 1.94844 0)
(19.2873 3.67979 0)
(14.6348 5.4068 0)
(7.49497 9.52151 0)
(29.9989 0.000779158 0)
(29.9857 0.00237075 0)
(29.9573 0.00406867 0)
(29.9141 0.00627349 0)
(29.8574 0.0091716 0)
(29.7849 0.0130963 0)
(29.6947 0.0183171 0)
(29.5817 0.0260134 0)
(29.4404 0.0362099 0)
(29.2659 0.0513574 0)
(29.0433 0.0715677 0)
(28.764 0.101109 0)
(28.4215 0.14517 0)
(27.9754 0.207009 0)
(27.4188 0.306471 0)
(26.6454 0.474716 0)
(25.6789 0.737855 0)
(24.1992 1.24612 0)
(22.3824 2.0258 0)
(19.3416 3.81795 0)
(14.8133 5.64112 0)
(7.6491 10.01 0)
(29.9989 0.000812234 0)
(29.9858 0.00247115 0)
(29.9573 0.004242 0)
(29.914 0.00654026 0)
(29.8573 0.00956124 0)
(29.7848 0.0136528 0)
(29.6947 0.0190956 0)
(29.5816 0.0271189 0)
(29.4405 0.0377421 0)
(29.266 0.0536393 0)
(29.0427 0.074557 0)
(28.764 0.105399 0)
(28.4215 0.151326 0)
(27.9757 0.215807 0)
(27.4194 0.319631 0)
(26.6472 0.494039 0)
(25.6815 0.768556 0)
(24.2064 1.29232 0)
(22.41 2.1024 0)
(19.3967 3.95333 0)
(14.996 5.87343 0)
(7.809 10.5061 0)
(29.9989 0.000845299 0)
(29.9857 0.0025715 0)
(29.9573 0.00441535 0)
(29.9141 0.00680699 0)
(29.8575 0.00995085 0)
(29.785 0.0142091 0)
(29.6948 0.0198744 0)
(29.5818 0.0282228 0)
(29.4408 0.039289 0)
(29.2657 0.0559031 0)
(29.0425 0.0775177 0)
(28.7641 0.109697 0)
(28.4216 0.157485 0)
(27.9761 0.2246 0)
(27.4203 0.332778 0)
(26.6495 0.513344 0)
(25.6853 0.799179 0)
(24.2146 1.33815 0)
(22.4388 2.17823 0)
(19.4531 4.08585 0)
(15.1843 6.10363 0)
(7.97482 11.0101 0)
(29.9989 0.000878351 0)
(29.9858 0.00267181 0)
(29.9574 0.00458874 0)
(29.914 0.00707371 0)
(29.8574 0.0103404 0)
(29.7849 0.0147654 0)
(29.6948 0.020653 0)
(29.5817 0.0293277 0)
(29.441 0.0408437 0)
(29.2652 0.0582628 0)
(29.0424 0.080485 0)
(28.7642 0.113999 0)
(28.4218 0.163641 0)
(27.9766 0.233388 0)
(27.4213 0.345908 0)
(26.6522 0.532613 0)
(25.6902 0.829705 0)
(24.224 1.3836 0)
(22.4686 2.25329 0)
(19.5112 4.21544 0)
(15.3793 6.33164 0)
(8.14679 11.5223 0)
(29.9989 0.000911391 0)
(29.9858 0.00277208 0)
(29.9574 0.00476215 0)
(29.9141 0.0073404 0)
(29.8575 0.0107299 0)
(29.785 0.0153215 0)
(29.695 0.0214313 0)
(29.5819 0.0304317 0)
(29.4414 0.0424077 0)
(29.2644 0.0605836 0)
(29.0424 0.0834768 0)
(28.7644 0.118302 0)
(28.422 0.169796 0)
(27.9771 0.242168 0)
(27.4227 0.359015 0)
(26.6555 0.551835 0)
(25.6961 0.86013 0)
(24.2346 1.42869 0)
(22.4995 2.32758 0)
(19.5712 4.34197 0)
(15.5822 6.55738 0)
(8.32517 12.0429 0)
(29.9989 0.000944417 0)
(29.9858 0.00287231 0)
(29.9574 0.0049356 0)
(29.9141 0.00760707 0)
(29.8574 0.0111194 0)
(29.7849 0.0158774 0)
(29.6949 0.0222102 0)
(29.5818 0.0315316 0)
(29.4417 0.0440244 0)
(29.2637 0.0627643 0)
(29.0425 0.0864947 0)
(28.7647 0.122606 0)
(28.4223 0.175948 0)
(27.9778 0.250938 0)
(27.4243 0.372093 0)
(26.6592 0.570997 0)
(25.7029 0.89045 0)
(24.2464 1.47342 0)
(22.5314 2.40108 0)
(19.6332 4.4653 0)
(15.794 6.78077 0)
(8.5103 12.5723 0)
(29.9989 0.000977432 0)
(29.9858 0.0029725 0)
(29.9574 0.00510907 0)
(29.9141 0.0078737 0)
(29.8575 0.0115089 0)
(29.7851 0.0164332 0)
(29.6951 0.0229889 0)
(29.582 0.032631 0)
(29.442 0.0456621 0)
(29.2631 0.0649227 0)
(29.0427 0.0895327 0)
(28.7649 0.12691 0)
(28.4226 0.182096 0)
(27.9786 0.259696 0)
(27.4261 0.385137 0)
(26.6634 0.590092 0)
(25.7107 0.920662 0)
(24.2596 1.5178 0)
(22.5642 2.47378 0)
(19.697 4.58527 0)
(16.0155 7.00171 0)
(8.70254 13.1109 0)
(29.9989 0.00101043 0)
(29.9858 0.00307264 0)
(29.9574 0.00528257 0)
(29.9141 0.00814032 0)
(29.8574 0.0118983 0)
(29.785 0.0169889 0)
(29.695 0.0237674 0)
(29.5819 0.0337304 0)
(29.4422 0.0473076 0)
(29.2629 0.0670726 0)
(29.0429 0.0925823 0)
(28.7652 0.131213 0)
(28.423 0.18824 0)
(27.9796 0.26844 0)
(27.4282 0.398145 0)
(26.668 0.609114 0)
(25.7193 0.950757 0)
(24.2741 1.56181 0)
(22.598 2.54568 0)
(19.7625 4.7017 0)
(16.2471 7.22012 0)
(8.90224 13.659 0)
(29.9988 0.00104342 0)
(29.9858 0.00317275 0)
(29.9574 0.00545609 0)
(29.9141 0.0084069 0)
(29.8576 0.0122876 0)
(29.7852 0.0175445 0)
(29.6952 0.0245459 0)
(29.5821 0.034829 0)
(29.4424 0.0489614 0)
(29.263 0.0692031 0)
(29.0432 0.0956388 0)
(28.7656 0.135515 0)
(28.4234 0.194379 0)
(27.9806 0.277167 0)
(27.4305 0.411112 0)
(26.673 0.62806 0)
(25.7288 0.980723 0)
(24.29 1.60546 0)
(22.6327 2.61677 0)
(19.8295 4.81442 0)
(16.4888 7.43589 0)
(9.10976 14.217 0)
(29.9988 0.0010764 0)
(29.9858 0.00327282 0)
(29.9574 0.00562963 0)
(29.9141 0.00867345 0)
(29.8575 0.0126769 0)
(29.7851 0.0180999 0)
(29.6951 0.025324 0)
(29.5822 0.0359277 0)
(29.4423 0.0506196 0)
(29.2632 0.0713191 0)
(29.0435 0.0986996 0)
(28.7659 0.139816 0)
(28.4239 0.200513 0)
(27.9817 0.285877 0)
(27.433 0.424037 0)
(26.6783 0.646921 0)
(25.739 1.01055 0)
(24.3073 1.64875 0)
(22.6685 2.68705 0)
(19.898 4.92326 0)
(16.7407 7.64889 0)
(9.32542 14.7854 0)
(29.9988 0.00110937 0)
(29.9858 0.00337285 0)
(29.9574 0.0058032 0)
(29.9142 0.00893997 0)
(29.8576 0.0130662 0)
(29.7852 0.0186553 0)
(29.6953 0.0261015 0)
(29.5824 0.0370267 0)
(29.4423 0.05228 0)
(29.2636 0.0734237 0)
(29.0438 0.101764 0)
(28.7663 0.144116 0)
(28.4244 0.206639 0)
(27.9829 0.294568 0)
(27.4357 0.436918 0)
(26.684 0.665693 0)
(25.75 1.04022 0)
(24.326 1.69168 0)
(22.7055 2.75652 0)
(19.9677 5.02804 0)
(17.0025 7.85901 0)
(9.54952 15.3645 0)
(29.9988 0.00114232 0)
(29.9858 0.00347284 0)
(29.9574 0.00597678 0)
(29.9141 0.00920648 0)
(29.8575 0.0134552 0)
(29.7852 0.0192108 0)
(29.6952 0.0268786 0)
(29.5825 0.0381226 0)
(29.4421 0.053939 0)
(29.2642 0.0755194 0)
(29.0442 0.104831 0)
(28.7667 0.148415 0)
(28.425 0.21276 0)
(27.9843 0.303239 0)
(27.4386 0.449754 0)
(26.69 0.68437 0)
(25.7617 1.06971 0)
(24.3463 1.73423 0)
(22.7436 2.82519 0)
(20.0389 5.12862 0)
(17.2738 8.06609 0)
(9.78233 15.9548 0)
(29.9988 0.00117527 0)
(29.9858 0.0035728 0)
(29.9574 0.00615038 0)
(29.9142 0.00947292 0)
(29.8577 0.0138444 0)
(29.7853 0.0197656 0)
(29.6954 0.0276577 0)
(29.5828 0.0392161 0)
(29.442 0.0555335 0)
(29.2647 0.077608 0)
(29.0446 0.1079 0)
(28.7672 0.152712 0)
(28.4257 0.218872 0)
(27.9857 0.311888 0)
(27.4417 0.462541 0)
(26.6963 0.702946 0)
(25.7742 1.09903 0)
(24.3679 1.77641 0)
(22.7832 2.89305 0)
(20.1116 5.22485 0)
(17.5545 8.27001 0)
(10.0241 16.5566 0)
(29.9988 0.0012082 0)
(29.9858 0.00367273 0)
(29.9574 0.00632399 0)
(29.9141 0.00973937 0)
(29.8575 0.0142332 0)
(29.7853 0.0203216 0)
(29.6953 0.0284302 0)
(29.583 0.0403513 0)
(29.4416 0.0569481 0)
(29.2653 0.0796991 0)
(29.045 0.110971 0)
(28.7677 0.157007 0)
(28.4264 0.224976 0)
(27.9872 0.320515 0)
(27.445 0.475279 0)
(26.7029 0.721413 0)
(25.7873 1.12814 0)
(24.3911 1.81819 0)
(22.8244 2.9601 0)
(20.186 5.31658 0)
(17.8446 8.47061 0)
(10.275 17.1704 0)
(29.9988 0.00124113 0)
(29.9858 0.00377261 0)
(29.9574 0.0064976 0)
(29.9142 0.0100058 0)
(29.8577 0.0146221 0)
(29.7854 0.0208762 0)
(29.6955 0.0292088 0)
(29.5832 0.0414611 0)
(29.4416 0.0587292 0)
(29.2659 0.0818218 0)
(29.0454 0.114043 0)
(28.7682 0.1613 0)
(28.4271 0.231072 0)
(27.9888 0.329119 0)
(27.4484 0.487964 0)
(26.7098 0.739767 0)
(25.8011 1.15703 0)
(24.4156 1.85957 0)
(22.8673 3.02634 0)
(20.2623 5.40368 0)
(18.1443 8.66775 0)
(10.5353 17.7966 0)
(29.9988 0.00127404 0)
(29.9859 0.00387245 0)
(29.9574 0.00667124 0)
(29.9142 0.0102721 0)
(29.8576 0.0150111 0)
(29.7853 0.0214305 0)
(29.6954 0.029984 0)
(29.5832 0.0426082 0)
(29.4418 0.060487 0)
(29.2664 0.0839761 0)
(29.0458 0.117116 0)
(28.7687 0.16559 0)
(28.4279 0.237159 0)
(27.9905 0.337698 0)
(27.4519 0.500596 0)
(26.717 0.758 0)
(25.8156 1.1857 0)
(24.4415 1.90053 0)
(22.9123 3.09176 0)
(20.3406 5.486 0)
(18.4539 8.86125 0)
(10.8052 18.4357 0)
(29.9988 0.00130695 0)
(29.9858 0.00397226 0)
(29.9574 0.00684484 0)
(29.9142 0.0105385 0)
(29.8578 0.0153992 0)
(29.7855 0.0219888 0)
(29.6957 0.0307416 0)
(29.5832 0.0437759 0)
(29.4419 0.0619873 0)
(29.2668 0.0861447 0)
(29.0462 0.120189 0)
(28.7693 0.169878 0)
(28.4287 0.243237 0)
(27.9922 0.346252 0)
(27.4556 0.513171 0)
(26.7245 0.776108 0)
(25.8307 1.21413 0)
(24.4687 1.94105 0)
(22.9596 3.15634 0)
(20.4205 5.56341 0)
(18.7736 9.05098 0)
(11.085 19.088 0)
(29.9988 0.00133986 0)
(29.9859 0.00407204 0)
(29.9574 0.00701848 0)
(29.9142 0.0108046 0)
(29.8576 0.0157884 0)
(29.7854 0.0225396 0)
(29.6957 0.0315495 0)
(29.5828 0.0446887 0)
(29.442 0.0634191 0)
(29.2672 0.0883147 0)
(29.0467 0.123261 0)
(28.7698 0.174163 0)
(28.4296 0.249302 0)
(27.994 0.35478 0)
(27.4595 0.525687 0)
(26.7322 0.794087 0)
(25.8464 1.24231 0)
(24.4972 1.9811 0)
(23.0096 3.2201 0)
(20.5016 5.63576 0)
(19.1026 9.2368 0)
(11.3749 19.754 0)
(29.9988 0.00137274 0)
(29.9859 0.00417184 0)
(29.9574 0.00719217 0)
(29.9143 0.0110709 0)
(29.8578 0.016177 0)
(29.7855 0.0230946 0)
(29.6962 0.0323407 0)
(29.5817 0.0459434 0)
(29.442 0.0648801 0)
(29.2675 0.0904833 0)
(29.0471 0.126331 0)
(28.7704 0.178445 0)
(28.4305 0.255359 0)
(27.9959 0.363281 0)
(27.4635 0.538142 0)
(26.7403 0.81193 0)
(25.8627 1.27021 0)
(24.5267 2.02066 0)
(23.0626 3.28304 0)
(20.5832 5.70295 0)
(19.4377 9.41872 0)
(11.675 20.435 0)
(29.9988 0.00140546 0)
(29.9859 0.00427154 0)
(29.9574 0.00736599 0)
(29.9142 0.0113374 0)
(29.8577 0.016566 0)
(29.7854 0.0236488 0)
(29.6964 0.0331396 0)
(29.5807 0.0473171 0)
(29.4419 0.0663793 0)
(29.2677 0.0926519 0)
(29.0475 0.129399 0)
(28.771 0.182722 0)
(28.4314 0.261402 0)
(27.9978 0.371754 0)
(27.4676 0.550532 0)
(26.7486 0.829634 0)
(25.8794 1.29784 0)
(24.5573 2.05967 0)
(23.1192 3.34516 0)
(20.6645 5.76497 0)
(19.7719 9.59642 0)
(11.9851 21.1383 0)
(29.9988 0.00143771 0)
(29.9858 0.00437088 0)
(29.9574 0.0075388 0)
(29.9143 0.0116028 0)
(29.858 0.016954 0)
(29.7856 0.0241941 0)
(29.6967 0.0339873 0)
(29.5803 0.0484396 0)
(29.4419 0.0678901 0)
(29.2679 0.0948165 0)
(29.0478 0.132464 0)
(28.7717 0.186989 0)
(28.4323 0.267431 0)
(27.9998 0.380215 0)
(27.4719 0.562855 0)
(26.7572 0.847206 0)
(25.8967 1.32518 0)
(24.5889 2.09808 0)
(23.1797 3.40651 0)
(20.7456 5.8219 0)
(20.094 9.76789 0)
(12.3911 21.8854 0)
(-0.807428 0.0427725 0)
(-2.93788 0.0365255 0)
(-4.14947 0.00786893 0)
(-3.66011 -0.0141094 0)
(-2.60138 -0.0144227 0)
(-1.97858 -0.00789891 0)
(-1.60052 -0.00343342 0)
(-1.5141 -0.00130562 0)
(-1.40178 -0.00162893 0)
(-1.23117 -0.00117818 0)
(-1.17405 0.000136181 0)
(-1.17296 -0.000425787 0)
(-1.16431 -0.00106651 0)
(-1.00438 -0.00437794 0)
(-0.153428 -0.00934948 0)
(1.44165 -0.0125731 0)
(3.39192 -0.0128456 0)
(5.30837 -0.0113803 0)
(7.0902 -0.00958848 0)
(8.69288 -0.00802169 0)
(10.176 -0.00693546 0)
(11.6039 -0.0062002 0)
(13.01 -0.0056156 0)
(14.3858 -0.00513864 0)
(15.7661 -0.00489126 0)
(17.2288 -0.00419936 0)
(18.4057 -0.0041774 0)
(20.008 -0.0112934 0)
(26.9345 -0.0116363 0)
(29.354 -0.00301082 0)
(29.519 -0.000196235 0)
(29.5364 -8.18006e-05 0)
(29.6025 -0.00011795 0)
(29.6656 -0.0001008 0)
(29.7224 -4.57254e-05 0)
(-0.786629 0.126755 0)
(-2.89208 0.10886 0)
(-4.09758 0.0237482 0)
(-3.61096 -0.0417733 0)
(-2.56176 -0.0429713 0)
(-1.95181 -0.0234923 0)
(-1.58066 -0.0102343 0)
(-1.5023 -0.00389231 0)
(-1.3999 -0.00499677 0)
(-1.22949 -0.00387607 0)
(-1.1497 -0.00014453 0)
(-1.10845 -0.0013656 0)
(-1.07663 -0.00236177 0)
(-0.964264 -0.0117447 0)
(-0.222184 -0.0269702 0)
(1.31793 -0.0371282 0)
(3.30895 -0.0379611 0)
(5.27971 -0.0336394 0)
(7.08511 -0.0284157 0)
(8.68747 -0.0238222 0)
(10.1553 -0.0206552 0)
(11.5651 -0.0185242 0)
(12.9603 -0.0167986 0)
(14.3329 -0.0153654 0)
(15.7127 -0.0146304 0)
(17.1764 -0.0126369 0)
(18.3758 -0.0119214 0)
(19.7973 -0.0336967 0)
(26.6904 -0.0358857 0)
(29.3333 -0.00941305 0)
(29.5247 -0.000613806 0)
(29.5387 -0.000236864 0)
(29.6031 -0.000351519 0)
(29.6661 -0.000302179 0)
(29.7229 -0.0001372 0)
(-0.75825 0.209051 0)
(-2.84025 0.180382 0)
(-4.0386 0.0394445 0)
(-3.54823 -0.0694792 0)
(-2.5064 -0.071263 0)
(-1.91248 -0.038746 0)
(-1.54854 -0.0167406 0)
(-1.47925 -0.0061526 0)
(-1.38275 -0.00810556 0)
(-1.20555 -0.00670433 0)
(-1.10314 -0.000648562 0)
(-1.02095 -0.00345614 0)
(-0.986126 -0.00398196 0)
(-0.943093 -0.0180079 0)
(-0.298637 -0.0430351 0)
(1.21044 -0.0612823 0)
(3.24831 -0.0635556 0)
(5.26859 -0.0560378 0)
(7.09425 -0.0469977 0)
(8.69719 -0.0393389 0)
(10.152 -0.0341421 0)
(11.5436 -0.030658 0)
(12.9274 -0.0279006 0)
(14.2957 -0.025589 0)
(15.6743 -0.0243829 0)
(17.1374 -0.0211462 0)
(18.359 -0.0194218 0)
(19.6305 -0.0552136 0)
(26.4673 -0.0602122 0)
(29.3125 -0.0164337 0)
(29.5303 -0.00109737 0)
(29.541 -0.000380861 0)
(29.6038 -0.000581368 0)
(29.6665 -0.000503078 0)
(29.7233 -0.000228633 0)
(-0.724488 0.289361 0)
(-2.78342 0.251286 0)
(-3.97024 0.0548991 0)
(-3.46583 -0.0973028 0)
(-2.43101 -0.0991156 0)
(-1.85666 -0.0536068 0)
(-1.5017 -0.0230104 0)
(-1.44255 -0.0082536 0)
(-1.35012 -0.0112988 0)
(-1.16637 -0.00990647 0)
(-1.04324 -0.00193838 0)
(-0.919676 -0.00581315 0)
(-0.887688 -0.00482644 0)
(-0.914741 -0.0228923 0)
(-0.359615 -0.058482 0)
(1.11876 -0.0861334 0)
(3.19996 -0.0903515 0)
(5.27134 -0.0793362 0)
(7.11943 -0.0660122 0)
(8.72528 -0.0549462 0)
(10.1689 -0.0475323 0)
(11.5418 -0.0426846 0)
(12.9124 -0.0389451 0)
(14.2747 -0.035788 0)
(15.6509 -0.0341242 0)
(17.1122 -0.0297216 0)
(18.3555 -0.0265265 0)
(19.5057 -0.0762258 0)
(26.2643 -0.0849448 0)
(29.2917 -0.0239724 0)
(29.5357 -0.0016289 0)
(29.5434 -0.000515379 0)
(29.6046 -0.000807868 0)
(29.6671 -0.000703449 0)
(29.7237 -0.000319939 0)
(-0.685208 0.367483 0)
(-2.72156 0.321361 0)
(-3.89053 0.0697327 0)
(-3.36075 -0.12532 0)
(-2.33493 -0.126414 0)
(-1.78378 -0.0679306 0)
(-1.44067 -0.0289681 0)
(-1.39244 -0.0101645 0)
(-1.30276 -0.0145184 0)
(-1.11352 -0.0134002 0)
(-0.968858 -0.00397461 0)
(-0.802121 -0.00849685 0)
(-0.777593 -0.00504206 0)
(-0.874584 -0.0264763 0)
(-0.398351 -0.0729701 0)
(1.05181 -0.111058 0)
(3.17187 -0.117948 0)
(5.29601 -0.103286 0)
(7.16854 -0.085271 0)
(8.77807 -0.0705411 0)
(10.2106 -0.060782 0)
(11.5631 -0.0545607 0)
(12.9178 -0.0499022 0)
(14.2717 -0.0459519 0)
(15.6442 -0.0438516 0)
(17.1022 -0.0383569 0)
(18.3663 -0.03339 0)
(19.4198 -0.0967118 0)
(26.0798 -0.109849 0)
(29.2708 -0.0319901 0)
(29.5407 -0.00221271 0)
(29.5458 -0.000641262 0)
(29.6055 -0.00103097 0)
(29.6677 -0.000903149 0)
(29.7242 -0.000411038 0)
(-0.640177 0.443157 0)
(-2.65449 0.39047 0)
(-3.79716 0.0835675 0)
(-3.22928 -0.153732 0)
(-2.21683 -0.153105 0)
(-1.69278 -0.081633 0)
(-1.36528 -0.0345663 0)
(-1.32847 -0.0118918 0)
(-1.24078 -0.017764 0)
(-1.04771 -0.0171876 0)
(-0.879428 -0.00677454 0)
(-0.667094 -0.0114999 0)
(-0.653301 -0.0045997 0)
(-0.817801 -0.0288495 0)
(-0.407098 -0.0865579 0)
(1.0229 -0.13583 0)
(3.17984 -0.146031 0)
(5.35845 -0.127712 0)
(7.25623 -0.104685 0)
(8.86657 -0.0860685 0)
(10.2845 -0.0738576 0)
(11.6128 -0.0662561 0)
(12.9477 -0.0607453 0)
(14.2899 -0.0560618 0)
(15.6568 -0.053551 0)
(17.1097 -0.047043 0)
(18.3932 -0.040076 0)
(19.37 -0.116695 0)
(25.9115 -0.134823 0)
(29.25 -0.0404387 0)
(29.5454 -0.00284877 0)
(29.5483 -0.000759378 0)
(29.6065 -0.0012507 0)
(29.6684 -0.00110204 0)
(29.7247 -0.000501853 0)
(-0.589131 0.516114 0)
(-2.58189 0.458426 0)
(-3.68733 0.095961 0)
(-3.06677 -0.182755 0)
(-2.07483 -0.17906 0)
(-1.58192 -0.0946055 0)
(-1.27451 -0.0397417 0)
(-1.24948 -0.0134363 0)
(-1.16338 -0.0210204 0)
(-0.96843 -0.0212722 0)
(-0.773994 -0.0103929 0)
(-0.513164 -0.0148047 0)
(-0.511352 -0.00353074 0)
(-0.738565 -0.0302053 0)
(-0.378912 -0.099507 0)
(1.04508 -0.160544 0)
(3.24487 -0.174541 0)
(5.48395 -0.152572 0)
(7.40797 -0.124225 0)
(9.00976 -0.101473 0)
(10.403 -0.0866998 0)
(11.6995 -0.0777207 0)
(13.0085 -0.0714373 0)
(14.3345 -0.0660944 0)
(15.6934 -0.0632072 0)
(17.1385 -0.0557672 0)
(18.4395 -0.0466283 0)
(19.3556 -0.136158 0)
(25.7577 -0.159792 0)
(29.2292 -0.0492787 0)
(29.5497 -0.00353697 0)
(29.5508 -0.000870652 0)
(29.6076 -0.00146712 0)
(29.6692 -0.00129998 0)
(29.7252 -0.000592303 0)
(-0.531788 0.586075 0)
(-2.50329 0.524987 0)
(-3.55771 0.106382 0)
(-2.86826 -0.212559 0)
(-1.90705 -0.204056 0)
(-1.44917 -0.10671 0)
(-1.1667 -0.0444184 0)
(-1.15361 -0.0147971 0)
(-1.0688 -0.0242645 0)
(-0.873864 -0.0256571 0)
(-0.650384 -0.0148606 0)
(-0.337251 -0.0184717 0)
(-0.346006 -0.00190296 0)
(-0.629148 -0.0307367 0)
(-0.305787 -0.112108 0)
(1.13187 -0.185483 0)
(3.39137 -0.203664 0)
(5.70714 -0.177949 0)
(7.66498 -0.143866 0)
(9.24065 -0.116656 0)
(10.587 -0.0991997 0)
(11.8367 -0.088871 0)
(13.1097 -0.0819231 0)
(14.413 -0.0760184 0)
(15.7608 -0.0728001 0)
(17.195 -0.0645118 0)
(18.5099 -0.0530763 0)
(19.3787 -0.155077 0)
(25.6172 -0.184677 0)
(29.2086 -0.0584759 0)
(29.5537 -0.00427702 0)
(29.5534 -0.000976068 0)
(29.6088 -0.00168027 0)
(29.67 -0.00149683 0)
(29.7258 -0.000682308 0)
(-0.467886 0.652742 0)
(-2.41808 0.589834 0)
(-3.40454 0.114215 0)
(-2.63009 -0.243263 0)
(-1.71256 -0.227815 0)
(-1.29267 -0.117811 0)
(-1.03983 -0.0485202 0)
(-1.03846 -0.015978 0)
(-0.954489 -0.0274771 0)
(-0.761017 -0.0303525 0)
(-0.504815 -0.0202631 0)
(-0.134132 -0.0225766 0)
(-0.148798 0.000173562 0)
(-0.478866 -0.0306273 0)
(-0.17545 -0.124637 0)
(1.30177 -0.211043 0)
(3.64795 -0.233835 0)
(6.06719 -0.204149 0)
(8.08275 -0.163618 0)
(9.61352 -0.131433 0)
(10.8728 -0.111166 0)
(12.0466 -0.0995662 0)
(13.2662 -0.092116 0)
(14.5368 -0.0857881 0)
(15.8689 -0.0823031 0)
(17.2881 -0.0732519 0)
(18.6117 -0.0594403 0)
(19.4457 -0.173421 0)
(25.4904 -0.209378 0)
(29.1883 -0.067998 0)
(29.5572 -0.00506836 0)
(29.5561 -0.0010767 0)
(29.6102 -0.0018902 0)
(29.6709 -0.00169245 0)
(29.7263 -0.000771789 0)
(-0.397185 0.715794 0)
(-2.32548 0.652576 0)
(-3.22372 0.118807 0)
(-2.35198 -0.274915 0)
(-1.4921 -0.250044 0)
(-1.11146 -0.127799 0)
(-0.891952 -0.0519867 0)
(-0.901345 -0.0169932 0)
(-0.817293 -0.0306504 0)
(-0.625798 -0.0353875 0)
(-0.331842 -0.0266833 0)
(0.10334 -0.0272844 0)
(0.0915461 0.00252441 0)
(-0.272828 -0.0300971 0)
(0.0311516 -0.137406 0)
(1.58087 -0.237701 0)
(4.04562 -0.265606 0)
(6.59366 -0.231637 0)
(8.70449 -0.183604 0)
(10.1975 -0.145521 0)
(11.3184 -0.122265 0)
(12.3659 -0.10957 0)
(13.5011 -0.101876 0)
(14.7224 -0.0953342 0)
(16.032 -0.09168 0)
(17.4313 -0.0819511 0)
(18.7551 -0.0657337 0)
(19.5683 -0.191142 0)
(25.3794 -0.233776 0)
(29.1687 -0.07781 0)
(29.5602 -0.00591002 0)
(29.5587 -0.00117369 0)
(29.6116 -0.00209698 0)
(29.6719 -0.00188671 0)
(29.7269 -0.000860664 0)
(-0.319489 0.774887 0)
(-2.22458 0.712736 0)
(-3.01104 0.119554 0)
(-2.03883 -0.307447 0)
(-1.24855 -0.270498 0)
(-0.906091 -0.136628 0)
(-0.721625 -0.0547944 0)
(-0.73962 -0.0178785 0)