/*--------------------------------*- C++ -*----------------------------------*\
| =========                 |                                                 |
| \\      /  F ield         | OpenFOAM: The Open Source CFD Toolbox           |
|  \\    /   O peration     | Version:  v1912                                 |
|   \\  /    A nd           | Website:  www.openfoam.com                      |
|    \\/     M anipulation  |                                                 |
\*---------------------------------------------------------------------------*/
FoamFile
{
    version     2.0;
    format      ascii;
    class       volScalarField;
    location    "290";
    object      yPlus;
}
// * * * * * * * * * * * * * * * * * * * * * * * * * * * * * * * * * * * * * //

dimensions      [0 0 0 0 0 0 0];


internalField   uniform 0;

boundaryField
{
    inlet
    {
        type            calculated;
        value           uniform 0;
    }
    outlet
    {
        type            calculated;
        value           uniform 0;
    }
    lowerSymmetry
    {
        type            symmetryPlane;
    }
    obstical
    {
        type            calculated;
        value           nonuniform List<scalar> 
88
(
484.306
486.5
490.895
497.479
506.185
516.924
529.604
544.133
560.422
578.386
597.944
619.012
641.505
665.33
690.392
716.596
743.854
772.086
801.223
831.205
861.986
893.53
925.808
958.803
992.507
1026.92
1062.04
1097.88
1134.45
1171.78
1209.89
1248.79
1288.51
1329.07
1370.5
1412.81
1456.02
1500.16
1545.25
1591.32
1638.38
1686.51
1736.1
1791.09
82.137
81.1131
80.2223
79.6644
79.4372
79.5303
79.9339
80.6437
81.6639
83.0088
84.7025
86.777
89.2693
92.2177
95.6584
99.6203
104.12
109.154
114.677
120.583
126.647
132.731
138.696
144.403
149.712
154.482
158.566
161.802
163.985
164.838
163.988
160.972
155.288
146.483
134.257
118.538
99.4776
77.4513
53.7248
36.9239
51.179
83.2525
120.023
159.895
)
;
    }
    obsticalTop
    {
        type            calculated;
        value           nonuniform List<scalar> 
20
(
53.3244
38.6448
47.0559
53.1846
56.0554
57.7138
58.3391
58.0606
57.1402
55.7115
53.7523
51.1563
47.8324
43.5994
38.4268
31.6771
25.3453
15.8981
14.3253
11.099
)
;
    }
    top
    {
        type            calculated;
        value           uniform 0;
    }
    defaultFaces
    {
        type            empty;
    }
}


// ************************************************************************* //
