/*--------------------------------*- C++ -*----------------------------------*\
| =========                 |                                                 |
| \\      /  F ield         | OpenFOAM: The Open Source CFD Toolbox           |
|  \\    /   O peration     | Version:  v1912                                 |
|   \\  /    A nd           | Website:  www.openfoam.com                      |
|    \\/     M anipulation  |                                                 |
\*---------------------------------------------------------------------------*/
FoamFile
{
    version     2.0;
    format      ascii;
    class       volScalarField;
    location    "225";
    object      p;
}
// * * * * * * * * * * * * * * * * * * * * * * * * * * * * * * * * * * * * * //

dimensions      [0 2 -2 0 0 0 0];


internalField   nonuniform List<scalar> 
2000
(
-0.016919
0.0997816
0.156106
0.152232
0.139082
0.13406
0.133515
0.134102
0.134056
0.134401
0.13463
0.134555
0.134455
0.134467
0.134538
0.13457
0.134556
0.134524
0.13448
0.134423
0.134345
0.13424
0.134098
0.133912
0.133672
0.133369
0.133002
0.132574
0.132106
0.131635
0.131211
0.130896
0.130757
0.13086
0.131265
0.132011
0.133122
0.134613
0.136498
0.138767
0.141413
0.144459
0.147884
0.151674
0.155821
0.160317
0.16515
0.170307
0.175768
0.181506
0.187486
0.193667
0.199999
0.206427
0.212887
0.219306
0.225607
0.231702
0.237496
0.242892
0.247823
0.252159
0.255821
0.258693
0.260653
0.26158
0.261351
0.259835
0.256888
0.252354
0.246053
0.237776
0.227269
0.214217
0.198188
0.178641
0.154478
0.125055
0.0846475
0.0429897
0.0411986
0.125588
0.163645
0.150948
0.134742
0.132713
0.137596
0.138557
0.134443
0.132345
0.133425
0.134326
0.134362
0.134478
0.134677
0.134681
0.134611
0.134548
0.134518
0.134497
0.134467
0.134414
0.134328
0.134189
0.133971
0.133647
0.133198
0.13262
0.131932
0.131179
0.130432
0.12978
0.129315
0.129127
0.12929
0.129856
0.13085
0.132284
0.134222
0.136647
0.139464
0.142575
0.145998
0.149751
0.15384
0.158267
0.163023
0.168095
0.173462
0.179096
0.18496
0.191009
0.197191
0.203442
0.209693
0.215872
0.221899
0.227685
0.233134
0.238145
0.242598
0.246387
0.249431
0.251616
0.252821
0.252923
0.251796
0.249305
0.245303
0.239625
0.232087
0.22247
0.210515
0.195898
0.178212
0.156943
0.131327
0.100869
0.0630822
0.0287338
0.0889713
0.122409
0.145189
0.144696
0.137385
0.135402
0.13672
0.136085
0.134289
0.134188
0.136435
0.136204
0.134078
0.133396
0.134266
0.134736
0.134774
0.134691
0.134638
0.134623
0.134609
0.134573
0.134505
0.134383
0.134173
0.133842
0.133368
0.132755
0.132034
0.131263
0.130522
0.129901
0.129492
0.129374
0.129609
0.130239
0.131287
0.132729
0.134534
0.136732
0.13932
0.142265
0.145561
0.149206
0.153197
0.157529
0.162189
0.167162
0.172423
0.177941
0.183677
0.189583
0.195604
0.201677
0.207731
0.213687
0.219461
0.224962
0.230093
0.234753
0.238838
0.242249
0.244883
0.246629
0.247369
0.246984
0.245348
0.242329
0.237781
0.231543
0.223433
0.21324
0.200713
0.18556
0.167426
0.145916
0.120509
0.091165
0.0561836
0.0266213
0.11084
0.12105
0.134558
0.140439
0.139929
0.138866
0.13839
0.137323
0.136091
0.135475
0.135803
0.135817
0.135575
0.135051
0.135011
0.134929
0.134602
0.134489
0.134611
0.134754
0.134826
0.134839
0.134806
0.134711
0.134521
0.134202
0.133738
0.133134
0.132427
0.131676
0.130957
0.130359
0.129965
0.129849
0.130065
0.130645
0.131602
0.132978
0.134748
0.136908
0.139449
0.142356
0.145622
0.149244
0.153215
0.157528
0.162168
0.167117
0.172348
0.177827
0.183512
0.189353
0.195292
0.201263
0.207194
0.213003
0.218605
0.223907
0.228813
0.233224
0.237038
0.240154
0.242467
0.243869
0.244248
0.243488
0.241468
0.238057
0.233116
0.226488
0.217997
0.207442
0.19459
0.179174
0.160892
0.139437
0.11443
0.0860535
0.0527677
0.0255412
0.120939
0.125258
0.134415
0.140655
0.141785
0.141275
0.141173
0.140978
0.140107
0.138938
0.138047
0.137535
0.137066
0.136206
0.135844
0.135911
0.135801
0.135524
0.135261
0.135093
0.13505
0.135093
0.135145
0.135142
0.135032
0.134783
0.13438
0.133838
0.133192
0.132504
0.131848
0.131308
0.13096
0.130871
0.131089
0.131654
0.132605
0.133958
0.13571
0.137855
0.140383
0.143282
0.146543
0.150162
0.15413
0.158435
0.163062
0.167988
0.173184
0.178614
0.184233
0.189989
0.195823
0.201666
0.207445
0.213079
0.218482
0.223562
0.228226
0.232376
0.235914
0.23874
0.240754
0.241852
0.241927
0.240868
0.238558
0.234872
0.229675
0.222816
0.214124
0.203408
0.190446
0.174992
0.156772
0.135531
0.110936
0.0832973
0.0509397
0.0247354
0.127091
0.129968
0.136277
0.141395
0.143104
0.143299
0.143662
0.143982
0.143673
0.142927
0.142198
0.141513
0.140533
0.139301
0.138474
0.138096
0.137718
0.137269
0.136907
0.136681
0.136531
0.136388
0.136228
0.136056
0.13586
0.135605
0.135258
0.134812
0.134284
0.133724
0.133194
0.132769
0.132511
0.13248
0.132746
0.133357
0.134346
0.135725
0.137496
0.139653
0.14219
0.145096
0.148363
0.151983
0.155946
0.160237
0.164839
0.169725
0.174865
0.18022
0.185743
0.191381
0.197073
0.20275
0.20834
0.213762
0.218931
0.223761
0.228159
0.232033
0.235288
0.237831
0.239564
0.240389
0.240205
0.238906
0.236379
0.232505
0.227151
0.22017
0.211398
0.200646
0.187701
0.172327
0.154259
0.133266
0.109004
0.0818607
0.0499312
0.0240484
0.131329
0.133533
0.138058
0.142245
0.144319
0.145111
0.145783
0.146361
0.146489
0.146242
0.145884
0.145413
0.144642
0.143636
0.142718
0.141954
0.141196
0.140476
0.139907
0.139507
0.139205
0.138935
0.138667
0.138384
0.138059
0.137665
0.13719
0.136649
0.13608
0.135531
0.135056
0.134703
0.134537
0.134623
0.134999
0.135711
0.136785
0.13823
0.140051
0.142244
0.144806
0.147729
0.151005
0.154622
0.158571
0.162833
0.167389
0.172211
0.177265
0.182511
0.187902
0.193384
0.198894
0.204367
0.20973
0.214906
0.219813
0.224367
0.228483
0.232073
0.235048
0.237318
0.238792
0.239378
0.238978
0.237491
0.234809
0.230815
0.225378
0.218357
0.209585
0.19888
0.186028
0.170797
0.152919
0.132166
0.108155
0.0813104
0.0494939
0.0235069
0.134339
0.136181
0.139821
0.143501
0.145759
0.146891
0.14774
0.148474
0.148878
0.148949
0.148853
0.148629
0.148197
0.147563
0.146873
0.146188
0.145468
0.14474
0.144071
0.143497
0.143006
0.142574
0.142183
0.141806
0.14141
0.140964
0.140455
0.139891
0.139302
0.138734
0.138242
0.137882
0.1377
0.137763
0.13813
0.138851
0.139949
0.141431
0.143291
0.14552
0.148109
0.151047
0.154324
0.157927
0.161843
0.166053
0.170535
0.17526
0.180194
0.185296
0.190518
0.195805
0.2011
0.206335
0.211443
0.216348
0.220976
0.225246
0.229078
0.232389
0.235098
0.237118
0.238364
0.238748
0.238175
0.236548
0.233762
0.229702
0.224239
0.21723
0.208514
0.197904
0.185189
0.170132
0.152455
0.131922
0.108095
0.0814045
0.0495017
0.0231296
0.136549
0.138246
0.141511
0.144933
0.147266
0.148603
0.149601
0.15046
0.151032
0.151291
0.151365
0.151318
0.151114
0.150744
0.150295
0.149829
0.149327
0.148786
0.148243
0.147729
0.147248
0.146787
0.146336
0.145881
0.145412
0.144916
0.144388
0.143839
0.143292
0.142783
0.142359
0.142073
0.141983
0.142116
0.142529
0.143245
0.144302
0.145722
0.147512
0.149669
0.152188
0.155057
0.158263
0.161789
0.165619
0.169729
0.174093
0.178681
0.183456
0.188376
0.193394
0.198457
0.203509
0.208487
0.213325
0.217954
0.222301
0.226294
0.229857
0.232911
0.23538
0.237182
0.238235
0.238454
0.237749
0.236022
0.233172
0.229083
0.223629
0.216668
0.208036
0.197547
0.184987
0.170114
0.152638
0.132305
0.108618
0.0819829
0.0498774
0.0229238
0.138213
0.139893
0.143044
0.146344
0.148701
0.150184
0.151331
0.152312
0.153013
0.153408
0.153607
0.153678
0.153609
0.153399
0.153114
0.152811
0.15248
0.152112
0.151731
0.151362
0.151003
0.150643
0.150269
0.149874
0.149451
0.148995
0.148508
0.148005
0.147511
0.147064
0.146708
0.146493
0.146471
0.146684
0.147167
0.147952
0.149055
0.150491
0.152268
0.154386
0.15684
0.159621
0.162719
0.166119
0.169804
0.173753
0.17794
0.182335
0.186902
0.191599
0.19638
0.201196
0.20599
0.210703
0.215273
0.219635
0.22372
0.227459
0.230779
0.233608
0.23587
0.237489
0.238383
0.23847
0.237661
0.235863
0.232972
0.228876
0.223448
0.216547
0.20801
0.197649
0.185248
0.170559
0.153277
0.133129
0.109562
0.0829307
0.0505768
0.0229074
0.139473
0.141218
0.144416
0.147681
0.150043
0.151634
0.152914
0.154007
0.154815
0.155328
0.155637
0.155804
0.155835
0.155734
0.155557
0.155353
0.155124
0.154866
0.154595
0.15433
0.154071
0.153805
0.153521
0.153213
0.152877
0.152509
0.152115
0.15171
0.151321
0.150982
0.150735
0.150622
0.15069
0.150973
0.15149
0.152294
0.153405
0.154832
0.156582
0.158658
0.161054
0.163763
0.166774
0.170071
0.173637
0.177449
0.181483
0.185707
0.190088
0.194585
0.199156
0.20375
0.208317
0.212801
0.217141
0.221275
0.225139
0.228666
0.231786
0.23443
0.236523
0.23799
0.238755
0.238735
0.237844
0.235988
0.233067
0.228969
0.223569
0.216725
0.208276
0.198034
0.18578
0.171264
0.154167
0.134197
0.110749
0.0841182
0.0515353
0.0231297
0.140417
0.142298
0.145656
0.148935
0.151287
0.152959
0.154355
0.155541
0.156439
0.157052
0.157457
0.157714
0.157833
0.157824
0.157734
0.157605
0.157448
0.157263
0.157062
0.156862
0.156662
0.156453
0.156226
0.155975
0.155697
0.155392
0.155068
0.15474
0.154432
0.154179
0.154017
0.153986
0.154126
0.154466
0.155029
0.155867
0.157
0.158434
0.160175
0.162225
0.16458
0.167232
0.17017
0.17338
0.176846
0.180546
0.184454
0.188543
0.192777
0.19712
0.201529
0.205956
0.210352
0.214661
0.218827
0.222789
0.226484
0.229848
0.232813
0.23531
0.237269
0.238616
0.239275
0.239167
0.238206
0.236301
0.233351
0.229247
0.223865
0.217064
0.208684
0.198536
0.186401
0.172025
0.155081
0.135261
0.11191
0.0852796
0.0524714
0.0234814
0.141107
0.143195
0.146789
0.150096
0.152424
0.154164
0.155659
0.156924
0.157895
0.15859
0.159079
0.159415
0.159612
0.159685
0.159673
0.159614
0.159521
0.159398
0.159254
0.159103
0.158946
0.158776
0.158587
0.158373
0.158133
0.157869
0.15759
0.157312
0.157059
0.156862
0.156757
0.156781
0.156969
0.157352
0.157959
0.158824
0.15997
0.161406
0.163138
0.165167
0.167491
0.170102
0.17299
0.176141
0.179538
0.18316
0.186982
0.190974
0.195105
0.199335
0.203624
0.207925
0.212189
0.216364
0.220393
0.224218
0.227778
0.231009
0.233846
0.236223
0.238071
0.239318
0.239889
0.239706
0.238685
0.236736
0.23376
0.229648
0.224277
0.217507
0.209177
0.1991
0.187054
0.172783
0.155951
0.136238
0.112941
0.0862854
0.0531826
0.0237775
0.14159
0.143958
0.147833
0.151158
0.153454
0.155254
0.156836
0.158166
0.159197
0.15996
0.160521
0.160924
0.161189
0.161332
0.161389
0.161393
0.161361
0.161295
0.161204
0.161098
0.160981
0.160847
0.16069
0.160507
0.160298
0.160067
0.159823
0.159583
0.159371
0.159217
0.159154
0.159219
0.159445
0.159862
0.160501
0.161386
0.162542
0.163979
0.165704
0.167718
0.170018
0.172597
0.175445
0.178549
0.18189
0.185448
0.189198
0.193112
0.197156
0.201293
0.205482
0.20968
0.213836
0.2179
0.221816
0.225529
0.228977
0.232101
0.234835
0.237115
0.238873
0.24004
0.24054
0.240298
0.239231
0.237249
0.234255
0.23014
0.224781
0.21804
0.209755
0.19974
0.18777
0.173588
0.156848
0.137222
0.113958
0.0872753
0.0538211
0.0241267
0.1419
0.144627
0.148802
0.152119
0.15438
0.156238
0.157895
0.159278
0.160358
0.16118
0.1618
0.162262
0.162584
0.162787
0.162903
0.162964
0.162985
0.16297
0.162927
0.162863
0.162783
0.162683
0.162558
0.162404
0.162224
0.162023
0.161809
0.161602
0.161423
0.161304
0.161275
0.161373
0.161629
0.162072
0.162732
0.163631
0.164792
0.166229
0.167946
0.169945
0.172223
0.174774
0.177587
0.180649
0.183941
0.187445
0.191134
0.19498
0.198952
0.203011
0.207119
0.21123
0.215297
0.219271
0.223096
0.226718
0.230077
0.233114
0.235766
0.237969
0.239656
0.240758
0.241203
0.240915
0.239812
0.237805
0.234799
0.230685
0.225341
0.218629
0.210387
0.20043
0.188531
0.17443
0.157776
0.138237
0.115012
0.0883405
0.054525
0.0246866
0.142067
0.145232
0.1497
0.152981
0.155211
0.157125
0.158844
0.16027
0.161393
0.162264
0.162936
0.163446
0.163819
0.164073
0.164239
0.164349
0.164417
0.164447
0.164445
0.164419
0.164373
0.164303
0.164206
0.16408
0.163926
0.163751
0.163564
0.163384
0.163234
0.163143
0.163143
0.163266
0.163547
0.164009
0.164683
0.165592
0.166757
0.168192
0.169901
0.171885
0.174144
0.176669
0.179451
0.182476
0.185728
0.189184
0.192822
0.196612
0.200523
0.204518
0.208557
0.212598
0.216594
0.220494
0.224246
0.227794
0.231081
0.234048
0.236633
0.238772
0.2404
0.241449
0.241847
0.241521
0.240388
0.238362
0.235346
0.231235
0.225907
0.219222
0.211022
0.201118
0.189286
0.175264
0.158695
0.139249
0.11608
0.0894644
0.0553131
0.025457
0.142118
0.145798
0.150531
0.153748
0.155954
0.157922
0.159692
0.161154
0.162313
0.163226
0.163942
0.164495
0.16491
0.165208
0.165418
0.16557
0.165679
0.165748
0.165783
0.16579
0.165773
0.165731
0.165659
0.165557
0.165426
0.165273
0.165109
0.164953
0.164826
0.164759
0.164781
0.164925
0.165225
0.165702
0.166387
0.167303
0.16847
0.169901
0.171601
0.173573
0.175813
0.178316
0.181071
0.184065
0.187281
0.190698
0.194292
0.198036
0.201897
0.20584
0.209825
0.21381
0.217746
0.221586
0.225277
0.228763
0.231989
0.234894
0.237419
0.239501
0.241076
0.242077
0.242435
0.242075
0.240918
0.238878
0.235859
0.231756
0.226446
0.219793
0.211636
0.201787
0.190022
0.176078
0.159594
0.140245
0.117142
0.0906191
0.0561745
0.0263644
0.142073
0.146342
0.151294
0.154427
0.15662
0.158638
0.160448
0.161939
0.163131
0.16408
0.164833
0.165423
0.165874
0.16621
0.166458
0.166647
0.166791
0.166895
0.166962
0.166998
0.167007
0.166989
0.16694
0.166858
0.166747
0.166614
0.166469
0.166332
0.166225
0.166176
0.166215
0.166377
0.166691
0.167179
0.167872
0.168793
0.169961
0.171388
0.173081
0.175041
0.177266
0.179749
0.182482
0.18545
0.188637
0.192022
0.195582
0.199288
0.203108
0.207006
0.210944
0.214877
0.21876
0.222543
0.226175
0.229602
0.232768
0.235616
0.238087
0.240119
0.24165
0.242613
0.242941
0.242559
0.241388
0.239343
0.23633
0.23224
0.226955
0.220336
0.212223
0.202429
0.190728
0.17686
0.160459
0.141206
0.118178
0.0917694
0.0570869
0.0273398
0.141953
0.146874
0.151987
0.155025
0.157215
0.159279
0.161122
0.162636
0.163854
0.164835
0.16562
0.166241
0.166725
0.167094
0.167375
0.167596
0.167772
0.167906
0.168
0.168061
0.168094
0.168097
0.168067
0.168004
0.167911
0.167795
0.167668
0.167547
0.167456
0.167423
0.167477
0.167651
0.167979
0.168474
0.169172
0.170095
0.171262
0.172685
0.174372
0.176322
0.178535
0.181003
0.183718
0.186664
0.189825
0.193181
0.196706
0.200372
0.204149
0.208
0.211887
0.215768
0.219596
0.223325
0.226904
0.230279
0.233397
0.2362
0.238629
0.240625
0.242126
0.243064
0.243373
0.242979
0.241804
0.239762
0.236758
0.232687
0.227428
0.220844
0.212774
0.203033
0.191394
0.177599
0.161278
0.14212
0.11917
0.0928868
0.0580302
0.0283344
0.141776
0.1474
0.152612
0.155551
0.157747
0.15985
0.161722
0.163258
0.1645
0.165507
0.166318
0.166966
0.167477
0.167873
0.168183
0.168432
0.168636
0.168796
0.168916
0.169
0.169052
0.169074
0.169061
0.169013
0.168935
0.168832
0.168719
0.168612
0.168534
0.168514
0.16858
0.168765
0.169103
0.169609
0.170314
0.171241
0.172407
0.173826
0.175505
0.177443
0.179638
0.182085
0.184773
0.187689
0.190817
0.194135
0.197621
0.201246
0.20498
0.208787
0.21263
0.216467
0.220253
0.22394
0.227479
0.230816
0.233898
0.236668
0.239068
0.241039
0.242518
0.243441
0.243739
0.243341
0.242166
0.240132
0.237142
0.233092
0.227861
0.221312
0.213285
0.203595
0.192016
0.178288
0.162043
0.142976
0.120107
0.0939528
0.0589875
0.0293189
0.141555
0.147921
0.153168
0.15602
0.158224
0.160354
0.162245
0.1638
0.165065
0.166097
0.166933
0.167606
0.168141
0.168561
0.168895
0.169168
0.169395
0.169579
0.16972
0.169825
0.169896
0.169935
0.169939
0.169907
0.169842
0.169753
0.169652
0.169555
0.169488
0.169477
0.169552
0.169744
0.170075
0.170582
0.171284
0.172203
0.173358
0.174763
0.176424
0.178342
0.180515
0.182938
0.1856
0.188489
0.191587
0.194875
0.19833
0.201923
0.205625
0.209399
0.213209
0.217012
0.220765
0.22442
0.227928
0.231237
0.234292
0.237038
0.239418
0.241372
0.242838
0.243752
0.244046
0.243648
0.24248
0.240457
0.237484
0.233456
0.228254
0.22174
0.213755
0.204114
0.19259
0.178927
0.162754
0.143772
0.120984
0.0949555
0.0599426
0.0302765
0.141307
0.148437
0.153642
0.156435
0.158668
0.160823
0.162725
0.16429
0.165569
0.166618
0.167474
0.168168
0.168725
0.169169
0.169525
0.16982
0.170069
0.170272
0.17043
0.170548
0.170631
0.170679
0.170691
0.170665
0.170605
0.17052
0.170421
0.170326
0.170259
0.170248
0.170321
0.170509
0.170835
0.171338
0.172034
0.172944
0.174089
0.175483
0.177131
0.179035
0.181192
0.183597
0.18624
0.189108
0.192184
0.195449
0.198878
0.202446
0.206121
0.209869
0.213652
0.217429
0.221156
0.224787
0.228272
0.231559
0.234596
0.237326
0.239692
0.241636
0.243095
0.244006
0.244301
0.243908
0.242749
0.240739
0.237785
0.233781
0.228607
0.222127
0.214182
0.204586
0.193114
0.179511
0.163405
0.144503
0.121794
0.0958827
0.060873
0.0311919
0.141041
0.148977
0.154032
0.156752
0.159023
0.161215
0.163143
0.164729
0.166024
0.167088
0.167957
0.168661
0.169228
0.16968
0.170046
0.17035
0.170608
0.170819
0.170983
0.171107
0.171194
0.171246
0.17126
0.171236
0.171178
0.171093
0.170995
0.170902
0.170836
0.170826
0.170901
0.171091
0.171415
0.171916
0.172607
0.173511
0.174649
0.176034
0.177672
0.179564
0.181708
0.184098
0.186725
0.189575
0.192633
0.195879
0.199289
0.202836
0.206491
0.210218
0.213981
0.217739
0.221447
0.22506
0.228529
0.231802
0.234825
0.237545
0.239903
0.241842
0.243299
0.24421
0.244509
0.244124
0.242976
0.24098
0.238045
0.234064
0.228917
0.222469
0.21456
0.205006
0.193581
0.180032
0.163986
0.145155
0.12252
0.0967164
0.0617414
0.0320447
0.140715
0.14961
0.154507
0.157106
0.159357
0.161542
0.163467
0.165055
0.166355
0.167424
0.168299
0.169008
0.16958
0.170038
0.170409
0.170719
0.170982
0.171199
0.171368
0.171495
0.171587
0.171643
0.171661
0.17164
0.171584
0.171502
0.171406
0.171314
0.171249
0.171237
0.17131
0.1715
0.171825
0.172327
0.173016
0.173916
0.17505
0.176429
0.178059
0.179943
0.182078
0.184458
0.187074
0.189912
0.192957
0.196189
0.199585
0.203118
0.206757
0.21047
0.214218
0.217962
0.221658
0.225259
0.228717
0.23198
0.234997
0.237711
0.240066
0.242004
0.243463
0.244379
0.244685
0.244309
0.243174
0.241194
0.238277
0.234318
0.229197
0.222778
0.214903
0.205386
0.194003
0.1805
0.164506
0.145735
0.123165
0.0974604
0.0625361
0.0328599
0.140007
0.14978
0.154784
0.157394
0.159651
0.161826
0.163733
0.165312
0.16661
0.167682
0.168563
0.16928
0.169861
0.170329
0.170709
0.171029
0.171303
0.171531
0.171709
0.171846
0.171945
0.172007
0.172031
0.172015
0.171965
0.171888
0.171796
0.171708
0.171646
0.171638
0.171713
0.171906
0.172232
0.172733
0.173418
0.174312
0.175438
0.176809
0.178429
0.180301
0.182421
0.184787
0.187389
0.190212
0.193241
0.196456
0.199836
0.203352
0.206976
0.210673
0.214407
0.218137
0.221821
0.225411
0.22886
0.232117
0.235129
0.237842
0.240197
0.242138
0.243603
0.244529
0.244847
0.244487
0.24337
0.241413
0.238519
0.234587
0.229498
0.223115
0.215278
0.205805
0.194472
0.181024
0.165091
0.146393
0.123898
0.0983154
0.0634564
0.0339187
)
;

boundaryField
{
    inlet
    {
        type            zeroGradient;
    }
    outlet
    {
        type            fixedValue;
        value           uniform 0;
    }
    fixedWalls
    {
        type            zeroGradient;
    }
    frontAndBack
    {
        type            empty;
    }
}


// ************************************************************************* //
