/*--------------------------------*- C++ -*----------------------------------*\
| =========                 |                                                 |
| \\      /  F ield         | OpenFOAM: The Open Source CFD Toolbox           |
|  \\    /   O peration     | Version:  v1912                                 |
|   \\  /    A nd           | Website:  www.openfoam.com                      |
|    \\/     M anipulation  |                                                 |
\*---------------------------------------------------------------------------*/
FoamFile
{
    version     2.0;
    format      ascii;
    class       surfaceScalarField;
    location    "225";
    object      phi;
}
// * * * * * * * * * * * * * * * * * * * * * * * * * * * * * * * * * * * * * //

dimensions      [0 3 -1 0 0 0 0];
oriented        oriented;


internalField   nonuniform List<scalar> 
3895
(
0.00081296
0.000383217
0.000495759
0.000317201
0.000248398
0.000247361
6.44895e-05
0.000183909
-5.6567e-05
0.000121057
-0.00011332
5.67531e-05
-0.000118891
5.57126e-06
-9.83823e-05
-2.05091e-05
-9.66225e-05
-1.75982e-06
-8.92019e-05
-7.42066e-06
-7.74198e-05
-1.17821e-05
-8.20137e-05
4.59392e-06
-9.81024e-05
1.60887e-05
-0.000108485
1.03829e-05
-0.000113348
4.86267e-06
-0.000120074
6.7264e-06
-0.000130316
1.02413e-05
-0.000142308
1.19918e-05
-0.000155236
1.29283e-05
-0.000169337
1.41017e-05
-0.00018521
1.58728e-05
-0.000203467
1.82567e-05
-0.000224674
2.12068e-05
-0.000249327
2.46529e-05
-0.000277752
2.84257e-05
-0.00030999
3.22375e-05
-0.000345715
3.57252e-05
-0.00038424
3.85249e-05
-0.000424512
4.0272e-05
-0.000465238
4.07261e-05
-0.000505051
3.98132e-05
-0.000542647
3.75953e-05
-0.000576889
3.42421e-05
-0.000606879
2.99908e-05
-0.00063198
2.51001e-05
-0.000651796
1.98168e-05
-0.000666158
1.43619e-05
-0.000675033
8.87466e-06
-0.00067826
3.22692e-06
-0.000676543
-1.71648e-06
-0.000671228
-5.31506e-06
-0.000662388
-8.8399e-06
-0.000650153
-1.22353e-05
-0.000634592
-1.55608e-05
-0.000615736
-1.88561e-05
-0.000593603
-2.21332e-05
-0.000568216
-2.53871e-05
-0.000539614
-2.86014e-05
-0.000507861
-3.17536e-05
-0.000473043
-3.48176e-05
-0.000435278
-3.77656e-05
-0.000394708
-4.0569e-05
-0.000351513
-4.31958e-05
-0.000305868
-4.56443e-05
-0.000257976
-4.78924e-05
-0.00020808
-4.98965e-05
-0.000156445
-5.16347e-05
-0.000103358
-5.30864e-05
-4.91287e-05
-5.42298e-05
5.90998e-06
-5.50387e-05
6.15397e-05
-5.56297e-05
0.000117618
-5.60783e-05
0.000173791
-5.61734e-05
0.000229742
-5.59502e-05
0.00028518
-5.5438e-05
0.000339841
-5.46616e-05
0.000393487
-5.36455e-05
0.000445903
-5.24163e-05
0.000496907
-5.10038e-05
0.000546349
-4.94416e-05
0.000594117
-4.77687e-05
0.00064015
-4.60325e-05
0.000684447
-4.4297e-05
0.000727099
-4.26521e-05
0.000768358
-4.12591e-05
0.000808717
-4.03593e-05
0.000849278
-4.05609e-05
0.000892172
-4.28939e-05
0.000940914
-4.87415e-05
-7.36898e-05
0.00108704
0.000351985
0.00104376
0.000360481
0.000925069
0.000366053
0.000762331
0.000346647
0.000579122
0.000304266
0.000384379
0.000251496
0.000193948
0.000196002
3.75425e-05
0.000135896
-4.68081e-05
8.25908e-05
-8.29493e-05
2.87206e-05
-9.24298e-05
-2.30163e-06
-8.19028e-05
-5.93303e-06
-8.56014e-05
1.97873e-05
-9.29661e-05
1.77476e-05
-9.83678e-05
1.02644e-05
-0.000109298
1.76565e-05
-0.000121763
2.27067e-05
-0.000134259
2.44871e-05
-0.000146429
2.50988e-05
-0.000158947
2.66193e-05
-0.000172204
2.91301e-05
-0.000186258
3.23106e-05
-0.000201042
3.59908e-05
-0.000216452
4.00635e-05
-0.000232329
4.43025e-05
-0.000248388
4.82959e-05
-0.000264183
5.15207e-05
-0.000279128
5.34692e-05
-0.00029261
5.37544e-05
-0.000304075
5.2191e-05
-0.000313086
4.88244e-05
-0.000319375
4.38844e-05
-0.000322854
3.77211e-05
-0.000323605
3.07417e-05
-0.00032186
2.33549e-05
-0.000317962
1.59183e-05
-0.00031234
8.74057e-06
-0.000305764
2.29798e-06
-0.000298347
-4.19005e-06
-0.000290003
-1.00599e-05
-0.000279935
-1.53834e-05
-0.00026813
-2.06447e-05
-0.000254408
-2.5957e-05
-0.000238632
-3.13374e-05
-0.000220713
-3.67745e-05
-0.000200607
-4.22393e-05
-0.000178302
-4.76921e-05
-0.000153816
-5.30875e-05
-0.000127193
-5.83766e-05
-9.85013e-05
-6.35094e-05
-6.7831e-05
-6.8436e-05
-3.5292e-05
-7.3108e-05
-1.00685e-06
-7.7481e-05
3.48545e-05
-8.15057e-05
7.21051e-05
-8.51429e-05
0.000110563
-8.83544e-05
0.000150034
-9.11055e-05
0.000190316
-9.33684e-05
0.00023121
-9.51236e-05
0.00027254
-9.63688e-05
0.000314036
-9.71257e-05
0.000355354
-9.73959e-05
0.000396337
-9.71572e-05
0.00043681
-9.64225e-05
0.000476593
-9.52211e-05
0.00051552
-9.35888e-05
0.00055344
-9.15662e-05
0.000590224
-8.91997e-05
0.000625762
-8.65419e-05
0.000659972
-8.36514e-05
0.000692798
-8.05955e-05
0.00072422
-7.7454e-05
0.000754252
-7.4329e-05
0.000782959
-7.13594e-05
0.00081046
-6.87601e-05
0.000836957
-6.6856e-05
0.000862666
-6.62697e-05
0.000887629
-6.7857e-05
0.000911738
-7.2851e-05
-8.93004e-05
0.00097612
0.000307778
0.00102675
0.000309849
0.00105929
0.000333519
0.0010521
0.000353834
0.000998533
0.000357832
0.000903271
0.000346758
0.000775384
0.000323889
0.000621714
0.000289567
0.000458936
0.000245369
0.000292205
0.000195451
0.000143739
0.000146165
3.9634e-05
9.81715e-05
-3.78064e-06
6.3202e-05
-2.02582e-05
3.42252e-05
-3.02427e-05
2.02489e-05
-3.72157e-05
2.46295e-05
-4.61518e-05
3.16428e-05
-5.57711e-05
3.41064e-05
-6.45119e-05
3.38395e-05
-7.19396e-05
3.40471e-05
-7.82208e-05
3.54113e-05
-8.33948e-05
3.74845e-05
-8.72172e-05
3.98132e-05
-8.95579e-05
4.24042e-05
-9.04171e-05
4.51617e-05
-8.98751e-05
4.7754e-05
-8.80537e-05
4.96993e-05
-8.51042e-05
5.05197e-05
-8.12114e-05
4.98616e-05
-7.6582e-05
4.75616e-05
-7.14124e-05
4.36548e-05
-6.58632e-05
3.83352e-05
-6.00413e-05
3.18991e-05
-5.39855e-05
2.4686e-05
-4.76732e-05
1.70426e-05
-4.10255e-05
9.27052e-06
-3.37431e-05
1.45812e-06
-2.56086e-05
-5.83651e-06
-1.67813e-05
-1.30174e-05
-6.86713e-06
-1.9974e-05
4.50538e-06
-2.67559e-05
1.73598e-05
-3.34992e-05
3.16813e-05
-4.02785e-05
4.74547e-05
-4.71107e-05
6.46599e-05
-5.39798e-05
8.327e-05
-6.08494e-05
0.000103248
-6.76706e-05
0.000124548
-7.43872e-05
0.00014711
-8.09386e-05
0.000170863
-8.72621e-05
0.000195722
-9.32949e-05
0.00022159
-9.89756e-05
0.000248354
-0.000104245
0.000275894
-0.000109046
0.000304078
-0.000113327
0.000332765
-0.000117041
0.000361811
-0.000120151
0.000391069
-0.000122627
0.000420394
-0.000124448
0.000449636
-0.000125611
0.000478629
-0.000126119
0.000507215
-0.000125983
0.000535272
-0.000125214
0.000562688
-0.000123838
0.000589359
-0.000121892
0.000615195
-0.000119425
0.000640122
-0.000116493
0.000664079
-0.000113157
0.000687023
-0.000109486
0.000708925
-0.000105554
0.000729773
-0.000101444
0.000749569
-9.72493e-05
0.000768323
-9.30839e-05
0.000786057
-8.90927e-05
0.000802772
-8.54752e-05
0.000818444
-8.25279e-05
0.000832847
-8.06735e-05
0.000845607
-8.06164e-05
0.000855541
-8.2785e-05
-9.1524e-05
0.000857367
0.000272969
0.000897592
0.000269624
0.000949746
0.000281365
0.00100253
0.000301053
0.00104093
0.000319427
0.00105506
0.000332635
0.00103974
0.000339207
0.000991885
0.000337419
0.000912113
0.00032514
0.00080483
0.000302735
0.000678027
0.000272968
0.000538879
0.000237319
0.000404002
0.00019808
0.000281809
0.000156418
0.00018413
0.000117927
0.000122037
8.67226e-05
9.16642e-05
6.20158e-05
7.78596e-05
4.79111e-05
6.95938e-05
4.21053e-05
6.32793e-05
4.03616e-05
5.87224e-05
3.99682e-05
5.64989e-05
3.97081e-05
5.68401e-05
3.94719e-05
5.97452e-05
3.94992e-05
6.507e-05
3.98368e-05
7.25604e-05
4.02636e-05
8.18517e-05
4.04081e-05
9.24902e-05
3.98812e-05
0.000103984
3.83681e-05
0.000115866
3.56797e-05
0.000127751
3.17692e-05
0.000139373
2.67131e-05
0.000150592
2.06809e-05
0.000161392
1.38856e-05
0.000171873
6.56148e-06
0.000182248
-1.10443e-06
0.000192581
-8.87431e-06
0.000203409
-1.66651e-05
0.000214819
-2.44269e-05
0.000226973
-3.21281e-05
0.000239989
-3.97725e-05
0.000253888
-4.73978e-05
0.000268638
-5.50287e-05
0.000284191
-6.26639e-05
0.000300492
-7.02803e-05
0.000317481
-7.78385e-05
0.000335097
-8.5287e-05
0.000353277
-9.25664e-05
0.00037195
-9.96123e-05
0.000391045
-0.000106357
0.000410483
-0.000112733
0.000430181
-0.000118673
0.000450048
-0.000124113
0.000469993
-0.000128992
0.000489922
-0.000133255
0.000509737
-0.000136857
0.000529343
-0.000139758
0.000548648
-0.000141931
0.000567562
-0.000143362
0.000585999
-0.000144048
0.000603878
-0.000143997
0.000621126
-0.000143231
0.000637689
-0.000141776
0.000653523
-0.000139672
0.000668599
-0.000136969
0.000682899
-0.000133725
0.000696415
-0.000130009
0.00070915
-0.000125892
0.000721116
-0.000121451
0.000732331
-0.000116769
0.000742818
-0.000111931
0.000752601
-0.000107032
0.000761695
-0.000102178
0.000770098
-9.74961e-05
0.000777767
-9.31442e-05
0.000784586
-8.93468e-05
0.000790264
-8.63519e-05
0.000794318
-8.46704e-05
0.00079581
-8.42771e-05
-8.72665e-05
0.00075912
0.000239883
0.000789428
0.000239316
0.000826161
0.000244632
0.000871846
0.000255367
0.000923028
0.000268244
0.000973748
0.000281916
0.0010172
0.000295752
0.00104668
0.000307941
0.00105608
0.000315747
0.00104155
0.000317256
0.00100235
0.000312169
0.000938991
0.000300681
0.000854838
0.000282233
0.00075449
0.000256766
0.000645737
0.000226679
0.000537985
0.000194475
0.000444471
0.00015553
0.000371586
0.000120796
0.000320109
9.35825e-05
0.00028694
7.35307e-05
0.00026728
5.96278e-05
0.00025656
5.04285e-05
0.000251624
4.44082e-05
0.000250812
4.03106e-05
0.000253384
3.72653e-05
0.000258933
3.47148e-05
0.000267058
3.22826e-05
0.000277266
2.96734e-05
0.000288998
2.66362e-05
0.000301701
2.29768e-05
0.000314887
1.85826e-05
0.000328179
1.34212e-05
0.000341309
7.5511e-06
0.000354142
1.05245e-06
0.000366684
-5.98033e-06
0.000379008
-1.34287e-05
0.000391274
-2.11397e-05
0.000403615
-2.90066e-05
0.000416137
-3.69487e-05
0.000428924
-4.49153e-05
0.000442028
-5.28767e-05
0.000455452
-6.08217e-05
0.000469163
-6.87397e-05
0.000483109
-7.66093e-05
0.000497226
-8.43977e-05
0.000511448
-9.20609e-05
0.000525707
-9.9546e-05
0.000539934
-0.000106793
0.00055406
-0.000113738
0.000568015
-0.000120313
0.000581731
-0.000126449
0.00059514
-0.000132082
0.000608174
-0.000137146
0.000620767
-0.000141585
0.000632859
-0.000145347
0.000644391
-0.000148389
0.000655314
-0.000150681
0.000665583
-0.000152201
0.000675164
-0.000152943
0.000684029
-0.000152913
0.000692162
-0.00015213
0.000699556
-0.000150625
0.000706219
-0.000148439
0.000712169
-0.000145622
0.000717435
-0.000142235
0.000722056
-0.000138346
0.000726076
-0.000134028
0.000729543
-0.000129359
0.00073251
-0.000124418
0.000735026
-0.000119285
0.00073714
-0.000114045
0.000738889
-0.000108781
0.000740295
-0.000103584
0.000741352
-9.85535e-05
0.000742006
-9.37982e-05
0.000742127
-8.94673e-05
0.000741441
-8.56667e-05
0.000739494
-8.27232e-05
0.000735666
-8.04484e-05
-7.91942e-05
0.000671951
0.000208768
0.000700419
0.000210848
0.000729695
0.000215356
0.000762602
0.00022246
0.000800451
0.000230395
0.000843572
0.000238795
0.000890936
0.000248387
0.000939726
0.000259151
0.000985503
0.00026997
0.00102329
0.000279469
0.00104887
0.000286592
0.0010591
0.000290451
0.00105151
0.000289822
0.00102467
0.0002836
0.000979479
0.000271875
0.000918575
0.000255379
0.000849083
0.000225022
0.000777586
0.000192293
0.000709341
0.000161828
0.00064842
0.000134452
0.000597459
0.000110588
0.000557538
9.03496e-05
0.000528327
7.36191e-05
0.000508543
6.0095e-05
0.000496497
4.93111e-05
0.000490534
4.06782e-05
0.000489255
3.35616e-05
0.00049156
2.7368e-05
0.00049659
2.16066e-05
0.00050365
1.59165e-05
0.000512165
1.00672e-05
0.000521684
3.90221e-06
0.000531822
-2.58689e-06
0.000542269
-9.39419e-06
0.000552898
-1.66097e-05
0.000563586
-2.41161e-05
0.000574284
-3.18378e-05
0.000584977
-3.96998e-05
0.000595667
-4.76386e-05
0.000606355
-5.56031e-05
0.000617031
-6.35528e-05
0.000627666
-7.14568e-05
0.000638212
-7.92862e-05
0.000648611
-8.70079e-05
0.000658795
-9.45818e-05
0.000668695
-0.000101961
0.000678242
-0.000109093
0.000687367
-0.000115918
0.000696002
-0.000122374
0.000704086
-0.000128397
0.00071156
-0.000133923
0.00071837
-0.000138892
0.000724469
-0.000143245
0.000729817
-0.000146933
0.000734382
-0.000149912
0.000738144
-0.00015215
0.00074109
-0.000153627
0.000743221
-0.000154332
0.000744549
-0.000154271
0.000745097
-0.000153461
0.000744901
-0.000151933
0.000744004
-0.000149728
0.000742463
-0.000146898
0.000740342
-0.000143501
0.000737711
-0.000139604
0.000734645
-0.00013528
0.000731219
-0.000130602
0.000727507
-0.000125648
0.000723582
-0.000120492
0.000719508
-0.000115211
0.00071534
-0.000109877
0.00071112
-0.000104561
0.000706872
-9.93353e-05
0.000702588
-9.42695e-05
0.000698216
-8.94259e-05
0.000693635
-8.48872e-05
0.000688618
-8.06495e-05
0.000682759
-7.68638e-05
0.000675662
-7.33514e-05
-6.89647e-05
0.00059375
0.000180655
0.000620765
0.000183833
0.000647712
0.000188409
0.000675586
0.000194586
0.000704954
0.000201027
0.000736704
0.000207046
0.000771998
0.000213094
0.00081147
0.000219679
0.000854623
0.000226816
0.000899814
0.000234279
0.00094462
0.000241785
0.000986223
0.000248848
0.00102147
0.000254571
0.00104725
0.000257825
0.00106121
0.000257911
0.00106206
0.000254536
0.00105001
0.00023707
0.00102717
0.000215132
0.000996187
0.000192811
0.000959886
0.000170753
0.000921019
0.000149455
0.000882094
0.000129274
0.000845248
0.000110465
0.000812148
9.31956e-05
0.000783917
7.75417e-05
0.000761113
6.34824e-05
0.000743765
5.09092e-05
0.000731489
3.96443e-05
0.000723633
2.94622e-05
0.000719434
2.01154e-05
0.000718141
1.13606e-05
0.000719074
2.96935e-06
0.000721673
-5.18644e-06
0.000725499
-1.32198e-05
0.000730142
-2.12526e-05
0.000735344
-2.93184e-05
0.000740915
-3.74083e-05
0.000746708
-4.54937e-05
0.00075261
-5.35406e-05
0.000758524
-6.15165e-05
0.000764363
-6.93923e-05
0.000770047
-7.71408e-05
0.000775495
-8.4734e-05
0.000780626
-9.21388e-05
0.000785361
-9.93162e-05
0.00078962
-0.000106221
0.000793331
-0.000112803
0.000796421
-0.000119008
0.000798827
-0.00012478
0.000800493
-0.000130062
0.000801371
-0.000134801
0.000801422
-0.000138943
0.000800621
-0.000142444
0.000798954
-0.000145265
0.000796419
-0.000147377
0.000793028
-0.00014876
0.000788809
-0.000149407
0.0007838
-0.000149323
0.000778054
-0.000148525
0.000771634
-0.000147042
0.000764615
-0.000144914
0.000757076
-0.00014219
0.000749106
-0.000138927
0.000740794
-0.000135189
0.00073223
-0.000131041
0.000723505
-0.000126555
0.000714702
-0.000121799
0.000705899
-0.000116845
0.000697166
-0.00011176
0.000688564
-0.000106609
0.000680141
-0.000101453
0.00067193
-9.63503e-05
0.000663946
-9.13512e-05
0.000656178
-8.65018e-05
0.000648578
-8.18259e-05
0.000641041
-7.73506e-05
0.000633386
-7.29943e-05
0.000625254
-6.87317e-05
0.000616405
-6.45022e-05
-5.78071e-05
0.000524267
0.00015565
0.000548877
0.000159222
0.000573654
0.000163632
0.000599101
0.00016914
0.000625167
0.000174961
0.000651837
0.000180376
0.000679581
0.00018535
0.000709171
0.000190088
0.000741326
0.000194661
0.000776476
0.000199129
0.000814611
0.000203651
0.000855143
0.000208316
0.000896816
0.000212898
0.000937775
0.000216865
0.000975948
0.000219739
0.00100936
0.00022112
0.00103522
0.000211215
0.00105283
0.000197522
0.0010625
0.000183135
0.00106494
0.000168313
0.00106108
0.000153316
0.00105199
0.000138364
0.00103882
0.000123639
0.00102273
0.000109286
0.00100487
9.54028e-05
0.000986311
8.20387e-05
0.000968015
6.92051e-05
0.00095077
5.68891e-05
0.000935167
4.50655e-05
0.000921578
3.37041e-05
0.000910171
2.27678e-05
0.000900918
1.22224e-05
0.000893713
2.01857e-06
0.000888436
-7.94261e-06
0.000884762
-1.75787e-05
0.000882308
-2.68647e-05
0.000880726
-3.58261e-05
0.000879726
-4.44936e-05
0.000879078
-5.28925e-05
0.000878599
-6.10377e-05
0.00087814
-6.8933e-05
0.000877571
-7.65718e-05
0.000876776
-8.39385e-05
0.000875646
-9.1009e-05
0.000874082
-9.77523e-05
0.000871993
-0.000104132
0.000869298
-0.000110108
0.000865927
-0.000115637
0.000861822
-0.000120676
0.000856941
-0.000125181
0.000851253
-0.000129113
0.000844743
-0.000132434
0.000837413
-0.000135114
0.000829279
-0.000137131
0.000820373
-0.000138471
0.000810742
-0.000139129
0.000800447
-0.000139112
0.000789561
-0.000138437
0.000778168
-0.000137132
0.000766358
-0.000135232
0.000754227
-0.000132783
0.000741872
-0.000129835
0.000729389
-0.000126445
0.000716871
-0.000122671
0.000704407
-0.000118576
0.000692074
-0.000114222
0.000679944
-0.00010967
0.000668079
-0.00010498
0.000656528
-0.000100209
0.000645333
-9.54135e-05
0.000634522
-9.06418e-05
0.00062411
-8.5939e-05
0.0006141
-8.13409e-05
0.000604472
-7.68741e-05
0.000595182
-7.25357e-05
0.00058614
-6.8308e-05
0.00057721
-6.40646e-05
0.000568077
-5.95986e-05
0.000558618
-5.50437e-05
-4.66486e-05
0.000462816
0.000133509
0.000484788
0.00013725
0.000507026
0.000141393
0.000529984
0.000146182
0.000553646
0.000151298
0.000577784
0.000156238
0.000602319
0.000160815
0.000627371
0.000165036
0.000653198
0.000168834
0.000680192
0.000172135
0.000708834
0.000175009
0.000739551
0.000177599
0.00077251
0.000179939
0.000807473
0.000181903
0.000843833
0.000183378
0.000880701
0.000184252
0.000915439
0.000176477
0.00094677
0.000166191
0.000974146
0.000155759
0.000997275
0.000145184
0.00101608
0.000134507
0.00103067
0.000123781
0.00104124
0.000113062
0.00104813
0.000102402
0.00105169
9.18418e-05
0.00105233
8.13961e-05
0.00105048
7.10587e-05
0.00104656
6.08116e-05
0.00104099
5.06357e-05
0.00103417
4.05184e-05
0.00102648
3.04577e-05
0.00101824
2.04627e-05
0.00100968
1.0578e-05
0.00100095
7.91802e-07
0.000992337
-8.96916e-06
0.000984029
-1.85568e-05
0.000976124
-2.79205e-05
0.000968626
-3.69961e-05
0.00096147
-4.57361e-05
0.00095454
-5.41079e-05
0.000947698
-6.20907e-05
0.000940798
-6.96717e-05
0.000933701
-7.68417e-05
0.000926283
-8.35911e-05
0.000918438
-8.99072e-05
0.000910079
-9.57729e-05
0.000901138
-0.000101167
0.000891566
-0.000106065
0.000881332
-0.000110441
0.00087042
-0.000114269
0.000858833
-0.000117526
0.000846591
-0.000120192
0.000833728
-0.000122251
0.000820295
-0.000123698
0.000806355
-0.000124531
0.000791985
-0.000124759
0.00077727
-0.000124397
0.000762302
-0.000123469
0.000747176
-0.000122006
0.000731987
-0.000120043
0.000716828
-0.000117623
0.000701784
-0.000114791
0.000686936
-0.000111597
0.000672355
-0.00010809
0.0006581
-0.000104322
0.000644223
-0.000100345
0.000630765
-9.62113e-05
0.000617757
-9.1971e-05
0.00060522
-8.76726e-05
0.000593168
-8.3362e-05
0.000581607
-7.90807e-05
0.000570533
-7.48652e-05
0.000559934
-7.07418e-05
0.000549785
-6.67247e-05
0.000540044
-6.27953e-05
0.000530638
-5.8902e-05
0.000521477
-5.49032e-05
0.000512289
-5.04106e-05
0.000503049
-4.58039e-05
-3.61682e-05
0.000408523
0.00011395
0.000428003
0.000117771
0.000447764
0.000121632
0.000468177
0.00012577
0.000489297
0.000130178
0.000511009
0.000134525
0.000533214
0.000138611
0.000555827
0.000142423
0.000578766
0.000145895
0.000602009
0.000148892
0.000625667
0.000151351
0.000649975
0.00015329
0.000675217
0.000154697
0.000701616
0.000155503
0.000729307
0.000155687
0.00075828
0.000155279
0.000787035
0.000147722
0.000814847
0.000138379
0.000841345
0.000129262
0.000866194
0.000120335
0.000889127
0.000111575
0.000909951
0.000102957
0.000928552
9.44613e-05
0.000944881
8.6073e-05
0.000958947
7.7775e-05
0.000970802
6.95417e-05
0.000980522
6.13386e-05
0.000988205
5.31287e-05
0.000993961
4.48794e-05
0.000997911
3.65681e-05
0.00100018
2.81866e-05
0.0010009
1.97429e-05
0.00100021
1.12693e-05
0.000998163
2.84013e-06
0.000994737
-5.54325e-06
0.000989985
-1.38051e-05
0.000984
-2.19349e-05
0.000976898
-2.98941e-05
0.000968799
-3.76376e-05
0.000959817
-4.51254e-05
0.000950048
-5.23219e-05
0.000939571
-5.91948e-05
0.000928444
-6.57145e-05
0.000916706
-7.18534e-05
0.000904384
-7.75853e-05
0.000891496
-8.28848e-05
0.000878057
-8.7728e-05
0.000864085
-9.20928e-05
0.000849603
-9.59596e-05
0.000834646
-9.93119e-05
0.000819256
-0.000102137
0.00080349
-0.000104425
0.000787413
-0.000106174
0.000771099
-0.000107384
0.00075463
-0.000108062
0.000738089
-0.000108219
0.000721563
-0.000107871
0.000705133
-0.00010704
0.000688879
-0.000105751
0.000672872
-0.000104035
0.000657174
-0.000101925
0.00064184
-9.94573e-05
0.000626914
-9.66708e-05
0.000612431
-9.3607e-05
0.000598418
-9.03089e-05
0.000584894
-8.68204e-05
0.000571868
-8.31859e-05
0.000559347
-7.94496e-05
0.000547329
-7.56543e-05
0.000535808
-7.18407e-05
0.000524773
-6.80458e-05
0.000514209
-6.43014e-05
0.000504096
-6.06292e-05
0.000494408
-5.70369e-05
0.000485113
-5.34999e-05
0.000476153
-4.99422e-05
0.000467479
-4.62285e-05
0.000458875
-4.18071e-05
0.000450382
-3.73108e-05
-2.68427e-05
0.000360569
9.67009e-05
0.000377775
0.000100564
0.000395283
0.000104124
0.00041336
0.000107692
0.000432047
0.000111491
0.000451305
0.000115268
0.000471105
0.00011881
0.000491405
0.000122124
0.000512109
0.000125191
0.000533096
0.000127904
0.000554271
0.000130177
0.00057559
0.000131971
0.000597063
0.000133224
0.000618736
0.000133831
0.000640694
0.00013373
0.000663044
0.000132928
0.000684882
0.000125884
0.000705958
0.000117303
0.000726249
0.000108971
0.000745688
0.000100896
0.000764181
9.30812e-05
0.000781629
8.55088e-05
0.000797937
7.81537e-05
0.000813023
7.0987e-05
0.000826822
6.39755e-05
0.000839285
5.70789e-05
0.000850372
5.02515e-05
0.000860053
4.34473e-05
0.000868307
3.66262e-05
0.000875116
2.97584e-05
0.000880475
2.28277e-05
0.000884384
1.58341e-05
0.000886857
8.79588e-06
0.000887942
1.75559e-06
0.000887654
-5.25526e-06
0.000886046
-1.21968e-05
0.000883143
-1.90325e-05
0.000878977
-2.57281e-05
0.000873586
-3.22461e-05
0.000867013
-3.85527e-05
0.00085931
-4.46183e-05
0.000850532
-5.04167e-05
0.000840742
-5.59247e-05
0.000830009
-6.11207e-05
0.000818408
-6.59842e-05
0.000806019
-7.04954e-05
0.000792926
-7.46354e-05
0.000779219
-7.83862e-05
0.000764991
-8.17312e-05
0.000750335
-8.46557e-05
0.000735345
-8.71473e-05
0.000720116
-8.91964e-05
0.000704739
-9.07965e-05
0.000689299
-9.19446e-05
0.000673879
-9.26414e-05
0.000658552
-9.28917e-05
0.000643385
-9.27042e-05
0.000628438
-9.20924e-05
0.00061376
-9.10736e-05
0.000599394
-8.96698e-05
0.000585376
-8.79071e-05
0.000571734
-8.58152e-05
0.00055849
-8.34271e-05
0.000545662
-8.07786e-05
0.000533261
-7.79076e-05
0.000521294
-7.48534e-05
0.000509764
-7.16558e-05
0.000498669
-6.83547e-05
0.000488003
-6.49889e-05
0.000477758
-6.15955e-05
0.00046792
-5.82081e-05
0.000458475
-5.48557e-05
0.000449403
-5.15573e-05
0.000440683
-4.83175e-05
0.000432294
-4.51107e-05
0.0004242
-4.18476e-05
0.000416375
-3.84043e-05
0.000408689
-3.41208e-05
0.000401154
-2.97762e-05
-1.8996e-05
0.000318219
8.15151e-05
0.000333377
8.54054e-05
0.000348866
8.86357e-05
0.000364863
9.16955e-05
0.000381373
9.4981e-05
0.000398383
9.82576e-05
0.000415891
0.000101302
0.00043388
0.000104135
0.000452306
0.000106765
0.000471096
0.000109114
0.000490161
0.000111112
0.000509406
0.000112726
0.000528734
0.000113896
0.000548044
0.00011452
0.000567258
0.000114516
0.000586337
0.000113849
0.000604465
0.000107757
0.000621487
0.00010028
0.00063749
9.29678e-05
0.000652537
8.58499e-05
0.000666668
7.89496e-05
0.000679906
7.22712e-05
0.000692254
6.58053e-05
0.000703707
5.95345e-05
0.000714249
5.34336e-05
0.000723858
4.74691e-05
0.000732508
4.16015e-05
0.000740166
3.57901e-05
0.000746793
2.99984e-05
0.000752354
2.41979e-05
0.00075681
1.83719e-05
0.000760128
1.25162e-05
0.000762283
6.64091e-06
0.000763286
7.52522e-07
0.000763147
-5.11647e-06
0.000761904
-1.0954e-05
0.00075958
-1.67083e-05
0.000756203
-2.23509e-05
0.00075181
-2.78536e-05
0.000746447
-3.31891e-05
0.000740162
-3.83335e-05
0.000733011
-4.32655e-05
0.000725051
-4.79656e-05
0.000716346
-5.24153e-05
0.000706959
-5.6597e-05
0.000696956
-6.04928e-05
0.000686406
-6.40851e-05
0.000675377
-6.7357e-05
0.000663937
-7.02918e-05
0.000652156
-7.28741e-05
0.000640098
-7.50899e-05
0.000627829
-7.69273e-05
0.00061541
-7.83769e-05
0.000602897
-7.94322e-05
0.000590346
-8.00905e-05
0.000577807
-8.03527e-05
0.000565327
-8.02245e-05
0.000552951
-7.97157e-05
0.000540718
-7.88409e-05
0.000528667
-7.76189e-05
0.000516833
-7.60726e-05
0.000505246
-7.42284e-05
0.000493934
-7.21151e-05
0.000482919
-6.97641e-05
0.00047222
-6.72083e-05
0.000461848
-6.44816e-05
0.000451811
-6.16188e-05
0.000442111
-5.86549e-05
0.000432747
-5.56244e-05
0.000423713
-5.25611e-05
0.000415001
-4.94962e-05
0.000406602
-4.64567e-05
0.000398505
-4.3461e-05
0.000390701
-4.05131e-05
0.000383179
-3.75888e-05
0.00037593
-3.4599e-05
0.000368945
-3.14193e-05
0.000362205
-2.73805e-05
0.000355573
-2.31439e-05
-1.27311e-05
0.000280821
6.81677e-05
0.000294152
7.20742e-05
0.000307841
7.49462e-05
0.000321986
7.75509e-05
0.000336569
8.03982e-05
0.000351593
8.32331e-05
0.000367055
8.58402e-05
0.000382937
8.82528e-05
0.000399212
9.049e-05
0.000415841
9.24853e-05
0.000432773
9.4181e-05
0.000449945
9.55538e-05
0.000467277
9.6563e-05
0.000484667
9.71302e-05
0.000502001
9.71823e-05
0.000519171
9.66788e-05
0.000535368
9.15593e-05
0.000550407
8.52421e-05
0.000564338
7.90364e-05
0.00057722
7.29684e-05
0.000589107
6.70619e-05
0.000600052
6.13264e-05
0.000610097
5.57603e-05
0.000619277
5.03543e-05
0.000627619
4.50922e-05
0.000635138
3.99495e-05
0.000641844
3.48962e-05
0.000647734
2.99002e-05
0.0006528
2.49322e-05
0.000657028
1.99691e-05
0.000660404
1.49963e-05
0.000662911
1.00088e-05
0.000664541
5.0114e-06
0.000665291
1.94593e-09
0.000665163
-4.98858e-06
0.000664167
-9.95723e-06
0.000662317
-1.48582e-05
0.000659633
-1.96676e-05
0.000656142
-2.43625e-05
0.000651874
-2.89211e-05
0.000646864
-3.33231e-05
0.000641148
-3.75501e-05
0.000634768
-4.15852e-05
0.000627765
-4.54121e-05
0.000620182
-4.90145e-05
0.000612066
-5.23761e-05
0.000603461
-5.54802e-05
0.000594414
-5.83106e-05
0.000584974
-6.08513e-05
0.000575187
-6.3087e-05
0.000565101
-6.50042e-05
0.000554765
-6.65911e-05
0.000544227
-6.78386e-05
0.000533535
-6.87406e-05
0.000522739
-6.92946e-05
0.000511888
-6.95019e-05
0.000501031
-6.93676e-05
0.000490216
-6.89006e-05
0.000479488
-6.81131e-05
0.00046889
-6.70205e-05
0.000458458
-6.56409e-05
0.000448224
-6.39944e-05
0.000438213
-6.21036e-05
0.000428442
-5.99928e-05
0.000418922
-5.76886e-05
0.00040966
-5.52194e-05
0.000400657
-5.26158e-05
0.000391912
-4.99102e-05
0.000383424
-4.7136e-05
0.000375189
-4.43266e-05
0.000367207
-4.15139e-05
0.000359476
-3.87263e-05
0.000351999
-3.59838e-05
0.00034478
-3.32936e-05
0.000337824
-3.06328e-05
0.000331153
-2.79279e-05
0.000324768
-2.50344e-05
0.000318779
-2.13915e-05
0.000312889
-1.72546e-05
-7.74735e-06
0.000247797
5.64572e-05
0.00025951
6.0361e-05
0.000271604
6.28517e-05
0.0002841
6.50555e-05
0.000296973
6.75248e-05
0.000310243
6.99635e-05
0.000323901
7.21822e-05
0.000337924
7.423e-05
0.000352287
7.61265e-05
0.000366961
7.78118e-05
0.000381907
7.92353e-05
0.000397082
8.03785e-05
0.000412433
8.12115e-05
0.000427889
8.1675e-05
0.000443359
8.17116e-05
0.000458751
8.12874e-05
0.000473322
7.69886e-05
0.000486879
7.1685e-05
0.000499442
6.6473e-05
0.000511039
6.13713e-05
0.000521703
5.63974e-05
0.000531471
5.15586e-05
0.000540378
4.68533e-05
0.000548458
4.22741e-05
0.000555742
3.78082e-05
0.000562256
3.34363e-05
0.000568017
2.91345e-05
0.00057304
2.48774e-05
0.000577331
2.06416e-05
0.000580891
1.64086e-05
0.000583721
1.21668e-05
0.000585817
7.91235e-06
0.000587183
3.64587e-06
0.000587811
-6.26037e-07
0.000587704
-4.88117e-06
0.00058686
-9.11343e-06
0.000585292
-1.3291e-05
0.000583016
-1.73912e-05
0.000580049
-2.13951e-05
0.000576412
-2.52845e-05
0.000572131
-2.90418e-05
0.000567232
-3.2651e-05
0.000561744
-3.60973e-05
0.000555698
-3.93662e-05
0.000549126
-4.2443e-05
0.000542064
-4.53134e-05
0.000534546
-4.79626e-05
0.000526612
-5.03763e-05
0.000518301
-5.25406e-05
0.000509657
-5.4443e-05
0.000500725
-5.60719e-05
0.000491552
-5.74182e-05
0.000482188
-5.84747e-05
0.000472684
-5.92365e-05
0.00046309
-5.97012e-05
0.000453457
-5.98688e-05
0.000443831
-5.9741e-05
0.000434252
-5.9322e-05
0.000424756
-5.86174e-05
0.000415371
-5.76353e-05
0.000406117
-5.63862e-05
0.000397006
-5.48835e-05
0.000388046
-5.31438e-05
0.000379241
-5.11882e-05
0.000370594
-4.90414e-05
0.000362107
-4.67327e-05
0.000353786
-4.42945e-05
0.000345638
-4.17624e-05
0.000337675
-3.91731e-05
0.000329912
-3.6563e-05
0.000322364
-3.39663e-05
0.000315051
-3.1413e-05
0.00030799
-2.89232e-05
0.000301203
-2.65064e-05
0.000294708
-2.41378e-05
0.000288547
-2.17664e-05
0.000282722
-1.92096e-05
0.000277423
-1.60929e-05
0.000272262
-1.20938e-05
-3.68753e-06
0.000218637
4.62027e-05
0.000228927
5.00713e-05
0.000239611
5.21677e-05
0.00025064
5.40264e-05
0.000261999
5.61657e-05
0.000273715
5.82472e-05
0.000285776
6.0121e-05
0.000298158
6.18486e-05
0.000310838
6.34461e-05
0.00032379
6.486e-05
0.000336978
6.60469e-05
0.000350365
6.69913e-05
0.000363907
6.76697e-05
0.000377547
6.80349e-05
0.000391218
6.80405e-05
0.000404847
6.76592e-05
0.000417782
6.4053e-05
0.000429855
5.96126e-05
0.000441077
5.52502e-05
0.000451468
5.09809e-05
0.000461046
4.68187e-05
0.000469837
4.27686e-05
0.000477862
3.88281e-05
0.000485146
3.49901e-05
0.000491711
3.12432e-05
0.000497576
2.75709e-05
0.000502757
2.39532e-05
0.000507266
2.03688e-05
0.000511109
1.67985e-05
0.000514291
1.3227e-05
0.000516812
9.6451e-06
0.000518675
6.04983e-06
0.000519881
2.43971e-06
0.000520429
-1.17359e-06
0.000520321
-4.77343e-06
0.000519559
-8.35183e-06
0.000518154
-1.18858e-05
0.000516118
-1.53552e-05
0.000513467
-1.87439e-05
0.000510219
-2.20363e-05
0.000506395
-2.52178e-05
0.000502018
-2.82744e-05
0.000497114
-3.11932e-05
0.00049171
-3.39619e-05
0.000485835
-3.65685e-05
0.000479522
-3.90007e-05
0.000472807
-4.1247e-05
0.000465726
-4.32959e-05
0.000458322
-4.51364e-05
0.000450638
-4.67583e-05
0.000442718
-4.81519e-05
0.000434608
-4.93084e-05
0.000426352
-5.02192e-05
0.000417992
-5.08764e-05
0.000409564
-5.12728e-05
0.000401097
-5.14019e-05
0.000392614
-5.12584e-05
0.000384131
-5.08393e-05
0.000375659
-5.01445e-05
0.000367201
-4.91779e-05
0.000358763
-4.79485e-05
0.000350351
-4.64711e-05
0.000341973
-4.47661e-05
0.000333645
-4.28599e-05
0.000325387
-4.07841e-05
0.000317229
-3.85738e-05
0.000309201
-3.62672e-05
0.000301342
-3.39031e-05
0.000293688
-3.15195e-05
0.000286277
-2.91519e-05
0.000279143
-2.68317e-05
0.000272314
-2.45843e-05
0.000265816
-2.24249e-05
0.000259669
-2.03602e-05
0.00025389
-1.83584e-05
0.000248514
-1.639e-05
0.000243537
-1.42326e-05
0.000239145