/*--------------------------------*- C++ -*----------------------------------*\
| =========                 |                                                 |
| \\      /  F ield         | OpenFOAM: The Open Source CFD Toolbox           |
|  \\    /   O peration     | Version:  v1912                                 |
|   \\  /    A nd           | Website:  www.openfoam.com                      |
|    \\/     M anipulation  |                                                 |
\*---------------------------------------------------------------------------*/
FoamFile
{
    version     2.0;
    format      ascii;
    class       volVectorField;
    location    "225";
    object      U;
}
// * * * * * * * * * * * * * * * * * * * * * * * * * * * * * * * * * * * * * //

dimensions      [0 1 -1 0 0 0 0];


internalField   nonuniform List<vector> 
2000
(
(0.843124 0.195894 0)
(0.511694 0.132652 0)
(0.222178 0.0718675 0)
(0.0611308 0.0151952 7.36625e-20)
(-0.00472308 -0.0308139 1.61495e-17)
(-0.0578424 -0.0466254 1.46127e-17)
(-0.0677104 -0.0370034 0)
(-0.0630647 -0.00535546 0)
(-0.0519179 0.0271959 0)
(-0.0492983 0.0242414 3.23176e-17)
(-0.042122 0.0127355 -2.00324e-17)
(-0.037045 0.00774442 -1.86554e-17)
(-0.0427899 0.00599665 0)
(-0.0473826 0.00555731 0)
(-0.0484627 0.00586031 -1.44393e-17)
(-0.0490084 0.00725604 0)
(-0.0510728 0.00817531 1.28134e-17)
(-0.0541288 0.00861509 -1.20922e-21)
(-0.057543 0.00887791 1.22174e-17)
(-0.0612525 0.00927442 -5.98032e-18)
(-0.0654477 0.00989465 1.17344e-17)
(-0.0703435 0.010755 0)
(-0.0761342 0.0118539 0)
(-0.082994 0.0131592 6.09461e-21)
(-0.0910565 0.0145883 0)
(-0.100376 0.0160051 -5.36376e-18)
(-0.110899 0.0172387 0)
(-0.122449 0.0181159 5.1598e-18)
(-0.134738 0.01849 0)
(-0.147384 0.0182561 0)
(-0.159967 0.0173678 0)
(-0.172077 0.0158397 1.20345e-18)
(-0.18335 0.0137381 0)
(-0.193488 0.0111638 -5.91271e-19)
(-0.202276 0.00823438 1.96803e-14)
(-0.20958 0.00507032 1.95548e-14)
(-0.215338 0.00178471 6.03793e-19)
(-0.219516 -0.0015244 -6.07449e-19)
(-0.222069 -0.00476041 0)
(-0.223023 -0.00778297 2.55689e-18)
(-0.22276 -0.0105002 0)
(-0.22158 -0.0129368 -2.73206e-18)
(-0.219404 -0.0152086 0)
(-0.216243 -0.0173671 -5.89086e-18)
(-0.212076 -0.0194278 3.09088e-18)
(-0.20687 -0.021388 0)
(-0.200591 -0.0232358 0)
(-0.193199 -0.0249537 -3.60855e-18)
(-0.184658 -0.0265211 0)
(-0.174936 -0.0279154 4.03553e-18)
(-0.164002 -0.0291126 0)
(-0.151837 -0.0300873 9.25821e-18)
(-0.138422 -0.0308122 -9.91897e-18)
(-0.123741 -0.0312612 1.06526e-17)
(-0.107779 -0.0314163 -5.68785e-18)
(-0.090531 -0.0312653 0)
(-0.0719947 -0.0307908 6.62979e-18)
(-0.052178 -0.0299751 -7.18018e-18)
(-0.0311288 -0.0287964 -1.5738e-17)
(-0.00895359 -0.0272046 1.68825e-17)
(0.0144083 -0.025101 -1.76409e-17)
(0.0391303 -0.0224877 1.77905e-17)
(0.0650025 -0.019377 -1.7886e-17)
(0.092063 -0.0157774 1.81883e-17)
(0.120329 -0.011692 -2.90312e-19)
(0.149796 -0.0071194 1.78099e-17)
(0.180463 -0.00205586 0)
(0.21235 0.00350384 0)
(0.245495 0.00956581 4.19259e-19)
(0.279959 0.0161372 0)
(0.315831 0.023226 1.66362e-17)
(0.353238 0.0308412 0)
(0.392348 0.0389892 1.52987e-17)
(0.433442 0.0476762 -6.54247e-19)
(0.476765 0.0568688 1.33174e-17)
(0.523338 0.0665643 2.32224e-17)
(0.572329 0.0764065 8.25064e-19)
(0.631676 0.0864133 -8.36616e-18)
(0.680554 0.0946978 -5.62278e-18)
(0.800299 0.0970117 0)
(1.01525 0.211455 0)
(0.942826 0.196059 0)
(0.799522 0.180995 -4.45297e-18)
(0.646024 0.151799 9.4001e-18)
(0.497047 0.108994 0)
(0.345476 0.0652248 -1.0329e-17)
(0.198248 0.0242641 0)
(0.058171 -0.00898543 0)
(-0.0262471 -0.0142217 0)
(-0.0346147 -0.0242334 -2.38737e-17)
(-0.0513499 -0.0183282 2.21167e-17)
(-0.0489859 0.00642428 2.0578e-17)
(-0.0441483 0.0222277 0)
(-0.0455157 0.0182336 8.60524e-18)
(-0.0470008 0.0110915 0)
(-0.0497334 0.0103708 0)
(-0.0537034 0.0118116 0)
(-0.0577257 0.0130024 6.79862e-18)
(-0.0615573 0.0138626 -1.32347e-17)
(-0.0653685 0.0148414 -6.45123e-18)
(-0.069384 0.0161505 0)
(-0.0736796 0.017797 0)
(-0.0782485 0.0197471 0)
(-0.0830692 0.0219546 -8.85527e-18)
(-0.0881081 0.0243044 0)
(-0.0932947 0.0265941 5.66337e-18)
(-0.0984981 0.0285655 2.77907e-18)
(-0.103529 0.0299594 0)
(-0.108165 0.0305672 0)
(-0.112197 0.0302634 0)
(-0.115453 0.0290185 0)
(-0.11782 0.0268932 -6.3838e-19)
(-0.119248 0.0240173 0)
(-0.119752 0.0205623 3.14235e-19)
(-0.119395 0.0167128 1.55928e-19)
(-0.118287 0.0126428 0)
(-0.116596 0.00850981 0)
(-0.114518 0.00445496 6.37563e-19)
(-0.112126 0.000556316 0)
(-0.109602 -0.00316553 -1.32238e-18)
(-0.106776 -0.00667814 0)
(-0.103253 -0.010012 -1.38441e-18)
(-0.0990626 -0.0132667 0)
(-0.0941364 -0.0164915 1.50487e-18)
(-0.088401 -0.019702 1.53999e-18)
(-0.0817962 -0.0228908 0)
(-0.0742722 -0.0260367 0)
(-0.0657871 -0.0291101 -3.52603e-18)
(-0.0563051 -0.0320762 0)
(-0.0457957 -0.0348973 -3.82097e-20)
(-0.0342332 -0.0375341 0)
(-0.0215963 -0.0399471 0)
(-0.0078688 -0.0420966 0)
(0.00696049 -0.0439367 0)
(0.0228894 -0.0454267 1.00963e-17)
(0.0399118 -0.0465318 0)
(0.0580287 -0.0472151 -1.06807e-17)
(0.0772372 -0.0474419 5.52141e-18)
(0.0975344 -0.0471819 -5.5726e-18)
(0.118921 -0.0464108 -1.15858e-17)
(0.141387 -0.0450987 1.18322e-17)
(0.164892 -0.0432323 -1.20563e-17)
(0.189392 -0.0407812 1.22558e-17)
(0.214902 -0.0377367 0)
(0.24144 -0.0340977 -1.86774e-17)
(0.269022 -0.0298663 -1.26504e-17)
(0.297672 -0.025047 0)
(0.32743 -0.019647 6.12454e-18)
(0.358351 -0.0136759 1.26017e-17)
(0.390516 -0.00714632 0)
(0.424028 -7.43424e-05 0)
(0.459028 0.00751764 0)
(0.495698 0.0155935 0)
(0.534281 0.0240953 -1.07896e-17)
(0.575078 0.0328943 4.60139e-18)
(0.61857 0.0418132 -9.01647e-18)
(0.664937 0.0502012 7.75421e-18)
(0.716376 0.0577337 -2.63577e-18)
(0.764639 0.0609594 0)
(0.845261 0.0553491 0)
(0.978937 0.202903 0)
(0.979956 0.1965 -3.67339e-18)
(0.969218 0.209705 4.39316e-18)
(0.935919 0.213212 -3.93516e-18)
(0.869979 0.198603 3.82252e-18)
(0.771588 0.171835 3.87367e-18)
(0.649172 0.139791 0)
(0.514351 0.105394 0)
(0.376429 0.0711109 0)
(0.254329 0.0381086 9.89473e-18)
(0.138942 0.00895893 0)
(0.0395293 -0.00757116 0)
(9.0031e-05 -0.00072745 0)
(-0.00420862 -0.00117799 -9.93698e-18)
(-0.0146167 0.00143411 0)
(-0.0189083 0.0104061 -8.47918e-18)
(-0.0223279 0.0161281 0)
(-0.0262464 0.0170201 7.81484e-18)
(-0.0300138 0.0164195 3.79438e-18)
(-0.0332254 0.0165081 0)
(-0.0358002 0.0174814 -3.60344e-18)
(-0.0378032 0.0189388 0)
(-0.0392141 0.020675 0)
(-0.0400019 0.0226123 6.73118e-18)
(-0.0401751 0.0246402 0)
(-0.0397752 0.0265544 1.61868e-18)
(-0.0388586 0.0280866 -4.75715e-18)
(-0.0374883 0.0289684 0)
(-0.0357361 0.0289904 0)
(-0.0336839 0.0280431 -7.51999e-19)
(-0.0314161 0.0261282 0)
(-0.0290063 0.0233437 1.68387e-21)
(-0.0265079 0.0198566 0)
(-0.023948 0.0158708 7.15997e-19)
(-0.0213281 0.0115997 8.93531e-20)
(-0.0186117 0.00723509 0)
(-0.0157088 0.00292627 1.80237e-19)
(-0.012547 -0.00122769 -3.63997e-19)
(-0.00903201 -0.00510382 -3.68644e-19)
(-0.00513166 -0.00873969 -7.49974e-19)
(-0.000674511 -0.0122904 7.65291e-19)
(0.00447117 -0.0158988 7.81274e-19)
(0.0103181 -0.0196011 0)
(0.0168802 -0.0233977 1.62782e-18)
(0.0241785 -0.0272721 -3.33134e-18)
(0.0322357 -0.031197 0)
(0.0410739 -0.0351381 -1.75374e-18)
(0.0507139 -0.0390559 3.61846e-18)
(0.0611746 -0.0429073 0)
(0.0724728 -0.0466467 -1.92845e-18)
(0.0846221 -0.0502269 1.97559e-18)
(0.097633 -0.0536003 -2.03816e-18)
(0.111512 -0.0567194 -2.10275e-18)
(0.126264 -0.0595369 0)
(0.141886 -0.0620057 -4.49757e-18)
(0.158378 -0.0640791 -2.30297e-18)
(0.175733 -0.0657138 2.40419e-18)
(0.193948 -0.0668715 2.43493e-18)
(0.213018 -0.0675203 5.04195e-18)
(0.232937 -0.0676376 0)
(0.2537 -0.067212 0)
(0.275294 -0.0662329 0)
(0.297716 -0.0646799 -2.7091e-18)
(0.320981 -0.0625439 0)
(0.345114 -0.059828 5.64327e-18)
(0.370147 -0.0565429 0)
(0.396125 -0.0527048 -2.79668e-18)
(0.423107 -0.0483353 -5.70371e-18)
(0.451173 -0.0434609 0)
(0.480421 -0.0381136 -2.71676e-18)
(0.510975 -0.0323324 2.64938e-18)
(0.542986 -0.0261667 0)
(0.576636 -0.0196839 0)
(0.612146 -0.0129833 0)
(0.649755 -0.00622438 -4.36188e-18)
(0.689788 0.000331323 0)
(0.732239 0.00620462 -1.52222e-18)
(0.778378 0.0107242 2.51634e-18)
(0.821606 0.0124009 0)
(0.888684 0.00846477 3.77931e-19)
(0.970709 0.210798 0)
(0.964257 0.199169 2.07023e-18)
(0.966631 0.204805 0)
(0.976262 0.213728 2.18102e-18)
(0.978819 0.216553 -3.96136e-18)
(0.961445 0.211966 -1.84057e-18)
(0.919063 0.201103 0)
(0.853311 0.183867 0)
(0.765675 0.159627 0)
(0.661623 0.131219 1.9011e-18)
(0.547841 0.10241 1.97389e-18)
(0.430134 0.0744097 0)
(0.317227 0.0489947 0)
(0.221129 0.0270865 0)
(0.142385 0.012452 0)
(0.0868034 0.00651677 8.66141e-18)
(0.0594028 0.00709617 -4.30607e-18)
(0.0481835 0.00972318 0)
(0.0415163 0.0123697 -4.17778e-18)
(0.0363455 0.0148354 2.05815e-18)
(0.0325154 0.0167524 4.03612e-18)
(0.0301025 0.0179765 0)
(0.0291367 0.0188484 0)
(0.0295465 0.0197388 -3.79809e-18)
(0.0312297 0.0207692 0)
(0.0340562 0.0218306 -1.81205e-18)
(0.0378529 0.0226962 1.76693e-18)
(0.0424049 0.0231194 0)
(0.0474751 0.0228994 0)
(0.0528319 0.0219191 8.17781e-19)
(0.0582766 0.0201539 0)
(0.063665 0.0176582 -7.81502e-19)
(0.0689141 0.0145438 0)
(0.0740029 0.010951 -1.87981e-19)
(0.0789581 0.00702823 -9.36392e-20)
(0.0838683 0.00290593 -2.34213e-20)
(0.0888224 -0.00130729 -2.79242e-19)
(0.0939784 -0.00555419 3.71563e-19)
(0.0995028 -0.00981935 3.72809e-19)
(0.10547 -0.0140742 1.12837e-18)
(0.111961 -0.0183357 -3.78266e-19)
(0.119036 -0.0226547 3.83804e-19)
(0.126713 -0.0270616 0)
(0.134994 -0.0315631 8.02176e-19)
(0.143879 -0.0361483 8.1473e-19)
(0.15337 -0.0407939 0)
(0.16347 -0.0454672 1.71946e-18)
(0.174179 -0.0501289 8.8641e-19)
(0.185502 -0.0547342 0)
(0.197438 -0.0592352 -2.81786e-18)
(0.20999 -0.0635812 -1.93722e-18)
(0.223155 -0.0677202 9.98922e-19)
(0.236931 -0.0716 2.06603e-18)
(0.251313 -0.0751681 0)
(0.266297 -0.0783737 1.1012e-18)
(0.281876 -0.0811688 3.40995e-18)
(0.298046 -0.0835095 2.34522e-18)
(0.314801 -0.0853571 -2.41562e-18)
(0.33214 -0.0866799 -1.23736e-18)
(0.350064 -0.0874545 0)
(0.368575 -0.0876657 0)
(0.387682 -0.0873036 0)
(0.407402 -0.0863616 4.0763e-18)
(0.427764 -0.0848424 1.37183e-18)
(0.448811 -0.0827589 0)
(0.470598 -0.0801321 -2.7973e-18)
(0.493193 -0.0769898 2.84524e-18)
(0.51668 -0.0733659 -2.79949e-18)
(0.541162 -0.0693001 -2.7756e-18)
(0.566761 -0.0648382 5.25582e-20)
(0.593619 -0.0600327 -2.72028e-18)
(0.621901 -0.0549463 0)
(0.65179 -0.0496574 0)
(0.683495 -0.0442713 0)
(0.717214 -0.0389364 0)
(0.753196 -0.0338803 0)
(0.791309 -0.0294293 3.08533e-18)
(0.832635 -0.0261118 -1.15101e-18)
(0.870915 -0.0245047 0)
(0.930373 -0.0261106 -3.91526e-19)
(0.972919 0.21779 0)
(0.965116 0.20638 2.41042e-18)
(0.957351 0.202157 3.13354e-19)
(0.958491 0.20329 2.44301e-18)
(0.968839 0.206094 0)
(0.980947 0.208572 -2.13829e-18)
(0.986625 0.209216 0)
(0.980296 0.206198 -4.87959e-19)
(0.958009 0.198055 0)
(0.917112 0.184733 -2.22007e-18)
(0.858159 0.167627 -1.74157e-18)
(0.783684 0.147345 -4.4362e-19)
(0.695921 0.1242 4.45185e-19)
(0.600631 0.0999424 0)
(0.50337 0.0768125 4.54885e-19)
(0.409409 0.056209 0)
(0.327421 0.0393538 3.75983e-18)
(0.263294 0.0271982 -4.89724e-19)
(0.217214 0.0197439 0)
(0.1866 0.0160977 -2.48776e-18)
(0.167436 0.0148744 0)
(0.155785 0.0148781 0)
(0.148849 0.0153762 0)
(0.145047 0.0159857 0)
(0.143626 0.0165062 -2.36495e-19)
(0.14422 0.0168291 0)
(0.146558 0.0168795 0)
(0.150344 0.0165776 1.11298e-19)
(0.155253 0.0158341 0)
(0.160959 0.0145704 0)
(0.167173 0.0127428 0)
(0.173665 0.0103499 -5.11308e-20)
(0.180268 0.00743418 0)
(0.186883 0.00405111 -2.21343e-19)
(0.193485 0.000267223 0)
(0.200125 -0.00381292 2.40855e-20)
(0.206892 -0.00811453 1.19895e-19)
(0.213864 -0.0125671 2.41281e-20)
(0.221128 -0.0171404 -4.83481e-20)
(0.228753 -0.02181 -3.85106e-19)
(0.236792 -0.0265657 -3.88812e-19)
(0.245281 -0.0314127 3.93863e-19)
(0.254232 -0.0363549 -1.0101e-19)
(0.263643 -0.0413869 -8.15646e-19)
(0.273503 -0.0464931 8.33365e-19)
(0.283801 -0.0516484 -1.07626e-19)
(0.294524 -0.0568198 0)
(0.305659 -0.0619676 -9.01024e-19)
(0.317195 -0.0670469 0)
(0.329118 -0.0720088 9.57524e-19)
(0.341418 -0.0768016 0)
(0.354082 -0.0813721 1.02204e-18)
(0.367098 -0.0856666 0)
(0.380455 -0.0896324 -2.74303e-19)
(0.394142 -0.0932187 -1.13037e-18)
(0.408153 -0.0963785 -1.16845e-18)
(0.422481 -0.0990699 3.0198e-19)
(0.437127 -0.101257 0)
(0.452095 -0.102912 1.28325e-18)
(0.467396 -0.104017 -3.29203e-19)
(0.483047 -0.104559 0)
(0.499076 -0.104538 3.45387e-19)
(0.51552 -0.103959 -1.41806e-18)
(0.532431 -0.102836 -1.4441e-18)
(0.549872 -0.101193 0)
(0.567925 -0.0990605 2.96181e-18)
(0.586682 -0.0964774 0)
(0.606253 -0.0934878 2.97993e-18)
(0.626765 -0.0901411 2.96158e-18)
(0.648361 -0.0864916 2.92072e-18)
(0.671201 -0.082599 3.51316e-19)
(0.695464 -0.07853 0)
(0.721341 -0.0743615 0)
(0.749034 -0.0701879 0)
(0.778726 -0.0661255 -2.73115e-19)
(0.810646 -0.0623436 0)
(0.844578 -0.0590189 -1.42965e-18)
(0.881689 -0.0565286 1.39182e-18)
(0.915633 -0.0549318 9.36565e-20)
(0.969888 -0.0548055 4.89715e-20)
(0.974031 0.220517 -1.50123e-18)
(0.969589 0.21179 1.45645e-18)
(0.961607 0.205778 -3.55024e-19)
(0.955327 0.202584 0)
(0.954929 0.20072 0)
(0.960643 0.199773 0)
(0.970532 0.199762 0)
(0.981813 0.199945 1.67647e-18)
(0.990827 0.198994 0)
(0.993065 0.195663 -1.51144e-18)
(0.984691 0.189361 -1.9007e-18)
(0.963669 0.179972 4.43101e-19)
(0.929021 0.167456 1.33111e-18)
(0.880793 0.151829 0)
(0.820379 0.133893 -2.08763e-18)
(0.750221 0.114712 0)
(0.67571 0.0955912 -1.68777e-18)
(0.603093 0.0778919 4.25195e-19)
(0.536257 0.0623726 -1.77609e-18)
(0.477616 0.0493487 -1.36894e-18)
(0.428596 0.038889 0)
(0.389611 0.0308729 0)
(0.36011 0.0250043 -9.36856e-19)
(0.338831 0.0208597 0)
(0.324222 0.0179688 -7.00658e-19)
(0.314807 0.0158879 0)
(0.309374 0.0142368 0)
(0.306996 0.0127058 -1.11163e-19)
(0.306976 0.0110553 0)
(0.308779 0.00911723 0)
(0.311979 0.00679536 0)
(0.316241 0.00405183 5.22821e-20)
(0.321294 0.000867866 2.09152e-19)
(0.326918 -0.00273992 1.28824e-19)
(0.333001 -0.0067072 0)
(0.339469 -0.0109894 0)
(0.346274 -0.0155344 -2.48336e-20)
(0.353409 -0.0202878 -1.25635e-19)
(0.360886 -0.0252086 4.97609e-20)
(0.36872 -0.0302673 0)
(0.376924 -0.0354434 0)
(0.3855 -0.0407242 -2.08316e-19)
(0.394442 -0.0460975 1.04266e-19)
(0.403731 -0.0515469 -4.316e-19)
(0.413345 -0.0570503 4.41086e-19)
(0.423257 -0.0625787 1.11416e-19)
(0.433441 -0.0680973 0)
(0.443869 -0.0735656 4.77313e-19)
(0.454514 -0.0789382 0)
(0.465351 -0.0841662 0)
(0.476355 -0.089198 0)
(0.487503 -0.0939811 0)
(0.498775 -0.0984629 0)
(0.510154 -0.102593 2.88279e-19)
(0.521628 -0.106322 0)
(0.533188 -0.109609 1.24234e-18)
(0.544835 -0.112415 -3.20014e-19)
(0.556576 -0.114712 0)
(0.568427 -0.116479 1.36713e-18)
(0.580414 -0.117704 3.52077e-19)
(0.592574 -0.118385 1.44615e-18)
(0.604955 -0.118531 -3.71712e-19)
(0.61762 -0.118157 0)
(0.630643 -0.117289 -1.54476e-18)
(0.644115 -0.115961 0)
(0.65814 -0.114213 0)
(0.672835 -0.112092 -1.5969e-18)
(0.688332 -0.109649 0)
(0.704777 -0.106942 0)
(0.72233 -0.104028 -1.5675e-18)
(0.741165 -0.100969 -3.86951e-19)
(0.761468 -0.0978313 0)
(0.783437 -0.0946848 0)
(0.807275 -0.0916078 0)
(0.833156 -0.0886812 3.02067e-19)
(0.861322 -0.086018 -1.04669e-18)
(0.891495 -0.0836706 -2.19811e-19)
(0.925042 -0.0818848 -1.67268e-19)
(0.955318 -0.0804329 -1.03447e-19)
(1.00578 -0.0791546 -2.62281e-19)
(0.974215 0.221531 5.2108e-18)
(0.971746 0.214828 -5.0255e-18)
(0.96669 0.20968 0)
(0.960969 0.206003 -3.20941e-18)
(0.956637 0.202434 0)
(0.954651 0.198601 -2.9339e-18)
(0.955725 0.195147 0)
(0.960626 0.192512 3.97048e-18)
(0.969292 0.190461 -4.96331e-18)
(0.980188 0.188429 2.28555e-18)
(0.990707 0.185833 2.14502e-18)
(0.998083 0.18215 0)
(0.999817 0.176793 -5.8154e-18)
(0.993596 0.169136 -3.71315e-18)
(0.977763 0.159122 5.27024e-18)
(0.951638 0.147071 0)
(0.91654 0.133571 1.64333e-18)
(0.875169 0.119366 0)
(0.829959 0.105038 1.6625e-18)
(0.783097 0.0910954 1.68176e-18)
(0.736619 0.0779586 0)
(0.692289 0.0659171 0)
(0.651514 0.055127 -9.1035e-19)
(0.615313 0.0456383 0)
(0.584309 0.0374169 8.84628e-19)
(0.558742 0.0303557 0)
(0.538488 0.0242884 0)
(0.523131 0.0190101 0)
(0.512066 0.0143012 0)
(0.504612 0.00995106 0)
(0.500109 0.00577755 0)
(0.497959 0.00162562 0)
(0.497706 -0.00260743 2.20922e-19)
(0.498955 -0.00699565 -1.05172e-19)
(0.501391 -0.0115859 5.3239e-20)
(0.504775 -0.0164027 0)
(0.508948 -0.0214429 0)
(0.513795 -0.0266828 1.03988e-19)
(0.519233 -0.0320904 -4.27138e-19)
(0.525192 -0.0376334 4.31028e-19)
(0.531617 -0.0432842 0)
(0.538455 -0.0490201 1.10317e-18)
(0.54566 -0.0548206 -9.02315e-19)
(0.553182 -0.060663 -4.69489e-19)
(0.560972 -0.0665212 -4.62861e-19)
(0.568983 -0.0723638 0)
(0.577166 -0.0781545 0)
(0.585475 -0.083852 -1.53001e-18)
(0.593866 -0.0894115 0)
(0.602296 -0.0947847 0)
(0.610731 -0.0999221 0)
(0.619136 -0.104774 1.17221e-18)
(0.627488 -0.109291 2.42932e-18)
(0.635767 -0.113428 0)
(0.643964 -0.117142 0)
(0.652078 -0.120398 -1.34389e-18)
(0.660121 -0.123168 0)
(0.668113 -0.125431 2.89667e-18)
(0.676091 -0.127176 1.49949e-18)
(0.684103 -0.128402 0)
(0.692209 -0.129117 1.58878e-18)
(0.700484 -0.129341 3.26531e-18)
(0.709016 -0.129099 3.34525e-18)
(0.717904 -0.128427 1.71401e-18)
(0.727263 -0.127366 -3.47656e-18)
(0.737216 -0.125963 3.52287e-18)
(0.747897 -0.124273 5.33838e-18)
(0.759454 -0.122349 0)
(0.772041 -0.120251 0)
(0.785825 -0.118039 1.7638e-18)
(0.800984 -0.115773 0)
(0.817706 -0.113516 3.31457e-18)
(0.836184 -0.111329 3.15657e-18)
(0.856624 -0.109276 0)
(0.879189 -0.107405 2.68287e-18)
(0.904154 -0.105785 -1.17142e-18)
(0.931177 -0.10437 0)
(0.961893 -0.103292 0)
(0.98922 -0.102167 0)
(1.03706 -0.1002 -2.23634e-19)
(0.974268 0.222146 -3.98636e-18)
(0.97248 0.216651 3.83262e-18)
(0.96904 0.212054 -7.56828e-18)
(0.965138 0.208417 3.63518e-18)
(0.961702 0.204786 0)
(0.958703 0.200568 3.32602e-18)
(0.956149 0.195948 -6.41256e-18)
(0.954823 0.191294 -6.01657e-18)
(0.955832 0.186787 -8.7308e-20)
(0.959859 0.18252 0)
(0.96688 0.17855 0)
(0.976232 0.174762 4.85775e-18)
(0.986723 0.17076 4.4741e-18)
(0.996635 0.166013 -4.40754e-18)
(1.00402 0.160188 -1.20885e-17)
(1.00708 0.15311 0)
(1.00469 0.144804 0)
(0.996642 0.135514 0)
(0.983392 0.125491 0)
(0.965681 0.115003 0)
(0.944417 0.104296 0)
(0.920561 0.0935734 0)
(0.895055 0.0830104 1.76132e-18)
(0.868798 0.07276 -3.62934e-18)
(0.842635 0.0629431 0)
(0.817332 0.0536355 0)
(0.793557 0.0448641 0)
(0.771847 0.0366151 0)
(0.752587 0.0288445 0)
(0.736006 0.0214895 -9.16326e-19)
(0.722169 0.0144751 0)
(0.711024 0.0077304 0)
(0.702342 0.00116239 1.22818e-20)
(0.696045 -0.00527243 0)
(0.691881 -0.011617 -5.51413e-20)
(0.6895 -0.017888 0)
(0.688574 -0.0241058 2.26973e-19)
(0.688833 -0.0302977 0)
(0.690061 -0.0364894 9.08703e-19)
(0.692092 -0.0426979 -4.53937e-19)
(0.694789 -0.0489296 -9.45327e-19)
(0.69804 -0.0551811 -9.39075e-19)
(0.701745 -0.0614403 9.59253e-19)
(0.705811 -0.0676864 9.82533e-19)
(0.710152 -0.073892 2.06247e-18)
(0.714687 -0.0800238 2.12083e-18)
(0.71934 -0.0860444 0)
(0.724043 -0.0919126 -1.14875e-18)
(0.728734 -0.0975853 0)
(0.733362 -0.103018 0)
(0.737883 -0.108165 -2.50437e-18)
(0.742264 -0.112983 -1.28244e-18)
(0.746483 -0.117432 3.08406e-20)
(0.75053 -0.121472 0)
(0.754411 -0.125074 0)
(0.758143 -0.128211 0)
(0.761758 -0.130866 3.1329e-18)
(0.765305 -0.133031 -3.23344e-18)
(0.768844 -0.134706 -3.35173e-18)
(0.772452 -0.135901 0)
(0.776217 -0.136637 -3.58229e-18)
(0.780237 -0.136939 -9.29374e-22)
(0.784624 -0.136843 -3.79198e-18)
(0.789494 -0.136391 3.87582e-18)
(0.794975 -0.135627 1.00144e-20)
(0.801198 -0.134605 -4.02368e-18)
(0.808304 -0.133376 -4.06613e-18)
(0.816436 -0.131998 0)
(0.825747 -0.130527 0)
(0.836395 -0.129023 0)
(0.848548 -0.127544 0)
(0.862383 -0.126146 -3.82164e-18)
(0.878081 -0.124884 -3.64181e-18)
(0.895845 -0.123808 0)
(0.915824 -0.122945 -3.09617e-18)
(0.938332 -0.122328 5.4336e-18)
(0.962961 -0.121845 0)
(0.991657 -0.121519 0)
(1.01679 -0.120893 0)
(1.06318 -0.118621 1.02963e-18)
(0.974307 0.222606 9.38071e-18)
(0.972773 0.21791 0)
(0.96991 0.213549 1.72901e-17)
(0.966846 0.209742 0)
(0.964431 0.206063 8.07984e-18)
(0.962486 0.202027 0)
(0.960481 0.197512 7.26664e-18)
(0.958356 0.19258 0)
(0.956553 0.187282 -6.7565e-18)
(0.955677 0.181711 0)
(0.956332 0.17606 1.19993e-17)
(0.959044 0.170494 -5.58544e-18)
(0.964119 0.165019 0)
(0.971417 0.159498 9.93786e-18)
(0.980322 0.153783 -1.95346e-19)
(0.989895 0.147705 -9.02606e-18)
(0.998888 0.141183 8.73859e-18)
(1.00617 0.134244 0)
(1.01111 0.126888 0)
(1.01342 0.119146 8.24309e-18)
(1.01307 0.111081 0)
(1.01019 0.102768 -4.02674e-18)
(1.00503 0.094287 0)
(0.997902 0.0857146 3.86401e-18)
(0.989132 0.0771123 0)
(0.979074 0.0685218 3.94463e-18)
(0.968076 0.0599687 0)
(0.956473 0.0514693 0)
(0.944587 0.0430364 1.9672e-18)
(0.932718 0.0346816 9.56299e-19)
(0.921138 0.0264138 0)
(0.910077 0.0182377 0)
(0.899747 0.0101592 -1.47846e-18)
(0.89015 0.00216295 0)
(0.88147 -0.00575698 0)
(0.873873 -0.0135916 0)
(0.867435 -0.021319 -2.43532e-19)
(0.862153 -0.0289218 0)
(0.857961 -0.0363908 -1.52108e-18)
(0.854745 -0.043723 -1.03862e-18)
(0.852364 -0.0509174 1.02633e-18)
(0.850669 -0.0579731 0)
(0.849511 -0.0648864 0)
(0.848751 -0.0716497 2.25954e-18)
(0.848269 -0.0782501 -2.26733e-18)
(0.847956 -0.0846687 -2.33904e-18)
(0.847722 -0.0908816 0)
(0.847492 -0.0968604 -5.01376e-20)
(0.847204 -0.102573 2.64658e-18)
(0.846814 -0.107986 0)
(0.846289 -0.113066 2.80813e-18)
(0.845614 -0.117779 2.96324e-18)
(0.844788 -0.122097 -3.04478e-18)
(0.843826 -0.125994 0)
(0.842761 -0.129452 0)
(0.841641 -0.132457 0)
(0.840528 -0.135007 -3.58154e-18)
(0.839499 -0.137104 0)
(0.838643 -0.138761 0)
(0.838057 -0.139996 0)
(0.837848 -0.140836 8.30332e-18)
(0.838128 -0.141314 -4.27679e-18)
(0.839011 -0.141468 0)
(0.840616 -0.141341 -4.51288e-18)
(0.843062 -0.140978 -4.60092e-18)
(0.84647 -0.14043 9.36566e-18)
(0.850965 -0.139747 -9.47517e-18)
(0.856672 -0.138984 -9.53029e-18)
(0.863724 -0.138193 0)
(0.872256 -0.137431 -9.43292e-18)
(0.882416 -0.136753 0)
(0.89436 -0.136211 0)
(0.908251 -0.135853 0)
(0.924281 -0.135724 8.02081e-18)
(0.942585 -0.135836 -7.3167e-18)
(0.963521 -0.136197 -9.64009e-18)
(0.986609 -0.136656 0)
(1.01414 -0.13714 4.08564e-18)
(1.03785 -0.137167 0)
(1.08397 -0.134933 -1.77601e-18)
(0.974319 0.222965 -1.06827e-17)
(0.972879 0.218869 -1.03287e-17)
(0.970246 0.214688 -1.9871e-17)
(0.967479 0.210705 0)
(0.965408 0.206839 -1.84494e-17)
(0.964014 0.202775 -8.85009e-18)
(0.962858 0.198347 0)
(0.961675 0.193541 1.608e-17)
(0.960427 0.188324 1.51164e-17)
(0.959156 0.182654 0)
(0.958005 0.176577 -1.36291e-17)
(0.957296 0.170203 0)
(0.957495 0.16362 0)
(0.959026 0.156861 1.17996e-17)
(0.962144 0.149958 1.09899e-17)
(0.966918 0.142928 -1.88786e-19)
(0.97305 0.135864 1.92508e-19)
(0.97995 0.128858 0)
(0.987063 0.12186 0)
(0.993927 0.114813 -9.47868e-18)
(1.00019 0.107683 -9.53651e-18)
(1.00562 0.100458 1.4004e-17)
(1.01008 0.0931374 4.64913e-18)
(1.01351 0.0857295 4.60307e-18)
(1.0159 0.0782427 0)
(1.01729 0.0706807 -4.42018e-18)
(1.01776 0.0630419 0)
(1.01739 0.0553206 0)
(1.01627 0.0475107 -4.42036e-18)
(1.01449 0.0396081 0)
(1.01215 0.0316137 0)
(1.00933 0.023534 0)
(1.00614 0.0153906 1.09768e-18)
(1.00268 0.00719449 -5.70044e-19)
(0.998859 -0.00101974 2.85766e-19)
(0.994649 -0.0092355 0)
(0.99009 -0.0174272 0)
(0.985246 -0.0255585 0)
(0.980195 -0.0335927 1.14582e-18)
(0.975011 -0.0414977 1.1647e-18)
(0.969761 -0.0492466 -2.44304e-18)
(0.964493 -0.0568166 0)
(0.959236 -0.0641877 0)
(0.954002 -0.0713408 -5.18792e-18)
(0.948787 -0.0782565 -2.70366e-18)
(0.943576 -0.0849143 0)
(0.938348 -0.0912924 0)
(0.933085 -0.097368 2.92997e-18)
(0.927772 -0.103118 5.4345e-20)
(0.922405 -0.108519 0)
(0.916991 -0.113551 0)
(0.91155 -0.118196 -3.43637e-18)
(0.906119 -0.122438 0)
(0.900748 -0.126269 0)
(0.895502 -0.129682 0)
(0.890454 -0.132681 0)
(0.885691 -0.13527 0)
(0.881302 -0.137463 -8.84816e-18)
(0.877385 -0.139278 0)
(0.874037 -0.140739 0)
(0.871357 -0.141873 2.40214e-20)
(0.869441 -0.142713 0)
(0.868387 -0.143294 0)
(0.868288 -0.143655 0)
(0.86924 -0.143839 2.19281e-17)
(0.871337 -0.14389 -1.11627e-17)
(0.874675 -0.143856 1.13096e-17)
(0.879357 -0.143785 2.3757e-21)
(0.885486 -0.14373 0)
(0.893177 -0.143741 1.13071e-17)
(0.902553 -0.143873 -1.11156e-17)
(0.913751 -0.144175 0)
(0.926916 -0.144695 0)
(0.942232 -0.145472 3.30468e-20)
(0.959819 -0.146514 8.81845e-18)
(0.980084 -0.147819 7.7608e-18)
(1.00247 -0.149214 0)
(1.02965 -0.150554 -4.92277e-18)
(1.05264 -0.151351 0)
(1.09958 -0.149526 1.40854e-18)
(0.974304 0.223274 0)
(0.972844 0.21966 2.36187e-17)
(0.970297 0.215616 2.28291e-17)
(0.967693 0.211502 0)
(0.965747 0.207458 1.05425e-17)
(0.964459 0.203259 -1.02494e-17)
(0.963552 0.198742 0)
(0.962879 0.193915 -1.82716e-17)
(0.962385 0.188767 0)
(0.96196 0.183232 0)
(0.961465 0.177274 0)
(0.960849 0.170906 0)
(0.960209 0.164144 0)
(0.959733 0.156994 1.91234e-19)
(0.959646 0.149494 -1.29212e-17)
(0.960204 0.141712 -1.87285e-19)
(0.961601 0.133858 1.89119e-19)
(0.963859 0.12614 0)
(0.96687 0.118576 0)
(0.970465 0.11114 0)
(0.974461 0.103807 -2.02932e-19)
(0.978681 0.0965479 2.0607e-19)
(0.982962 0.0893362 -5.37157e-18)
(0.987166 0.0821479 -5.31788e-18)
(0.991182 0.0749614 0)
(0.994926 0.0677547 -5.34224e-18)
(0.998328 0.0605041 5.31208e-18)
(1.00133 0.0531862 0)
(1.0039 0.0457805 2.57847e-18)
(1.00598 0.0382722 2.63554e-18)
(1.00754 0.0306542 0)
(1.00856 0.0229293 0)
(1.00902 0.015112 1.33236e-18)
(1.00892 0.00722709 -1.70058e-20)
(1.00828 -0.000678375 -6.66719e-19)
(1.00711 -0.00857353 0)
(1.0054 -0.01644 0)
(1.00315 -0.0242555 -1.38231e-18)
(1.00037 -0.031994 0)
(0.997057 -0.0396303 -1.42529e-18)
(0.993221 -0.0471402 -6.8671e-20)
(0.988881 -0.0545001 0)
(0.984059 -0.0616865 3.04903e-18)
(0.978786 -0.0686758 6.20283e-18)
(0.973098 -0.0754443 3.16499e-18)
(0.967039 -0.0819685 0)
(0.96066 -0.0882254 -6.89912e-18)
(0.95402 -0.0941935 0)
(0.947184 -0.0998529 -3.65284e-18)
(0.940225 -0.105187 0)
(0.933219 -0.11018 0)
(0.926249 -0.114823 0)
(0.919401 -0.119107 0)
(0.912762 -0.123029 0)
(0.906421 -0.126591 -9.41503e-18)
(0.900464 -0.129795 9.79818e-18)
(0.894977 -0.13265 0)
(0.890043 -0.135169 1.05324e-17)
(0.885743 -0.137366 -1.09868e-17)
(0.882154 -0.139263 0)
(0.879352 -0.140881 -1.1739e-17)
(0.877411 -0.142249 0)
(0.876406 -0.143397 0)
(0.87641 -0.144361 0)
(0.877503 -0.145179 -1.31195e-17)
(0.879765 -0.145892 1.33844e-17)
(0.88328 -0.146545 -1.35765e-17)
(0.888138 -0.147186 2.73841e-17)
(0.894436 -0.147863 -1.37325e-17)
(0.90228 -0.148629 0)
(0.911782 -0.149533 1.34458e-17)
(0.923073 -0.150627 -1.31241e-17)
(0.93629 -0.151956 0)
(0.951617 -0.153559 5.08427e-20)
(0.969166 -0.155442 -1.09141e-17)
(0.989394 -0.1576 0)
(1.01168 -0.159855 0)
(1.03907 -0.162029 -6.24668e-18)
(1.06179 -0.163572 0)
(1.11042 -0.162551 -1.7634e-18)
(0.974265 0.223567 0)
(0.972691 0.220353 -1.35113e-17)
(0.970127 0.216372 -1.30577e-17)
(0.967638 0.212139 0)
(0.965804 0.207962 2.44018e-17)
(0.964552 0.203641 2.31222e-17)
(0.963664 0.199004 0)
(0.963078 0.194071 2.12047e-17)
(0.962806 0.188862 -2.01834e-17)
(0.962796 0.183333 0)
(0.962925 0.177446 0)
(0.963069 0.17119 0)
(0.96315 0.164545 0)
(0.963125 0.157476 -1.54335e-17)
(0.962982 0.149975 -1.50448e-17)
(0.962773 0.142073 1.39378e-17)
(0.962628 0.133979 -4.11219e-17)
(0.962678 0.125934 0)
(0.963006 0.118002 0)
(0.963644 0.110194 1.3165e-17)
(0.964599 0.102517 2.58256e-17)
(0.96585 0.0949639 -1.26785e-17)
(0.96736 0.0875217 0)
(0.969074 0.0801724 0)
(0.970931 0.0728948 -6.29277e-18)
(0.972867 0.0656644 1.2411e-17)
(0.974813 0.0584538 -1.23563e-17)
(0.976697 0.0512358 0)
(0.978445 0.0439859 0)
(0.979979 0.0366855 -3.04527e-18)
(0.981223 0.0293235 0)
(0.982104 0.0218979 3.12462e-18)
(0.982559 0.0144163 -1.54172e-18)
(0.982525 0.0068994 -1.61439e-20)
(0.982019 -0.000643798 -8.19171e-21)
(0.981037 -0.00818873 0)
(0.979573 -0.015711 0)
(0.977627 -0.0231869 -3.34462e-20)
(0.975205 -0.0305914 1.66204e-18)
(0.97232 -0.0378996 5.0411e-18)
(0.968994 -0.0450882 6.83877e-18)
(0.965253 -0.0521357 3.53309e-18)
(0.961129 -0.0590225 -3.55924e-18)
(0.95666 -0.0657301 -3.66258e-18)
(0.951885 -0.0722413 3.84043e-18)
(0.946852 -0.0785397 0)
(0.941607 -0.0846096 8.08101e-18)
(0.936205 -0.0904364 -8.49544e-18)
(0.930701 -0.096006 0)
(0.925154 -0.101306 0)
(0.919624 -0.106324 0)
(0.914173 -0.11105 0)
(0.908863 -0.115477 0)
(0.903758 -0.119597 0)
(0.898922 -0.123408 1.10342e-17)
(0.894416 -0.126909 -2.30363e-17)
(0.890307 -0.130103 -1.20059e-17)
(0.886659 -0.132997 1.24627e-17)
(0.88354 -0.135603 1.28655e-17)
(0.881021 -0.137935 -1.33813e-17)
(0.879177 -0.140015 1.38337e-17)
(0.878083 -0.141869 0)
(0.877822 -0.143525 1.4695e-17)
(0.878475 -0.145019 -1.50887e-17)
(0.880128 -0.146387 0)
(0.88287 -0.147672 -3.14848e-17)
(0.886788 -0.148917 1.59796e-17)
(0.891978 -0.150168 -3.23287e-17)
(0.898535 -0.151475 1.62299e-17)
(0.906565 -0.152885 0)
(0.916183 -0.154452 1.60477e-17)
(0.927519 -0.156224 1.56648e-17)
(0.940715 -0.15825 -1.51651e-17)
(0.955965 -0.160569 -1.43195e-17)
(0.973388 -0.16319 1.32364e-17)
(0.993507 -0.166114 0)
(1.01565 -0.169156 0)
(1.04326 -0.172157 7.75534e-18)
(1.06579 -0.174362 0)
(1.11643 -0.174502 2.2186e-18)
(0.974202 0.223865 1.62962e-17)
(0.972436 0.220979 0)
(0.969784 0.216985 -3.02304e-17)
(0.967373 0.212638 2.92007e-17)
(0.965644 0.208361 -2.78016e-17)
(0.964441 0.203944 2.67538e-17)
(0.96357 0.199205 0)
(0.962995 0.194174 2.02101e-19)
(0.962739 0.188878 2.29789e-17)
(0.962785 0.183285 0)
(0.963067 0.177366 0)
(0.963515 0.171115 0)
(0.964068 0.164516 3.7799e-17)
(0.964656 0.157534 0)
(0.965193 0.150143 3.37377e-17)
(0.965609 0.142342 0)
(0.965885 0.134313 6.28859e-17)
(0.966044 0.126285 0)
(0.96613 0.11832 0)
(0.966187 0.110437 -3.00741e-17)
(0.96626 0.102652 -1.47706e-17)
(0.966389 0.0949713 0)
(0.966601 0.0873951 0)
(0.966909 0.0799172 0)
(0.967314 0.0725266 7.163e-18)
(0.967806 0.0652068 -7.13014e-18)
(0.968361 0.0579377 -1.07615e-19)
(0.968945 0.0506974 0)
(0.969515 0.0434654 7.19694e-18)
(0.970018 0.0362251 0)
(0.970399 0.0289653 0)
(0.970604 0.0216814 -3.57271e-18)
(0.970581 0.0143766 1.8299e-18)
(0.970286 0.00706224 -1.56417e-20)
(0.969697 -0.000272265 4.55892e-19)
(0.968786 -0.00760308 0)
(0.967534 -0.0149039 0)