/*--------------------------------*- C++ -*----------------------------------*\
| =========                 |                                                 |
| \\      /  F ield         | OpenFOAM: The Open Source CFD Toolbox           |
|  \\    /   O peration     | Version:  v1912                                 |
|   \\  /    A nd           | Website:  www.openfoam.com                      |
|    \\/     M anipulation  |                                                 |
\*---------------------------------------------------------------------------*/
FoamFile
{
    version     2.0;
    format      ascii;
    class       volScalarField;
    location    "75";
    object      epsilon;
}
// * * * * * * * * * * * * * * * * * * * * * * * * * * * * * * * * * * * * * //

dimensions      [0 2 -3 0 0 0 0];


internalField   nonuniform List<scalar> 
2000
(
0.0135126
0.0111846
0.00819048
0.00480244
0.00123024
0.000130615
0.00010735
0.000127037
0.000137006
0.000114844
7.18319e-05
4.59548e-05
5.00233e-05
5.56567e-05
6.24201e-05
7.33596e-05
8.96024e-05
0.000110888
0.000137248
0.000168789
0.000205269
0.000246159
0.000290924
0.000339392
0.000392145
0.000450869
0.000518496
0.000598939
0.000696331
0.000813981
0.000953526
0.00111466
0.0012954
0.00149263
0.00170274
0.00192211
0.00214778
0.00237814
0.00261401
0.0028602
0.00310803
0.00335083
0.00359081
0.00383049
0.00407145
0.00431449
0.00455979
0.00480711
0.00505594
0.00530557
0.00555522
0.00580403
0.00605113
0.00629481
0.00653339
0.00676658
0.0069945
0.00721834
0.00744273
0.00768785
0.00796798
0.00826674
0.00857562
0.00889208
0.00921631
0.00954976
0.00989476
0.0102544
0.0106324
0.0110337
0.0114638
0.0119301
0.0124413
0.013009
0.0136486
0.0143809
0.0152388
0.0162721
0.0175614
0.019495
0.122256
0.0401406
0.0185256
0.010223
0.00591106
0.00348477
0.00206727
0.0012119
0.00161697
0.00083322
0.000379317
0.000246157
0.000200408
0.000166042
0.000140757
0.000136545
0.000146173
0.000163643
0.000188268
0.000220268
0.000259594
0.000305999
0.000359133
0.000418636
0.000484359
0.000556701
0.000636941
0.000727357
0.000831034
0.000951296
0.00109094
0.00125164
0.00143363
0.00163559
0.00185484
0.00208776
0.0023302
0.00257785
0.00282628
0.00306699
0.00329775
0.00352
0.00373563
0.00394658
0.00415411
0.00435882
0.0045608
0.00475979
0.0049553
0.00514675
0.0053336
0.00551577
0.00569473
0.0058665
0.00602572
0.00617477
0.00631428
0.00644469
0.00656702
0.00668311
0.00679393
0.00689934
0.0069994
0.0070945
0.00718548
0.00727356
0.0073603
0.00744758
0.00753757
0.00763277
0.00773597
0.00785033
0.00797935
0.00812673
0.00829655
0.00849031
0.00871418
0.00893547
0.00923637
0.00925188
0.111974
0.0306046
0.0126523
0.00692856
0.00433039
0.00288153
0.00200645
0.00148117
0.00143514
0.00141441
0.00145507
0.00168181
0.00168542
0.00109297
0.000727472
0.000565408
0.000502623
0.000475874
0.00047444
0.000494338
0.000532611
0.000588112
0.000660146
0.000747407
0.000848011
0.000959826
0.00108096
0.00121026
0.00134772
0.00149458
0.00165291
0.00182512
0.00201327
0.00221876
0.00244219
0.00268355
0.00294325
0.00322171
0.0035062
0.00378773
0.00406412
0.00432903
0.00458507
0.00483312
0.00507327
0.00530518
0.00552824
0.00574165
0.00594454
0.00613598
0.00631512
0.00648122
0.0066337
0.00677165
0.0068942
0.00700127
0.00709297
0.00716962
0.00723175
0.00728022
0.00731622
0.0073412
0.00735662
0.00736397
0.00736488
0.00736119
0.00735498
0.00734847
0.00734409
0.00734446
0.00735233
0.00737058
0.0074021
0.00744956
0.00751499
0.00759801
0.00769664
0.00778741
0.00790728
0.00780951
0.109259
0.0267998
0.00926361
0.00444635
0.00268884
0.00184492
0.00135678
0.00105293
0.000931478
0.000919219
0.00101302
0.00130173
0.00179346
0.00227375
0.00266314
0.0026861
0.00233923
0.00194629
0.00167836
0.00152929
0.00146002
0.00144837
0.00148357
0.00155773
0.00166377
0.00179492
0.00194447
0.00210613
0.00227479
0.00244746
0.00262368
0.00280541
0.00299608
0.00320025
0.00342335
0.00366921
0.00394841
0.00424111
0.00453835
0.00483666
0.00513098
0.00541632
0.00568998
0.00595029
0.00619595
0.00642586
0.00663899
0.00683435
0.00701104
0.00716824
0.00730531
0.00742179
0.00751745
0.00759224
0.00764636
0.00768032
0.0076949
0.00769114
0.00767029
0.00763387
0.00758368
0.00752173
0.00745015
0.00737112
0.00728686
0.00719968
0.00711192
0.00702598
0.00694429
0.00686934
0.0068036
0.00674955
0.00670951
0.00668548
0.0066787
0.0066884
0.00671232
0.00673304
0.0067793
0.00667774
0.108843
0.026042
0.00822864
0.00339472
0.00179846
0.00115693
0.000842949
0.000662644
0.000566206
0.00052849
0.000545825
0.000647364
0.000882751
0.0012842
0.00191086
0.00275791
0.00360275
0.00419963
0.00443967
0.00437678
0.00416067
0.00392925
0.00375595
0.00366144
0.00364112
0.00368226
0.00377052
0.00389203
0.00403462
0.00418905
0.00434979
0.00451535
0.00468727
0.00486997
0.00507939
0.00530965
0.00554455
0.00578548
0.0060303
0.00627537
0.00651605
0.0067475
0.00696566
0.00716735
0.00735012
0.00751212
0.00765193
0.00776851
0.00786116
0.00792948
0.00797342
0.00799322
0.00798948
0.0079631
0.00791527
0.00784749
0.00776148
0.00765917
0.00754269
0.00741427
0.00727628
0.00713114
0.0069813
0.00682913
0.00667694
0.00652696
0.00638133
0.00624212
0.00611132
0.00599085
0.0058826
0.00578838
0.00570991
0.00564867
0.00560564
0.00558047
0.00557217
0.00556854
0.00559528
0.00552514
0.108786
0.0259478
0.00802261
0.00308846
0.00145449
0.000827007
0.000552185
0.00041558
0.000343388
0.000307101
0.000297133
0.000318142
0.000387057
0.000527896
0.000783844
0.00121722
0.0018514
0.00267564
0.00363361
0.0046097
0.00546407
0.0060953
0.00648062
0.00666657
0.0067291
0.00673749
0.00673794
0.00675329
0.00679002
0.00684606
0.0069167
0.00699782
0.00709204
0.00719737
0.00729986
0.00740305
0.00750812
0.00761518
0.00772303
0.00782914
0.00793009
0.00802211
0.00810159
0.00816541
0.00821103
0.00823649
0.00824041
0.00822197
0.00818086
0.00811727
0.00803184
0.00792561
0.00780003
0.00765684
0.00749806
0.00732595
0.00714287
0.0069513
0.00675371
0.00655258
0.0063503
0.00614915
0.00595126
0.00575859
0.0055729
0.00539577
0.00522861
0.00507269
0.00492915
0.00479907
0.00468348
0.00458339
0.00449981
0.00443369
0.00438586
0.00435642
0.00434565
0.00434535
0.00437855
0.00435306
0.108778
0.0259454
0.00799957
0.00302528
0.00135554
0.000706522
0.000424152
0.000289733
0.00022166
0.000186624
0.000170544
0.000169152
0.000184688
0.000223891
0.00030031
0.000437473
0.000655737
0.000977092
0.00142401
0.00201077
0.00273538
0.00357331
0.00447674
0.00538243
0.00622663
0.00696024
0.00755775
0.00801723
0.00835369
0.00859056
0.00875241
0.00886014
0.00891202
0.00892521
0.00891357
0.0088853
0.0088454
0.00879685
0.00874117
0.00867866
0.00860862
0.00852969
0.0084402
0.00833845
0.00822298
0.00809269
0.00794697
0.00778572
0.00760935
0.00741876
0.00721527
0.00700057
0.0067766
0.00654555
0.00630968
0.00607134
0.00583283
0.00559636
0.00536403
0.00513773
0.00491914
0.00470974
0.00451076
0.0043232
0.00414787
0.00398536
0.00383615
0.00370056
0.00357888
0.00347135
0.00337823
0.00329985
0.00323665
0.00318917
0.00315808
0.00314381
0.00314761
0.00316432
0.00321392
0.00323298
0.108777
0.0259493
0.00800217
0.00301728
0.00133369
0.000671649
0.000379122
0.000237967
0.000165446
0.000126874
0.00010662
9.76693e-05
9.76029e-05
0.000106766
0.000128021
0.000167339
0.000229976
0.00032251
0.000453527
0.000632661
0.000869759
0.00117364
0.00155064
0.00200313
0.00252819
0.00311655
0.00375214
0.00441273
0.00507189
0.00570218
0.00627876
0.00678277
0.00721334
0.00752062
0.00771465
0.00781391
0.00783879
0.00780747
0.00773435
0.00762981
0.00750082
0.00735183
0.00718567
0.00700427
0.00680918
0.00660184
0.00638378
0.00615668
0.00592235
0.00568276
0.00543994
0.00519598
0.00495293
0.0047128
0.00447746
0.00424864
0.00402786
0.00381644
0.00361546
0.00342579
0.00324806
0.00308269
0.00292993
0.00278987
0.00266247
0.0025476
0.00244508
0.00235468
0.00227619
0.00220945
0.00215436
0.00211095
0.0020794
0.00206008
0.00205365
0.00206078
0.00208326
0.00211835
0.00218262
0.00223614
0.108777
0.0259518
0.0080053
0.00301795
0.0013302
0.000663291
0.000365817
0.000220125
0.000143583
0.00010136
7.75011e-05
6.42902e-05
5.80208e-05
5.71474e-05
6.15372e-05
7.22654e-05
9.02118e-05
0.000116528
0.00015283
0.000200961
0.000262918
0.000340754
0.000436484
0.000552019
0.000689102
0.000849204
0.00103334
0.00124179
0.00147373
0.00172684
0.001997
0.00227814
0.00256477
0.00288455
0.00319916
0.00348918
0.00373904
0.00393851
0.00408289
0.00417231
0.00421035
0.00420272
0.0041561
0.00407726
0.00397256
0.00384773
0.00370774
0.00355688
0.00339883
0.00323672
0.00307323
0.00291063
0.00275086
0.00259553
0.00244596
0.00230321
0.00216808
0.00204116
0.00192284
0.00181334
0.00171274
0.00162101
0.00153805
0.00146368
0.0013977
0.0013399
0.00129006
0.00124798
0.00121351
0.00118657
0.00116714
0.00115531
0.00115133
0.00115562
0.00116887
0.00119195
0.00122683
0.00127255
0.00134207
0.00141365
0.108777
0.0259526
0.0080068
0.003019
0.0013301
0.00066164
0.000362352
0.00021469
0.000136103
9.17952e-05
6.57764e-05
5.01782e-05
4.09526e-05
3.60004e-05
3.43244e-05
3.56531e-05
3.98756e-05
4.69893e-05
5.71557e-05
7.05717e-05
8.74021e-05
0.000107735
0.000131561
0.000158767
0.000189154
0.000222443
0.000258275
0.000296195
0.000335602
0.000375688
0.000415358
0.000453179
0.000487551
0.000518842
0.000563792
0.000620756
0.000687615
0.000761138
0.000837351
0.000912016
0.000981134
0.00104134
0.00109016
0.00112611
0.00114868
0.00115815
0.00115548
0.00114205
0.00111947
0.0010895
0.00105383
0.00101407
0.000971645
0.000927823
0.000883661
0.000840037
0.000797661
0.000757091
0.00071876
0.000682996
0.000650041
0.000620069
0.000593207
0.000569545
0.000549152
0.000532088
0.000518415
0.000508209
0.000501573
0.000498646
0.000499621
0.000504763
0.000514439
0.00052915
0.000549621
0.000576756
0.000612359
0.000656686
0.000719001
0.00079044
0.108777
0.025952
0.00800676
0.0030193
0.00133027
0.000661396
0.00036153
0.00021316
0.000133749
8.85157e-05
6.14725e-05
4.47235e-05
3.41388e-05
2.74672e-05
2.34619e-05
2.14585e-05
2.10926e-05
2.2073e-05
2.42451e-05
2.75266e-05
3.18534e-05
3.71456e-05
4.32874e-05
5.01206e-05
5.74449e-05
6.50243e-05
7.2592e-05
7.9854e-05
8.64881e-05
9.21405e-05
9.64245e-05
9.8925e-05
9.92287e-05
9.69847e-05
9.46226e-05
9.31981e-05
9.29377e-05
9.40387e-05
9.66333e-05
0.000100755
0.000106319
0.000113117
0.000120834
0.00012908
0.000137432
0.00014547
0.000152821
0.000159179
0.000164323
0.000168124
0.000170539
0.0001716
0.000171404
0.000170092
0.000167839
0.000164837
0.000161284
0.000157378
0.000153305
0.000149242
0.00014535
0.000141777
0.000138656
0.000136114
0.000134271
0.000133247
0.000133165
0.000134162
0.000136393
0.000140044
0.000145341
0.000152571
0.000162098
0.000174396
0.000190111
0.000210063
0.000235678
0.000267843
0.000312422
0.000368084
0.108777
0.02595
0.00800539
0.0030188
0.00133012
0.000661286
0.000361308
0.000212732
0.000133038
8.74516e-05
5.99885e-05
4.27474e-05
3.15797e-05
2.41959e-05
1.92837e-05
1.60739e-05
1.41511e-05
1.31519e-05
1.28371e-05
1.30573e-05
1.37093e-05
1.47107e-05
1.59848e-05
1.74532e-05
1.90329e-05
2.0636e-05
2.2172e-05
2.3549e-05
2.46762e-05
2.54669e-05
2.58417e-05
2.57359e-05
2.5109e-05
2.39565e-05
2.2731e-05
2.15258e-05
2.03467e-05
1.92015e-05
1.81007e-05
1.70565e-05
1.60824e-05
1.51919e-05
1.43975e-05
1.37093e-05
1.31336e-05
1.26721e-05
1.23217e-05
1.20743e-05
1.1918e-05
1.18378e-05
1.18178e-05
1.18422e-05
1.18973e-05
1.19723e-05
1.20607e-05
1.21605e-05
1.22749e-05
1.24119e-05
1.25843e-05
1.28089e-05
1.31066e-05
1.35011e-05
1.40188e-05
1.46884e-05
1.55402e-05
1.66071e-05
1.79249e-05
1.95346e-05
2.14857e-05
2.3841e-05
2.66844e-05
3.01322e-05
3.43499e-05
3.9576e-05
4.61644e-05
5.46213e-05
6.58035e-05
8.06085e-05
0.000102219
0.000131947
0.108777
0.0259466
0.00800288
0.0030176
0.00132958
0.00066102
0.000361136
0.000212558
0.0001328
8.71046e-05
5.94919e-05
4.20621e-05
3.0663e-05
2.29957e-05
1.77314e-05
1.40743e-05
1.16066e-05
9.95335e-06
8.85926e-06
8.16246e-06
7.75482e-06
7.55935e-06
7.51721e-06
7.58025e-06
7.707e-06
7.86063e-06
8.00813e-06
8.12009e-06
8.17097e-06
8.13954e-06
8.00983e-06
7.77228e-06
7.4253e-06
6.97166e-06
6.53371e-06
6.11195e-06
5.70567e-06
5.31458e-06
4.93876e-06
4.57854e-06
4.23441e-06
3.90693e-06
3.59666e-06
3.30413e-06
3.02977e-06
2.77398e-06
2.53715e-06
2.31982e-06
2.12284e-06
1.94763e-06
1.79655e-06
1.67331e-06
1.58341e-06
1.5346e-06
1.53734e-06
1.60506e-06
1.75434e-06
2.00483e-06
2.37898e-06
2.90146e-06
3.59841e-06
4.49641e-06
5.62117e-06
6.99634e-06
8.64232e-06
1.05755e-05
1.28083e-05
1.5349e-05
1.8204e-05
2.13787e-05
2.48812e-05
2.87252e-05
3.29335e-05
3.75421e-05
4.26038e-05
4.81791e-05
5.43724e-05
6.10797e-05
6.89854e-05
7.64784e-05
0.108777
0.0259418
0.00799937
0.00301582
0.0013287
0.000660562
0.00036088
0.000212393
0.000132666
8.69616e-05
5.93122e-05
4.18226e-05
3.03418e-05
2.25699e-05
1.71742e-05
1.33525e-05
1.06903e-05
8.81288e-06
7.4636e-06
6.48057e-06
5.7575e-06
5.22175e-06
4.82168e-06
4.51921e-06
4.28533e-06
4.09745e-06
3.93773e-06
3.79207e-06
3.64945e-06
3.50162e-06
3.34289e-06
3.17001e-06
2.98219e-06
2.78264e-06
2.59617e-06
2.42138e-06
2.25721e-06
2.10281e-06
1.95756e-06
1.82094e-06
1.6926e-06
1.57226e-06
1.45978e-06
1.35524e-06
1.25903e-06
1.17212e-06
1.09638e-06
1.03507e-06
9.93431e-07
9.79413e-07
1.0045e-06
1.08453e-06
1.24051e-06
1.4993e-06
1.89417e-06
2.465e-06
3.25817e-06
4.32569e-06
5.72381e-06
7.51106e-06
9.74594e-06
1.24846e-05
1.57786e-05
1.96736e-05
2.42081e-05
2.9414e-05
3.53178e-05
4.19426e-05
4.93106e-05
5.74462e-05
6.63786e-05
7.61434e-05
8.67812e-05
9.83327e-05
0.000110822
0.000124209
0.000138346
0.000152479
0.00016618
0.000173876
0.108777
0.0259355
0.00799499
0.0030136
0.00132756
0.000659937
0.000360523
0.000212178
0.000132525
8.68561e-05
5.92174e-05
4.17214e-05
3.02204e-05
2.24162e-05
1.69764e-05
1.30978e-05
1.03681e-05
8.41417e-06
6.97992e-06
5.90449e-06
5.08316e-06
4.44545e-06
3.94249e-06
3.5395e-06
3.21111e-06
2.93853e-06
2.70761e-06
2.50766e-06
2.33055e-06
2.17018e-06
2.02207e-06
1.88306e-06
1.75109e-06
1.6264e-06
1.51311e-06
1.40972e-06
1.315e-06
1.22798e-06
1.14786e-06
1.0741e-06
1.0064e-06
9.44952e-07
8.90662e-07
8.45662e-07
8.1398e-07
8.02464e-07
8.21942e-07
8.88577e-07
1.02539e-06
1.26381e-06
1.64535e-06
2.22303e-06
3.0626e-06
4.24296e-06
5.85578e-06
8.00416e-06
1.08004e-05
1.4363e-05
1.88136e-05
2.42729e-05
3.0858e-05
3.86796e-05
4.78392e-05
5.84276e-05
7.05219e-05
8.41831e-05
9.94522e-05
0.000116345
0.000134849
0.000154916
0.000176462
0.000199365
0.000223464
0.000248556
0.000274386
0.000300595
0.000326723
0.000351387
0.000374107
0.000386455
0.108777
0.0259276
0.00798989
0.00301102
0.0013262
0.000659183
0.000360083
0.00021191
0.000132353
8.67401e-05
5.91328e-05
4.16526e-05
3.01567e-05
2.23493e-05
1.68995e-05
1.30047e-05
1.02542e-05
8.27593e-06
6.81454e-06
5.70989e-06
4.85804e-06
4.18939e-06
3.65609e-06
3.22441e-06
2.87007e-06
2.5753e-06
2.32688e-06
2.11486e-06
1.93168e-06
1.77156e-06
1.63005e-06
1.50376e-06
1.3901e-06
1.28783e-06
1.19638e-06
1.11426e-06
1.04028e-06
9.73674e-07
9.14282e-07
8.62969e-07
8.22342e-07
7.97828e-07
7.99165e-07
8.42306e-07
9.51688e-07
1.1628e-06
1.52496e-06
2.10429e-06
2.98656e-06
4.27949e-06
6.1141e-06
8.64483e-06
1.20484e-05
1.65215e-05
2.22773e-05
2.95413e-05
3.85465e-05
4.95274e-05
6.27134e-05
7.83195e-05
9.65333e-05
0.000117499
0.000141294
0.000167912
0.000197233
0.000229019
0.000262904
0.000298406
0.000334958
0.000371946
0.000408758
0.000444828
0.000479683
0.000512956
0.000544404
0.000573783
0.000601065
0.00062471
0.000645961
0.00065389
0.108777
0.0259182
0.00798424
0.00300819
0.0013247
0.000658337
0.000359581
0.000211598
0.000132151
8.66043e-05
5.90382e-05
4.15836e-05
3.01032e-05
2.23043e-05
1.68579e-05
1.29624e-05
1.02083e-05
8.22436e-06
6.7558e-06
5.643e-06
4.78247e-06
4.10501e-06
3.56315e-06
3.12354e-06
2.76223e-06
2.46175e-06
2.20912e-06
1.99456e-06
1.81062e-06
1.65156e-06
1.5129e-06
1.39113e-06
1.28349e-06
1.18812e-06
1.10362e-06
1.02928e-06
9.66075e-07
9.17928e-07
8.93732e-07
9.10072e-07
9.94672e-07
1.19035e-06
1.55935e-06
2.18804e-06
3.19168e-06
4.7188e-06
6.9542e-06
1.01204e-05
1.44772e-05
2.03198e-05
2.79746e-05
3.77945e-05
5.01512e-05
6.54257e-05
8.39945e-05
0.000106209
0.000132368
0.000162679
0.000197215
0.000235872
0.000278334
0.000324055
0.000372272
0.000422052
0.000472358
0.00052214
0.000570424
0.000616384
0.000659393
0.000699046
0.000735157
0.000767728
0.000796925
0.000823013
0.00084637
0.000867205
0.000886191
0.000901396
0.000916372
0.000913462
0.108778
0.0259075
0.00797825
0.00300523
0.00132312
0.000657439
0.000359041
0.000211255
0.000131926
8.64506e-05
5.89306e-05
4.15063e-05
3.00461e-05
2.22606e-05
1.68229e-05
1.29329e-05
1.01816e-05
8.19869e-06
6.72998e-06
5.61623e-06
4.75423e-06
4.07504e-06
3.53138e-06
3.09004e-06
2.72724e-06
2.42558e-06
2.17219e-06
1.95733e-06
1.77358e-06
1.61521e-06
1.47773e-06
1.35761e-06
1.25257e-06
1.16472e-06
1.1028e-06
1.08728e-06
1.15638e-06
1.37288e-06
1.83115e-06
2.66424e-06
4.05093e-06
6.22137e-06
9.46029e-06
1.4107e-05
2.05525e-05
2.92335e-05
4.06243e-05
5.52255e-05
7.35489e-05
9.60973e-05
0.000123336
0.000155653
0.000193313
0.000236399
0.000284758
0.000337964
0.000395299
0.000455776
0.000518207
0.000581292
0.000643736
0.000704348
0.000762129
0.000816309
0.000866358
0.000911965
0.000953003
0.000989492
0.00102156
0.00104945
0.00107344
0.00109391
0.00111131
0.00112611
0.00113888
0.00114992
0.00116037
0.00116756
0.00117764
0.00116466
0.108778
0.0258956
0.00797212
0.00300226
0.00132154
0.00065653
0.000358484
0.000210896
0.000131684
8.62836e-05
5.88124e-05
4.14208e-05
2.9983e-05
2.22133e-05
1.67866e-05
1.29043e-05
1.01584e-05
8.17909e-06
6.71286e-06
5.60082e-06
4.74005e-06
4.0618e-06
3.51901e-06
3.07866e-06
2.71719e-06
2.41751e-06
2.16713e-06
1.95695e-06
1.78057e-06
1.63393e-06
1.51546e-06
1.42829e-06
1.49923e-06
1.87629e-06
2.76079e-06
4.42774e-06
7.23143e-06
1.1605e-05
1.80531e-05
2.71388e-05
3.94652e-05
5.56532e-05
7.63168e-05
0.000102034
0.000133313
0.000170551
0.000213988
0.000263657
0.000319338
0.000380529
0.000446438
0.000516015
0.000588018
0.000661111
0.000733981
0.000805434
0.000874482
0.000940369
0.00100257
0.00106073
0.00111466
0.00116421
0.00120928
0.00124982
0.00128578
0.00131716
0.00134403
0.00136654
0.00138496
0.00139963
0.00141101
0.00141962
0.00142609
0.00143104
0.00143526
0.00143908
0.0014441
0.00144674
0.00145604
0.00143569
0.108779
0.0258827
0.00796603
0.00299936
0.00132
0.000655644
0.000357931
0.00021053
0.000131433
8.61071e-05
5.86864e-05
4.13302e-05
2.99182e-05
2.21684e-05
1.6759e-05
1.28944e-05
1.01687e-05
8.21569e-06
6.78656e-06
5.72941e-06
4.95191e-06
4.40139e-06
4.05469e-06
3.91372e-06
4.00467e-06
4.37987e-06
5.1218e-06
6.34918e-06
8.22532e-06
1.0969e-05
1.48679e-05
2.10219e-05
3.09551e-05
4.53526e-05
6.49413e-05
9.03861e-05
0.00012225
0.000160942
0.000206673
0.000259419
0.000318896
0.000384543
0.000455536
0.000530815
0.000609141
0.000689181
0.000769608
0.000849203
0.000926955
0.00100211
0.00107422
0.00114305
0.00120859
0.00127095
0.00133022
0.00138648
0.00143971
0.00148979
0.00153651
0.00157959
0.00161873
0.00165366
0.00168418
0.00171016
0.0017316
0.00174861
0.00176144
0.00177047
0.00177616
0.00177913
0.00178005
0.00177966
0.00177879
0.00177825
0.00177902
0.00178149
0.00178778
0.00179301
0.00180994
0.00178723
0.10878
0.025869
0.00796002
0.00299652
0.00131854
0.000654828
0.000357453
0.000210258
0.000131319
8.61507e-05
5.89305e-05
4.18731e-05
3.09445e-05
2.40029e-05
1.99481e-05
1.83193e-05
1.89662e-05
2.18082e-05
2.69339e-05
3.45496e-05
4.49437e-05
5.84672e-05
7.55215e-05
9.6547e-05
0.000122011
0.000152395
0.000188176
0.000229814
0.000277736
0.000332314
0.000393837
0.000462953
0.000540468
0.000624474
0.00071297
0.000803854
0.00089509
0.000984836
0.00107156
0.00115412
0.00123184
0.00130448
0.00137221
0.00143553
0.00149515
0.00155188
0.00160648
0.00165959
0.0017117
0.00176305
0.00181371
0.00186354
0.00191228
0.00195954
0.00200487
0.00204779
0.0020878
0.00212445
0.00215732
0.00218606
0.00221042
0.00223025
0.00224556
0.00225647
0.00226329
0.00226645
0.00226654
0.00226429
0.0022605
0.0022561
0.00225206
0.00224944
0.00224934
0.00225283
0.00226127
0.00227512
0.00229741
0.00232121
0.00236522
0.00235352
0.108783
0.0258571
0.00795707
0.00299688
0.0013209
0.000659198
0.000364765
0.000222625
0.000152527
0.000122228
0.00011848
0.000135935
0.000172491
0.000227314
0.000300003
0.000390138
0.000491717
0.000600881
0.00071544
0.000833557
0.000953659
0.00107435
0.00119436
0.00131242
0.00142732
0.00153785
0.00164289
0.00174145
0.00183274
0.00191628
0.00199189
0.0020581
0.0021158
0.00216505
0.00220674
0.00224237
0.00227375
0.00230272
0.00233084
0.00235936
0.00238914
0.00242069
0.00245424
0.00248979
0.00252719
0.00256619
0.00260644
0.00264755
0.00268906
0.00273049
0.00277129
0.0028109
0.00284871
0.00288411
0.00291651
0.00294536
0.0029702
0.00299066
0.00300653
0.00301772
0.00302438
0.00302679
0.00302544
0.00302102
0.00301435
0.00300643
0.00299839
0.00299147
0.00298702
0.00298647
0.00299134
0.00300324
0.00302395
0.00305525
0.00309946
0.00315771
0.00323534
0.00332201
0.00344763
0.00349916
0.108957
0.0260585
0.00818508
0.00326087
0.00165221
0.00110613
0.000997242
0.00112681
0.00141346
0.00180323
0.00224733
0.00270232
0.00313423
0.00352012
0.00384654
0.00410685
0.00428959
0.00440484
0.00446743
0.00449043
0.00448492
0.00445994
0.00442275
0.00437895
0.00433274
0.00428713
0.0042442
0.00420522
0.00417093
0.00414164
0.00411746
0.00409827
0.00408159
0.00406725
0.00405536
0.0040469
0.00404287
0.00404395
0.00405044
0.00406237
0.00407955
0.00410159
0.00412794
0.00415792
0.00419069
0.00422536
0.00426095
0.00429644
0.00433082
0.00436312
0.00439242
0.00441789
0.00443886
0.00445477
0.00446525
0.00447014
0.00446948
0.00446359
0.00445298
0.00443846
0.00442106
0.00440205
0.0043829
0.00436531
0.00435113
0.00434234
0.00434115
0.00434993
0.00437123
0.00440783
0.00446282
0.00453971
0.00464258
0.00477597
0.00494604
0.0051574
0.0054237
0.00573261
0.00614017
0.00651275
0.117482
0.0358358
0.0174739
0.0123558
0.0112246
0.0116248
0.0127057
0.0139674
0.015025
0.015641
0.0157584
0.0154588
0.0148845
0.0141737
0.013429
0.0127129
0.0120591
0.0114853
0.0109895
0.0105604
0.0101861
0.00985653
0.00956437
0.00930405
0.00907152
0.00886367
0.00867806
0.00851263
0.0083656
0.00823534
0.00812081
0.00801933
0.00793694
0.0078786
0.00784368
0.00782929
0.00783195
0.0078482
0.00787489
0.00790924
0.00794891
0.00799163
0.00803521
0.00807756
0.00811676
0.00815107
0.0081789
0.00819893
0.00821004
0.00821143
0.00820259
0.00818337
0.00815399
0.00811505
0.00806756
0.00801293
0.007953
0.00788997
0.00782646
0.00776541
0.00771013
0.00766423
0.0076316
0.00761649
0.00762345
0.00765721
0.00772346
0.00782849
0.00797945
0.00818459
0.00845381
0.00879907
0.00923527
0.00978029
0.0104585
0.0112926
0.0123364
0.0135932
0.0152491
0.0174875
0.223501
0.161831
0.121104
0.0944809
0.0764477
0.0640367
0.0554183
0.0494236
0.045198
0.0420708
0.0395525
0.0373423
0.0352966
0.0333716
0.0315697
0.0299033
0.0284177
0.0271272
0.0260097
0.0250385
0.0241904
0.0234457
0.0227887
0.0222066
0.0216894
0.0212293
0.0208197
0.0204554
0.0201316
0.019844
0.0195883
0.019361
0.0191508
0.0189494
0.0187542
0.0185649
0.018381
0.0182018
0.0180263
0.0178533
0.0176821
0.0175121
0.017343
0.0171749
0.0170083
0.0168434
0.0166813
0.0165227
0.016369
0.0162218
0.0160828
0.0159545
0.0158393
0.0157405
0.0156616
0.0156068
0.0155807
0.0155889
0.0156374
0.0157334
0.0158849
0.0161014
0.0163937
0.0167746
0.0172593
0.0178659
0.0186162
0.0195369
0.020661
0.0220296
0.023694
0.02572
0.0281905
0.0312186
0.0349352
0.0395853
0.0452707
0.0529623
0.0612981
0.0762866
)
;

boundaryField
{
    inlet
    {
        type            fixedValue;
        value           uniform 0.63;
    }
    outlet
    {
        type            zeroGradient;
    }
    fixedWalls
    {
        lowReCorrection 0;
        type            epsilonWallFunction;
        value           nonuniform List<scalar> 
160
(
0.223501
0.161831
0.121104
0.0944809
0.0764477
0.0640367
0.0554183
0.0494236
0.045198
0.0420708
0.0395525
0.0373423
0.0352966
0.0333716
0.0315697
0.0299033
0.0284177
0.0271272
0.0260097
0.0250385
0.0241904
0.0234457
0.0227887
0.0222066
0.0216894
0.0212293
0.0208197
0.0204554
0.0201316
0.019844
0.0195883
0.019361
0.0191508
0.0189494
0.0187542
0.0185649
0.018381
0.0182018
0.0180263
0.0178533
0.0176821
0.0175121
0.017343
0.0171749
0.0170083
0.0168434
0.0166813
0.0165227
0.016369
0.0162218
0.0160828
0.0159545
0.0158393
0.0157405
0.0156616
0.0156068
0.0155807
0.0155889
0.0156374
0.0157334
0.0158849
0.0161014
0.0163937
0.0167746
0.0172593
0.0178659
0.0186162
0.0195369
0.020661
0.0220296
0.023694
0.02572
0.0281905
0.0312186
0.0349352
0.0395853
0.0452707
0.0529623
0.0612981
0.0762866
0.0135126
0.0111846
0.00819048
0.00480244
0.00123024
0.000130615
0.00010735
0.000127037
0.000137006
0.000114844
7.18319e-05
4.59548e-05
5.00233e-05
5.56567e-05
6.24201e-05
7.33596e-05
8.96024e-05
0.000110888
0.000137248
0.000168789
0.000205269
0.000246159
0.000290924
0.000339392
0.000392145
0.000450869
0.000518496
0.000598939
0.000696331
0.000813981
0.000953526
0.00111466
0.0012954
0.00149263
0.00170274
0.00192211
0.00214778
0.00237814
0.00261401
0.0028602
0.00310803
0.00335083
0.00359081
0.00383049
0.00407145
0.00431449
0.00455979
0.00480711
0.00505594
0.00530557
0.00555522
0.00580403
0.00605113
0.00629481
0.00653339
0.00676658
0.0069945
0.00721834
0.00744273
0.00768785
0.00796798
0.00826674
0.00857562
0.00889208
0.00921631
0.00954976
0.00989476
0.0102544
0.0106324
0.0110337
0.0114638
0.0119301
0.0124413
0.013009
0.0136486
0.0143809
0.0152388
0.0162721
0.0175614
0.019495
)
;
    }
    frontAndBack
    {
        type            empty;
    }
}


// ************************************************************************* //
