/*--------------------------------*- C++ -*----------------------------------*\
| =========                 |                                                 |
| \\      /  F ield         | OpenFOAM: The Open Source CFD Toolbox           |
|  \\    /   O peration     | Version:  v1912                                 |
|   \\  /    A nd           | Website:  www.openfoam.com                      |
|    \\/     M anipulation  |                                                 |
\*---------------------------------------------------------------------------*/
FoamFile
{
    version     2.0;
    format      ascii;
    class       volScalarField;
    location    "75";
    object      k;
}
// * * * * * * * * * * * * * * * * * * * * * * * * * * * * * * * * * * * * * //

dimensions      [0 2 -2 0 0 0 0];


internalField   nonuniform List<scalar> 
2000
(
0.0162095
0.0147777
0.0124078
0.00897722
0.00373722
0.000864174
0.000781474
0.000900532
0.000974648
0.000891136
0.000669784
0.000510818
0.000554859
0.00061107
0.000675981
0.000770721
0.00090023
0.00105864
0.00124267
0.00144999
0.00167674
0.00191822
0.00217051
0.00243202
0.00270485
0.00299561
0.00331506
0.00367597
0.00408933
0.00456048
0.00508727
0.00566094
0.00626868
0.00689642
0.0075308
0.00816062
0.00877788
0.0093792
0.00996752
0.0105552
0.0111198
0.0116477
0.0121455
0.0126197
0.013074
0.0135103
0.0139287
0.0143287
0.0147093
0.0150691
0.0154066
0.0157205
0.0160095
0.0162709
0.0165024
0.0167041
0.0168768
0.017023
0.0171503
0.0172884
0.0174566
0.0176276
0.0177873
0.0179313
0.0180588
0.018171
0.0182697
0.0183571
0.0184362
0.0185102
0.0185826
0.0186576
0.0187402
0.0188363
0.0189536
0.0191025
0.0192998
0.019571
0.019956
0.0206995
0.00683763
0.00499923
0.00452654
0.00410441
0.00326671
0.00245905
0.00191685
0.00168086
0.00501949
0.00390353
0.00226636
0.00167199
0.0016744
0.00170453
0.00168262
0.00177547
0.00197832
0.00225005
0.00258412
0.00298577
0.00345768
0.0039963
0.0045906
0.00522359
0.00587715
0.00653929
0.00721056
0.00790669
0.00865703
0.00949793
0.0104633
0.0115772
0.0128489
0.0142688
0.0158101
0.0174316
0.0190834
0.020712
0.0222638
0.0236405
0.0248554
0.0259646
0.0269953
0.0279646
0.0288827
0.0297552
0.0305847
0.0313717
0.0321157
0.0328153
0.0334694
0.0340775
0.0346428
0.0351537
0.0355981
0.0359829
0.0363107
0.0365833
0.0368038
0.0369761
0.0371023
0.0371836
0.0372216
0.037219
0.0371793
0.0371068
0.0370068
0.0368851
0.036748
0.0366024
0.0364556
0.0363153
0.0361896
0.0360859
0.0360121
0.0359674
0.0359624
0.0359086
0.0360294
0.0356928
0.00514619
0.00248512
0.00187949
0.00175505
0.00163527
0.00147512
0.0013296
0.00125252
0.00182327
0.00223867
0.00275362
0.00422931
0.00605162
0.00537806
0.00422348
0.00371916
0.0037559
0.00398693
0.00432767
0.0047794
0.00534895
0.00603798
0.00683885
0.00773343
0.00869751
0.00970665
0.0107421
0.0117955
0.012872
0.0139891
0.0151719
0.016446
0.0178287
0.0193241
0.0209196
0.0225893
0.0242994
0.0260148
0.0276572
0.0291909
0.0306207
0.0319356
0.0331582
0.0343
0.0353671
0.0363624
0.0372872
0.0381412
0.0389239
0.0396341
0.040271
0.0408336
0.0413218
0.0417342
0.0420701
0.0423308
0.0425187
0.0426361
0.0426863
0.0426731
0.0426018
0.0424782
0.0423085
0.0420985
0.0418545
0.0415836
0.041293
0.0409907
0.0406848
0.0403839
0.0400967
0.039832
0.0395978
0.0394009
0.039245
0.0391251
0.0390303
0.0388858
0.0388126
0.0381501
0.0049012
0.00193919
0.00108621
0.00085089
0.000792365
0.000769855
0.000751909
0.000745125
0.000879017
0.00109816
0.00144942
0.0021976
0.00355662
0.00511421
0.0068155
0.00812765
0.00849862
0.00832523
0.00816915
0.00824744
0.00857732
0.00913519
0.00989458
0.0108258
0.0118966
0.0130726
0.0143179
0.0155993
0.0168922
0.0181854
0.0194826
0.0207985
0.0221518
0.023559
0.0250294
0.0265613
0.028154
0.0297416
0.0312904
0.0327841
0.0342038
0.0355334
0.036768
0.0379061
0.0389478
0.0398929
0.0407416
0.0414936
0.0421489
0.0427075
0.04317
0.0435372
0.0438108
0.0439929
0.0440864
0.044095
0.0440233
0.0438764
0.0436603
0.0433814
0.0430471
0.0426654
0.0422445
0.0417928
0.0413184
0.04083
0.040336
0.0398451
0.0393659
0.0389069
0.0384767
0.0380833
0.037734
0.0374341
0.0371858
0.0369832
0.0368145
0.0366171
0.0364874
0.0358706
0.00486817
0.00184216
0.000889147
0.00055396
0.000439025
0.000406916
0.000404679
0.00041403
0.000457878
0.000542031
0.000686373
0.000970909
0.00153248
0.00246022
0.00391661
0.00599801
0.00836745
0.0105635
0.0122555
0.0133565
0.0140318
0.0145419
0.0150884
0.0157754
0.0166356
0.0176605
0.0188189
0.0200685
0.0213658
0.022676
0.0239779
0.0252651
0.026539
0.0278088
0.0290962
0.0303955
0.0316804
0.0329533
0.0342043
0.0354182
0.0365771
0.0376635
0.038664
0.0395692
0.0403729
0.0410712
0.0416618
0.0421437
0.0425171
0.0427832
0.0429439
0.0430024
0.0429627
0.0428298
0.0426096
0.0423087
0.0419345
0.0414949
0.0409984
0.0404539
0.0398703
0.0392572
0.0386238
0.0379791
0.0373319
0.0366908
0.0360638
0.0354588
0.0348834
0.0343449
0.0338501
0.0334058
0.0330178
0.0326909
0.0324272
0.0322233
0.0320722
0.0319267
0.0318756
0.0314662
0.00486377
0.00182804
0.000849444
0.000474207
0.000317466
0.000253106
0.000231545
0.000230732
0.000246696
0.000280063
0.000336694
0.000438981
0.000633621
0.00098013
0.00157857
0.00257789
0.00405215
0.00601654
0.00840286
0.0110213
0.0136082
0.0159319
0.0178809
0.0194776
0.0208249
0.0220392
0.0232081
0.024378
0.0255614
0.0267503
0.0279297
0.0290831
0.0301893
0.031241
0.0322293
0.033169
0.0340675
0.034929
0.0357525
0.036532
0.0372575
0.0379177
0.0385012
0.0389988
0.0394031
0.0397087
0.0399127
0.0400138
0.0400126
0.0399112
0.0397134
0.039424
0.0390493
0.0385966
0.0380739
0.0374902
0.0368547
0.0361771
0.0354671
0.0347345
0.0339888
0.0332393
0.0324947
0.0317632
0.0310523
0.030369
0.0297196
0.0291097
0.0285448
0.0280297
0.0275692
0.0271679
0.02683
0.0265592
0.0263585
0.0262271
0.0261642
0.026136
0.0262275
0.0260841
0.00486318
0.00182655
0.000843154
0.000456544
0.000283035
0.000199632
0.000159884
0.000143564
0.000142123
0.000152303
0.000174131
0.00021281
0.000281639
0.000401456
0.000607252
0.000957303
0.00150199
0.00229765
0.00340497
0.00487033
0.00670793
0.0088839
0.0113119
0.0138665
0.0164121
0.0188331
0.021055
0.0230479
0.0248168
0.0263861
0.0277857
0.0290396
0.0301191
0.0310516
0.0318612
0.0325645
0.0331747
0.0337021
0.0341541
0.0345348
0.0348447
0.0350816
0.0352422
0.0353225
0.0353192
0.0352299
0.0350541
0.0347924
0.0344476
0.0340237
0.0335263
0.0329622
0.0323391
0.0316658
0.0309513
0.0302052
0.0294371
0.0286565
0.0278725
0.0270939
0.0263287
0.0255842
0.0248673
0.0241836
0.0235382
0.0229356
0.0223793
0.0218726
0.0214182
0.0210188
0.0206767
0.0203946
0.0201753
0.0200217
0.019937
0.0199229
0.0199837
0.0200973
0.0203436
0.0204621
0.00486311
0.00182659
0.000842591
0.000453358
0.00027473
0.000183891
0.000135025
0.000108719
9.60771e-05
9.29314e-05
9.7627e-05
0.000110697
0.0001355
0.000178437
0.000250315
0.000368937
0.000549109
0.000809365
0.00117386
0.00167014
0.00232736
0.00317332
0.00423064
0.00551278
0.00701996
0.00873572
0.0106252
0.0126362
0.0147038
0.0167576
0.0187303
0.020567
0.0222729
0.0236983
0.0248525
0.0257655
0.0264738
0.027011
0.0274042
0.0276734
0.0278322
0.0278898
0.0278527
0.0277258
0.0275139
0.0272217
0.0268545
0.0264182
0.0259195
0.0253659
0.0247651
0.0241255
0.0234556
0.0227643
0.02206
0.0213512
0.0206458
0.0199513
0.0192744
0.0186211
0.0179968
0.0174059
0.0168523
0.0163391
0.0158689
0.0154435
0.0150646
0.0147335
0.0144513
0.0142191
0.014038
0.0139096
0.0138359
0.0138196
0.0138642
0.0139731
0.0141543
0.0143955
0.0147695
0.015102
0.0048631
0.00182671
0.000842735
0.000452987
0.000273015
0.000179804
0.000127468
9.66634e-05
7.84317e-05
6.83594e-05
6.42747e-05
6.53984e-05
7.21984e-05
8.64324e-05
0.000111447
0.000152773
0.000214334
0.000300683
0.000417602
0.000571562
0.00076967
0.0010195
0.00132892
0.0017059
0.00215834
0.00269375
0.00331863
0.00403745
0.00485128
0.00575623
0.00674198
0.00779124
0.00888824
0.0101085
0.0113293
0.0124898
0.0135402
0.0144464
0.0151909
0.0157697
0.0161891
0.0164614
0.016602
0.0166267
0.016551
0.016389
0.0161537
0.0158566
0.0155084
0.0151189
0.0146973
0.0142522
0.0137916
0.0133227
0.0128525
0.0123871
0.0119318
0.0114915
0.0110703
0.0106716
0.0102985
0.00995338
0.00963812
0.00935437
0.00910344
0.00888641
0.00870424
0.00855779
0.00844797
0.00837579
0.00834248
0.00834964
0.0083994
0.00849461
0.0086394
0.00883843
0.00910168
0.00942477
0.00987072
0.0103399
0.00486309
0.00182676
0.00084285
0.000453033
0.000272744
0.000178857
0.00012538
9.28922e-05
7.23516e-05
5.92241e-05
5.11308e-05
4.68583e-05
4.59661e-05
4.86548e-05
5.57885e-05
6.90309e-05
8.94934e-05
0.000118377
0.000157099
0.000207005
0.000269284
0.00034489
0.000434497
0.000538492
0.000657012
0.000789969
0.000937057
0.00109769
0.00127084
0.00145484
0.00164702
0.00184351
0.0020398
0.00223861
0.00249556
0.00280516
0.00315953
0.00354575
0.00394747
0.00434697
0.0047272
0.00507349
0.00537458
0.00562309
0.00581542
0.00595126
0.00603296
0.00606475
0.00605214
0.00600126
0.00591848
0.00581004
0.00568186
0.00553937
0.00538749
0.0052306
0.00507254
0.00491668
0.00476592
0.00462282
0.00448957
0.00436812
0.00426016
0.00416726
0.00409082
0.00403223
0.00399284
0.00397403
0.0039773
0.00400431
0.00405696
0.00413748
0.0042486
0.00439372
0.00457741
0.00480513
0.00508724
0.00542563
0.00587082
0.00638265
0.00486309
0.00182673
0.000842852
0.000453063
0.000272723
0.000178665
0.000124849
9.17972e-05
7.04093e-05
5.60818e-05
4.6343e-05
3.98219e-05
3.57814e-05
3.39054e-05
3.42175e-05
3.70741e-05
4.27203e-05
5.13949e-05
6.34109e-05
7.9047e-05
9.84919e-05
0.000121795
0.000148831
0.000179286
0.000212656
0.000248264
0.000285262
0.000322636
0.000359183
0.00039348
0.000423845
0.000448317
0.000464716
0.000470867
0.000476512
0.000486567
0.000502572
0.000525935
0.000557711
0.000598382
0.000647715
0.000704722
0.000767729
0.000834549
0.000902704
0.000969675
0.00103311
0.00109102
0.00114185
0.00118458
0.00121867
0.00124408
0.00126116
0.0012706
0.00127332
0.00127044
0.00126315
0.00125272
0.0012404
0.00122746
0.00121509
0.00120447
0.00119674
0.001193
0.00119438
0.00120206
0.00121725
0.00124133
0.00127582
0.00132251
0.0013835
0.00146132
0.00155903
0.00168042
0.00183038
0.00201486
0.00224361
0.00252313
0.00289005
0.00334509
0.00486309
0.00182662
0.000842744
0.000453009
0.000272696
0.000178616
0.000124715
9.14937e-05
6.98225e-05
5.50628e-05
4.46997e-05
3.7301e-05
3.20294e-05
2.84021e-05
2.61729e-05
2.52772e-05
2.57063e-05
2.74084e-05
3.03693e-05
3.45836e-05
4.0027e-05
4.6635e-05
5.4289e-05
6.28102e-05
7.19601e-05
8.14457e-05
9.09265e-05
0.000100022
0.000108318
0.000115376
0.000120745
0.000123989
0.000124732
0.000122715
0.000119946
0.0001169
0.000113637
0.000110234
0.00010679
0.000103418
0.000100247
9.74072e-05
9.50282e-05
9.32224e-05
9.20761e-05
9.164e-05
9.19239e-05
9.28955e-05
9.44852e-05
9.65943e-05
9.91063e-05
0.0001019
0.000104863
0.0001079
0.000110945
0.000113965
0.000116967
0.000119993
0.000123127
0.000126488
0.000130228
0.000134535
0.000139623
0.000145744
0.00015318
0.000162263
0.000173378
0.000186995
0.000203701
0.000224253
0.000249651
0.000281251
0.000320917
0.000371244
0.000435927
0.000520116
0.000631904
0.00078072
0.000991493
0.00128644
0.00486309
0.00182642
0.000842538
0.000452874
0.000272616
0.00017856
0.000124656
9.13974e-05
6.96442e-05
5.47432e-05
4.41606e-05
3.644e-05
3.07079e-05
2.64269e-05
2.32658e-05
2.10306e-05
1.96482e-05
1.89901e-05
1.89554e-05
1.94713e-05
2.0475e-05
2.19016e-05
2.36765e-05
2.5713e-05
2.79118e-05
3.01631e-05
3.23502e-05
3.43528e-05
3.60512e-05
3.73315e-05
3.80916e-05
3.82498e-05
3.77564e-05
3.65788e-05
3.53215e-05
3.39989e-05
3.26184e-05
3.11891e-05
2.97219e-05
2.82287e-05
2.67226e-05
2.52168e-05
2.37246e-05
2.22588e-05
2.08317e-05
1.94547e-05
1.81385e-05
1.68937e-05
1.57311e-05
1.46629e-05
1.37042e-05
1.28746e-05
1.22006e-05
1.17175e-05
1.14718e-05
1.15231e-05
1.19449e-05
1.28251e-05
1.42647e-05
1.63755e-05
1.92762e-05
2.30882e-05
2.79295e-05
3.39107e-05
4.11299e-05
4.9671e-05
5.96032e-05
7.09842e-05
8.38677e-05
9.8315e-05
0.000114412
0.000132296
0.000152188
0.000174451
0.000199674
0.000228785
0.00026346
0.000305805
0.000363294
0.000442568
0.00486309
0.00182615
0.000842247
0.00045267
0.000272482
0.000178469
0.000124589
9.13376e-05
6.95715e-05
5.46333e-05
4.39827e-05
3.61533e-05
3.02589e-05
2.57435e-05
2.22488e-05
1.95411e-05
1.75335e-05
1.60795e-05
1.5058e-05
1.43832e-05
1.39901e-05
1.38245e-05
1.38377e-05
1.39834e-05
1.42164e-05
1.44926e-05
1.47694e-05
1.50069e-05
1.51687e-05
1.52234e-05
1.5146e-05
1.49197e-05
1.45376e-05
1.40132e-05
1.34846e-05
1.29522e-05
1.24172e-05
1.18812e-05
1.13465e-05
1.08154e-05
1.02906e-05
9.77512e-06
9.27191e-06
8.78465e-06
8.31793e-06
7.87822e-06
7.47516e-06
7.12345e-06
6.84539e-06
6.67393e-06
6.65626e-06
6.85763e-06
7.36499e-06
8.29007e-06
9.77135e-06
1.19743e-05
1.50896e-05
1.93293e-05
2.49205e-05
3.20976e-05
4.10926e-05
5.21263e-05
6.54e-05
8.10883e-05
9.93368e-05
0.000120262
0.000143953
0.000170484
0.000199914
0.000232304
0.000267719
0.000306234
0.000347926
0.000392858
0.000441019
0.000492199
0.000545846
0.00059971
0.000652577
0.000688877
0.00486309
0.00182578
0.000841879
0.000452408
0.000272301
0.000178343
0.000124498
9.12692e-05
6.95138e-05
5.45747e-05
4.39099e-05
3.60501e-05
3.01045e-05
2.55108e-05
2.19021e-05
1.90327e-05
1.6813e-05
1.50934e-05
1.37485e-05
1.26912e-05
1.18581e-05
1.12014e-05
1.06829e-05
1.0271e-05
9.93877e-06
9.66302e-06
9.42353e-06
9.20288e-06
8.98636e-06
8.76202e-06
8.52074e-06
8.25641e-06
7.96603e-06
7.65767e-06
7.36139e-06
7.07588e-06
6.80021e-06
6.53381e-06
6.27646e-06
6.0284e-06
5.79065e-06
5.56555e-06
5.35794e-06
5.17682e-06
5.03795e-06
4.96744e-06
5.0063e-06
5.21604e-06
5.68484e-06
6.53407e-06
7.92434e-06
1.00604e-05
1.31938e-05
1.76236e-05
2.36925e-05
3.17809e-05
4.22966e-05
5.56626e-05
7.23031e-05
9.26295e-05
0.000117028
0.000145848
0.000179394
0.000217921
0.000261623
0.000310625
0.000364973
0.000424617
0.000489398
0.00055903
0.000633092
0.000711026
0.00079213
0.000875564
0.00096033
0.00104517
0.00112856
0.00120684
0.00127854
0.00132267
0.00486309
0.00182532
0.000841441
0.000452097
0.000272082
0.000178186
0.000124384
9.11836e-05
6.94475e-05
5.45199e-05
4.38596e-05
3.5997e-05
3.004e-05
2.54244e-05
2.17807e-05
1.88595e-05
1.65711e-05
1.47655e-05
1.33169e-05
1.21385e-05
1.11685e-05
1.03613e-05
9.68273e-06
9.10609e-06
8.61029e-06
8.17835e-06
7.79646e-06
7.45336e-06
7.13989e-06
6.84873e-06
6.57411e-06
6.31173e-06
6.05859e-06
5.81691e-06
5.59143e-06
5.38041e-06
5.1826e-06
4.99764e-06
4.82683e-06
4.67459e-06
4.55098e-06
4.47547e-06
4.48235e-06
4.62773e-06
4.99817e-06
5.72045e-06
6.97197e-06
8.99061e-06
1.20831e-05
1.66306e-05
2.30905e-05
3.19934e-05
4.3935e-05
5.95635e-05
7.95625e-05
0.000104631
0.000135462
0.000172721
0.000217019
0.000268883
0.000328725
0.000396788
0.000473105
0.000557435
0.000649221
0.000747567
0.00085124
0.000958722
0.00106829
0.00117813
0.00128648
0.00139174
0.00149255
0.00158789
0.00167704
0.00175935
0.00183469
0.00189982
0.00195757
0.00198421
0.00486309
0.00182475
0.000840941
0.000451743
0.000271829
0.000178002
0.000124248
9.10813e-05
6.93684e-05
5.44571e-05
4.38078e-05
3.59518e-05
2.99971e-05
2.53793e-05
2.17282e-05
1.87934e-05
1.64852e-05
1.46541e-05
1.31742e-05
1.19592e-05
1.09479e-05
1.00958e-05
9.37012e-06
8.74568e-06
8.20319e-06
7.72752e-06
7.30664e-06
6.93098e-06
6.59279e-06
6.28585e-06
6.00513e-06
5.74663e-06
5.50713e-06
5.286e-06
5.08289e-06
4.89847e-06
4.73806e-06
4.61594e-06
4.56183e-06
4.63008e-06
4.91142e-06
5.54695e-06
6.74357e-06
8.78946e-06
1.2068e-05
1.70682e-05
2.43904e-05
3.47449e-05
4.89439e-05
6.78851e-05
9.253e-05
0.000123874
0.000162916
0.000210614
0.000267842
0.00033533
0.000413591
0.000502834
0.000602873
0.000713048
0.000832174
0.000958548
0.00109002
0.00122412
0.00135826
0.00148994
0.00161691
0.00173733
0.00184986
0.00195362
0.00204821
0.00213359
0.00221002
0.00227794
0.00233798
0.00239045
0.00243665
0.00247296
0.0025069
0.00250446
0.00486308
0.00182409
0.000840388
0.000451351
0.000271547
0.000177796
0.000124095
9.09644e-05
6.92773e-05
5.43847e-05
4.3749e-05
3.59029e-05
2.99552e-05
2.53418e-05
2.16926e-05
1.8757e-05
1.64456e-05
1.46088e-05
1.31211e-05
1.18965e-05
1.08741e-05
1.00098e-05
9.27117e-06
8.63369e-06
8.07858e-06
7.59125e-06
7.1602e-06
6.77629e-06
6.43217e-06
6.12189e-06
5.8406e-06
5.58436e-06
5.35165e-06
5.15361e-06
5.01957e-06
5.01307e-06
5.25016e-06
5.92118e-06
7.31416e-06
9.8374e-06
1.40381e-05
2.06135e-05
3.04134e-05
4.44303e-05
6.37787e-05
8.96622e-05
0.000123332
0.000166035
0.000218955
0.000283147
0.000359455
0.00044842
0.000550182
0.000664383
0.000790086
0.00092575
0.00106926
0.00121806
0.00136931
0.00152013
0.00166785
0.00181015
0.0019452
0.00207169
0.00218877
0.00229598
0.00239316
0.00248033
0.00255768
0.0026255
0.00268418
0.00273422
0.00277622
0.00281083
0.00283892
0.00286085
0.00287869
0.00288802
0.00290083
0.00287385
0.00486307
0.00182334
0.000839791
0.000450926
0.000271239
0.00017757
0.000123926
9.0835e-05
6.9176e-05
5.43037e-05
4.36831e-05
3.58483e-05
2.99093e-05
2.53025e-05
2.16582e-05
1.87261e-05
1.64168e-05
1.45809e-05
1.30933e-05
1.1868e-05
1.08444e-05
9.97875e-06
9.23899e-06
8.60106e-06
8.04687e-06
7.56278e-06
7.13872e-06
6.76776e-06
6.44623e-06
6.17442e-06
5.95825e-06
5.81673e-06
6.10941e-06
7.24853e-06
9.79292e-06
1.45054e-05
2.23605e-05
3.45309e-05
5.23526e-05
7.72719e-05
0.000110775
0.000154306
0.000209183
0.00027651
0.000357085
0.000451318
0.000559145
0.000679963
0.000812592
0.000955284
0.00110579
0.00126149
0.00141959
0.00157734
0.00173226
0.00188228
0.00202586
0.00216194
0.00228991
0.00240947
0.00252046
0.00262284
0.00271654
0.00280146
0.00287752
0.00294467
0.0030029
0.00305233
0.00309318
0.00312581
0.00315069
0.00316842
0.0031797
0.00318525
0.00318607
0.00318247
0.00317709
0.00316482
0.00316118
0.00311621
0.00486306
0.0018225
0.000839157
0.000450474
0.00027091
0.000177328
0.000123744
9.06952e-05
6.90661e-05
5.42157e-05
4.3612e-05
3.5791e-05
2.98641e-05
2.52697e-05
2.16401e-05
1.87287e-05
1.645e-05
1.46612e-05
1.32477e-05
1.21405e-05
1.13061e-05
1.0743e-05
1.04833e-05
1.0598e-05
1.12065e-05
1.24884e-05
1.47e-05
1.81931e-05
2.34391e-05
3.1056e-05
4.18393e-05
5.8192e-05
8.32506e-05
0.000118561
0.000165649
0.000225781
0.000299868
0.000388361
0.000491177
0.000607661
0.00073658
0.000876161
0.00102418
0.00117807
0.00133511
0.00149263
0.00164814
0.00179959
0.00194542
0.00208463
0.00221678
0.00234182
0.00246002
0.00257174
0.00267735
0.00277711
0.0028711
0.00295924
0.00304132
0.003117
0.00318594
0.00324779
0.00330224
0.00334908
0.00338817
0.0034195
0.0034432
0.00345949
0.00346873
0.00347141
0.00346809
0.00345944
0.00344619
0.00342908
0.00340914
0.00338656
0.00336428
0.00333684
0.00332163
0.00326514
0.00486305
0.0018216
0.00083851
0.00045001
0.000270578
0.000177095
0.000123586
9.06047e-05
6.90512e-05
5.43089e-05
4.38843e-05
3.63807e-05
3.10307e-05
2.74859e-05
2.57385e-05
2.61147e-05
2.90379e-05
3.49544e-05
4.44578e-05
5.82483e-05
7.71115e-05
0.000101902
0.000133526
0.000172928
0.000221059
0.000278852
0.000347184
0.000426841
0.000518482
0.000622598
0.000739452
0.00086895
0.00101045
0.0011607
0.00131631
0.0014738
0.00162993
0.00178187
0.00192742
0.00206502
0.00219389
0.00231388
0.00242542
0.00252937
0.00262677
0.00271876
0.00280635
0.00289037
0.00297139
0.00304974
0.0031255
0.00319857
0.00326872
0.00333563
0.00339892
0.00345817
0.00351296
0.00356287
0.00360746
0.00364635
0.00367919
0.00370572
0.00372575
0.00373921
0.00374616
0.00374676
0.00374131
0.00373022
0.00371398
0.00369317
0.00366843
0.00364042
0.00360989
0.00357748
0.00354418
0.00351006
0.00347809
0.0034429
0.00342139
0.00336045
0.00486324
0.00182102
0.000838425
0.000450345
0.000271475
0.000178921
0.000127139
9.74969e-05
8.22953e-05
7.89996e-05
8.77725e-05
0.000110156
0.000148286
0.000204438
0.000280736
0.000378922
0.00049408
0.000622681
0.000762506
0.000911369
0.00106716
0.00122782
0.00139136
0.00155583
0.00171932
0.00188
0.00203618
0.00218638
0.00232942
0.00246453
0.00259128
0.00270772
0.00281256
0.00290609
0.00298931
0.0030637
0.00313101
0.00319294
0.00325093
0.00330612
0.0033593
0.00341097
0.00346142
0.0035108
0.00355916
0.00360649
0.00365274
0.00369779
0.00374151
0.00378368
0.00382402
0.00386218
0.00389776
0.00393032
0.00395939
0.00398451
0.00400524
0.00402122
0.00403212
0.00403772
0.0040379
0.00403265
0.00402206
0.00400636
0.00398586
0.00396098
0.00393221
0.00390011
0.00386528
0.00382835
0.00378997
0.00375077
0.00371143
0.00367251
0.00363493
0.00359869
0.00356659
0.00353405
0.00351375
0.00346096
0.00487715
0.00184527
0.000876112
0.000508184
0.00036273
0.000325612
0.000362587
0.000465464
0.000631125
0.000852549
0.00111701
0.00140849
0.00171104
0.00201098
0.00229768
0.00256325
0.00279191
0.00298319
0.00314205
0.00327373
0.0033833
0.00347539
0.00355405
0.00362267
0.00368401
0.00374016
0.00379268
0.00384263
0.00389068
0.00393722
0.00398248
0.00402641
0.00406513
0.00409815
0.00412595
0.00414982
0.00417111
0.00419096
0.00421019
0.00422941
0.004249
0.00426912
0.00428978
0.00431081
0.00433193
0.00435276
0.00437282
0.00439162
0.00440861
0.00442326
0.00443506
0.00444351
0.00444817
0.00444866
0.00444467
0.00443597
0.00442242
0.00440402
0.00438083
0.00435308
0.00432106
0.00428519
0.00424597
0.00420399
0.00415986
0.00411427
0.00406791
0.0040215
0.00397573
0.00393128
0.00388883
0.00384903
0.00381258
0.00378007
0.00375251
0.00373013
0.00371551
0.00370609
0.0037033
0.0036973
0.00556866
0.00287832
0.00213732
0.00201043
0.00218366
0.00254482
0.00303255
0.00357577
0.00409302
0.00451881
0.00482376
0.00501361
0.00511472
0.00515859
0.00517191
0.00517304
0.00516628
0.00515809
0.0051515
0.00514636
0.0051417
0.00513678
0.00513126
0.00512514
0.00511867
0.00511217
0.00510596
0.0051003
0.00509536
0.00509117
0.00508795
0.00508496
0.00508273
0.00508393
0.00508993
0.0051006
0.00511509
0.00513236
0.00515131
0.005171
0.00519061
0.00520936
0.0052264
0.00524091
0.0052521
0.00525925
0.00526167
0.00525876
0.00525001
0.00523503
0.00521356
0.00518545
0.00515071
0.00510948
0.00506206
0.00500888
0.0049505
0.00488762
0.00482104
0.00475168
0.00468052
0.00460858
0.00453693
0.00446666
0.00439883
0.00433441
0.00427448
0.00422011
0.00417229
0.00413198
0.00410019
0.00407795
0.00406645
0.00406674
0.00408071
0.00410823
0.00415504
0.00421301
0.00429574
0.00446757
0.0142815
0.0119091
0.0101448
0.00887925
0.00795764
0.00729351
0.00682719
0.00651572
0.00631911
0.00619676
0.00611292
0.00604272
0.00597333
0.00590098
0.00582677
0.00575322
0.00568491
0.00562326
0.00556803
0.00551851
0.00547381
0.00543305
0.00539549
0.00536051
0.00532768
0.00529667
0.00526726
0.00523925
0.00521245
0.00518664
0.00516149
0.00513678
0.00511084
0.00508245
0.00505137
0.00501771
0.00498162
0.00494313
0.00490223
0.00485888
0.00481306
0.00476482
0.00471426
0.0046615
0.00460672
0.00455013
0.00449198
0.00443254
0.00437214
0.00431114
0.00424994
0.00418902
0.00412887
0.00407006
0.00401321
0.00395898
0.0039081
0.00386133
0.00381949
0.00378347
0.00375418
0.00373261
0.00371982
0.00371692
0.00372512
0.00374577
0.00378029
0.00383032
0.00389772
0.00398459
0.00409338
0.00422699
0.00438873
0.00458315
0.00481408
0.00509261
0.00541335
0.00583372
0.0062321
0.00697576
)
;

boundaryField
{
    inlet
    {
        type            fixedValue;
        value           uniform 0.017;
    }
    outlet
    {
        type            zeroGradient;
    }
    fixedWalls
    {
        type            kqRWallFunction;
        value           nonuniform List<scalar> 
160
(
0.0142815
0.0119091
0.0101448
0.00887925
0.00795764
0.00729351
0.00682719
0.00651572
0.00631911
0.00619676
0.00611292
0.00604272
0.00597333
0.00590098
0.00582677
0.00575322
0.00568491
0.00562326
0.00556803
0.00551851
0.00547381
0.00543305
0.00539549
0.00536051
0.00532768
0.00529667
0.00526726
0.00523925
0.00521245
0.00518664
0.00516149
0.00513678
0.00511084
0.00508245
0.00505137
0.00501771
0.00498162
0.00494313
0.00490223
0.00485888
0.00481306
0.00476482
0.00471426
0.0046615
0.00460672
0.00455013
0.00449198
0.00443254
0.00437214
0.00431114
0.00424994
0.00418902
0.00412887
0.00407006
0.00401321
0.00395898
0.0039081
0.00386133
0.00381949
0.00378347
0.00375418
0.00373261
0.00371982
0.00371692
0.00372512
0.00374577
0.00378029
0.00383032
0.00389772
0.00398459
0.00409338
0.00422699
0.00438873
0.00458315
0.00481408
0.00509261
0.00541335
0.00583372
0.0062321
0.00697576
0.0162095
0.0147777
0.0124078
0.00897722
0.00373722
0.000864174
0.000781474
0.000900532
0.000974648
0.000891136
0.000669784
0.000510818
0.000554859
0.00061107
0.000675981
0.000770721
0.00090023
0.00105864
0.00124267
0.00144999
0.00167674
0.00191822
0.00217051
0.00243202
0.00270485
0.00299561
0.00331506
0.00367597
0.00408933
0.00456048
0.00508727
0.00566094
0.00626868
0.00689642
0.0075308
0.00816062
0.00877788
0.0093792
0.00996752
0.0105552
0.0111198
0.0116477
0.0121455
0.0126197
0.013074
0.0135103
0.0139287
0.0143287
0.0147093
0.0150691
0.0154066
0.0157205
0.0160095
0.0162709
0.0165024
0.0167041
0.0168768
0.017023
0.0171503
0.0172884
0.0174566
0.0176276
0.0177873
0.0179313
0.0180588
0.018171
0.0182697
0.0183571
0.0184362
0.0185102
0.0185826
0.0186576
0.0187402
0.0188363
0.0189536
0.0191025
0.0192998
0.019571
0.019956
0.0206995
)
;
    }
    frontAndBack
    {
        type            empty;
    }
}


// ************************************************************************* //
