/*--------------------------------*- C++ -*----------------------------------*\
| =========                 |                                                 |
| \\      /  F ield         | OpenFOAM: The Open Source CFD Toolbox           |
|  \\    /   O peration     | Version:  v1912                                 |
|   \\  /    A nd           | Website:  www.openfoam.com                      |
|    \\/     M anipulation  |                                                 |
\*---------------------------------------------------------------------------*/
FoamFile
{
    version     2.0;
    format      ascii;
    class       volScalarField;
    location    "75";
    object      nut;
}
// * * * * * * * * * * * * * * * * * * * * * * * * * * * * * * * * * * * * * //

dimensions      [0 2 -1 0 0 0 0];


internalField   nonuniform List<scalar> 
2000
(
0.00175001
0.00175726
0.0016917
0.0015103
0.00102176
0.000514577
0.000512002
0.000574529
0.00062402
0.000622333
0.000562077
0.000511027
0.000553905
0.000603819
0.00065885
0.000728753
0.000814011
0.000909608
0.00101262
0.00112106
0.00123268
0.00134532
0.00145742
0.00156846
0.00167912
0.00179128
0.00190757
0.0020305
0.00216138
0.00229959
0.00244276
0.00258748
0.00273018
0.00286772
0.00299763
0.00311825
0.00322874
0.00332917
0.00342066
0.0035057
0.0035806
0.00364395
0.00369728
0.00374184
0.00377844
0.00380751
0.0038293
0.00384393
0.00385147
0.00385199
0.00384554
0.0038322
0.00381208
0.00378515
0.00375143
0.00371122
0.00366494
0.0036131
0.00355675
0.00349904
0.00344204
0.00338294
0.00332045
0.00325432
0.00318467
0.00311177
0.00303597
0.00295762
0.0028771
0.00279476
0.00271097
0.00262611
0.00254054
0.00245464
0.00236885
0.00228369
0.00219988
0.00211848
0.00204094
0.00197805
3.44179e-05
5.60358e-05
9.9541e-05
0.000148309
0.000162479
0.000156172
0.000159963
0.000209815
0.00140236
0.00164587
0.00121871
0.00102211
0.00125906
0.00157484
0.00181028
0.00207775
0.00240972
0.00278439
0.00319221
0.00364254
0.00414494
0.0046972
0.00528112
0.00586601
0.00641813
0.00691323
0.00734652
0.00773543
0.00811637
0.00853463
0.00903189
0.00963768
0.0103642
0.0112033
0.0121284
0.013099
0.0140656
0.0149771
0.0157843
0.0164
0.0168603
0.0172371
0.0175572
0.0178336
0.0180735
0.018281
0.0184591
0.0186094
0.018733
0.0188305
0.0189024
0.0189484
0.0189669
0.0189586
0.0189273
0.0188719
0.0187927
0.0186899
0.0185635
0.0184122
0.0182358
0.0180359
0.0178145
0.0175732
0.0173137
0.0170374
0.016746
0.016441
0.0161242
0.0157971
0.0154616
0.0151194
0.0147721
0.0144212
0.0140683
0.0137131
0.0133572
0.0129874
0.012649
0.0123929
2.12862e-05
1.81615e-05
2.51276e-05
4.00111e-05
5.55767e-05
6.79634e-05
7.92971e-05
9.53252e-05
0.000208472
0.000318894
0.000468993
0.000957202
0.00195559
0.00238168
0.00220682
0.00220176
0.00252597
0.00300627
0.00355279
0.00415878
0.0048347
0.00557913
0.00637629
0.0072016
0.00802844
0.00883463
0.0096075
0.0103467
0.0110646
0.0117842
0.0125335
0.0133373
0.0142096
0.0151471
0.0161275
0.0171135
0.0180553
0.0189058
0.0196346
0.0202469
0.0207637
0.0212032
0.0215813
0.021908
0.0221898
0.022431
0.0226347
0.0228032
0.0229381
0.0230408
0.0231124
0.0231538
0.0231657
0.023149
0.0231049
0.0230345
0.022939
0.0228193
0.0226765
0.0225117
0.022326
0.0221212
0.0218987
0.0216602
0.0214073
0.0211416
0.0208648
0.0205786
0.0202847
0.0199848
0.0196805
0.0193734
0.0190647
0.0187553
0.0184451
0.0181323
0.0178134
0.0174756
0.0171459
0.016773
1.97876e-05
1.26285e-05
1.14627e-05
1.4655e-05
2.1015e-05
2.89123e-05
3.75028e-05
4.74571e-05
7.4656e-05
0.000118074
0.000186642
0.000333903
0.000634783
0.00103528
0.0015698
0.00221335
0.00277885
0.003205
0.00357858
0.00400305
0.00453509
0.0051856
0.00593922
0.00677125
0.00765592
0.00856886
0.00948853
0.0103984
0.0112894
0.0121611
0.0130204
0.0138775
0.0147403
0.0156088
0.0164699
0.0173049
0.0180676
0.0187712
0.0194164
0.0199997
0.0205206
0.0209804
0.0213831
0.0217332
0.0220343
0.0222896
0.0225017
0.0226729
0.0228051
0.0229002
0.0229598
0.0229855
0.0229792
0.0229424
0.0228769
0.0227846
0.0226675
0.0225276
0.0223668
0.0221873
0.0219913
0.021781
0.0215585
0.0213261
0.0210858
0.0208395
0.0205893
0.0203369
0.0200842
0.0198327
0.0195839
0.0193392
0.0190993
0.0188645
0.0186339
0.0184048
0.0181722
0.0179225
0.0176744
0.0173417
1.95963e-05
1.1728e-05
8.64692e-06
8.13571e-06
9.6454e-06
1.28809e-05
1.74849e-05
2.32823e-05
3.33248e-05
5.00327e-05
7.76801e-05
0.000131054
0.000239439
0.000424189
0.000722496
0.00117402
0.00174902
0.00239137
0.00304478
0.00366836
0.00425901
0.00484369
0.00545518
0.00611718
0.00684044
0.00762316
0.0084534
0.00931311
0.0101831
0.0110474
0.0118959
0.0127231
0.0135236
0.0142916
0.0150004
0.0156602
0.0162913
0.0168928
0.0174608
0.017991
0.0184789
0.0189209
0.019315
0.0196607
0.0199585
0.0202094
0.0204149
0.0205764
0.0206959
0.0207751
0.0208162
0.0208212
0.0207925
0.0207326
0.0206439
0.0205291
0.0203911
0.0202325
0.0200563
0.0198652
0.0196622
0.0194501
0.0192316
0.0190093
0.0187856
0.0185629
0.0183432
0.0181284
0.0179203
0.0177206
0.0175305
0.0173512
0.0171835
0.0170275
0.0168825
0.016746
0.016614
0.0164743
0.0163432
0.0161282
1.95712e-05
1.15908e-05
8.09461e-06
6.55294e-06
6.23628e-06
6.97171e-06
8.73837e-06
1.15293e-05
1.59507e-05
2.29864e-05
3.43369e-05
5.45147e-05
9.33527e-05
0.00016378
0.000286116
0.000491365
0.000798204
0.00121761
0.00174887
0.00237155
0.00305021
0.00374786
0.00444023
0.00512167
0.00580032
0.0064884
0.0071944
0.00791998
0.00866045
0.00940719
0.0101502
0.0108783
0.0115659
0.0122044
0.0128065
0.013375
0.013912
0.014419
0.0148959
0.0153418
0.0157541
0.0161301
0.0164673
0.0167636
0.0170178
0.0172295
0.0173987
0.0175262
0.0176132
0.0176613
0.0176726
0.0176494
0.0175943
0.0175102
0.0174
0.0172669
0.0171141
0.0169451
0.016763
0.0165711
0.0163727
0.0161708
0.0159683
0.0157679
0.0155722
0.0153833
0.0152034
0.0150342
0.0148773
0.0147341
0.0146057
0.0144933
0.0143976
0.0143189
0.014257
0.0142106
0.0141775
0.014148
0.0141393
0.0140669
1.95678e-05
1.1573e-05
7.99814e-06
6.20073e-06
5.31877e-06
5.07664e-06
5.42416e-06
6.40228e-06
8.20135e-06
1.11865e-05
1.60014e-05
2.40962e-05
3.86536e-05
6.47862e-05
0.000110512
0.000188534
0.000309631
0.000486266
0.000732749
0.00106169
0.00148048
0.00198783
0.00257246
0.00321512
0.00389327
0.00458629
0.00527911
0.00596324
0.00663522
0.00729408
0.00793887
0.00856613
0.00916114
0.00972283
0.0102498
0.0107414
0.011198
0.0116206
0.0120104
0.0123681
0.0126935
0.0129858
0.0132439
0.0134667
0.0136532
0.013803
0.0139161
0.0139931
0.014035
0.0140435
0.0140204
0.0139682
0.0138895
0.0137872
0.0136645
0.0135245
0.0133707
0.0132064
0.0130348
0.0128592
0.0126827
0.0125081
0.0123381
0.0121753
0.0120217
0.0118794
0.0117501
0.0116352
0.0115362
0.011454
0.0113898
0.0113443
0.0113184
0.0113127
0.0113276
0.0113629
0.0114186
0.0114878
0.0115895
0.0116557
1.95674e-05
1.15717e-05
7.98489e-06
6.1307e-06
5.09332e-06
4.53129e-06
4.32805e-06
4.47033e-06
5.0214e-06
6.12626e-06
8.04535e-06
1.12917e-05
1.693e-05
2.68397e-05
4.40489e-05
7.32063e-05
0.000117999
0.000182805
0.000273446
0.000396806
0.000560496
0.000772206
0.00103883
0.00136545
0.00175429
0.00220376
0.00270793
0.00325664
0.00383649
0.00443226
0.00502875
0.00561277
0.00618954
0.00672084
0.00720552
0.00764628
0.00804684
0.00841034
0.00873885
0.00903344
0.00929453
0.00952219
0.00971647
0.00987755
0.0100058
0.010102
0.0101671
0.0102024
0.0102095
0.0101902
0.0101468
0.0100815
0.00999712
0.00989627
0.00978189
0.00965692
0.00952432
0.00938701
0.00924782
0.00910945
0.00897444
0.00884516
0.00872378
0.00861226
0.00851236
0.00842564
0.00835347
0.00829707
0.00825749
0.00823568
0.00823253
0.00824888
0.00828557
0.00834351
0.00842371
0.00852698
0.00865518
0.00880438
0.00899488
0.00917939
1.95673e-05
1.15722e-05
7.98448e-06
6.1193e-06
5.0431e-06
4.38667e-06
3.99741e-06
3.82029e-06
3.85588e-06
4.14926e-06
4.7975e-06
5.98732e-06
8.08564e-06
1.17652e-05
1.81652e-05
2.90675e-05
4.58311e-05
6.98277e-05
0.000102698
0.000146305
0.000202783
0.000274524
0.000364144
0.000474454
0.000608412
0.000769035
0.000959219
0.00118143
0.00143727
0.00172689
0.00204852
0.00239814
0.00277221
0.00318814
0.00361091
0.00402374
0.00441295
0.00476904
0.00508675
0.0053643
0.00560234
0.00580291
0.00596863
0.00610219
0.00620612
0.00628268
0.00633397
0.00636196
0.00636861
0.00635591
0.00632594
0.0062809
0.00622304
0.00615467
0.00607814
0.00599577
0.00590985
0.00582258
0.00573606
0.00565231
0.00557318
0.00550045
0.00543573
0.00538054
0.00533628
0.00530424
0.00528562
0.00528153
0.00529302
0.0053211
0.00536675
0.00543099
0.00551492
0.00561974
0.00574702
0.0058984
0.00607717
0.00628216
0.00653379
0.00680662
1.95673e-05
1.15724e-05
7.98517e-06
6.11842e-06
5.03348e-06
4.35144e-06
3.90455e-06
3.61735e-06
3.46156e-06
3.4389e-06
3.57716e-06
3.93823e-06
4.6434e-06
5.91816e-06
8.16073e-06
1.20291e-05
1.80766e-05
2.68397e-05
3.88624e-05
5.46481e-05
7.46695e-05
9.93681e-05
0.000129148
0.000164377
0.000205387
0.00025249
0.00030598
0.000366119
0.000433113
0.000507041
0.000587781
0.000674937
0.000768068
0.000869289
0.000994168
0.00114087
0.00130659
0.0014866
0.00167484
0.00186472
0.00204985
0.00222466
0.00238474
0.00252704
0.00264976
0.00275229
0.00283491
0.00289858
0.00294473
0.00297509
0.00299152
0.00299595
0.00299031
0.00297645
0.00295618
0.00293121
0.00290319
0.00287368
0.00284415
0.00281604
0.00279069
0.00276943
0.00275352
0.00274419
0.00274266
0.00275011
0.00276776
0.0027968
0.00283847
0.00289405
0.00296485
0.00305229
0.00315791
0.00328344
0.00343098
0.00360297
0.00380365
0.00403446
0.00431431
0.00463848
1.95673e-05
1.15723e-05
7.98525e-06
6.1186e-06
5.03208e-06
4.34372e-06
3.88032e-06
3.55792e-06
3.3359e-06
3.19791e-06
3.14434e-06
3.19118e-06
3.37528e-06
3.76674e-06
4.49135e-06
5.7648e-06
7.78721e-06
1.07701e-05
1.49261e-05
2.04296e-05
2.74086e-05
3.59413e-05
4.60541e-05
5.77189e-05
7.08513e-05
8.5309e-05
0.000100889
0.00011732
0.000134251
0.000151229
0.000167676
0.000182855
0.000195876
0.000205748
0.000215971
0.000228623
0.000244594
0.000264728
0.000289691
0.000319839
0.00035514
0.00039514
0.000439006
0.000485608
0.000533638
0.000581729
0.000628573
0.000673013
0.000714109
0.000751171
0.000783774
0.000811747
0.000835147
0.00085423
0.000869414
0.00088124
0.000890348
0.000897438
0.000903259
0.000908586
0.000914211
0.000920943
0.000929609
0.000941062
0.000956198
0.000975969
0.00100141
0.00103368
0.00107407
0.00112403
0.00118526
0.00125968
0.0013495
0.00145728
0.00158605
0.00173933
0.00192229
0.00213915
0.00240608
0.00273597
1.95673e-05
1.15718e-05
7.98456e-06
6.11818e-06
5.03165e-06
4.34203e-06
3.87435e-06
3.54154e-06
3.29807e-06
3.12027e-06
2.99767e-06
2.92937e-06
2.9237e-06
3.00056e-06
3.19708e-06
3.57749e-06
4.20272e-06
5.14071e-06
6.46615e-06
8.24384e-06
1.0518e-05
1.33055e-05
1.65943e-05
2.03436e-05
2.44862e-05
2.89303e-05
3.35598e-05
3.8235e-05
4.27922e-05
4.7043e-05
5.07758e-05
5.37615e-05
5.57663e-05
5.65739e-05
5.69638e-05
5.71364e-05
5.71197e-05
5.6956e-05
5.67032e-05
5.6435e-05
5.62384e-05
5.621e-05
5.64495e-05
5.70516e-05
5.80969e-05
5.96436e-05
6.17204e-05
6.43234e-05
6.74169e-05
7.09373e-05
7.48014e-05
7.89151e-05
8.31837e-05
8.75198e-05
9.18511e-05
9.61249e-05
0.000100311
0.000104404
0.000108424
0.000112416
0.000116457
0.000120654
0.000125155
0.000130151
0.000135892
0.000142688
0.000150929
0.000161101
0.000173812
0.000189843
0.00021021
0.000236265
0.000269837
0.000313423
0.000370478
0.000445739
0.00054613
0.000680538
0.00086555
0.00112882
1.95673e-05
1.15708e-05
7.98318e-06
6.11697e-06
5.03072e-06
4.34107e-06
3.87252e-06
3.53698e-06
3.28711e-06
3.09643e-06
2.95023e-06
2.84124e-06
2.76776e-06
2.7333e-06
2.74749e-06
2.82826e-06
2.99354e-06
3.26083e-06
3.65014e-06
4.18034e-06
4.86542e-06
5.71095e-06
6.71154e-06
7.84993e-06
9.09773e-06
1.04169e-05
1.17616e-05
1.30799e-05
1.43156e-05
1.54097e-05
1.63034e-05
1.69415e-05
1.72787e-05
1.72729e-05
1.71855e-05
1.70213e-05
1.67827e-05
1.64733e-05
1.60982e-05
1.56638e-05
1.51777e-05
1.46483e-05
1.40844e-05
1.34955e-05
1.28909e-05
1.22797e-05
1.16708e-05
1.10723e-05
1.04917e-05
9.9352e-06
9.40822e-06
8.9152e-06
8.46074e-06
8.05218e-06
7.70437e-06
7.44544e-06
7.31971e-06
7.38387e-06
7.69795e-06
8.31789e-06
9.29343e-06
1.06698e-05
1.24894e-05
1.47926e-05
1.76169e-05
2.09965e-05
2.49627e-05
2.9545e-05
3.47749e-05
4.06912e-05
4.73496e-05
5.48369e-05
6.32947e-05
7.29577e-05
8.42244e-05
9.77775e-05
0.000114893
0.000137795
0.000172188
0.000230496
1.95673e-05
1.15695e-05
7.98116e-06
6.11505e-06
5.02908e-06
4.33966e-06
3.87115e-06
3.5351e-06
3.28357e-06
3.08909e-06
2.93536e-06
2.81273e-06
2.71587e-06
2.64271e-06
2.59406e-06
2.57382e-06
2.58815e-06
2.6404e-06
2.73418e-06
2.87304e-06
3.0595e-06
3.29402e-06
3.57415e-06
3.8941e-06
4.24461e-06
4.61338e-06
4.98564e-06
5.345e-06
5.67431e-06
5.95659e-06
6.17616e-06
6.31979e-06
6.37811e-06
6.35129e-06
6.30358e-06
6.23544e-06
6.14776e-06
6.04176e-06
5.91902e-06
5.78137e-06
5.63085e-06
5.46969e-06
5.30021e-06
5.12479e-06
4.94582e-06
4.76572e-06
4.58693e-06
4.41218e-06
4.24523e-06
4.09298e-06
3.96967e-06
3.90256e-06
3.93538e-06
4.12543e-06
4.53663e-06
5.23508e-06
6.2896e-06
7.77354e-06
9.76499e-06
1.23448e-05
1.55935e-05
1.95877e-05
2.43965e-05
3.00798e-05
3.66862e-05
4.4253e-05
5.28071e-05
6.23668e-05
7.2944e-05
8.45464e-05
9.71792e-05
0.000110845
0.000125543
0.000141259
0.000157955
0.000175538
0.000193828
0.000212283
0.000230636
0.000245632
1.95673e-05
1.15676e-05
7.97854e-06
6.11249e-06
5.02676e-06
4.33762e-06
3.86934e-06
3.53338e-06
3.28161e-06
3.08621e-06
2.93034e-06
2.80348e-06
2.69901e-06
2.61294e-06
2.54314e-06
2.48911e-06
2.45376e-06
2.43671e-06
2.43726e-06
2.45506e-06
2.48967e-06
2.54024e-06
2.60526e-06
2.68241e-06
2.76856e-06
2.85982e-06
2.95178e-06
3.03964e-06
3.11855e-06
3.18387e-06
3.23148e-06
3.25808e-06
3.26151e-06
3.24494e-06
3.22323e-06
3.19648e-06
3.16491e-06
3.12885e-06
3.08874e-06
3.04511e-06
2.99864e-06
2.95018e-06
2.90085e-06
2.85214e-06
2.80631e-06
2.76746e-06
2.74433e-06
2.75568e-06
2.83656e-06
3.04038e-06
3.43488e-06
4.09755e-06
5.11557e-06
6.58814e-06
8.62739e-06
1.13569e-05
1.49078e-05
1.94144e-05
2.50084e-05
3.18142e-05
3.99441e-05
4.94948e-05
6.05447e-05
7.31518e-05
8.73516e-05
0.000103155
0.000120545
0.000139472
0.000159852
0.000181559
0.000204421
0.000228226
0.000252713
0.000277584
0.000302498
0.000327064
0.000350841
0.000373038
0.000393258
0.000407427
1.95673e-05
1.15653e-05
7.97532e-06
6.10931e-06
5.02379e-06
4.33493e-06
3.86693e-06
3.53122e-06
3.2796e-06
3.08413e-06
2.92781e-06
2.79983e-06
2.69313e-06
2.60304e-06
2.52647e-06
2.46151e-06
2.41014e-06
2.37094e-06
2.34215e-06
2.32246e-06
2.31084e-06
2.30633e-06
2.30792e-06
2.3145e-06
2.3248e-06
2.33747e-06
2.35105e-06
2.36409e-06
2.37514e-06
2.38291e-06
2.38625e-06
2.3843e-06
2.37651e-06
2.36466e-06
2.3519e-06
2.33823e-06
2.32374e-06
2.30865e-06
2.29343e-06
2.27895e-06
2.26673e-06
2.25949e-06
2.26265e-06
2.28828e-06
2.36249e-06
2.53278e-06
2.86876e-06
3.45712e-06
4.39975e-06
5.81658e-06
7.84833e-06
1.06563e-05
1.4419e-05
1.93265e-05
2.55739e-05
3.33528e-05
4.28445e-05
5.42111e-05
6.7589e-05
8.30807e-05
0.000100746
0.000120595
0.000142572
0.000166552
0.00019233
0.000219619
0.000248056
0.000277217
0.000306641
0.000335854
0.000364405
0.00039189
0.000417971
0.000442386
0.000464951
0.000485512
0.000504021
0.00051998
0.000533911
0.000541892
1.95672e-05
1.15624e-05
7.9715e-06
6.10548e-06
5.02014e-06
4.33156e-06
3.86389e-06
3.5285e-06
3.27714e-06
3.08186e-06
2.92559e-06
2.79745e-06
2.69023e-06
2.59904e-06
2.52051e-06
2.45225e-06
2.39596e-06
2.34995e-06
2.31215e-06
2.28106e-06
2.25554e-06
2.23467e-06
2.21768e-06
2.20386e-06
2.19254e-06
2.18312e-06
2.175e-06
2.16763e-06
2.16049e-06
2.15316e-06
2.14525e-06
2.13649e-06
2.12667e-06
2.11659e-06
2.10691e-06
2.09812e-06
2.09138e-06
2.08908e-06
2.09562e-06
2.12004e-06
2.18261e-06
2.32636e-06
2.62469e-06
3.1777e-06
4.10669e-06
5.55632e-06
7.69899e-06
1.07357e-05
1.4892e-05
2.04114e-05
2.7545e-05
3.65407e-05
4.76308e-05
6.10193e-05
7.68685e-05
9.52852e-05
0.000116306
0.000139882
0.000165865
0.000194
0.000223926
0.000255183
0.000287243
0.000319538
0.00035151
0.000382641
0.000412492
0.000440714
0.000467062
0.000491379
0.000513583
0.000533649
0.000551591
0.000567439
0.000581251
0.000593036
0.000602978
0.000610604
0.000617228
0.000617989
1.95671e-05
1.15588e-05
7.967e-06
6.10089e-06
5.0157e-06
4.32743e-06
3.86015e-06
3.52515e-06
3.27413e-06
3.07913e-06
2.92307e-06
2.79504e-06
2.68782e-06
2.59645e-06
2.51746e-06
2.44835e-06
2.39069e-06
2.34275e-06
2.30236e-06
2.26797e-06
2.23845e-06
2.2129e-06
2.19062e-06
2.17106e-06
2.15372e-06
2.13822e-06
2.1242e-06
2.11136e-06
2.09945e-06
2.08826e-06
2.0776e-06
2.06736e-06
2.05787e-06
2.05231e-06
2.05627e-06
2.08021e-06
2.14529e-06
2.2984e-06
2.62934e-06
3.26911e-06
4.37828e-06
6.14697e-06
8.7997e-06
1.25941e-05
1.78127e-05
2.47504e-05
3.36983e-05
4.49263e-05
5.86647e-05
7.50855e-05
9.42849e-05
0.000116266
0.000140927
0.000168049
0.000197295
0.000228223
0.000260307
0.000292974
0.000325643
0.000357776
0.000388909
0.00041868
0.000446829
0.000473191
0.000497674
0.000520237
0.000540867
0.000559563
0.000576326
0.000591161
0.000604073
0.000615074
0.000624187
0.00063144
0.0006369
0.000640568
0.000642741
0.000642931
0.000643097
0.00063822
1.95669e-05
1.15545e-05
7.96179e-06
6.09545e-06
5.01033e-06
4.32242e-06
3.85563e-06
3.52112e-06
3.27054e-06
3.0759e-06
2.92012e-06
2.7923e-06
2.68522e-06
2.59393e-06
2.51493e-06
2.4457e-06
2.38778e-06
2.33942e-06
2.29845e-06
2.26332e-06
2.2329e-06
2.20636e-06
2.18309e-06
2.16264e-06
2.14475e-06
2.1293e-06
2.1164e-06
2.10645e-06
2.10037e-06
2.09992e-06
2.10831e-06
2.13199e-06
2.24065e-06
2.52024e-06
3.12632e-06
4.27681e-06
6.22275e-06
9.24725e-06
1.36636e-05
1.98013e-05
2.7984e-05
3.8505e-05
5.16031e-05
6.744e-05
8.60821e-05
0.000107486
0.000131493
0.000157824
0.000186096
0.000215834
0.000246505
0.000277553
0.000308443
0.000338702
0.000367945
0.000395896
0.000422385
0.000447333
0.000470724
0.000492581
0.000512935
0.000531811
0.000549218
0.000565148
0.00057958
0.000592485
0.000603832
0.000613595
0.00062175
0.00062828
0.000633177
0.000636436
0.000638068
0.00063808
0.000636535
0.000633415
0.000629078
0.000623091
0.000617685
0.000608747
1.95666e-05
1.15496e-05
7.95586e-06
6.08911e-06
5.004e-06
4.31648e-06
3.85027e-06
3.5164e-06
3.26639e-06
3.07224e-06
2.91687e-06
2.78947e-06
2.68291e-06
2.59243e-06
2.51485e-06
2.44826e-06
2.39503e-06
2.35472e-06
2.32741e-06
2.31529e-06
2.32324e-06
2.35995e-06
2.43937e-06
2.58288e-06
2.8224e-06
3.20478e-06
3.79709e-06
4.69179e-06
6.01136e-06
7.91344e-06
1.05965e-05
1.44976e-05
2.01505e-05
2.7895e-05
3.80278e-05
5.07594e-05
6.61993e-05
8.43418e-05
0.000105059
0.000128104
0.000153121
0.000179666
0.000207238
0.000235309
0.000263366
0.000290945
0.000317659
0.000343223
0.000367459
0.000390287
0.000411714
0.000431803
0.000450649
0.000468349
0.000484988
0.000500629
0.000515305
0.000529027
0.000541789
0.000553571
0.000564345
0.000574079
0.000582737
0.000590277
0.000596657
0.000601832
0.000605755
0.000608384
0.000609678
0.000609601
0.000608124
0.000605224
0.000600892
0.000595121
0.000587962
0.000579397
0.000569789
0.000558894
0.000548634
0.000536865
1.95664e-05
1.15443e-05
7.94959e-06
6.08232e-06
4.99729e-06
4.31048e-06
3.8456e-06
3.51392e-06
3.26782e-06
3.08124e-06
2.94117e-06
2.84479e-06
2.80055e-06
2.8327e-06
2.98886e-06
3.35046e-06
4.00121e-06
5.04228e-06
6.60448e-06
8.83823e-06
1.19073e-05
1.59843e-05
2.12474e-05
2.78763e-05
3.60462e-05
4.59219e-05
5.76498e-05
7.13507e-05
8.71121e-05
0.000104981
0.000124953
0.000146789
0.00017002
0.000194165
0.00021872
0.000243189
0.000267124
0.000290157
0.000312016
0.000332537
0.000351656
0.000369392
0.000385832
0.000401101
0.000415338
0.000428672
0.000441216
0.000453052
0.000464233
0.000474792
0.000484745
0.000494099
0.000502858
0.000511026
0.000518605
0.000525594
0.000531986
0.000537767
0.000542913
0.000547389
0.000551153
0.000554157
0.000556347
0.000557664
0.000558052
0.000557452
0.000555809
0.000553069
0.000549183
0.000544106
0.000537801
0.000530239
0.000521405
0.00051129
0.000499944
0.000487378
0.000473898
0.000459596
0.000445427
0.000431837
1.95673e-05
1.15423e-05
7.95092e-06
6.09064e-06
5.02148e-06
4.37068e-06
3.98826e-06
3.84282e-06
3.9962e-06
4.59537e-06
5.85216e-06
8.03385e-06
1.1473e-05
1.65477e-05
2.36436e-05
3.31226e-05
4.46809e-05
5.80746e-05
7.31401e-05
8.968e-05
0.000107474
0.000126288
0.000145878
0.000165995
0.000186396
0.000206845
0.000227125
0.000247048
0.000266464
0.000285266
0.000303392
0.000320614
0.000336488
0.00035107
0.000364446
0.000376729
0.000388033
0.000398458
0.000408081
0.000416952
0.000425107
0.000432572
0.000439375
0.000445547
0.000451129
0.000456168
0.000460714
0.000464819
0.000468529
0.000471879
0.000474897
0.000477597
0.000479981
0.000482043
0.000483765
0.000485123
0.000486087
0.00048662
0.00048668
0.000486222
0.000485196
0.000483549
0.000481229
0.000478179
0.000474344
0.000469674
0.000464117
0.000457627
0.00045016
0.000441681
0.000432164
0.000421593
0.000409968
0.000397303
0.000383662
0.000369113
0.000353857
0.000338365
0.000322302
0.000308086
1.9648e-05
1.17601e-05
8.43994e-06
7.12774e-06
7.16713e-06
8.62657e-06
1.1865e-05
1.73047e-05
2.53625e-05
3.62769e-05
4.99676e-05
6.60717e-05
8.40686e-05
0.000103396
0.000123523
0.000143985
0.000163542
0.000181834
0.000198889
0.000214802
0.000229704
0.000243736
0.000257038
0.000269731
0.000281917
0.000293668
0.000305028
0.000316018
0.000326634
0.00033686
0.000346673
0.000356023
0.000364387
0.000371635
0.0003778
0.000382983
0.000387309
0.000390898
0.000393862
0.0003963
0.000398294
0.000399915
0.000401216
0.000402239
0.000403014
0.00040356
0.000403887
0.000404001
0.000403901
0.000403581
0.00040303
0.000402235
0.000401175
0.000399831
0.000398177
0.000396185
0.000393827
0.000391072
0.000387887
0.00038424
0.000380099
0.000375429
0.000370199
0.000364376
0.000357931
0.000350837
0.000343069
0.000334609
0.000325442
0.000315564
0.00030498
0.000293709
0.000281787
0.000269265
0.000256229
0.000242806
0.000229078
0.000215636
0.00020102
0.000188907
2.37559e-05
2.08067e-05
2.35284e-05
2.94409e-05
3.82332e-05
5.01385e-05
6.51422e-05
8.23884e-05
0.00010035
0.000117497
0.000132893
0.000146341
0.00015818
0.000168975
0.000179267
0.000189448
0.000199198
0.000208486
0.000217336
0.000225715
0.000233588
0.000240935
0.000247761
0.000254087
0.000259942
0.000265362
0.00027038
0.000275024
0.000279315
0.000283268
0.000286899
0.000290188
0.000292943
0.000295252
0.000297267
0.000299063
0.000300663
0.000302069
0.000303273
0.000304268
0.000305051
0.000305616
0.00030595
0.000306038
0.000305863
0.000305405
0.000304645
0.000303565
0.000302146
0.000300374
0.000298236
0.000295721
0.000292824
0.000289538
0.000285861
0.000281794
0.000277338
0.000272497
0.000267276
0.000261682
0.000255722
0.000249407
0.000242746
0.000235751
0.000228437
0.000220817
0.000212911
0.000204745
0.000196344
0.000187742
0.000178977
0.000170095
0.000161147
0.000152189
0.000143299
0.000134511
0.000125952
0.000117519
0.000108912
0.000102721
8.2132e-05
7.88754e-05
7.64834e-05
7.5102e-05
7.45497e-05
7.4763e-05
7.56961e-05
7.73095e-05
7.95124e-05
8.21467e-05
8.50286e-05
8.80047e-05
9.09794e-05
9.39105e-05
9.67895e-05
9.96198e-05
0.000102353
0.000104909
0.000107278
0.000109466
0.000111476
0.00011331
0.00011497
0.000116459
0.00011778
0.000118936
0.000119933
0.000120774
0.000121464
0.000122007
0.000122404
0.000122658
0.000122755
0.000122686
0.000122451
0.000122057
0.000121511
0.000120818
0.000119984
0.000119013
0.00011791
0.000116681
0.000115331
0.000113867
0.000112296
0.000110627
0.000108865
0.000107021
0.000105101
0.000103116
0.000101076
9.89884e-05
9.68653e-05
9.47165e-05
9.25529e-05
9.0385e-05
8.82238e-05
8.60797e-05
8.39632e-05
8.18843e-05
7.98524e-05
7.78763e-05
7.59643e-05
7.41235e-05
7.23604e-05
7.06804e-05
6.90878e-05
6.7586e-05
6.61776e-05
6.4864e-05
6.36455e-05
6.25221e-05
6.14918e-05
6.05558e-05
5.97044e-05
5.89644e-05
5.82583e-05
5.78318e-05
5.70249e-05
5.74086e-05
)
;

boundaryField
{
    inlet
    {
        type            fixedValue;
        value           uniform 0;
    }
    outlet
    {
        type            zeroGradient;
    }
    fixedWalls
    {
        type            nutkWallFunction;
        Cmu             0.09;
        kappa           0.41;
        E               9.8;
        value           nonuniform List<scalar> 
160
(
9.29711e-06
8.8565e-06
8.53136e-06
8.34297e-06
8.26753e-06
8.29666e-06
8.42403e-06
8.64376e-06
8.94283e-06
9.29905e-06
9.68706e-06
1.0086e-05
1.04829e-05
1.08725e-05
1.12535e-05
1.16268e-05
1.19859e-05
1.23207e-05
1.263e-05
1.29149e-05
1.3176e-05
1.34137e-05
1.36284e-05
1.38206e-05
1.39908e-05
1.41396e-05
1.42676e-05
1.43755e-05
1.44639e-05
1.45332e-05
1.45839e-05
1.46163e-05
1.46284e-05
1.46192e-05
1.45888e-05
1.45381e-05
1.44679e-05
1.43788e-05
1.42714e-05
1.41463e-05
1.40041e-05
1.38454e-05
1.36709e-05
1.34815e-05
1.32779e-05
1.30612e-05
1.28322e-05
1.25919e-05
1.23414e-05
1.20818e-05
1.18142e-05
1.15399e-05
1.126e-05
1.09759e-05
1.0689e-05
1.04006e-05
1.01121e-05
9.82491e-06
9.54045e-06
9.26008e-06
8.98511e-06
8.7168e-06
8.45633e-06
8.20477e-06
7.96309e-06
7.73213e-06
7.51257e-06
7.305e-06
7.10984e-06
6.9274e-06
6.75781e-06
6.60115e-06
6.45721e-06
6.32623e-06
6.20691e-06
6.1031e-06
6.00387e-06
5.944e-06
5.83019e-06
5.88499e-06
0.000184713
0.00018541
0.000179097
0.000161503
0.000113002
5.99952e-05
5.9724e-05
6.64946e-05
7.1815e-05
7.16541e-05
6.5213e-05
5.9674e-05
6.43137e-05
6.96654e-05
7.5512e-05
8.28777e-05
9.17764e-05
0.000101648
0.000112171
0.000123129
0.000134292
0.000145442
0.000156428
0.000167196
0.000177807
0.000188437
0.000199344
0.00021079
0.000222933
0.000235757
0.000249059
0.000262528
0.000275822
0.000288638
0.000300737
0.000311958
0.00032222
0.000331521
0.000339962
0.000347766
0.000354626
0.000360394
0.000365216
0.000369223
0.000372495
0.000375081
0.000377008
0.00037829
0.000378937
0.000378955
0.000378351
0.000377131
0.000375306
0.000372872
0.000369829
0.000366204
0.000362031
0.000357358
0.000352276
0.000347076
0.000341927
0.000336576
0.00033091
0.000324902
0.000318563
0.000311916
0.000304989
0.000297814
0.000290422
0.000282844
0.000275114
0.000267262
0.000259321
0.000251327
0.000243317
0.00023534
0.000227464
0.000219787
0.00021245
0.000206479
)
;
    }
    frontAndBack
    {
        type            empty;
    }
}


// ************************************************************************* //
