/*--------------------------------*- C++ -*----------------------------------*\
| =========                 |                                                 |
| \\      /  F ield         | OpenFOAM: The Open Source CFD Toolbox           |
|  \\    /   O peration     | Version:  v1912                                 |
|   \\  /    A nd           | Website:  www.openfoam.com                      |
|    \\/     M anipulation  |                                                 |
\*---------------------------------------------------------------------------*/
FoamFile
{
    version     2.0;
    format      ascii;
    class       volScalarField;
    location    "75";
    object      p;
}
// * * * * * * * * * * * * * * * * * * * * * * * * * * * * * * * * * * * * * //

dimensions      [0 2 -2 0 0 0 0];


internalField   nonuniform List<scalar> 
2000
(
-0.0151959
0.101505
0.157833
0.153965
0.140834
0.135829
0.135268
0.135815
0.135777
0.136237
0.136562
0.136522
0.136436
0.136465
0.136558
0.136608
0.136604
0.136557
0.136468
0.136333
0.136152
0.13594
0.135717
0.135505
0.135322
0.135176
0.135068
0.13499
0.134925
0.134858
0.134774
0.134687
0.134638
0.134704
0.134981
0.135566
0.136537
0.137958
0.139868
0.142241
0.145099
0.148422
0.152162
0.156286
0.160771
0.165598
0.170747
0.176197
0.181921
0.187887
0.194054
0.200376
0.206802
0.213272
0.219721
0.226076
0.232259
0.238183
0.243759
0.248905
0.253532
0.257554
0.26087
0.263368
0.26494
0.265472
0.264847
0.26294
0.259612
0.254712
0.248062
0.239458
0.228649
0.215319
0.19904
0.179271
0.154915
0.125329
0.0848022
0.043016
0.0429471
0.127332
0.165391
0.15271
0.136557
0.134602
0.139465
0.140304
0.136117
0.134057
0.135335
0.136309
0.136352
0.136461
0.136703
0.136771
0.136753
0.136703
0.136615
0.136455
0.136214
0.135917
0.135622
0.135384
0.13524
0.135188
0.135195
0.135205
0.135145
0.134954
0.134601
0.134106
0.133556
0.133093
0.132891
0.133108
0.133852
0.135187
0.137209
0.13987
0.14296
0.146377
0.15013
0.154225
0.158658
0.163419
0.168495
0.173863
0.179495
0.185359
0.191411
0.197602
0.203874
0.210162
0.216399
0.222511
0.228417
0.234031
0.23926
0.243998
0.248143
0.251609
0.254304
0.256119
0.256941
0.256656
0.255144
0.252274
0.247905
0.241877
0.234008
0.224082
0.211842
0.196967
0.17905
0.157578
0.13179
0.101189
0.0632938
0.0288041
0.0907469
0.124184
0.14697
0.146495
0.139219
0.137271
0.138583
0.137999
0.136317
0.136096
0.138201
0.138014
0.136011
0.135393
0.136326
0.136853
0.136958
0.136913
0.136819
0.136654
0.136389
0.136056
0.135723
0.135455
0.135286
0.135214
0.135204
0.135198
0.135125
0.134926
0.134582
0.134131
0.133672
0.133346
0.133303
0.133673
0.13454
0.135921
0.137762
0.140097
0.142895
0.146104
0.149698
0.15366
0.157976
0.162629
0.167598
0.172858
0.178379
0.184121
0.190039
0.196082
0.202189
0.208296
0.21433
0.220213
0.22586
0.231184
0.236091
0.240487
0.244276
0.247365
0.249655
0.251039
0.251408
0.250649
0.248644
0.245262
0.240365
0.233793
0.225369
0.214882
0.202086
0.186687
0.168332
0.146628
0.121053
0.0915644
0.0564702
0.0267465
0.112635
0.122847
0.136361
0.142256
0.141764
0.140721
0.140261
0.139257
0.138084
0.137365
0.137655
0.137779
0.137614
0.13714
0.137062
0.137018
0.136809
0.136782
0.136874
0.136856
0.136665
0.136368
0.136049
0.135779
0.135592
0.13549
0.135444
0.135401
0.135302
0.135102
0.13479
0.134408
0.134042
0.133813
0.133844
0.13424
0.135054
0.13636
0.138156
0.140429
0.143153
0.146295
0.149835
0.153752
0.158031
0.16265
0.167587
0.172814
0.178294
0.183988
0.189847
0.195816
0.201832
0.207828
0.21373
0.219457
0.224924
0.230043
0.234723
0.238868
0.242386
0.24518
0.247152
0.2482
0.248217
0.247095
0.244717
0.240958
0.235681
0.228734
0.219942
0.209105
0.195993
0.18034
0.161841
0.140193
0.115015
0.0864853
0.0530758
0.0257025
0.122747
0.127068
0.136232
0.142484
0.143629
0.143139
0.143058
0.142888
0.142022
0.140823
0.139967
0.139552
0.139162
0.138367
0.138025
0.138135
0.138086
0.137833
0.137521
0.137212
0.136941
0.1367
0.136483
0.136306
0.136185
0.136119
0.136084
0.136039
0.13594
0.135755
0.135486
0.135176
0.134902
0.134768
0.134871
0.135304
0.136166
0.137481
0.139269
0.141522
0.144219
0.147334
0.150849
0.154744
0.159
0.163594
0.168501
0.173689
0.179121
0.184751
0.190531
0.196402
0.202301
0.208158
0.213899
0.219442
0.224705
0.229599
0.234035
0.237922
0.241169
0.243681
0.245364
0.24612
0.245849
0.244443
0.241793
0.237775
0.232259
0.225095
0.216116
0.205129
0.191914
0.176227
0.157792
0.136355
0.111581
0.0837774
0.051277
0.0249441
0.128909
0.131789
0.138105
0.143233
0.144958
0.145171
0.145553
0.145889
0.145593
0.144856
0.144156
0.143529
0.142619
0.141459
0.140695
0.140382
0.140064
0.139638
0.139221
0.138837
0.138444
0.138025
0.137631
0.137333
0.137163
0.137104
0.137105
0.137108
0.137064
0.136943
0.136752
0.136535
0.136347
0.136298
0.136496
0.137022
0.137951
0.139319
0.141139
0.143408
0.146109
0.149224
0.152732
0.156614
0.160849
0.165414
0.170279
0.175411
0.18077
0.18631
0.191978
0.197717
0.203461
0.209142
0.214685
0.22001
0.225038
0.229682
0.233857
0.237475
0.24045
0.242691
0.244109
0.24461
0.244098
0.242471
0.239622
0.235434
0.229776
0.222505
0.213456
0.202442
0.189251
0.173645
0.15536
0.134164
0.109714
0.0823912
0.0502939
0.0243009
0.133155
0.135362
0.139894
0.144091
0.146179
0.146988
0.147678
0.148273
0.148421
0.148193
0.14786
0.147432
0.146722
0.145779
0.144919
0.144212
0.143508
0.142815
0.142206
0.141673
0.141161
0.140651
0.140178
0.139786
0.139495
0.139293
0.139152
0.139039
0.138923
0.138783
0.138618
0.138453
0.13837
0.138446
0.138762
0.139404
0.140431
0.141873
0.143745
0.146047
0.148768
0.151891
0.155396
0.159263
0.16347
0.167991
0.172794
0.177845
0.183101
0.188517
0.194039
0.199608
0.205161
0.210629
0.21594
0.221018
0.225785
0.230161
0.234064
0.237411
0.24012
0.242107
0.243285
0.243566
0.242858
0.241064
0.238077
0.233785
0.228059
0.220758
0.211719
0.200757
0.187662
0.172199
0.154101
0.133137
0.108926
0.0818888
0.0498763
0.0237945
0.136171
0.138016
0.141663
0.145353
0.147625
0.148772
0.149638
0.150391
0.150815
0.150907
0.150837
0.150654
0.150275
0.149695
0.149054
0.148412
0.147728
0.14701
0.146298
0.145615
0.144962
0.14435
0.143808
0.143359
0.143007
0.142738
0.142526
0.142341
0.142156
0.141958
0.141753
0.141578
0.141473
0.141554
0.141889
0.142566
0.143637
0.145126
0.147038
0.149368
0.152104
0.155227
0.158716
0.162551
0.166707
0.171157
0.175869
0.180806
0.185927
0.191183
0.196523
0.201888
0.207217
0.212444
0.2175
0.222312
0.226807
0.230909
0.234543
0.237629
0.240091
0.241847
0.242818
0.242917
0.242055
0.240139
0.237065
0.23272
0.22698
0.219701
0.210723
0.199862
0.186904
0.171613
0.153712
0.132961
0.108922
0.0820269
0.0498999
0.023442
0.138386
0.140086
0.143358
0.14679
0.149136
0.150488
0.151503
0.152381
0.152973
0.153254
0.153355
0.153347
0.15319
0.152867
0.152461
0.15203
0.151551
0.151008
0.150419
0.149812
0.149201
0.148602
0.148042
0.147549
0.147138
0.146808
0.146545
0.146327
0.146132
0.14595
0.145792
0.145693
0.145715
0.145847
0.146245
0.146937
0.147979
0.149411
0.151254
0.15351
0.156167
0.15921
0.162615
0.166359
0.170412
0.174746
0.179323
0.184107
0.189054
0.194117
0.199244
0.204379
0.209462
0.214432
0.219223
0.223766
0.227993
0.231833
0.235214
0.238062
0.240303
0.241861
0.242658
0.242612
0.241635
0.239634
0.23651
0.232149
0.226427
0.219203
0.210315
0.199577
0.186775
0.171668
0.153963
0.133405
0.109495
0.0826444
0.0502873
0.0232492
0.140054
0.141737
0.144895
0.148204
0.150574
0.152072
0.153236
0.154236
0.154957
0.155376
0.155602
0.155709
0.155683
0.155516
0.155269
0.154995
0.15468
0.154303
0.153879
0.153429
0.152966
0.152499
0.15205
0.151639
0.15128
0.150977
0.150721
0.150501
0.150309
0.150147
0.150029
0.149991
0.150078
0.150327
0.150828
0.151619
0.152729
0.15419
0.156022
0.15823
0.160809
0.163744
0.16702
0.170615
0.174504
0.178657
0.183041
0.187618
0.192345
0.197177
0.202062
0.206947
0.211775
0.216485
0.221016
0.225304
0.229282
0.232883
0.236038
0.238678
0.24073
0.242122
0.242777
0.242615
0.24155
0.239491
0.236339
0.231981
0.226295
0.219139
0.210351
0.199745
0.187104
0.172179
0.154666
0.134288
0.110487
0.0836275
0.0509933
0.0232281
0.141317
0.143065
0.14627
0.149545
0.151919
0.153525
0.154822
0.155933
0.156763
0.157299
0.157635
0.157838
0.157907
0.157846
0.157703
0.157524
0.157306
0.157035
0.156723
0.156389
0.156043
0.155694
0.155358
0.155051
0.154785
0.154561
0.154376
0.154223
0.1541
0.154013
0.153979
0.15403
0.154206
0.154547
0.155088
0.155915
0.157051
0.158517
0.160331
0.162499
0.165017
0.167874
0.171052
0.17453
0.178285
0.182286
0.186501
0.190893
0.195423
0.200045
0.204713
0.209374
0.213975
0.218458
0.222764
0.226832
0.230599
0.233999
0.236966
0.239433
0.24133
0.242585
0.243124
0.242867
0.241732
0.239628
0.236457
0.232108
0.226459
0.219369
0.210677
0.200198
0.187709
0.172961
0.155635
0.135433
0.111745
0.0848726
0.05198
0.0234351
0.142263
0.144147
0.147512
0.150801
0.153165
0.154852
0.156264
0.157469
0.158389
0.159025
0.159459
0.159749
0.159905
0.159933
0.159873
0.159766
0.159617
0.159417
0.159178
0.158915
0.158641
0.158365
0.158101
0.157862
0.157659
0.157493
0.157363
0.157266
0.157201
0.157179
0.157216
0.15734
0.157591
0.158003
0.158603
0.159476
0.160646
0.162128
0.163938
0.16608
0.168552
0.171343
0.174439
0.177819
0.181461
0.185337
0.189416
0.193663
0.198038
0.2025
0.207001
0.211492
0.21592
0.220231
0.224366
0.228266
0.231869
0.235113
0.237933
0.240262
0.242034
0.243178
0.243621
0.243286
0.242091
0.239947
0.236756
0.232411
0.226789
0.21975
0.211136
0.200759
0.188398
0.1738
0.156634
0.136591
0.113006
0.0861347
0.053011
0.0238283
0.142955
0.145046
0.148646
0.151964
0.154304
0.156058
0.157571
0.158854
0.159846
0.160565
0.161082
0.161451
0.161683
0.161791
0.161807
0.161767
0.16168
0.161541
0.16136
0.161152
0.16093
0.160705
0.16049
0.160296
0.160133
0.160004
0.159909
0.159847
0.159821
0.15984
0.159924
0.160098
0.160397
0.16085
0.161516
0.162424
0.163614
0.165105
0.166908
0.169031
0.17147
0.174217
0.177256
0.180571
0.184136
0.187927
0.191911
0.196055
0.200319
0.204662
0.209038
0.2134
0.217695
0.221871
0.22587
0.229634
0.233105
0.236221
0.238919
0.241134
0.242802
0.243852
0.244213
0.243811
0.242563
0.240382
0.237172
0.232825
0.227219
0.220218
0.211659
0.201359
0.189093
0.174606
0.15756
0.137631
0.114108
0.0872189
0.0538038
0.0241877
0.143439
0.14581
0.149693
0.153027
0.155335
0.15715
0.158749
0.160098
0.161149
0.161937
0.162525
0.16296
0.163259
0.163436
0.163519
0.163541
0.163512
0.16343
0.163303
0.163145
0.162969
0.162789
0.162614
0.162458
0.162328
0.162228
0.16216
0.162125
0.162128
0.162179
0.162298
0.16251
0.162847
0.163343
0.164044
0.164978
0.166183
0.16768
0.16948
0.171588
0.174002
0.176714
0.17971
0.182971
0.186474
0.190195
0.194101
0.198159
0.202331
0.206576
0.21085
0.215105
0.219291
0.223355
0.227242
0.230897
0.234259
0.237271
0.23987
0.241993
0.243576
0.244551
0.244847
0.244391
0.243102
0.240892
0.237668
0.233321
0.227732
0.220763
0.212253
0.202016
0.189828
0.175431
0.158478
0.138637
0.115146
0.0882313
0.0544568
0.024546
0.14375
0.14648
0.150662
0.153989
0.156263
0.158135
0.159809
0.16121
0.162312
0.163158
0.163806
0.164298
0.164654
0.164889
0.16503
0.165107
0.16513
0.165099
0.16502
0.164908
0.164775
0.164635
0.164498
0.164375
0.164275
0.164202
0.164159
0.164149
0.164176
0.164254
0.164401
0.164643
0.16501
0.165536
0.16626
0.167214
0.16843
0.16993
0.171724
0.173818
0.176209
0.17889
0.181847
0.185062
0.188512
0.192173
0.196013
0.2
0.204095
0.208259
0.212448
0.216615
0.220712
0.224685
0.228482
0.232047
0.235323
0.23825
0.24077
0.24282
0.244335
0.24525
0.245495
0.244997
0.243675
0.241445
0.238212
0.23387
0.228298
0.221359
0.212894
0.202716
0.1906
0.176284
0.159416
0.139661
0.116207
0.0892978
0.055149
0.025087
0.143918
0.147087
0.151561
0.154852
0.157094
0.159023
0.160759
0.162204
0.163348
0.164243
0.164942
0.165484
0.165888
0.166173
0.166364
0.166489
0.166557
0.166571
0.166535
0.166462
0.166367
0.166262
0.166158
0.166066
0.165993
0.165945
0.165924
0.165935
0.165984
0.166084
0.166254
0.16652
0.166911
0.167459
0.168201
0.169168
0.170391
0.171891
0.173679
0.175759
0.178129
0.180783
0.183706
0.186881
0.190286
0.193896
0.197681
0.201608
0.20564
0.209737
0.213856
0.217951
0.221974
0.225874
0.229598
0.233091
0.236297
0.239157
0.241612
0.243601
0.24506
0.245925
0.246126
0.245592
0.244244
0.241997
0.238758
0.234421
0.228867
0.221958
0.213536
0.203413
0.191365
0.177129
0.160346
0.140683
0.117282
0.0904275
0.055933
0.0258516
0.143969
0.147653
0.152393
0.15562
0.157838
0.159821
0.161608
0.163088
0.164269
0.165207
0.165949
0.166533
0.166979
0.167307
0.167541
0.167707
0.167816
0.167868
0.167869
0.167832
0.16777
0.167695
0.16762
0.167554
0.167504
0.167477
0.167476
0.167506
0.167573
0.167692
0.167881
0.168166
0.168576
0.16914
0.169895
0.170873
0.1721
0.173598
0.175379
0.177445
0.179797
0.182426
0.18532
0.188461
0.191828
0.195396
0.199135
0.203013
0.206993
0.211035
0.215098
0.219136
0.2231
0.22694
0.230602
0.234034
0.237178
0.239978
0.242375
0.244309
0.245718
0.246538
0.246701
0.246137
0.244767
0.242509
0.239269
0.234942
0.229409
0.222534
0.214156
0.20409
0.192109
0.177952
0.161254
0.141688
0.118353
0.0915897
0.0567949
0.0267599
0.143925
0.148197
0.153156
0.156299
0.158504
0.160537
0.162365
0.163874
0.165087
0.166061
0.166841
0.167461
0.167944
0.168308
0.16858
0.168782
0.168926
0.169012
0.169046
0.169038
0.169005
0.168958
0.168907
0.168863
0.168834
0.168826
0.168841
0.168887
0.168969
0.169103
0.169307
0.169608
0.170032
0.170608
0.171373
0.172357
0.173586
0.175083
0.176856
0.178911
0.181247
0.183856
0.186726
0.189839
0.193175
0.196709
0.200411
0.204248
0.208185
0.212181
0.216195
0.22018
0.224089
0.227871
0.231475
0.234848
0.237934
0.240678
0.243023
0.244909
0.246276
0.247061
0.247197
0.246613
0.245233
0.242972
0.239739
0.235429
0.229922
0.223082
0.214749
0.204739
0.192823
0.178742
0.162128
0.142659
0.119397
0.0927481
0.0577108
0.0277389
0.143806
0.14873
0.15385
0.156897
0.159101
0.161179
0.163039
0.164572
0.165812
0.166816
0.167628
0.16828
0.168794
0.169192
0.169495
0.169729
0.169904
0.17002
0.170082
0.170101
0.170093
0.170069
0.17004
0.170016
0.170005
0.170013
0.170043
0.170103
0.170199
0.170345
0.170562
0.170875
0.171311
0.171896
0.172666
0.173654
0.174884
0.176377
0.178145
0.180191
0.182514
0.185107
0.187957
0.191047
0.194355
0.197856
0.201521
0.205317
0.209208
0.213155
0.217117
0.221048
0.224902
0.228631
0.232182
0.235504
0.238543
0.241243
0.243549
0.245401
0.24674
0.247502
0.247622
0.247028
0.245645
0.243389
0.240168
0.235877
0.230398
0.223594
0.215306
0.205349
0.193496
0.179488
0.162954
0.14358
0.120396
0.0938738
0.0586595
0.0287386
0.143628
0.149256
0.154476
0.157424
0.159632
0.16175
0.163639
0.165195
0.166458
0.167489
0.168327
0.169005
0.169546
0.169971
0.170303
0.170564
0.170766
0.170909
0.170996
0.171038
0.171051
0.171047
0.171037
0.171029
0.171033
0.171054
0.171097
0.171168
0.171275
0.171433
0.171659
0.171983
0.17243
0.173025
0.173803
0.174794
0.176025
0.177515
0.179275
0.181308
0.183613
0.186182
0.189005
0.192063
0.195335
0.198798
0.202421
0.206174
0.210021
0.213924
0.217841
0.221729
0.22554
0.229227
0.232739
0.236024
0.239029
0.241698
0.243976
0.245805
0.247124
0.247872
0.247983
0.247386
0.246006
0.243759
0.240553
0.236284
0.230834
0.224066
0.215823
0.205917
0.194124
0.180185
0.163727
0.144445
0.121341
0.094948
0.0596238
0.0297292
0.143408
0.149777
0.155032
0.157893
0.16011
0.162254
0.164162
0.165737
0.167024
0.168079
0.168943
0.169645
0.17021
0.170659
0.171014
0.171299
0.171525
0.171691
0.171799
0.171863
0.171896
0.17191
0.171917
0.171926
0.171945
0.171978
0.172032
0.172113
0.172228
0.172393
0.172627
0.172953
0.173398
0.173993
0.174767
0.175751
0.176971
0.178447
0.180189
0.182202
0.184484
0.187028
0.189824
0.192853
0.196096
0.199527
0.203118
0.206839
0.210652
0.214522
0.218405
0.222259
0.226038
0.229693
0.233175
0.236432
0.239411
0.242058
0.244316
0.24613
0.247438
0.248178
0.248286
0.247692
0.246319
0.244084
0.240896
0.236651
0.231231
0.224499
0.216297
0.206441
0.194704
0.18083
0.164445
0.145248
0.122226
0.0959589
0.060587
0.0306937
0.14316
0.150293
0.155506
0.158309
0.160555
0.162724
0.164643
0.166227
0.167527
0.168601
0.169484
0.170207
0.170795
0.171266
0.171644
0.171951
0.172197
0.172382
0.172508
0.172585
0.17263
0.172655
0.172671
0.172686
0.17271
0.172747
0.172803
0.172883
0.172998
0.173161
0.173393
0.173712
0.174153
0.174743
0.175511
0.176487
0.177698
0.179162
0.180891
0.18289
0.185155
0.187681
0.190457
0.193464
0.196684
0.20009
0.203656
0.20735
0.211137
0.214979
0.218836
0.222664
0.226417
0.230049
0.233508
0.236745
0.239706
0.242338
0.244584
0.246388
0.24769
0.248429
0.248539
0.247951
0.246588
0.244368
0.2412
0.236979
0.231587
0.22489
0.216729
0.206918
0.195234
0.181421
0.165102
0.145985
0.123042
0.0968937
0.0615249
0.0316164
0.142895
0.150834
0.155896
0.158626
0.16091
0.163116
0.165061
0.166666
0.167983
0.169071
0.169967
0.1707
0.171297
0.171777
0.172165
0.17248
0.172735
0.172928
0.17306
0.173144
0.173193
0.173223
0.173241
0.173259
0.173284
0.173322
0.173378
0.173459
0.173574
0.173737
0.17397
0.174292
0.174729
0.175317
0.17608
0.17705
0.178253
0.179709
0.181428
0.183414
0.185666
0.188177
0.190935
0.193925
0.197125
0.200512
0.204058
0.207731
0.211498
0.215319
0.219156
0.222964
0.226699
0.230313
0.233757
0.23698
0.239929
0.242551
0.244791
0.24659
0.247891
0.248632
0.248747
0.248167
0.246816
0.244611
0.241463
0.237265
0.231901
0.225236
0.217111
0.207343
0.195707
0.181947
0.165688
0.146643
0.123775
0.097734
0.0624007
0.0324764
0.142568
0.151467
0.156371
0.15898
0.161244
0.163443
0.165385
0.166992
0.168314
0.169408
0.170309
0.171048
0.171649
0.172135
0.172527
0.172849
0.173109
0.173307
0.173444
0.173532
0.173586
0.17362
0.173642
0.173663
0.173691
0.173731
0.173789
0.17387
0.173984
0.174146
0.174375
0.174698
0.175135
0.175725
0.176486
0.177452
0.178651
0.1801
0.181811
0.183789
0.186032
0.188533
0.191279
0.194256
0.197443
0.200816
0.204347
0.208005
0.211757
0.215563
0.219386
0.223181
0.226903
0.230506
0.23394
0.237154
0.240097
0.242714
0.244951
0.246751
0.248055
0.248801
0.248923
0.248353
0.247015
0.244826
0.241697
0.237522
0.232185
0.225549
0.217458
0.207727
0.196132
0.182419
0.166212
0.147227
0.124425
0.0984828
0.0632004
0.0332976
0.141861
0.151637
0.156648
0.159269
0.161538
0.163728
0.165652
0.16725
0.168569
0.169666
0.170573
0.17132
0.171931
0.172426
0.172828
0.173158
0.17343
0.173638
0.173785
0.173881
0.173943
0.173983
0.174012
0.17404
0.174072
0.174117
0.174179
0.174264
0.174381
0.174545
0.174777
0.175102
0.17554
0.176127
0.176884
0.177844
0.179035
0.180476
0.182177
0.184142
0.18637
0.188856
0.191588
0.194549
0.19772
0.201076
0.20459
0.208232
0.211968
0.215759
0.219567
0.223349
0.22706
0.230653
0.234079
0.237288
0.240227
0.242843
0.245082
0.246886
0.248196
0.248952
0.249088
0.248534
0.247216
0.24505
0.241943
0.237796
0.23249
0.22589
0.217838
0.208152
0.196606
0.182948
0.166802
0.147891
0.125163
0.0993441
0.0641269
0.0343656
)
;

boundaryField
{
    inlet
    {
        type            zeroGradient;
    }
    outlet
    {
        type            fixedValue;
        value           uniform 0;
    }
    fixedWalls
    {
        type            zeroGradient;
    }
    frontAndBack
    {
        type            empty;
    }
}


// ************************************************************************* //
