/*--------------------------------*- C++ -*----------------------------------*\
| =========                 |                                                 |
| \\      /  F ield         | OpenFOAM: The Open Source CFD Toolbox           |
|  \\    /   O peration     | Version:  v1912                                 |
|   \\  /    A nd           | Website:  www.openfoam.com                      |
|    \\/     M anipulation  |                                                 |
\*---------------------------------------------------------------------------*/
FoamFile
{
    version     2.0;
    format      ascii;
    class       surfaceScalarField;
    location    "75";
    object      phi;
}
// * * * * * * * * * * * * * * * * * * * * * * * * * * * * * * * * * * * * * //

dimensions      [0 3 -1 0 0 0 0];
oriented        oriented;


internalField   nonuniform List<scalar> 
3895
(
0.000812974
0.000383202
0.000495804
0.000317171
0.000248482
0.000247322
6.46445e-05
0.000183837
-5.62484e-05
0.000120893
-0.000113019
5.67706e-05
-0.000119091
6.07161e-06
-0.00010026
-1.88307e-05
-0.000101329
1.0692e-06
-9.48405e-05
-6.48867e-06
-8.2573e-05
-1.22675e-05
-8.62374e-05
3.66442e-06
-0.000101177
1.49393e-05
-0.000110831
9.65454e-06
-0.000115107
4.27606e-06
-0.00012192
6.8129e-06
-0.000133547
1.16266e-05
-0.000149292
1.57453e-05
-0.000168603
1.93106e-05
-0.00019101
2.24076e-05
-0.000215501
2.44909e-05
-0.000240581
2.50796e-05
-0.000264908
2.43278e-05
-0.000287853
2.29447e-05
-0.000309733
2.18794e-05
-0.000331677
2.1944e-05
-0.000355219
2.35425e-05
-0.00038188
2.6661e-05
-0.000412623
3.07434e-05
-0.000447513
3.48893e-05
-0.000485686
3.81736e-05
-0.000525465
3.97791e-05
-0.000564622
3.91563e-05
-0.000600857
3.62357e-05
-0.000632182
3.13247e-05
-0.000657153
2.49711e-05
-0.000674971
1.78177e-05
-0.000685381
1.04103e-05
-0.000688157
2.77511e-06
-0.000685152
-3.00426e-06
-0.000677781
-7.37103e-06
-0.000666455
-1.13263e-05
-0.000651515
-1.49396e-05
-0.000633166
-1.8349e-05
-0.000611524
-2.16427e-05
-0.000586662
-2.4862e-05
-0.000558643
-2.80186e-05
-0.000527537
-3.11059e-05
-0.00049343
-3.41071e-05
-0.000456431
-3.69995e-05
-0.000416672
-3.9758e-05
-0.000374318
-4.23545e-05
-0.000329546
-4.47716e-05
-0.000282544
-4.70023e-05
-0.000233528
-4.90164e-05
-0.000182748
-5.07798e-05
-0.000130474
-5.2274e-05
-7.69939e-05
-5.348e-05
-2.26271e-05
-5.43668e-05
3.23795e-05
-5.50066e-05
8.78699e-05
-5.54904e-05
0.000143578
-5.57082e-05
0.000199186
-5.56082e-05
0.000254407
-5.52205e-05
0.000308975
-5.45685e-05
0.00036265
-5.36747e-05
0.000415213
-5.2563e-05
0.000466472
-5.12595e-05
0.000516265
-4.97926e-05
0.00056446
-4.81945e-05
0.000610962
-4.65023e-05
0.000655723
-4.47615e-05
0.000698757
-4.3034e-05
0.000740165
-4.14072e-05
0.000780204
-4.00394e-05
0.000819372
-3.91683e-05
0.000858768
-3.93961e-05
0.000900509
-4.17407e-05
0.000948089
-4.75794e-05
-7.23702e-05
0.00108704
0.000351968
0.00104378
0.000360433
0.00092513
0.000365973
0.000762431
0.000346537
0.000579178
0.000304145
0.000384503
0.000251446
0.00019466
0.000195915
4.02121e-05
0.000135617
-4.18262e-05
8.31075e-05
-7.77515e-05
2.94366e-05
-8.84409e-05
-1.5781e-06
-8.04981e-05
-4.27835e-06
-8.56598e-05
2.01009e-05
-9.46537e-05
1.86484e-05
-0.000101189
1.08114e-05
-0.000112328
1.79524e-05
-0.000124988
2.42865e-05
-0.000137874
2.86313e-05
-0.000150897
3.23331e-05
-0.000164476
3.59865e-05
-0.000178651
3.8666e-05
-0.00019319
3.96186e-05
-0.000207823
3.89605e-05
-0.000222407
3.75287e-05
-0.000236897
3.63699e-05
-0.000251268
3.63144e-05
-0.000265468
3.77427e-05
-0.000279313
4.05065e-05
-0.000292496
4.39265e-05
-0.000304564
4.69571e-05
-0.000314872
4.84812e-05
-0.000322708
4.76156e-05
-0.000327531
4.39791e-05
-0.00032907
3.77746e-05
-0.000327402
2.96572e-05
-0.000322932
2.05009e-05
-0.000316315
1.12011e-05
-0.00030869
2.78447e-06
-0.000300433
-5.48123e-06
-0.000290869
-1.25685e-05
-0.000279542
-1.86981e-05
-0.000266394
-2.44744e-05
-0.000251246
-3.0087e-05
-0.000233983
-3.5612e-05
-0.000214546
-4.10804e-05
-0.000192917
-4.64911e-05
-0.000169112
-5.18228e-05
-0.000143176
-5.70418e-05
-0.000115176
-6.21073e-05
-8.52003e-05
-6.69755e-05
-5.33564e-05
-7.16019e-05
-1.97669e-05
-7.5944e-05
1.54217e-05
-7.99602e-05
5.20289e-05
-8.36095e-05
8.98683e-05
-8.68558e-05
0.000128756
-8.96673e-05
0.000168498
-9.20166e-05
0.000208902
-9.38835e-05
0.000249795
-9.52598e-05
0.000290948
-9.61597e-05
0.000332052
-9.65941e-05
0.000372892
-9.65488e-05
0.000413307
-9.60229e-05
0.000453124
-9.50375e-05
0.000492178
-9.36226e-05
0.000530317
-9.18136e-05
0.000567405
-8.96507e-05
0.000603324
-8.71791e-05
0.000637981
-8.4449e-05
0.000671303
-8.15165e-05
0.000703246
-7.84453e-05
0.000733796
-7.53118e-05
0.000762976
-7.22139e-05
0.000790855
-6.92864e-05
0.000817555
-6.67395e-05
0.000843279
-6.48924e-05
0.000868245
-6.43621e-05
0.000892496
-6.59919e-05
0.000915937
-7.10201e-05
-8.74324e-05
0.000976116
0.000307766
0.00102674
0.000309806
0.00105928
0.00033344
0.0010521
0.000353718
0.000998546
0.000357695
0.000903372
0.00034662
0.000775577
0.00032371
0.000621844
0.00028935
0.000459623
0.000245329
0.000293806
0.000195253
0.000146428
0.0001458
4.38986e-05
9.82507e-05
6.78774e-07
6.33208e-05
-1.60077e-05
3.53349e-05
-2.72123e-05
2.2016e-05
-3.57338e-05
2.64739e-05
-4.45974e-05
3.315e-05
-5.25163e-05
3.65502e-05
-5.85605e-05
3.83773e-05
-6.31556e-05
4.05815e-05
-6.73166e-05
4.2827e-05
-7.16883e-05
4.39903e-05
-7.63816e-05
4.36538e-05
-8.12101e-05
4.23571e-05
-8.57134e-05
4.08732e-05
-8.92552e-05
3.98562e-05
-9.11773e-05
3.96647e-05
-9.09551e-05
4.02843e-05
-8.83414e-05
4.13129e-05
-8.34323e-05
4.2048e-05
-7.66305e-05
4.16794e-05
-6.85459e-05
3.9531e-05
-5.98419e-05
3.5275e-05
-5.10693e-05
2.9002e-05
-4.2567e-05
2.1155e-05
-3.44078e-05
1.23417e-05
-2.63584e-05
3.1516e-06
-1.77757e-05
-5.79823e-06
-8.88087e-06
-1.4376e-05
1.02502e-06
-2.24744e-05
1.24411e-05
-3.01141e-05
2.54362e-05
-3.74695e-05
4.00045e-05
-4.46554e-05
5.61215e-05
-5.1729e-05
7.37473e-05
-5.87061e-05
9.28304e-05
-6.55743e-05
0.00011331
-7.23023e-05
0.000135115
-7.88469e-05
0.000158165
-8.51573e-05
0.000182369
-9.11797e-05
0.000207626
-9.68589e-05
0.000233824
-0.000102142
0.00026084
-0.000106976
0.000288543
-0.000111313
0.000316799
-0.000115111
0.000345464
-0.000118333
0.000374397
-0.000120949
0.000403454
-0.000122941
0.000432495
-0.000124301
0.000461365
-0.00012503
0.000489909
-0.000125137
0.000517994
-0.000124634
0.000545509
-0.000123538
0.000572351
-0.000121879
0.000598427
-0.000119699
0.000623657
-0.000117044
0.000647975
-0.000113969
0.000671329
-0.000110533
0.000693682
-0.000106802
0.000715011
-0.000102846
0.000735308
-9.87422e-05
0.000754576
-9.45802e-05
0.00077283
-9.04675e-05
0.000790088
-8.65442e-05
0.000806352
-8.30038e-05
0.000821596
-8.01367e-05
0.000835595
-7.83605e-05
0.000847971
-7.83678e-05
0.000857547
-8.05962e-05
-8.93753e-05
0.000857365
0.000272959
0.00089758
0.000269591
0.000949717
0.000281302
0.00100248
0.000300954
0.00104088
0.000319292
0.00105503
0.000332476
0.00103971
0.000339024
0.000991825
0.00033724
0.000912166
0.000324987
0.000804959
0.00030246
0.000678238
0.000272521
0.000539672
0.000236816
0.000405441
0.000197552
0.000284765
0.000156012
0.000189155
0.000117626
0.000128836
8.67935e-05
9.9266e-05
6.27196e-05
8.62525e-05
4.95638e-05
7.97259e-05
4.4904e-05
7.61013e-05
4.42061e-05
7.44422e-05
4.44861e-05
7.42293e-05
4.42032e-05
7.48625e-05
4.30206e-05
7.60488e-05
4.11708e-05
7.79151e-05
3.90069e-05
8.09108e-05
3.68606e-05
8.55995e-05
3.4976e-05
9.24478e-05
3.3436e-05
0.000101655
3.21057e-05
0.000113062
3.06406e-05
0.000126165
2.85763e-05
0.000140235
2.54611e-05
0.000154495
2.1015e-05
0.000168322
1.51752e-05
0.00018134
8.13725e-06
0.000193573
1.08191e-07
0.000205052
-8.32677e-06
0.000216322
-1.7069e-05
0.000227742
-2.57953e-05
0.00023964
-3.43724e-05
0.000252277
-4.27515e-05
0.000265761
-5.09535e-05
0.000280112
-5.90063e-05
0.000295304
-6.69211e-05
0.000311288
-7.46897e-05
0.000328
-8.22868e-05
0.000345371
-8.96731e-05
0.000363324
-9.67998e-05
0.000381778
-0.000103612
0.000400649
-0.000110051
0.000419848
-0.000116058
0.000439283
-0.000121576
0.000458857
-0.00012655
0.000478475
-0.000130932
0.000498041
-0.000134677
0.000517458
-0.00013775
0.000536636
-0.000140127
0.000555485
-0.00014179
0.00057392
-0.000142736
0.000591862
-0.000142971
0.000609235
-0.000142511
0.000625981
-0.00014138
0.000642053
-0.00013961
0.000657415
-0.000137242
0.000672044
-0.000134327
0.000685925
-0.000130925
0.000699055
-0.000127099
0.000711439
-0.000122917
0.000723088
-0.000118452
0.000734022
-0.00011378
0.000744262
-0.000108982
0.000753828
-0.000104146
0.000762733
-9.93723e-05
0.000770971
-9.47822e-05
0.000778494
-9.05271e-05
0.000785183
-8.68252e-05
0.000790742
-8.39194e-05
0.000794686
-8.23121e-05
0.000796066
-8.19767e-05
-8.50345e-05
0.000759119
0.000239874
0.000789421
0.000239289
0.000826141
0.000244582
0.000871805
0.000255289
0.000922962
0.000268135
0.00097366
0.000281777
0.0010171
0.000295584
0.00104659
0.000307753
0.00105602
0.000315551
0.00104148
0.000317004
0.00100219
0.00031181
0.000938798
0.00030021
0.000854669
0.00028168
0.000754528
0.000256153
0.000646208
0.000225945
0.00053937
0.000193632
0.000447335
0.000154755
0.000376546
0.000120352
0.000327687
9.37632e-05
0.000297351
7.4542e-05
0.000280384
6.1453e-05
0.000271854
5.27332e-05
0.000268257
4.66175e-05
0.000267638
4.17898e-05
0.000269137
3.75084e-05
0.000272512
3.34854e-05
0.000277812
2.96763e-05
0.00028516
2.6088e-05
0.000294607
2.26587e-05
0.000306028
1.9219e-05
0.000319085
1.55196e-05
0.000333269
1.12767e-05
0.000347956
6.32815e-06
0.000362666
4.6583e-07
0.000377
-6.19695e-06
0.000390747
-1.36392e-05
0.000404024
-2.16033e-05
0.00041688
-2.99256e-05
0.000429503
-3.84178e-05
0.000442075
-4.69442e-05
0.000454745
-5.54215e-05
0.000467597
-6.38058e-05
0.000480659
-7.20686e-05
0.00049392
-8.01817e-05
0.000507342
-8.81116e-05
0.000520872
-9.5817e-05
0.000534449
-0.00010325
0.000548004
-0.000110355
0.000561469
-0.000117076
0.000574771
-0.000123353
0.00058784
-0.000129127
0.000600605
-0.000134341
0.000612999
-0.000138944
0.000624958
-0.000142891
0.000636424
-0.000146142
0.000647342
-0.000148668
0.000657667
-0.000150452
0.000667362
-0.000151485
0.000676397
-0.000151771
0.000684751
-0.000151325
0.000692413
-0.000150173
0.000699384
-0.00014835
0.000705674
-0.0001459
0.000711306
-0.000142873
0.00071631
-0.000139331
0.000720723
-0.000135338
0.000724587
-0.000130963
0.000727949
-0.000126279
0.000730856
-0.000121358
0.000733353
-0.000116277
0.000735482
-0.000111111
0.000737276
-0.00010594
0.00073875
-0.000100846
0.000739892
-9.59242e-05
0.000740641
-9.12767e-05
0.000740863
-8.70467e-05
0.000740278
-8.33349e-05
0.000738429
-8.04629e-05
0.00073468
-7.8227e-05
-7.70368e-05
0.00067195
0.000208761
0.000700415
0.000210824
0.000729683
0.000215314
0.000762576
0.000222396
0.000800403
0.000230309
0.000843496
0.000238684
0.000890831
0.000248249
0.000939602
0.000258982
0.000985376
0.000269776
0.00102315
0.000279231
0.00104868
0.000286278
0.00105883
0.000290059
0.00105114
0.000289375
0.00102417
0.000283117
0.000978783
0.000271336
0.000917661
0.000254753
0.000848062
0.000224354
0.00077676
0.000191654
0.000709238
0.000161285
0.000649732
0.000134048
0.000600848
0.000110337
0.000563369
9.02124e-05
0.000536501
7.34849e-05
0.00051851
5.97813e-05
0.000507415
4.8603e-05
0.000501499
3.94021e-05
0.000499513
3.16618e-05
0.000500661
2.49405e-05
0.000504444
1.88757e-05
0.000510495
1.31673e-05
0.000518454
7.56132e-06
0.000527968
1.76184e-06
0.000538496
-4.19979e-06
0.000549645
-1.06828e-05
0.000561097
-1.76491e-05
0.000572537
-2.50792e-05
0.000583817
-3.28837e-05
0.000594848
-4.0956e-05
0.000605616
-4.91857e-05
0.000616145
-5.74732e-05
0.000626463
-6.57404e-05
0.000636586
-7.39284e-05
0.000646506
-8.19883e-05
0.000656197
-8.98734e-05
0.000665622
-9.7536e-05
0.00067473
-0.000104925
0.000683466
-0.000111986
0.000691772
-0.000118661
0.000699589
-0.000124894
0.000706862
-0.000130626
0.000713536
-0.000135801
0.000719565
-0.00014037
0.000724907
-0.000144286
0.000729528
-0.000147512
0.000733405
-0.000150018
0.000736523
-0.000151786
0.000738877
-0.000152807
0.000740476
-0.000153084
0.000741336
-0.000152631
0.000741484
-0.000151474
0.00074096
-0.000149649
0.000739808
-0.000147199
0.000738086
-0.000144178
0.000735856
-0.000140643
0.000733183
-0.000136658
0.000730137
-0.000132292
0.000726787
-0.000127613
0.000723201
-0.000122693
0.000719443
-0.0001176
0.000715568
-0.000112403
0.000711626
-0.000107169
0.000707652
-0.000101965
0.00070366
-9.68545e-05
0.000699639
-9.19031e-05
0.00069553
-8.71675e-05
0.000691208
-8.2725e-05
0.000686439
-7.85653e-05
0.000680814
-7.48385e-05
0.000673924
-7.13372e-05
-6.69835e-05
0.000593749
0.000180649
0.000620761
0.000183812
0.000647703
0.000188372
0.000675567
0.000194532
0.000704921
0.000200954
0.000736652
0.000206953
0.000771921
0.00021298
0.000811363
0.00021954
0.000854489
0.00022665
0.000899649
0.00023407
0.000944412
0.000241515
0.000985955
0.000248517
0.00102113
0.000254201
0.0010468
0.000257443
0.00106061
0.000257534
0.00106118
0.000254179
0.00104876
0.000236779
0.00102547
0.000214939
0.000994056
0.0001927
0.000957462
0.000170642
0.000918586
0.000149213
0.000880043
0.000128755
0.000843984
0.000109544
0.000811968
9.17971e-05
0.000784918
7.56537e-05
0.000763161
6.11585e-05
0.000746562
4.82615e-05
0.000734675
3.6827e-05
0.000726904
2.66467e-05
0.000722611
1.74604e-05
0.000721191
8.98125e-06
0.00072204
9.12971e-07
0.000724705
-6.8653e-06
0.000728701
-1.46787e-05
0.000733596
-2.25433e-05
0.000739064
-3.05477e-05
0.000744857
-3.8677e-05
0.00075078
-4.68788e-05
0.000756687
-5.50924e-05
0.000762472
-6.32579e-05
0.000768053
-7.13218e-05
0.000773362
-7.92375e-05
0.000778335
-8.69608e-05
0.000782908
-9.44465e-05
0.000787019
-0.000101647
0.000790605
-0.000108511
0.000793606
-0.000114986
0.000795964
-0.00012102
0.000797628
-0.000126558
0.000798554
-0.000131551
0.000798705
-0.000135952
0.000798055
-0.00013972
0.000796589
-0.00014282
0.000794303
-0.000145226
0.000791207
-0.000146922
0.000787321
-0.000147901
0.00078268
-0.000148166
0.000777328
-0.000147732
0.000771322
-0.000146624
0.000764725
-0.000144877
0.000757611
-0.000142534
0.000750057
-0.000139646
0.000742147
-0.000136267
0.000733962
-0.000132458
0.000725587
-0.000128283
0.000717101
-0.000123806
0.00070858
-0.000119092
0.000700093
-0.000114205
0.000691701
-0.000109207
0.000683456
-0.000104158
0.000675399
-9.9113e-05
0.000667559
-9.41247e-05
0.000659943
-8.92392e-05
0.000652538
-8.44978e-05
0.00064529
-7.99196e-05
0.000638092
-7.55269e-05
0.000630757
-7.12304e-05
0.000622926
-6.70075e-05
0.000614347
-6.27585e-05
-5.60458e-05
0.000524266
0.000155644
0.000548874
0.000159204
0.000573646
0.0001636
0.000599085
0.000169093
0.000625142
0.000174897
0.000651799
0.000180296
0.000679526
0.000185253
0.000709094
0.000189972
0.000741223
0.000194521
0.000776339
0.000198955
0.000814424
0.000203429
0.000854895
0.000208046
0.0008965
0.000212596
0.000937389
0.000216554
0.000975477
0.000219445
0.00100878
0.00022088
0.00103446
0.000211091
0.00105185
0.000197554
0.00106123
0.000183321
0.00106329
0.000168577
0.00105899
0.000153517
0.00104942
0.000138321
0.00103579
0.000123175
0.00101932
0.00010827
0.00100119
9.37835e-05
0.000982487
7.98599e-05
0.000964154
6.6594e-05
0.000946953
5.40283e-05
0.000931447
4.21532e-05
0.000917991
3.09158e-05
0.00090675
2.0222e-05
0.000897696
9.96768e-06
0.000890679
1.51008e-07
0.000885647
-9.6462e-06
0.000882173
-1.90691e-05
0.000879869
-2.82439e-05
0.000878375
-3.71828e-05
0.000877396
-4.59003e-05
0.000876702
-5.43983e-05
0.00087611
-6.26657e-05
0.00087547
-7.06824e-05
0.000874656
-7.84227e-05
0.000873551
-8.58563e-05
0.000872053
-9.29488e-05
0.00087007
-9.9663e-05
0.000867518
-0.000105959
0.000864328
-0.000111797
0.000860443
-0.000117134
0.000855818
-0.000121934
0.000850424
-0.000126157
0.000844244
-0.000129773
0.000837278
-0.000132754
0.000829538
-0.00013508
0.000821052
-0.00013674
0.000811862
-0.000137732
0.00080202
-0.000138059
0.000791594
-0.000137739
0.000780658
-0.000136796
0.000769294
-0.000135261
0.000757591
-0.000133174
0.000745637
-0.00013058
0.000733522
-0.000127531
0.000721335
-0.00012408
0.000709158
-0.000120282
0.00069707
-0.000116195
0.000685139
-0.000111876
0.000673428
-0.000107382
0.000661991
-0.000102768
0.000650871
-9.80874e-05
0.000640103
-9.33897e-05
0.00062971
-8.87206e-05
0.000619706
-8.41209e-05
0.00061009
-7.96225e-05
0.00060084
-7.52482e-05
0.000591911
-7.09904e-05
0.000583211
-6.68275e-05
0.000574604
-6.26231e-05
0.000565772
-5.81756e-05
0.000556587
-5.35736e-05
-4.50978e-05
0.000462815
0.000133504
0.000484785
0.000137235
0.000507019
0.000141365
0.000529971
0.000146142
0.000553624
0.000151244
0.000577752
0.000156169
0.000602274
0.000160731
0.000627311
0.000164935
0.00065312
0.000168713
0.000680087
0.000171987
0.000708691
0.000174826
0.000739356
0.00017738
0.000772256
0.000179696
0.000807155
0.000181654
0.000843453
0.000183147
0.000880262
0.000184072
0.000914952
0.000176401
0.000946248
0.000166258
0.000973593
0.000155976
0.00099667
0.000145501
0.00101537
0.000134819
0.00102975
0.000123943
0.00104
0.00011292
0.00104644
0.000101833
0.00104944
9.07805e-05
0.00104945
7.98546e-05
0.00104691
6.91247e-05
0.00104231
5.8628e-05
0.0010361
4.83678e-05
0.0010287
3.8318e-05
0.00102049
2.84342e-05
0.00101178
1.86739e-05
0.00100288
9.05074e-06
0.00099383
-5.96595e-07
0.000985027
-1.02659e-05
0.000976606
-1.98227e-05
0.000968643
-2.92193e-05
0.000961113
-3.83712e-05
0.000953925
-4.72097e-05
0.000946942
-5.56827e-05
0.000940013
-6.37533e-05
0.000932986
-7.13963e-05
0.000925724
-7.85942e-05
0.000918107
-8.53314e-05
0.000910035
-9.15916e-05
0.000901433
-9.73563e-05
0.000892241
-0.000102605
0.000882422
-0.000107316
0.000871955
-0.000111467
0.000860836
-0.000115038
0.000849079
-0.000118015
0.000836712
-0.000120386
0.000823777
-0.000122146
0.000810333
-0.000123296
0.000796447
-0.000123845
0.000782196
-0.000123809
0.000767666
-0.000123209
0.000752944
-0.000122074
0.00073812
-0.000120436
0.000723281
-0.000118335
0.000708511
-0.00011581
0.000693886
-0.000112906
0.000679477
-0.000109671
0.000665345
-0.00010615
0.000651543
-0.000102393
0.000638115
-9.84477e-05
0.000625096
-9.43627e-05
0.000612513
-9.01849e-05
0.000600385
-8.59593e-05
0.000588724
-8.17284e-05
0.000577534
-7.75305e-05
0.000566812
-7.33988e-05
0.000556545
-6.93562e-05
0.000546711
-6.54136e-05
0.000537268
-6.15477e-05
0.000528144
-5.77034e-05
0.000519247
-5.37267e-05
0.000510306
-4.92344e-05
0.000501293
-4.45608e-05
-3.47748e-05
0.000408523
0.000113945
0.000428
0.000117757
0.000447758
0.000121608
0.000468165
0.000125735
0.000489278
0.000130131
0.000510981
0.000134466
0.000533174
0.000138538
0.000555775
0.000142335
0.000578699
0.000145789
0.000601923
0.000148763
0.000625553
0.000151195
0.000649826
0.000153108
0.000675023
0.000154499
0.000701374
0.000155304
0.000729015
0.000155506
0.000757943
0.000155143
0.000786673
0.000147671
0.000814492
0.000138439
0.000841032
0.000129435
0.00086595
0.000120584
0.00088895
0.000111819
0.000909805
0.000103088
0.000928361
9.43642e-05
0.000944541
8.56526e-05
0.000958342
7.69802e-05
0.000969818
6.83788e-05
0.00097907
5.98721e-05
0.00098623
5.14677e-05
0.000991445
4.31536e-05
0.000994862
3.49009e-05
0.000996624
2.6672e-05
0.000996866
1.8432e-05
0.00099574
1.01768e-05
0.000993227
1.91654e-06
0.000989326
-6.36499e-06
0.00098409
-1.4587e-05
0.000977622
-2.27509e-05
0.000970049
-3.0799e-05
0.000961506
-3.86667e-05
0.000952117
-4.6293e-05
0.000941986
-5.36225e-05
0.000931196
-6.06064e-05
0.000919805
-6.72029e-05
0.000907849
-7.33759e-05
0.000895352
-7.90947e-05
0.000882329
-8.4333e-05
0.000868793
-8.90687e-05
0.000854761
-9.3284e-05
0.00084026
-9.69655e-05
0.000825326
-0.000100104
0.000810005
-0.000102694
0.000794356
-0.000104737
0.000778445
-0.000106235
0.000762348
-0.000107199
0.000746143
-0.00010764
0.000729909
-0.000107576
0.000713728
-0.000107027
0.000697673
-0.000106019
0.000681816
-0.000104579
0.000666219
-0.000102738
0.000650937
-0.000100528
0.000636017
-9.79864e-05
0.000621497
-9.51504e-05
0.000607407
-9.20597e-05
0.000593769
-8.87551e-05
0.0005806
-8.52782e-05
0.000567908
-8.16712e-05
0.000555698
-7.79753e-05
0.00054397
-7.42309e-05
0.000532718
-7.0476e-05
0.000521932
-6.67447e-05
0.000511599
-6.30662e-05
0.000501702
-5.94589e-05
0.000492216
-5.59273e-05
0.00048311
-5.24419e-05
0.00047433
-4.89235e-05
0.000465826
-4.5223e-05
0.000457382
-4.07902e-05
0.000449041
-3.62199e-05
-2.55209e-05
0.000360568
9.6697e-05
0.000377773
0.000100552
0.000395278
0.000104103
0.00041335
0.000107662
0.000432031
0.000111451
0.00045128
0.000115217
0.000471071
0.000118747
0.000491358
0.000122047
0.000512049
0.000125098
0.000533019
0.000127792
0.000554172
0.000130043
0.000575464
0.000131816
0.000596907
0.000133056
0.000618546
0.000133665
0.000640469
0.000133584
0.000662788
0.000132824
0.000684607
0.000125852
0.000705688
0.000117359
0.000726012
0.000109111
0.00074551
0.000101086
0.000764074
9.32545e-05
0.000781582
8.55805e-05
0.00079791
7.8036e-05
0.000812953
7.06099e-05
0.00082663
6.33032e-05
0.000838889
5.61199e-05
0.000849703
4.90578e-05
0.000859067
4.2104e-05
0.000866987
3.52336e-05
0.000873476
2.84117e-05
0.000878548
2.15997e-05
0.000882216
1.47648e-05
0.0008845
7.89275e-06
0.000885437
9.79361e-07
0.000885012
-5.94027e-06
0.000883276
-1.28512e-05
0.000880233
-1.97078e-05
0.000875902
-2.64682e-05
0.000870316
-3.30807e-05
0.000863519
-3.94952e-05
0.000855563
-4.56668e-05
0.000846514
-5.1557e-05
0.000836443
-5.71326e-05
0.000825433
-6.23651e-05
0.000813568
-6.72298e-05
0.00080094
-7.17054e-05
0.000787645
-7.57734e-05
0.000773779
-7.94183e-05
0.000759441
-8.26273e-05
0.000744728
-8.53906e-05
0.000729734
-8.77014e-05
0.000714554
-8.95562e-05
0.000699273
-9.09544e-05
0.000683973
-9.1899e-05
0.000668729
-9.23962e-05
0.000653609
-9.24556e-05
0.000638672
-9.20903e-05
0.000623969
-9.13168e-05
0.000609546
-9.01555e-05
0.000595438
-8.86298e-05
0.000581677
-8.67668e-05
0.000568287
-8.45964e-05
0.000555288
-8.21513e-05
0.000542694
-7.94661e-05
0.000530516
-7.65774e-05
0.00051876
-7.35223e-05
0.000507428
-7.03388e-05
0.000496517
-6.70644e-05
0.000486022
-6.37354e-05
0.000475932
-6.03864e-05
0.000466236
-5.70488e-05
0.000456919
-5.37488e-05
0.000447963
-5.0503e-05
0.000439349
-4.7313e-05
0.000431055
-4.41487e-05
0.00042305
-4.09178e-05
0.00041531
-3.74832e-05
0.000407699
-3.31789e-05
0.000400249
-2.87702e-05
-1.76522e-05
0.000318218
8.15116e-05
0.000333375
8.5395e-05
0.000348861
8.86177e-05
0.000364854
9.16693e-05
0.000381358
9.4946e-05
0.000398362
9.82132e-05
0.000415861
0.000101248
0.000433839
0.000104068
0.000452252
0.000106685
0.000471027
0.000109018
0.000490073
0.000110997
0.000509295
0.000112593
0.000528598
0.000113753
0.000547882
0.000114381
0.000567071
0.000114394
0.00058613
0.000113765
0.000604247
0.000107735
0.000621274
0.000100332
0.0006373
9.3085e-05
0.000652385
8.6001e-05
0.000666561
7.90786e-05
0.000679833
7.23077e-05
0.00069219
6.56795e-05
0.000703607
5.91926e-05
0.00071406
5.28505e-05
0.000723525
4.66551e-05
0.000731982
4.06008e-05
0.000739414
3.46718e-05
0.000745805
2.88425e-05
0.000751137
2.30796e-05
0.000755388
1.73482e-05
0.000758535
1.16186e-05
0.00076055
5.87736e-06
0.000761453
7.60519e-08
0.000761225
-5.71238e-06
0.000759908
-1.1534e-05
0.000757508
-1.73072e-05
0.000754045
-2.30053e-05
0.000749553
-2.85888e-05
0.000744075
-3.4017e-05
0.000737661
-3.92536e-05
0.000730371
-4.42666e-05
0.000722267
-4.90284e-05
0.000713416
-5.35141e-05
0.000703888
-5.77021e-05
0.000693755
-6.15728e-05
0.000683091
-6.51086e-05
0.000671966
-6.82938e-05
0.000660454
-7.11149e-05
0.000648623
-7.35601e-05
0.000636542
-7.56202e-05
0.000624274
-7.72882e-05
0.00061188
-7.856e-05
0.000599415
-7.94345e-05
0.000586933
-7.9914e-05
0.000574482
-8.00042e-05
0.000562106
-7.97147e-05
0.000549848
-7.90589e-05
0.000537747
-7.80539e-05
0.000525837
-7.67206e-05
0.000514153
-7.50825e-05
0.000502723
-7.31663e-05
0.000491572
-7.10003e-05
0.00048072
-6.86147e-05
0.000470184
-6.60409e-05
0.000459973
-6.3311e-05
0.000450091
-6.04576e-05
0.000440541
-5.75137e-05
0.000431317
-5.45119e-05
0.000422414
-5.14835e-05
0.000413823
-4.84579e-05
0.000405534
-4.546e-05
0.000397537
-4.25059e-05
0.000389822
-3.95973e-05
0.000382379
-3.67058e-05
0.0003752
-3.3739e-05
0.000368277
-3.05605e-05
0.000361586
-2.64876e-05
0.000355009
-2.21934e-05
-1.13578e-05
0.00028082
6.81646e-05
0.00029415
7.20652e-05
0.000307837
7.49307e-05
0.000321978
7.75284e-05
0.000336556
8.03682e-05
0.000351574
8.3195e-05
0.000367028
8.57932e-05
0.000382901
8.81957e-05
0.000399165
9.04212e-05
0.00041578
9.24025e-05
0.000432695
9.40825e-05
0.000449847
9.54412e-05
0.000467157
9.64425e-05
0.000484526
9.70125e-05
0.000501839
9.70809e-05
0.000518994
9.66103e-05
0.000535185
9.15437e-05
0.000550229
8.52874e-05
0.000564179
7.91347e-05
0.000577089
7.30912e-05
0.000589007
6.71612e-05
0.000599971
6.13432e-05
0.000610013
5.56372e-05
0.000619158
5.00483e-05
0.000627424
4.45844e-05
0.000634828
3.92504e-05
0.000641386
3.40436e-05
0.000647106
2.89518e-05
0.000651994
2.39537e-05
0.000656052
1.90216e-05
0.000659274
1.41262e-05
0.000661652
9.24058e-06
0.000663183
4.34711e-06
0.000663842
-5.83294e-07
0.000663647
-5.51698e-06
0.000662583
-1.04704e-05
0.000660666
-1.53897e-05
0.000657907
-2.02465e-05
0.000654328
-2.50102e-05
0.000649959
-2.96479e-05
0.000644835
-3.41289e-05
0.000638994
-3.8426e-05
0.000632481
-4.25151e-05
0.000625341
-4.63743e-05
0.000617622
-4.99838e-05
0.000609375
-5.33253e-05
0.000600649
-5.63821e-05
0.000591494
-5.91389e-05
0.000581961
-6.15819e-05
0.0005721
-6.36993e-05
0.000561961
-6.54814e-05
0.000551594
-6.69208e-05
0.000541047
-6.80132e-05
0.00053037
-6.87574e-05
0.000519611
-6.91554e-05
0.00050882
-6.92128e-05
0.000498043
-6.89381e-05
0.000487328
-6.83433e-05
0.000476716
-6.74427e-05
0.000466249
-6.6253e-05
0.000455959
-6.47926e-05
0.000445875
-6.3082e-05
0.000436017
-6.11429e-05
0.000426401
-5.89986e-05
0.000417035
-5.66744e-05
0.000407921
-5.41974e-05
0.00039906
-5.15967e-05
0.00039045
-4.89032e-05
0.000382086
-4.61487e-05
0.000373968
-4.33652e-05
0.000366093
-4.05832e-05
0.000358463
-3.78295e-05
0.000351079
-3.51222e-05
0.000343948
-3.24663e-05
0.000337078
-2.98355e-05
0.000330492
-2.71526e-05
0.000324195
-2.42636e-05
0.000318294
-2.05869e-05
0.000312506
-1.64054e-05
-6.50643e-06
0.000247796
5.64545e-05
0.000259508
6.03532e-05
0.000271601
6.28384e-05
0.000284093
6.50363e-05
0.000296962
6.74991e-05
0.000310226
6.99309e-05
0.000323877
7.2142e-05
0.000337892
7.41812e-05
0.000352245
7.60676e-05
0.000366907
7.7741e-05
0.000381838
7.91515e-05
0.000396996
8.02831e-05
0.000412328
8.111e-05
0.000427765
8.15763e-05
0.000443218
8.16273e-05
0.000458597
8.12317e-05
0.000473163
7.69776e-05
0.000486726
7.17247e-05
0.000499305
6.65556e-05
0.000510924
6.14716e-05
0.000521611
5.64747e-05
0.000531391
5.15632e-05
0.000540291
4.67376e-05
0.000548336
4.20028e-05
0.000555554
3.73665e-05
0.000561971
3.28339e-05
0.00056761
2.84036e-05
0.000572496
2.40664e-05
0.000576644
1.98052e-05
0.000580069
1.55975e-05
0.000582775
1.14193e-05
0.000584768
7.24791e-06
0.000586048
3.06701e-06
0.000586602
-1.13747e-06
0.000586434
-5.34843e-06
0.000585531
-9.56748e-06
0.000583903
-1.37613e-05
0.000581558
-1.79023e-05
0.000578513
-2.19648e-05
0.000574787
-2.59217e-05
0.000570404
-2.97467e-05
0.000565394
-3.34161e-05
0.000559788
-3.6909e-05
0.00055362
-4.02059e-05
0.000546925
-4.32892e-05
0.000539743
-4.61427e-05
0.000532112
-4.87515e-05
0.000524075
-5.11021e-05
0.000515676
-5.31827e-05
0.00050696
-5.49834e-05
0.000497975
-5.64965e-05
0.000488771
-5.77165e-05
0.000479398
-5.86402e-05
0.000469908
-5.9267e-05
0.00046035
-5.95981e-05
0.000450774
-5.96367e-05
0.000441224
-5.93874e-05
0.000431737
-5.88565e-05
0.000422345
-5.80512e-05
0.000413073
-5.69807e-05
0.000403936
-5.5656e-05
0.000394945
-5.40906e-05
0.000386103
-5.23013e-05
0.000377413
-5.03084e-05
0.000368875
-4.81364e-05
0.000360492
-4.58138e-05
0.000352267
-4.33723e-05
0.000344211
-4.08465e-05
0.000336334
-3.8272e-05
0.000328653
-3.56841e-05
0.000321185
-3.31155e-05
0.00031395
-3.05946e-05
0.000306968
-2.81397e-05
0.00030026
-2.57583e-05
0.000293846
-2.34221e-05
0.00028777
-2.10768e-05
0.000282038
-1.85315e-05
0.000276846
-1.53941e-05
0.000271802
-1.13614e-05
-2.66334e-06
0.000218637
4.62004e-05
0.000228925
5.00646e-05
0.000239607
5.21563e-05
0.000250634
5.401e-05
0.000261989
5.61439e-05
0.0002737
5.82195e-05
0.000285755
6.00869e-05
0.000298129
6.18071e-05
0.000310801
6.3396e-05
0.000323742
6.47999e-05
0.000336918
6.59759e-05
0.00035029
6.69108e-05
0.000363815
6.75844e-05
0.000377439
6.79525e-05
0.000391096
6.79707e-05
0.000404713
6.76141e-05
0.000417645
6.40458e-05
0.000429723
5.96474e-05
0.000440958
5.53197e-05
0.000451367
5.10633e-05
0.000460962
4.68794e-05
0.000469759
4.27659e-05
0.000477775
3.87223e-05
0.000485025
3.47523e-05
0.00049153
3.08616e-05
0.00049731
2.7054e-05
0.000502385
2.33283e-05
0.000506775
1.96765e-05
0.000510496
1.60845e-05
0.00051356
1.25337e-05
0.000515975
9.00441e-06
0.000517745
5.47712e-06
0.000518874
1.93808e-06
0.000519355
-1.61842e-06
0.000519189
-5.18246e-06
0.000518372
-8.74996e-06
0.000516909
-1.22983e-05
0.000514809
-1.58027e-05
0.000512086
-1.92415e-05
0.000508756
-2.25918e-05
0.000504841
-2.58314e-05
0.000500364
-2.89398e-05
0.000495354
-3.1899e-05
0.000489841
-3.46925e-05
0.000483857
-3.73054e-05
0.000477439
-3.97245e-05
0.000470625
-4.19375e-05
0.000463457
-4.3934e-05
0.000455979
-4.57047e-05
0.000448237
-4.72416e-05
0.000440278
-4.85378e-05
0.000432149
-4.95872e-05
0.000423893
-5.03846e-05
0.000415551
-5.09249e-05
0.000407157
-5.12035e-05
0.000398737
-5.12167e-05
0.000390311
-5.09616e-05
0.000381891
-5.04371e-05
0.000373485
-4.96451e-05
0.000365096
-4.85913e-05
0.000356726
-4.72859e-05
0.00034838
-4.57446e-05
0.000340067
-4.39886e-05
0.000331803
-4.20446e-05
0.000323611
-3.99439e-05
0.000315519
-3.77215e-05
0.000307561
-3.54145e-05
0.000299775
-3.30607e-05
0.000292199
-3.06966e-05
0.000284872
-2.83563e-05
0.000277825
-2.60692e-05
0.00027109
-2.3859e-05
0.000264689
-2.17386e-05
0.000258643
-1.97129e-05
0.000252968
-1.77465e-05
0.000247698
-1.58074e-05
0.000242832
-1.36652e-05
0.00023856
-1.11223e-05
0.000234547
-7.34813e-06
2.53658e-07
0.00019289