/*--------------------------------*- C++ -*----------------------------------*\
| =========                 |                                                 |
| \\      /  F ield         | OpenFOAM: The Open Source CFD Toolbox           |
|  \\    /   O peration     | Version:  v1912                                 |
|   \\  /    A nd           | Website:  www.openfoam.com                      |
|    \\/     M anipulation  |                                                 |
\*---------------------------------------------------------------------------*/
FoamFile
{
    version     2.0;
    format      ascii;
    class       volVectorField;
    location    "75";
    object      U;
}
// * * * * * * * * * * * * * * * * * * * * * * * * * * * * * * * * * * * * * //

dimensions      [0 1 -1 0 0 0 0];


internalField   nonuniform List<vector> 
2000
(
(0.843127 0.195888 0)
(0.511712 0.132638 0)
(0.222227 0.0718506 0)
(0.0611879 0.0151657 7.19543e-20)
(-0.00457181 -0.0308708 1.63538e-17)
(-0.0575432 -0.0461753 1.48129e-17)
(-0.0676768 -0.0357511 0)
(-0.063606 -0.00375984 0)
(-0.0536907 0.0279423 0)
(-0.0521033 0.0238077 3.25712e-17)
(-0.0449508 0.0120331 -2.01995e-17)
(-0.0395174 0.00769919 -1.8848e-17)
(-0.0444633 0.00609243 0)
(-0.0485735 0.00553226 0)
(-0.0493126 0.00570648 -1.46236e-17)
(-0.0496186 0.00734075 0)
(-0.0518635 0.00894537 1.29733e-17)
(-0.0558611 0.0103845 -7.1704e-21)
(-0.0612487 0.0117139 1.23155e-17)
(-0.0678116 0.012831 -6.0003e-18)
(-0.0752257 0.0134923 1.17257e-17)
(-0.0829544 0.0135501 0)
(-0.0904431 0.0130878 0)
(-0.0973607 0.0124223 -2.61728e-21)
(-0.103715 0.0119726 0)
(-0.109826 0.0120786 -5.37905e-18)
(-0.116216 0.0128572 0)
(-0.123456 0.0141671 5.25776e-18)
(-0.132 0.0156802 0)
(-0.14204 0.016972 0)
(-0.153446 0.0176362 0)
(-0.165784 0.017384 1.25063e-18)
(-0.17839 0.0160765 0)
(-0.190505 0.0137337 -6.11169e-19)
(-0.201437 0.0105285 2.0257e-14)
(-0.210657 0.00673415 2.00567e-14)
(-0.217841 0.00265421 6.17508e-19)
(-0.222818 -0.00144063 -6.19227e-19)
(-0.225525 -0.0053267 0)
(-0.226106 -0.00877518 2.60854e-18)
(-0.225285 -0.0116772 0)
(-0.22335 -0.0141758 -2.79713e-18)
(-0.22031 -0.0164389 0)
(-0.216228 -0.0185458 -6.05852e-18)
(-0.211113 -0.020527 3.18681e-18)
(-0.204955 -0.0223886 0)
(-0.197732 -0.0241232 0)
(-0.189415 -0.0257158 -3.74355e-18)
(-0.179976 -0.0271474 0)
(-0.169389 -0.0283963 4.19852e-18)
(-0.157634 -0.0294389 0)
(-0.144693 -0.03025 9.65195e-18)
(-0.130553 -0.0308039 -1.03473e-17)
(-0.115202 -0.0310797 1.11173e-17)
(-0.0986308 -0.0310635 -5.93698e-18)
(-0.0808385 -0.0307411 0)
(-0.0618296 -0.0300958 6.92005e-18)
(-0.0416267 -0.0291082 -7.49299e-18)
(-0.0202871 -0.027746 -1.64193e-17)
(0.00213424 -0.0259521 1.72981e-17)
(0.0257455 -0.023663 -1.77313e-17)
(0.0505115 -0.0208781 1.78606e-17)
(0.0764146 -0.0176194 -1.79374e-17)
(0.10346 -0.0138953 1.82246e-17)
(0.131642 -0.00970578 -2.92042e-19)
(0.160957 -0.0050476 1.78151e-17)
(0.191416 8.38631e-05 0)
(0.223044 0.00569424 0)
(0.255887 0.0117901 4.18637e-19)
(0.29001 0.0183795 0)
(0.325507 0.0254712 1.66006e-17)
(0.362511 0.0330754 0)
(0.401195 0.0411997 1.52586e-17)
(0.441844 0.0498517 -6.50289e-19)
(0.484703 0.0589997 1.32793e-17)
(0.530795 0.0686429 2.31577e-17)
(0.579298 0.0784298 8.19417e-19)
(0.638082 0.0883804 -8.34248e-18)
(0.686556 0.0966289 -5.60887e-18)
(0.805249 0.098966 0)
(1.01525 0.211442 0)
(0.942828 0.196022 0)
(0.799552 0.18094 -4.5041e-18)
(0.646081 0.151727 9.50862e-18)
(0.49715 0.108892 0)
(0.345557 0.0651347 -1.04698e-17)
(0.198345 0.0241312 0)
(0.058656 -0.00880296 0)
(-0.0236288 -0.0121204 0)
(-0.0310308 -0.0227892 -2.41404e-17)
(-0.0486297 -0.0182958 2.23723e-17)
(-0.0476575 0.00598619 2.08312e-17)
(-0.0441164 0.0213971 0)
(-0.0459596 0.0176055 8.6861e-18)
(-0.0481787 0.0108186 0)
(-0.0511046 0.0107148 0)
(-0.0550543 0.0131078 0)
(-0.0591667 0.0156314 6.84707e-18)
(-0.0632814 0.0179316 -1.33083e-17)
(-0.0675426 0.0198967 -6.46811e-18)
(-0.0720189 0.0212235 0)
(-0.0766139 0.0216705 0)
(-0.0812073 0.0213182 0)
(-0.0857458 0.0205672 -8.80643e-18)
(-0.0902409 0.0199575 0)
(-0.0947194 0.0199731 5.66972e-18)
(-0.0991903 0.0208836 2.79603e-18)
(-0.10363 0.0226522 0)
(-0.107971 0.0249293 0)
(-0.112087 0.0271343 0)
(-0.11578 0.028623 0)
(-0.118783 0.0288759 -6.60527e-19)
(-0.12084 0.0276198 0)
(-0.121784 0.0248632 3.25266e-19)
(-0.121582 0.0208533 1.61085e-19)
(-0.120339 0.0159785 0)
(-0.118308 0.0106766 0)
(-0.115804 0.00535999 6.53121e-19)
(-0.112983 0.000330987 0)
(-0.110146 -0.00427129 -1.35134e-18)
(-0.106868 -0.00836523 0)
(-0.102856 -0.0120545 -1.41605e-18)
(-0.0981387 -0.0155048 0)
(-0.0926506 -0.0188158 1.5444e-18)
(-0.0863254 -0.0220362 1.58221e-18)
(-0.0791122 -0.0251794 0)
(-0.070971 -0.0282368 0)
(-0.061869 -0.0311867 -3.63902e-18)
(-0.051779 -0.0339991 0)
(-0.0406786 -0.0366401 -4.03707e-20)
(-0.0285492 -0.0390733 0)
(-0.0153759 -0.041262 0)
(-0.0011499 -0.0431668 0)
(0.0141292 -0.044747 0)
(0.0304558 -0.0459667 1.02941e-17)
(0.0478254 -0.0467929 0)
(0.0662351 -0.0471931 -1.0868e-17)
(0.0856815 -0.047138 5.61243e-18)
(0.106165 -0.0466026 -5.65709e-18)
(0.127679 -0.0455654 -1.17493e-17)
(0.150195 -0.0440036 1.19849e-17)
(0.173672 -0.0418919 -1.21989e-17)
(0.198102 -0.0392165 1.23874e-17)
(0.223501 -0.0359732 0)
(0.249885 -0.0321617 -1.88376e-17)
(0.277272 -0.0277846 -1.27464e-17)
(0.305691 -0.0228468 0)
(0.335187 -0.0173553 6.16021e-18)
(0.36582 -0.0113191 1.26636e-17)
(0.397675 -0.00474918 0)
(0.43086 0.00233997 0)
(0.465519 0.0099281 0)
(0.501838 0.0179815 0)
(0.540061 0.0264449 -1.08071e-17)
(0.580492 0.0351928 4.60921e-18)
(0.623611 0.0440516 -9.02284e-18)
(0.6696 0.0523766 7.75693e-18)
(0.720645 0.0598491 -2.63894e-18)
(0.768569 0.0630388 0)
(0.848665 0.0574421 0)
(0.978935 0.20289 0)
(0.979947 0.196458 -3.72742e-18)
(0.969206 0.209633 4.44377e-18)
(0.93591 0.213112 -3.98537e-18)
(0.869988 0.19849 3.87332e-18)
(0.77162 0.17173 3.92626e-18)
(0.649249 0.139654 0)
(0.514561 0.105163 0)
(0.376655 0.0709521 0)
(0.254814 0.0378586 1.00028e-17)
(0.140177 0.00913061 0)
(0.0421466 -0.00660581 0)
(0.00275496 -0.000218624 0)
(-0.00190126 -8.72934e-05 -1.00523e-17)
(-0.0125367 0.00211704 0)
(-0.0178355 0.0105401 -8.55999e-18)
(-0.0216293 0.0163307 0)
(-0.0250577 0.0182394 7.88434e-18)
(-0.0277534 0.0191369 3.82686e-18)
(-0.0296608 0.0204027 0)
(-0.0311133 0.0216445 -3.61988e-18)
(-0.0324927 0.0222563 0)
(-0.0339848 0.0221463 0)
(-0.0356014 0.0216207 6.71674e-18)
(-0.0372087 0.0211194 0)
(-0.0385658 0.0210156 1.61651e-18)
(-0.0393908 0.0215063 -4.77046e-18)
(-0.0394361 0.0225615 0)
(-0.0385511 0.0239092 0)
(-0.0367192 0.0250882 -7.67276e-19)
(-0.0340538 0.0255636 0)
(-0.0307638 0.0248759 8.89378e-22)
(-0.0271087 0.0227809 0)
(-0.0233414 0.0193155 7.41662e-19)
(-0.019655 0.0147665 9.25174e-20)
(-0.0161323 0.0095543 0)
(-0.0127335 0.00412745 1.85983e-19)
(-0.00930767 -0.00114193 -3.74943e-19)
(-0.00569332 -0.005945 -3.78837e-19)
(-0.0017859 -0.0102642 -7.69109e-19)
(0.00268398 -0.0143224 7.81696e-19)
(0.00788108 -0.0182882 7.94978e-19)
(0.0138289 -0.0222239 0)
(0.0205422 -0.0261563 1.65942e-18)
(0.0280357 -0.0300892 -3.39892e-18)
(0.036323 -0.0340097 0)
(0.0454163 -0.0378931 -1.79187e-18)
(0.0553265 -0.0417067 3.69948e-18)
(0.0660632 -0.0454123 0)
(0.0776342 -0.048968 -1.97315e-18)
(0.0900451 -0.0523305 2.02079e-18)
(0.103299 -0.0554559 -2.08441e-18)
(0.117397 -0.0583009 -2.14969e-18)
(0.132335 -0.0608221 0)
(0.14811 -0.0629761 -4.59333e-18)
(0.164716 -0.0647219 -2.34958e-18)
(0.182146 -0.0660228 2.45167e-18)
(0.200395 -0.0668471 2.47937e-18)
(0.219459 -0.0671711 5.12954e-18)
(0.239331 -0.0669813 0)
(0.260001 -0.0662678 0)
(0.281463 -0.0650144 0)
(0.303725 -0.0632083 -2.74316e-18)
(0.326805 -0.0608469 0)
(0.35073 -0.0579362 5.70187e-18)
(0.375538 -0.0544878 0)
(0.401276 -0.0505181 -2.8199e-18)
(0.428009 -0.0460482 -5.74485e-18)
(0.455819 -0.0411032 0)
(0.484809 -0.035713 -2.73198e-18)
(0.515103 -0.0299142 2.66213e-18)
(0.546856 -0.0237529 0)
(0.580251 -0.0172932 0)
(0.615508 -0.0106308 0)
(0.652869 -0.00392087 -4.36921e-18)
(0.692654 0.0025798 0)
(0.73486 0.00839691 -1.52459e-18)
(0.78074 0.0128692 2.51769e-18)
(0.823775 0.0145056 0)
(0.89049 0.0105537 3.79005e-19)
(0.970708 0.210788 0)
(0.96425 0.199135 2.10079e-18)
(0.966611 0.204743 0)
(0.976223 0.213636 2.20831e-18)
(0.978769 0.216443 -4.01414e-18)
(0.961404 0.211856 -1.86626e-18)
(0.919036 0.200985 0)
(0.853319 0.183718 0)
(0.765639 0.159445 0)
(0.661619 0.13097 1.92689e-18)
(0.547991 0.102116 2.00031e-18)
(0.430436 0.0741517 0)
(0.31804 0.0488208 0)
(0.222343 0.0271341 0)
(0.144729 0.0128974 0)
(0.0907769 0.00731846 8.71547e-18)
(0.0640381 0.00788742 -4.3301e-18)
(0.0527581 0.0106719 0)
(0.0465158 0.0139294 -4.18466e-18)
(0.0425076 0.0171038 2.05431e-18)
(0.0401643 0.0194373 4.00928e-18)
(0.0390048 0.0205509 0)
(0.0385549 0.020651 0)
(0.0384874 0.0201625 -3.74328e-18)
(0.0387341 0.0194809 0)
(0.0394428 0.0189006 -1.79686e-18)
(0.0408695 0.0185942 1.763e-18)
(0.0432658 0.0185931 0)
(0.0467889 0.0187709 0)
(0.0514438 0.0188624 8.32879e-19)
(0.0570672 0.0185283 0)
(0.0633639 0.0174493 -8.01463e-19)
(0.0699703 0.0154317 0)
(0.0765541 0.0124434 -1.92819e-19)
(0.0828732 0.00862509 -9.58352e-20)
(0.0888592 0.00419551 -2.39482e-20)
(0.0945314 -0.000606773 -2.84867e-19)
(0.100071 -0.00555177 3.78383e-19)
(0.105706 -0.0105166 3.79122e-19)
(0.111617 -0.0153921 1.14715e-18)
(0.117968 -0.0201662 -3.84139e-19)
(0.124875 -0.0248851 3.90031e-19)
(0.132384 -0.0295857 0)
(0.140515 -0.0342867 8.17467e-19)
(0.149275 -0.0389894 8.30715e-19)
(0.158665 -0.0436808 0)
(0.168683 -0.0483361 1.75701e-18)
(0.179326 -0.0529221 9.06429e-19)
(0.190591 -0.0573992 0)
(0.202473 -0.061724 -2.88454e-18)
(0.214966 -0.0658502 -1.9836e-18)
(0.228064 -0.0697307 1.02311e-18)
(0.241759 -0.0733182 2.11508e-18)
(0.256044 -0.0765662 0)
(0.270909 -0.0794302 1.12588e-18)
(0.28635 -0.0818694 3.48459e-18)
(0.302358 -0.0838473 2.39474e-18)
(0.318932 -0.0853332 -2.46421e-18)
(0.33607 -0.0863034 -1.26051e-18)
(0.353775 -0.0867418 0)
(0.372052 -0.0866376 0)
(0.390914 -0.0859832 0)
(0.410384 -0.0847772 4.13397e-18)
(0.430497 -0.0830267 1.38945e-18)
(0.451299 -0.0807468 0)
(0.472847 -0.0779594 -2.82677e-18)
(0.495214 -0.0746918 2.87188e-18)
(0.518487 -0.0709765 -2.82289e-18)
(0.54277 -0.0668511 -2.79595e-18)
(0.568185 -0.0623582 5.21716e-20)
(0.594876 -0.0575471 -2.73416e-18)
(0.623007 -0.0524766 0)
(0.652761 -0.0472208 0)
(0.684344 -0.0418806 0)
(0.717953 -0.0365997 0)
(0.753832 -0.0316005 0)
(0.791851 -0.0272044 3.08814e-18)
(0.833068 -0.0239319 -1.15215e-18)
(0.871307 -0.0223592 0)
(0.930562 -0.0240081 -3.92168e-19)
(0.972918 0.217782 0)
(0.965112 0.206353 2.44575e-18)
(0.957337 0.20211 3.17587e-19)
(0.958458 0.203219 2.47489e-18)
(0.96878 0.206 0)
(0.980866 0.208461 -2.16694e-18)
(0.986528 0.209088 0)
(0.980201 0.206073 -4.94562e-19)
(0.957934 0.197962 0)
(0.917054 0.184611 -2.2507e-18)
(0.858092 0.167399 -1.76575e-18)
(0.783522 0.14701 -4.50033e-19)
(0.695774 0.123827 4.51797e-19)
(0.60054 0.0995642 0)
(0.503473 0.0764376 4.61461e-19)
(0.409989 0.055898 0)
(0.328793 0.0392236 3.80387e-18)
(0.265786 0.0274088 -4.94504e-19)
(0.221172 0.0204225 0)
(0.192204 0.0172692 -2.49474e-18)
(0.174621 0.0164576 0)
(0.164316 0.0166682 0)
(0.158319 0.0170319 0)
(0.154872 0.0170959 0)
(0.153098 0.0167254 -2.34243e-19)
(0.152652 0.015999 0)
(0.153454 0.0150844 0)
(0.155528 0.0141227 1.11319e-19)
(0.158905 0.0131578 0)
(0.163556 0.0121193 0)
(0.169346 0.0108524 0)
(0.176047 0.009168 -5.18629e-20)
(0.183337 0.00692891 0)
(0.190917 0.00403665 -2.24994e-19)
(0.198545 0.000488894 0)
(0.206083 -0.0036032 2.44647e-20)
(0.213523 -0.00812374 1.21704e-19)
(0.220923 -0.0129367 2.44876e-20)
(0.228367 -0.0179325 -4.90648e-20)
(0.235974 -0.0230268 -3.90714e-19)
(0.243856 -0.028172 -3.9475e-19)
(0.252098 -0.0333522 4.00276e-19)
(0.260748 -0.0385611 -1.02802e-19)
(0.26983 -0.0437903 -8.30986e-19)
(0.279349 -0.0490251 8.50142e-19)
(0.289304 -0.0542429 -1.09916e-19)
(0.299686 -0.0594135 0)
(0.310485 -0.0645007 -9.22211e-19)
(0.321686 -0.069463 0)
(0.333277 -0.0742554 9.81319e-19)
(0.345242 -0.0788307 0)
(0.357567 -0.0831411 1.04787e-18)
(0.37024 -0.0871389 0)
(0.383248 -0.0907783 -2.80952e-19)
(0.396582 -0.0940163 -1.15778e-18)
(0.410235 -0.0968141 -1.19593e-18)
(0.424204 -0.0991384 3.08662e-19)
(0.438492 -0.100962 0)
(0.453107 -0.102267 1.30958e-18)
(0.468063 -0.103039 -3.35439e-19)
(0.483383 -0.103275 0)
(0.499097 -0.102977 3.51092e-19)
(0.515249 -0.102155 -1.43996e-18)
(0.531893 -0.100825 -1.46447e-18)
(0.549098 -0.0990116 0)
(0.566944 -0.0967473 2.99574e-18)
(0.585528 -0.0940685 0)
(0.604959 -0.0910172 3.00644e-18)
(0.625364 -0.0876396 2.98428e-18)
(0.646882 -0.0839861 2.93965e-18)
(0.669675 -0.0801121 3.53335e-19)
(0.693916 -0.07608 0)
(0.719794 -0.0719619 0)
(0.74751 -0.0678474 0)
(0.777239 -0.0638478 -2.73651e-19)
(0.809206 -0.060127 0)
(0.843199 -0.0568568 -1.42937e-18)
(0.880352 -0.0544084 1.39116e-18)
(0.9144 -0.0528312 9.37142e-20)
(0.96863 -0.0527477 4.91623e-20)
(0.97403 0.22051 -1.5224e-18)
(0.969586 0.211767 1.47665e-18)
(0.961597 0.205739 -3.59818e-19)
(0.955304 0.202527 0)
(0.954885 0.200645 0)
(0.960571 0.199679 0)
(0.970429 0.199649 0)
(0.981685 0.199821 1.69893e-18)
(0.990693 0.198873 0)
(0.992935 0.195517 -1.53193e-18)
(0.984548 0.189166 -1.92703e-18)
(0.963473 0.179735 4.49593e-19)
(0.928746 0.167186 1.35058e-18)
(0.880431 0.151532 0)
(0.819899 0.133533 -2.1203e-18)
(0.749581 0.114276 0)
(0.674945 0.0951278 -1.71411e-18)
(0.602347 0.07748 4.31633e-19)
(0.535813 0.0620899 -1.79971e-18)
(0.477904 0.0492635 -1.38343e-18)
(0.430097 0.0390418 0)
(0.392679 0.0312398 0)
(0.364809 0.0254787 -9.36946e-19)
(0.34489 0.0212687 0)
(0.331129 0.0181212 -6.98995e-19)
(0.321958 0.0156328 0)
(0.316217 0.0135111 0)
(0.313145 0.0115567 -1.11476e-19)
(0.312271 0.00962719 0)
(0.313288 0.00760791 0)
(0.315943 0.00539658 0)
(0.320006 0.00289318 5.29661e-20)
(0.325171 -1.86052e-05 2.11659e-19)
(0.331149 -0.00338074 1.30409e-19)
(0.337718 -0.00719254 0)
(0.34469 -0.0114384 0)
(0.351925 -0.0160562 -2.5134e-20)
(0.359362 -0.0209767 -1.27174e-19)
(0.366985 -0.0261249 5.03958e-20)
(0.374813 -0.0314364 0)
(0.382878 -0.036864 0)
(0.39121 -0.042375 -2.11686e-19)
(0.399826 -0.047943 1.06119e-19)
(0.408729 -0.0535423 -4.3983e-19)
(0.417913 -0.0591448 4.50122e-19)
(0.427367 -0.0647184 1.13897e-19)
(0.437071 -0.0702267 0)
(0.447004 -0.0756292 4.88762e-19)
(0.457145 -0.080882 0)
(0.467469 -0.0859389 0)
(0.477956 -0.0907524 0)
(0.488585 -0.0952753 0)
(0.499339 -0.0994617 0)
(0.510205 -0.103268 2.9581e-19)
(0.521173 -0.106656 0)
(0.532242 -0.109591 1.27229e-18)
(0.543416 -0.112045 -3.27667e-19)
(0.554709 -0.113997 0)
(0.566141 -0.115437 1.39608e-18)
(0.577743 -0.116358 3.59269e-19)
(0.589557 -0.116766 1.47326e-18)
(0.601636 -0.116671 -3.78291e-19)
(0.614044 -0.116094 0)
(0.62686 -0.115061 -1.56756e-18)
(0.640173 -0.113606 0)
(0.654088 -0.111768 0)
(0.66872 -0.109593 -1.61395e-18)
(0.684198 -0.107127 0)
(0.700664 -0.104424 0)
(0.718276 -0.101537 -1.57809e-18)
(0.737203 -0.0985244 -3.88917e-19)
(0.757627 -0.0954464 0)
(0.779739 -0.0923684 0)
(0.803742 -0.0893639 0)
(0.829801 -0.086509 3.02204e-19)
(0.858155 -0.0839111 -1.04682e-18)
(0.888526 -0.0816173 -2.1952e-19)
(0.922252 -0.0798699 -1.66942e-19)
(0.952757 -0.0784204 -1.0327e-19)
(1.00336 -0.0771691 -2.63072e-19)
(0.974215 0.221524 5.28312e-18)
(0.971743 0.214808 -5.0943e-18)
(0.966681 0.209645 0)
(0.960949 0.205954 -3.25114e-18)
(0.956603 0.202371 0)
(0.954596 0.198524 -2.97196e-18)
(0.955645 0.195057 0)
(0.960514 0.192405 4.02247e-18)
(0.969149 0.190336 -5.02924e-18)
(0.98002 0.188276 2.3167e-18)
(0.990509 0.185647 2.17485e-18)
(0.997843 0.181942 0)
(0.999517 0.176571 -5.90034e-18)
(0.993222 0.168913 -3.76854e-18)
(0.97729 0.158894 5.35186e-18)
(0.951 0.146832 0)
(0.915647 0.133321 1.67055e-18)
(0.873944 0.119109 0)
(0.828378 0.104777 1.68886e-18)
(0.781224 0.0908198 1.70582e-18)
(0.734631 0.0776468 0)
(0.690465 0.0655346 0)
(0.650173 0.0546335 -9.17688e-19)
(0.614725 0.0449969 0)
(0.584613 0.0366018 8.88655e-19)
(0.5599 0.0293604 0)
(0.54031 0.0231336 0)
(0.525345 0.0177464 0)
(0.51441 0.0130033 0)
(0.506904 0.00870202 0)
(0.502275 0.00464901 0)
(0.500022 0.000659283 0)
(0.499745 -0.00340675 2.23886e-19)
(0.501074 -0.00767042 -1.06723e-19)
(0.503663 -0.0121923 5.39692e-20)
(0.50724 -0.0170094 0)
(0.511597 -0.0221123 0)
(0.516581 -0.027465 1.05374e-19)
(0.522079 -0.0330176 -4.32947e-19)
(0.528007 -0.0387201 4.37236e-19)
(0.534308 -0.0445296 0)
(0.540936 -0.050411 1.1218e-18)
(0.547853 -0.0563331 -9.1877e-19)
(0.55502 -0.062265 -4.7847e-19)
(0.562399 -0.0681737 -4.72972e-19)
(0.569951 -0.0740228 0)
(0.577636 -0.0797729 0)
(0.585416 -0.0853813 -1.56828e-18)
(0.593255 -0.0908032 0)
(0.601118 -0.095993 0)
(0.608976 -0.100905 0)
(0.616805 -0.105495 1.20333e-18)
(0.624587 -0.10972 2.49353e-18)
(0.632311 -0.113544 0)
(0.639976 -0.116933 0)
(0.647589 -0.119861 -1.37838e-18)
(0.655169 -0.122308 0)
(0.662746 -0.124263 2.96304e-18)
(0.67036 -0.125722 1.53129e-18)
(0.678064 -0.12669 0)
(0.685923 -0.127181 1.61869e-18)
(0.694012 -0.127216 3.32336e-18)
(0.702419 -0.126823 3.3999e-18)
(0.711243 -0.126038 1.73956e-18)
(0.720595 -0.1249 -3.52301e-18)
(0.730594 -0.123455 3.56463e-18)
(0.741371 -0.121752 5.39326e-18)
(0.753066 -0.119844 0)
(0.765828 -0.117783 0)
(0.77982 -0.115626 1.7736e-18)
(0.795213 -0.113429 0)
(0.812189 -0.111249 3.32501e-18)
(0.830938 -0.109144 3.16232e-18)
(0.851661 -0.107172 0)
(0.874518 -0.105378 2.68109e-18)
(0.899778 -0.103824 -1.16998e-18)
(0.927104 -0.10246 0)
(0.9581 -0.101415 0)
(0.985744 -0.100275 0)
(1.03385 -0.0983066 -2.24343e-19)
(0.974268 0.22214 -4.04126e-18)
(0.972477 0.216633 3.88476e-18)
(0.96903 0.212024 -7.6678e-18)
(0.96512 0.208375 3.68245e-18)
(0.96167 0.204731 0)
(0.958656 0.200502 3.36915e-18)
(0.956083 0.195871 -6.49529e-18)
(0.954734 0.191204 -6.09558e-18)
(0.955714 0.186681 -8.74883e-20)
(0.959707 0.182392 0)
(0.966685 0.178394 0)
(0.975982 0.174581 4.92485e-18)
(0.986407 0.170563 4.53905e-18)
(0.996254 0.165818 -4.47004e-18)
(1.00357 0.16001 -1.22705e-17)
(1.00656 0.152962 0)
(1.00405 0.144703 0)
(0.995836 0.135472 0)
(0.982363 0.1255 0)
(0.964365 0.115019 0)
(0.942756 0.104243 0)
(0.918518 0.0933598 0)
(0.892635 0.0825533 1.77926e-18)
(0.866055 0.0720062 -3.66591e-18)
(0.83966 0.0618811 0)
(0.814233 0.0522974 0)
(0.79043 0.0433204 0)
(0.768761 0.0349618 0)
(0.749586 0.0271854 0)
(0.733113 0.0199172 -9.33624e-19)
(0.719401 0.0130538 0)
(0.708411 0.00648932 0)
(0.699872 8.49976e-05 1.20313e-20)
(0.693766 -0.00618967 0)
(0.689781 -0.0124124 -5.61499e-20)
(0.687542 -0.0186191 0)
(0.68671 -0.0248299 2.30648e-19)
(0.687012 -0.0310633 0)
(0.688228 -0.0373316 9.23511e-19)
(0.690191 -0.0436361 -4.61678e-19)
(0.692765 -0.0499681 -9.61659e-19)
(0.695836 -0.0563105 -9.56912e-19)
(0.699305 -0.06264 9.78693e-19)
(0.703081 -0.0689273 1.00377e-18)
(0.70708 -0.0751384 2.10781e-18)
(0.711225 -0.0812358 2.16999e-18)
(0.715449 -0.0871797 0)
(0.719689 -0.0929287 -1.17638e-18)
(0.723895 -0.0984409 0)
(0.728022 -0.103675 0)
(0.73204 -0.10859 -2.57126e-18)
(0.735926 -0.113148 -1.31827e-18)
(0.739668 -0.117316 2.86558e-20)
(0.74327 -0.121065 0)
(0.746744 -0.12437 0)
(0.750119 -0.127216 0)
(0.753433 -0.129593 3.20779e-18)
(0.756741 -0.1315 -3.30935e-18)
(0.760108 -0.132943 -3.42591e-18)
(0.763612 -0.133939 0)
(0.767339 -0.134508 -3.65082e-18)
(0.771386 -0.134679 -1.77388e-21)
(0.77586 -0.134487 -3.85208e-18)
(0.780873 -0.133972 3.93054e-18)
(0.786544 -0.133178 9.92611e-21)
(0.793 -0.132153 -4.06672e-18)
(0.80037 -0.130947 -4.10261e-18)
(0.808795 -0.129611 0)
(0.818419 -0.128201 0)
(0.829395 -0.126769 0)
(0.841886 -0.12537 0)
(0.856065 -0.124057 -3.82428e-18)
(0.872111 -0.122881 -3.6387e-18)
(0.890224 -0.121887 0)
(0.910552 -0.121099 -3.08446e-18)
(0.933406 -0.120545 5.40693e-18)
(0.958384 -0.120105 0)
(0.987402 -0.119803 0)
(1.0129 -0.119146 0)
(1.05959 -0.116828 1.02738e-18)
(0.974307 0.222601 9.50631e-18)
(0.97277 0.217894 0)
(0.969901 0.213523 1.75164e-17)
(0.966828 0.209705 0)
(0.9644 0.206014 8.18264e-18)
(0.96244 0.201968 0)
(0.960419 0.197443 7.36036e-18)
(0.958275 0.1925 0)
(0.95645 0.18719 -6.84292e-18)
(0.955548 0.181605 0)
(0.956164 0.175932 1.21589e-17)
(0.958825 0.170344 -5.66249e-18)
(0.963834 0.164856 0)
(0.971064 0.159334 1.00828e-17)
(0.979905 0.153631 -1.94583e-19)
(0.989424 0.147583 -9.15906e-18)
(0.998373 0.141116 8.86791e-18)
(1.00563 0.134254 0)
(1.01054 0.126979 0)
(1.01283 0.119292 8.3544e-18)
(1.01241 0.11122 0)
(1.0094 0.102816 -4.07417e-18)
(1.00401 0.0941509 0)
(0.996524 0.085318 3.90571e-18)
(0.987299 0.0764119 0)
(0.976704 0.0675196 3.99641e-18)
(0.965121 0.0587126 0)
(0.952922 0.0500427 0)
(0.94046 0.0415392 2.00534e-18)
(0.928057 0.0332089 9.77754e-19)
(0.916 0.0250369 0)
(0.904522 0.0169953 0)
(0.89384 0.00904772 -1.51398e-18)
(0.883956 0.00117694 0)
(0.875067 -0.0066508 0)
(0.867337 -0.0144367 0)
(0.860825 -0.0221551 -2.48506e-19)
(0.855501 -0.0297783 0)
(0.85127 -0.0372855 -1.5502e-18)
(0.847997 -0.0446617 -1.05836e-18)
(0.845527 -0.0518957 1.04709e-18)
(0.843701 -0.0589775 0)
(0.842368 -0.0658971 0)
(0.841392 -0.0726414 2.3087e-18)
(0.840655 -0.0791938 -2.32151e-18)
(0.840057 -0.0855332 -2.39726e-18)
(0.839517 -0.0916343 0)
(0.838966 -0.0974688 -4.80596e-20)
(0.838354 -0.103007 2.71476e-18)
(0.837646 -0.108217 0)
(0.83682 -0.113071 2.88561e-18)
(0.835871 -0.117542 3.04105e-18)
(0.834807 -0.121606 -3.1275e-18)
(0.833655 -0.125247 0)
(0.832452 -0.128452 0)
(0.831253 -0.131217 0)
(0.830124 -0.133544 -3.66663e-18)
(0.829143 -0.135441 0)
(0.828396 -0.136925 0)
(0.827979 -0.138017 0)
(0.827991 -0.138745 8.44923e-18)
(0.828536 -0.13914 -4.34604e-18)
(0.829723 -0.139242 0)
(0.83166 -0.139088 -4.56998e-18)
(0.834459 -0.138724 -4.65109e-18)
(0.838234 -0.138195 9.45094e-18)
(0.843102 -0.13755 -9.54457e-18)
(0.849183 -0.136839 -9.58306e-18)
(0.856605 -0.136113 0)
(0.865502 -0.135423 -9.45145e-18)
(0.876018 -0.134822 0)
(0.888308 -0.134359 0)
(0.902537 -0.134081 0)
(0.918897 -0.134026 7.98035e-18)
(0.937524 -0.134203 -7.26741e-18)
(0.958775 -0.134618 -9.5579e-18)
(0.982181 -0.135107 0)
(1.01 -0.135601 4.0391e-18)
(1.03405 -0.135579 0)
(1.08041 -0.133238 -1.76346e-18)
(0.974319 0.22296 -1.08257e-17)
(0.972876 0.218855 -1.04645e-17)
(0.970238 0.214665 -2.01289e-17)
(0.967461 0.210672 0)
(0.965378 0.206797 -1.86832e-17)
(0.963968 0.202722 -8.96173e-18)
(0.962796 0.198285 0)
(0.961595 0.193469 1.62842e-17)
(0.960326 0.188241 1.5312e-17)
(0.959033 0.182558 0)
(0.957851 0.176466 -1.38102e-17)
(0.957102 0.170077 0)
(0.957249 0.163484 0)
(0.958723 0.156726 1.19646e-17)
(0.961783 0.149834 1.11496e-17)
(0.966506 0.142828 -1.87828e-19)
(0.972604 0.135807 1.91144e-19)
(0.979502 0.128862 0)
(0.986654 0.121932 0)
(0.993594 0.114935 -9.60795e-18)
(0.999951 0.107816 -9.65613e-18)
(1.00545 0.100539 1.41708e-17)
(1.00992 0.0930968 4.70279e-18)
(1.01325 0.0855059 4.65671e-18)
(1.01542 0.0777978 0)
(1.01649 0.0700097 -4.47945e-18)
(1.01652 0.0621756 0)
(1.01564 0.0543191 0)
(1.01398 0.0464493 -4.50788e-18)
(1.01166 0.0385609 0)
(1.0088 0.0306392 0)
(1.0055 0.0226655 0)
(1.00185 0.0146489 1.12586e-18)
(0.99796 0.00654361 -5.83623e-19)
(0.993677 -0.00161209 2.92244e-19)
(0.988984 -0.0098076 0)
(0.983932 -0.0180158 0)
(0.978598 -0.0261907 0)
(0.973066 -0.0342834 1.17118e-18)
(0.967425 -0.0422495 1.19045e-18)
(0.96175 -0.0500515 -2.49568e-18)
(0.956095 -0.0576576 0)
(0.950492 -0.0650413 0)
(0.94495 -0.0721789 -5.30929e-18)
(0.939462 -0.0790483 -2.76721e-18)
(0.934009 -0.085628 0)
(0.928569 -0.0918966 0)
(0.923124 -0.0978333 3.00702e-18)
(0.917659 -0.103418 5.20433e-20)
(0.912176 -0.108633 0)
(0.906684 -0.113463 0)
(0.901211 -0.117894 -3.52742e-18)
(0.895796 -0.12192 0)
(0.890494 -0.125536 0)
(0.88537 -0.128745 0)
(0.880499 -0.131551 0)
(0.875961 -0.133966 0)
(0.871843 -0.136006 -9.02972e-18)
(0.868235 -0.137691 0)
(0.865226 -0.139045 0)
(0.862907 -0.140096 2.15365e-20)
(0.861366 -0.140876 0)
(0.860691 -0.141418 0)
(0.860972 -0.141761 0)
(0.862295 -0.141945 2.21378e-17)
(0.864752 -0.142011 -1.12489e-17)
(0.868436 -0.142006 1.13758e-17)
(0.873444 -0.141976 5.6073e-22)
(0.879881 -0.14197 0)
(0.887861 -0.142039 1.13076e-17)
(0.897507 -0.142231 -1.1097e-17)
(0.908958 -0.142598 0)
(0.922361 -0.143181 0)
(0.937902 -0.144019 3.65178e-20)
(0.955706 -0.145114 8.72708e-18)
(0.976179 -0.146461 7.66355e-18)
(0.998781 -0.147875 0)
(1.02615 -0.14921 -4.8404e-18)
(1.04938 -0.149946 0)
(1.09642 -0.147925 1.38927e-18)
(0.974304 0.22327 0)
(0.972842 0.219648 2.39282e-17)
(0.970289 0.215596 2.3123e-17)
(0.967676 0.211473 0)
(0.965717 0.20742 1.06756e-17)
(0.964414 0.203212 -1.03767e-17)
(0.96349 0.198687 0)
(0.962798 0.19385 -1.85037e-17)
(0.962283 0.188692 0)
(0.961835 0.183145 0)
(0.961311 0.177173 0)
(0.960661 0.170794 0)
(0.95998 0.164026 0)
(0.95946 0.156879 1.90928e-19)
(0.959328 0.14939 -1.31015e-17)
(0.959847 0.14163 -1.86468e-19)
(0.961218 0.133812 1.87996e-19)
(0.963473 0.12614 0)
(0.966516 0.118626 0)
(0.970181 0.111225 0)
(0.974272 0.103893 -2.03494e-19)
(0.978586 0.0965888 2.08004e-19)
(0.982927 0.0892795 -5.43487e-18)
(0.987127 0.0819484 -5.38121e-18)
(0.991049 0.0745919 0)
(0.994601 0.067213 -5.41694e-18)
(0.997722 0.0598151 5.39488e-18)
(1.00038 0.0523968 0)
(1.00257 0.0449499 2.62958e-18)
(1.00427 0.0374595 2.69095e-18)
(1.00549 0.0299079 0)
(1.00621 0.0222795 0)
(1.00643 0.0145722 1.36442e-18)
(1.00615 0.00677012 -1.67936e-20)
(1.00535 -0.00107224 -6.82534e-19)
(1.00404 -0.00893329 0)
(1.00218 -0.0167991 0)
(0.999755 -0.0246441 -1.41401e-18)
(0.996761 -0.0324339 0)
(0.993194 -0.0401327 -1.45788e-18)
(0.989065 -0.0477056 -6.86205e-20)
(0.984399 -0.0551195 0)
(0.979226 -0.0623429 3.1211e-18)
(0.973589 -0.0693462 6.35429e-18)
(0.967538 -0.0761015 3.24502e-18)
(0.96113 -0.0825835 0)
(0.954429 -0.0887694 -7.07376e-18)
(0.947504 -0.0946392 0)
(0.940431 -0.100177 -3.75034e-18)
(0.933289 -0.105369 0)
(0.926158 -0.110206 0)
(0.919124 -0.114682 0)
(0.912271 -0.118796 0)
(0.905683 -0.122548 0)
(0.899443 -0.125944 -9.63859e-18)
(0.893632 -0.128991 1.00224e-17)
(0.88833 -0.131701 0)
(0.88361 -0.134088 1.07564e-17)
(0.879546 -0.13617 -1.12023e-17)
(0.876209 -0.137967 0)
(0.873667 -0.139504 -1.19414e-17)
(0.87199 -0.140807 0)
(0.871248 -0.141908 0)
(0.871512 -0.14284 0)
(0.872858 -0.143641 -1.32644e-17)
(0.875363 -0.144352 1.351e-17)
(0.87911 -0.145016 -1.3681e-17)
(0.884188 -0.145678 2.7545e-17)
(0.890692 -0.146385 -1.37887e-17)
(0.898724 -0.147188 0)
(0.9084 -0.148134 1.3444e-17)
(0.919846 -0.149273 -1.30969e-17)
(0.933202 -0.150647 0)
(0.948651 -0.152294 5.52482e-20)
(0.966308 -0.154216 -1.08096e-17)
(0.986631 -0.156406 0)
(1.00901 -0.158674 0)
(1.03647 -0.16084 -6.12942e-18)
(1.05934 -0.162339 0)
(1.10789 -0.161051 -1.72739e-18)
(0.974265 0.223563 0)
(0.972689 0.220343 -1.36877e-17)
(0.970118 0.216354 -1.32252e-17)
(0.96762 0.212113 0)
(0.965774 0.207929 2.47055e-17)
(0.964508 0.2036 2.34115e-17)
(0.963603 0.198954 0)
(0.962997 0.194012 2.14694e-17)
(0.962703 0.188794 -2.0437e-17)
(0.962669 0.183254 0)
(0.962769 0.177356 0)
(0.962879 0.171089 0)
(0.962922 0.164438 0)
(0.962858 0.157372 -1.56455e-17)
(0.96268 0.149882 -1.52483e-17)
(0.962442 0.142001 1.4134e-17)
(0.962281 0.133938 -4.16944e-17)
(0.962334 0.125933 0)
(0.962689 0.118039 0)
(0.963381 0.110256 1.33355e-17)
(0.964404 0.102575 2.61501e-17)
(0.965722 0.0949795 -1.28334e-17)
(0.967272 0.0874535 0)
(0.968975 0.0799857 0)
(0.970753 0.0725699 -6.37513e-18)
(0.972534 0.0652014 1.25876e-17)
(0.974256 0.0578736 -1.25513e-17)
(0.975864 0.050576 0)
(0.977307 0.0432933 0)
(0.978537 0.0360063 -3.11011e-18)
(0.979501 0.0286949 0)
(0.980142 0.0213426 3.19681e-18)
(0.980402 0.0139402 -1.57954e-18)
(0.980215 0.00649955 -1.59762e-20)
(0.979596 -0.0010039 -8.1462e-21)
(0.978516 -0.0085349 0)
(0.976954 -0.0160661 0)
(0.974902 -0.0235719 -3.35346e-20)
(0.972355 -0.031021 1.70181e-18)
(0.969323 -0.0383798 5.16348e-18)
(0.965825 -0.0456168 7.00745e-18)
(0.961891 -0.0527037 3.62089e-18)
(0.957558 -0.0596152 -3.65106e-18)
(0.952869 -0.0663289 -3.75902e-18)
(0.947873 -0.0728252 3.94142e-18)
(0.942621 -0.0790867 0)
(0.93717 -0.0850977 8.30566e-18)
(0.931578 -0.0908448 -8.72892e-18)
(0.925906 -0.0963158 0)
(0.920216 -0.101501 0)
(0.914572 -0.10639 0)
(0.909038 -0.110978 0)
(0.903676 -0.11526 0)
(0.89855 -0.119232 0)
(0.89372 -0.122896 1.13296e-17)
(0.88925 -0.126254 -2.36309e-17)
(0.885201 -0.129312 -1.23036e-17)
(0.881638 -0.13208 1.27608e-17)
(0.878626 -0.134572 1.31652e-17)
(0.876236 -0.136805 -1.36748e-17)
(0.874538 -0.138802 1.41221e-17)
(0.873609 -0.140588 0)
(0.873526 -0.142194 1.49669e-17)
(0.87437 -0.143653 -1.53494e-17)
(0.876223 -0.145003 0)
(0.87917 -0.146283 -3.19473e-17)
(0.883298 -0.147536 1.61921e-17)
(0.888695 -0.148806 -3.27128e-17)
(0.895454 -0.150139 1.63978e-17)
(0.903679 -0.151582 0)
(0.913481 -0.153186 1.61635e-17)
(0.924988 -0.154997 1.57461e-17)
(0.938339 -0.157058 -1.52165e-17)
(0.953729 -0.15941 -1.43313e-17)
(0.971277 -0.162056 1.32119e-17)
(0.991503 -0.164992 0)
(1.01374 -0.168022 0)
(1.04142 -0.170983 7.65558e-18)
(1.06406 -0.173114 0)
(1.11461 -0.172885 2.1769e-18)
(0.974202 0.223862 1.65095e-17)
(0.972433 0.22097 0)
(0.969776 0.21697 -3.06129e-17)
(0.967355 0.212615 2.95644e-17)
(0.965614 0.208332 -2.81476e-17)
(0.964397 0.203907 2.70839e-17)
(0.963509 0.199161 0)
(0.962914 0.194122 2.02373e-19)
(0.962637 0.188817 2.32677e-17)
(0.962657 0.183214 0)
(0.96291 0.177284 0)
(0.963324 0.171024 0)
(0.96384 0.16442 3.82969e-17)
(0.96439 0.15744 0)
(0.964894 0.150058 3.42008e-17)
(0.965286 0.142275 0)
(0.965551 0.134274 6.37486e-17)
(0.965718 0.126279 0)
(0.965832 0.118347 0)
(0.965936 0.110483 -3.04614e-17)
(0.966066 0.102693 -1.49559e-17)
(0.966243 0.094974 0)
(0.966477 0.0873257 0)
(0.966762 0.0797477 0)
(0.967087 0.0722418 7.25754e-18)
(0.967436 0.064808 -7.23246e-18)
(0.967794 0.0574429 -1.08666e-19)
(0.968141 0.0501379 0)
(0.968452 0.0428795 7.33309e-18)
(0.968698 0.0356503 0)
(0.968843 0.0284317 0)
(0.968843 0.0212074 -3.65547e-18)
(0.968656 0.0139675 1.87251e-18)
(0.96823 0.00671541 -1.55002e-20)
(0.967531 -0.000584992 4.66612e-19)
(0.966523 -0.00790244 0)
(0.965175 -0.0152077 0)
(0.963468 -0.0224794 1.91738e-18)
(0.961393 -0.0296943 -1.94614e-18)