/*--------------------------------*- C++ -*----------------------------------*\
| =========                 |                                                 |
| \\      /  F ield         | OpenFOAM: The Open Source CFD Toolbox           |
|  \\    /   O peration     | Version:  v1912                                 |
|   \\  /    A nd           | Website:  www.openfoam.com                      |
|    \\/     M anipulation  |                                                 |
\*---------------------------------------------------------------------------*/
FoamFile
{
    version     2.0;
    format      ascii;
    class       volScalarField;
    location    "580";
    object      epsilon;
}
// * * * * * * * * * * * * * * * * * * * * * * * * * * * * * * * * * * * * * //

dimensions      [0 2 -3 0 0 0 0];


internalField   nonuniform List<scalar> 
12441
(
0.0102964
0.009085
0.00832709
0.00770261
0.00718362
0.00674885
0.00638208
0.00607051
0.00580453
0.00557596
0.00537855
0.00520709
0.00505526
0.00492168
0.00479716
0.00469698
0.00491179
0.0207045
0.280219
3.06241
20.9493
39.25
0.010119
0.00892019
0.00818402
0.00757689
0.00707191
0.00664856
0.00629122
0.00598749
0.00572817
0.00550529
0.00531281
0.00514567
0.00499757
0.00486791
0.00474651
0.00465075
0.00482704
0.0204411
0.263786
3.05435
21.2389
40.2318
0.00989694
0.00871742
0.00800035
0.00740911
0.00691748
0.00650546
0.00615781
0.00586249
0.00561054
0.00539421
0.00520768
0.00504605
0.00490304
0.00477784
0.00466117
0.00457103
0.00465981
0.0185014
0.222965
3.0225
21.6174
41.3784
0.00967336
0.00851378
0.00781498
0.00723887
0.00675991
0.0063586
0.00602009
0.00573269
0.00548766
0.00527749
0.00509652
0.00494002
0.00480208
0.00468258
0.00457178
0.00448625
0.00450954
0.0161776
0.183385
2.9988
22.0844
42.5504
0.00942912
0.00828916
0.00760909
0.00704862
0.00658284
0.00619278
0.00586396
0.00558504
0.00534751
0.0051441
0.00496935
0.00481869
0.00468625
0.00457165
0.00446621
0.00438832
0.00435712
0.0140865
0.16304
3.00483
22.6026
43.6698
0.00922315
0.00809954
0.00743469
0.00688683
0.00643162
0.00605048
0.00572926
0.0054569
0.00522505
0.00502666
0.00485639
0.00470984
0.00458153
0.00447196
0.0043719
0.00429741
0.00428271
0.0141554
0.182327
3.11176
23.2359
44.7472
0.00900248
0.00789593
0.00724754
0.00671342
0.00626978
0.00589851
0.00558579
0.00532085
0.00509556
0.00490305
0.00473816
0.00459662
0.00447291
0.00436768
0.00427017
0.00420443
0.0060337
0.0231556
0.288399
3.41564
24.0868
45.7945
0.00882403
0.00773128
0.00709572
0.0065722
0.0061374
0.00577354
0.00546708
0.00520749
0.00498677
0.00479824
0.00463683
0.00449841
0.00437803
0.00427694
0.0041887
0.00516447
0.0341427
0.0790692
0.604232
4.05999
25.2833
46.8732
0.00862989
0.00755207
0.00693103
0.00641963
0.00599504
0.00563989
0.00534094
0.00508787
0.00487292
0.00468953
0.00453279
0.00439869
0.00428284
0.00414452
0.0053805
0.0266952
0.170816
0.292323
1.29646
5.20184
26.9619
48.0153
0.0084752
0.00740919
0.00679913
0.00629678
0.00587971
0.00553083
0.00523715
0.00498855
0.00477739
0.00459726
0.00444334
0.00431194
0.00419875
0.00427298
0.0248388
0.143192
0.491374
0.760615
2.38219
6.90241
29.2225
49.2846
0.00830575
0.00725272
0.0066554
0.00616368
0.00575557
0.00541433
0.00512722
0.00488434
0.00467821
0.00450254
0.00435264
0.00422589
0.00408481
0.00943025
0.108187
0.391795
0.923117
1.41013
3.63091
9.05076
32.0925
50.6975
0.00817074
0.00712802
0.00654026
0.00605639
0.00565477
0.00531893
0.00503633
0.00479726
0.00459433
0.0044214
0.00427386
0.00415058
0.00415866
0.0467927
0.286918
0.687527
1.30606
2.03496
4.78034
11.4177
35.5141
52.295
0.00802159
0.00699035
0.00641395
0.00593955
0.0055459
0.00521686
0.0049401
0.0047061
0.00450761
0.00433861
0.00419456
0.00403671
0.00829597
0.1507
0.495884
0.925388
1.57917
2.51902
5.72331
13.7793
39.3715
54.0597
0.00790071
0.00687872
0.00631087
0.00584349
0.00545565
0.00513144
0.00485872
0.00462813
0.00443252
0.00426598
0.00412406
0.00388058
0.0356512
0.292193
0.660149
1.08563
1.76048
2.86299
6.4681
15.9862
43.5203
56.0037
0.00776931
0.00675735
0.00619954
0.00574052
0.00535972
0.00504149
0.00477391
0.00454775
0.00435602
0.00419288
0.00405396
0.00425612
0.102704
0.417541
0.772133
1.19114
1.88206
3.1056
7.0581
17.968
47.8222
58.0812
0.00766024
0.00665669
0.00610659
0.00565391
0.00527835
0.00496448
0.00470054
0.00447747
0.00428835
0.00412746
0.00399053
0.00934063
0.189724
0.50929
0.847008
1.26291
1.96687
3.28197
7.53543
19.707
52.1575
60.2902
0.00754429
0.00654961
0.00600844
0.00556317
0.00519383
0.00488524
0.0046258
0.00440659
0.00422081
0.00406282
0.00392888
0.0307617
0.269252
0.573375
0.898906
1.31408
2.02894
3.41615
7.93238
21.214
56.4366
62.571
0.00744277
0.00645603
0.00592214
0.00548288
0.00511853
0.0048141
0.00455818
0.00434197
0.00415875
0.00400299
0.00387364
0.0732331
0.331056
0.618793
0.93666
1.35235
2.07664
3.52343
8.27183
22.511
60.5961
64.9213
0.00734015
0.00636112
0.00583507
0.00540231
0.00504339
0.00474355
0.00449152
0.00427863
0.00409827
0.00394499
0.00380951
0.122952
0.37658
0.652332
0.965473
1.38232
2.11508
3.61346
8.56951
23.6233
64.6004
67.2818
0.00724552
0.00627398
0.00575478
0.00532767
0.00497347
0.0046776
0.00442893
0.00421893
0.00404106
0.00388996
0.00426933
0.167659
0.410246
0.678251
0.988446
1.40679
2.14754
3.69238
8.836
24.5747
68.4332
69.6617
0.00715528
0.00619046
0.00567814
0.00525669
0.00490717
0.00461521
0.00436984
0.00416261
0.0039871
0.00383808
0.00973152
0.204023
0.435963
0.699148
1.0075
1.4276
2.17617
3.76406
9.07827
25.3872
72.0986
72.0102
0.00706451
0.00610704
0.00560145
0.00518561
0.00484081
0.00455286
0.00431091
0.00410666
0.00393372
0.00378747
0.0266488
0.232756
0.456413
0.716633
1.02388
1.44596
2.20247
3.83086
9.30082
26.0794
75.6139
74.3523
0.00698521
0.00603342
0.00553372
0.00512269
0.00478184
0.00449715
0.00425792
0.00405593
0.00388491
0.00374236
0.0527533
0.255557
0.473314
0.731739
1.03844
1.46274
2.22748
3.89407
9.50651
26.6684
79.0121
76.6493
0.00689872
0.00595404
0.00546084
0.00505527
0.00471904
0.00443831
0.00420249
0.00400347
0.00383505
0.00370255
0.0796901
0.273979
0.487762
0.745162
1.05178
1.47856
2.25191
3.95431
9.69716
27.1687
82.3368
78.9445
0.00683044
0.00589053
0.0054023
0.00500071
0.00466768
0.00438954
0.00415581
0.00395849
0.00379147
0.00368381
0.103027
0.289263
0.500465
0.757388
1.06432
1.49384
2.27613
4.01184
9.87399
27.5933
85.6444
81.212
0.00674475
0.00581216
0.00533067
0.00493479
0.00460665
0.00433274
0.00410268
0.00390858
0.0037444
0.00364418
0.12225
0.302313
0.5119
0.768767
1.07637
1.50889
2.30029
4.0668
10.0379
27.9536
88.9994
83.5114
0.00668559
0.00575682
0.00527937
0.00488665
0.00456101
0.00428905
0.00406056
0.00386769
0.00370456
0.00383095
0.13819
0.313754
0.522394
0.779554
1.08816
1.52387
2.32437
4.11928
10.1897
28.2595
92.4756
85.8273
0.00660187
0.0056804
0.00520969
0.00482273
0.00450206
0.00423443
0.0040097
0.00382016
0.00366003
0.00570933
0.151763
0.324016
0.532182
0.789934
1.09981
1.53886
2.34825
4.16941
10.33
28.5195
96.1487
88.2307
0.00655219
0.00563366
0.00516609
0.0047815
0.00446258
0.00419623
0.00397246
0.0037836
0.00362441
0.0107688
0.163652
0.333395
0.541433
0.800036
1.11142
1.55386
2.37182
4.21732
10.4596
28.7407
100.096
90.7106
0.00646811
0.00555724
0.00509677
0.0047183
0.00440471
0.00414304
0.00392335
0.00373808
0.00358301
0.0195785
0.174308
0.342096
0.550273
0.809949
1.12302
1.56883
2.39496
4.26312
10.5792
28.929
104.388
93.3406
0.00642587
0.00551707
0.0050589
0.00468205
0.00436956
0.00410862
0.00388942
0.00370446
0.00355184
0.0316329
0.184018
0.350266
0.558793
0.819728
1.1346
1.58372
2.4176
4.30692
10.6894
29.0894
109.086
96.1058
0.00634341
0.00544226
0.00499121
0.00462053
0.00431346
0.00405728
0.00384224
0.00366094
0.00351592
0.0456179
0.192967
0.358014
0.567057
0.829403
1.14614
1.59847
2.43968
4.34881
10.791
29.2265
114.237
99.0732
0.00630972
0.00540988
0.0049603
0.00459047
0.00428379
0.00402768
0.00381255
0.00363103
0.00349472
0.0601888
0.201282
0.365418
0.575111
0.838981
1.15761
1.61302
2.46115
4.38884
10.8847
29.3446
119.875
102.217
0.00622525
0.00533362
0.00489171
0.00452861
0.00422786
0.00397699
0.00376643
0.00358895
0.00347351
0.0743601
0.209053
0.372536
0.582983
0.848461
1.16898
1.62732
2.48199
4.42704
10.9711
29.4478
126.019
105.592
0.0061984
0.00530731
0.00486605
0.00450306
0.00420204
0.00395066
0.00373953
0.00356144
0.0034779
0.0875859
0.216348
0.37941
0.590688
0.85783
1.18021
1.64134
2.50216
4.46339
11.0509
29.5403
132.685
109.157
0.00611142
0.00522922
0.00479623
0.00444053
0.00414595
0.00390026
0.00369408
0.00352033
0.00354566
0.099607
0.223217
0.386068
0.598232
0.867069
1.19125
1.65504
2.52163
4.49786
11.1247
29.6254
139.877
112.957
0.00608786
0.00520584
0.00477309
0.00441708
0.00412187
0.00387537
0.00366838
0.00349384
0.00610153
0.110322
0.229692
0.392528
0.605612
0.876157
1.20208
1.66839
2.54036
4.53041
11.1933
29.7062
147.595
116.938
0.00599588
0.00512385
0.00470029
0.00435236
0.00406426
0.00382402
0.00362244
0.00345264
0.0235222
0.119652
0.235794
0.398801
0.612818
0.885067
1.21266
1.68135
2.55833
4.56093
11.2572
29.7842
155.824
121.137
0.00596756
0.00509636
0.00467357
0.00432576
0.00403739
0.00379667
0.00359461
0.00342482
0.0409417
0.127419
0.241537
0.404889
0.619839
0.893773
1.22297
1.69391
2.5755
4.58936
11.3171
29.8599
164.512
125.495
0.00586289
0.00500347
0.00459147
0.00425313
0.00397307
0.00373967
0.00354395
0.00338438
0.0498341
0.133693
0.246927
0.410788
0.626658
0.902246
1.23296
1.70601
2.5918
4.61558
11.3736
29.9325
173.525
130.045
0.00582129
0.004964
0.0045539
0.00421666
0.00393721
0.00370416
0.00350877
0.00333433
0.0545002
0.138731
0.251972
0.41649
0.633256
0.910453
1.24261
1.71764
2.6072
4.6395
11.4271
30.0005
182.594
134.727
0.00569966
0.00485648
0.00445889
0.00413236
0.0038622
0.00363727
0.00344897
0.00326913
0.0572275
0.142796
0.25668
0.421983
0.639613
0.918361
1.25187
1.72875
2.62163
4.66104
11.4778
30.0626
191.241
139.588
0.00561736
0.00478993
0.00440437
0.00408617
0.00382162
0.00360033
0.00341418
0.00344044
0.0589654
0.146103
0.26106
0.427251
0.645711
0.925932
1.26072
1.7393
2.63503
4.68016
11.5252
30.1191
198.774
144.654
0.00525495
0.0044607
0.00411247
0.00382692
0.00358969
0.00339121
0.00322379
0.00351694
0.0601366
0.148808
0.265123
0.432276
0.651531
0.933127
1.26911
1.74924
2.64734
4.69687
11.5683
30.1712
204.388
150.447
95.0235
43.8609
24.9615
20.075
21.2936
18.8295
18.5874
16.5793
15.4941
14.8773
14.0918
13.1809
13.6761
15.4656
18.2437
20.9691
23.3826
26.1741
29.367
32.0144
33.8529
35.5728
37.267
38.5799
39.5748
39.8655
39.4209
38.4428
37.3084
35.6098
33.5613
31.6661
31.5545
29.6766
4.59787
94.6475
43.8343
24.9667
20.2071
21.6239
19.1054
18.8781
16.8038
15.6967
15.0517
14.1775
13.2516
13.7594
15.565
18.3609
21.0755
23.4505
26.2609
29.567
32.4084
34.4068
36.1623
37.8472
39.1624
40.1913
40.5153
40.0773
39.053
37.8389
36.0444
33.924
31.954
31.8735
30.0306
4.61523
93.9266
43.7743
24.9778
20.4769
22.2837
19.6601
19.4476
17.2417
16.097
15.3936
14.3552
13.4015
13.9332
15.7763
18.6115
21.2959
23.5915
26.4278
29.9467
33.2069
35.5843
37.4332
39.0889
40.386
41.4641
41.8472
41.4282
40.3217
38.9472
36.9473
34.6704
32.5438
32.5235
30.181
4.64736
92.8104
43.6757
24.9979
20.8977
23.2641
20.4935
20.2731
17.8773
16.6859
15.8965
14.6476
13.6549
14.2212
16.1326
19.0397
21.6897
23.8618
26.7109
30.5465
34.4982
37.5381
39.5693
41.1594
42.3806
43.4907
43.9426
43.5579
42.3438
40.7246
38.3867
35.8476
33.4637
33.5311
30.2812
4.69588
91.3035
43.5335
25.032
21.4804
24.5504
21.5996
21.3326
18.7007
17.456
16.5545
15.0805
14.0396
14.6508
16.6659
19.693
22.3347
24.3533
27.1894
31.4498
36.4274
40.5123
42.8801
44.35
45.3773
46.446
46.9423
46.6027
45.2669
43.3135
40.4695
37.528
34.7574
34.9375
30.4588
4.76318
89.3553
43.3423
25.0874
22.2382
26.1395
22.9804
22.619
19.7147
18.4098
17.3707
15.6782
14.583
15.2438
17.3974
20.6072
23.3036
25.1855
27.9948
32.7948
39.2026
44.8603
47.8511
49.1449
49.7691
50.625
51.0753
50.7686
49.3057
46.9233
43.3551
39.8181
36.4884
36.8011
30.8206
4.85233
87.0012
43.0968
25.175
23.1928
28.0454
24.6527
24.1438
20.9348
19.5619
18.3606
16.4687
15.313
16.0197
18.3473
21.8206
24.666
26.4881
29.3124
34.792
43.1099
51.0669
55.2125
56.3268
56.2101
56.5154
56.7045
56.3614
54.7641
51.8531
47.275
42.8704
38.7453
39.1998
31.463
4.96714
84.2135
42.7917
25.3104
24.3751
30.2937
26.6453
25.9338
22.3886
20.9396
19.5535
17.4899
16.2658
17.0056
19.5503
23.399
26.5173
28.4036
31.3723
37.7391
48.5344
59.7614
66.001
67.1219
65.7707
64.9118
64.4001
63.8305
62.0654
58.5205
52.5583
46.9005
41.6495
42.234
32.4839
5.11227
81.0699
42.421
25.5157
25.8232
32.914
28.9942
28.0267
24.1134
22.5805
20.9908
18.7949
17.4922
18.2448
21.0621
25.45
29.011
31.1176
34.4529
42.034
55.9834
71.6832
81.5198
83.3082
80.1322
77.0748
75.0375
73.8264
71.7872
67.4933
59.6618
52.207
45.3644
46.0298
33.997
5.29333
77.574
41.9782
25.8217
27.5787
35.9324
31.7372
30.4665
26.1551
24.5309
22.7255
20.4539
19.0635
19.8023
22.9585
28.1213
32.3796
34.9037
38.9079
48.1822
66.0667
87.4964
102.917
106.953
101.627
94.8544
89.8821
87.2425
84.6791
79.5015
69.1909
59.1899
50.1052
50.7383
36.146
5.51695
73.8369
41.4563
26.2698
29.6817
39.3662
34.9093
33.2993
28.5655
26.8435
24.8199
22.5543
21.0739
21.7707
25.3334
31.5886
36.9373
40.1533
45.1944
56.7682
79.3344
107.27
129.914
138.863
132.354
120.382
110.472
105.139
101.586
95.3667
81.8687
68.3489
56.1421
56.5298
39.1221
5.79074
69.8857
40.8471
26.9141
32.1664
43.2199
38.5388
36.5681
31.3998
29.5733
27.3426
25.1968
23.6433
24.2772
28.297
36.0237
43.0429
47.3636
53.8306
68.2742
95.7989
129.596
158.914
175.068
170.842
154.241
137.76
128.271
123.098
115.693
98.3427
80.2103
63.7852
63.5709
43.1822
6.12301
65.8489
40.1418
27.8219
35.0569
47.4819
42.6451
40.3081
34.7116
32.7731
30.3623
28.4823
26.913
27.4936
31.9774
41.5368
50.9664
56.9853
65.1573
82.6001
114.194
151.184
183.314
205.35
207.541
191.364
169.775
155.802
148.649
140.076
118.625
95.0781
73.3154
71.9719
48.6616
6.52181
61.7626
39.331
29.0711
38.364
52.1244
47.238
44.5427
38.5459
36.4874
33.9397
32.4943
31.0306
31.6366
36.5139
48.086
60.6016
68.999
78.7667
98.3598
131.747
168.297
198.25
220.873
228.983
219.643
199.18
183.528
175.186
165.857
141.048
112.477
84.812
81.6841
55.9634
6.99295
57.7502
38.4061
30.7436
42.0836
57.1058
52.3132
49.2781
42.9354
40.7467
38.1157
37.2732
36.1141
36.9406
42.0464
55.3863
71.0804
82.2076
92.8415
112.842
145.531
179.23
204.212
222.443
231.171
229.324
216.272
204.253
196.929
187.612
161.401
130.385
97.8319
92.3407
65.4713
7.53613
53.8399
37.3619
32.9136
46.2039
62.3732
57.8475
54.5021
47.8969
45.5677
42.9049
42.795
42.1969
43.5814
48.6496
62.8827
80.709
93.99
104.446
123.478
154.432
184.921
204.796
216.736
221.346
222.422
217.448
212.505
208.223
199.434
174.127
145.074
111.039
103.088
77.2924
8.13854
50.1273
36.2015
35.6338
50.6815
67.8763
63.7955
60.182
53.4292
50.9474
48.2939
48.9612
49.1676
51.5355
56.23
69.8912
87.713
101.582
111.382
129.665
159.513
187.459
203.048
208.98
207.84
207.675
207.397
208.75
207.488
198.95
175.955
152.718
122.189
112.562
90.7462
8.76637
46.6135
34.9449
38.921
55.4576
73.5532
70.0831
66.2621
59.5096
56.8689
54.2527
55.6333
56.7554
60.4122
64.3974
75.8834
91.4238
104.211
113.799
132.749
162.648
188.532
200.307
201.09
194.712
191.805
192.982
197.631
197.552
188.509
168.145
151.95
128.923
119.211
103.804
9.35787
43.349
33.6415
42.728
60.4687
79.3285
76.602
72.6602
66.0877
63.3035
60.7464
62.6812
64.6142
69.4654
72.5042
80.7412
92.6076
103.41
113.664
134.697
165.292
188.927
196.715
193.031
182.752
177.493
178.531
183.707
182.672
172.59
154.734
144.513
130.051
121.922
113.284
9.82676
40.3033
32.3771
46.9421
65.6369
85.1143
83.2129
79.2665
73.0792
70.2084
67.7585
70.0494
72.4866
77.929
79.9084
84.7594
92.7506
101.547
113.181
136.986
168.054
188.662
191.958
184.277
171.541
165.07
165.585
169.546
166.123
155.024
139.557
133.496
126.117
120.521
116.444
10.0837
37.4893
31.2641
51.397
70.8685
90.8158
89.7586
85.9488
80.3633
77.5196
75.2495
77.7604
80.3565
85.5371
86.4271
88.4914
93.2038
100.444
113.888
140.388
170.894
187.378
185.725
174.518
160.615
154.098
154.197
156.045
149.716
138.075
124.929
121.474
118.777
115.713
112.763
10.0691
34.8769
30.426
55.8936
76.0595
96.339
96.0863
92.5666
87.7903
85.1483
83.1743
85.8912
88.451
92.6987
92.4962
92.5751
94.9048
101.186
116.625
145.075
173.399
184.642
177.915
163.838
149.813
144.1
143.928
143.29
134.263
122.746
111.824
109.909
109.777
108.604
103.909
9.77606
32.4767
29.9799
60.2401
81.1019
101.599
102.067
98.9863
95.1996
92.9809
91.4651
94.4966
97.1152
100.256
99.0579
97.6938
98.4352
104.314
121.773
150.887
175.074
180.184
168.679
152.595
139.246
134.768
134.311
131.134
120.074
109.314
100.441
99.3866
100.37
100.225
92.2818
9.24771
30.2708
30.0249
64.291
85.8901
106.523
107.605
105.095
102.441
100.892
100.034
103.587
106.621
109.013
107.159
104.575
104.247
110.186
129.479
157.467
175.485
173.96
158.371
141.254
129.126
125.941
125.016
119.475
107.249
97.7073
90.6354
90.0066
91.249
91.3197
79.8383
8.5563
28.2673
30.6381
67.9656
90.3279
111.056
112.64
110.807
109.392
108.758
108.779
113.108
117.116
119.498
117.739
114.044
112.802
119.088
139.757
164.446
174.407
166.184
147.463
130.243
119.643
117.538
115.869
108.322
95.7961
87.7214
82.1554
81.6622
82.7026
82.3453
67.7948
7.7794
26.4614
31.8745
71.2423
94.3391
115.16
117.147
116.07
115.97
116.48
117.616
122.98
128.58
131.924
131.403
126.999
124.738
131.411
152.543
171.468
171.82
157.239
136.453
119.891
110.899
109.507
106.83
97.7698
85.6724
79.116
74.7444
74.1863
74.7961
73.5639
56.7862
6.98351
24.8623
33.7687
74.1393
97.8788
118.822
121.133
120.865
122.135
123.996
126.493
133.18
141.032
146.416
148.573
144.384
140.886
147.59
167.665
178.261
167.935
147.633
125.783
110.394
102.909
101.803
97.948
87.9457
76.7971
71.6604
68.1819
67.4181
67.4931
65.1297
47.0839
6.21686
23.4808
36.3344
76.6948
100.939
122.052
124.632
125.208
127.893
131.291
135.411
143.755
154.56
163.18
169.667
167.129
162.287
168.14
184.78
184.524
163.069
137.869
115.786
101.834
95.6202
94.3867
89.3302
78.9574
69.0609
65.1512
62.2919
61.2254
60.7267
57.149
38.7502
5.50922
22.3333
39.562
78.9495
103.544
124.881
127.702
129.144
133.289
138.396
144.421
154.818
169.37
182.651
195.475
196.259
189.979
193.327
203.225
189.921
157.598
128.403
106.672
94.1998
88.9433
87.239
81.1031
70.8654
62.3372
59.4167
56.9409
55.5097
54.4343
49.706
31.7291
4.87521
21.4546
43.4125
80.9384
105.74
127.356
130.411
132.74
138.398
145.391
153.635
166.562
185.789
205.495
227.161
232.952
224.753
222.919
221.889
193.964
151.803
119.543
98.5246
87.4181
82.7781
80.3621
73.3862
63.6784
56.4944
54.3168
52.0307
50.2026
48.5711
42.8691
25.9016
4.3187
20.8892
47.8078
82.6883
107.584
129.531
132.832
136.074
143.32
152.395
163.221
179.25
204.275
232.615
266.198
278.254
266.483
255.472
239.119
196.129
145.859
111.467
91.3314
81.3792
77.0333
73.7826
66.2706
57.3589
51.4046
49.7397
47.4921
45.2594
43.1123
36.6866
21.1195
3.83682
20.7351
52.625
84.2201
109.138
131.465
135.038
139.236
148.175
159.571
173.418
193.249
225.436
265.095
313.805
331.951
313.172
288.035
252.887
195.875
139.779
104.198
85.0077
75.9631
71.6355
67.5418
59.8111
51.8382
46.9509
45.5976
43.2767
40.6534
38.049
31.1818
17.2283
3.42303
21.1259
57.6983
85.5533
110.46
133.216
137.099
142.32
153.108
167.135
184.557
209.065
250.087
304.18
370.124
390.76
359.662
315.964
261.189
192.881
133.499
97.6682
79.4293
71.0498
66.536
61.6875
54.0234
47.0301
43.0302
41.8229
39.3523
36.37
33.3822
26.3514
14.0804
3.06925
22.2957
62.8357
86.709
111.607
134.843
139.089
145.434
158.3
175.384
197.12
227.441
279.373
351.166
432.742
446.781
397.764
334.269
262.693
187.074
126.912
91.7367
74.456
66.5341
61.7073
56.2605
48.8907
42.8432
39.5551
38.3641
35.697
32.4013
29.116
22.1679
11.5429
2.76716
24.5223
67.8466
87.7113
112.63
136.408
141.086
148.706
163.989
184.743
211.834
249.513
314.987
407.155
495.404
488.739
418.913
339.403
257.192
178.74
119.968
86.2549
69.9505
62.3268
57.1404
51.2887
44.3717
39.1886
36.4524
35.1816
32.2962
28.7433
25.2524
18.5857
9.50076
2.50893
28.1637
72.5701
88.5857
113.576
137.974
143.181
152.303
170.512
195.853
229.85
277.122
359.492
472.03
547.723
506.869
418.832
331.201
245.659
168.358
112.668
81.0796
65.7898
58.3598
52.8359
46.781
40.4109
35.9854
33.6629
32.2455
29.1393
25.3922
21.7876
15.5471
7.85708
2.28753
33.4954
76.8999
89.3567
114.488
139.614
145.489
156.453
178.368
209.733
253.063
313.291
416.502
541.938
578.077
498.222
399.612
312.439
229.753
156.536
105.092
76.1089
61.8733
54.5823
48.7986
42.7291
36.9452
33.1625
31.1387
29.5323
26.2182
22.3426
18.7107
12.9893
6.53222
2.09688
40.701
80.7895
90.0463
115.409
141.416
148.164
161.493
188.345
228.073
284.681
362.904
489.613
605.19
578.373
467.203
367.657
287.3
211.222
143.825
97.3486
71.2741
58.1247
50.9613
45.0306
39.1088
33.9113
30.6601
28.842
27.0236
23.525
19.5867
16.0039
10.849
5.46151
1.9318
49.6321
84.2437
90.674
116.386
143.498
151.437
167.948
201.744
253.789
330.097
432.731
576.767
641.892
548.099
421.972
329.666
259.339
191.454
130.72
89.5755
66.5508
54.4949
47.4766
41.5288
35.885
31.2491
28.4287
26.743
24.7043
21.0521
17.1138
13.6433
9.06604
4.59313
1.78796
59.8743
87.3098
91.2582
117.477
146.031
155.668
176.691
220.835
292.037
397.59
527.022
657.271
634.029
494.014
370.527
290.542
230.985
171.399
117.599
81.9074
61.9401
50.9588
44.1198
38.2832
33.0155
28.9037
26.4283
24.8189
22.5622
18.7914
14.9101
11.6011
7.58558
3.88581
1.66175
70.5911
90.0645
91.8182
118.763
149.282
161.468
189.264
249.768
351.692
494.911
629.54
688.637
579.866
427.25
318.997
253.085
203.475
151.632
104.777
74.4818
57.4681
47.5135
40.8913
35.2788
30.4553
26.8266
24.627
23.0522
20.5866
16.7339
12.9594
9.84688
6.35887
3.30689
1.55019
80.9187
92.6023
92.3777
120.368
153.715
169.952
208.602
296.333
444.578
608.705
684.18
642.924
495.515
358.643
271.268
218.764
177.477
132.521
92.4963
67.4183
53.1698
44.1729
37.7999
32.4971
28.1591
24.9751
22.9991
21.4298
18.7688
14.8701
11.2434
8.34955
5.34364
2.83057
1.45079
89.3733
95.0356
92.9716
122.508
160.201
183.351
240.705
373.668
565.919
672.205
640.919
539.983
403.37
295.796
229.377
188.285
153.308
114.315
80.9579
60.8209
49.0867
40.9634
34.8613
29.9211
26.0842
23.3115
21.5237
19.9417
17.1013
13.1898
9.74271
7.0785
4.50378
2.43649
1.36151
95.1437
97.5179
93.6594
125.583
170.577
206.597
297.989
487.527
640.01
619.773
524.364
423.338
319.74
242.016
193.805
161.894
131.266
97.2705
70.3148
54.7595
45.254
37.9159
32.0973
27.5376
24.1919
21.8023
20.1828
18.5801
15.5775
11.6826
8.43733
6.00455
3.80885
2.1086
1.28066
0.00337798
0.00250661
0.00228152
0.00217172
0.00213224
0.00213659
0.0021681
0.00354363
0.0607517
0.150477
0.267935
0.435803
0.655576
0.93805
1.2748
1.7559
2.65532
4.70728
11.5959
30.2102
206.605
160.196
0.00334456
0.00224298
0.00184398
0.00160954
0.00149002
0.00145388
0.00148649
0.00356118
0.0610543
0.151383
0.269552
0.437739
0.657632
0.940413
1.2774
1.75883
2.65868
4.71173
11.6107
30.2394
207.499
170.348
0.00354061
0.00237587
0.00188237
0.00154534
0.00132455
0.00119525
0.00116516
0.00357477
0.0612527
0.15205
0.270816
0.439129
0.658893
0.941668
1.27859
1.75997
2.6597
4.71313
11.6191
30.2697
207.542
180.038
0.00367096
0.00251742
0.00200369
0.0016296
0.00135817
0.00116757
0.00103255
0.00358478
0.0613618
0.152493
0.271727
0.439965
0.659343
0.941798
1.27833
1.75929
2.6583
4.71133
11.6197
30.3016
206.798
189.135
0.00392271
0.00276383
0.00222591
0.00182134
0.00151336
0.00127929
0.000996932
0.00359177
0.0613905
0.152725
0.272282
0.440239
0.658972
0.940793
1.27662
1.75676
2.65444
4.7062
11.611
30.3354
205.312
198.098
0.00406037
0.00292969
0.00239807
0.00199127
0.00167411
0.00142392
0.000985015
0.00359617
0.0613437
0.152749
0.272478
0.439946
0.657773
0.938649
1.27344
1.75236
2.64807
4.69761
11.5917
30.3712
203.116
207.098
0.00434061
0.00320785
0.00265889
0.00223238
0.0018946
0.00162286
0.00105341
0.00359831
0.0612241
0.15257
0.272314
0.439085
0.655746
0.93537
1.2688
1.74608
2.63913
4.68546
11.5605
30.4087
200.251
216.13
0.00447873
0.00337923
0.00284345
0.00242257
0.00208519
0.00180965
0.00117968
0.00359826
0.0610332
0.152192
0.271791
0.437658
0.652896
0.930962
1.2627
1.73792
2.62759
4.66965
11.5163
30.447
196.765
225.134
0.00478416
0.00368448
0.00313395
0.00269575
0.00234042
0.00204694
0.00130412
0.00359592
0.0607714
0.151615
0.270914
0.43567
0.649236
0.925443
1.25518
1.72789
2.61342
4.65007
11.4584
30.4847
192.716
234.038
0.00490884
0.00384884
0.00331907
0.00289376
0.00254556
0.00225458
0.00139473
0.00359103
0.0604387
0.150843
0.269689
0.433133
0.644784
0.918836
1.24626
1.71599
2.59658
4.62663
11.3861
30.5195
188.163
242.757
0.0052295
0.00417108
0.00362935
0.00318926
0.00282543
0.00251877
0.00150882
0.00358334
0.0600343
0.149878
0.268126
0.430061
0.639565
0.91117
1.23597
1.70226
2.57703
4.59924
11.2988
30.5483
183.174
251.18
0.00533943
0.00432469
0.00380946
0.00338819
0.00303727
0.00273868
0.00162874
0.00357241
0.0595567
0.148723
0.266238
0.426475
0.633609
0.902482
1.22436
1.68673
2.55476
4.5678
11.1962
30.567
177.814
259.174
0.00567218
0.00466074
0.00413603
0.00370213
0.00333741
0.00302483
0.0018331
0.00355785
0.0590032
0.147381
0.264037
0.422396
0.626952
0.892814
1.21148
1.66945
2.52974
4.53219
11.078
30.5705
172.154
266.589
0.00575639
0.00479291
0.00430078
0.0038921
0.00354661
0.00324822
0.0021109
0.003539
0.0583694
0.145856
0.261537
0.417854
0.619631
0.882217
1.1974
1.65048
2.50199
4.49228
10.9443
30.5526
166.26
273.271
0.00609215
0.00513312
0.00463362
0.00421434
0.00385697
0.00354654
0.00251502
0.00351521
0.0576483
0.144147
0.258753
0.412875
0.611691
0.870741
1.18218
1.62989
2.47151
4.44794
10.7949
30.5064
160.198
279.074
0.00615229
0.00524297
0.00477983
0.00439026
0.00405692
0.00376564
0.00298107
0.00348509
0.0568291
0.142253
0.255697
0.407494
0.603178
0.858444
1.16589
1.60776
2.43835
4.39902
10.6301
30.4239
154.026
283.865
0.00648679
0.00558288
0.00511412
0.00471554
0.00437176
0.0040698
0.00349304
0.00344732
0.0558952
0.140169
0.252379
0.401742
0.594141
0.845386
1.14862
1.5842
2.40256
4.34535
10.4502
30.2967
147.801
287.535
0.00651847
0.00566548
0.00523623
0.00487125
0.00455578
0.00427746
0.00389001
0.00339842
0.0548219
0.137883
0.248807
0.395653
0.584631
0.83163
1.13043
1.55929
2.36423
4.28678
10.2555
30.1159
141.57
290.001
0.00683902
0.00599225
0.00555917
0.00518702
0.00486292
0.00457577
0.00426666
0.00333952
0.0535722
0.135374
0.24498
0.389258
0.574701
0.81724
1.11141
1.53314
2.32346
4.22313
10.0467
29.8727
135.375
291.208
0.0068536
0.00605577
0.00566207
0.00532437
0.00503014
0.00476868
0.00452263
0.00327945
0.0520918
0.132608
0.24089
0.382585
0.564404
0.802281
1.09164
1.50588
2.28039
4.15426
9.82421
29.5583
129.249
291.125
0.0071601
0.00636921
0.00597317
0.0056297
0.00532805
0.00505881
0.00481756
0.0032767
0.0503013
0.12953
0.236518
0.375654
0.553794
0.78682
1.0712
1.47761
2.23516
4.08003
9.58897
29.1648
123.221
289.742
0.00715672
0.00641254
0.00605535
0.00574672
0.00547601
0.00523403
0.00501865
0.00349309
0.0480862
0.126059
0.231824
0.368477
0.54292
0.770926
1.05017
1.44845
2.18795
4.00036
9.34177
28.6854
117.309
287.064
0.00744655
0.00670948
0.00635087
0.00603743
0.00576023
0.00551129
0.0052875
0.00400855
0.0452862
0.122073
0.226742
0.361046
0.531828
0.754667
1.02864
1.41851
2.13894
3.91519
9.08354
28.1147
111.531
283.11
0.00743063
0.00673704
0.00641556
0.0061361
0.00588966
0.00566833
0.00546718
0.00462643
0.0416856
0.117395
0.22117
0.353333
0.520551
0.73811
1.00669
1.38792
2.08835
3.82453
8.81527
27.4494
105.894
277.907
0.00770415
0.0070176
0.00669533
0.00641172
0.00615938
0.00593155
0.00572299
0.00522762
0.03703
0.111771
0.214951
0.345272
0.509106
0.721321
0.984377
1.3568
2.03639
3.72849
8.53794
26.6885
100.404
271.492
0.00767678
0.00703043
0.00674328
0.00649242
0.00627023
0.0060699
0.00588545
0.00561111
0.0311178
0.104847
0.207852
0.336744
0.497482
0.704357
0.961797
1.32524
1.9833
3.62722
8.25256
25.8334
95.061
263.906
0.00793327
0.00729359
0.00700593
0.00675131
0.0065236
0.00631709
0.00612651
0.0059194
0.0240628
0.0961628
0.199534
0.327558
0.485621
0.68726
0.939017
1.29337
1.92934
3.52102
7.96009
24.8887
89.8628
255.203
0.00789955
0.00729639
0.00704125
0.00681742
0.00661846
0.00643851
0.00627203
0.0061074
0.016664
0.0852001
0.189509
0.317418
0.473401
0.670047
0.916103
1.26131
1.87478
3.41027
7.66145
23.8614
84.8024
245.448
0.00814115
0.00754415
0.00728858
0.00706119
0.00685687
0.00667083
0.00649847
0.00633378
0.0106153
0.0715911
0.177102
0.30588
0.4606
0.652679
0.893104
1.22914
1.81988
3.2955
7.35754
22.7613
79.8719
234.719
0.00810336
0.00753939
0.00731372
0.00711505
0.00693791
0.00677726
0.00662826
0.00648571
0.00734076
0.0556026
0.161434
0.292292
0.446857
0.635039
0.870041
1.19698
1.76496
3.17739
7.04923
21.6006
75.0594
223.112
0.00833019
0.00777182
0.00754572
0.00734362
0.00716129
0.00699467
0.00683986
0.00669296
0.00649589
0.0387347
0.141538
0.275718
0.431619
0.616881
0.846872
1.16489
1.71033
3.05676
6.73742
20.3933
70.3529
210.741
0.00829264
0.00776377
0.00756477
0.00738902
0.00723187
0.00708902
0.00695627
0.00682951
0.00657577
0.0237383
0.116794
0.254866
0.414051
0.597779
0.823461
1.13292
1.65628
2.93461
6.42314
19.1547
65.7385
197.742
0.00850596
0.00798217
0.00778273
0.0076037
0.00744157
0.0072929
0.00715437
0.0070229
0.00683796
0.0135021
0.0879071
0.228133
0.392931
0.577045
0.79951
1.10103
1.60312
2.81207
6.10761
17.901
61.2049
184.263
0.00847099
0.00797344
0.00779837
0.00764331
0.00750432
0.00737767
0.00725974
0.00714704
0.00701835
0.00859474
0.0581337
0.194005
0.366506
0.553636
0.7745
1.06905
1.55107
2.69042
5.7924
16.6482
56.7427
170.473
0.0086716
0.00817863
0.00800312
0.00784496
0.00770122
0.00756897
0.0074454
0.00732787
0.0072083
0.00709796
0.0330676
0.15229
0.332442
0.525998
0.747582
1.03664
1.50023
2.571
5.47945
15.4122
52.3497
156.546
0.00864155
0.00817175
0.00801798
0.00788141
0.00775869
0.00764661
0.00754202
0.00744188
0.00734142
0.00694798
0.0172082
0.106198
0.288156
0.491879
0.717459
1.00318
1.45055
2.45507
5.17117
14.2077
48.0316
142.664
0.00883155
0.00836585
0.00821157
0.00807204
0.00794476
0.00782726
0.00771714
0.00761211
0.0075092
0.00720049
0.0101407
0.0635216
0.232262
0.448204
0.682197
0.967685
1.40166
2.34371
4.87033