/*--------------------------------*- C++ -*----------------------------------*\
| =========                 |                                                 |
| \\      /  F ield         | OpenFOAM: The Open Source CFD Toolbox           |
|  \\    /   O peration     | Version:  v1912                                 |
|   \\  /    A nd           | Website:  www.openfoam.com                      |
|    \\/     M anipulation  |                                                 |
\*---------------------------------------------------------------------------*/
FoamFile
{
    version     2.0;
    format      ascii;
    class       volScalarField;
    location    "580";
    object      nut;
}
// * * * * * * * * * * * * * * * * * * * * * * * * * * * * * * * * * * * * * //

dimensions      [0 2 -1 0 0 0 0];


internalField   nonuniform List<scalar> 
12441
(
5.82185e-24
1.79047e-20
8.1047e-20
3.32534e-19
1.06829e-18
3.88833e-18
1.01058e-17
2.50065e-17
6.13882e-17
1.27543e-16
3.05689e-16
7.71595e-16
2.17665e-15
7.39538e-15
1.03674e-13
1.89305e-11
0.000192716
0.000920348
0.00296913
0.00259978
0.00364753
0.00775321
6.34178e-24
3.03335e-20
1.11726e-19
4.2393e-19
1.30205e-18
4.80723e-18
1.21985e-17
3.00115e-17
7.36139e-17
1.54466e-16
3.79838e-16
1.02937e-15
2.82193e-15
9.36413e-15
1.13086e-13
3.89614e-11
5.74568e-05
0.0011158
0.00340165
0.0028308
0.00401026
0.00781733
6.36454e-24
3.58937e-20
1.20772e-19
4.48109e-19
1.37768e-18
4.90661e-18
1.29288e-17
3.20422e-17
8.05174e-17
1.71784e-16
4.17921e-16
1.11763e-15
2.77824e-15
7.65616e-15
5.35355e-14
6.56629e-12
1.10692e-05
0.000820214
0.00135945
0.00267144
0.00416359
0.0078909
6.319e-24
3.76897e-20
1.18527e-19
4.29287e-19
1.32528e-18
4.7134e-18
1.25131e-17
3.13275e-17
7.84961e-17
1.73683e-16
4.23784e-16
1.15415e-15
2.60455e-15
8.46423e-15
3.85077e-14
1.5414e-12
1.62285e-06
0.000573344
0.00101527
0.00259634
0.00432641
0.0079647
6.28497e-24
4.38808e-20
1.29772e-19
4.58289e-19
1.40261e-18
4.77913e-18
1.30904e-17
3.27949e-17
8.42984e-17
1.87532e-16
4.54187e-16
1.28483e-15
3.01169e-15
4.06736e-14
2.47281e-13
2.29514e-12
1.39525e-07
0.00040602
0.000998455
0.00258463
0.00446662
0.00803394
6.23479e-24
4.12858e-20
1.20532e-19
4.29163e-19
1.34264e-18
4.62185e-18
1.27498e-17
3.23929e-17
8.28939e-17
1.92693e-16
4.76965e-16
1.44572e-15
4.52256e-15
1.32741e-12
1.1898e-11
5.09764e-11
4.58175e-07
0.000375679
0.00106849
0.00264145
0.00459229
0.00809948
6.1999e-24
5.02612e-20
1.37788e-19
4.75739e-19
1.46005e-18
4.79218e-18
1.35924e-17
3.44531e-17
9.07012e-17
2.11128e-16
5.20858e-16
2.0003e-15
2.49626e-14
4.14125e-11
6.58099e-10
9.36436e-09
1.87502e-05
0.000399912
0.00125884
0.00282295
0.00473554
0.00816218
6.15011e-24
4.34498e-20
1.23164e-19
4.4013e-19
1.40807e-18
4.72251e-18
1.35115e-17
3.48442e-17
9.13177e-17
2.23851e-16
5.72524e-16
5.43656e-15
6.08439e-13
2.25108e-09
8.41768e-08
4.98058e-06
0.000197394
0.000467612
0.0017096
0.00318992
0.00492131
0.00822577
6.11734e-24
5.57013e-20
1.46122e-19
4.99645e-19
1.55401e-18
4.95832e-18
1.46109e-17
3.75695e-17
1.02071e-16
2.50947e-16
6.45357e-16
6.13564e-14
2.58415e-11
7.4204e-08
1.04648e-05
0.000156588
0.000829343
0.000849876
0.00263819
0.00381135
0.00518067
0.00829204
6.07047e-24
4.43472e-20
1.25428e-19
4.56601e-19
1.50743e-18
4.95329e-18
1.47465e-17
3.87241e-17
1.04875e-16
2.75122e-16
7.48628e-16
1.68214e-12
1.08094e-09
4.43564e-06
0.000195271
0.000648733
0.00183902
0.00165273
0.0043653
0.00476363
0.00552602
0.00836448
6.04132e-24
6.0257e-20
1.53425e-19
5.25872e-19
1.67259e-18
5.20557e-18
1.6024e-17
4.20329e-17
1.1929e-16
3.17368e-16
8.92079e-16
5.2314e-11
5.49233e-08
8.29469e-05
0.000768175
0.00192085
0.00427723
0.00341543
0.00738594
0.00615027
0.00597048
0.00844366
5.99589e-24
4.46265e-20
1.27728e-19
4.7691e-19
1.63357e-18
5.28057e-18
1.64011e-17
4.40632e-17
1.25494e-16
3.64627e-16
1.15861e-15
1.4569e-09
3.24398e-06
0.000362555
0.00180658
0.00464965
0.00945807
0.00709053
0.012218
0.00802195
0.00650392
0.00853143
5.9703e-24
6.41462e-20
1.60441e-19
5.53772e-19
1.81482e-18
5.54149e-18
1.79071e-17
4.82196e-17
1.46697e-16
4.44721e-16
1.69454e-15
3.52276e-08
7.33634e-05
0.00120984
0.00482988
0.0109862
0.0196697
0.0139988
0.0190629
0.0103667
0.00711851
0.00862633
5.92631e-24
4.43229e-20
1.29662e-19
4.99279e-19
1.78306e-18
5.69148e-18
1.85311e-17
5.13813e-17
1.59844e-16
5.59145e-16
3.60133e-15
7.9692e-07
0.00036341
0.00338781
0.0114615
0.0230206
0.0370011
0.0252814
0.0276126
0.0130653
0.00778379
0.00872852
5.90396e-24
6.75123e-20
1.66645e-19
5.82581e-19
1.97784e-18
5.93965e-18
2.02675e-17
5.67795e-17
1.96045e-16
7.78692e-16
1.65168e-14
1.52283e-05
0.00126646
0.0085762
0.0239349
0.0425746
0.0624335
0.0411127
0.0370409
0.0159647
0.00848103
0.00883515
5.86025e-24
4.39566e-20
1.31989e-19
5.2477e-19
1.95765e-18
6.18507e-18
2.12005e-17
6.16758e-17
2.28156e-16
1.21624e-15
3.02155e-13
0.000140263
0.00340109
0.0186248
0.0440332
0.0703111
0.0950643
0.0601438
0.0463195
0.0188689
0.00917501
0.00894576
5.84119e-24
7.0537e-20
1.73494e-19
6.15081e-19
2.17044e-18
6.43904e-18
2.33088e-17
6.93744e-17
3.08215e-16
2.30488e-15
1.26022e-11
0.000558847
0.00829914
0.0352066
0.0719696
0.10538
0.131739
0.0797399
0.0545317
0.0216398
0.00985175
0.00905718
5.79721e-24
4.35e-20
1.34485e-19
5.53102e-19
2.16051e-18
6.77108e-18
2.46165e-17
7.72256e-17
4.08444e-16
5.44547e-15
5.4798e-10
0.00153233
0.0175297
0.0591931
0.107085
0.145091
0.167548
0.0969168
0.0611985
0.0241542
0.0104847
0.00916919
5.78088e-24
7.32608e-20
1.80279e-19
6.49095e-19
2.38784e-18
7.01115e-18
2.71806e-17
8.90664e-17
6.61692e-16
1.69226e-14
4.40901e-08
0.00400128
0.0326753
0.0897028
0.146631
0.185404
0.197189
0.109609
0.0662548
0.0263774
0.0110736
0.00927899
5.73633e-24
4.30513e-20
1.36864e-19
5.8237e-19
2.38672e-18
7.43763e-18
2.90053e-17
1.02311e-16
1.08036e-15
7.52691e-14
8.58243e-06
0.00902134
0.0542272
0.125269
0.187561
0.221579
0.216628
0.117323
0.0699945
0.0282773
0.0116046
0.00938714
5.72329e-24
7.57267e-20
1.86794e-19
6.83144e-19
2.62911e-18
7.67256e-18
3.23021e-17
1.2224e-16
2.19365e-15
7.80171e-13
0.000172428
0.0181211
0.081484
0.163095
0.225548
0.249613
0.224446
0.121063
0.072799
0.0298885
0.0120907
0.00949146
5.67791e-24
4.24325e-20
1.38565e-19
6.10893e-19
2.63496e-18
8.19274e-18
3.49374e-17
1.46456e-16
4.3399e-15
1.34054e-11
0.000713085
0.0323612
0.112787
0.200803
0.257465
0.26708
0.222098
0.122481
0.0750512
0.0312215
0.012529
0.00959327
5.66757e-24
7.80202e-20
1.92463e-19
7.15451e-19
2.88972e-18
8.41782e-18
3.94309e-17
1.83574e-16
1.02752e-14
1.66098e-10
0.00201714
0.0519279
0.146037
0.235414
0.28047
0.273881
0.213076
0.123072
0.0769941
0.0323363
0.0129436
0.00969106
5.62164e-24
4.19628e-20
1.39786e-19
6.3797e-19
2.90243e-18
9.03701e-18
4.34982e-17
2.31479e-16
2.24189e-14
1.55802e-09
0.00495502
0.0761883
0.179172
0.265082
0.294132
0.271811
0.201334
0.123682
0.0787889
0.0332621
0.0133415
0.00978684
5.61483e-24
8.02732e-20
1.97572e-19
7.45787e-19
3.17105e-18
9.2669e-18
5.02617e-17
3.06415e-16
5.64377e-14
1.37811e-08
0.0105174
0.103623
0.21044
0.288122
0.298967
0.263909
0.18995
0.124582
0.0804881
0.0340743
0.0137552
0.00987966
5.56711e-24
4.17907e-20
1.40758e-19
6.63837e-19
3.19184e-18
9.99183e-18
5.71483e-17
4.08435e-16
1.30472e-13
3.19049e-07
0.0196204
0.132685
0.238505
0.304385
0.297228
0.253248
0.180546
0.125689
0.0821183
0.0348178
0.014198
0.00997203
5.56281e-24
8.24821e-20
2.02091e-19
7.7399e-19
3.47275e-18
1.02318e-17
6.84571e-17
5.73337e-16
3.92522e-13
1.87937e-05
0.0325073
0.161716
0.262483
0.314078
0.291045
0.242288
0.173507
0.126827
0.083659
0.0355754
0.0147062
0.0100634
5.51395e-24
4.18584e-20
1.41216e-19
6.87492e-19
3.50134e-18
1.10682e-17
8.13231e-17
8.10342e-16
1.82982e-12
0.000216542
0.0489698
0.189559
0.281942
0.318501
0.28282
0.232466
0.168528
0.127833
0.0850968
0.0363897
0.0152924
0.0101564
5.51302e-24
8.4674e-20
2.05792e-19
7.99195e-19
3.79612e-18
1.13438e-17
1.02509e-16
1.20435e-15
1.28009e-11
0.000752904
0.068192
0.215236
0.296874
0.318811
0.274018
0.224393
0.165089
0.128615
0.0863965
0.0373251
0.0159864
0.0102507
5.4619e-24
4.20335e-20
1.40961e-19
7.08384e-19
3.83341e-18
1.23039e-17
1.28819e-16
1.79563e-15
7.40869e-11
0.00160458
0.0894085
0.238206
0.307606
0.316515
0.265805
0.218093
0.162704
0.129133
0.0875383
0.0383941
0.0167884
0.0103488
5.463e-24
8.68053e-20
2.08974e-19
8.21782e-19
4.14308e-18
1.26528e-17
1.72471e-16
2.80951e-15
3.56392e-10
0.00298781
0.111687
0.258068
0.314698
0.312588
0.258556
0.213339
0.16101
0.129392
0.0884887
0.0396198
0.0177116
0.01045
5.41081e-24
4.22456e-20
1.39895e-19
7.26578e-19
4.19063e-18
1.37407e-17
2.30117e-16
4.38935e-15
1.38682e-09
0.0051742
0.13435
0.274762
0.318815
0.308005
0.25252
0.209807
0.159763
0.129416
0.08923
0.0409729
0.0187355
0.0105565
5.41502e-24
8.89172e-20
2.11411e-19
8.42368e-19
4.52255e-18
1.41929e-17
3.26389e-16
7.08343e-15
4.74656e-09
0.00854413
0.156672
0.288321
0.320639
0.303218
0.247556
0.207208
0.158817
0.129244
0.0897338
0.0424402
0.0198524
0.010667
5.35937e-24
4.22782e-20
1.37805e-19
7.42846e-19
4.5847e-18
1.54527e-17
4.58225e-16
1.12951e-14
1.44529e-08
0.0135058
0.178229
0.29901
0.320791
0.298679
0.243602
0.205295
0.158091
0.128914
0.0899871
0.043969
0.0210218
0.0107831
5.36551e-24
8.84568e-20
2.10336e-19
8.57223e-19
4.9365e-18
1.60476e-17
6.77965e-16
1.85069e-14
4.28144e-08
0.0205006
0.198637
0.307121
0.319803
0.294481
0.240427
0.203893
0.157544
0.128469
0.0899676
0.0455386
0.022223
0.0109032
5.30582e-24
4.14854e-20
1.32572e-19
7.5159e-19
5.00986e-18
1.74616e-17
9.8041e-16
2.99168e-14
2.19991e-07
0.0300946
0.217836
0.313076
0.318101
0.290802
0.237942
0.202869
0.157164
0.127946
0.0896688
0.0471077
0.0234083
0.0110282
5.31235e-24
8.52629e-20
2.03824e-19
8.62057e-19
5.381e-18
1.81863e-17
1.47467e-15
5.74581e-14
1.18746e-05
0.0430196
0.235814
0.317248
0.316013
0.28759
0.235964
0.202143
0.156956
0.127386
0.0890778
0.0486832
0.0245584
0.0111563
5.24588e-24
4.16145e-20
1.27321e-19
7.57664e-19
5.48235e-18
1.98558e-17
2.14221e-15
4.65003e-13
0.000264529
0.060381
0.252787
0.320067
0.313781
0.284933
0.234454
0.201661
0.156933
0.126826
0.0881995
0.0502619
0.0256362
0.0112883
5.24931e-24
5.37898e-20
1.54721e-19
7.99477e-19
5.76875e-18
2.06386e-17
3.20145e-15
2.3129e-11
0.00241229
0.0835138
0.268903
0.321871
0.311576
0.282754
0.233292
0.2014
0.157119
0.126305
0.0870371
0.0518915
0.0266442
0.011422
5.17248e-24
4.328e-20
1.14469e-19
7.24238e-19
5.93996e-18
2.35429e-17
4.66226e-15
1.03291e-09
0.0108925
0.113322
0.28436
0.32302
0.309506
0.281142
0.232494
0.201353
0.157542
0.125855
0.0856162
0.0535971
0.0275739
0.0115584
5.16588e-24
1.93951e-21
1.12091e-20
4.00643e-19
5.44894e-18
2.4437e-17
7.2068e-15
1.85235e-07
0.0317325
0.149845
0.299132
0.32377
0.307627
0.28004
0.231987
0.201538
0.158231
0.12551
0.0839662
0.0554188
0.028463
0.0116955
5.07771e-24
1.71163e-20
4.47717e-20
4.17357e-19
5.46181e-18
3.62036e-17
1.80038e-14
5.8134e-05
0.0703203
0.192475
0.31315
0.324403
0.305946
0.279572
0.231841
0.201977
0.159214
0.125288
0.0821455
0.0572993
0.0293253
0.0118345
5.03895e-24
6.72017e-22
8.45909e-23
2.35237e-19
5.06609e-18
8.28125e-17
3.7076e-13
0.00158028
0.130434
0.240064
0.3261
0.325105
0.304426
0.279687
0.232007
0.202717
0.160517
0.125202
0.0802195
0.0590639
0.0301608
0.011976
4.83815e-24
2.10319e-19
4.58118e-19
1.02948e-18
7.2601e-18
9.13487e-16
7.18203e-12
0.0106929
0.213726
0.291885
0.33817
0.326238
0.303031
0.280505
0.232553
0.203785
0.162139
0.125178
0.0782701
0.0602658
0.0306643
0.0121338
0.00987657
0.0337327
0.0421874
0.015688
0.0110387
0.0105051
0.0103816
0.0108492
0.0108882
0.0116001
0.0171061
0.0167471
0.0159462
0.0160743
0.0170548
0.0189718
0.0210281
0.021709
0.0198651
0.0157773
0.013172
0.0124446
0.0122254
0.0121809
0.0123278
0.0126326
0.0130746
0.0136451
0.0141843
0.0148245
0.0157463
0.0166816
0.0167747
0.0178164
0.1152
0.00986353
0.0343744
0.0411006
0.0153376
0.0109769
0.0104128
0.0105011
0.0109976
0.0109456
0.011647
0.0167671
0.0163352
0.0155599
0.0156582
0.016631
0.0185933
0.0208898
0.021877
0.0201244
0.0157965
0.0129885
0.0122238
0.012015
0.0119716
0.0121093
0.0123992
0.0128301
0.0134028
0.0139612
0.0146174
0.01555
0.0164999
0.0165788
0.017575
0.114587
0.00983842
0.0349983
0.0392079
0.0147391
0.0110116
0.0103458
0.0107963
0.011314
0.0111067
0.0117752
0.0155606
0.0149522
0.0144115
0.0144258
0.0149302
0.0162749
0.018237
0.0194156
0.0183922
0.0147926
0.0123412
0.0116917
0.0115507
0.0115348
0.0116669
0.0119333
0.0123431
0.0129161
0.01351
0.0141978
0.0151536
0.016132
0.0161857
0.0174183
0.1134
0.00979929
0.0355915
0.0368023
0.0142313
0.0111986
0.0104026
0.0112306
0.0116675
0.0113489
0.012001
0.0142649
0.0134345
0.0130965
0.0131588
0.0132831
0.0138516
0.01508
0.0160797
0.0157174
0.0131795
0.0113305
0.010871
0.0108383
0.0108778
0.0110166
0.0112579
0.0116378
0.012203
0.0128402
0.0135723
0.0145634
0.0155846
0.0156065
0.0172542
0.111624
0.00974597
0.0360115
0.0340483
0.0137798
0.0114079
0.0104893
0.0116578
0.0119375
0.0115603
0.0122046
0.0131796
0.0121594
0.0120199
0.0122492
0.01215
0.0120282
0.0124216
0.0129527
0.0129071
0.011316
0.0100673
0.00980058
0.00989385
0.0100159
0.0101824
0.0104063
0.0107514
0.0112956
0.0119725
0.0127563
0.0137935
0.0148711
0.0148593
0.0170126
0.109255
0.00967615
0.0361316
0.0310731
0.0132817
0.0115316
0.0105125
0.0119553
0.0120491
0.0116446
0.0122553
0.0122753
0.011143
0.0111846
0.0115895
0.0114087
0.0108076
0.0104938
0.0104735
0.0104238
0.00946705
0.00866937
0.00854103
0.00874895
0.00897263
0.00919383
0.00941741
0.009729
0.0102374
0.010939
0.0117735
0.0128643
0.0140098
0.0139683
0.016642
0.106293
0.00959042
0.0358638
0.028011
0.0126956
0.011538
0.0104408
0.0120695
0.0119806
0.0115593
0.0120864
0.0114389
0.0102657
0.0104282
0.0109211
0.0107521
0.00991691
0.00913797
0.00865201
0.00842437
0.00778759
0.00724991
0.00717699
0.00745728
0.00778372
0.00808487
0.00833227
0.00861988
0.00908024
0.00978247
0.0106559
0.0118024
0.0130238
0.0129628
0.0161077
0.102752
0.00948687
0.0351378
0.0250005
0.012047
0.0114518
0.0102913
0.0120077
0.0117514
0.0113106
0.0116985
0.0105921
0.00943006
0.00962968
0.0100895
0.00996248
0.00909222
0.00809674
0.00730718
0.00686889
0.00633727
0.00590612
0.00581194
0.00610025
0.00650322
0.00689682
0.00719311
0.00747309
0.00788009
0.00855461
0.00944405
0.01064
0.0119395
0.0118753
0.0153911
0.0986584
0.00936733
0.0339327
0.0221604
0.011394
0.0113214
0.0101034
0.0118119
0.0114023
0.0109322
0.0111359
0.00971756
0.0085984
0.00876229
0.00909327
0.00898681
0.00819622
0.00717306
0.00624087
0.00564209
0.00511716
0.00471101
0.00455389
0.00478479
0.00520999
0.00568322
0.00604453
0.00633568
0.00669226
0.00731305
0.00818686
0.00941511
0.0107871
0.0107411
0.0144882
0.0940503
0.0092307
0.0322467
0.0195797
0.0107967
0.0111967
0.00992075
0.0115378
0.010983
0.0104709
0.0104613
0.00883476
0.00777261
0.00785614
0.00801337
0.00788063
0.00720343
0.00626478
0.00531528
0.00463628
0.00410586
0.00371036
0.00349357
0.00362628
0.00400609
0.00451471
0.00493679
0.0052527
0.00556809
0.00611698
0.00693981
0.0081715
0.00959985
0.00959586
0.0134098
0.0889838
0.00908003
0.0301268
0.0173136
0.0103039
0.0111206
0.00978325
0.0112423
0.010543
0.00997501
0.00973952
0.00797773
0.00696993
0.00695431
0.00694321
0.00674279
0.0061589
0.00535036
0.00446743
0.00378731
0.00328412
0.00292436
0.00268469
0.00271793
0.00299878
0.00347679
0.00392817
0.00426839
0.00455296
0.00502223
0.0057618
0.00695806
0.00841397
0.00847486
0.0121815
0.083534
0.00891508
0.0276361
0.0153938
0.00995011
0.0111291
0.00972435
0.010978
0.0101288
0.00949063
0.00902887
0.00718092
0.00621023
0.00609081
0.00594904
0.00566571
0.00513539
0.00445758
0.00369113
0.00307453
0.00264146
0.00235054
0.00213343
0.0020994
0.00226533
0.00265251
0.0030809
0.00342606
0.00368508
0.00407669
0.00471013
0.005827
0.00726844
0.00741137
0.0108435
0.0777987
0.00874002
0.0248816
0.0138334
0.00975755
0.0112538
0.00977179
0.010791
0.00978065
0.00905813
0.00837807
0.00647427
0.00551251
0.00528711
0.0050644
0.00471549
0.00420917
0.00364058
0.00301342
0.00250335
0.00216985
0.00196531
0.00180195
0.0017449
0.00181947
0.00209093
0.00244601
0.00276285
0.0029933
0.00331596
0.00383374
0.00482985
0.00620395
0.00643559
0.00945026
0.071902
0.00855535
0.0219802
0.0126362
0.0097409
0.011526
0.00994961
0.0107203
0.00953303
0.00871179
0.0078246
0.00588088
0.00489456
0.00455722
0.00429884
0.00392616
0.00343913
0.00295529
0.00246846
0.00208174
0.00185209
0.00172855
0.00162726
0.00158375
0.00161058
0.0017831
0.00204132
0.00229852
0.00249214
0.00275878
0.00316577
0.00401107
0.00526059
0.00557364
0.00806803
0.0659973
0.00836592
0.0190768
0.0117951
0.00991163
0.0119789
0.0102833
0.0107996
0.00941354
0.00847874
0.00739553
0.00541699
0.00437309
0.00391424
0.00364994
0.00330545
0.0028564
0.00244058
0.00207651
0.00180227
0.00165748
0.00159413
0.00154639
0.0015376
0.00155991
0.00167327
0.00184226
0.00202533
0.0021764
0.00240347
0.00271698
0.00339983
0.0044735
0.00484634
0.00677056
0.0602679
0.00817267
0.0163109
0.0112946
0.0102816
0.0126519
0.0108058
0.0110611
0.00944613
0.00838007
0.00710881
0.00509296
0.00396265
0.00337254
0.00311314
0.00284211
0.0024598
0.00210381
0.00183189
0.0016385
0.00154793
0.00152129
0.0015126
0.00154543
0.00159504
0.00169215
0.00179728
0.00191052
0.00202193
0.00222929
0.0024742
0.0030031
0.00386692
0.00426772
0.00563082
0.0549238
0.00798033
0.0138216
0.0111174
0.0108736
0.0135917
0.0115642
0.0115418
0.00965602
0.00843487
0.00697687
0.0049161
0.00367521
0.00294665
0.00268559
0.0025137
0.00222303
0.00192289
0.00170653
0.00155353
0.00148755
0.00148048
0.00149939
0.00157205
0.00166537
0.00177965
0.00185028
0.0019104
0.00199458
0.00220462
0.00240668
0.00280479
0.00344872
0.00384347
0.00470972
0.0501918
0.00778933
0.0117279
0.0112642
0.0117226
0.0148595
0.0126253
0.0122893
0.0100764
0.00866438
0.00701089
0.00489321
0.00352007
0.00264863
0.00236621
0.00229267
0.00210525
0.00185681
0.00166108
0.00151126
0.00144938
0.0014544
0.0014962
0.00160476
0.0017451
0.00189437
0.00195452
0.00198385
0.00206079
0.00229675
0.00247684
0.00277281
0.00320911
0.00356998
0.00404437
0.0462945
0.00760307
0.0101077
0.0117748
0.012876
0.0165325
0.014079
0.0133669
0.0107537
0.00909633
0.00722627
0.00503519
0.00350532
0.00248517
0.00215212
0.0021516
0.00206339
0.00186034
0.0016564
0.00148344
0.0014175
0.00143556
0.00150185
0.00164432
0.0018276
0.00201478
0.00207873
0.00210004
0.00219399
0.00247774
0.00264862
0.00286923
0.00312493
0.00343517
0.00364167
0.0434198
0.00742066
0.00897763
0.0127401
0.0143979
0.0187044
0.0160368
0.0148539
0.0117501
0.00976842
0.00764474
0.00536006
0.00364089
0.0024583
0.00203769
0.00206759
0.00205976
0.00189232
0.00166047
0.00145284
0.00138575
0.00142306
0.00151895
0.00169625
0.00191613
0.00213443
0.00220733
0.00224091
0.00237676
0.00272618
0.0028917
0.00305841
0.00316701
0.00342153
0.00348286
0.0416898
0.00724378
0.0082981
0.0143027
0.016372
0.021483
0.0186258
0.016842
0.0131413
0.0107287
0.00830051
0.00589651
0.00394185
0.00256896
0.00201488
0.00202471
0.00206793
0.00192323
0.00165303
0.00141258
0.00135416
0.00141913
0.00155092
0.00176584
0.00201625
0.00225484
0.00233659
0.00239973
0.00259991
0.00302665
0.00318283
0.00331142
0.00330676
0.00351046
0.00353732
0.0411506
0.00707145
0.00800112
0.0166492
0.0189092
0.0249927
0.0219828
0.0194305
0.0150107
0.0120328
0.00923439
0.00668188
0.00443164
0.0028237
0.00207847
0.00201492
0.00207372
0.00193629
0.00162601
0.00136383
0.00132577
0.00142694
0.00160072
0.00185627
0.0021319
0.00238013
0.00246974
0.00257765
0.00286003
0.00336835
0.00350579
0.00360778
0.00352033
0.0036862
0.00377727
0.0417922
0.00690537
0.00801489
0.0199872
0.0221662
0.029385
0.0262581
0.0227262
0.017443
0.0137386
0.0104883
0.00775589
0.00514063
0.00323849
0.00223045
0.00203733
0.00207493
0.00192835
0.00158187
0.00131218
0.00130414
0.00144919
0.00167052
0.00196873
0.00226433
0.00251415
0.00261313
0.00278006
0.00315679
0.00374378
0.00385046
0.00393508
0.00379045
0.00393855
0.00418705
0.0435802
0.00674534
0.0082809
0.0245181
0.0263713
0.0348568
0.0316267
0.0268473
0.0205199
0.0158998
0.0120951
0.0091442
0.00609796
0.00383756
0.00248615
0.00209823
0.00207711
0.00190465
0.00152924
0.001265
0.0012925
0.00148797
0.00176161
0.0021027
0.00241276
0.00265989
0.00277394
0.00301372
0.00349077
0.00414769
0.00421184
0.00428782
0.00410677
0.00426417
0.00476652
0.0464801
0.00659312
0.00875255
0.0304038
0.0318454
0.0416607
0.0382919
0.0319214
0.0243118
0.0185547
0.0140662
0.0108417
0.00731097
0.0046375
0.0028711
0.00221078
0.00209061
0.00187595
0.00147911
0.0012293
0.00129342
0.00154451
0.00187445
0.0022566
0.00257539
0.00281983
0.00295926
0.00328504
0.00386204
0.00457663
0.00458887
0.00466574
0.00446535
0.00466687
0.00553075
0.0504646
0.00644962
0.0093994
0.0377371
0.0389979
0.0500844
0.0464508
0.0380574
0.0288561
0.021708
0.016375
0.0127974
0.00874766
0.00562217
0.00340578
0.00239351
0.00212619
0.00185242
0.00144125
0.00121125
0.00130921
0.00161953
0.00200852
0.00242801
0.00275044
0.00299674
0.00317568
0.00359893
0.00426958
0.00502868
0.00498354
0.00507257
0.00486779
0.00515734
0.00650825
0.05551
0.00631698
0.0102016
0.046521
0.0482838
0.0603906
0.0562112
0.0452823
0.0341143
0.0253025
0.0189412
0.0149016
0.010317
0.00671975
0.00407053
0.00265989
0.00219315
0.00184293
0.00142314
0.00121584
0.00134226
0.00171303
0.00216246
0.00261431
0.00293697
0.00319404
0.00342921
0.00395842
0.00471129
0.00550343
0.00540008
0.0055149
0.00532048
0.00575267
0.00773915
0.0615879
0.00619775
0.0111583
0.056714
0.0601329
0.0727244
0.0674782
0.0534572
0.0399214
0.0291891
0.0216171
0.0169902
0.0118746
0.00780486
0.00478295
0.00299679
0.00229358
0.00185211
0.00142952
0.00124755
0.00139568
0.00182478
0.00233419
0.002813
0.00313535
0.0034161
0.00372506
0.00436445
0.00518428
0.00600193
0.0058444
0.00600163
0.00583391
0.00647594
0.0092737
0.0686562
0.00609509
0.012285
0.0683148
0.0748767
0.0870172
0.0798587
0.0622079
0.0459496
0.0331109
0.0241897
0.0188612
0.0132428
0.00872235
0.00541071
0.00334608
0.00241707
0.00188179
0.0014636
0.0013104
0.00147365
0.00195443
0.00252144
0.00302242
0.0033474
0.00366794
0.00406743
0.00481605
0.00568554
0.00652662
0.00632367
0.00654347
0.00642228
0.00735592
0.0111711
0.0766534
0.00601408
0.0136279
0.0814501
0.0926601
0.102894
0.0926199
0.0709083
0.051712
0.0367146
0.026397
0.0203
0.0142418
0.00932583
0.00582082
0.00361872
0.0025366
0.00192876
0.00152699
0.00140838
0.00158187
0.00210261
0.00272235
0.00324205
0.00357639
0.003955
0.00445921
0.0053106
0.00621233
0.00708119
0.00684603
0.00715295
0.00710331
0.00842702
0.0134986
0.0854964
0.00596079
0.0152598
0.0963484
0.113271
0.119573
0.104708
0.0787244
0.0566079
0.0395896
0.0279643
0.0211127
0.0147236
0.00951273
0.00592833
0.00374097
0.00262056
0.00198821
0.0016202
0.00154449
0.00172741
0.00227146
0.00293633
0.003473
0.00382669
0.00428256
0.00490178
0.0058444
0.0067627
0.00767039
0.00742046
0.00784435
0.00789819
0.00972945
0.01633
0.0950814
0.00594609
0.0172926
0.113214
0.135862
0.135784
0.114838
0.0847225
0.0600099
0.0413339
0.0286475
0.0211585
0.0146004
0.00924986
0.00572582
0.00369468
0.00265141
0.00205503
0.00174186
0.00171995
0.00191801
0.00246593
0.00316462
0.00371786
0.00410343
0.00465533
0.00539479
0.0064131
0.00733561
0.0082998
0.00805674
0.00863396
0.00883174
0.0113095
0.0197444
0.105289
0.00598322
0.0198602
0.131952
0.158705
0.149805
0.121676
0.0880295
0.0613764
0.0416279
0.0282829
0.0203799
0.0138631
0.00857817
0.0052799
0.0035226
0.00263971
0.00212989
0.00188918
0.00193226
0.00216013
0.00269361
0.00341077
0.00398076
0.00441192
0.00507687
0.00593624
0.0070123
0.00793106
0.00897567
0.00876543
0.00954027
0.00993273
0.0132202
0.0238241
0.11599
0.00609167
0.0231231
0.15189
0.179237
0.159721
0.124118
0.0880275
0.0603754
0.0403096
0.0268261
0.0188184
0.012583
0.00760041
0.00470132
0.00329851
0.00261468
0.00221675
0.00205711
0.00217454
0.0024562
0.00296445
0.00368042
0.00426671
0.00475714
0.00554926
0.00652257
0.00763786
0.00854987
0.00970474
0.00955809
0.0105844
0.0112343
0.0155218
0.0286532
0.127055
0.00628805
0.0272332
0.171635
0.194606
0.163898
0.121591
0.0845193
0.0569761
0.0374216
0.0243718
0.0166141
0.0108996
0.00645454
0.00410325
0.00308921
0.00260681
0.00232071
0.00223881
0.00243546
0.00280185
0.00328829
0.00398073
0.00458134
0.00514302
0.00607266
0.00714892
0.00828621
0.00919363
0.0104942
0.0104473
0.0117903
0.0127748
0.0182823
0.0343155
0.138363
0.00658505
0.0323357
0.189329
0.202534
0.161478
0.114245
0.0778041
0.0514783
0.0332164
0.0211416
0.0139814
0.00899452
0.00528692
0.0035696
0.00293102
0.00263052
0.00243981
0.00242451
0.00270147
0.00318483
0.00367183
0.00431902
0.00492989
0.00557203
0.0066453
0.00780938
0.00895435
0.00986444
0.0113519
0.0114471
0.0131856
0.0145983
0.0215787
0.0408934
0.149808
0.00697682
0.0384804
0.203105
0.202007
0.152638
0.102917
0.0686107
0.0444489
0.0281055
0.0174431
0.0111724
0.00706393
0.00422778
0.00314265
0.00283018
0.00268266
0.00256573
0.0026037
0.00295956
0.00358717
0.00411434
0.00470101
0.00531668
0.00604458
0.00726334
0.00849742
0.00963991
0.0105648
0.0122858
0.0125733
0.0148018
0.0167558
0.0254977
0.0484676
0.161307
0.00744499
0.04556
0.21152
0.193401
0.138476
0.0889019
0.0579171
0.0365945
0.022577
0.0136154
0.00843994
0.00529513
0.00337049
0.00283021
0.00277474
0.002747
0.002684
0.00276635
0.00320025
0.00398881
0.00460521
0.00512833
0.005744
0.00655893
0.00792133
0.00920615
0.0103409
0.0112974
0.013305
0.0138437
0.0166756
0.0193064
0.0301363
0.057118
0.172805
0.00795396
0.0530485
0.213587
0.178059
0.120612
0.0736139
0.0467251
0.0286149
0.017107
0.00998318
0.00601345
0.0038464
0.00275236
0.0026202
0.00274787
0.00280611
0.00278294
0.0029072
0.00341952
0.00437293
0.00512357
0.00559665
0.00621175
0.00711127
0.00861265
0.00992894
0.0110559
0.0120652
0.0144194
0.0152789
0.0188486
0.0223186
0.0356035
0.0669255
0.184276
0.00846726
0.0599053
0.208693
0.157726
0.100752
0.0583054
0.0358863
0.0211
0.012106
0.00683079
0.0040808
0.00281207
0.00235549
0.00249246
0.00273358
0.00284591
0.00285488
0.00302581
0.00361898
0.00472768
0.00564192
0.00609437
0.00671683
0.00769656
0.00933065
0.0106599
0.0117837
0.0128714
0.0156399
0.016903
0.0213692
0.0258714
0.0420213
0.0779749
0.195729
0.00894498
0.0644977
0.196474
0.134134
0.0803798
0.0439119
0.0260163
0.0144868
0.00789837
0.0043828
0.00274908
0.00218149
0.00213031
0.00242222
0.00271797
0.00285955
0.00290043
0.00312806
0.00380543
0.00504851
0.00613131
0.00660376
0.00725373
0.00830952
0.0100697
0.0113946
0.0125239
0.0137191
0.0169787
0.0187438
0.0242928
0.0300557
0.0495256
0.0903589
0.207205
0.0093615
0.0651268
0.176926
0.108885
0.06067
0.0310536
0.0175117
0.00907796
0.00472043
0.00275128
0.00198005
0.00185414
0.00202041
0.00238148
0.00268748
0.00284291
0.00292306
0.00322316
0.00398896
0.005336
0.00656718
0.00710342
0.00781498
0.00894609
0.0108269
0.0121314
0.0132767
0.0146112
0.0184492
0.0208337
0.0276825
0.034975
0.0582672
0.104182
0.218776
0.0096768
0.0603195
0.150459
0.0834922
0.0425923
0.0201496
0.010633
0.00507843
0.00267536
0.00184958
0.00160472
0.00170931
0.00197089
0.00234162
0.0026301
0.00279351
0.00292925
0.00332407
0.00418269
0.00559669
0.00693374
0.00757283
0.00839248
0.00960429
0.011603
0.0128718
0.0140434
0.0155505
0.0200652
0.0232098
0.0316097
0.0407456
0.0684121
0.119564
0.230542
0.00988074
0.0499001
0.118353
0.0593483
0.0269651
0.0114787
0.00554913
0.00255762
0.00160486
0.00141442
0.00143199
0.00163873
0.0019262
0.00227469
0.00253435
0.00270459
0.00291879
0.0034402
0.00439939
0.00584053
0.00722646
0.00799516
0.00897769
0.0102844
0.0124033
0.013622
0.0148271
0.0165387
0.0218403
0.0259132
0.0361538
0.0474963
0.0801408
0.136644
0.24263
4.88216e-24
3.14981e-19
1.13919e-18
4.29781e-18
2.49017e-17
3.14081e-14
9.00221e-11
0.0404331
0.292807
0.332332
0.346291
0.327462
0.302078
0.281678
0.233284
0.204948
0.163705
0.125054
0.0768343
0.0605011
0.0302943
0.0121377
4.9958e-24
7.392e-20
8.34309e-20
6.22998e-18
6.21868e-17
2.4455e-13
9.18831e-10
0.0770354
0.346879
0.356873
0.350121
0.328023
0.301471
0.282714
0.234087
0.205975
0.165086
0.125024
0.0761593
0.0602952
0.0298723
0.0121847
5.10198e-24
2.76605e-19
8.77637e-19
8.89231e-18
1.21989e-16
9.24852e-13
9.28267e-09
0.120841
0.395234
0.377013
0.35265
0.328366
0.300989
0.28387
0.235121
0.207177
0.1667
0.12509
0.0758841
0.0597064
0.0293491
0.0123418
5.06171e-24
5.72571e-20
2.14774e-20
6.84918e-18
1.92159e-16
2.27494e-12
1.69458e-07
0.167079
0.436834
0.393232
0.354588
0.328675
0.300748
0.28522
0.236446
0.208524
0.168498
0.125263
0.075998
0.0587675
0.0287591
0.0125978
5.16564e-24
2.21311e-19
6.32306e-19
7.23208e-18
2.88234e-16
3.60952e-12
6.56399e-06
0.20852
0.471457
0.40606
0.356439
0.32909
0.300856
0.286735
0.238025
0.209998
0.170422
0.125545
0.076467
0.0575512
0.0281479
0.0129439
5.1138e-24
4.59229e-20
1.20684e-20
4.61622e-18
4.09838e-16
4.87254e-12
1.86933e-05
0.237322
0.499237
0.416099
0.358621
0.329768
0.301399
0.288504
0.23992
0.211579
0.172412
0.12593
0.0772537
0.0561173
0.0275256
0.0133976
5.22918e-24
1.78694e-19
4.73438e-19
4.63809e-18
5.8057e-16
5.06366e-12
3.45836e-05
0.24971
0.520571
0.423856
0.361368
0.330812
0.302452
0.290499
0.24209
0.213266
0.174411
0.126415
0.0783001
0.0545504
0.0269181
0.0139724
5.17001e-24
3.804e-20
7.88123e-21
2.78043e-18
7.72373e-16
4.3776e-12
2.58691e-05
0.24678
0.535799
0.429813
0.364862
0.332338
0.304065
0.292816
0.244607
0.215064
0.176371
0.126985
0.0795544
0.0529082
0.0263229
0.0146863
5.29791e-24
1.46662e-19
3.69606e-19
2.86209e-18
9.86216e-16
2.88165e-12
2.74875e-05
0.232514
0.545231
0.43428
0.369138
0.334406
0.306273
0.295423
0.247432
0.216998
0.178262
0.127628
0.0809517
0.0512664
0.0257595
0.0155431
5.22336e-24
3.2441e-20
5.88793e-21
1.68707e-18
1.14805e-15
1.68937e-12
3.53702e-05
0.210689
0.548903
0.437494
0.374218
0.337091
0.309092
0.298409
0.25064
0.219096
0.180073
0.128329
0.0824437
0.0496675
0.025219
0.0165463
5.35772e-24
1.21934e-19
2.97427e-19
1.8426e-18
1.25255e-15
8.52756e-13
4.02111e-05
0.183799
0.546702
0.439495
0.380001
0.340412
0.312527
0.301728
0.254188
0.221402
0.181818
0.129075
0.0839734
0.048171
0.0247167
0.0176819
5.27102e-24
2.84272e-20
4.6921e-21
1.08064e-18
1.23892e-15
4.16551e-13
4.11565e-05
0.154144
0.538208
0.440225
0.386391
0.34441
0.316572
0.305451
0.258147
0.223956