/*--------------------------------*- C++ -*----------------------------------*\
| =========                 |                                                 |
| \\      /  F ield         | OpenFOAM: The Open Source CFD Toolbox           |
|  \\    /   O peration     | Version:  v1912                                 |
|   \\  /    A nd           | Website:  www.openfoam.com                      |
|    \\/     M anipulation  |                                                 |
\*---------------------------------------------------------------------------*/
FoamFile
{
    version     2.0;
    format      ascii;
    class       volScalarField;
    location    "580";
    object      p;
}
// * * * * * * * * * * * * * * * * * * * * * * * * * * * * * * * * * * * * * //

dimensions      [0 2 -2 0 0 0 0];


internalField   nonuniform List<scalar> 
12441
(
9.14419
9.45063
10.3245
11.6785
13.4311
15.6289
18.3675
21.7427
25.9296
31.1109
37.4593
45.2269
54.8749
66.7069
82.1382
101.386
129.708
165.447
223.508
286.469
377.173
438.744
9.14418
9.45063
10.3245
11.6785
13.431
15.6289
18.3675
21.7426
25.9295
31.1106
37.4589
45.2263
54.8739
66.7051
82.1351
101.379
129.692
165.422
223.428
286.395
377.127
438.553
9.14416
9.45061
10.3245
11.6785
13.431
15.6288
18.3673
21.7424
25.9292
31.1102
37.4582
45.2251
54.8721
66.7016
82.1292
101.365
129.666
165.365
223.261
286.215
377
438.208
9.14414
9.45058
10.3245
11.6784
13.4309
15.6287
18.3672
21.7421
25.9287
31.1095
37.4571
45.2234
54.8692
66.6963
82.1203
101.344
129.631
165.277
223.084
285.94
376.767
437.671
9.14411
9.45054
10.3244
11.6783
13.4308
15.6285
18.3669
21.7417
25.9281
31.1085
37.4556
45.2211
54.8654
66.6892
82.1086
101.316
129.587
165.168
222.92
285.595
376.439
436.938
9.14407
9.4505
10.3244
11.6782
13.4307
15.6283
18.3666
21.7412
25.9274
31.1074
37.4538
45.2182
54.8607
66.6803
82.0939
101.281
129.531
165.039
222.734
285.177
376.02
436.01
9.14402
9.45044
10.3243
11.6781
13.4305
15.6281
18.3662
21.7406
25.9265
31.106
37.4516
45.2147
54.8551
66.6697
82.0763
101.24
129.465
164.887
222.518
284.691
375.515
434.887
9.14396
9.45038
10.3242
11.678
13.4303
15.6278
18.3658
21.7399
25.9254
31.1043
37.449
45.2107
54.8484
66.6573
82.0559
101.193
129.393
164.715
222.281
284.146
374.929
433.566
9.1439
9.45031
10.3241
11.6779
13.4301
15.6275
18.3653
21.7391
25.9243
31.1025
37.4461
45.2061
54.8409
66.6432
82.033
101.142
129.32
164.531
222.045
283.555
374.264
432.042
9.14383
9.45022
10.324
11.6777
13.4299
15.6271
18.3648
21.7382
25.9229
31.1004
37.4428
45.2009
54.8324
66.6275
82.009
101.09
129.252
164.346
221.835
282.928
373.522
430.31
9.14375
9.45013
10.3239
11.6775
13.4296
15.6267
18.3642
21.7372
25.9214
31.0981
37.4391
45.1951
54.823
66.6106
81.9853
101.046
129.21
164.184
221.686
282.276
372.699
428.362
9.14366
9.45003
10.3237
11.6773
13.4293
15.6263
18.3635
21.7361
25.9198
31.0955
37.4351
45.1887
54.8127
66.5934
81.9666
101.022
129.234
164.085
221.63
281.601
371.79
426.19
9.14357
9.44992
10.3236
11.6771
13.429
15.6258
18.3628
21.7349
25.918
31.0927
37.4307
45.1818
54.8017
66.5787
81.9649
101.05
129.381
164.104
221.677
280.897
370.784
423.781
9.14346
9.4498
10.3234
11.6769
13.4286
15.6253
18.362
21.7336
25.9161
31.0897
37.4259
45.1743
54.7909
66.5728
82.0014
101.167
129.706
164.286
221.796
280.146
369.673
421.122
9.14335
9.44968
10.3233
11.6766
13.4283
15.6247
18.3612
21.7323
25.914
31.0865
37.4208
45.1663
54.7821
66.5874
82.1009
101.404
130.237
164.636
221.922
279.322
368.448
418.2
9.14323
9.44954
10.3231
11.6764
13.4279
15.6241
18.3603
21.7308
25.9118
31.083
37.4153
45.1579
54.7793
66.6373
82.283
101.773
130.949
165.093
221.978
278.399
367.099
415.001
9.1431
9.4494
10.3229
11.6761
13.4274
15.6235
18.3593
21.7292
25.9094
31.0792
37.4093
45.1498
54.7899
66.7355
82.5539
102.259
131.757
165.544
221.899
277.357
365.62
411.509
9.14297
9.44924
10.3227
11.6758
13.427
15.6228
18.3583
21.7275
25.9069
31.0753
37.403
45.1435
54.8232
66.8876
82.9014
102.818
132.53
165.865
221.655
276.186
364.003
407.711
9.14283
9.44908
10.3225
11.6755
13.4265
15.6221
18.3572
21.7257
25.9042
31.071
37.3962
45.1418
54.8872
67.0892
83.2992
103.382
133.127
165.972
221.249
274.884
362.246
403.589
9.14267
9.4489
10.3223
11.6751
13.426
15.6213
18.3561
21.7238
25.9014
31.0666
37.389
45.1494
54.9849
67.3265
83.7068
103.875
133.443
165.849
220.705
273.452
360.346
399.129
9.14251
9.44872
10.322
11.6748
13.4255
15.6205
18.3549
21.7218
25.8984
31.0619
37.3818
45.1719
55.1124
67.5811
84.0815
104.229
133.44
165.54
220.056
271.898
358.302
394.314
9.14235
9.44853
10.3218
11.6744
13.4249
15.6197
18.3536
21.7197
25.8953
31.0569
37.3752
45.2139
55.2608
67.8315
84.3815
104.404
133.158
165.115
219.331
270.23
356.114
389.128
9.14217
9.44833
10.3215
11.674
13.4243
15.6188
18.3523
21.7176
25.892
31.0516
37.3703
45.2759
55.4187
68.0585
84.581
104.397
132.689
164.636
218.547
268.457
353.783
383.551
9.14199
9.44812
10.3212
11.6736
13.4237
15.6179
18.3509
21.7153
25.8885
31.0461
37.3694
45.3551
55.5749
68.2446
84.669
104.237
132.135
164.143
217.717
266.587
351.311
377.566
9.1418
9.4479
10.3209
11.6732
13.4231
15.6169
18.3494
21.7129
25.8849
31.0402
37.3753
45.4459
55.72
68.3806
84.6566
103.974
131.579
163.646
216.845
264.63
348.701
371.153
9.1416
9.44768
10.3206
11.6728
13.4224
15.6159
18.3479
21.7104
25.8812
31.0341
37.3903
45.542
55.8467
68.4619
84.5638
103.658
131.065
163.143
215.933
262.597
345.956
364.289
9.14139
9.44744
10.3203
11.6723
13.4217
15.6148
18.3464
21.7078
25.8773
31.0278
37.4157
45.6376
55.9503
68.4932
84.4194
103.329
130.604
162.628
214.979
260.496
343.078
356.954
9.14118
9.44719
10.32
11.6718
13.421
15.6138
18.3447
21.7052
25.8732
31.0216
37.4511
45.7278
56.0286
68.4811
84.2461
103.014
130.19
162.094
213.983
258.335
340.067
349.121
9.14095
9.44694
10.3197
11.6713
13.4203
15.6126
18.3431
21.7024
25.8689
31.0157
37.4941
45.8092
56.0813
68.4373
84.0646
102.722
129.807
161.538
212.945
256.122
336.925
340.765
9.14072
9.44668
10.3193
11.6708
13.4195
15.6115
18.3413
21.6995
25.8645
31.0103
37.5421
45.8795
56.1105
68.3706
83.8849
102.455
129.442
160.957
211.864
253.862
333.648
331.857
9.14048
9.4464
10.3189
11.6703
13.4187
15.6103
18.3395
21.6965
25.8599
31.0057
37.5924
45.9376
56.119
68.291
83.7145
102.207
129.087
160.354
210.74
251.555
330.234
322.365
9.14024
9.44612
10.3186
11.6697
13.4179
15.609
18.3376
21.6934
25.8551
31.0024
37.6432
45.9829
56.1104
68.2035
83.5534
101.976
128.733
159.728
209.573
249.203
326.674
312.258
9.13998
9.44583
10.3182
11.6692
13.417
15.6077
18.3357
21.6902
25.8501
31.0013
37.6928
46.0158
56.0885
68.1139
83.4028
101.754
128.377
159.081
208.363
246.806
322.959
301.499
9.13972
9.44553
10.3178
11.6686
13.4162
15.6064
18.3337
21.6869
25.845
31.0031
37.7398
46.0371
56.0566
68.0235
83.2595
101.538
128.018
158.416
207.11
244.362
319.079
290.052
9.13945
9.44522
10.3174
11.668
13.4152
15.6051
18.3317
21.6835
25.8396
31.0086
37.7834
46.048
56.0175
67.9352
83.1233
101.326
127.653
157.733
205.816
241.871
315.022
277.876
9.13917
9.4449
10.317
11.6674
13.4143
15.6037
18.3296
21.68
25.8341
31.0189
37.8232
46.0501
55.9737
67.8482
82.9909
101.115
127.282
157.034
204.48
239.335
310.777
264.929
9.13888
9.44458
10.3165
11.6667
13.4134
15.6022
18.3274
21.6764
25.8285
31.0357
37.8593
46.0449
55.9269
67.7642
82.8625
100.904
126.906
156.32
203.104
236.756
306.33
251.168
9.13859
9.44424
10.3161
11.6661
13.4124
15.6007
18.3252
21.6726
25.8234
31.0615
37.8922
46.0339
55.8783
67.6819
82.7354
100.692
126.525
155.593
201.689
234.139
301.673
236.546
9.13829
9.4439
10.3156
11.6654
13.4114
15.5992
18.3229
21.6688
25.8204
31.0982
37.9223
46.0185
55.8289
67.6028
82.6106
100.478
126.139
154.853
200.237
231.489
296.797
221.013
9.13798
9.44354
10.3152
11.6647
13.4103
15.5977
18.3205
21.6648
25.8254
31.147
37.9502
45.9998
55.7794
67.5253
82.486
100.263
125.75
154.101
198.75
228.811
291.697
204.516
9.13766
9.44318
10.3147
11.664
13.4093
15.5961
18.3181
21.6607
25.847
31.2083
37.9757
45.9791
55.73
67.4513
82.3631
100.048
125.358
153.339
197.233
226.111
286.371
187.002
9.13733
9.44281
10.3142
11.6633
13.4082
15.5944
18.3157
21.6567
25.8932
31.281
37.9985
45.9573
55.6807
67.3794
82.24
99.8316
124.963
152.565
195.691
223.39
280.817
168.422
9.137
9.44242
10.3137
11.6625
13.4071
15.5927
18.3131
21.6541
25.9694
31.3634
38.0184
45.9355
55.6314
67.3113
82.119
99.6154
124.566
151.779
194.128
220.645
275.01
148.689
9.13666
9.44203
10.3132
11.6618
13.4059
15.591
18.3104
21.6584
26.0748
31.4518
38.0347
45.9142
55.5819
67.2458
81.9982
99.4006
124.168
150.977
192.551
217.864
268.869
127.058
-19.3201
-20.8441
-18.2523
-20.2736
-17.21
-17.3612
-14.9118
-14.4904
-12.2579
-11.4605
-10.526
-11.3
-9.81286
-5.22818
0.785601
2.43433
0.45354
-0.538891
3.49058
8.93967
12.1845
11.7298
10.9842
9.87712
8.54561
7.19999
5.72874
4.19289
2.89945
2.24508
1.73183
0.0889974
0.157741
-6.8486
-1.18241
-19.3186
-20.8277
-18.2752
-20.2766
-17.2116
-17.3599
-14.9124
-14.4902
-12.2584
-11.4601
-10.5268
-11.2978
-9.81062
-5.2266
0.787604
2.43937
0.461393
-0.531254
3.495
8.94226
12.1873
11.7328
10.9866
9.87916
8.5474
7.20166
5.73035
4.19439
2.90074
2.24623
1.73269
0.0892247
0.161093
-6.84709
-1.19946
-19.3155
-20.8132
-18.3069
-20.2828
-17.2132
-17.3592
-14.9129
-14.4904
-12.2584
-11.4592
-10.5273
-11.2966
-9.80838
-5.22358
0.793316
2.45052
0.478227
-0.510904
3.51162
8.95218
12.1938
11.7382
10.991
9.88286
8.5507
7.20476
5.73326
4.19701
2.90297
2.24824
1.73427
0.0899004
0.165597
-6.84517
-1.21355
-19.3112
-20.8063
-18.347
-20.2904
-17.2155
-17.3591
-14.9133
-14.4906
-12.2583
-11.458
-10.5281
-11.2962
-9.80603
-5.22011
0.799978
2.4636
0.499605
-0.480968
3.54025
8.97012
12.2046
11.7465
10.9977
9.88839
8.55559
7.20931
5.73755
4.20091
2.9063
2.25123
1.73675
0.0910791
0.17098
-6.84324
-1.21617
-19.3057
-20.8106
-18.3931
-20.2986
-17.2184
-17.3592
-14.9135
-14.4907
-12.258
-11.4565
-10.5292
-11.2965
-9.80454
-5.21765
0.805213
2.47417
0.51777
-0.452437
3.57155
8.99194
12.2186
11.7575
11.0064
9.89555
8.56183
7.21508
5.74299
4.20593
2.91064
2.25512
1.74003
0.0927683
0.177026
-6.84011
-1.208
-19.2993
-20.8302
-18.4426
-20.3072
-17.2212
-17.3588
-14.9132
-14.4908
-12.2577
-11.4552
-10.5305
-11.2974
-9.8041
-5.21612
0.80901
2.48152
0.53034
-0.430568
3.5992
9.01406
12.2346
11.7705
11.0169
9.90407
8.56911
7.22171
5.74925
4.21181
2.91584
2.25978
1.74402
0.0949205
0.183583
-6.83485
-1.19028
-19.2918
-20.8686
-18.4931
-20.316
-17.2239
-17.3577
-14.9124
-14.4909
-12.2573
-11.454
-10.532
-11.2989
-9.8044
-5.21447
0.812764
2.48705
0.538422
-0.415599
3.62104
9.03441
12.2512
11.7847
11.0285
9.91359
8.57711
7.22886
5.75599
4.21826
2.92167
2.26507
1.74858
0.0974687
0.190546
-6.82694
-1.16367
-19.2836
-20.9281
-18.5423
-20.3247
-17.2261
-17.3562
-14.9111
-14.4909
-12.2569
-11.4531
-10.534
-11.3008
-9.80501
-5.21174
0.817694
2.49216
0.543822
-0.405788
3.6374
9.05201
12.2671
11.799
11.0407
9.92368
8.5855
7.23619
5.76284
4.22493
2.92787
2.27079
1.75358
0.100336
0.197808
-6.81617
-1.12868
-19.2746
-21.01
-18.5884
-20.333
-17.2281
-17.3545
-14.9095
-14.491
-12.2565
-11.4525
-10.5365
-11.3031
-9.80583
-5.2077
0.82439
2.49775
0.547894
-0.399287
3.64942
9.06646
12.2812
11.8121
11.0524
9.93372
8.59388
7.24339
5.76949
4.23147
2.93415
2.27671
1.75884
0.103441
0.205267
-6.80252
-1.08591
-19.2653
-21.1142
-18.63
-20.3406
-17.23
-17.3529
-14.9079
-14.4913
-12.2562
-11.4522
-10.5394
-11.3058
-9.80685
-5.20269
0.832629
2.50395
0.551334
-0.394725
3.65831
9.07768
12.2923
11.8228
11.0625
9.94292
8.60176
7.25012
5.77561
4.23754
2.94017
2.28257
1.76416
0.106687
0.212821
-6.78618
-1.03614
-19.2557
-21.2391
-18.6661
-20.3476
-17.2317
-17.3517
-14.9065
-14.4918
-12.2561
-11.4523
-10.5426
-11.309
-9.80824
-5.19735
0.841843
2.51066
0.554397
-0.391339
3.66486
9.08564
12.2998
11.83
11.07
9.95044
8.6086
7.25602
5.78093
4.24285
2.9456
2.2881
1.76934
0.109973
0.220384
-6.76751
-0.980286
-19.2461
-21.3819
-18.6964
-20.3541
-17.2335
-17.3511
-14.9056
-14.4927
-12.2562
-11.4527
-10.5461
-11.3125
-9.81004
-5.19226
0.851184
2.51741
0.557106
-0.388716
3.66956
9.09043
12.3035
11.8335
11.0742
9.95557
8.61385
7.26075
5.78519
4.24712
2.95015
2.29301
1.77416
0.113182
0.22788
-6.74705
-0.919447
-19.2369
-21.5382
-18.721
-20.3602
-17.2354
-17.3513
-14.9055
-14.4941
-12.2566
-11.4534
-10.5496
-11.3164
-9.8123
-5.18785
0.859914
2.52376
0.559413
-0.386697
3.67259
9.09231
12.3036
11.8332
11.075
9.95799
8.61712
7.26401
5.78821
4.25021
2.95362
2.29706
1.7784
0.116191
0.235251
-6.72552
-0.854876
-19.2282
-21.7025
-18.7403
-20.3662
-17.2377
-17.3526
-14.9064
-14.4962
-12.2575
-11.4547
-10.5532
-11.3205
-9.81495
-5.18432
0.867355
2.52916
0.561252
-0.385182
3.67414
9.09169
12.3007
11.8299
11.073
9.95781
8.61833
7.26569
5.7899
4.25205
2.95591
2.30011
1.78187
0.118867
0.242452
-6.70374
-0.788035
-19.2203
-21.868
-18.7551
-20.3722
-17.2404
-17.355
-14.9085
-14.499
-12.2589
-11.4564
-10.557
-11.325
-9.81794
-5.18172
0.87314
2.53328
0.562574
-0.384162
3.67438
9.08905
12.2955
11.8244
11.0686
9.95552
8.61768
7.26584
5.79032
4.25272
2.95705
2.30212
1.78445
0.121078
0.249451
-6.68258
-0.720543
-19.2134
-22.0279
-18.7663
-20.3784
-17.2438
-17.3588
-14.912
-14.5029
-12.2612
-11.4588
-10.5612
-11.3299
-9.82115
-5.17994
0.877102
2.53587
0.563325
-0.383578
3.6736
9.08484
12.2885
11.8173
11.0628
9.95175
8.6156
7.26471
5.78963
4.2524
2.95722
2.30317
1.78611
0.122713
0.256228
-6.6628
-0.654208
-19.2076
-22.1757
-18.7747
-20.3849
-17.2483
-17.3642
-14.9171
-14.5079
-12.2643
-11.462
-10.5658
-11.3352
-9.82456
-5.17883
0.879433
2.53701
0.563464
-0.383378
3.67206
9.07936
12.28
11.809
11.0561
9.94708
8.61257
7.26263
5.78809
4.25131
2.95664
2.30342
1.78693
0.123716
0.262769
-6.64491
-0.59096
-19.203
-22.3066
-18.7814
-20.3921
-17.2541
-17.3716
-14.9242
-14.5146
-12.2687
-11.4661
-10.5713
-11.3412
-9.82818
-5.17819
0.880434
2.53681
0.562956
-0.383406
3.67016
9.07284
12.2701
11.7997
11.0487
9.94188
8.60897
7.25992
5.78593
4.24968
2.95554
2.30308
1.78704
0.124111
0.269074
-6.62904
-0.532826
-19.1993
-22.4186
-18.787
-20.4003
-17.2614
-17.3812
-14.9338
-14.5232
-12.2745
-11.4714
-10.5777
-11.3482
-9.8322
-5.17792
0.880563
2.53561
0.561828
-0.383509
3.66814
9.06539
12.2586
11.7891
11.0406
9.93629
8.60505
7.25684
5.78335
4.24768
2.95411
2.30233
1.78659
0.123992
0.275165
-6.61498
-0.481709
-19.1964
-22.5128
-18.7921
-20.41
-17.2707
-17.3937
-14.9464
-14.5344
-12.2823
-11.478
-10.5857
-11.3564
-9.83686
-5.178
0.880111
2.53362
0.56014
-0.383446
3.66634
9.05707
12.2454
11.7772
11.0317
9.93033
8.60092
7.25353
5.78052
4.24546
2.9525
2.30131
1.78574
0.123484
0.281103
-6.60223
-0.439038
-19.194
-22.5926
-18.7979
-20.422
-17.2819
-17.4095
-14.9627
-14.5489
-12.2925
-11.4863
-10.5956
-11.3665
-9.84273
-5.17863
0.879313
2.53113
0.558003
-0.383034
3.66484
9.04786
12.2304
11.7638
11.0218
9.9239
8.59658
7.25009
5.77751
4.24308
2.95079
2.30012
1.7846
0.122705
0.286987
-6.59026
-0.405276
-19.1916
-22.6615
-18.8066
-20.4374
-17.2955
-17.4293
-14.9836
-14.5678
-12.3059
-11.4968
-10.6082
-11.3792
-9.85058
-5.18015
0.878056
2.52814
0.55548
-0.382061
3.66378
9.03771
12.2135
11.7489
11.0111
9.91696
8.592
7.24653
5.77438
4.24062
2.94902
2.29882
1.78325
0.121748
0.292918
-6.57859
-0.379766
-19.1889
-22.7228
-18.8206
-20.4578
-17.3118
-17.4538
-15.01
-14.592
-12.3231
-11.5098
-10.624
-11.3958
-9.86167
-5.18328
0.876145
2.52464
0.552609
-0.380469
3.66302
9.02651
12.1946
11.7324
10.9993
9.90945
8.58716
7.24284
5.77113
4.2381
2.94722
2.29742
1.78174
0.120677
0.298974
-6.56695
-0.36095
-19.1855
-22.7793
-18.8419
-20.4853
-17.3313
-17.4839
-15.043
-14.6228
-12.345
-11.5258
-10.6438
-11.4172
-9.87738
-5.18899
0.873017
2.5203
0.549324
-0.378212
3.66253
9.01417
12.1737
11.7144
10.9866
9.90138
8.58204
7.23901
5.76777
4.23553
2.9454
2.29596
1.78013
0.119539
0.30519
-6.55518
-0.346956
-19.1813
-22.8335
-18.8715
-20.5221
-17.3551
-17.5205
-15.084
-14.6614
-12.3724
-11.5451
-10.6677
-11.4448
-9.89934
-5.19863
0.868104
2.51488
0.545544
-0.375415
3.66203
9.00058
12.1507
11.695
10.973
9.89277
8.57664
7.235
5.76428
4.23292
2.94356
2.29445
1.77842
0.118366
0.311567
-6.54326
-0.336041
-19.1758
-22.8873
-18.9085
-20.5709
-17.3841
-17.565
-15.1342
-14.7086
-12.4057
-11.5676
-10.6957
-11.4786
-9.92836
-5.21337
0.860522
2.50781
0.541115
-0.372172
3.66137
8.98563
12.1258
11.6741
10.9585
9.88366
8.57097
7.2308
5.76064
4.23028
2.94172
2.29289
1.77664
0.117182
0.318073
-6.53122
-0.326862
-19.1689
-22.9425
-18.9507
-20.6336
-17.4196
-17.6181
-15.1946
-14.765
-12.445
-11.5928
-10.7264
-11.5186
-9.96443
-5.23367
0.849739
2.49872
0.535889
-0.368715
3.66017
8.96917
12.0989
11.652
10.9433
9.8741
8.56502
7.22638
5.75686
4.2276
2.93987
2.29129
1.77478
0.116005
0.324665
-6.51914
-0.318437
-19.1604
-23.0007
-18.9948
-20.7117
-17.4623
-17.6801
-15.2652
-14.8301
-12.4893
-11.6194
-10.7586
-11.5629
-10.0057
-5.25841
0.835511
2.48697
0.529657
-0.365193
3.65826
8.95102
12.0702
11.6287
10.9274
9.86412
8.55881
7.22172
5.75291
4.22488
2.93804
2.28967
1.77285
0.114845
0.331278
-6.50706
-0.310099
-19.1499
-23.0639
-19.038
-20.8053
-17.5126
-17.7497
-15.3445
-14.9014
-12.5365
-11.6451
-10.7893
-11.6093
-10.0494
-5.28481
0.818876
2.47245
0.522253
-0.361866
3.65528
8.93098
12.0396
11.6043
10.9108
9.85378
8.55233
7.21679
5.74879
4.22214
2.93623
2.28803
1.77084
0.113712
0.337848
-6.49507
-0.301354
-19.1372
-23.1348
-19.0795
-20.9131
-17.5701
-17.8244
-15.4291
-14.975
-12.5832
-11.6672
-10.8161
-11.6542
-10.0915
-5.30907
0.801472
2.45519
0.513588
-0.358826
3.65112
8.90887
12.0072
11.579
10.8937
9.8431
8.54557
7.21156
5.74449
4.21938
2.93448
2.28638
1.76876
0.112605
0.344291
-6.48322
-0.291871
-19.1221
-23.2174
-19.1201
-21.0317
-17.6332
-17.8997
-15.5134
-15.0452
-12.6249
-11.6824
-10.8358
-11.6943
-10.1283
-5.32766
0.785512
2.436
0.503796
-0.356184
3.64561
8.88455
11.9731
11.5527
10.8761
9.83212
8.5385
7.20601
5.74001
4.21662
2.9328
2.28472
1.7666
0.111527
0.350527
-6.47161
-0.281385
-19.104
-23.3172
-19.162
-21.1543
-17.6991
-17.9698
-15.5908
-15.1054
-12.6567
-11.6876
-10.8461
-11.7264
-10.1561
-5.33834
0.771994
2.41553
0.493186
-0.353739
3.63896
8.85801
11.9372
11.5257
10.8581
9.82087
8.53108
7.20009
5.73533
4.21386
2.93122
2.28307
1.76436
0.110469
0.356457
-6.4603
-0.269737
-19.0826
-23.4422
-19.2065
-21.2702
-17.7632
-18.0281
-15.6537
-15.1487
-12.6739
-11.6802
-10.8453
-11.7484
-10.173
-5.34105
0.760872
2.39446
0.482172
-0.351278
3.63129
8.82936
11.8996
11.498
10.8397
9.80936
8.5233
7.1938
5.73046
4.21114
2.92977
2.28142
1.76203
0.109429
0.361984
-6.44941
-0.256785
-19.0572
-23.6028
-19.253
-21.3664
-17.8202
-18.0684
-15.6959
-15.1699
-12.6734
-11.6592
-10.8335
-11.7589
-10.1783
-5.33759
0.750463
2.37246
0.471068
-0.348334
3.62315
8.79889
11.8605
11.4696
10.8211
9.7976
8.51509
7.18707
5.72539
4.20847
2.92847
2.2798
1.75961
0.108394
0.366985
-6.43901
-0.242465
-19.0271
-23.8116
-19.2978
-21.4299
-17.8651
-18.0863
-15.7132
-15.1663
-12.6539
-11.625
-10.8117
-11.7582
-10.1735
-5.331
0.738947
2.34915
0.460037
-0.344664
3.61482
8.76707
11.82
11.4407
10.8022
9.78559
8.50643
7.17991
5.72013
4.20588
2.92735
2.2782
1.75708
0.107361
0.371338
-6.42925
-0.2267
-18.9905
-24.0836
-19.3352
-21.4527
-17.8944
-18.0807
-15.7052
-15.1384
-12.6168
-11.5802
-10.7827
-11.747
-10.1612
-5.32406
0.724536
2.32368
0.449039
-0.339966
3.60688
8.73444
11.7784
11.4114
10.7831
9.77332
8.49726
7.17227
5.71467
4.20338
2.92646
2.27664
1.75445
0.106315
0.374883
-6.42023
-0.209483
-18.9443
-24.435
-19.358
-21.4335
-17.9071
-18.0536
-15.6746
-15.0899
-12.5654
-11.5285
-10.7494
-11.7276
-10.1453
-5.31848
0.706665
2.29582
0.437954
-0.334275
3.59944
8.7016
11.7362
11.3819
10.764
9.76078
8.48755
7.16415
5.70906
4.20102
2.92581
2.27512
1.7517
0.105255
0.377459
-6.41213
-0.190773
-18.886
-24.8768
-19.3589
-21.3777
-17.9049
-18.0098
-15.6268
-15.0265
-12.5048
-11.4743
-10.7148
-11.7033
-10.1288
-5.3144
0.685221
2.26523
0.426644
-0.327434
3.59294
8.66905
11.6937
11.3522
10.7447
9.74795
8.47725
7.15553
5.70328
4.19882
2.92545
2.27365
1.74882
0.104165
0.378853
-6.40508
-0.170589
-18.8157
-25.4023
-19.3299
-21.2942
-17.8908
-17.9552
-15.5682
-14.9547
-12.4404
-11.4218
-10.6817
-11.6789
-10.1133
-5.31132
0.66062
2.2321
0.415201
-0.319405
3.58728
8.63708
11.6514
11.3225
10.7253
9.73481
8.46637
7.14645
5.69738
4.19679
2.92538
2.27222
1.74579
0.103052
0.378834
-6.39932
-0.148852
-18.7347
-25.9733
-19.2627
-21.1921
-17.8685
-17.8954
-15.5049
-14.8804
-12.377
-11.3745
-10.6538
-11.6582
-10.0983
-5.30885
0.63267
2.19647
0.404058
-0.309767
3.58264
8.60564
11.6094
11.2929
10.7059
9.72141
8.45494
7.13692
5.69136
4.19495
2.92565
2.27085
1.74261
0.101902
0.377063
-6.39498
-0.125444
-18.6368
-26.5082
-19.1489
-21.079
-17.8408
-17.8346
-15.4414
-14.8082
-12.3189
-11.3358
-10.6349
-11.6422
-10.0832
-5.30761
0.601265
2.15928
0.394183
-0.298448
3.57818
8.57419
11.5677
11.2636
10.6866
9.70789
8.44303
7.12697
5.6852
4.19325
2.92626
2.26957
1.73927
0.100704
0.373247
-6.39227
-0.100322
-18.4945
-26.8798
-18.9814
-20.9603
-17.8092
-17.7751
-15.3809
-14.7418
-12.2702
-11.3088
-10.6258
-11.6292
-10.068
-5.3087
0.566592
2.122
0.38665
-0.285962
3.57269
8.54176
11.5262
11.2349
10.668
9.69449
8.43065
7.11645
5.67876
4.19169
2.92727
2.26844
1.73576
0.099413
0.367413
-6.39115
-0.0745083
-18.3163
-26.9332
-18.7544
-20.8399
-17.774
-17.7178
-15.3244
-14.6847
-12.2354
-11.294
-10.6241
-11.6178
-10.0545
-5.31292
0.531104
2.08784
0.381748
-0.275029
3.56331
8.50756
11.4856
11.208
10.6506
9.68127
8.41747
7.10505
5.67193
4.19032
2.92886
2.26756
1.73205
0.0980284
0.359962
-6.39192
-0.0494062
-18.3956
-26.5405
-18.4621
-20.7234
-17.7386
-17.6658
-15.2728
-14.6404
-12.2156
-11.2877
-10.6269
-11.6083
-10.0438
-5.31912
0.497721
2.05783
0.377026
-0.269521
3.54863
8.47273
11.4484
11.1846
10.635
9.66738
8.40217
7.09202
5.66484
4.18977
2.9316
2.26685
1.72785
0.0965998
0.347474
-6.39654
-0.0182432
9.13638
9.44172
10.3127
11.6612
13.405
15.5896
18.3083
21.6811
26.1742
31.5196
38.043
45.8977
55.5425
67.1983
81.9072
99.2356
123.861
150.339
191.324
215.663
263.794
105.312
9.13618
9.44149
10.3124
11.6607
13.4044
15.5886
18.3067
21.7155
26.2467
31.5613
38.0439
45.8846
55.5132
67.164
81.8414
99.1187
123.64
149.871
190.438
214.063
259.918
102.348
9.13597
9.44125
10.3121
11.6603
13.4037
15.5875
18.3051
21.758
26.3092
31.593
38.0404
45.8698
55.4832
67.1299
81.7762
98.9975
123.41
149.382
189.53
212.402
255.883
104.003
9.13575
9.441
10.3118
11.6598
13.4029
15.5864
18.3033
21.8007
26.3608
31.6161
38.0345
45.8538
55.4532
67.0934
81.7082
98.8717
123.17
148.874
188.6
210.673
251.733
103.868
9.13552
9.44073
10.3114
11.6592
13.4021
15.5852
18.3014
21.8377
26.4024
31.6324
38.0278
45.8375
55.4239
67.057
81.6403
98.7397
122.919
148.343
187.641
208.875
247.458
102.051
9.13527
9.44045
10.3111
11.6587
13.4013
15.5839
18.2995
21.8628
26.4346
31.6429
38.0215
45.8212
55.3954
67.0186
81.5694
98.6018
122.652
147.79
186.648
207.009
243.054
99.9803
9.13501
9.44015
10.3107
11.6581
13.4004
15.5826
18.2974
21.8718
26.4578
31.6487
38.0161
45.8054
55.3681
66.9805
81.4982
98.4566
122.37
147.212
185.615
205.078
238.525
98.0521
9.13473
9.43984
10.3102
11.6575
13.3995
15.5812
18.2952
21.8656
26.4724
31.6507
38.0121
45.7903
55.3423
66.9408
81.4239
98.3045
122.069
146.61
184.534
203.082
233.877
96.1032
9.13444
9.4395
10.3098
11.6569
13.3986
15.5797
18.2929
21.848
26.4789
31.6494
38.0095
45.7763
55.3178
66.9015
81.349
98.1446
121.748
145.981
183.399
201.021
229.114
94.0354
9.13414
9.43915
10.3093
11.6562
13.3975
15.5781
18.2905
21.8226
26.4774
31.6452
38.0084
45.7634
55.2948
66.8607
81.2707
97.9776
121.406
145.324
182.205
198.895
224.241
91.8729
9.13381
9.43878
10.3088
11.6555
13.3965
15.5764
18.2879
21.7919
26.4675
31.6383
38.0085
45.7518
55.2731
66.8202
81.1913
97.8024
121.042
144.637
180.944
196.704
219.261
89.6507
9.13347
9.43839
10.3083
11.6547
13.3953
15.5746
18.2852
21.758
26.4489
31.6284
38.0094
45.7413
55.2525
66.7779
81.1082
97.62
120.657
143.919
179.612
194.446
214.181
87.3796
9.13311
9.43798
10.3078
11.6539
13.3941
15.5728
18.2824
21.7226
26.4206
31.6152
38.0105
45.7321
55.2329
66.7357
81.0234
97.4294
120.249
143.168
178.204
192.119
209.005
85.0635
9.13273
9.43754
10.3072
11.653
13.3928
15.5708
18.2793
21.688
26.3819
31.5977
38.0111
45.7239
55.2141
66.6914
80.9343
97.2313
119.819
142.382
176.716
189.724
203.739
82.7113
9.13232
9.43708
10.3066
11.6522
13.3915
15.5686
18.276
21.6559
26.332
31.575
38.0101
45.7166
55.1959
66.6464
80.8426
97.0244
119.367
141.56
175.146
187.257
198.387
80.335
9.13189
9.43659
10.3059
11.6512
13.3901
15.5664
18.2726
21.6279
26.2705
31.5455
38.0064
45.71
55.1782
66.5986
80.7457
96.8091
118.893
140.701
173.491
184.718
192.953
77.9477
9.13144
9.43607
10.3052
11.6502
13.3885
15.564
18.2689
21.6047
26.198
31.5077
37.9982
45.7035
55.1606
66.5494
80.6453
96.5841
118.396
139.803
171.749
182.105
187.443
75.5634
9.13096
9.43552
10.3045
11.6491
13.3869
15.5615
18.265
21.5864
26.1163
31.4598
37.9835
45.6966
55.1432
66.4967
80.5384
96.3494
117.877
138.865
169.92
179.417
181.861
73.196
9.13045
9.43494
10.3037
11.648
13.3852
15.5588
18.2609
21.5724
26.0287
31.4
37.9596
45.6881
55.1257
66.4416
80.4265
96.1035
117.333
137.886
168.002
176.652
176.21
70.8583
9.12991
9.43432
10.3029
11.6468
13.3834
15.5559
18.2565
21.5615
25.9396
31.327
37.9233
45.6764
55.1079
66.3822
80.3068
95.8462
116.763
136.864
165.996
173.808
170.494
68.5607
9.12934
9.43367
10.302
11.6455
13.3815
15.5529
18.2518
21.5526
25.8538
31.2407
37.8709
45.659
55.089
66.3198
80.1805
95.5758
116.167
135.798
163.9
170.884
164.719
66.3105
9.12873
9.43297
10.3011
11.6442
13.3795
15.5497
18.2468
21.5446
25.7759
31.1426
37.7982
45.6323
55.0683
66.2522
80.0447
95.2919
115.542
134.687
161.715
167.879
158.889
64.1106
9.12809
9.43224
10.3001
11.6428
13.3774
15.5463
18.2415
21.5367
25.7094
31.0363
37.7019
45.5911
55.0439
66.1808
79.9006
94.9928
114.888
133.528
159.441
164.791
153.01
61.9594
9.12741
9.43145
10.2991
11.6412
13.3751
15.5427
18.2358
21.5287
25.6557
30.927
37.5802
45.5285
55.0127
66.1034
79.7454
94.6779
114.202
132.32
157.076
161.618
147.09
59.8501
9.12668
9.43063
10.298
11.6396
13.3727
15.5389
18.2298
21.5201
25.6142
30.8208
37.4344
45.436
54.9694
66.0204
79.5802
94.3457
113.483
131.061
154.622
158.359
141.136
57.7709
9.12591
9.42975
10.2968
11.6379
13.3701
15.5349
18.2234
21.5109
25.5825
30.7232
37.2699
45.305
54.9055
65.9284
79.4021
93.9955
112.729
129.749
152.077
155.013
135.158
55.7056
9.12509
9.42881
10.2956
11.6361
13.3674
15.5306
18.2166
21.5011
25.5573
30.638
37.096
45.1292
54.8084
65.8248
79.2117
93.6257
111.939
128.383
149.441
151.576
129.167
53.6345
9.12422
9.42781
10.2942
11.6342
13.3645
15.526
18.2094
21.4905
25.5359
30.5664
36.9239
44.9089
54.6617
65.7008
79.0049
93.2356
111.113
126.959
146.716
148.048
123.174
51.5353
9.12329
9.42676
10.2928
11.6321
13.3614
15.5212
18.2018
21.4792
25.516
30.5072
36.7636
44.6529
54.448
65.5452
78.7794
92.8232
110.248
125.478
143.9
144.428
117.193
49.3846
9.12231
9.42563
10.2913
11.6299
13.3581
15.516
18.1937
21.4671
25.4961
30.4578
36.6222
44.3785
54.1557
65.3374
78.5255
92.3866
109.345
123.936
140.996
140.713
111.237
47.1589
9.12126
9.42444
10.2897
11.6276
13.3546
15.5106
18.185
21.4542
25.4757
30.4148
36.5019
44.1066
53.7868
65.0542
78.2311
91.921
108.402
122.334
138.004
136.902
105.321
44.8365
9.12014
9.42316
10.288
11.6251
13.3509
15.5048
18.1759
21.4405
25.454
30.3749
36.4011
43.8556
53.3615
64.6718
77.8723
91.419
107.419
120.668
134.925
132.996
99.4581
42.3982
9.11895
9.4218
10.2862
11.6225
13.3469
15.4986
18.1661
21.4259
25.431
30.3356
36.315
43.6361
52.9143
64.1814
77.4209
90.8666
106.39
118.938
131.761
128.995
93.6647
39.8285
9.11768
9.42036
10.2843
11.6197
13.3427
15.492
18.1558
21.4103
25.4065
30.2954
36.238
43.4498
52.4828
63.5965
76.8453
90.2433
105.311
117.143
128.514
124.9
87.955
37.1167
9.11633
9.41882
10.2822
11.6167
13.3382
15.485
18.1448
21.3937
25.3803
30.2533
36.1648
43.2911
52.0944
62.9569
76.1289
89.5204
104.171
115.28
125.188
120.714
82.3435
34.2575
9.11489
9.41718
10.28
11.6135
13.3334
15.4775
18.1331
21.3761
25.3525
30.2087
36.0912
43.1507
51.7598
62.3141
75.2815
88.6689
102.952
113.349
121.785
116.442
76.8444
31.2512
9.11335
9.41543
10.2777
11.6101
13.3283
15.4696
18.1206
21.3573
25.3229
30.1614
36.015
43.019
51.4742
61.7138
74.3477
87.6698
101.634
111.347
118.311
112.089
71.4713
28.1042
9.11171
9.41356
10.2752
11.6065
13.3229
15.4612
18.1074
21.3372
25.2914
30.1111
35.9347
42.8882
51.2226
61.1794
73.3926
86.5289
100.196
109.27
114.776
107.664
66.2378
24.8291
9.10995
9.41157
10.2726
11.6026
13.3171
15.4521
18.0933
21.3159
25.2578
30.0576
35.8497
42.7532
50.9882
60.7097
72.478
85.283
98.6235
107.118
111.191
103.178
61.1576
21.4436
9.10808
9.40944
10.2697
11.5985
13.3109
15.4425
18.0783
21.2931
25.2221
30.0009
35.7595
42.6112
50.7561
60.2859
71.6392
83.9916
96.9228
104.891
107.576
98.6474
56.245
17.9707
9.10608
9.40717
10.2667
11.5941
13.3043
15.4323
18.0623
21.2688
25.184
29.9405
35.6638
42.461
50.5169
59.8833
70.8772
82.7142
95.1216
102.595
103.958
94.0938
51.5159
14.4382
9.10395
9.40475
10.2634
11.5894
13.2972
15.4214
18.0453
21.243
25.1435
29.8762
35.5622
42.3019
50.2653
59.4802
70.1674
81.4874
93.2636
100.242
100.371
89.5463
46.9881
10.8775
9.10166
9.40216
10.26
11.5844
13.2897
15.4098
18.0271
21.2154
25.1003
29.8079
35.4543
42.1332
49.9994
59.062
69.4758
80.3153
91.3916
97.8463
96.8517
85.042
42.6819
7.32439
9.09922
9.39939
10.2563
11.579
13.2817
15.3973
18.0078
21.186
25.0543
29.7352
35.3397
41.9543
49.7181
58.6217
68.7724
79.1764
89.532
95.4183
93.4295
80.6248
38.6197
3.81762
9.09661
9.39643
10.2523
11.5733
13.2731
15.3841
17.9872
21.1546
25.0052
29.6579
35.2179
41.7644
49.4207
58.1568
68.0377
78.037
87.6896
92.9565
90.1163
76.3404
34.8242
0.398976
9.09382
9.39327
10.2481
11.5671
13.2639
15.3699
17.9652
21.1211
24.953
29.5756
35.0885
41.5631
49.1059
57.6663
67.2632
76.8657
85.8504
90.449
86.8922
72.2271
31.3159
-2.88827
9.09083
9.38988
10.2436
11.5606
13.2541
15.3548
17.9418
21.0854
24.8973
29.488
34.9511
41.3494
48.7727
57.1492
66.4477
75.6417
83.9875
87.8858
83.7041
68.3021
28.108
-6.00123
9.08764
9.38626
10.2387
11.5536
13.2436
15.3387
17.9168
21.0473
24.8379
29.3948
34.8051
41.1229
48.4201
56.604
65.5917
74.3576
82.0721
85.2641
80.4845
64.547