/*--------------------------------*- C++ -*----------------------------------*\
| =========                 |                                                 |
| \\      /  F ield         | OpenFOAM: The Open Source CFD Toolbox           |
|  \\    /   O peration     | Version:  v1912                                 |
|   \\  /    A nd           | Website:  www.openfoam.com                      |
|    \\/     M anipulation  |                                                 |
\*---------------------------------------------------------------------------*/
FoamFile
{
    version     2.0;
    format      ascii;
    class       surfaceScalarField;
    location    "580";
    object      phi;
}
// * * * * * * * * * * * * * * * * * * * * * * * * * * * * * * * * * * * * * //

dimensions      [0 3 -1 0 0 0 0];
oriented        oriented;


internalField   nonuniform List<scalar> 
24588
(
6.81681e-05
2.01143e-08
6.81134e-05
5.52276e-08
6.80273e-05
8.57267e-08
6.79103e-05
1.16977e-07
6.7758e-05
1.51646e-07
6.75665e-05
1.91777e-07
6.73294e-05
2.36723e-07
6.70326e-05
2.97938e-07
6.66638e-05
3.6717e-07
6.62091e-05
4.54504e-07
6.56459e-05
5.6295e-07
6.49518e-05
6.94155e-07
6.40662e-05
8.6459e-07
6.29281e-05
1.15266e-06
6.15463e-05
1.43945e-06
5.91781e-05
2.31018e-06
5.62408e-05
2.94143e-06
5.13747e-05
4.86536e-06
4.46143e-05
6.76065e-06
3.33861e-05
1.12284e-05
1.97947e-05
1.35913e-05
1.97948e-05
6.81684e-05
4.07014e-08
6.81133e-05
1.11019e-07
6.80272e-05
1.71329e-07
6.79104e-05
2.33771e-07
6.7758e-05
3.03136e-07
6.75666e-05
3.8353e-07
6.73297e-05
4.73107e-07
6.70327e-05
5.96371e-07
6.66638e-05
7.34076e-07
6.6209e-05
9.09049e-07
6.56473e-05
1.12433e-06
6.49494e-05
1.39215e-06
6.40615e-05
1.72825e-06
6.29363e-05
2.29076e-06
6.156e-05
2.87629e-06
5.92415e-05
4.57337e-06
5.62519e-05
5.9383e-06
5.13395e-05
9.77691e-06
4.46594e-05
1.34413e-05
3.32892e-05
2.25991e-05
1.97596e-05
2.71208e-05
3.95546e-05
6.81684e-05
6.12928e-08
6.81133e-05
1.66814e-07
6.80272e-05
2.56945e-07
6.79104e-05
3.5058e-07
6.7758e-05
4.54648e-07
6.75666e-05
5.75291e-07
6.73297e-05
7.09522e-07
6.70326e-05
8.94836e-07
6.66637e-05
1.10103e-06
6.62089e-05
1.36361e-06
6.56468e-05
1.68615e-06
6.49505e-05
2.08849e-06
6.40584e-05
2.59628e-06
6.29269e-05
3.4403e-06
6.15483e-05
4.31993e-06
5.92709e-05
6.78472e-06
5.62463e-05
8.97195e-06
5.13589e-05
1.46625e-05
4.46363e-05
2.01648e-05
3.33116e-05
3.39244e-05
1.97802e-05
4.06521e-05
5.93349e-05
6.81684e-05
8.1882e-08
6.81133e-05
2.22573e-07
6.80272e-05
3.42542e-07
6.79104e-05
4.67372e-07
6.7758e-05
6.06108e-07
6.75667e-05
7.67018e-07
6.73297e-05
9.45905e-07
6.70328e-05
1.1932e-06
6.66638e-05
1.46791e-06
6.62089e-05
1.81822e-06
6.56469e-05
2.24788e-06
6.49492e-05
2.78631e-06
6.40619e-05
3.4594e-06
6.29361e-05
4.57813e-06
6.15493e-05
5.76451e-06
5.92925e-05
8.98907e-06
5.62706e-05
1.20019e-05
5.13729e-05
1.95592e-05
4.46268e-05
2.69119e-05
3.33416e-05
4.52101e-05
1.98144e-05
5.41793e-05
7.91494e-05
6.81684e-05
1.02472e-07
6.81133e-05
2.78327e-07
6.80272e-05
4.28148e-07
6.79104e-05
5.84181e-07
6.7758e-05
7.57586e-07
6.75667e-05
9.58746e-07
6.73297e-05
1.18231e-06
6.70327e-05
1.4916e-06
6.66638e-05
1.83482e-06
6.6209e-05
2.27283e-06
6.56467e-05
2.80985e-06
6.49508e-05
3.48224e-06
6.40586e-05
4.32808e-06
6.29261e-05
5.72934e-06
6.15395e-05
7.2162e-06
5.92991e-05
1.11632e-05
5.62942e-05
1.50157e-05
5.13749e-05
2.44765e-05
4.46455e-05
3.36422e-05
3.33884e-05
5.64677e-05
1.98632e-05
6.77043e-05
9.90127e-05
6.81684e-05
1.23061e-07
6.81133e-05
3.3405e-07
6.80272e-05
5.13731e-07
6.79104e-05
7.00964e-07
6.77581e-05
9.08995e-07
6.75667e-05
1.15043e-06
6.73298e-05
1.41867e-06
6.70329e-05
1.78989e-06
6.66639e-05
2.20164e-06
6.62091e-05
2.72745e-06
6.5647e-05
3.37168e-06
6.49489e-05
4.1803e-06
6.40625e-05
5.19072e-06
6.29374e-05
6.86505e-06
6.15429e-05
8.66497e-06
5.9302e-05
1.3354e-05
5.63109e-05
1.80146e-05
5.13873e-05
2.93991e-05
4.46775e-05
4.03532e-05
3.3455e-05
6.76907e-05
1.99288e-05
8.12305e-05
0.000118942
6.81684e-05
1.43652e-07
6.81133e-05
3.89769e-07
6.80272e-05
5.99324e-07
6.79104e-05
8.17766e-07
6.77581e-05
1.06042e-06
6.75667e-05
1.34212e-06
6.73298e-05
1.65506e-06
6.70328e-05
2.08822e-06
6.66639e-05
2.56848e-06
6.62091e-05
3.18206e-06
6.5647e-05
3.93357e-06
6.49514e-05
4.87583e-06
6.40585e-05
6.06074e-06
6.29257e-05
8.01826e-06
6.15323e-05
1.01219e-05
5.92945e-05
1.55279e-05
5.63249e-05
2.09916e-05
5.14104e-05
3.43115e-05
4.47271e-05
4.70371e-05
3.35496e-05
7.88686e-05
2.00145e-05
9.47654e-05
0.000138956
6.81684e-05
1.64242e-07
6.81133e-05
4.45458e-07
6.80273e-05
6.84894e-07
6.79105e-05
9.34535e-07
6.77581e-05
1.21177e-06
6.75668e-05
1.53377e-06
6.73299e-05
1.89139e-06
6.7033e-05
2.38643e-06
6.66641e-05
2.93519e-06
6.62093e-05
3.63663e-06
6.56472e-05
4.49538e-06
6.49486e-05
5.57444e-06
6.40625e-05
6.92374e-06
6.29383e-05
9.15212e-06
6.15271e-05
1.15824e-05
5.92837e-05
1.7726e-05
5.63439e-05
2.39375e-05
5.14629e-05
3.91921e-05
4.48137e-05
5.36873e-05
3.36849e-05
8.99979e-05
2.01245e-05
0.000108326
0.000159081
6.81684e-05
1.84833e-07
6.81133e-05
5.01144e-07
6.80273e-05
7.70474e-07
6.79105e-05
1.05133e-06
6.77582e-05
1.36314e-06
6.75668e-05
1.72542e-06
6.73299e-05
2.12775e-06
6.7033e-05
2.68469e-06
6.66641e-05
3.30193e-06
6.62094e-05
4.09123e-06
6.56474e-05
5.05705e-06
6.49524e-05
6.26936e-06
6.40572e-05
7.79714e-06
6.29212e-05
1.03101e-05
6.14869e-05
1.30696e-05
5.92808e-05
1.98883e-05
5.63534e-05
2.68679e-05
5.15786e-05
4.39652e-05
4.49627e-05
6.03034e-05
3.38744e-05
0.000101086
2.02635e-05
0.000121936
0.000179345
6.81684e-05
2.05422e-07
6.81133e-05
5.56801e-07
6.80273e-05
8.56036e-07
6.79105e-05
1.16808e-06
6.77582e-05
1.51443e-06
6.75669e-05
1.91702e-06
6.733e-05
2.36406e-06
6.70332e-05
2.98281e-06
6.66644e-05
3.66853e-06
6.62097e-05
4.54567e-06
6.56478e-05
5.61862e-06
6.49473e-05
6.96979e-06
6.40546e-05
8.66867e-06
6.2919e-05
1.14558e-05
6.14494e-05
1.45676e-05
5.93065e-05
2.20087e-05
5.63748e-05
2.98027e-05
5.17645e-05
4.85757e-05
4.51799e-05
6.68887e-05
3.41237e-05
0.000112143
2.04353e-05
0.000135625
0.00019978
6.81684e-05
2.26012e-07
6.81133e-05
6.12457e-07
6.80273e-05
9.41611e-07
6.79105e-05
1.28486e-06
6.77582e-05
1.66575e-06
6.75669e-05
2.10862e-06
6.733e-05
2.60038e-06
6.70332e-05
3.281e-06
6.66644e-05
4.03512e-06
6.62096e-05
5.00029e-06
6.5648e-05
6.17996e-06
6.49506e-05
7.66718e-06
6.40525e-05
9.54765e-06
6.29038e-05
1.26248e-05
6.14139e-05
1.60829e-05
5.93414e-05
2.40645e-05
5.64235e-05
3.27211e-05
5.1986e-05
5.3012e-05
4.54374e-05
7.34371e-05
3.44242e-05
0.000123156
2.06414e-05
0.000149407
0.000220421
6.81684e-05
2.466e-07
6.81133e-05
6.68082e-07
6.80273e-05
1.02717e-06
6.79105e-05
1.4016e-06
6.77583e-05
1.81699e-06
6.7567e-05
2.30017e-06
6.73302e-05
2.83666e-06
6.70333e-05
3.57905e-06
6.66647e-05
4.40158e-06
6.62101e-05
5.45465e-06
6.56488e-05
6.7409e-06
6.4941e-05
8.37493e-06
6.40405e-05
1.04315e-05
6.29013e-05
1.37708e-05
6.13952e-05
1.75953e-05
5.9374e-05
2.60805e-05
5.64832e-05
3.56133e-05
5.21898e-05
5.73058e-05
4.56971e-05
7.99303e-05
3.47581e-05
0.000134096
2.08807e-05
0.000163285
0.000241302
6.81684e-05
2.67188e-07
6.81133e-05
7.23707e-07
6.80273e-05
1.11275e-06
6.79105e-05
1.51837e-06
6.77583e-05
1.96826e-06
6.7567e-05
2.49173e-06
6.73301e-05
3.07296e-06
6.70333e-05
3.87715e-06
6.66648e-05
4.76797e-06
6.62103e-05
5.90898e-06
6.5648e-05
7.30289e-06
6.49344e-05
9.08851e-06
6.40278e-05
1.13263e-05
6.28956e-05
1.49128e-05
6.13853e-05
1.91156e-05
5.93988e-05
2.80617e-05
5.65366e-05
3.84752e-05
5.23507e-05
6.14909e-05
4.59363e-05
8.63444e-05
3.51075e-05
0.000144924
2.11494e-05
0.000177243
0.000262452
6.81684e-05
2.87772e-07
6.81133e-05
7.79301e-07
6.80273e-05
1.19831e-06
6.79105e-05
1.63509e-06
6.77583e-05
2.11946e-06
6.75671e-05
2.68323e-06
6.73303e-05
3.30921e-06
6.70335e-05
4.17511e-06
6.6665e-05
5.13426e-06
6.62109e-05
6.36291e-06
6.56468e-05
7.86669e-06
6.49176e-05
9.8176e-06
6.40175e-05
1.22189e-05
6.28896e-05
1.60415e-05
6.13816e-05
2.06223e-05
5.94156e-05
3.00273e-05
5.65776e-05
4.13139e-05
5.24709e-05
6.55982e-05
4.61479e-05
9.26678e-05
3.5459e-05
0.000155613
2.14429e-05
0.000191259
0.000283895
6.81684e-05
3.08356e-07
6.81133e-05
8.34895e-07
6.80273e-05
1.28389e-06
6.79105e-05
1.75185e-06
6.77583e-05
2.27068e-06
6.75671e-05
2.87474e-06
6.73303e-05
3.54549e-06
6.70335e-05
4.47317e-06
6.66651e-05
5.50049e-06
6.6211e-05
6.81694e-06
6.56444e-05
8.43304e-06
6.49052e-05
1.05568e-05
6.40152e-05
1.31056e-05
6.28839e-05
1.71773e-05
6.13806e-05
2.21304e-05
5.94264e-05
3.19791e-05
5.66073e-05
4.41326e-05
5.25611e-05
6.96437e-05
4.63328e-05
9.88958e-05
3.58048e-05
0.000166141
2.17564e-05
0.000205307
0.000305651
6.81684e-05
3.28936e-07
6.81133e-05
8.90457e-07
6.80273e-05
1.36945e-06
6.79106e-05
1.86856e-06
6.77584e-05
2.42183e-06
6.75672e-05
3.0662e-06
6.73304e-05
3.78169e-06
6.70336e-05
4.77111e-06
6.66653e-05
5.86667e-06
6.62112e-05
7.2708e-06
6.5639e-05
9.00492e-06
6.49009e-05
1.12949e-05
6.40116e-05
1.39931e-05
6.28803e-05
1.83075e-05
6.13808e-05
2.36276e-05
5.94332e-05
3.39271e-05
5.66282e-05
4.69382e-05
5.26308e-05
7.36415e-05
4.64949e-05
0.000105032
3.61411e-05
0.000176495
2.20856e-05
0.000219363
0.000327737
6.81684e-05
3.49515e-07
6.81133e-05
9.4602e-07
6.80273e-05
1.45504e-06
6.79106e-05
1.9853e-06
6.77584e-05
2.57302e-06
6.75672e-05
3.25765e-06
6.73304e-05
4.01792e-06
6.70336e-05
5.06916e-06
6.66652e-05
6.23297e-06
6.62117e-05
7.7242e-06
6.56283e-05
9.58811e-06
6.4903e-05
1.20203e-05
6.40076e-05
1.48879e-05
6.28779e-05
1.94398e-05
6.13813e-05
2.51276e-05
5.94374e-05
3.58695e-05
5.66431e-05
4.97321e-05
5.2687e-05
7.7597e-05
4.66385e-05
0.00011108
3.64666e-05
0.000186667
2.24273e-05
0.000233402
0.000350164
6.81684e-05
3.70089e-07
6.81133e-05
1.00155e-06
6.80273e-05
1.54062e-06
6.79106e-05
2.10199e-06
6.77584e-05
2.72413e-06
6.75673e-05
3.44904e-06
6.73306e-05
4.2541e-06
6.70338e-05
5.36702e-06
6.66652e-05
6.59948e-06
6.62128e-05
8.17634e-06
6.56167e-05
1.01839e-05
6.49044e-05
1.27326e-05
6.40043e-05
1.57874e-05
6.28765e-05
2.05661e-05
6.13819e-05
2.662e-05
5.94399e-05
3.78122e-05
5.66538e-05
5.25187e-05
5.27345e-05
8.15167e-05
4.67678e-05
0.000117047
3.67817e-05
0.000196653
2.27791e-05
0.000247404
0.000372943
6.81684e-05
3.90662e-07
6.81133e-05
1.05708e-06
6.80273e-05
1.62622e-06
6.79106e-05
2.21873e-06
6.77584e-05
2.87529e-06
6.75673e-05
3.64044e-06
6.73306e-05
4.49031e-06
6.70339e-05
5.66493e-06
6.66651e-05
6.96617e-06
6.62131e-05
8.6283e-06
6.56091e-05
1.07877e-05
6.49032e-05
1.34385e-05
6.40019e-05
1.66887e-05
6.28756e-05
2.16944e-05
6.13827e-05
2.81156e-05
5.94415e-05
3.97522e-05
5.6662e-05
5.52978e-05
5.27767e-05
8.54016e-05
4.68865e-05
0.000122937
3.70876e-05
0.000206452
2.31396e-05
0.000261352
0.000396083
6.81684e-05
4.1123e-07
6.81133e-05
1.11258e-06
6.80273e-05
1.7118e-06
6.79106e-05
2.3354e-06
6.77585e-05
3.02635e-06
6.75674e-05
3.83177e-06
6.73307e-05
4.72645e-06
6.70341e-05
5.96263e-06
6.66653e-05
7.33283e-06
6.62098e-05
9.08366e-06
6.56069e-05
1.13903e-05
6.49009e-05
1.41445e-05
6.40003e-05
1.75889e-05
6.28751e-05
2.28182e-05
6.13835e-05
2.96051e-05
5.94426e-05
4.16937e-05
5.6669e-05
5.80718e-05
5.28161e-05
8.92549e-05
4.69978e-05
0.000128756
3.73861e-05
0.000216064
2.35079e-05
0.00027523
0.000419591
6.81684e-05
4.31797e-07
6.81133e-05
1.16808e-06
6.80274e-05
1.79741e-06
6.79106e-05
2.45212e-06
6.77585e-05
3.17747e-06
6.75674e-05
4.02312e-06
6.73307e-05
4.96259e-06
6.70341e-05
6.26049e-06
6.66658e-05
7.69906e-06
6.62005e-05
9.54897e-06
6.56089e-05
1.19818e-05
6.48988e-05
1.48546e-05
6.39993e-05
1.84884e-05
6.28749e-05
2.39443e-05
6.13845e-05
3.10978e-05
5.94437e-05
4.36335e-05
5.66757e-05
6.08396e-05
5.28546e-05
9.30755e-05
4.71044e-05
0.000134506
3.76794e-05
0.000225489
2.38839e-05
0.000289026
0.000443475
6.81684e-05
4.52358e-07
6.81133e-05
1.22354e-06
6.80274e-05
1.883e-06
6.79107e-05
2.56877e-06
6.77586e-05
3.32848e-06
6.75675e-05
4.2144e-06
6.7331e-05
5.19859e-06
6.70342e-05
6.55835e-06
6.66668e-05
8.06439e-06
6.61894e-05
1.00262e-05
6.56111e-05
1.256e-05
6.48972e-05
1.55685e-05
6.39987e-05
1.93866e-05
6.2875e-05
2.50668e-05
6.13858e-05
3.25851e-05
5.94453e-05
4.55746e-05
5.66829e-05
6.36024e-05
5.28936e-05
9.68651e-05
4.72084e-05
0.000140191
3.79697e-05
0.000234728
2.42679e-05
0.000302728
0.000467743
6.81684e-05
4.72917e-07
6.81133e-05
1.27901e-06
6.80274e-05
1.96862e-06
6.79106e-05
2.68548e-06
6.77586e-05
3.47956e-06
6.75675e-05
4.40571e-06
6.7331e-05
5.43456e-06
6.70341e-05
6.85647e-06
6.66676e-05
8.42885e-06
6.61809e-05
1.05129e-05
6.56115e-05
1.31294e-05
6.4896e-05
1.62841e-05
6.39984e-05
2.02843e-05
6.28753e-05
2.61913e-05
6.13874e-05
3.40751e-05
5.94478e-05
4.75133e-05
5.66913e-05
6.63585e-05
5.29339e-05
0.000100622
4.73115e-05
0.000145813
3.82596e-05
0.00024378
2.46605e-05
0.000316326
0.000492403
6.81684e-05
4.9347e-07
6.81133e-05
1.33444e-06
6.80274e-05
2.05422e-06
6.79107e-05
2.80211e-06
6.77587e-05
3.63053e-06
6.75676e-05
4.59695e-06
6.73313e-05
5.67041e-06
6.70343e-05
7.15453e-06
6.66684e-05
8.79262e-06
6.61759e-05
1.10053e-05
6.56108e-05
1.36944e-05
6.48953e-05
1.69996e-05
6.39984e-05
2.1181e-05
6.28759e-05
2.73126e-05
6.13895e-05
3.55597e-05
5.94514e-05
4.9452e-05
5.67015e-05
6.91088e-05
5.29759e-05
0.000104348
4.74149e-05
0.000151375
3.85512e-05
0.000252644
2.50629e-05
0.000329815
0.000517466
6.81684e-05
5.14021e-07
6.81134e-05
1.38988e-06
6.80274e-05
2.13985e-06
6.79107e-05
2.9188e-06
6.77587e-05
3.78157e-06
6.75676e-05
4.78821e-06
6.73313e-05
5.90626e-06
6.70343e-05
7.45265e-06
6.66687e-05
9.15624e-06
6.61729e-05
1.15012e-05
6.56098e-05
1.42575e-05
6.48948e-05
1.77146e-05
6.39985e-05
2.20773e-05
6.28768e-05
2.84357e-05
6.13923e-05
3.70462e-05
5.94566e-05
5.13868e-05
5.67137e-05
7.18514e-05
5.302e-05
0.000108041
4.75196e-05
0.000156875
3.8847e-05
0.000261316
2.54762e-05
0.000343185
0.000542943
6.81684e-05
5.34567e-07
6.81134e-05
1.44527e-06
6.80274e-05
2.22546e-06
6.79107e-05
3.03541e-06
6.77588e-05
3.93249e-06
6.75678e-05
4.97937e-06
6.73315e-05
6.14206e-06
6.70347e-05
7.75049e-06
6.66677e-05
9.52129e-06
6.61718e-05
1.19968e-05
6.5609e-05
1.48203e-05
6.48946e-05
1.8429e-05
6.39988e-05
2.29729e-05
6.2878e-05
2.95554e-05
6.13957e-05
3.85267e-05
5.94635e-05
5.33196e-05
5.67283e-05
7.4587e-05
5.30661e-05
0.000111704
4.76261e-05
0.000162315
3.91493e-05
0.000269793
2.59019e-05
0.000356433
0.000568845
6.81684e-05
5.5511e-07
6.81134e-05
1.50068e-06
6.80274e-05
2.3111e-06
6.79107e-05
3.15208e-06
6.77588e-05
4.0835e-06
6.75678e-05
5.17054e-06
6.73314e-05
6.37792e-06
6.7035e-05
8.0481e-06
6.66622e-05
9.89213e-06
6.6174e-05
1.24853e-05
6.56084e-05
1.53859e-05
6.48945e-05
1.9143e-05
6.39993e-05
2.38681e-05
6.28795e-05
3.06765e-05
6.13998e-05
4.00084e-05
5.9472e-05
5.52465e-05
5.67452e-05
7.73135e-05
5.31143e-05
0.000115334
4.77349e-05
0.000167694
3.94601e-05
0.000278068
2.63415e-05
0.000369551
0.000595186
6.81684e-05
5.75648e-07
6.81134e-05
1.55604e-06
6.80274e-05
2.39672e-06
6.79108e-05
3.26866e-06
6.77588e-05
4.23439e-06
6.75679e-05
5.36159e-06
6.73316e-05
6.6138e-06
6.70357e-05
8.34509e-06
6.66543e-05
1.02716e-05
6.6178e-05
1.29615e-05
6.56081e-05
1.59558e-05
6.48946e-05
1.98564e-05
6.4e-05
2.47626e-05
6.28814e-05
3.17939e-05
6.14048e-05
4.14832e-05
5.94823e-05
5.71697e-05
5.67645e-05
8.00317e-05
5.31646e-05
0.000118934
4.78461e-05
0.000173013
3.97812e-05
0.000286133
2.67966e-05
0.000382536
0.000621983
6.81684e-05
5.96183e-07
6.81134e-05
1.61141e-06
6.80274e-05
2.48237e-06
6.79108e-05
3.38531e-06
6.77588e-05
4.38538e-06
6.7568e-05
5.55263e-06
6.73315e-05
6.84979e-06
6.70361e-05
8.64162e-06
6.66475e-05
1.06584e-05
6.61808e-05
1.34285e-05
6.56079e-05
1.65286e-05
6.48948e-05
2.05695e-05
6.40008e-05
2.56567e-05
6.28836e-05
3.29124e-05
6.14105e-05
4.29583e-05
5.94941e-05
5.90851e-05
5.67862e-05
8.27392e-05
5.32171e-05
0.000122503
4.79599e-05
0.00017827
4.01141e-05
0.000293978
2.72687e-05
0.000395381
0.000649252
6.81684e-05
6.16712e-07
6.81134e-05
1.66674e-06
6.80275e-05
2.56799e-06
6.79108e-05
3.50185e-06
6.77589e-05
4.53624e-06
6.75681e-05
5.74355e-06
6.73317e-05
7.08579e-06
6.70368e-05
8.93752e-06
6.6643e-05
1.10506e-05
6.61822e-05
1.38892e-05
6.56079e-05
1.71029e-05
6.48951e-05
2.12822e-05
6.40017e-05
2.655e-05
6.28861e-05
3.40267e-05
6.14169e-05
4.44258e-05
5.95074e-05
6.09952e-05
5.68104e-05
8.54366e-05
5.32716e-05
0.000126042
4.80761e-05
0.000183466
4.04595e-05
0.000301595
2.77588e-05
0.000408082
0.00067701
6.81684e-05
6.37239e-07
6.81134e-05
1.72208e-06
6.80275e-05
2.65365e-06
6.79108e-05
3.61847e-06
6.77589e-05
4.68719e-06
6.75682e-05
5.93447e-06
6.73317e-05
7.32185e-06
6.70372e-05
9.23314e-06
6.66399e-05
1.14462e-05
6.61829e-05
1.43464e-05
6.5608e-05
1.76779e-05
6.48955e-05
2.19947e-05
6.40028e-05
2.74429e-05
6.28889e-05
3.51418e-05
6.14239e-05
4.58929e-05
5.9522e-05
6.28962e-05
5.6837e-05
8.81214e-05
5.33285e-05
0.00012955
4.81945e-05
0.0001886
4.08179e-05
0.000308972
2.82681e-05
0.000420632
0.000705279
6.81684e-05
6.57761e-07
6.81134e-05
1.77737e-06
6.80275e-05
2.73927e-06
6.79109e-05
3.73498e-06
6.7759e-05
4.83801e-06
6.75683e-05
6.12527e-06
6.73319e-05
7.55784e-06
6.70377e-05
9.52839e-06
6.6638e-05
1.18442e-05
6.61834e-05
1.4801e-05
6.56082e-05
1.8253e-05
6.4896e-05
2.27069e-05
6.40039e-05
2.83348e-05
6.28921e-05
3.62525e-05
6.14315e-05
4.73517e-05
5.9538e-05
6.47903e-05
5.6866e-05
9.07937e-05
5.33877e-05
0.000133029
4.83152e-05
0.000193672
4.11894e-05
0.000316098
2.8797e-05
0.000433024
0.000734076
6.81684e-05
6.78279e-07
6.81134e-05
1.83268e-06
6.80275e-05
2.82493e-06
6.79109e-05
3.85158e-06
6.7759e-05
4.98893e-06
6.75683e-05
6.31611e-06
6.7332e-05
7.7938e-06
6.70378e-05
9.8236e-06
6.66368e-05
1.22437e-05
6.61838e-05
1.52542e-05
6.56085e-05
1.88283e-05
6.48965e-05
2.34189e-05
6.40052e-05
2.92261e-05
6.28955e-05
3.73636e-05
6.14397e-05
4.88096e-05
5.95552e-05
6.66738e-05
5.68974e-05
9.34512e-05
5.34495e-05
0.000136477
4.8438e-05
0.000198684
4.15735e-05
0.000322962
2.9346e-05
0.000445251
0.000763422
6.81684e-05
6.98793e-07
6.81134e-05
1.88795e-06
6.80275e-05
2.91056e-06
6.79109e-05
3.96805e-06
6.77591e-05
5.13969e-06
6.75685e-05
6.50684e-06
6.73323e-05
8.02959e-06
6.70381e-05
1.01188e-05
6.6636e-05
1.26444e-05
6.61842e-05
1.5706e-05
6.56089e-05
1.94036e-05
6.48971e-05
2.41306e-05
6.40066e-05
3.01165e-05
6.28991e-05
3.84699e-05
6.14483e-05
5.02586e-05
5.95735e-05
6.85493e-05
5.69313e-05
9.60937e-05
5.3514e-05
0.000139894
4.85631e-05
0.000203635
4.197e-05
0.000329555
2.99152e-05
0.000457306
0.000793337
6.81684e-05
7.19304e-07
6.81134e-05
1.94323e-06
6.80275e-05
2.99622e-06
6.79109e-05
4.08462e-06
6.77592e-05
5.29056e-06
6.75685e-05
6.69764e-06
6.73324e-05
8.26524e-06
6.70381e-05
1.04142e-05
6.66354e-05
1.30457e-05
6.61846e-05
1.61569e-05
6.56093e-05
1.9979e-05
6.48978e-05
2.48422e-05
6.40081e-05
3.10062e-05
6.29029e-05
3.95765e-05
6.14573e-05
5.17062e-05
5.95929e-05
7.04127e-05
5.69676e-05
9.87187e-05
5.35813e-05
0.00014328
4.86907e-05
0.000208525
4.23785e-05
0.000335867
3.05048e-05
0.00046918
0.000823842
6.81684e-05
7.3981e-07
6.81134e-05
1.99846e-06
6.80276e-05
3.08184e-06
6.7911e-05
4.20106e-06
6.77593e-05
5.44124e-06
6.75687e-05
6.88834e-06
6.73329e-05
8.50061e-06
6.70379e-05
1.07102e-05
6.6635e-05
1.34472e-05
6.61851e-05
1.66068e-05
6.56098e-05
2.05542e-05
6.48985e-05
2.55535e-05
6.40097e-05
3.18948e-05
6.29069e-05
4.0678e-05
6.14668e-05
5.31446e-05
5.96134e-05
7.22668e-05
5.70063e-05
0.000101326
5.36517e-05
0.000146635
4.88212e-05
0.000213356
4.27988e-05
0.00034189
3.11149e-05
0.000480864
0.000854957
6.81684e-05
7.60314e-07
6.81134e-05
2.05371e-06
6.80276e-05
3.16749e-06
6.7911e-05
4.31761e-06
6.77593e-05
5.59201e-06
6.75686e-05
7.07919e-06
6.73332e-05
8.73557e-06
6.70335e-05
1.10111e-05
6.66366e-05
1.38433e-05
6.61856e-05
1.70579e-05
6.56103e-05
2.11295e-05
6.48992e-05
2.62646e-05
6.40113e-05
3.27828e-05
6.29111e-05
4.17797e-05
6.14766e-05
5.45811e-05
5.96348e-05
7.41076e-05
5.70473e-05
0.000103913
5.37254e-05
0.000149957
4.89551e-05
0.000218126
4.32313e-05
0.000347614
3.17459e-05
0.000492349
0.000886703
6.81684e-05
7.80813e-07
6.81134e-05
2.10891e-06
6.80276e-05
3.2531e-06
6.79111e-05
4.43402e-06
6.77595e-05
5.74256e-06
6.75686e-05
7.2701e-06
6.73343e-05
8.9695e-06
6.70198e-05
1.13266e-05
6.66436e-05
1.42192e-05
6.61861e-05
1.75154e-05
6.56109e-05
2.17047e-05
6.49e-05
2.69755e-05
6.4013e-05
3.36696e-05
6.29154e-05
4.2876e-05
6.14867e-05
5.60079e-05
5.96571e-05
7.59379e-05
5.70905e-05
0.00010648
5.38026e-05
0.000153245
4.90928e-05
0.000222836
4.36762e-05
0.00035303
3.23983e-05
0.000503627
0.000919101
6.81684e-05
8.01309e-07
6.81134e-05
2.16413e-06
6.80276e-05
3.33875e-06
6.7911e-05
4.55056e-06
6.77595e-05
5.89319e-06
6.75685e-05
7.46122e-06
6.73349e-05
9.20278e-06
6.70118e-05
1.16506e-05
6.66472e-05
1.45837e-05
6.61866e-05
1.7976e-05
6.56115e-05
2.22799e-05
6.49008e-05
2.76863e-05
6.40147e-05
3.45557e-05
6.29198e-05
4.39724e-05
6.14972e-05
5.74326e-05
5.96804e-05
7.77538e-05
5.71359e-05
0.000109024
5.38837e-05
0.000156497
4.92347e-05
0.000227485
4.41341e-05
0.000358131
3.30728e-05
0.000514688
0.000952174
6.81683e-05
8.21801e-07
6.81135e-05
2.2193e-06
6.80276e-05
3.42435e-06
6.79111e-05
4.66694e-06
6.77597e-05
6.04362e-06
6.75687e-05
7.6522e-06
6.73353e-05
9.43582e-06
6.70094e-05
1.19774e-05
6.66478e-05
1.49453e-05
6.61872e-05
1.84366e-05
6.56121e-05
2.2855e-05
6.49015e-05
2.83968e-05
6.40165e-05
3.54406e-05
6.29243e-05
4.50631e-05
6.1508e-05
5.8847e-05
5.97044e-05
7.95581e-05
5.71833e-05
0.000111546
5.39688e-05
0.000159712
4.93808e-05
0.000232073
4.46049e-05
0.000362907
3.37699e-05
0.000525523
0.000985944
6.81683e-05
8.42292e-07
6.81135e-05
2.27449e-06
6.80276e-05
3.50998e-06
6.79111e-05
4.78342e-06
6.77596e-05
6.19421e-06
6.75689e-05
7.84304e-06
6.73335e-05
9.67091e-06
6.70084e-05
1.23031e-05
6.66478e-05
1.53058e-05
6.61876e-05
1.88968e-05
6.56126e-05
2.343e-05
6.49023e-05
2.91071e-05
6.40182e-05
3.63248e-05
6.29289e-05
4.61541e-05
6.1519e-05
6.02595e-05
5.97291e-05
8.13469e-05
5.72325e-05
0.000114042
5.40584e-05
0.000162885
4.95309e-05
0.0002366
4.50872e-05
0.00036735
3.44889e-05
0.000536121
0.00102043
6.81683e-05
8.6278e-07
6.81135e-05
2.32963e-06
6.80277e-05
3.59559e-06
6.79113e-05
4.89967e-06
6.77595e-05
6.34499e-06
6.75703e-05
8.0322e-06
6.73189e-05
9.92206e-06
6.70104e-05
1.26118e-05
6.66477e-05
1.56685e-05
6.6188e-05
1.93565e-05
6.56132e-05
2.40048e-05
6.49031e-05
2.98172e-05
6.402e-05
3.72077e-05
6.29336e-05
4.72388e-05
6.15302e-05
6.16607e-05
5.97544e-05
8.31235e-05
5.72833e-05
0.000116514
5.41528e-05
0.000166016
4.96846e-05
0.000241069
4.55764e-05
0.000371459
3.52269e-05
0.000546471
0.00105566
6.81683e-05
8.83263e-07
6.81135e-05
2.38477e-06
6.80277e-05
3.68126e-06
6.79113e-05
5.01596e-06
6.77592e-05
6.49621e-06
6.75714e-05
8.22018e-06
6.73089e-05
1.01841e-05
6.70116e-05
1.29093e-05
6.66476e-05
1.60324e-05
6.61884e-05
1.98158e-05
6.56137e-05
2.45795e-05
6.49039e-05
3.05271e-05
6.40217e-05
3.809e-05
6.29383e-05
4.8324e-05
6.15417e-05
6.30599e-05
5.97803e-05
8.48838e-05
5.73354e-05
0.000118958
5.42523e-05
0.000169099
4.98416e-05
0.000245479
4.60633e-05
0.000375237
3.59759e-05
0.000556558
0.00109164
6.81683e-05
9.03694e-07
6.81135e-05
2.43983e-06
6.80277e-05
3.76686e-06
6.79115e-05
5.13201e-06
6.77594e-05
6.64716e-06
6.7572e-05
8.40761e-06
6.73063e-05
1.04495e-05
6.70113e-05
1.32043e-05
6.66475e-05
1.63962e-05
6.61886e-05
2.02746e-05
6.56142e-05
2.51538e-05
6.49046e-05
3.12367e-05
6.40234e-05
3.8971e-05
6.2943e-05
4.94028e-05
6.15532e-05
6.44476e-05
5.98066e-05
8.66312e-05
5.73885e-05
0.000121377
5.4358e-05
0.00017213
5.0001e-05
0.000249836
4.65446e-05
0.000378694
3.68157e-05
0.000566287
0.00112845
1.04839e-06
-1.04841e-06
-1.08825e-06
2.13663e-06
-1.93495e-06
8.46694e-07
-2.0977e-06
1.62745e-07
-1.79414e-06
-3.03583e-07
-1.32169e-06
-4.72501e-07
-1.0948e-06
-2.26962e-07
-1.02784e-06
-6.71459e-08
-1.08842e-06
6.00654e-08
-1.20379e-06
1.14556e-07
-1.44527e-06
2.2281e-07
-1.4291e-06
-1.68313e-09
-1.05891e-06
-3.67778e-07
-3.7773e-07
-6.76694e-07
4.17206e-07
-7.93946e-07
1.39213e-06
-9.78245e-07
2.74926e-06
-1.36096e-06
4.7806e-06
-2.03156e-06
7.46515e-06
-2.68341e-06
1.05836e-05
-3.11626e-06
1.39345e-05
-3.3463e-06
1.736e-05
-3.42829e-06
2.07259e-05
-3.3671e-06
2.3957e-05
-3.23025e-06
2.70326e-05
-3.07378e-06
2.99685e-05
-2.93701e-06
3.28089e-05
-2.84187e-06
3.55903e-05
-2.78136e-06
3.83155e-05
-2.72604e-06
4.1064e-05
-2.74692e-06
4.37871e-05
-2.72069e-06
4.56185e-05
-1.83365e-06
4.99509e-05
-4.3357e-06
6.03834e-05
-1.04297e-05
-6.81459e-06
1.0694e-06
-2.11785e-06
-1.06596e-06
4.27198e-06
-1.89896e-06
1.67968e-06
-2.06783e-06
3.31599e-07
-1.75598e-06
-6.15467e-07
-1.29768e-06
-9.30912e-07
-1.06892e-06
-4.55868e-07
-1.00695e-06
-1.29481e-07
-1.05753e-06
1.09617e-07
-1.16689e-06
2.22159e-07
-1.41494e-06
4.39949e-07
-1.4275e-06
3.38891e-08
-1.08623e-06
-7.04345e-07
-3.87512e-07
-1.3664e-06
4.60215e-07
-1.63962e-06
1.45758e-06
-1.98234e-06
2.7776e-06
-2.68882e-06
4.75371e-06
-4.00811e-06
7.41395e-06
-5.3411e-06
1.05554e-05
-6.25343e-06
1.39365e-05
-6.71855e-06
1.73642e-05
-6.8612e-06
2.07205e-05
-6.72579e-06
2.39431e-05
-6.45134e-06
2.70172e-05
-6.1445e-06
2.99551e-05
-5.87692e-06
3.27971e-05
-5.68674e-06
3.55788e-05
-5.56301e-06
3.83013e-05
-5.44994e-06
4.1042e-05
-5.48483e-06
4.37688e-05
-5.44298e-06
4.56267e-05
-3.69579e-06
4.97543e-05
-8.46924e-06
6.01149e-05
-2.07852e-05
-1.38194e-05
1.08942e-06
-3.20731e-06
-1.03851e-06
6.39989e-06
-1.86012e-06
2.50127e-06
-2.01691e-06
4.8837e-07
-1.70387e-06
-9.28528e-07
-1.25142e-06
-1.38346e-06
-1.02781e-06
-6.79602e-07
-9.6448e-07
-1.93124e-07
-1.00723e-06
1.51503e-07
-1.11641e-06
3.29978e-07
-1.38401e-06
6.75785e-07
-1.43152e-06
1.06046e-07
-1.10518e-06
-1.02593e-06
-3.65141e-07
-2.09753e-06
5.37982e-07
-2.54078e-06
1.53844e-06
-2.9899e-06
2.80511e-06
-3.9637e-06
4.72861e-06
-5.93209e-06
7.3822e-06
-7.99244e-06
1.05578e-05
-9.42479e-06
1.39729e-05
-1.01246e-05
1.7406e-05
-1.02996e-05
2.07511e-05
-1.00731e-05
2.39656e-05
-9.66416e-06
2.70373e-05
-9.21281e-06
2.99751e-05
-8.8167e-06
3.28164e-05
-8.53106e-06
3.5597e-05
-8.34357e-06
3.83157e-05
-8.17008e-06
4.10466e-05
-8.2129e-06
4.37731e-05
-8.16488e-06
4.56559e-05
-5.58289e-06
4.95916e-05
-1.24109e-05
5.9875e-05
-3.10635e-05
-2.09886e-05
1.11185e-06
-4.31921e-06
-1.00855e-06
8.52029e-06
-1.81324e-06
3.30595e-06
-1.95027e-06
6.25371e-07
-1.63307e-06
-1.24576e-06
-1.18749e-06
-1.82915e-06
-9.70593e-07
-8.96641e-07
-9.06454e-07
-2.57622e-07
-9.42798e-07
1.86849e-07
-1.05439e-06
4.39797e-07
-1.34281e-06
9.35716e-07
-1.42491e-06
2.08942e-07
-1.10902e-06
-1.33639e-06
-3.21769e-07
-2.87415e-06
6.39497e-07
-3.49962e-06
1.64119e-06
-4.00044e-06
2.84892e-06
-5.18198e-06
4.71623e-06
-7.8e-06
7.36804e-06
-1.06409e-05
1.05883e-05
-1.26398e-05
1.40453e-05
-1.35715e-05
1.74878e-05
-1.37481e-05
2.0823e-05
-1.3411e-05
2.40281e-05
-1.28676e-05
2.70955e-05
-1.22766e-05
3.0031e-05
-1.17544e-05
3.28697e-05
-1.1373e-05
3.56477e-05
-1.11215e-05
3.83609e-05
-1.08848e-05
4.10793e-05
-1.09282e-05
4.38009e-05
-1.08816e-05
4.57067e-05
-7.49337e-06
4.94643e-05
-1.61747e-05
5.96619e-05
-4.12557e-05
-2.82984e-05
1.13667e-06
-5.45592e-06
-9.76105e-07
1.06331e-05
-1.75782e-06
4.08765e-06
-1.86804e-06
7.3557e-07
-1.54437e-06
-1.56945e-06
-1.10711e-06
-2.26651e-06
-8.98544e-07
-1.10532e-06
-8.33949e-07
-3.22501e-07
-8.64975e-07
2.17093e-07
-9.79765e-07
5.53413e-07
-1.28856e-06
1.21753e-06
-1.40508e-06
3.46142e-07
-1.09625e-06
-1.63987e-06
-2.55861e-07
-3.70442e-06
7.68838e-07
-4.52217e-06
1.77329e-06
-5.01403e-06
2.91712e-06
-6.33687e-06
4.72233e-06
-9.60593e-06
7.37615e-06
-1.32917e-05
1.06528e-05
-1.59109e-05
1.4161e-05
-1.7069e-05
1.76172e-05
-1.72106e-05
2.09432e-05
-1.67396e-05
2.41374e-05
-1.60598e-05
2.7198e-05
-1.53333e-05
3.01285e-05
-1.46873e-05
3.29621e-05
-1.42099e-05
3.57352e-05
-1.38945e-05
3.84406e-05
-1.35918e-05
4.11431e-05
-1.36274e-05
4.38544e-05
-1.3588e-05
4.5781e-05
-9.4248e-06
4.93726e-05
-1.97727e-05
5.94745e-05
-5.13522e-05
-3.57255e-05
1.16377e-06
-6.61973e-06
-9.41099e-07
1.27379e-05
-1.69307e-06
4.8396e-06
-1.76992e-06
8.12394e-07
-1.43794e-06
-1.90146e-06
-1.0108e-06
-2.69376e-06
-8.12064e-07
-1.30419e-06
-7.47178e-07
-3.87756e-07
-7.73639e-07
2.42557e-07
-8.91271e-07
6.69221e-07
-1.21868e-06
1.5201e-06
-1.36926e-06
5.13992e-07
-1.06565e-06
-1.93719e-06
-1.6829e-07
-4.58939e-06
9.25894e-07
-5.61364e-06
1.93912e-06
-6.03849e-06
3.01869e-06
-7.43076e-06
4.75704e-06
-1.13452e-05
7.41637e-06
-1.59462e-05
1.07621e-05
-1.92492e-05
1.43324e-05
-2.06262e-05
1.78068e-05
-2.06928e-05
2.11237e-05
-2.00598e-05
2.43041e-05
-1.92379e-05
2.73542e-05
-1.83791e-05
3.02762e-05
-1.76121e-05
3.31015e-05
-1.7039e-05
3.58667e-05
-1.66597e-05
3.85607e-05
-1.62876e-05
4.12427e-05
-1.63057e-05
4.39372e-05
-1.62771e-05
4.58817e-05
-1.13746e-05
4.93171e-05
-2.32149e-05
5.93116e-05
-6.13409e-05
-4.32478e-05
1.19291e-06
-7.81268e-06
-9.03364e-07
1.48342e-05
-1.61787e-06
5.55408e-06
-1.6548e-06
8.49298e-07
-1.31314e-06
-2.24314e-06
-8.98113e-07
-3.10889e-06
-7.10617e-07
-1.49179e-06
-6.45414e-07
-4.5325e-07
-6.67624e-07
2.64034e-07
-7.86986e-07
7.87448e-07
-1.13035e-06
1.84107e-06
-1.31455e-06
7.14586e-07
-1.01626e-06
-2.22943e-06
-6.06164e-08
-5.53336e-06
1.10902e-06
-6.78096e-06
2.14101e-06
-7.0815e-06
3.1627e-06
-8.46635e-06
4.8343e-06
-1.30178e-05
7.50425e-06
-1.8612e-05
1.09337e-05
-2.26706e-05
1.45793e-05
-2.42571e-05
1.80773e-05
-2.41999e-05
2.13834e-05
-2.33692e-05
2.45447e-05
-2.23966e-05
2.75786e-05
-2.14083e-05
3.04872e-05
-2.05237e-05
3.32998e-05
-1.98557e-05
3.60528e-05
-1.94126e-05
3.87304e-05
-1.89672e-05
4.13852e-05
-1.89565e-05
4.40546e-05
-1.89407e-05
4.6013e-05
-1.33387e-05
4.92992e-05
-2.65082e-05
5.91727e-05
-7.12085e-05
-5.08434e-05
1.22367e-06
-9.0364e-06
-8.62593e-07
1.69204e-05
-1.53079e-06
6.22226e-06
-1.52102e-06
8.39501e-07
-1.16891e-06
-2.59528e-06
-7.67981e-07
-3.50994e-06
-5.9296e-07
-1.66696e-06
-5.27167e-07
-5.19445e-07
-5.44866e-07
2.8069e-07
-6.641e-07
9.04692e-07
-1.01999e-06
2.17517e-06
-1.23747e-06
9.45895e-07
-9.46185e-07
-2.51337e-06
6.76203e-08
-6.53222e-06
1.3189e-06
-8.02917e-06
2.38212e-06
-8.15839e-06
3.35846e-06
-9.46063e-06
4.9709e-06
-1.46315e-05
7.66131e-06
-2.12954e-05
1.11935e-05
-2.61919e-05
1.49328e-05
-2.79779e-05
1.84616e-05
-2.77399e-05
2.17526e-05