/*--------------------------------*- C++ -*----------------------------------*\
| =========                 |                                                 |
| \\      /  F ield         | OpenFOAM: The Open Source CFD Toolbox           |
|  \\    /   O peration     | Version:  v1912                                 |
|   \\  /    A nd           | Website:  www.openfoam.com                      |
|    \\/     M anipulation  |                                                 |
\*---------------------------------------------------------------------------*/
FoamFile
{
    version     2.0;
    format      ascii;
    class       volVectorField;
    location    "580";
    object      U;
}
// * * * * * * * * * * * * * * * * * * * * * * * * * * * * * * * * * * * * * //

dimensions      [0 1 -1 0 0 0 0];


internalField   nonuniform List<vector> 
12441
(
(29.9988 1.72654e-05 0)
(29.9852 5.24331e-05 0)
(29.9555 9.12046e-05 0)
(29.9105 0.00013989 0)
(29.8517 0.00020376 0)
(29.7764 0.000289605 0)
(29.6837 0.00040153 0)
(29.5672 0.00056776 0)
(29.4233 0.000787053 0)
(29.2442 0.00109423 0)
(29.0244 0.00152215 0)
(28.7412 0.00211815 0)
(28.4205 0.00295036 0)
(27.9625 0.00442945 0)
(27.4224 0.00618691 0)
(26.6506 0.0112135 0)
(25.5936 0.0151995 0)
(23.9132 0.0317688 0)
(21.5434 0.0531706 0)
(17.8369 0.0914697 0)
(12.0534 0.121867 0)
(5.77822 0.195598 0)
(29.9988 5.12955e-05 0)
(29.9852 0.000156561 0)
(29.9555 0.000271847 0)
(29.9104 0.000417132 0)
(29.8517 0.000608109 0)
(29.7763 0.000864456 0)
(29.6838 0.00119957 0)
(29.5671 0.0016997 0)
(29.4232 0.00235224 0)
(29.2443 0.00327496 0)
(29.0247 0.00455774 0)
(28.7398 0.00633363 0)
(28.4199 0.00885246 0)
(27.9638 0.0132203 0)
(27.4278 0.0185966 0)
(26.6559 0.0335064 0)
(25.5928 0.0481737 0)
(23.9117 0.0911914 0)
(21.543 0.138928 0)
(17.8352 0.264669 0)
(12.0546 0.358064 0)
(5.78215 0.584205 0)
(29.9988 8.51752e-05 0)
(29.9852 0.000260619 0)
(29.9555 0.000451853 0)
(29.9104 0.000693364 0)
(29.8517 0.00101114 0)
(29.7763 0.00143871 0)
(29.6838 0.00199565 0)
(29.5671 0.00282977 0)
(29.4232 0.00391592 0)
(29.2443 0.00545371 0)
(29.0248 0.00758449 0)
(28.7396 0.0105617 0)
(28.4212 0.0147564 0)
(27.9605 0.0219837 0)
(27.4237 0.0310404 0)
(26.6547 0.0549688 0)
(25.5928 0.0819722 0)
(23.916 0.148793 0)
(21.5462 0.222142 0)
(17.835 0.435531 0)
(12.0608 0.590765 0)
(5.79052 0.970902 0)
(29.9988 0.000119484 0)
(29.9852 0.000365432 0)
(29.9555 0.000632754 0)
(29.9104 0.000970863 0)
(29.8517 0.00141586 0)
(29.7764 0.00201483 0)
(29.6839 0.00279429 0)
(29.5672 0.00396338 0)
(29.4233 0.00548349 0)
(29.2444 0.00763753 0)
(29.0248 0.0106186 0)
(28.74 0.0147958 0)
(28.4201 0.0206679 0)
(27.9649 0.030775 0)
(27.4283 0.0435125 0)
(26.656 0.0764834 0)
(25.5953 0.115007 0)
(23.9208 0.209363 0)
(21.5546 0.330081 0)
(17.8396 0.61444 0)
(12.0733 0.827424 0)
(5.80359 1.35924 0)
(29.9988 0.000153858 0)
(29.9852 0.000470131 0)
(29.9555 0.000813452 0)
(29.9104 0.00124811 0)
(29.8517 0.00182018 0)
(29.7764 0.00259034 0)
(29.6839 0.00359224 0)
(29.5672 0.00509606 0)
(29.4233 0.00704972 0)
(29.2444 0.00981985 0)
(29.0249 0.0136519 0)
(28.74 0.0190271 0)
(28.4217 0.0265807 0)
(27.9611 0.039558 0)
(27.4243 0.0560116 0)
(26.6555 0.0977531 0)
(25.5971 0.147567 0)
(23.9252 0.270699 0)
(21.5656 0.420863 0)
(17.85 0.789538 0)
(12.0935 1.06388 0)
(5.82167 1.74887 0)
(29.9988 0.00018823 0)
(29.9852 0.000574759 0)
(29.9555 0.000994127 0)
(29.9105 0.00152536 0)
(29.8517 0.00222446 0)
(29.7764 0.00316586 0)
(29.6839 0.00439029 0)
(29.5673 0.00622872 0)
(29.4234 0.008616 0)
(29.2445 0.0120026 0)
(29.025 0.0166857 0)
(28.7404 0.0232587 0)
(28.4201 0.0324896 0)
(27.9663 0.0483421 0)
(27.4299 0.0685265 0)
(26.6573 0.118899 0)
(25.6009 0.179851 0)
(23.9299 0.33151 0)
(21.5785 0.5101 0)
(17.8672 0.963319 0)
(12.1232 1.30003 0)
(5.84517 2.13959 0)
(29.9988 0.0002226 0)
(29.9852 0.000679354 0)
(29.9555 0.0011748 0)
(29.9105 0.00180262 0)
(29.8517 0.00262869 0)
(29.7764 0.00374133 0)
(29.6839 0.00518829 0)
(29.5673 0.00736128 0)
(29.4234 0.0101821 0)
(29.2445 0.0141852 0)
(29.0251 0.0197192 0)
(28.7405 0.0274901 0)
(28.4223 0.0384078 0)
(27.9614 0.0570984 0)
(27.4255 0.0810192 0)
(26.6569 0.139902 0)
(25.604 0.211408 0)
(23.9343 0.389753 0)
(21.5964 0.601468 0)
(17.8948 1.13719 0)
(12.165 1.5363 0)
(5.87461 2.53173 0)
(29.9988 0.00025697 0)
(29.9852 0.000783919 0)
(29.9555 0.00135546 0)
(29.9105 0.00207985 0)
(29.8518 0.00303283 0)
(29.7765 0.00431673 0)
(29.684 0.00598624 0)
(29.5674 0.00849365 0)
(29.4236 0.011748 0)
(29.2447 0.0163678 0)
(29.0252 0.022753 0)
(28.7409 0.0317209 0)
(28.4199 0.0443186 0)
(27.9675 0.0658514 0)
(27.4322 0.0933858 0)
(26.658 0.160491 0)
(25.6104 0.24452 0)
(23.9403 0.449881 0)
(21.6289 0.693863 0)
(17.9404 1.31056 0)
(12.2223 1.77289 0)
(5.91061 2.92577 0)
(29.9988 0.000291341 0)
(29.9852 0.000888455 0)
(29.9555 0.0015361 0)
(29.9105 0.00235708 0)
(29.8518 0.0034369 0)
(29.7765 0.00489207 0)
(29.684 0.00678414 0)
(29.5674 0.0096259 0)
(29.4236 0.0133138 0)
(29.2447 0.0185504 0)
(29.0253 0.0257858 0)
(28.7412 0.0359536 0)
(28.4231 0.0502408 0)
(27.9619 0.0746769 0)
(27.4278 0.105827 0)
(26.6532 0.181427 0)
(25.6186 0.276046 0)
(23.953 0.509364 0)
(21.6903 0.78592 0)
(18.0131 1.48313 0)
(12.299 2.01013 0)
(5.95384 3.32223 0)
(29.9988 0.000325711 0)
(29.9852 0.000992959 0)
(29.9556 0.00171674 0)
(29.9105 0.00263428 0)
(29.8518 0.00384088 0)
(29.7765 0.00546734 0)
(29.684 0.007582 0)
(29.5675 0.010758 0)
(29.4237 0.0148792 0)
(29.2449 0.0207324 0)
(29.0255 0.0288177 0)
(28.7416 0.0401877 0)
(28.4189 0.0561685 0)
(27.9674 0.0833169 0)
(27.4322 0.11891 0)
(26.6483 0.202778 0)
(25.6334 0.30821 0)
(23.9845 0.566892 0)
(21.7836 0.877756 0)
(18.116 1.6553 0)
(12.3977 2.24849 0)
(6.00501 3.72174 0)
(29.9988 0.000360081 0)
(29.9852 0.00109744 0)
(29.9556 0.00189737 0)
(29.9105 0.00291147 0)
(29.8518 0.0042448 0)
(29.7765 0.00604255 0)
(29.6841 0.0083798 0)
(29.5675 0.01189 0)
(29.4237 0.0164443 0)
(29.2449 0.022915 0)
(29.0255 0.0318493 0)
(28.742 0.0444239 0)
(28.4225 0.0621394 0)
(27.9686 0.0918929 0)
(27.4286 0.131366 0)
(26.6433 0.223126 0)
(25.6537 0.341202 0)
(24.0357 0.623486 0)
(21.8907 0.969439 0)
(18.242 1.8271 0)
(12.5192 2.48837 0)
(6.06481 4.12494 0)
(29.9988 0.000394449 0)
(29.9852 0.00120188 0)
(29.9556 0.002078 0)
(29.9105 0.00318865 0)
(29.8518 0.00464865 0)
(29.7766 0.00661768 0)
(29.6841 0.00917756 0)
(29.5676 0.0130217 0)
(29.4238 0.0180093 0)
(29.2452 0.0250964 0)
(29.0258 0.034882 0)
(28.7428 0.048663 0)
(28.4171 0.0680262 0)
(27.9737 0.100757 0)
(27.4242 0.144965 0)
(26.6416 0.243632 0)
(25.6733 0.37365 0)
(24.09 0.678115 0)
(21.9898 1.06009 0)
(18.378 1.99797 0)
(12.6613 2.72993 0)
(6.1338 4.53252 0)
(29.9988 0.000428815 0)
(29.9852 0.0013063 0)
(29.9556 0.00225863 0)
(29.9105 0.00346581 0)
(29.8518 0.00505244 0)
(29.7766 0.00719274 0)
(29.6841 0.00997527 0)
(29.5676 0.0141534 0)
(29.4239 0.0195735 0)
(29.2452 0.0272784 0)
(29.026 0.0379083 0)
(28.7431 0.0529976 0)
(28.4176 0.0738166 0)
(27.9708 0.109834 0)
(27.4177 0.15875 0)
(26.6427 0.263454 0)
(25.6884 0.405327 0)
(24.1346 0.730623 0)
(22.0713 1.14928 0)
(18.5121 2.16721 0)
(12.8204 2.97305 0)
(6.2123 4.9451 0)
(29.9988 0.000463178 0)
(29.9852 0.00141069 0)
(29.9556 0.00243926 0)
(29.9105 0.00374295 0)
(29.8518 0.00545617 0)
(29.7766 0.00776773 0)
(29.6842 0.0107729 0)
(29.5677 0.0152849 0)
(29.424 0.0211376 0)
(29.2454 0.0294601 0)
(29.0264 0.0409506 0)
(28.7444 0.057365 0)
(28.4123 0.0800485 0)
(27.965 0.118966 0)
(27.4137 0.17196 0)
(26.6447 0.282576 0)
(25.6985 0.436373 0)
(24.1672 0.781512 0)
(22.1357 1.23699 0)
(18.6372 2.33433 0)
(12.9919 3.2174 0)
(6.30033 5.36321 0)
(29.9988 0.000497539 0)
(29.9852 0.00151505 0)
(29.9556 0.0026199 0)
(29.9105 0.00402008 0)
(29.8518 0.00585984 0)
(29.7766 0.00834265 0)
(29.6842 0.0115706 0)
(29.5677 0.0164161 0)
(29.424 0.0227015 0)
(29.2455 0.031639 0)
(29.0265 0.0440083 0)
(28.7465 0.0616468 0)
(28.4084 0.0863109 0)
(27.96 0.127821 0)
(27.4115 0.184957 0)
(26.6467 0.301451 0)
(25.7049 0.467092 0)
(24.1901 0.831316 0)
(22.1869 1.32335 0)
(18.7506 2.49902 0)
(13.1713 3.46254 0)
(6.39764 5.7873 0)
(29.9988 0.000531895 0)
(29.9852 0.00161938 0)
(29.9556 0.00280054 0)
(29.9105 0.00429719 0)
(29.8519 0.00626345 0)
(29.7767 0.00891749 0)
(29.6842 0.0123681 0)
(29.5678 0.0175476 0)
(29.4241 0.0242644 0)
(29.2457 0.0338216 0)
(29.0266 0.0470675 0)
(28.7489 0.0660637 0)
(28.4035 0.0925908 0)
(27.9569 0.136484 0)
(27.4104 0.197818 0)
(26.6482 0.320268 0)
(25.7088 0.497642 0)
(24.2063 0.880396 0)
(22.2287 1.40845 0)
(18.8522 2.66109 0)
(13.3553 3.70801 0)
(6.50378 6.21773 0)
(29.9988 0.000566247 0)
(29.9852 0.00172368 0)
(29.9556 0.0029812 0)
(29.9105 0.00457429 0)
(29.8519 0.00666701 0)
(29.7767 0.00949225 0)
(29.6843 0.0131656 0)
(29.5678 0.018679 0)
(29.4241 0.025828 0)
(29.2456 0.035999 0)
(29.0271 0.0501908 0)
(28.7492 0.0705587 0)
(28.3995 0.0987736 0)
(27.955 0.145115 0)
(27.4098 0.210678 0)
(26.6495 0.339067 0)
(25.7109 0.528078 0)
(24.218 0.928946 0)
(22.2641 1.49239 0)
(18.9431 2.8204 0)
(13.5413 3.9534 0)
(6.61821 6.65475 0)
(29.9988 0.000600594 0)
(29.9852 0.00182794 0)
(29.9556 0.00316186 0)
(29.9105 0.00485137 0)
(29.8519 0.00707051 0)
(29.7767 0.0100669 0)
(29.6843 0.013963 0)
(29.5679 0.0198101 0)
(29.4243 0.0273926 0)
(29.2456 0.0381674 0)
(29.0282 0.0533418 0)
(28.7469 0.0751242 0)
(28.3966 0.104895 0)
(27.9539 0.153717 0)
(27.4094 0.223531 0)
(26.6506 0.357866 0)
(25.712 0.558432 0)
(24.2267 0.977075 0)
(22.2954 1.57525 0)
(19.025 2.97689 0)
(13.7278 4.19832 0)
(6.74036 7.09859 0)
(29.9988 0.000634937 0)
(29.9852 0.00193218 0)
(29.9556 0.00334253 0)
(29.9105 0.00512843 0)
(29.8519 0.00747396 0)
(29.7767 0.0106415 0)
(29.6843 0.0147604 0)
(29.5679 0.0209411 0)
(29.4243 0.0289578 0)
(29.2455 0.0403412 0)
(29.0291 0.0564917 0)
(28.7439 0.0795411 0)
(28.3947 0.111006 0)
(27.9533 0.162328 0)
(27.4092 0.236393 0)
(26.6515 0.376663 0)
(25.7124 0.588719 0)
(24.2335 1.02484 0)
(22.3241 1.65708 0)
(19.0998 3.13051 0)
(13.9139 4.44243 0)
(6.8697 7.54944 0)
(29.9988 0.000669274 0)
(29.9852 0.00203639 0)
(29.9556 0.00352321 0)
(29.9106 0.00540547 0)
(29.8519 0.00787736 0)
(29.7768 0.011216 0)
(29.6844 0.0155577 0)
(29.568 0.0220717 0)
(29.4245 0.0305247 0)
(29.2456 0.042523 0)
(29.0293 0.0596976 0)
(28.7413 0.0838511 0)
(28.3934 0.117112 0)
(27.9529 0.17094 0)
(27.4091 0.249249 0)
(26.6523 0.395465 0)
(25.7125 0.618956 0)
(24.2394 1.07229 0)
(22.3516 1.73793 0)
(19.1691 3.28123 0)
(14.0996 4.68546 0)
(7.00575 8.00744 0)
(29.9988 0.000703606 0)
(29.9852 0.00214057 0)
(29.9556 0.0037039 0)
(29.9106 0.0056825 0)
(29.8519 0.00828071 0)
(29.7768 0.0117904 0)
(29.6844 0.016355 0)
(29.5681 0.0232019 0)
(29.4245 0.0320911 0)
(29.246 0.044722 0)
(29.0278 0.0629311 0)
(28.7394 0.0881427 0)
(28.3926 0.123222 0)
(27.9527 0.17956 0)
(27.4091 0.262103 0)
(26.6532 0.414273 0)
(25.7126 0.649152 0)
(24.245 1.11941 0)
(22.3788 1.81783 0)
(19.2345 3.42905 0)
(14.2852 4.92714 0)
(7.14814 8.47275 0)
(29.9988 0.000737932 0)
(29.9852 0.00224472 0)
(29.9556 0.0038846 0)
(29.9106 0.0059595 0)
(29.852 0.008684 0)
(29.7768 0.0123647 0)
(29.6845 0.017152 0)
(29.5682 0.0243328 0)
(29.4245 0.0336524 0)
(29.2469 0.0469833 0)
(29.0248 0.0661677 0)
(28.7381 0.092438 0)
(28.3921 0.129335 0)
(27.9526 0.188178 0)
(27.4092 0.274948 0)
(26.6542 0.433087 0)
(25.713 0.679318 0)
(24.2507 1.16618 0)
(22.4062 1.89681 0)
(19.2973 3.57398 0)
(14.4711 5.16727 0)
(7.29657 8.94553 0)
(29.9988 0.000772252 0)
(29.9852 0.00234884 0)
(29.9556 0.00406531 0)
(29.9106 0.00623649 0)
(29.8519 0.00908723 0)
(29.7769 0.012939 0)
(29.6845 0.0179486 0)
(29.5683 0.025464 0)
(29.4244 0.0352099 0)
(29.2477 0.0492956 0)
(29.0217 0.0693879 0)
(28.7372 0.0967518 0)
(28.3918 0.135452 0)
(27.9526 0.196796 0)
(27.4094 0.287788 0)
(26.6553 0.451906 0)
(25.7139 0.709456 0)
(24.257 1.21258 0)
(22.4342 1.97491 0)
(19.3585 3.716 0)
(14.6583 5.40569 0)
(7.45089 9.42592 0)
(29.9988 0.000806565 0)
(29.9852 0.00245293 0)
(29.9556 0.00424604 0)
(29.9106 0.00651345 0)
(29.852 0.0094904 0)
(29.7769 0.0135132 0)
(29.6845 0.0187451 0)
(29.5685 0.0265959 0)
(29.4244 0.0367623 0)
(29.2483 0.0516449 0)
(29.0194 0.0725021 0)
(28.7366 0.101076 0)
(28.3916 0.141569 0)
(27.9527 0.205411 0)
(27.4098 0.300619 0)
(26.6567 0.470726 0)
(25.7157 0.739554 0)
(24.264 1.25856 0)
(22.463 2.05214 0)
(19.4191 3.85512 0)
(14.8479 5.64224 0)
(7.611 9.91412 0)
(29.9988 0.000840872 0)
(29.9852 0.00255698 0)
(29.9556 0.00442677 0)
(29.9106 0.00679039 0)
(29.852 0.00989351 0)
(29.7769 0.0140874 0)
(29.6845 0.0195412 0)
(29.5685 0.0277281 0)
(29.4245 0.0383103 0)
(29.2484 0.0539796 0)
(29.0178 0.0755447 0)
(28.7363 0.105405 0)
(28.3914 0.147685 0)
(27.953 0.214022 0)
(27.4104 0.313442 0)
(26.6585 0.489538 0)
(25.7183 0.76959 0)
(24.2719 1.30413 0)
(22.4927 2.12852 0)
(19.4799 3.9913 0)
(15.041 5.87679 0)
(7.77693 10.4103 0)
(29.9988 0.000875173 0)
(29.9852 0.00266101 0)
(29.9556 0.00460751 0)
(29.9106 0.0070673 0)
(29.852 0.0102966 0)
(29.777 0.0146614 0)
(29.6846 0.0203374 0)
(29.5686 0.0288589 0)
(29.4248 0.0398734 0)
(29.2482 0.0562957 0)
(29.0168 0.0785593 0)
(28.7361 0.109735 0)
(28.3914 0.153799 0)
(27.9532 0.222629 0)
(27.4111 0.326253 0)
(26.6607 0.508329 0)
(25.7221 0.799536 0)
(24.2808 1.3493 0)
(22.5232 2.20406 0)
(19.5415 4.12449 0)
(15.2389 6.10924 0)
(7.9488 10.9148 0)
(29.9988 0.000909467 0)
(29.9852 0.00276501 0)
(29.9556 0.00478826 0)
(29.9106 0.00734419 0)
(29.852 0.0106996 0)
(29.777 0.0152353 0)
(29.6847 0.0211336 0)
(29.5686 0.0299905 0)
(29.4251 0.0414461 0)
(29.2473 0.0587115 0)
(29.0162 0.0815825 0)
(28.736 0.114066 0)
(28.3914 0.159911 0)
(27.9536 0.231231 0)
(27.412 0.339046 0)
(26.6633 0.527086 0)
(25.7269 0.829379 0)
(24.2907 1.39407 0)
(22.5546 2.27876 0)
(19.6042 4.2546 0)
(15.4429 6.3395 0)
(8.12679 11.4277 0)
(29.9988 0.000943754 0)
(29.9853 0.00286897 0)
(29.9556 0.00496902 0)
(29.9106 0.00762105 0)
(29.852 0.0111026 0)
(29.7771 0.0158091 0)
(29.6848 0.0219296 0)
(29.5686 0.031121 0)
(29.4256 0.0430295 0)
(29.2459 0.0610976 0)
(29.0158 0.0846308 0)
(28.7359 0.118397 0)
(28.3915 0.16602 0)
(27.9541 0.239825 0)
(27.4132 0.351817 0)
(26.6664 0.545792 0)
(25.7327 0.859112 0)
(24.3017 1.43846 0)
(22.5867 2.35263 0)
(19.6684 4.38151 0)
(15.6541 6.56746 0)
(8.31117 11.9494 0)
(29.9988 0.000978034 0)
(29.9853 0.0029729 0)
(29.9556 0.00514979 0)
(29.9106 0.00789787 0)
(29.852 0.0115055 0)
(29.7771 0.0163826 0)
(29.6848 0.0227263 0)
(29.5686 0.0322463 0)
(29.4261 0.0446703 0)
(29.2443 0.063345 0)
(29.0155 0.087705 0)
(28.736 0.122726 0)
(28.3917 0.172125 0)
(27.9546 0.24841 0)
(27.4145 0.364559 0)
(26.6699 0.564439 0)
(25.7394 0.888734 0)
(24.3138 1.48247 0)
(22.6196 2.42565 0)
(19.734 4.50511 0)
(15.8736 6.79304 0)
(8.50224 12.4802 0)
(29.9988 0.00101231 0)
(29.9853 0.0030768 0)
(29.9556 0.00533056 0)
(29.9107 0.00817466 0)
(29.8521 0.0119084 0)
(29.7771 0.0169559 0)
(29.6849 0.0235231 0)
(29.5686 0.0333701 0)
(29.4267 0.0463385 0)
(29.2429 0.0655697 0)
(29.0153 0.0907964 0)
(28.736 0.127053 0)
(28.3918 0.178227 0)
(27.9552 0.256985 0)
(27.4161 0.377269 0)
(26.6738 0.583017 0)
(25.747 0.91824 0)
(24.3272 1.5261 0)
(22.6531 2.49782 0)
(19.8012 4.62522 0)
(16.1021 7.01614 0)
(8.70034 13.0204 0)
(29.9988 0.00104657 0)
(29.9853 0.00318067 0)
(29.9556 0.00551134 0)
(29.9107 0.00845141 0)
(29.8521 0.0123112 0)
(29.7771 0.0175291 0)
(29.6849 0.0243198 0)
(29.5686 0.0344929 0)
(29.427 0.0480197 0)
(29.2419 0.0677861 0)
(29.0153 0.0938963 0)
(28.7362 0.131379 0)
(28.3921 0.184325 0)
(27.9559 0.265546 0)
(27.4179 0.389942 0)
(26.6781 0.601522 0)
(25.7554 0.947624 0)
(24.3419 1.56937 0)
(22.6874 2.56914 0)
(19.8696 4.74168 0)
(16.3401 7.23666 0)
(8.90582 13.5705 0)
(29.9988 0.00108083 0)
(29.9853 0.00328451 0)
(29.9556 0.00569212 0)
(29.9107 0.00872813 0)
(29.8521 0.0127141 0)
(29.7772 0.0181021 0)
(29.6851 0.0251167 0)
(29.5688 0.0356142 0)
(29.4273 0.0497139 0)
(29.2411 0.069982 0)
(29.0153 0.0969996 0)
(28.7363 0.135704 0)
(28.3923 0.190418 0)
(27.9566 0.274093 0)
(27.4198 0.402576 0)
(26.6827 0.619949 0)
(25.7645 0.976872 0)
(24.3579 1.61227 0)
(22.7226 2.63961 0)
(19.9392 4.85433 0)
(16.5878 7.45449 0)
(9.11903 14.1307 0)
(29.9988 0.00111509 0)
(29.9853 0.00338832 0)
(29.9557 0.00587291 0)
(29.9107 0.00900481 0)
(29.8521 0.0131168 0)
(29.7772 0.0186749 0)
(29.6851 0.0259134 0)
(29.5688 0.036735 0)
(29.4274 0.0514163 0)
(29.2407 0.0721642 0)
(29.0154 0.100104 0)
(28.7365 0.140027 0)
(28.3926 0.196506 0)
(27.9575 0.282624 0)
(27.4219 0.415169 0)
(26.6876 0.63829 0)
(25.7745 1.00597 0)
(24.3752 1.65479 0)
(22.7586 2.70923 0)
(20.0098 4.963 0)
(16.8451 7.6695 0)
(9.34028 14.7015 0)
(29.9988 0.00114933 0)
(29.9853 0.00349211 0)
(29.9557 0.0060537 0)
(29.9107 0.00928146 0)
(29.8522 0.0135195 0)
(29.7773 0.0192476 0)
(29.6852 0.0267095 0)
(29.569 0.037856 0)
(29.4274 0.0531249 0)
(29.2406 0.0743347 0)
(29.0155 0.103209 0)
(28.7367 0.144349 0)
(28.3929 0.20259 0)
(27.9584 0.291138 0)
(27.4241 0.42772 0)
(26.6928 0.65654 0)
(25.7851 1.03491 0)
(24.3939 1.69695 0)
(22.7956 2.77802 0)
(20.0814 5.06752 0)
(17.1117 7.88155 0)
(9.56987 15.2833 0)
(29.9988 0.00118357 0)
(29.9853 0.00359586 0)
(29.9557 0.00623449 0)
(29.9107 0.00955808 0)
(29.8522 0.013922 0)
(29.7773 0.0198206 0)
(29.6851 0.0275051 0)
(29.5692 0.0389716 0)
(29.4271 0.0548372 0)
(29.2405 0.0764973 0)
(29.0156 0.106315 0)
(28.7369 0.14867 0)
(28.3933 0.208667 0)
(27.9593 0.299634 0)
(27.4264 0.440226 0)
(26.6982 0.674693 0)
(25.7964 1.06367 0)
(24.4141 1.73872 0)
(22.8337 2.84597 0)
(20.1541 5.16775 0)
(17.3875 8.09052 0)
(9.80806 15.8765 0)
(29.9988 0.00121781 0)
(29.9853 0.00369958 0)
(29.9557 0.00641528 0)
(29.9107 0.00983462 0)
(29.8522 0.0143247 0)
(29.7774 0.0203924 0)
(29.6852 0.0283045 0)
(29.5695 0.0400826 0)
(29.4268 0.0564572 0)
(29.2406 0.0786529 0)
(29.0158 0.109421 0)
(28.7372 0.15299 0)
(28.3936 0.214739 0)
(27.9603 0.308112 0)
(27.4289 0.452685 0)
(26.7039 0.692742 0)
(25.8084 1.09224 0)
(24.4356 1.78011 0)
(22.8732 2.91308 0)
(20.2281 5.26355 0)
(17.6722 8.29624 0)
(10.0551 16.4815 0)
(29.9988 0.00125204 0)
(29.9853 0.00380328 0)
(29.9557 0.00659605 0)
(29.9107 0.0101112 0)
(29.8522 0.0147269 0)
(29.7774 0.0209663 0)
(29.6852 0.0290919 0)
(29.5699 0.0412652 0)
(29.4255 0.0578061 0)
(29.2407 0.0808109 0)
(29.016 0.112527 0)
(28.7374 0.157308 0)
(28.394 0.220804 0)
(27.9613 0.31657 0)
(27.4314 0.465097 0)
(26.7098 0.710682 0)
(25.821 1.12061 0)
(24.4585 1.82111 0)
(22.9142 2.97937 0)
(20.3036 5.35478 0)
(17.9659 8.49857 0)
(10.3111 17.0986 0)
(29.9988 0.00128626 0)
(29.9853 0.00390695 0)
(29.9557 0.00677682 0)
(29.9108 0.0103877 0)
(29.8523 0.0151292 0)
(29.7775 0.0215382 0)
(29.6851 0.02989 0)
(29.5708 0.0423946 0)
(29.4226 0.0598246 0)
(29.2409 0.0829975 0)
(29.0162 0.115633 0)
(28.7377 0.161625 0)
(28.3944 0.226863 0)
(27.9623 0.325009 0)
(27.4341 0.477459 0)
(26.7159 0.728506 0)
(25.8341 1.14875 0)
(24.4828 1.86169 0)
(22.9569 3.04483 0)
(20.3807 5.44132 0)
(18.2688 8.69735 0)
(10.5764 17.7284 0)
(29.9988 0.00132047 0)
(29.9853 0.00401058 0)
(29.9557 0.0069576 0)
(29.9108 0.0106641 0)
(29.8522 0.0155316 0)
(29.7776 0.0221108 0)
(29.685 0.0306775 0)
(29.5714 0.0435971 0)
(29.4206 0.0616665 0)
(29.2411 0.0852067 0)
(29.0164 0.118739 0)
(28.738 0.165941 0)
(28.3948 0.232916 0)
(27.9634 0.333427 0)
(27.4368 0.48977 0)
(26.7222 0.746209 0)
(25.8479 1.17666 0)
(24.5083 1.90185 0)
(23.0017 3.10944 0)
(20.4595 5.52301 0)
(18.5812 8.89243 0)
(10.8513 18.3711 0)
(29.9988 0.00135468 0)
(29.9853 0.0041142 0)
(29.9557 0.00713831 0)
(29.9108 0.0109408 0)
(29.8523 0.0159324 0)
(29.7777 0.0226897 0)
(29.6851 0.0314402 0)
(29.5716 0.0448234 0)
(29.4198 0.0631942 0)
(29.2412 0.0874198 0)
(29.0167 0.121844 0)
(28.7382 0.170256 0)
(28.3952 0.238962 0)
(27.9645 0.341824 0)
(27.4396 0.502027 0)
(26.7286 0.763787 0)
(25.8621 1.20432 0)
(24.535 1.94157 0)
(23.0488 3.17322 0)
(20.5397 5.59974 0)
(18.9033 9.08365 0)
(11.1358 19.0273 0)
(29.9988 0.00138889 0)
(29.9853 0.00421778 0)
(29.9557 0.00731905 0)
(29.9108 0.011217 0)
(29.8523 0.0163351 0)
(29.7777 0.0232571 0)
(29.6853 0.0322781 0)
(29.5707 0.0456896 0)
(29.4192 0.0646674 0)
(29.2414 0.0896294 0)
(29.0169 0.124949 0)
(28.7385 0.17457 0)
(28.3956 0.245002 0)
(27.9656 0.350199 0)
(27.4425 0.514232 0)
(26.7352 0.781232 0)
(25.8768 1.23172 0)
(24.5629 1.9808 0)
(23.0985 3.23615 0)
(20.621 5.67137 0)
(19.2343 9.27087 0)
(11.4303 19.6974 0)
(29.9988 0.00142309 0)
(29.9853 0.00432139 0)
(29.9557 0.00749981 0)
(29.9108 0.0114934 0)
(29.8524 0.0167369 0)
(29.7774 0.0238311 0)
(29.6867 0.0330833 0)
(29.5652 0.0471267 0)
(29.4189 0.0661725 0)
(29.2415 0.0918357 0)
(29.0171 0.128053 0)
(28.7388 0.178882 0)
(28.396 0.251035 0)
(27.9667 0.358553 0)
(27.4454 0.52638 0)
(26.742 0.798543 0)
(25.8918 1.25885 0)
(24.5918 2.01952 0)
(23.1514 3.29825 0)
(20.7024 5.7378 0)
(19.5711 9.4541 0)
(11.7349 20.3825 0)
(29.9988 0.00145712 0)
(29.9853 0.00442489 0)
(29.9557 0.00768067 0)
(29.9108 0.0117696 0)
(29.8525 0.0171403 0)
(29.7772 0.024399 0)
(29.6878 0.0339174 0)
(29.5613 0.048588 0)
(29.4187 0.0677096 0)
(29.2416 0.094043 0)
(29.0173 0.131157 0)
(28.7391 0.183193 0)
(28.3964 0.257062 0)
(27.9678 0.366884 0)
(27.4483 0.538471 0)
(26.7489 0.815714 0)
(25.9072 1.28569 0)
(24.6215 2.05769 0)
(23.2078 3.35954 0)
(20.7834 5.79902 0)
(19.9068 9.63302 0)
(12.0494 21.0902 0)
(29.9988 0.00149064 0)
(29.9853 0.0045275 0)
(29.9557 0.00786016 0)
(29.9108 0.0120433 0)
(29.8526 0.017542 0)
(29.7772 0.0249538 0)
(29.6882 0.0348154 0)
(29.56 0.0497431 0)
(29.4185 0.0692516 0)
(29.2417 0.0962477 0)
(29.0174 0.13426 0)
(28.7393 0.187503 0)
(28.3968 0.263084 0)
(27.9689 0.3752 0)
(27.4513 0.550504 0)
(26.7559 0.832737 0)
(25.9229 1.31223 0)
(24.6519 2.09522 0)
(23.2682 3.42003 0)
(20.8641 5.85513 0)
(20.23 9.8056 0)
(12.4598 21.8416 0)
(1.01492 -0.0106365 0)
(-0.141816 0.0202338 0)
(-0.840954 0.00740158 0)
(-0.867355 0.00130363 0)
(-0.976724 -0.00225841 0)
(-0.591834 -0.0032484 0)
(-0.566429 -0.00143915 0)
(-0.392989 -0.000384627 0)
(-0.514151 0.000337369 0)
(-0.44183 0.000565914 0)
(-0.624124 0.00096829 0)
(-0.650069 -4.70696e-05 0)
(-0.605962 -0.00143902 0)
(-0.313624 -0.00237867 0)
(-0.00499437 -0.00262659 0)
(0.38734 -0.00310787 0)
(0.855386 -0.00404749 0)
(1.59271 -0.00553401 0)
(2.65718 -0.00667335 0)
(3.96487 -0.00707927 0)
(5.40631 -0.00696685 0)
(6.91534 -0.00659269 0)
(8.42145 -0.00597953 0)
(9.87519 -0.00529145 0)
(11.2622 -0.00465035 0)
(12.5789 -0.0041065 0)
(13.8437 -0.00366937 0)
(15.0771 -0.00331383 0)
(16.2906 -0.00299937 0)
(17.4743 -0.00279171 0)
(18.7113 -0.00254723 0)
(19.8671 -0.00158048 0)
(20.2947 -0.00353378 0)
(23.8006 -0.00771789 0)
(29.567 -0.00458863 0)
(1.02027 -0.0322353 0)
(-0.131228 0.0605485 0)
(-0.82962 0.0220529 0)
(-0.850772 0.00397866 0)
(-0.961664 -0.00680224 0)
(-0.577752 -0.00964352 0)
(-0.556318 -0.00433362 0)
(-0.383052 -0.00115582 0)
(-0.504055 0.000943802 0)
(-0.424309 0.00170092 0)
(-0.607533 0.00307374 0)
(-0.641231 7.08412e-05 0)
(-0.617828 -0.00427342 0)
(-0.327695 -0.00739702 0)
(0.00533978 -0.0080774 0)
(0.419837 -0.00913108 0)
(0.879321 -0.0116401 0)
(1.58905 -0.0160738 0)
(2.63457 -0.0196823 0)
(3.94509 -0.0211335 0)
(5.40306 -0.0209245 0)
(6.91981 -0.0197636 0)
(8.42086 -0.0179106 0)
(9.86993 -0.0158605 0)
(11.2552 -0.0139338 0)
(12.5726 -0.0122945 0)
(13.8384 -0.0109856 0)
(15.072 -0.00992962 0)
(16.2855 -0.00898667 0)
(17.4668 -0.00835846 0)
(18.6993 -0.0076513 0)
(19.8635 -0.0047735 0)
(20.3066 -0.0102904 0)
(23.6062 -0.0230257 0)
(29.5324 -0.0140294 0)
(1.02687 -0.0542809 0)
(-0.11992 0.10072 0)
(-0.816723 0.0364698 0)
(-0.829409 0.00663748 0)
(-0.937945 -0.011452 0)
(-0.555665 -0.0159044 0)
(-0.537913 -0.00721042 0)
(-0.365153 -0.00188775 0)
(-0.484602 0.00143055 0)
(-0.399256 0.00274987 0)
(-0.588224 0.00508077 0)
(-0.633928 0.000517963 0)
(-0.629696 -0.0067918 0)
(-0.332307 -0.012429 0)
(0.031244 -0.0138298 0)
(0.463504 -0.0152791 0)
(0.905939 -0.0189571 0)
(1.58496 -0.0261388 0)
(2.61593 -0.0323596 0)
(3.93644 -0.0351543 0)
(5.4147 -0.0349265 0)
(6.94047 -0.0329056 0)
(8.43682 -0.0297645 0)
(9.88072 -0.0263666 0)
(11.2641 -0.0231969 0)
(12.5814 -0.0204916 0)
(13.8471 -0.0183091 0)
(15.0803 -0.0165379 0)
(16.2933 -0.01496 0)
(17.4716 -0.0138972 0)
(18.6983 -0.0127449 0)
(19.8684 -0.00801414 0)
(20.3281 -0.0167455 0)
(23.4338 -0.0382853 0)
(29.4993 -0.0236508 0)
(1.03498 -0.0767596 0)
(-0.108069 0.140801 0)
(-0.802069 0.0506547 0)
(-0.802636 0.0090481 0)
(-0.90572 -0.0161421 0)
(-0.525575 -0.0220764 0)
(-0.512029 -0.010014 0)
(-0.340561 -0.00263562 0)
(-0.458153 0.00184248 0)
(-0.368826 0.00383287 0)
(-0.564095 0.00736201 0)
(-0.622494 0.00126315 0)
(-0.636419 -0.00927948 0)
(-0.328648 -0.0179126 0)
(0.0675688 -0.0200901 0)
(0.517908 -0.02156 0)
(0.94096 -0.0261235 0)
(1.58627 -0.0361655 0)
(2.60299 -0.0452479 0)
(3.93802 -0.0494851 0)
(5.44105 -0.0491324 0)
(6.97817 -0.0460952 0)
(8.47097 -0.0415969 0)
(9.9095 -0.036859 0)
(11.2902 -0.0324583 0)
(12.6065 -0.0286883 0)
(13.8712 -0.0256307 0)
(15.103 -0.0231461 0)
(16.315 -0.0209268 0)
(17.4894 -0.0194176 0)
(18.709 -0.0178394 0)
(19.8823 -0.0112981 0)
(20.3596 -0.0228952 0)
(23.283 -0.0533826 0)
(29.4673 -0.0335159 0)
(1.04469 -0.0997164 0)
(-0.0958265 0.180731 0)
(-0.785485 0.0644998 0)
(-0.77015 0.0110663 0)
(-0.86542 -0.020893 0)
(-0.48781 -0.0281334 0)
(-0.479389 -0.0127128 0)
(-0.309721 -0.00339183 0)
(-0.425176 0.00219403 0)
(-0.333193 0.00494565 0)
(-0.534033 0.0098654 0)
(-0.605526 0.00228849 0)
(-0.637049 -0.0117023 0)
(-0.316316 -0.0237735 0)
(0.115123 -0.026775 0)
(0.585715 -0.0278787 0)
(0.988468 -0.0329825 0)
(1.59611 -0.0459458 0)
(2.59765 -0.0582051 0)
(3.95207 -0.064081 0)
(5.48506 -0.0635401 0)
(7.0363 -0.0593326 0)
(8.52662 -0.0533946 0)
(9.95935 -0.0473173 0)
(11.3364 -0.0417038 0)
(12.6504 -0.0368782 0)
(13.913 -0.0329461 0)
(15.1424 -0.029748 0)
(16.3526 -0.0268812 0)
(17.5218 -0.0249098 0)
(18.7324 -0.0229206 0)
(19.906 -0.0146213 0)
(20.4021 -0.0287704 0)
(23.1528 -0.0683406 0)
(29.4365 -0.0435616 0)
(1.05599 -0.123203 0)
(-0.0833018 0.220511 0)
(-0.766769 0.0778879 0)
(-0.731512 0.0125934 0)
(-0.817156 -0.0257508 0)
(-0.442466 -0.0340616 0)
(-0.440299 -0.0152947 0)
(-0.272705 -0.00415288 0)
(-0.385768 0.00249391 0)
(-0.29215 0.00609095 0)
(-0.497127 0.0125667 0)
(-0.581647 0.00359287 0)
(-0.630492 -0.014066 0)
(-0.295399 -0.0300083 0)
(0.17317 -0.033874 0)
(0.667487 -0.0342008 0)
(1.05191 -0.039441 0)
(1.61914 -0.0553617 0)
(2.6041 -0.0711778 0)
(3.98308 -0.0789586 0)
(5.55193 -0.0781777 0)
(7.12057 -0.07263 0)
(8.60922 -0.0651548 0)
(10.0352 -0.0577307 0)
(11.407 -0.0509209 0)
(12.7171 -0.0450499 0)
(13.9762 -0.0402455 0)
(15.2017 -0.0363357 0)
(16.4088 -0.0328153 0)
(17.571 -0.0303648 0)
(18.7704 -0.0279763 0)
(19.9408 -0.0179791 0)
(20.4568 -0.0343889 0)
(23.0426 -0.0831524 0)
(29.4067 -0.0537502 0)
(1.06873 -0.147266 0)
(-0.0705643 0.260136 0)
(-0.745663 0.0906953 0)
(-0.686011 0.0135331 0)
(-0.760637 -0.0307469 0)
(-0.389311 -0.039841 0)
(-0.394594 -0.0177442 0)
(-0.229214 -0.00491694 0)
(-0.339577 0.00274812 0)
(-0.245009 0.00726226 0)
(-0.452341 0.0154456 0)
(-0.549402 0.00516375 0)
(-0.615701 -0.0163803 0)
(-0.266188 -0.0366316 0)
(0.240705 -0.0414223 0)
(0.762807 -0.0405778 0)
(1.13378 -0.0455134 0)
(1.66106 -0.064382 0)
(2.62893 -0.0841685 0)
(4.03814 -0.0941688 0)
(5.64994 -0.0930905 0)
(7.24026 -0.0860086 0)
(8.72761 -0.0768746 0)
(10.1448 -0.068084 0)
(11.5088 -0.0600941 0)
(12.8126 -0.0531916 0)
(14.0661 -0.0475194 0)
(15.286 -0.0429006 0)
(16.4881 -0.0387201 0)
(17.6407 -0.0357713 0)
(18.8256 -0.0329926 0)
(19.9885 -0.0213655 0)
(20.5255 -0.0397652 0)
(22.9516 -0.0977983 0)
(29.3778 -0.0640523 0)
(1.08255 -0.171943 0)
(-0.057639 0.299591 0)
(-0.721837 0.10278 0)
(-0.632725 0.01378 0)
(-0.695347 -0.0358977 0)
(-0.327918 -0.0454439 0)
(-0.341753 -0.0200443 0)
(-0.178669 -0.00568556 0)
(-0.285868 0.0029566 0)
(-0.190675 0.00844381 0)
(-0.398264 0.0184708 0)
(-0.507062 0.00700037 0)
(-0.591428 -0.0186448 0)
(-0.228366 -0.0436613 0)
(0.317933 -0.0494769 0)
(0.87217 -0.0470975 0)
(1.23633 -0.0512751 0)
(1.72798 -0.0730319 0)
(2.68089 -0.097203 0)
(4.1275 -0.109776 0)
(5.79172 -0.108338 0)
(7.41011 -0.0994969 0)
(8.89604 -0.0885475 0)
(10.3005 -0.0783529 0)
(11.652 -0.0691993 0)
(12.9455 -0.0612857 0)
(14.1907 -0.0547547 0)
(15.4025 -0.0494305 0)
(16.5968 -0.0445822 0)
(17.7358 -0.0411133 0)
(18.9019 -0.0379513 0)
(20.0518 -0.0247727 0)
(20.6105 -0.0449088 0)
(22.8801 -0.112254 0)
(29.35 -0.0744394 0)
(1.09691 -0.197263 0)
(-0.0445068 0.338839 0)
(-0.694863 0.113977 0)
(-0.57068 0.0132215 0)
(-0.620773 -0.041208 0)
(-0.257861 -0.0508422 0)
(-0.281055 -0.0221801 0)
(-0.120303 -0.00646352 0)
(-0.22362 0.00311298 0)
(-0.127729 0.00961283 0)
(-0.333008 0.0216098 0)
(-0.452462 0.00910116 0)
(-0.55587 -0.0208444 0)
(-0.180499 -0.0511062 0)
(0.406817 -0.058097 0)
(0.99806 -0.0538542 0)
(1.36284 -0.0568273 0)
(1.82648 -0.081387 0)
(2.77064 -0.110342 0)
(4.26514 -0.125869 0)
(5.99565 -0.124004 0)
(7.65283 -0.113138 0)
(9.1374 -0.100163 0)
(10.5218 -0.0884973 0)
(11.8522 -0.0781966 0)
(13.1286 -0.0693045 0)
(14.361 -0.0619326 0)
(15.5615 -0.0559087 0)
(16.7441 -0.0503821 0)
(17.8638 -0.0463677 0)
(19.0045 -0.0428276 0)
(20.134 -0.0281895 0)
(20.715 -0.0498248 0)
(22.8288 -0.126492 0)
(29.3234 -0.0848822 0)
(1.111 -0.22324 0)
(-0.0311029 0.37782 0)
(-0.664192 0.124106 0)
(-0.499054 0.0117436 0)
(-0.536588 -0.0466723 0)
(-0.1789 -0.0560141 0)
(-0.211737 -0.0241431 0)
(-0.0532662 -0.00726077 0)
(-0.151616 0.00320198 0)
(-0.0545134 0.0107345 0)
(-0.254228 0.0248124 0)
(-0.382922 0.01147 0)
(-0.506421 -0.0229551 0)
(-0.119844 -0.0589687 0)
(0.51108 -0.0673442 0)
(1.14518 -0.0609467 0)
(1.51863 -0.0622852 0)
(1.96439 -0.089566 0)
(2.91097 -0.123702 0)
(4.46923 -0.142592 0)
(6.28637 -0.140231 0)
(8.00066 -0.127007 0)
(9.48662 -0.111705 0)
(10.8394 -0.0984526 0)
(12.1332 -0.0870198 0)
(13.3804 -0.0772022 0)
(14.5924 -0.069025 0)
(15.7772 -0.0623121 0)
(16.9429 -0.0560915 0)
(18.0349 -0.0515008 0)
(19.1408 -0.0475867 0)
(20.2397 -0.0315989 0)
(20.8429 -0.0545134 0)
(22.7997 -0.14048 0)
(29.298 -0.0953488 0)
(1.12382 -0.249865 0)
(-0.0173137 0.416443 0)
(-0.629121 0.13297 0)
(-0.417388 0.00923833 0)