/*--------------------------------*- C++ -*----------------------------------*\
| =========                 |                                                 |
| \\      /  F ield         | OpenFOAM: The Open Source CFD Toolbox           |
|  \\    /   O peration     | Version:  v1912                                 |
|   \\  /    A nd           | Website:  www.openfoam.com                      |
|    \\/     M anipulation  |                                                 |
\*---------------------------------------------------------------------------*/
FoamFile
{
    version     2.0;
    format      ascii;
    class       volScalarField;
    location    "580";
    object      yPlus;
}
// * * * * * * * * * * * * * * * * * * * * * * * * * * * * * * * * * * * * * //

dimensions      [0 0 0 0 0 0 0];


internalField   uniform 0;

boundaryField
{
    inlet
    {
        type            calculated;
        value           uniform 0;
    }
    outlet
    {
        type            calculated;
        value           uniform 0;
    }
    lowerSymmetry
    {
        type            symmetryPlane;
    }
    obstical
    {
        type            calculated;
        value           nonuniform List<scalar> 
88
(
476.862
479.073
483.469
490.027
498.683
509.351
521.943
536.372
552.554
570.411
589.872
610.863
633.307
657.114
682.194
708.449
735.79
764.135
793.41
823.555
854.52
886.266
918.764
951.995
985.947
1020.62
1056.01
1092.13
1129
1166.64
1205.05
1244.27
1284.32
1325.22
1366.98
1409.63
1453.19
1497.69
1543.14
1589.56
1636.99
1685.48
1735.45
1790.82
99.8303
100.321
100.958
101.763
102.744
103.9
105.22
106.674
108.217
109.784
111.294
112.65
113.744
114.462
114.692
114.332
113.304
111.56
109.091
105.932
102.165
97.9112
93.3363
88.6482
84.1002
79.9928
76.6667
74.477
73.7397
74.6632
77.2993
81.5483
87.2152
94.0799
101.952
110.7
120.32
130.968
142.907
156.496
172.125
190.107
210.734
234.849
)
;
    }
    obsticalTop
    {
        type            calculated;
        value           nonuniform List<scalar> 
20
(
53.4264
38.8685
47.1942
53.2631
56.0934
57.7155
58.3069
57.9849
57.0208
55.5449
53.5307
50.865
47.4498
43.0926
37.7624
30.8207
24.3829
14.8392
13.3085
11.2754
)
;
    }
    top
    {
        type            calculated;
        value           uniform 0;
    }
    defaultFaces
    {
        type            empty;
    }
}


// ************************************************************************* //
