/*--------------------------------*- C++ -*----------------------------------*\
| =========                 |                                                 |
| \\      /  F ield         | OpenFOAM: The Open Source CFD Toolbox           |
|  \\    /   O peration     | Version:  v1912                                 |
|   \\  /    A nd           | Website:  www.openfoam.com                      |
|    \\/     M anipulation  |                                                 |
\*---------------------------------------------------------------------------*/
FoamFile
{
    version     2.0;
    format      ascii;
    class       volScalarField;
    location    "800";
    object      alphat;
}
// * * * * * * * * * * * * * * * * * * * * * * * * * * * * * * * * * * * * * //

dimensions      [0 2 -1 0 0 0 0];


internalField   nonuniform List<scalar> 
4000
(
0.000457473
0.000434508
0.000402613
0.000340454
0.000163759
0.000140299
0.000125192
0.000117619
0.000132857
0.000106279
0.000147475
0.00011783
0.000117346
0.000126082
0.000137695
0.000163414
0.000348737
0.000406836
0.000437348
0.000459788
0.00048035
0.0004543
0.00040846
0.000359307
0.000301187
0.000213041
0.000161143
0.000159924
0.000158367
0.000121742
0.000175819
0.000160616
0.000159904
0.000161445
0.000215823
0.000302857
0.000363304
0.00041047
0.000456039
0.000482436
0.000494784
0.000473724
0.000429712
0.000378599
0.000337732
0.000294858
0.000254483
0.000188546
0.000175784
0.000181398
0.000185826
0.00017852
0.000190492
0.000256495
0.000295627
0.000338326
0.000379452
0.000430668
0.000474983
0.000496593
0.000503674
0.000489002
0.000453354
0.000404942
0.000359161
0.000318424
0.000280885
0.000241029
0.000195913
0.000196064
0.000195171
0.00020077
0.000243951
0.000283011
0.00031958
0.000360152
0.000405307
0.00045446
0.000490221
0.000505284
0.000510602
0.000503781
0.000482032
0.000450166
0.000415324
0.000372552
0.000333253
0.000292768
0.000251295
0.000232951
0.000240859
0.00026061
0.000299574
0.000338742
0.000377395
0.000418241
0.000451863
0.000483396
0.000505053
0.000512081
0.000517047
0.000519408
0.000511717
0.000498045
0.000482819
0.000466161
0.000448941
0.00043061
0.000413505
0.000398301
0.000400452
0.000416461
0.000433607
0.000451753
0.00046865
0.000484962
0.000499844
0.000513293
0.000520871
0.000518444
0.000524263
0.000536138
0.000541475
0.000542088
0.000540366
0.000535615
0.000528037
0.00051734
0.000503857
0.000486305
0.000486991
0.000504653
0.000518496
0.000529389
0.000537109
0.000541943
0.000543686
0.000543046
0.000537658
0.000525587
0.000532785
0.000554321
0.000570716
0.000581695
0.000588976
0.000591898
0.000590632
0.00058427
0.000571938
0.000551222
0.000551204
0.000571682
0.000584462
0.000591218
0.000592836
0.000590192
0.000583103
0.000572216
0.000555827
0.000534029
0.000543796
0.000576455
0.000602725
0.000622046
0.000636288
0.000644848
0.000648157
0.000644958
0.000633094
0.000608788
0.0006083
0.000632225
0.00064466
0.000648402
0.00064554
0.000637323
0.00062332
0.000604133
0.000577882
0.000544949
0.000559958
0.000602761
0.000636955
0.000661963
0.000681221
0.000695211
0.000704077
0.000706787
0.000700845
0.000679219
0.000678316
0.000699729
0.000706189
0.000703958
0.0006955
0.000681853
0.000662873
0.000638068
0.000603966
0.000560982
0.000434527
0.000431055
0.000394463
0.000333147
0.000195439
0.00019472
0.000171133
0.000137304
9.75244e-05
0.000259311
9.6741e-05
0.000156902
0.000153387
0.000174642
0.000190685
0.000195324
0.000345449
0.000401394
0.000436489
0.000438299
0.000454328
0.000664074
0.000571327
0.000447472
0.000406625
0.000400057
0.000375429
0.000347994
0.000373557
0.000435611
0.000408473
0.000374042
0.000351773
0.000382667
0.000402542
0.000409601
0.000458896
0.000584132
0.000662069
0.000457909
0.00047375
0.000739048
0.000786181
0.000633475
0.000521905
0.000466457
0.000436492
0.000407848
0.000405578
0.000478727
0.000467875
0.000401856
0.000410409
0.000439462
0.000468724
0.000526361
0.000641091
0.000791841
0.000736453
0.000476876
0.00048902
0.000723129
0.000753764
0.000674538
0.000566273
0.000490184
0.000437438
0.000401476
0.000401397
0.000485601
0.000477163
0.000397621
0.000403514
0.000440818
0.000494424
0.00057203
0.000681461
0.00075892
0.000725878
0.000491763
0.000503792
0.000731928
0.000757205
0.000677559
0.000567282
0.000483255
0.000424552
0.00037572
0.000342737
0.000358245
0.000357314
0.000343702
0.000379043
0.000428718
0.000487853
0.000571871
0.000682092
0.000762711
0.000736558
0.000506133
0.000519411
0.000751766
0.000787935
0.000740136
0.00063941
0.000529119
0.000464103
0.000410249
0.000373949
0.000365327
0.000366898
0.000377107
0.000413678
0.000467037
0.000531544
0.000641882
0.000744018
0.000792981
0.000756584
0.000521361
0.000536137
0.000768933
0.000818844
0.000817677
0.000777725
0.000696346
0.00059362
0.000521058
0.000479688
0.000459066
0.00046102
0.000482702
0.000524103
0.000598665
0.0007014
0.00078186
0.000822043
0.000823505
0.000773573
0.000537731
0.000554317
0.000776681
0.00084009
0.000889709
0.00092798
0.000935479
0.000914583
0.000857769
0.000781459
0.000700527
0.000703454
0.000784931
0.000862459
0.000917875
0.000939526
0.000932885
0.000895035
0.000844655
0.000781057
0.000555656
0.00057645
0.000756931
0.000846914
0.000914361
0.000961538
0.000976564
0.000971662
0.000941294
0.000873461
0.000765036
0.000764611
0.000870572
0.000940701
0.00097316
0.000979616
0.000965528
0.000918675
0.000850964
0.000760449
0.0005776
0.000602755
0.000650377
0.00068999
0.000720592
0.000745565
0.000764993
0.000778672
0.000784838
0.000780255
0.000758894
0.000757572
0.000778844
0.000783995
0.000778365
0.000765148
0.000746099
0.000721413
0.000690987
0.000651411
0.000603549
0.000402648
0.000394447
0.000356726
0.000247407
0.000211499
0.000222342
0.000191943
0.000170001
0.000182685
0.00010646
0.000241906
0.000124498
0.000180409
0.000197436
0.000219039
0.000205517
0.000286927
0.000368985
0.000401378
0.000407609
0.000408487
0.000571338
0.000500252
0.000439744
0.000471366
0.000471602
0.000438688
0.000423863
0.000447039
0.000498195
0.000494795
0.000439118
0.000429034
0.000442129
0.000469671
0.000460176
0.000434064
0.000518576
0.000589331
0.000413211
0.000429739
0.000786296
0.000773903
0.000657255
0.000584187
0.000548993
0.00053119
0.000506392
0.000502686
0.000561118
0.00055029
0.000499781
0.000506239
0.000529414
0.000545947
0.000582088
0.000661371
0.000791871
0.000796905
0.000434444
0.000453365
0.000753816
0.000828145
0.000757268
0.000660291
0.000588849
0.00054118
0.000514562
0.000526353
0.000584696
0.00057699
0.000521971
0.000515668
0.000544251
0.000593725
0.000668274
0.000770372
0.000842817
0.000763077
0.000457519
0.000482031
0.000757271
0.000821105
0.000762947
0.000659382
0.000575714
0.000516495
0.000473598
0.000457632
0.000506887
0.000505752
0.000456948
0.000475861
0.000520225
0.000580575
0.000665663
0.000771496
0.000832419
0.000767134
0.000485259
0.00051171
0.000787997
0.000862686
0.000818178
0.000698673
0.000580377
0.000499644
0.000437806
0.000393786
0.000387379
0.000387266
0.000393843
0.000439009
0.000501485
0.000582549
0.000701623
0.00082377
0.000871848
0.000796917
0.000514259
0.000541468
0.0008189
0.00091286
0.000899231
0.000799347
0.000673178
0.000565912
0.000487937
0.000435186
0.000411002
0.000411481
0.000435579
0.000488856
0.000567922
0.000675621
0.00080201
0.00090426
0.000921017
0.000827009
0.00054334
0.000570709
0.000840137
0.000969044
0.00101926
0.000995962
0.000917506
0.000839577
0.000762221
0.000683023
0.000598296
0.00059765
0.000682688
0.000764369
0.000842207
0.00092092
0.000999964
0.00102504
0.000977141
0.000847556
0.000572131
0.000602718
0.000846942
0.00105637
0.00123359
0.00134293
0.00136739
0.0013609
0.00132291
0.00122696
0.00103097
0.00102989
0.00122149
0.001322
0.00136351
0.00137229
0.00134929
0.00124072
0.00106363
0.000852787
0.000603897
0.000636948
0.000689987
0.000734377
0.000769835
0.000799691
0.00082372
0.00084157
0.000850866
0.000847698
0.000824576
0.000822843
0.000846017
0.000849801
0.000841072
0.000823717
0.000800088
0.000770519
0.000735225
0.000690852
0.000637593
0.000341151
0.000333451
0.000245923
0.000219084
0.000236824
0.000227039
0.00020466
0.000185779
0.000175376
0.000163125
0.000167083
0.000170506
0.000187691
0.000206097
0.000227756
0.000233877
0.000217988
0.000286398
0.000345533
0.000350748
0.000359487
0.00044755
0.000440652
0.000483118
0.000518673
0.000500946
0.000479378
0.000475424
0.000502504
0.000564237
0.000550204
0.000497397
0.000477457
0.000479404
0.000495116
0.000504583
0.000459954
0.000434628
0.000461336
0.000365597
0.000378642
0.000633599
0.000657532
0.000626146
0.000603473
0.000595417
0.000585437
0.000563113
0.000569379
0.000628163
0.000615527
0.000563029
0.000560823
0.000580511
0.000588853
0.000596716
0.000621983
0.00066403
0.000647886
0.000382746
0.000404957
0.000674622
0.000757311
0.000731859
0.000678442
0.000633597
0.000603113
0.000589557
0.000603118
0.000650244
0.000644368
0.000598993
0.000589793
0.000605618
0.000638011
0.000685903
0.000743766
0.000774681
0.000689382
0.000409279
0.000450146
0.000677684
0.000763035
0.000750988
0.000691807
0.000632118
0.000585758
0.000554453
0.000553746
0.000621528
0.000621258
0.000553976
0.000557159
0.000590308
0.000638405
0.000700294
0.000762534
0.00077767
0.000691442
0.000454283
0.000498013
0.000740262
0.000818294
0.00080547
0.000729844
0.00063952
0.000566832
0.000510216
0.000471312
0.000472459
0.00047206
0.000470859
0.000511658
0.000569963
0.000644293
0.00073663
0.00081505
0.000831327
0.000752953
0.000501048
0.000542068
0.000817773
0.000899354
0.000898831
0.000826665
0.000717347
0.000618198
0.00053904
0.000477204
0.000446044
0.000445161
0.000476419
0.000540133
0.000621179
0.000722044
0.000833409
0.000908266
0.000912032
0.000828854
0.000544074
0.000581682
0.000889759
0.00101937
0.00107405
0.00104959
0.000965887
0.000877412
0.000792563
0.000703715
0.000611255
0.000608652
0.000702245
0.000794067
0.000881258
0.000971835
0.00105807
0.00108575
0.0010319
0.000898821
0.000583081
0.000622036
0.000914403
0.00123364
0.00151055
0.0016279
0.00164542
0.00163674
0.00158538
0.00145268
0.00122718
0.00121979
0.0014483
0.00158586
0.00164074
0.00165254
0.00163702
0.00152127
0.00124418
0.000921725
0.00062315
0.000661954
0.000720587
0.000769833
0.000810393
0.000845939
0.000875738
0.000898564
0.000911665
0.000910688
0.000891067
0.000888714
0.000908743
0.000910367
0.000897838
0.000875532
0.000846152
0.000810896
0.000770475
0.000721223
0.000662409
0.00016302
0.000194154
0.000212166
0.000237626
0.000236618
0.00022492
0.000209562
0.000194715
0.000181486
0.000176219
0.000174735
0.000182458
0.000196786
0.000211829
0.000226609
0.000237061
0.000234466
0.00020612
0.00019581
0.000165262
0.000301446
0.000406775
0.000472029
0.000518894
0.000525881
0.000515905
0.000506036
0.000507886
0.000543019
0.000624545
0.000607298
0.000534101
0.000507719
0.000505334
0.000510014
0.00051553
0.000505468
0.000461734
0.000411385
0.000305585
0.000337789
0.00052202
0.0005845
0.000603589
0.000613961
0.000620591
0.000610879
0.00059189
0.000607356
0.000688503
0.000673492
0.000599596
0.000589556
0.000605769
0.000613355
0.000607011
0.00059779
0.0005849
0.000531034
0.000341339
0.000359198
0.000566352
0.000660381
0.000678479
0.000666137
0.000649787
0.000638028
0.000633525
0.00064559
0.000705288
0.000696894
0.000641779
0.00063349
0.000640213
0.000653425
0.000672227
0.000687452
0.000672537
0.000577942
0.000363486
0.000415277
0.000567382
0.000659485
0.00069185
0.000679219
0.000651515
0.000624945
0.000608422
0.000622707
0.000697347
0.000695577
0.000623199
0.000611786
0.000630304
0.000658732
0.000688434
0.000703014
0.000672288
0.000579846
0.00042077
0.000482759
0.000639551
0.000698844
0.000729932
0.000711636
0.000664968
0.000616112
0.000575603
0.000555285
0.000584142
0.00058537
0.000556576
0.000579142
0.000621934
0.000673146
0.000722144
0.000742526
0.000713176
0.000653375
0.000486152
0.000540332
0.000777845
0.000799557
0.000826801
0.000810538
0.000748779
0.000675578
0.000609106
0.000557201
0.000545316
0.000546054
0.000558512
0.000612993
0.000682256
0.000758458
0.00082342
0.000842322
0.000815945
0.000790839
0.000542357
0.000588957
0.000928041
0.000996168
0.00104973
0.00104804
0.000990016
0.000916929
0.00084047
0.000752684
0.000659958
0.00065783
0.000752478
0.000843735
0.000923993
0.00100047
0.00106217
0.00106721
0.00101371
0.000938234
0.000590228
0.000636274
0.000961585
0.00134302
0.00162798
0.00176399
0.00184036
0.00187249
0.00183721
0.00168232
0.00140631
0.0013977
0.00167564
0.00183504
0.00187572
0.00184832
0.00177561
0.00164186
0.00135559
0.000969364
0.000637223
0.00068121
0.000745556
0.000799686
0.000845937
0.000888889
0.000925308
0.000954108
0.000972492
0.000976339
0.000963197
0.000960449
0.000974067
0.000970862
0.000953023
0.000924741
0.000888807
0.00084616
0.000800024
0.000745888
0.000681426
0.000136815
0.000188269
0.000222637
0.000227763
0.000225391
0.000219329
0.000210409
0.000199967
0.000190035
0.000187777
0.000186768
0.00019181
0.000202425
0.000212877
0.000221473
0.000227082
0.000229003
0.00022071
0.000189961
0.000138745
0.000213914
0.000400056
0.000471846
0.000501145
0.000515957
0.000521128
0.000522586
0.000531842
0.000575551
0.000663547
0.00064575
0.000563933
0.00052992
0.000522073
0.000518697
0.000511095
0.000497772
0.00047361
0.000406981
0.000221294
0.000295038
0.00046657
0.000549218
0.000595524
0.000620628
0.000626333
0.000614763
0.000603371
0.000630723
0.000711574
0.00069648
0.000621653
0.000601765
0.00061203
0.000620692
0.000614264
0.000590264
0.000548252
0.000471582
0.000298099
0.000318564
0.000490275
0.000588943
0.000633645
0.000649803
0.000654458
0.000654339
0.00065117
0.00066354
0.000718418
0.00071169
0.000660383
0.00065161
0.000656129
0.000657532
0.000654106
0.000639617
0.000596614
0.000497785
0.000321573
0.00037291
0.000483398
0.000575816
0.000632171
0.000651531
0.000650223
0.000642046
0.000639552
0.000664868
0.000726148
0.000725072
0.000665307
0.000643248
0.000647577
0.000657126
0.000659537
0.000640774
0.000584489
0.000491574
0.000379829
0.000466126
0.000529209
0.000580519
0.000639623
0.000665007
0.000658155
0.000636998
0.000617405
0.000620289
0.000670638
0.000673146
0.000623334
0.000622827
0.000644575
0.00066751
0.000675425
0.000650096
0.000590237
0.000537227
0.000469659
0.000535574
0.000696483
0.00067337
0.000717522
0.000748862
0.000736351
0.000697278
0.000653838
0.000626483
0.000649205
0.00065251
0.000630907
0.000660877
0.000707184
0.000748984
0.000763584
0.00073293
0.000687997
0.000710843
0.000537507
0.000591876
0.000935541
0.000917685
0.00096607
0.000990107
0.000970868
0.000928618
0.000869665
0.000787726
0.000700492
0.000700424
0.000789772
0.00087485
0.000937697
0.000984003
0.00100604
0.00098337
0.000932866
0.000945795
0.000592908
0.000644832
0.000976597
0.00136747
0.00164549
0.00184038
0.00197026
0.00203376
0.00199148
0.00177875
0.00139372
0.00138591
0.00177276
0.00198842
0.00203392
0.00197532
0.00185051
0.0016578
0.0013782
0.000983044
0.000645466
0.000695197
0.000764981
0.000823712
0.000875733
0.000925306
0.00096815
0.00100303
0.00102721
0.00103739
0.00103255
0.0010295
0.00103497
0.00102536
0.00100161
0.00096712
0.000924752
0.00087552
0.000823614
0.000764925
0.000695129
0.000121174
0.000159556
0.000188606
0.000205066
0.000210167
0.00021059
0.000207756
0.000203214
0.000199242
0.00020328
0.000202365
0.000200656
0.000205576
0.000210301
0.000213137
0.000212605
0.000207542
0.000196377
0.000171557
0.000125884
0.000160234
0.000375506
0.000438923
0.000479413
0.000506073
0.000522622
0.000534913
0.000556237
0.000610645
0.000693727
0.000678892
0.000597375
0.000552417
0.000534526
0.000523101
0.000507124
0.00048216
0.000446149
0.000387855
0.000162695
0.000255134
0.000436611
0.000531282
0.000585544
0.000610964
0.000614806
0.000609009
0.000611764
0.000647698
0.000675043
0.000668416
0.00063866
0.000610016
0.000608869
0.00061343
0.000608264
0.000583495
0.000532454
0.000442015
0.000257942
0.000281386
0.000437581
0.000541274
0.000603178
0.000638067
0.000654362
0.000655994
0.00065232
0.000665443
0.000637959
0.000641997
0.000663936
0.000653785
0.000658265
0.000657099
0.000641585
0.000607347
0.000546427
0.000442967
0.000284273
0.000334429
0.000424881
0.000516629
0.000585822
0.000624972
0.000642057
0.000647945
0.000656111
0.000677887
0.000628653
0.000636486
0.000679706
0.0006598
0.000653178
0.000647987
0.000631119
0.000591734
0.000522177
0.000430698
0.000340995
0.000449046
0.000464231
0.000499775
0.000566933
0.000616163
0.000637016
0.000639514
0.000639807
0.000652249
0.00060658
0.00061449
0.000656814
0.000645813
0.00064711
0.000645298
0.000624084
0.00057373
0.000505625
0.000470026
0.000452668
0.000528005
0.000593726
0.000566053
0.000618348
0.000675679
0.00069732
0.000688227
0.000670657
0.000667387
0.000649772
0.000656448
0.000673736
0.000679154
0.000698928
0.000709403
0.000687886
0.000629453
0.000575915
0.000605111
0.000529791
0.000590613
0.000914645
0.000839693
0.000877558
0.00091703
0.000928661
0.00091165
0.000864222
0.000785352
0.000697125
0.000699284
0.00078925
0.000870101
0.000920187
0.000940216
0.0009301
0.000890418
0.000850738
0.000924734
0.000591377
0.000648142
0.000971688
0.00136095
0.00163677
0.0018725
0.00203377
0.0020998
0.00201043
0.00168454
0.00112964
0.00112524
0.00168403
0.00200957
0.00209876
0.00203517
0.00187785
0.00164438
0.00136823
0.000976401
0.000648419
0.000704064
0.00077866
0.000841562
0.00089856
0.000954107
0.00100303
0.00104423
0.00107557
0.00109602
0.00110829
0.00110491
0.00109354
0.0010736
0.00104256
0.00100163
0.000953059
0.000897822
0.000840972
0.000778183
0.000703685
0.000117728
0.000148052
0.000157926
0.000186484
0.000195247
0.000200109
0.000203209
0.000206324
0.000210474
0.000221401
0.000220214
0.000211268
0.00020841
0.000205804
0.000202914
0.000197797
0.000188907
0.000181023
0.000149408
0.000116938
0.000157309
0.000348317
0.000423496
0.000475525
0.00050792
0.000531923
0.00055631
0.000592122
0.000624751
0.000550505
0.000541723
0.000613796
0.000586207
0.000554615
0.000532881
0.000510997
0.000480758
0.000431234
0.000354525
0.000160955
0.000191619
0.000408131
0.000506386
0.000563179
0.000591975
0.000603461
0.000611832
0.000629727
0.000600451
0.000399716
0.000398479
0.0005996
0.00062756
0.000612228
0.000605036
0.000593694
0.000565478
0.000510609
0.000413214
0.000194661
0.000241088
0.000401461
0.000514571
0.000589606
0.000633581
0.000651225
0.000652362
0.000649638
0.000567322
0.000361625
0.000361362
0.000576934
0.000652738
0.000655539
0.000654212
0.000636337
0.000592381
0.000517815
0.00040516
0.000244797
0.000294685
0.000376186
0.000473733
0.000554503
0.000608445
0.000639571
0.000656128
0.000660021
0.000549962
0.00040181
0.00039663
0.000562217
0.000665148
0.000660601
0.000644021
0.000612437
0.000557861
0.000476858
0.000380666
0.000302141
0.000430808
0.000410337
0.000437897
0.000510302
0.000575654
0.000617429
0.000639819
0.000645283
0.000522218
0.00045075
0.000442122
0.000533691
0.000651982
0.000646059
0.000623351
0.000580417
0.000513866
0.000441475
0.00041551
0.000434386
0.000517334
0.000521102
0.00048802
0.000539155
0.000609198
0.000653893
0.000670681
0.000674878
0.000590917
0.00053643
0.000530152
0.000601127
0.000683388
0.000680005
0.000663282
0.000617454
0.000545755
0.000493617
0.000527604
0.000518929
0.000584261
0.000857822
0.000762315
0.000792676
0.000840563
0.000869721
0.000864248
0.000817524
0.000732921
0.000666698
0.000662402
0.000738029
0.000823705
0.000871432
0.000878002
0.000849203
0.000800874
0.000770292
0.000869472
0.000584747
0.000644951
0.000941333
0.00132296
0.0015854
0.00183724
0.00199151
0.00201045
0.00180123
0.00133152
0.00113353
0.00112497
0.00133797
0.00180631
0.00201176
0.00199179
0.00183878
0.00158915
0.00132723
0.000944669
0.000644848
0.000706778
0.000784831
0.000850861
0.000911664
0.000972493
0.00102721
0.00107557
0.0011177
0.00115858
0.00121337
0.00120921
0.00115576
0.00111548
0.00107361
0.00102545
0.000970965
0.000910408
0.000849775
0.000783908
0.000706056
0.000113679
0.000210875
0.000119075
0.00016485
0.000181456
0.000190511
0.000199393
0.000210509
0.000218437
0.000231169
0.000230218
0.000218883
0.000211828
0.000201374
0.000192771
0.000183897
0.000170847
0.000120195
0.000184462
0.00011494
0.00015455
0.000382102
0.000443563
0.000501835
0.000542988
0.000575735
0.000610863
0.000624896
0.000487846
0.0005368
0.000528062
0.000483383
0.000618722
0.000604525
0.000571234
0.000541026
0.000503024
0.000443082
0.000378738
0.000158056
0.000187582
0.000406466
0.000502239
0.00056939
0.000607459
0.000630896
0.000647886
0.000600566
0.000375945
0.000666509
0.00065185
0.000376445
0.000603397
0.000645344
0.000628476
0.000606272
0.000569494
0.000505083
0.000406421
0.000182995
0.000199824
0.000401946
0.000526363
0.000603162
0.000645669
0.000663642
0.000665558
0.000567389
0.000376219
0.000910517
0.000889079
0.000374732
0.000579072
0.000668343
0.000664768
0.000646209
0.000603162
0.000525798
0.000400459
0.000203768
0.000259691
0.000345079
0.000458065
0.000553783
0.000622699
0.00066489
0.000677942
0.000550004
0.000437749
0.00121112
0.00118149
0.000429405
0.000563556
0.000681891
0.000666113
0.000622517
0.00055236
0.000456279
0.000345895
0.000265777
0.000414152
0.000374402
0.000393908
0.000471376
0.000555311
0.000620299
0.00065227
0.000522244
0.000505632
0.00149365
0.00145693
0.000490752
0.000534221
0.000656823
0.000622159
0.000555462
0.000470898
0.000394947
0.000378423
0.000417372
0.000503888
0.000479747
0.00043523
0.000477285
0.000557273
0.00062653
0.00066742
0.000590941
0.000608223
0.00168689
0.00164709
0.00059331
0.000601376
0.000674019
0.000631783
0.000561032
0.00048009
0.000438614
0.000484878
0.000505166
0.00057194
0.000781495
0.000683095
0.000703813
0.000752775
0.000787796
0.000785401
0.00073295
0.000769439
0.00177582
0.00173764
0.000757537
0.000739197
0.000791454
0.000793506
0.000758062
0.000708947
0.000689233
0.000791737
0.000572054
0.000633094
0.000873547
0.0012271
0.00145278
0.00168243
0.00177887
0.00168465
0.0013316
0.00119924
0.00171678
0.00169156
0.00118788
0.00134152
0.00169044
0.00178036
0.00168274
0.00145436
0.00122922
0.00087557
0.000632533
0.000700843
0.000780257
0.000847705
0.000910698
0.00097635
0.00103739
0.00109602
0.00115857
0.00124102
0.001348
0.00134334
0.00123691
0.00115554
0.00109345
0.00103505
0.000974211
0.000908835
0.000846042
0.000778801
0.000699698
0.000172093
8.47047e-05
0.000212574
0.000164135
0.000175806
0.000187767
0.000203319
0.000221431
0.000231196
0.000239457
0.000238959
0.000231219
0.000221624
0.000203875
0.000188395
0.000176114
0.000166004
0.000229691
9.09272e-05
0.000163146
0.000207456
0.000423733
0.000508365
0.000563924
0.000624553
0.000663732
0.000693938
0.000550672
0.000536908
0.000356873
0.000354801
0.000532799
0.000548668
0.000687795
0.000655352
0.000616869
0.000557312
0.00050117
0.000411967
0.000183918
0.000199534
0.000479546
0.000562056
0.000628317
0.000688634
0.000711756
0.00067524
0.000399833
0.00066662
0.000519607
0.000516467
0.000657707
0.00040241
0.000675333
0.00070477
0.000681467
0.000622553
0.000556758
0.000472379
0.000190364
0.000200108
0.000485997
0.000584738
0.000650282
0.00070537
0.000718545
0.000638117
0.000361707
0.0009106
0.000693386
0.000690231
0.000895017
0.000363715
0.000644595
0.00071519
0.000699457
0.000646751
0.000581563
0.000481447
0.00019789
0.000244972
0.000362333
0.000507556
0.000621507
0.000697297
0.000726181
0.000628763
0.00040186
0.00121116
0.000890955
0.000888679
0.00118709
0.000399091
0.000636012
0.000723127
0.0006904
0.000611604
0.000496109
0.000356502
0.000249033
0.000399477
0.000366219
0.000387434
0.000472392
0.000584056
0.000670588
0.000606629
0.000450733
0.00149361
0.00110652
0.00110581
0.00146101
0.00044316
0.000611388
0.000666089
0.000576298
0.000465509
0.000384577
0.000368473
0.000402222
0.000486401
0.000459183
0.000410998
0.000446036
0.000545297
0.000649183
0.000649804
0.000536385
0.0016868
0.00132082
0.0013226
0.00164987
0.000529581
0.000654323
0.000648684
0.00054339
0.000444941
0.00041257
0.000463381
0.000487299
0.000551225
0.000700551
0.000598344
0.000611324
0.000660026
0.000700551
0.000697183
0.000666656
0.0017757
0.00147884
0.00148324
0.00173819
0.000661972
0.000701638
0.000703867
0.000662609
0.000614253
0.000603089
0.00070899
0.00055084
0.000608785
0.000765109
0.00103109
0.00122741
0.00140654
0.001394
0.00112989
0.00113349
0.00171666
0.00159171
0.00159493
0.00168969
0.00112345
0.00113448
0.00139713
0.0014054
0.00122659
0.00103362
0.000765978
0.000607602
0.00067922
0.000758902
0.000824594
0.000891093
0.00096322
0.00103256
0.00110829
0.00121334
0.00134797
0.00138165
0.00138579
0.00134266
0.0012083
0.00110433
0.00102926
0.000960227
0.000888415
0.000822302
0.000756849
0.00067748
9.80509e-05
0.000199611
0.000103639
0.000164465
0.000177274
0.000188081
0.000202783
0.00022032
0.000230257
0.000238982
0.000238991
0.000230743
0.00022106
0.000203441
0.000188449
0.000176916
0.000162674
0.000103437
0.000225464
9.675e-05
0.000134811
0.000421446
0.000486488
0.000550462
0.000607108
0.000645611
0.000678786
0.000541711
0.000528015
0.000354829
0.000355643
0.00053186
0.000547067
0.000684843
0.000652134
0.000613877
0.000556279
0.000490499
0.000423856
0.000140481
0.000184888
0.000467976
0.000549525
0.000615284
0.000673272
0.000696315
0.000668459
0.000398597
0.000651635
0.000516485
0.000517135
0.000654566
0.00040104
0.000672592
0.000700799
0.000677837
0.0006198
0.000553612
0.000470005
0.000184634
0.000197799
0.000477108
0.000576721
0.000644207
0.000696766
0.000711654
0.000642253
0.000361461
0.000888637
0.000690246
0.000690182
0.000888667
0.000361498
0.000642913
0.000711284
0.00069573
0.000643977
0.000578655
0.000478667
0.000198064
0.000245767
0.000358804
0.000505857
0.00062116
0.000695501
0.000725092
0.000636797
0.000396553
0.00118075
0.000888698
0.000887482
0.00117595
0.000393845
0.000634582
0.000719284
0.00068697
0.000609129
0.000494086
0.000355774
0.000253402
0.000400959
0.000367224
0.000387239
0.000471991
0.000585326
0.000673161
0.00061472
0.00044187
0.00145588
0.00110584
0.00110328
0.0014456
0.000435914
0.000609785
0.00066296
0.000573599
0.000463305
0.000383733
0.00036955
0.000403383
0.000487043
0.000461129
0.000411506
0.000445133
0.000546029
0.000652535
0.000656586
0.000529897
0.00164589
0.00132266
0.00131899
0.00163166
0.000522639
0.000652413
0.00064632
0.000541271
0.00044352
0.000412819
0.000464776
0.000487386
0.000551183
0.000703575
0.000597681
0.000608611
0.000657757
0.000700373
0.000699283
0.000662153
0.00173642
0.00148335
0.00147924
0.00171894
0.000656262
0.000699249
0.000701447
0.000660176
0.000612425
0.000602659
0.000710424
0.000550334
0.000608261
0.000764639
0.00102994
0.0012197
0.00139755
0.00138584
0.00112524
0.0011246
0.00169073
0.00159501
0.00159021
0.00167681
0.0011166
0.00113175
0.00139347
0.00140026
0.0012216
0.00103203
0.000764562
0.000606656
0.000678267
0.000757517
0.000822782
0.000888636
0.000960354
0.00102939
0.00110478
0.00120904
0.00134315
0.00138584
0.00138237
0.00133795
0.00120415
0.00110089
0.00102627
0.000957541
0.000886021
0.000820339
0.000755173
0.000676103
0.000113309
0.000122291
0.000194848
0.000175176
0.000183357
0.00019187
0.000200628
0.00021127
0.000218901
0.000231248
0.000230763
0.00021864
0.00021123
0.000200619
0.000191879
0.000183096
0.000174927
0.000192826
0.000107891
0.000132411
0.00015379
0.000372389
0.000442829
0.00049761
0.000534109
0.00056386
0.000597242
0.000613694
0.000483364
0.000532758
0.000532001
0.000484304
0.000616662
0.000600862
0.00056749
0.000537583
0.000500332
0.000445661
0.000371977
0.000160847
0.000177584
0.000401312
0.000500034
0.000562954
0.000599528
0.00062159
0.000638598
0.000599693
0.000376508
0.000657536
0.000654756
0.0003765
0.000601523
0.000641257
0.000624527
0.000602838
0.000566619
0.000503634
0.000403709
0.00017837
0.000201894
0.000397585
0.000521901
0.000598943
0.000641757
0.000660392
0.00066399
0.000577229
0.000374722
0.000894662
0.000888882
0.000373145
0.00057747
0.000664221
0.000660717
0.000642405
0.000599606
0.00052278
0.000398214
0.000204166
0.000263691
0.000344475
0.000457032
0.000553959
0.000623197
0.000665331
0.000679787
0.00056255
0.000429182
0.00118648
0.00117618
0.000424446
0.00056125
0.000676891
0.00066142
0.000618684
0.000549481
0.000454048
0.00034505
0.000268904
0.000416741
0.00037727
0.000393875
0.000470855
0.00055659
0.000623385
0.00065691
0.000533971
0.000490325
0.00146014
0.00144582
0.000483017
0.000532244
0.000652751
0.000618563
0.000552291
0.000468056
0.000393468
0.000379521
0.000418241
0.000504651
0.000482774
0.000435592
0.0004764
0.000558514
0.000630966
0.000673834
0.00060131
0.000592834
0.00164885
0.00163186
0.000584202
0.000598778
0.000670212
0.000628345
0.000557745
0.00047753
0.000438081
0.000485999
0.000504648
0.000571631
0.00078499
0.000682683
0.000702165
0.000752373
0.000789687
0.000789208
0.000738037
0.000757099
0.00173713
0.0017191
0.000749224
0.000736783
0.00078825
0.000789881
0.00075434
0.000705832
0.000687457
0.000791517
0.000570797
0.00063216
0.000870474
0.0012213
0.00144808
0.00167528
0.00177244
0.00168394
0.00133814
0.00118745
0.00168896
0.00167687
0.00117984
0.00134559
0.00169027
0.00177551
0.00167633
0.00144831
0.0012226
0.000871348
0.000630799
0.000699661
0.000778769
0.000845933
0.000908648
0.000973961
0.00103486
0.00109343
0.00115564
0.00123675
0.0013425
0.00133795
0.00123236
0.00115199
0.00109035
0.00103212
0.000971415
0.000906248
0.000843672
0.000776651
0.000697762
0.000118846
0.000142612
0.00016448
0.00018903
0.000197408
0.000202503
0.000205594
0.000208449
0.000211859
0.000221695
0.000221054
0.000211258
0.000207969
0.000205222
0.000202313
0.000197242
0.000187379
0.000168196
0.000148044
0.000122056
0.000159757
0.000351841
0.000428321
0.000477308
0.000507752
0.000529916
0.000552354
0.000586097
0.000618588
0.000548625
0.000547254
0.000616786
0.000585609
0.000552461
0.000530454
0.000508713
0.000478676
0.000429359
0.000353306
0.000163086
0.00019126
0.000410249
0.000506012
0.000560784
0.000589545
0.000601764
0.00061
0.000627515
0.000603428
0.000402454
0.00040112
0.000601605
0.000626712
0.000610218
0.000602877
0.000591535
0.000563341
0.000508459
0.000410962
0.000194581
0.000243846
0.000403488
0.000515673
0.000589811
0.000633509
0.000651637
0.000653826
0.000652794
0.000579293
0.000363733
0.000361534
0.000577493
0.000651164
0.000653056
0.000651243