/*--------------------------------*- C++ -*----------------------------------*\
| =========                 |                                                 |
| \\      /  F ield         | OpenFOAM: The Open Source CFD Toolbox           |
|  \\    /   O peration     | Version:  v1912                                 |
|   \\  /    A nd           | Website:  www.openfoam.com                      |
|    \\/     M anipulation  |                                                 |
\*---------------------------------------------------------------------------*/
FoamFile
{
    version     2.0;
    format      ascii;
    class       volScalarField;
    location    "800";
    object      epsilon;
}
// * * * * * * * * * * * * * * * * * * * * * * * * * * * * * * * * * * * * * //

dimensions      [0 2 -3 0 0 0 0];


internalField   nonuniform List<scalar> 
4000
(
5.3188e-07
4.55745e-07
3.6241e-07
2.19177e-07
2.40484e-08
1.4858e-08
1.09254e-08
9.47202e-09
1.0275e-08
1.0962e-08
1.15928e-08
9.23105e-09
9.33304e-09
1.08645e-08
1.43017e-08
2.4268e-08
2.35632e-07
3.7403e-07
4.64843e-07
5.40289e-07
6.16134e-07
5.21151e-07
3.78754e-07
2.57762e-07
1.51669e-07
5.4375e-08
2.32751e-08
2.25525e-08
2.19209e-08
1.95961e-08
2.36462e-08
2.22169e-08
2.29579e-08
2.37904e-08
5.61181e-08
1.54351e-07
2.66327e-07
3.84234e-07
5.27138e-07
6.24238e-07
6.73457e-07
5.91013e-07
4.41041e-07
3.0168e-07
2.14126e-07
1.42725e-07
9.23062e-08
3.73722e-08
3.18066e-08
3.53821e-08
3.54974e-08
3.16909e-08
3.88579e-08
9.35478e-08
1.43575e-07
2.15184e-07
3.0362e-07
4.439e-07
5.95726e-07
6.80906e-07
7.10485e-07
6.5013e-07
5.17987e-07
3.69217e-07
2.57585e-07
1.79631e-07
1.23606e-07
7.82222e-08
4.25955e-08
4.32303e-08
4.21235e-08
4.53841e-08
8.08775e-08
1.25939e-07
1.81404e-07
2.59595e-07
3.70037e-07
5.21733e-07
6.55011e-07
7.17352e-07
7.40262e-07
7.10948e-07
6.22712e-07
5.07115e-07
3.9799e-07
2.87567e-07
2.0645e-07
1.40865e-07
9.19548e-08
7.48292e-08
7.9907e-08
1.00532e-07
1.49891e-07
2.15963e-07
2.98314e-07
4.06571e-07
5.12843e-07
6.28024e-07
7.16366e-07
7.46743e-07
7.68695e-07
7.7924e-07
7.45068e-07
6.86833e-07
6.2564e-07
5.63045e-07
5.02954e-07
4.43703e-07
3.93007e-07
3.5163e-07
3.56925e-07
4.0157e-07
4.53085e-07
5.12326e-07
5.72048e-07
6.34014e-07
6.94328e-07
7.5201e-07
7.85878e-07
7.74967e-07
8.01375e-07
8.57067e-07
8.82895e-07
8.8585e-07
8.77386e-07
8.5441e-07
8.18679e-07
7.70011e-07
7.1121e-07
6.3949e-07
6.42052e-07
7.14489e-07
7.74934e-07
8.24855e-07
8.61539e-07
8.85096e-07
8.93738e-07
8.9064e-07
8.6441e-07
8.07477e-07
8.41135e-07
9.47338e-07
1.03392e-06
1.09476e-06
1.13637e-06
1.15334e-06
1.14591e-06
1.10929e-06
1.04051e-06
9.31464e-07
9.31267e-07
1.03896e-06
1.11026e-06
1.14927e-06
1.1588e-06
1.14342e-06
1.10274e-06
1.04213e-06
9.55114e-07
8.47056e-07
8.94417e-07
1.06549e-06
1.21795e-06
1.33892e-06
1.43304e-06
1.49166e-06
1.51473e-06
1.49239e-06
1.4115e-06
1.25504e-06
1.25191e-06
1.40551e-06
1.49016e-06
1.51634e-06
1.49641e-06
1.44002e-06
1.34716e-06
1.22653e-06
1.07345e-06
9.0013e-07
9.76609e-07
1.21821e-06
1.4376e-06
1.61372e-06
1.75874e-06
1.86935e-06
1.94178e-06
1.96428e-06
1.91513e-06
1.74318e-06
1.73607e-06
1.9058e-06
1.95914e-06
1.94069e-06
1.87161e-06
1.7636e-06
1.62037e-06
1.44515e-06
1.22555e-06
9.81983e-07
4.55797e-07
4.44591e-07
3.40503e-07
2.05115e-07
4.09146e-08
3.93673e-08
2.71629e-08
1.7387e-08
1.35891e-08
2.21496e-08
1.38141e-08
1.59976e-08
1.85908e-08
2.81641e-08
3.80426e-08
4.13336e-08
2.28587e-07
3.59013e-07
4.61925e-07
4.67949e-07
5.21258e-07
6.34704e-07
4.39637e-07
2.67104e-07
1.89391e-07
1.33327e-07
5.4718e-08
3.65979e-08
2.59907e-08
2.13623e-08
2.20564e-08
2.67989e-08
3.89979e-08
5.89217e-08
1.37842e-07
1.94256e-07
2.78456e-07
4.47857e-07
6.27844e-07
5.33781e-07
5.9113e-07
7.22353e-07
6.94763e-07
4.45734e-07
2.82017e-07
1.94974e-07
1.43446e-07
9.15527e-08
4.75688e-08
3.23382e-08
3.27827e-08
4.90197e-08
9.4131e-08
1.44848e-07
1.95363e-07
2.83429e-07
4.48154e-07
6.9291e-07
7.13001e-07
6.03002e-07
6.5023e-07
6.7328e-07
6.02862e-07
4.54199e-07
3.03726e-07
2.09367e-07
1.47714e-07
1.03412e-07
7.19162e-08
5.2824e-08
5.41264e-08
7.38395e-08
1.0604e-07
1.50565e-07
2.1281e-07
3.08787e-07
4.61149e-07
6.08187e-07
6.76885e-07
6.61319e-07
7.11023e-07
6.93183e-07
6.1989e-07
4.85081e-07
3.45666e-07
2.3951e-07
1.68981e-07
1.15829e-07
7.75809e-08
6.08087e-08
6.23421e-08
8.08282e-08
1.20656e-07
1.75212e-07
2.47181e-07
3.53624e-07
4.92136e-07
6.27344e-07
7.00461e-07
7.2105e-07
7.79276e-07
7.42594e-07
6.82181e-07
5.89794e-07
4.8261e-07
3.68691e-07
2.94765e-07
2.3533e-07
1.97438e-07
1.80473e-07
1.82674e-07
2.01927e-07
2.40802e-07
3.00388e-07
3.74317e-07
4.87643e-07
5.95799e-07
6.88826e-07
7.50214e-07
7.88135e-07
8.57072e-07
8.04385e-07
7.60033e-07
7.08603e-07
6.5789e-07
5.75512e-07
4.71495e-07
3.96544e-07
3.52249e-07
3.24313e-07
3.2612e-07
3.5458e-07
3.98824e-07
4.7554e-07
5.79717e-07
6.6201e-07
7.13878e-07
7.65362e-07
8.11604e-07
8.6477e-07
9.4732e-07
9.02981e-07
8.92426e-07
8.86144e-07
9.0081e-07
8.89302e-07
8.51975e-07
7.75385e-07
6.85187e-07
5.78849e-07
5.80807e-07
6.85891e-07
7.76155e-07
8.51203e-07
8.9068e-07
9.04906e-07
8.92346e-07
8.98451e-07
9.10539e-07
9.54217e-07
1.06546e-06
1.13345e-06
1.23659e-06
1.31517e-06
1.39096e-06
1.43447e-06
1.44544e-06
1.39776e-06
1.26701e-06
1.02511e-06
1.022e-06
1.2591e-06
1.39414e-06
1.44615e-06
1.43882e-06
1.39786e-06
1.32322e-06
1.24502e-06
1.14211e-06
1.07185e-06
1.21816e-06
1.53045e-06
1.82761e-06
2.08183e-06
2.30593e-06
2.49096e-06
2.62699e-06
2.68986e-06
2.64297e-06
2.43177e-06
2.41886e-06
2.62841e-06
2.68099e-06
2.62374e-06
2.49238e-06
2.31083e-06
2.08892e-06
1.83553e-06
1.53776e-06
1.22297e-06
3.62445e-07
3.40468e-07
2.50981e-07
8.0973e-08
5.24768e-08
5.978e-08
3.9011e-08
2.65447e-08
2.22826e-08
1.7089e-08
2.38009e-08
1.92885e-08
2.80914e-08
4.10656e-08
5.87091e-08
4.82179e-08
1.29748e-07
2.785e-07
3.58999e-07
3.76225e-07
3.7885e-07
4.39698e-07
3.15393e-07
2.12945e-07
1.89173e-07
1.34536e-07
7.11438e-08
4.93801e-08
3.35956e-08
2.75736e-08
2.74514e-08
3.59702e-08
5.17903e-08
7.58796e-08
1.39037e-07
1.86457e-07
2.13043e-07
3.31008e-07
4.55442e-07
3.92158e-07
4.41209e-07
6.94992e-07
5.91973e-07
3.95275e-07
2.7484e-07
2.04663e-07
1.57273e-07
1.05976e-07
6.29914e-08
4.10724e-08
4.29013e-08
6.61188e-08
1.07789e-07
1.56818e-07
2.02901e-07
2.73768e-07
3.99333e-07
6.06295e-07
7.03799e-07
4.55927e-07
5.18135e-07
6.02946e-07
5.59118e-07
4.26048e-07
3.01736e-07
2.18054e-07
1.61152e-07
1.20127e-07
8.96129e-08
6.21851e-08
6.4353e-08
9.20684e-08
1.23066e-07
1.64415e-07
2.2253e-07
3.09301e-07
4.39686e-07
5.73889e-07
6.14181e-07
5.32557e-07
6.22814e-07
6.19962e-07
5.34222e-07
4.148e-07
2.9994e-07
2.16908e-07
1.59211e-07
1.15388e-07
8.29552e-08
6.51511e-08
6.60715e-08
8.53202e-08
1.1914e-07
1.64055e-07
2.22709e-07
3.06584e-07
4.22773e-07
5.45269e-07
6.32626e-07
6.3545e-07
7.45127e-07
6.82237e-07
5.84606e-07
4.6804e-07
3.55053e-07
2.59776e-07
1.96211e-07
1.48707e-07
1.16434e-07
1.0154e-07
1.02174e-07
1.18151e-07
1.51453e-07
1.99704e-07
2.63498e-07
3.58365e-07
4.72531e-07
5.92785e-07
6.9313e-07
7.56343e-07
8.82913e-07
7.6009e-07
6.67898e-07
5.42972e-07
4.30787e-07
3.40712e-07
2.67597e-07
2.15703e-07
1.8292e-07
1.64534e-07
1.64957e-07
1.83201e-07
2.16034e-07
2.68587e-07
3.41845e-07
4.31501e-07
5.45174e-07
6.74627e-07
7.6954e-07
8.92115e-07
1.03391e-06
8.92475e-07
8.574e-07
7.42414e-07
5.69721e-07
5.18521e-07
4.71881e-07
4.1861e-07
3.5794e-07
2.84691e-07
2.83392e-07
3.55665e-07
4.17155e-07
4.70384e-07
5.17992e-07
5.70156e-07
7.44043e-07
8.65771e-07
9.02039e-07
1.04166e-06
1.21792e-06
1.23662e-06
1.44228e-06
1.62823e-06
1.78483e-06
1.83013e-06
1.84088e-06
1.74855e-06
1.47919e-06
1.00498e-06
1.00127e-06
1.4728e-06
1.74859e-06
1.84662e-06
1.84047e-06
1.79732e-06
1.64055e-06
1.45417e-06
1.24753e-06
1.22507e-06
1.43754e-06
1.82759e-06
2.20368e-06
2.5387e-06
2.84578e-06
3.11015e-06
3.31674e-06
3.4278e-06
3.38961e-06
3.11979e-06
3.09985e-06
3.36915e-06
3.41468e-06
3.31064e-06
3.10997e-06
2.84992e-06
2.5454e-06
2.21128e-06
1.83444e-06
1.44188e-06
2.19458e-07
2.05208e-07
7.94398e-08
5.87779e-08
7.40161e-08
6.46679e-08
4.67693e-08
3.49956e-08
2.75408e-08
2.38729e-08
2.40939e-08
2.79907e-08
3.66418e-08
4.86589e-08
6.58582e-08
7.13882e-08
5.74318e-08
1.29172e-07
2.28585e-07
2.39306e-07
2.57873e-07
2.67198e-07
2.1375e-07
1.99456e-07
1.7233e-07
1.11301e-07
7.22692e-08
5.4149e-08
4.07285e-08
3.38933e-08
3.52138e-08
4.31678e-08
5.70349e-08
7.56541e-08
1.1486e-07
1.71338e-07
1.8988e-07
2.13784e-07
2.82013e-07
2.71414e-07
3.01787e-07
4.4601e-07
3.95497e-07
3.0637e-07
2.39697e-07
1.94032e-07
1.51788e-07
1.03768e-07
6.70466e-08
4.75688e-08
4.96483e-08
7.01299e-08
1.05778e-07
1.50997e-07
1.91687e-07
2.37192e-07
3.0557e-07
4.02852e-07
4.59356e-07
3.11743e-07
3.69363e-07
4.54352e-07
4.26076e-07
3.44951e-07
2.64824e-07
2.04013e-07
1.5879e-07
1.24239e-07
9.39674e-08
6.60332e-08
6.85032e-08
9.69552e-08
1.27343e-07
1.6232e-07
2.08564e-07
2.71955e-07
3.56772e-07
4.44136e-07
4.71552e-07
3.81317e-07
5.07205e-07
4.85198e-07
4.14862e-07
3.33963e-07
2.57468e-07
1.9734e-07
1.5203e-07
1.16364e-07
8.93928e-08
7.26434e-08
7.38391e-08
9.19816e-08
1.19973e-07
1.56452e-07
2.02568e-07
2.63835e-07
3.42559e-07
4.27414e-07
5.01388e-07
5.21313e-07
6.8688e-07
5.89868e-07
4.68096e-07
3.67249e-07
2.8241e-07
2.12331e-07
1.61313e-07
1.22269e-07
9.30582e-08
7.63255e-08
7.62187e-08
9.39851e-08
1.24428e-07
1.64434e-07
2.16023e-07
2.86456e-07
3.7263e-07
4.77239e-07
6.02975e-07
6.99488e-07
8.85863e-07
7.08631e-07
5.43044e-07
4.18257e-07
3.28337e-07
2.55684e-07
2.00059e-07
1.58577e-07
1.28055e-07
1.08355e-07
1.07732e-07
1.27519e-07
1.58832e-07
2.012e-07
2.57349e-07
3.30336e-07
4.21593e-07
5.50746e-07
7.17885e-07
8.95711e-07
1.09474e-06
8.86145e-07
7.42558e-07
5.72193e-07
5.08458e-07
4.77662e-07
4.48819e-07
4.07939e-07
3.40748e-07
2.49723e-07
2.46053e-07
3.38603e-07
4.0829e-07
4.50857e-07
4.8104e-07
5.12304e-07
5.76925e-07
7.53984e-07
8.94229e-07
1.10263e-06
1.33889e-06
1.31519e-06
1.62826e-06
1.92557e-06
2.1666e-06
2.42685e-06
2.60939e-06
2.61261e-06
2.28069e-06
1.64152e-06
1.61507e-06
2.26791e-06
2.61216e-06
2.61703e-06
2.44341e-06
2.1866e-06
1.9461e-06
1.644e-06
1.3263e-06
1.34605e-06
1.61366e-06
2.0818e-06
2.53869e-06
2.96166e-06
3.36886e-06
3.73765e-06
4.03759e-06
4.2167e-06
4.20309e-06
3.93731e-06
3.90579e-06
4.1758e-06
4.19837e-06
4.02756e-06
3.73482e-06
3.37128e-06
2.96708e-06
2.54496e-06
2.08725e-06
1.61692e-06
2.40569e-08
4.08415e-08
5.26776e-08
7.42653e-08
7.38636e-08
6.34781e-08
5.11058e-08
4.07559e-08
3.28903e-08
2.98301e-08
2.97364e-08
3.39621e-08
4.2517e-08
5.28806e-08
6.46717e-08
7.40382e-08
7.16833e-08
4.86619e-08
4.17706e-08
2.50634e-08
1.51831e-07
1.89385e-07
1.89718e-07
1.72479e-07
1.28915e-07
9.0737e-08
6.89658e-08
5.37002e-08
4.3071e-08
4.12047e-08
4.14684e-08
4.52026e-08
5.64758e-08
7.16332e-08
9.30779e-08
1.30162e-07
1.72001e-07
1.88082e-07
1.96722e-07
1.58532e-07
2.1423e-07
2.8219e-07
2.75097e-07
2.39785e-07
2.04888e-07
1.72175e-07
1.32946e-07
9.20692e-08
6.34536e-08
5.08728e-08
5.24512e-08
6.66245e-08
9.47624e-08
1.332e-07
1.70755e-07
2.03209e-07
2.38279e-07
2.77071e-07
2.90157e-07
2.21082e-07
2.57679e-07
3.0385e-07
3.0182e-07
2.6486e-07
2.1976e-07
1.79826e-07
1.46656e-07
1.17603e-07
8.84179e-08
6.60043e-08
6.82104e-08
9.1914e-08
1.2103e-07
1.50447e-07
1.8411e-07
2.25649e-07
2.73256e-07
3.13315e-07
3.15768e-07
2.67059e-07
3.98045e-07
3.45795e-07
3.00013e-07
2.57496e-07
2.13106e-07
1.73184e-07
1.39692e-07
1.12027e-07
9.11554e-08
7.80823e-08
7.93848e-08
9.37912e-08
1.15564e-07
1.43879e-07
1.7812e-07
2.19218e-07
2.65625e-07
3.1158e-07
3.62012e-07
4.14146e-07
6.25651e-07
4.82704e-07
3.5512e-07
2.82438e-07
2.26655e-07
1.79332e-07
1.41419e-07
1.11138e-07
8.82497e-08
7.62462e-08
7.62617e-08
8.93778e-08
1.13453e-07
1.44699e-07
1.83472e-07
2.31788e-07
2.89256e-07
3.64905e-07
4.9636e-07
6.38851e-07
8.77385e-07
6.57929e-07
4.30855e-07
3.28375e-07
2.6621e-07
2.16198e-07
1.75999e-07
1.44479e-07
1.19534e-07
1.04135e-07
1.03522e-07
1.19502e-07
1.45637e-07
1.78251e-07
2.19415e-07
2.7041e-07
3.33803e-07
4.38039e-07
6.67205e-07
8.87214e-07
1.13636e-06
9.00803e-07
5.69754e-07
5.085e-07
5.18748e-07
5.28326e-07
5.29248e-07
5.05712e-07
4.31351e-07
3.16161e-07
3.11551e-07
4.294e-07
5.07307e-07
5.33622e-07
5.35241e-07
5.26982e-07
5.16113e-07
5.7466e-07
9.07423e-07
1.14366e-06
1.43301e-06
1.39097e-06
1.7849e-06
2.16666e-06
2.77685e-06
3.33645e-06
3.75384e-06
3.86689e-06
3.41188e-06
2.48854e-06
2.45027e-06
3.38131e-06
3.85339e-06
3.74859e-06
3.34879e-06
2.79993e-06
2.1921e-06
1.80388e-06
1.40091e-06
1.43935e-06
1.75868e-06
2.30589e-06
2.84577e-06
3.36886e-06
3.90868e-06
4.40915e-06
4.83375e-06
5.11845e-06
5.17938e-06
4.97323e-06
4.93027e-06
5.14282e-06
5.09237e-06
4.81698e-06
4.40081e-06
3.90741e-06
3.37137e-06
2.84923e-06
2.30884e-06
1.76026e-06
1.47187e-08
3.8855e-08
6.01339e-08
6.49134e-08
6.35442e-08
5.87522e-08
5.18499e-08
4.44022e-08
3.8177e-08
3.66282e-08
3.64558e-08
3.92864e-08
4.6129e-08
5.35991e-08
6.03322e-08
6.50224e-08
6.66824e-08
5.98986e-08
3.83834e-08
1.48588e-08
5.43942e-08
1.33206e-07
1.34634e-07
1.114e-07
9.07841e-08
7.55709e-08
6.27659e-08
5.15673e-08
4.50067e-08
4.80268e-08
4.74671e-08
4.65279e-08
5.4003e-08
6.51997e-08
7.80116e-08
9.34252e-08
1.16284e-07
1.41937e-07
1.41812e-07
6.04894e-08
1.42796e-07
1.95041e-07
2.0479e-07
1.94087e-07
1.72207e-07
1.42073e-07
1.07718e-07
7.76208e-08
5.85292e-08
5.26565e-08
5.33824e-08
6.13092e-08
8.0802e-08
1.09631e-07
1.4222e-07
1.71349e-07
1.92933e-07
2.05417e-07
1.99311e-07
1.47264e-07
1.79693e-07
2.09431e-07
2.18121e-07
2.04051e-07
1.79841e-07
1.53985e-07
1.29022e-07
1.0321e-07
7.83763e-08
6.44392e-08
6.60882e-08
8.19637e-08
1.06954e-07
1.32837e-07
1.58175e-07
1.84582e-07
2.09866e-07
2.25172e-07
2.16597e-07
1.84895e-07
2.87699e-07
2.39576e-07
2.16948e-07
1.97362e-07
1.73191e-07
1.47634e-07
1.23671e-07
1.03113e-07
8.78008e-08
7.96955e-08
8.08596e-08
9.0386e-08
1.06511e-07
1.27624e-07
1.52188e-07
1.78617e-07
2.04097e-07
2.25644e-07
2.51383e-07
3.04189e-07
5.63044e-07
3.68768e-07
2.59818e-07
2.12356e-07
1.79341e-07
1.49694e-07
1.23518e-07
1.01829e-07
8.69888e-08
8.5553e-08
8.59022e-08
8.84348e-08
1.04316e-07
1.26852e-07
1.53837e-07
1.84403e-07
2.18605e-07
2.67626e-07
3.79018e-07
5.75883e-07
8.54393e-07
5.75606e-07
3.40773e-07
2.55729e-07
2.16219e-07
1.86911e-07
1.62048e-07
1.41961e-07
1.26844e-07
1.26794e-07
1.2691e-07
1.27781e-07
1.44052e-07
1.65188e-07
1.90993e-07
2.21149e-07
2.61321e-07
3.47271e-07
5.86048e-07
8.63565e-07
1.15333e-06
8.8929e-07
5.18533e-07
4.77701e-07
5.28349e-07
5.81628e-07
6.18402e-07
6.11939e-07
5.23318e-07
3.82942e-07
3.78908e-07
5.22148e-07
6.13986e-07
6.22931e-07
5.88621e-07
5.37309e-07
4.85121e-07
5.2159e-07
8.93726e-07
1.15929e-06
1.49164e-06
1.43445e-06
1.83013e-06
2.42683e-06
3.33642e-06
4.1688e-06
4.8112e-06
4.98984e-06
4.27703e-06
2.95923e-06
2.91702e-06
4.24054e-06
4.96705e-06
4.79235e-06
4.15547e-06
3.35014e-06
2.44661e-06
1.84396e-06
1.44054e-06
1.49593e-06
1.86931e-06
2.49093e-06
3.11013e-06
3.73764e-06
4.40915e-06
5.05044e-06
5.61608e-06
6.03186e-06
6.21285e-06
6.12649e-06
6.07189e-06
6.16894e-06
5.99899e-06
5.59194e-06
5.03403e-06
4.40097e-06
3.73468e-06
3.1088e-06
2.4902e-06
1.86861e-06
1.06613e-08
2.59725e-08
3.85717e-08
4.70252e-08
5.12113e-08
5.18659e-08
4.98688e-08
4.66426e-08
4.40026e-08
4.66716e-08
4.61872e-08
4.49115e-08
4.82807e-08
5.16769e-08
5.37875e-08
5.33566e-08
4.95318e-08
4.19265e-08
2.85965e-08
1.12307e-08
2.31753e-08
5.48753e-08
7.1007e-08
7.22556e-08
6.89775e-08
6.27691e-08
5.56843e-08
4.99733e-08
5.03781e-08
6.84761e-08
6.60091e-08
5.08161e-08
5.19194e-08
5.79828e-08
6.52937e-08
7.18832e-08
7.6177e-08
7.6758e-08
5.92199e-08
2.42631e-08
9.23415e-08
1.43532e-07
1.57326e-07
1.51807e-07
1.32976e-07
1.07728e-07
8.38691e-08
6.57908e-08
5.80736e-08
6.92818e-08
6.80137e-08
5.97291e-08
6.8798e-08
8.68323e-08
1.10009e-07
1.34296e-07
1.52848e-07
1.59437e-07
1.47898e-07
9.53251e-08
1.23672e-07
1.47713e-07
1.61174e-07
1.58807e-07
1.46669e-07
1.29027e-07
1.08023e-07
8.62544e-08
7.24113e-08
8.38804e-08
8.29869e-08
7.51133e-08
9.01295e-08
1.12008e-07
1.33183e-07
1.51131e-07
1.63483e-07
1.66221e-07
1.52748e-07
1.27655e-07
2.06717e-07
1.69008e-07
1.59215e-07
1.52036e-07
1.39696e-07
1.23671e-07
1.06957e-07
9.23755e-08
8.52872e-08
1.08511e-07
1.07007e-07
8.73208e-08
9.55392e-08
1.10659e-07
1.27833e-07
1.44398e-07
1.57459e-07
1.6567e-07
1.77582e-07
2.19911e-07
5.0301e-07
2.94886e-07
1.96236e-07
1.61326e-07
1.41426e-07
1.2352e-07
1.06545e-07
9.2559e-08
8.91131e-08
1.31428e-07
1.29337e-07
9.02472e-08
9.49247e-08
1.09613e-07
1.27163e-07
1.45604e-07
1.66115e-07
2.01962e-07
3.03175e-07
5.15414e-07
8.18647e-07
4.71564e-07
2.67627e-07
2.00089e-07
1.76019e-07
1.62055e-07
1.50348e-07
1.41195e-07
1.40014e-07
1.96344e-07
1.94911e-07
1.41194e-07
1.43552e-07
1.53551e-07
1.65844e-07
1.80074e-07
2.04124e-07
2.72087e-07
4.80072e-07
8.26821e-07
1.14593e-06
8.5197e-07
4.71854e-07
4.48829e-07
5.29263e-07
6.18401e-07
6.84234e-07
6.78889e-07
5.57577e-07
4.35823e-07
4.32363e-07
5.58177e-07
6.81355e-07
6.87876e-07
6.23577e-07
5.35749e-07
4.53785e-07
4.72994e-07
8.54706e-07
1.1503e-06
1.51473e-06
1.44542e-06
1.84082e-06
2.60928e-06
3.75378e-06
4.81106e-06
5.64869e-06
5.73947e-06
4.46657e-06
3.03086e-06
2.99148e-06
4.45055e-06
5.72495e-06
5.62931e-06
4.79051e-06
3.75262e-06
2.61801e-06
1.84756e-06
1.4474e-06
1.51654e-06
1.94177e-06
2.62697e-06
3.31673e-06
4.0376e-06
4.83377e-06
5.61609e-06
6.33672e-06
6.92427e-06
7.32644e-06
7.57543e-06
7.50558e-06
7.27633e-06
6.88566e-06
6.30602e-06
5.59231e-06
4.81755e-06
4.02738e-06
3.30951e-06
2.62193e-06
1.93847e-06
9.34543e-09
1.75229e-08
2.53018e-08
3.52458e-08
4.08912e-08
4.44279e-08
4.66425e-08
4.88309e-08
5.18562e-08
6.03472e-08
5.94096e-08
5.24192e-08
5.03156e-08
4.84486e-08
4.6441e-08
4.30368e-08
3.73734e-08
2.85369e-08
1.85898e-08
9.57239e-09
2.23356e-08
3.77707e-08
4.87038e-08
5.42875e-08
5.37907e-08
5.15975e-08
4.99817e-08
5.21857e-08
6.56438e-08
1.0797e-07
1.0237e-07
6.4104e-08
5.33454e-08
5.20407e-08
5.41524e-08
5.67234e-08
5.74504e-08
5.18327e-08
3.93517e-08
2.33679e-08
3.77423e-08
9.19848e-08
1.06334e-07
1.03886e-07
9.21261e-08
7.76393e-08
6.57946e-08
6.10706e-08
7.46712e-08
1.84607e-07
1.76239e-07
7.37392e-08
6.32472e-08
6.89354e-08
8.11539e-08
9.56406e-08
1.0742e-07
1.10289e-07
9.65145e-08
4.06761e-08
7.81008e-08
1.03501e-07
1.20191e-07
1.24278e-07
1.1763e-07
1.03221e-07
8.62568e-08
7.49613e-08
9.44541e-08
3.38144e-07
3.19077e-07
9.33891e-08
7.81679e-08
9.03823e-08
1.07545e-07
1.21948e-07
1.2845e-07
1.24233e-07
1.07159e-07
8.16916e-08
1.41069e-07
1.15896e-07
1.15402e-07
1.16373e-07
1.12031e-07
1.03113e-07
9.23754e-08
8.54285e-08
1.2201e-07
6.14091e-07
5.78379e-07
1.19533e-07
8.80914e-08
9.57335e-08
1.06797e-07
1.15985e-07
1.20627e-07
1.20186e-07
1.22461e-07
1.53111e-07
4.43794e-07
2.35476e-07
1.48736e-07
1.2228e-07
1.11143e-07
1.01829e-07
9.25585e-08
8.89002e-08
1.4679e-07
9.03001e-07
8.51175e-07
1.42359e-07
9.06032e-08
9.50674e-08
1.04658e-07
1.14163e-07
1.25588e-07
1.52894e-07
2.4248e-07
4.55397e-07
7.69963e-07
3.96523e-07
2.15693e-07
1.58588e-07
1.44492e-07
1.41967e-07
1.41197e-07
1.45963e-07
2.24978e-07
1.181e-06
1.12479e-06
2.20346e-07
1.47748e-07
1.43777e-07
1.44743e-07
1.47063e-07
1.6076e-07
2.17913e-07
4.00992e-07
7.76921e-07
1.10932e-06
7.75452e-07
4.18584e-07
4.07933e-07
5.05715e-07
6.11937e-07
6.78888e-07
6.40502e-07
5.50181e-07
1.37488e-06
1.32415e-06
5.48502e-07
6.44484e-07
6.82112e-07
6.15262e-07
5.09269e-07
4.10408e-07
4.18499e-07
7.79059e-07
1.11199e-06
1.49244e-06
1.39779e-06
1.74851e-06
2.61243e-06
3.86673e-06
4.98973e-06
5.73939e-06
5.28633e-06
3.60578e-06
5.14959e-06
5.04664e-06
3.61493e-06
5.30299e-06
5.73052e-06
4.97498e-06
3.85853e-06
2.61352e-06
1.75064e-06
1.39633e-06
1.49159e-06
1.96432e-06
2.68991e-06
3.42786e-06
4.21676e-06
5.11852e-06
6.0319e-06
6.92428e-06
7.76984e-06
8.6534e-06
9.94004e-06
9.83705e-06
8.58976e-06
7.72294e-06
6.88597e-06
6.00051e-06
5.09408e-06
4.19905e-06
3.41448e-06
2.6802e-06
1.95813e-06
9.67219e-09
1.88317e-08
1.7934e-08
2.68653e-08
3.29621e-08
3.82361e-08
4.40228e-08
5.18678e-08
5.79636e-08
6.86985e-08
6.78523e-08
5.83045e-08
5.28432e-08
4.53822e-08
3.97793e-08
3.45518e-08
2.8568e-08
1.92164e-08
1.79439e-08
9.52439e-09
2.15484e-08
2.59438e-08
3.42844e-08
4.06827e-08
4.31221e-08
4.50306e-08
5.03986e-08
6.56717e-08
1.04072e-07
7.52077e-07
7.16496e-07
1.00729e-07
6.50686e-08
5.14865e-08
4.69031e-08
4.5492e-08
4.33455e-08
3.62076e-08
2.71944e-08
2.24095e-08
3.28501e-08
4.72157e-08
6.33855e-08
6.71399e-08
6.34762e-08
5.8534e-08
5.80839e-08
7.46949e-08
2.26523e-07
2.81095e-06
2.71017e-06
2.1882e-07
7.4635e-08
6.02645e-08
6.15883e-08
6.70117e-08
7.09353e-08
6.73089e-08
5.05262e-08
3.29765e-08
4.2938e-08
7.21023e-08
8.9742e-08
9.40235e-08
8.84402e-08
7.838e-08
7.24169e-08
9.44742e-08
4.72739e-07
5.74784e-06
5.54761e-06
4.47399e-07
9.43741e-08
7.56285e-08
8.23698e-08
9.26223e-08
9.79864e-08
9.3249e-08
7.4991e-08
4.66019e-08
9.30285e-08
7.78766e-08
8.30468e-08
8.9429e-08
9.11684e-08
8.78027e-08
8.52923e-08
1.22028e-07
8.82688e-07
9.76862e-06
9.41739e-06
8.2876e-07
1.20701e-07
8.79041e-08
9.06626e-08
9.39491e-08
9.21508e-08
8.60198e-08
8.26964e-08
1.03817e-07
3.9331e-07
1.97605e-07
1.16485e-07
9.30764e-08
8.82578e-08
8.69893e-08
8.91134e-08
1.46794e-07
1.32982e-06
1.37877e-05
1.32764e-05
1.24149e-06
1.43086e-07
9.05272e-08
8.86005e-08
8.97974e-08
9.48452e-08
1.19267e-07
2.03286e-07
4.03802e-07
7.11223e-07
3.52207e-07
1.82887e-07
1.28053e-07
1.19544e-07
1.2685e-07
1.40017e-07
2.24971e-07
1.76554e-06
1.6363e-05
1.57466e-05
1.65593e-06
2.20409e-07
1.41317e-07
1.28215e-07
1.20571e-07
1.28898e-07
1.84265e-07
3.55712e-07
7.16669e-07
1.04057e-06
6.85239e-07
3.579e-07
3.4076e-07
4.31391e-07
5.23362e-07
5.57623e-07
5.502e-07
2.02396e-06
1.57637e-05
1.51757e-05
1.91575e-06
5.49465e-07
5.60679e-07
5.25167e-07
4.32759e-07
3.41607e-07
3.5753e-07
6.88114e-07
1.04109e-06
1.41163e-06
1.26712e-06
1.47926e-06
2.2808e-06
3.4121e-06
4.27741e-06
4.46708e-06
3.60603e-06
4.83711e-06
1.26548e-05
1.23241e-05
4.70904e-06
3.61892e-06
4.47422e-06
4.26436e-06
3.39819e-06
2.27593e-06
1.47975e-06
1.26272e-06
1.40773e-06
1.91527e-06
2.64316e-06
3.38982e-06
4.20331e-06
5.17959e-06
6.21299e-06
7.32644e-06
8.65326e-06
1.06349e-05
1.36285e-05
1.34861e-05
1.05283e-05
8.58478e-06
7.27449e-06
6.17055e-06
5.14526e-06
4.17726e-06
3.36963e-06
2.62815e-06
1.9057e-06
1.3956e-08
1.38778e-08
2.26311e-08
2.40932e-08
2.99499e-08
3.66866e-08
4.67043e-08
6.03763e-08
6.87214e-08
7.63531e-08
7.58724e-08
6.874e-08
6.05462e-08
4.71654e-08
3.72932e-08
3.05394e-08
2.46743e-08
2.38639e-08
1.37491e-08
1.25392e-08
2.46594e-08
2.22567e-08
2.70287e-08
3.4426e-08
4.12858e-08
4.80551e-08
6.85154e-08
1.08028e-07
7.5233e-07
1.12431e-06
1.10521e-06
7.30882e-07
1.05238e-07
6.78195e-08
4.84443e-08
4.21794e-08
3.56374e-08
2.76488e-08
2.25399e-08
2.41741e-08
3.73481e-08
3.22352e-08
4.12447e-08
4.76557e-08
5.09057e-08
5.2672e-08
6.93146e-08
1.84679e-07
2.81139e-06
2.49073e-06
2.46573e-06
2.73539e-06
1.79575e-07
6.92798e-08
5.38098e-08
5.26788e-08
4.99251e-08
4.35352e-08
3.35603e-08
3.69726e-08
4.35218e-08
5.30573e-08
6.22465e-08
6.60621e-08
6.60194e-08
6.4449e-08
8.39097e-08
3.38218e-07
5.74823e-06
4.32145e-06
4.30934e-06
5.57752e-06
3.24647e-07
8.39868e-08
6.61073e-08
6.80838e-08
6.8745e-08
6.55673e-08
5.57952e-08
4.32838e-08
7.61502e-08
6.12382e-08
6.52177e-08
7.26724e-08
7.81007e-08
7.97057e-08
1.08536e-07
6.14148e-07
9.76858e-06
6.71519e-06
6.7394e-06
9.44593e-06
5.86054e-07
1.07816e-07
8.05828e-08
7.87127e-08
7.30128e-08
6.62257e-08
6.49403e-08
8.58866e-08
3.52119e-07
1.80663e-07
1.01575e-07
7.63204e-08
7.62441e-08
8.55482e-08
1.31424e-07
9.02877e-07
1.37867e-05
9.49824e-06
9.58182e-06
1.32887e-05
8.5587e-07
1.29027e-07
8.51878e-08
7.58717e-08
7.65794e-08
1.03274e-07
1.85225e-07
3.61346e-07
6.39537e-07
3.24327e-07
1.64505e-07
1.08338e-07
1.04133e-07
1.26788e-07
1.96318e-07
1.18074e-06
1.63612e-05
1.2263e-05
1.24293e-05
1.5736e-05
1.12402e-06
1.93661e-07
1.26333e-07
1.03725e-07
1.08415e-07
1.65622e-07
3.27425e-07
6.43212e-07
9.31528e-07
5.78919e-07
2.84672e-07
2.49772e-07
3.16249e-07
3.83032e-07
4.35861e-07
1.37451e-06
1.57613e-05
1.37206e-05
1.39624e-05
1.51391e-05
1.31839e-06
4.34551e-07
3.83048e-07
3.15506e-07
2.49041e-07
2.84025e-07
5.81135e-07
9.29475e-07
1.25518e-06
1.02524e-06
1.0052e-06
1.64213e-06
2.48929e-06
2.96014e-06
3.03125e-06
5.14888e-06
1.2653e-05
1.41363e-05
1.43429e-05
1.22819e-05
5.02324e-06
3.00073e-06
2.94292e-06
2.46602e-06
1.62704e-06
1.00234e-06
1.01838e-06
1.24774e-06
1.7434e-06
2.43205e-06
3.12014e-06
3.93774e-06
4.97361e-06
6.12674e-06
7.57536e-06
9.93942e-06
1.36275e-05
1.46721e-05
1.48033e-05
1.34654e-05
9.81457e-06
7.49378e-06
6.0677e-06
4.92705e-06
3.90207e-06
3.09392e-06
2.41214e-06
1.72985e-06
9.53613e-09
1.8493e-08
1.7027e-08
2.42622e-08
3.00517e-08
3.6598e-08
4.62393e-08
5.94301e-08
6.78669e-08
7.58878e-08
7.58934e-08
6.82985e-08
6.00387e-08
4.67333e-08
3.69857e-08
3.03391e-08
2.42783e-08
1.69014e-08
2.00525e-08
9.94228e-09
2.06273e-08
2.15659e-08
2.79147e-08
3.49603e-08
4.15504e-08
4.74894e-08
6.59919e-08
1.02303e-07
7.15967e-07
1.10497e-06
1.10452e-06
7.24873e-07
1.04292e-07
6.71281e-08
4.80601e-08
4.19482e-08
3.49248e-08
2.82308e-08
2.19714e-08
2.14896e-08
3.54013e-08
3.27571e-08
4.28752e-08
4.97123e-08
5.24978e-08
5.34107e-08
6.80132e-08
1.76107e-07
2.70825e-06
2.46541e-06
2.45793e-06
2.71183e-06
1.77365e-07
6.8428e-08
5.34861e-08
5.25377e-08
4.99064e-08
4.33839e-08
3.34642e-08
3.62321e-08
4.23275e-08
5.40742e-08
6.43654e-08
6.85694e-08
6.82756e-08
6.61401e-08
8.29915e-08
3.18672e-07
5.54293e-06
4.30917e-06
4.28664e-06
5.51784e-06
3.18301e-07
8.2674e-08
6.57702e-08
6.79191e-08
6.86411e-08
6.53895e-08
5.55932e-08
4.29498e-08
8.0455e-08
6.24726e-08
6.60731e-08
7.38699e-08
7.94258e-08
8.08967e-08
1.06988e-07
5.77471e-07
9.40792e-06
6.73965e-06
6.69379e-06
9.32252e-06
5.69837e-07
1.05556e-07
7.97811e-08
7.804e-08
7.23803e-08
6.5824e-08
6.56319e-08
8.91807e-08
3.57263e-07
1.82866e-07
1.02207e-07
7.62006e-08
7.62475e-08
8.58966e-08
1.29268e-07
8.4966e-07
1.32616e-05
9.58282e-06
9.50966e-06
1.31003e-05
8.30894e-07
1.26135e-07
8.42016e-08
7.51729e-08
7.62097e-08
1.03696e-07
1.87006e-07
3.64424e-07
6.42143e-07
3.26144e-07
1.64937e-07
1.07693e-07
1.03484e-07
1.26877e-07
1.94808e-07
1.12298e-06
1.5728e-05
1.24315e-05
1.23334e-05
1.55029e-05
1.09518e-06
1.90519e-07
1.25137e-07
1.02906e-07
1.08071e-07
1.66047e-07
3.28593e-07
6.43593e-07
9.31263e-07
5.80881e-07
2.83323e-07
2.45955e-07
3.11419e-07
3.78764e-07
4.32174e-07
1.32227e-06
1.5157e-05
1.39661e-05
1.38626e-05
1.49004e-05
1.29043e-06
4.30203e-07
3.79355e-07
3.11986e-07
2.46556e-07
2.8311e-07
5.8174e-07
9.26932e-07
1.25184e-06
1.02193e-06
1.00125e-06
1.6146e-06
2.44941e-06
2.91614e-06
2.99018e-06
5.04253e-06
1.2313e-05
1.43459e-05
1.42326e-05
1.21286e-05
4.96159e-06
2.97234e-06
2.91655e-06
2.43919e-06
1.60625e-06
9.9602e-07
1.01337e-06
1.24191e-06
1.73589e-06
2.41848e-06
3.09924e-06
3.90479e-06
4.92878e-06
6.06986e-06
7.50274e-06
9.83269e-06
1.34803e-05
1.48052e-05
1.46955e-05
1.3323e-05
9.71319e-06
7.42334e-06
6.0146e-06
4.8855e-06
3.87037e-06
3.07169e-06
2.39606e-06
1.71928e-06
8.93521e-09
1.42715e-08
2.33496e-08
2.84852e-08
3.40601e-08
3.93027e-08
4.49288e-08
5.24425e-08
5.83267e-08
6.87572e-08
6.8327e-08
5.8113e-08
5.24025e-08
4.48968e-08
3.93024e-08
3.41063e-08
2.85282e-08
2.32108e-08
1.41381e-08
1.00304e-08
2.17144e-08
2.68098e-08
3.59386e-08
4.32983e-08
4.52399e-08
4.6551e-08
5.0831e-08
6.40969e-08
1.00686e-07
7.30463e-07
7.25311e-07
1.008e-07
6.45626e-08
5.09714e-08
4.64751e-08
4.50822e-08
4.3128e-08
3.57449e-08
2.72227e-08
2.24313e-08
3.15462e-08
4.96807e-08
6.61041e-08
7.01923e-08
6.66913e-08
6.13682e-08
5.97721e-08
7.37399e-08
2.18669e-07
2.73379e-06
2.71278e-06
2.17564e-07
7.3875e-08
5.98049e-08
6.13357e-08
6.67924e-08
7.06276e-08
6.69872e-08
5.08829e-08
3.2182e-08
4.54875e-08
7.39198e-08
9.2128e-08
9.70264e-08
9.19989e-08
8.20484e-08
7.5182e-08
9.33799e-08
4.46817e-07
5.5735e-06
5.51915e-06
4.42134e-07
9.29608e-08
7.50448e-08
8.19594e-08
9.20484e-08
9.72002e-08
9.2472e-08
7.45325e-08
4.71084e-08
1.00863e-07
8.08923e-08
8.53442e-08
9.20265e-08
9.38445e-08
9.04417e-08
8.73699e-08
1.19478e-07
8.27345e-07
9.43765e-06
9.32411e-06
8.10932e-07
1.17941e-07
8.66712e-08
8.96107e-08
9.29047e-08
9.12034e-08
8.53671e-08
8.31091e-08
1.07381e-07
4.01785e-07
2.02115e-07
1.18183e-07
9.39888e-08
8.93901e-08
8.84559e-08
9.02622e-08
1.42226e-07
1.23908e-06
1.32757e-05
1.31019e-05
1.20926e-06
1.39283e-07
8.91991e-08
8.76098e-08
8.88599e-08
9.41035e-08
1.19339e-07
2.05073e-07
4.06347e-07
7.14482e-07
3.54587e-07
1.8316e-07
1.27471e-07
1.19468e-07
1.27764e-07
1.41175e-07
2.20151e-07
1.65283e-06
1.57194e-05
1.55043e-05
1.612e-06
2.15545e-07
1.39546e-07
1.26828e-07
1.19293e-07
1.27934e-07
1.84027e-07
3.55927e-07
7.14477e-07
1.0388e-06
6.85832e-07
3.55517e-07
3.38445e-07
4.2919e-07
5.21918e-07
5.58012e-07
5.48297e-07
1.91254e-06
1.51226e-05
1.49015e-05
1.86763e-06
5.45106e-07
5.5706e-07
5.20453e-07
4.28354e-07
3.38287e-07
3.55062e-07
6.85715e-07
1.03423e-06
1.4052e-06
1.25873e-06
1.47228e-06
2.26702e-06
3.37957e-06
4.23864e-06
4.44963e-06
3.61462e-06
4.70441e-06
1.22721e-05
1.21288e-05
4.61896e-06
3.60841e-06
4.4597e-06
4.23042e-06
3.36447e-06
2.25267e-06
1.46664e-06
1.25128e-06
1.39613e-06
1.90533e-06
2.62771e-06
3.36817e-06
4.17448e-06
5.14108e-06
6.16686e-06
7.27393e-06
8.58682e-06
1.05242e-05
1.34604e-05
1.33233e-05
1.04118e-05
8.50536e-06
7.21233e-06
6.11781e-06
5.10076e-06
4.14144e-06
3.34121e-06
2.60631e-06
1.88984e-06
9.33997e-09
1.79544e-08
2.72352e-08
3.68889e-08
4.26018e-08
4.61624e-08
4.83139e-08
5.03512e-08
5.28701e-08
6.05677e-08
6.00713e-08
5.24149e-08
5.00041e-08
4.80267e-08
4.59742e-08
4.25418e-08
3.68085e-08
2.73499e-08
1.83134e-08
9.68249e-09
2.28981e-08
3.85061e-08
5.21329e-08
5.71152e-08
5.65149e-08
5.40386e-08
5.19521e-08
5.33704e-08
6.50606e-08
1.05197e-07
1.04384e-07
6.45922e-08
5.31485e-08
5.16843e-08
5.37746e-08
5.63263e-08
5.70606e-08
5.2063e-08
3.85749e-08
2.34341e-08
3.88647e-08
9.43638e-08
1.0793e-07
1.05812e-07
9.48132e-08
8.08644e-08
6.88596e-08
6.32947e-08
7.46283e-08
1.79466e-07
1.77478e-07