/*--------------------------------*- C++ -*----------------------------------*\
| =========                 |                                                 |
| \\      /  F ield         | OpenFOAM: The Open Source CFD Toolbox           |
|  \\    /   O peration     | Version:  v1912                                 |
|   \\  /    A nd           | Website:  www.openfoam.com                      |
|    \\/     M anipulation  |                                                 |
\*---------------------------------------------------------------------------*/
FoamFile
{
    version     2.0;
    format      ascii;
    class       volScalarField;
    location    "800";
    object      k;
}
// * * * * * * * * * * * * * * * * * * * * * * * * * * * * * * * * * * * * * //

dimensions      [0 2 -2 0 0 0 0];


internalField   nonuniform List<scalar> 
4000
(
4.79361e-05
4.32482e-05
3.71258e-05
2.65719e-05
6.08472e-06
4.38557e-06
3.54279e-06
3.24211e-06
3.30115e-06
4.20747e-06
3.28397e-06
3.14347e-06
3.23824e-06
3.59422e-06
4.33204e-06
6.13756e-06
2.78678e-05
3.79119e-05
4.38209e-05
4.84399e-05
5.28712e-05
4.72877e-05
3.82239e-05
2.95816e-05
2.07779e-05
1.04818e-05
5.93351e-06
5.78848e-06
5.65267e-06
6.16651e-06
5.47995e-06
5.6813e-06
5.88621e-06
6.03895e-06
1.06986e-05
2.10179e-05
3.02318e-05
3.85963e-05
4.76512e-05
5.33338e-05
5.60999e-05
5.14223e-05
4.23059e-05
3.28435e-05
2.61351e-05
1.99426e-05
1.49168e-05
8.22094e-06
7.50144e-06
8.14513e-06
7.87054e-06
7.29001e-06
8.37704e-06
1.5037e-05
2.00206e-05
2.62224e-05
3.29866e-05
4.24931e-05
5.16975e-05
5.6513e-05
5.81367e-05
5.47955e-05
4.70926e-05
3.75753e-05
2.95601e-05
2.32486e-05
1.81269e-05
1.33492e-05
8.96822e-06
9.03653e-06
8.87073e-06
9.30129e-06
1.36474e-05
1.83414e-05
2.33969e-05
2.97139e-05
3.76355e-05
4.73234e-05
5.50712e-05
5.85109e-05
5.97491e-05
5.8161e-05
5.32433e-05
4.64318e-05
3.951e-05
3.18271e-05
2.55397e-05
1.98029e-05
1.50115e-05
1.31411e-05
1.36094e-05
1.58173e-05
2.06086e-05
2.62843e-05
3.26059e-05
4.00744e-05
4.67835e-05
5.35479e-05
5.84572e-05
6.00974e-05
6.12688e-05
6.18279e-05
6.0007e-05
5.68383e-05
5.34111e-05
4.97894e-05
4.61882e-05
4.24932e-05
3.92118e-05
3.64246e-05
3.67651e-05
3.97572e-05
4.30805e-05
4.67546e-05
5.03192e-05
5.38892e-05
5.72533e-05
6.03805e-05
6.2179e-05
6.16016e-05
6.29927e-05
6.58783e-05
6.71951e-05
6.73449e-05
6.69155e-05
6.57425e-05
6.38972e-05
6.13397e-05
5.81802e-05
5.42032e-05
5.43466e-05
5.83584e-05
6.1603e-05
6.42199e-05
6.61095e-05
6.73084e-05
6.77451e-05
6.75879e-05
6.62539e-05
6.3312e-05
6.50589e-05
7.04256e-05
7.46534e-05
7.75531e-05
7.95059e-05
8.02957e-05
7.99512e-05
7.82387e-05
7.49707e-05
6.96373e-05
6.96281e-05
7.48976e-05
7.82852e-05
8.01083e-05
8.05499e-05
7.98353e-05
7.79302e-05
7.50478e-05
7.081e-05
6.53636e-05
6.77776e-05
7.61649e-05
8.32664e-05
8.86913e-05
9.27995e-05
9.53132e-05
9.62931e-05
9.53443e-05
9.18671e-05
8.49463e-05
8.48064e-05
9.16095e-05
9.52512e-05
9.63633e-05
9.55166e-05
9.31016e-05
8.90553e-05
8.36566e-05
7.65432e-05
6.80655e-05
7.18681e-05
8.32778e-05
9.29966e-05
0.000100444
0.000106374
0.000110788
0.000113631
0.000114507
0.000112588
0.000105744
0.000105459
0.000112225
0.00011431
0.00011359
0.000110878
0.00010657
0.00010072
9.33218e-05
8.36113e-05
7.2131e-05
4.32519e-05
4.25479e-05
3.56202e-05
2.54137e-05
8.66039e-06
8.37438e-06
6.4226e-06
4.93328e-06
5.14775e-06
4.20379e-06
5.11717e-06
4.29191e-06
5.00766e-06
6.76244e-06
8.29394e-06
8.7414e-06
2.73156e-05
3.6895e-05
4.36415e-05
4.40152e-05
4.7295e-05
6.30931e-05
4.87109e-05
3.36051e-05
2.69751e-05
2.24472e-05
1.39341e-05
1.09736e-05
9.68156e-06
9.24048e-06
9.3709e-06
9.7079e-06
1.13836e-05
1.4601e-05
2.28955e-05
2.74176e-05
3.4746e-05
4.97163e-05
6.26572e-05
4.80487e-05
5.14297e-05
7.10067e-05
7.1834e-05
5.16478e-05
3.72881e-05
2.93108e-05
2.43217e-05
1.87872e-05
1.35143e-05
1.20985e-05
1.2039e-05
1.36317e-05
1.90977e-05
2.45179e-05
2.94101e-05
3.75404e-05
5.20969e-05
7.19902e-05
7.04217e-05
5.21156e-05
5.48017e-05
6.78124e-05
6.55155e-05
5.37967e-05
4.03072e-05
3.11367e-05
2.47084e-05
1.9803e-05
1.65246e-05
1.55709e-05
1.56198e-05
1.66523e-05
2.01021e-05
2.50374e-05
3.15256e-05
4.08477e-05
5.44844e-05
6.60288e-05
6.81227e-05
5.54225e-05
5.81653e-05
6.92255e-05
6.65854e-05
5.57179e-05
4.30369e-05
3.3068e-05
2.60413e-05
2.02872e-05
1.58998e-05
1.44204e-05
1.45316e-05
1.62151e-05
2.07856e-05
2.66358e-05
3.37488e-05
4.37056e-05
5.63103e-05
6.72279e-05
6.98075e-05
5.87105e-05
6.18298e-05
7.26146e-05
7.12532e-05
6.42118e-05
5.39876e-05
4.29253e-05
3.59484e-05
3.02014e-05
2.64257e-05
2.49863e-05
2.51709e-05
2.68233e-05
3.06751e-05
3.64021e-05
4.33509e-05
5.43738e-05
6.47083e-05
7.18286e-05
7.32194e-05
6.22973e-05
6.58784e-05
7.64328e-05
7.66692e-05
7.39773e-05
6.95181e-05
6.15251e-05
5.14181e-05
4.41793e-05
3.99552e-05
3.75083e-05
3.76888e-05
4.02099e-05
4.44349e-05
5.18565e-05
6.19737e-05
6.99215e-05
7.44507e-05
7.71561e-05
7.70059e-05
6.62722e-05
7.04246e-05
8.13882e-05
8.41489e-05
8.62934e-05
8.88567e-05
8.86443e-05
8.57907e-05
7.92633e-05
7.11214e-05
6.18938e-05
6.21279e-05
7.13156e-05
7.95192e-05
8.59067e-05
8.89052e-05
8.92938e-05
8.68534e-05
8.46611e-05
8.19574e-05
7.07658e-05
7.61635e-05
9.00171e-05
9.94548e-05
0.000106571
0.00011239
0.000115022
0.000115171
0.000111472
0.000102236
8.60643e-05
8.59105e-05
0.00010175
0.000111294
0.000115289
0.000115377
0.000112902
0.000107149
0.000100031
9.05696e-05
7.64674e-05
8.32757e-05
9.69583e-05
0.000109132
0.00011903
0.000127424
0.000134152
0.000138992
0.000141201
0.000139555
0.000132018
0.000131553
0.000139046
0.000140894
0.00013888
0.000134205
0.000127606
0.0001193
0.000109447
9.72665e-05
8.34946e-05
3.71294e-05
3.56205e-05
2.90887e-05
1.37915e-05
1.02545e-05
1.12098e-05
8.35617e-06
6.32045e-06
5.01966e-06
5.83577e-06
4.83643e-06
5.96968e-06
6.603e-06
8.71721e-06
1.10607e-05
9.67821e-06
1.87623e-05
3.11589e-05
3.6895e-05
3.80608e-05
3.82346e-05
4.87166e-05
3.86093e-05
2.97178e-05
2.90039e-05
2.44773e-05
1.71745e-05
1.40561e-05
1.18612e-05
1.15014e-05
1.12323e-05
1.22659e-05
1.44739e-05
1.78034e-05
2.48351e-05
2.84615e-05
2.95555e-05
4.02736e-05
5.0358e-05
3.91237e-05
4.232e-05
7.18523e-05
6.57892e-05
4.95319e-05
3.89355e-05
3.25732e-05
2.80874e-05
2.25119e-05
1.72854e-05
1.47641e-05
1.49239e-05
1.76718e-05
2.26977e-05
2.80021e-05
3.23453e-05
3.87959e-05
4.99479e-05
6.73481e-05
7.27844e-05
4.32539e-05
4.71042e-05
6.55232e-05
6.61384e-05
5.52074e-05
4.33811e-05
3.48252e-05
2.87014e-05
2.41616e-05
2.1106e-05
1.85313e-05
1.87247e-05
2.13044e-05
2.44824e-05
2.90727e-05
3.53272e-05
4.41876e-05
5.65671e-05
6.75948e-05
6.65343e-05
4.79728e-05
5.32503e-05
6.65926e-05
6.43701e-05
5.46745e-05
4.32213e-05
3.43444e-05
2.78712e-05
2.2721e-05
1.89431e-05
1.76706e-05
1.77645e-05
1.91903e-05
2.31405e-05
2.83923e-05
3.49473e-05
4.39062e-05
5.55069e-05
6.54782e-05
6.7705e-05
5.39672e-05
6.00103e-05
7.12589e-05
6.90189e-05
6.01412e-05
4.84051e-05
3.77362e-05
3.043e-05
2.47979e-05
2.08116e-05
1.92753e-05
1.93303e-05
2.09648e-05
2.50603e-05
3.07561e-05
3.80773e-05
4.87337e-05
6.06362e-05
6.9868e-05
7.22304e-05
6.06109e-05
6.71957e-05
7.66746e-05
7.58855e-05
6.79085e-05
5.70296e-05
4.65433e-05
3.78192e-05
3.15289e-05
2.74209e-05
2.52734e-05
2.53206e-05
2.74544e-05
3.15836e-05
3.79572e-05
4.67062e-05
5.71727e-05
6.82364e-05
7.66064e-05
7.75301e-05
6.76619e-05
7.46524e-05
8.41532e-05
8.85845e-05
8.45387e-05
7.32048e-05
6.70304e-05
6.1169e-05
5.48951e-05
4.80535e-05
4.01102e-05
3.99978e-05
4.78895e-05
5.48777e-05
6.11679e-05
6.71214e-05
7.338e-05
8.48706e-05
8.93862e-05
8.49749e-05
7.50249e-05
8.32646e-05
9.94572e-05
0.000119956
0.000137729
0.000150453
0.00015373
0.000153813
0.0001478
0.00013092
9.89195e-05
9.86867e-05
0.000130347
0.000147753
0.000154202
0.00015444
0.000151335
0.000138648
0.000120861
0.000100238
8.35902e-05
9.29938e-05
0.000109131
0.000123629
0.000135859
0.000146604
0.000155548
0.000162361
0.000165966
0.000164732
0.000155869
0.000155208
0.000164072
0.000165546
0.000162166
0.000155544
0.000146748
0.0001361
0.000123914
0.000109404
9.31811e-05
2.65907e-05
2.54306e-05
1.3611e-05
1.10303e-05
1.28796e-05
1.17891e-05
9.51346e-06
7.85412e-06
6.55575e-06
6.09321e-06
6.12169e-06
6.80579e-06
8.0862e-06
9.7479e-06
1.19106e-05
1.25604e-05
1.08738e-05
1.87044e-05
2.73226e-05
2.81617e-05
2.95953e-05
3.36155e-05
2.98068e-05
3.01411e-05
2.90412e-05
2.29447e-05
1.80883e-05
1.5594e-05
1.38919e-05
1.34324e-05
1.35321e-05
1.42443e-05
1.60352e-05
1.85085e-05
2.31752e-05
2.85703e-05
2.87141e-05
2.96268e-05
3.50611e-05
3.06172e-05
3.28563e-05
5.16715e-05
4.95576e-05
4.25559e-05
3.6954e-05
3.30286e-05
2.89679e-05
2.34908e-05
1.89861e-05
1.6799e-05
1.69877e-05
1.93117e-05
2.36712e-05
2.87734e-05
3.26499e-05
3.65606e-05
4.23679e-05
5.02682e-05
5.30223e-05
3.35714e-05
3.75927e-05
5.38114e-05
5.52117e-05
4.88334e-05
4.11949e-05
3.49411e-05
3.00754e-05
2.63016e-05
2.31347e-05
2.01368e-05
2.04163e-05
2.34205e-05
2.66347e-05
3.0472e-05
3.54529e-05
4.19763e-05
5.00663e-05
5.70107e-05
5.54141e-05
3.83946e-05
4.64412e-05
5.57314e-05
5.46822e-05
4.86723e-05
4.10172e-05
3.43253e-05
2.90023e-05
2.46854e-05
2.16217e-05
2.06484e-05
2.08113e-05
2.19368e-05
2.51268e-05
2.95356e-05
3.49504e-05
4.17762e-05
4.9673e-05
5.60327e-05
5.72241e-05
4.72956e-05
5.68423e-05
6.42219e-05
6.01492e-05
5.28581e-05
4.4123e-05
3.58128e-05
2.93876e-05
2.42734e-05
2.0352e-05
1.84517e-05
1.84315e-05
2.04439e-05
2.45219e-05
2.97529e-05
3.62582e-05
4.46445e-05
5.35599e-05
6.12153e-05
6.5485e-05
5.75353e-05
6.73454e-05
7.39831e-05
6.79174e-05
5.95882e-05
5.06322e-05
4.16211e-05
3.41769e-05
2.84131e-05
2.40233e-05
2.13636e-05
2.12818e-05
2.3954e-05
2.84656e-05
3.43578e-05
4.18936e-05
5.09929e-05
6.01382e-05
6.88771e-05
7.49667e-05
6.78441e-05
7.75519e-05
8.62953e-05
8.45509e-05
7.61849e-05
7.09932e-05
6.60076e-05
6.09819e-05
5.52555e-05
4.75864e-05
3.79676e-05
3.76083e-05
4.73879e-05
5.53328e-05
6.1255e-05
6.64451e-05
7.15485e-05
7.69139e-05
8.57199e-05
8.71278e-05
7.79245e-05
8.86894e-05
0.000106574
0.000137733
0.000165737
0.0001825
0.000194184
0.000200821
0.000197769
0.000176879
0.000137924
0.000136398
0.00017612
0.000197783
0.000201362
0.000195268
0.000183855
0.000167209
0.000138986
0.00010745
8.90061e-05
0.00010044
0.000119028
0.000135859
0.000150556
0.000164056
0.00017582
0.000185105
0.00019054
0.00019013
0.000182027
0.000181059
0.000189311
0.000189991
0.000184801
0.000175734
0.000164137
0.000150741
0.000136084
0.000119237
0.000100577
6.0684e-06
8.64099e-06
1.02372e-05
1.2887e-05
1.28536e-05
1.16238e-05
1.00683e-05
8.66678e-06
7.50747e-06
7.03843e-06
7.05605e-06
7.66772e-06
8.90222e-06
1.02881e-05
1.17624e-05
1.2872e-05
1.25965e-05
9.7357e-06
8.79388e-06
6.25451e-06
2.07836e-05
2.69736e-05
2.90673e-05
2.90587e-05
2.52959e-05
2.10241e-05
1.81544e-05
1.60483e-05
1.48585e-05
1.55862e-05
1.54222e-05
1.51018e-05
1.64576e-05
1.84908e-05
2.11735e-05
2.51721e-05
2.86506e-05
2.86348e-05
2.76495e-05
2.13929e-05
2.6146e-05
3.73044e-05
3.89654e-05
3.69648e-05
3.44635e-05
3.17635e-05
2.76934e-05
2.26858e-05
1.9077e-05
1.81867e-05
1.8265e-05
1.94247e-05
2.2972e-05
2.76061e-05
3.14503e-05
3.41308e-05
3.66772e-05
3.91234e-05
3.81509e-05
2.66975e-05
2.95742e-05
4.03205e-05
4.33913e-05
4.11993e-05
3.71845e-05
3.32208e-05
2.97282e-05
2.65266e-05
2.32183e-05
2.09673e-05
2.11879e-05
2.36044e-05
2.69111e-05
3.01627e-05
3.37094e-05
3.78523e-05
4.21239e-05
4.46145e-05
4.15195e-05
3.02809e-05
3.95208e-05
4.30517e-05
4.32308e-05
4.1021e-05
3.69757e-05
3.26456e-05
2.87152e-05
2.53721e-05
2.31526e-05
2.26753e-05
2.2835e-05
2.34954e-05
2.58419e-05
2.9268e-05
3.32913e-05
3.77564e-05
4.19987e-05
4.44813e-05
4.45278e-05
4.05707e-05
5.34154e-05
5.40014e-05
4.84163e-05
4.41281e-05
3.90324e-05
3.35613e-05
2.86871e-05
2.45803e-05
2.15123e-05
2.05067e-05
2.05309e-05
2.16753e-05
2.4912e-05
2.91553e-05
3.41551e-05
3.97623e-05
4.50407e-05
4.95783e-05
5.53463e-05
5.41624e-05
6.69159e-05
6.95264e-05
5.70419e-05
5.06394e-05
4.51442e-05
3.91021e-05
3.35106e-05
2.88291e-05
2.50799e-05
2.31565e-05
2.31045e-05
2.51068e-05
2.90374e-05
3.38913e-05
3.96461e-05
4.58586e-05
5.15322e-05
5.81006e-05
7.05959e-05
6.74152e-05
7.95045e-05
8.88585e-05
7.32146e-05
7.10009e-05
7.16536e-05
7.02802e-05
6.76937e-05
6.33515e-05
5.53692e-05
4.43876e-05
4.39927e-05
5.52374e-05
6.35756e-05
6.82351e-05
7.1112e-05
7.2705e-05
7.21222e-05
7.41723e-05
8.96727e-05
7.98462e-05
9.27975e-05
0.000112392
0.00015046
0.000182507
0.000215069
0.00024079
0.000257626
0.000259003
0.000232809
0.000181785
0.000179831
0.000231307
0.000258401
0.000257671
0.000241759
0.000216672
0.000184357
0.000151964
0.000113249
9.30723e-05
0.00010637
0.000127422
0.000146603
0.000164056
0.000181142
0.000196291
0.0002087
0.000216817
0.000218535
0.000212695
0.000211474
0.00021751
0.000216084
0.00020822
0.000196047
0.000181106
0.00016414
0.000146724
0.000127533
0.000106436
4.35487e-06
8.32555e-06
1.11132e-05
1.17829e-05
1.16273e-05
1.10346e-05
1.01537e-05
9.1589e-06
8.28694e-06
8.05803e-06
8.04674e-06
8.43658e-06
9.39198e-06
1.03801e-05
1.12326e-05
1.18081e-05
1.20077e-05
1.11786e-05
8.31384e-06
4.41157e-06
1.05597e-05
2.24436e-05
2.44913e-05
2.29578e-05
2.10304e-05
1.92845e-05
1.76002e-05
1.60933e-05
1.56396e-05
1.73471e-05
1.70153e-05
1.57429e-05
1.6441e-05
1.79305e-05
1.9549e-05
2.12352e-05
2.33802e-05
2.51978e-05
2.33536e-05
1.12757e-05
1.99578e-05
2.932e-05
3.25901e-05
3.30363e-05
3.1768e-05
2.89876e-05
2.50076e-05
2.10315e-05
1.86716e-05
1.88109e-05
1.8739e-05
1.89735e-05
2.1431e-05
2.51742e-05
2.8874e-05
3.15282e-05
3.27951e-05
3.2614e-05
2.97964e-05
2.03644e-05
2.32581e-05
3.11452e-05
3.48342e-05
3.49463e-05
3.3223e-05
3.08519e-05
2.82379e-05
2.51944e-05
2.21623e-05
2.09097e-05
2.10768e-05
2.26112e-05
2.56574e-05
2.86926e-05
3.1343e-05
3.37701e-05
3.56079e-05
3.56224e-05
3.1913e-05
2.3698e-05
3.18418e-05
3.30773e-05
3.43512e-05
3.43291e-05
3.26469e-05
3.01116e-05
2.73857e-05
2.49569e-05
2.34798e-05
2.33778e-05
2.35312e-05
2.38322e-05
2.54392e-05
2.79404e-05
3.07351e-05
3.3358e-05
3.51469e-05
3.52949e-05
3.41645e-05
3.30352e-05
4.97941e-05
4.29364e-05
3.77444e-05
3.58182e-05
3.35633e-05
3.05053e-05
2.72609e-05
2.43679e-05
2.2574e-05
2.32762e-05
2.33678e-05
2.28174e-05
2.47726e-05
2.77908e-05
3.11441e-05
3.42993e-05
3.66374e-05
3.86258e-05
4.38543e-05
5.05445e-05
6.57432e-05
6.15392e-05
4.65549e-05
4.16301e-05
3.91063e-05
3.60542e-05
3.26674e-05
2.96077e-05
2.73945e-05
2.78804e-05
2.79644e-05
2.75931e-05
2.99856e-05
3.32165e-05
3.67573e-05
3.99362e-05
4.25315e-05
4.7503e-05
6.27285e-05
6.62131e-05
8.02942e-05
8.86458e-05
6.70378e-05
6.60167e-05
7.0285e-05
7.30219e-05
7.36366e-05
7.08866e-05
6.23887e-05
5.03278e-05
5.00601e-05
6.24006e-05
7.12171e-05
7.42669e-05
7.39554e-05
7.14464e-05
6.71199e-05
6.77881e-05
8.93525e-05
8.05724e-05
9.53112e-05
0.000115022
0.000153733
0.000194187
0.000240791
0.000278488
0.000303959
0.000306319
0.000268024
0.000197339
0.000195378
0.000266431
0.000305387
0.000303378
0.000278403
0.000241951
0.000195706
0.000154918
0.000115647
9.54958e-05
0.000110785
0.000134149
0.000155546
0.000175819
0.000196291
0.00021489
0.000230651
0.0002419
0.000246717
0.000244423
0.000242974
0.000245558
0.000241025
0.000229993
0.000214428
0.000196051
0.000175729
0.000155505
0.000134126
0.00011076
3.56898e-06
6.46781e-06
8.21375e-06
9.46057e-06
1.00656e-05
1.01554e-05
9.89173e-06
9.46024e-06
9.10206e-06
9.46542e-06
9.405e-06
9.2243e-06
9.68167e-06
1.01312e-05
1.04061e-05
1.03507e-05
9.84528e-06
8.80139e-06
6.8544e-06
3.67285e-06
6.01474e-06
1.39523e-05
1.71552e-05
1.80867e-05
1.81556e-05
1.76005e-05
1.67717e-05
1.62018e-05
1.70441e-05
2.11806e-05
2.05736e-05
1.69326e-05
1.64588e-05
1.71093e-05
1.79608e-05
1.85552e-05
1.86252e-05
1.79883e-05
1.47357e-05
6.14328e-06
1.49346e-05
2.43346e-05
2.80963e-05
2.89718e-05
2.76984e-05
2.50095e-05
2.19633e-05
1.9497e-05
1.88478e-05
2.10171e-05
2.07222e-05
1.89819e-05
1.991e-05
2.23465e-05
2.52462e-05
2.77761e-05
2.90231e-05
2.83163e-05
2.48484e-05
1.52378e-05
1.81332e-05
2.47112e-05
2.87059e-05
3.00788e-05
2.97307e-05
2.82391e-05
2.58708e-05
2.30528e-05
2.13333e-05
2.24822e-05
2.24333e-05
2.17041e-05
2.35925e-05
2.63902e-05
2.8751e-05
3.02633e-05
3.06245e-05
2.92903e-05
2.52806e-05
1.85123e-05
2.55541e-05
2.6046e-05
2.78744e-05
2.90046e-05
2.87164e-05
2.7386e-05
2.55846e-05
2.39258e-05
2.33675e-05
2.53833e-05
2.5364e-05
2.36773e-05
2.44015e-05
2.61294e-05
2.7972e-05
2.93396e-05
2.96661e-05
2.85851e-05
2.6877e-05
2.66071e-05
4.61915e-05
3.59607e-05
3.04354e-05
2.93913e-05
2.86891e-05
2.72615e-05
2.53687e-05
2.36501e-05
2.34296e-05
2.74385e-05
2.73968e-05
2.36613e-05
2.40633e-05
2.58843e-05
2.78403e-05
2.92967e-05
3.00028e-05
3.10565e-05
3.66877e-05
4.69428e-05
6.3899e-05
5.14303e-05
3.7827e-05
3.4184e-05
3.35153e-05
3.26692e-05
3.1261e-05
2.9905e-05
2.97063e-05
3.47093e-05
3.47599e-05
2.99733e-05
3.03445e-05
3.18374e-05
3.33343e-05
3.4204e-05
3.48353e-05
3.84707e-05
5.23828e-05
6.43223e-05
7.99504e-05
8.57931e-05
6.11715e-05
6.09878e-05
6.76984e-05
7.36383e-05
7.67445e-05
7.44285e-05
6.43006e-05
5.35608e-05
5.34306e-05
6.44951e-05
7.48171e-05
7.73085e-05
7.44049e-05
6.85959e-05
6.17712e-05
6.16464e-05
8.64032e-05
8.01556e-05
9.62919e-05
0.000115171
0.000153813
0.000200819
0.000257625
0.000303956
0.00033466
0.000330085
0.000266548
0.000179802
0.000178282
0.000266029
0.000329598
0.000334005
0.000303413
0.000257955
0.000201623
0.000154507
0.00011553
9.63711e-05
0.000113629
0.00013899
0.00016236
0.000185104
0.000208699
0.00023065
0.000249984
0.00026521
0.000275384
0.000281588
0.000279861
0.000274132
0.000264228
0.00024918
0.000230003
0.000208236
0.000184795
0.000162128
0.000138816
0.000113504
3.3466e-06
4.9715e-06
6.42873e-06
7.76876e-06
8.65708e-06
9.1622e-06
9.46221e-06
9.75413e-06
1.01529e-05
1.12329e-05
1.11186e-05
1.02266e-05
9.95202e-06
9.70509e-06
9.43656e-06
8.97192e-06
8.1589e-06
6.59723e-06
5.13053e-06
3.35162e-06
5.90947e-06
1.11526e-05
1.3974e-05
1.56183e-05
1.6063e-05
1.60989e-05
1.62041e-05
1.70821e-05
1.96798e-05
2.36938e-05
2.28876e-05
1.92777e-05
1.71856e-05
1.65105e-05
1.65092e-05
1.65465e-05
1.61506e-05
1.45107e-05
1.14856e-05
5.98346e-06
8.27187e-06
1.88439e-05
2.25607e-05
2.35081e-05
2.2695e-05
2.10352e-05
1.94983e-05
1.90582e-05
2.05789e-05
2.64012e-05
2.5757e-05
2.04365e-05
1.93623e-05
1.99658e-05
2.15355e-05
2.31588e-05
2.39527e-05
2.30605e-05
1.94069e-05
8.63477e-06
1.3397e-05
1.98254e-05
2.41734e-05
2.63084e-05
2.65316e-05
2.51971e-05
2.30538e-05
2.14467e-05
2.24986e-05
3.39858e-05
3.30032e-05
2.25609e-05
2.19536e-05
2.3657e-05
2.57792e-05
2.70735e-05
2.68088e-05
2.46505e-05
2.0253e-05
1.37582e-05
1.98734e-05
2.03106e-05
2.27289e-05
2.46891e-05
2.53739e-05
2.49576e-05
2.39262e-05
2.30772e-05
2.51761e-05
4.82739e-05
4.65485e-05
2.51962e-05
2.35259e-05
2.4441e-05
2.54885e-05
2.59027e-05
2.52113e-05
2.3267e-05
2.09862e-05
2.09158e-05
4.24994e-05
3.02174e-05
2.48038e-05
2.42768e-05
2.45821e-05
2.43686e-05
2.36503e-05
2.32769e-05
2.69077e-05
6.19969e-05
5.96151e-05
2.67886e-05
2.36211e-05
2.40859e-05
2.48234e-05
2.50172e-05
2.46889e-05
2.52497e-05
3.08504e-05
4.3229e-05
6.13439e-05
4.41841e-05
3.15324e-05
2.84176e-05
2.88329e-05
2.96096e-05
2.99056e-05
3.05008e-05
3.54321e-05
7.7344e-05
7.50396e-05
3.53674e-05
3.088e-05
3.03871e-05
3.01119e-05
2.92848e-05
2.87858e-05
3.18741e-05
4.4704e-05
6.17091e-05
7.82399e-05
7.9272e-05
5.48976e-05
5.52595e-05
6.33554e-05
7.08888e-05
7.44295e-05
7.03131e-05
6.17037e-05
9.30326e-05
9.10066e-05
6.18238e-05
7.07976e-05
7.49158e-05
7.14191e-05
6.39038e-05
5.57125e-05
5.51774e-05
7.99903e-05
7.83667e-05
9.53452e-05
0.000111475
0.000147801
0.000197763
0.000259001
0.000306318
0.000330085
0.000299856
0.000212925
0.000234783
0.000231548
0.000213708
0.00030075
0.000329937
0.000305888
0.000258835
0.000198039
0.00014813
0.000111615
9.53117e-05
0.000114507
0.000141202
0.000165967
0.00019054
0.000216818
0.000241901
0.00026521
0.000286387
0.000307709
0.000337502
0.000335175
0.000306206
0.000285239
0.000264235
0.000241065
0.000216131
0.00019001
0.000165539
0.000140865
0.00011427
3.57056e-06
4.30812e-06
5.89317e-06
6.61666e-06
7.50517e-06
8.2891e-06
9.10493e-06
1.01549e-05
1.09351e-05
1.22468e-05
1.21474e-05
1.09787e-05
1.02822e-05
9.29041e-06
8.50912e-06
7.74855e-06
6.86965e-06
6.10775e-06
4.33111e-06
3.37335e-06
5.90118e-06
9.57722e-06
1.20577e-05
1.38989e-05
1.48713e-05
1.56462e-05
1.70504e-05
1.96862e-05
2.18976e-05
6.17482e-05
5.97808e-05
2.14455e-05
1.94998e-05
1.71452e-05
1.59074e-05
1.52471e-05
1.43491e-05
1.23767e-05
9.79285e-06
5.838e-06
7.48137e-06
1.34745e-05
1.73578e-05
1.90048e-05
1.90829e-05
1.86746e-05
1.88519e-05
2.05839e-05
2.83617e-05
0.00013302
0.000129175
2.78954e-05
2.06249e-05
1.91659e-05
1.91204e-05
1.95891e-05
1.95348e-05
1.79296e-05
1.39198e-05
7.46213e-06
8.965e-06
1.65618e-05
2.11293e-05
2.31452e-05
2.32234e-05
2.21645e-05
2.13357e-05
2.2502e-05
4.09867e-05
0.000222321
0.000215835
3.97966e-05
2.27212e-05
2.18503e-05
2.27422e-05
2.37768e-05
2.36272e-05
2.152e-05
1.68411e-05
9.44958e-06
1.51476e-05
1.59595e-05
1.89673e-05
2.1631e-05
2.3156e-05
2.3481e-05
2.33691e-05
2.51787e-05
6.04077e-05
0.000334261
0.000324166
5.79764e-05
2.53489e-05
2.37943e-05
2.38831e-05
2.35028e-05
2.1926e-05
1.92542e-05
1.64397e-05
1.61511e-05
3.9219e-05
2.64472e-05
2.08219e-05
2.03569e-05
2.15146e-05
2.25746e-05
2.343e-05
2.69085e-05
7.96837e-05
0.000441001
0.000427406
7.58551e-05
2.68702e-05
2.36982e-05
2.28174e-05
2.17046e-05
2.05383e-05
2.10929e-05
2.69584e-05
3.99021e-05
5.81841e-05
3.99589e-05
2.74223e-05
2.40263e-05
2.50832e-05
2.73964e-05
2.97073e-05
3.54321e-05
0.000100696
0.000510556
0.000494916
9.63215e-05
3.53798e-05
2.99927e-05
2.76591e-05
2.52755e-05
2.41755e-05
2.76295e-05
4.03647e-05
5.84779e-05
7.49745e-05
7.113e-05
4.8055e-05
4.75915e-05
5.53755e-05
6.23941e-05
6.43052e-05
6.17058e-05
0.000121263
0.000514163
0.000499041
0.000117063
6.19269e-05
6.47293e-05
6.27279e-05
5.56577e-05
4.78234e-05
4.82434e-05
7.17392e-05
7.49999e-05
9.18717e-05
0.000102244
0.00013093
0.00017689
0.000232825
0.000268045
0.000266572
0.000212938
0.00023405
0.000452965
0.000443719
0.000229838
0.000214109
0.000267242
0.000267748
0.000232371
0.000176798
0.000131065
0.000102187
9.17052e-05
0.000112592
0.00013956
0.000164737
0.000190135
0.00021854
0.00024672
0.000275384
0.000307706
0.000353056
0.00041654
0.000413644
0.000350702
0.000306088
0.000274086
0.000245599
0.000217577
0.000189353
0.000164087
0.000139035
0.000112221
3.38839e-06
5.61743e-06
4.68939e-06
5.97052e-06
7.02725e-06
8.06682e-06
9.47354e-06
1.12385e-05
1.22503e-05
1.31409e-05
1.30863e-05
1.22527e-05
1.12592e-05
9.53464e-06
8.15777e-06
7.14431e-06
6.14019e-06
4.7891e-06
5.45849e-06
3.41236e-06
6.06135e-06
9.56076e-06
1.12774e-05
1.35465e-05
1.56035e-05
1.73545e-05
2.11898e-05
2.37032e-05
6.1765e-05
6.15601e-05
6.08589e-05
6.06471e-05
2.33533e-05
2.09894e-05
1.73161e-05
1.56763e-05
1.37137e-05
1.13379e-05
9.52152e-06
5.6697e-06
8.17473e-06
1.20822e-05
1.47956e-05
1.68192e-05
1.8195e-05
1.8816e-05
2.10249e-05
2.64094e-05
0.000133042
0.000110561
0.000109674
0.000130357
2.61271e-05
2.1022e-05
1.89258e-05
1.84134e-05
1.71346e-05
1.51233e-05
1.224e-05
8.04934e-06
9.14038e-06
1.56213e-05
1.85449e-05
2.01438e-05
2.09716e-05
2.09131e-05
2.24883e-05
3.39925e-05
0.000222339
0.00016823
0.000167614
0.000217139
3.33979e-05
2.26137e-05
2.1132e-05
2.12082e-05
2.0492e-05
1.89776e-05
1.59318e-05
9.01566e-06
1.34342e-05
1.45481e-05
1.77049e-05
2.06585e-05
2.26796e-05
2.33804e-05
2.5388e-05
4.82785e-05
0.000334265
0.000237715
0.000237842
0.000325428
4.70015e-05
2.54504e-05
2.346e-05
2.26548e-05
2.0535e-05
1.76154e-05
1.48007e-05
1.42677e-05
3.64483e-05
2.50258e-05
1.92902e-05
1.84545e-05
2.05074e-05
2.32757e-05
2.74392e-05
6.19911e-05
0.000440979
0.000315064
0.000316349
0.000428204
5.98498e-05
2.72953e-05
2.3149e-05
2.03201e-05
1.83476e-05
1.93675e-05
2.53931e-05
3.70566e-05
5.42085e-05
3.75198e-05
2.52767e-05
2.13645e-05
2.31573e-05
2.78798e-05
3.47078e-05
7.73318e-05
0.000510515
0.000391126
0.000394038
0.000495168
7.4974e-05
3.45926e-05
2.78197e-05
2.30714e-05
2.13442e-05
2.54049e-05
3.78585e-05
5.44109e-05
6.96417e-05
6.19041e-05
4.01133e-05
3.7975e-05
4.43967e-05
5.03358e-05
5.35651e-05
9.30171e-05
0.000514106
0.000437768
0.000442266
0.00049852
9.07792e-05
5.36554e-05
5.04562e-05
4.44312e-05
3.80091e-05
4.02234e-05
6.23884e-05
6.95393e-05
8.49518e-05
8.60729e-05
9.89376e-05
0.000137963
0.000181828
0.000197389
0.000179833
0.000234762
0.000452916
0.000460994
0.000464823
0.000442715
0.000230855
0.000179287
0.000197033
0.000180902
0.000137282
9.89173e-05
8.5835e-05
8.46184e-05
0.000105752
0.000132027
0.00015588
0.000182039
0.000212705
0.000244429
0.000281586
0.000337488
0.000416519
0.00043756
0.00044017
0.000413223
0.000334666
0.000279568
0.000242861
0.000211379
0.000180942
0.000155008
0.000131309
0.000105207
3.86697e-06
4.05114e-06
5.85594e-06
6.07179e-06
7.04531e-06
8.04878e-06
9.40767e-06
1.11202e-05
1.21488e-05
1.30878e-05
1.30887e-05
1.21999e-05
1.11948e-05
9.47092e-06
8.09746e-06
7.08468e-06
6.14461e-06
5.99187e-06
4.1642e-06
3.92368e-06
6.04154e-06
9.12664e-06
1.14141e-05
1.34728e-05
1.54329e-05
1.70156e-05
2.05684e-05
2.2879e-05
5.97556e-05
6.08548e-05
6.09119e-05
6.03444e-05
2.32144e-05
2.08378e-05
1.72053e-05
1.5595e-05
1.35292e-05
1.15373e-05
9.22808e-06
6.07672e-06
7.98081e-06
1.20397e-05
1.49291e-05
1.69976e-05
1.82699e-05
1.87412e-05
2.07223e-05
2.57503e-05
0.000129108
0.000109669
0.000109571
0.000129486
2.59214e-05
2.085e-05
1.88157e-05
1.83406e-05
1.70918e-05
1.507e-05
1.21842e-05
8.05943e-06
8.88772e-06
1.56104e-05
1.87265e-05
2.04257e-05
2.11962e-05
2.10842e-05
2.24379e-05
3.2986e-05
0.000215689
0.000167613
0.000167166
0.000215211
3.29689e-05
2.24069e-05
2.10206e-05
2.11261e-05
2.04331e-05
1.89053e-05
1.58496e-05
8.94465e-06
1.36829e-05
1.45632e-05
1.77739e-05
2.08177e-05
2.28408e-05
2.3537e-05
2.53675e-05
4.65068e-05
0.0003239
0.000237849
0.000236875
0.000321781
4.60417e-05
2.51538e-05
2.32811e-05
2.25018e-05
2.04045e-05
1.75234e-05
1.48373e-05
1.45632e-05
3.67787e-05
2.51914e-05
1.93354e-05
1.84293e-05
2.05293e-05
2.33678e-05
2.73944e-05
5.95447e-05
0.000427012
0.000316369
0.000314793
0.000422922
5.84877e-05
2.69522e-05
2.29608e-05
2.01792e-05
1.82601e-05
1.93856e-05
2.55486e-05
3.72595e-05
5.43519e-05
3.76956e-05
2.53211e-05
2.12781e-05
2.31004e-05
2.79616e-05
3.47542e-05
7.49609e-05
0.000494444
0.000394082
0.000391976
0.000488782
7.35211e-05
3.42609e-05
2.76374e-05
2.29355e-05
2.12764e-05
2.54452e-05
3.79821e-05
5.4431e-05
6.96283e-05
6.21397e-05
3.99951e-05
3.76003e-05
4.39813e-05
5.00488e-05
5.34187e-05
9.0925e-05
0.000498558
0.000442342
0.000440084
0.000491841
8.94245e-05
5.32958e-05
5.01264e-05
4.41019e-05
3.77629e-05
4.01442e-05
6.24831e-05
6.94121e-05
8.48022e-05
8.59083e-05
9.86885e-05
0.000136374
0.00017979
0.000195344
0.000178244
0.000231416
0.00044341
0.000464884
0.000462343
0.00043827
0.000228735
0.000178223
0.000195892
0.000179587
0.000136125
9.85288e-05
8.55444e-05
8.43546e-05
0.00010545
0.000131538
0.000155187
0.000181027
0.00021143
0.00024292
0.00027979
0.000335076
0.000413525
0.000440206
0.00043802
0.000410311
0.000332363
0.000277817
0.000241446
0.000210193
0.000179963
0.000154267
0.000130725
0.000104778
3.20607e-06
4.607e-06
5.17288e-06
6.77468e-06
7.68977e-06
8.44959e-06
9.23041e-06
1.02303e-05
1.09815e-05
1.22542e-05
1.22039e-05
1.09548e-05
1.02252e-05
9.22483e-06
8.44391e-06
7.68206e-06
6.7601e-06
5.2801e-06
4.9891e-06
3.20988e-06
5.77515e-06
9.73406e-06
1.22121e-05
1.42601e-05
1.51046e-05
1.57445e-05
1.69328e-05
1.92748e-05
2.14403e-05
6.06273e-05
6.03706e-05
2.14732e-05
1.93915e-05
1.70077e-05
1.57828e-05
1.51295e-05
1.42754e-05
1.22183e-05
9.84213e-06
5.77098e-06
7.38167e-06
1.37343e-05
1.76642e-05
1.93183e-05
1.94326e-05
1.8981e-05
1.89874e-05
2.04378e-05
2.78878e-05
0.000130301
0.000129528
2.78168e-05
2.04878e-05
1.90325e-05
1.90216e-05
1.95021e-05
1.94425e-05
1.78447e-05
1.39376e-05
7.42274e-06
9.3279e-06
1.66652e-05
2.13114e-05
2.34287e-05
2.36149e-05
2.26228e-05
2.17147e-05
2.25652e-05
3.97699e-05
0.000217017
0.000215263
3.94778e-05
2.2519e-05
2.16988e-05
2.26165e-05
2.36336e-05
2.34633e-05
2.13681e-05
1.67423e-05
9.5254e-06
1.59081e-05
1.62407e-05
1.9199e-05
2.19441e-05
2.35028e-05
2.384e-05
2.36852e-05
2.51975e-05
5.79116e-05
0.0003252
0.00032184
5.70186e-05
2.50058e-05
2.35403e-05
2.36607e-05
2.33001e-05
2.17561e-05
1.91329e-05
1.64542e-05
1.65001e-05
3.97734e-05
2.68442e-05
2.09696e-05
2.04449e-05
2.16775e-05
2.28212e-05
2.3665e-05
2.67829e-05
7.57482e-05
0.000427866
0.000422979
7.42742e-05
2.64614e-05
2.34509e-05
2.26241e-05
2.15296e-05
2.03961e-05
2.10594e-05
2.71135e-05
4.00641e-05
5.83595e-05
4.02154e-05
2.74526e-05
2.39495e-05
2.51036e-05
2.75925e-05
2.99734e-05
3.53571e-05
9.61929e-05
0.000494755
0.000488834
9.43066e-05
3.49118e-05
2.97202e-05
2.74344e-05
2.50678e-05
2.40209e-05
2.75947e-05
4.04223e-05
5.83568e-05
7.489e-05
7.13174e-05
4.78799e-05
4.73746e-05
5.52202e-05
6.23835e-05
6.44837e-05
6.18125e-05
0.000116932
0.000498096
0.000491882
0.000114951
6.15805e-05
6.439e-05
6.23036e-05
5.52381e-05
4.7486e-05
4.80146e-05
7.16033e-05
7.46702e-05
9.15951e-05
0.000101728
0.000130314
0.000176071
0.000231222
0.000266347
0.000265995
0.000213713
0.000229684
0.000442444
0.000438282
0.00022686
0.000214122
0.000266795
0.000266318
0.000230776
0.000175527
0.000130133
0.000101478
9.12017e-05
0.000112206
0.00013902
0.00016404
0.00018927
0.000217461
0.000245502
0.000274072
0.000306136
0.00035061
0.00041312
0.000410316
0.000348116
0.000304201
0.000272526
0.000244201
0.000216324
0.000188272
0.000163164
0.000138266
0.000111598
3.18242e-06
5.02856e-06
6.65829e-06
8.08823e-06
8.91204e-06
9.39799e-06
9.68607e-06
9.95621e-06
1.02856e-05
1.12603e-05
1.12006e-05
1.02265e-05
9.9108e-06
9.64745e-06
9.36987e-06
8.89621e-06
8.09621e-06
6.68295e-06
5.09668e-06
3.28596e-06
5.91853e-06
1.13203e-05
1.4536e-05
1.60465e-05
1.6462e-05
1.64455e-05
1.64627e-05
1.71878e-05
1.94963e-05
2.3348e-05
2.32284e-05
1.9398e-05
1.71452e-05
1.64222e-05
1.64142e-05
1.64515e-05
1.60642e-05
1.45353e-05
1.13487e-05
5.94555e-06
8.44085e-06
1.91377e-05
2.27166e-05
2.36739e-05
2.29772e-05
2.14388e-05
1.99184e-05
1.93687e-05
2.06245e-05
2.61206e-05
2.59323e-05