/*--------------------------------*- C++ -*----------------------------------*\
| =========                 |                                                 |
| \\      /  F ield         | OpenFOAM: The Open Source CFD Toolbox           |
|  \\    /   O peration     | Version:  v1912                                 |
|   \\  /    A nd           | Website:  www.openfoam.com                      |
|    \\/     M anipulation  |                                                 |
\*---------------------------------------------------------------------------*/
FoamFile
{
    version     2.0;
    format      ascii;
    class       volScalarField;
    location    "800";
    object      nut;
}
// * * * * * * * * * * * * * * * * * * * * * * * * * * * * * * * * * * * * * //

dimensions      [0 2 -1 0 0 0 0];


internalField   nonuniform List<scalar> 
4000
(
0.000388825
0.000369366
0.000342289
0.00028993
0.00013856
0.000116502
0.000103394
9.98749e-05
9.54531e-05
0.000145343
8.37241e-05
9.6341e-05
0.00010112
0.000107015
0.000118098
0.000139702
0.000296628
0.000345849
0.000371791
0.000390862
0.000408325
0.000386167
0.00034718
0.00030554
0.000256183
0.000181852
0.000136136
0.000133714
0.000131187
0.000174643
0.000114297
0.000130754
0.000135826
0.000137963
0.000183568
0.000257582
0.000308856
0.00034893
0.000387673
0.000410107
0.000420588
0.000402669
0.000365229
0.000321807
0.000287092
0.000250786
0.000216951
0.000162756
0.000159226
0.000168755
0.000157056
0.000150926
0.000162534
0.000217535
0.000251256
0.000287592
0.000322542
0.000366096
0.000403772
0.000422136
0.000428142
0.000415654
0.000385327
0.000344164
0.000305305
0.000270803
0.000239248
0.000205034
0.000169938
0.000170003
0.000168127
0.000171564
0.00020726
0.000240408
0.00027159
0.000306101
0.000344502
0.000386319
0.00041672
0.00042952
0.00043403
0.000428221
0.000409718
0.000382618
0.000353007
0.000317028
0.000284353
0.000250552
0.000220554
0.0002077
0.00020861
0.000223975
0.000255013
0.000287909
0.000320746
0.0003555
0.0003841
0.000410914
0.000429323
0.000435295
0.000439508
0.00044151
0.000434961
0.000423325
0.000410375
0.000396253
0.000381748
0.00036626
0.000352109
0.000339583
0.000340828
0.000354252
0.000368658
0.000384012
0.000398362
0.000412236
0.000424893
0.000436326
0.000442766
0.000440701
0.000445643
0.000455735
0.000460265
0.000460778
0.000459309
0.00045527
0.000448841
0.000439773
0.000428346
0.000413484
0.000414016
0.000428996
0.000440739
0.000449992
0.000456557
0.000460671
0.000462156
0.000461613
0.000457031
0.00044677
0.000452888
0.000471193
0.000485124
0.000494451
0.000500635
0.000503117
0.000502043
0.00049664
0.000486162
0.000468555
0.00046853
0.000485936
0.000496797
0.000502543
0.000503923
0.00050168
0.000495656
0.000486403
0.000472473
0.000453944
0.000462248
0.000490008
0.000512332
0.00052875
0.00054085
0.000548123
0.000550933
0.000548214
0.000538124
0.000517457
0.000517045
0.00053739
0.000547963
0.000551148
0.000548719
0.000541737
0.000529836
0.000513529
0.000491217
0.000463225
0.000475986
0.000512365
0.000541426
0.000562678
0.000579042
0.000590928
0.00059846
0.00060076
0.000595704
0.000577315
0.000576554
0.000594767
0.000600263
0.00059837
0.000591182
0.000579584
0.000563453
0.000542369
0.000513384
0.000476851
0.000369386
0.000366469
0.000335362
0.000283389
0.000164983
0.000160329
0.000136675
0.000125977
0.000175504
7.18057e-05
0.0001706
0.000103631
0.000121399
0.000146135
0.00016274
0.00016638
0.000293773
0.000341247
0.000371082
0.000372605
0.000386206
0.000564462
0.000485736
0.000380515
0.000345788
0.000340132
0.000319354
0.000296134
0.000324576
0.000359736
0.00035832
0.000316501
0.000299063
0.000325634
0.000342263
0.000348278
0.000390208
0.000496708
0.000562772
0.000389263
0.000402706
0.00062819
0.000668446
0.000538606
0.00044372
0.000396571
0.000371143
0.000346972
0.00034555
0.000407372
0.000397907
0.000341171
0.000348716
0.000373503
0.000398469
0.000447503
0.000545053
0.000673152
0.000625987
0.000405376
0.000415683
0.000614703
0.000640785
0.000573465
0.000481423
0.000416752
0.000371974
0.0003413
0.000341724
0.000413084
0.000405681
0.00033799
0.000342969
0.000374711
0.000420318
0.000486316
0.000579356
0.000645167
0.000617037
0.000418026
0.00042824
0.000622195
0.000643704
0.000575995
0.000482245
0.000410899
0.000361184
0.000319794
0.000293271
0.000307774
0.00030485
0.000292765
0.000322269
0.000364426
0.000414709
0.000486155
0.000579873
0.000648389
0.000626128
0.000430238
0.000441516
0.000639055
0.000669811
0.000629176
0.000543543
0.000449787
0.000394572
0.000348833
0.000318321
0.000311338
0.000312149
0.000320681
0.000351686
0.000397021
0.000451855
0.000545658
0.000632503
0.000674105
0.000643146
0.00044318
0.000455734
0.00065364
0.000696069
0.000695082
0.000661127
0.000591961
0.000504659
0.000442986
0.000407886
0.00039042
0.000392002
0.000410389
0.000445563
0.000508935
0.000596266
0.000664659
0.000698804
0.00070003
0.000657577
0.000457092
0.000471188
0.000660216
0.000714114
0.000756299
0.000788841
0.000795234
0.000777493
0.000729238
0.000664407
0.000595624
0.000598114
0.000667355
0.000733227
0.000780304
0.000798685
0.000793015
0.000760822
0.000717987
0.000663926
0.000472326
0.000490002
0.000643413
0.000719893
0.000777215
0.000817302
0.000830068
0.000825901
0.000800099
0.000742457
0.000650306
0.000649959
0.00074003
0.000799618
0.000827189
0.000832671
0.000820696
0.000780877
0.000723327
0.000646395
0.000490976
0.000512357
0.000552831
0.000586497
0.000612504
0.000633725
0.000650234
0.000661858
0.000667097
0.000663198
0.000645036
0.000643923
0.000662012
0.000666394
0.00066161
0.000650376
0.000634186
0.000613204
0.000587344
0.000553708
0.00051303
0.000342324
0.000335403
0.000303425
0.000211411
0.000180346
0.000189182
0.00016109
0.000135445
0.000101771
0.000179358
8.84503e-05
0.000166283
0.000139686
0.00016654
0.000187545
0.000174833
0.000244182
0.000313749
0.00034126
0.000346537
0.000347288
0.000485782
0.000425378
0.000373257
0.000400218
0.000400802
0.000373142
0.000360096
0.000376892
0.000431768
0.000413632
0.000376441
0.000364051
0.000375942
0.00039925
0.000391002
0.00036902
0.000441007
0.000501126
0.000351286
0.000365333
0.000668567
0.000658037
0.000558614
0.000496427
0.000466578
0.00045145
0.000430386
0.000426894
0.000477647
0.000467237
0.000425087
0.000430162
0.000450016
0.000464067
0.000494801
0.000562264
0.000673301
0.000677439
0.000369316
0.000385406
0.000640847
0.000704119
0.00064384
0.000561328
0.000500573
0.000460056
0.000437376
0.000447389
0.000497013
0.000490349
0.000443682
0.000438339
0.00046267
0.000504745
0.000568147
0.000654979
0.000716541
0.00064869
0.000388925
0.000409759
0.000643768
0.000698053
0.000648595
0.000560536
0.000489418
0.000439117
0.000402658
0.000389314
0.000431344
0.000429868
0.000388466
0.000404514
0.000442235
0.000493552
0.000565905
0.000655886
0.000707661
0.000652133
0.000412497
0.000434975
0.000669863
0.000733357
0.000695511
0.000593925
0.000493356
0.000424739
0.000372168
0.000334791
0.00032931
0.000329138
0.000334801
0.000373196
0.000426303
0.000495219
0.000596452
0.000700287
0.000741144
0.000677436
0.000437145
0.000460264
0.000696114
0.000775979
0.000764386
0.000679488
0.000572228
0.000481045
0.000414768
0.000369951
0.000349391
0.0003498
0.000370289
0.00041557
0.000482776
0.000574333
0.00068177
0.000768669
0.000782904
0.000702995
0.00046186
0.000485116
0.000714148
0.000823711
0.000866379
0.000846562
0.000779865
0.00071363
0.000647888
0.000580608
0.000508603
0.000508074
0.00058034
0.000649735
0.000715875
0.000782782
0.000849972
0.000871284
0.000830577
0.000720442
0.000486328
0.000512322
0.000719911
0.000897912
0.00104853
0.00114142
0.00116219
0.00115666
0.00112438
0.00104286
0.000876296
0.000875405
0.00103825
0.00112364
0.0011589
0.00116637
0.00114683
0.00105458
0.000904067
0.00072487
0.000513326
0.000541413
0.00058649
0.000624217
0.000654351
0.000679724
0.000700145
0.000715315
0.000723216
0.000720523
0.000700866
0.000699404
0.000719106
0.000722324
0.000714903
0.000700152
0.000680068
0.000654937
0.000624941
0.000587229
0.000541964
0.000289969
0.000283638
0.000209885
0.000186296
0.000201707
0.000193427
0.000174164
0.000158644
0.000140446
0.000139968
0.000139984
0.000148931
0.000160603
0.000175753
0.000193865
0.000198894
0.00018529
0.000243761
0.000293926
0.000298269
0.00030569
0.000380617
0.000374082
0.000409932
0.000440464
0.000425707
0.000407462
0.000404175
0.000426449
0.000479109
0.000468012
0.000423025
0.000405742
0.000407524
0.000420841
0.000428766
0.000390801
0.000369519
0.000392307
0.000310843
0.000321942
0.000538766
0.000558882
0.000532005
0.000512748
0.000505999
0.000497551
0.000478601
0.00048388
0.000533934
0.000523127
0.000478608
0.000476746
0.000493464
0.000500512
0.000507189
0.000528696
0.000564526
0.00055082
0.000325376
0.000344346
0.000573587
0.000643898
0.000622185
0.000576729
0.000538589
0.000512677
0.000501125
0.000512616
0.000552664
0.000547629
0.000509172
0.000501375
0.000514842
0.000542384
0.000583114
0.000632327
0.000658628
0.000586076
0.000347934
0.000382706
0.000576133
0.000648682
0.000638422
0.000588099
0.000537348
0.000497939
0.000471306
0.000470673
0.000528226
0.000527906
0.000470857
0.000473625
0.000501823
0.000542721
0.000595344
0.000648257
0.000661114
0.000587796
0.000386177
0.000423354
0.000629294
0.000695613
0.000684708
0.00062043
0.000543634
0.000481837
0.000433696
0.000400593
0.000401464
0.000401144
0.000400231
0.000434944
0.000484517
0.000547714
0.00062621
0.000692858
0.000706685
0.00064007
0.000425923
0.000460778
0.000695163
0.000764487
0.000764046
0.00070271
0.000609769
0.000525473
0.000458181
0.000405611
0.000379088
0.000378368
0.000404973
0.000459139
0.000528036
0.000613784
0.000708445
0.000772057
0.000775249
0.000704571
0.000462486
0.000494441
0.000756331
0.000866459
0.000912932
0.000892114
0.000820937
0.000745715
0.000673595
0.000598102
0.000519531
0.000517347
0.000596881
0.0006749
0.000749008
0.000826014
0.000899324
0.000922855
0.00087709
0.000764025
0.000495635
0.000528737
0.000777239
0.00104856
0.00128388
0.00138354
0.00139838
0.00139098
0.00134735
0.00123461
0.00104298
0.00103674
0.00123093
0.00134779
0.00139441
0.00140446
0.0013913
0.001293
0.00105751
0.000783458
0.000529689
0.000562661
0.000612492
0.000654346
0.000688817
0.000719027
0.000744353
0.000763755
0.000774891
0.000774062
0.000757383
0.000755393
0.00077242
0.000773799
0.000763148
0.000744188
0.000719217
0.000689252
0.000654899
0.000613041
0.000563055
0.000137769
0.000164539
0.000179052
0.00020126
0.000201309
0.000191564
0.00017852
0.00016587
0.000154227
0.000149465
0.000150688
0.000155805
0.000167755
0.000180142
0.000192539
0.000201409
0.000199217
0.000175302
0.000166622
0.000140472
0.000256048
0.000345759
0.000400813
0.000440617
0.000446723
0.000438424
0.000430103
0.000431644
0.000461326
0.00053061
0.0005162
0.000454085
0.000431632
0.000429578
0.000433492
0.000438122
0.000429515
0.000392358
0.000349757
0.000259814
0.000287192
0.000443835
0.000496724
0.000512857
0.000521728
0.000527389
0.000519184
0.000503077
0.000516187
0.000585147
0.000572433
0.000509702
0.000501193
0.000514931
0.000521337
0.000515931
0.0005081
0.000497192
0.00045146
0.000290156
0.000305485
0.000481544
0.000561435
0.000576774
0.000566261
0.000552347
0.000542351
0.000538503
0.000548733
0.000599452
0.000592337
0.000545564
0.000538533
0.000544249
0.00055548
0.000571471
0.000584425
0.000571758
0.000491336
0.000309011
0.000353151
0.000482397
0.000560648
0.000588146
0.000577403
0.000553841
0.000531244
0.000517171
0.000529248
0.000592647
0.000591161
0.00052972
0.000520076
0.000535833
0.000560005
0.000585257
0.000597647
0.000571517
0.000492926
0.000357696
0.000410435
0.000543715
0.000594087
0.000620512
0.000604962
0.000565278
0.00052373
0.000489276
0.000471958
0.000496382
0.000497451
0.000473089
0.000492314
0.000528705
0.000572248
0.000613896
0.000631205
0.000606244
0.000555422
0.000413274
0.000459315
0.000661245
0.000679673
0.000702829
0.000689004
0.000636489
0.000574245
0.000517728
0.000473587
0.000463439
0.000464092
0.000474732
0.00052106
0.000579947
0.000644729
0.000699943
0.000715993
0.000693572
0.000672267
0.000461031
0.000500623
0.000788879
0.00084674
0.000892236
0.000890763
0.000841409
0.000779254
0.000714255
0.000639658
0.000560865
0.00055908
0.00063951
0.000717055
0.00078528
0.000850312
0.000902766
0.000907061
0.000861619
0.000797542
0.00050171
0.000540835
0.000817328
0.00114149
0.0013836
0.00149915
0.00156399
0.00159128
0.00156132
0.00142971
0.00119513
0.00118784
0.00142408
0.00155951
0.00159406
0.0015708
0.00150905
0.0013954
0.00115217
0.000823942
0.000541649
0.000579024
0.000633711
0.000679716
0.000719023
0.000755528
0.000786482
0.000810964
0.000826592
0.000829864
0.000818691
0.000816365
0.000827944
0.000825218
0.000810052
0.000786012
0.000755469
0.000719223
0.000680012
0.000634003
0.000579219
0.000115964
0.000160554
0.000184841
0.000192492
0.00019148
0.000186522
0.000178955
0.00017003
0.000161893
0.000159546
0.000159851
0.000163055
0.000172101
0.000180921
0.000188214
0.000192992
0.000194603
0.00018776
0.00016207
0.000117881
0.0001845
0.000340333
0.000400971
0.000425809
0.000438456
0.000442897
0.000444173
0.00045202
0.000489118
0.000563916
0.000548943
0.000479399
0.000450486
0.000443792
0.000440892
0.000434399
0.000423076
0.000402597
0.00034613
0.000189169
0.000251044
0.000396684
0.000466771
0.000506092
0.000527437
0.000532298
0.000522514
0.000512866
0.000536085
0.000604798
0.000592023
0.000528462
0.000511569
0.000520262
0.000527588
0.000522109
0.000501711
0.00046603
0.000400902
0.000253448
0.000270932
0.000416854
0.000500677
0.000538648
0.000552372
0.000556323
0.000556218
0.000553517
0.000564012
0.000610646
0.000604962
0.000561395
0.000553947
0.000557779
0.000558967
0.000556055
0.000543744
0.000507194
0.00042318
0.000273363
0.000317175
0.000411016
0.000489518
0.000537405
0.000553861
0.000552744
0.000545785
0.000543641
0.00056511
0.000617186
0.000616308
0.000565546
0.000546834
0.000550523
0.00055864
0.000560686
0.000544727
0.000496871
0.000417885
0.000322889
0.000396329
0.000449925
0.000493491
0.00054373
0.000565316
0.000559488
0.000541492
0.000524818
0.000527224
0.000569944
0.000572101
0.000529849
0.00052946
0.00054796
0.000567457
0.000574176
0.000552626
0.000501729
0.000456674
0.000399261
0.000455288
0.000592135
0.000572411
0.000609927
0.000636564
0.000625921
0.000592693
0.000555751
0.000532475
0.000551748
0.000554574
0.000536261
0.000561759
0.000601132
0.000636667
0.000649069
0.000623001
0.000584813
0.00060428
0.000456915
0.000503102
0.000795272
0.000780022
0.000821095
0.000841486
0.000825095
0.000789149
0.00073903
0.000669404
0.000595285
0.000595241
0.00067116
0.000743452
0.000796881
0.000836269
0.000855024
0.000835785
0.000792903
0.000803992
0.00050399
0.000548107
0.000830081
0.00116224
0.00139844
0.00156402
0.00167435
0.0017283
0.0016924
0.00151164
0.00118437
0.00117775
0.00150657
0.00168983
0.00172847
0.00167869
0.00157266
0.00140892
0.00117137
0.000835571
0.000548656
0.00059091
0.000650219
0.000700134
0.000744345
0.000786479
0.000822896
0.000852547
0.000873102
0.000881757
0.00087764
0.000875064
0.000879711
0.000871545
0.000851352
0.000822031
0.000786019
0.000744175
0.000700061
0.000650183
0.000590865
0.000107528
0.000144958
0.000157419
0.000171296
0.000178057
0.00017896
0.000176587
0.000172689
0.000169451
0.000172771
0.000172361
0.000170511
0.000174731
0.00017876
0.00018119
0.000180714
0.000176122
0.000166286
0.000147866
0.000108104
0.000140492
0.000319269
0.000373021
0.000407465
0.000430085
0.00044417
0.000454637
0.00047275
0.000518976
0.000589628
0.000577111
0.000507793
0.000469577
0.000454366
0.000444652
0.000431069
0.000409844
0.000379401
0.000330002
0.00013999
0.000217386
0.000371315
0.000451586
0.000497626
0.000519253
0.000522545
0.000517651
0.00052001
0.000550535
0.000573814
0.000568221
0.000542918
0.000518573
0.000517586
0.000521445
0.000517041
0.000495986
0.000452612
0.000375733
0.000219221
0.000239287
0.000372058
0.00046014
0.000512734
0.000542391
0.00055624
0.00055763
0.000554512
0.000565655
0.000542326
0.000545784
0.000564429
0.000555804
0.0005596
0.000558599
0.00054541
0.000516308
0.00046452
0.000376566
0.000241616
0.000284306
0.000361258
0.000439207
0.000497999
0.000531275
0.000545798
0.000550798
0.000557725
0.000576212
0.000534401
0.000541085
0.000577817
0.000560911
0.000555285
0.000550868
0.000536522
0.000503033
0.000443893
0.000366103
0.000289729
0.00038176
0.000394681
0.000424835
0.00048192
0.000523779
0.00054151
0.00054363
0.000543864
0.000554408
0.000515557
0.000522297
0.000558325
0.000549003
0.000550114
0.00054857
0.000530525
0.000487707
0.000429809
0.000399567
0.000384791
0.000448883
0.000504825
0.000481189
0.000525612
0.000574339
0.000592731
0.000584993
0.000570043
0.000567241
0.000552225
0.000557907
0.000572658
0.000577287
0.000594107
0.000603011
0.000584714
0.000535041
0.000489548
0.000514416
0.000450355
0.000502026
0.00077754
0.00071373
0.000745843
0.000779342
0.000789186
0.000774697
0.000734382
0.000667373
0.000592416
0.000594256
0.000670693
0.000739387
0.000781963
0.000799016
0.000790456
0.000756769
0.000723106
0.000786114
0.00050269
0.000550917
0.000825907
0.00115669
0.00139101
0.00159129
0.00172831
0.00178444
0.00170853
0.00143159
0.000959992
0.000956254
0.00143116
0.00170781
0.00178358
0.00172953
0.00159587
0.0013975
0.0011629
0.00082993
0.000551166
0.000598444
0.000661844
0.000715304
0.000763746
0.000810958
0.000852544
0.000887569
0.000914215
0.000931596
0.00094203
0.000939169
0.000929504
0.000912545
0.000886163
0.000851368
0.00081008
0.000763132
0.000714816
0.000661453
0.000598138
0.000107857
0.000126944
0.000147008
0.000154113
0.000164951
0.000170054
0.000172761
0.000175358
0.000178905
0.000188177
0.000187277
0.000179563
0.000177159
0.000174969
0.000172571
0.000168335
0.000160303
0.000137265
0.000127436
0.000105616
0.000140716
0.000296373
0.000360847
0.000404397
0.000431708
0.000452071
0.000472804
0.000503237
0.000530993
0.000467961
0.000460542
0.000521756
0.000498283
0.000471433
0.000452977
0.0004344
0.000408625
0.000365608
0.000301708
0.000137888
0.000163163
0.000347431
0.000430802
0.000478762
0.000503175
0.000512925
0.000520051
0.000535273
0.000510428
0.000339816
0.000338792
0.000509749
0.000533476
0.000520442
0.000514333
0.000504697
0.000480689
0.00043396
0.000351207
0.00016497
0.000206826
0.000341777
0.000437567
0.00050123
0.000538581
0.00055357
0.000554542
0.000552239
0.000482316
0.000307423
0.000307227
0.000490521
0.000554915
0.000557287
0.00055615
0.000540951
0.000503572
0.000440207
0.000344502
0.000208541
0.000251975
0.000320348
0.00040289
0.000471411
0.000517221
0.000543667
0.000557741
0.000561057
0.000467545
0.000341534
0.000337165
0.000477998
0.00056546
0.000561587
0.000547486
0.000520632
0.000474232
0.000405388
0.000323678
0.000257149
0.000366292
0.000348986
0.000372272
0.000433781
0.000489329
0.000524843
0.000543874
0.000548515
0.000443914
0.000383084
0.000375782
0.000453689
0.000554243
0.000549209
0.000529901
0.000493394
0.000436813
0.000375288
0.000353256
0.00036932
0.000439861
0.000443105
0.000414878
0.000458299
0.000517819
0.000555802
0.000570063
0.000573616
0.000502222
0.000455874
0.00045056
0.000510911
0.000580868
0.000578007
0.000563795
0.000524838
0.000463896
0.0004196
0.000448539
0.000441128
0.000496641
0.000729336
0.000647987
0.000673702
0.000714339
0.000739078
0.000734404
0.000694696
0.000622815
0.000566565
0.000562928
0.000627156
0.00069995
0.000740515
0.000746124
0.000721688
0.000680664
0.000654743
0.000739174
0.000497056
0.000548205
0.000800118
0.00112442
0.00134738
0.00156135
0.00169243
0.00170855
0.00153078
0.0011316
0.000963393
0.000956143
0.00113706
0.00153509
0.00170966
0.00169268
0.00156267
0.00135058
0.00112806
0.000802971
0.000548132
0.000600749
0.000667088
0.000723209
0.000774885
0.000826587
0.000873098
0.000914213
0.000950033
0.000984776
0.00103135
0.00102783
0.0009824
0.000948154
0.000912556
0.000871612
0.000825301
0.000773831
0.0007223
0.00066632
0.000600153
0.000118629
8.87009e-05
0.000174287
0.000146666
0.000153798
0.000161728
0.00016948
0.000178936
0.000185667
0.000196491
0.000195723
0.000186054
0.000180064
0.000171169
0.000163815
0.000156391
0.000148673
0.000174716
9.40858e-05
0.00010753
0.000145447
0.000318191
0.000381656
0.000427357
0.000461573
0.000489272
0.000519148
0.000531114
0.000414671
0.000456278
0.000448902
0.000410925
0.000525931
0.000513847
0.000485559
0.000459921
0.000427512
0.000380758
0.000317381
0.00013688
0.000153344
0.000346082
0.0004278
0.000484157
0.000516319
0.000536212
0.000550677
0.000510515
0.000319592
0.000566532
0.000554122
0.000320052
0.000512963
0.00054858
0.000534243
0.000515373
0.000484168
0.000429843
0.000345136
0.000151972
0.000168462
0.000342382
0.000447729
0.000512777
0.000548839
0.000564097
0.00056574
0.00048236
0.000319821
0.000773926
0.000755755
0.000318595
0.000492327
0.000568162
0.000565116
0.00054933
0.000512745
0.000446976
0.000340389
0.00017245
0.00022198
0.000294357
0.000389878
0.000470888
0.000529328
0.000565154
0.000576259
0.00046757
0.000372066
0.00102939
0.00100426
0.000365019
0.000479128
0.000579666
0.000566236
0.000529163
0.000469529
0.000387876
0.000294133
0.000226141
0.000351966
0.000318569
0.000334976
0.000400705
0.000472017
0.000527249
0.000554428
0.00044393
0.000429722
0.0012695
0.00123835
0.000417126
0.000454137
0.000558333
0.000528858
0.000472153
0.000400271
0.000335734
0.000321754
0.000354867
0.000428396
0.00040801
0.000370057
0.000405723
0.000473674
0.000532524
0.000567268
0.000502238
0.000516883
0.00143373
0.00139997
0.000504252
0.000511121
0.000572899
0.000537006
0.00047687
0.000408081
0.00037286
0.000412237
0.000429444
0.000486179
0.000664517
0.000580707
0.000598207
0.000639745
0.000669465
0.000667412
0.000622837
0.000653876
0.00150934
0.00147695
0.000643793
0.000628146
0.000672559
0.000674322
0.00064424
0.000602555
0.000585877
0.000673125
0.000486269
0.000538128
0.000742513
0.00104297
0.00123471
0.00142981
0.00151174
0.00143169
0.00113167
0.00101924
0.0014592
0.00143781
0.00100961
0.00114008
0.00143659
0.001513
0.00143008
0.00123605
0.00104479
0.000744256
0.000537665
0.000595703
0.0006632
0.000720527
0.000774065
0.000829866
0.000881757
0.000931592
0.00098477
0.00105486
0.0011458
0.00114185
0.00105138
0.000982212
0.000929423
0.000879778
0.000828061
0.000772495
0.000719127
0.000661979
0.000594748
7.40402e-05
0.000204643
8.74521e-05
0.000133159
0.000148395
0.000159639
0.000172946
0.000188274
0.000196537
0.000203547
0.000203137
0.000196561
0.00018844
0.000173471
0.000160604
0.000150419
0.000137519
8.64983e-05
0.000195035
8.35762e-05
0.00013409
0.00036963
0.000423484
0.000479741
0.000530745
0.000564061
0.000589802
0.000468078
0.000456373
0.000303359
0.000301611
0.000452914
0.00046641
0.000584639
0.00055706
0.000524363
0.000474945
0.000418438
0.000361996
0.000119678
0.000161036
0.000407573
0.000477683
0.000534244
0.000585302
0.000604947
0.000573963
0.000339892
0.000566629
0.000441693
0.000439041
0.000559105
0.00034212
0.000574097
0.00059909
0.00057926
0.000529266
0.000472819
0.000401774
0.000157719
0.000172769
0.000413935
0.000497253
0.000552806
0.00059956
0.000610752
0.000542431
0.000307476
0.000773999
0.000589414
0.000586751
0.000760815
0.000309222
0.000547994
0.000607959
0.000594573
0.000549756
0.000494354
0.000409427
0.00016901
0.000213302
0.00031105
0.000432576
0.000528531
0.000592732
0.000617246
0.000534473
0.000341569
0.00102942
0.000757353
0.000755437
0.00100904
0.000339256
0.000540691
0.000614691
0.000586836
0.000519797
0.000421698
0.000303595
0.000213316
0.000339553
0.000311995
0.000329709
0.000401611
0.000496427
0.000569951
0.000515595
0.000383066
0.00126946
0.000940581
0.00094
0.00124183
0.000376669
0.00051968
0.000566148
0.000489797
0.000395631
0.000326887
0.00031331
0.000342019
0.000413535
0.000390643
0.000349544
0.000379182
0.000463481
0.000551752
0.00055225
0.000455833
0.00143366
0.00112274
0.00112427
0.00140235
0.000450082
0.000556117
0.000551351
0.000461855
0.000378191
0.00035072
0.000393964
0.000414248
0.000468582
0.00059575
0.000508715
0.000519631
0.000560939
0.000595335
0.000592458
0.000566526
0.00150924
0.00125706
0.00126081
0.00147743
0.000562565
0.000596251
0.000598161
0.000563135
0.000522092
0.000512675
0.000602799
0.000468237
0.000517466
0.000650354
0.000876423
0.00104318
0.00119533
0.00118461
0.000960196
0.000963355
0.0014591
0.001353
0.00135576
0.00143623
0.000954853
0.00096408
0.00118725
0.00119435
0.00104248
0.000878559
0.000651118
0.000516473
0.000577323
0.000645049
0.000700888
0.0007574
0.000818703
0.000877645
0.000942023
0.00103133
0.00114577
0.00117442
0.00117795
0.00114128
0.00102706
0.000938675
0.000874852
0.000816171
0.000755136
0.000698947
0.00064332
0.000575864
0.000141128
7.98709e-05
0.000181258
0.000136756
0.000148653
0.000159311
0.000172264
0.000187266
0.000195728
0.000203145
0.000203157
0.000196132
0.000187865
0.000172743
0.000159553
0.000148895
0.000139963
0.000191181
7.78282e-05
0.000139362
0.000159256
0.000347614
0.000420039
0.000467287
0.000515898
0.000548708
0.00057697
0.000460499
0.000448856
0.000301634
0.000302323
0.00045212
0.000465057
0.000582159
0.00055435
0.000521794
0.000471689
0.000424353
0.000348825
0.000154651
0.000161926
0.000398262
0.000467847
0.000523061
0.000572233
0.000591846
0.00056823
0.000338869
0.000553934
0.000439055
0.000439605
0.000556449
0.000340949
0.000571767
0.000595721
0.000576235
0.00052682
0.000471131
0.000399259
0.000161346
0.000167958
0.000405585
0.000490346
0.000547603
0.000592236
0.000604912
0.000545977
0.000307297
0.000755372
0.000586762
0.000586703
0.000755444
0.000307336
0.000546561
0.000604649
0.000591413
0.00054743
0.000491927
0.000406685
0.000167652
0.000209435
0.00030554
0.000430312
0.000528006
0.000591155
0.000616329
0.00054133
0.000337089
0.00100362
0.000755452
0.00075441
0.00099961
0.000334807
0.00053947
0.000611435
0.000583928
0.000517695
0.000419853
0.000301882
0.000214036
0.000340758
0.00031233
0.000329205
0.000401144
0.000497467
0.000572137
0.000522487
0.000375563
0.00123745
0.000940023
0.000937836
0.0012288
0.000370532
0.000518319
0.000563501
0.000487516
0.000393766
0.000326166
0.000314139
0.000342854
0.000414039
0.000392115
0.000349858
0.000378373
0.000464098
0.000554606
0.000558022
0.000450341
0.00139895
0.00112432
0.00112118
0.00138694
0.000444204
0.0005545
0.000549353
0.000460064
0.000376991
0.000350934
0.000395131
0.000414308
0.000468535
0.000598265
0.000508129
0.000517332
0.000559028
0.000595198
0.000594251
0.000562715
0.00147592
0.00126091
0.00125739
0.00146114
0.000557728
0.000594231
0.000596116
0.000561076
0.000520545
0.00051231
0.000604003
0.000467804
0.000517022
0.000649969
0.000875458
0.00103667
0.00118772
0.00117769
0.000956256
0.000955827
0.00143711
0.00135582
0.00135172
0.00142533
0.000949047
0.000961768
0.00118415
0.00119
0.00103826
0.000877205
0.000649915
0.000515669
0.000576518
0.000643878
0.000699355
0.000755323
0.000816278
0.000874963
0.00093905
0.00102768
0.00114169
0.00117799
0.00117502
0.00113728
0.00102354
0.000935754
0.000872318
0.000813894
0.000753106
0.000697283
0.000641897
0.000574695
0.000103534
0.000133847
0.00010314
0.000145011
0.000156251
0.00016349
0.000170671
0.000179613
0.000186078
0.00019656
0.000196176
0.000185856
0.00017957
0.000170586
0.000163272
0.000155727
0.00014417
0.000108103
0.000158451
9.24493e-05
0.000138236
0.00031808
0.000373477
0.000422686
0.000453875
0.000479263
0.000507659
0.000521655
0.000410901
0.000452877
0.00045224
0.000411696
0.000524184
0.000510746
0.000482383
0.000456969
0.000425267
0.00037588
0.00032025
0.000133625
0.000155455
0.000341718
0.000424816
0.00047851
0.000509604
0.000528371
0.000542844
0.000509812
0.000320099
0.000558953
0.000556612
0.000320088
0.000511369
0.000545125
0.000530912
0.00051248
0.000481693
0.000427828
0.000343592
0.000154084
0.000172154
0.000338145
0.000443685
0.000509151
0.000545548
0.000561392
0.000564462
0.000490758
0.000318582
0.000760506
0.000755628
0.000317244
0.000490953
0.000564669
0.000561687
0.000546119
0.000509744
0.00044439
0.000338474
0.000173345
0.000225811
0.000293458
0.000388709
0.00047094
0.000529752
0.00056557
0.000577877
0.000478269
0.000364827
0.00100851
0.000999804
0.000360821
0.000477155
0.000575428
0.000562261
0.00052592
0.000467083
0.000385934
0.000293189
0.000228186
0.00035435
0.00032088
0.000334864
0.000400255
0.000473121
0.0005299
0.000558405
0.000453921
0.000416761
0.00124108
0.00122898
0.000410581
0.000452451
0.000554884
0.000525815
0.00046947
0.000397859
0.000334465
0.000322632
0.000355513
0.000429016
0.000410492
0.000370321
0.000404972
0.000474747
0.000536314
0.000572739
0.000511064
0.000503848
0.00140148
0.00138712
0.000496547
0.000508919
0.000569677
0.000534096
0.000474088
0.000405913
0.000372402
0.000413166
0.000428981
0.000485915
0.000667445
0.000580349
0.000596823
0.000639425
0.000671088
0.000670655
0.000627162
0.000643422
0.00147653
0.00146128
0.000636757
0.000626106
0.00066985
0.000671255
0.000641088
0.000599914
0.000584367
0.000672922
0.0004852
0.000537341
0.000739933
0.00103808
0.00123074
0.00142377
0.0015063
0.00143108
0.00113721
0.00100925
0.00143562
0.00142538
0.0010028
0.00114353
0.00143646
0.0015089
0.00142465
0.00123093
0.00103919
0.000740677
0.000536194
0.000594707
0.000661945
0.000719031
0.000772333
0.000827847
0.00087961
0.000929402
0.000982288
0.00105124
0.00114114
0.00113728
0.00104752
0.000979197
0.00092679
0.000877287
0.00082569
0.000770302
0.000717118
0.000660156
0.000593107
9.75917e-05
0.000126753
0.0001465
0.000159608
0.000167791
0.000172196
0.000174769
0.000177183
0.000180092
0.000188409
0.000187956
0.000179574
0.000176789
0.000174415
0.000171868
0.000167431
0.000160272
0.000146968
0.000127658
0.000100364
0.00013768
0.000299523
0.000364771
0.000405741
0.000431561
0.000450434
0.000469506
0.000498178
0.00052581
0.00046638
0.000465208
0.000524297
0.000497781
0.000469617
0.000450928
0.000432456
0.000407027
0.000365227
0.000300488
0.000135762
0.000164991
0.000349314
0.000430313
0.0004767
0.000501151
0.000511546
0.000518547
0.00053343
0.000512985
0.000342158
0.00034102
0.000511435
0.000532759
0.00051874
0.000512506
0.000502871
0.000478919
0.000432354
0.000349567
0.000166268
0.000207939
0.000343135
0.000438396
0.000501398
0.000538546
0.000553963
0.000555832
0.000554957
0.000492513