/*--------------------------------*- C++ -*----------------------------------*\
| =========                 |                                                 |
| \\      /  F ield         | OpenFOAM: The Open Source CFD Toolbox           |
|  \\    /   O peration     | Version:  v1912                                 |
|   \\  /    A nd           | Website:  www.openfoam.com                      |
|    \\/     M anipulation  |                                                 |
\*---------------------------------------------------------------------------*/
FoamFile
{
    version     2.0;
    format      ascii;
    class       surfaceScalarField;
    location    "800";
    object      phi;
}
// * * * * * * * * * * * * * * * * * * * * * * * * * * * * * * * * * * * * * //

dimensions      [0 3 -1 0 0 0 0];
oriented        oriented;


internalField   nonuniform List<scalar> 
11200
(
0.00369625
-0.00739804
0.00369527
0.00476739
-0.00398753
0.00291651
0.00295641
-3.42687e-05
0.00184553
-0.000465687
0.00252879
0.000893835
-0.00138039
0.000752703
0.000162817
-0.00114502
-0.000207327
-2.71384e-05
-0.000841321
-0.00025283
-5.08842e-05
-0.000609341
-0.000190054
-4.66966e-05
-0.000474523
-1.19485e-05
-0.000123737
0.000329591
-0.000838578
3.5222e-05
0.00035708
0.000182101
-0.000220321
0.000637232
-0.000219112
-5.59022e-05
0.000890863
-0.000208009
-5.0098e-05
0.00121648
-0.000265336
-5.79254e-05
0.00141928
-0.000196197
-6.54482e-06
0.000416652
0.000798143
0.000204935
-0.00320167
0.00249839
0.00112004
-0.00496022
-0.000230135
0.00198864
-0.00381057
-0.00411697
0.00296722
-0.00752748
0.00371687
0.00180711
-0.0110121
0.00180702
0.0029323
-0.00668607
0.00157373
0.00318138
-0.00146015
0.00117747
0.0027426
0.00193962
0.00102873
0.000714648
0.00175901
0.0010224
-0.000907874
0.000839882
0.000575191
-0.00126758
0.000118728
-1.50973e-05
-0.00100279
-0.000305696
-0.000154401
-0.000462135
-0.000269207
-0.000268815
-0.000133326
-0.000662662
-0.000499277
0.000664835
-0.000252214
-0.000350557
0.00103021
-0.00028018
-0.000316792
0.00128789
-0.000297451
-0.000166438
0.000906253
0.000129418
-1.30235e-05
-0.000742713
0.000859096
0.000594436
-0.00273698
0.00178029
0.00101246
-0.00317271
0.00194078
0.000993271
-0.00294346
-0.00162059
0.00116101
-0.00183389
-0.00679648
0.00156984
-0.0111653
0.00180388
0.000954924
-0.0129223
0.000955508
0.00170661
-0.0086
0.00116253
0.00289794
-0.003783
0.00113199
0.0036347
8.49675e-05
0.00111837
0.00308452
0.00122497
0.00108463
0.00186382
0.00117938
0.000880769
0.00035153
0.000855325
0.000773147
-0.000496756
0.000277174
0.000267907
-0.000411032
6.87314e-06
-0.000386967
-7.02332e-05
-0.000140742
-0.000854167
0.000517673
-8.97679e-05
-0.000757718
0.000514702
3.57947e-05
-0.000312631
-0.000401907
0.000304085
0.000316242
-0.00190824
0.000860193
0.000776948
-0.00309072
0.00117865
0.000863447
-0.00359086
0.00123017
0.00105034
-0.00279968
0.000104384
0.00104513
-0.00164911
-0.00385949
0.00108822
-0.000937224
-0.00866069
0.00115227
-0.0130576
0.000955008
0.000429049
-0.0137813
0.000430076
0.000536386
-0.00972741
0.00102026
0.0011895
-0.00571858
0.00128281
0.00228004
-0.0024906
0.00148555
0.0027277
-0.000638926
0.00141674
0.00238383
0.000295417
0.00122777
0.00166498
0.00054382
0.00102877
0.000680003
0.000544297
0.000725532
-3.3779e-05
0.000481749
0.000229982
9.05058e-06
0.000374862
-0.000558255
1.13405e-05
0.000403235
-0.000496895
-0.000761335
0.000505362
0.000304008
-0.00174368
0.000521366
0.000766406
-0.00243686
0.000494809
0.00105918
-0.00272943
0.000224972
0.00124652
-0.00221967
-0.000705196
0.00142566
-0.00108435
-0.00251068
0.00147961
-0.000460837
-0.00576285
0.00127972
-0.000390785
-0.0097548
0.00102399
-0.0138883
0.00043995
4.13402e-05
-0.0138654
4.27001e-05
-0.000391598
-0.0102337
0.000939192
-0.000493628
-0.00699261
0.00137608
-0.000246404
-0.00449284
0.00175524
5.67548e-05
-0.00287684
0.00193514
0.000280412
-0.00174418
0.00181585
0.000334682
-0.00108237
0.00156992
0.000168607
-0.00061226
0.00132373
-2.23973e-05
-0.000367142
0.00104063
-1.08209e-05
-0.000290778
0.00065865
3.74177e-05
-0.000330926
0.00068927
-9.65259e-05
-0.000441606
0.00108245
-0.00023542
-0.000700453
0.00136148
-0.000171179
-0.00117839
0.00160946
3.4282e-05
-0.0018387
0.00185844
0.000324834
-0.00296196
0.00196622
0.000579461
-0.00454068
0.00177527
0.000459521
-0.00703013
0.00138711
5.90385e-06
-0.0102565
0.000955254
-0.0139494
6.69409e-05
-0.000268802
-0.0133293
-0.000267346
-0.0010746
-0.0102609
0.000832837
-0.00162732
-0.00773834
0.00129832
-0.00181531
-0.00591954
0.00161471
-0.00178993
-0.00472832
0.00182642
-0.00153079
-0.00388491
0.001882
-0.00114285
-0.00325914
0.00178861
-0.000709822
-0.00274589
0.00170038
-0.000309538
-0.00241998
0.00165242
1.44711e-05
-0.00224814
0.00163439
0.000361324
-0.00230816
0.00163088
0.00078624
-0.00252071
0.00165468
0.00122944
-0.00284788
0.00170466
0.00161502
-0.00335677
0.00179306
0.00186452
-0.0039737
0.00188555
0.00188113
-0.00480561
0.00182698
0.00169389
-0.00597536
0.00162179
0.00113516
-0.00778004
0.00130851
0.000317361
-0.0102914
0.000852592
-0.0133984
-0.00023378
-0.000571121
-0.0121885
-0.000569703
-0.00166238
-0.00975154
0.000581604
-0.00243441
-0.00794954
0.000982991
-0.00274339
-0.00678468
0.00117395
-0.00269361
-0.0060559
0.00127777
-0.00235466
-0.00556305
0.00133929
-0.00181432
-0.00517487
0.00137573
-0.00114038
-0.00480528
0.00138624
-0.000471222
-0.00451755
0.00142864
4.39389e-05
-0.0042869
0.00152367
0.000555498
-0.00433377
0.00151412
0.00121691
-0.0045961
0.00141415
0.00188502
-0.00488454
0.00136868
0.00242265
-0.00524926
0.0013549
0.00276012
-0.00563181
0.00132059
0.00280797
-0.00611747
0.00126389
0.00249824
-0.00683515
0.00116936
0.00172257
-0.00799036
0.000985817
0.000618311
-0.00978455
0.000597182
-0.012246
-0.000534186
-0.000975541
-0.0102389
-0.000974208
-0.00233661
-0.0084128
2.19305e-05
-0.00326022
-0.00728654
0.000260269
-0.00361746
-0.00668773
0.000260011
-0.00350881
-0.00637038
0.00020565
-0.00303312
-0.00619499
0.000156098
-0.00230113
-0.00605843
0.000151393
-0.0014202
-0.00589038
0.0002041
-0.000561701
-0.00570384
0.000327781
4.33116e-05
-0.00546266
0.000570772
0.000644462
-0.00549052
0.000555631
0.00149479
-0.00574808
0.000301678
0.00237142
-0.00593454
0.00017335
0.00310144
-0.00610138
0.000122014
0.00357583
-0.00623629
0.000129948
0.00368306
-0.00640917
0.000184287
0.00332402
-0.00672262
0.000246302
0.00239704
-0.00731713
0.000253523
0.00102197
-0.00844147
3.17394e-05
-0.0102826
-0.000941634
-0.00170324
-0.00683392
-0.00170202
-0.00335548
-0.00567477
-0.0010863
-0.00435539
-0.00519752
-0.00108952
-0.00470155
-0.00507025
-0.00127165
-0.0045051
-0.00506444
-0.00150265
-0.00389881
-0.00512423
-0.00167725
-0.00298126
-0.0051783
-0.00179786
-0.00185819
-0.00518728
-0.00182632
-0.000729456
-0.00514082
-0.00169187
4.36595e-05
-0.00502661
-0.00120928
0.000813256
-0.00503879
-0.00122144
0.00193139
-0.00515792
-0.00170842
0.00305025
-0.00520378
-0.00184976
0.00396665
-0.00519484
-0.00182311
0.00457261
-0.00514085
-0.00170158
0.00476836
-0.00508099
-0.00152415
0.00442061
-0.00508626
-0.00128884
0.00341546
-0.00521323
-0.00109902
0.00174822
-0.00569124
-0.00108328
-0.00685902
-0.00167567
-0.00341767
-0.00341659
-0.0054241
-0.00366885
-0.00636585
-0.00425612
-0.00661788
-0.0048185
-0.00629829
-0.00538424
-0.00551206
-0.00591063
-0.00431938
-0.00637112
-0.00279289
-0.00671389
-0.00111443
-0.00681941
4.60782e-05
-0.00618726
0.00119708
-0.00618995
0.00286511
-0.00682609
0.00438993
-0.00672874
0.00558341
-0.00638845
0.00637005
-0.00592764
0.00668875
-0.00539984
0.00643381
-0.00483151
0.00548474
-0.00426438
0.00346196
-0.00366874
-0.00339728
0.00291776
-0.00398998
0.00476762
0.00362631
-0.00141714
0.00362552
0.00220149
0.00149131
0.00177966
-0.00023801
0.00305322
0.000280892
-0.000816005
0.000543816
0.000198353
-0.000609478
-0.000252746
1.93194e-05
-0.000399609
-0.000319725
5.63111e-05
-0.000278036
-0.000213142
4.51714e-05
-6.50498e-05
-0.0004604
0.000125271
1.59062e-05
1.85801e-05
-5.98544e-05
0.00021454
-0.000476738
4.46105e-05
0.00030736
-0.000111319
-3.61223e-05
0.000439868
-0.000224701
4.08227e-05
0.000685898
-0.000366405
6.27456e-05
0.000874364
-0.000225335
3.17177e-05
0.000179552
0.000661495
0.0002389
-0.00254321
0.00302948
0.000813153
-0.00391977
0.00121171
0.00215336
-0.00307647
-0.00171124
0.00383512
-0.00426459
0.00490495
0.00157442
-0.00668968
0.00293262
0.00274013
-0.00374845
0.00273985
0.00311856
8.25932e-05
0.0022085
0.00292537
0.00227313
0.00200264
0.00142371
0.00163744
0.00143167
9.63487e-05
0.000787787
0.000860966
-0.00041067
-7.17276e-05
0.000234576
-0.000308731
-0.000363641
-9.93461e-05
-0.00026144
-0.00036826
-0.00042523
3.9697e-05
-0.000283075
-0.000496524
0.000131322
-0.000332395
-0.000592747
0.000374179
-0.000378895
-0.000291022
0.000430137
-0.000382728
-6.41561e-05
-0.000134712
-6.46188e-05
0.000252043
-0.00150529
0.00085304
0.000887633
-0.00300845
0.00171384
0.00146327
-0.00316486
0.00233577
0.00184324
-0.00280687
-0.000142037
0.0021566
-0.00163892
-0.00404021
0.00273072
-0.00700269
0.00290296
0.00116257
-0.0086037
0.00170717
0.00229091
-0.00600477
0.00229083
0.0034578
-0.0024045
0.0024526
0.00396113
0.000541725
0.00234716
0.00346513
0.00127301
0.00194561
0.00247236
0.00113867
0.0015225
0.0012866
0.000748044
0.00113612
0.000384814
0.000223966
0.000587643
-9.14523e-06
-0.000156357
-0.00021338
-1.08558e-05
-0.000310476
-0.000831316
-1.76357e-05
-0.000299288
-0.000780149
-0.000434054
-0.000151362
-0.000121547
-0.00136496
0.000233927
0.000632533
-0.00254714
0.000754416
0.0011411
-0.00349952
0.00116595
0.00150312
-0.00396251
0.00132964
0.00189746
-0.00339729
0.00060108
0.00221446
-0.00226036
-0.0025274
0.00233652
-0.00117525
-0.00619555
0.0022224
-0.00886924
0.00164623
0.00101978
-0.00973073
0.000537431
0.00171199
-0.00738905
0.00171255
0.00253485
-0.0041961
0.00225191
0.00333977
-0.00120584
0.00242879
0.00342227
0.000418705
0.00218913
0.00290044
0.0010377
0.00185032
0.00214472
0.00103956
0.00149037
0.00127174
0.000804118
0.00101969
0.000507126
0.000529498
0.000306636
-1.68271e-05
0.000276545
-0.000621289
-0.000552933
0.000289458
-0.000548615
-0.00134407
0.000545829
0.000399245
-0.00222714
0.000799339
0.00108486
-0.00297025
0.0010177
0.00153944
-0.00345641
0.00101672
0.00188205
-0.00332408
0.000426405
0.00219653
-0.00246689
-0.00116861
0.00239199
-0.00167021
-0.00424372
0.00219923
-0.0010119
-0.00750799
0.00167803
-0.00993839
0.000497111
0.000938358
-0.0102363
-0.0003901
0.00121232
-0.00793736
0.00121349
0.00133696
-0.0050217
0.0020771
0.00158295
-0.00219712
0.00250085
0.0016996
-0.000303596
0.00254149
0.00156827
0.000704334
0.00228116
0.00122286
0.00102973
0.00192458
0.000758254
0.00108937
0.00150388
0.000308664
0.0010283
0.00099272
6.60775e-06
0.000932126
0.000306701
-0.00027764
0.000933377
0.000330679
-0.000712332
0.00102349
0.00104033
-0.00117848
0.00107223
0.00155534
-0.00152864
0.000995697
0.00198194
-0.00166003
0.000665858
0.00234077
-0.0015361
-0.00032077
0.00258937
-0.00127154
-0.00218023
0.00252218
-0.00116583
-0.00503668
0.00207421
-0.000917861
-0.00801777
0.00121695
-0.0103979
-0.000391521
0.000831946
-0.0102627
-0.00107302
0.000783788
-0.00784178
0.00078521
0.000439486
-0.00517132
0.00179207
0.000162049
-0.00263702
0.00233201
2.6682e-05
-0.00088659
0.00254502
1.652e-05
0.000153565
0.0024434
-2.09817e-05
0.000672816
0.00218381
-7.79422e-05
0.000946545
0.00190193
-9.96947e-05
0.00103995
0.0016629
1.95548e-05
0.00101413
0.0014335
0.000156344
0.000994315
0.00143358
0.000159297
0.00100091
0.00167478
0.000111541
0.000905874
0.00191914
6.65221e-05
0.000628632
0.00220534
3.93586e-05
0.000110583
0.00246795
-0.000108281
-0.000911277
0.00256493
-0.000379254
-0.00263943
0.00235174
-0.000735332
-0.00517821
0.00180591
-0.000806417
-0.00790344
0.000809161
-0.0103878
-0.00105041
0.000580763
-0.00975271
-0.00166074
0.000263837
-0.00720893
0.000265297
-0.000280776
-0.0049588
0.00131471
-0.000636735
-0.00298604
0.00187865
-0.000805125
-0.00159706
0.00215651
-0.000766173
-0.000713646
0.00216736
-0.000641615
-0.00016454
0.00208822
-0.000487504
0.000202208
0.0019767
-0.000276607
0.000357784
0.00189998
4.29953e-05
0.000383722
0.00183468
0.00036486
0.000360776
0.00182607
0.000580669
0.000314135
0.00188536
0.000734089
0.000163287
0.00195795
0.0008494
-0.00019992
0.00206807
0.000875409
-0.000747741
0.00215267
0.000698371
-0.00162312
0.00215245
0.000341479
-0.00300321
0.00188969
-0.000209466
-0.00497275
0.00133099
-0.000550625
-0.00725753
0.000292137
-0.00984558
-0.00162725
2.11426e-05
-0.00841343
-0.00233501
-0.000580137
-0.00600747
-0.000578819
-0.00122561
-0.00435488
0.000301281
-0.00153527
-0.0031299
0.000713064
-0.00158043
-0.00228229
0.000935707
-0.00138109
-0.0016826
0.000925444
-0.00102829
-0.00128069
0.000914408
-0.000628723
-0.000964329
0.000970923
-0.000232536
-0.000776905
0.0010662
4.91309e-05
-0.00053809
0.0012109
0.000329855
-0.000560408
0.00119606
0.000722691
-0.000811789
0.00103467
0.0011175
-0.000990417
0.000932037
0.00146302
-0.00130267
0.000878942
0.00165567
-0.00170426
0.000893466
0.00160554
-0.00230276
0.00091367
0.00128774
-0.00315017
0.000710646
0.000637587
-0.00437642
0.000306926
1.35523e-05
-0.00604296
-0.000559208
-0.00847428
-0.00229967
-0.00108692
-0.00567505
-0.00335399
-0.00215512
-0.00387221
-0.00215404
-0.00291258
-0.00296586
-0.00172169
-0.00319841
-0.00246393
-0.00165231
-0.00306214
-0.00217072
-0.0017509
-0.00264737
-0.00200703
-0.00176791
-0.00204696
-0.0018993
-0.00177995
-0.00135489
-0.00179585
-0.00168712
-0.000659054
-0.00171371
-0.00145115
5.59326e-05
-0.00147772
-0.000984904
0.000760335
-0.00148588
-0.00100069
0.00144593
-0.001723
-0.0014831
0.0021329
-0.0018032
-0.00172425
0.00272956
-0.00190618
-0.00181657
0.00314053
-0.00201456
-0.00180259
0.00327239
-0.00217931
-0.00177981
0.00298023
-0.00247385
-0.00167339
0.00221137
-0.0029782
-0.00172881
0.00112009
-0.00389088
-0.00214453
-0.00570625
-0.00332393
-0.0036694
-0.00542274
-0.00560593
-0.00560501
-0.00654848
-0.00627979
-0.00680211
-0.00702909
-0.00653526
-0.00782204
-0.00584945
-0.00860365
-0.004802
-0.00931803
-0.00342488
-0.00988702
-0.00181224
-0.0101459
5.09787e-05
-0.0095284
0.00190464
-0.00952969
0.00351035
-0.010155
0.00488391
-0.00990566
0.00592837
-0.00933927
0.00661056
-0.00862458
0.00687259
-0.00784139
0.00661193
-0.00704493
0.00565782
-0.00628875
0.0037012
-0.00560332
-0.00540248
0.00184616
-3.70427e-05
0.00295874
0.00178078
0.00149085
0.00220035
0.000237584
0.00310985
0.000213164
-0.000675851
0.00146574
-0.000270431
-0.000406552
-9.57731e-05
2.74858e-05
-9.63277e-05
-0.000416435
0.000126047
9.02753e-05
-0.000375077
0.000237725
8.89039e-05
-0.000233105
0.00028235
8.7783e-06
-8.78267e-05
0.000304291
9.79108e-05
-0.000397915
0.000231252
-6.0323e-05
-2.59034e-05
0.00021661
-6.78775e-05
-0.000351935
0.000322417
-5.2072e-05
-0.000248297
0.000275861
0.000166936
-0.000402365
0.000247476
0.000499716
-0.000391094
9.11366e-05
0.000605796
4.07118e-05
9.21615e-05
-0.000830258
0.00242047
-0.000171654
-0.0022363
0.00277495
0.000784142
-0.00207808
0.00117098
0.00250579
-0.000408036
0.0032348
0.00117768
-0.00146517
0.00318329
0.00220774
8.12612e-05
0.00311971
0.00278238
0.00195096
0.00279319
0.00230581
0.00176981
0.00217629
0.00116654
0.00118631
0.0012904
0.000321126
0.000472543
0.000818961
-5.02737e-06
-0.000225162
0.000408801
1.30271e-05
-0.000503976
0.000135506
7.14054e-05
-0.000449276
-0.000119829
-8.68996e-05
-0.000345066
-0.000397738
-3.50643e-05
-0.000381109
-0.000291522
-0.000112732
-0.0004738
-8.83629e-05
-6.70248e-05
-0.000536033
0.000179237
-0.000438518
-0.000221879
0.000444466
-0.00133123
0.000541868
0.000847577
-0.00250494
0.00134035
0.00133698
-0.00267644
0.00213505
0.00229988
-0.00224036
0.00186404
0.00263125
-0.00123281
-0.000239661
0.00313365
-0.00192798
0.00318995
0.0011316
-0.00378829
0.00289886
0.00245212
-0.00240679
0.00345837
0.00360322
-0.000352691
0.00360562
0.00380242
0.000796955
0.00312144
0.00332366
0.00113079
0.00248044
0.00243817
0.000973628
0.00190682
0.00141693
0.000584417
0.00134631
0.000638605
9.21783e-05
0.000770452
0.000188599
-0.000290578
7.56748e-05
-3.1352e-05
-0.00043737
-0.000519166
-0.000276182
-0.000454368
-0.000460683
-0.000738112
-0.000304919
0.000173005
-0.00153481
6.5448e-05
0.000828826
-0.00254726
0.000556495
0.00137561
-0.00339631
0.000973253
0.00192083
-0.00382393
0.0011902
0.00247514
-0.00351805
0.000953737
0.00308976
-0.00238575
-0.000404615
0.00347275
-0.00110577
-0.00266446
0.00336712
-0.0041627
0.0027751
0.00128225
-0.00572248
0.00118948
0.00225154
-0.00419831
0.00253507
0.00325294
-0.00235507
0.00325327
0.0037802
-0.000507302
0.00320634
0.00365309
0.00066562
0.00278211
0.00306364
0.00111972
0.00229422
0.00228537
0.0010404
0.0018123
0.00142353
0.000722193
0.00125245
0.000625971
0.000328749
0.000486571
-2.94824e-05
-8.65799e-07
-0.00040142
-0.000699722
-1.04646e-06
-0.000330588
-0.00151397
0.000323646
0.000585858
-0.00238836
0.000693759
0.00133146
-0.00316353
0.000990662
0.00188066
-0.00373185
0.00107344
0.00235023
-0.00382145
0.000656465
0.00281983
-0.00322244
-0.000463837
0.00321046
-0.00221178
-0.00240441
0.00318827
-0.00126702
-0.00437066
0.00243937
-0.00597522
0.00104252
0.00137526
-0.00699549
-0.000492294
0.00207625
-0.00502382
0.00133814
0.00249451
-0.00319127
0.00249521
0.00275398
-0.001198
0.00293235
0.00271559
0.000368255
0.0028777
0.00235439
0.00120995
0.00255261
0.00181511
0.00136859
0.00213578
0.00120493
0.00120011
0.00163672
0.000587158
0.000939678
0.00100019
2.29005e-05
0.000732081
0.000138952
-0.000541607
0.000736078
0.000159086
-0.00116936
0.000940615
0.00105185
-0.00179655
0.00118023
0.00169646
-0.00234996
0.00132589
0.00220029
-0.00271708
0.00116394
0.0026174
-0.00274989
0.000348448
0.00293013
-0.00246455
-0.00118564
0.00295853
-0.00204536
-0.00323003
0.00248054
-0.0013563
-0.00515062
0.00130775
-0.00717705
-0.000546055
0.00129759
-0.00774033
-0.0016258
0.00179097
-0.00517316
0.00044112
0.00181599
-0.0032415
0.00181724
0.00166031
-0.00122843
0.00251812
0.00145366
0.000344508
0.00277558
0.00122229
0.00123363
0.00265123
0.000924929
0.00149943
0.0023503
0.000583421
0.00147438
0.00196956
0.000255448
0.00137507
0.0015558
2.46452e-05
0.00131316
0.00108379
-0.000187021
0.00130802
0.00107395
-0.00049481
0.00136377
0.00155988
-0.000835319
0.00145535
0.00198478
-0.00114649
0.00146788
0.00237457
-0.00139772
0.00120218
0.00268084
-0.00161844
0.000332477
0.00280145
-0.00177182
-0.0012215
0.0025408
-0.00175291
-0.00327432
0.00183113
-0.00127492
-0.00527637
0.000456776
-0.00788046
-0.00162202
0.000982402
-0.00795077
-0.00243286
0.00131348
-0.00496002
-0.000279179
0.00117244
-0.00295997
0.00117395
0.000880538
-0.00104402
0.00198592
0.000599178
0.000380635
0.00240165
0.000431742
0.0011254
0.00244298
0.000305136
0.00139256
0.00232156
0.000170228
0.00144764
0.00213846
6.28946e-05
0.00142422
0.00195832
3.49511e-05
0.00144209
0.00173395
2.13128e-05
0.00143214
0.00171585
-6.83758e-05
0.00140519
0.00193378
-0.000200725
0.00143022
0.00211543
-0.000338207
0.0013701
0.0023032
-0.00052137
0.00110341
0.00243437
-0.000812866
0.000370786
0.00240534
-0.00111197
-0.00103721
0.00200419
-0.00126188
-0.00299
0.00119631
-0.000955062
-0.00503813
-0.00025318
-0.00805255
-0.00241038
0.000259858
-0.00728722
-0.00325869
0.000300161
-0.00435538
-0.00122422
0.000104934
-0.0025705
0.0001065
-3.87445e-05
-0.00105666
0.000868846
-8.07318e-05
3.29668e-05
0.00132495
-4.3869e-05
0.000583298
0.00143039
2.85934e-05
0.000806828
0.00142742
9.945e-05
0.000922911
0.00142466
0.000151921
0.000975487
0.00146237
4.59185e-05
0.00124961
0.00150931
-5.69306e-05
0.00123665
0.00149431
-2.13866e-07
0.000953234
0.00142974
6.94954e-05
0.000903806
0.00138849
0.000136835
0.000787618
0.00139377
0.000165002
0.000564107
0.00140423
0.000117618
1.75615e-05
0.00131384
-2.97252e-05
-0.00106138
0.000881675
-0.000239442
-0.00259635
0.000122528
-0.000230359
-0.00440195
-0.00120485
-0.00735191
-0.00323087
-0.00108987
-0.00519782
-0.00435388
-0.0017225
-0.00296601
-0.00291131
-0.00207359
-0.0018692
-0.00207244
-0.00207565
-0.00118447
-0.00152295
-0.00173712
-0.000755463
-0.00130142
-0.00124475
-0.000466552
-0.00121075
-0.000757398
-0.000300037
-0.00116072
-0.000332882
-0.000145599
-0.00104338
-1.32887e-05
-2.07427e-05
-0.000774775
5.70871e-05
0.000508096
-0.000314061
0.000127602
0.000497387
-0.000332253
0.000447087
-2.99805e-05
-0.000819678
0.00086719
-0.000152384
-0.00108846
0.00134641
-0.000305426
-0.00120305
0.00182853
-0.000472495
-0.00124844
0.00215637
-0.000761717
-0.00132874
0.00214937
-0.00119046
-0.00153769
0.00178072
-0.00188054
-0.00207637
0.00112087
-0.00298556
-0.00290141
-0.00522819
-0.00432702
-0.00425645
-0.0063644
-0.00628045
-0.00654734
-0.0072153
-0.00721438
-0.00741755
-0.00801152
-0.00711714
-0.0088781
-0.00641541
-0.00977207
-0.00537445
-0.0106592
-0.00398289
-0.0114243
-0.00227236
-0.0118774
5.58174e-05
-0.0113486
0.00237007
-0.0113467
0.00407302
-0.011888
0.00545868
-0.0114438
0.00649431
-0.0106804
0.00719009
-0.00979298
0.007484
-0.00889716
0.00727442
-0.00802599
0.00632763
-0.00722268
0.00428447
-0.00654594
-0.00634629
0.000891028
0.00253148
-0.000463559
0.000264587
0.00305901
-0.000232378
-0.000273303
0.00143077
-0.000679738
-0.000244698
-5.78284e-05
-0.000240083
3.87326e-05
-0.000372027
0.000118854
0.000314782
-0.000512287
0.000365036
0.00045466
-0.000412228
0.000509784
0.000415905
-0.000308871
0.000615081
0.000263272
-0.000234124
0.000695636
3.26717e-07
-0.000198553
0.000691711
-0.00025372
-0.000221
0.00068881
-0.000425007
-0.00023861
0.000736466
-0.000453287
-0.00032428
0.000630085
-0.00030142
-0.000427674
0.000524324
-4.60848e-05
-0.000517519
0.000353523
0.000271994
-0.000359124
0.00013276
0.000173672
0.000168255
-0.000242414
-0.000846694
0.00241101
-0.000607153
-0.00117098
0.00301525
-0.000185451
0.00245753
-0.00039391
0.0010307
0.00193718
0.00274668
0.00201094
0.00227261
0.00292551
0.00216946
0.00176337
0.00230244
0.00151888
0.00124735
0.00152292
0.000771354
0.000726558
0.000940374
0.000338497
6.76189e-05
0.000672815
0.000248605
-0.000405375
0.000492351
0.000285552
-0.000600492
0.000391035
0.000203006
-0.000522724
0.000244888
-7.06486e-05
-0.000391292
7.27652e-05
-0.000300308
-0.000404908
0.000122487
-0.000383261
-0.000554696
0.000312195
-0.000341896
-0.000630843
0.000445597
-0.000439299
-0.000431513
0.000546049
-0.000904729
7.37779e-05
0.000721338
-0.00169428
0.000774257
0.000992605
-0.00233589
0.00142981
0.00167938
-0.00190477
0.0021149
0.00249597
-0.00104972
0.00227241
0.00302123
0.00178488
0.00281267
0.00111914
8.07363e-05
0.00363628
0.00234904
0.000539303
0.00396165
0.0031206
0.000794771
0.0038028
0.00323426
0.00102047
0.00323515
0.00285327
0.00101718
0.00257165
0.00211391
0.000775017
0.0019398
0.00129809
0.000370457
0.00138663
0.000675638
-0.000101155
0.000894742
0.000275366
-0.000433114
0.000386021
-5.50036e-05
-0.000511066
-6.77756e-05
-0.000389805
-0.000527339
-2.1295e-06
-0.000797562
-0.000461354
0.000488487
-0.00142795
-0.000145982
0.00097486
-0.00223529
0.000307247
0.00144433
-0.00295103
0.000717577
0.00199269
-0.00330669
0.00098838
0.00261656
-0.00314013
0.00107763
0.00327527
-0.00227046
0.000910519
0.00380737
-0.00107527
0.00047358
0.00397068
-0.000122598
0.00360723
0.00148541
-0.00249454
0.00227926
0.00242902
-0.00120869
0.00333961
0.00320623
-0.000508649
0.00377976
0.00356156
0.000310604
0.00356132
0.00341115
0.000895401
0.0030549
0.00289319
0.00108072
0.00250715
0.00217892
0.000909745
0.00198756
0.00137014
0.000543624
0.00141709
0.000605264
9.16981e-05
0.00072756
-3.68542e-05
-0.000286537
1.72237e-05
-0.000691115
-0.000289553
8.69832e-05
-0.00147269
7.44779e-05
0.000832335
-0.00229194
0.000495664
0.00150939
-0.0030116
0.000834001
0.00207365
-0.00352027
0.000990425
0.00258604
-0.00365231
0.000818356
0.00312184
-0.00325555
0.000280204
0.00361107
-0.00242197
-0.000524017
0.00378915
-0.00147993
-0.00131583
0.00328664
-0.00270104
0.00214088
0.00175419
-0.00449568
-0.000245216
0.00249998
-0.00219979
0.00158373
0.00293187
-0.00119937
0.00275431
0.00315557
-0.000136102
0.00315563
0.0030746
0.000796289
0.00305815
0.00268839
0.00130408
0.00271592
0.00212353
0.00131624
0.00229443
0.00147543
0.0010278
0.00180109
0.000765891
0.000636951
0.00116512
2.0882e-05
0.000258029
0.000340353
-0.000731732
0.000255718
0.000367409
-0.00145821
0.000632579
0.00122079
-0.00212867
0.000999573
0.00186326
-0.00271144
0.00125956
0.00235757
-0.00310998
0.00123146
0.00277489
-0.00319591
0.000731126
0.00310325
-0.00295959
-0.000177454
0.00317982
-0.0025013
-0.00125019
0.00274837
-0.00173956
-0.00230494
0.00153508
-0.00466717
-0.00031953
0.00161391
-0.00592147
-0.0018138
0.00233086
-0.00263924
0.000163769
0.00251706
-0.00122976
0.00166154
0.00246956
-4.07798e-05
0.0024704
0.00231001
0.000937781
0.00279382
0.00202497
0.00151434
0.00272625
0.00162685
0.0015991
0.00246575
0.00114595
0.00139384
0.00208473
0.000611856
0.00111901
0.00160827
3.38568e-05
0.000933579
0.000986873
-0.000534752
0.000927356
0.000971514
-0.00106185
0.00111183
0.00160808
-0.00155036
0.00137662
0.00209637
-0.0019659
0.0015657
0.00248397
-0.00227206
0.00147314
0.00274526
-0.0024488
0.000902025
0.0028072
-0.00249652
-7.03825e-05
0.00248135
-0.0023042
-0.00128379
0.0016723
-0.00158935
-0.00273874
0.00017563
-0.00606085
-0.00181776
0.00117339
-0.00678583
-0.00274193
0.00187742
-0.0029874
-0.000635093
0.00198445
-0.00104516
0.00088222
0.00179728
0.000333454
0.00179871
0.00159768
0.00118156
0.00235742
0.00140073
0.00162331
0.002531
0.00115353
0.00168414
0.00248376
0.00081913
0.0015573
0.00230951
0.000427663
0.00139599
0.002073
4.01946e-05
0.00134956
0.00170568
-0.000335375
0.00133895
0.00168002
-0.000713913
0.00138175
0.00204247
-0.00104987
0.00154336
0.00228461
-0.00130959
0.00166322
0.0024653
-0.00152227
0.0015998
0.00252024
-0.00173392
0.00116249
0.00235633
-0.00192511
0.000313782
0.001811
-0.00182526
-0.00109308
0.000905512
-0.00114234
-0.00306349
-0.00061156
-0.00688714
-0.00272655
0.000259678
-0.00668833
-0.00361601
0.000711983
-0.00313049
-0.00153372
0.000867197
-0.00105728
-3.70105e-05
0.000834754
0.000397961
0.000836359
0.000835375
0.00108829
0.0014173
0.000857992
0.00135293
0.00167797
0.000835503
0.00138289
0.00175101
0.00072382
0.00135523
0.00173832
0.000512722
0.00133642
0.00173295
5.65251e-05
0.00162863
0.00168636
-0.000403191
0.00162732
0.00166555
-0.000614369
0.00132577
0.00169676
-0.000728898
0.00134231
0.00170389
-0.00075874
0.00136579
0.00172082
-0.000744879
0.00133511
0.00165479
-0.000750526
0.00107318
0.00140849
-0.000784397
0.000382404
0.000846556
-0.000646551
-0.00109206
-1.67361e-05
-0.000226522
-0.00317467
-0.001514
-0.00675053
-0.00359415
-0.00127183
-0.00507051
-0.0047001
-0.00165284
-0.00246411
-0.00319704
-0.00152394
-0.00118457
-0.00207443
-0.00115272
-0.000345045
-0.00115154
-0.000764735
0.000173212
-0.000774665
-0.000405365
0.000413195
-0.000630681
-0.000113772
0.000536283
-0.000605988
8.55664e-05
0.000692623
-0.000580375
0.00019409
0.000870136
-0.000417278
5.8408e-05
0.00152391
-7.39241e-05
-7.29815e-05
0.00151209
-8.59042e-05
3.92106e-05
0.000850491
-0.00045685
0.000234103
0.000685098
-0.000626389
0.000514279
0.000532743
-0.000650418
0.00086142
0.00040858
-0.000669298
0.00123966
0.000167827
-0.000801905
0.00160134
-0.000351252
-0.00116604
0.00170843
-0.00119438
-0.00208147
0.00130233
-0.00248127
-0.00318899
-0.00509802
-0.00467735
-0.00481869
-0.00661641
-0.00702952
-0.00680081
-0.00801221
-0.00741643
-0.00818493
-0.008184
-0.00783838
-0.00905159
-0.00713872
-0.0100587
-0.00612301
-0.0111387
-0.00470058
-0.0121542
-0.00282092
-0.012887
6.27176e-05
-0.0127085
0.00292804
-0.0127
0.00479106
-0.0129007
0.00620425
-0.012172
0.00721346
-0.011157
0.00790618
-0.0100772
0.00824504
-0.0090683
0.00806429
-0.00819662
0.00707078
-0.00742369
0.00484344
-0.00680001
-0.00660093
0.000162415
0.000759325
-0.00138548
0.000197103
0.00054689
-0.000815017
2.24136e-05
-9.42339e-05
-0.000411408
0.000111602
-0.00036996
4.11245e-05
0.000368939
-0.000509511
0.000372519
0.000623457
-0.000526788
0.00063851
0.000738925
-0.000428116
0.000823731
0.000679496
-0.000337379
0.00101341
0.000427682
-0.000262144
0.00120615
-5.41438e-06
-0.000225182
0.00135392
-0.000447228
-0.000232148
0.00136309
-0.000692228
-0.000261439
0.00124423
-0.000749431
-0.000348186
0.00103616
-0.000623868
-0.000445024
0.000843854
-0.000373724
-0.00054176
0.00064466
-0.000107279
-0.000523483
0.000389031
-6.22652e-05
-0.000354771
6.64257e-05
-0.000218419
3.57822e-05
-0.00048757
-0.000196891
0.000669235
-0.000876756
0.000812736
-0.00140396
0.00102191
0.00175865
0.000724097
0.00143153
0.00163771
0.00142428
0.00128863
0.00118702
0.00116361
0.000939359
0.000728672
0.000774163
0.000587792
0.000193496
0.000589533
0.000440092
-0.000284787
0.000580038
0.000453269
-0.000567938
0.000620279
0.00048134
-0.000646997
0.000675436
0.000324399
-0.00054832
0.000687479
-7.79431e-05
-0.000407056
0.000659579
-0.000456924
-0.000422584
0.000693114
-0.000581063
-0.000578995
0.000754642
-0.000541011
-0.000679329
0.000736925
-0.000512194
-0.000609232
0.000681299
-0.000646647
-0.00032123
0.000634789
-0.000996914
0.000173982
0.000644766
-0.00135413
0.000779145
0.000902118
-0.00149524
0.00133687
0.00133552
-0.00103603
0.00169658
0.00153424
0.00174896
0.000839987
0.00108469
0.00122333
0.00308686
0.00194568
0.00127201
0.00346575
0.00248015
0.00113164
0.00332344
0.00257151
0.0010185
0.00285393
0.00225776
0.000821322
0.00225812
0.00169087
0.000515911
0.001707
0.00110006
0.000111195
0.00129918
0.000649459
-0.000293423
0.000993288
0.000301264
-0.000535748
0.000722376
-6.7627e-05
-0.00057059
0.000465872
-0.000428819
-0.00058579
0.00052316
-0.00077613
-0.000562638
0.00081992
-0.00122615
-0.000336244
0.00108191
-0.00180867
4.17655e-05
0.00137578
-0.00235609
0.000434671
0.00178407
-0.00264683
0.000747768
0.00233334
-0.00251527
0.000990155
0.00293259
-0.00193944
0.00117327
0.00339504
-0.00107752
0.00128444
0.00352081
0.00115596
0.00312282
0.00141647
-0.000641469
0.00272728
0.0021888
0.000417032
0.00342205
0.00278198
0.000665466
0.00365272
0.00305514
0.000895877
0.00341098
0.00294936
0.00103328
0.00294914
0.00254203
0.000982572
0.00244843
0.00192552
0.000737943
0.00197787
0.00121356
0.000343445
0.00149294