/*--------------------------------*- C++ -*----------------------------------*\
| =========                 |                                                 |
| \\      /  F ield         | OpenFOAM: The Open Source CFD Toolbox           |
|  \\    /   O peration     | Version:  v1912                                 |
|   \\  /    A nd           | Website:  www.openfoam.com                      |
|    \\/     M anipulation  |                                                 |
\*---------------------------------------------------------------------------*/
FoamFile
{
    version     2.0;
    format      ascii;
    class       volVectorField;
    location    "800";
    object      U;
}
// * * * * * * * * * * * * * * * * * * * * * * * * * * * * * * * * * * * * * //

dimensions      [0 1 -1 0 0 0 0];


internalField   nonuniform List<vector> 
4000
(
(0.00969944 -0.0256927 0.00969625)
(0.0177274 -0.0143408 0.00823865)
(0.018809 -0.0038465 0.00650956)
(0.0072045 0.00587554 0.00389659)
(-0.00907409 -0.00137938 0.000273959)
(-0.00435048 -0.00192041 -0.000286606)
(-0.00422611 -0.0007376 -0.000538322)
(-0.0028016 -0.000740676 -0.000624631)
(-0.0016554 -0.000399602 -0.000302865)
(-0.000633137 -0.00260233 -0.00227911)
(0.000848318 -0.00044247 -0.000688399)
(0.00230006 -0.00105805 -0.000866888)
(0.00283288 -0.000552741 -0.000470868)
(0.00458885 -0.000672009 -0.000419329)
(0.00454628 -0.00189041 -0.000183713)
(0.00950884 -0.00117322 0.000381288)
(-0.00832372 0.00549964 0.00435924)
(-0.0196391 -0.00451671 0.0066817)
(-0.0183632 -0.0149217 0.00830106)
(-0.0099587 -0.0262097 0.00971669)
(0.00425773 -0.0378286 0.00425803)
(0.00945488 -0.0209126 0.00380105)
(0.0135648 0.000217327 0.00279317)
(0.0126116 0.0111241 0.00273464)
(0.00842092 0.0074747 0.00273062)
(-0.00165884 0.00101074 0.00112467)
(-0.00571761 -0.00173276 -0.000606802)
(-0.00444323 -0.00130577 -0.000911933)
(-0.00243876 -0.000336661 -0.00129648)
(-0.00169418 -0.00258607 -0.00252499)
(0.000461085 7.63024e-06 -0.00138235)
(0.00363644 -0.000935922 -0.00130354)
(0.00463114 -0.00138795 -0.000894965)
(0.00586999 -0.00174832 -0.000608553)
(0.00144213 0.00108466 0.00118339)
(-0.00825755 0.00752587 0.0027245)
(-0.0127949 0.0110732 0.00272042)
(-0.0134212 -0.000612563 0.00277911)
(-0.00960743 -0.0214085 0.00380453)
(-0.00428578 -0.0384195 0.00427973)
(0.00218641 -0.0493175 0.00218862)
(0.00516364 -0.0317644 0.00266439)
(0.00846881 -0.0112755 0.00257922)
(0.014506 0.00536709 0.00248007)
(0.0144157 0.0071279 0.00264135)
(0.0101884 0.00542152 0.0022221)
(0.00525681 0.00303381 0.00213301)
(-0.00213874 -0.000825223 4.20345e-05)
(-0.00227169 -0.00158569 -0.00197106)
(-0.00113773 -0.00329487 -0.00320919)
(0.00114306 -0.00115144 -0.00293631)
(0.00264377 -0.00146937 -0.00183311)
(0.00192009 -0.000658824 0.000222749)
(-0.00547829 0.00311348 0.00213529)
(-0.0103143 0.00548841 0.0021883)
(-0.0142961 0.00725124 0.00258394)
(-0.0142621 0.00548798 0.00236499)
(-0.00803813 -0.0116797 0.00252922)
(-0.00507821 -0.0321007 0.00266436)
(-0.00211064 -0.049914 0.00223679)
(0.00109299 -0.0541713 0.00109639)
(0.00214369 -0.0372883 0.00238214)
(0.00223413 -0.019476 0.00307969)
(0.00696326 -0.00531292 0.00408007)
(0.0110319 0.00230198 0.00408668)
(0.0109409 0.00441818 0.0036155)
(0.00838335 0.00410347 0.00315698)
(0.00491514 0.00304226 0.00230404)
(0.000643182 0.00193873 0.000727057)
(-0.000733533 0.000749255 -0.00215521)
(0.000855581 0.000986496 -0.00193188)
(-0.00100406 0.00214486 0.00103622)
(-0.00522124 0.00312576 0.00243366)
(-0.00867889 0.00410509 0.0032481)
(-0.0110842 0.00436132 0.00368701)
(-0.0108642 0.00222024 0.00415628)
(-0.00662717 -0.00524655 0.00412868)
(-0.00181078 -0.0196709 0.00311117)
(-0.00194345 -0.0374382 0.00240953)
(-0.000971595 -0.0546509 0.0011777)
(0.00029985 -0.0559716 0.00030407)
(-0.000212855 -0.0403854 0.00211252)
(-0.00275623 -0.0259694 0.00296943)
(-0.00141851 -0.0145318 0.00423503)
(-0.000709086 -0.00746588 0.00520105)
(0.000965843 -0.00217005 0.00533077)
(0.00150048 0.000429028 0.00485604)
(0.00132406 0.00193549 0.00433612)
(0.000292472 0.00269777 0.00351431)
(-0.000387858 0.00298868 0.00219196)
(0.000134364 0.00291832 0.00244514)
(-2.46073e-05 0.00254686 0.00368769)
(-0.000903051 0.00163762 0.00441855)
(-0.00108306 2.34259e-05 0.00491696)
(-0.000491961 -0.00265029 0.00540279)
(0.000991762 -0.00787702 0.00523648)
(0.00175705 -0.0147271 0.0042741)
(0.00306471 -0.0261203 0.00299933)
(0.000455359 -0.0404496 0.0021538)
(-0.000156632 -0.0563454 0.000413887)
(-0.000434121 -0.0549235 -0.000429573)
(-0.00208013 -0.0414293 0.00150901)
(-0.00630291 -0.029876 0.00199575)
(-0.00694707 -0.0212807 0.00249842)
(-0.00754208 -0.0156512 0.00286209)
(-0.00677844 -0.0118416 0.00310219)
(-0.00544209 -0.00908591 0.00317778)
(-0.00372844 -0.00687226 0.00330885)
(-0.0019461 -0.00564039 0.00355497)
(-0.000545655 -0.00519169 0.00396731)
(0.000696227 -0.00537149 0.00389771)
(0.00221089 -0.00604354 0.00346917)
(0.00406488 -0.00731396 0.00321897)
(0.00578847 -0.00950279 0.00308916)
(0.00709964 -0.0121986 0.00301762)
(0.00781269 -0.0159685 0.00279529)
(0.00721219 -0.0214999 0.00246923)
(0.00655657 -0.0300402 0.00199286)
(0.00231682 -0.0415487 0.00153814)
(0.000586243 -0.0552243 -0.000307319)
(-0.00137488 -0.0518488 -0.00137056)
(-0.00380086 -0.0407742 0.000284586)
(-0.00917579 -0.0321159 0.000135307)
(-0.0105667 -0.0262098 -0.000184433)
(-0.0112818 -0.0224066 -0.000605325)
(-0.0103032 -0.0197309 -0.00102212)
(-0.00849924 -0.0176874 -0.00130011)
(-0.00601494 -0.0159086 -0.001375)
(-0.00306628 -0.0146632 -0.00111678)
(-0.00073426 -0.0138338 -0.000349528)
(0.00109232 -0.014044 -0.000405621)
(0.00338412 -0.0150177 -0.00119921)
(0.00630534 -0.0162722 -0.0014835)
(0.00877431 -0.0180366 -0.00140616)
(0.0105717 -0.0200582 -0.00111598)
(0.011542 -0.0226961 -0.000682308)
(0.010825 -0.026435 -0.000232876)
(0.0094241 -0.0322892 0.000106191)
(0.00403543 -0.0409054 0.000293731)
(0.00152123 -0.0521041 -0.00125672)
(-0.00286232 -0.0457772 -0.00285828)
(-0.00599637 -0.0374128 -0.00179957)
(-0.0122529 -0.0316892 -0.00256202)
(-0.0140962 -0.028331 -0.00351268)
(-0.0147222 -0.0263899 -0.0044778)
(-0.0133525 -0.0251972 -0.00538474)
(-0.0108608 -0.0242783 -0.00612794)
(-0.00758588 -0.0233316 -0.00662562)
(-0.00371393 -0.0225022 -0.0066194)
(-0.000885511 -0.0216076 -0.00569291)
(0.0012372 -0.0217445 -0.00570953)
(0.00402361 -0.022732 -0.00664662)
(0.00787068 -0.0235686 -0.00669044)
(0.0111366 -0.0245071 -0.00620753)
(0.0136226 -0.0254137 -0.00546319)
(0.0149869 -0.0265898 -0.00454744)
(0.0143566 -0.0285059 -0.0035639)
(0.0125029 -0.0318385 -0.00259842)
(0.00622908 -0.037543 -0.00180208)
(0.00300578 -0.0459818 -0.00276)
(-0.0055685 -0.0341859 -0.00556473)
(-0.00978682 -0.0287376 -0.00510882)
(-0.0165092 -0.0260727 -0.00623634)
(-0.01855 -0.0250852 -0.00749176)
(-0.0189069 -0.0248301 -0.00872941)
(-0.0171168 -0.0249566 -0.00981311)
(-0.0139996 -0.0251205 -0.0107268)
(-0.00988432 -0.025079 -0.011378)
(-0.00486642 -0.024771 -0.0114978)
(-0.0012992 -0.0240323 -0.0103619)
(0.00165619 -0.0240989 -0.010359)
(0.00517263 -0.0248789 -0.0115)
(0.0101634 -0.0251842 -0.0114172)
(0.0142718 -0.0252251 -0.0107824)
(0.0173873 -0.0250606 -0.00987167)
(0.0191756 -0.024932 -0.00878388)
(0.0188162 -0.0251823 -0.00753694)
(0.0167634 -0.0261647 -0.00626803)
(0.010012 -0.0288322 -0.00511279)
(0.00571094 -0.0343213 -0.00548206)
(-0.010895 -0.0205502 -0.0108915)
(-0.0181686 -0.0161972 -0.0120872)
(-0.0246352 -0.0144399 -0.0142411)
(-0.0264544 -0.0137798 -0.0162058)
(-0.0263409 -0.0133805 -0.0181438)
(-0.0239883 -0.0130344 -0.0199427)
(-0.0199782 -0.0124994 -0.0215407)
(-0.0145133 -0.0116777 -0.0227742)
(-0.00753483 -0.0106061 -0.0232277)
(-0.00239877 -0.0095698 -0.0210512)
(0.00276472 -0.00965103 -0.0210494)
(0.00783106 -0.0106886 -0.0232301)
(0.0147954 -0.0117384 -0.022815)
(0.0202616 -0.0125496 -0.0215958)
(0.0242752 -0.0130799 -0.0199997)
(0.0266273 -0.0134238 -0.0181975)
(0.0267349 -0.0138213 -0.016252)
(0.0248976 -0.0144819 -0.0142735)
(0.0183888 -0.0162426 -0.0120932)
(0.0110424 -0.020622 -0.0108237)
(0.00824304 -0.0143468 0.0177238)
(0.0143513 -0.00571686 0.0143459)
(0.0140327 0.00229866 0.00844599)
(0.00494199 0.00920313 0.00363455)
(-0.00600797 -0.00270239 0.000984548)
(-0.00206461 -0.00301143 7.26719e-06)
(-0.00234251 -0.00106007 -7.06203e-05)
(-0.000507285 -0.000469357 -0.000127908)
(-0.00182087 -0.00254828 2.22417e-05)
(-0.000218602 -0.0015286 -0.000297899)
(0.00117763 -0.00257818 -0.000307892)
(0.000588149 -0.00015554 5.29969e-06)
(0.00136717 -0.000392975 -0.00013942)
(0.00272429 -0.00122773 -2.91682e-06)
(0.00222004 -0.00309166 0.000109827)
(0.00667703 -0.00225009 0.00119166)
(-0.00642293 0.00878278 0.00494288)
(-0.0153423 0.001111 0.00938808)
(-0.0152189 -0.0067295 0.0147727)
(-0.00861887 -0.0152853 0.0180168)
(0.00380307 -0.0209266 0.00945337)
(0.00865823 -0.00844297 0.00865339)
(0.0131749 0.00718854 0.0071155)
(0.0120916 0.0128865 0.00623244)
(0.0100109 0.00736786 0.00518909)
(0.00272841 0.00183168 0.00332779)
(-0.00206991 -0.00220177 0.000445005)
(-0.00147859 -0.00199572 -0.000564306)
(-0.00116627 -0.00167887 -0.0015904)
(-0.00034714 0.000244112 -0.00276246)
(0.000211431 -0.00126764 -0.00185178)
(0.0012047 -0.0011329 -0.00130383)
(0.00159109 -0.00206195 -0.000501806)
(0.0020759 -0.00229164 0.000481394)
(-0.00316814 0.00212951 0.00340164)
(-0.0101237 0.00765766 0.00518152)
(-0.0125789 0.01305 0.00587021)
(-0.0132921 0.00613822 0.00688963)
(-0.0089556 -0.00977685 0.00863149)
(-0.0039653 -0.0222116 0.00946473)
(0.00266468 -0.0317798 0.00516511)
(0.00678446 -0.020786 0.00678267)
(0.0115796 -0.00576299 0.00698869)
(0.0157101 0.00610747 0.00689627)
(0.0157293 0.00642057 0.00612156)
(0.0121306 0.00459444 0.0049105)
(0.00783678 0.00231177 0.00394377)
(0.00273795 -0.000529812 0.00206721)
(0.000105102 -0.00182399 -0.00109929)
(-0.000166378 -0.00168018 -0.00352563)
(0.000150991 -0.00184637 -0.00328579)
(-0.000251253 -0.00183272 -0.00076505)
(-0.003055 -0.000469843 0.00219746)
(-0.00818892 0.00239427 0.00393178)
(-0.0123491 0.00478151 0.00480344)
(-0.0157813 0.00672652 0.00590581)
(-0.0156278 0.00640316 0.00640882)
(-0.0112744 -0.0064698 0.00666647)
(-0.00681497 -0.0217324 0.00670689)
(-0.0027002 -0.032959 0.0051536)
(0.0023812 -0.0373025 0.00214716)
(0.00587695 -0.0275812 0.00587801)
(0.00783321 -0.0140836 0.00732771)
(0.0121089 -0.00213124 0.0079123)
(0.014422 0.0034893 0.00724087)
(0.0131077 0.00466538 0.00621635)
(0.0102525 0.00386488 0.00510535)
(0.00690355 0.00240697 0.00354893)
(0.00332323 0.000784204 0.00109263)
(0.000799802 -0.000688123 -0.00236966)
(-0.000894056 -0.00063393 -0.00209134)
(-0.00358472 0.000872836 0.00143318)
(-0.00723694 0.00243882 0.00375394)
(-0.0105873 0.00385935 0.00524971)
(-0.0133338 0.00471262 0.00629331)
(-0.0144533 0.0036586 0.00723872)
(-0.0119279 -0.0018883 0.00779474)
(-0.00753891 -0.0143468 0.0072414)
(-0.00581584 -0.0281581 0.00588138)
(-0.00235978 -0.038236 0.00216182)
(0.00211085 -0.0403975 -0.000207445)
(0.00531388 -0.0313582 0.0053172)
(0.00450224 -0.0192566 0.00786117)
(0.00584521 -0.00758295 0.00931082)
(0.00670878 -0.000164842 0.00951886)
(0.00694186 0.00366437 0.00852859)
(0.0057545 0.00464255 0.00723152)
(0.00407449 0.00442751 0.00581715)
(0.00200436 0.00395767 0.00418205)
(0.000460727 0.00354522 0.00203227)
(-0.000396363 0.00357275 0.00223739)
(-0.00183335 0.00397468 0.00440053)
(-0.00387766 0.00435982 0.00600628)
(-0.00559857 0.00447632 0.00743586)
(-0.00677865 0.00346456 0.00874415)
(-0.00655654 -0.000264214 0.00970112)
(-0.00560758 -0.00750709 0.00940983)
(-0.00424532 -0.019359 0.00790198)
(-0.00519331 -0.0317329 0.00540007)
(-0.002058 -0.0411291 -0.000118272)
(0.00150748 -0.0414376 -0.00207403)
(0.00476543 -0.032108 0.00476977)
(0.00174629 -0.0208858 0.00779536)
(0.00142328 -0.00994747 0.00946183)
(-0.000115946 -0.00232064 0.0103165)
(0.0002565 0.00205654 0.0101731)
(2.0733e-05 0.00377968 0.00930275)
(-0.000166395 0.00453602 0.00843293)
(-0.000439661 0.0046308 0.00779102)
(-0.000273411 0.00435979 0.00724887)
(0.00044322 0.00430995 0.00728516)
(0.000724167 0.00451976 0.0078789)
(0.000527889 0.00440358 0.00853252)
(0.000334076 0.0036187 0.00940048)
(5.23916e-05 0.0019024 0.0102653)
(0.000330162 -0.00238335 0.010377)
(-0.00119727 -0.0099055 0.00953267)
(-0.00150419 -0.0209211 0.00786279)
(-0.00461602 -0.0323849 0.00488966)
(-0.0014467 -0.0420048 -0.0019296)
(0.000283363 -0.04078 -0.00379448)
(0.0035643 -0.0308158 0.00356902)
(-0.000976087 -0.0206769 0.00669945)
(-0.00170443 -0.0114797 0.00818795)
(-0.003239 -0.00530001 0.0090469)
(-0.00325917 -0.00162268 0.00952113)
(-0.00282905 0.000618956 0.00976111)
(-0.00228847 0.00194073 0.0096904)
(-0.00157811 0.00249001 0.00959819)
(-0.000541265 0.00249014 0.00950384)
(0.000888925 0.00239442 0.0094987)
(0.00194227 0.00230216 0.00958838)
(0.0026661 0.0017516 0.00966731)
(0.00318531 0.000426268 0.00970722)
(0.00356917 -0.00180814 0.00946555)
(0.00348988 -0.00542849 0.00901602)
(0.00194512 -0.0115399 0.00819948)
(0.00122236 -0.0206959 0.00674731)
(-0.00337989 -0.0310361 0.0036802)
(-0.000219242 -0.0412173 -0.00362698)
(-0.00180061 -0.0374162 -0.00599015)
(0.000704406 -0.0269304 0.000709214)
(-0.00469451 -0.0189653 0.00325549)
(-0.00555228 -0.0122685 0.00395657)
(-0.00657729 -0.00727689 0.0041567)
(-0.00605354 -0.0037156 0.00435393)
(-0.00491434 -0.00133879 0.00474088)
(-0.00332744 0.000434303 0.00540986)
(-0.00163823 0.0011791 0.00609706)
(-0.000341655 0.00126554 0.00689948)
(0.000739761 0.00119176 0.00682744)
(0.00202005 0.00103605 0.00596618)
(0.00369639 0.000337848 0.00526116)
(0.00525438 -0.0014091 0.00461489)
(0.00636639 -0.00378966 0.00423897)
(0.00686694 -0.00734988 0.00406475)
(0.00581971 -0.0123387 0.00390131)
(0.00493035 -0.0190507 0.00324459)
(-0.000484986 -0.0270943 0.000791982)
(0.00186617 -0.0377203 -0.00582819)
(-0.00510997 -0.028739 -0.00978114)
(-0.00544627 -0.0207169 -0.0054427)
(-0.0111312 -0.0161582 -0.00442518)
(-0.0124642 -0.0135688 -0.00478059)
(-0.0129175 -0.0121945 -0.00561197)
(-0.0115844 -0.011557 -0.00621744)
(-0.0095178 -0.0114115 -0.00658051)
(-0.00688813 -0.0114044 -0.00651248)
(-0.00389682 -0.0114614 -0.00581702)
(-0.00151178 -0.0104166 -0.00373963)
(0.0019518 -0.0104625 -0.00379935)
(0.00427514 -0.011539 -0.00589829)
(0.0072389 -0.0114791 -0.00662701)
(0.0098531 -0.0114854 -0.00670217)
(0.0119059 -0.0116318 -0.00633629)
(0.0132218 -0.0122688 -0.00571907)
(0.0127517 -0.0136458 -0.00486944)
(0.0113837 -0.0162389 -0.00446337)
(0.00564395 -0.0208291 -0.00540936)
(0.00518679 -0.0289102 -0.0096525)
(-0.0120886 -0.0161979 -0.0181636)
(-0.0188729 -0.00945147 -0.01887)
(-0.0254178 -0.00626469 -0.0214569)
(-0.027142 -0.00437902 -0.0241825)
(-0.0271529 -0.00299429 -0.0270233)
(-0.0251037 -0.00179357 -0.0297597)
(-0.0216144 -0.000482253 -0.0321952)
(-0.0168029 0.00102967 -0.0340826)
(-0.0103779 0.00263013 -0.0348528)
(-0.00464329 0.00442378 -0.0325272)
(0.00504603 0.00434156 -0.0325303)
(0.0107223 0.00257071 -0.0348819)
(0.0171373 0.000999044 -0.0341508)
(0.0219362 -0.000499674 -0.0322745)
(0.0254131 -0.00180703 -0.0298375)
(0.0274455 -0.00300883 -0.0270952)
(0.0274129 -0.00439645 -0.0242421)
(0.0256544 -0.00629112 -0.0214907)
(0.0190487 -0.00949537 -0.0188615)
(0.0121823 -0.0162786 -0.0180765)
(0.0065124 -0.00384785 0.0188104)
(0.00844902 0.0022981 0.0140265)
(0.00605934 0.00942691 0.00604526)
(-0.00339228 0.00193154 -0.000966848)
(-0.00261848 -0.00461345 0.000393527)
(-0.00067845 -0.00314211 0.000310142)
(-0.000237882 -0.00135975 0.000610059)
(0.000485827 -0.000436484 0.00043983)
(0.000526592 -0.000100617 8.88987e-05)
(-0.000158803 -0.00205633 0.00102548)
(-4.85619e-05 -0.00028983 -0.000153492)
(0.000265626 -0.00113608 0.000624129)
(-0.000695398 -0.000453816 0.000576049)
(0.000588833 -0.00157899 0.000643164)
(0.000552067 -0.00334921 0.000217431)
(0.00411547 -0.0046239 0.00053936)
(0.000686949 0.00691452 0.00166473)
(-0.00811491 0.00764384 0.0078453)
(-0.00978684 0.00109746 0.0150789)
(-0.00695003 -0.00464978 0.0194926)
(0.00279355 0.00019683 0.0135666)
(0.00711975 0.00718574 0.0131766)
(0.0107559 0.0128952 0.0107721)
(0.010445 0.0092351 0.00887357)
(0.0080836 0.00484164 0.00606547)
(0.00220856 0.000468052 0.00366304)
(-3.26788e-05 -0.00236929 0.00149244)
(4.46015e-05 -0.00231297 3.29465e-05)
(8.94894e-05 -0.00126038 -0.00126832)
(8.17276e-05 -0.00126629 -0.00221922)
(-0.000306032 -0.000559637 -0.00202102)
(-0.000277308 -0.00190453 -0.00100847)
(-0.000341311 -0.00243786 0.000171301)
(-0.000260474 -0.00235515 0.00159163)
(-0.00287903 0.000905517 0.00377487)
(-0.00919401 0.00577487 0.00617715)
(-0.0100285 0.0110806 0.00854249)
(-0.0108892 0.012288 0.0106012)
(-0.00725438 0.00583902 0.013013)
(-0.00295541 -0.00183212 0.0132338)
(0.00257787 -0.0112986 0.00846819)
(0.00699 -0.0057728 0.0115783)
(0.0125879 0.00356823 0.0125912)
(0.0156023 0.00585856 0.0115086)
(0.0148876 0.00520002 0.00931606)
(0.0117722 0.00354529 0.00719084)
(0.00788865 0.00131681 0.00518063)
(0.0036575 -0.00110097 0.00279245)
(0.0013099 -0.00210386 -0.000318727)
(0.000232088 -0.00197886 -0.00288978)
(-0.000480764 -0.00206204 -0.0026535)
(-0.001695 -0.00218886 5.84885e-05)
(-0.00412787 -0.00117861 0.00298257)
(-0.00837631 0.00127885 0.00522765)
(-0.012131 0.00365833 0.0071403)
(-0.0151787 0.00561386 0.0091474)
(-0.0153208 0.00691949 0.011076)
(-0.0122804 0.00337792 0.0120398)
(-0.00680292 -0.00698649 0.0110739)
(-0.00253319 -0.0129919 0.00788898)
(0.00307793 -0.0194948 0.00223585)
(0.00732748 -0.0140925 0.00783377)
(0.0108425 -0.00685603 0.0108423)
(0.0146575 5.85992e-05 0.0114106)
(0.0155469 0.00364144 0.0101862)
(0.0137906 0.00433572 0.00851664)
(0.01082 0.00342532 0.00677267)
(0.0074951 0.0019003 0.0046328)
(0.00396076 3.06598e-05 0.00153119)
(0.00113838 -0.00141331 -0.00227363)
(-0.00136644 -0.00143184 -0.00199407)
(-0.00429205 -1.37856e-05 0.00191723)
(-0.0079014 0.00177991 0.0049267)
(-0.011249 0.00325608 0.0070019)
(-0.0141646 0.00422369 0.00867826)
(-0.0158119 0.00369836 0.0102474)
(-0.0146609 0.000378597 0.0112963)
(-0.0106343 -0.00704343 0.0105489)
(-0.00723977 -0.0148974 0.00754298)
(-0.0030219 -0.0207226 0.00185985)
(0.00296728 -0.025982 -0.00275216)
(0.00785897 -0.019265 0.00450571)
(0.00895361 -0.0120395 0.00895545)
(0.0106483 -0.00431853 0.0108868)
(0.011312 0.00152344 0.0109675)
(0.0104729 0.00448482 0.00980956)
(0.00846631 0.00484792 0.00822547)
(0.00610541 0.00390165 0.00630144)
(0.00350948 0.00260707 0.00387212)
(0.00127521 0.001468 0.000569203)
(-0.00106786 0.00149026 0.000656083)
(-0.00334291 0.00261381 0.00407815)
(-0.00599903 0.00379563 0.00653256)
(-0.00843204 0.00462685 0.00848017)
(-0.0104748 0.00424092 0.0100704)
(-0.0113284 0.00139383 0.0111773)
(-0.0105759 -0.00428207 0.0109855)
(-0.00879583 -0.0122199 0.00891051)
(-0.00777905 -0.0198367 0.00444989)
(-0.00288923 -0.0268009 -0.00286719)
(0.0019943 -0.0298853 -0.00629794)
(0.00779253 -0.0208934 0.00175139)
(0.00696423 -0.0133659 0.00696806)
(0.00721863 -0.00517768 0.00977297)
(0.0060909 0.00151531 0.0109001)
(0.00552138 0.00528672 0.0104206)
(0.00435201 0.00623859 0.00919684)
(0.00306526 0.005905 0.0077625)
(0.0015889 0.00523762 0.00638392)
(0.000473812 0.00478272 0.00494501)
(-0.00025922 0.00477427 0.00492765)
(-0.0012569 0.00521595 0.00641475)
(-0.00269334 0.00583353 0.00782577)
(-0.00401447 0.00610094 0.00929523)
(-0.00525676 0.00514657 0.0105446)
(-0.00591186 0.0014699 0.0110089)
(-0.00705691 -0.00512839 0.00987271)
(-0.00676887 -0.0135031 0.00702682)
(-0.00768897 -0.0213473 0.00182993)
(-0.00191027 -0.0305306 -0.00625865)
(0.000134517 -0.0321218 -0.00917018)
(0.00669645 -0.0206833 -0.000970698)
(0.00448301 -0.0127432 0.00448805)
(0.00445494 -0.00495756 0.00774064)
(0.00275362 0.00077888 0.00941022)
(0.00203952 0.0041377 0.00942037)
(0.00147257 0.00528276 0.00884392)
(0.000963077 0.00536558 0.00815918)
(0.000393335 0.00515558 0.00765375)
(0.000113014 0.00508664 0.00715644)
(0.000174885 0.00504537 0.00710101)
(-7.25313e-06 0.00507341 0.00756015)
(-0.000537257 0.00526695 0.00805447)
(-0.00106857 0.00514771 0.00874931)
(-0.00170085 0.00400894 0.00936804)
(-0.00246575 0.000717414 0.00941113)
(-0.00421436 -0.00496061 0.00781315)
(-0.00422314 -0.0128715 0.00457312)
(-0.00654983 -0.0210603 -0.000864019)
(-5.61162e-05 -0.0326046 -0.00906629)
(-0.00256245 -0.0316927 -0.0122471)
(0.00325313 -0.0189682 -0.00468995)
(-0.000101818 -0.0107985 -9.67428e-05)
(0.000366118 -0.00289206 0.00270319)
(-0.00030872 0.00315296 0.00466793)
(-0.000267561 0.0058996 0.00480234)
(-3.92897e-05 0.00704218 0.00468582)
(0.000245113 0.00753539 0.00473117)
(0.000593808 0.00759729 0.0050347)
(0.000486985 0.00767617 0.00549953)
(-0.000117101 0.00765725 0.00543841)
(-0.000203251 0.00757078 0.00489129)
(0.000156113 0.00752767 0.00455919)
(0.000424695 0.00701731 0.0045165)
(0.000619833 0.00586616 0.00465957)
(0.000630522 0.00314062 0.00458441)
(-6.48792e-05 -0.00282513 0.00273816)
(0.000410273 -0.0109055 -4.58293e-05)
(-0.00307918 -0.0192108 -0.0046164)
(0.00263219 -0.0320253 -0.0121257)
(-0.00623671 -0.0260742 -0.0165035)
(-0.00442739 -0.0161589 -0.0111268)
(-0.00860639 -0.0107831 -0.00860282)
(-0.00831744 -0.00731721 -0.00757632)
(-0.0079778 -0.00530924 -0.00737988)
(-0.0058993 -0.00415346 -0.00668216)
(-0.00398175 -0.00404238 -0.00616087)
(-0.0021396 -0.00418669 -0.00523267)
(-0.000459874 -0.00447849 -0.00370596)
(0.000173434 -0.00225504 -0.00155121)
(0.000282718 -0.00231363 -0.00164989)
(0.000921204 -0.00459065 -0.00391139)
(0.00259036 -0.00429208 -0.00543265)
(0.0044055 -0.0041304 -0.00634357)
(0.00628843 -0.00423767 -0.0068465)
(0.00831747 -0.00538526 -0.00750392)
(0.00863542 -0.0073865 -0.00764811)
(0.00888112 -0.0108642 -0.00862383)
(0.0046214 -0.0162779 -0.0110872)
(0.00630062 -0.0262443 -0.0163908)
(-0.0142418 -0.0144406 -0.0246298)
(-0.0214588 -0.00626504 -0.0254138)
(-0.0281877 -0.00245303 -0.0281847)
(-0.0297037 -7.71379e-05 -0.0314008)
(-0.029523 0.00165902 -0.034864)
(-0.0273657 0.00315285 -0.0383022)
(-0.0238951 0.00478616 -0.0415188)
(-0.0191184 0.00665382 -0.0441582)
(-0.0125715 0.00863373 -0.0454957)
(-0.00603905 0.010635 -0.0428085)
(0.00647564 0.0105637 -0.0428164)
(0.0129343 0.0085967 -0.0455312)
(0.0194663 0.00664107 -0.0442359)
(0.0242215 0.00478162 -0.0416075)
(0.0276704 0.00314968 -0.0383892)
(0.0298022 0.00165289 -0.0349439)
(0.0299567 -8.61436e-05 -0.0314651)
(0.0284059 -0.00247684 -0.0282222)
(0.0216156 -0.00630985 -0.0254092)
(0.0143239 -0.0145164 -0.0245543)
(0.00389232 0.00588509 0.00722478)
(0.00361846 0.00922731 0.00494785)
(-0.00105156 0.00170822 -0.00353338)
(-0.00147873 -0.0049566 -0.0015072)
(-0.00026511 -0.00395633 0.000191811)
(0.000628739 -0.00276335 0.000945095)
(0.0015679 -0.001425 0.00147506)
(0.00191558 -0.000632393 0.00177379)
(0.00143388 -0.000408287 0.00202579)
(0.000710532 -0.000434979 0.0014092)
(-0.000609123 -0.000588705 0.00201268)
(-0.00145971 -0.000334548 0.00191775)
(-0.00192818 -0.000682643 0.00181454)
(-0.00151859 -0.00154789 0.0014747)
(-0.000683438 -0.00296468 0.000803088)
(0.000107472 -0.00432538 0.000372468)
(0.00258726 -0.00447824 -0.00250359)
(-0.0017279 0.00689552 -0.000793088)
(-0.00515006 0.00880755 0.0063449)
(-0.00458198 0.0055202 0.0086032)
(0.00273667 0.0111201 0.0126204)
(0.00625381 0.0128928 0.0120923)
(0.00889596 0.00919983 0.0104828)
(0.008278 0.00555338 0.00831858)
(0.00465855 0.00203179 0.00468424)
(0.00148659 -0.00136806 0.00293447)
(0.0010322 -0.0026609 0.00182304)
(0.00108267 -0.00247937 0.00108461)
(0.0010998 -0.00173512 0.000205131)
(0.000416998 -0.00117138 -0.000771242)
(-0.000898235 -0.00121316 -0.000564526)
(-0.00148532 -0.0018779 0.00047138)
(-0.00145824 -0.0026035 0.00127264)
(-0.00138888 -0.00270414 0.00199414)
(-0.00188988 -0.00118471 0.00308589)
(-0.00549453 0.00249265 0.00497113)
(-0.00903041 0.00668394 0.00893047)
(-0.00874385 0.0110308 0.00993606)
(-0.00614489 0.0129187 0.0125689)
(-0.00290562 0.0106933 0.0130543)
(0.00248 0.00535235 0.0145111)
(0.00690506 0.00609903 0.0157121)
(0.0115149 0.00584125 0.0156116)
(0.0133539 0.0051353 0.0133608)
(0.0125427 0.00405533 0.0105139)
(0.0102763 0.00233218 0.00804292)
(0.00683589 0.000127685 0.00565446)
(0.00361159 -0.00191239 0.00339187)
(0.00174852 -0.00249065 0.000949531)
(0.000448303 -0.00212372 -0.00128103)
(-0.0008819 -0.00219603 -0.00103322)
(-0.00220852 -0.00261836 0.00134548)
(-0.00414813 -0.0020403 0.00367599)
(-0.00735218 -6.18091e-05 0.0058378)
(-0.010706 0.00220366 0.00819088)
(-0.012934 0.00407676 0.0106125)
(-0.0135602 0.00562646 0.0133941)
(-0.0113143 0.00681593 0.015197)
(-0.00659655 0.00603947 0.0155879)
(-0.00244529 0.00460446 0.0142288)
(0.00407918 -0.00533362 0.00695844)
(0.00791422 -0.00214433 0.0121067)
(0.0114126 5.35341e-05 0.0146556)
(0.0140655 0.00273095 0.0140639)
(0.0144247 0.00407927 0.0120624)
(0.0129114 0.00394777 0.00987522)
(0.0102812 0.00284793 0.00777198)
(0.00720167 0.00121225 0.00543638)
(0.00381307 -0.000720388 0.00242099)
(0.0011373 -0.00184421 -0.00087015)
(-0.00142556 -0.0018732 -0.000575536)
(-0.00420121 -0.000825465 0.00282418)
(-0.00763279 0.000990765 0.00577725)
(-0.0107665 0.00254738 0.0080872)
(-0.0133745 0.00362067 0.0101543)
(-0.0148493 0.00381945 0.0122816)
(-0.0143596 0.00269377 0.0141652)
(-0.0114511 0.000127717 0.0144831)
(-0.00787218 -0.00256613 0.0117089)
(-0.00406851 -0.00619699 0.00626752)
(0.00423159 -0.014543 -0.00141468)
(0.00930802 -0.00759266 0.00584815)
(0.0108854 -0.00432316 0.0106487)
(0.0124158 -0.000424885 0.0124148)
(0.0128066 0.00291393 0.0120686)
(0.0118102 0.00455322 0.0106773)
(0.00975253 0.00435729 0.00893782)
(0.00727708 0.00305673 0.00688078)
(0.00449367 0.00133118 0.00424145)
(0.00179942 -0.000573407 0.000726548)
(-0.00162452 -0.000574698 0.000811226)
(-0.00438208 0.00129935 0.00445071)
(-0.00725777 0.00289604 0.00712534)
(-0.00981845 0.00405522 0.00919735)
(-0.0119329 0.00416903 0.0109315)
(-0.012976 0.0025607 0.0122692)
(-0.0125642 -0.000642346 0.0125138)
(-0.0109272 -0.00451784 0.0106033)
(-0.00930112 -0.00801452 0.00570011)
(-0.00412277 -0.0152956 -0.00169012)
(0.00249666 -0.0212896 -0.00694174)
(0.0094588 -0.00995721 0.00142858)
(0.00976941 -0.00518312 0.00722203)
(0.0101833 -0.000581579 0.0101853)
(0.00961785 0.00354203 0.0112658)
(0.00884004 0.00597431 0.0108135)
(0.00739774 0.00630276 0.00962891)
(0.00562992 0.00536704 0.00802678)
(0.00352007 0.00407083 0.0061333)
(0.00141536 0.00306315 0.00382593)
(-0.00113339 0.00304331 0.00376193)
(-0.0031835 0.00405433 0.0061296)
(-0.00529791 0.00529045 0.00807802)
(-0.00712292 0.00614089 0.00971873)
(-0.0086466 0.0057671 0.0109214)
(-0.00951254 0.00336131 0.0113594)
(-0.0101193 -0.000712053 0.0102683)
(-0.00965082 -0.00540627 0.00728493)
(-0.00937974 -0.0103898 0.00148779)
(-0.00237257 -0.0219222 -0.0069417)
(-0.000185307 -0.0262151 -0.0105612)
(0.00818533 -0.011486 -0.00169893)
(0.00773555 -0.00496163 0.00445989)
(0.00785205 -0.000136184 0.00785641)
(0.00670694 0.00357331 0.00967008)
(0.0060427 0.00575715 0.0100099)
(0.00517336 0.00607808 0.00957626)
(0.00403576 0.00532689 0.00877589)
(0.00249417 0.00435658 0.00786161)
(0.000962362 0.00383253 0.00660996)
(-0.00063425 0.003794 0.00651315)
(-0.00208497 0.0043042 0.00774095)
(-0.00360518 0.00525537 0.00867589)
(-0.00477775 0.00596278 0.00950675)
(-0.0057132 0.00562614 0.00998195)
(-0.00643266 0.0034618 0.00969048)
(-0.00762445 -0.000248625 0.00793393)
(-0.0074738 -0.00516882 0.00456104)
(-0.00804022 -0.0118459 -0.00159284)
(0.000294618 -0.026699 -0.0104848)
(-0.00351302 -0.0283341 -0.0140907)
(0.00395485 -0.0122721 -0.00554708)
(0.00269776 -0.00289643 0.000371296)
(0.003857 0.00367565 0.00386215)
(0.00322343 0.00675753 0.00573677)
(0.00341676 0.00815646 0.00641426)
(0.00345534 0.00846746 0.00647516)
(0.00318348 0.00836601 0.00636361)
(0.00262159 0.00817786 0.00636132)
(0.00138914 0.0083298 0.0063118)
(-0.000940137 0.00829177 0.00624062)
(-0.0021887 0.00814507 0.00622277)
(-0.00274371 0.00835342 0.00622802)
(-0.0030412 0.0084415 0.00635742)
(-0.0030411 0.00811963 0.00633025)
(-0.00287546 0.006731 0.00571725)
(-0.00353688 0.00364508 0.00392221)
(-0.00235036 -0.00307176 0.00044569)
(-0.00377514 -0.0125101 -0.00546465)
(0.00359993 -0.0286606 -0.0139905)
(-0.00749183 -0.0250864 -0.0185444)
(-0.00478174 -0.0135695 -0.0124593)
(-0.00757877 -0.00731747 -0.00831311)
(-0.00496064 -0.00293562 -0.00495665)
(-0.00378837 -0.000562815 -0.00320784)
(-0.00228272 -6.44704e-05 -0.00295875)
(-0.000969576 -0.000568985 -0.00300094)
(-1.99684e-05 -0.0011183 -0.00290941)
(0.000745673 -0.00156409 -0.00221513)
(0.000641606 0.00081283 -0.000645948)
(-0.000165829 0.000815641 -0.000691834)
(-0.000256225 -0.00167462 -0.00237806)
(0.000520804 -0.00120472 -0.00308918)
(0.00142928 -0.000649117 -0.00317251)
(0.00269367 -0.000144228 -0.00310646)
(0.00414986 -0.000636069 -0.0033091)
(0.0053077 -0.00300611 -0.00500913)
(0.00784017 -0.00739264 -0.00832529)
(0.00496728 -0.0136736 -0.0124207)
(0.00755726 -0.0252411 -0.0184443)
(-0.0162061 -0.0137804 -0.0264488)
(-0.0241836 -0.00437951 -0.0271374)
(-0.0314028 -7.74425e-05 -0.0296998)
(-0.0328693 0.00249557 -0.0328662)
(-0.0324471 0.00427011 -0.0362744)
(-0.0302008 0.00587017 -0.0399267)
(-0.0268719 0.0076986 -0.0437629)
(-0.022145 0.00982306 -0.0472016)
(-0.0152539 0.0121469 -0.0494067)
(-0.00771952 0.0147947 -0.0477792)
(0.00820806 0.014713 -0.0477608)
(0.0156372 0.0121325 -0.0494686)
(0.0224838 0.00982121 -0.0472833)
(0.0271817 0.0076969 -0.0438474)
(0.0304869 0.00586763 -0.040011)
(0.0327045 0.0042642 -0.0363488)
(0.0330943 0.00248338 -0.0329182)
(0.0315928 -0.000101944 -0.0297294)
(0.0243206 -0.00442131 -0.0271321)
(0.016281 -0.013849 -0.0263813)
(0.000264304 -0.00137677 -0.00904891)
(0.000969622 -0.00269611 -0.0059576)
(0.000372053 -0.00459889 -0.00257406)
(0.000163407 -0.00393777 -0.000242862)
(0.000911963 -0.00315983 0.000925342)
(0.00196268 -0.00229989 0.00196327)
(0.00284483 -0.0013433 0.00264304)
(0.00302097 -0.00071091 0.00322631)
(0.00238125 -0.000464322 0.00374782)
(0.00114908 -0.000523751 0.00396635)
(-0.00118857 -0.000527879 0.00399619)
(-0.00244763 -0.000415278 0.00387004)
(-0.00308262 -0.000727684 0.00329292)
(-0.00285558 -0.00141272 0.00270212)
(-0.00198335 -0.00242325 0.00195685)