# Solver information
# Time        	U_solver      	Ux_initial    	Ux_final      	Ux_iters      	Uy_initial    	Uy_final      	Uy_iters      	U_converged   	p_solver      	p_initial     	p_final       	p_iters       	p_converged   
1             	smoothSolver	1.000000e+00	8.046580e-02	10	1.000000e+00	6.917090e-02	8	false	GAMG	1.000000e+00	7.394060e-02	3	true
2             	smoothSolver	2.342370e-01	2.295180e-02	8	4.057980e-01	3.367500e-02	4	false	GAMG	7.063990e-02	6.066100e-03	6	true
3             	smoothSolver	7.283860e-02	5.170360e-03	8	3.944690e-01	2.092320e-02	4	false	GAMG	6.125610e-02	4.763650e-03	4	true
4             	smoothSolver	3.012590e-02	2.285630e-03	8	2.993340e-01	1.689950e-02	4	false	GAMG	4.751180e-02	2.666770e-03	4	true
5             	smoothSolver	2.037090e-02	1.224980e-03	8	2.175300e-01	1.225510e-02	4	false	GAMG	3.245940e-02	2.210770e-03	4	true
6             	smoothSolver	2.618950e-02	2.102940e-03	6	1.719530e-01	8.833710e-03	4	false	GAMG	3.029780e-02	1.775210e-03	5	true
7             	smoothSolver	1.261160e-02	7.207210e-04	8	1.146010e-01	5.535950e-03	4	false	GAMG	2.972460e-02	2.247100e-03	3	true
8             	smoothSolver	1.587100e-02	1.389930e-03	6	1.043660e-01	4.646250e-03	4	false	GAMG	2.711920e-02	2.141650e-03	3	true
9             	smoothSolver	8.650520e-03	5.263230e-04	8	7.989430e-02	3.660470e-03	4	false	GAMG	3.240670e-02	2.472190e-03	3	true
10            	smoothSolver	1.045920e-02	1.006120e-03	6	7.920170e-02	3.359550e-03	4	false	GAMG	2.720850e-02	2.309520e-03	3	true
11            	smoothSolver	6.601290e-03	4.106710e-04	8	6.046750e-02	2.725790e-03	4	false	GAMG	3.194360e-02	2.247630e-03	3	true
12            	smoothSolver	7.518300e-03	4.332790e-04	8	5.937070e-02	2.471130e-03	4	false	GAMG	2.577710e-02	1.872960e-03	3	true
13            	smoothSolver	5.182770e-03	3.274440e-04	8	4.833670e-02	2.086460e-03	4	false	GAMG	2.992000e-02	1.635760e-03	3	true
14            	smoothSolver	5.638590e-03	3.411620e-04	8	4.764830e-02	1.918190e-03	4	false	GAMG	2.430940e-02	1.693930e-03	3	true
15            	smoothSolver	4.138910e-03	2.671080e-04	8	3.912770e-02	1.655880e-03	4	false	GAMG	2.900380e-02	2.030340e-03	3	true
16            	smoothSolver	4.368630e-03	2.753430e-04	8	3.817560e-02	1.524010e-03	4	false	GAMG	2.392110e-02	1.859360e-03	3	true
17            	smoothSolver	3.384800e-03	2.217670e-04	8	3.335730e-02	1.363560e-03	4	false	GAMG	2.941620e-02	2.140730e-03	3	true
18            	smoothSolver	3.463030e-03	2.255890e-04	8	3.376660e-02	3.288010e-03	2	false	GAMG	2.246990e-02	1.399130e-03	3	true
19            	smoothSolver	2.809930e-03	1.854960e-04	8	3.200440e-02	1.329200e-03	4	false	GAMG	2.411440e-02	1.807390e-03	3	true
20            	smoothSolver	2.893390e-03	1.880280e-04	8	3.143850e-02	1.247050e-03	4	false	GAMG	2.268160e-02	1.522400e-03	3	true
21            	smoothSolver	2.343340e-03	1.559470e-04	8	2.898920e-02	2.847560e-03	2	false	GAMG	2.129720e-02	1.383880e-03	3	true
22            	smoothSolver	2.411390e-03	1.578310e-04	8	2.954210e-02	1.145250e-03	4	false	GAMG	2.014400e-02	1.256200e-03	3	true
23            	smoothSolver	1.974720e-03	1.311390e-04	8	2.711870e-02	2.565800e-03	2	false	GAMG	2.016270e-02	1.943780e-03	2	true
24            	smoothSolver	2.036810e-03	1.332520e-04	8	2.672390e-02	2.552370e-03	2	false	GAMG	1.711500e-02	1.216980e-03	3	true
25            	smoothSolver	1.710010e-03	1.100600e-04	8	2.680230e-02	2.571930e-03	2	false	GAMG	1.833360e-02	1.027930e-03	3	true
26            	smoothSolver	1.785220e-03	1.128230e-04	8	2.696200e-02	2.589070e-03	2	false	GAMG	1.591820e-02	1.470040e-03	2	true
27            	smoothSolver	1.471740e-03	9.222060e-05	8	2.518800e-02	2.422660e-03	2	false	GAMG	1.708780e-02	1.603100e-03	2	true
28            	smoothSolver	1.561580e-03	9.586280e-05	8	2.438280e-02	2.303670e-03	2	false	GAMG	1.540410e-02	1.505570e-03	2	true
29            	smoothSolver	1.298140e-03	7.673590e-05	8	2.330750e-02	2.149650e-03	2	false	GAMG	1.624410e-02	1.563260e-03	2	true
30            	smoothSolver	1.409370e-03	8.157650e-05	8	2.325040e-02	2.074050e-03	2	false	GAMG	1.462340e-02	1.332390e-03	2	true
31            	smoothSolver	1.175730e-03	1.123250e-04	6	2.224440e-02	1.937820e-03	2	false	GAMG	1.530770e-02	1.446240e-03	2	true
32            	smoothSolver	1.298820e-03	1.241930e-04	6	2.168320e-02	1.855020e-03	2	false	GAMG	1.390220e-02	1.224810e-03	2	true
33            	smoothSolver	1.081490e-03	9.339210e-05	6	2.002690e-02	1.682320e-03	2	false	GAMG	1.461590e-02	1.337500e-03	2	true
34            	smoothSolver	1.222150e-03	1.077240e-04	6	1.970210e-02	1.616450e-03	2	false	GAMG	1.335030e-02	1.018000e-03	2	true
35            	smoothSolver	1.011490e-03	7.715210e-05	6	1.812250e-02	1.467820e-03	2	false	GAMG	1.403330e-02	1.249630e-03	2	true
36            	smoothSolver	1.171040e-03	9.355790e-05	6	1.828900e-02	1.448740e-03	2	false	GAMG	1.286410e-02	9.172530e-04	2	true
37            	smoothSolver	9.085160e-04	6.503610e-05	6	1.668270e-02	1.305440e-03	2	false	GAMG	1.319830e-02	1.160280e-03	2	true
38            	smoothSolver	1.012260e-03	7.828040e-05	6	1.686150e-02	1.293520e-03	2	false	GAMG	1.198600e-02	8.642520e-04	2	true
39            	smoothSolver	7.931850e-04	5.424080e-05	6	1.545920e-02	1.174810e-03	2	false	GAMG	1.262030e-02	1.084250e-03	2	true
40            	smoothSolver	8.702150e-04	6.491360e-05	6	1.549360e-02	1.165120e-03	2	false	GAMG	1.159370e-02	8.282700e-04	2	true
41            	smoothSolver	6.778450e-04	4.503430e-05	6	1.429650e-02	1.063840e-03	2	false	GAMG	1.208900e-02	9.900580e-04	2	true
42            	smoothSolver	7.331700e-04	5.309380e-05	6	1.414570e-02	1.037920e-03	2	false	GAMG	1.121870e-02	7.793280e-04	2	true
43            	smoothSolver	5.677060e-04	3.713000e-05	6	1.305190e-02	9.467420e-04	2	false	GAMG	1.168290e-02	8.992010e-04	2	true
44            	smoothSolver	5.961480e-04	4.231020e-05	6	1.281570e-02	9.105720e-04	2	false	GAMG	1.094280e-02	7.280750e-04	2	true
45            	smoothSolver	4.549010e-04	3.076770e-05	6	1.180480e-02	8.294980e-04	2	false	GAMG	1.133290e-02	8.012080e-04	2	true
46            	smoothSolver	4.755740e-04	3.305490e-05	6	1.145120e-02	7.958220e-04	2	false	GAMG	1.072410e-02	6.986010e-04	2	true
47            	smoothSolver	3.638360e-04	2.626820e-05	6	1.057920e-02	7.253610e-04	2	false	GAMG	1.105250e-02	7.185620e-04	2	true
48            	smoothSolver	4.017120e-04	2.527700e-05	6	1.009380e-02	6.924650e-04	2	false	GAMG	1.049910e-02	6.786050e-04	2	true
49            	smoothSolver	3.371770e-04	2.299870e-05	6	9.414030e-03	6.348830e-04	2	false	GAMG	1.081040e-02	6.497670e-04	2	true
50            	smoothSolver	3.877540e-04	3.607520e-05	4	8.802500e-03	5.967500e-04	2	false	GAMG	1.028120e-02	6.677150e-04	2	true
51            	smoothSolver	3.709270e-04	2.082050e-05	6	8.250560e-03	5.608480e-04	2	false	GAMG	1.062150e-02	5.818500e-04	2	true
52            	smoothSolver	4.102570e-04	2.966480e-05	4	7.468360e-03	4.959260e-04	2	false	GAMG	1.011480e-02	6.456650e-04	2	true
53            	smoothSolver	3.959940e-04	3.487410e-05	4	7.280510e-03	4.952090e-04	2	false	GAMG	1.042630e-02	5.291640e-04	2	true
54            	smoothSolver	4.190520e-04	2.594360e-05	4	6.286710e-03	4.183890e-04	2	false	GAMG	9.971160e-03	6.025560e-04	2	true
55            	smoothSolver	3.980480e-04	3.159160e-05	4	6.307500e-03	4.198840e-04	2	false	GAMG	1.025140e-02	5.043960e-04	2	true
56            	smoothSolver	4.095110e-04	2.280240e-05	4	5.398900e-03	3.619520e-04	2	false	GAMG	9.798320e-03	5.610130e-04	2	true
57            	smoothSolver	3.857990e-04	2.755020e-05	4	5.428870e-03	3.620950e-04	2	false	GAMG	1.008660e-02	4.783430e-04	2	true
58            	smoothSolver	3.819100e-04	1.936570e-05	4	4.655730e-03	3.163950e-04	2	false	GAMG	9.618210e-03	5.237450e-04	2	true
59            	smoothSolver	3.470940e-04	2.304250e-05	4	4.669690e-03	3.144420e-04	2	false	GAMG	9.942590e-03	4.490630e-04	2	true
60            	smoothSolver	3.366970e-04	1.587430e-05	4	4.052840e-03	2.787770e-04	2	false	GAMG	9.468150e-03	4.858940e-04	2	true
61            	smoothSolver	2.924720e-04	1.856290e-05	4	4.049080e-03	2.756000e-04	2	false	GAMG	9.833750e-03	4.201500e-04	2	true
62            	smoothSolver	2.864360e-04	1.281420e-05	4	3.589110e-03	2.499440e-04	2	false	GAMG	9.362610e-03	4.491480e-04	2	true
63            	smoothSolver	2.359190e-04	1.448120e-05	4	3.550780e-03	2.455960e-04	2	false	GAMG	9.752610e-03	3.987440e-04	2	true
64            	smoothSolver	2.408560e-04	1.075250e-05	4	3.233140e-03	2.295990e-04	2	false	GAMG	9.290940e-03	4.165630e-04	2	true
65            	smoothSolver	1.898340e-04	1.113690e-05	4	3.148320e-03	2.226010e-04	2	false	GAMG	9.692650e-03	3.880240e-04	2	true
66            	smoothSolver	2.140760e-04	1.009530e-05	4	2.962040e-03	2.164950e-04	2	false	GAMG	9.241150e-03	3.912710e-04	2	true
67            	smoothSolver	1.747550e-04	8.890810e-06	4	2.825090e-03	2.058740e-04	2	false	GAMG	9.650530e-03	3.827260e-04	2	true
68            	smoothSolver	2.070270e-04	1.061800e-05	4	2.744430e-03	2.026860e-04	2	false	GAMG	9.117220e-03	3.491070e-04	2	true
69            	smoothSolver	1.887770e-04	8.497240e-06	4	2.570540e-03	1.859490e-04	2	false	GAMG	9.528920e-03	3.676020e-04	2	true
70            	smoothSolver	2.621950e-04	1.287940e-05	4	2.626980e-03	2.086220e-04	2	false	GAMG	9.444370e-03	3.925760e-04	2	true
71            	smoothSolver	2.229750e-04	9.411650e-06	4	2.460120e-03	2.037030e-04	2	false	GAMG	9.649460e-03	3.753540e-04	2	true
72            	smoothSolver	2.931780e-04	1.470510e-05	4	2.542270e-03	2.267370e-04	2	false	GAMG	9.162640e-03	3.723850e-04	2	true
73            	smoothSolver	2.541000e-04	1.098010e-05	4	2.263900e-03	1.958590e-04	2	false	GAMG	9.677140e-03	4.005080e-04	2	true
74            	smoothSolver	3.259830e-04	1.594160e-05	4	2.415060e-03	2.202280e-04	2	false	GAMG	9.160230e-03	3.888730e-04	2	true
75            	smoothSolver	2.815770e-04	1.237210e-05	4	2.127650e-03	1.873760e-04	2	false	GAMG	9.657070e-03	4.299400e-04	2	true
76            	smoothSolver	3.565420e-04	1.632930e-05	4	2.305580e-03	2.129690e-04	2	false	GAMG	9.108480e-03	4.057870e-04	2	true
77            	smoothSolver	2.941690e-04	1.266270e-05	4	2.047370e-03	1.916130e-04	2	false	GAMG	9.588010e-03	4.386980e-04	2	true
78            	smoothSolver	3.609610e-04	1.564800e-05	4	2.198940e-03	2.049020e-04	2	false	GAMG	9.049870e-03	4.052430e-04	2	true
79            	smoothSolver	2.852650e-04	1.184600e-05	4	1.965190e-03	1.865960e-04	2	false	GAMG	9.511890e-03	4.266120e-04	2	true
80            	smoothSolver	3.424510e-04	1.417950e-05	4	2.100430e-03	1.954650e-04	2	false	GAMG	8.998940e-03	3.922350e-04	2	true
81            	smoothSolver	2.628710e-04	1.043210e-05	4	1.898650e-03	1.790580e-04	2	false	GAMG	9.448940e-03	4.040290e-04	2	true
82            	smoothSolver	3.113230e-04	1.235310e-05	4	2.017750e-03	1.895940e-04	2	false	GAMG	8.962890e-03	3.751470e-04	2	true
83            	smoothSolver	2.338080e-04	8.803960e-06	4	1.843320e-03	1.729510e-04	2	false	GAMG	9.414200e-03	3.803520e-04	2	true
84            	smoothSolver	2.741370e-04	2.723430e-05	2	1.942730e-03	1.839000e-04	2	false	GAMG	8.948220e-03	4.033330e-04	2	true
85            	smoothSolver	1.965500e-04	6.877990e-06	4	1.965130e-03	9.610870e-05	4	false	GAMG	1.031430e-02	4.276180e-04	2	true
86            	smoothSolver	2.032380e-04	1.805630e-05	2	1.845410e-03	1.800870e-04	2	false	GAMG	9.202200e-03	3.452990e-04	2	true
87            	smoothSolver	1.586860e-04	1.301490e-05	2	1.877640e-03	1.773580e-04	2	false	GAMG	9.214570e-03	3.375650e-04	2	true
88            	smoothSolver	1.951470e-04	1.276880e-05	2	1.829530e-03	8.754660e-05	4	false	GAMG	1.040790e-02	4.272080e-04	2	true
89            	smoothSolver	1.823910e-04	1.487090e-05	2	1.898430e-03	8.738090e-05	4	false	GAMG	1.064570e-02	4.397270e-04	2	true
90            	smoothSolver	2.362680e-04	1.732870e-05	2	1.899410e-03	9.448760e-05	4	false	GAMG	1.035650e-02	4.717420e-04	2	true
91            	smoothSolver	2.196020e-04	1.992750e-05	2	1.965560e-03	9.304740e-05	4	false	GAMG	1.059310e-02	4.593660e-04	2	true
92            	smoothSolver	2.850970e-04	2.661360e-05	2	1.969300e-03	1.052720e-04	4	false	GAMG	1.056170e-02	5.664720e-04	2	true
93            	smoothSolver	2.502310e-04	2.467390e-05	2	2.080720e-03	1.056960e-04	4	false	GAMG	1.071080e-02	4.931380e-04	2	true
94            	smoothSolver	2.852680e-04	1.280050e-05	4	1.957590e-03	1.012580e-04	4	false	GAMG	1.017570e-02	4.792400e-04	2	true
95            	smoothSolver	2.613790e-04	1.110610e-05	4	1.896900e-03	8.683780e-05	4	false	GAMG	1.058070e-02	4.945110e-04	2	true
96            	smoothSolver	2.844590e-04	1.212530e-05	4	1.915160e-03	1.009540e-04	4	false	GAMG	1.002270e-02	4.638150e-04	2	true
97            	smoothSolver	2.535960e-04	1.067840e-05	4	1.973150e-03	9.913920e-05	4	false	GAMG	1.049690e-02	4.950510e-04	2	true
98            	smoothSolver	2.649430e-04	1.057560e-05	4	1.897920e-03	9.796240e-05	4	false	GAMG	9.950510e-03	4.502170e-04	2	true
99            	smoothSolver	2.276290e-04	9.462890e-06	4	1.919690e-03	9.574230e-05	4	false	GAMG	1.042270e-02	4.718040e-04	2	true
100           	smoothSolver	2.111600e-04	1.892920e-05	2	1.828750e-03	8.760880e-05	4	false	GAMG	9.848920e-03	4.190630e-04	2	true
101           	smoothSolver	1.683080e-04	7.055120e-06	4	1.908200e-03	9.761940e-05	4	false	GAMG	1.036580e-02	4.151380e-04	2	true
102           	smoothSolver	1.788220e-04	1.501550e-05	2	1.736670e-03	1.735600e-04	2	false	GAMG	9.273070e-03	3.386360e-04	2	true
103           	smoothSolver	1.442230e-04	1.232360e-05	2	1.879940e-03	9.094840e-05	4	false	GAMG	1.006980e-02	3.925420e-04	2	true
104           	smoothSolver	1.880220e-04	1.435140e-05	2	1.875830e-03	1.016180e-04	4	false	GAMG	1.057450e-02	4.578400e-04	2	true
105           	smoothSolver	1.670640e-04	1.350790e-05	2	1.837380e-03	8.698800e-05	4	false	GAMG	1.039230e-02	4.396510e-04	2	true
106           	smoothSolver	2.248240e-04	1.863740e-05	2	1.949800e-03	1.056400e-04	4	false	GAMG	1.032480e-02	4.751710e-04	2	true
107           	smoothSolver	1.901600e-04	1.763700e-05	2	1.835470e-03	9.081910e-05	4	false	GAMG	1.051250e-02	4.776040e-04	2	true
108           	smoothSolver	2.713670e-04	2.614380e-05	2	1.994310e-03	1.082080e-04	4	false	GAMG	1.040760e-02	5.431140e-04	2	true
109           	smoothSolver	2.179850e-04	9.266880e-06	4	1.920890e-03	1.005350e-04	4	false	GAMG	1.072360e-02	4.843080e-04	2	true
110           	smoothSolver	2.935440e-04	1.303790e-05	4	1.896390e-03	9.242060e-05	4	false	GAMG	1.006970e-02	4.840900e-04	2	true
111           	smoothSolver	2.409210e-04	1.062620e-05	4	1.838940e-03	9.138180e-05	4	false	GAMG	1.064480e-02	5.393450e-04	2	true
112           	smoothSolver	3.153070e-04	1.330750e-05	4	2.010370e-03	1.063830e-04	4	false	GAMG	1.001140e-02	4.864460e-04	2	true
113           	smoothSolver	2.493370e-04	1.105890e-05	4	1.930650e-03	1.015490e-04	4	false	GAMG	1.057370e-02	5.412540e-04	2	true
114           	smoothSolver	3.145230e-04	1.276660e-05	4	2.045030e-03	1.081630e-04	4	false	GAMG	9.994770e-03	4.832820e-04	2	true
115           	smoothSolver	2.421850e-04	1.053720e-05	4	1.922820e-03	9.894100e-05	4	false	GAMG	1.051860e-02	5.095760e-04	2	true
116           	smoothSolver	2.979940e-04	1.163110e-05	4	1.974620e-03	9.840560e-05	4	false	GAMG	9.979320e-03	4.646040e-04	2	true
117           	smoothSolver	2.250180e-04	9.417510e-06	4	1.860690e-03	9.084620e-05	4	false	GAMG	1.047300e-02	4.755890e-04	2	true
118           	smoothSolver	2.727630e-04	2.665990e-05	2	1.915140e-03	9.153490e-05	4	false	GAMG	9.956220e-03	4.905370e-04	2	true
119           	smoothSolver	1.972880e-04	7.839310e-06	4	1.941760e-03	1.042580e-04	4	false	GAMG	1.049160e-02	4.486700e-04	2	true
120           	smoothSolver	2.390000e-04	2.290470e-05	2	1.794650e-03	8.156880e-05	4	false	GAMG	9.990540e-03	4.683710e-04	2	true
121           	smoothSolver	1.698240e-04	6.269080e-06	4	1.933540e-03	1.036580e-04	4	false	GAMG	1.051450e-02	4.386330e-04	2	true
122           	smoothSolver	1.794930e-04	1.584150e-05	2	1.790140e-03	8.150810e-05	4	false	GAMG	9.958650e-03	4.056470e-04	2	true
123           	smoothSolver	1.389610e-04	1.151680e-05	2	1.826730e-03	8.741350e-05	4	false	GAMG	1.046400e-02	4.233780e-04	2	true
124           	smoothSolver	1.776330e-04	1.183380e-05	2	1.888000e-03	9.657800e-05	4	false	GAMG	1.032490e-02	4.314770e-04	2	true
125           	smoothSolver	1.580360e-04	1.254360e-05	2	1.807570e-03	8.189030e-05	4	false	GAMG	1.049710e-02	4.447820e-04	2	true
126           	smoothSolver	2.103350e-04	1.575470e-05	2	1.930340e-03	1.008510e-04	4	false	GAMG	1.033000e-02	4.879690e-04	2	true
127           	smoothSolver	1.892860e-04	1.652460e-05	2	1.890380e-03	9.119550e-05	4	false	GAMG	1.049570e-02	4.689180e-04	2	true
128           	smoothSolver	2.530550e-04	2.324040e-05	2	1.985930e-03	1.086220e-04	4	false	GAMG	1.047240e-02	5.710210e-04	2	true
129           	smoothSolver	2.140350e-04	2.028630e-05	2	2.007140e-03	1.067450e-04	4	false	GAMG	1.063620e-02	4.976880e-04	2	true
130           	smoothSolver	2.530660e-04	1.127190e-05	4	1.953060e-03	1.030200e-04	4	false	GAMG	1.009620e-02	4.760820e-04	2	true
131           	smoothSolver	2.240620e-04	9.287050e-06	4	1.818160e-03	8.632090e-05	4	false	GAMG	1.053440e-02	4.906920e-04	2	true
132           	smoothSolver	2.521590e-04	1.068610e-05	4	1.888760e-03	9.999060e-05	4	false	GAMG	1.000150e-02	4.607830e-04	2	true
133           	smoothSolver	2.196850e-04	9.110880e-06	4	1.908680e-03	1.003070e-04	4	false	GAMG	1.048090e-02	4.934710e-04	2	true
134           	smoothSolver	2.123380e-04	1.948990e-05	2	1.873920e-03	9.410880e-05	4	false	GAMG	9.808680e-03	4.452820e-04	2	true
135           	smoothSolver	1.775560e-04	7.414830e-06	4	1.985790e-03	1.082690e-04	4	false	GAMG	1.034940e-02	4.437500e-04	2	true
136           	smoothSolver	1.865310e-04	1.644790e-05	2	1.783410e-03	8.271060e-05	4	false	GAMG	1.019490e-02	4.255600e-04	2	true
137           	smoothSolver	1.390230e-04	1.388720e-05	2	1.962060e-03	1.031010e-04	4	false	GAMG	1.042820e-02	4.315710e-04	2	true
138           	smoothSolver	1.694230e-04	1.270800e-05	2	1.828250e-03	9.106130e-05	4	false	GAMG	1.024520e-02	4.194270e-04	2	true
139           	smoothSolver	1.367780e-04	1.095820e-05	2	1.843820e-03	8.843380e-05	4	false	GAMG	1.051810e-02	4.328180e-04	2	true
140           	smoothSolver	1.907760e-04	1.458670e-05	2	1.886110e-03	1.008680e-04	4	false	GAMG	1.025840e-02	4.528270e-04	2	true
141           	smoothSolver	1.618110e-04	1.383130e-05	2	1.845920e-03	8.869310e-05	4	false	GAMG	1.054830e-02	4.650090e-04	2	true
142           	smoothSolver	2.143540e-04	1.792360e-05	2	1.912630e-03	1.022880e-04	4	false	GAMG	1.019280e-02	4.798700e-04	2	true
143           	smoothSolver	1.717270e-04	1.654630e-05	2	1.851030e-03	8.943510e-05	4	false	GAMG	1.048230e-02	4.758160e-04	2	true
144           	smoothSolver	2.456880e-04	2.332880e-05	2	1.932230e-03	1.026440e-04	4	false	GAMG	1.030100e-02	5.385460e-04	2	true
145           	smoothSolver	1.902620e-04	7.992980e-06	4	1.942820e-03	1.008790e-04	4	false	GAMG	1.065740e-02	4.824600e-04	2	true
146           	smoothSolver	2.614620e-04	2.586120e-05	2	1.841730e-03	8.851380e-05	4	false	GAMG	9.951590e-03	5.279860e-04	2	true
147           	smoothSolver	2.031430e-04	8.560540e-06	4	2.012270e-03	1.088190e-04	4	false	GAMG	1.063710e-02	5.310270e-04	2	true
148           	smoothSolver	2.688180e-04	2.665510e-05	2	1.858160e-03	9.128050e-05	4	false	GAMG	9.958570e-03	5.071340e-04	2	true
149           	smoothSolver	2.043300e-04	8.468720e-06	4	2.074090e-03	1.129710e-04	4	false	GAMG	1.059160e-02	5.448890e-04	2	true
150           	smoothSolver	2.639000e-04	1.067910e-05	4	1.896920e-03	9.702330e-05	4	false	GAMG	9.978630e-03	4.487810e-04	2	true
151           	smoothSolver	2.007920e-04	8.156600e-06	4	1.916980e-03	9.305380e-05	4	false	GAMG	1.050200e-02	5.280190e-04	2	true
152           	smoothSolver	2.538730e-04	2.522310e-05	2	2.043290e-03	1.107180e-04	4	false	GAMG	9.975660e-03	4.756810e-04	2	true
153           	smoothSolver	1.843130e-04	7.216650e-06	4	1.939790e-03	9.890170e-05	4	false	GAMG	1.049210e-02	4.777930e-04	2	true
154           	smoothSolver	2.323900e-04	2.283890e-05	2	1.870780e-03	8.966310e-05	4	false	GAMG	9.965550e-03	4.621650e-04	2	true
155           	smoothSolver	1.657130e-04	1.642160e-05	2	1.864850e-03	9.446760e-05	4	false	GAMG	1.046960e-02	4.763070e-04	2	true
156           	smoothSolver	1.798570e-04	1.595160e-05	2	1.946520e-03	9.597980e-05	4	false	GAMG	9.955160e-03	4.081820e-04	2	true
157           	smoothSolver	1.292980e-04	1.200250e-05	2	1.769030e-03	8.002290e-05	4	false	GAMG	1.044790e-02	4.274370e-04	2	true
158           	smoothSolver	1.666790e-04	1.184610e-05	2	1.926720e-03	9.873180e-05	4	false	GAMG	1.031760e-02	4.293550e-04	2	true
159           	smoothSolver	1.343960e-04	1.093830e-05	2	1.777780e-03	8.275200e-05	4	false	GAMG	1.050420e-02	4.340390e-04	2	true
160           	smoothSolver	1.855100e-04	1.302400e-05	2	1.928830e-03	9.824250e-05	4	false	GAMG	1.033930e-02	4.831230e-04	2	true
161           	smoothSolver	1.633040e-04	1.402450e-05	2	1.888520e-03	9.599750e-05	4	false	GAMG	1.052370e-02	4.603050e-04	2	true
162           	smoothSolver	2.068920e-04	1.691320e-05	2	1.982700e-03	1.037500e-04	4	false	GAMG	1.029390e-02	5.210570e-04	2	true
163           	smoothSolver	1.753110e-04	1.703460e-05	2	1.956160e-03	1.011490e-04	4	false	GAMG	1.046140e-02	4.762410e-04	2	true
164           	smoothSolver	2.067840e-04	1.868310e-05	2	1.943860e-03	9.911880e-05	4	false	GAMG	1.015450e-02	5.071080e-04	2	true
165           	smoothSolver	1.717620e-04	7.387560e-06	4	1.958040e-03	9.766760e-05	4	false	GAMG	1.040490e-02	4.449490e-04	2	true
166           	smoothSolver	2.013690e-04	1.839220e-05	2	1.823890e-03	8.476810e-05	4	false	GAMG	1.006520e-02	4.771770e-04	2	true
167           	smoothSolver	1.594310e-04	1.574100e-05	2	2.038840e-03	1.038170e-04	4	false	GAMG	1.039750e-02	4.564700e-04	2	true
168           	smoothSolver	1.805280e-04	1.575920e-05	2	1.843010e-03	8.883740e-05	4	false	GAMG	1.009020e-02	4.306620e-04	2	true
169           	smoothSolver	1.318190e-04	1.257670e-05	2	1.883080e-03	8.659270e-05	4	false	GAMG	1.045100e-02	4.307810e-04	2	true
170           	smoothSolver	1.588520e-04	1.265050e-05	2	1.802370e-03	8.972940e-05	4	false	GAMG	1.014760e-02	4.067090e-04	2	true
171           	smoothSolver	1.156400e-04	9.417400e-06	2	1.844650e-03	8.539280e-05	4	false	GAMG	1.051600e-02	4.244590e-04	2	true
172           	smoothSolver	1.597330e-04	1.138540e-05	2	1.805880e-03	9.001250e-05	4	false	GAMG	1.016530e-02	4.150570e-04	2	true
173           	smoothSolver	1.263000e-04	9.952710e-06	2	1.840920e-03	8.722880e-05	4	false	GAMG	1.053860e-02	4.497580e-04	2	true
174           	smoothSolver	1.767130e-04	1.307350e-05	2	1.833470e-03	9.106280e-05	4	false	GAMG	1.012990e-02	4.387300e-04	2	true
175           	smoothSolver	1.397640e-04	1.206180e-05	2	1.846140e-03	8.856020e-05	4	false	GAMG	1.050130e-02	4.693820e-04	2	true
176           	smoothSolver	1.852390e-04	1.477800e-05	2	1.856380e-03	9.177240e-05	4	false	GAMG	1.005290e-02	4.541010e-04	2	true
177           	smoothSolver	1.410090e-04	1.320360e-05	2	1.842300e-03	8.845190e-05	4	false	GAMG	1.041320e-02	4.667120e-04	2	true
178           	smoothSolver	1.846880e-04	1.516630e-05	2	1.857470e-03	9.038220e-05	4	false	GAMG	9.978340e-03	4.502170e-04	2	true
179           	smoothSolver	1.377440e-04	1.283800e-05	2	1.826110e-03	8.710910e-05	4	false	GAMG	1.036540e-02	4.454720e-04	2	true
180           	smoothSolver	1.775470e-04	1.419360e-05	2	1.830300e-03	8.755480e-05	4	false	GAMG	9.958460e-03	4.302480e-04	2	true
181           	smoothSolver	1.261860e-04	1.131480e-05	2	1.804010e-03	8.518940e-05	4	false	GAMG	1.037780e-02	4.204920e-04	2	true
182           	smoothSolver	1.613200e-04	1.236340e-05	2	1.796920e-03	8.528960e-05	4	false	GAMG	1.000150e-02	4.086470e-04	2	true
183           	smoothSolver	1.099830e-04	9.211490e-06	2	1.784100e-03	8.372390e-05	4	false	GAMG	1.043690e-02	4.058310e-04	2	true
184           	smoothSolver	1.471530e-04	1.026240e-05	2	1.774270e-03	8.503600e-05	4	false	GAMG	1.005500e-02	4.028320e-04	2	true
185           	smoothSolver	1.062440e-04	7.774250e-06	2	1.780340e-03	8.371650e-05	4	false	GAMG	1.046590e-02	4.112710e-04	2	true
186           	smoothSolver	1.503680e-04	9.889290e-06	2	1.775260e-03	8.594040e-05	4	false	GAMG	1.007880e-02	4.220470e-04	2	true
187           	smoothSolver	1.164770e-04	8.647320e-06	2	1.802430e-03	8.536720e-05	4	false	GAMG	1.044900e-02	4.295580e-04	2	true
188           	smoothSolver	1.610090e-04	1.128730e-05	2	1.787610e-03	8.703220e-05	4	false	GAMG	1.005270e-02	4.399250e-04	2	true
189           	smoothSolver	1.246270e-04	9.960680e-06	2	1.819740e-03	8.657550e-05	4	false	GAMG	1.039540e-02	4.409610e-04	2	true
190           	smoothSolver	1.642040e-04	1.236630e-05	2	1.792390e-03	8.714730e-05	4	false	GAMG	9.983180e-03	4.433630e-04	2	true
191           	smoothSolver	1.256060e-04	1.063700e-05	2	1.820180e-03	8.625480e-05	4	false	GAMG	1.032820e-02	4.399680e-04	2	true
192           	smoothSolver	1.636610e-04	1.253260e-05	2	1.788260e-03	8.608330e-05	4	false	GAMG	9.926680e-03	4.318970e-04	2	true
193           	smoothSolver	1.234620e-04	1.037620e-05	2	1.805610e-03	8.455270e-05	4	false	GAMG	1.030310e-02	4.273490e-04	2	true
194           	smoothSolver	1.579800e-04	1.182130e-05	2	1.779090e-03	8.454130e-05	4	false	GAMG	9.928960e-03	4.133420e-04	2	true
195           	smoothSolver	1.142640e-04	9.353960e-06	2	1.785200e-03	8.277550e-05	4	false	GAMG	1.032980e-02	4.099370e-04	2	true
196           	smoothSolver	1.470960e-04	1.050770e-05	2	1.765070e-03	8.338530e-05	4	false	GAMG	9.980560e-03	3.974850e-04	2	true
197           	smoothSolver	1.018740e-04	7.919170e-06	2	1.765710e-03	8.221300e-05	4	false	GAMG	1.038110e-02	3.983000e-04	2	true
198           	smoothSolver	1.396530e-04	9.107380e-06	2	1.752740e-03	8.318620e-05	4	false	GAMG	1.001640e-02	3.952510e-04	2	true
199           	smoothSolver	9.951860e-05	6.982950e-06	2	1.760640e-03	8.269390e-05	4	false	GAMG	1.041180e-02	4.051790e-04	2	true
200           	smoothSolver	1.435720e-04	9.186580e-06	2	1.757700e-03	8.388950e-05	4	false	GAMG	1.001650e-02	4.088880e-04	2	true
201           	smoothSolver	1.067110e-04	7.780400e-06	2	1.769400e-03	8.353040e-05	4	false	GAMG	1.040540e-02	4.208180e-04	2	true
202           	smoothSolver	1.509470e-04	1.006670e-05	2	1.769440e-03	8.488760e-05	4	false	GAMG	9.979300e-03	4.206900e-04	2	true
203           	smoothSolver	1.113540e-04	8.693300e-06	2	1.773970e-03	8.391940e-05	4	false	GAMG	1.035820e-02	4.287120e-04	2	true
204           	smoothSolver	1.530060e-04	1.076930e-05	2	1.773340e-03	8.507570e-05	4	false	GAMG	9.923440e-03	4.245060e-04	2	true
205           	smoothSolver	1.115890e-04	9.104450e-06	2	1.773490e-03	8.358100e-05	4	false	GAMG	1.029550e-02	4.261070e-04	2	true
206           	smoothSolver	1.532580e-04	1.088500e-05	2	1.769910e-03	8.427510e-05	4	false	GAMG	9.880860e-03	4.191360e-04	2	true
207           	smoothSolver	1.097910e-04	8.864520e-06	2	1.770100e-03	8.262780e-05	4	false	GAMG	1.027530e-02	4.150280e-04	2	true
208           	smoothSolver	1.490340e-04	1.041480e-05	2	1.761790e-03	8.294320e-05	4	false	GAMG	9.885230e-03	4.068170e-04	2	true
209           	smoothSolver	1.036270e-04	8.112090e-06	2	1.763910e-03	8.164320e-05	4	false	GAMG	1.030920e-02	4.007260e-04	2	true
210           	smoothSolver	1.407980e-04	9.525070e-06	2	1.749860e-03	8.212290e-05	4	false	GAMG	9.929950e-03	3.933020e-04	2	true
211           	smoothSolver	9.559990e-05	7.086950e-06	2	1.753780e-03	8.122600e-05	4	false	GAMG	1.035090e-02	3.912480e-04	2	true
212           	smoothSolver	1.348390e-04	8.537740e-06	2	1.743120e-03	8.225590e-05	4	false	GAMG	9.965710e-03	3.894800e-04	2	true
213           	smoothSolver	9.449010e-05	6.483080e-06	2	1.748220e-03	8.138850e-05	4	false	GAMG	1.036650e-02	3.972820e-04	2	true
214           	smoothSolver	1.372310e-04	8.599910e-06	2	1.747200e-03	8.280860e-05	4	false	GAMG	9.975760e-03	4.008710e-04	2	true
215           	smoothSolver	9.956420e-05	6.981690e-06	2	1.753630e-03	8.207420e-05	4	false	GAMG	1.035040e-02	4.076810e-04	2	true
216           	smoothSolver	1.419260e-04	9.215730e-06	2	1.751280e-03	8.325990e-05	4	false	GAMG	9.951630e-03	4.103320e-04	2	true
217           	smoothSolver	1.027480e-04	7.546310e-06	2	1.756610e-03	8.243430e-05	4	false	GAMG	1.030750e-02	4.133750e-04	2	true
218           	smoothSolver	1.429760e-04	9.682850e-06	2	1.750900e-03	8.324060e-05	4	false	GAMG	9.902040e-03	4.129320e-04	2	true
219           	smoothSolver	1.031120e-04	7.817860e-06	2	1.755720e-03	8.222470e-05	4	false	GAMG	1.026240e-02	4.130380e-04	2	true
220           	smoothSolver	1.429950e-04	9.740160e-06	2	1.749390e-03	8.271190e-05	4	false	GAMG	9.859120e-03	4.084460e-04	2	true
221           	smoothSolver	1.021120e-04	7.677560e-06	2	1.753970e-03	8.150460e-05	4	false	GAMG	1.024140e-02	4.068570e-04	2	true
222           	smoothSolver	1.402340e-04	9.401660e-06	2	1.747340e-03	8.186050e-05	4	false	GAMG	9.862840e-03	3.990520e-04	2	true
223           	smoothSolver	9.781110e-05	7.197510e-06	2	1.749100e-03	8.067550e-05	4	false	GAMG	1.026720e-02	3.969150e-04	2	true
224           	smoothSolver	1.349960e-04	8.786050e-06	2	1.741390e-03	8.130670e-05	4	false	GAMG	9.901800e-03	3.887180e-04	2	true
225           	smoothSolver	9.174240e-05	6.511160e-06	2	1.743400e-03	8.045790e-05	4	false	GAMG	1.030190e-02	3.881400e-04	2	true
226           	smoothSolver	1.310860e-04	8.102020e-06	2	1.732950e-03	8.133420e-05	4	false	GAMG	9.927550e-03	3.853800e-04	2	true
227           	smoothSolver	9.048220e-05	6.038110e-06	2	1.742370e-03	8.065420e-05	4	false	GAMG	1.032080e-02	3.917090e-04	2	true
228           	smoothSolver	1.324740e-04	8.089220e-06	2	1.733270e-03	8.187330e-05	4	false	GAMG	9.929250e-03	3.927680e-04	2	true
229           	smoothSolver	9.365280e-05	6.428020e-06	2	1.746550e-03	8.095950e-05	4	false	GAMG	1.031600e-02	4.003380e-04	2	true
230           	smoothSolver	1.355950e-04	8.402720e-06	2	1.735830e-03	8.226280e-05	4	false	GAMG	9.906720e-03	3.987990e-04	2	true
231           	smoothSolver	9.563830e-05	6.782230e-06	2	1.747420e-03	8.109450e-05	4	false	GAMG	1.028580e-02	4.049420e-04	2	true
232           	smoothSolver	1.363930e-04	8.672660e-06	2	1.735060e-03	8.228620e-05	4	false	GAMG	9.868310e-03	4.010200e-04	2	true