# Solver information
# Time        	U_solver      	Ux_initial    	Ux_final      	Ux_iters      	Uy_initial    	Uy_final      	Uy_iters      	U_converged   	p_solver      	p_initial     	p_final       	p_iters       	p_converged   
1             	smoothSolver	1.000000e+00	7.751210e-02	5	1.000000e+00	8.539950e-02	4	false	GAMG	1.000000e+00	5.025410e-02	2	true
2             	smoothSolver	2.418780e-01	1.670130e-02	3	3.007580e-01	2.124500e-02	2	false	GAMG	1.139700e-01	6.168230e-03	4	true
3             	smoothSolver	1.532280e-01	9.032590e-03	3	4.521330e-01	2.045900e-02	2	false	GAMG	8.471140e-02	6.173680e-03	4	true
4             	smoothSolver	5.631620e-02	2.803290e-03	3	4.055510e-01	2.063560e-02	2	false	GAMG	2.065970e-02	1.489170e-03	4	true
5             	smoothSolver	3.252900e-02	2.329370e-03	3	2.982680e-01	1.571860e-02	2	false	GAMG	2.746060e-02	1.747590e-03	3	true
6             	smoothSolver	2.306720e-02	1.525070e-03	3	2.133890e-01	1.178570e-02	2	false	GAMG	2.423550e-02	2.202190e-03	3	true
7             	smoothSolver	1.648030e-02	1.260300e-03	3	1.576490e-01	8.263690e-03	2	false	GAMG	3.000930e-02	2.710520e-03	2	true
8             	smoothSolver	1.293800e-02	9.625600e-04	3	1.264550e-01	6.881850e-03	2	false	GAMG	2.878690e-02	2.722440e-03	2	true
9             	smoothSolver	1.059870e-02	8.200300e-04	3	1.053080e-01	5.579860e-03	2	false	GAMG	2.975590e-02	2.136180e-03	2	true
10            	smoothSolver	8.757850e-03	6.606520e-04	3	9.074350e-02	5.012180e-03	2	false	GAMG	2.936620e-02	2.001040e-03	2	true
11            	smoothSolver	7.469390e-03	5.582180e-04	3	7.852690e-02	4.400680e-03	2	false	GAMG	2.956400e-02	1.821840e-03	2	true
12            	smoothSolver	6.171140e-03	4.475820e-04	3	6.898090e-02	3.963680e-03	2	false	GAMG	2.750800e-02	1.639840e-03	2	true
13            	smoothSolver	5.247380e-03	3.690250e-04	3	6.010670e-02	3.435850e-03	2	false	GAMG	2.626640e-02	1.487150e-03	2	true
14            	smoothSolver	4.290280e-03	2.898140e-04	3	5.294150e-02	3.016070e-03	2	false	GAMG	2.638610e-02	1.351080e-03	2	true
15            	smoothSolver	3.673760e-03	2.343180e-04	3	4.619160e-02	2.590520e-03	2	false	GAMG	2.622490e-02	1.270290e-03	2	true
16            	smoothSolver	2.942850e-03	1.789720e-04	3	4.065220e-02	2.178080e-03	2	false	GAMG	2.469440e-02	1.167380e-03	2	true
17            	smoothSolver	2.518990e-03	1.419160e-04	3	3.606940e-02	1.835870e-03	2	false	GAMG	2.357630e-02	1.074010e-03	2	true
18            	smoothSolver	1.978900e-03	1.053480e-04	3	3.226550e-02	1.500530e-03	2	false	GAMG	2.391100e-02	1.024060e-03	2	true
19            	smoothSolver	1.754530e-03	8.363510e-05	3	2.930190e-02	1.284190e-03	2	false	GAMG	2.368290e-02	9.929890e-04	2	true
20            	smoothSolver	1.349090e-03	6.123880e-05	3	2.586150e-02	1.014130e-03	2	false	GAMG	2.273570e-02	9.369070e-04	2	true
21            	smoothSolver	1.250470e-03	1.211970e-04	2	2.351160e-02	8.592210e-04	2	false	GAMG	2.160520e-02	8.460310e-04	2	true
22            	smoothSolver	9.766950e-04	9.314430e-05	2	2.030760e-02	6.630200e-04	2	false	GAMG	2.240420e-02	8.129260e-04	2	true
23            	smoothSolver	9.948150e-04	8.465530e-05	2	1.830060e-02	5.865270e-04	2	false	GAMG	2.224300e-02	8.129600e-04	2	true
24            	smoothSolver	7.930890e-04	6.626880e-05	2	1.583520e-02	4.591540e-04	2	false	GAMG	2.186440e-02	7.776850e-04	2	true
25            	smoothSolver	8.709080e-04	6.484410e-05	2	1.450530e-02	4.198340e-04	2	false	GAMG	2.046820e-02	7.493640e-04	2	true
26            	smoothSolver	6.989510e-04	5.231550e-05	2	1.284900e-02	3.475890e-04	2	false	GAMG	2.175050e-02	7.342150e-04	2	true
27            	smoothSolver	7.736600e-04	5.327740e-05	2	1.207070e-02	3.462290e-04	2	false	GAMG	2.122950e-02	7.291590e-04	2	true
28            	smoothSolver	6.092040e-04	4.395730e-05	2	1.052430e-02	2.858220e-04	2	false	GAMG	2.111640e-02	6.848460e-04	2	true
29            	smoothSolver	7.240100e-04	4.877280e-05	2	1.000920e-02	2.932170e-04	2	false	GAMG	2.006650e-02	6.648980e-04	2	true
30            	smoothSolver	5.799460e-04	4.067520e-05	2	8.989820e-03	2.543320e-04	2	false	GAMG	2.123250e-02	6.570660e-04	2	true
31            	smoothSolver	6.769690e-04	4.473600e-05	2	8.852010e-03	2.747170e-04	2	false	GAMG	2.090560e-02	6.585210e-04	2	true
32            	smoothSolver	5.317480e-04	3.736270e-05	2	7.849950e-03	2.359030e-04	2	false	GAMG	2.078930e-02	6.311310e-04	2	true
33            	smoothSolver	6.616730e-04	4.359670e-05	2	7.826420e-03	2.543930e-04	2	false	GAMG	1.983110e-02	6.130080e-04	2	true
34            	smoothSolver	5.297900e-04	3.610970e-05	2	7.179120e-03	2.261100e-04	2	false	GAMG	2.101620e-02	6.221490e-04	2	true
35            	smoothSolver	6.360060e-04	4.088260e-05	2	7.414720e-03	2.545050e-04	2	false	GAMG	2.073670e-02	6.209270e-04	2	true
36            	smoothSolver	4.977420e-04	3.380990e-05	2	6.684260e-03	2.213840e-04	2	false	GAMG	2.064570e-02	6.069640e-04	2	true
37            	smoothSolver	6.332270e-04	4.036600e-05	2	6.890890e-03	2.430820e-04	2	false	GAMG	1.970920e-02	5.875750e-04	2	true
38            	smoothSolver	5.056690e-04	3.298550e-05	2	6.405080e-03	2.168190e-04	2	false	GAMG	2.092110e-02	6.073300e-04	2	true
39            	smoothSolver	6.177070e-04	3.809440e-05	2	6.800690e-03	2.484140e-04	2	false	GAMG	2.064950e-02	6.072340e-04	2	true
40            	smoothSolver	4.819940e-04	3.108180e-05	2	6.180200e-03	2.156310e-04	2	false	GAMG	2.058550e-02	5.995010e-04	2	true
41            	smoothSolver	6.202970e-04	3.774750e-05	2	6.488950e-03	2.382650e-04	2	false	GAMG	1.964940e-02	5.801550e-04	2	true
42            	smoothSolver	4.923570e-04	3.030700e-05	2	6.067000e-03	2.118060e-04	2	false	GAMG	2.088640e-02	6.018030e-04	2	true
43            	smoothSolver	6.049020e-04	3.547660e-05	2	6.545490e-03	2.447390e-04	2	false	GAMG	2.060900e-02	6.024090e-04	2	true
44            	smoothSolver	4.677130e-04	2.834500e-05	2	5.961450e-03	2.107990e-04	2	false	GAMG	2.056570e-02	5.935590e-04	2	true
45            	smoothSolver	6.057170e-04	3.493640e-05	2	6.314560e-03	2.343470e-04	2	false	GAMG	1.961870e-02	5.733240e-04	2	true
46            	smoothSolver	4.770070e-04	2.752660e-05	2	5.930600e-03	2.077760e-04	2	false	GAMG	2.087290e-02	5.919380e-04	2	true
47            	smoothSolver	5.896540e-04	3.264690e-05	2	6.445820e-03	2.417200e-04	2	false	GAMG	2.058380e-02	5.937520e-04	2	true
48            	smoothSolver	4.527220e-04	2.558440e-05	2	5.901350e-03	2.074560e-04	2	false	GAMG	2.055360e-02	5.814810e-04	2	true
49            	smoothSolver	5.907490e-04	3.214070e-05	2	6.266650e-03	2.319800e-04	2	false	GAMG	1.959450e-02	5.645380e-04	2	true
50            	smoothSolver	4.631200e-04	2.493750e-05	2	5.897080e-03	2.062670e-04	2	false	GAMG	2.086160e-02	5.823110e-04	2	true
51            	smoothSolver	5.758880e-04	3.001210e-05	2	6.409040e-03	2.398740e-04	2	false	GAMG	2.056510e-02	5.871930e-04	2	true
52            	smoothSolver	4.395440e-04	2.312210e-05	2	5.868540e-03	2.066520e-04	2	false	GAMG	2.054190e-02	5.752480e-04	2	true
53            	smoothSolver	5.777290e-04	2.969470e-05	2	6.228150e-03	2.313720e-04	2	false	GAMG	1.957680e-02	5.615210e-04	2	true
54            	smoothSolver	4.508550e-04	2.269450e-05	2	5.867170e-03	2.063940e-04	2	false	GAMG	2.085010e-02	5.802160e-04	2	true
55            	smoothSolver	5.634110e-04	2.773940e-05	2	6.375870e-03	2.393450e-04	2	false	GAMG	2.055050e-02	5.858770e-04	2	true
56            	smoothSolver	4.281040e-04	2.101240e-05	2	5.848040e-03	2.069120e-04	2	false	GAMG	2.053000e-02	5.746770e-04	2	true
57            	smoothSolver	5.658480e-04	2.763640e-05	2	6.208360e-03	2.307820e-04	2	false	GAMG	1.956370e-02	5.595910e-04	2	true
58            	smoothSolver	4.404760e-04	2.076040e-05	2	5.859150e-03	2.058340e-04	2	false	GAMG	2.083630e-02	5.789990e-04	2	true
59            	smoothSolver	5.524090e-04	2.584150e-05	2	6.376160e-03	2.381510e-04	2	false	GAMG	2.053560e-02	5.818980e-04	2	true
60            	smoothSolver	4.182140e-04	1.921140e-05	2	5.855720e-03	2.059700e-04	2	false	GAMG	2.051300e-02	5.712380e-04	2	true
61            	smoothSolver	5.555290e-04	2.593060e-05	2	6.219440e-03	2.293870e-04	2	false	GAMG	1.954670e-02	5.541370e-04	2	true
62            	smoothSolver	4.306980e-04	1.909570e-05	2	5.867980e-03	2.042450e-04	2	false	GAMG	2.081770e-02	5.746000e-04	2	true
63            	smoothSolver	5.427360e-04	2.428500e-05	2	6.383550e-03	2.367720e-04	2	false	GAMG	2.051710e-02	5.764400e-04	2	true
64            	smoothSolver	4.090420e-04	1.772350e-05	2	5.860390e-03	2.043980e-04	2	false	GAMG	2.049550e-02	5.679190e-04	2	true
65            	smoothSolver	5.470720e-04	2.457190e-05	2	6.221370e-03	2.280180e-04	2	false	GAMG	1.952930e-02	5.503890e-04	2	true
66            	smoothSolver	4.225420e-04	1.778160e-05	2	5.865480e-03	2.025040e-04	2	false	GAMG	2.080130e-02	5.728560e-04	2	true
67            	smoothSolver	5.355160e-04	2.311940e-05	2	6.382420e-03	2.357540e-04	2	false	GAMG	2.050070e-02	5.745800e-04	2	true
68            	smoothSolver	4.020630e-04	1.660370e-05	2	5.855110e-03	2.028620e-04	2	false	GAMG	2.048060e-02	5.671630e-04	2	true
69            	smoothSolver	5.406010e-04	2.354850e-05	2	6.216540e-03	2.270750e-04	2	false	GAMG	1.951490e-02	5.495960e-04	2	true
70            	smoothSolver	4.162500e-04	1.679620e-05	2	5.856810e-03	2.012770e-04	2	false	GAMG	2.078750e-02	5.722740e-04	2	true
71            	smoothSolver	5.295110e-04	2.224600e-05	2	6.376340e-03	2.350990e-04	2	false	GAMG	2.048630e-02	5.743400e-04	2	true
72            	smoothSolver	3.963230e-04	1.575530e-05	2	5.844300e-03	2.016860e-04	2	false	GAMG	2.046810e-02	5.664520e-04	2	true
73            	smoothSolver	5.352710e-04	2.276630e-05	2	6.205670e-03	2.262440e-04	2	false	GAMG	1.950160e-02	5.492310e-04	2	true
74            	smoothSolver	4.111350e-04	1.605840e-05	2	5.842470e-03	2.002990e-04	2	false	GAMG	2.077550e-02	5.710130e-04	2	true
75            	smoothSolver	5.250130e-04	2.157410e-05	2	6.361550e-03	2.341510e-04	2	false	GAMG	2.047270e-02	5.734820e-04	2	true
76            	smoothSolver	3.918680e-04	1.512350e-05	2	5.826240e-03	2.006230e-04	2	false	GAMG	2.045600e-02	5.644690e-04	2	true
77            	smoothSolver	5.313860e-04	2.217830e-05	2	6.187770e-03	2.252180e-04	2	false	GAMG	1.948870e-02	5.474740e-04	2	true
78            	smoothSolver	4.072860e-04	1.553740e-05	2	5.824720e-03	1.994220e-04	2	false	GAMG	2.076270e-02	5.682020e-04	2	true
79            	smoothSolver	5.215020e-04	2.106810e-05	2	6.342290e-03	2.330340e-04	2	false	GAMG	2.045970e-02	5.712720e-04	2	true
80            	smoothSolver	3.883890e-04	1.466690e-05	2	5.808230e-03	1.998230e-04	2	false	GAMG	2.044340e-02	5.615710e-04	2	true
81            	smoothSolver	5.281170e-04	2.173200e-05	2	6.170340e-03	2.243020e-04	2	false	GAMG	1.947640e-02	5.449730e-04	2	true
82            	smoothSolver	4.043570e-04	1.516060e-05	2	5.808580e-03	1.987860e-04	2	false	GAMG	2.075040e-02	5.655500e-04	2	true
83            	smoothSolver	5.185560e-04	2.067350e-05	2	6.325520e-03	2.321660e-04	2	false	GAMG	2.044780e-02	5.688760e-04	2	true
84            	smoothSolver	3.858510e-04	1.432280e-05	2	5.792850e-03	1.992930e-04	2	false	GAMG	2.043220e-02	5.592140e-04	2	true
85            	smoothSolver	5.254820e-04	2.138860e-05	2	6.151130e-03	2.235160e-04	2	false	GAMG	1.946620e-02	5.434660e-04	2	true
86            	smoothSolver	4.021140e-04	1.486630e-05	2	5.791290e-03	1.982530e-04	2	false	GAMG	2.074070e-02	5.645550e-04	2	true
87            	smoothSolver	5.162760e-04	2.036940e-05	2	6.306950e-03	2.314090e-04	2	false	GAMG	2.043870e-02	5.680520e-04	2	true
88            	smoothSolver	3.837800e-04	1.406620e-05	2	5.776870e-03	1.987690e-04	2	false	GAMG	2.042380e-02	5.586310e-04	2	true
89            	smoothSolver	5.234480e-04	2.113940e-05	2	6.133470e-03	2.228180e-04	2	false	GAMG	1.945830e-02	5.427550e-04	2	true
90            	smoothSolver	4.003560e-04	1.465050e-05	2	5.775890e-03	1.977250e-04	2	false	GAMG	2.073300e-02	5.637430e-04	2	true
91            	smoothSolver	5.145710e-04	2.016870e-05	2	6.291070e-03	2.308770e-04	2	false	GAMG	2.043120e-02	5.670010e-04	2	true
92            	smoothSolver	3.822860e-04	1.389910e-05	2	5.762710e-03	1.982880e-04	2	false	GAMG	2.041690e-02	5.575700e-04	2	true
93            	smoothSolver	5.221170e-04	2.099330e-05	2	6.118800e-03	2.223330e-04	2	false	GAMG	1.945140e-02	5.414880e-04	2	true
94            	smoothSolver	3.992250e-04	1.451340e-05	2	5.762970e-03	1.973530e-04	2	false	GAMG	2.072650e-02	5.624260e-04	2	true
95            	smoothSolver	5.135360e-04	2.005750e-05	2	6.278550e-03	2.305670e-04	2	false	GAMG	2.042450e-02	5.655980e-04	2	true
96            	smoothSolver	3.813320e-04	1.379130e-05	2	5.750480e-03	1.979310e-04	2	false	GAMG	2.041090e-02	5.562060e-04	2	true
97            	smoothSolver	5.212070e-04	2.091500e-05	2	6.107650e-03	2.220400e-04	2	false	GAMG	1.944520e-02	5.401180e-04	2	true
98            	smoothSolver	3.983670e-04	1.441980e-05	2	5.752550e-03	1.970660e-04	2	false	GAMG	2.072080e-02	5.609610e-04	2	true
99            	smoothSolver	5.128010e-04	1.999520e-05	2	6.269090e-03	2.303260e-04	2	false	GAMG	2.041870e-02	5.642380e-04	2	true
100           	smoothSolver	3.805560e-04	1.371350e-05	2	5.740370e-03	1.976410e-04	2	false	GAMG	2.040560e-02	5.548220e-04	2	true
101           	smoothSolver	5.206050e-04	2.085980e-05	2	6.098860e-03	2.218010e-04	2	false	GAMG	1.944010e-02	5.388740e-04	2	true
102           	smoothSolver	3.977270e-04	1.435130e-05	2	5.743820e-03	1.968400e-04	2	false	GAMG	2.071590e-02	5.597750e-04	2	true
103           	smoothSolver	5.122690e-04	1.995150e-05	2	6.261190e-03	2.300850e-04	2	false	GAMG	2.041410e-02	5.632170e-04	2	true
104           	smoothSolver	3.800170e-04	1.365520e-05	2	5.731800e-03	1.974290e-04	2	false	GAMG	2.040140e-02	5.538910e-04	2	true
105           	smoothSolver	5.201950e-04	2.081840e-05	2	6.091660e-03	2.216270e-04	2	false	GAMG	1.943640e-02	5.379740e-04	2	true
106           	smoothSolver	3.972910e-04	1.430760e-05	2	5.736830e-03	1.966820e-04	2	false	GAMG	2.071230e-02	5.590050e-04	2	true
107           	smoothSolver	5.119310e-04	1.992050e-05	2	6.254570e-03	2.298870e-04	2	false	GAMG	2.041080e-02	5.624300e-04	2	true
108           	smoothSolver	3.796830e-04	1.362060e-05	2	5.724990e-03	1.973080e-04	2	false	GAMG	2.039850e-02	5.532370e-04	2	true
109           	smoothSolver	5.199220e-04	2.079250e-05	2	6.085610e-03	2.215130e-04	2	false	GAMG	1.943400e-02	5.373200e-04	2	true
110           	smoothSolver	3.971010e-04	1.429270e-05	2	5.731470e-03	1.965580e-04	2	false	GAMG	2.071000e-02	5.585340e-04	2	true
111           	smoothSolver	5.117810e-04	1.990300e-05	2	6.248560e-03	2.297560e-04	2	false	GAMG	2.040890e-02	5.618540e-04	2	true
112           	smoothSolver	3.795940e-04	1.360950e-05	2	5.719750e-03	1.972240e-04	2	false	GAMG	2.039670e-02	5.527140e-04	2	true
113           	smoothSolver	5.198130e-04	2.077870e-05	2	6.080360e-03	2.214230e-04	2	false	GAMG	1.943250e-02	5.367420e-04	2	true
114           	smoothSolver	3.970350e-04	1.429260e-05	2	5.727340e-03	1.964360e-04	2	false	GAMG	2.070860e-02	5.580460e-04	2	true
115           	smoothSolver	5.116560e-04	1.989350e-05	2	6.243710e-03	2.296650e-04	2	false	GAMG	2.040780e-02	5.613310e-04	2	true
116           	smoothSolver	3.795230e-04	1.360660e-05	2	5.716470e-03	1.971440e-04	2	false	GAMG	2.039560e-02	5.522810e-04	2	true
117           	smoothSolver	5.196770e-04	2.076730e-05	2	6.076870e-03	2.213640e-04	2	false	GAMG	1.943160e-02	5.363100e-04	2	true
118           	smoothSolver	3.969510e-04	1.428930e-05	2	5.724380e-03	1.963510e-04	2	false	GAMG	2.070780e-02	5.576910e-04	2	true
119           	smoothSolver	5.115270e-04	1.988380e-05	2	6.240800e-03	2.296380e-04	2	false	GAMG	2.040720e-02	5.610700e-04	2	true
120           	smoothSolver	3.794580e-04	1.360350e-05	2	5.714190e-03	1.970740e-04	2	false	GAMG	2.039500e-02	5.520180e-04	2	true
121           	smoothSolver	5.195830e-04	2.075690e-05	2	6.074760e-03	2.213420e-04	2	false	GAMG	1.943110e-02	5.361580e-04	2	true
122           	smoothSolver	3.968910e-04	1.428390e-05	2	5.722190e-03	1.963050e-04	2	false	GAMG	2.070730e-02	5.574730e-04	2	true
123           	smoothSolver	5.114240e-04	1.987780e-05	2	6.239220e-03	2.296350e-04	2	false	GAMG	2.040680e-02	5.609130e-04	2	true
124           	smoothSolver	3.793940e-04	1.359990e-05	2	5.712870e-03	1.970130e-04	2	false	GAMG	2.039450e-02	5.517700e-04	2	true
125           	smoothSolver	5.194640e-04	2.075130e-05	2	6.073820e-03	2.213130e-04	2	false	GAMG	1.943070e-02	5.359790e-04	2	true
126           	smoothSolver	3.968410e-04	1.428110e-05	2	5.721020e-03	1.962810e-04	2	false	GAMG	2.070680e-02	5.571970e-04	2	true
127           	smoothSolver	5.113580e-04	1.987550e-05	2	6.238700e-03	2.296140e-04	2	false	GAMG	2.040630e-02	5.607110e-04	2	true
128           	smoothSolver	3.793520e-04	1.359640e-05	2	5.711950e-03	1.969620e-04	2	false	GAMG	2.039410e-02	5.514870e-04	2	true
129           	smoothSolver	5.194140e-04	2.074950e-05	2	6.073380e-03	2.212860e-04	2	false	GAMG	1.943030e-02	5.357990e-04	2	true
130           	smoothSolver	3.968130e-04	1.427870e-05	2	5.720130e-03	1.962710e-04	2	false	GAMG	2.070640e-02	5.569910e-04	2	true
131           	smoothSolver	5.113330e-04	1.987350e-05	2	6.238600e-03	2.295870e-04	2	false	GAMG	2.040600e-02	5.606000e-04	2	true
132           	smoothSolver	3.792910e-04	1.359150e-05	2	5.711070e-03	1.969380e-04	2	false	GAMG	2.039380e-02	5.513730e-04	2	true
133           	smoothSolver	5.193800e-04	2.074840e-05	2	6.073100e-03	2.212630e-04	2	false	GAMG	1.943010e-02	5.357430e-04	2	true
134           	smoothSolver	3.967560e-04	1.427720e-05	2	5.719520e-03	1.962610e-04	2	false	GAMG	2.070630e-02	5.569000e-04	2	true
135           	smoothSolver	5.113090e-04	1.987110e-05	2	6.238440e-03	2.295590e-04	2	false	GAMG	2.040590e-02	5.605440e-04	2	true
136           	smoothSolver	3.792260e-04	1.358690e-05	2	5.710230e-03	1.969210e-04	2	false	GAMG	2.039380e-02	5.512820e-04	2	true
137           	smoothSolver	5.193660e-04	2.074830e-05	2	6.072830e-03	2.212450e-04	2	false	GAMG	1.943010e-02	5.356500e-04	2	true
138           	smoothSolver	3.967340e-04	1.427580e-05	2	5.718920e-03	1.962440e-04	2	false	GAMG	2.070620e-02	5.567960e-04	2	true
139           	smoothSolver	5.112890e-04	1.986910e-05	2	6.238200e-03	2.295420e-04	2	false	GAMG	2.040590e-02	5.604180e-04	2	true
140           	smoothSolver	3.791770e-04	1.358310e-05	2	5.709590e-03	1.969160e-04	2	false	GAMG	2.039380e-02	5.511680e-04	2	true
141           	smoothSolver	5.193430e-04	2.074750e-05	2	6.072590e-03	2.212350e-04	2	false	GAMG	1.943010e-02	5.355170e-04	2	true
142           	smoothSolver	3.967030e-04	1.427340e-05	2	5.718580e-03	1.962270e-04	2	false	GAMG	2.070630e-02	5.567060e-04	2	true
143           	smoothSolver	5.112820e-04	1.986740e-05	2	6.238090e-03	2.295350e-04	2	false	GAMG	2.040600e-02	5.603320e-04	2	true
144           	smoothSolver	3.791450e-04	1.358120e-05	2	5.709370e-03	1.969170e-04	2	false	GAMG	2.039380e-02	5.510920e-04	2	true
145           	smoothSolver	5.193290e-04	2.074700e-05	2	6.072370e-03	2.212260e-04	2	false	GAMG	1.943010e-02	5.354600e-04	2	true
146           	smoothSolver	3.966790e-04	1.427030e-05	2	5.718370e-03	1.962150e-04	2	false	GAMG	2.070630e-02	5.566500e-04	2	true
147           	smoothSolver	5.112620e-04	1.986620e-05	2	6.237900e-03	2.295290e-04	2	false	GAMG	2.040600e-02	5.602510e-04	2	true
148           	smoothSolver	3.791410e-04	1.358080e-05	2	5.709280e-03	1.969120e-04	2	false	GAMG	2.039380e-02	5.510450e-04	2	true
149           	smoothSolver	5.193210e-04	2.074610e-05	2	6.072100e-03	2.212130e-04	2	false	GAMG	1.943000e-02	5.353800e-04	2	true
150           	smoothSolver	3.966670e-04	1.426850e-05	2	5.718230e-03	1.962060e-04	2	false	GAMG	2.070620e-02	5.566000e-04	2	true
151           	smoothSolver	5.112200e-04	1.986480e-05	2	6.237650e-03	2.295200e-04	2	false	GAMG	2.040580e-02	5.601570e-04	2	true
152           	smoothSolver	3.791300e-04	1.358100e-05	2	5.709210e-03	1.969010e-04	2	false	GAMG	2.039360e-02	5.509850e-04	2	true
153           	smoothSolver	5.192850e-04	2.074430e-05	2	6.071810e-03	2.212080e-04	2	false	GAMG	1.942990e-02	5.352990e-04	2	true
154           	smoothSolver	3.966460e-04	1.426780e-05	2	5.718050e-03	1.962070e-04	2	false	GAMG	2.070610e-02	5.565570e-04	2	true
155           	smoothSolver	5.112020e-04	1.986380e-05	2	6.237430e-03	2.295120e-04	2	false	GAMG	2.040570e-02	5.600880e-04	2	true
156           	smoothSolver	3.791320e-04	1.358110e-05	2	5.709080e-03	1.968870e-04	2	false	GAMG	2.039360e-02	5.509630e-04	2	true
157           	smoothSolver	5.192600e-04	2.074220e-05	2	6.071470e-03	2.212000e-04	2	false	GAMG	1.942980e-02	5.352480e-04	2	true
158           	smoothSolver	3.966240e-04	1.426780e-05	2	5.717870e-03	1.962020e-04	2	false	GAMG	2.070600e-02	5.565290e-04	2	true
159           	smoothSolver	5.111930e-04	1.986320e-05	2	6.237390e-03	2.295040e-04	2	false	GAMG	2.040560e-02	5.600600e-04	2	true
160           	smoothSolver	3.791210e-04	1.358090e-05	2	5.709000e-03	1.968700e-04	2	false	GAMG	2.039350e-02	5.509290e-04	2	true
161           	smoothSolver	5.192430e-04	2.074050e-05	2	6.071310e-03	2.211940e-04	2	false	GAMG	1.942970e-02	5.352070e-04	2	true
162           	smoothSolver	3.966130e-04	1.426830e-05	2	5.717760e-03	1.961930e-04	2	false	GAMG	2.070590e-02	5.564730e-04	2	true
163           	smoothSolver	5.111910e-04	1.986280e-05	2	6.237330e-03	2.295000e-04	2	false	GAMG	2.040550e-02	5.600360e-04	2	true
164           	smoothSolver	3.791140e-04	1.357970e-05	2	5.708840e-03	1.968610e-04	2	false	GAMG	2.039340e-02	5.508710e-04	2	true
165           	smoothSolver	5.192500e-04	2.074000e-05	2	6.071190e-03	2.211930e-04	2	false	GAMG	1.942970e-02	5.351820e-04	2	true
166           	smoothSolver	3.966120e-04	1.426890e-05	2	5.717660e-03	1.961870e-04	2	false	GAMG	2.070590e-02	5.564150e-04	2	true
167           	smoothSolver	5.111840e-04	1.986280e-05	2	6.237200e-03	2.295030e-04	2	false	GAMG	2.040560e-02	5.600200e-04	2	true
168           	smoothSolver	3.790930e-04	1.357850e-05	2	5.708640e-03	1.968580e-04	2	false	GAMG	2.039340e-02	5.508310e-04	2	true
169           	smoothSolver	5.192400e-04	2.074010e-05	2	6.071100e-03	2.211930e-04	2	false	GAMG	1.942970e-02	5.351850e-04	2	true
170           	smoothSolver	3.966080e-04	1.426850e-05	2	5.717590e-03	1.961840e-04	2	false	GAMG	2.070590e-02	5.563780e-04	2	true
171           	smoothSolver	5.111810e-04	1.986290e-05	2	6.237070e-03	2.295030e-04	2	false	GAMG	2.040560e-02	5.600210e-04	2	true
172           	smoothSolver	3.790820e-04	1.357750e-05	2	5.708510e-03	1.968570e-04	2	false	GAMG	2.039350e-02	5.508030e-04	2	true
173           	smoothSolver	5.192270e-04	2.074030e-05	2	6.071040e-03	2.211880e-04	2	false	GAMG	1.942980e-02	5.351810e-04	2	true
174           	smoothSolver	3.966040e-04	1.426770e-05	2	5.717530e-03	1.961820e-04	2	false	GAMG	2.070600e-02	5.563600e-04	2	true
175           	smoothSolver	5.111750e-04	1.986250e-05	2	6.236960e-03	2.295000e-04	2	false	GAMG	2.040570e-02	5.599970e-04	2	true
176           	smoothSolver	3.790770e-04	1.357720e-05	2	5.708450e-03	1.968590e-04	2	false	GAMG	2.039340e-02	5.507800e-04	2	true
177           	smoothSolver	5.192150e-04	2.074050e-05	2	6.071000e-03	2.211830e-04	2	false	GAMG	1.942980e-02	5.351550e-04	2	true
178           	smoothSolver	3.965990e-04	1.426690e-05	2	5.717500e-03	1.961840e-04	2	false	GAMG	2.070590e-02	5.563430e-04	2	true
179           	smoothSolver	5.111690e-04	1.986220e-05	2	6.236870e-03	2.294970e-04	2	false	GAMG	2.040560e-02	5.599590e-04	2	true
180           	smoothSolver	3.790790e-04	1.357720e-05	2	5.708440e-03	1.968610e-04	2	false	GAMG	2.039340e-02	5.507670e-04	2	true
181           	smoothSolver	5.192240e-04	2.074070e-05	2	6.070910e-03	2.211810e-04	2	false	GAMG	1.942980e-02	5.351220e-04	2	true
182           	smoothSolver	3.966010e-04	1.426650e-05	2	5.717430e-03	1.961870e-04	2	false	GAMG	2.070590e-02	5.563390e-04	2	true
183           	smoothSolver	5.111600e-04	1.986180e-05	2	6.236810e-03	2.294950e-04	2	false	GAMG	2.040560e-02	5.599320e-04	2	true
184           	smoothSolver	3.790770e-04	1.357740e-05	2	5.708420e-03	1.968610e-04	2	false	GAMG	2.039340e-02	5.507660e-04	2	true
185           	smoothSolver	5.192180e-04	2.074040e-05	2	6.070840e-03	2.211790e-04	2	false	GAMG	1.942970e-02	5.350950e-04	2	true
186           	smoothSolver	3.965960e-04	1.426610e-05	2	5.717350e-03	1.961860e-04	2	false	GAMG	2.070590e-02	5.563390e-04	2	true
187           	smoothSolver	5.111640e-04	1.986160e-05	2	6.236790e-03	2.294900e-04	2	false	GAMG	2.040550e-02	5.599090e-04	2	true
188           	smoothSolver	3.790740e-04	1.357740e-05	2	5.708400e-03	1.968580e-04	2	false	GAMG	2.039340e-02	5.507600e-04	2	true
189           	smoothSolver	5.192110e-04	2.073990e-05	2	6.070770e-03	2.211790e-04	2	false	GAMG	1.942970e-02	5.350740e-04	2	true
190           	smoothSolver	3.965840e-04	1.426570e-05	2	5.717290e-03	1.961820e-04	2	false	GAMG	2.070580e-02	5.563270e-04	2	true
191           	smoothSolver	5.111690e-04	1.986130e-05	2	6.236810e-03	2.294880e-04	2	false	GAMG	2.040550e-02	5.598950e-04	2	true
192           	smoothSolver	3.790700e-04	1.357730e-05	2	5.708370e-03	1.968550e-04	2	false	GAMG	2.039340e-02	5.507480e-04	2	true
193           	smoothSolver	5.192070e-04	2.073950e-05	2	6.070710e-03	2.211780e-04	2	false	GAMG	1.942960e-02	5.350600e-04	2	true
194           	smoothSolver	3.965750e-04	1.426570e-05	2	5.717250e-03	1.961770e-04	2	false	GAMG	2.070580e-02	5.563080e-04	2	true
195           	smoothSolver	5.111670e-04	1.986110e-05	2	6.236820e-03	2.294890e-04	2	false	GAMG	2.040550e-02	5.598880e-04	2	true
196           	smoothSolver	3.790680e-04	1.357700e-05	2	5.708310e-03	1.968530e-04	2	false	GAMG	2.039340e-02	5.507350e-04	2	true
197           	smoothSolver	5.192140e-04	2.073950e-05	2	6.070690e-03	2.211780e-04	2	false	GAMG	1.942960e-02	5.350610e-04	2	true
198           	smoothSolver	3.965770e-04	1.426600e-05	2	5.717220e-03	1.961750e-04	2	false	GAMG	2.070580e-02	5.562920e-04	2	true
199           	smoothSolver	5.111590e-04	1.986110e-05	2	6.236820e-03	2.294910e-04	2	false	GAMG	2.040550e-02	5.598900e-04	2	true
200           	smoothSolver	3.790610e-04	1.357690e-05	2	5.708270e-03	1.968510e-04	2	false	GAMG	2.039340e-02	5.507250e-04	2	true
201           	smoothSolver	5.192090e-04	2.073940e-05	2	6.070660e-03	2.211760e-04	2	false	GAMG	1.942960e-02	5.350680e-04	2	true
202           	smoothSolver	3.965790e-04	1.426610e-05	2	5.717200e-03	1.961750e-04	2	false	GAMG	2.070580e-02	5.562820e-04	2	true
203           	smoothSolver	5.111620e-04	1.986120e-05	2	6.236790e-03	2.294900e-04	2	false	GAMG	2.040550e-02	5.598890e-04	2	true
204           	smoothSolver	3.790600e-04	1.357680e-05	2	5.708240e-03	1.968500e-04	2	false	GAMG	2.039340e-02	5.507150e-04	2	true
205           	smoothSolver	5.192000e-04	2.073930e-05	2	6.070630e-03	2.211740e-04	2	false	GAMG	1.942960e-02	5.350620e-04	2	true
206           	smoothSolver	3.965790e-04	1.426610e-05	2	5.717200e-03	1.961760e-04	2	false	GAMG	2.070580e-02	5.562720e-04	2	true
207           	smoothSolver	5.111600e-04	1.986120e-05	2	6.236750e-03	2.294890e-04	2	false	GAMG	2.040550e-02	5.598840e-04	2	true
208           	smoothSolver	3.790610e-04	1.357690e-05	2	5.708220e-03	1.968490e-04	2	false	GAMG	2.039330e-02	5.507090e-04	2	true
209           	smoothSolver	5.191940e-04	2.073930e-05	2	6.070600e-03	2.211730e-04	2	false	GAMG	1.942960e-02	5.350530e-04	2	true
210           	smoothSolver	3.965800e-04	1.426590e-05	2	5.717200e-03	1.961780e-04	2	false	GAMG	2.070580e-02	5.562680e-04	2	true
211           	smoothSolver	5.111550e-04	1.986120e-05	2	6.236710e-03	2.294880e-04	2	false	GAMG	2.040550e-02	5.598780e-04	2	true
212           	smoothSolver	3.790630e-04	1.357670e-05	2	5.708220e-03	1.968490e-04	2	false	GAMG	2.039330e-02	5.507080e-04	2	true
213           	smoothSolver	5.192030e-04	2.073940e-05	2	6.070570e-03	2.211720e-04	2	false	GAMG	1.942960e-02	5.350450e-04	2	true
214           	smoothSolver	3.965840e-04	1.426600e-05	2	5.717200e-03	1.961790e-04	2	false	GAMG	2.070580e-02	5.562680e-04	2	true
215           	smoothSolver	5.111470e-04	1.986120e-05	2	6.236670e-03	2.294870e-04	2	false	GAMG	2.040550e-02	5.598720e-04	2	true
216           	smoothSolver	3.790590e-04	1.357670e-05	2	5.708220e-03	1.968490e-04	2	false	GAMG	2.039330e-02	5.507070e-04	2	true
217           	smoothSolver	5.192000e-04	2.073940e-05	2	6.070550e-03	2.211730e-04	2	false	GAMG	1.942960e-02	5.350390e-04	2	true
218           	smoothSolver	3.965830e-04	1.426570e-05	2	5.717190e-03	1.961790e-04	2	false	GAMG	2.070580e-02	5.562710e-04	2	true
219           	smoothSolver	5.111530e-04	1.986120e-05	2	6.236660e-03	2.294860e-04	2	false	GAMG	2.040550e-02	5.598670e-04	2	true
220           	smoothSolver	3.790600e-04	1.357670e-05	2	5.708220e-03	1.968500e-04	2	false	GAMG	2.039330e-02	5.507060e-04	2	true
221           	smoothSolver	5.191960e-04	2.073930e-05	2	6.070550e-03	2.211730e-04	2	false	GAMG	1.942960e-02	5.350350e-04	2	true
222           	smoothSolver	3.965780e-04	1.426560e-05	2	5.717160e-03	1.961770e-04	2	false	GAMG	2.070580e-02	5.562670e-04	2	true
223           	smoothSolver	5.111580e-04	1.986110e-05	2	6.236650e-03	2.294860e-04	2	false	GAMG	2.040550e-02	5.598610e-04	2	true
224           	smoothSolver	3.790600e-04	1.357680e-05	2	5.708210e-03	1.968510e-04	2	false	GAMG	2.039330e-02	5.506990e-04	2	true
225           	smoothSolver	5.191950e-04	2.073930e-05	2	6.070540e-03	2.211730e-04	2	false	GAMG	1.942960e-02	5.350340e-04	2	true
226           	smoothSolver	3.965750e-04	1.426560e-05	2	5.717140e-03	1.961750e-04	2	false	GAMG	2.070580e-02	5.562620e-04	2	true
227           	smoothSolver	5.111570e-04	1.986100e-05	2	6.236670e-03	2.294860e-04	2	false	GAMG	2.040550e-02	5.598580e-04	2	true
228           	smoothSolver	3.790610e-04	1.357670e-05	2	5.708200e-03	1.968510e-04	2	false	GAMG	2.039330e-02	5.506950e-04	2	true
229           	smoothSolver	5.192050e-04	2.073940e-05	2	6.070550e-03	2.211720e-04	2	false	GAMG	1.942960e-02	5.350340e-04	2	true
230           	smoothSolver	3.965770e-04	1.426570e-05	2	5.717130e-03	1.961740e-04	2	false	GAMG	2.070580e-02	5.562580e-04	2	true
231           	smoothSolver	5.111510e-04	1.986090e-05	2	6.236670e-03	2.294870e-04	2	false	GAMG	2.040550e-02	5.598570e-04	2	true
232           	smoothSolver	3.790550e-04	1.357670e-05	2	5.708180e-03	1.968500e-04	2	false	GAMG	2.039330e-02	5.506920e-04	2	true