/*--------------------------------*- C++ -*----------------------------------*\
| =========                 |                                                 |
| \\      /  F ield         | OpenFOAM: The Open Source CFD Toolbox           |
|  \\    /   O peration     | Version:  v1912                                 |
|   \\  /    A nd           | Website:  www.openfoam.com                      |
|    \\/     M anipulation  |                                                 |
\*---------------------------------------------------------------------------*/
FoamFile
{
    version     2.0;
    format      ascii;
    class       volScalarField;
    location    "1000";
    object      k;
}
// * * * * * * * * * * * * * * * * * * * * * * * * * * * * * * * * * * * * * //

dimensions      [0 2 -2 0 0 0 0];


internalField   nonuniform List<scalar> 
10000
(
1e-15
1e-15
1e-15
1.01062e-15
1.15724e-15
1.28151e-15
1.84218e-15
2.15853e-15
3.30186e-15
3.99374e-15
6.43748e-15
8.03023e-15
1.32749e-14
1.68797e-14
2.87602e-14
3.74606e-14
6.44619e-14
8.59358e-14
9.6143e-13
1.61333e-07
1e-15
1e-15
1.03468e-15
1.08822e-15
1.49532e-15
1.67996e-15
2.68309e-15
3.26955e-15
5.07305e-15
6.04253e-15
1.01746e-14
1.28514e-14
2.05726e-14
2.55683e-14
4.12071e-14
5.91992e-14
8.90614e-14
6.70875e-14
3.55929e-13
1.62374e-08
1e-15
1e-15
1e-15
1e-15
1e-15
1e-15
1e-15
1e-15
1e-15
1e-15
1e-15
1.05348e-15
1.31131e-15
1.57756e-15
2.88941e-15
4.03096e-15
1.54991e-14
1.76441e-14
9.16183e-14
2.21269e-07
1e-15
1e-15
1e-15
1e-15
1e-15
1e-15
1e-15
1e-15
1e-15
1e-15
1e-15
1e-15
1e-15
1e-15
1.00525e-15
1e-15
1.05416e-15
1.04801e-15
8.23786e-15
1.04765e-15
1e-15
1e-15
1e-15
1e-15
1e-15
1e-15
1e-15
1e-15
1e-15
1e-15
1e-15
1e-15
1e-15
1e-15
1.01055e-15
1e-15
1e-15
1e-15
8.32991e-13
6.77976e-15
1e-15
1e-15
1e-15
1e-15
1e-15
1e-15
1e-15
1.00593e-15
1e-15
1e-15
1e-15
1e-15
1e-15
1e-15
1.00898e-15
1e-15
1e-15
1e-15
4.60098e-14
1.32989e-15
1e-15
1e-15
1e-15
1e-15
1e-15
1e-15
1e-15
1e-15
1.00964e-15
1e-15
1e-15
1e-15
1e-15
1e-15
1e-15
1e-15
1.011e-15
1e-15
2.99216e-13
7.35653e-15
1e-15
1e-15
1e-15
1e-15
1e-15
1e-15
1e-15
1e-15
1e-15
1e-15
1e-15
1.01154e-15
1e-15
1e-15
1e-15
1e-15
1e-15
1e-15
2.96779e-14
1.81941e-14
1e-15
1e-15
1e-15
1e-15
1e-15
1e-15
1e-15
1e-15
1.00985e-15
1e-15
1e-15
1e-15
1.00938e-15
1e-15
1e-15
1e-15
1e-15
1e-15
1.56271e-15
1.82259e-15
1e-15
1e-15
1e-15
1e-15
1e-15
1e-15
1e-15
1.00859e-15
1e-15
1e-15
1e-15
1e-15
1e-15
1.00412e-15
1e-15
1e-15
1e-15
1.00986e-15
1e-15
1e-15
1e-15
1e-15
1e-15
1e-15
1e-15
1e-15
1e-15
1e-15
1e-15
1e-15
1e-15
1e-15
1e-15
1.01454e-15
1e-15
1e-15
1e-15
1e-15
1e-15
1e-15
1e-15
1e-15
1e-15
1e-15
1e-15
1e-15
1e-15
1e-15
1e-15
1e-15
1e-15
1e-15
1e-15
1e-15
1.01406e-15
1e-15
1e-15
1e-15
1e-15
1e-15
1e-15
1e-15
1e-15
1e-15
1e-15
1e-15
1e-15
1e-15
1e-15
1e-15
1e-15
1e-15
1.01432e-15
1e-15
1e-15
1.00456e-15
1e-15
1e-15
1e-15
1e-15
1e-15
1e-15
1e-15
1e-15
1e-15
1e-15
1e-15
1e-15
1e-15
1e-15
1e-15
1.01457e-15
1e-15
1e-15
1e-15
1e-15
1e-15
1e-15
1e-15
1e-15
1e-15
1e-15
1e-15
1e-15
1e-15
1e-15
1e-15
1e-15
1e-15
1e-15
1.01491e-15
1e-15
1e-15
1e-15
1e-15
1e-15
1e-15
1e-15
1e-15
1e-15
1e-15
1e-15
1e-15
1e-15
1e-15
1e-15
1e-15
1e-15
1e-15
1.01509e-15
1e-15
1e-15
1e-15
1e-15
1e-15
1e-15
1e-15
1e-15
1.01477e-15
1e-15
1e-15
1e-15
1e-15
1e-15
1e-15
1e-15
1e-15
1e-15
1e-15
1e-15
1.01601e-15
1e-15
1e-15
1e-15
1e-15
1e-15
1e-15
1e-15
1.0148e-15
1e-15
1e-15
1e-15
1e-15
1e-15
1e-15
1e-15
1e-15
1e-15
1e-15
1e-15
1.01613e-15
1e-15
1e-15
1e-15
1e-15
1e-15
1e-15
1.01228e-15
1e-15
1e-15
1e-15
1e-15
1e-15
1e-15
1e-15
1e-15
1e-15
1e-15
1e-15
1.01588e-15
1e-15
1e-15
1e-15
1e-15
1e-15
1.00685e-15
1e-15
1e-15
1e-15
1e-15
1e-15
1e-15
1e-15
1e-15
1e-15
1e-15
1e-15
1e-15
1e-15
1e-15
1.01642e-15
1e-15
1e-15
1e-15
1e-15
1e-15
1e-15
1e-15
1e-15
1e-15
1e-15
1e-15
1e-15
1e-15
1e-15
1e-15
1e-15
1e-15
1e-15
1e-15
1e-15
1e-15
1e-15
1e-15
1.01648e-15
1e-15
1e-15
1e-15
1e-15
1e-15
1e-15
1e-15
1e-15
1e-15
1e-15
1e-15
1e-15
1e-15
1e-15
1e-15
1e-15
1e-15
1e-15
1e-15
1e-15
1.0158e-15
1e-15
1e-15
1e-15
1e-15
1e-15
1e-15
1e-15
1e-15
1e-15
1e-15
1e-15
1e-15
1e-15
1e-15
1e-15
1e-15
1e-15
1e-15
1e-15
1e-15
1.01543e-15
1e-15
1e-15
1e-15
1e-15
1e-15
1e-15
1e-15
1e-15
1e-15
1e-15
1e-15
1e-15
1e-15
1e-15
1e-15
1e-15
1e-15
1e-15
1e-15
1.01572e-15
1e-15
1e-15
1e-15
1e-15
1e-15
1e-15
1e-15
1e-15
1e-15
1e-15
1e-15
1.01577e-15
1e-15
1e-15
1e-15
1e-15
1e-15
1e-15
1.01428e-15
1e-15
1e-15
1e-15
1e-15
1e-15
1e-15
1e-15
1e-15
1e-15
1e-15
1e-15
1e-15
1e-15
1e-15
1e-15
1e-15
1e-15
1e-15
1e-15
1e-15
1.0144e-15
1e-15
1e-15
1e-15
1e-15
1e-15
1e-15
1e-15
1e-15
1e-15
1e-15
1e-15
1e-15
1e-15
1.00264e-15
1e-15
1e-15
1e-15
1e-15
1e-15
1e-15
1.01433e-15
1e-15
1e-15
1e-15
1e-15
1e-15
1e-15
1e-15
1.00078e-15
1e-15
1e-15
1e-15
1e-15
1e-15
1e-15
1e-15
1e-15
1e-15
1e-15
1e-15
1e-15
1.01496e-15
1e-15
1e-15
1e-15
1e-15
1e-15
1e-15
1e-15
1e-15
1e-15
1.01618e-15
1e-15
1e-15
1e-15
1e-15
1e-15
1e-15
1e-15
1e-15
1e-15
1e-15
1e-15
1e-15
1e-15
1e-15
1e-15
1e-15
1e-15
1e-15
1.01412e-15
1e-15
1e-15
1e-15
1e-15
1e-15
1.00731e-15
1e-15
1e-15
1e-15
1e-15
1e-15
1e-15
1e-15
1e-15
1e-15
1e-15
1e-15
1e-15
1.00991e-15
1e-15
1e-15
1e-15
1e-15
1e-15
1.00661e-15
1e-15
1e-15
1e-15
1e-15
1e-15
1.00926e-15
1e-15
1e-15
1e-15
1e-15
1e-15
1e-15
1e-15
1e-15
1.01445e-15
1e-15
1e-15
1e-15
1.01427e-15
1e-15
1e-15
1e-15
1e-15
1e-15
1.0092e-15
1e-15
1e-15
1e-15
1e-15
1e-15
1e-15
1e-15
1e-15
1e-15
1.01446e-15
1e-15
1e-15
1e-15
1e-15
1.01734e-15
1e-15
1e-15
1e-15
1e-15
1e-15
1.00917e-15
1e-15
1e-15
1e-15
1e-15
1e-15
1e-15
1e-15
1.01011e-15
1e-15
1e-15
1e-15
1e-15
1e-15
1.00693e-15
1e-15
1e-15
1e-15
1e-15
1e-15
1.00987e-15
1e-15
1e-15
1e-15
1e-15
1e-15
1e-15
1e-15
1e-15
1.01449e-15
1e-15
1e-15
1e-15
1e-15
1e-15
1.01766e-15
1e-15
1e-15
1e-15
1e-15
1e-15
1e-15
1e-15
1e-15
1e-15
1e-15
1e-15
1.00128e-15
1e-15
1e-15
1e-15
1e-15
1e-15
1.00538e-15
1e-15
1e-15
1e-15
1e-15
1e-15
1e-15
1e-15
1e-15
1e-15
1e-15
1e-15
1e-15
1e-15
1e-15
1e-15
1e-15
1e-15
1e-15
1.00324e-15
1e-15
1e-15
1e-15
1e-15
1e-15
1.00931e-15
1e-15
1e-15
1e-15
1e-15
1e-15
1e-15
1e-15
1e-15
1e-15
1e-15
1e-15
1e-15
1e-15
1.00335e-15
1e-15
1e-15
1e-15
1e-15
1e-15
1.00957e-15
1e-15
1e-15
1e-15
1e-15
1e-15
1e-15
1e-15
1e-15
1e-15
1e-15
1e-15
1e-15
1e-15
1.0033e-15
1e-15
1e-15
1e-15
1e-15
1e-15
1.00939e-15
1e-15
1e-15
1e-15
1e-15
1e-15
1e-15
1e-15
1e-15
1.00156e-15
1e-15
1e-15
1e-15
1e-15
1e-15
1e-15
1e-15
1.01693e-15
1e-15
1e-15
1e-15
1e-15
1e-15
1e-15
1e-15
1e-15
1e-15
1e-15
1e-15
1e-15
1.01036e-15
1e-15
1e-15
1e-15
1e-15
1e-15
1.00686e-15
1e-15
1e-15
1e-15
1e-15
1e-15
1.00963e-15
1e-15
1e-15
1e-15
1e-15
1e-15
1e-15
1.00155e-15
1e-15
1e-15
1e-15
1e-15
1e-15
1.00549e-15
1e-15
1e-15
1e-15
1e-15
1e-15
1.00941e-15
1e-15
1e-15
1e-15
1e-15
1e-15
1e-15
1e-15
1e-15
1e-15
1e-15
1e-15
1e-15
1.00332e-15
1e-15
1e-15
1e-15
1e-15
1e-15
1.00922e-15
1e-15
1e-15
1e-15
1e-15
1e-15
1e-15
1e-15
1e-15
1.00164e-15
1e-15
1e-15
1e-15
1e-15
1e-15
1e-15
1e-15
1e-15
1e-15
1.006e-15
1e-15
1e-15
1e-15
1e-15
1e-15
1e-15
1e-15
1e-15
1e-15
1e-15
1.01041e-15
1e-15
1e-15
1e-15
1.01375e-15
1e-15
1e-15
1e-15
1e-15
1e-15
1.00948e-15
1e-15
1e-15
1e-15
1e-15
1e-15
1e-15
1e-15
1e-15
1e-15
1e-15
1.0148e-15
1e-15
1e-15
1e-15
1.01452e-15
1e-15
1e-15
1e-15
1e-15
1e-15
1.00955e-15
1e-15
1e-15
1e-15
1e-15
1e-15
1e-15
1e-15
1e-15
1.01049e-15
1e-15
1e-15
1e-15
1e-15
1e-15
1.00692e-15
1e-15
1e-15
1e-15
1e-15
1e-15
1.00958e-15
1e-15
1e-15
1e-15
1e-15
1e-15
1e-15
1e-15
1e-15
1e-15
1e-15
1e-15
1e-15
1e-15
1e-15
1.01723e-15
1e-15
1e-15
1e-15
1e-15
1e-15
1.00913e-15
1e-15
1e-15
1e-15
1e-15
1e-15
1e-15
1.01045e-15
1e-15
1e-15
1e-15
1e-15
1e-15
1.00702e-15
1e-15
1e-15
1e-15
1e-15
1e-15
1.00976e-15
1e-15
1e-15
1e-15
1e-15
1e-15
1e-15
1e-15
1e-15
1e-15
1e-15
1e-15
1e-15
1e-15
1e-15
1.01727e-15
1e-15
1e-15
1e-15
1e-15
1e-15
1.00921e-15
1e-15
1e-15
1e-15
1e-15
1e-15
1e-15
1.01046e-15
1e-15
1e-15
1e-15
1e-15
1e-15
1.00707e-15
1e-15
1e-15
1e-15
1e-15
1e-15
1.00972e-15
1e-15
1e-15
1e-15
1e-15
1e-15
1e-15
1e-15
1.01052e-15
1e-15
1e-15
1e-15
1e-15
1e-15
1.00705e-15
1e-15
1e-15
1e-15
1e-15
1e-15
1.00969e-15
1e-15
1e-15
1e-15
1e-15
1e-15
1e-15
1.00176e-15
1e-15
1e-15
1e-15
1e-15
1e-15
1.0057e-15
1e-15
1e-15
1e-15
1e-15
1e-15
1.00966e-15
1e-15
1e-15
1e-15
1e-15
1e-15
1e-15
1e-15
1e-15
1.0105e-15
1e-15
1e-15
1e-15
1e-15
1e-15
1.00702e-15
1e-15
1e-15
1e-15
1e-15
1e-15
1.00967e-15
1e-15
1e-15
1e-15
1e-15
1e-15
1e-15
1e-15
1e-15
1.01487e-15
1e-15
1e-15
1e-15
1e-15
1e-15
1.00785e-15
1e-15
1e-15
1e-15
1e-15
1e-15
1.00964e-15
1e-15
1e-15
1e-15
1e-15
1e-15
1e-15
1.01045e-15
1e-15
1e-15
1e-15
1e-15
1e-15
1.00697e-15
1e-15
1e-15
1e-15
1e-15
1e-15
1.0097e-15
1e-15
1e-15
1e-15
1e-15
1e-15
1e-15
1e-15
1e-15
1e-15
1e-15
1e-15
1.00334e-15
1e-15
1e-15
1e-15
1e-15
1e-15
1e-15
1e-15
1.00899e-15
1e-15
1e-15
1e-15
1e-15
1e-15
1e-15
1e-15
1e-15
1e-15
1e-15
1.01735e-15
1e-15
1e-15
1e-15
1e-15
1e-15
1e-15
1e-15
1e-15
1.00356e-15
1e-15
1e-15
1e-15
1e-15
1e-15
1e-15
1e-15
1e-15
1e-15
1.01689e-15
1e-15
1e-15
1e-15
1e-15
1e-15
1e-15
1e-15
1e-15
1e-15
1.01637e-15
1e-15
1e-15
1e-15
1e-15
1e-15
1e-15
1e-15
1e-15
1.01353e-15
1e-15
1e-15
1e-15
1e-15
1e-15
1.00775e-15
1e-15
1e-15
1e-15
1.01509e-15
1e-15
1e-15
1e-15
1e-15
1e-15
1e-15
1e-15
1e-15
1.0105e-15
1e-15
1e-15
1e-15
1e-15
1e-15
1.00698e-15
1e-15
1e-15
1e-15
1e-15
1e-15
1.00966e-15
1e-15
1e-15
1e-15
1e-15
1e-15
1e-15
1.00174e-15
1e-15
1e-15
1e-15
1e-15
1e-15
1.00562e-15
1e-15
1e-15
1e-15
1e-15
1e-15
1.00952e-15
1e-15
1e-15
1e-15
1e-15
1e-15
1e-15
1e-15
1e-15
1e-15
1e-15
1e-15
1e-15
1.00344e-15
1e-15
1e-15
1e-15
1e-15
1e-15
1.0094e-15
1e-15
1e-15
1e-15
1e-15
1e-15
1e-15
1e-15
1e-15
1e-15
1e-15
1e-15
1e-15
1e-15
1e-15
1.00522e-15
1e-15
1e-15
1e-15
1e-15
1e-15
1.00951e-15
1e-15
1e-15
1e-15
1e-15
1e-15
1e-15
1e-15
1e-15
1.01049e-15
1e-15
1e-15
1e-15
1e-15
1e-15
1.007e-15
1e-15
1e-15
1e-15
1e-15
1e-15
1.00961e-15
1e-15
1e-15
1e-15
1e-15
1e-15
1e-15
1e-15
1e-15
1.01352e-15
1e-15
1e-15
1e-15
1e-15
1e-15
1.00773e-15
1e-15
1e-15
1e-15
1e-15
1e-15
1.00966e-15
1e-15
1e-15
1e-15
1e-15
1e-15
1e-15
1e-15
1e-15
1.01691e-15
1e-15
1e-15
1e-15
1e-15
1e-15
1.00834e-15
1e-15
1e-15
1e-15
1e-15
1e-15
1e-15
1e-15
1e-15
1e-15
1e-15
1e-15
1e-15
1e-15
1e-15
1e-15
1e-15
1e-15
1e-15
1e-15
1e-15
1e-15
1e-15
1.01602e-15
1e-15
1e-15
1e-15
1e-15
1e-15
1e-15
1e-15
1e-15
1e-15
1e-15
1e-15
1e-15
1.00341e-15
1e-15
1e-15
1e-15
1e-15
1e-15
1.00928e-15
1e-15
1e-15
1e-15
1e-15
1e-15
1e-15
1e-15
1e-15
1.00175e-15
1e-15
1e-15
1e-15
1e-15
1e-15
1e-15
1e-15
1e-15
1e-15
1e-15
1.0141e-15
1e-15
1e-15
1e-15
1e-15
1e-15
1e-15
1e-15
1e-15
1e-15
1e-15
1e-15
1.00967e-15
1e-15
1e-15
1e-15
1e-15
1e-15
1.00872e-15
1e-15
1e-15
1e-15
1e-15
1e-15
1e-15
1e-15
1e-15
1e-15
1e-15
1e-15
1e-15
1e-15
1e-15
1e-15
1e-15
1e-15
1e-15
1.00353e-15
1e-15
1e-15
1e-15
1e-15
1e-15
1.00973e-15
1e-15
1e-15
1e-15
1e-15
1e-15
1e-15
1e-15
1e-15
1e-15
1e-15
1e-15
1e-15
1.00503e-15
1e-15
1e-15
1e-15
1e-15
1e-15
1.00971e-15
1e-15
1e-15
1e-15
1e-15
1e-15
1e-15
1e-15
1e-15
1.01489e-15
1e-15
1e-15
1e-15
1.01452e-15
1e-15
1e-15
1e-15
1e-15
1e-15
1.00952e-15
1e-15
1e-15
1e-15
1e-15
1e-15
1e-15
1e-15
1e-15
1e-15
1e-15
1e-15
1e-15
1e-15
1.01783e-15
1e-15
1e-15
1e-15
1e-15
1e-15
1.00903e-15
1e-15
1e-15
1e-15
1e-15
1e-15
1e-15
1e-15
1e-15
1e-15
1e-15
1e-15
1e-15
1.00261e-15
1e-15
1e-15
1e-15
1e-15
1e-15
1.00927e-15
1e-15
1e-15
1e-15
1e-15
1e-15
1e-15
1e-15
1e-15
1e-15
1e-15
1e-15
1e-15
1e-15
1.00342e-15
1e-15
1e-15
1e-15
1e-15
1e-15
1.00934e-15
1e-15
1e-15
1e-15
1e-15
1e-15
1e-15
1e-15
1e-15
1.00175e-15
1e-15
1e-15
1e-15
1e-15
1e-15
1.00563e-15
1e-15
1e-15
1e-15
1e-15
1e-15
1.00952e-15
1e-15
1e-15
1e-15
1e-15
1e-15
1e-15
1e-15
1e-15
1e-15
1e-15
1e-15
1e-15
1e-15
1e-15
1.01754e-15
1e-15
1e-15
1e-15
1e-15
1e-15
1.0091e-15
1e-15
1e-15
1e-15
1e-15
1e-15
1e-15
1e-15
1e-15
1e-15
1e-15
1.01772e-15
1e-15
1e-15
1.00625e-15
1e-15
1e-15
1e-15
1e-15
1e-15
1.00982e-15
1e-15
1e-15
1e-15
1e-15
1e-15
1e-15
1e-15
1e-15
1e-15
1.01692e-15
1e-15
1e-15
1e-15
1e-15
1e-15
1.00832e-15
1e-15
1e-15
1e-15
1e-15
1e-15
1e-15
1e-15
1e-15
1e-15
1e-15
1e-15
1e-15
1e-15
1e-15
1e-15
1e-15
1e-15
1e-15
1.01529e-15
1e-15
1e-15
1e-15
1e-15
1e-15
1.00978e-15
1e-15
1e-15
1e-15
1e-15
1e-15
1e-15
1e-15
1e-15
1.01691e-15
1e-15
1e-15
1e-15
1e-15
1e-15
1e-15
1e-15
1e-15
1e-15
1.00716e-15
1e-15
1e-15
1e-15
1e-15
1e-15
1e-15
1e-15
1e-15
1.01488e-15
1e-15
1e-15
1e-15
1e-15
1e-15
1.00785e-15
1e-15
1e-15
1e-15
1e-15
1e-15
1.00963e-15
1e-15
1e-15
1e-15
1e-15
1e-15
1e-15
1e-15
1e-15
1.01691e-15
1e-15
1e-15
1e-15
1e-15
1e-15
1.00833e-15
1e-15
1e-15
1e-15
1e-15
1e-15
1e-15
1e-15
1e-15
1e-15
1e-15
1e-15
1e-15
1.01488e-15
1e-15
1e-15
1e-15
1e-15
1e-15
1.01353e-15
1e-15
1e-15
1e-15
1e-15
1e-15
1.00984e-15
1e-15
1e-15
1e-15
1e-15
1e-15
1e-15
1.01051e-15
1e-15
1e-15
1e-15
1e-15
1e-15
1.00697e-15
1e-15
1e-15
1e-15
1e-15
1e-15
1.0096e-15
1e-15
1e-15
1e-15
1e-15
1e-15
1e-15
1.00175e-15
1e-15
1e-15
1e-15
1e-15
1e-15
1.00563e-15
1e-15
1e-15
1e-15
1e-15
1e-15
1.00951e-15
1e-15
1e-15
1e-15
1e-15
1e-15
1e-15
1e-15
1e-15
1e-15
1e-15
1e-15
1e-15
1.00339e-15
1e-15
1e-15
1e-15
1e-15
1e-15
1.00932e-15
1e-15
1e-15
1e-15
1e-15
1e-15
1e-15
1e-15
1e-15
1.00175e-15
1e-15
1e-15
1e-15
1e-15
1e-15
1.00563e-15
1e-15
1e-15
1e-15
1e-15
1e-15
1.00955e-15
1e-15
1e-15
1e-15
1e-15
1e-15
1e-15
1e-15
1e-15
1e-15
1e-15
1e-15
1e-15
1e-15
1.01782e-15
1e-15
1e-15
1e-15
1e-15
1e-15
1.00905e-15
1e-15
1e-15
1e-15
1e-15
1e-15
1e-15
1e-15
1e-15
1.01052e-15
1e-15
1e-15
1e-15
1e-15
1e-15
1.00697e-15
1e-15
1e-15
1e-15
1e-15
1e-15
1.00961e-15
1e-15
1e-15
1e-15
1e-15
1e-15
1e-15
1e-15
1e-15
1.01488e-15
1e-15
1e-15
1e-15
1e-15
1e-15
1.01353e-15
1e-15
1e-15
1e-15
1e-15
1e-15
1.00985e-15
1e-15
1e-15
1e-15
1e-15
1e-15
1e-15
1e-15
1e-15
1.01623e-15
1e-15
1e-15
1e-15
1e-15
1e-15
1.00827e-15
1e-15
1e-15
1e-15
1e-15
1e-15
1e-15
1e-15
1e-15
1e-15
1e-15
1e-15
1e-15
1e-15
1e-15
1e-15
1e-15
1e-15
1e-15
1e-15
1e-15
1.00898e-15
1e-15
1e-15
1e-15
1e-15
1e-15
1e-15
1e-15
1e-15
1e-15
1e-15
1e-15
1e-15
1.01691e-15
1e-15
1e-15
1e-15
1e-15
1e-15
1.00833e-15
1e-15
1e-15
1e-15
1e-15
1e-15
1e-15
1e-15
1e-15
1e-15
1e-15
1e-15
1e-15
1e-15
1e-15
1e-15
1e-15
1e-15
1e-15
1e-15
1e-15
1.00894e-15
1e-15
1e-15
1e-15
1.01466e-15
1e-15
1e-15
1e-15
1e-15
1e-15
1e-15
1e-15
1e-15
1.01691e-15
1e-15
1e-15
1e-15
1e-15
1e-15
1.00833e-15
1e-15
1e-15
1e-15
1e-15
1e-15
1e-15
1e-15
1e-15
1e-15
1e-15
1e-15
1e-15
1.01488e-15
1e-15
1e-15
1e-15
1e-15
1e-15
1.01784e-15
1e-15
1e-15
1e-15
1e-15
1e-15
1.00928e-15
1e-15
1e-15
1e-15
1e-15
1e-15
1e-15
1.01051e-15
1e-15
1e-15
1e-15
1e-15
1e-15
1.00697e-15
1e-15
1e-15
1e-15
1e-15
1e-15
1.0096e-15
1e-15
0.00790752
0.00792193
0.00689309
0.00615082
0.00588332
0.0057551
0.00570502
0.00565162
0.0056046
0.00553437
0.00546793
0.00539474
0.00532921
0.00526004
0.00520229
0.00514144
0.00509287
0.00503924
0.00499724
0.00494924
0.00491234
0.00486956
0.00483737
0.00479906
0.0047705
0.00473538
0.00470977
0.00467749
0.00465458
0.00462479
0.00460431
0.00457671
0.00455816
0.00453221
0.00451525
0.00449084
0.00447541
0.0044524
0.00443836
0.00441662
0.0044038
0.00438307
0.00437128
0.00435144
0.0043406
0.00432162
0.00431165
0.00429347
0.00428432
0.0042668
0.00425836
0.00424145
0.00423359
0.00421734
0.00420999
0.00419434
0.0041875
0.00417242
0.00416604
0.00415142
0.00414546
0.00413125
0.00412569
0.00411189
0.00410672
0.00409328
0.00408849
0.00407538
0.00407095
0.00405813
0.00405404
0.00404147
0.0040377
0.00402534
0.00402189
0.00400973
0.00400663
0.00399457
0.00399194
0.0039793
0.00073737
0.00161408
0.00338388
0.005203
0.00605444
0.00639532
0.00653936
0.0065212
0.00646826
0.00636514
0.00628279
0.00619574
0.00612199
0.0060502
0.00599433
0.00593662
0.00589097
0.00583784
0.00579755
0.00574873
0.00571353
0.00567041
0.00563989
0.0056003
0.00557189
0.00553487
0.00550924
0.005475
0.00545202
0.00542043
0.00539986
0.00537002
0.00535085
0.00532239
0.00530484
0.00527803
0.00526208
0.00523678
0.00522228
0.00519821
0.00518473
0.00516154
0.00514908
0.00512681
0.00511536
0.00509402
0.00508352
0.00506309
0.00505332
0.00503358
0.0050243
0.00500545
0.0049966
0.00497862
0.00497018
0.00495304
0.004945
0.00492858
0.00492087
0.00490499
0.00489764
0.00488228
0.00487529
0.00486045
0.00485385
0.00483949
0.00483324
0.00481927
0.00481336
0.0047997
0.00479419
0.00478067
0.00477576
0.00476221
0.00475792
0.00474437
0.00474056
0.00472732
0.00472351
0.0047102
3.48105e-05
0.000218392
0.000470977
0.00121879
0.00233779
0.00343497
0.00417277
0.00456284
0.00477774
0.00485952
0.00491012
0.00492321
0.00492552
0.00492039
0.00491625
0.00490501
0.00489726
0.00487988
0.00486981
0.0048495
0.00483906
0.00481989
0.00480926
0.00478962
0.00477749
0.0047577
0.00474587
0.00472665
0.00471554
0.0046972
0.00468678
0.00466849
0.00465804
0.00463985
0.00462995
0.00461246
0.00460324
0.00458647
0.00457791
0.00456161
0.00455332
0.00453726
0.00452938
0.00451376
0.00450634
0.00449129
0.00448431
0.00446988
0.00446314
0.00444905
0.00444252
0.00442886
0.00442257
0.00440944
0.00440338
0.00439079
0.00438496
0.0043728
0.00436711
0.00435526
0.00434975
0.00433822
0.00433293
0.00432175
0.0043167
0.00430587
0.00430103
0.00429046
0.00428581
0.00427543
0.004271
0.00426074
0.00425664
0.00424646
0.00424269
0.00423261
0.00422912
0.00421929
0.00421581
0.00420573
8.87304e-06
2.52156e-05
3.8115e-05
0.000192822
0.000420821
0.000971461
0.00193574
0.00274034
0.00327817
0.00362591
0.00385697
0.00398754
0.00407903
0.00414199
0.00419251
0.00422477
0.00425675
0.00427301
0.00429257
0.00429888
0.00431166
0.00431406
0.00432088
0.00431935
0.0043213
0.00431722
0.00431706
0.00431139
0.00431013
0.00430347
0.00430118
0.00429304
0.00428953
0.00428029
0.00427646
0.00426698
0.00426301
0.0042535
0.00424945
0.00423973
0.00423532
0.00422526
0.00422079
0.0042107
0.00420628
0.00419632
0.00419203
0.00418228
0.00417791
0.00416811
0.00416374
0.00415404
0.00414973
0.00414026
0.00413606
0.00412685
0.00412273
0.0041137
0.00410958
0.00410062
0.00409657
0.00408776
0.00408382
0.00407521
0.0040714
0.00406302
0.00405931
0.00405108
0.00404744
0.00403928
0.00403575
0.00402767
0.00402432
0.0040163
0.00401314
0.00400521
0.00400223
0.00399447
0.00399153
0.00398346
3.56031e-09
5.12504e-07
4.49808e-06
1.62056e-05
2.72107e-05
0.000160673
0.00037396
0.000883389
0.00160988
0.00222691
0.00267066
0.00298636
0.00322172
0.00338691
0.00351642
0.00361173
0.00369212
0.00374695
0.00379981
0.0038355
0.00387358
0.00389766
0.00392473
0.00394055
0.00396021
0.00396988
0.00398447
0.00399004
0.00400131
0.00400442
0.00401215
0.00401282
0.00401743
0.00401654
0.00401944
0.0040175
0.00401922
0.00401653
0.00401728
0.0040137
0.00401337
0.00400906
0.00400811
0.00400326
0.00400194
0.00399677
0.00399524
0.00398981
0.00398788
0.00398207
0.0039799
0.00397389
0.00397158
0.00396552
0.00396315
0.0039571
0.00395464
0.00394848
0.00394591
0.00393961
0.00393698
0.00393066
0.00392804
0.00392177
0.00391918
0.00391299
0.00391041
0.00390423
0.00390162
0.0038954
0.00389282
0.00388658
0.00388408
0.00387785
0.00387546
0.00386925
0.00386697
0.00386083
0.00385858
0.00385223
1.13803e-10
1.55271e-08
2.24852e-08
1.06127e-06
6.89996e-06
1.4586e-05
2.21749e-05
0.000135514
0.000323567
0.000730789
0.00129399
0.00178917
0.00217538
0.0024723
0.00271883
0.00290655
0.0030606
0.00317502
0.00327748
0.00335439
0.00342635
0.00347942
0.00353184
0.0035688
0.00360799
0.00363387
0.00366441
0.0036832
0.00370782
0.00372147
0.00374079
0.0037504
0.00376566
0.00377221
0.00378439
0.00378881
0.00379844
0.00380145
0.00380895
0.00381049
0.00381596
0.00381651
0.00382052
0.00382033
0.00382318
0.00382238
0.00382446
0.00382301
0.00382423
0.0038222
0.00382279
0.00382036
0.00382046
0.0038178
0.00381755
0.00381465
0.00381409
0.00381081
0.00380996
0.00380637
0.00380532
0.00380155
0.00380037
0.00379649
0.00379522
0.00379128
0.00378989
0.00378582
0.0037843
0.00378006
0.00377849
0.00377414
0.00377256
0.00376814
0.00376659
0.0037621
0.0037606
0.00375606
0.00375457
0.00374997
1e-15
3.88712e-09
2.80493e-09
4.8945e-08
4.11372e-09
4.831e-07
1.90484e-06
9.03154e-06
1.92058e-05
0.000109687
0.000251339
0.00056173
0.000977868
0.00139214
0.00174861
0.00202913
0.00227668
0.00247741
0.00264954
0.00278419
0.00290469
0.00299982
0.00308865
0.00315631
0.00322195
0.00327066
0.00332206
0.0033586
0.00339959
0.00342706
0.00345968
0.00348013
0.00350694
0.0035224
0.00354445
0.0035563
0.00357467
0.0035839
0.00359925
0.0036061
0.00361882
0.00362397
0.00363454
0.00363844
0.00364709
0.00364997
0.0036571
0.00365904
0.00366472
0.00366594
0.00367044
0.0036711
0.00367465
0.00367491
0.00367771
0.00367757
0.00367965
0.00367902
0.00368051
0.00367948
0.00368052
0.00367921
0.0036799
0.00367836
0.00367876
0.00367704
0.00367711
0.00367519
0.00367497
0.00367278
0.00367239
0.00367
0.00366951
0.00366695
0.0036664
0.00366367
0.00366309
0.00366022
0.00365953
0.00365684
1.14023e-15
1e-15
7.14559e-10
2.1459e-09
1.75029e-11
1.20056e-07
4.7712e-07
4.59555e-07
1.48672e-06
7.05468e-06
1.43495e-05
7.59158e-05
0.000170209
0.000383946
0.000684194
0.00103311
0.00136058
0.00163407
0.00187058
0.0020738
0.00225906
0.00241135
0.00254874
0.00265901
0.00276225
0.00284395
0.00292414
0.00298544
0.0030483
0.00309506
0.00314587
0.00318148
0.00322286
0.0032503
0.00328454
0.00330631
0.00333509
0.00335249
0.00337655
0.00338995
0.00341049
0.00342123
0.00343891
0.0034475
0.0034626
0.00346944
0.00348249
0.00348796
0.0034991
0.0035035
0.00351293
0.00351647
0.00352449
0.00352737
0.00353422
0.00353648
0.00354221
0.00354386
0.0035486
0.0035498
0.00355376
0.0035546
0.0035579
0.00355842
0.00356116
0.00356139
0.00356356
0.00356351
0.00356515
0.00356483
0.00356612
0.00356555
0.00356656
0.00356577
0.00356658
0.00356556
0.00356618
0.00356498
0.00356523
0.00356462
1.00708e-15
1e-15
7.30185e-13
8.47655e-11
1.19854e-12
1e-15
1.4589e-10
1.69589e-08
6.99571e-08
2.89862e-07
1.04533e-06
4.5868e-06
9.35586e-06
4.60314e-05
9.78085e-05
0.000225451
0.000444443
0.000703847
0.000997878
0.00126128
0.00149654
0.00169506
0.00188169
0.00204256
0.00219486
0.00231843
0.00243604
0.00253101
0.00262434
0.00269833
0.00277406
0.00283092
0.00289192
0.00293621
0.00298672
0.00302211
0.00306426
0.00309266
0.00312801
0.00315055
0.00318074
0.00319907
0.00322512
0.00324
0.00326256
0.00327478
0.00329446
0.0033043
0.00332143
0.00332953
0.00334452
0.00335123
0.00336441
0.00337006
0.00338159
0.00338635
0.00339638
0.00340037
0.00340908
0.00341247
0.00342005
0.00342291
0.00342951
0.00343192
0.00343767
0.00343966
0.0034446
0.00344621
0.00345043
0.00345171
0.00345533
0.00345633
0.00345945
0.00346021
0.00346289
0.00346341
0.00346563
0.00346609
0.0034674
0.0034692
1e-15
1e-15
4.10069e-14
4.41069e-12
1.9962e-12
1.91015e-14
1e-15
4.19851e-09
1.74352e-08
1.27855e-08
4.72926e-08
1.04711e-07
6.79782e-07
2.51765e-06
4.42502e-06
2.21439e-05
4.8717e-05
0.000120134
0.000244415
0.000433996
0.000664702
0.000901947
0.00113861
0.00133669
0.00152357
0.00168166
0.00183864
0.00197261
0.00210363
0.00221028
0.0023168
0.00240166
0.00248904
0.00255675
0.00262924
0.00268344
0.00274358
0.00278727
0.00283786
0.00287325
0.00291613
0.00294488
0.00298159
0.00300509
0.003037
0.0030565
0.0030844
0.00310036
0.00312465
0.00313787
0.00315933
0.00317043
0.00318948
0.00319887
0.00321578
0.00322367
0.0032386
0.00324523
0.00325852
0.00326427
0.00327604
0.00328103
0.00329146
0.00329581
0.00330508
0.0033089
0.00331711
0.00332045
0.00332771
0.00333061
0.00333705
0.00333958
0.00334528
0.00334752
0.0033525
0.00335456
0.0033587
0.00336107
0.00336344
0.00336802
1e-15
1e-15
1e-15
1.09236e-12
1.99474e-13
4.46724e-14
1e-15
3.80381e-13
5.27738e-12
5.04115e-10
3.29538e-09
6.6312e-09
1.81183e-08
7.42328e-08
2.56198e-07
9.52363e-07
1.58346e-06
9.66526e-06
1.90606e-05
5.45957e-05
0.000113966
0.00022031
0.000388901
0.000578998
0.000786126
0.000987562
0.00117693
0.00133667
0.00149386
0.00162661
0.00176379
0.00187955
0.00199757
0.0020925
0.002191
0.00226874
0.00235202
0.00241605
0.00248668
0.00253943
0.00259913
0.00264224
0.00269322
0.00272881
0.0027731
0.00280265
0.00284121
0.00286563
0.0028991
0.00291947
0.00294902
0.00296617
0.00299239
0.00300688
0.00303021
0.00304248
0.00306327
0.00307366
0.00309225
0.00310122
0.00311786
0.00312562
0.00314056
0.00314734
0.00316081
0.00316672
0.00317874
0.00318395
0.00319472
0.00319936
0.00320903
0.00321319
0.00322185
0.00322567
0.00323326
0.00323713
0.0032432
0.00324789
0.00325144
0.00325909
1e-15
1e-15
1e-15
1e-15
5.17314e-14
1.79669e-13
2.04096e-14
1.62364e-12
1.94034e-12
2.47541e-11
1.05909e-10
4.93601e-10
1.03465e-09
2.03098e-09
6.36347e-08
4.19102e-08
3.60585e-08
3.05858e-07
3.48957e-07
3.22205e-06
5.98864e-06
1.99697e-05
4.28831e-05
9.11438e-05
0.000181393
0.000309512
0.000477669
0.000648162
0.000830447
0.000997824
0.00115794
0.00129294
0.00143061
0.00154627
0.00166853
0.00177082
0.00187944
0.00196634
0.0020592
0.00213224
0.00221241
0.00227384
0.0023431
0.00239464
0.00245485
0.0024978
0.00255017
0.00258616
0.00263178
0.00266214
0.00270225
0.0027278
0.00276322
0.00278479
0.00281628
0.0028347
0.00286282
0.00287849
0.0029036
0.00291703
0.00293953
0.00295116
0.00297146
0.00298161
0.00300001
0.00300886
0.00302539
0.00303313
0.00304805
0.00305494
0.00306843
0.00307469
0.00308676
0.00309269
0.00310312
0.00310923
0.00311751
0.00312474
0.00312978
0.00314082
1e-15
1e-15
1e-15
1e-15
1e-15
4.50024e-14
6.30849e-15
8.63495e-14
3.9955e-13
1.6468e-12
2.62709e-11
1.90797e-11
7.80883e-11
1.16365e-10
1.37074e-10
1.11795e-09
9.00782e-09
1.19177e-08
8.18628e-09
1.31759e-07
2.93948e-07
7.99649e-07
1.47028e-06
6.01199e-06
1.21578e-05
3.2558e-05
6.71963e-05
0.000127849
0.000228276
0.00035506
0.000510596
0.000660336
0.000819772
0.000962131
0.00110348
0.00122145
0.00134463
0.00144802
0.00155833
0.00165058
0.00175162
0.00183268
0.0019216
0.00199062
0.00206886
0.00212797
0.0021971
0.0022477
0.00230855
0.00235179
0.00240528
0.00244196
0.00248923
0.00252046
0.00256256
0.0025894
0.00262692
0.00264988
0.0026833
0.00270298
0.00273292
0.00274999
0.00277699
0.00279187
0.00281629
0.0028293
0.00285127
0.00286266
0.00288248
0.00289266
0.00291053
0.00291984
0.00293575
0.00294464
0.00295829
0.00296747
0.00297823
0.00298882
0.00299556
0.00301074
1e-15
1e-15
1e-15
1e-15
1e-15
1.00784e-15
1.6995e-15
1.39454e-14
7.69227e-14
1.53353e-13
1.47226e-14
1.07265e-12
2.62634e-12
2.86052e-11
1.98997e-12
2.64811e-11
5.41698e-13
6.12453e-10
7.56254e-10
4.29564e-09
9.01143e-09
1.82674e-08
6.37959e-08
1.95195e-07
2.83816e-07
1.62687e-06
2.95257e-06
9.04306e-06
1.84485e-05
4.13981e-05
8.36287e-05
0.000145145
0.000243898
0.000358461
0.000498676
0.000630988
0.000772176
0.00089584
0.00102492
0.00113027
0.00124273
0.00133603
0.0014384
0.00152142
0.00161611
0.00169167
0.0017779
0.0018439
0.0019207
0.0019781
0.00204685
0.00209688
0.00215844
0.00220178
0.00225689
0.00229442
0.0023436
0.00237607
0.00242002
0.00244814
0.00248761
0.00251213
0.00254761
0.00256901
0.00260094
0.00261975
0.00264846
0.00266509
0.00269092
0.00270586
0.00272897
0.00274271
0.00276307
0.00277623
0.00279356
0.00280706
0.00282067
0.00283572
0.0028446
0.00286492
1e-15
1e-15
1e-15
1e-15
1e-15
1e-15
1e-15
2.56761e-15
8.63572e-15
1.51684e-14
1.50143e-15
2.83248e-14
6.43871e-13
1.78002e-15
6.70087e-14
6.10057e-13
1.84479e-13
3.52651e-12
3.12489e-11
2.0409e-10
3.90307e-10
6.33164e-10
1.05956e-09
4.79026e-08
8.74733e-09
2.28489e-08
1.47162e-08
3.34037e-07
5.39197e-07
2.0806e-06
3.98876e-06
1.02315e-05
2.11617e-05
4.29497e-05
8.61956e-05
0.000140057
0.000231562
0.000328279
0.000454684
0.000571479
0.000699544
0.000808885
0.000927345
0.00102444
0.00112885
0.00121377
0.00130984
0.0013865
0.00147492
0.00154482
0.00162799
0.00169146
0.00176741
0.0018232
0.00189191
0.00194117
0.00200352
0.00204722
0.00210359
0.00214208
0.00219299
0.00222686
0.00227264
0.00230255
0.00234371
0.00237031
0.00240732
0.0024312
0.00246433
0.00248598
0.00251534
0.00253542
0.00256098
0.00258029
0.00260187
0.00262145
0.00263843
0.00265942
0.00267106
0.00269797
1e-15
1e-15
1e-15
1e-15
1e-15
1e-15
1.02088e-15
1.01445e-15
1.15545e-15
1.54312e-15
1.04798e-15
1e-15
1e-15
1e-15
1.72487e-14
1.19453e-14
1.08709e-14
7.7025e-14
1.13164e-12
4.79905e-12
1.18843e-11
2.02201e-11
5.56268e-11
5.59496e-11
1.19157e-10
5.58059e-09
3.59216e-09
8.174e-08
1.63277e-08
5.36679e-08
7.62312e-08
3.76564e-07
6.31997e-07
2.05741e-06
4.107e-06
9.70978e-06
2.0134e-05
3.88293e-05
7.59352e-05
0.000119269
0.000197629
0.000277886
0.000386674
0.000490263
0.000607564
0.000706598
0.000816025
0.000905132
0.00100516
0.0010836
0.00117424
0.00124545
0.00133015
0.00139453
0.00147373
0.00153364
0.00160835
0.00166319
0.00173166
0.00178071
0.00184315
0.0018873
0.00194427
0.00198429
0.00203589
0.00207214
0.00211861
0.00215171
0.00219315
0.00222364
0.00226017
0.00228886
0.00232044
0.00234821
0.00237474
0.00240251
0.00242357
0.00245224
0.00246744
0.00250283
1e-15
1e-15
1e-15
1e-15
1.00717e-15
1e-15
1e-15
1e-15
1e-15
1e-15
1e-15
1e-15
1e-15
1e-15
1e-15
3.67749e-15
2.01504e-15
1.98828e-14
2.87737e-14
1.07142e-13
4.04221e-13
6.09011e-13
2.0955e-12
2.8665e-12
1.05643e-11
7.8056e-12
1.03416e-13
4.05539e-12
3.08966e-10
1.44924e-09
2.81078e-09
6.93297e-09
6.20932e-09
6.16894e-08
9.20645e-08
2.93018e-07
6.30596e-07
1.2191e-06
3.69055e-06
6.79296e-06
1.62343e-05
2.78905e-05
5.88485e-05
8.93088e-05
0.000152766
0.000214164
0.000306608
0.000391997
0.000500002
0.000590778
0.000694212
0.000776506
0.000871316
0.000945987
0.00103279
0.00109968
0.00118012
0.00124193
0.00131725
0.00137391
0.00144464
0.00149843
0.00156513
0.0016155
0.00167646
0.00172295
0.00177808
0.00182151
0.00187108
0.00191226
0.00195614
0.00199557
0.00203349
0.0020719
0.00210378
0.00214178
0.00216753
0.00220579
0.00222541
0.00227137
1e-15
1e-15
1e-15
1e-15
1e-15
1.01235e-15
1e-15
1e-15
1e-15
1e-15
1e-15
1e-15
1e-15
1e-15
1e-15
1e-15
1e-15
1e-15
7.76456e-15
2.75729e-15
1.59299e-14
2.51702e-14
6.14798e-14
7.00584e-13
2.42049e-13
1.90011e-12
1.82539e-15
7.13191e-14
5.08725e-12
2.78275e-11
5.10275e-11
1.36146e-10
2.75829e-10
2.05489e-09
3.66195e-09
9.90786e-09
2.00839e-08
2.48609e-08
1.0617e-07
1.6655e-07
5.60443e-07
9.19414e-07
2.62062e-06
4.50472e-06
1.07576e-05
1.84901e-05
3.85923e-05
5.86574e-05
0.00010538
0.000147842
0.000221862
0.000289919
0.000381834
0.000463569
0.000560884
0.000639928
0.000730116
0.000801258
0.000883982
0.000949792
0.00102568
0.0010864
0.00115654
0.00121408
0.00127902
0.00133363
0.00139344