/*--------------------------------*- C++ -*----------------------------------*\
| =========                 |                                                 |
| \\      /  F ield         | OpenFOAM: The Open Source CFD Toolbox           |
|  \\    /   O peration     | Version:  v1912                                 |
|   \\  /    A nd           | Website:  www.openfoam.com                      |
|    \\/     M anipulation  |                                                 |
\*---------------------------------------------------------------------------*/
FoamFile
{
    version     2.0;
    format      ascii;
    class       volScalarField;
    location    "1000";
    object      p;
}
// * * * * * * * * * * * * * * * * * * * * * * * * * * * * * * * * * * * * * //

dimensions      [0 2 -2 0 0 0 0];


internalField   nonuniform List<scalar> 
10000
(
0.00142337
0.0026455
0.00237198
0.00222839
0.00222008
0.00225773
0.00226873
0.0023071
0.0023267
0.00238571
0.00241892
0.0025024
0.00255201
0.00267492
0.00275147
0.00294924
0.00308104
0.00347342
0.00377941
0.0051012
0.00143932
0.00262915
0.00236972
0.00222777
0.00221973
0.00225758
0.00226857
0.00230708
0.00232658
0.00238576
0.00241877
0.00250252
0.00255179
0.00267515
0.00275111
0.00294966
0.0030804
0.00347393
0.00377913
0.00507884
0.00146043
0.00260701
0.00236879
0.00222801
0.00222
0.00225763
0.00226881
0.00230702
0.00232681
0.00238559
0.00241905
0.00250223
0.00255219
0.00267465
0.00275171
0.00294879
0.00308144
0.00347184
0.00378214
0.00503408
0.00148303
0.00258502
0.00236845
0.00222847
0.00221988
0.00225772
0.00226859
0.00230715
0.00232654
0.00238578
0.00241871
0.00250249
0.00255175
0.00267502
0.00275114
0.0029492
0.00308073
0.00347161
0.00378138
0.0049861
0.0015065
0.0025625
0.00236773
0.0022284
0.00221985
0.00225746
0.00226872
0.00230693
0.00232674
0.00238553
0.00241896
0.00250218
0.00255203
0.00267463
0.00275141
0.00294871
0.00308087
0.00347042
0.00377964
0.00493916
0.00153059
0.00253962
0.00236649
0.00222872
0.00221969
0.00225758
0.00226861
0.00230707
0.0023266
0.00238564
0.0024188
0.00250224
0.00255187
0.00267457
0.00275132
0.00294831
0.003081
0.00346838
0.0037782
0.00489101
0.00155542
0.00251613
0.00236518
0.00222893
0.00221969
0.0022574
0.00226866
0.00230692
0.00232664
0.00238548
0.00241882
0.00250208
0.00255186
0.00267438
0.00275124
0.00294789
0.00308094
0.00346604
0.00377641
0.0048412
0.00158085
0.0024924
0.00236342
0.0022293
0.00221951
0.00225735
0.00226859
0.0023069
0.00232659
0.00238543
0.00241879
0.00250195
0.00255184
0.00267411
0.00275122
0.00294728
0.0030809
0.00346322
0.003774
0.00479015
0.00160694
0.0024683
0.00236139
0.00222964
0.00221941
0.0022572
0.00226858
0.00230682
0.00232657
0.00238532
0.00241874
0.00250178
0.00255177
0.0026738
0.00275115
0.00294652
0.00308086
0.00345975
0.00377105
0.00473796
0.00163346
0.00244408
0.00235895
0.00223007
0.00221925
0.00225706
0.00226854
0.00230674
0.00232653
0.00238518
0.00241869
0.00250158
0.00255171
0.00267343
0.00275106
0.00294562
0.00308077
0.00345565
0.0037675
0.00468466
0.00166043
0.00241976
0.00235615
0.00223054
0.00221908
0.00225687
0.00226849
0.00230663
0.00232649
0.00238503
0.00241864
0.00250132
0.00255164
0.00267297
0.00275096
0.00294452
0.00308061
0.00345088
0.00376326
0.0046303
0.0016878
0.00239543
0.00235292
0.00223105
0.00221889
0.00225666
0.00226843
0.0023065
0.00232643
0.00238484
0.00241856
0.00250103
0.00255154
0.00267242
0.00275083
0.00294323
0.00308039
0.00344537
0.00375825
0.00457497
0.00171547
0.00237118
0.00234925
0.0022316
0.00221869
0.0022564
0.00226835
0.00230635
0.00232637
0.00238461
0.00241848
0.00250067
0.00255143
0.00267178
0.00275068
0.00294171
0.00308008
0.00343909
0.00375238
0.00451876
0.00174335
0.00234713
0.00234514
0.00223218
0.00221847
0.0022561
0.00226826
0.00230617
0.00232629
0.00238435
0.00241838
0.00250025
0.0025513
0.00267102
0.00275048
0.00293993
0.00307965
0.00343197
0.00374556
0.00446176
0.00177132
0.00232343
0.00234057
0.00223278
0.00221824
0.00225576
0.00226816
0.00230596
0.0023262
0.00238404
0.00241826
0.00249977
0.00255115
0.00267014
0.00275025
0.00293788
0.00307907
0.00342399
0.00373771
0.00440408
0.00179925
0.00230018
0.00233554
0.00223339
0.00221799
0.00225536
0.00226803
0.00230571
0.0023261
0.00238368
0.00241813
0.0024992
0.00255096
0.00266912
0.00274996
0.00293552
0.0030783
0.0034151
0.00372871
0.00434582
0.00182707
0.00227751
0.00233004
0.00223398
0.00221774
0.0022549
0.00226789
0.00230542
0.00232597
0.00238326
0.00241796
0.00249855
0.00255074
0.00266794
0.0027496
0.00293282
0.00307732
0.00340525
0.00371847
0.00428711
0.00185463
0.00225553
0.00232408
0.00223455
0.00221748
0.00225438
0.00226771
0.00230508
0.00232583
0.00238278
0.00241778
0.0024978
0.00255048
0.00266659
0.00274917
0.00292976
0.00307606
0.00339441
0.00370688
0.00422805
0.00188178
0.0022344
0.00231768
0.00223507
0.00221721
0.0022538
0.00226751
0.00230469
0.00232566
0.00238223
0.00241756
0.00249694
0.00255017
0.00266505
0.00274865
0.0029263
0.00307449
0.00338256
0.00369384
0.00416876
0.00190831
0.00221431
0.00231087
0.00223551
0.00221694
0.00225314
0.00226727
0.00230424
0.00232546
0.0023816
0.0024173
0.00249596
0.00254981
0.0026633
0.00274801
0.00292241
0.00307254
0.00336966
0.00367923
0.00410935
0.001934
0.00219548
0.00230368
0.00223586
0.00221667
0.00225241
0.00226699
0.00230372
0.00232523
0.00238087
0.002417
0.00249484
0.00254937
0.00266131
0.00274724
0.00291805
0.00307015
0.0033557
0.00366296
0.00404995
0.00195842
0.00217825
0.00229612
0.00223607
0.00221641
0.0022516
0.00226667
0.00230314
0.00232497
0.00238005
0.00241665
0.00249357
0.00254887
0.00265908
0.0027463
0.0029132
0.00306723
0.00334066
0.00364491
0.00399066
0.00198102
0.00216338
0.00228824
0.00223608
0.00221613
0.00225069
0.00226629
0.00230246
0.00232465
0.00237912
0.00241624
0.00249214
0.00254826
0.00265657
0.00274517
0.00290781
0.00306372
0.00332452
0.00362501
0.00393156
0.00200021
0.00215194
0.00228031
0.00223592
0.00221587
0.0022497
0.00226586
0.0023017
0.0023243
0.00237807
0.00241576
0.00249052
0.00254755
0.00265376
0.00274381
0.00290187
0.00305953
0.00330729
0.00360317
0.00387276
0.00201567
0.00214419
0.00227244
0.00223557
0.00221563
0.00224862
0.00226537
0.00230084
0.00232388
0.00237688
0.00241521
0.00248871
0.00254671
0.00265062
0.00274217
0.00289534
0.00305456
0.00328898
0.0035793
0.00381437
0.00202868
0.0021391
0.00226447
0.00223493
0.00221536
0.00224742
0.00226479
0.00229985
0.0023234
0.00237554
0.00241456
0.00248669
0.00254571
0.00264715
0.00274021
0.00288819
0.00304871
0.0032696
0.00355333
0.00375647
0.00204047
0.00213549
0.00225638
0.00223399
0.00221508
0.00224612
0.00226414
0.00229875
0.00232284
0.00237404
0.0024138
0.00248443
0.00254453
0.0026433
0.00273788
0.0028804
0.00304189
0.00324916
0.00352523
0.00369909
0.00205144
0.00213274
0.00224827
0.00223275
0.00221479
0.00224472
0.0022634
0.0022975
0.0023222
0.00237237
0.00241292
0.00248192
0.00254314
0.00263907
0.00273511
0.00287195
0.00303397
0.00322768
0.00349499
0.00364225
0.00206172
0.00213068
0.00224026
0.0022312
0.00221445
0.00224319
0.00226255
0.00229611
0.00232144
0.0023705
0.00241188
0.00247914
0.00254151
0.00263441
0.00273183
0.00286279
0.00302486
0.00320517
0.0034626
0.00358597
0.00207126
0.00212925
0.00223241
0.00222932
0.00221406
0.00224154
0.00226158
0.00229455
0.00232058
0.00236842
0.00241068
0.00247606
0.00253958
0.00262931
0.00272799
0.00285292
0.00301446
0.00318165
0.0034281
0.00353024
0.00208007
0.00212838
0.00222477
0.00222711
0.00221359
0.00223977
0.00226049
0.00229281
0.00231957
0.00236612
0.00240927
0.00247267
0.00253732
0.00262374
0.00272348
0.00284231
0.00300266
0.00315714
0.00339154
0.00347505
0.00208813
0.00212802
0.00221739
0.00222456
0.00221301
0.00223785
0.00225925
0.00229086
0.0023184
0.00236357
0.00240764
0.00246895
0.00253468
0.00261768
0.00271824
0.00283094
0.00298937
0.00313164
0.003353
0.00342037
0.00209543
0.00212808
0.00221031
0.00222167
0.00221231
0.00223579
0.00225785
0.0022887
0.00231704
0.00236076
0.00240573
0.00246487
0.00253158
0.00261111
0.00271217
0.00281878
0.00297451
0.00310518
0.00331259
0.00336614
0.00210196
0.00212849
0.00220357
0.00221844
0.00221146
0.00223357
0.00225627
0.00228631
0.00231548
0.00235767
0.00240351
0.00246041
0.00252799
0.002604
0.00270519
0.00280581
0.00295801
0.00307775
0.00327045
0.00331231
0.00210775
0.00212914
0.0021972
0.0022149
0.00221042
0.00223119
0.00225449
0.00228367
0.00231366
0.00235428
0.00240094
0.00245555
0.00252382
0.00259631
0.00269721
0.002792
0.00293982
0.00304936
0.00322674
0.00325881
0.00211278
0.00212995
0.00219121
0.00221104
0.00220916
0.00222862
0.00225248
0.00228075
0.00231157
0.00235056
0.00239796
0.00245027
0.00251902
0.00258803
0.00268815
0.00277732
0.0029199
0.00302
0.00318164
0.0032056
0.00211708
0.00213081
0.0021856
0.00220691
0.00220764
0.00222585
0.00225023
0.00227755
0.00230914
0.0023465
0.00239451
0.00244454
0.00251349
0.00257912
0.00267792
0.00276174
0.00289825
0.00298965
0.00313535
0.0031526
0.00212065
0.00213163
0.00218036
0.0022025
0.00220584
0.00222287
0.0022477
0.00227403
0.00230636
0.00234208
0.00239056
0.00243833
0.00250718
0.00256955
0.00266645
0.00274521
0.00287487
0.00295829
0.00308807
0.00309977
0.00212352
0.00213232
0.00217547
0.00219786
0.00220371
0.00221965
0.00224486
0.00227018
0.00230315
0.00233726
0.00238602
0.0024316
0.00250001
0.00255926
0.00265368
0.00272768
0.0028498
0.00292591
0.00304001
0.00304708
0.00212567
0.00213279
0.00217087
0.00219299
0.00220122
0.00221616
0.00224167
0.00226597
0.00229947
0.00233203
0.00238084
0.00242433
0.00249191
0.00254822
0.00263956
0.00270911
0.00282309
0.00289248
0.00299139
0.0029945
0.00212717
0.00213295
0.00216652
0.00218792
0.00219833
0.00221238
0.0022381
0.00226139
0.00229527
0.00232633
0.00237495
0.00241647
0.00248281
0.00253636
0.00262405
0.00268943
0.00279483
0.00285801
0.0029424
0.00294206
0.00212796
0.00213272
0.00216234
0.00218266
0.00219501
0.00220828
0.0022341
0.00225639
0.0022905
0.00232016
0.0023683
0.00240797
0.00247265
0.00252363
0.00260714
0.0026686
0.00276509
0.00282247
0.00289322
0.00288975
0.0021281
0.00213204
0.00215824
0.00217722
0.00219122
0.00220383
0.00222962
0.00225096
0.00228508
0.00231344
0.00236081
0.00239878
0.00246137
0.00250996
0.00258881
0.00264656
0.002734
0.00278589
0.00284402
0.00283764
0.00212755
0.00213085
0.00215414
0.00217159
0.00218693
0.00219899
0.00222462
0.00224505
0.00227897
0.00230616
0.00235244
0.00238884
0.00244895
0.00249529
0.00256908
0.00262325
0.00270165
0.00274829
0.00279491
0.00278578
0.00212633
0.00212911
0.00214992
0.00216576
0.0021821
0.00219372
0.00221904
0.00223864
0.0022721
0.00229823
0.00234312
0.00237807
0.00243533
0.00247952
0.00254796
0.00259864
0.00266817
0.00270972
0.00274602
0.00273425
0.00212438
0.00212676
0.00214549
0.00215971
0.00217669
0.00218796
0.00221283
0.00223166
0.00226443
0.00228962
0.00233281
0.00236642
0.00242049
0.00246261
0.00252549
0.0025727
0.00263366
0.00267024
0.00269742
0.00268311
0.00212174
0.00212376
0.00214073
0.00215339
0.00217069
0.00218169
0.00220594
0.00222408
0.0022559
0.00228024
0.00232146
0.00235379
0.00240442
0.00244446
0.00250171
0.00254541
0.00259824
0.00262993
0.00264916
0.00263246
0.00211831
0.00212008
0.00213553
0.00214676
0.00216403
0.00217483
0.00219831
0.00221583
0.00224646
0.00227003
0.00230903
0.00234011
0.00238712
0.00242502
0.00247666
0.00251678
0.00256199
0.00258889
0.00260129
0.00258236
0.00211412
0.00211568
0.0021298
0.00213975
0.0021567
0.00216734
0.00218989
0.00220684
0.00223607
0.00225889
0.0022955
0.0023253
0.00236856
0.00240425
0.00245038
0.00248685
0.00252502
0.00254722
0.00255381
0.00253288
0.00210907
0.00211051
0.00212343
0.00213227
0.00214863
0.00215914
0.00218062
0.00219705
0.00222468
0.00224677
0.00228083
0.00230929
0.00234876
0.00238211
0.00242293
0.00245565
0.00248738
0.00250505
0.00250674
0.00248405
0.00210316
0.00210452
0.00211634
0.00212424
0.00213979
0.00215018
0.00217045
0.00218637
0.00221226
0.00223356
0.00226499
0.00229201
0.00232771
0.00235858
0.00239434
0.00242325
0.00244914
0.00246248
0.00246007
0.00243592
0.0020963
0.00209766
0.00210843
0.00211556
0.00213013
0.00214036
0.00215933
0.00217472
0.00219876
0.0022192
0.00224797
0.00227341
0.00230542
0.00233367
0.00236465
0.00238974
0.00241037
0.00241963
0.00241379
0.00238848
0.00208847
0.00208987
0.00209963
0.00210612
0.00211959
0.00212961
0.0021472
0.00216202
0.00218414
0.00220362
0.00222972
0.00225344
0.00228189
0.00230738
0.0023339
0.00235519
0.00237111
0.00237659
0.00236791
0.00234173
0.00207957
0.00208107
0.00208985
0.00209582
0.00210811
0.00211786
0.00213402
0.0021482
0.00216837
0.00218675
0.00221024
0.00223209
0.00225712
0.00227976
0.00230213
0.00231971
0.00233142
0.00233344
0.0023224
0.00229564
0.00206959
0.0020712
0.00207902
0.00208455
0.00209562
0.00210501
0.00211973
0.00213316
0.0021514
0.00216854
0.00218949
0.00220933
0.00223111
0.00225085
0.00226938
0.00228338
0.00229134
0.00229026
0.00227727
0.00225019
0.0020584
0.00206016
0.00206707
0.00207219
0.00208205
0.00209098
0.00210426
0.00211684
0.00213318
0.00214895
0.00216744
0.00218517
0.00220387
0.00222071
0.00223568
0.0022463
0.00225091
0.0022471
0.00223252
0.00220533
0.00204599
0.00204787
0.00205393
0.00205864
0.00206733
0.00207571
0.00208756
0.00209918
0.00211367
0.00212795
0.00214408
0.00215963
0.00217542
0.00218939
0.00220109
0.00220854
0.00221019
0.00220399
0.00218812
0.00216101
0.00203224
0.00203426
0.00203952
0.00204381
0.00205137
0.00205909
0.00206957
0.00208013
0.00209282
0.00210551
0.00211938
0.00213271
0.00214576
0.00215696
0.00216564
0.00217019
0.00216921
0.00216097
0.00214406
0.00211719
0.00201712
0.00201923
0.00202376
0.0020276
0.00203409
0.00204108
0.00205022
0.00205962
0.00207058
0.00208162
0.00209333
0.00210446
0.00211491
0.00212347
0.0021294
0.0021313
0.00212802
0.00211804
0.00210033
0.0020738
0.00200051
0.0020027
0.00200657
0.00200993
0.00201542
0.0020216
0.00202944
0.00203764
0.00204693
0.00205628
0.00206592
0.00207489
0.00208292
0.00208899
0.0020924
0.00209193
0.00208663
0.00207521
0.00205689
0.00203081
0.00198237
0.0019846
0.00198787
0.00199072
0.00199527
0.00200059
0.00200719
0.00201413
0.00202182
0.00202949
0.00203716
0.00204404
0.00204981
0.00205357
0.0020547
0.00205212
0.00204508
0.00203247
0.00201373
0.00198816
0.00196261
0.00196486
0.00196759
0.0019699
0.00197356
0.001978
0.0019834
0.00198908
0.00199523
0.00200125
0.00200704
0.00201194
0.00201562
0.00201726
0.00201634
0.00201191
0.00200337
0.00198981
0.00197081
0.0019458
0.00194117
0.0019434
0.00194566
0.0019474
0.00195024
0.00195378
0.00195803
0.00196246
0.00196714
0.00197156
0.0019756
0.00197864
0.00198038
0.0019801
0.00197735
0.00197132
0.00196153
0.00194721
0.00192808
0.00190367
0.00191797
0.00192018
0.001922
0.00192319
0.00192524
0.0019279
0.00193105
0.00193426
0.00193754
0.00194045
0.00194284
0.00194416
0.00194414
0.00194214
0.00193778
0.00193037
0.00191954
0.00190465
0.0018855
0.00186173
0.00189298
0.00189515
0.00189656
0.0018972
0.00189851
0.00190032
0.00190243
0.00190447
0.00190643
0.00190792
0.00190879
0.00190853
0.00190693
0.0019034
0.00189765
0.00188908
0.0018774
0.0018621
0.00184304
0.00181993
0.00186612
0.00186825
0.00186929
0.00186941
0.00187003
0.00187101
0.00187215
0.00187309
0.00187382
0.001874
0.00187347
0.0018718
0.00186878
0.00186392
0.00185697
0.00184744
0.0018351
0.00181952
0.00180063
0.0017782
0.00183738
0.00183946
0.00184016
0.00183978
0.00183975
0.00183997
0.00184019
0.00184012
0.00183973
0.0018387
0.00183692
0.00183398
0.00182972
0.00182372
0.00181577
0.00180545
0.00179261
0.00177689
0.00175825
0.0017365
0.00180672
0.00180875
0.00180915
0.0018083
0.00180768
0.00180719
0.00180658
0.00180557
0.00180415
0.00180206
0.00179915
0.00179511
0.00178978
0.00178281
0.00177403
0.00176311
0.0017499
0.00173415
0.00171582
0.00169478
0.00177414
0.00177613
0.00177624
0.00177497
0.0017738
0.00177267
0.0017713
0.00176946
0.00176713
0.00176409
0.0017602
0.00175522
0.00174898
0.00174121
0.00173177
0.00172039
0.00170696
0.00169127
0.00167331
0.00165297
0.00173963
0.00174158
0.00174144
0.00173979
0.00173814
0.00173643
0.00173439
0.00173181
0.00172868
0.00172482
0.0017201
0.00171431
0.00170733
0.00169892
0.00168897
0.00167727
0.00166373
0.0016482
0.00163065
0.00161103
0.00170322
0.00170513
0.00170477
0.00170278
0.0017007
0.0016985
0.00169587
0.00169266
0.00168884
0.00168428
0.00167887
0.00167243
0.00166485
0.00165595
0.00164563
0.00163374
0.0016202
0.00160489
0.00158781
0.0015689
0.00166493
0.00166681
0.00166626
0.00166398
0.00166153
0.0016589
0.00165578
0.00165203
0.00164764
0.00164251
0.00163654
0.00162958
0.00162154
0.00161229
0.00160174
0.00158976
0.00157631
0.0015613
0.00154471
0.00152653
0.00162481
0.00162667
0.00162595
0.00162343
0.00162067
0.00161769
0.00161415
0.00160997
0.00160513
0.00159954
0.00159313
0.00158578
0.00157742
0.00156793
0.00155726
0.00154531
0.00153203
0.00151737
0.00150132
0.00148386
0.00158293
0.00158476
0.0015839
0.00158119
0.00157819
0.00157491
0.00157106
0.00156653
0.00156133
0.0015554
0.00154867
0.00154105
0.00153248
0.00152288
0.0015122
0.00150035
0.00148733
0.00147307
0.00145758
0.00144085
0.00153933
0.00154114
0.00154019
0.00153732
0.00153413
0.00153063
0.00152653
0.00152175
0.0015163
0.00151013
0.00150319
0.00149541
0.00148674
0.00147713
0.00146652
0.00145487
0.00144215
0.00142835
0.00141344
0.00139745
0.00149412
0.00149591
0.00149488
0.0014919
0.00148857
0.00148492
0.00148065
0.00147569
0.00147008
0.00146377
0.00145672
0.00144888
0.0014402
0.00143066
0.00142021
0.00140882
0.00139648
0.00138316
0.00136887
0.0013536
0.00144736
0.00144913
0.00144805
0.001445
0.00144158
0.00143784
0.00143347
0.00142842
0.00142272
0.00141635
0.00140928
0.00140146
0.00139287
0.00138348
0.00137326
0.0013622
0.00135027
0.00133747
0.0013238
0.00130927
0.00139914
0.0014009
0.00139979
0.00139671
0.00139325
0.00138947
0.00138505
0.00137997
0.00137426
0.00136792
0.0013609
0.00135318
0.00134475
0.00133558
0.00132566
0.00131496
0.00130349
0.00129124
0.00127821
0.00126442
0.00134957
0.00135132
0.0013502
0.00134711
0.00134366
0.00133987
0.00133548
0.00133043
0.00132477
0.00131851
0.00131161
0.00130407
0.00129585
0.00128696
0.00127738
0.0012671
0.00125612
0.00124444
0.00123206
0.00121899
0.00129874
0.00130047
0.00129936
0.0012963
0.00129288
0.00128914
0.0012848
0.00127984
0.00127429
0.00126817
0.00126145
0.00125413
0.00124619
0.00123762
0.00122842
0.00121859
0.00120813
0.00119703
0.00118531
0.00117297
0.00124674
0.00124845
0.00124736
0.00124435
0.00124099
0.00123733
0.0012331
0.00122826
0.00122287
0.00121694
0.00121044
0.00120339
0.00119576
0.00118756
0.00117878
0.00116943
0.0011595
0.001149
0.00113794
0.00112632
0.00119365
0.00119534
0.00119429
0.00119135
0.00118808
0.00118453
0.00118043
0.00117575
0.00117055
0.00116485
0.00115862
0.00115187
0.00114459
0.00113678
0.00112845
0.00111959
0.00111021
0.00110031
0.00108991
0.00107901
0.00113956
0.00114123
0.00114022
0.00113738
0.00113422
0.0011308
0.00112685
0.00112237
0.00111739
0.00111194
0.00110601
0.00109959
0.00109268
0.00108529
0.00107742
0.00106907
0.00106025
0.00105096
0.00104121
0.00103101
0.00108455
0.00108619
0.00108523
0.00108249
0.00107946
0.00107619
0.00107243
0.00106815
0.00106342
0.00105825
0.00105263
0.00104656
0.00104005
0.00103309
0.0010257
0.00101787
0.00100961
0.00100092
0.000991818
0.000982309
0.00102868
0.00103029
0.00102939
0.00102676
0.00102387
0.00102076
0.0010172
0.00101315
0.00100868
0.00100381
0.000998518
0.000992817
0.000986707
0.000980193
0.000973277
0.000965966
0.000958263
0.000950177
0.000941713
0.000932881
0.000972014
0.000973578
0.000972732
0.000970234
0.000967491
0.000964558
0.000961199
0.000957394
0.000953199
0.000948629
0.000943681
0.000938355
0.000932656
0.000926587
0.000920154
0.000913361
0.000906213
0.000898717
0.000890879
0.000882708
0.000914571
0.000916091
0.000915307
0.000912944
0.000910359
0.000907608
0.000904463
0.000900906
0.000896991
0.000892734
0.000888131
0.000883184
0.000877896
0.000872274
0.00086632
0.00086004
0.000853438
0.000846522
0.000839297
0.00083177
0.000856403
0.000857864
0.000857139
0.000854915
0.000852493
0.000849928
0.000847002
0.000843698
0.000840067
0.000836125
0.000831869
0.000827301
0.000822424
0.000817243
0.000811763
0.000805987
0.000799922
0.000793572
0.000786944
0.000780043
0.000797478
0.000798884
0.000798224
0.000796148
0.000793895
0.00079152
0.000788815
0.000785766
0.00078242
0.000778793
0.000774883
0.00077069
0.000766219
0.000761474
0.000756459
0.000751179
0.000745637
0.00073984
0.000733791
0.000727498
0.000737844
0.000739171
0.000738566
0.000736637
0.000734554
0.00073237
0.000729888
0.000727093
0.000724031
0.000720718
0.00071715
0.000713327
0.000709256
0.000704938
0.000700379
0.000695582
0.000690551
0.00068529
0.000679805
0.000674099
0.000677377
0.000678639
0.000678103
0.000676333
0.000674427
0.000672436
0.000670177
0.000667636
0.000664857
0.000661853
0.000658622
0.000655165
0.000651485
0.000647587
0.000643473
0.000639148
0.000634613
0.000629875
0.000624935
0.0006198
0.000616145
0.000617305
0.000616816
0.000615198
0.000613465
0.000611665
0.000609628
0.00060734
0.00060484
0.000602142
0.000599243
0.000596144
0.000592848
0.000589359
0.000585679
0.000581811
0.000577759
0.000573526
0.000569116
0.000564532
0.000553884
0.000554972
0.000554555
0.000553108
0.00055156
0.000549956
0.000548142
0.000546105
0.000543883
0.000541487
0.000538915
0.000536168
0.000533249
0.00053016
0.000526905
0.000523486
0.000519904
0.000516165
0.000512269
0.000508222
0.000490694
0.000491655
0.000491279
0.000489988
0.000488614
0.000487199
0.000485603
0.000483814
0.000481864
0.000479765
0.000477514
0.000475111
0.000472559
0.000469861
0.000467019
0.000464035
0.00046091
0.000457649
0.000454252
0.000450724
0.000426157
0.000427026
0.000426718
0.000425602
0.000424417
0.000423198
0.000421824
0.000420285
0.000418608
0.000416805
0.000414873
0.000412813
0.000410625
0.000408314
0.000405881
0.000403327
0.000400654
0.000397865
0.00039496
0.000391944
0.000360252
0.000360982
0.000360715
0.000359765
0.000358759
0.000357729
0.000356571
0.000355275
0.000353866
0.000352352
0.00035073
0.000349003
0.000347171
0.000345236
0.000343199
0.000341063
0.000338828
0.000336496
0.00033407
0.00033155
0.000292646
0.000293259
0.000293052
0.000292281
0.000291468
0.000290638
0.000289704
0.000288661
0.000287527
0.000286311
0.000285009
0.000283622
0.000282152
0.0002806
0.000278967
0.000277255
0.000275463
0.000273595
0.000271651
0.000269632
0.000223
0.000223457
0.000223287
0.00022269
0.000222061
0.000221419
0.0002207
0.000219898
0.000219028
0.000218096
0.0002171
0.000216041
0.000214919
0.000213737
0.000212493
0.00021119
0.000209828
0.000208409
0.000206932
0.0002054
0.000151043
0.000151371
0.00015127
0.000150871
0.000150451
0.000150025
0.000149549
0.000149016
0.000148439
0.000147819
0.000147157
0.000146453
0.000145706
0.000144918
0.000144089
0.000143221
0.000142312
0.000141365
0.000140379
0.000139356
7.5863e-05
7.59991e-05
7.59175e-05
7.56994e-05
7.5472e-05
7.52393e-05
7.49798e-05
7.46931e-05
7.43839e-05
7.40546e-05
7.37044e-05
7.33339e-05
7.29429e-05
7.25325e-05
7.21021e-05
7.1653e-05
7.11843e-05
7.06975e-05
7.01918e-05
6.96685e-05
0.00554302
0.00317978
0.00205664
0.00181848
0.00179225
0.00174403
0.00170182
0.00166282
0.00160179
0.00152908
0.00145512
0.00138736
0.00131949
0.00125762
0.00120035
0.00114918
0.00110325
0.00105841
0.00101654
0.000977941
0.000940025
0.000904769
0.000872555
0.00084166
0.000810474
0.000781756
0.000754443
0.000727412
0.000700925
0.000676815
0.000653612
0.000630238
0.0006071
0.000585472
0.00056447
0.000543845
0.000523383
0.000504216
0.000485832
0.000467997
0.000449709
0.000432233
0.000415095
0.000398812
0.000382316
0.000366193
0.000350384
0.000335195
0.000320209
0.000305709
0.000290986
0.000276761
0.000262587
0.000249131
0.000235917
0.000223036
0.000210095
0.000197645
0.000185278
0.000173551
0.000161755
0.000150261
0.000138798
0.000127587
0.000116446
0.00010572
9.54922e-05
8.53267e-05
7.54678e-05
6.55067e-05
5.64003e-05
4.67801e-05
3.84913e-05
2.93068e-05
2.22022e-05
1.30788e-05
7.37045e-06
-1.55184e-06
-4.14304e-06
-1.16031e-05
0.00552035
0.0031994
0.00208545
0.00184561
0.00181237
0.00175855
0.0017121
0.00167064
0.00160799
0.00153425
0.00145973
0.00139158
0.0013234
0.00126124
0.0012037
0.00115228
0.00110614
0.00106111
0.00101906
0.000980303
0.000942245
0.000906855
0.000874521
0.000843512
0.00081223
0.000783422
0.000756029
0.00072892
0.000702365
0.000678188
0.000654924
0.000631491
0.000608303
0.000586627
0.000565583
0.000544914
0.000524415
0.000505209
0.000486792
0.000468922
0.000450604
0.000433097
0.000415935
0.000399624
0.000383106
0.000366957
0.00035113
0.000335916
0.000320914
0.000306391
0.000291654
0.000277407
0.000263222
0.000249746
0.000236522
0.000223621
0.000210672
0.000198202
0.000185828
0.000174083
0.000162282
0.00015077
0.000139303
0.000128075
0.000116931
0.000106189
9.59591e-05
8.5777e-05
7.59167e-05
6.59399e-05
5.68329e-05
4.71974e-05
3.89091e-05
2.97106e-05
2.26056e-05
1.34689e-05
7.76103e-06
-1.17287e-06
-3.77956e-06
-1.12279e-05
0.00546929
0.00320735
0.00210653
0.00186804
0.00183309
0.00177658
0.0017263
0.00168106
0.00161614
0.00154117
0.00146593
0.00139721
0.00132862
0.00126609
0.00120821
0.00115649
0.00111008
0.00106478
0.00102251
0.000983545
0.000945306
0.000909738
0.000877247
0.000846087
0.000814674
0.000785748
0.000758247
0.000731033
0.000704385
0.000680119
0.00065677
0.000633257
0.00061
0.000588259
0.000567156
0.000546427
0.000525876
0.000506617
0.000488153
0.000470233
0.000451874
0.000434324
0.000417128
0.000400778
0.00038423
0.000368045
0.00035219
0.000336942
0.000321917
0.000307363
0.000292605
0.000278329
0.000264126
0.000250624
0.000237385
0.000224456
0.000211495
0.000198999
0.000186614
0.000174844
0.000163035
0.000151499
0.000140024
0.000128773
0.000117625
0.00010686
9.66266e-05
8.64214e-05
7.65586e-05
6.65595e-05
5.74513e-05
4.77938e-05
3.95064e-05
3.02878e-05
2.31825e-05
1.40266e-05
8.31938e-06
-6.31491e-07
-3.25909e-06
-1.06887e-05
0.00542424
0.00321627
0.00211707
0.00187472
0.00183967
0.00178629
0.00173709
0.00168898
0.00162309
0.00154723
0.00147104
0.00140171
0.00133285
0.00127013
0.00121207
0.00116018
0.00111353
0.00106803
0.00102559
0.000986451
0.000948071
0.000912354
0.000879747
0.000848458
0.000816933
0.000787906
0.000760311
0.000733007
0.000706276
0.000681933
0.000658511
0.000634926
0.000611604
0.000589807
0.000568649
0.000547866
0.000527268
0.000507961
0.000489454
0.00047149
0.00045309
0.000435502
0.000418272
0.000401887
0.00038531
0.000369092
0.000353212
0.000337932
0.000322884
0.000308303
0.000293522
0.000279222
0.000265
0.000251476
0.000238219
0.000225268
0.000212291
0.000199773
0.000187374
0.000175583
0.000163764
0.000152208
0.000140724
0.000129452
0.000118298
0.000107514
9.72749e-05
8.70496e-05
7.71825e-05
6.71636e-05
5.80522e-05
4.83743e-05
4.00868e-05
3.08501e-05
2.3743e-05
1.45697e-05
8.86132e-06
-1.03984e-07
-2.75442e-06
-1.01814e-05
0.00537847
0.0032237
0.00212856
0.00188352
0.00184344
0.0017884
0.00173972
0.0016937
0.00162935
0.00155241
0.0014757
0.00140569
0.00133657
0.00127381
0.00121574
0.00116355
0.00111658
0.00107097
0.00102843
0.000989186
0.000950718
0.000914897
0.000882197
0.000850786
0.000819162
0.000790045
0.000762371
0.000734982
0.000708178
0.000683763
0.000660281
0.000636622
0.00061324
0.000591387
0.000570178
0.000549342
0.000528697
0.000509344
0.000490796
0.000472788
0.000454348
0.000436722
0.000419457
0.000403038
0.000386431
0.000370181
0.000354273
0.000338964
0.000323891
0.000309285
0.000294479
0.000280155
0.000265912
0.000252368
0.000239092
0.000226118
0.000213124
0.000200586
0.00018817
0.00017636
0.000164528
0.000152953
0.000141457
0.000130166
0.000119005
0.000108203
9.79554e-05
8.77113e-05
7.78375e-05
6.78e-05
5.86829e-05
4.89857e-05
4.06962e-05
3.14428e-05
2.43314e-05
1.51418e-05
9.4297e-06
4.52568e-07
-2.22754e-06
-9.66929e-06
0.00532955
0.0032305
0.00214119
0.00189294
0.00184881
0.0017916
0.00173974
0.00169331
0.00163048
0.00155603
0.0014806
0.00140952
0.00134033
0.00127755
0.00121926
0.00116667
0.00111953
0.00107388
0.00103122
0.000991922
0.000953433
0.000917525
0.000884657
0.0008531
0.000821406
0.000792231
0.0007645
0.000737042
0.000710182
0.000685703
0.000662161
0.000638426
0.000614989
0.000593077
0.000571822
0.000550929
0.000530241
0.000510839
0.000492256
0.000474199
0.00045572
0.000438051
0.000420751
0.000404294
0.000387657
0.000371374
0.000355437
0.000340097
0.000324998
0.000310365
0.000295532
0.000281182
0.000266918
0.000253351
0.000240054
0.000227058
0.000214045
0.000201485
0.00018905
0.000177219
0.000165373
0.000153779
0.000142268
0.000130958
0.000119786
0.000108968
9.87094e-05
8.84465e-05
7.85635e-05
6.85076e-05
5.93819e-05
4.96656e-05
4.13719e-05
3.21022e-05
2.4984e-05
1.57782e-05
1.00599e-05
1.07182e-06
-1.645e-06
-9.11427e-06
0.00527857
0.00323756
0.00215438
0.00190266
0.00185461
0.00179471
0.00174116
0.00169373
0.00162971
0.00155587
0.00148139
0.00141203
0.00134434
0.00128112
0.00122222
0.00116967
0.00112255
0.00107674
0.00103388
0.000994603
0.000956132
0.0009201
0.00088704
0.000855379
0.000823661
0.000794447
0.000766669
0.000739156
0.000712266
0.000687705
0.000664048
0.000640252
0.000616774
0.00059482
0.000573534
0.000552594
0.000531871
0.000512423
0.000493801
0.000475693
0.00045718
0.000439464
0.000422133
0.000405636
0.000388971
0.000372652
0.000356691
0.000341317
0.000326194
0.00031153
0.000296672
0.000282292
0.000268008
0.000254416
0.000241099
0.000228077
0.000215045
0.000202461
0.000190007
0.000178155
0.000166294
0.000154679
0.000143151
0.00013182
0.000120639
0.000109802
9.95322e-05
8.92502e-05
7.93559e-05
6.92819e-05
6.01448e-05
5.04098e-05
4.21099e-05
3.28247e-05
2.56969e-05
1.64751e-05
1.07484e-05
1.74978e-06
-1.0095e-06
-8.51838e-06
0.00522576
0.00324436
0.00216782
0.00191271
0.00186046
0.00179812
0.00174288
0.00169427
0.00163012
0.00155617
0.00148088
0.00141189
0.00134498
0.00128274
0.00122531
0.00117319
0.00112526
0.00107911
0.00103636
0.000997163
0.000958622
0.000922423
0.000889322
0.000857695
0.00082595
0.000796633
0.000768813
0.000741255
0.000714353
0.000689702
0.000665924
0.000642076
0.000618578
0.000596606
0.000575299
0.00055432
0.000533567
0.000514053
0.000495358
0.000477211
0.000458671
0.000440917
0.000423562
0.000407033
0.000390348