/*--------------------------------*- C++ -*----------------------------------*\
| =========                 |                                                 |
| \\      /  F ield         | OpenFOAM: The Open Source CFD Toolbox           |
|  \\    /   O peration     | Version:  v1912                                 |
|   \\  /    A nd           | Website:  www.openfoam.com                      |
|    \\/     M anipulation  |                                                 |
\*---------------------------------------------------------------------------*/
FoamFile
{
    version     2.0;
    format      ascii;
    class       surfaceScalarField;
    location    "1000";
    object      phi;
}
// * * * * * * * * * * * * * * * * * * * * * * * * * * * * * * * * * * * * * //

dimensions      [0 3 -1 0 0 0 0];
oriented        oriented;


internalField   nonuniform List<scalar> 
19800
(
2.28521e-07
-1.3977e-08
2.2853e-07
-8.76304e-12
2.28672e-07
-1.42789e-10
2.28515e-07
1.57604e-10
2.28695e-07
-1.8119e-10
2.28515e-07
1.79807e-10
2.28697e-07
-1.82135e-10
2.28505e-07
1.92962e-10
2.28691e-07
-1.87112e-10
2.28485e-07
2.06369e-10
2.28677e-07
-1.91132e-10
2.28456e-07
2.20723e-10
2.28649e-07
-1.92741e-10
2.28412e-07
2.36478e-10
2.28599e-07
-1.86998e-10
2.28346e-07
2.5389e-10
2.28502e-07
-1.57025e-10
2.28239e-07
2.63593e-10
2.28175e-07
6.32723e-11
5.01167e-10
2.27674e-07
2.42204e-07
-1.70896e-08
2.42473e-07
-2.77985e-10
2.42305e-07
2.49251e-11
2.4244e-07
2.25706e-11
2.42293e-07
-3.48487e-11
2.42429e-07
4.32731e-11
2.42263e-07
-1.58074e-11
2.42411e-07
4.49694e-11
2.42227e-07
-3.09698e-12
2.42387e-07
4.57605e-11
2.42183e-07
1.34156e-11
2.42358e-07
4.62736e-11
2.42128e-07
3.74376e-11
2.42317e-07
4.73945e-11
2.4205e-07
7.969e-11
2.42255e-07
4.94606e-11
2.41921e-07
1.76354e-10
2.4215e-07
3.44047e-11
2.41534e-07
6.78849e-10
4.1928e-10
2.41616e-07
2.55714e-07
-1.67758e-08
2.55917e-07
-4.80674e-10
2.55845e-07
9.64609e-11
2.55899e-07
-3.11811e-11
2.55859e-07
5.05951e-12
2.55899e-07
2.71188e-12
2.55852e-07
3.13433e-11
2.55887e-07
9.62062e-12
2.55837e-07
4.69482e-11
2.55867e-07
1.54839e-11
2.55813e-07
6.79467e-11
2.55837e-07
2.19041e-11
2.55775e-07
9.9602e-11
2.55793e-07
3.01174e-11
2.55714e-07
1.58265e-10
2.55723e-07
4.07615e-11
2.55599e-07
2.9964e-10
2.55603e-07
3.05165e-11
2.55232e-07
1.04984e-09
6.11155e-10
2.5504e-07
2.70137e-07
-1.60968e-08
2.70304e-07
-6.48074e-10
2.70269e-07
1.31607e-10
2.70286e-07
-4.80838e-11
2.70279e-07
1.10092e-11
2.70285e-07
-2.87588e-12
2.7027e-07
4.59232e-11
2.70272e-07
7.47112e-12
2.70252e-07
6.65317e-11
2.70252e-07
1.66111e-11
2.70225e-07
9.43101e-11
2.70221e-07
2.6257e-11
2.70184e-07
1.36895e-10
2.70176e-07
3.83265e-11
2.70118e-07
2.16557e-10
2.70105e-07
5.38668e-11
2.69995e-07
4.09007e-10
2.69979e-07
4.61119e-11
2.69618e-07
1.41074e-09
8.2964e-10
2.69399e-07
2.85463e-07
-1.54964e-08
2.85623e-07
-8.08128e-10
2.85594e-07
1.60608e-10
2.85604e-07
-5.80725e-11
2.85602e-07
1.33707e-11
2.85601e-07
-2.71647e-12
2.85589e-07
5.79453e-11
2.85586e-07
1.0823e-11
2.85568e-07
8.39968e-11
2.85563e-07
2.23799e-11
2.85537e-07
1.19665e-10
2.85529e-07
3.48819e-11
2.85491e-07
1.7436e-10
2.85479e-07
5.04983e-11
2.85419e-07
2.76614e-10
2.85402e-07
7.04809e-11
2.85288e-07
5.23856e-10
2.85266e-07
6.76042e-11
2.84899e-07
1.77741e-09
1.06439e-09
2.84664e-07
3.01666e-07
-1.49013e-08
3.01825e-07
-9.66871e-10
3.01797e-07
1.88747e-10
3.01807e-07
-6.82297e-11
3.01803e-07
1.71424e-11
3.01804e-07
-3.71531e-12
3.01789e-07
7.19721e-11
3.01787e-07
1.28546e-11
3.01767e-07
1.04358e-10
3.01762e-07
2.72732e-11
3.01734e-07
1.48286e-10
3.01726e-07
4.26564e-11
3.01685e-07
2.15837e-10
3.01673e-07
6.19884e-11
3.01608e-07
3.42009e-10
3.01592e-07
8.70991e-11
3.01469e-07
6.46274e-10
3.01444e-07
9.19506e-11
3.0107e-07
2.15112e-09
1.31042e-09
3.00824e-07
3.18789e-07
-1.4299e-08
3.18944e-07
-1.12222e-09
3.18918e-07
2.14673e-10
3.18927e-07
-7.74352e-11
3.18923e-07
2.1283e-11
3.18923e-07
-4.49214e-12
3.18909e-07
8.68254e-11
3.18906e-07
1.55698e-11
3.18885e-07
1.2534e-10
3.1888e-07
3.24698e-11
3.1885e-07
1.78221e-10
3.18842e-07
5.09653e-11
3.18798e-07
2.59407e-10
3.18786e-07
7.42783e-11
3.18717e-07
4.10668e-10
3.18699e-07
1.04792e-10
3.18571e-07
7.74974e-10
3.18541e-07
1.21748e-10
3.18164e-07
2.5282e-09
1.57009e-09
3.17904e-07
3.36883e-07
-1.36691e-08
3.37034e-07
-1.27322e-09
3.3701e-07
2.38123e-10
3.37018e-07
-8.585e-11
3.37014e-07
2.57499e-11
3.37015e-07
-5.48798e-12
3.36999e-07
1.02375e-10
3.36996e-07
1.80361e-11
3.36974e-07
1.47892e-10
3.36968e-07
3.81619e-11
3.36937e-07
2.09917e-10
3.36928e-07
5.9928e-11
3.36882e-07
3.05396e-10
3.36869e-07
8.75113e-11
3.36797e-07
4.8311e-10
3.36777e-07
1.24296e-10
3.36642e-07
9.0953e-10
3.36607e-07
1.5698e-10
3.36227e-07
2.90778e-09
1.84318e-09
3.35954e-07
3.56003e-07
-1.29832e-08
3.56148e-07
-1.41904e-09
3.56127e-07
2.59388e-10
3.56135e-07
-9.38379e-11
3.56129e-07
3.1436e-11
3.56131e-07
-6.97398e-12
3.56113e-07
1.1961e-10
3.56111e-07
2.04902e-11
3.56087e-07
1.71907e-10
3.56082e-07
4.33473e-11
3.56048e-07
2.43876e-10
3.56039e-07
6.86397e-11
3.5599e-07
3.54482e-10
3.55977e-07
1.0084e-10
3.559e-07
5.59827e-10
3.5588e-07
1.44362e-10
3.55738e-07
1.05135e-09
3.55697e-07
1.97932e-10
3.55316e-07
3.28927e-09
2.12942e-09
3.55029e-07
3.76209e-07
-1.22995e-08
3.76347e-07
-1.55777e-09
3.76329e-07
2.77122e-10
3.76336e-07
-1.00519e-10
3.7633e-07
3.71217e-11
3.76331e-07
-8.28972e-12
3.76313e-07
1.37125e-10
3.76311e-07
2.30887e-11
3.76285e-07
1.97202e-10
3.76279e-07
4.95485e-11
3.76244e-07
2.79305e-10
3.76234e-07
7.85425e-11
3.76183e-07
4.05735e-10
3.76168e-07
1.15729e-10
3.76088e-07
6.40075e-10
3.76066e-07
1.67216e-10
3.75918e-07
1.1983e-09
3.7587e-07
2.462e-10
3.75489e-07
3.66957e-09
2.43024e-09
3.75189e-07
3.97563e-07
-1.16219e-08
3.97693e-07
-1.68791e-09
3.97679e-07
2.91549e-10
3.97684e-07
-1.05988e-10
3.97678e-07
4.35873e-11
3.97679e-07
-9.3756e-12
3.9766e-07
1.55808e-10
3.97657e-07
2.65263e-11
3.9763e-07
2.23296e-10
3.97624e-07
5.6e-11
3.97587e-07
3.16398e-10
3.97576e-07
8.90526e-11
3.97523e-07
4.59509e-10
3.97507e-07
1.31687e-10
3.97423e-07
7.24019e-10
3.97398e-07
1.91864e-10
3.97245e-07
1.35176e-09
3.97188e-07
3.02541e-10
3.96809e-07
4.0484e-09
2.74507e-09
3.96494e-07
4.2013e-07
-1.09347e-08
4.2025e-07
-1.80841e-09
4.20239e-07
3.02401e-10
4.20243e-07
-1.10508e-10
4.20236e-07
5.06664e-11
4.20237e-07
-1.07881e-11
4.20218e-07
1.75313e-10
4.20215e-07
2.95584e-11
4.20186e-07
2.51425e-10
4.2018e-07
6.30786e-11
4.2014e-07
3.55727e-10
4.20129e-07
1.00375e-10
4.20073e-07
5.16277e-10
4.20055e-07
1.48921e-10
4.19967e-07
8.12371e-10
4.1994e-07
2.19397e-10
4.19781e-07
1.5108e-09
4.19716e-07
3.67138e-10
4.1934e-07
4.42405e-09
3.07345e-09
4.19012e-07
4.43977e-07
-1.02337e-08
4.44086e-07
-1.91756e-09
4.44079e-07
3.09634e-10
4.44082e-07
-1.13894e-10
4.44074e-07
5.88698e-11
4.44076e-07
-1.20792e-11
4.44055e-07
1.96228e-10
4.44051e-07
3.34129e-11
4.44022e-07
2.80526e-10
4.44014e-07
7.03285e-11
4.43973e-07
3.9696e-10
4.43961e-07
1.12308e-10
4.43902e-07
5.75832e-10
4.43883e-07
1.67368e-10
4.43791e-07
9.04623e-10
4.43761e-07
2.49242e-10
4.43596e-07
1.67613e-09
4.43521e-07
4.41402e-10
4.4315e-07
4.79507e-09
3.41545e-09
4.42808e-07
4.69178e-07
-9.52461e-09
4.69275e-07
-2.01418e-09
4.69271e-07
3.12831e-10
4.69274e-07
-1.16248e-10
4.69265e-07
6.78068e-11
4.69266e-07
-1.36375e-11
4.69244e-07
2.17939e-10
4.6924e-07
3.6923e-11
4.69209e-07
3.11771e-10
4.69201e-07
7.84303e-11
4.69158e-07
4.40515e-10
4.69145e-07
1.25342e-10
4.69083e-07
6.38465e-10
4.69063e-07
1.87537e-10
4.68966e-07
1.00129e-09
4.68933e-07
2.82909e-10
4.68762e-07
1.84634e-09
4.68678e-07
5.25657e-10
4.68313e-07
5.15943e-09
3.77055e-09
4.67958e-07
4.9581e-07
-8.81822e-09
4.95892e-07
-2.09654e-09
4.95893e-07
3.12083e-10
4.95894e-07
-1.17398e-10
4.95884e-07
7.80677e-11
4.95885e-07
-1.49483e-11
4.95862e-07
2.41133e-10
4.95858e-07
4.14972e-11
4.95826e-07
3.43931e-10
4.95817e-07
8.68239e-11
4.95772e-07
4.85999e-10
4.95758e-07
1.39216e-10
4.95692e-07
7.03912e-10
4.9567e-07
2.09332e-10
4.9557e-07
1.10176e-09
4.95532e-07
3.19741e-10
4.95357e-07
2.02216e-09
4.95261e-07
6.214e-10
4.94905e-07
5.51575e-09
4.13842e-09
4.94537e-07
5.23953e-07
-8.12307e-09
5.2402e-07
-2.16349e-09
5.24025e-07
3.07063e-10
5.24025e-07
-1.17505e-10
5.24014e-07
8.92093e-11
5.24015e-07
-1.64569e-11
5.23991e-07
2.65096e-10
5.23986e-07
4.57711e-11
5.23952e-07
3.78394e-10
5.23943e-07
9.63345e-11
5.23895e-07
5.33919e-10
5.2388e-07
1.54534e-10
5.23811e-07
7.72534e-10
5.23788e-07
2.33399e-10
5.23683e-07
1.20662e-09
5.23641e-07
3.61537e-10
5.23461e-07
2.20194e-09
5.23354e-07
7.28887e-10
5.23007e-07
5.86209e-09
4.51795e-09
5.22627e-07
5.53694e-07
-7.43404e-09
5.53744e-07
-2.21345e-09
5.53753e-07
2.98093e-10
5.53752e-07
-1.16505e-10
5.53739e-07
1.01978e-10
5.5374e-07
-1.7674e-11
5.53715e-07
2.90691e-10
5.5371e-07
5.12425e-11
5.53674e-07
4.13849e-10
5.53664e-07
1.06221e-10
5.53614e-07
5.83898e-10
5.53597e-07
1.70902e-10
5.53526e-07
8.44074e-10
5.535e-07
2.59534e-10
5.53391e-07
1.31519e-09
5.53344e-07
4.07484e-10
5.5316e-07
2.38649e-09
5.5304e-07
8.49547e-10
5.52705e-07
6.19732e-09
4.90822e-09
5.52314e-07
5.85122e-07
-6.75139e-09
5.85153e-07
-2.24545e-09
5.85166e-07
2.84938e-10
5.85164e-07
-1.14591e-10
5.8515e-07
1.15876e-10
5.85151e-07
-1.90516e-11
5.85125e-07
3.1711e-10
5.8512e-07
5.64432e-11
5.85082e-07
4.51797e-10
5.85071e-07
1.17443e-10
5.85018e-07
6.36462e-10
5.85e-07
1.89046e-10
5.84926e-07
9.18885e-10
5.84897e-07
2.88535e-10
5.84784e-07
1.42802e-09
5.84732e-07
4.59638e-10
5.84545e-07
2.57385e-09
5.84411e-07
9.83572e-10
5.84088e-07
6.51943e-09
5.30773e-09
5.83689e-07
6.18332e-07
-6.06443e-09
6.18345e-07
-2.25815e-09
6.18362e-07
2.6808e-10
6.18359e-07
-1.11696e-10
6.18343e-07
1.31689e-10
6.18344e-07
-2.00085e-11
6.18316e-07
3.45271e-10
6.1831e-07
6.30782e-11
6.18271e-07
4.90723e-10
6.18259e-07
1.29195e-10
6.18204e-07
6.91113e-10
6.18184e-07
2.08559e-10
6.18107e-07
9.96573e-10
6.18075e-07
3.20217e-10
6.17959e-07
1.54423e-09
6.179e-07
5.17155e-10
6.1771e-07
2.7647e-09
6.17561e-07
1.13238e-09
6.17254e-07
6.82735e-09
5.71517e-09
6.16846e-07
6.53427e-07
-5.37138e-09
6.53419e-07
-2.2509e-09
6.5344e-07
2.47366e-10
6.53436e-07
-1.0801e-10
6.53419e-07
1.48787e-10
6.5342e-07
-2.09696e-11
6.5339e-07
3.74219e-10
6.53384e-07
6.95667e-11
6.53342e-07
5.32257e-10
6.53329e-07
1.42647e-10
6.53272e-07
7.48391e-10
6.53251e-07
2.3036e-10
6.5317e-07
1.07748e-09
6.53135e-07
3.55598e-10
6.53015e-07
1.66432e-09
6.5295e-07
5.8242e-10
6.52757e-07
2.95681e-09
6.52594e-07
1.296e-09
6.52301e-07
7.11934e-09
6.12844e-09
6.51888e-07
6.90511e-07
-4.62418e-09
6.90483e-07
-2.22304e-09
6.90507e-07
2.23632e-10
6.90503e-07
-1.03598e-10
6.90483e-07
1.68096e-10
6.90484e-07
-2.13869e-11
6.90453e-07
4.05036e-10
6.90446e-07
7.76831e-11
6.90403e-07
5.74823e-10
6.90388e-07
1.56825e-10
6.90329e-07
8.07813e-10
6.90305e-07
2.53915e-10
6.90221e-07
1.1612e-09
6.90182e-07
3.94396e-10
6.90059e-07
1.78738e-09
6.89986e-07
6.54404e-10
6.89793e-07
3.15097e-09
6.89613e-07
1.47557e-09
6.89338e-07
7.39475e-09
6.54559e-09
6.88921e-07
7.29698e-07
-3.80825e-09
7.29649e-07
-2.17457e-09
7.29676e-07
1.96843e-10
7.29671e-07
-9.85015e-11
7.2965e-07
1.88718e-10
7.2965e-07
-2.14635e-11
7.29618e-07
4.3651e-10
7.29609e-07
8.59739e-11
7.29564e-07
6.19969e-10
7.29548e-07
1.73231e-10
7.29487e-07
8.69767e-10
7.2946e-07
2.80476e-10
7.29374e-07
1.24792e-09
7.2933e-07
4.37976e-10
7.29204e-07
1.91372e-09
7.29123e-07
7.35839e-10
7.28929e-07
3.34473e-09
7.28733e-07
1.67093e-09
7.28476e-07
7.65239e-09
6.96375e-09
7.28057e-07
7.71102e-07
-2.73092e-09
7.71035e-07
-2.10798e-09
7.71063e-07
1.69156e-10
7.71058e-07
-9.37116e-11
7.71035e-07
2.12342e-10
7.71035e-07
-2.13686e-11
7.71001e-07
4.70471e-10
7.70992e-07
9.55829e-11
7.70945e-07
6.66647e-10
7.70928e-07
1.90078e-10
7.70863e-07
9.34298e-10
7.70835e-07
3.08745e-10
7.70745e-07
1.33766e-09
7.70697e-07
4.85344e-10
7.70568e-07
2.04269e-09
7.70478e-07
8.24945e-10
7.70285e-07
3.53896e-09
7.70074e-07
1.88243e-09
7.69835e-07
7.89122e-09
7.38124e-09
7.69417e-07
8.1485e-07
-1.70488e-09
8.14768e-07
-2.02684e-09
8.14796e-07
1.40858e-10
8.14792e-07
-8.90983e-11
8.14766e-07
2.37345e-10
8.14766e-07
-2.08212e-11
8.14731e-07
5.04927e-10
8.14721e-07
1.05513e-10
8.14672e-07
7.15688e-10
8.14653e-07
2.09589e-10
8.14586e-07
1.00088e-09
8.14555e-07
3.40764e-10
8.14463e-07
1.42947e-09
8.1441e-07
5.3876e-10
8.1428e-07
2.17309e-09
8.14179e-07
9.25504e-10
8.13989e-07
3.72897e-09
8.1376e-07
2.11097e-09
8.13545e-07
8.10649e-09
7.79859e-09
8.13128e-07
8.61073e-07
-1.04985e-09
8.60981e-07
-1.93428e-09
8.61008e-07
1.13735e-10
8.61003e-07
-8.44579e-11
8.60977e-07
2.6407e-10
8.60974e-07
-1.85656e-11
8.60939e-07
5.40556e-10
8.60927e-07
1.18354e-10
8.60877e-07
7.64832e-10
8.60855e-07
2.31268e-10
8.60787e-07
1.06845e-09
8.60751e-07
3.76518e-10
8.60658e-07
1.52241e-09
8.60599e-07
5.98468e-10
8.60468e-07
2.3036e-09
8.60356e-07
1.03671e-09
8.6017e-07
3.9158e-09
8.59924e-07
2.35711e-09
8.5973e-07
8.30007e-09
8.21166e-09
8.59317e-07
9.09912e-07
-7.03263e-10
9.09812e-07
-1.83425e-09
9.09836e-07
8.93354e-11
9.09832e-07
-8.0758e-11
9.09804e-07
2.92201e-10
9.09801e-07
-1.55079e-11
9.09764e-07
5.76871e-10
9.09751e-07
1.31791e-10
9.09699e-07
8.16626e-10
9.09674e-07
2.56053e-10
9.09605e-07
1.13838e-09
9.09565e-07
4.16667e-10
9.0947e-07
1.61768e-09
9.09403e-07
6.6518e-10
9.09272e-07
2.43567e-09
9.09148e-07
1.16038e-09
9.08965e-07
4.09857e-09
9.08704e-07
2.61841e-09
9.08529e-07
8.47447e-09
8.61408e-09
9.08126e-07
9.61517e-07
-4.99411e-10
9.61412e-07
-1.72885e-09
9.61432e-07
6.92209e-11
9.61429e-07
-7.79829e-11
9.61399e-07
3.22617e-10
9.61395e-07
-1.08798e-11
9.61357e-07
6.15043e-10
9.61341e-07
1.47944e-10
9.61288e-07
8.69188e-10
9.61261e-07
2.82931e-10
9.61189e-07
1.2099e-09
9.61145e-07
4.60729e-10
9.61048e-07
1.71453e-09
9.60974e-07
7.38675e-10
9.60842e-07
2.56802e-09
9.60706e-07
1.29512e-09
9.60527e-07
4.27816e-09
9.60251e-07
2.89458e-09
9.60095e-07
8.63073e-09
9.00272e-09
9.59707e-07
1.01605e-06
-3.49237e-10
1.01594e-06
-1.62002e-09
1.01595e-06
5.36195e-11
1.01595e-06
-7.63226e-11
1.01592e-06
3.54384e-10
1.01591e-06
-5.11788e-12
1.01587e-06
6.53869e-10
1.01586e-06
1.65037e-10
1.0158e-06
9.24263e-10
1.01577e-06
3.13483e-10
1.0157e-06
1.28346e-09
1.01565e-06
5.10042e-10
1.01555e-06
1.81307e-09
1.01547e-06
8.20384e-10
1.01534e-06
2.70075e-09
1.01519e-06
1.44336e-09
1.01502e-06
4.45191e-09
1.01473e-06
3.18384e-09
1.01459e-06
8.76827e-09
9.3747e-09
1.01422e-06
1.07367e-06
-2.23924e-10
1.07356e-06
-1.50859e-09
1.07357e-06
4.33379e-11
1.07356e-06
-7.52543e-11
1.07353e-06
3.88047e-10
1.07352e-06
2.81844e-12
1.07348e-06
6.94242e-10
1.07346e-06
1.8546e-10
1.07341e-06
9.79668e-10
1.07337e-06
3.46978e-10
1.0733e-06
1.35792e-09
1.07324e-06
5.64425e-10
1.07315e-06
1.91214e-09
1.07306e-06
9.10336e-10
1.07292e-06
2.83216e-09
1.07276e-06
1.60378e-09
1.07259e-06
4.6204e-09
1.07229e-06
3.48563e-09
1.07217e-06
8.88809e-09
9.7276e-09
1.07182e-06
1.13455e-06
-1.17121e-10
1.13444e-06
-1.39616e-09
1.13445e-06
3.83102e-11
1.13444e-06
-7.48172e-11
1.13441e-06
4.22619e-10
1.1344e-06
1.25089e-11
1.13436e-06
7.34958e-10
1.13434e-06
2.075e-10
1.13428e-06
1.0371e-09
1.13424e-06
3.85037e-10
1.13417e-06
1.43377e-09
1.13411e-06
6.25217e-10
1.13401e-06
2.01191e-09
1.13391e-06
1.00985e-09
1.13378e-06
2.96256e-09
1.1336e-06
1.77831e-09
1.13344e-06
4.78161e-09
1.13313e-06
3.7973e-09
1.13303e-06
8.99083e-09
1.00581e-08
1.1327e-06
1.19889e-06
-2.64129e-11
1.19878e-06
-1.28353e-09
1.19878e-06
3.91769e-11
1.19878e-06
-7.43397e-11
1.19874e-06
4.58619e-10
1.19873e-06
2.49989e-11
1.19869e-06
7.76968e-10
1.19866e-06
2.33469e-10
1.1986e-06
1.09451e-09
1.19856e-06
4.26907e-10
1.19848e-06
1.50989e-09
1.19842e-06
6.92197e-10
1.19832e-06
2.11129e-09
1.19821e-06
1.11879e-09
1.19808e-06
3.09045e-09
1.19789e-06
1.9652e-09
1.19774e-06
4.93657e-09
1.19742e-06
4.11741e-09
1.19733e-06
9.07848e-09
1.03636e-08
1.19703e-06
1.26687e-06
4.9059e-11
1.26676e-06
-1.17228e-09
1.26675e-06
4.5651e-11
1.26675e-06
-7.37429e-11
1.26672e-06
4.95027e-10
1.2667e-06
3.98969e-11
1.26666e-06
8.19023e-10
1.26663e-06
2.61824e-10
1.26657e-06
1.1534e-09
1.26653e-06
4.74248e-10
1.26645e-06
1.58673e-09
1.26637e-06
7.66655e-10
1.26628e-06
2.21049e-09
1.26616e-06
1.23825e-09
1.26603e-06
3.21634e-09
1.26583e-06
2.1657e-09
1.26568e-06
5.08387e-09
1.26536e-06
4.44255e-09
1.26528e-06
9.1523e-09
1.06412e-08
1.26501e-06
1.33871e-06
1.11095e-10
1.3386e-06
-1.06314e-09
1.33859e-06
5.81073e-11
1.33859e-06
-7.22007e-11
1.33855e-06
5.32286e-10
1.33853e-06
5.82582e-11
1.33849e-06
8.62061e-10
1.33846e-06
2.94779e-10
1.3384e-06
1.21185e-09
1.33834e-06
5.26328e-10
1.33827e-06
1.66319e-09
1.33819e-06
8.48344e-10
1.33809e-06
2.30848e-09
1.33796e-06
1.36789e-09
1.33784e-06
3.33893e-09
1.33762e-06
2.37761e-09
1.33748e-06
5.22487e-09
1.33715e-06
4.77065e-09
1.33709e-06
9.21465e-09
1.08891e-08
1.33684e-06
1.41462e-06
1.60691e-10
1.41451e-06
-9.57544e-10
1.41449e-06
7.59583e-11
1.41449e-06
-6.95203e-11
1.41445e-06
5.69354e-10
1.41443e-06
7.9707e-11
1.41439e-06
9.04793e-10
1.41435e-06
3.30955e-10
1.41429e-06
1.27117e-09
1.41423e-06
5.8479e-10
1.41416e-06
1.73969e-09
1.41407e-06
9.38424e-10
1.41397e-06
2.40553e-09
1.41383e-06
1.50848e-09
1.41371e-06
3.45896e-09
1.41349e-06
2.6014e-09
1.41335e-06
5.35875e-09
1.41303e-06
5.09774e-09
1.41297e-06
9.26702e-09
1.1105e-08
1.41276e-06
1.49483e-06
1.9979e-10
1.49473e-06
-8.55977e-10
1.4947e-06
9.9251e-11
1.4947e-06
-6.47587e-11
1.49466e-06
6.06615e-10
1.49463e-06
1.05281e-10
1.49459e-06
9.48158e-10
1.49455e-06
3.72386e-10
1.49449e-06
1.32963e-09
1.49443e-06
6.4886e-10
1.49435e-06
1.81518e-09
1.49425e-06
1.03652e-09
1.49416e-06
2.50075e-09
1.49401e-06
1.6593e-09
1.49389e-06
3.57541e-09
1.49366e-06
2.83436e-09
1.49353e-06
5.48711e-09
1.49321e-06
5.42138e-09
1.49316e-06
9.3118e-09
1.12881e-08
1.49298e-06
1.57958e-06
2.29473e-10
1.57949e-06
-7.59561e-10
1.57946e-06
1.27097e-10
1.57945e-06
-5.76315e-11
1.57942e-06
6.43062e-10
1.57939e-06
1.34627e-10
1.57934e-06
9.90831e-10
1.5793e-06
4.17939e-10
1.57924e-06
1.38828e-09
1.57917e-06
7.20121e-10
1.57909e-06
1.89013e-09
1.57899e-06
1.14357e-09
1.57889e-06
2.59458e-09
1.57873e-06
1.82064e-09
1.57862e-06
3.68937e-09
1.57838e-06
3.07605e-09
1.57825e-06
5.60976e-09
1.57794e-06
5.73736e-09
1.5779e-06
9.35033e-09
1.14374e-08
1.57775e-06
1.66914e-06
2.5163e-10
1.66905e-06
-6.68417e-10
1.66902e-06
1.59224e-10
1.66901e-06
-4.71511e-11
1.66897e-06
6.79077e-10
1.66894e-06
1.68746e-10
1.6689e-06
1.03378e-09
1.66885e-06
4.69445e-10
1.66879e-06
1.44562e-09
1.66871e-06
7.97635e-10
1.66864e-06
1.96357e-09
1.66852e-06
1.25888e-09
1.66843e-06
2.68632e-09
1.66826e-06
1.99126e-09
1.66815e-06
3.80014e-09
1.6679e-06
3.32324e-09
1.66778e-06
5.72845e-09
1.66748e-06
6.0432e-09
1.66744e-06
9.38467e-09
1.15533e-08
1.66733e-06
1.76378e-06
2.67186e-10
1.7637e-06
-5.83262e-10
1.76366e-06
1.9445e-10
1.76365e-06
-3.30641e-11
1.76361e-06
7.13691e-10
1.76357e-06
2.0717e-10
1.76353e-06
1.07566e-09
1.76348e-06
5.25778e-10
1.76342e-06
1.50267e-09
1.76333e-06
8.82876e-10
1.76326e-06
2.03619e-09
1.76314e-06
1.38313e-09
1.76305e-06
2.77673e-09
1.76287e-06
2.17096e-09
1.76276e-06
3.90919e-09
1.76251e-06
3.57485e-09
1.76239e-06
5.8433e-09
1.7621e-06
6.33493e-09
1.76207e-06
9.41561e-09
1.16361e-08
1.76199e-06
1.86378e-06
2.77783e-10
1.8637e-06
-5.03776e-10
1.86367e-06
2.32265e-10
1.86365e-06
-1.44318e-11
1.86361e-06
7.47343e-10
1.86357e-06
2.50852e-10
1.86353e-06
1.11745e-09
1.86347e-06
5.88561e-10
1.86341e-06
1.55811e-09
1.86332e-06
9.74661e-10
1.86325e-06
2.10712e-09
1.86312e-06
1.51516e-09
1.86303e-06
2.86535e-09
1.86284e-06
2.35783e-09
1.86273e-06
4.01614e-09
1.86248e-06
3.82717e-09
1.86237e-06
5.95601e-09
1.86209e-06
6.61043e-09
1.86206e-06
9.44455e-09
1.16874e-08
1.86201e-06
1.96946e-06
2.84052e-10
1.96938e-06
-4.30228e-10
1.96934e-06
2.71326e-10
1.96932e-06
8.86422e-12
1.96929e-06
7.7919e-10
1.96924e-06
2.99179e-10
1.9692e-06
1.15797e-09
1.96913e-06
6.56622e-10
1.96908e-06
1.61303e-09
1.96898e-06
1.07415e-09
1.96891e-06
2.17739e-09
1.96877e-06
1.65526e-09
1.96868e-06
2.9533e-09
1.96849e-06
2.5512e-09
1.96838e-06
4.1227e-09
1.96813e-06
4.07873e-09
1.96802e-06
6.06673e-09
1.96776e-06
6.86649e-09
1.96773e-06
9.47145e-09
1.17087e-08
1.96771e-06
2.08112e-06
2.87265e-10
2.08105e-06
-3.61881e-10
2.08101e-06
3.11037e-10
2.08098e-06
3.7591e-11
2.08095e-06
8.09786e-10
2.0809e-06
3.52983e-10
2.08086e-06
1.1982e-09
2.08078e-06
7.3128e-10
2.08073e-06
1.66637e-09
2.08062e-06
1.17984e-09
2.08055e-06
2.24628e-09
2.08041e-06
1.80174e-09
2.08032e-06
3.04034e-09
2.08012e-06
2.74851e-09
2.08002e-06
4.22861e-09
2.07977e-06
4.32566e-09
2.07966e-06
6.17674e-09
2.07942e-06
7.10179e-09
2.0794e-06
9.49686e-09
1.17027e-08
2.0794e-06
2.19911e-06
2.87663e-10
2.19905e-06
-2.98647e-10
2.19901e-06
3.5006e-10
2.19897e-06
7.15978e-11
2.19894e-06
8.38454e-10
2.19889e-06
4.11451e-10
2.19885e-06
1.23717e-09
2.19877e-06
8.11202e-10
2.19871e-06
1.71934e-09
2.1986e-06
1.29248e-09
2.19853e-06
2.31517e-09
2.19838e-06
1.95446e-09
2.19829e-06
3.1279e-09
2.19809e-06
2.94875e-09
2.19799e-06
4.33562e-09
2.19775e-06
4.56652e-09
2.19764e-06
6.28591e-09
2.19742e-06
7.31423e-09
2.1974e-06
9.51988e-09
1.16718e-08
2.19743e-06
2.32379e-06
2.86136e-10
2.32373e-06
-2.39504e-10
2.32369e-06
3.87907e-10
2.32366e-06
1.11357e-10
2.32363e-06
8.6589e-10
2.32356e-06
4.75202e-10
2.32353e-06
1.27586e-09
2.32344e-06
8.97299e-10
2.32339e-06
1.77121e-09
2.32327e-06
1.41029e-09
2.3232e-06
2.38356e-09
2.32304e-06
2.11124e-09
2.32296e-06
3.21587e-09
2.32276e-06
3.14896e-09
2.32265e-06
4.44341e-09
2.32242e-06
4.7977e-09
2.32231e-06
6.39479e-09
2.32212e-06
7.50351e-09
2.3221e-06
9.54019e-09
1.16191e-08
2.32215e-06
2.45554e-06
2.82599e-10
2.45549e-06
-1.84175e-10
2.45545e-06
4.23472e-10
2.45541e-06
1.56366e-10
2.45538e-06
8.91669e-10
2.45531e-06
5.43214e-10
2.45527e-06
1.31368e-09
2.45518e-06
9.88042e-10
2.45513e-06
1.82333e-09
2.45501e-06
1.53343e-09
2.45494e-06
2.45303e-09
2.45478e-06
2.27154e-09
2.45469e-06
3.30575e-09
2.45449e-06
3.34796e-09
2.45438e-06
4.55332e-09
2.45416e-06
5.01814e-09
2.45405e-06
6.50268e-09
2.45389e-06
7.66889e-09
2.45387e-06
9.55627e-09
1.15474e-08
2.45394e-06
2.59476e-06
2.77651e-10
2.59471e-06
-1.31578e-10
2.59468e-06
4.56554e-10
2.59463e-06
2.0671e-10
2.5946e-06
9.16612e-10
2.59453e-06
6.15789e-10
2.59449e-06
1.3516e-09
2.5944e-06
1.08382e-09
2.59434e-06
1.87535e-09
2.59422e-06
1.65991e-09
2.59415e-06
2.52329e-09
2.59399e-06
2.43288e-09
2.59389e-06
3.39739e-09
2.5937e-06
3.54282e-09
2.59359e-06
4.66472e-09
2.59338e-06
5.22501e-09
2.59327e-06
6.60926e-09
2.59313e-06
7.81102e-09
2.59312e-06
9.56724e-09
1.14599e-08
2.59321e-06
2.74188e-06
2.71046e-10
2.74183e-06
-8.14624e-11
2.7418e-06
4.86469e-10
2.74174e-06
2.6152e-10
2.74172e-06
9.40573e-10
2.74164e-06
6.91735e-10
2.7416e-06
1.3894e-09
2.7415e-06
1.18297e-09
2.74145e-06
1.92858e-09
2.74132e-06
1.78937e-09
2.74125e-06
2.59588e-09
2.74109e-06
2.59446e-09
2.74099e-06
3.492e-09
2.7408e-06
3.73245e-09
2.74069e-06
4.7782e-09
2.7405e-06
5.41783e-09
2.74039e-06
6.71324e-09
2.74027e-06
7.93036e-09
2.74027e-06
9.57138e-09
1.13591e-08
2.74037e-06
2.89733e-06
2.63256e-10
2.89728e-06
-3.29318e-11
2.89725e-06
5.13419e-10
2.8972e-06
3.20471e-10
2.89717e-06
9.64451e-10
2.89709e-06
7.70976e-10
2.89705e-06
1.42805e-09
2.89695e-06
1.28533e-09
2.8969e-06
1.98299e-09
2.89677e-06
1.91978e-09
2.89669e-06
2.67055e-09
2.89653e-06
2.75386e-09
2.89644e-06
3.58914e-09
2.89625e-06
3.91437e-09
2.89614e-06
4.89261e-09
2.89596e-06
5.59482e-09
2.89586e-06
6.8135e-09
2.89576e-06
8.02825e-09
2.89577e-06
9.56771e-09
1.12476e-08
2.89588e-06
3.0616e-06
2.54073e-10
3.06155e-06
1.40373e-11
3.06153e-06
5.37219e-10
3.06146e-06
3.82394e-10
3.06144e-06
9.8833e-10
3.06136e-06
8.52204e-10
3.06132e-06
1.46759e-09
3.06122e-06
1.3892e-09
3.06116e-06
2.03971e-09
3.06103e-06
2.0504e-09
3.06095e-06
2.74848e-09
3.06079e-06
2.91023e-09
3.06069e-06
3.68942e-09
3.06052e-06
4.08784e-09
3.06041e-06
5.00768e-09
3.06024e-06
5.75618e-09
3.06015e-06
6.9084e-09
3.06007e-06
8.10587e-09
3.06009e-06
9.55477e-09
1.11272e-08
3.06021e-06
3.23518e-06
2.44012e-10
3.23513e-06
5.99857e-11
3.23511e-06
5.58464e-10
3.23505e-06
4.46637e-10
3.23502e-06
1.01309e-09
3.23494e-06
9.35005e-10
3.2349e-06
1.50891e-09
3.23479e-06
1.49401e-09
3.23473e-06
2.09881e-09
3.23461e-06
2.17938e-09
3.23452e-06
2.82923e-09
3.23437e-06
3.06152e-09
3.23427e-06
3.79187e-09
3.23411e-06
4.25111e-09
3.23399e-06
5.12169e-09
3.23385e-06
5.90111e-09
3.23376e-06
6.99639e-09
3.2337e-06
8.16483e-09
3.23372e-06
9.5319e-09
1.09999e-08
3.23385e-06
3.4186e-06
2.3304e-10
3.41856e-06
1.0462e-10
3.41854e-06
5.77402e-10
3.41847e-06
5.11889e-10
3.41845e-06
1.03892e-09
3.41836e-06
1.01806e-09
3.41832e-06
1.55213e-09
3.41822e-06
1.59818e-09
3.41815e-06
2.16096e-09
3.41803e-06
2.30593e-09
3.41794e-06
2.91334e-09
3.4178e-06
3.20712e-09
3.41769e-06
3.89631e-09
3.41754e-06
4.40393e-09
3.41743e-06
5.23364e-09
3.4173e-06
6.03031e-09
3.41722e-06
7.07586e-09
3.41718e-06
8.20649e-09
3.41721e-06
9.49828e-09
1.08666e-08
3.41734e-06
3.61242e-06
2.21793e-10
3.61238e-06
1.48097e-10
3.61236e-06
5.94867e-10
3.6123e-06
5.77342e-10
3.61227e-06
1.06654e-09
3.61219e-06
1.10076e-09
3.61214e-06
1.59788e-09
3.61204e-06
1.70098e-09
3.61197e-06
2.22607e-09
3.61185e-06
2.42858e-09
3.61176e-06
2.99996e-09
3.61162e-06
3.34556e-09
3.61152e-06
4.00125e-09
3.61138e-06
4.54529e-09
3.61127e-06
5.34148e-09
3.61116e-06
6.14366e-09
3.61109e-06
7.14531e-09
3.61106e-06
8.23227e-09
3.61111e-06
9.45375e-09
1.07284e-08
3.61124e-06
3.81723e-06
2.10428e-10
3.81719e-06
1.89872e-10
3.81717e-06
6.11325e-10
3.81711e-06
6.41769e-10
3.81708e-06
1.09606e-09
3.817e-06
1.18194e-09
3.81695e-06
1.64614e-09
3.81685e-06
1.80113e-09
3.81678e-06
2.2942e-09
3.81666e-06
2.5467e-09
3.81658e-06
3.08886e-09
3.81644e-06
3.47655e-09
3.81634e-06
4.10576e-09
3.81621e-06
4.67531e-09
3.81611e-06
5.44386e-09
3.81601e-06
6.24202e-09
3.81595e-06
7.20356e-09
3.81594e-06
8.24334e-09
3.816e-06
9.3982e-09
1.05857e-08
3.81614e-06
4.03365e-06
1.99641e-10
4.03361e-06
2.29845e-10
4.0336e-06
6.2759e-10
4.03354e-06
7.04432e-10
4.0335e-06
1.12787e-09
4.03342e-06
1.26099e-09
4.03337e-06
1.69706e-09
4.03328e-06
1.898e-09
4.03321e-06
2.36482e-09
4.03309e-06
2.65933e-09
4.033e-06
3.17873e-09
4.03288e-06
3.59921e-09
4.03278e-06
4.208e-09
4.03266e-06
4.79353e-09
4.03256e-06
5.53881e-09
4.03248e-06
6.32555e-09
4.03244e-06
7.24957e-09
4.03244e-06
8.24069e-09
4.0325e-06
9.33194e-09
1.0439e-08
4.03265e-06
4.26235e-06
1.8966e-10
4.26231e-06
2.67414e-10
4.26229e-06
6.44068e-10
4.26223e-06
7.64397e-10
4.2622e-06
1.16182e-09
4.26212e-06
1.33704e-09
4.26207e-06
1.75027e-09
4.26198e-06
1.99072e-09
4.2619e-06
2.43734e-09
4.2618e-06
2.76609e-09
4.26171e-06
3.26866e-09
4.26159e-06
3.71348e-09
4.26149e-06
4.30665e-09
4.26139e-06
4.9002e-09
4.2613e-06
5.62504e-09
4.26123e-06
6.39495e-09
4.2612e-06
7.28276e-09
4.26121e-06
8.22516e-09
4.26129e-06
9.25534e-09
1.02884e-08
4.26144e-06
4.504e-06
1.81072e-10
4.50397e-06
3.02441e-10
4.50395e-06
6.61286e-10
4.50389e-06
8.21184e-10
4.50386e-06
1.19786e-09
4.50379e-06
1.40966e-09
4.50373e-06
1.8054e-09
4.50364e-06
2.0789e-09
4.50357e-06
2.51077e-09
4.50347e-06
2.86645e-09
4.50338e-06
3.35705e-09
4.50327e-06
3.81888e-09
4.50318e-06
4.39987e-09
4.50309e-06
4.99509e-09
4.50301e-06
5.70103e-09
4.50295e-06
6.45039e-09
4.50294e-06
7.30268e-09
4.50296e-06
8.19736e-09
4.50305e-06
9.16896e-09
1.01341e-08
4.5032e-06
4.75936e-06
1.73995e-10
4.75933e-06
3.34483e-10
4.75931e-06
6.79361e-10
4.75926e-06
8.74272e-10
4.75922e-06
1.23551e-09
4.75915e-06
1.47832e-09
4.7591e-06
1.86165e-09
4.75901e-06
2.16205e-09
4.75894e-06
2.58402e-09
4.75885e-06
2.9602e-09
4.75876e-06
3.44261e-09
4.75866e-06
3.91536e-09
4.75858e-06
4.48631e-09
4.75849e-06
5.07831e-09
4.75843e-06
5.76587e-09
4.75839e-06
6.49229e-09
4.75838e-06
7.3093e-09
4.75842e-06
8.15786e-09
4.75852e-06
9.07337e-09
9.97616e-09
4.75867e-06
5.0292e-06
1.68742e-10
5.02917e-06
3.6355e-10
5.02915e-06
6.98387e-10
5.0291e-06
9.23496e-10
5.02906e-06
1.27428e-09
5.029e-06
1.54282e-09
5.02894e-06
1.9182e-09
5.02886e-06
2.23995e-09
5.02879e-06
2.65583e-09
5.0287e-06
3.047e-09
5.02862e-06
3.52379e-09
5.02854e-06
4.00256e-09
5.02846e-06
4.56449e-09
5.02839e-06
5.14966e-09
5.02833e-06
5.81864e-09
5.02831e-06
6.52076e-09
5.02831e-06
7.30266e-09
5.02836e-06
8.10706e-09
5.02847e-06
8.96914e-09
9.81459e-09
5.02863e-06
5.31433e-06
1.65196e-10
5.31431e-06
3.89478e-10
5.31429e-06
7.18118e-10
5.31424e-06
9.68707e-10
5.3142e-06
1.31339e-09
5.31414e-06
1.60288e-09
5.31409e-06
1.97399e-09
5.31402e-06
2.3123e-09
5.31395e-06
2.72492e-09
5.31387e-06
3.12661e-09
5.31379e-06
3.59927e-09
5.31371e-06
4.08029e-09
5.31364e-06
4.63334e-09
5.31358e-06
5.20907e-09
5.31354e-06
5.8589e-09
5.31353e-06
6.53603e-09
5.31355e-06
7.28308e-09
5.31361e-06
8.04541e-09
5.31372e-06
8.85682e-09
9.64948e-09
5.31389e-06
5.61563e-06
1.63346e-10
5.61561e-06
4.12471e-10
5.61559e-06
7.38259e-10
5.61555e-06
1.00996e-09
5.61551e-06
1.3521e-09
5.61546e-06
1.65841e-09
5.6154e-06
2.02799e-09
5.61534e-06
2.37891e-09
5.61527e-06
2.79002e-09
5.6152e-06
3.1987e-09
5.61513e-06
3.66778e-09
5.61506e-06
4.14815e-09
5.615e-06
4.69185e-09
5.61496e-06
5.25628e-09
5.61493e-06
5.88624e-09
5.61493e-06
6.53821e-09
5.61496e-06
7.25086e-09
5.61503e-06
7.97329e-09
5.61515e-06
8.73688e-09
9.48092e-09
5.61532e-06
5.93402e-06
1.62861e-10
5.934e-06
4.32598e-10
5.93398e-06
7.58317e-10
5.93394e-06
1.0473e-09
5.9339e-06
1.38953e-09
5.93385e-06
1.70924e-09
5.9338e-06
2.0791e-09
5.93374e-06
2.43947e-09
5.93368e-06
2.84996e-09
5.93362e-06
3.26289e-09
5.93356e-06
3.72825e-09
5.9335e-06
4.2058e-09
5.93345e-06
4.73935e-09
5.93342e-06
5.29117e-09
5.9334e-06
5.90058e-09
5.93341e-06
6.5275e-09
5.93346e-06
7.20645e-09
5.93354e-06
7.8911e-09
5.93367e-06
8.60975e-09
9.30896e-09
5.93384e-06
6.27045e-06
1.63508e-10
6.27044e-06
4.50162e-10
6.27042e-06
7.77796e-10
6.27038e-06
1.08083e-09
6.27035e-06
1.42488e-09
6.2703e-06
1.75521e-09
6.27026e-06
2.12636e-09
6.2702e-06
2.49368e-09
6.27015e-06
2.90371e-09
6.27009e-06
3.31875e-09
6.27004e-06
3.77979e-09
6.26999e-06
4.25283e-09
6.26996e-06
4.77528e-09
6.26993e-06
5.31355e-09
6.26993e-06
5.9019e-09
6.26996e-06
6.50409e-09
6.27001e-06
7.15029e-09
6.2701e-06
7.79925e-09