/*--------------------------------*- C++ -*----------------------------------*\
| =========                 |                                                 |
| \\      /  F ield         | OpenFOAM: The Open Source CFD Toolbox           |
|  \\    /   O peration     | Version:  v1912                                 |
|   \\  /    A nd           | Website:  www.openfoam.com                      |
|    \\/     M anipulation  |                                                 |
\*---------------------------------------------------------------------------*/
FoamFile
{
    version     2.0;
    format      ascii;
    class       volVectorField;
    location    "1000";
    object      U;
}
// * * * * * * * * * * * * * * * * * * * * * * * * * * * * * * * * * * * * * //

dimensions      [0 1 -1 0 0 0 0];


internalField   nonuniform List<vector> 
10000
(
(0.934899 -0.000807547 0)
(1.06049 -8.48057e-05 0)
(0.932602 -0.000107011 0)
(1.06245 2.35167e-05 0)
(0.931268 -8.39715e-05 0)
(1.06402 4.86543e-05 0)
(0.929642 -8.35957e-05 0)
(1.06565 6.55166e-05 0)
(0.927913 -9.07759e-05 0)
(1.06734 8.21229e-05 0)
(0.926052 -0.000103013 0)
(1.06908 0.000101402 0)
(0.924043 -0.000120823 0)
(1.07086 0.000126093 0)
(0.921854 -0.00014643 0)
(1.07265 0.000160483 0)
(0.919412 -0.000184436 0)
(1.07431 0.000211845 0)
(0.916471 -0.00023309 0)
(1.07508 0.000256316 0)
(0.986066 -0.00157559 0)
(1.01525 -0.000149913 0)
(0.986016 1.35097e-05 0)
(1.01454 -2.00299e-05 0)
(0.987176 3.31164e-05 0)
(1.01332 -2.09322e-05 0)
(0.988245 4.08695e-05 0)
(1.01199 -2.92306e-05 0)
(0.989421 4.86041e-05 0)
(1.01053 -3.95258e-05 0)
(0.990686 5.88735e-05 0)
(1.00891 -5.19312e-05 0)
(0.992043 7.26756e-05 0)
(1.00711 -6.71604e-05 0)
(0.993477 9.16078e-05 0)
(1.00507 -8.6239e-05 0)
(0.994937 0.000119558 0)
(1.00261 -0.000113411 0)
(0.996198 0.000195519 0)
(0.998819 -0.000238941 0)
(0.999313 -0.00171365 0)
(1.00021 -1.25543e-05 0)
(0.998722 7.144e-06 0)
(1.00029 3.84348e-05 0)
(0.999195 -2.31938e-05 0)
(0.999965 3.42758e-05 0)
(0.999456 -3.12669e-05 0)
(0.999639 3.63124e-05 0)
(0.999689 -3.65639e-05 0)
(0.9993 4.10536e-05 0)
(0.999865 -4.05503e-05 0)
(0.998944 4.6774e-05 0)
(0.999973 -4.31217e-05 0)
(0.998557 5.22334e-05 0)
(0.999984 -4.17566e-05 0)
(0.998097 5.48856e-05 0)
(0.999828 -2.78179e-05 0)
(0.997424 4.50592e-05 0)
(0.999259 6.04057e-05 0)
(0.995748 -4.33895e-05 0)
(1.00035 -0.00161906 0)
(0.998565 -7.19818e-05 0)
(0.9995 2.93332e-05 0)
(0.998895 -3.4146e-05 0)
(0.999686 1.68376e-05 0)
(0.998843 -2.95266e-05 0)
(0.999669 2.56258e-05 0)
(0.998779 -2.76378e-05 0)
(0.999638 3.14409e-05 0)
(0.998689 -2.66851e-05 0)
(0.999568 3.59269e-05 0)
(0.998567 -2.51999e-05 0)
(0.999451 3.92153e-05 0)
(0.998392 -2.1203e-05 0)
(0.999263 4.14846e-05 0)
(0.99812 -1.14732e-05 0)
(0.99894 4.50551e-05 0)
(0.997603 8.70087e-06 0)
(0.998242 9.74561e-05 0)
(0.996098 9.99208e-05 0)
(1 -0.00159193 0)
(0.998926 -5.90343e-05 0)
(0.999134 -2.62949e-06 0)
(0.999266 1.07962e-05 0)
(0.999274 -1.21998e-05 0)
(0.999243 1.89072e-05 0)
(0.999216 -7.99045e-06 0)
(0.999202 1.94347e-05 0)
(0.999149 -6.07333e-06 0)
(0.999131 1.84548e-05 0)
(0.999048 -2.04672e-06 0)
(0.999024 1.62352e-05 0)
(0.998905 5.82169e-06 0)
(0.998861 1.2246e-05 0)
(0.998694 2.08373e-05 0)
(0.998597 5.85779e-06 0)
(0.998352 5.17138e-05 0)
(0.998085 -3.82986e-06 0)
(0.997639 0.000165415 0)
(0.996626 0.000106243 0)
(0.999964 -0.00150977 0)
(0.999026 -9.91201e-05 0)
(0.999125 2.78965e-05 0)
(0.999336 -1.51769e-05 0)
(0.999269 1.12342e-05 0)
(0.999306 -1.01506e-05 0)
(0.999217 1.40746e-05 0)
(0.999256 -8.26617e-06 0)
(0.999157 1.52686e-05 0)
(0.999176 -5.04684e-06 0)
(0.999063 1.71915e-05 0)
(0.999058 -6.29277e-07 0)
(0.998929 2.05261e-05 0)
(0.998884 4.82287e-06 0)
(0.998727 2.8866e-05 0)
(0.998607 1.0174e-05 0)
(0.998395 5.54849e-05 0)
(0.998084 8.01375e-06 0)
(0.997694 0.000200899 0)
(0.996654 0.000114328 0)
(0.999972 -0.00146607 0)
(0.999072 -9.86215e-05 0)
(0.999159 1.47731e-05 0)
(0.999358 -2.12768e-06 0)
(0.999302 -3.33773e-06 0)
(0.999329 3.78008e-06 0)
(0.99925 4.16598e-06 0)
(0.999279 4.95419e-06 0)
(0.999189 9.53965e-06 0)
(0.9992 5.34185e-06 0)
(0.999095 1.61143e-05 0)
(0.999083 5.52135e-06 0)
(0.998959 2.49501e-05 0)
(0.99891 6.46746e-06 0)
(0.998756 3.92216e-05 0)
(0.998634 9.51099e-06 0)
(0.998422 7.10048e-05 0)
(0.998114 1.25676e-05 0)
(0.997722 0.000233044 0)
(0.996732 0.000143593 0)
(1.00005 -0.00139464 0)
(0.999051 -0.000123317 0)
(0.999261 2.5148e-05 0)
(0.999313 -1.0708e-05 0)
(0.999402 4.39689e-06 0)
(0.999284 -2.02924e-06 0)
(0.99935 1.08538e-05 0)
(0.999234 8.93499e-07 0)
(0.999289 1.40603e-05 0)
(0.999155 3.27755e-06 0)
(0.999194 1.89636e-05 0)
(0.999038 5.60138e-06 0)
(0.999058 2.74843e-05 0)
(0.998865 7.96917e-06 0)
(0.998855 4.43906e-05 0)
(0.99859 1.05803e-05 0)
(0.998521 8.47163e-05 0)
(0.998071 1.2805e-05 0)
(0.997823 0.000271622 0)
(0.996737 0.00017125 0)
(1.0002 -0.00133364 0)
(0.998945 -0.000133629 0)
(0.999441 2.36525e-05 0)
(0.99918 -8.06895e-06 0)
(0.999583 2.20717e-06 0)
(0.999148 -1.92265e-07 0)
(0.999535 1.08013e-05 0)
(0.999095 1.91613e-06 0)
(0.999477 1.59888e-05 0)
(0.999012 3.90726e-06 0)
(0.999386 2.28668e-05 0)
(0.998892 6.39736e-06 0)
(0.999254 3.30992e-05 0)
(0.998715 9.72658e-06 0)
(0.999055 5.20541e-05 0)
(0.998437 1.39061e-05 0)
(0.998725 9.81986e-05 0)
(0.997917 1.75074e-05 0)
(0.998034 0.000310686 0)
(0.996628 0.000199495 0)
(1.00018 -0.00126303 0)
(0.999005 -0.000149172 0)
(0.999456 2.72934e-05 0)
(0.999217 -9.85008e-06 0)
(0.999594 3.57907e-06 0)
(0.999188 -7.97762e-07 0)
(0.999543 1.28421e-05 0)
(0.999137 2.26316e-06 0)
(0.999483 1.84466e-05 0)
(0.999057 4.72641e-06 0)
(0.99939 2.62094e-05 0)
(0.998939 7.31084e-06 0)
(0.999255 3.81287e-05 0)
(0.998766 1.06592e-05 0)
(0.999053 6.00632e-05 0)
(0.998491 1.54562e-05 0)
(0.998721 0.000112413 0)
(0.997977 2.18368e-05 0)
(0.99803 0.000348351 0)
(0.996743 0.000228299 0)
(1.00017 -0.00119575 0)
(0.99907 -0.000162233 0)
(0.999473 2.82874e-05 0)
(0.999258 -1.03507e-05 0)
(0.999608 3.98105e-06 0)
(0.99923 -9.57983e-07 0)
(0.999556 1.46659e-05 0)
(0.99918 2.42782e-06 0)
(0.999496 2.10186e-05 0)
(0.9991 5.25399e-06 0)
(0.999402 2.97322e-05 0)
(0.998983 8.37794e-06 0)
(0.999267 4.32212e-05 0)
(0.998809 1.23375e-05 0)
(0.999065 6.8268e-05 0)
(0.998535 1.78435e-05 0)
(0.998732 0.000127697 0)
(0.998026 2.70834e-05 0)
(0.998045 0.000386455 0)
(0.996841 0.000259298 0)
(1.00021 -0.00112727 0)
(0.999088 -0.000175033 0)
(0.999539 2.9569e-05 0)
(0.999251 -1.0766e-05 0)
(0.999671 4.66454e-06 0)
(0.999223 -9.51914e-07 0)
(0.999619 1.65453e-05 0)
(0.999172 2.84393e-06 0)
(0.99956 2.37335e-05 0)
(0.999092 5.98274e-06 0)
(0.999466 3.36049e-05 0)
(0.998974 9.51909e-06 0)
(0.999332 4.8766e-05 0)
(0.998801 1.41055e-05 0)
(0.99913 7.67842e-05 0)
(0.998527 2.05984e-05 0)
(0.998798 0.000143188 0)
(0.998021 3.3183e-05 0)
(0.998116 0.000424014 0)
(0.996885 0.000291684 0)
(1.00025 -0.00105783 0)
(0.999093 -0.000186564 0)
(0.999617 3.05533e-05 0)
(0.999231 -1.12364e-05 0)
(0.999746 5.49254e-06 0)
(0.999204 -1.19035e-06 0)
(0.999694 1.86081e-05 0)
(0.999153 3.10137e-06 0)
(0.999635 2.66325e-05 0)
(0.999072 6.61327e-06 0)
(0.999542 3.76875e-05 0)
(0.998954 1.0554e-05 0)
(0.999407 5.46798e-05 0)
(0.998781 1.57107e-05 0)
(0.999206 8.59478e-05 0)
(0.998508 2.32838e-05 0)
(0.998874 0.000159555 0)
(0.998007 3.99314e-05 0)
(0.998198 0.000461581 0)
(0.99692 0.000325057 0)
(1.00029 -0.000987368 0)
(0.999107 -0.000196651 0)
(0.999687 3.09902e-05 0)
(0.99922 -1.1443e-05 0)
(0.999812 6.25736e-06 0)
(0.999194 -1.25126e-06 0)
(0.99976 2.06606e-05 0)
(0.999142 3.56688e-06 0)
(0.999701 2.95639e-05 0)
(0.999062 7.49698e-06 0)
(0.999608 4.18171e-05 0)
(0.998944 1.19449e-05 0)
(0.999473 6.0662e-05 0)
(0.998771 1.77974e-05 0)
(0.999272 9.52689e-05 0)
(0.998499 2.66118e-05 0)
(0.99894 0.0001762 0)
(0.998003 4.80284e-05 0)
(0.998271 0.000498193 0)
(0.996967 0.00036016 0)
(1.00031 -0.000916491 0)
(0.99914 -0.000205584 0)
(0.999737 3.12163e-05 0)
(0.999229 -1.17039e-05 0)
(0.999858 7.32709e-06 0)
(0.999204 -1.48851e-06 0)
(0.999806 2.30202e-05 0)
(0.999152 3.8601e-06 0)
(0.999747 3.2856e-05 0)
(0.999072 8.19489e-06 0)
(0.999653 4.64035e-05 0)
(0.998955 1.31535e-05 0)
(0.999519 6.72079e-05 0)
(0.998782 1.97534e-05 0)
(0.999318 0.000105276 0)
(0.998511 2.99793e-05 0)
(0.998986 0.00019367 0)
(0.998021 5.68645e-05 0)
(0.998324 0.000534385 0)
(0.997035 0.000396249 0)
(1.00032 -0.000846507 0)
(0.999184 -0.000212952 0)
(0.999777 3.07897e-05 0)
(0.999249 -1.16709e-05 0)
(0.999893 8.27529e-06 0)
(0.999225 -1.52682e-06 0)
(0.999841 2.52518e-05 0)
(0.999174 4.41329e-06 0)
(0.999782 3.60549e-05 0)
(0.999094 9.20242e-06 0)
(0.999688 5.09372e-05 0)
(0.998977 1.4723e-05 0)
(0.999554 7.37735e-05 0)
(0.998805 2.21532e-05 0)
(0.999352 0.000115405 0)
(0.998535 3.40122e-05 0)
(0.999021 0.00021132 0)
(0.998052 6.71306e-05 0)
(0.998367 0.00056938 0)
(0.997116 0.000433821 0)
(1.00034 -0.000777186 0)
(0.999213 -0.000218959 0)
(0.999832 3.01938e-05 0)
(0.999255 -1.17345e-05 0)
(0.999943 9.59666e-06 0)
(0.999232 -1.77535e-06 0)
(0.999891 2.78642e-05 0)
(0.99918 4.79699e-06 0)
(0.999831 3.96958e-05 0)
(0.9991 1.00786e-05 0)
(0.999738 5.59832e-05 0)
(0.998983 1.62188e-05 0)
(0.999604 8.09358e-05 0)
(0.998812 2.45747e-05 0)
(0.999403 0.000126234 0)
(0.998544 3.83053e-05 0)
(0.999072 0.000229699 0)
(0.998068 7.84518e-05 0)
(0.998428 0.000603603 0)
(0.99718 0.000472312 0)
(1.00036 -0.000708734 0)
(0.999237 -0.000222996 0)
(0.999891 2.89416e-05 0)
(0.999257 -1.14692e-05 0)
(0.999996 1.07926e-05 0)
(0.999235 -1.80581e-06 0)
(0.999944 3.03035e-05 0)
(0.999183 5.40922e-06 0)
(0.999884 4.31931e-05 0)
(0.999103 1.11989e-05 0)
(0.999791 6.09374e-05 0)
(0.998987 1.8003e-05 0)
(0.999656 8.80889e-05 0)
(0.998816 2.7384e-05 0)
(0.999456 0.000137155 0)
(0.998549 4.32525e-05 0)
(0.999126 0.000248162 0)
(0.998081 9.12427e-05 0)
(0.998492 0.000636328 0)
(0.997242 0.000511945 0)
(1.00041 -0.00064017 0)
(0.999241 -0.000225398 0)
(0.999969 2.7585e-05 0)
(0.999239 -1.1338e-05 0)
(1.00007 1.24762e-05 0)
(0.999218 -1.97973e-06 0)
(1.00002 3.3262e-05 0)
(0.999166 5.95702e-06 0)
(0.999956 4.72654e-05 0)
(0.999086 1.23001e-05 0)
(0.999863 6.65166e-05 0)
(0.99897 1.98304e-05 0)
(0.999729 9.59191e-05 0)
(0.998799 3.03559e-05 0)
(0.999528 0.0001488 0)
(0.998535 4.86676e-05 0)
(0.9992 0.000267253 0)
(0.998075 0.000105336 0)
(0.998577 0.00066797 0)
(0.997283 0.000552327 0)
(1.00045 -0.000571399 0)
(0.999241 -0.000225698 0)
(1.00005 2.55e-05 0)
(0.999218 -1.10155e-05 0)
(1.00014 1.37927e-05 0)
(0.999199 -2.10429e-06 0)
(1.00009 3.58098e-05 0)
(0.999147 6.62367e-06 0)
(1.00003 5.10162e-05 0)
(0.999067 1.36018e-05 0)
(0.999936 7.18686e-05 0)
(0.998951 2.19582e-05 0)
(0.999802 0.000103628 0)
(0.998782 3.37804e-05 0)
(0.999601 0.00016042 0)
(0.998519 5.4875e-05 0)
(0.999274 0.000286232 0)
(0.998069 0.000121045 0)
(0.998664 0.000697792 0)
(0.997322 0.00059353 0)
(1.00057 -0.000499611 0)
(0.999171 -0.000224389 0)
(1.0002 2.38219e-05 0)
(0.999129 -1.03886e-05 0)
(1.00028 1.6064e-05 0)
(0.99911 -2.12037e-06 0)
(1.00023 3.91287e-05 0)
(0.999058 7.31658e-06 0)
(1.00017 5.54982e-05 0)
(0.998978 1.48971e-05 0)
(1.00008 7.79567e-05 0)
(0.998862 2.41078e-05 0)
(0.999943 0.000112103 0)
(0.998693 3.73465e-05 0)
(0.999743 0.00017282 0)
(0.998433 6.15772e-05 0)
(0.999418 0.000305778 0)
(0.997991 0.00013808 0)
(0.998823 0.000726329 0)
(0.997289 0.000635035 0)
(1.00069 -0.000421046 0)
(0.99909 -0.000222149 0)
(1.00035 2.03757e-05 0)
(0.999031 -1.00881e-05 0)
(1.00043 1.77441e-05 0)
(0.999014 -2.07907e-06 0)
(1.00038 4.2021e-05 0)
(0.998962 8.26411e-06 0)
(1.00032 5.96834e-05 0)
(0.998883 1.65784e-05 0)
(1.00022 8.38264e-05 0)
(0.998768 2.67835e-05 0)
(1.00009 0.000120419 0)
(0.9986 4.16527e-05 0)
(0.999888 0.000185071 0)
(0.998342 6.94585e-05 0)
(0.999564 0.000324928 0)
(0.99791 0.000157105 0)
(0.998983 0.00075268 0)
(0.997251 0.000677141 0)
(1.00105 -0.000325789 0)
(0.998769 -0.000215638 0)
(1.00074 1.7442e-05 0)
(0.998693 -9.99655e-06 0)
(1.00081 1.98779e-05 0)
(0.998675 -2.35466e-06 0)
(1.00076 4.53076e-05 0)
(0.998621 8.93541e-06 0)
(1.0007 6.4344e-05 0)
(0.99854 1.80373e-05 0)
(1.00061 9.02593e-05 0)
(0.998424 2.93226e-05 0)
(1.00048 0.000129388 0)
(0.998256 4.59835e-05 0)
(1.00028 0.000198028 0)
(0.997999 7.77379e-05 0)
(0.99996 0.000344581 0)
(0.997577 0.000177172 0)
(0.999398 0.000777847 0)
(0.99696 0.000718549 0)
(1.00097 -0.000221621 0)
(0.998872 -0.000203387 0)
(1.00069 1.59601e-05 0)
(0.998786 -8.79416e-06 0)
(1.00076 2.26648e-05 0)
(0.998769 -1.96296e-06 0)
(1.00071 4.88747e-05 0)
(0.998716 1.0155e-05 0)
(1.00065 6.91951e-05 0)
(0.998636 2.00436e-05 0)
(1.00055 9.68372e-05 0)
(0.998522 3.24954e-05 0)
(1.00042 0.000138464 0)
(0.998357 5.11612e-05 0)
(1.00022 0.000210981 0)
(0.998106 8.73495e-05 0)
(0.999906 0.000363759 0)
(0.997699 0.000199346 0)
(0.999359 0.000800466 0)
(0.997133 0.000760509 0)
(1.00052 -0.000137464 0)
(0.999348 -0.000193145 0)
(1.00027 1.32114e-05 0)
(0.999255 -8.63899e-06 0)
(1.00032 2.51223e-05 0)
(0.999241 -2.09409e-06 0)
(1.00027 5.22901e-05 0)
(0.999188 1.10687e-05 0)
(1.00021 7.40544e-05 0)
(0.999111 2.19129e-05 0)
(1.00012 0.00010352 0)
(0.998999 3.57205e-05 0)
(0.999981 0.000147689 0)
(0.998836 5.66801e-05 0)
(0.999783 0.000224009 0)
(0.998591 9.78445e-05 0)
(0.999467 0.000382536 0)
(0.998198 0.000223123 0)
(0.998937 0.000820682 0)
(0.997677 0.000802264 0)
(1.00018 -8.69804e-05 0)
(0.99971 -0.000185512 0)
(0.999944 9.7853e-06 0)
(0.999613 -8.40756e-06 0)
(0.999991 2.76991e-05 0)
(0.999599 -1.73867e-06 0)
(0.999939 5.58331e-05 0)
(0.999546 1.25249e-05 0)
(0.999878 7.90756e-05 0)
(0.999469 2.4384e-05 0)
(0.999785 0.000110376 0)
(0.999357 3.96549e-05 0)
(0.999652 0.000157086 0)
(0.999196 6.31257e-05 0)
(0.999454 0.000237128 0)
(0.998954 0.000109704 0)
(0.999142 0.000400996 0)
(0.998572 0.00024866 0)
(0.998633 0.000839004 0)
(0.998087 0.000843233 0)
(1.00004 -5.95631e-05 0)
(0.999864 -0.000177146 0)
(0.999825 7.60964e-06 0)
(0.999764 -8.02169e-06 0)
(0.999864 3.08332e-05 0)
(0.99975 -1.3585e-06 0)
(0.999813 5.96788e-05 0)
(0.999696 1.39396e-05 0)
(0.999753 8.43729e-05 0)
(0.999619 2.68732e-05 0)
(0.99966 0.000117509 0)
(0.999508 4.37585e-05 0)
(0.999527 0.000166745 0)
(0.999347 7.00245e-05 0)
(0.999332 0.000250401 0)
(0.999108 0.000122519 0)
(0.999025 0.000419159 0)
(0.998738 0.000275476 0)
(0.998537 0.000855581 0)
(0.998286 0.000882659 0)
(1.00001 -4.23128e-05 0)
(0.999914 -0.0001669 0)
(0.999807 5.95611e-06 0)
(0.999812 -7.68235e-06 0)
(0.999839 3.38613e-05 0)
(0.999799 -8.10301e-07 0)
(0.999788 6.34257e-05 0)
(0.999745 1.56366e-05 0)
(0.999728 8.96722e-05 0)
(0.999668 2.97954e-05 0)
(0.999635 0.0001247 0)
(0.999557 4.849e-05 0)
(0.999503 0.000176465 0)
(0.999398 7.78585e-05 0)
(0.999309 0.000263608 0)
(0.999162 0.000136768 0)
(0.999008 0.000436759 0)
(0.998805 0.000303926 0)
(0.998544 0.000870171 0)
(0.998387 0.000920821 0)
(0.999998 -2.86422e-05 0)
(0.999934 -0.000156001 0)
(0.999818 4.78682e-06 0)
(0.999831 -7.66434e-06 0)
(0.999842 3.71806e-05 0)
(0.999817 -2.05161e-07 0)
(0.999792 6.74662e-05 0)
(0.999763 1.74501e-05 0)
(0.999732 9.52881e-05 0)
(0.999687 3.2933e-05 0)
(0.99964 0.000132193 0)
(0.999577 5.36014e-05 0)
(0.999508 0.000186437 0)
(0.99942 8.63608e-05 0)
(0.999316 0.000276901 0)
(0.999189 0.000152129 0)
(0.99902 0.000453936 0)
(0.998844 0.000333473 0)
(0.99858 0.000883066 0)
(0.99846 0.000957001 0)
(0.999997 -1.71507e-05 0)
(0.999946 -0.000144739 0)
(0.999834 3.96204e-06 0)
(0.999844 -7.54308e-06 0)
(0.999851 4.05415e-05 0)
(0.99983 7.50213e-07 0)
(0.999802 7.14654e-05 0)
(0.999776 1.96363e-05 0)
(0.999741 0.000100867 0)
(0.9997 3.65683e-05 0)
(0.999649 0.000139642 0)
(0.99959 5.94183e-05 0)
(0.999519 0.000196311 0)
(0.999435 9.59007e-05 0)
(0.999328 0.000289918 0)
(0.999209 0.000168971 0)
(0.999039 0.000470326 0)
(0.998878 0.000364313 0)
(0.998623 0.000894074 0)
(0.998526 0.000991262 0)
(0.999997 -7.24602e-06 0)
(0.999955 -0.000133548 0)
(0.999851 3.83612e-06 0)
(0.999855 -7.56474e-06 0)
(0.99986 4.41414e-05 0)
(0.999841 1.79212e-06 0)
(0.999812 7.56649e-05 0)
(0.999786 2.19643e-05 0)
(0.999751 0.000106678 0)
(0.999711 4.04928e-05 0)
(0.999659 0.000147316 0)
(0.999603 6.57373e-05 0)
(0.99953 0.000206346 0)
(0.99945 0.000106261 0)
(0.999341 0.000302903 0)
(0.999228 0.000187007 0)
(0.99906 0.000486177 0)
(0.998911 0.000395934 0)
(0.998668 0.000903617 0)
(0.99859 0.00102299 0)
(0.999997 9.75538e-07 0)
(0.999964 -0.000122297 0)
(0.999866 4.17329e-06 0)
(0.999866 -7.46508e-06 0)
(0.999869 4.77079e-05 0)
(0.999851 3.21417e-06 0)
(0.999821 7.98151e-05 0)
(0.999796 2.47337e-05 0)
(0.99976 0.000112444 0)
(0.999721 4.50083e-05 0)
(0.999669 0.000154914 0)
(0.999614 7.28654e-05 0)
(0.99954 0.000216222 0)
(0.999464 0.000117746 0)
(0.999354 0.000315527 0)
(0.999248 0.000206473 0)
(0.999081 0.000501198 0)
(0.998945 0.000428357 0)
(0.998714 0.000911588 0)
(0.998653 0.00105219 0)
(0.999997 7.87399e-06 0)
(0.999971 -0.000111333 0)
(0.99988 5.19743e-06 0)
(0.999876 -7.42114e-06 0)
(0.999877 5.14471e-05 0)
(0.99986 4.8237e-06 0)
(0.999829 8.41268e-05 0)
(0.999806 2.77429e-05 0)
(0.999768 0.000118369 0)
(0.999732 4.9922e-05 0)
(0.999678 0.000162637 0)
(0.999626 8.0619e-05 0)
(0.999551 0.000226136 0)
(0.999478 0.00013016 0)
(0.999368 0.000327993 0)
(0.999267 0.000227087 0)
(0.999103 0.000515632 0)
(0.998979 0.000461069 0)
(0.998762 0.000918416 0)
(0.998715 0.00107836 0)
(0.999997 1.33882e-05 0)
(0.999977 -0.000100563 0)
(0.999894 6.69657e-06 0)
(0.999886 -7.17486e-06 0)
(0.999884 5.51235e-05 0)
(0.999869 6.85663e-06 0)
(0.999838 8.83761e-05 0)
(0.999815 3.12378e-05 0)
(0.999777 0.000124219 0)
(0.999741 5.54906e-05 0)
(0.999687 0.000170247 0)
(0.999637 8.92542e-05 0)
(0.999561 0.000235845 0)
(0.999491 0.000143734 0)
(0.999381 0.000340065 0)
(0.999287 0.000248971 0)
(0.999126 0.000529295 0)
(0.999013 0.000493971 0)
(0.998811 0.000924085 0)
(0.998775 0.00110153 0)
(0.999997 1.78428e-05 0)
(0.999982 -9.02606e-05 0)
(0.999906 8.82253e-06 0)
(0.999895 -6.84891e-06 0)
(0.999891 5.88817e-05 0)
(0.999877 9.16823e-06 0)
(0.999845 9.27233e-05 0)
(0.999823 3.50771e-05 0)
(0.999784 0.000130151 0)
(0.99975 6.15781e-05 0)
(0.999695 0.000177887 0)
(0.999647 9.86315e-05 0)
(0.99957 0.000245492 0)
(0.999505 0.00015829 0)
(0.999395 0.000351906 0)
(0.999306 0.000271832 0)
(0.99915 0.000542406 0)
(0.999047 0.000526564 0)
(0.99886 0.000928965 0)
(0.998834 0.00112137 0)
(0.999997 2.12365e-05 0)
(0.999987 -8.03525e-05 0)
(0.999917 1.13783e-05 0)
(0.999904 -6.22844e-06 0)
(0.999897 6.2538e-05 0)
(0.999885 1.19449e-05 0)
(0.999852 9.69991e-05 0)
(0.999831 3.94542e-05 0)
(0.999791 0.000135981 0)
(0.999759 6.83766e-05 0)
(0.999703 0.00018538 0)
(0.999658 0.000108929 0)
(0.99958 0.000254907 0)
(0.999518 0.000173958 0)
(0.999409 0.000363373 0)
(0.999326 0.00029566 0)
(0.999175 0.000554892 0)
(0.999081 0.000558658 0)
(0.998911 0.000933102 0)
(0.998893 0.00113792 0)
(0.999997 2.38481e-05 0)
(0.99999 -7.10297e-05 0)
(0.999927 1.44335e-05 0)
(0.999912 -5.37768e-06 0)
(0.999903 6.61886e-05 0)
(0.999892 1.50924e-05 0)
(0.999859 0.000101309 0)
(0.999839 4.42807e-05 0)
(0.999798 0.000141808 0)
(0.999767 7.57945e-05 0)
(0.999711 0.000192822 0)
(0.999668 0.000120038 0)
(0.99959 0.000264198 0)
(0.999531 0.000190569 0)
(0.999423 0.000374605 0)
(0.999346 0.000320151 0)
(0.999201 0.000566951 0)
(0.999116 0.0005898 0)
(0.998961 0.00093678 0)
(0.99895 0.00115104 0)
(0.999997 2.57111e-05 0)
(0.999993 -6.22269e-05 0)
(0.999936 1.78087e-05 0)
(0.99992 -4.12881e-06 0)
(0.999908 6.96998e-05 0)
(0.999898 1.87411e-05 0)
(0.999865 0.000105534 0)
(0.999846 4.96926e-05 0)
(0.999804 0.000147508 0)
(0.999775 8.39594e-05 0)
(0.999718 0.000200101 0)
(0.999677 0.000132055 0)
(0.9996 0.000273271 0)
(0.999544 0.000208146 0)
(0.999438 0.000385549 0)
(0.999366 0.00034518 0)
(0.999228 0.000578586 0)
(0.999151 0.000619753 0)
(0.999012 0.000940053 0)
(0.999007 0.00116087 0)
(0.999997 2.70401e-05 0)
(0.999995 -5.40484e-05 0)
(0.999943 2.15033e-05 0)
(0.999928 -2.5061e-06 0)
(0.999913 7.31283e-05 0)
(0.999904 2.28331e-05 0)
(0.999871 0.000109736 0)
(0.999852 5.5637e-05 0)
(0.99981 0.000153145 0)
(0.999783 9.28074e-05 0)
(0.999726 0.000207284 0)
(0.999687 0.00014488 0)
(0.99961 0.000282217 0)
(0.999557 0.000226509 0)
(0.999454 0.000396333 0)
(0.999386 0.000370433 0)
(0.999256 0.000589961 0)
(0.999186 0.000648144 0)
(0.999063 0.000943096 0)
(0.999062 0.00116742 0)
(0.999997 2.78799e-05 0)
(0.999997 -4.6423e-05 0)
(0.99995 2.53565e-05 0)
(0.999935 -3.90392e-07 0)
(0.999918 7.63887e-05 0)
(0.99991 2.74499e-05 0)
(0.999876 0.00011384 0)
(0.999859 6.21967e-05 0)
(0.999816 0.000158647 0)
(0.99979 0.000102398 0)
(0.999733 0.000214321 0)
(0.999696 0.000158528 0)
(0.99962 0.000291013 0)
(0.99957 0.000245582 0)
(0.99947 0.000406971 0)
(0.999407 0.000395703 0)
(0.999284 0.000601117 0)
(0.999222 0.000674755 0)
(0.999114 0.000945927 0)
(0.999117 0.00117092 0)
(0.999997 2.8378e-05 0)
(0.999998 -3.93777e-05 0)
(0.999956 2.93215e-05 0)
(0.999942 2.21217e-06 0)
(0.999922 7.9516e-05 0)
(0.999915 3.25538e-05 0)
(0.999881 0.000117884 0)
(0.999865 6.9335e-05 0)
(0.999822 0.00016406 0)
(0.999798 0.00011267 0)
(0.99974 0.000221271 0)
(0.999706 0.000172886 0)
(0.999631 0.000299746 0)
(0.999584 0.000265163 0)
(0.999487 0.000417577 0)
(0.999428 0.00042068 0)
(0.999314 0.000612166 0)
(0.999258 0.000699323 0)
(0.999164 0.000948604 0)
(0.999171 0.00117154 0)
(0.999997 2.85686e-05 0)
(0.999999 -3.28306e-05 0)
(0.999961 3.32622e-05 0)
(0.999948 5.37035e-06 0)
(0.999927 8.24671e-05 0)
(0.99992 3.81828e-05 0)
(0.999886 0.000121834 0)
(0.99987 7.70836e-05 0)
(0.999827 0.000169358 0)
(0.999805 0.000123618 0)
(0.999748 0.000228137 0)
(0.999715 0.00018789 0)
(0.999641 0.000308447 0)
(0.999597 0.000285099 0)
(0.999505 0.000428201 0)
(0.99945 0.000445125 0)
(0.999345 0.00062314 0)
(0.999294 0.000721702 0)
(0.999214 0.000951079 0)
(0.999224 0.00116957 0)
(0.999997 2.85361e-05 0)
(1 -2.6753e-05 0)
(0.999965 3.71152e-05 0)
(0.999953 9.07229e-06 0)
(0.99993 8.52701e-05 0)
(0.999925 4.43007e-05 0)
(0.99989 0.000125715 0)
(0.999876 8.53996e-05 0)
(0.999833 0.00017459 0)
(0.999811 0.000135165 0)
(0.999755 0.000234984 0)
(0.999724 0.000203404 0)
(0.999653 0.000317204 0)
(0.999611 0.000305169 0)
(0.999523 0.000438935 0)
(0.999472 0.000468762 0)
(0.999376 0.000634076 0)
(0.999331 0.00074176 0)
(0.999264 0.000953307 0)
(0.999276 0.00116526 0)
(0.999997 2.82988e-05 0)
(1 -2.10585e-05 0)
(0.999969 4.07796e-05 0)
(0.999958 1.33359e-05 0)
(0.999934 8.79192e-05 0)
(0.999929 5.09062e-05 0)
(0.999895 0.000129528 0)
(0.999881 9.42658e-05 0)
(0.999838 0.00017977 0)
(0.999818 0.000147248 0)
(0.999763 0.000241855 0)
(0.999734 0.000219302 0)
(0.999665 0.000326077 0)
(0.999625 0.000325178 0)
(0.999542 0.00044982 0)
(0.999495 0.000491373 0)
(0.999408 0.000644955 0)
(0.999368 0.000759454 0)
(0.999312 0.000955179 0)
(0.999328 0.00115893 0)
(0.999997 2.78946e-05 0)
(1 -1.56909e-05 0)
(0.999972 4.42049e-05 0)
(0.999963 1.81262e-05 0)
(0.999938 9.04478e-05 0)
(0.999933 5.7951e-05 0)
(0.999899 0.000133306 0)
(0.999887 0.000103617 0)
(0.999844 0.000184961 0)
(0.999825 0.000159761 0)
(0.999771 0.000248824 0)
(0.999743 0.000235424 0)
(0.999677 0.000335142 0)
(0.99964 0.000344908 0)
(0.999562 0.000460898 0)
(0.999518 0.00051275 0)
(0.99944 0.00065573 0)
(0.999405 0.00077478 0)
(0.99936 0.000956581 0)
(0.999378 0.00115086 0)
(0.999997 2.73312e-05 0)
(1 -1.05748e-05 0)
(0.999974 4.73369e-05 0)
(0.999967 2.34122e-05 0)
(0.999941 9.28809e-05 0)
(0.999937 6.53981e-05 0)
(0.999903 0.000137077 0)
(0.999892 0.000113392 0)
(0.99985 0.000190204 0)
(0.999831 0.000172595 0)
(0.999779 0.00025595 0)
(0.999753 0.000251609 0)
(0.99969 0.00034445 0)
(0.999655 0.000364164 0)
(0.999583 0.000472165 0)
(0.999542 0.000532738 0)
(0.999472 0.000666313 0)
(0.999443 0.000787799 0)
(0.999406 0.000957373 0)
(0.999427 0.00114136 0)
(0.999997 2.66237e-05 0)
(1 -5.65661e-06 0)
(0.999976 5.01596e-05 0)
(0.999971 2.91276e-05 0)
(0.999944 9.52626e-05 0)
(0.999941 7.31791e-05 0)
(0.999907 0.000140886 0)
(0.999896 0.000123498 0)
(0.999855 0.000195571 0)
(0.999838 0.00018562 0)
(0.999788 0.000263302 0)
(0.999763 0.00026769 0)
(0.999703 0.000354043 0)
(0.99967 0.000382762 0)
(0.999604 0.000483594 0)
(0.999567 0.000551218 0)
(0.999505 0.000676582 0)
(0.99948 0.000798604 0)
(0.999452 0.000957421 0)
(0.999475 0.00113067 0)
(0.999996 2.57826e-05 0)
(1 -8.88836e-07 0)
(0.999978 5.26701e-05 0)
(0.999974 3.52e-05 0)
(0.999948 9.76386e-05 0)
(0.999944 8.12262e-05 0)
(0.999912 0.000144781 0)
(0.999901 0.000133839 0)
(0.999861 0.000201115 0)
(0.999845 0.000198703 0)
(0.999797 0.000270928 0)
(0.999773 0.000283505 0)
(0.999717 0.000363928 0)
(0.999686 0.000400544 0)
(0.999625 0.00049511 0)
(0.999592 0.00056812 0)
(0.999538 0.000686395 0)
(0.999518 0.000807325 0)
(0.999496 0.000956601 0)
(0.999522 0.00111903 0)
(0.999996 2.4823e-05 0)
(1 3.75651e-06 0)
(0.999979 5.48941e-05 0)
(0.999977 4.15352e-05 0)
(0.999951 0.000100061 0)
(0.999947 8.94515e-05 0)
(0.999916 0.000148813 0)
(0.999906 0.000144302 0)
(0.999867 0.000206898 0)
(0.999852 0.000211709 0)
(0.999806 0.000278865 0)
(0.999784 0.000298907 0)
(0.999731 0.000374089 0)
(0.999703 0.000417383 0)
(0.999647 0.000506612 0)
(0.999618 0.000583411 0)
(0.99957 0.000695588 0)
(0.999555 0.000814103 0)
(0.999539 0.000954808 0)
(0.999568 0.0011066 0)
(0.999996 2.37707e-05 0)
(1 8.28897e-06 0)
(0.999981 5.68731e-05 0)
(0.999979 4.80348e-05 0)
(0.999954 0.000102581 0)
(0.999951 9.77671e-05 0)
(0.99992 0.00015303 0)
(0.999911 0.000154776 0)
(0.999874 0.000212959 0)
(0.999859 0.000224507 0)
(0.999816 0.000287121 0)
(0.999794 0.000313764 0)
(0.999746 0.000384466 0)
(0.99972 0.000433184 0)
(0.999669 0.00051796 0)
(0.999644 0.000597094 0)
(0.999603 0.000704002 0)
(0.999593 0.000819089 0)
(0.999581 0.000951968 0)
(0.999611 0.00109353 0)
(0.999996 2.26545e-05 0)
(1 1.27027e-05 0)
(0.999982 5.8665e-05 0)
(0.999982 5.45915e-05 0)
(0.999957 0.000105248 0)
(0.999954 0.000106076 0)
(0.999924 0.000157475 0)
(0.999916 0.000165146 0)
(0.99988 0.000219328 0)
(0.999866 0.000236981 0)
(0.999825 0.000295678 0)
(0.999806 0.00032797 0)
(0.999761 0.000394973 0)
(0.999737 0.000447884 0)
(0.999692 0.000528998 0)
(0.99967 0.000609196 0)
(0.999635 0.000711478 0)
(0.999629 0.000822422 0)
(0.999622 0.000948036 0)
(0.999654 0.00107993 0)
(0.999996 2.15182e-05 0)
(1 1.69735e-05 0)
(0.999983 6.03352e-05 0)
(0.999983 6.11022e-05 0)
(0.999959 0.000108102 0)
(0.999957 0.000114287 0)
(0.999928 0.000162176 0)
(0.99992 0.000175308 0)
(0.999887 0.000226003 0)
(0.999874 0.000249027 0)
(0.999835 0.000304482 0)
(0.999818 0.000341441 0)
(0.999776 0.000405488 0)
(0.999755 0.000461442 0)
(0.999715 0.000539554 0)
(0.999697 0.00061976 0)
(0.999667 0.000717882 0)
(0.999665 0.000824231 0)
(0.999661 0.000943 0)
(0.999694 0.00106586 0)
(0.999996 2.04024e-05 0)
(1 2.10707e-05 0)
(0.999984 6.19508e-05 0)
(0.999985 6.74685e-05 0)
(0.999962 0.00011117 0)
(0.99996 0.000122312 0)
(0.999932 0.000167143 0)
(0.999925 0.000185169 0)
(0.999893 0.000232961 0)
(0.999882 0.000260568 0)
(0.999846 0.000313454 0)
(0.99983 0.000354119 0)
(0.999792 0.000415868 0)
(0.999774 0.000473842 0)
(0.999737 0.000549458 0)
(0.999724 0.000628834 0)
(0.999698 0.000723102 0)
(0.9997 0.000824623 0)
(0.999699 0.000936872 0)
(0.999733 0.00105137 0)
(0.999996 1.93585e-05 0)
(1 2.49539e-05 0)
(0.999985 6.35725e-05 0)
(0.999987 7.36059e-05 0)
(0.999964 0.000114464 0)
(0.999963 0.000130075 0)
(0.999937 0.000172363 0)
(0.99993 0.000194653 0)
(0.9999 0.000240143 0)
(0.99989 0.000271537 0)
(0.999856 0.00032248 0)
(0.999842 0.00036596 0)
(0.999807 0.000425954 0)
(0.999792 0.000485077 0)
(0.99976 0.000558547 0)
(0.99975 0.000636464 0)
(0.999729 0.00072706 0)
(0.999735 0.000823688 0)
(0.999736 0.000929691 0)
(0.99977 0.00103648 0)
(0.999996 1.84248e-05 0)
(1 2.85886e-05 0)
(0.999985 6.5249e-05 0)
(0.999988 7.94443e-05 0)
(0.999967 0.000117974 0)
(0.999965 0.000137513 0)
(0.999941 0.000177799 0)
(0.999935 0.000203699 0)
(0.999907 0.000247471 0)
(0.999898 0.00028189 0)
(0.999867 0.000331432 0)
(0.999855 0.000376938 0)
(0.999823 0.000435583 0)
(0.999811 0.000495146 0)
(0.999783 0.000566679 0)
(0.999777 0.000642692 0)
(0.999759 0.000729704 0)
(0.999768 0.000821497 0)
(0.999771 0.000921504 0)
(0.999806 0.00102122 0)
(0.999996 1.7641e-05 0)
(1 3.19414e-05 0)
(0.999986 6.70111e-05 0)
(0.999989 8.49338e-05 0)
(0.999969 0.000121673 0)
(0.999968 0.000144577 0)
(0.999945 0.00018339 0)
(0.99994 0.000212263 0)
(0.999914 0.000254836 0)
(0.999906 0.000291592 0)
(0.999878 0.000340165 0)
(0.999868 0.000387027 0)
(0.999839 0.000444596 0)
(0.99983 0.000504046 0)
(0.999805 0.000573733 0)
(0.999803 0.000647547 0)
(0.999788 0.000731014 0)
(0.9998 0.000818107 0)
(0.999804 0.000912368 0)
(0.99984 0.00100558 0)
(0.999996 1.70256e-05 0)
(1 3.4994e-05 0)
(0.999987 6.88698e-05 0)
(0.99999 9.00416e-05 0)
(0.999971 0.000125511 0)
(0.999971 0.000151232 0)
(0.999949 0.000189056 0)
(0.999946 0.000220312 0)
(0.999921 0.00026212 0)
(0.999915 0.000300616 0)
(0.999888 0.000348533 0)
(0.999881 0.000396209 0)
(0.999855 0.000452851 0)
(0.999849 0.000511771 0)
(0.999827 0.000579618 0)
(0.999828 0.000651053 0)
(0.999816 0.000730991 0)
(0.999831 0.000813567 0)
(0.999836 0.000902343 0)
(0.999872 0.000989582 0)
(0.999996 1.65915e-05 0)
(1 3.77359e-05 0)
(0.999987 7.08152e-05 0)
(0.999991 9.47531e-05 0)
(0.999974 0.000129423 0)
(0.999974 0.000157455 0)
(0.999953 0.000194698 0)
(0.999951 0.000227821 0)
(0.999928 0.000269194 0)
(0.999923 0.000308936 0)
(0.999899 0.000356392 0)
(0.999894 0.000404456 0)
(0.999871 0.000460218 0)
(0.999868 0.000518305 0)
(0.999849 0.000584267 0)
(0.999853 0.000653227 0)
(0.999843 0.000729656 0)
(0.99986 0.000807919 0)
(0.999866 0.000891484 0)
(0.999902 0.000973228 0)
(0.999996 1.63286e-05 0)
(1 4.01733e-05 0)
(0.999988 7.28197e-05 0)
(0.999992 9.90654e-05 0)
(0.999976 0.000133333 0)
(0.999977 0.00016323 0)
(0.999957 0.000200211 0)
(0.999956 0.000234767 0)
(0.999935 0.000275928 0)
(0.999932 0.000316523 0)
(0.99991 0.000363612 0)
(0.999907 0.000411736 0)
(0.999886 0.000466596 0)
(0.999886 0.000523633 0)
(0.99987 0.000587639 0)
(0.999876 0.000654084 0)
(0.999869 0.000727039 0)
(0.999888 0.000801203 0)