/*--------------------------------*- C++ -*----------------------------------*\
| =========                 |                                                 |
| \\      /  F ield         | OpenFOAM: The Open Source CFD Toolbox           |
|  \\    /   O peration     | Version:  v1912                                 |
|   \\  /    A nd           | Website:  www.openfoam.com                      |
|    \\/     M anipulation  |                                                 |
\*---------------------------------------------------------------------------*/
FoamFile
{
    version     2.0;
    format      ascii;
    class       volScalarField;
    location    "1000";
    object      yPlus;
}
// * * * * * * * * * * * * * * * * * * * * * * * * * * * * * * * * * * * * * //

dimensions      [0 0 0 0 0 0 0];


internalField   uniform 0;

boundaryField
{
    inlet
    {
        type            calculated;
        value           uniform 0;
    }
    outlet
    {
        type            calculated;
        value           uniform 0;
    }
    top
    {
        type            calculated;
        value           uniform 0;
    }
    plate
    {
        type            calculated;
        value           nonuniform List<scalar> 
80
(
81.479
71.5776
64.9984
61.7561
60.2522
59.4142
59.0292
58.6917
58.4134
58.0407
57.6874
57.2989
56.9486
56.5746
56.258
55.9223
55.652
55.3544
55.1188
54.8509
54.6423
54.4013
54.2176
54.0007
53.8374
53.6378
53.4908
53.3064
53.1741
53.003
52.8841
52.7251
52.6173
52.4674
52.3684
52.2269
52.1364
52.0025
51.9198
51.7929
51.7173
51.596
51.5263
51.4099
51.3455
51.2338
51.1745
51.0671
51.0126
50.9088
50.8587
50.7579
50.7118
50.6137
50.5715
50.4759
50.4374
50.3442
50.3092
50.2179
50.1861
50.0963
50.0677
49.9793
49.9536
49.8666
49.8438
49.758
49.7382
49.6532
49.636
49.5518
49.537
49.4536
49.441
49.3583
49.3484
49.2652
49.2598
49.1717
)
;
    }
    front
    {
        type            symmetryPlane;
    }
    defaultFaces
    {
        type            empty;
    }
}


// ************************************************************************* //
