/*--------------------------------*- C++ -*----------------------------------*\
| =========                 |                                                 |
| \\      /  F ield         | OpenFOAM: The Open Source CFD Toolbox           |
|  \\    /   O peration     | Version:  v1912                                 |
|   \\  /    A nd           | Website:  www.openfoam.com                      |
|    \\/     M anipulation  |                                                 |
\*---------------------------------------------------------------------------*/
FoamFile
{
    version     2.0;
    format      ascii;
    class       volScalarField;
    location    "190";
    object      epsilon;
}
// * * * * * * * * * * * * * * * * * * * * * * * * * * * * * * * * * * * * * //

dimensions      [0 2 -3 0 0 0 0];


internalField   nonuniform List<scalar> 
12441
(
0.0102961
0.0090847
0.00832687
0.00770248
0.00718361
0.00674896
0.00638237
0.00607114
0.0058052
0.00557686
0.00537936
0.00520437
0.00505496
0.00491358
0.00479301
0.00469334
0.00477164
0.0189203
0.258066
2.95024
20.9647
39.25
0.0101184
0.00891965
0.00818358
0.00757655
0.00707169
0.00664845
0.00629129
0.00598795
0.00572864
0.005506
0.00531338
0.00514232
0.00499688
0.0048596
0.0047424
0.00464704
0.00473265
0.0186547
0.243199
2.943
21.2567
40.2318
0.0098964
0.00871689
0.00799987
0.00740871
0.00691718
0.00650525
0.00615777
0.00586281
0.00561087
0.00539479
0.00520812
0.00504247
0.0049022
0.00476819
0.00465593
0.00456641
0.00461222
0.0169564
0.206741
2.91414
21.638
41.3784
0.0096728
0.00851322
0.00781446
0.00723842
0.00675954
0.0063583
0.00601994
0.00573287
0.00548784
0.0052779
0.00509677
0.00493648
0.00480119
0.00467457
0.00456764
0.00448236
0.0044893
0.0149107
0.170638
2.89355
22.1064
42.5504
0.00942861
0.00828863
0.00760858
0.00704815
0.00658244
0.00619242
0.00586372
0.0055851
0.00534757
0.00514439
0.00496947
0.00481506
0.00468536
0.00456239
0.00446118
0.00438382
0.00434748
0.0130753
0.152482
2.90194
22.6216
43.6698
0.00922261
0.00809898
0.00743414
0.00688633
0.00643118
0.00605008
0.00572897
0.00545688
0.00522503
0.00502685
0.00485639
0.00470628
0.00458053
0.00446451
0.00436802
0.00429347
0.00427417
0.0133332
0.172565
3.00735
23.2427
44.7472
0.00900199
0.00789541
0.007247
0.0067129
0.0062693
0.00589806
0.00558543
0.00532074
0.00509544
0.00490315
0.00473808
0.00459307
0.00447203
0.00435878
0.00426566
0.00419955
0.0060324
0.0225387
0.276968
3.29941
24.0636
45.7945
0.00882351
0.00773073
0.00709516
0.00657167
0.0061369
0.00577307
0.0054667
0.00520734
0.00498661
0.00479827
0.00463666
0.00449489
0.00437697
0.00427012
0.00418629
0.00517298
0.0347418
0.0797289
0.584376
3.90826
25.1979
46.8732
0.00862941
0.00755156
0.00693049
0.00641909
0.00599453
0.00563939
0.0053405
0.00508766
0.00487269
0.0046895
0.00453256
0.00439529
0.0042821
0.0041368
0.00539558
0.0273379
0.180855
0.304659
1.25698
4.97243
26.7652
48.0153
0.00847468
0.00740864
0.00679857
0.00629623
0.00587918
0.00553032
0.00523671
0.00498832
0.00477714
0.00459719
0.00444307
0.00430854
0.00419813
0.00427252
0.0255715
0.15502
0.558514
0.829425
2.33444
6.54737
28.8518
49.2846
0.0083053
0.00725222
0.00665486
0.00616313
0.00575502
0.00541379
0.00512673
0.00488405
0.0046779
0.00450242
0.00435233
0.00422271
0.0040864
0.00957908
0.118649
0.468765
1.15803
1.63396
3.63999
8.54594
31.4831
50.6975
0.00817023
0.00712749
0.0065397
0.00605583
0.00565422
0.00531839
0.00503585
0.00479696
0.00459401
0.00442126
0.00427351
0.00414747
0.00416404
0.0498671
0.349117
0.927819
1.80219
2.50827
4.92478
10.778
34.6132
52.295
0.00802115
0.00698987
0.00641341
0.00593899
0.00554535
0.00521631
0.00493958
0.00470576
0.00450725
0.00433843
0.00419419
0.00403412
0.00842979
0.17666
0.684699
1.38988
2.34453
3.26371
6.04363
13.0473
38.1466
54.0597
0.00790022
0.00687819
0.00631031
0.00584292
0.0054551
0.00513088
0.00485821
0.00462778
0.00443214
0.00426577
0.00412367
0.00387949
0.0381158
0.386554
1.01538
1.76333
2.75013
3.8445
6.96811
15.2132
41.9618
56.0037
0.00776889
0.00675689
0.00619901
0.00573997
0.00535916
0.00504093
0.00477337
0.00454738
0.00435562
0.00419266
0.00405357
0.00427014
0.120896
0.617277
1.28687
2.04357
3.04472
4.27585
7.72505
17.2012
45.9402
58.0812
0.00765976
0.00665617
0.00610603
0.00565334
0.00527778
0.00496391
0.00470001
0.00447709
0.00428793
0.00412721
0.00399012
0.00961091
0.249983
0.82155
1.4953
2.25231
3.26137
4.6
8.35301
18.9849
49.977
60.2902
0.00754389
0.00654917
0.00600793
0.00556264
0.00519329
0.00488468
0.00462527
0.00440621
0.00422039
0.00406258
0.00392851
0.0336858
0.393216
0.987607
1.65495
2.41086
3.42543
4.85185
8.88576
20.5658
53.9922
62.571
0.00744231
0.00645553
0.00592159
0.00548231
0.00511795
0.00481352
0.00455762
0.00434155
0.0041583
0.0040027
0.0038733
0.0882474
0.525426
1.11981
1.77984
2.53477
3.55409
5.05576
9.3488
21.9584
57.9278
64.9213
0.00733977
0.0063607
0.00583458
0.00540179
0.00504286
0.004743
0.00449098
0.00427823
0.00409784
0.00394473
0.00381019
0.164554
0.637965
1.22644
1.88035
2.63465
3.65877
5.22792
9.76024
23.1819
61.7501
67.2818
0.00724507
0.00627349
0.00575423
0.0053271
0.00497289
0.004677
0.00442835
0.00421848
0.00404058
0.00388964
0.00429541
0.246143
0.731539
1.31463
1.96364
2.71769
3.74711
5.37889
10.1324
24.2554
65.4426
69.6617
0.00715492
0.00619006
0.00567767
0.00525618
0.00490666
0.00461468
0.00436932
0.00416222
0.00398667
0.00383781
0.0101785
0.323244
0.810095
1.3896
2.03466
2.78888
3.82442
5.51543
10.4733
25.1972
69.0076
72.0102
0.00706407
0.00610657
0.00560091
0.00518503
0.00484023
0.00455225
0.00431032
0.00410619
0.00393322
0.00378713
0.0301768
0.392397
0.877534
1.45502
2.0969
2.85176
3.89441
5.64163
10.7882
26.0233
72.4598
74.3523
0.00698487
0.00603305
0.00553327
0.0051222
0.00478134
0.00449664
0.00425742
0.00405554
0.00388448
0.00374215
0.0662566
0.45365
0.936927
1.51346
2.15289
2.90891
3.95971
5.75968
11.0801
26.7485
75.8291
76.6493
0.00689829
0.00595358
0.0054603
0.00505469
0.00471845
0.00443769
0.00420188
0.00400297
0.00383452
0.00370247
0.110783
0.508162
0.990497
1.56684
2.20454
2.96223
4.0221
5.87064
11.3508
27.3854
79.1557
78.9445
0.00683011
0.00589018
0.00540189
0.00500026
0.00466722
0.00438905
0.00415533
0.00395811
0.00379105
0.00368436
0.156275
0.557384
1.03985
1.61655
2.25326
3.01314
4.08261
5.97493
11.6016
27.9457
82.4927
81.212
0.00674434
0.00581171
0.00533013
0.0049342
0.00460604
0.0043321
0.00410205
0.00390806
0.00374385
0.00364669
0.199439
0.602659
1.08613
1.66372
2.30016
3.06263
4.14169
6.07282
11.8332
28.4394
85.9014
83.5114
0.00668528
0.00575649
0.00527897
0.00488622
0.00456057
0.00428859
0.00406009
0.00386732
0.00370415
0.00385774
0.239806
0.645077
1.13022
1.70917
2.34602
3.11133
4.19947
6.16457
12.0463
28.8754
89.4527
85.8273
0.00660147
0.00567995
0.00520914
0.00482213
0.00450144
0.00423378
0.00400906
0.00381961
0.00365947
0.00592052
0.277964
0.685483
1.17276
1.75358
2.39141
3.15961
4.25587
6.25046
12.2416
29.261
93.2201
88.2307
0.0065519
0.00563335
0.00516573
0.0047811
0.00446217
0.0041958
0.00397203
0.00378325
0.00362403
0.0118195
0.31468
0.724509
1.2143
1.79744
2.43669
3.20764
4.31084
6.33088
12.4198
29.6023
97.279
90.7106
0.00646772
0.0055568
0.00509623
0.0047177
0.00440408
0.00414237
0.00392268
0.00373752
0.00358248
0.0232316
0.350601
0.762639
1.25522
1.84112
2.48211
3.25548
4.36436
6.4062
12.5815
29.9041
101.698
93.3406
0.00642559
0.00551678
0.00505856
0.00468168
0.00436918
0.00410821
0.003889
0.00370412
0.00355157
0.0412239
0.386195
0.800241
1.29586
1.88488
2.52776
3.30314
4.41648
6.47683
12.7277
30.1704
106.537
96.1058
0.00634303
0.00544183
0.00499066
0.00461992
0.00431282
0.0040566
0.00384156
0.00366036
0.00351562
0.0658522
0.421774
0.837602
1.33647
1.9289
2.57372
3.35066
4.46734
6.54316
12.8592
30.4047
111.843
99.0732
0.00630945
0.00540961
0.00495999
0.00459014
0.00428345
0.00402731
0.00381216
0.00363071
0.00349495
0.0964825
0.457538
0.874948
1.37724
1.97329
2.62
3.39805
4.51711
6.6056
12.9768
30.6104
117.65
102.217
0.00622487
0.00533319
0.00489115
0.00452798
0.0042272
0.00397629
0.00376573
0.00358834
0.00347404
0.132113
0.493598
0.912448
1.41831
2.01813
2.66661
3.4454
4.56598
6.66454
13.0817
30.7906
123.978
105.592
0.00619814
0.00530706
0.00486577
0.00450275
0.00420171
0.00395031
0.00373916
0.00356113
0.00347969
0.171716
0.529993
0.950227
1.45975
2.06345
2.71358
3.49278
4.6142
6.72038
13.1747
30.9486
130.841
109.157
0.00611105
0.00522878
0.00479566
0.00443987
0.00414526
0.00389953
0.00369335
0.00351969
0.00355504
0.214263
0.566694
0.988364
1.50163
2.10927
2.76092
3.54031
4.66201
6.77351
13.257
31.0871
138.245
112.957
0.00608761
0.0052056
0.00477281
0.00441678
0.00412155
0.00387502
0.003668
0.00349352
0.00654071
0.258661
0.603597
1.0269
1.54395
2.15559
2.80866
3.5881
4.70969
6.82434
13.3296
31.2082
146.188
116.938
0.00599551
0.0051234
0.00469968
0.00435167
0.00406352
0.00382323
0.00362166
0.00345195
0.0339495
0.303541
0.640531
1.06583
1.5867
2.2024
2.85684
3.63629
4.75749
6.87327
13.3939
31.3126
154.655
121.137
0.00596732
0.00509612
0.00467328
0.00432543
0.00403703
0.00379626
0.00359416
0.00342459
0.0847384
0.346683
0.677262
1.10512
1.62983
2.24967
2.90548
3.68502
4.80569
6.92072
13.4509
31.3999
163.591
125.495
0.00586252
0.00500299
0.0045908
0.00425234
0.00397223
0.00373876
0.00354303
0.00338452
0.12674
0.386029
0.713533
1.14469
1.67328
2.29737
2.95461
3.73441
4.85455
6.96711
13.5021
31.4681
172.857
130.045
0.00582104
0.00496372
0.00455353
0.00421622
0.00393672
0.00370359
0.00350814
0.00338338
0.156016
0.420863
0.749094
1.18443
1.71695
2.34541
3.00424
3.78459
4.90432
7.0129
13.5487
31.5151
182.178
134.727
0.00569932
0.00485598
0.00445814
0.00413146
0.0038612
0.00363617
0.00344782
0.0042799
0.176539
0.45131
0.78373
1.22422
1.76076
2.39371
3.05439
3.83566
4.95521
7.05858
13.5917
31.5389
191.065
139.588
0.00561712
0.00478961
0.00440389
0.00408558
0.00382095
0.00359957
0.00341342
0.00634771
0.19136
0.477795
0.817275
1.26387
1.80458
2.44213
3.105
3.88768
5.00742
7.1047
13.6319
31.5393
198.809
144.654
0.00525453
0.00446
0.00411156
0.00382608
0.00358896
0.00339045
0.00322365
0.00760954
0.202296
0.500746
0.849591
1.30318
1.8483
2.49051
3.15604
3.9407
5.06112
7.15188
13.6693
31.517
204.591
150.447
95.0235
88.0987
57.7043
44.3405
37.3223
30.8337
29.5722
27.3208
26.2701
25.6899
25.3307
23.8635
26.3561
32.0884
35.1238
36.0177
36.239
37.4762
39.2912
39.397
38.8446
39.1011
39.625
36.7156
27.8426
14.2926
6.44242
4.87483
4.63626
4.7751
5.08016
5.26127
5.24153
4.75326
4.10067
94.6475
88.6323
58.5678
45.9462
38.9074
31.8923
30.5912
28.1722
27.1273
26.5412
25.8859
24.172
26.5197
32.5077
35.8004
36.6595
36.7545
37.7293
39.3796
39.5432
39.139
39.5059
40.1179
37.2916
28.3602
14.5063
6.45849
4.87066
4.63149
4.77017
5.07445
5.25429
5.23398
4.7458
4.09453
93.9266
89.4634
60.1325
48.9812
41.937
33.9609
32.5794
29.8496
28.8391
28.1625
26.8952
24.7246
26.9177
33.0104
36.689
37.8254
37.8562
38.3474
39.5886
39.7325
39.4988
39.9608
40.5587
37.7926
28.9437
14.7613
6.47626
4.862
4.62195
4.76033
5.06305
5.24035
5.21891
4.73091
4.08226
92.8104
90.5188
62.4446
53.5508
46.4173
37.0777
35.5024
32.3167
31.3688
30.4895
28.5131
25.7392
27.7428
33.8915
38.2139
39.8786
39.9128
39.7107
40.2389
40.2275
40.1525
40.688
41.2095
38.4554
29.7233
15.1018
6.49933
4.84898
4.60765
4.74558
5.04599
5.21947
5.19635
4.70861
4.0639
91.3035
91.7375
65.5503
59.6006
52.2708
41.2351
39.3087
35.5543
34.7084
33.5738
30.9948
27.491
29.2842
35.6106
40.8718
43.3178
43.5251
42.4844
41.8949
41.4495
41.4056
41.9335
42.3185
39.4982
30.8274
15.5729
6.53167
4.83177
4.58863
4.72594
5.02328
5.19168
5.16635
4.67896
4.0395
89.3553
93.0626
69.4805
66.8833
59.3812
46.4237
43.978
39.5773
38.8787
37.5191
34.6617
30.3488
31.9111
38.6549
45.2398
48.8049
49.5567
47.747
45.5315
44.0981
43.7143
44.0149
44.155
41.1458
32.4005
16.2255
6.57781
4.81054
4.5649
4.70143
4.99493
5.157
5.12896
4.642
4.00911
87.0012
94.4398
74.2273
74.8983
67.5582
52.6209
49.5186
44.4289
43.9232
42.4701
39.9191
34.8385
36.1223
43.5856
51.994
57.1605
59.0939
57.0732
52.7687
49.3438
47.8058
47.3962
47.0629
43.6669
34.6255
17.1206
6.64302
4.78549
4.53651
4.67207
4.96099
5.11546
5.08423
4.59781
3.9728
84.2135
95.8151
79.7189
82.9062
76.4799
59.7382
55.9332
50.1538
49.8671
48.5574
47.208
41.7193
42.6564
51.1396
61.9575
69.3285
73.2216
72.2851
66.0691
59.1313
54.8792
52.804
51.536
47.4241
37.7568
18.3361
6.73349
4.75682
4.50349
4.63789
4.92148
5.0671
5.03226
4.54646
3.93067
81.0699
97.1347
85.8172
90.1542
85.6877
67.5619
63.1662
56.7586
56.6625
55.8042
56.7455
51.8833
52.4991
62.1305
75.8542
85.9695
92.2307
94.0073
88.0332
76.3773
66.8747
61.3949
58.3231
52.9435
42.1672
19.9757
6.8564
4.72479
4.46592
4.59893
4.87645
5.01198
4.97315
4.48808
3.88284
77.574
98.3437
92.3649
96.2454
94.6842
75.7319
71.0473
64.1566
64.1181
64.0003
67.9809
65.6535
66.3149
76.6612
93.1986
106.126
114.024
118.622
117.356
103.602
86.438
74.8903
68.5394
60.9964
48.4113
22.1792
7.02
4.68961
4.42387
4.55524
4.82597
4.9502
4.90705
4.42282
3.82943
73.8369
99.3847
99.2208
101.331
103.097
83.8078
79.2619
72.1185
71.8671
72.6052
79.1482
81.1402
82.705
92.4417
110.721
125.788
133.579
138.348
143.596
136.946
114.979
95.1965
83.6276
72.6357
57.2874
25.1338
7.23328
4.65151
4.37743
4.50692
4.77014
4.88185
4.83412
4.35085
3.77064
69.8857
100.195
106.401
105.941
110.801
91.4181
87.3856
80.2569
79.4046
80.7562
87.7586
93.562
96.7122
104.649
123.412
139.706
146.261
148.498
155.779
161.85
146.963
122.192
104.625
88.9567
69.7968
29.0773
7.50521
4.61063
4.32673
4.45405
4.70905
4.80708
4.75459
4.2724
3.70666
65.8489
100.697
114.03
110.649
117.911
98.4144
95.0106
88.1
86.2617
87.5713
92.2521
98.6151
103.068
110.059
129.188
146.176
151.648
151.045
155.619
168.119
168.481
149.579
129.876
110.021
86.6707
34.2672
7.84279
4.56703
4.27191
4.39676
4.64285
4.72609
4.6687
4.18775
3.63774
61.7626
100.782
122.122
115.838
124.671
104.923
101.908
95.2452
92.1958
92.6105
93.1399
96.8584
101.744
109.998
130.288
147.721
152.528
149.995
150.822
161.692
171.8
166.302
152.599
132.671
106.882
40.8581
8.24747
4.5206
4.21312
4.33519
4.5717
4.63909
4.57676
4.09722
3.56415
57.7502
100.301
130.258
121.644
131.332
111.272
108.132
101.565
97.3178
96.1223
92.2803
92.1567
96.8547
107.888
129.98
147.577
151.672
147.774
145.677
152.084
163.192
167.78
164.398
149.844
125.624
48.6243
8.70932
4.47099
4.15055
4.26951
4.4958
4.54634
4.47911
4.00117
3.48623
53.8399
99.075
137.462
128.005
138.071
117.862
114.01
107.256
102.011
98.8797
91.527
87.9865
92.2534
106.265
130.145
147.437
150.416
145.137
140.939
143.377
151.503
159.402
163.383
155.527
135.662
56.6205
9.20065
4.4176
4.08439
4.19992
4.41537
4.44814
4.37614
3.90002
3.4043
50.1273
96.9448
142.621
134.742
145.052
124.957
119.974
112.796
106.813
101.805
92.0943
85.9931
89.8316
106.342
131.419
147.712
149.016
142.077
136.156
135.887
140.783
148.069
154.361
150.16
133.707
63.1957
9.67354
4.35961
4.01483
4.12663
4.33066
4.34486
4.26827
3.79421
3.31875
46.6135
93.862
145.268
141.61
152.332
132.739
126.441
118.731
112.248
105.688
94.6592
86.8011
90.2914
108.555
133.847
148.279
147.325
138.436
130.907
128.946
131.628
137.199
142.547
138.481
123.031
66.7098
10.0675
4.29606
3.94211
4.04986
4.24193
4.23686
4.15598
3.68426
3.22999
43.349
89.9681
145.961
148.335
159.91
141.29
133.723
125.536
118.76
111.094
99.5849
90.5655
93.8473
113.114
137.413
149.024
145.234
134.171
125.089
122.066
123.561
127.535
130.613
124.728
108.921
66.5061
10.3271
4.22604
3.86646
3.96988
4.14948
4.12456
4.03976
3.57067
3.13844
40.3033
85.6333
145.835
154.712
167.715
150.581
141.984
133.52
126.658
118.386
107.117
97.4925
100.756
120.21
142.124
149.918
142.772
129.394
118.855
115.133
116.106
118.83
119.339
111.121
94.8653
63.1843
10.4194
4.14888
3.7881
3.88692
4.05363
4.00841
3.92012
3.45401
3.04453
37.4893
81.4592
145.716
160.69
175.641
160.483
151.244
142.823
136.123
127.758
117.405
107.768
111.339
130.177
148.155
151.089
140.107
124.336
112.473
108.263
109.02
110.71
108.765
98.5106
82.2979
57.9936
10.3401
4.0643
3.70731
3.80128
3.9547
3.88888
3.7976
3.33484
2.94872
34.8769
78.2431
145.874
166.312
183.567
170.786
161.391
153.415
147.193
139.268
130.523
121.684
126.101
143.474
155.756
152.722
137.476
119.292
106.245
101.649
102.243
102.936
98.8044
87.1435
71.5389
52.0983
10.1079
3.97243
3.62433
3.71321
3.85303
3.76646
3.67276
3.21374
2.85145
32.4767
76.2258
146.445
171.628
191.37
181.246
172.223
165.14
159.792
152.841
146.382
139.35
145.471
160.706
165.336
155.103
135.165
114.572
100.441
95.4656
95.7924
95.4155
89.4289
77.0546
62.4726
46.2576
9.75349
3.87375
3.53944
3.62302
3.74897
3.64166
3.54615
3.0913
2.75318
30.2708
75.5498
147.285
176.653
198.926
191.608
183.482
177.743
173.729
168.286
164.753
160.747
169.714
182.387
177.269
158.471
133.442
110.461
95.2867
89.8343
89.7014
88.1511
80.6812
68.2037
54.8613
40.8508
9.31056
3.76903
3.45292
3.53097
3.64288
3.515
3.41832
2.96809
2.65434
28.2673
76.2463
148.223
181.36
206.118
201.637
194.893
190.933
188.751
185.326
185.251
185.466
198.514
208.657
191.82
163.021
132.517
107.172
90.9317
84.819
83.9894
81.1909
72.6295
60.5146
48.4591
36.0125
8.81018
3.65921
3.36504
3.43737
3.53511
3.38698
3.28981
2.84468
2.55535
26.4614
78.1447
149.161
185.695
212.839
211.129
206.191
204.41
204.566
203.645
207.459
212.977
231.071
238.715
208.714
168.683
132.459
104.803
87.4466
80.4312
78.6573
74.5956
65.3299
53.887
43.0478
31.7503
8.27842
3.54528
3.27608
3.34248
3.42604
3.25813
3.16115
2.72159
2.45663
24.8623
80.7688
150.058
189.597
219.002
219.94
217.156
217.922
220.91
222.955
230.979
242.578
266.125
270.784
226.977
175.109
133.173
103.323
84.802
76.6369
73.6907
68.4195
58.8063
48.2058
38.4429
28.0174
7.73576
3.4283
3.18633
3.24661
3.31601
3.12895
3.03284
2.59934
2.35854
23.4808
83.3172
150.9
193.013
224.553
227.992
227.641
231.291
237.595
243.071
255.583
273.806
302.514
302.453
244.747
181.535
134.367
102.562
82.8828
73.364
69.0657
62.7027
53.0475
43.3506
34.4928
24.7498
7.19755
3.30925
3.09604
3.15002
3.20538
2.99993
2.90537
2.47841
2.26144
22.3333
84.9213
151.687
195.916
229.479
235.28
237.589
244.456
254.579
263.993
281.262
306.381
339.259
331.608
259.992
187.023
135.62
102.251
81.4931
70.5101
64.7537
57.4672
48.0134
39.2036
31.0741
21.884
6.67478
3.18907
3.00548
3.05299
3.09449
2.87154
2.77918
2.35925
2.16565
21.4546
85.1792
152.419
198.302
233.8
241.862
247.04
257.49
272.021
286.014
308.402
340.556
375.868
356.654
271.054
190.635
136.452
102.064
80.3992
67.9544
60.7261
52.7187
43.6449
35.6558
28.0874
19.3634
6.17491
3.06859
2.9149
2.95578
2.98367
2.74423
2.65468
2.24224
2.07146
20.8892
84.4803
153.095
200.188
237.568
247.844
256.132
270.639
290.382
309.862
337.895
377.022
412.079
376.649
277.185
191.811
136.455
101.686
79.3589
65.5728
56.9578
48.4484
39.873
32.61
25.4532
17.1402
5.70269
2.94858
2.82455
2.85864
2.87324
2.61842
2.53225
2.12774
1.97913
20.7351
83.71
153.701
201.611
240.859
253.373
265.097
284.351
310.532
336.921
371.425
417.21
447.84
390.891
278.18
190.316
135.344
100.859
78.1712
63.2559
53.4302
44.6366
36.6262
29.9819
23.1084
15.1748
5.26072
2.82967
2.73465
2.76181
2.76351
2.49448
2.41224
2.01607
1.88887
21.1259
83.6619
154.216
202.616
243.766
258.632
274.285
299.36
333.96
369.548
411.712
463.039
482.678
398.804
274.273
186.239
132.986
99.4098
76.6905
60.9235
50.1318
41.2562
33.8351
27.6996
21.0032
13.4345
4.85008
2.71242
2.64541
2.66553
2.65475
2.37278
2.29493
1.90749
1.80089
22.2957
84.7263
154.612
203.256
246.399
263.851
284.189
316.781
363.021
411.461
462.725
516.613
515.12
399.596
265.764
179.772
129.349
97.2454
74.8382
58.5303
47.057
38.2746
31.4355
25.7027
19.0987
11.8921
4.47065
2.5973
2.55704
2.57
2.54724
2.25365
2.1806
1.80224
1.71535
24.5223
86.9195
154.865
203.582
248.885
269.317
295.496
338.269
401.276
467.904
528.919
578.105
541.435
392.349
253.099
171.208
124.486
94.3353
72.5818
56.0609
44.2028
35.656
29.3691
23.9409
17.3645
10.5248
4.12151
2.48467
2.46972
2.47543
2.44125
2.13736
2.06948
1.7005
1.63238
28.1637
90.0394
154.955
203.643
251.375
275.407
309.17
366.218
453.619
544.405
611.644
641.703
555.108
376.116
236.761
160.858
118.492
90.6915
69.9208
53.5169
41.564
33.362
27.584
22.3723
15.7774
9.31307
3.80116
2.37482
2.38361
2.38201
2.33699
2.02418
1.96177
1.60244
1.55209
33.4954
93.7974
154.871
203.485
254.056
282.624
326.563
403.974
525.42
641.103
699.74
689.972
547.833
350.615
217.442
149.105
111.516
86.3556
66.8664
50.9043
39.1292
31.3527
26.0346
20.9622
14.3191
8.23981
3.50774
2.26798
2.29887
2.28992
2.23471
1.91434
1.85764
1.50818
1.47458
40.701
97.9052
154.605
203.157
257.171
291.661
349.586
455.839
618.256
740.037
760.337
697.175
514.234
316.869
196.009
136.369
103.743
81.3958
63.4386
48.2258
36.8792
29.5876
24.6804
19.6816
12.9758
7.28993
3.23919
2.16432
2.21565
2.19932
2.13461
1.80805
1.75723
1.41783
1.39992
49.6321
102.127
154.153
202.715
261.056
303.509
380.95
526.082
719.066
798.14
754.051
648.643
456.988
277.646
173.571
123.134
95.4092
75.909
59.6627
45.4793
34.7875
28.0264
23.4863
18.5067
11.7367
6.44991
2.99338
2.06396
2.13406
2.11039
2.03691
1.70551
1.66068
1.33147
1.32817
59.8743
106.307
153.514
202.235
266.199
319.642
424.398
614.335
789.453
776.691
675.958
558.172
387.031
236.728
151.264
109.885
86.7788
70.0241
55.5798
42.6614
32.8234
26.6303
22.4219
17.418
10.5934
5.70759
2.7682
1.96697
2.05425
2.02328
1.9418
1.60688
1.56809
1.24915
1.25938
70.5911
110.381
152.682
201.826
273.356
342.36
484.32
703.363
785.201
683.709
561.307
455.052
316.713
197.641
130.121
97.0844
78.1358
63.9005
51.2509
39.7731
30.9549
25.3634
21.4609
16.3996
9.5393
5.05205
2.56162
1.87342
1.97633
1.93815
1.84947
1.51231
1.47955
1.17092
1.19358
80.9187
114.359
151.654
201.655
283.775
375.346
561.718
748.128
701.815
560.935
447.676
361.086
253.897
162.584
110.849
85.1047
69.7505
57.7209
46.7657
36.8262
29.1526
24.1932
20.581
15.4389
8.56911
4.47351
2.37179
1.78336
1.90041
1.85516
1.76011
1.42194
1.39513
1.09681
1.13079
89.3733
118.319
150.415
202.004
299.681
423.867
638.188
705.588
575.442
442.819
352.276
283.701
201.039
132.393
93.8381
74.221
61.8592
51.6754
42.2407
33.8479
27.3915
23.0908
19.7635
14.526
7.67849
3.96326
2.19699
1.69679
1.82662
1.77448
1.6739
1.33589
1.31488
1.02681
1.07104
95.1437
122.438
148.938
203.378
325.18
489.586
655.784
586.405
444.318
343.271
277.017
222.267
157.683
107
79.178
64.5678
54.6298
45.9395
37.8142
30.8844
25.6531
22.0314
18.9924
13.6538
6.86376
3.51357
2.03569
1.61375
1.75505
1.69626
1.59099
1.25425
1.23882
0.960925
1.01433
0.00337755
0.00250022
0.00226731
0.00215332
0.00211232
0.00211598
0.00214925
0.00801512
0.208432
0.515571
0.872734
1.33198
1.88041
2.52585
3.19363
3.98024
5.10186
7.18838
13.6957
31.4869
206.9
160.04
0.00334402
0.00224079
0.0018378
0.00159909
0.00147574
0.00143589
0.0014676
0.00819195
0.211495
0.523599
0.886064
1.3484
1.89819
2.54488
3.21377
4.00182
5.12551
7.21142
13.7146
31.4703
207.866
170.098
0.00354018
0.00237564
0.0018814
0.00154249
0.001319
0.00118615
0.00115504
0.00829956
0.213526
0.529422
0.896438
1.36088
1.91104
2.55796
3.22743
4.01698
5.14382
7.23144
13.7326
31.4611
207.98
179.708
0.00367044
0.00251736
0.00200403
0.00162969
0.00135728
0.00116482
0.00103153
0.00836125
0.214656
0.533147
0.903793
1.36932
1.91881
2.565
3.23451
4.02561
5.15665
7.24835
13.7486
31.4606
207.306
188.727
0.00392233
0.00276427
0.0022274
0.00182335
0.00151535
0.00128073
0.0010022
0.00838816
0.214967
0.534852
0.908077
1.37361
1.92142
2.56593
3.23494
4.02761
5.16382
7.26197
13.7615
31.4699
205.889
197.618
0.00405987
0.0029298
0.00239914
0.0019931
0.00167646
0.00142659
0.000992972
0.00838611
0.214511
0.534596
0.909265
1.37371
1.91883
2.56074
3.2287
4.02291
5.16517
7.27207
13.7698
31.4898
203.761
206.556
0.00434027
0.00320844
0.00266078
0.0022352
0.00189809
0.00162697
0.00106351
0.00835779
0.213329
0.532439
0.907375
1.36964
1.91105
2.54946
3.21579
4.01144
5.1605
7.27837
13.7722
31.5206
200.963
215.54
0.00447825
0.00337938
0.00284464
0.00242469
0.00208814
0.0018135
0.00119102
0.00830361
0.211452
0.528448
0.90247
1.36145
1.89816
2.53219
3.19629
3.99317
5.14958
7.28054
13.7675
31.5624
197.542
224.512
0.00478387
0.00368518
0.00313607
0.00269895
0.00234446
0.00205192
0.00131625
0.0082226
0.20891
0.522701
0.894655
1.34926
1.8803
2.50907
3.17031
3.9681
5.13219
7.27816
13.7542
31.6145
193.556
233.4
0.0049084
0.00384899
0.00332026
0.00289595
0.0025487
0.00225885
0.00140606
0.00811305
0.205734
0.515292
0.884083
1.33325
1.85767
2.48031
3.13801
3.93623
5.10808
7.27076
13.7312
31.6751
189.065
242.125
0.00522926
0.00417184
0.00363161
0.00319268
0.00282979
0.00252424
0.00151984
0.007973
0.201953
0.506328
0.870938
1.31362
1.83053
2.44616
3.0996
3.89762
5.077
7.25783
13.6971
31.742
184.138
250.576
0.00533902
0.00432482
0.00381059
0.00339035
0.00304045
0.00274311
0.00163849
0.00779961
0.197596
0.495928
0.855433
1.29064
1.79917
2.4069
3.05534
3.85237
5.0387
7.23877
13.6508
31.8115
178.84
258.622
0.00567199
0.00466157
0.00413838
0.0037057
0.00334198
0.00303062
0.00184281
0.00758943
0.192687
0.484216
0.837801
1.26462
1.76394
2.36288
3.00552
3.80062
4.99295
7.21293
13.591
31.8792
173.242
266.117
0.00575601
0.004793
0.00430179
0.00389412
0.00354967
0.00325261
0.00212002
0.00733724
0.187243
0.471318
0.818278
1.23587
1.7252
2.31448
2.9505
3.74256
4.93955
7.1796
13.5167
31.9392
167.413
272.907
0.00609201
0.00513398
0.00463597
0.00421793
0.00386159
0.00355243
0.00252523
0.00703696
0.181269
0.457352
0.797104
1.20474
1.68335
2.26209
2.89065
3.67846
4.87835
7.13804
13.4268
31.9848
161.418
278.848
0.00615195
0.00524302
0.0047807
0.00439208
0.00405977
0.00376983
0.00299105
0.00667973
0.17475
0.442421
0.774504
1.17158
1.63881
2.20615
2.82637
3.60859
4.80927
7.08747
13.3201
32.0078
155.318
283.806
0.00648669
0.00558375
0.00511645
0.00471908
0.00437633
0.00407565
0.00350405
0.00625671
0.167648
0.426604
0.750685
1.13674
1.592
2.14709
2.75812
3.53334
4.73231
7.02709
13.1956
31.9995
149.171
287.671
0.00651817
0.00566549
0.00523692
0.00487281
0.00455834
0.00428132
0.00389868
0.00575687
0.159893
0.409945
0.725822
1.10056
1.54332
2.08537
2.68633
3.45308
4.64755
6.95611
13.0524
31.9503
143.025
290.36
0.00683897
0.0059931
0.00556137
0.00519037
0.00486728
0.00458134
0.00427561
0.00518678
0.151373
0.392444
0.700054
1.06337
1.49321
2.02143
2.61149
3.36827
4.55519
6.87377
12.8898
31.85
136.924
291.814
0.00685334
0.00605575
0.00566263
0.0053257
0.00503239
0.00477215
0.0045289
0.00458223
0.141932
0.37404
0.673466
1.02543
1.44207
1.95574
2.53406
3.27939
4.45549
6.7794
12.7068
31.6882
130.901
291.998
0.00716009
0.00637004
0.00597525
0.00563287
0.00533217
0.00506408
0.004825
0.00407562
0.13136
0.354597
0.646077
0.986997
1.39028
1.88873
2.45451
3.18694
4.34885
6.6724
12.503
31.4546
124.987
290.898
0.0071565
0.0064125
0.00605577
0.00574781
0.00547796
0.0052371
0.00502378
0.00390784
0.119409
0.333892
0.617825
0.948225
1.33819
1.82083
2.37332
3.09143
4.23574
6.55233
12.2779
31.1396
119.203
288.517
0.00744658
0.00671027
0.00635281
0.00604038
0.00576407
0.0055162
0.00529423
0.00418516
0.105822
0.3116
0.588539
0.909205
1.28611
1.75246
2.29095
2.99342
4.11672
6.41891
12.0313
30.7344
113.563
284.865
0.00743045
0.00673699
0.00641588
0.006137
0.00589132
0.005671
0.00547164
0.00469055
0.0904243
0.287298
0.557919
0.869911
1.23429
1.68402
2.20784
2.89343
3.99244
6.27205
11.7631
30.2314
108.077
279.967
0.00770421
0.00701836
0.00669713
0.00641446
0.00616294
0.0059361
0.00572915
0.00525289
0.0733124
0.260483
0.525508
0.830171
1.18289
1.61586
2.12443
2.79201
3.86361
6.1119
11.4734
29.6254
102.751
273.85
0.00767663
0.00703037
0.00674351
0.00649314
0.00627162
0.00607221
0.00588932
0.00562285
0.0551715
0.230653
0.49067
0.789629
1.13194
1.5483
2.04112
2.68968
3.73098
5.93883
11.1627
28.9129
97.5814
266.553
0.00793336
0.00729431
0.00700759
0.00675383
0.00652687
0.00632127
0.0061321
0.00592879
0.037568
0.197497
0.452593
0.747696
1.0813
1.48158
1.9583
2.58697
3.59538
5.75349
10.8314
28.0934
92.5655
258.122
0.00789944
0.00729633
0.00704141
0.006818
0.00661962
0.0064405
0.00627537
0.00611332
0.022773
0.161245
0.410317
0.703504
1.03061
1.41583
1.87632
2.48438
3.45767
5.55678
10.4804
27.1692
87.693
248.616
0.00814126
0.00754484
0.00729011
0.0070635
0.00685988
0.00667468
0.00650356
0.00634062
0.0128266
0.123157
0.36288
0.655864
0.979195
1.35099
1.79544
2.38238
3.31873
5.34986
10.1106
26.1455
82.9518
238.108
0.00810328
0.00753933
0.00731385
0.00711553
0.00693889
0.00677897
0.00663116
0.00649028
0.00802864
0.0859664
0.309642
0.603264
0.925998
1.28675
1.71583
2.28141
3.17948
5.13421
9.72316
25.0307
78.3247
226.69
0.00833032
0.00777247
0.00754712
0.00734574
0.00716405
0.0069982
0.00684448
0.00669892
0.00669292
0.0535868
0.250925
0.543936
0.86951
1.22241
1.63745
2.18181
3.04084
4.91156
9.31968
23.8358
73.7933
214.473
0.00829259
0.00776374
0.00756488
0.00738942
0.00723273
0.00709052
0.00695881
0.00683344
0.00662633
0.0296001
0.188939
0.476154
0.807699
1.15682
1.55998
2.08381
2.9037
4.68395
8.9019
22.5744
69.3362
201.589
0.00850611
0.0079828
0.00778402
0.00760566
0.00744411
0.00729614
0.0071586
0.00702826
0.0068536
0.0154309
0.128579
0.398954
0.738011
1.08819
1.48269
1.98741
2.76888
4.45369
8.47208
21.2621
64.9333
188.187
0.00847096
0.00797342
0.00779847
0.00764368
0.00750508
0.00737901
0.007262
0.00715051
0.00702499
0.00917414
0.0768844
0.313513
0.657546
1.01408
1.40425
1.89228
2.63702
4.22326
8.03304
19.9158
60.566
174.434
0.00867176
0.00817923
0.00800431
0.00784677
0.00770357
0.00757197
0.00744927
0.00733276
0.00721443
0.00727221
0.0400419
0.22493
0.563773
0.931255
1.32263
1.7976
2.50845
3.99525
7.58829
18.5536
56.2231
160.507
0.00864155
0.00817176
0.00801809
0.00788176
0.00775939
0.00764783
0.00754406
0.007445
0.0073457
0.00700243
0.0194151
0.142859
0.456201
0.835865
1.23495
1.70194
2.38306
3.77212
7.14203
17.1939
51.9017
146.587
0.00883172
0.00836642
0.00821268
0.00807372
0.00794695
0.00783005
0.00772071
0.00761659
0.00751442
0.00721988
0.0107872
0.0785623
0.339261
0.7241
1.13736
1.60308
2.26009
3.55593
6.69911
15.8552
47.6126
132.851
0.00880912
0.00836382
0.0082289
0.00810887
0.00800084
0.00790208
0.00780998
0.0077218
0.0076344
0.00745967
0.00813511
0.0381647
0.224654
0.594123
1.02512
1.49789
2.13802
3.348
6.26464
14.5548
43.38
119.468
0.00898974