/*--------------------------------*- C++ -*----------------------------------*\
| =========                 |                                                 |
| \\      /  F ield         | OpenFOAM: The Open Source CFD Toolbox           |
|  \\    /   O peration     | Version:  v1912                                 |
|   \\  /    A nd           | Website:  www.openfoam.com                      |
|    \\/     M anipulation  |                                                 |
\*---------------------------------------------------------------------------*/
FoamFile
{
    version     2.0;
    format      ascii;
    class       volScalarField;
    location    "190";
    object      nut;
}
// * * * * * * * * * * * * * * * * * * * * * * * * * * * * * * * * * * * * * //

dimensions      [0 2 -1 0 0 0 0];


internalField   nonuniform List<scalar> 
12441
(
5.82203e-24
1.79053e-20
8.10492e-20
3.32539e-19
1.06829e-18
3.88827e-18
1.01054e-17
2.50039e-17
6.13811e-17
1.27522e-16
3.05643e-16
7.71998e-16
2.17678e-15
7.40757e-15
1.03764e-13
1.89452e-11
0.000198376
0.00100714
0.003224
0.00269862
0.00364486
0.00775321
6.34213e-24
3.03353e-20
1.11733e-19
4.23949e-19
1.30209e-18
4.80731e-18
1.21984e-17
3.00093e-17
7.36078e-17
1.54446e-16
3.79797e-16
1.03004e-15
2.82232e-15
9.38014e-15
1.13184e-13
3.89925e-11
5.86027e-05
0.00122265
0.00368961
0.00293791
0.0040069
0.00781733
6.36489e-24
3.58959e-20
1.2078e-19
4.48133e-19
1.37774e-18
4.90676e-18
1.29289e-17
3.20404e-17
8.05127e-17
1.71765e-16
4.17886e-16
1.11842e-15
2.77871e-15
7.67167e-15
5.35958e-14
6.57293e-12
1.11834e-05
0.000894946
0.00146613
0.00277078
0.00415962
0.0078909
6.31936e-24
3.76922e-20
1.18535e-19
4.29313e-19
1.32536e-18
4.71361e-18
1.25134e-17
3.13265e-17
7.84935e-17
1.73669e-16
4.23763e-16
1.15498e-15
2.60504e-15
8.47873e-15
3.85426e-14
1.54274e-12
1.63017e-06
0.000622059
0.00109112
0.00269079
0.0043221
0.0079647
6.28531e-24
4.38836e-20
1.2978e-19
4.58319e-19
1.4027e-18
4.7794e-18
1.3091e-17
3.27945e-17
8.42974e-17
1.87521e-16
4.54175e-16
1.28579e-15
3.01226e-15
4.07562e-14
2.4756e-13
2.2975e-12
1.39834e-07
0.00043742
0.00106759
0.00267628
0.00446288
0.00803394
6.23515e-24
4.12886e-20
1.20541e-19
4.29195e-19
1.34273e-18
4.62215e-18
1.27505e-17
3.2393e-17
8.28943e-17
1.92685e-16
4.76965e-16
1.44681e-15
4.52354e-15
1.32963e-12
1.19086e-11
5.10231e-11
4.59091e-07
0.000398845
0.00112894
0.00273316
0.00459094
0.00809948
6.20024e-24
5.02645e-20
1.37798e-19
4.75776e-19
1.46016e-18
4.79255e-18
1.35933e-17
3.44538e-17
9.07033e-17
2.11124e-16
5.20868e-16
2.00185e-15
2.49676e-14
4.1497e-11
6.58795e-10
9.37524e-09
1.87543e-05
0.000410857
0.00131079
0.0029224
0.00474011
0.00816218
6.15048e-24
4.34529e-20
1.23174e-19
4.40166e-19
1.40818e-18
4.72289e-18
1.35125e-17
3.48451e-17
9.13207e-17
2.2385e-16
5.72544e-16
5.44081e-15
6.08587e-13
2.25468e-09
8.42254e-08
4.97239e-06
0.00019399
0.000463743
0.00176769
0.00331377
0.00493798
0.00822577
6.11767e-24
5.5705e-20
1.46133e-19
4.99687e-19
1.55414e-18
4.95877e-18
1.46121e-17
3.75711e-17
1.02076e-16
2.50949e-16
6.45389e-16
6.1404e-14
2.5846e-11
7.43426e-08
1.04356e-05
0.000152906
0.000783308
0.000815464
0.00272105
0.00398719
0.00521874
0.00829204
6.07083e-24
4.43504e-20
1.25439e-19
4.56641e-19
1.50757e-18
4.95375e-18
1.47478e-17
3.87259e-17
1.0488e-16
2.75126e-16
7.48675e-16
1.68347e-12
1.0811e-09
4.43613e-06
0.000189677
0.000599235
0.00161795
0.00151562
0.00445458
0.00502195
0.00559703
0.00836448
6.04165e-24
6.02611e-20
1.53437e-19
5.25919e-19
1.67275e-18
5.20608e-18
1.60255e-17
4.20354e-17
1.19298e-16
3.17377e-16
8.92142e-16
5.23534e-11
5.49019e-08
8.16582e-05
0.000700445
0.00160545
0.00340956
0.00294757
0.0073675
0.00651357
0.00608605
0.00844366
5.99625e-24
4.46299e-20
1.27739e-19
4.76955e-19
1.63373e-18
5.28111e-18
1.64027e-17
4.40659e-17
1.25503e-16
3.64639e-16
1.1587e-15
1.45799e-09
3.23979e-06
0.000340202
0.00148472
0.00344546
0.00685434
0.00575254
0.0118597
0.00849807
0.00667322
0.00853143
5.97062e-24
6.41505e-20
1.60454e-19
5.53824e-19
1.815e-18
5.54208e-18
1.7909e-17
4.82231e-17
1.46708e-16
4.44739e-16
1.69469e-15
3.52502e-08
7.21988e-05
0.00103206
0.00349797
0.00731465
0.0132486
0.0108047
0.0180526
0.0109483
0.00734708
0.00862633
5.92668e-24
4.43263e-20
1.29674e-19
4.99327e-19
1.78324e-18
5.6921e-18
1.8533e-17
5.13851e-17
1.59857e-16
5.59172e-16
3.60167e-15
7.97145e-07
0.000339912
0.00256082
0.00745174
0.0141731
0.0236861
0.018827
0.0256312
0.0137291
0.00807288
0.00872852
5.90427e-24
6.75169e-20
1.66659e-19
5.82637e-19
1.97805e-18
5.94032e-18
2.02697e-17
5.67841e-17
1.96063e-16
7.78733e-16
1.65184e-14
1.51783e-05
0.00107589
0.00580114
0.0143612
0.0248155
0.0385926
0.0298606
0.033843
0.0166763
0.00882846
0.00883515
5.86062e-24
4.396e-20
1.32001e-19
5.24823e-19
1.95786e-18
6.18578e-18
2.1203e-17
6.1681e-17
2.28178e-16
1.21632e-15
3.02186e-13
0.000136318
0.00258126
0.0115458
0.0249424
0.0394246
0.0573315
0.0429109
0.0417858
0.0195866
0.00957532
0.00894576
5.8415e-24
7.05417e-20
1.73509e-19
6.15141e-19
2.17067e-18
6.43977e-18
2.33115e-17
6.93805e-17
3.08246e-16
2.30502e-15
1.26034e-11
0.000510336
0.00568277
0.0204399
0.0390911
0.0574389
0.0780313
0.0561442
0.0486808
0.0223218
0.0102978
0.00905718
5.79757e-24
4.35034e-20
1.34498e-19
5.5316e-19
2.16075e-18
6.7719e-18
2.46195e-17
7.7233e-17
4.08488e-16
5.44586e-15
5.48027e-10
0.00127162
0.011045
0.0327095
0.0563546
0.0774094
0.0978972
0.0675426
0.0541486
0.024762
0.0109676
0.00916919
5.78118e-24
7.32656e-20
1.80294e-19
6.49158e-19
2.3881e-18
7.01196e-18
2.71838e-17
8.90746e-17
6.61761e-16
1.69237e-14
4.40823e-08
0.00298969
0.0192877
0.0477121
0.0752882
0.0972756
0.113992
0.0757598
0.0581719
0.0268796
0.0115847
0.00927899
5.73668e-24
4.30546e-20
1.36877e-19
5.82433e-19
2.38699e-18
7.43858e-18
2.9009e-17
1.02321e-16
1.08049e-15
7.52753e-14
8.53032e-06
0.00614485
0.0304105
0.0646293
0.0944135
0.114699
0.124154
0.080537
0.0610391
0.0286496
0.0121349
0.00938714
5.72358e-24
7.57316e-20
1.86809e-19
6.8321e-19
2.62938e-18
7.67344e-18
3.23059e-17
1.22252e-16
2.19389e-15
7.80227e-13
0.000164857
0.0114375
0.0438517
0.0820575
0.111685
0.127774
0.127714
0.0826206
0.063102
0.0301138
0.0126322
0.00949146
5.67826e-24
4.24358e-20
1.38579e-19
6.10961e-19
2.63528e-18
8.19383e-18
3.49422e-17
1.46473e-16
4.34046e-15
1.34066e-11
0.000629719
0.0191955
0.0586613
0.0989002
0.125716
0.135421
0.125607
0.0831687
0.0647038
0.0312888
0.0130744
0.00959327
5.66785e-24
7.80251e-20
1.92478e-19
7.15518e-19
2.89002e-18
8.41879e-18
3.94356e-17
1.83592e-16
1.02763e-14
1.66107e-10
0.00160604
0.0292529
0.0737746
0.113819
0.135284
0.137721
0.119863
0.0832075
0.0660597
0.0322396
0.013487
0.00969106
5.62199e-24
4.19661e-20
1.398e-19
6.38043e-19
2.9028e-18
9.03828e-18
4.35044e-17
2.31508e-16
2.2422e-14
1.55805e-09
0.00356432
0.0410775
0.0882315
0.126069
0.14033
0.135671
0.112723
0.0833089
0.0673105
0.0329989
0.0138777
0.00978684
5.6151e-24
8.0278e-20
1.97587e-19
7.45854e-19
3.17136e-18
9.26792e-18
5.02676e-17
3.06444e-16
5.64439e-14
1.37791e-08
0.00693377
0.053777
0.101282
0.134991
0.141216
0.130839
0.105901
0.0836502
0.0685026
0.0336447
0.0142807
0.00987966
5.56745e-24
4.1794e-20
1.40772e-19
6.63916e-19
3.19227e-18
9.9933e-18
5.71571e-17
4.0849e-16
1.30491e-13
3.18828e-07
0.0120267
0.0665591
0.112409
0.14065
0.139089
0.124769
0.100275
0.0841704
0.0696596
0.034223
0.01471
0.00997203
5.56307e-24
8.24868e-20
2.02106e-19
7.74058e-19
3.47309e-18
1.0233e-17
6.84649e-17
5.73392e-16
3.92566e-13
1.86632e-05
0.0187326
0.0786556
0.121322
0.143251
0.134996
0.118668
0.0960343
0.0847482
0.070765
0.0348166
0.0152032
0.0100634
5.51428e-24
4.18617e-20
1.41231e-19
6.87577e-19
3.50182e-18
1.10699e-17
8.13362e-17
8.10458e-16
1.8301e-12
0.000208817
0.0267365
0.0896016
0.127941
0.143475
0.13007
0.11322
0.0929883
0.0852715
0.0718084
0.0354675
0.0157728
0.0101564
5.51327e-24
8.46786e-20
2.05807e-19
7.99261e-19
3.79647e-18
1.1345e-17
1.0252e-16
1.20447e-15
1.28022e-11
0.000685978
0.0354638
0.0990445
0.132371
0.141902
0.124985
0.108702
0.090832
0.0856768
0.072761
0.0362387
0.0164494
0.0102507
5.46223e-24
4.20368e-20
1.40976e-19
7.08475e-19
3.83396e-18
1.23059e-17
1.28841e-16
1.79591e-15
7.40978e-11
0.00135226
0.0444511
0.106852
0.134851
0.139242
0.120262
0.105101
0.0892849
0.0859335
0.0736067
0.0371421
0.0172326
0.0103488
5.46324e-24
8.68098e-20
2.08988e-19
8.21848e-19
4.14345e-18
1.2654e-17
1.7249e-16
2.80977e-15
3.56419e-10
0.00229267
0.0532174
0.112957
0.135702
0.135944
0.116054
0.102287
0.0881374
0.0860424
0.0743178
0.0382002
0.0181354
0.01045
5.41114e-24
4.2249e-20
1.3991e-19
7.26674e-19
4.19125e-18
1.3743e-17
2.30158e-16
4.39005e-15
1.38694e-09
0.00358434
0.0614668
0.117441
0.135271
0.132439
0.112453
0.100091
0.0872489
0.0860145
0.0748793
0.0393852
0.0191365
0.0105565
5.41525e-24
8.89215e-20
2.11424e-19
8.42429e-19
4.52291e-18
1.41942e-17
3.26423e-16
7.08405e-15
4.74625e-09
0.00533009
0.0689237
0.120416
0.133893
0.128919
0.10938
0.098359
0.086532
0.0858716
0.075267
0.0406852
0.0202277
0.010667
5.35969e-24
4.22816e-20
1.37821e-19
7.42949e-19
4.58542e-18
1.54555e-17
4.5831e-16
1.1297e-14
1.44506e-08
0.00760181
0.0754852
0.12208
0.131859
0.125571
0.10679
0.0969642
0.0859356
0.0856335
0.0754688
0.0420515
0.0213679
0.0107831
5.36573e-24
8.84609e-20
2.10349e-19
8.57282e-19
4.93688e-18
1.60491e-17
6.78032e-16
1.85085e-14
4.27924e-08
0.0104566
0.0810857
0.122628
0.129408
0.122423
0.104568
0.0958139
0.0854321
0.0853235
0.0754645
0.0434663
0.0225362
0.0109032
5.30614e-24
4.14889e-20
1.32588e-19
7.51701e-19
5.0107e-18
1.74649e-17
9.80605e-16
2.99221e-14
2.1941e-07
0.0139904
0.0858042
0.122292
0.126728
0.119542
0.102664
0.0948381
0.0850083
0.0849607
0.0752466
0.0448926
0.0236846
0.0110282
5.31257e-24
8.52668e-20
2.03835e-19
8.62115e-19
5.38142e-18
1.8188e-17
1.47483e-15
5.74634e-14
1.10773e-05
0.0183484
0.0897361
0.121267
0.123956
0.116893
0.10099
0.0939921
0.0846605
0.0845665
0.0748014
0.0463401
0.0247948
0.0111563
5.2462e-24
4.16182e-20
1.27338e-19
7.57785e-19
5.48335e-18
1.98598e-17
2.14267e-15
4.65095e-13
0.000183281
0.0238015
0.0930568
0.119759
0.121189
0.114504
0.0995205
0.0932439
0.0843904
0.0841585
0.0741296
0.0478086
0.0258299
0.0112883
5.24952e-24
5.37924e-20
1.54731e-19
7.99538e-19
5.76927e-18
2.06408e-17
3.20184e-15
2.31305e-11
0.00116551
0.0306944
0.0959009
0.117926
0.118495
0.112335
0.0981971
0.092578
0.0842043
0.0837569
0.0732299
0.0493466
0.0267942
0.011422
5.1728e-24
4.32842e-20
1.14486e-19
7.24371e-19
5.94122e-18
2.35486e-17
4.66346e-15
1.03287e-09
0.0042829
0.0392465
0.0984063
0.11592
0.115913
0.110413
0.0970199
0.0919854
0.0841103
0.0833767
0.0721196
0.0509816
0.0276804
0.0115584
5.1661e-24
1.93962e-21
1.121e-20
4.00684e-19
5.44963e-18
2.44407e-17
7.2081e-15
1.8255e-07
0.011085
0.0493939
0.100619
0.113849
0.113461
0.108707
0.0959538
0.0914684
0.0841179
0.0830333
0.0708182
0.0527554
0.028528
0.0116955
5.07802e-24
1.71181e-20
4.47791e-20
4.17448e-19
5.46322e-18
3.62145e-17
1.80098e-14
4.44047e-05
0.0227953
0.0608997
0.10256
0.111821
0.111138
0.10726
0.0950223
0.091032
0.0842348
0.0827325
0.0693694
0.0546173
0.0293524
0.0118345
5.03916e-24
6.72062e-22
8.46e-23
2.35271e-19
5.06698e-18
8.28302e-17
3.70842e-13
0.000856508
0.0401919
0.0734081
0.104165
0.109902
0.10893
0.106043
0.0942011
0.0906932
0.0844681
0.0824756
0.0678225
0.0564043
0.0301555
0.011976
4.83853e-24
2.10352e-19
4.58219e-19
1.02971e-18
7.26157e-18
9.1369e-16
7.18234e-12
0.00494198
0.0635343
0.0867403
0.105529
0.108216
0.10682
0.105097
0.0935141
0.090458
0.0848108
0.0822087
0.06624
0.0576924
0.0306339
0.0121338
0.00987657
0.0167942
0.0182493
0.0071027
0.00629795
0.00641522
0.0065253
0.00658372
0.00642185
0.00671775
0.0095163
0.0092502
0.00827444
0.00774732
0.0088585
0.0110452
0.013568
0.015162
0.0148476
0.0128208
0.0114793
0.0113216
0.0114979
0.0127994
0.0175224
0.0352354
0.0800027
0.107605
0.114142
0.110552
0.104025
0.100402
0.100985
0.111235
0.129168
0.00986353
0.0170003
0.0175207
0.00674547
0.0061007
0.00623785
0.00648031
0.00655968
0.00633349
0.00660507
0.00918323
0.00895524
0.00807305
0.00749727
0.00852954
0.0106893
0.0133283
0.0152272
0.0151098
0.0129464
0.0114181
0.0111893
0.0113349
0.0125722
0.0171609
0.03463
0.0796153
0.107464
0.114062
0.110452
0.103956
0.100345
0.10096
0.111212
0.129159
0.00983842
0.0171246
0.0162862
0.00616177
0.0058511
0.00598921
0.00644462
0.00653518
0.00619939
0.00643632
0.00830539
0.00810456
0.00745976
0.00689436
0.00757375
0.00916283
0.011365
0.0133806
0.0139127
0.0123631
0.0111181
0.0109522
0.0111321
0.0123264
0.0167137
0.0338299
0.0789577
0.107116
0.113843
0.110196
0.103768
0.100183
0.100867
0.111121
0.129097
0.00979929
0.0171731
0.0147328
0.00555364
0.0056127
0.0057497
0.00641307
0.00645431
0.00603678
0.00625703
0.00732809
0.00712713
0.0067134
0.00626368
0.00661815
0.00753382
0.00901557
0.0108158
0.0119315
0.0113025
0.0105927
0.0105721
0.0108251
0.0119881
0.0161193
0.0327579
0.0779956
0.106563
0.113487
0.109786
0.103461
0.0999178
0.100706
0.110962
0.128983
0.00974597
0.0170891
0.0130022
0.0049663
0.005358
0.00549444
0.0063266
0.00627887
0.00581408
0.00601781
0.0064125
0.0062098
0.00601351
0.0057327
0.00585415
0.00620175
0.00695018
0.00828954
0.00968911
0.00994496
0.00985006
0.0100218
0.0103688
0.0115067
0.0153413
0.0313684
0.0767096
0.105824
0.113012
0.109236
0.103049
0.0995592
0.100486
0.110748
0.128828
0.00967615
0.0168277
0.0112196
0.00441606
0.0050762
0.00520384
0.00614892
0.00600203
0.00551394
0.00567401
0.00555235
0.00535438
0.00534285
0.00521608
0.00519679
0.00516045
0.00533311
0.00614075
0.00750787
0.00841608
0.00889663
0.00928543
0.00973764
0.0108531
0.0143651
0.0296444
0.07509
0.104928
0.112444
0.108572
0.10255
0.0991267
0.100225
0.110495
0.128649
0.00959042
0.0163662
0.00950023
0.00393128
0.00478975
0.0048915
0.00588472
0.00564523
0.00514813
0.00522518
0.00471914
0.00451221
0.00462477
0.00459721
0.0045124
0.00427936
0.00409598
0.00444361
0.00555444
0.00680373
0.00774447
0.00836057
0.00892518
0.0100196
0.0131961
0.0275971
0.0731337
0.103912
0.111815
0.107823
0.10199
0.098644
0.0999439
0.110226
0.12847
0.00948687
0.0156928
0.00793754
0.00354192
0.00453608
0.0045903
0.00556745
0.0052458
0.00474944
0.00471086
0.00392422
0.00367665
0.00383901
0.00385712
0.00376246
0.00347766
0.00314083
0.00317137
0.00392356
0.00520157
0.00643155
0.00726449
0.00794513
0.00901908
0.0118571
0.0252637
0.0708417
0.102817
0.111163
0.107023
0.101396
0.0981377
0.0996655
0.109968
0.128316
0.00936733
0.0148192
0.00658885
0.00326362
0.00434874
0.00433588
0.0052409
0.00484416
0.00435658
0.0041888
0.00321859
0.00289891
0.00304513
0.00308261
0.00301519
0.00276587
0.00242011
0.00228723
0.00269398
0.0037508
0.00504974
0.00604663
0.00683456
0.00788553
0.010388
0.0227059
0.0682195
0.101681
0.110522
0.106208
0.100797
0.0976362
0.0994156
0.109747
0.128215
0.0092307
0.0137646
0.00547372
0.00309374
0.00424913
0.00415752
0.00494765
0.0044775
0.00400606
0.00371467
0.00265818
0.00225689
0.00234593
0.00239984
0.00237786
0.0021978
0.00191771
0.00174341
0.00190349
0.0026183
0.00375579
0.004801
0.00565869
0.00667462
0.00884587
0.0200066
0.065279
0.100542
0.109929
0.105411
0.100222
0.0971683
0.09922
0.109593
0.128196
0.00908003
0.0125668
0.00458397
0.00301821
0.00424627
0.00407511
0.00472307
0.004176
0.00372582
0.00332943
0.00227336
0.00181025
0.0018306
0.00190276
0.00192371
0.00180854
0.0016083
0.00145938
0.00149724
0.00190252
0.0027283
0.00366378
0.00451312
0.00546428
0.007306
0.0172658
0.0620432
0.0994337
0.109414
0.104664
0.0996987
0.0967622
0.0991043
0.109534
0.128287
0.00891508
0.0112666
0.00389385
0.00302109
0.0043411
0.00409946
0.00459394
0.00396279
0.00353467
0.00305702
0.00206175
0.00156934
0.00152895
0.00160861
0.00165381
0.0015822
0.00144349
0.00133803
0.0013475
0.00156348
0.00207277
0.00277456
0.00351292
0.00435059
0.00586166
0.0145964
0.0585547
0.0983868
0.109007
0.103997
0.0992526
0.0964449
0.0990932
0.109598
0.128515
0.00874002
0.00991882
0.00337517
0.00309147
0.00453184
0.00423433
0.00457806
0.0038536
0.00344143
0.0029048
0.0019989
0.00150442
0.00141035
0.00147145
0.00151613
0.00146759
0.00136803
0.00129992
0.00132874
0.00147386
0.00176354
0.00220834
0.00275891
0.00343219
0.00461666
0.0121186
0.0548856
0.0974268
0.108731
0.103435
0.0989076
0.0962414
0.09921
0.109812
0.128908
0.00855535
0.00857794
0.00300804
0.00322606
0.00481896
0.00447949
0.00468572
0.00385803
0.00344778
0.00286754
0.0020517
0.00156807
0.00141704
0.001427
0.00144905
0.00141088
0.00133688
0.00129626
0.00135762
0.00150908
0.0016933
0.00193987
0.00229233
0.00277976
0.00366426
0.00995125
0.051148
0.0965775
0.108604
0.103
0.0986843
0.0961745
0.0994762
0.1102
0.129488
0.00836592
0.00730465
0.0027839
0.00342901
0.00520866
0.00483457
0.00492159
0.00397945
0.00355002
0.00293257
0.00218799
0.00171371
0.0014929
0.00142246
0.0014085
0.00137578
0.00132282
0.00130461
0.00139605
0.00158607
0.0017508
0.00188217
0.00208049
0.00240653
0.00305451
0.00819407
0.0474984
0.0958617
0.108641
0.102711
0.0986005
0.0962647
0.0999114
0.110787
0.13028
0.00817267
0.00615098
0.00270436
0.00371117
0.00571543
0.00530355
0.00528775
0.00421831
0.00374331
0.00308458
0.0023813
0.00190042
0.00159322
0.00142524
0.00137324
0.00134653
0.0013146
0.0013183
0.00143551
0.00166728
0.00185684
0.00194335
0.0020501
0.00227006
0.00277434
0.00690238
0.0441268
0.0953035
0.108853
0.10258
0.0986714
0.0965302
0.100534
0.111594
0.131304
0.00798033
0.00516132
0.00277769
0.00408999
0.00636018
0.00590398
0.00578961
0.00457386
0.00402323
0.00330967
0.00261361
0.00210134
0.00169046
0.00142005
0.00133684
0.00132006
0.0013108
0.00133784
0.00147946
0.00174618
0.00197132
0.00205612
0.00212831
0.00230507
0.00276417
0.00607227
0.0412254
0.0949286
0.109247
0.102618
0.0989093
0.0969873
0.101359
0.112642
0.13258
0.00778933
0.00436632
0.00301798
0.00459083
0.00717487
0.00666589
0.00644024
0.0050504
0.0043897
0.00359891
0.00287585
0.00230162
0.00177215
0.0014037
0.00129981
0.00129802
0.00131341
0.00136547
0.00153253
0.0018282
0.00208316
0.00218441
0.00226381
0.0024537
0.00295332
0.00565413
0.038944
0.094764
0.109829
0.102835
0.0993249
0.0976502
0.102402
0.11395
0.134124
0.00760307
0.00377955
0.00344691
0.00524892
0.00820149
0.0076331
0.00726309
0.00566121
0.00484866
0.00395133
0.00316928
0.00250088
0.00183951
0.00137947
0.00126424
0.00128225
0.00132461
0.00140323
0.00159739
0.00191947
0.00219499
0.00231652
0.00243011
0.0026778
0.0032832
0.00558022
0.0373573
0.0948357
0.110601
0.103235
0.0999264
0.0985319
0.103675
0.115536
0.135952
0.00742066
0.00339435
0.00410085
0.00610834
0.00949235
0.00886212
0.0082926
0.00643116
0.00541478
0.0043755
0.00350523
0.00270704
0.00190136
0.00135453
0.00123306
0.00127433
0.00134592
0.00145241
0.00167447
0.00202271
0.00231234
0.00245371
0.00261927
0.00295799
0.00371401
0.00578469
0.0364644
0.0951662
0.111566
0.103824
0.100721
0.099644
0.105192
0.117417
0.138079
0.00724378
0.00318482
0.00504484
0.00722048
0.0111078
0.0104175
0.00957096
0.00739431
0.00610979
0.004889
0.00390539
0.00293921
0.00197363
0.00133772
0.00120934
0.00127567
0.00137878
0.00151412
0.00176317
0.00213757
0.00243911
0.00260179
0.00283336
0.00328736
0.00422205
0.00621269
0.036215
0.0957724
0.112724
0.104604
0.101715
0.100998
0.106964
0.119609
0.140519
0.00707145
0.00311136
0.00637936
0.00864776
0.0131166
0.0123678
0.0111445
0.0085897
0.0069607
0.005515
0.00439703
0.00322131
0.00207575
0.00133998
0.00119759
0.00128865
0.00142516
0.00158966
0.00186227
0.00226159
0.00257692
0.00276668
0.00307809
0.00366506
0.00479428
0.00682295
0.0365409
0.0966653
0.114077
0.105577
0.102913
0.102603
0.109002
0.122129
0.143283
0.00690537
0.00315229
0.00822172
0.0104745
0.0156006
0.014787
0.013062
0.0100555
0.00799431
0.00627657
0.00500678
0.00358258
0.00223191
0.00137483
0.00120382
0.00131684
0.0014882
0.0016813
0.00197121
0.00239166
0.0027259
0.0029532
0.00335929
0.00409189
0.00542362
0.00758729
0.0373775
0.0978507
0.115625
0.106746
0.104321
0.104471
0.111316
0.124992
0.146383
0.00674534
0.00329099
0.0107023
0.012822
0.0186656
0.0177611
0.0153776
0.0118265
0.00923366
0.00718964
0.00574929
0.00404468
0.00246499
0.0014607
0.00123779
0.00136637
0.00157271
0.00179252
0.00209048
0.00252481
0.00288566
0.00316489
0.00368133
0.00456795
0.0061061
0.00848909
0.0386728
0.099331
0.117367
0.108112
0.105942
0.106611
0.113916
0.128214
0.149829
0.00659312
0.00351704
0.0139413
0.0158609
0.0224467
0.0213909
0.018149
0.0139291
0.0106911
0.00825629
0.00661961
0.00461664
0.0027916
0.00162007
0.00131439
0.00144659
0.00168585
0.00192883
0.00222314
0.00265956
0.00305602
0.00340449
0.00404664
0.00509179
0.00683954
0.00952136
0.0403897
0.101106
0.119306
0.109677
0.10778
0.109034
0.116814
0.13181
0.153632
0.00644962
0.00383393
0.0180239
0.0198122
0.0270991
0.0257737
0.0214234
0.0163712
0.0123606
0.00945747
0.0075862
0.00528121
0.00320982
0.00187474
0.00145641
0.00157228
0.00183776
0.00209776
0.00237506
0.00279678
0.00323751
0.00367407
0.00445579
0.00566041
0.00762327
0.0106852
0.0425041
0.103175
0.12144
0.111442
0.10984
0.111749
0.120018
0.135795
0.1578
0.00631698
0.0042652
0.0229847
0.0249264
0.0327657
0.0309585
0.0252033
0.0191194
0.0142022
0.0107463
0.00859211
0.0059982
0.00369706
0.0022334
0.001692
0.00176452
0.00204244
0.00230936
0.0025558
0.00294129
0.0034319
0.00397548
0.0049077
0.00626984
0.00845833
0.0119884
0.0450022
0.105537
0.123772
0.113407
0.112124
0.114765
0.123537
0.140185
0.162339
0.00619775
0.00486609
0.0288248
0.0314473
0.0395281
0.0368871
0.0294028
0.0220746
0.0161294
0.0120425
0.00955629
0.00670309
0.00421004
0.0026831
0.0020464
0.0020504
0.00231763
0.00257547
0.00277744
0.00310223
0.00364264
0.0043103
0.00540007
0.00691579
0.00934786
0.013445
0.0478781
0.108191
0.126301
0.115574
0.114636
0.118094
0.127383
0.144995
0.167257
0.00609509
0.00572318
0.0355563
0.0395731
0.0473544
0.0433447
0.0338138
0.0250539
0.018
0.0132333
0.010382
0.00732076
0.00469596
0.00318948
0.00252585
0.00245527
0.00268249
0.00290894
0.00305391
0.00329376
0.00387552
0.00468035
0.00592983
0.00759443
0.0102975
0.0150741
0.0511315
0.111136
0.129028
0.117942
0.117378
0.121744
0.131562
0.150239
0.172559
0.00601408
0.00694558
0.043252
0.0494089
0.0560486
0.0499405
0.0381004
0.0277945
0.0196234
0.0141794
0.0109636
0.00776956
0.00509862
0.00370741
0.00311004
0.00299058
0.00315099
0.0033197
0.00339773
0.00353373
0.00413911
0.00508773
0.00649363
0.0083029
0.0113158
0.0169002
0.0547653
0.114372
0.131952
0.120511
0.120354
0.125724
0.136084
0.155932
0.178248
0.00596079
0.00863562
0.0520388
0.0608733
0.0651955
0.0561184
0.0418237
0.0299773
0.0207771
0.0147303
0.0112
0.00797744
0.00536987
0.00418986
0.00375539
0.00364074
0.00372234
0.00380998
0.00381708
0.00384244
0.00444527
0.00553536
0.00708826
0.00903962
0.0124141
0.0189521
0.0587843
0.117899
0.135074
0.12328
0.123564
0.130044
0.140958
0.162089
0.184329
0.00594609
0.0108712
0.0620355
0.0735462
0.074113
0.0612042
0.0444984
0.031271
0.02124
0.0147453
0.0110085
0.00788924
0.00547538
0.00459665
0.00440884
0.004363
0.00437343
0.00436741
0.0043097
0.00423829
0.00480899
0.00602682
0.00771089
0.00980431
0.0136067
0.0212634
0.0631935
0.121715
0.138391
0.126247
0.127013
0.134713
0.146193
0.168726
0.190805
0.00598322
0.0136968
0.0732019
0.0865206
0.0818669
0.0644993
0.0456763
0.031391
0.0208333
0.0141248
0.0103488
0.00748745
0.00540591
0.00490019
0.00501869
0.00509777
0.00506045
0.00496362
0.00485974
0.00473341
0.00524776
0.00656666
0.00835912
0.0105977
0.0149111
0.0238711
0.0679966
0.125819
0.141902
0.129408
0.130701
0.139741
0.1518
0.175862
0.19768
0.00609167
0.0171488
0.0851825
0.098418
0.0874083
0.0654287
0.0450481
0.0301705
0.0194745
0.0128517
0.00924969
0.0068046
0.00518133
0.00509128
0.00554519
0.00578526
0.00572859
0.00555695
0.00543571
0.00532581
0.00577914
0.00715955
0.00903061
0.011421
0.0163469
0.0268155
0.0731952
0.130209
0.145603
0.132761
0.134635
0.145142
0.157794
0.183518
0.204962
0.00628805
0.0212574
0.0972096
0.107664
0.0898284
0.0636977
0.0425337
0.0276214
0.0172285
0.0110338
0.00783757
0.00593878
0.00485376
0.00518102
0.00596531
0.00637835
0.00632727
0.00610379
0.00599756
0.00599585
0.00641659
0.00780946
0.00972247
0.012275
0.0179365
0.0301393
0.0787879
0.134879
0.149493
0.136303
0.138819
0.150931
0.16419
0.191722
0.212661
0.00658505
0.026062
0.108237
0.112958
0.0886315
0.0593947
0.0383278
0.0239684
0.0143414
0.00892606
0.00633462
0.00503887
0.00449567
0.00519827
0.00627487
0.0068492
0.00681959
0.00656737
0.0065047
0.00670496
0.00716271
0.00851711
0.0104302
0.0131593
0.0197037
0.0338861
0.0847705
0.139828
0.153568
0.140034
0.143265
0.157131
0.171012
0.200508
0.220793
0.00697682
0.0315482
0.117187
0.113657
0.0838809
0.0529793
0.0328708
0.0196257
0.011219
0.00688535
0.00500217
0.00426414
0.00418229
0.00518145
0.00648477
0.00718973
0.00718853
0.00692727
0.00692839
0.00740573
0.00800266
0.00927724
0.0111466
0.0140714
0.0216742
0.0381002
0.0911367
0.145051
0.157829
0.143956
0.147989
0.163771
0.178289
0.209922
0.229382
0.00744499
0.0375952
0.123195
0.109867
0.0761466
0.0451621
0.0267551
0.0151202
0.0083286
0.00523762
0.00402833
0.00371867
0.00396666
0.00516591
0.0066138
0.00740607
0.00743292
0.00717867
0.00725548
0.00805182
0.00890018
0.0100746
0.0118605
0.0150066
0.0238747
0.0428252
0.0978807
0.15055
0.162277
0.148078
0.153011
0.17089
0.186058
0.220019
0.238459
0.00795396
0.0437594
0.125633
0.10223
0.0662983
0.0367299
0.0205995
0.0109734
0.00603776
0.00412886
0.00345097
0.00342018
0.00386601
0.00517253
0.00668041
0.00751274
0.00756454
0.00733239
0.00749213
0.00861289
0.00980171
0.0108822
0.0125568
0.0159576
0.0263332
0.0481046
0.105
0.156331
0.166922
0.152414
0.158363
0.178539
0.194368
0.230871
0.248069
0.00846726
0.0492
0.124061
0.0916223
0.0552703
0.0283953
0.0149406
0.00758481
0.00447827
0.0034967
0.00318167
0.00331133
0.00385874
0.00520138
0.00669599
0.00752475
0.00759903
0.00740632
0.00765723
0.00907687
0.0106467
0.011662
0.0132168
0.0169164
0.02908
0.0539825
0.112501
0.162409
0.171775
0.156988
0.164084
0.186783
0.203276
0.242562
0.258265
0.00894498
0.0526262
0.118153
0.0789302
0.0438963
0.0207103
0.0101667
0.00514434
0.00353769
0.00317254
0.00308326
0.00330129
0.00390035
0.00523624
0.0066632
0.00745444
0.00755306
0.0074227
0.00777979
0.00945417
0.0113829
0.0123709
0.0138212
0.0178754
0.0321488
0.0605061
0.120403
0.168811
0.17686
0.161833
0.170221
0.195698
0.212853
0.25519
0.269113
0.0093615
0.0527366
0.107772
0.0649937
0.0328638
0.0140607
0.00650321
0.00359577
0.00299024
0.00298558
0.00302609
0.00330134
0.00394309
0.00525327
0.00657676
0.00730777
0.00743759
0.0074
0.00788963
0.00976871
0.0119775
0.0129697
0.0143533
0.0188305
0.0355786
0.0677282
0.128743
0.175576
0.182208
0.166993
0.176833
0.205371
0.223176
0.268866
0.280686
0.0096768
0.0484494
0.0929992
0.0506351
0.0227687
0.00871604
0.00401045
0.00268946
0.00263108
0.00280768
0.00291957
0.00325342
0.00395444
0.00523171
0.00642899
0.00708663
0.00725967
0.0073534
0.00801648
0.0100566
0.0124256
0.0134343
0.0148037
0.0197831
0.0394159
0.0757107
0.137582
0.182758
0.187856
0.17252
0.18398
0.215899
0.234329
0.28371
0.293065
0.00988074
0.0397438
0.0744263
0.0366468
0.0141449
0.00484381
0.00252153
0.00212637
0.00231169
0.00255372
0.00271059
0.00312119
0.00390582
0.00514498
0.00620336
0.00678134
0.00701335
0.00728414
0.00818058
0.0103555
0.012748
0.0137596
0.0151724
0.020742
0.0437164
0.0845268
0.147004
0.19042
0.19385
0.178471
0.19173
0.227382
0.246399
0.299844
0.306336
4.88278e-24
3.15786e-19
1.14633e-18
4.33454e-18
2.51365e-17
3.17139e-14
9.08114e-11
0.0178762
0.0853445
0.0969961
0.106314
0.10714
0.105315
0.10461
0.0931199
0.0904136
0.0852022
0.0818912
0.0650543
0.0580479
0.0302511
0.0121495
4.99661e-24
7.39923e-20
8.37115e-20
6.27069e-18
6.27882e-17
2.47614e-13
9.30655e-10
0.0334886
0.100137
0.103179
0.106511
0.106488
0.104445
0.104472
0.0930445
0.0905275
0.0856324
0.0816869
0.064476
0.0579368
0.0298196
0.0122026
5.10259e-24
2.76632e-19
8.7809e-19
8.90874e-18
1.22503e-16
9.31949e-13
9.36397e-09
0.0520484
0.113378
0.108278
0.106536
0.105957
0.103776
0.104502
0.0931463
0.0907709
0.0861948
0.0815281
0.0642053
0.0574453
0.0292873
0.0123645
5.06243e-24
5.72582e-20
2.14737e-20
6.84882e-18
1.92286e-16
2.28031e-12
1.69626e-07
0.0716329
0.124874
0.112474
0.106607
0.105604
0.103343
0.104725
0.0934473
0.0911301
0.0868622
0.0814193
0.06423
0.0566024
0.0286886
0.012625
5.16614e-24
2.21275e-19
6.31883e-19
7.22412e-18
2.87855e-16
3.60544e-12
6.52949e-06
0.0892871
0.134639
0.115949
0.106876
0.105473
0.103182
0.105131
0.0939325
0.0915967
0.0876048
0.0813607
0.0645178
0.0554765
0.028069
0.0129753
5.11443e-24
4.5921e-20
1.2063e-20
4.61198e-18
4.09263e-16
4.86341e-12
1.85435e-05
0.10177
0.142766
0.118891
0.107467
0.105612
0.103319
0.105752
0.094627
0.0921626
0.0883918
0.0813485
0.0650337
0.0541239
0.0274385
0.0134327
5.22959e-24
1.78661e-19
4.73103e-19
4.63223e-18
5.79502e-16
5.05085e-12
3.4255e-05
0.107508
0.149401
0.121456
0.108451
0.106053
0.103782
0.106581
0.0955169
0.0928295
0.0891957
0.0813797
0.0657254
0.052626
0.0268227
0.0140107
5.17056e-24
3.80383e-20
7.87794e-21
2.77801e-18
7.71283e-16
4.36831e-12
2.56228e-05
0.106939
0.154653
0.123785
0.109883
0.106835
0.104587
0.107654
0.0966327
0.0936008
0.0899941
0.0814463
0.0665464
0.0510383
0.0262194
0.0147271
5.29823e-24
1.46635e-19
3.69356e-19
2.85869e-18
9.84516e-16
2.87465e-12
2.72342e-05
0.101683
0.158606
0.125967
0.11178
0.107978
0.105751
0.108963
0.0979628
0.0944907
0.0907747
0.0815427
0.0674397
0.0494343
0.0256477
0.0155856
5.22384e-24
3.24397e-20
5.88582e-21
1.6858e-18
1.14663e-15
1.68618e-12
3.50853e-05
0.0932561
0.161252
0.128069
0.114155
0.109511
0.107284
0.110546
0.0995413
0.0955143
0.0915357
0.0816598
0.0683636
0.0478554
0.0250986
0.0165896
5.35797e-24
1.21912e-19
2.97242e-19
1.84062e-18
1.25062e-15
8.5091e-13
3.99195e-05
0.0826053
0.162518
0.130094
0.116987
0.111446
0.109193
0.112391
0.101358
0.0966961
0.0922888
0.0817939
0.06927
0.0463595
0.0245873
0.0177246
5.27143e-24
2.84263e-20
4.6907e-21
1.07996e-18
1.23763e-15
4.15879e-13
4.09116e-05
0.0706018
0.16222
0.132018
0.120257
0.113805
0.111486
0.114531
0.103447
0.0980575
0.0930564
0.0819403
0.0701327
0.0449705
0.0241007
0.0189749
5.41237e-24
1.02849e-19
2.48031e-19
1.26182e-18
1.14683e-15
1.89028e-13
3.4775e-05
0.0579682
0.160121
0.133748
0.123907