/*--------------------------------*- C++ -*----------------------------------*\
| =========                 |                                                 |
| \\      /  F ield         | OpenFOAM: The Open Source CFD Toolbox           |
|  \\    /   O peration     | Version:  v1912                                 |
|   \\  /    A nd           | Website:  www.openfoam.com                      |
|    \\/     M anipulation  |                                                 |
\*---------------------------------------------------------------------------*/
FoamFile
{
    version     2.0;
    format      ascii;
    class       volScalarField;
    location    "190";
    object      p;
}
// * * * * * * * * * * * * * * * * * * * * * * * * * * * * * * * * * * * * * //

dimensions      [0 2 -2 0 0 0 0];


internalField   nonuniform List<scalar> 
12441
(
8.34336
8.63022
9.45479
10.7566
12.4159
14.4912
17.1299
20.4295
24.5373
29.6002
35.8855
43.6147
53.2375
65.3746
81.0464
100.479
128.197
162.458
217.926
279.852
371.652
437.134
8.34335
8.63021
9.45478
10.7566
12.4159
14.4912
17.1299
20.4294
24.5371
29.6
35.8851
43.6141
53.2365
65.3729
81.0434
100.473
128.182
162.434
217.843
279.775
371.6
436.931
8.34334
8.6302
9.45476
10.7565
12.4159
14.4911
17.1298
20.4292
24.5368
29.5995
35.8844
43.6129
53.2345
65.3695
81.0374
100.459
128.158
162.379
217.671
279.592
371.462
436.563
8.34331
8.63017
9.45472
10.7565
12.4158
14.491
17.1296
20.4289
24.5364
29.5988
35.8833
43.611
53.2315
65.3645
81.0285
100.439
128.126
162.294
217.491
279.311
371.211
435.992
8.34328
8.63014
9.45468
10.7564
12.4157
14.4908
17.1293
20.4285
24.5358
29.5979
35.8819
43.6085
53.2275
65.3578
81.0166
100.413
128.085
162.189
217.324
278.959
370.86
435.212
8.34325
8.6301
9.45463
10.7563
12.4155
14.4907
17.1291
20.428
24.535
29.5967
35.8801
43.6054
53.2225
65.3495
81.0018
100.38
128.034
162.066
217.137
278.533
370.413
434.227
8.3432
8.63005
9.45456
10.7562
12.4154
14.4904
17.1287
20.4273
24.5341
29.5953
35.8779
43.6016
53.2165
65.3394
80.984
100.342
127.974
161.921
216.917
278.037
369.875
433.034
8.34315
8.62999
9.45449
10.756
12.4152
14.4902
17.1283
20.4266
24.5331
29.5937
35.8753
43.5973
53.2096
65.3278
80.9634
100.297
127.908
161.756
216.678
277.484
369.25
431.632
8.34309
8.62992
9.4544
10.7559
12.415
14.4899
17.1278
20.4258
24.5319
29.5919
35.8724
43.5923
53.2016
65.3145
80.9403
100.249
127.84
161.578
216.44
276.886
368.544
430.015
8.34302
8.62985
9.45431
10.7557
12.4148
14.4895
17.1273
20.4249
24.5305
29.5898
35.8691
43.5867
53.1926
65.2997
80.9158
100.2
127.774
161.397
216.224
276.255
367.758
428.179
8.34295
8.62976
9.4542
10.7555
12.4145
14.4892
17.1267
20.4239
24.529
29.5875
35.8655
43.5804
53.1826
65.2837
80.8912
100.154
127.722
161.226
216.058
275.601
366.89
426.117
8.34286
8.62967
9.45408
10.7553
12.4142
14.4888
17.126
20.4228
24.5274
29.5849
35.8615
43.5736
53.1718
65.2674
80.869
100.119
127.707
161.096
215.968
274.927
365.933
423.821
8.34277
8.62957
9.45396
10.7551
12.4139
14.4883
17.1253
20.4215
24.5256
29.5821
35.8571
43.5661
53.1602
65.2525
80.8561
100.111
127.76
161.042
215.958
274.226
364.881
421.279
8.34268
8.62947
9.45382
10.7549
12.4136
14.4878
17.1246
20.4202
24.5236
29.5791
35.8524
43.558
53.1486
65.2427
80.8632
100.148
127.913
161.093
216.002
273.477
363.723
418.479
8.34257
8.62935
9.45367
10.7546
12.4132
14.4873
17.1237
20.4188
24.5215
29.5759
35.8473
43.5494
53.1382
65.2441
80.9019
100.246
128.178
161.252
216.043
272.654
362.45
415.411
8.34246
8.62923
9.45351
10.7543
12.4128
14.4868
17.1228
20.4173
24.5193
29.5724
35.8418
43.5404
53.1313
65.2634
80.9801
100.407
128.537
161.474
216.013
271.732
361.053
412.059
8.34234
8.62909
9.45334
10.754
12.4124
14.4862
17.1219
20.4156
24.5169
29.5687
35.8359
43.5316
53.1318
65.3059
81.0988
100.622
128.939
161.681
215.861
270.691
359.525
408.412
8.34221
8.62895
9.45315
10.7537
12.4119
14.4856
17.1209
20.4139
24.5143
29.5647
35.8296
43.5238
53.1441
65.3726
81.2503
100.865
129.309
161.789
215.56
269.521
357.859
404.454
8.34207
8.6288
9.45296
10.7533
12.4115
14.4849
17.1198
20.4121
24.5116
29.5605
35.8228
43.5187
53.1713
65.4597
81.4199
101.103
129.566
161.742
215.115
268.22
356.054
400.171
8.34193
8.62865
9.45276
10.753
12.411
14.4842
17.1187
20.4102
24.5088
29.5561
35.8157
43.5187
53.2138
65.5592
81.5875
101.294
129.653
161.531
214.547
266.793
354.105
395.549
8.34178
8.62848
9.45254
10.7526
12.4105
14.4835
17.1175
20.4081
24.5058
29.5514
35.8086
43.5263
53.2683
65.6616
81.7317
101.407
129.551
161.188
213.886
265.245
352.014
390.573
8.34162
8.62831
9.45232
10.7522
12.4099
14.4827
17.1163
20.406
24.5026
29.5465
35.8018
43.5433
53.3297
65.7566
81.8334
101.422
129.286
160.763
213.155
263.586
349.78
385.225
8.34146
8.62813
9.45208
10.7518
12.4093
14.4819
17.1149
20.4038
24.4993
29.5412
35.796
43.5689
53.3921
65.8352
81.881
101.34
128.911
160.298
212.373
261.824
347.406
379.491
8.34129
8.62794
9.45183
10.7513
12.4087
14.481
17.1136
20.4014
24.4959
29.5357
35.7923
43.6009
53.4502
65.8902
81.8713
101.179
128.488
159.82
211.548
259.969
344.894
373.351
8.34111
8.62774
9.45157
10.7509
12.4081
14.4801
17.1122
20.399
24.4923
29.5299
35.7922
43.6358
53.4996
65.9177
81.8106
100.964
128.062
159.337
210.684
258.03
342.247
366.786
8.34092
8.62753
9.4513
10.7504
12.4075
14.4792
17.1107
20.3965
24.4885
29.5239
35.7962
43.6705
53.5377
65.9172
81.7103
100.722
127.658
158.846
209.784
256.018
339.467
359.777
8.34072
8.62732
9.45102
10.7499
12.4068
14.4782
17.1091
20.3938
24.4845
29.5177
35.8046
43.7021
53.5627
65.8913
81.5844
100.474
127.282
158.344
208.845
253.94
336.558
352.302
8.34052
8.62709
9.45073
10.7494
12.4061
14.4772
17.1075
20.3911
24.4804
29.5115
35.8166
43.7286
53.5742
65.8444
81.4447
100.231
126.929
157.826
207.869
251.805
333.521
344.336
8.34031
8.62686
9.45043
10.7489
12.4054
14.4762
17.1059
20.3882
24.4762
29.5055
35.8305
43.7487
53.5726
65.7821
81.3006
99.9992
126.592
157.289
206.854
249.62
330.356
335.854
8.34009
8.62662
9.45011
10.7483
12.4046
14.4751
17.1041
20.3853
24.4717
29.4997
35.8447
43.762
53.5594
65.7091
81.1571
99.7781
126.262
156.732
205.8
247.389
327.062
326.829
8.33987
8.62638
9.44979
10.7477
12.4038
14.474
17.1023
20.3823
24.4671
29.4942
35.858
43.7681
53.5361
65.6299
81.0173
99.5656
125.934
156.157
204.707
245.115
323.632
317.229
8.33964
8.62612
9.44945
10.7472
12.403
14.4729
17.1005
20.3791
24.4623
29.4891
35.8694
43.7674
53.5048
65.547
80.8813
99.3589
125.604
155.562
203.575
242.798
320.062
307.024
8.3394
8.62585
9.4491
10.7466
12.4022
14.4717
17.0986
20.3758
24.4574
29.4847
35.8782
43.7603
53.4671
65.4629
80.749
99.1552
125.269
154.951
202.404
240.437
316.341
296.178
8.33915
8.62558
9.44874
10.7459
12.4013
14.4705
17.0966
20.3725
24.4523
29.4811
35.8842
43.7475
53.4249
65.3782
80.6192
98.9526
124.928
154.323
201.194
238.032
312.46
284.654
8.3389
8.6253
9.44837
10.7453
12.4005
14.4692
17.0946
20.369
24.447
29.4784
35.8871
43.7298
53.3792
65.2939
80.4913
98.7492
124.58
153.679
199.947
235.582
308.405
272.414
8.33863
8.62501
9.44799
10.7446
12.3996
14.4679
17.0925
20.3654
24.4415
29.4768
35.8871
43.7081
53.3313
65.2099
80.364
98.5442
124.226
153.021
198.662
233.09
304.166
259.417
8.33837
8.62471
9.4476
10.744
12.3986
14.4666
17.0904
20.3617
24.4359
29.4766
35.8846
43.6831
53.2818
65.1265
80.2369
98.3367
123.864
152.349
197.34
230.558
299.731
245.619
8.33809
8.62441
9.44719
10.7433
12.3977
14.4652
17.0882
20.3579
24.4305
29.4787
35.8799
43.6556
53.2313
65.0434
80.1092
98.1263
123.496
151.664
195.983
227.99
295.09
230.974
8.3378
8.62409
9.44678
10.7426
12.3967
14.4638
17.0859
20.354
24.4259
29.4834
35.8735
43.6262
53.1802
64.9608
79.9807
97.9126
123.121
150.967
194.591
225.391
290.235
215.434
8.33751
8.62377
9.44635
10.7418
12.3957
14.4623
17.0836
20.35
24.4238
29.4909
35.8657
43.5955
53.1287
64.8783
79.8509
97.6958
122.739
150.257
193.169
222.767
285.161
198.947
8.33721
8.62344
9.44591
10.7411
12.3946
14.4609
17.0812
20.3459
24.4264
29.5009
35.8567
43.5639
53.0769
64.7964
79.72
97.4757
122.352
149.536
191.718
220.122
279.866
181.458
8.33691
8.6231
9.44546
10.7403
12.3936
14.4593
17.0788
20.3418
24.4356
29.5133
35.8465
43.5319
53.0248
64.7146
79.5876
97.2527
121.959
148.804
190.243
217.459
274.35
162.922
8.3366
8.62276
9.445
10.7395
12.3925
14.4578
17.0762
20.3384
24.4527
29.5274
35.8351
43.4996
52.9722
64.6334
79.454
97.0269
121.561
148.06
188.748
214.772
268.585
143.251
8.33627
8.6224
9.44453
10.7387
12.3914
14.4562
17.0736
20.3377
24.4771
29.5422
35.8224
43.4677
52.9197
64.5525
79.3193
96.799
121.158
147.301
187.24
212.052
262.493
121.709
-16.2916
-34.9865
-39.949
-26.9698
-19.3545
-15.2637
-12.5915
-9.21526
-4.33758
0.746958
1.5561
-1.05862
-3.24023
2.74358
13.3031
21.5854
23.0723
20.915
18.1412
15.651
12.9281
10.686
8.60983
6.77323
3.89605
-0.333903
2.42314
8.24123
8.62108
6.25849
4.46022
3.32598
2.34276
1.29573
0.644569
-16.3352
-35.0113
-39.9813
-26.9662
-19.3453
-15.2581
-12.5898
-9.21522
-4.33809
0.746711
1.55651
-1.05135
-3.23117
2.7523
13.3126
21.5987
23.0877
20.9265
18.1465
15.6538
12.9304
10.6884
8.61189
6.77412
3.89578
-0.336035
2.40684
8.23211
8.61951
6.25872
4.46038
3.326
2.34276
1.29575
0.644571
-16.4069
-35.0731
-40.0398
-26.9603
-19.3326
-15.2504
-12.5881
-9.21587
-4.33824
0.748525
1.56171
-1.04195
-3.22018
2.76461
13.3322
21.6287
23.1231
20.957
18.1647
15.662
12.9345
10.6917
8.61441
6.77592
3.89804
-0.334694
2.39201
8.22313
8.61807
6.25904
4.46057
3.32604
2.34276
1.29578
0.644578
-16.5077
-35.1787
-40.1246
-26.9568
-19.318
-15.2415
-12.5862
-9.21684
-4.33804
0.751131
1.56749
-1.03318
-3.20972
2.77696
13.355
21.6662
23.1707
21.0029
18.1959
15.6762
12.9408
10.6962
8.61814
6.77962
3.90434
-0.326281
2.38277
8.21539
8.61683
6.2594
4.4608
3.32611
2.34279
1.29582
0.644591
-16.6365
-35.3305
-40.2327
-26.9589
-19.3012
-15.2315
-12.5838
-9.21792
-4.33708
0.754749
1.57233
-1.0262
-3.20237
2.78586
13.3739
21.699
23.2148
21.0493
18.231
15.6937
12.9491
10.7024
8.62353
6.78555
3.915
-0.310014
2.37972
8.20903
8.61584
6.25983
4.46105
3.3262
2.34283
1.29588
0.644609
-16.7905
-35.5307
-40.3601
-26.9669
-19.282
-15.2203
-12.5807
-9.2191
-4.33514
0.759522
1.57653
-1.02112
-3.19802
2.79219
13.3886
21.7238
23.249
21.088
18.2639
15.7125
12.9593
10.7104
8.63089
6.79395
3.92995
-0.285784
2.38279
8.20388
8.61507
6.26032
4.46132
3.32631
2.34287
1.29595
0.644631
-16.9669
-35.7793
-40.5017
-26.9808
-19.2612
-15.2083
-12.5772
-9.22051
-4.3324
0.765368
1.58037
-1.01731
-3.19535
2.79831
13.4014
21.7421
23.2731
21.1174
18.2922
15.7316
12.9713
10.7202
8.64029
6.80486
3.94892
-0.253815
2.39203
8.19977
8.61448
6.26084
4.4616
3.32643
2.34292
1.29602
0.644654
-17.1627
-36.0735
-40.6525
-27.0009
-19.2405
-15.1965
-12.5737
-9.22243
-4.32935
0.771666
1.58376
-1.01459
-3.19335
2.80541
13.4137
21.7554
23.2887
21.1378
18.3151
15.7501
12.9848
10.7315
8.65154
6.81807
3.97139
-0.214756
2.40757
8.19653
8.61404
6.26141
4.46188
3.32655
2.34297
1.29609
0.644677
-17.3749
-36.4072
-40.8079
-27.027
-19.2215
-15.1858
-12.5708
-9.22512
-4.32665
0.777658
1.58642
-1.01293
-3.19196
2.81254
13.4244
21.7635
23.2964
21.1497
18.3316
15.7667
12.999
10.744
8.66416
6.83306
3.99658
-0.169748
2.42958
8.19399
8.6137
6.26199
4.46215
3.32667
2.34302
1.29616
0.644698
-17.6
-36.7711
-40.9642
-27.0582
-19.2057
-15.1771
-12.5693
-9.22882
-4.32497
0.782418
1.58787
-1.0122
-3.19133
2.81805
13.4314
21.7659
23.2967
21.1536
18.3411
15.7798
13.0125
10.7566
8.67738
6.84905
4.02344
-0.120363
2.45829
8.19201
8.61343
6.26257
4.4624
3.32676
2.34305
1.29623
0.644715
-17.8345
-37.1536
-41.1184
-27.0933
-19.1941
-15.1712
-12.5696
-9.23369
-4.3249
0.785387
1.58806
-1.01213
-3.19158
2.82074
13.4332
21.762
23.2906
21.1506
18.3437
15.7878
13.0234
10.7682
8.69017
6.865
4.05067
-0.068562
2.49393
8.19047
8.61319
6.26315
4.46263
3.32684
2.34306
1.29627
0.644726
-18.0747
-37.5416
-41.268
-27.1307
-19.1872
-15.1687
-12.5722
-9.23986
-4.32676
0.786211
1.58687
-1.01232
-3.19227
2.82075
13.4298
21.7522
23.2792
21.1423
18.3404
15.79
13.0303
10.7773
8.70133
6.87972
4.07678
-0.0165711
2.53667
8.18932
8.61295
6.26371
4.46282
3.32688
2.34305
1.29631
0.644729
-18.3166
-37.9215
-41.4104
-27.1691
-19.1853
-15.1697
-12.5775
-9.24747
-4.33055
0.784995
1.58463
-1.01253
-3.19293
2.81896
13.4222
21.7372
23.2634
21.1303
18.3328
15.7873
13.0327
10.7831
8.70986
6.89208
4.10033
0.0332136
2.58645
8.18858
8.61269
6.26425
4.46297
3.32687
2.34301
1.29631
0.644723
-18.5561
-38.28
-41.5431
-27.207
-19.1884
-15.1747
-12.5857
-9.25666
-4.33607
0.781885
1.58139
-1.01266
-3.19312
2.81669
13.4118
21.718
23.2441
21.1156
18.3226
15.7812
13.0314
10.7854
8.71528
6.90135
4.12026
0.0784061
2.64272
8.18836
8.61238
6.26475
4.46306
3.32683
2.34294
1.2963
0.644706
-18.7889
-38.6045
-41.6633
-27.2427
-19.1966
-15.184
-12.597
-9.26751
-4.34303
0.777306
1.57756
-1.01288
-3.19278
2.81484
13.3999
21.6953
23.2215
21.0987
18.3107
15.7732
13.0277
10.7851
8.71786
6.90748
4.1363
0.116906
2.70408
8.18882
8.61203
6.26521
4.4631
3.32673
2.34283
1.29625
0.644677
-19.0104
-38.8841
-41.7687
-27.2749
-19.2095
-15.1979
-12.6114
-9.28015
-4.35127
0.771459
1.57309
-1.01341
-3.1919
2.81414
13.3873
21.6695
23.1958
21.0796
18.2976
15.7641
13.0226
10.783
8.71834
6.91102
4.14898
0.147447
2.76802
8.19021
8.61161
6.26563
4.46308
3.32657
2.34269
1.29618
0.644635
-19.216
-39.1111
-41.8574
-27.3018
-19.2275
-15.2169
-12.6293
-9.29481
-4.36071
0.76472
1.56836
-1.01456
-3.19058
2.81478
13.3741
21.6406
23.1667
21.0582
18.2833
15.7543
13.0169
10.78
8.71759
6.91283
4.15935
0.170159
2.83096
8.19276
8.61115
6.266
4.463
3.32635
2.3425
1.29607
0.644581
-19.4011
-39.2824
-41.9288
-27.3211
-19.2522
-15.2415
-12.6512
-9.31195
-4.37148
0.757098
1.56318
-1.01646
-3.18871
2.81709
13.3605
21.6084
23.1341
21.0343
18.2674
15.7438
13.0109
10.7767
8.71624
6.91371
4.16841
0.186601
2.88908
8.19667
8.61064
6.26632
4.46285
3.32607
2.34228
1.29592
0.644512
-19.5612
-39.3991
-41.984
-27.3316
-19.2848
-15.2722
-12.6778
-9.33223
-4.38385
0.748811
1.55783
-1.01935
-3.18633
2.82101
13.3464
21.5728
23.0978
21.0078
18.25
15.7324
13.0046
10.7732
8.71465
6.91421
4.17685
0.199015
2.93925
8.20201
8.61011
6.26659
4.46264
3.32572
2.34201
1.29574
0.64443
-19.6923
-39.4655
-42.0249
-27.3345
-19.325
-15.3097
-12.7104
-9.35669
-4.39844
0.739557
1.55185
-1.02337
-3.18335
2.82662
13.3319
21.5338
23.0578
20.9787
18.231
15.7202
12.998
10.7697
8.71296
6.91465
4.18502
0.209465
2.97997
8.20872
8.60956
6.2668
4.46235
3.32531
2.34169
1.29552
0.644334
-19.7915
-39.4869
-42.054
-27.3316
-19.3717
-15.3548
-12.7501
-9.38661
-4.41596
0.729329
1.54537
-1.02893
-3.18015
2.83346
13.3165
21.4909
23.0139
20.9468
18.2104
15.7071
12.991
10.7659
8.71121
6.91515
4.19312
0.219363
3.01131
8.21663
8.60903
6.26696
4.46199
3.32482
2.34133
1.29526
0.644224
-19.857
-39.4706
-42.0711
-27.3247
-19.4239
-15.4085
-12.7986
-9.42362
-4.43744
0.717549
1.53765
-1.0365
-3.17728
2.84103
13.2998
21.4442
22.9661
20.9123
18.1883
15.6931
12.9836
10.762
8.70936
6.91577
4.20127
0.229504
3.0345
8.22551
8.60853
6.26706
4.46155
3.32426
2.34092
1.29496
0.6441
-19.8932
-39.4192
-42.0724
-27.3144
-19.4807
-15.4717
-12.8577
-9.46946
-4.46378
0.704283
1.5289
-1.04694
-3.17609
2.84789
13.281
21.3933
22.9143
20.8752
18.1647
15.6783
12.9759
10.7579
8.7074
6.91653
4.20959
0.240244
3.05124
8.23509
8.6081
6.2671
4.46104
3.32363
2.34047
1.29462
0.643964
-19.9077
-39.3283
-42.0531
-27.3008
-19.5413
-15.5459
-12.9296
-9.52617
-4.49614
0.689082
1.51854
-1.06104
-3.1781
2.85241
13.2589
21.3376
22.8585
20.8355
18.1396
15.6627
12.9678
10.7535
8.70528
6.91744
4.21817
0.25173
3.06324
8.24517
8.60773
6.26707
4.46045
3.32292
2.33997
1.29424
0.643814
-19.9036
-39.1951
-42.0055
-27.2828
-19.605
-15.6328
-13.0166
-9.5957
-4.53526
0.672531
1.50748
-1.07969
-3.18527
2.85212
13.2317
21.2767
22.7987
20.7933
18.1131
15.6464
12.9593
10.7488
8.70298
6.91849
4.22708
0.263994
3.0719
8.25556
8.60748
6.26699
4.45978
3.32214
2.33943
1.29381
0.643653
-19.8795
-39.0221
-41.9161
-27.2578
-19.6715
-15.7346
-13.1216
-9.68003
-4.58188
0.654681
1.49575
-1.10314
-3.19881
2.84511
13.1978
21.2099
22.7348
20.7488
18.0853
15.6294
12.9505
10.7438
8.70049
6.91969
4.23635
0.277047
3.07837
8.26616
8.60734
6.26684
4.45903
3.32128
2.33884
1.29335
0.64348
-19.8347
-38.8141
-41.7661
-27.221
-19.7407
-15.853
-13.2465
-9.78023
-4.63575
0.637034
1.48518
-1.13125
-3.21943
2.82971
13.1555
21.1366
22.667
20.702
18.0562
15.6118
12.9415
10.7385
8.69779
6.92105
4.24603
0.290858
3.08341
8.27692
8.60736
6.26663
4.4582
3.32035
2.33821
1.29285
0.643296
-19.7697
-38.5773
-41.5363
-27.1663
-19.8125
-15.9894
-13.3925
-9.89625
-4.69598
0.620493
1.47625
-1.16293
-3.24619
2.80621
13.1044
21.0565
22.5953
20.6531
18.0258
15.5934
12.9321
10.7328
8.69484
6.92256
4.25615
0.305421
3.08765
8.28785
8.60755
6.26636
4.45728
3.31934
2.33754
1.29231
0.643102
-19.6853
-38.3202
-41.2137
-27.0863
-19.8877
-16.1435
-13.558
-10.0256
-4.7598
0.60777
1.4713
-1.19659
-3.27749
2.7756
13.0447
20.9697
22.5201
20.6024
17.9942
15.5743
12.9223
10.7267
8.69164
6.92423
4.26673
0.320697
3.09148
8.29899
8.60794
6.26603
4.45627
3.31825
2.33682
1.29172
0.642899
-19.5835
-38.0546
-40.7982
-26.9748
-19.9672
-16.3134
-13.7386
-10.1634
-4.82341
0.600649
1.47073
-1.22974
-3.31021
2.74085
12.9787
20.8771
22.4416
20.5501
17.9613
15.5543
12.912
10.7201
8.68815
6.92606
4.27781
0.336691
3.09528
8.31042
8.60854
6.26563
4.45517
3.31708
2.33607
1.2911
0.642688
-19.4677
-37.7933
-40.3022
-26.8285
-20.053
-16.4944
-13.9265
-10.3021
-4.88108
0.602492
1.47658
-1.2597
-3.34129
2.70457
12.909
20.7803
22.3608
20.4966
17.9275
15.5334
12.9011
10.713
8.68433
6.92804
4.28945
0.353367
3.09926
8.32224
8.6094
6.26518
4.45398
3.31584
2.33527
1.29044
0.64247
-19.3441
-37.549
-39.7461
-26.651
-20.1475
-16.6794
-14.1112
-10.4323
-4.92678
0.614862
1.48851
-1.28338
-3.36688
2.67057
12.8389
20.6814
22.2785
20.4423
17.8926
15.5113
12.8894
10.7052
8.68016
6.93019
4.30167
0.370745
3.10369
8.33459
8.61053
6.26466
4.4527
3.31452
2.33444
1.28974
0.642245
-19.221
-37.3328
-39.1522
-26.4558
-20.2531
-16.8592
-14.2801
-10.5433
-4.95396
0.639875
1.50738
-1.29855
-3.38444
2.64112
12.7705
20.5824
22.1959
20.3876
17.8571
15.4879
12.8766
10.6966
8.6756
6.93249
4.31454
0.388791
3.10869
8.34758
8.61199
6.2641
4.45133
3.31313
2.33356
1.289
0.642014
-19.1075
-37.1543
-38.5439
-26.2671
-20.372
-17.0239
-14.4216
-10.6258
-4.95803
0.676461
1.53107
-1.30393
-3.39173
2.61894
12.706
20.4849
22.1138
20.3331
17.8213
15.4635
12.8626
10.6871
8.67059
6.93497
4.32812
0.407538
3.11448
8.36138
8.61376
6.26348
4.44986
3.31165
2.33265
1.28822
0.641778
-19.0117
-37.0247
-37.9476
-26.1158
-20.5048
-17.1645
-14.5263
-10.6726
-4.93677
0.722415
1.55743
-1.30087
-3.38885
2.60424
12.6455
20.3896
22.033
20.2793
17.7857
15.438
12.8472
10.6766
8.66512
6.93762
4.34251
0.426947
3.12114
8.37613
8.61592
6.26282
4.44829
3.31009
2.3317
1.28739
0.641537
-18.9392
-36.9591
-37.3919
-26.0311
-20.6505
-17.2753
-14.5901
-10.6815
-4.89278
0.771429
1.58096
-1.2925
-3.37639
2.59746
12.5894
20.2966
21.9535
20.2262
17.7504
15.4119
12.8302
10.6649
8.65914
6.94046
4.35776
0.447059
3.12889
8.392
8.61846
6.2621
4.44661
3.30846
2.33071
1.28653
0.641292
-18.8917
-36.9782
-36.9026
-26.0318
-20.806
-17.3545
-14.6135
-10.6549
-4.83304
0.815816
1.59607
-1.28374
-3.35687
2.59663
12.5363
20.2053
21.8753
20.1739
17.7158
15.3854
12.8118
10.652
8.65267
6.9435
4.37402
0.467828
3.13777
8.40912
8.62144
6.26134
4.44482
3.30673
2.32969
1.28562
0.641042
-18.8666
-37.1051
-36.4972
-26.123
-20.9667
-17.4046
-14.602
-10.6006
-4.76901
0.846273
1.5965
-1.2786
-3.33207
2.60091
12.4856
20.1151
21.7976
20.122
17.6817
15.359
12.7921
10.6379
8.6457
6.94677
4.39137
0.489312
3.14798
8.42768
8.62486
6.26054
4.44291
3.30491
2.32861
1.28466
0.640787
-18.8576
-37.3561
-36.1822
-26.2973
-21.1278
-17.4306
-14.5633
-10.5298
-4.71328
0.856304
1.57957
-1.27967
-3.30414
2.60811
12.4359
20.0249
21.7199
20.0701
17.6479
15.3329
12.7712
10.6226
8.63827
6.9503
4.41
0.511453
3.15956
8.44783
8.62879
6.25969
4.44088
3.30299
2.32749
1.28364
0.640527
-18.8563
-37.7236
-35.9562
-26.5399
-21.2844
-17.438
-14.5057
-10.4565
-4.67619
0.843275
1.54547
-1.28653
-3.27305
2.61794
12.3863
19.9337
21.6412
20.0176
17.6143
15.3071
12.7497
10.6063
8.63044
6.95411
4.42999
0.534298
3.17277
8.46983
8.63323
6.25877
4.4387
3.30095
2.32632
1.28257
0.640262
-18.8567
-38.1538
-35.8117
-26.8323
-21.4318
-17.4306
-14.437
-10.3948
-4.66132
0.810107
1.49856
-1.2966
-3.23855
2.62836
12.3342
19.8398
21.5608
19.9645
17.5809
15.2819
12.7278
10.5892
8.62227
6.95817
4.45148
0.557719
3.18749
8.49355
8.63817
6.25779
4.43637
3.29879
2.32508
1.28142
0.639989
-18.8568
-38.5267
-35.7363
-27.1531
-21.564
-17.4089
-14.3676
-10.3546
-4.6648
0.763113
1.44537
-1.30506
-3.20027
2.63697
12.2772
19.7425
21.4791
19.9113
17.548
15.2575
12.706
10.5715
8.61364
6.96231
4.47444
0.581672
3.20309
8.51803
8.64325
6.25673
4.43388
3.29649
2.32377
1.2802
0.639705
-18.8386
-38.66
-35.7094
-27.4797
-21.673
-17.3732
-14.3112
-10.335
-4.67827
0.711775
1.39521
-1.30851
-3.16332
2.63637
12.212
19.6429
21.3982
19.8597
17.5165
15.2338
12.6837
10.5527
8.60421
6.9663
4.49911
0.60587
3.21836
8.54225
8.64841
6.25563
4.43124
3.29401
2.32238
1.27888
0.639404
-18.7282
-38.3946
-35.7095
-27.7993
-21.7549
-17.3326
-14.2775
-10.3281
-4.69501
0.662744
1.35147
-1.31034
-3.13692
2.62181
12.1415
19.5469
21.3226
19.8117
17.486
15.2089
12.6586
10.5313
8.59345
6.97084
4.52723
0.631745
3.23989
8.57548
8.65653
6.25448
4.4282
3.29134
2.32093
1.27748
0.639115
8.33602
8.62212
9.44415
10.7381
12.3905
14.4549
17.0716
20.3449
24.5004
29.5531
35.8117
43.444
52.8803
64.4898
79.215
96.6211
120.842
146.696
186.063
209.896
257.462
100.067
8.33583
8.62191
9.44387
10.7376
12.3898
14.4539
17.07
20.3574
24.5173
29.559
35.803
43.4279
52.8539
64.4443
79.1399
96.4925
120.612
146.25
185.206
208.327
253.619
97.1776
8.33563
8.62169
9.44358
10.7371
12.3892
14.4529
17.0684
20.3734
24.5312
29.5622
35.7933
43.4117
52.8274
64.3982
79.0635
96.3598
120.372
145.784
184.326
206.697
249.618
98.8848
8.33542
8.62146
9.44327
10.7366
12.3884
14.4519
17.0667
20.3896
24.5421
29.5631
35.7831
43.395
52.8008
64.351
78.9849
96.2221
120.122
145.299
183.421
204.999
245.503
98.8007
8.33521
8.62121
9.44294
10.7361
12.3877
14.4507
17.065
20.4038
24.5504
29.5623
35.7728
43.3782
52.7738
64.303
78.9042
96.0785
119.86
144.793
182.485
203.233
241.266
97.0331
8.33497
8.62096
9.44259
10.7355
12.3869
14.4496
17.0631
20.4133
24.5562
29.56
35.7627
43.3613
52.7468
64.2538
78.8208
95.9286
119.584
144.265
181.514
201.401
236.901
95.0089
8.33473
8.62068
9.44223
10.7349
12.386
14.4483
17.0611
20.4164
24.5598
29.5567
35.7531
43.3444
52.7196
64.2038
78.7349
95.7718
119.293
143.712
180.502
199.505
232.413
93.1237
8.33447
8.6204
9.44185
10.7342
12.3851
14.447
17.059
20.4133
24.5613
29.5525
35.744
43.3277
52.6924
64.1524
78.6459
95.6079
118.986
143.136
179.443
197.545
227.807
91.2154
8.3342
8.6201
9.44144
10.7335
12.3842
14.4456
17.0567
20.4054
24.5607
29.5475
35.7354
43.3111
52.665
64.1
78.554
95.4363
118.661
142.533
178.331
195.522
223.089
89.1865
8.33391
8.61978
9.44102
10.7328
12.3832
14.4442
17.0544
20.3943
24.558
29.5419
35.7273
43.2947
52.6377
64.0461
78.4586
95.2569
118.317
141.902
177.161
193.436
218.261
87.0612
8.33361
8.61944
9.44056
10.7321
12.3821
14.4426
17.0519
20.3807
24.5532
29.5357
35.7196
43.2784
52.6099
63.991
78.3597
95.0692
117.954
141.242
175.927
191.286
213.33
84.8745
8.33329
8.61909
9.44009
10.7313
12.381
14.441
17.0493
20.3654
24.546
29.5287
35.7122
43.2623
52.582
63.9341
78.2568
94.8731
117.571
140.552
174.625
189.072
208.299
82.6375
8.33295
8.61871
9.43958
10.7304
12.3798
14.4392
17.0465
20.3491
24.5359
29.5208
35.7049
43.2463
52.5535
63.8756
78.1499
94.668
117.167
139.83
173.251
186.791
203.175
80.3542
8.33259
8.61832
9.43905
10.7295
12.3786
14.4374
17.0435
20.3326
24.5227
29.5117
35.6975
43.2303
52.5247
63.815
78.0383
94.4538
116.742
139.074
171.803
184.443
197.962
78.0336
8.33222
8.6179
9.43848
10.7285
12.3773
14.4354
17.0404
20.3166
24.5058
29.501
35.6896
43.2143
52.495
63.7524
77.9221
94.2297
116.296
138.283
170.277
182.027
192.665
75.6882
8.33182
8.61745
9.43789
10.7275
12.3759
14.4334
17.037
20.3018
24.4848
29.488
35.6807
43.1982
52.4648
63.6872
77.8005
93.9955
115.828
137.456
168.673
179.541
187.29
73.3312
8.33139
8.61698
9.43725
10.7265
12.3744
14.4312
17.0335
20.2886
24.4598
29.4722
35.6703
43.1818
52.4336
63.6194
77.6733
93.7503
115.337
136.591
166.988
176.983
181.841
70.9767
8.33094
8.61648
9.43658
10.7253
12.3728
14.4289
17.0298
20.277
24.4307
29.4527
35.6576
43.1648
52.4016
63.5485
77.5399
93.4937
114.823
135.686
165.221
174.353
176.321
68.6389
8.33047
8.61595
9.43587
10.7241
12.3712
14.4264
17.0258
20.2669
24.3985
29.4288
35.6416
43.1468
52.3684
63.4744
77.4
93.2247
114.283
134.741
163.373
171.648
170.735
66.3307
8.32996
8.61539
9.43511
10.7229
12.3694
14.4238
17.0216
20.258
24.3643
29.3996
35.6209
43.1272
52.3341
63.3966
77.2527
92.9428
113.717
133.753
161.442
168.867
165.088
64.0626
8.32943
8.6148
9.43431
10.7215
12.3676
14.4211
17.0171
20.2498
24.3295
29.3647
35.5939
43.105
52.2982
63.315
77.0978
92.6468
113.124
132.721
159.428
166.009
159.384
61.8417
8.32886
8.61416
9.43346
10.7201
12.3656
14.4181
17.0124
20.2419
24.2958
29.3241
35.5589
43.0787
52.2605
63.2291
76.9344
92.3362
112.502
131.643
157.331
163.073
153.629
59.6709
8.32826
8.61349
9.43256
10.7186
12.3635
14.415
17.0073
20.2339
24.2647
29.2787
35.5139
43.046
52.22
63.1389
76.7621
92.0097
111.85
130.517
155.149
160.057
147.827
57.5481
8.32762
8.61278
9.4316
10.717
12.3613
14.4117
17.0019
20.2256
24.2368
29.2298
35.4577
43.004
52.1755
63.0436
76.5799
91.6667
111.165
129.342
152.883
156.959
141.988
55.466
8.32695
8.61203
9.43058
10.7153
12.3589
14.4082
16.9962
20.2168
24.2122
29.1793
35.3899
42.9487
52.1243
62.9428
76.3876
91.3059
110.446
128.114
150.531
153.777
136.119
53.4123
8.32623
8.61122
9.42949
10.7135
12.3564
14.4045
16.9901
20.2075
24.1902
29.1295
35.3117
42.8758
52.0629
62.8353
76.184
90.9266
109.692
126.833
148.093
150.511
130.229
51.3701
8.32546
8.61037
9.42834
10.7116
12.3537
14.4005
16.9837
20.1975
24.17
29.0817
35.2259
42.7817
51.985
62.7192
75.9684
90.5277
108.902
125.496
145.567
147.159
124.33
49.3189
8.32465
8.60946
9.42711
10.7096
12.3509
14.3963
16.9768
20.1868
24.1507
29.0368
35.1363
42.6649
51.8829
62.5906
75.7393
90.1082
108.073
124.102
142.954
143.718
118.433
47.2356
8.32378
8.60849
9.4258
10.7075
12.3479
14.3918
16.9695
20.1755
24.1313
28.995
35.0469
42.5277
51.7473
62.4434
75.4944
89.6669
107.205
122.647
140.253
140.187
112.552
45.0958
8.32286
8.60746
9.42441
10.7052
12.3446
14.387
16.9617
20.1634
24.1115
28.9556
34.9607
42.376
51.5711
62.2675
75.2292
89.202
106.297
121.131
137.464
136.565
106.7
42.8757
8.32188
8.60636
9.42293
10.7028
12.3412
14.382
16.9535
20.1505
24.0908
28.9176
34.8794
42.218
51.3526
62.0502
74.9365
88.711
105.347
119.552
134.587
132.851
100.891
40.5529
8.32083
8.60519
9.42135
10.7002
12.3376
14.3766
16.9447
20.1368
24.069
28.8799
34.803
42.0615
51.0985
61.7784
74.6037
88.1892
104.355
117.907
131.623
129.045
95.1407
38.108
8.31972
8.60394
9.41967
10.6975
12.3337
14.3708
16.9354
20.1222
24.0459
28.8414
34.7303
41.912
50.8228
61.4444
74.2146
87.6287
103.316
116.197
128.571
125.146
89.4621
35.5256
8.31854
8.60262
9.41787
10.6946
12.3296
14.3647
16.9255
20.1066
24.0213
28.8015
34.6592
41.7714
50.5419
61.0518
73.7509
87.0176
102.228
114.418
125.434
121.155
83.8696
32.7957
8.31727
8.6012
9.41596
10.6916
12.3252
14.3582
16.9149
20.0901
23.9951
28.7596
34.5878
41.6384
50.2696
60.6168
73.2001
86.3391
101.084
112.57
122.214
117.076
78.3767
29.9137
8.31592
8.59969
9.41391
10.6883
12.3205
14.3512
16.9037
20.0724
23.9672
28.7153
34.5144
41.5097
50.0127
60.1634
72.5633
85.5751
99.874
110.652
118.912
112.91
72.9957
26.8815
8.31449
8.59807
9.41173
10.6848
12.3155
14.3438
16.8918
20.0537
23.9375
28.6683
34.4377
41.3815
49.7707
59.7146
71.8594
84.7119
98.585
108.66
115.532
108.662
67.7385
23.7076
8.31295
8.59635
9.4094
10.6811
12.3102
14.3359
16.879
20.0337
23.9059
28.6183
34.3571
41.2503
49.5383
59.2839
71.1203
83.7488
97.2039
106.594
112.082
104.34
62.6161
20.4063
8.31131
8.59451
9.40692
10.6772
12.3045
14.3274
16.8655
20.0124
23.8723
28.5652
34.2717
41.1136
49.3082
58.8734
70.3785
82.7015
95.7218
104.454
108.571
99.952
57.6394
16.9978
8.30956
8.59254
9.40426
10.673
12.2985
14.3184
16.8511
19.9897
23.8365
28.5087
34.1812
40.9698
49.0736
58.4756
69.655
81.5997
94.1398
102.241
105.016
95.5113
52.8196
13.5075
8.30769
8.59044
9.40142
10.6685
12.292
14.3087
16.8357
19.9656
23.7984
28.4486
34.0852
40.8179
48.8296
58.0791
68.9538
80.4753
92.4714
99.9607
101.436
91.036
48.1695
9.96465
8.3057
8.58819
9.39838
10.6638
12.2851
14.2984
16.8193
19.9398
23.7578
28.3847
33.9832
40.6571
48.573
57.6729
68.2645
79.3502
90.7393
97.6237
97.8619
86.551
43.7039
6.40239
8.30356
8.58579
9.39514
10.6587
12.2777
14.2874
16.8018
19.9124
23.7146
28.3167
33.8748
40.4866
48.3022
57.2492
67.5701
78.2297
88.967
95.2397
94.3237
82.0887
39.4406
2.85679
8.30128
8.58322
9.39166
10.6533
12.2698
14.2757
16.7831
19.8831
23.6686
28.2443
33.7598
40.3058
48.0161
56.8032
66.8543
77.1037
87.1709
92.8144
90.8492
77.6879
35.4
-0.633435
8.29884
8.58048
9.38795
10.6476
12.2614
14.2631
16.7633
19.8519
23.6196
28.1673
33.6376
40.114
47.7136
56.333
66.1061
75.9546
85.3556
90.3451
87.4521
73.3901
31.6038
-4.0276
8.29623
8.57754
9.38397
10.6414
12.2525
14.2497
16.742
19.8186
23.5673
28.0853
33.5078
39.9106
47.3937
55.8372
65.3197
74.7648
83.5143
87.8236
84.1219
69.2309
28.0725
-7.28408
8.29343
8.57439
9.37972
10.6349
12.2428
14.2354
16.7194
19.7832
23.5117
27.9981
33.3699
39.6949
47.0553
55.3143
64.4936
73.5224
81.6316
85.2426
80.823
65.229
24.8204
-10.362
8.29044
8.57102
9.37516
10.6279
12.2326
14.22
16.6952
19.7453
23.4523
27.9052
33.2234
39.4663
46.6976
54.7631
63.6274
72.2227
79.6909
82.5993
77.5084
61.3745
21.8492
-13.2241
8.28724
8.56741
9.37028
10.6204
12.2216
14.2036
16.6694
19.7049
23.3891
27.8064
33.0679
39.2239
46.3194
54.1822
62.7206
70.8657
77.6815
79.8914
74.1422
57.6277
19.1407
-15.8399
8.28381
8.56354
9.36506
10.6124
12.2099
14.186
16.6419
19.6618
23.3218
27.7012
32.9028
38.9671
45.9199
53.5703
61.7721
69.4531
75.6017
77.1159
70.7128
53.9335
16.6518