/*--------------------------------*- C++ -*----------------------------------*\
| =========                 |                                                 |
| \\      /  F ield         | OpenFOAM: The Open Source CFD Toolbox           |
|  \\    /   O peration     | Version:  v1912                                 |
|   \\  /    A nd           | Website:  www.openfoam.com                      |
|    \\/     M anipulation  |                                                 |
\*---------------------------------------------------------------------------*/
FoamFile
{
    version     2.0;
    format      ascii;
    class       surfaceScalarField;
    location    "190";
    object      phi;
}
// * * * * * * * * * * * * * * * * * * * * * * * * * * * * * * * * * * * * * //

dimensions      [0 3 -1 0 0 0 0];
oriented        oriented;


internalField   nonuniform List<scalar> 
24588
(
6.8169e-05
1.89561e-08
6.81177e-05
5.18378e-08
6.80357e-05
8.04368e-08
6.79252e-05
1.10515e-07
6.77806e-05
1.44572e-07
6.75963e-05
1.84804e-07
6.73666e-05
2.29147e-07
6.70769e-05
2.89317e-07
6.67154e-05
3.62137e-07
6.62639e-05
4.50874e-07
6.57108e-05
5.54325e-07
6.50356e-05
6.99549e-07
6.40718e-05
8.83786e-07
6.29737e-05
1.16638e-06
6.15436e-05
1.45275e-06
5.92297e-05
2.27705e-06
5.64035e-05
2.82914e-06
5.17818e-05
4.62134e-06
4.52526e-05
6.5294e-06
3.41521e-05
1.11004e-05
2.03735e-05
1.37786e-05
2.03735e-05
6.81692e-05
3.84904e-08
6.81175e-05
1.04216e-07
6.80363e-05
1.59602e-07
6.79258e-05
2.21028e-07
6.77804e-05
2.89889e-07
6.75963e-05
3.69503e-07
6.73673e-05
4.5744e-07
6.70776e-05
5.78697e-07
6.67158e-05
7.24589e-07
6.6263e-05
9.03008e-07
6.57113e-05
1.1075e-06
6.5041e-05
1.39746e-06
6.40575e-05
1.78001e-06
6.29826e-05
2.30672e-06
6.15528e-05
2.90575e-06
5.92887e-05
4.50632e-06
5.64115e-05
5.71142e-06
5.17466e-05
9.28582e-06
4.52931e-05
1.29832e-05
3.40542e-05
2.23393e-05
2.03274e-05
2.75053e-05
4.0701e-05
6.81692e-05
5.80133e-08
6.81175e-05
1.56612e-07
6.80362e-05
2.38911e-07
6.79257e-05
3.31506e-07
6.77804e-05
4.35165e-07
6.75963e-05
5.54177e-07
6.73673e-05
6.85778e-07
6.70776e-05
8.68024e-07
6.67158e-05
1.0871e-06
6.62631e-05
1.35496e-06
6.57111e-05
1.66088e-06
6.50414e-05
2.09583e-06
6.40543e-05
2.67377e-06
6.29758e-05
3.46625e-06
6.15449e-05
4.36207e-06
5.93173e-05
6.69164e-06
5.6407e-05
8.62809e-06
5.17652e-05
1.39269e-05
4.52644e-05
1.94845e-05
3.40693e-05
3.35342e-05
2.03446e-05
4.12299e-05
6.10457e-05
6.81692e-05
7.75484e-08
6.81175e-05
2.08934e-07
6.80363e-05
3.18017e-07
6.79258e-05
4.42017e-07
6.77805e-05
5.80469e-07
6.75964e-05
7.38844e-07
6.73674e-05
9.14091e-07
6.70776e-05
1.15744e-06
6.67158e-05
1.4496e-06
6.62629e-05
1.80717e-06
6.57109e-05
2.2144e-06
6.504e-05
2.79435e-06
6.40589e-05
3.56886e-06
6.29813e-05
4.60642e-06
6.15443e-05
5.82087e-06
5.93387e-05
8.86416e-06
5.64311e-05
1.15415e-05
5.17801e-05
1.85774e-05
4.52497e-05
2.60154e-05
3.40936e-05
4.46904e-05
2.03758e-05
5.49476e-05
8.14216e-05
6.81692e-05
9.70571e-08
6.81175e-05
2.61267e-07
6.80363e-05
3.9732e-07
6.79258e-05
5.52497e-07
6.77805e-05
7.25728e-07
6.75964e-05
9.23468e-07
6.73674e-05
1.14244e-06
6.70776e-05
1.4468e-06
6.67158e-05
1.81213e-06
6.62632e-05
2.259e-06
6.57113e-05
2.7678e-06
6.50417e-05
3.49209e-06
6.40565e-05
4.45958e-06
6.29752e-05
5.76963e-06
6.15382e-05
7.2836e-06
5.93453e-05
1.10146e-05
5.64557e-05
1.44375e-05
5.17806e-05
2.32516e-05
4.52661e-05
3.25305e-05
3.41357e-05
5.58206e-05
2.04219e-05
6.86613e-05
0.000101844
6.81692e-05
1.16588e-07
6.81176e-05
3.13515e-07
6.80364e-05
4.76333e-07
6.79259e-05
6.63015e-07
6.77806e-05
8.71027e-07
6.75965e-05
1.10809e-06
6.73675e-05
1.37075e-06
6.70777e-05
1.73625e-06
6.67159e-05
2.17464e-06
6.6263e-05
2.71121e-06
6.57108e-05
3.32159e-06
6.50389e-05
4.19123e-06
6.40607e-05
5.35484e-06
6.29814e-05
6.90714e-06
6.15386e-05
8.74625e-06
5.93485e-05
1.31732e-05
5.64742e-05
1.73174e-05
5.17903e-05
2.79352e-05
4.52959e-05
3.90254e-05
3.41976e-05
6.69189e-05
2.04847e-05
8.23741e-05
0.000122328
6.81692e-05
1.36087e-07
6.81176e-05
3.65777e-07
6.80363e-05
5.55582e-07
6.79258e-05
7.73488e-07
6.77806e-05
1.01627e-06
6.75965e-05
1.29266e-06
6.73675e-05
1.59909e-06
6.70777e-05
2.02564e-06
6.67159e-05
2.53713e-06
6.62635e-05
3.16287e-06
6.57116e-05
3.87499e-06
6.50417e-05
4.88846e-06
6.40579e-05
6.24444e-06
6.29748e-05
8.07475e-06
6.15327e-05
1.02129e-05
5.93413e-05
1.53232e-05
5.64908e-05
2.01732e-05
5.18068e-05
3.26184e-05
4.53386e-05
4.54942e-05
3.42841e-05
7.79732e-05
2.05662e-05
9.60918e-05
0.000142895
6.81692e-05
1.55614e-07
6.81176e-05
4.17947e-07
6.80365e-05
6.34495e-07
6.7926e-05
8.84011e-07
6.77807e-05
1.16156e-06
6.75966e-05
1.47725e-06
6.73676e-05
1.82738e-06
6.70778e-05
2.31512e-06
6.67161e-05
2.89961e-06
6.62632e-05
3.61507e-06
6.57106e-05
4.42915e-06
6.50376e-05
5.58845e-06
6.40623e-05
7.14143e-06
6.29815e-05
9.20926e-06
6.15255e-05
1.16852e-05
5.93322e-05
1.74885e-05
5.65095e-05
2.30002e-05
5.1842e-05
3.72857e-05
4.54027e-05
5.19339e-05
3.44023e-05
8.89735e-05
2.06695e-05
0.000109825
0.000163564
6.81692e-05
1.751e-07
6.81176e-05
4.7014e-07
6.80364e-05
7.13708e-07
6.79259e-05
9.9448e-07
6.77806e-05
1.30678e-06
6.75966e-05
1.66176e-06
6.73676e-05
2.0557e-06
6.70778e-05
2.60452e-06
6.67161e-05
3.26206e-06
6.6264e-05
4.06649e-06
6.57124e-05
4.98218e-06
6.50429e-05
6.28405e-06
6.4059e-05
8.02994e-06
6.2967e-05
1.03856e-05
6.14963e-05
1.31774e-05
5.93266e-05
1.96288e-05
5.65038e-05
2.58255e-05
5.19086e-05
4.18803e-05
4.54964e-05
5.83462e-05
3.45589e-05
9.99109e-05
2.07977e-05
0.000123586
0.000184362
6.81692e-05
1.94619e-07
6.81177e-05
5.22233e-07
6.80366e-05
7.92541e-07
6.7926e-05
1.10501e-06
6.77807e-05
1.45206e-06
6.75967e-05
1.8463e-06
6.73677e-05
2.28397e-06
6.70779e-05
2.89401e-06
6.67163e-05
3.62444e-06
6.62634e-05
4.51869e-06
6.57105e-05
5.53673e-06
6.5035e-05
6.98588e-06
6.40577e-05
8.93691e-06
6.29581e-05
1.15338e-05
6.14649e-05
1.46769e-05
5.93347e-05
2.17446e-05
5.64777e-05
2.86849e-05
5.2e-05
4.63581e-05
4.5621e-05
6.47255e-05
3.47559e-05
0.000110776
2.09533e-05
0.000137388
0.000205315
6.81692e-05
2.14092e-07
6.81176e-05
5.74358e-07
6.80364e-05
8.7173e-07
6.79259e-05
1.21547e-06
6.77807e-05
1.59726e-06
6.75967e-05
2.03076e-06
6.73677e-05
2.51229e-06
6.70779e-05
3.18341e-06
6.67164e-05
3.98673e-06
6.62643e-05
4.97008e-06
6.57132e-05
6.08926e-06
6.50429e-05
7.68069e-06
6.4062e-05
9.8267e-06
6.29427e-05
1.27248e-05
6.14329e-05
1.61991e-05
5.93353e-05
2.38286e-05
5.64513e-05
3.15696e-05
5.21032e-05
5.07057e-05
4.5767e-05
7.10617e-05
3.49879e-05
0.000121555
2.11372e-05
0.000151239
0.000226453
6.81692e-05
2.33599e-07
6.81177e-05
6.26375e-07
6.80366e-05
9.50508e-07
6.79261e-05
1.326e-06
6.77808e-05
1.74252e-06
6.75968e-05
2.21524e-06
6.73678e-05
2.74054e-06
6.7078e-05
3.47291e-06
6.67167e-05
4.34887e-06
6.62637e-05
5.42243e-06
6.57108e-05
6.6437e-06
6.50283e-05
8.38738e-06
6.40583e-05
1.07411e-05
6.29384e-05
1.38743e-05
6.1403e-05
1.77328e-05
5.93301e-05
2.58978e-05
5.64379e-05
3.44629e-05
5.22028e-05
5.49409e-05
4.59192e-05
7.73455e-05
3.52444e-05
0.00013223
2.13484e-05
0.000165135
0.000247801
6.81692e-05
2.53052e-07
6.81176e-05
6.78438e-07
6.80365e-05
1.02972e-06
6.7926e-05
1.43646e-06
6.77808e-05
1.88769e-06
6.75968e-05
2.39963e-06
6.73678e-05
2.96885e-06
6.70781e-05
3.7623e-06
6.67169e-05
4.71077e-06
6.62643e-05
5.87432e-06
6.57112e-05
7.19818e-06
6.50257e-05
9.09427e-06
6.4062e-05
1.16325e-05
6.29281e-05
1.50443e-05
6.1376e-05
1.92928e-05
5.93235e-05
2.79449e-05
5.64361e-05
3.73502e-05
5.22869e-05
5.90899e-05
4.60653e-05
8.35671e-05
3.55138e-05
0.000142781
2.15843e-05
0.000179064
0.000269386
6.81692e-05
2.72544e-07
6.81177e-05
7.30381e-07
6.80367e-05
1.10847e-06
6.79262e-05
1.547e-06
6.77809e-05
2.03294e-06
6.75969e-05
2.58406e-06
6.73679e-05
3.1971e-06
6.70781e-05
4.05181e-06
6.67172e-05
5.07247e-06
6.62641e-05
6.32683e-06
6.5706e-05
7.75769e-06
6.50004e-05
9.8189e-06
6.40584e-05
1.25494e-05
6.29159e-05
1.6193e-05
6.13554e-05
2.08494e-05
5.93179e-05
2.99823e-05
5.64397e-05
4.0229e-05
5.2353e-05
6.31768e-05
4.61993e-05
8.97209e-05
3.57872e-05
0.000153193
2.18413e-05
0.00019301
0.000291227
6.81692e-05
2.91975e-07
6.81177e-05
7.82382e-07
6.80365e-05
1.18771e-06
6.7926e-05
1.65746e-06
6.77808e-05
2.17808e-06
6.75969e-05
2.76838e-06
6.73679e-05
3.42542e-06
6.70782e-05
4.3412e-06
6.67177e-05
5.43373e-06
6.62648e-05
6.77902e-06
6.5703e-05
8.32067e-06
6.49871e-05
1.05501e-05
6.40631e-05
1.34389e-05
6.29031e-05
1.73697e-05
6.13409e-05
2.24168e-05
5.93132e-05
3.20072e-05
5.64442e-05
4.30979e-05
5.24042e-05
6.72165e-05
4.63198e-05
9.58053e-05
3.6059e-05
0.000163454
2.21158e-05
0.000206953
0.000313343
6.81692e-05
3.11448e-07
6.81178e-05
8.34251e-07
6.80367e-05
1.26645e-06
6.79262e-05
1.768e-06
6.7781e-05
2.3233e-06
6.7597e-05
2.95274e-06
6.73681e-05
3.65367e-06
6.70782e-05
4.63072e-06
6.67181e-05
5.7947e-06
6.62658e-05
7.23073e-06
6.56978e-05
8.89e-06
6.49771e-05
1.12822e-05
6.40605e-05
1.43532e-05
6.28928e-05
1.85355e-05
6.13309e-05
2.39748e-05
5.93091e-05
3.40297e-05
5.64477e-05
4.59597e-05
5.24446e-05
7.12196e-05
4.64279e-05
0.000101822
3.63261e-05
0.000173556
2.24049e-05
0.000220874
0.000335748
6.81692e-05
3.30853e-07
6.81177e-05
8.86194e-07
6.80365e-05
1.34575e-06
6.7926e-05
1.87845e-06
6.77809e-05
2.4684e-06
6.7597e-05
3.13699e-06
6.7368e-05
3.88199e-06
6.70783e-05
4.92012e-06
6.67185e-05
6.1552e-06
6.62674e-05
7.68122e-06
6.56896e-05
9.4689e-06
6.49759e-05
1.20027e-05
6.40564e-05
1.52553e-05
6.28845e-05
1.97164e-05
6.13237e-05
2.55399e-05
5.93054e-05
3.60461e-05
5.64498e-05
4.8815e-05
5.24777e-05
7.51916e-05
4.65257e-05
0.000107774
3.65875e-05
0.000183494
2.27058e-05
0.000234756
0.000358454
6.81692e-05
3.50304e-07
6.81178e-05
9.37991e-07
6.80368e-05
1.42451e-06
6.79262e-05
1.989e-06
6.7781e-05
2.61359e-06
6.75972e-05
3.32128e-06
6.73682e-05
4.11023e-06
6.70784e-05
5.20959e-06
6.67188e-05
6.51562e-06
6.62688e-05
8.13065e-06
6.56804e-05
1.00585e-05
6.49746e-05
1.27124e-05
6.40509e-05
1.61829e-05
6.28782e-05
2.08852e-05
6.13184e-05
2.70963e-05
5.9302e-05
3.80635e-05
5.6451e-05
5.16663e-05
5.25063e-05
7.91364e-05
4.66156e-05
0.000113665
3.68433e-05
0.000193266
2.3017e-05
0.000248582
0.000381471
6.81692e-05
3.69683e-07
6.81177e-05
9.89877e-07
6.80365e-05
1.50388e-06
6.7926e-05
2.09945e-06
6.77809e-05
2.75866e-06
6.75971e-05
3.50545e-06
6.73682e-05
4.33856e-06
6.70786e-05
5.49886e-06
6.67191e-05
6.87586e-06
6.62694e-05
8.57961e-06
6.5674e-05
1.06548e-05
6.49723e-05
1.34158e-05
6.40462e-05
1.70987e-05
6.28732e-05
2.20649e-05
6.13145e-05
2.86587e-05
5.92989e-05
4.00775e-05
5.64516e-05
5.45134e-05
5.25326e-05
8.30552e-05
4.67002e-05
0.000119497
3.70946e-05
0.000202872
2.33374e-05
0.000262339
0.000404808
6.81692e-05
3.8911e-07
6.81178e-05
1.0416e-06
6.80368e-05
1.58266e-06
6.79263e-05
2.21001e-06
6.77811e-05
2.90382e-06
6.75973e-05
3.68967e-06
6.73683e-05
4.56679e-06
6.70787e-05
5.78821e-06
6.67191e-05
7.23623e-06
6.62663e-05
9.03188e-06
6.56724e-05
1.12495e-05
6.49688e-05
1.41207e-05
6.4042e-05
1.80308e-05
6.28693e-05
2.32336e-05
6.13115e-05
3.02134e-05
5.92964e-05
4.20936e-05
5.64523e-05
5.73577e-05
5.25584e-05
8.69492e-05
4.67817e-05
0.000125274
3.73427e-05
0.000212311
2.36664e-05
0.000276016
0.000428475
6.81692e-05
4.08461e-07
6.81177e-05
1.09343e-06
6.80365e-05
1.66212e-06
6.7926e-05
2.32045e-06
6.7781e-05
3.04884e-06
6.75972e-05
3.87377e-06
6.73683e-05
4.79507e-06
6.70788e-05
6.07743e-06
6.67193e-05
7.59646e-06
6.62585e-05
9.49192e-06
6.56753e-05
1.18332e-05
6.49654e-05
1.4831e-05
6.40387e-05
1.89496e-05
6.28661e-05
2.44116e-05
6.13094e-05
3.17733e-05
5.92944e-05
4.41072e-05
5.64536e-05
6.01983e-05
5.25851e-05
9.08176e-05
4.68621e-05
0.000130997
3.75897e-05
0.000221583
2.40042e-05
0.000289601
0.000452479
6.81692e-05
4.27862e-07
6.81179e-05
1.14509e-06
6.80368e-05
1.74093e-06
6.79263e-05
2.43101e-06
6.77812e-05
3.19396e-06
6.75974e-05
4.05793e-06
6.73686e-05
5.02322e-06
6.70789e-05
6.36686e-06
6.67194e-05
7.95663e-06
6.62497e-05
9.96114e-06
6.56789e-05
1.24043e-05
6.49622e-05
1.55483e-05
6.40359e-05
1.9881e-05
6.28636e-05
2.558e-05
6.13079e-05
3.33261e-05
5.92934e-05
4.61226e-05
5.64561e-05
6.30358e-05
5.26137e-05
9.46602e-05
4.69429e-05
0.000136668
3.78373e-05
0.000230689
2.43511e-05
0.000303087
0.00047683
6.81692e-05
4.47184e-07
6.81178e-05
1.19687e-06
6.80365e-05
1.82046e-06
6.79261e-05
2.54145e-06
6.77811e-05
3.33894e-06
6.75973e-05
4.24196e-06
6.73686e-05
5.2514e-06
6.70789e-05
6.65622e-06
6.67199e-05
8.31632e-06
6.62431e-05
1.04373e-05
6.56809e-05
1.29666e-05
6.49595e-05
1.62698e-05
6.40336e-05
2.08004e-05
6.28616e-05
2.67568e-05
6.13072e-05
3.48835e-05
5.92934e-05
4.81353e-05
5.64603e-05
6.58688e-05
5.26448e-05
9.84755e-05
4.70255e-05
0.000142287
3.80879e-05
0.000239626
2.4708e-05
0.000316467
0.000501538
6.81692e-05
4.66559e-07
6.81179e-05
1.24845e-06
6.80369e-05
1.89932e-06
6.79263e-05
2.65202e-06
6.77812e-05
3.48402e-06
6.75975e-05
4.42605e-06
6.73688e-05
5.47944e-06
6.7079e-05
6.94575e-06
6.67202e-05
8.67581e-06
6.6239e-05
1.09179e-05
6.56811e-05
1.35246e-05
6.49572e-05
1.6994e-05
6.40317e-05
2.1731e-05
6.28601e-05
2.79246e-05
6.13072e-05
3.64338e-05
5.92948e-05
5.01485e-05
5.64665e-05
6.86973e-05
5.26787e-05
0.000102263
4.71107e-05
0.000147855
3.83434e-05
0.000248394
2.5076e-05
0.000329734
0.000526614
6.81692e-05
4.85851e-07
6.81178e-05
1.30018e-06
6.80365e-05
1.97895e-06
6.79261e-05
2.76245e-06
6.77811e-05
3.62895e-06
6.75975e-05
4.61001e-06
6.73688e-05
5.70754e-06
6.70791e-05
7.2351e-06
6.67206e-05
9.03499e-06
6.62368e-05
1.14012e-05
6.56805e-05
1.40809e-05
6.49553e-05
1.77192e-05
6.40301e-05
2.26504e-05
6.28591e-05
2.91001e-05
6.13079e-05
3.79877e-05
5.92978e-05
5.21575e-05
5.6475e-05
7.152e-05
5.27157e-05
0.000106023
4.71992e-05
0.000153372
3.8606e-05
0.000256987
2.54563e-05
0.000342884
0.00055207
6.81692e-05
5.05198e-07
6.81179e-05
1.35169e-06
6.80369e-05
2.05785e-06
6.79264e-05
2.87302e-06
6.77813e-05
3.77398e-06
6.75976e-05
4.79402e-06
6.7369e-05
5.93553e-06
6.70794e-05
7.5245e-06
6.67195e-05
9.39554e-06
6.62363e-05
1.18839e-05
6.56796e-05
1.46376e-05
6.49537e-05
1.84454e-05
6.40288e-05
2.35801e-05
6.28585e-05
3.02667e-05
6.13095e-05
3.95342e-05
5.93024e-05
5.41654e-05
5.6486e-05
7.43366e-05
5.27555e-05
0.000109753
4.72915e-05
0.000158836
3.88778e-05
0.000265401
2.58505e-05
0.000355911
0.000577921
6.81693e-05
5.24462e-07
6.81178e-05
1.40337e-06
6.80366e-05
2.13756e-06
6.79261e-05
2.98344e-06
6.77812e-05
3.91886e-06
6.75976e-05
4.97788e-06
6.7369e-05
6.16361e-06
6.70796e-05
7.8136e-06
6.67148e-05
9.76092e-06
6.62394e-05
1.2359e-05
6.56786e-05
1.51983e-05
6.49524e-05
1.91717e-05
6.40278e-05
2.44993e-05
6.28584e-05
3.14404e-05
6.13118e-05
4.10836e-05
5.93087e-05
5.61673e-05
5.64995e-05
7.71456e-05
5.27982e-05
0.000113454
4.73877e-05
0.000164246
3.91608e-05
0.000273627
2.62601e-05
0.000368812
0.000604181
6.81692e-05
5.43782e-07
6.8118e-05
1.45481e-06
6.80369e-05
2.2165e-06
6.79264e-05
3.094e-06
6.77814e-05
4.06385e-06
6.75978e-05
5.1618e-06
6.73692e-05
6.39159e-06
6.70799e-05
8.10268e-06
6.67079e-05
1.01335e-05
6.62442e-05
1.28225e-05
6.56778e-05
1.57648e-05
6.49512e-05
1.98985e-05
6.4027e-05
2.5428e-05
6.28586e-05
3.26051e-05
6.13149e-05
4.26248e-05
5.93166e-05
5.81664e-05
5.65155e-05
7.9947e-05
5.28435e-05
0.000117126
4.74878e-05
0.000169602
3.94566e-05
0.000281659
2.66865e-05
0.000381582
0.000630868
6.81693e-05
5.63017e-07
6.81178e-05
1.50644e-06
6.80366e-05
2.29631e-06
6.79261e-05
3.20442e-06
6.77813e-05
4.20869e-06
6.75977e-05
5.34555e-06
6.73692e-05
6.61966e-06
6.70801e-05
8.39145e-06
6.67027e-05
1.05115e-05
6.62479e-05
1.32771e-05
6.5677e-05
1.63357e-05
6.49503e-05
2.06252e-05
6.40264e-05
2.63468e-05
6.28593e-05
3.37764e-05
6.13188e-05
4.41681e-05
5.9326e-05
6.0158e-05
5.65339e-05
8.2739e-05
5.28915e-05
0.000120769
4.75919e-05
0.000174902
3.97663e-05
0.000289484
2.71313e-05
0.000394217
0.000657999
6.81692e-05
5.8231e-07
6.8118e-05
1.55781e-06
6.8037e-05
2.37529e-06
6.79264e-05
3.31498e-06
6.77815e-05
4.35363e-06
6.7598e-05
5.52936e-06
6.73694e-05
6.84761e-06
6.70804e-05
8.68019e-06
6.66993e-05
1.08933e-05
6.62501e-05
1.37262e-05
6.56763e-05
1.69095e-05
6.49494e-05
2.13523e-05
6.40261e-05
2.72746e-05
6.28604e-05
3.49384e-05
6.13234e-05
4.57025e-05
5.93369e-05
6.21453e-05
5.65548e-05
8.55213e-05
5.2942e-05
0.000124382
4.76995e-05
0.000180144
4.0091e-05
0.000297093
2.75957e-05
0.000406712
0.000685595
6.81693e-05
6.01518e-07
6.81178e-05
1.60939e-06
6.80366e-05
2.45518e-06
6.79261e-05
3.42538e-06
6.77813e-05
4.49841e-06
6.75979e-05
5.71301e-06
6.73694e-05
7.07563e-06
6.70807e-05
8.96866e-06
6.66973e-05
1.12772e-05
6.62516e-05
1.41718e-05
6.56757e-05
1.74854e-05
6.49488e-05
2.20792e-05
6.40259e-05
2.81926e-05
6.28619e-05
3.61067e-05
6.13287e-05
4.72386e-05
5.93491e-05
6.41238e-05
5.6578e-05
8.82923e-05
5.2995e-05
0.000127964
4.78106e-05
0.000185329
4.04307e-05
0.000304473
2.80805e-05
0.000419062
0.000713675
6.81692e-05
6.20785e-07
6.8118e-05
1.6607e-06
6.8037e-05
2.53419e-06
6.79265e-05
3.53593e-06
6.77816e-05
4.64331e-06
6.75981e-05
5.89673e-06
6.73697e-05
7.30351e-06
6.7081e-05
9.25716e-06
6.66961e-05
1.16626e-05
6.62526e-05
1.46153e-05
6.56753e-05
1.80627e-05
6.49483e-05
2.28064e-05
6.4026e-05
2.91192e-05
6.28638e-05
3.72652e-05
6.13346e-05
4.87651e-05
5.93624e-05
6.60968e-05
5.66035e-05
9.10514e-05
5.30506e-05
0.000131517
4.79248e-05
0.000190454
4.07853e-05
0.000311612
2.85863e-05
0.000431261
0.000742261
6.81693e-05
6.39966e-07
6.81178e-05
1.71223e-06
6.80366e-05
2.61417e-06
6.79261e-05
3.64632e-06
6.77814e-05
4.78803e-06
6.75981e-05
6.08028e-06
6.73697e-05
7.53142e-06
6.70811e-05
9.54549e-06
6.66954e-05
1.20489e-05
6.62533e-05
1.50573e-05
6.56749e-05
1.8641e-05
6.49479e-05
2.35334e-05
6.40262e-05
3.00361e-05
6.28659e-05
3.84299e-05
6.13411e-05
5.02928e-05
5.9377e-05
6.80598e-05
5.66314e-05
9.37969e-05
5.31088e-05
0.00013504
4.8042e-05
0.000195521
4.11546e-05
0.0003185
2.91134e-05
0.000443303
0.000771375
6.81692e-05
6.59207e-07
6.81181e-05
1.76347e-06
6.80371e-05
2.69321e-06
6.79265e-05
3.75686e-06
6.77817e-05
4.93287e-06
6.75983e-05
6.26392e-06
6.737e-05
7.75916e-06
6.70814e-05
9.83392e-06
6.66951e-05
1.24356e-05
6.62538e-05
1.54986e-05
6.56746e-05
1.92202e-05
6.49476e-05
2.42606e-05
6.40267e-05
3.09612e-05
6.28685e-05
3.95843e-05
6.13482e-05
5.18105e-05
5.93926e-05
7.00162e-05
5.66615e-05
9.65283e-05
5.31696e-05
0.000138532
4.81622e-05
0.000200529
4.15379e-05
0.000325124
2.9662e-05
0.000455178
0.000801037
6.81693e-05
6.78363e-07
6.81179e-05
1.81497e-06
6.80366e-05
2.77326e-06
6.79262e-05
3.86723e-06
6.77815e-05
5.07752e-06
6.75983e-05
6.44739e-06
6.73701e-05
7.98689e-06
6.70815e-05
1.01223e-05
6.6695e-05
1.28226e-05
6.62543e-05
1.59392e-05
6.56745e-05
1.98001e-05
6.49475e-05
2.49875e-05
6.40273e-05
3.18769e-05
6.28713e-05
4.07449e-05
6.13557e-05
5.33289e-05
5.94093e-05
7.19614e-05
5.66938e-05
9.92437e-05
5.32331e-05
0.000141992
4.82854e-05
0.000205476
4.19347e-05
0.000331475
3.02322e-05
0.000466881
0.000831269
6.81692e-05
6.97581e-07
6.81181e-05
1.86613e-06
6.80371e-05
2.85232e-06
6.79266e-05
3.97777e-06
6.77818e-05
5.2223e-06
6.75985e-05
6.63095e-06
6.73705e-05
8.21441e-06
6.70814e-05
1.0411e-05
6.66952e-05
1.32092e-05
6.62548e-05
1.63796e-05
6.56743e-05
2.03805e-05
6.49475e-05
2.57146e-05
6.40281e-05
3.28003e-05
6.28744e-05
4.18947e-05
6.13638e-05
5.48369e-05
5.9427e-05
7.3899e-05
5.67283e-05
0.000101943
5.32995e-05
0.000145421
4.84119e-05
0.000210364
4.2345e-05
0.000337542
3.08241e-05
0.000478402
0.000862093
6.81693e-05
7.16716e-07
6.81179e-05
1.91758e-06
6.80366e-05
2.9324e-06
6.79262e-05
4.08811e-06
6.77816e-05
5.36689e-06
6.75984e-05
6.81434e-06
6.73706e-05
8.4419e-06
6.70792e-05
1.07021e-05
6.66975e-05
1.35913e-05
6.62552e-05
1.68219e-05
6.56743e-05
2.09614e-05
6.49476e-05
2.64413e-05
6.40291e-05
3.37143e-05
6.28778e-05
4.30507e-05
6.13723e-05
5.63453e-05
5.94457e-05
7.58244e-05
5.6765e-05
0.000104623
5.33688e-05
0.000148817
4.85421e-05
0.000215191
4.27686e-05
0.000343315
3.14379e-05
0.000489732
0.000893531
6.81693e-05
7.35914e-07
6.81181e-05
1.96868e-06
6.80372e-05
3.01144e-06
6.79267e-05
4.19863e-06
6.77819e-05
5.51161e-06
6.75987e-05
6.99781e-06
6.73709e-05
8.66923e-06
6.70715e-05
1.10012e-05
6.67048e-05
1.39582e-05
6.62556e-05
1.72711e-05
6.56743e-05
2.15427e-05
6.49477e-05
2.71681e-05
6.40302e-05
3.4636e-05
6.28815e-05
4.41953e-05
6.13814e-05
5.78427e-05
5.94654e-05
7.77412e-05
5.68037e-05
0.000107285
5.34412e-05
0.00015218
4.86761e-05
0.000219956
4.32061e-05
0.000348785
3.20743e-05
0.000500864
0.000925605
6.81693e-05
7.55031e-07
6.81179e-05
2.02008e-06
6.80367e-05
3.09156e-06
6.79263e-05
4.30895e-06
6.77818e-05
5.65614e-06
6.75987e-05
7.18106e-06
6.7371e-05
8.89657e-06
6.70648e-05
1.13071e-05
6.67111e-05
1.43118e-05
6.62559e-05
1.77263e-05
6.56744e-05
2.21242e-05
6.4948e-05
2.78944e-05
6.40315e-05
3.55479e-05
6.28855e-05
4.53461e-05
6.13909e-05
5.93404e-05
5.9486e-05
7.9645e-05
5.68443e-05
0.000109927
5.35168e-05
0.000155507
4.88142e-05
0.000224658
4.36575e-05
0.000353942
3.27338e-05
0.000511788
0.000958339
6.81693e-05
7.74209e-07
6.81182e-05
2.07111e-06
6.80372e-05
3.17059e-06
6.79268e-05
4.41944e-06
6.7782e-05
5.8008e-06
6.7599e-05
7.36439e-06
6.73712e-05
9.12384e-06
6.70623e-05
1.16159e-05
6.67136e-05
1.46605e-05
6.62562e-05
1.81837e-05
6.56745e-05
2.27058e-05
6.49484e-05
2.86208e-05
6.4033e-05
3.64677e-05
6.28898e-05
4.64848e-05
6.14009e-05
6.08263e-05
5.95075e-05
8.15393e-05
5.68868e-05
0.000112548
5.3596e-05
0.000158798
4.89562e-05
0.000229298
4.41227e-05
0.000358775
3.34168e-05
0.000522494
0.000991756
6.81693e-05
7.93311e-07
6.81179e-05
2.12246e-06
6.80367e-05
3.25067e-06
6.79264e-05
4.52973e-06
6.77819e-05
5.9453e-06
6.7599e-05
7.54744e-06
6.73701e-05
9.35239e-06
6.7062e-05
1.19237e-05
6.67144e-05
1.50081e-05
6.62564e-05
1.86417e-05
6.56747e-05
2.32875e-05
6.49489e-05
2.93465e-05
6.40346e-05
3.73765e-05
6.28943e-05
4.76306e-05
6.14114e-05
6.23131e-05
5.95299e-05
8.34196e-05
5.6931e-05
0.000115146
5.36788e-05
0.00016205
4.91016e-05
0.000233875
4.46001e-05
0.000363277
3.41228e-05
0.000532971
0.00102588
6.81693e-05
8.12462e-07
6.81182e-05
2.17346e-06
6.80372e-05
3.3298e-06
6.79268e-05
4.64017e-06
6.77821e-05
6.08997e-06
6.75994e-05
7.73033e-06
6.73626e-05
9.58881e-06
6.70671e-05
1.22191e-05
6.67147e-05
1.53606e-05
6.62566e-05
1.90998e-05
6.56749e-05
2.38692e-05
6.49495e-05
3.00722e-05
6.40364e-05
3.82943e-05
6.28992e-05
4.87629e-05
6.14225e-05
6.37864e-05
5.95533e-05
8.52896e-05
5.69768e-05
0.000117723
5.37657e-05
0.000165262
4.92499e-05
0.000238391
4.5085e-05
0.000367442
3.48486e-05
0.000543208
0.00106073
6.81693e-05
8.31546e-07
6.81179e-05
2.22479e-06
6.80367e-05
3.40998e-06
6.79264e-05
4.75041e-06
6.77819e-05
6.23449e-06
6.75996e-05
7.91278e-06
6.73547e-05
9.8334e-06
6.70726e-05
1.25011e-05
6.67147e-05
1.57185e-05
6.62567e-05
1.95578e-05
6.56751e-05
2.44508e-05
6.49501e-05
3.07971e-05
6.40383e-05
3.92005e-05
6.29043e-05
4.99025e-05
6.1434e-05
6.52606e-05
5.95775e-05
8.7145e-05
5.7024e-05
0.000120276
5.38568e-05
0.000168429
4.94003e-05
0.000242848
4.55677e-05
0.000371274
3.55861e-05
0.000553189
0.00109631
6.81692e-05
8.50623e-07
6.81183e-05
2.27555e-06
6.80375e-05
3.48876e-06
6.79272e-05
4.8608e-06
6.77824e-05
6.3792e-06
6.76001e-05
8.0953e-06
6.73521e-05
1.00809e-05
6.70743e-05
1.2779e-05
6.67146e-05
1.60782e-05
6.62567e-05
2.00156e-05
6.56753e-05
2.50322e-05
6.49508e-05
3.15218e-05
6.40404e-05
4.01158e-05
6.29096e-05
5.10284e-05
6.1446e-05
6.67209e-05
5.96026e-05
8.89893e-05
5.70722e-05
0.000122807
5.39534e-05
0.000171547
4.95519e-05
0.000247249
4.60445e-05
0.000374782
3.64144e-05
0.000562819
0.00113273
-8.22719e-06
8.22719e-06
-1.39977e-05
5.77052e-06
-1.42932e-05
2.95527e-07
-1.10376e-05
-3.25544e-06
-8.31002e-06
-2.72795e-06
-6.9086e-06
-1.40057e-06
-6.12256e-06
-7.85341e-07
-5.46243e-06
-6.58967e-07
-4.62007e-06
-8.33225e-07
-3.99793e-06
-6.14813e-07
-3.55088e-06
-4.34904e-07
-2.54438e-06
-1.04651e-06
-3.28696e-07
-2.23186e-06
3.41159e-06
-3.72655e-06
8.03406e-06
-4.61058e-06
1.26341e-05
-4.59462e-06
1.70538e-05
-4.41955e-06
2.14172e-05
-4.36373e-06
2.56281e-05
-4.21262e-06
2.95643e-05
-3.93593e-06
3.33563e-05
-3.7926e-06
3.72823e-05
-3.92591e-06
4.16175e-05
-4.33533e-06
4.64118e-05
-4.79438e-06
5.24982e-05
-6.0875e-06
5.94877e-05
-6.98881e-06
6.42776e-05
-4.78961e-06
6.60158e-05
-1.73811e-06
6.64705e-05
-4.54844e-07
6.67001e-05
-2.29653e-07
6.69304e-05
-2.30288e-07
6.714e-05
-2.09598e-07
6.73061e-05
-1.66111e-07
6.74428e-05
-1.36709e-07
-6.45129e-08
-8.078e-06
1.63052e-05
-1.37942e-05
1.14868e-05
-1.40881e-05
5.89397e-07
-1.08262e-05
-6.51686e-06
-8.14241e-06
-5.4125e-06
-6.78607e-06
-2.75527e-06
-6.04892e-06
-1.52113e-06
-5.42735e-06
-1.27819e-06
-4.56334e-06
-1.67995e-06
-3.84405e-06
-1.32e-06
-3.33519e-06
-9.28137e-07
-2.40788e-06
-2.04232e-06
-4.3158e-07
-4.23945e-06
3.08719e-06
-7.21821e-06
7.72215e-06
-9.222e-06
1.24649e-05
-9.32636e-06
1.69537e-05
-8.90807e-06
2.12932e-05
-8.70388e-06
2.54461e-05
-8.3688e-06
2.9326e-05
-7.81523e-06
3.30682e-05
-7.53596e-06
3.6936e-05
-7.79371e-06
4.12135e-05
-8.61306e-06
4.59936e-05
-9.57465e-06
5.21168e-05
-1.22127e-05
5.92307e-05
-1.41014e-05
6.4186e-05
-9.74431e-06
6.60043e-05
-3.55629e-06
6.64756e-05
-9.26445e-07
6.67034e-05
-4.57396e-07
6.69317e-05
-4.58643e-07
6.71411e-05
-4.18997e-07
6.73073e-05
-3.32318e-07
6.74439e-05
-2.73314e-07
-1.2903e-07
-7.92072e-06
2.42259e-05
-1.35575e-05
1.71236e-05
-1.3826e-05
8.57916e-07
-1.0567e-05
-9.7754e-06
-7.93638e-06
-8.04388e-06
-6.63271e-06
-4.05734e-06
-5.93631e-06
-2.21632e-06
-5.31876e-06
-1.89366e-06
-4.38785e-06
-2.59441e-06
-3.59182e-06
-2.10263e-06
-3.08238e-06
-1.42146e-06
-2.29574e-06
-2.89976e-06
-5.6909e-07
-5.99797e-06
2.80479e-06
-1.05649e-05
7.49143e-06
-1.38843e-05
1.2353e-05
-1.41761e-05
1.68951e-05
-1.34498e-05
2.12082e-05
-1.30177e-05
2.53071e-05
-1.2471e-05
2.91367e-05
-1.16442e-05
3.28329e-05
-1.12333e-05
3.66457e-05
-1.16065e-05
4.08664e-05
-1.2834e-05
4.56237e-05
-1.4332e-05
5.17667e-05
-1.83578e-05
5.89896e-05
-2.13229e-05
6.40994e-05
-1.48536e-05
6.59939e-05
-5.45079e-06
6.64812e-05
-1.4139e-06
6.67071e-05
-6.83285e-07
6.69334e-05
-6.8506e-07
6.71426e-05
-6.28144e-07
6.73088e-05
-4.98508e-07
6.74452e-05
-4.09719e-07
-1.93459e-07
-7.74173e-06
3.19676e-05
-1.32853e-05
2.26671e-05
-1.35014e-05
1.07408e-06
-1.02297e-05
-1.30466e-05
-7.66517e-06
-1.06091e-05
-6.42071e-06
-5.30005e-06
-5.76463e-06
-2.87103e-06
-5.14725e-06
-2.50858e-06
-4.15441e-06
-3.56969e-06
-3.29362e-06
-2.94874e-06
-2.79098e-06
-1.91666e-06
-2.14618e-06
-3.61347e-06
-6.53004e-07
-7.52728e-06
2.58894e-06
-1.37752e-05
7.3154e-06
-1.85821e-05
1.22843e-05
-1.91298e-05
1.68771e-05
-1.80421e-05
2.1164e-05
-1.73056e-05
2.52124e-05
-1.65236e-05
2.89978e-05
-1.54289e-05
3.26519e-05
-1.48886e-05
3.6412e-05
-1.53666e-05
4.05755e-05
-1.69978e-05
4.53004e-05
-1.9057e-05
5.14466e-05
-2.45061e-05
5.87622e-05
-2.86371e-05
6.40168e-05
-2.01076e-05
6.59845e-05
-7.41838e-06
6.64871e-05
-1.9167e-06
6.67112e-05
-9.07339e-07
6.69356e-05
-9.09565e-07
6.71445e-05
-8.36972e-07
6.73105e-05
-6.6458e-07
6.74466e-05
-5.4581e-07
-2.5772e-07
-7.54106e-06
3.95087e-05
-1.29722e-05
2.80983e-05
-1.31019e-05
1.20378e-06
-9.80375e-06
-1.63443e-05
-7.32284e-06
-1.30907e-05
-6.14648e-06
-6.47471e-06
-5.53337e-06
-3.48294e-06
-4.91457e-06
-3.12528e-06
-3.86626e-06
-4.60142e-06
-2.9456e-06
-3.85518e-06
-2.44714e-06
-2.41051e-06
-1.94181e-06
-4.18676e-06
-6.64763e-07
-8.8413e-06
2.46141e-06
-1.68698e-05
7.2195e-06
-2.33111e-05
1.2283e-05
-2.4177e-05
1.69215e-05
-2.26801e-05
2.11773e-05
-2.15624e-05
2.51735e-05
-2.05245e-05
2.89171e-05
-1.91718e-05
3.25297e-05
-1.85024e-05
3.62368e-05
-1.90736e-05
4.03411e-05
-2.11025e-05
4.50234e-05
-2.37394e-05
5.11551e-05
-3.064e-05
5.85475e-05
-3.60281e-05
6.39383e-05
-2.54978e-05
6.5976e-05
-9.45612e-06
6.64934e-05
-2.43431e-06
6.67157e-05
-1.12957e-06
6.69383e-05
-1.13216e-06
6.71467e-05
-1.04541e-06
6.73125e-05
-8.30428e-07
6.74482e-05
-6.81476e-07
-3.21734e-07
-7.31811e-06
4.68268e-05
-1.2612e-05
3.33922e-05
-1.26155e-05
1.20724e-06
-9.27909e-06
-1.968e-05
-6.90217e-06
-1.54684e-05
-5.80452e-06
-7.57043e-06
-5.23937e-06
-4.04665e-06
-4.61891e-06
-3.74301e-06
-3.52218e-06
-5.67954e-06
-2.54175e-06
-4.81946e-06
-2.03717e-06
-2.91925e-06
-1.66341e-06
-4.63198e-06
-5.82526e-07
-9.96602e-06
2.44733e-06
-1.98616e-05
7.23727e-06
-2.80659e-05
1.23891e-05
-2.93077e-05
1.70687e-05
-2.7359e-05
2.12823e-05
-2.57775e-05
2.52145e-05
-2.4463e-05
2.89098e-05
-2.28662e-05
3.24757e-05
-2.20698e-05
3.61252e-05
-2.2723e-05
4.01657e-05
-2.51432e-05
4.47942e-05
-2.83682e-05
5.08926e-05
-3.67407e-05
5.83447e-05
-4.34786e-05
6.38634e-05
-3.10159e-05
6.59684e-05
-1.15611e-05
6.65002e-05
-2.96626e-06
6.67207e-05
-1.35003e-06
6.69413e-05
-1.35288e-06
6.71493e-05
-1.2534e-06
6.73148e-05
-9.95947e-07
6.745e-05
-8.16603e-07
-3.85421e-07
-7.07192e-06
5.38987e-05
-1.21978e-05
3.85182e-05
-1.2032e-05
1.04131e-06
-8.64825e-06
-2.30631e-05
-6.39559e-06
-1.77218e-05
-5.3874e-06
-8.57673e-06
-4.87655e-06
-4.55629e-06
-4.25459e-06
-4.36261e-06
-3.1156e-06
-6.80079e-06
-2.07083e-06
-5.84781e-06
-1.54237e-06
-3.45676e-06
-1.28586e-06
-4.96087e-06
-3.7976e-07
-1.09187e-05
2.5737e-06
-2.27749e-05
7.40542e-06
-3.28616e-05
1.26539e-05
-3.45334e-05
1.73798e-05
-3.20842e-05
2.15366e-05
-2.99361e-05
2.53769e-05
-2.8311e-05
2.90019e-05
-2.64901e-05
3.25056e-05
-2.55751e-05
3.60872e-05
-2.63045e-05
4.00553e-05
-2.91116e-05
4.46174e-05
-3.29304e-05
5.06611e-05
-4.27868e-05
5.81539e-05
-5.09696e-05
6.37924e-05
-3.66539e-05
6.59618e-05
-1.37304e-05
6.65073e-05
-3.51201e-06
6.67261e-05
-1.56875e-06
6.69449e-05
-1.57173e-06
6.71524e-05
-1.46085e-06
6.73174e-05
-1.16102e-06
6.74519e-05
-9.51077e-07
-4.487e-07
-6.80127e-06
6.07e-05
-1.17227e-05
4.34396e-05
-1.13468e-05
6.65417e-07
-7.91201e-06
-2.64972e-05
-5.79824e-06
-1.98363e-05
-4.88738e-06
-9.48544e-06
-4.43677e-06
-5.00532e-06
-3.81283e-06
-4.98336e-06
-2.63535e-06
-7.95763e-06
-1.515e-06
-6.9492e-06
-9.35054e-07
-4.05517e-06
-7.73071e-07
-5.2064e-06
-1.77062e-08
-1.17327e-05
2.88021e-06
-2.56223e-05
7.77171e-06
-3.77072e-05
1.31424e-05
-3.98746e-05
1.79401e-05
-3.68808e-05
2.20316e-05
-3.40302e-05
2.57316e-05
-3.20218e-05
2.9237e-05
-2.99942e-05
3.2646e-05
-2.8986e-05
3.61401e-05
-2.97985e-05