/*--------------------------------*- C++ -*----------------------------------*\
| =========                 |                                                 |
| \\      /  F ield         | OpenFOAM: The Open Source CFD Toolbox           |
|  \\    /   O peration     | Version:  v1912                                 |
|   \\  /    A nd           | Website:  www.openfoam.com                      |
|    \\/     M anipulation  |                                                 |
\*---------------------------------------------------------------------------*/
FoamFile
{
    version     2.0;
    format      ascii;
    class       volVectorField;
    location    "190";
    object      U;
}
// * * * * * * * * * * * * * * * * * * * * * * * * * * * * * * * * * * * * * //

dimensions      [0 1 -1 0 0 0 0];


internalField   nonuniform List<vector> 
12441
(
(29.9989 1.62834e-05 0)
(29.986 4.91079e-05 0)
(29.9583 8.5234e-05 0)
(29.9155 0.000133323 0)
(29.8595 0.000194593 0)
(29.7879 0.000277965 0)
(29.6982 0.000388162 0)
(29.5854 0.000552669 0)
(29.4446 0.00077619 0)
(29.267 0.00108406 0)
(29.049 0.00149886 0)
(28.7767 0.00213826 0)
(28.4418 0.00301675 0)
(27.9688 0.00447193 0)
(27.443 0.00624488 0)
(26.6519 0.0110439 0)
(25.6292 0.0145564 0)
(24.0246 0.0302496 0)
(21.7672 0.0514088 0)
(18.1667 0.090434 0)
(12.3906 0.123589 0)
(5.97291 0.201384 0)
(29.999 4.84592e-05 0)
(29.9858 0.000146873 0)
(29.9584 0.000254202 0)
(29.9158 0.000394718 0)
(29.8596 0.000580591 0)
(29.7877 0.000831999 0)
(29.6983 0.00116078 0)
(29.5857 0.00165031 0)
(29.4449 0.00232199 0)
(29.2672 0.00325177 0)
(29.0482 0.00448676 0)
(28.7772 0.00636972 0)
(28.4414 0.00909166 0)
(27.9674 0.013334 0)
(27.4476 0.0187905 0)
(26.6561 0.0330291 0)
(25.6278 0.0462841 0)
(24.0216 0.0866617 0)
(21.7645 0.134116 0)
(18.1627 0.261644 0)
(12.3902 0.363085 0)
(5.97527 0.601209 0)
(29.999 8.05822e-05 0)
(29.9858 0.000244675 0)
(29.9583 0.000420569 0)
(29.9157 0.000655518 0)
(29.8595 0.000967121 0)
(29.7877 0.00138604 0)
(29.6983 0.00192973 0)
(29.5857 0.00274545 0)
(29.4449 0.00386529 0)
(29.2672 0.00541831 0)
(29.0484 0.0074718 0)
(28.7771 0.0105992 0)
(28.4424 0.0151956 0)
(27.964 0.0221454 0)
(27.4461 0.0313497 0)
(26.6551 0.0541891 0)
(25.628 0.0788436 0)
(24.0256 0.141242 0)
(21.7662 0.214329 0)
(18.1603 0.43052 0)
(12.3937 0.599133 0)
(5.98167 0.998967 0)
(29.999 0.000113128 0)
(29.9858 0.000343076 0)
(29.9584 0.000587858 0)
(29.9158 0.000918027 0)
(29.8596 0.00135559 0)
(29.7878 0.00194111 0)
(29.6984 0.00270066 0)
(29.5857 0.00384429 0)
(29.4449 0.00541435 0)
(29.2673 0.00759052 0)
(29.0483 0.0104604 0)
(28.7772 0.014841 0)
(28.4417 0.0213059 0)
(27.9687 0.0309854 0)
(27.4476 0.0439376 0)
(26.6571 0.0754343 0)
(25.6301 0.110637 0)
(24.0304 0.198863 0)
(21.7736 0.319304 0)
(18.1633 0.607393 0)
(12.4039 0.839155 0)
(5.99298 1.39834 0)
(29.999 0.000145721 0)
(29.9858 0.000441323 0)
(29.9584 0.00075504 0)
(29.9158 0.0011804 0)
(29.8596 0.00174348 0)
(29.7878 0.00249519 0)
(29.6984 0.00347116 0)
(29.5857 0.00494295 0)
(29.445 0.0069622 0)
(29.2673 0.0097602 0)
(29.0487 0.0134483 0)
(28.7774 0.019081 0)
(28.4434 0.0274023 0)
(27.9651 0.0398214 0)
(27.4468 0.056546 0)
(26.6562 0.0964256 0)
(25.6322 0.141925 0)
(24.0346 0.257232 0)
(21.7843 0.40704 0)
(18.1726 0.780464 0)
(12.4221 1.07892 0)
(6.00948 1.79897 0)
(29.999 0.000178306 0)
(29.9858 0.000539479 0)
(29.9584 0.000922145 0)
(29.9158 0.00144271 0)
(29.8596 0.00213125 0)
(29.7878 0.00304936 0)
(29.6985 0.00424207 0)
(29.5858 0.00604185 0)
(29.445 0.00850995 0)
(29.2674 0.0119306 0)
(29.0485 0.0164365 0)
(28.7774 0.0233206 0)
(28.4417 0.0334997 0)
(27.9704 0.0486614 0)
(27.4483 0.0691658 0)
(26.6585 0.117315 0)
(25.6354 0.172944 0)
(24.0393 0.315015 0)
(21.797 0.493218 0)
(18.1883 0.952261 0)
(12.4496 1.31836 0)
(6.0315 2.20064 0)
(29.999 0.000210882 0)
(29.9859 0.000637566 0)
(29.9584 0.00108918 0)
(29.9158 0.00170503 0)
(29.8596 0.00251907 0)
(29.7878 0.00360356 0)
(29.6985 0.00501294 0)
(29.5858 0.00714067 0)
(29.4451 0.0100576 0)
(29.2675 0.0141 0)
(29.049 0.0194262 0)
(28.7778 0.0275623 0)
(28.4441 0.0395944 0)
(27.966 0.0574756 0)
(27.4479 0.0817661 0)
(26.6577 0.13804 0)
(25.6384 0.203297 0)
(24.0437 0.370424 0)
(21.8128 0.581605 0)
(18.2121 1.1242 0)
(12.4882 1.55785 0)
(6.05948 2.60367 0)
(29.999 0.000243453 0)
(29.9858 0.000735588 0)
(29.9585 0.00125613 0)
(29.9159 0.00196732 0)
(29.8597 0.00290685 0)
(29.7879 0.00415767 0)
(29.6986 0.00578375 0)
(29.5859 0.00823945 0)
(29.4451 0.0116051 0)
(29.2676 0.0162702 0)
(29.0487 0.0224155 0)
(28.7775 0.0317997 0)
(28.4414 0.045689 0)
(27.9723 0.0662959 0)
(27.4497 0.0942257 0)
(26.6599 0.158446 0)
(25.6437 0.235186 0)
(24.0493 0.427965 0)
(21.8356 0.671215 0)
(18.2476 1.29566 0)
(12.5401 1.79758 0)
(6.09391 3.00848 0)
(29.999 0.000276015 0)
(29.9859 0.00083354 0)
(29.9584 0.00142302 0)
(29.9158 0.00222964 0)
(29.8596 0.00329464 0)
(29.7879 0.00471172 0)
(29.6986 0.00655448 0)
(29.5859 0.00933832 0)
(29.4452 0.0131527 0)
(29.2677 0.018439 0)
(29.0494 0.0254051 0)
(28.7785 0.0360434 0)
(28.4455 0.0517803 0)
(27.9671 0.075193 0)
(27.4478 0.106794 0)
(26.6577 0.17929 0)
(25.6468 0.26562 0)
(24.0532 0.485139 0)
(21.8692 0.760566 0)
(18.299 1.46618 0)
(12.6078 2.0377 0)
(6.13535 3.41557 0)
(29.999 0.00030857 0)
(29.9859 0.000931423 0)
(29.9585 0.00158984 0)
(29.9159 0.00249193 0)
(29.8597 0.00368239 0)
(29.7879 0.00526567 0)
(29.6986 0.00732523 0)
(29.586 0.0104372 0)
(29.4452 0.0146999 0)
(29.2678 0.0206084 0)
(29.0489 0.0283938 0)
(28.7776 0.0402789 0)
(28.4404 0.0578761 0)
(27.9736 0.0839324 0)
(27.4466 0.120013 0)
(26.6555 0.200503 0)
(25.6471 0.2965 0)
(24.0564 0.540575 0)
(21.9145 0.849479 0)
(18.3677 1.63577 0)
(12.6931 2.27843 0)
(6.18437 3.82543 0)
(29.9989 0.000341114 0)
(29.9859 0.00102924 0)
(29.9584 0.00175661 0)
(29.9158 0.00275425 0)
(29.8597 0.00407014 0)
(29.788 0.00581955 0)
(29.6986 0.00809592 0)
(29.586 0.0115361 0)
(29.4453 0.0162469 0)
(29.2679 0.0227776 0)
(29.0496 0.0313837 0)
(28.7794 0.0445182 0)
(28.4471 0.0640067 0)
(27.9754 0.0927038 0)
(27.4438 0.132574 0)
(26.6473 0.220684 0)
(25.6447 0.328533 0)
(24.0635 0.59551 0)
(21.9664 0.938037 0)
(18.4503 1.80424 0)
(12.796 2.51994 0)
(6.24145 4.23861 0)
(29.999 0.000373647 0)
(29.9859 0.00112699 0)
(29.9585 0.00192335 0)
(29.9159 0.00301653 0)
(29.8598 0.00445782 0)
(29.788 0.00637334 0)
(29.6987 0.0088666 0)
(29.5861 0.0126349 0)
(29.4453 0.0177936 0)
(29.2682 0.0249459 0)
(29.049 0.0343724 0)
(28.7783 0.0487446 0)
(28.4404 0.0700325 0)
(27.9845 0.101703 0)
(27.437 0.146024 0)
(26.6366 0.241333 0)
(25.6425 0.360722 0)
(24.0758 0.649102 0)
(22.0171 1.02565 0)
(18.5398 1.97116 0)
(12.9151 2.76228 0)
(6.30695 4.65568 0)
(29.9989 0.000406165 0)
(29.9859 0.00122468 0)
(29.9584 0.00209009 0)
(29.9159 0.00327885 0)
(29.8597 0.00484552 0)
(29.788 0.00692705 0)
(29.6987 0.00963728 0)
(29.5861 0.0137338 0)
(29.4454 0.019339 0)
(29.2684 0.0271177 0)
(29.0494 0.0373622 0)
(28.7792 0.0530475 0)
(28.4455 0.0760058 0)
(27.9862 0.110774 0)
(27.4268 0.159935 0)
(26.6266 0.261775 0)
(25.6414 0.392654 0)
(24.0895 0.701078 0)
(22.0615 1.11206 0)
(18.6293 2.13611 0)
(13.0477 3.0053 0)
(6.38102 5.07714 0)
(29.999 0.000438669 0)
(29.9859 0.0013223 0)
(29.9585 0.00225682 0)
(29.916 0.00354115 0)
(29.8598 0.00523314 0)
(29.7881 0.00748065 0)
(29.6988 0.010408 0)
(29.5862 0.0148327 0)
(29.4455 0.0208839 0)
(29.2687 0.0292892 0)
(29.0491 0.0403732 0)
(28.7777 0.0573828 0)
(28.4386 0.0823354 0)
(27.9838 0.119941 0)
(27.4172 0.173547 0)
(26.6195 0.281658 0)
(25.6407 0.424166 0)
(24.1014 0.751717 0)
(22.0985 1.19731 0)
(18.7141 2.29887 0)
(13.1905 3.24876 0)
(6.4636 5.50345 0)
(29.9989 0.000471155 0)
(29.9859 0.00141986 0)
(29.9585 0.00242357 0)
(29.9159 0.00380347 0)
(29.8597 0.00562077 0)
(29.7881 0.00803417 0)
(29.6988 0.0111787 0)
(29.5862 0.0159315 0)
(29.4455 0.0224274 0)
(29.269 0.0314614 0)
(29.0494 0.043409 0)
(28.7786 0.06165 0)
(28.4383 0.08859 0)
(27.9787 0.129036 0)
(27.41 0.18708 0)
(26.6147 0.3013 0)
(25.6399 0.455444 0)
(24.1105 0.801436 0)
(22.129 1.28154 0)
(18.7922 2.45931 0)
(13.3402 3.49234 0)
(6.55445 5.935 0)
(29.9989 0.000503626 0)
(29.9859 0.00151735 0)
(29.9586 0.00259032 0)
(29.916 0.00406576 0)
(29.8598 0.00600831 0)
(29.7881 0.00858756 0)
(29.6989 0.0119493 0)
(29.5863 0.0170305 0)
(29.4456 0.0239687 0)
(29.2694 0.0336339 0)
(29.05 0.0464514 0)
(28.7796 0.0660675 0)
(28.4334 0.0949172 0)
(27.9743 0.138014 0)
(27.4049 0.200502 0)
(26.6114 0.320868 0)
(25.6388 0.48661 0)
(24.117 0.850557 0)
(22.1546 1.36486 0)
(18.8631 2.61733 0)
(13.4943 3.73569 0)
(6.65317 6.37209 0)
(29.9989 0.000536074 0)
(29.9859 0.00161478 0)
(29.9585 0.00275713 0)
(29.9159 0.00432809 0)
(29.8598 0.00639586 0)
(29.7881 0.00914089 0)
(29.6989 0.01272 0)
(29.5863 0.0181295 0)
(29.4456 0.0255089 0)
(29.2698 0.0357991 0)
(29.0511 0.0495549 0)
(28.78 0.0705204 0)
(28.4297 0.101186 0)
(27.9706 0.147009 0)
(27.4011 0.213931 0)
(26.609 0.340405 0)
(25.6375 0.517706 0)
(24.1215 0.899263 0)
(22.1769 1.44732 0)
(18.9274 2.77287 0)
(13.651 3.97851 0)
(6.75934 6.81498 0)
(29.9989 0.000568505 0)
(29.9859 0.00171215 0)
(29.9586 0.00292397 0)
(29.916 0.0045904 0)
(29.8598 0.00678332 0)
(29.7882 0.00969405 0)
(29.6989 0.0134907 0)
(29.5863 0.0192283 0)
(29.4457 0.027048 0)
(29.27 0.0379539 0)
(29.0522 0.0526832 0)
(28.7786 0.0750029 0)
(28.4258 0.107461 0)
(27.9678 0.155975 0)
(27.3983 0.227353 0)
(26.6073 0.359934 0)
(25.6359 0.548755 0)
(24.1246 0.947658 0)
(22.1972 1.529 0)
(18.9862 2.92588 0)
(13.8091 4.2205 0)
(6.87249 7.2639 0)
(29.9989 0.000600913 0)
(29.986 0.00180947 0)
(29.9585 0.00309085 0)
(29.9159 0.00485273 0)
(29.8598 0.00717078 0)
(29.7882 0.0102472 0)
(29.6989 0.0142614 0)
(29.5864 0.020327 0)
(29.4459 0.028586 0)
(29.2701 0.0401157 0)
(29.0532 0.0558028 0)
(28.7764 0.0793748 0)
(28.423 0.11372 0)
(27.9655 0.164962 0)
(27.3962 0.240787 0)
(26.6061 0.379457 0)
(25.6344 0.579771 0)
(24.127 0.995795 0)
(22.2167 1.60991 0)
(19.0408 3.07634 0)
(13.9682 4.46139 0)
(6.9922 7.71902 0)
(29.9989 0.000633302 0)
(29.9859 0.00190672 0)
(29.9586 0.00325779 0)
(29.916 0.00511502 0)
(29.8599 0.00755814 0)
(29.7882 0.0108001 0)
(29.699 0.015032 0)
(29.5864 0.0214254 0)
(29.446 0.0301253 0)
(29.2702 0.042281 0)
(29.0538 0.0589958 0)
(28.774 0.0836739 0)
(28.4207 0.120008 0)
(27.9637 0.173946 0)
(27.3945 0.254214 0)
(26.6053 0.398982 0)
(25.6329 0.610763 0)
(24.1291 1.0437 0)
(22.2362 1.69008 0)
(19.0923 3.22422 0)
(14.1281 4.70097 0)
(7.11814 8.18052 0)
(29.9989 0.000665666 0)
(29.986 0.00200391 0)
(29.9585 0.00342479 0)
(29.9159 0.00537736 0)
(29.8598 0.00794551 0)
(29.7882 0.011353 0)
(29.699 0.0158027 0)
(29.5865 0.0225233 0)
(29.446 0.0316653 0)
(29.2703 0.0444579 0)
(29.0537 0.0622038 0)
(28.772 0.0879721 0)
(28.4189 0.12629 0)
(27.9623 0.182943 0)
(27.3931 0.267641 0)
(26.6047 0.41851 0)
(25.6317 0.641741 0)
(24.1314 1.09137 0)
(22.2564 1.76952 0)
(19.1419 3.36951 0)
(14.2894 4.93905 0)
(7.25002 8.64856 0)
(29.9989 0.00069801 0)
(29.986 0.00210104 0)
(29.9586 0.00359186 0)
(29.9161 0.00563967 0)
(29.8599 0.00833276 0)
(29.7883 0.0119057 0)
(29.6991 0.0165731 0)
(29.5866 0.0236218 0)
(29.446 0.0332025 0)
(29.2705 0.0466903 0)
(29.0529 0.065366 0)
(28.7702 0.0922871 0)
(28.4175 0.132594 0)
(27.9611 0.191937 0)
(27.3921 0.28106 0)
(26.6045 0.438044 0)
(25.6309 0.672714 0)
(24.1343 1.13876 0)
(22.2777 1.84822 0)
(19.1907 3.51222 0)
(14.4524 5.17546 0)
(7.38767 9.12333 0)
(29.9989 0.000730328 0)
(29.986 0.00219812 0)
(29.9585 0.00375897 0)
(29.9159 0.005902 0)
(29.8598 0.00872001 0)
(29.7883 0.0124584 0)
(29.6991 0.0173434 0)
(29.5867 0.0247205 0)
(29.4461 0.034739 0)
(29.2709 0.0489606 0)
(29.0518 0.0685104 0)
(28.7688 0.0966348 0)
(28.4163 0.138895 0)
(27.9602 0.200935 0)
(27.3913 0.294474 0)
(26.6046 0.457582 0)
(25.6307 0.70368 0)
(24.138 1.18585 0)
(22.3004 1.9262 0)
(19.2395 3.65233 0)
(14.6183 5.41007 0)
(7.531 9.605 0)
(29.9989 0.000762627 0)
(29.986 0.00229513 0)
(29.9586 0.00392616 0)
(29.9161 0.00616429 0)
(29.8599 0.00910715 0)
(29.7883 0.0130109 0)
(29.6992 0.0181135 0)
(29.5868 0.0258194 0)
(29.4461 0.0362725 0)
(29.2712 0.0512564 0)
(29.0508 0.0715781 0)
(28.7677 0.101007 0)
(28.4154 0.145207 0)
(27.9594 0.209928 0)
(27.3907 0.30788 0)
(26.6051 0.477123 0)
(25.6314 0.734628 0)
(24.1426 1.23257 0)
(22.3247 2.00346 0)
(19.289 3.78981 0)
(14.7879 5.64277 0)
(7.68001 10.0938 0)
(29.9989 0.000794898 0)
(29.986 0.0023921 0)
(29.9585 0.00409342 0)
(29.9159 0.00642663 0)
(29.8598 0.00949427 0)
(29.7883 0.0135635 0)
(29.6992 0.0188834 0)
(29.5869 0.0269188 0)
(29.4462 0.0378024 0)
(29.2714 0.0535352 0)
(29.05 0.0745877 0)
(28.7668 0.105396 0)
(28.4145 0.151516 0)
(27.9588 0.21892 0)
(27.3904 0.321278 0)
(26.6059 0.496658 0)
(25.6331 0.76553 0)
(24.1484 1.27893 0)
(22.3504 2.08 0)
(19.3399 3.92463 0)
(14.9624 5.87346 0)
(7.83479 10.5899 0)
(29.9989 0.000827149 0)
(29.986 0.00248899 0)
(29.9586 0.00426077 0)
(29.9161 0.00668893 0)
(29.86 0.00988128 0)
(29.7884 0.0141157 0)
(29.6993 0.0196534 0)
(29.5869 0.0280168 0)
(29.4463 0.0393463 0)
(29.2714 0.0557987 0)
(29.0494 0.077574 0)
(28.766 0.109795 0)
(28.4138 0.157828 0)
(27.9583 0.227909 0)
(27.3903 0.334666 0)
(26.6072 0.516175 0)
(25.6358 0.796357 0)
(24.1553 1.32492 0)
(22.3775 2.15582 0)
(19.3926 4.05671 0)
(15.1431 6.10205 0)
(7.99551 11.0936 0)
(29.9989 0.000859373 0)
(29.9861 0.00258585 0)
(29.9585 0.00442816 0)
(29.9159 0.00695124 0)
(29.8599 0.0102683 0)
(29.7884 0.014668 0)
(29.6993 0.0204233 0)
(29.587 0.0291162 0)
(29.4465 0.0408959 0)
(29.2713 0.0581584 0)
(29.0489 0.0805729 0)
(28.7654 0.1142 0)
(28.4133 0.164137 0)
(27.9579 0.236893 0)
(27.3905 0.348036 0)
(26.6089 0.535661 0)
(25.6395 0.827094 0)
(24.1633 1.37054 0)
(22.4059 2.23091 0)
(19.4475 4.18596 0)
(15.3312 6.32848 0)
(8.1624 11.6053 0)
(29.9989 0.000891578 0)
(29.986 0.00268263 0)
(29.9587 0.00459563 0)
(29.9161 0.00721352 0)
(29.86 0.0106552 0)
(29.7885 0.01522 0)
(29.6994 0.0211928 0)
(29.5871 0.0302153 0)
(29.4467 0.0424542 0)
(29.2709 0.0604746 0)
(29.0485 0.0836019 0)
(28.7648 0.118609 0)
(28.4128 0.170445 0)
(27.9577 0.245871 0)
(27.3909 0.361386 0)
(26.6111 0.555101 0)
(25.6441 0.857732 0)
(24.1726 1.41581 0)
(22.4355 2.30525 0)
(19.5046 4.31225 0)
(15.5277 6.55266 0)
(8.33576 12.1251 0)
(29.9989 0.000923755 0)
(29.9861 0.00277938 0)
(29.9585 0.00476318 0)
(29.916 0.00747583 0)
(29.8599 0.0110421 0)
(29.7885 0.0157719 0)
(29.6994 0.0219628 0)
(29.5871 0.0313108 0)
(29.447 0.0440627 0)
(29.2705 0.0626551 0)
(29.0481 0.0866627 0)
(28.7644 0.123021 0)
(28.4124 0.176752 0)
(27.9576 0.254841 0)
(27.3916 0.37471 0)
(26.6137 0.574486 0)
(25.6497 0.888269 0)
(24.183 1.46071 0)
(22.4661 2.37882 0)
(19.5641 4.43542 0)
(15.7337 6.77452 0)
(8.51593 12.6534 0)
(29.9989 0.000955913 0)
(29.986 0.00287605 0)
(29.9587 0.0049308 0)
(29.9161 0.00773811 0)
(29.86 0.0114288 0)
(29.7885 0.0163236 0)
(29.6995 0.0227326 0)
(29.5872 0.0324063 0)
(29.4472 0.04569 0)
(29.2703 0.0648161 0)
(29.0479 0.0897487 0)
(28.764 0.127434 0)
(28.412 0.183056 0)
(27.9576 0.263801 0)
(27.3925 0.388003 0)
(26.6167 0.593809 0)
(25.6561 0.918701 0)
(24.1948 1.50526 0)
(22.4978 2.45161 0)
(19.6258 4.55532 0)
(15.9499 6.99399 0)
(8.70329 13.1907 0)
(29.9989 0.000988045 0)
(29.9861 0.00297269 0)
(29.9585 0.00509846 0)
(29.916 0.00800039 0)
(29.8599 0.0118156 0)
(29.7885 0.0168752 0)
(29.6995 0.0235022 0)
(29.5872 0.033502 0)
(29.4473 0.0473244 0)
(29.2701 0.0669726 0)
(29.0477 0.0928507 0)
(28.7637 0.131847 0)
(28.4118 0.189357 0)
(27.9577 0.27275 0)
(27.3937 0.401263 0)
(26.6201 0.613065 0)
(25.6632 0.949018 0)
(24.2078 1.54944 0)
(22.5304 2.52361 0)
(19.6895 4.67175 0)
(16.1767 7.21097 0)
(8.89819 13.7373 0)
(29.9989 0.00102016 0)
(29.9861 0.00306925 0)
(29.9587 0.0052662 0)
(29.9162 0.00826263 0)
(29.8601 0.0122022 0)
(29.7886 0.0174266 0)
(29.6996 0.0242718 0)
(29.5874 0.0345971 0)
(29.4475 0.0489669 0)
(29.2701 0.0691115 0)
(29.0475 0.0959628 0)
(28.7635 0.136262 0)
(28.4115 0.195655 0)
(27.9579 0.281685 0)
(27.395 0.414487 0)
(26.6238 0.63225 0)
(25.671 0.979211 0)
(24.2221 1.59325 0)
(22.564 2.5948 0)
(19.7551 4.78453 0)
(16.4142 7.42537 0)
(9.10101 14.2936 0)
(29.9989 0.00105225 0)
(29.9861 0.00316578 0)
(29.9585 0.00543399 0)
(29.916 0.0085249 0)
(29.8599 0.0125888 0)
(29.7886 0.0179779 0)
(29.6996 0.0250412 0)
(29.5874 0.035692 0)
(29.4476 0.0506143 0)
(29.2701 0.0712391 0)
(29.0474 0.0990819 0)
(28.7632 0.140676 0)
(28.4114 0.201949 0)
(27.9582 0.290605 0)
(27.3965 0.427674 0)
(26.6279 0.65136 0)
(25.6796 1.00927 0)
(24.2377 1.63669 0)
(22.5985 2.66517 0)
(19.8223 4.89349 0)
(16.6623 7.63706 0)
(9.31207 14.8601 0)
(29.9989 0.00108432 0)
(29.9861 0.00326223 0)
(29.9587 0.00560186 0)
(29.9162 0.00878711 0)
(29.8601 0.0129753 0)
(29.7887 0.018529 0)
(29.6997 0.0258102 0)
(29.5876 0.0367868 0)
(29.4477 0.052265 0)
(29.2703 0.0733576 0)
(29.0473 0.102206 0)
(28.7631 0.145091 0)
(28.4113 0.208238 0)
(27.9586 0.29951 0)
(27.3982 0.440823 0)
(26.6322 0.670388 0)
(25.6887 1.03917 0)
(24.2546 1.67976 0)
(22.6342 2.73473 0)
(19.8911 4.99844 0)
(16.9207 7.84593 0)
(9.53167 15.4371 0)
(29.9989 0.00111636 0)
(29.9861 0.00335866 0)
(29.9585 0.00576975 0)
(29.916 0.00904936 0)
(29.86 0.0133617 0)
(29.7887 0.0190802 0)
(29.6997 0.026579 0)
(29.5877 0.0378784 0)
(29.4477 0.0539146 0)
(29.2705 0.0754707 0)
(29.0472 0.105335 0)
(28.763 0.149506 0)
(28.4113 0.214523 0)
(27.9592 0.308398 0)
(27.4001 0.453931 0)
(26.6368 0.689331 0)
(25.6985 1.06891 0)
(24.2728 1.72245 0)
(22.6709 2.80347 0)
(19.9614 5.09921 0)
(17.1891 8.05183 0)
(9.7601 16.0251 0)
(29.9989 0.00114839 0)
(29.9861 0.00345501 0)
(29.9587 0.00593772 0)
(29.9162 0.00931153 0)
(29.8601 0.0137481 0)
(29.7888 0.0196307 0)
(29.6998 0.0273493 0)
(29.5879 0.038969 0)
(29.4477 0.0555087 0)
(29.2707 0.0775797 0)
(29.0472 0.108467 0)
(28.7629 0.15392 0)
(28.4114 0.220802 0)
(27.9598 0.317269 0)
(27.4022 0.466997 0)
(26.6417 0.708183 0)
(25.7089 1.09847 0)
(24.2922 1.76475 0)
(22.7088 2.87138 0)
(20.0335 5.19566 0)
(17.4672 8.25464 0)
(9.99758 16.6246 0)
(29.9989 0.0011804 0)
(29.9862 0.00355133 0)
(29.9585 0.00610565 0)
(29.916 0.00957374 0)
(29.86 0.0141343 0)
(29.7888 0.0201821 0)
(29.6998 0.028115 0)
(29.588 0.0400898 0)
(29.4477 0.0569684 0)
(29.2709 0.0796935 0)
(29.0472 0.111603 0)
(28.7628 0.158333 0)
(28.4115 0.227076 0)
(27.9605 0.326121 0)
(27.4044 0.480019 0)
(26.6468 0.726938 0)
(25.7199 1.12785 0)
(24.313 1.80666 0)
(22.7481 2.93845 0)
(20.1073 5.28763 0)
(17.7552 8.45419 0)
(10.2444 17.2358 0)
(29.9989 0.0012124 0)
(29.9861 0.00364756 0)
(29.9588 0.00627363 0)
(29.9162 0.00983587 0)
(29.8602 0.0145204 0)
(29.7889 0.0207324 0)
(29.7 0.0288851 0)
(29.5882 0.0411963 0)
(29.4478 0.058694 0)
(29.2711 0.0818376 0)
(29.0472 0.11474 0)
(28.7628 0.162746 0)
(28.4116 0.233343 0)
(27.9613 0.334954 0)
(27.4067 0.492997 0)
(26.6522 0.745593 0)
(25.7315 1.15702 0)
(24.3349 1.84816 0)
(22.7889 3.00468 0)
(20.1831 5.37497 0)
(18.0531 8.65035 0)
(10.5006 17.8593 0)
(29.9989 0.00124437 0)
(29.9862 0.00374378 0)
(29.9585 0.0064416 0)
(29.916 0.010098 0)
(29.8601 0.0149067 0)
(29.7889 0.0212823 0)
(29.7 0.029653 0)
(29.5882 0.0423327 0)
(29.4479 0.060429 0)
(29.2713 0.0840148 0)
(29.0472 0.11788 0)
(28.7629 0.167158 0)
(28.4118 0.239603 0)
(27.9622 0.343765 0)
(27.4092 0.505927 0)
(26.6579 0.764143 0)
(25.7436 1.18598 0)
(24.3579 1.88924 0)
(22.8314 3.07005 0)
(20.2608 5.45752 0)
(18.3612 8.84295 0)
(10.7667 18.4956 0)
(29.9989 0.00127634 0)
(29.9861 0.00383991 0)
(29.9588 0.00660961 0)
(29.9163 0.0103602 0)
(29.8603 0.0152922 0)
(29.789 0.0218348 0)
(29.7002 0.0304065 0)
(29.5883 0.0434893 0)
(29.4479 0.0619472 0)
(29.2714 0.0862086 0)
(29.0473 0.12102 0)
(28.763 0.171568 0)
(28.4121 0.245857 0)
(27.9632 0.352556 0)
(27.4119 0.518809 0)
(26.6639 0.782583 0)
(25.7562 1.21471 0)
(24.3821 1.92988 0)
(22.8758 3.13455 0)
(20.34 5.53513 0)
(18.6797 9.03184 0)
(11.0427 19.145 0)
(29.9989 0.00130829 0)
(29.9862 0.003936 0)
(29.9585 0.00677744 0)
(29.9161 0.0106223 0)
(29.8601 0.0156788 0)
(29.789 0.0223824 0)
(29.7002 0.0311964 0)
(29.5882 0.04445 0)
(29.4478 0.0633951 0)
(29.2716 0.0884066 0)
(29.0473 0.124162 0)
(28.763 0.175976 0)
(28.4124 0.2521 0)
(27.9643 0.361326 0)
(27.4148 0.531643 0)
(26.6701 0.80091 0)
(25.7693 1.24321 0)
(24.4072 1.97006 0)
(22.9224 3.19819 0)
(20.4201 5.60766 0)
(19.0076 9.21688 0)
(11.3289 19.808 0)
(29.9989 0.00134023 0)
(29.9862 0.00403214 0)
(29.9588 0.00694523 0)
(29.9163 0.010884 0)
(29.8603 0.016066 0)
(29.789 0.022933 0)
(29.7006 0.0319812 0)
(29.5874 0.0456344 0)
(29.4477 0.0648663 0)
(29.2716 0.0906049 0)
(29.0474 0.127302 0)
(28.7632 0.180383 0)
(28.4128 0.258335 0)
(27.9654 0.370073 0)
(27.4178 0.544423 0)
(26.6766 0.819118 0)
(25.783 1.27147 0)
(24.4332 2.00975 0)
(22.9716 3.26096 0)
(20.5004 5.67498 0)
(19.342 9.39806 0)
(11.6256 20.4858 0)
(29.9989 0.00137192 0)
(29.9862 0.00412858 0)
(29.9585 0.0071137 0)
(29.9161 0.0111435 0)
(29.8602 0.0164518 0)
(29.7889 0.0234879 0)
(29.7008 0.0327696 0)
(29.5867 0.0469778 0)
(29.4476 0.0663741 0)
(29.2716 0.0928048 0)
(29.0474 0.130442 0)
(28.7633 0.184785 0)
(28.4132 0.26456 0)
(27.9666 0.378799 0)
(27.4209 0.557149 0)
(26.6834 0.837204 0)
(25.7971 1.29947 0)
(24.4599 2.04893 0)
(23.0237 3.32289 0)
(20.5799 5.73708 0)
(19.6755 9.57508 0)
(11.9322 21.1857 0)
(29.9989 0.00140322 0)
(29.9862 0.00422352 0)
(29.9589 0.00728631 0)
(29.9164 0.0114008 0)
(29.8605 0.0168275 0)
(29.7891 0.0240308 0)
(29.701 0.0336084 0)
(29.5864 0.048122 0)
(29.4475 0.0678946 0)
(29.2716 0.095002 0)
(29.0474 0.13358 0)
(28.7635 0.189181 0)
(28.4136 0.270773 0)
(27.968 0.387517 0)
(27.4242 0.569826 0)
(26.6905 0.855161 0)
(25.8116 1.32722 0)
(24.4874 2.08753 0)
(23.0791 3.38403 0)
(20.6585 5.79403 0)
(19.9968 9.74591 0)
(12.3347 21.9295 0)
(-1.92383 0.0848136 0)
(-5.49275 0.0549714 0)
(-6.87992 0.0026444 0)
(-5.62848 -0.0263446 0)
(-4.02422 -0.0203959 0)
(-3.26227 -0.00971835 0)
(-2.80197 -0.00501224 0)
(-2.57775 -0.00377614 0)
(-2.21317 -0.00429428 0)
(-1.8333 -0.00291203 0)
(-1.68107 -0.00215106 0)
(-1.4364 -0.0048889 0)
(-0.781093 -0.00921944 0)
(0.547213 -0.0136147 0)
(2.53819 -0.0154818 0)
(4.61569 -0.0144289 0)
(6.57872 -0.0129353 0)
(8.50428 -0.0118359 0)
(10.4188 -0.0105319 0)
(12.2051 -0.00899996 0)
(13.8779 -0.00793378 0)
(15.542 -0.00756588 0)
(17.3379 -0.00768896 0)
(19.3664 -0.0078173 0)
(21.5634 -0.00917631 0)
(24.7619 -0.00968492 0)
(27.7047 -0.00610509 0)
(28.9076 -0.0020387 0)
(29.1978 -0.000494164 0)
(29.3003 -0.000233792 0)
(29.3998 -0.000216309 0)
(29.5031 -0.0001813 0)
(29.5833 -0.000132625 0)
(29.6486 -0.000100835 0)
(29.7032 -4.39262e-05 0)
(-1.89182 0.251352 0)
(-5.41092 0.163299 0)
(-6.78353 0.00783311 0)
(-5.52896 -0.0784932 0)
(-3.94148 -0.0605435 0)
(-3.20064 -0.0286359 0)
(-2.76036 -0.0147761 0)
(-2.561 -0.0114328 0)
(-2.20243 -0.0134991 0)
(-1.78237 -0.0094191 0)
(-1.58622 -0.00615226 0)
(-1.33862 -0.0131706 0)
(-0.771384 -0.0257892 0)
(0.424063 -0.0400507 0)
(2.38006 -0.0463004 0)
(4.51512 -0.0429195 0)
(6.53215 -0.0381404 0)
(8.4608 -0.0347443 0)
(10.3513 -0.0309247 0)
(12.1109 -0.0265961 0)
(13.7615 -0.0236073 0)
(15.4041 -0.0225361 0)
(17.1698 -0.0229912 0)
(19.1784 -0.023536 0)
(21.3841 -0.0276446 0)
(24.6059 -0.0293716 0)
(27.6384 -0.0186409 0)
(28.8957 -0.00625474 0)
(29.2001 -0.00150841 0)
(29.3024 -0.00069757 0)
(29.4005 -0.000646073 0)
(29.5035 -0.000543753 0)
(29.5839 -0.000398047 0)
(29.6491 -0.000302432 0)
(29.7037 -0.00013182 0)
(-1.84678 0.414865 0)
(-5.31468 0.270306 0)
(-6.67244 0.0127618 0)
(-5.40616 -0.130836 0)
(-3.83802 -0.100174 0)
(-3.12407 -0.0469053 0)
(-2.70294 -0.0237942 0)
(-2.52001 -0.0185414 0)
(-2.14746 -0.0229141 0)
(-1.68075 -0.0168976 0)
(-1.46425 -0.0108105 0)
(-1.239 -0.0212959 0)
(-0.777688 -0.040566 0)
(0.303728 -0.0645588 0)
(2.25201 -0.0769761 0)
(4.44407 -0.0720804 0)
(6.50628 -0.0633671 0)
(8.43454 -0.0570201 0)
(10.3016 -0.0506774 0)
(12.0373 -0.0437839 0)
(13.6678 -0.039033 0)
(15.29 -0.0372682 0)
(17.0274 -0.038043 0)
(19.0146 -0.0391284 0)
(21.2224 -0.0461678 0)
(24.46 -0.0493422 0)
(27.5753 -0.0315884 0)
(28.8846 -0.0106688 0)
(29.2027 -0.00256185 0)
(29.3047 -0.00115777 0)
(29.4014 -0.00107194 0)
(29.5041 -0.00090567 0)
(29.5846 -0.000663503 0)
(29.6497 -0.000503791 0)
(29.7042 -0.000219651 0)
(-1.79396 0.57491 0)
(-5.20721 0.375852 0)
(-6.54156 0.0171006 0)
(-5.24625 -0.183448 0)
(-3.70357 -0.13888 0)
(-3.02138 -0.0644199 0)
(-2.62011 -0.0323597 0)
(-2.45247 -0.0257406 0)
(-2.06358 -0.0331493 0)
(-1.55723 -0.0250664 0)
(-1.32342 -0.0153959 0)
(-1.12439 -0.0279904 0)
(-0.766579 -0.0535174 0)
(0.213286 -0.0884986 0)
(2.15266 -0.108602 0)
(4.39301 -0.102588 0)
(6.49822 -0.0894898 0)
(8.42586 -0.0796691 0)
(10.2702 -0.0704907 0)
(11.9845 -0.0608887 0)
(13.5977 -0.0543008 0)
(15.2 -0.0517914 0)
(16.9105 -0.0528942 0)
(18.8745 -0.0546471 0)
(21.0778 -0.064745 0)
(24.3232 -0.0696177 0)
(27.5152 -0.0449349 0)
(28.874 -0.0152618 0)
(29.2055 -0.00364935 0)
(29.3071 -0.00161402 0)
(29.4025 -0.00149422 0)
(29.5049 -0.00126715 0)
(29.5854 -0.000928874 0)
(29.6504 -0.000704775 0)
(29.7048 -0.000307313 0)
(-1.73373 0.731126 0)
(-5.08818 0.479466 0)
(-6.3864 0.0202621 0)
(-5.04277 -0.236262 0)
(-3.53545 -0.176391 0)
(-2.89002 -0.0810216 0)
(-2.51132 -0.0403882 0)
(-2.35855 -0.0329425 0)
(-1.9522 -0.0439986 0)
(-1.41316 -0.0338063 0)
(-1.15887 -0.0199365 0)
(-0.987374 -0.0334676 0)
(-0.729981 -0.0647119 0)
(0.161252 -0.111477 0)
(2.0927 -0.140435 0)
(4.37319 -0.133824 0)
(6.5184 -0.116071 0)
(8.4435 -0.102313 0)
(10.2628 -0.0901377 0)
(11.9568 -0.0778272 0)
(13.5537 -0.0693996 0)
(15.1357 -0.0661129 0)
(16.8196 -0.0675386 0)
(18.7582 -0.0700392 0)
(20.95 -0.0833072 0)
(24.1945 -0.090135 0)
(27.4578 -0.0586486 0)
(28.8642 -0.0200266 0)
(29.2084 -0.00477018 0)
(29.3098 -0.00206657 0)
(29.4038 -0.00191291 0)
(29.5059 -0.00162802 0)
(29.5864 -0.00119398 0)
(29.6512 -0.000905218 0)
(29.7054 -0.000394692 0)
(-1.66625 0.883027 0)
(-4.95696 0.580735 0)
(-6.20202 0.0215865 0)
(-4.7899 -0.289535 0)
(-3.3305 -0.2125 0)
(-2.72683 -0.0966039 0)
(-2.37502 -0.0478447 0)
(-2.23705 -0.0401675 0)
(-1.81296 -0.0554036 0)
(-1.24772 -0.0431076 0)
(-0.96597 -0.0244862 0)
(-0.820449 -0.0377492 0)
(-0.658476 -0.0742455 0)
(0.157289 -0.133517 0)
(2.08487 -0.172205 0)
(4.40146 -0.165396 0)
(6.58507 -0.142808 0)
(8.50457 -0.124739 0)
(10.2921 -0.109486 0)
(11.9625 -0.0945471 0)
(13.541 -0.084312 0)
(15.1001 -0.0802237 0)
(16.756 -0.0819665 0)
(18.6663 -0.0852722 0)
(20.8395 -0.101797 0)
(24.0734 -0.110842 0)
(27.4031 -0.0727025 0)
(28.8549 -0.0249551 0)
(29.2115 -0.00592308 0)
(29.3126 -0.00251549 0)
(29.4053 -0.00232806 0)
(29.5071 -0.00198817 0)
(29.5875 -0.00145864 0)
(29.6521 -0.00110495 0)
(29.706 -0.000481681 0)
(-1.59157 1.03014 0)
(-4.81264 0.679143 0)
(-5.98314 0.0203339 0)
(-4.48398 -0.343547 0)
(-3.08577 -0.246934 0)
(-2.52804 -0.111037 0)
(-2.20848 -0.0546586 0)
(-2.08538 -0.0474107 0)
(-1.64352 -0.0672902 0)
(-1.05738 -0.0529976 0)
(-0.738013 -0.0292069 0)
(-0.613669 -0.0409603 0)
(-0.540212 -0.0823381 0)
(0.212359 -0.154819 0)
(2.14239 -0.204001 0)
(4.49755 -0.197283 0)
(6.72407 -0.169639 0)
(8.63731 -0.146853 0)
(10.3804 -0.128442 0)
(12.0156 -0.11098 0)
(13.5679 -0.0989918 0)
(15.0984 -0.0940941 0)
(16.723 -0.0961559 0)
(18.601 -0.10031 0)
(20.7482 -0.120154 0)
(23.96 -0.13169 0)
(27.351 -0.0870755 0)
(28.8462 -0.03004 0)
(29.2148 -0.00710689 0)
(29.3156 -0.00296083 0)
(29.407 -0.00273969 0)
(29.5085 -0.00234746 0)
(29.5887 -0.00172269 0)
(29.6531 -0.00130381 0)
(29.7067 -0.000568169 0)
(-1.5097 1.17197 0)
(-4.65415 0.774055 0)
(-5.72475 0.0157548 0)
(-4.12642 -0.398428 0)
(-2.80022 -0.27941 0)
(-2.29025 -0.124181 0)
(-2.00823 -0.0607437 0)
(-1.8998 -0.0546689 0)
(-1.43987 -0.0795982 0)
(-0.836205 -0.0635593 0)
(-0.464797 -0.0343034 0)
(-0.352528 -0.0433074 0)
(-0.358429 -0.0892187 0)
(0.343235 -0.175604 0)
(2.28386 -0.236068 0)
(4.68565 -0.229728 0)
(6.96834 -0.196712 0)
(8.88413 -0.168632 0)
(10.5654 -0.146882 0)
(12.1401 -0.126996 0)
(13.6486 -0.113345 0)
(15.1397 -0.107666 0)
(16.7267 -0.110067 0)
(18.5665 -0.115107 0)
(20.6797 -0.138311 0)
(23.8552 -0.152621 0)
(27.3017 -0.101746 0)
(28.8382 -0.0352745 0)
(29.2182 -0.00832049 0)
(29.3188 -0.00340271 0)
(29.4089 -0.00314784 0)
(29.5101 -0.00270578 0)
(29.5901 -0.00198595 0)
(29.6543 -0.00150162 0)
(29.7074 -0.000654049 0)
(-1.42063 1.30802 0)
(-4.48027 0.864736 0)
(-5.42284 0.00720139 0)
(-3.72587 -0.45415 0)
(-2.47635 -0.30977 0)
(-2.01196 -0.13596 0)
(-1.77099 -0.066033 0)
(-1.67614 -0.0619533 0)
(-1.19729 -0.0923015 0)
(-0.576747 -0.0749521 0)
(-0.132891 -0.0401224 0)
(-0.0168569 -0.0450604 0)
(-0.0890173 -0.0951175 0)
(0.57671 -0.196063 0)
(2.53798 -0.268683 0)
(4.99719 -0.263105 0)
(7.35454 -0.224364 0)
(9.29756 -0.190141 0)
(10.9062 -0.164619 0)
(12.3768 -0.142361 0)
(13.807 -0.127203 0)
(15.239 -0.120841 0)
(16.7775 -0.123637 0)
(18.5708 -0.129604 0)
(20.6402 -0.156184 0)
(23.7608 -0.173564 0)
(27.2553 -0.116689 0)
(28.8308 -0.0406511 0)
(29.2218 -0.00956269 0)
(29.3221 -0.00384125 0)
(29.4111 -0.00355257 0)
(29.5119 -0.00306298 0)
(29.5917 -0.00224824 0)
(29.6555 -0.00169821 0)
(29.7081 -0.000739212 0)
(-1.32432 1.43774 0)
(-4.28974 0.950383 0)
(-5.07493 -0.00573901 0)
(-3.29655 -0.510509 0)
(-2.12093 -0.33807 0)
(-1.69507 -0.146415 0)
(-1.49486 -0.0705207 0)
(-1.41079 -0.069298 0)
(-0.911761 -0.105422 0)
(-0.271534 -0.0874461 0)
(0.27081 -0.0471566 0)
(0.416732 -0.0466538 0)
(0.298859 -0.100322 0)
(0.946311 -0.216394 0)
(2.93869 -0.302078 0)
(5.46409 -0.297727 0)
(7.90879 -0.252975 0)
(9.9124 -0.211582 0)
(11.4699 -0.18139 0)
(12.7885 -0.156666 0)
(14.0825 -0.140273 0)
(15.4207 -0.133453 0)
(16.8923 -0.136766 0)
(18.6263 -0.143721 0)
(20.6397 -0.173664 0)
(23.6803 -0.194422 0)
(27.2124 -0.131871 0)
(28.8241 -0.0461615 0)
(29.2255 -0.0108322 0)
(29.3257 -0.0042766 0)
(29.4134 -0.00395393 0)
(29.514 -0.00341894 0)
(29.5933 -0.00250937 0)
(29.6568 -0.00189342 0)
(29.7089 -0.000823549 0)
(-1.22074 1.56056 0)
(-4.08134 1.03017 0)
(-4.67997 -0.0231757 0)
(-2.85354 -0.567115 0)
(-1.74395 -0.364571 0)
(-1.34578 -0.155743 0)
(-1.18069 -0.0743053 0)
(-1.10204 -0.0767698 0)
(-0.581906 -0.119039 0)
(0.0846844 -0.101368 0)
(0.750975 -0.0560592 0)
(0.964553 -0.0486722 0)