/*--------------------------------*- C++ -*----------------------------------*\
| =========                 |                                                 |
| \\      /  F ield         | OpenFOAM: The Open Source CFD Toolbox           |
|  \\    /   O peration     | Version:  v1912                                 |
|   \\  /    A nd           | Website:  www.openfoam.com                      |
|    \\/     M anipulation  |                                                 |
\*---------------------------------------------------------------------------*/
FoamFile
{
    version     2.0;
    format      ascii;
    class       volScalarField;
    location    "180";
    object      epsilon;
}
// * * * * * * * * * * * * * * * * * * * * * * * * * * * * * * * * * * * * * //

dimensions      [0 2 -3 0 0 0 0];


internalField   nonuniform List<scalar> 
12441
(
0.0102961
0.00908453
0.00832671
0.00770234
0.0071833
0.00674857
0.006382
0.00607076
0.00580493
0.00557649
0.0053792
0.00520787
0.00504533
0.00491433
0.00479798
0.00469328
0.00475379
0.0187844
0.256566
2.94232
20.9638
39.25
0.0101184
0.00891942
0.00818335
0.00757634
0.00707127
0.00664794
0.0062908
0.00598744
0.00572828
0.00550552
0.00531315
0.00514617
0.0049865
0.00485921
0.00474625
0.00464611
0.00471917
0.0185239
0.241843
2.93537
21.2562
40.2318
0.00989636
0.00871667
0.00799965
0.00740851
0.00691678
0.00650476
0.00615729
0.00586232
0.00561051
0.00539429
0.00520785
0.0050464
0.00489124
0.00476916
0.00466142
0.00456623
0.00460615
0.016847
0.205701
2.90694
21.638
41.3784
0.00967276
0.008513
0.00781424
0.00723822
0.00675913
0.00635781
0.00601946
0.00573238
0.00548747
0.0052774
0.0050965
0.00494021
0.00479128
0.00467393
0.004571
0.00448139
0.00448664
0.0148212
0.16983
2.88672
22.1068
42.5504
0.00942858
0.00828843
0.00760838
0.00704796
0.00658206
0.00619197
0.00586329
0.00558465
0.00534723
0.0051439
0.00496918
0.00481877
0.00467464
0.0045632
0.00446629
0.00438342
0.00434707
0.0130042
0.151806
2.89536
22.622
43.6698
0.00922257
0.00809878
0.00743394
0.00688614
0.00643078
0.00604961
0.00572852
0.00545642
0.00522468
0.00502637
0.00485612
0.00470981
0.00457137
0.00446377
0.00437082
0.00429235
0.00427319
0.013274
0.171928
3.00072
23.2425
44.7472
0.00900196
0.00789523
0.00724682
0.00671272
0.00626895
0.00589764
0.00558502
0.00532032
0.00509512
0.00490268
0.00473778
0.00459651
0.00446181
0.00436018
0.00427037
0.00419909
0.00603123
0.022493
0.276235
3.2921
24.0617
45.7945
0.00882347
0.00773054
0.00709497
0.00657148
0.00613652
0.00577262
0.00546627
0.00520691
0.00498628
0.00479781
0.00463639
0.00449824
0.0043687
0.00427133
0.0041894
0.00517297
0.0347726
0.079756
0.583227
3.89897
25.1924
46.8732
0.00862938
0.0075514
0.00693032
0.00641893
0.00599419
0.00563899
0.00534012
0.00508726
0.00487239
0.00468904
0.00453227
0.00439847
0.0042719
0.00414257
0.0054056
0.0273699
0.181411
0.305426
1.25523
4.95907
26.7532
48.0153
0.00847465
0.00740847
0.00679838
0.00629605
0.00587881
0.00552989
0.0052363
0.00498791
0.00477682
0.00459674
0.00444279
0.00431168
0.00418964
0.00427488
0.0256114
0.155577
0.562162
0.833739
2.33346
6.52783
28.8298
49.2846
0.00830527
0.00725208
0.0066547
0.00616297
0.0057547
0.00541342
0.00512637
0.00488368
0.00467761
0.00450198
0.00435204
0.00422566
0.00407308
0.00958691
0.119099
0.472494
1.1713
1.6481
3.64402
8.5195
31.4479
50.6975
0.0081702
0.00712732
0.00653952
0.00605566
0.00565387
0.00531798
0.00503546
0.00479657
0.0045937
0.00442082
0.00427324
0.0041507
0.00415652
0.0499971
0.351872
0.940524
1.83214
2.53903
4.93851
10.7459
34.5624
52.295
0.00802112
0.00698974
0.00641326
0.00593884
0.00554504
0.00521595
0.00493925
0.00470541
0.00450697
0.004338
0.0041939
0.00403824
0.0084276
0.177853
0.694056
1.41666
2.39364
3.31377
6.06951
13.0119
38.0787
54.0597
0.00790018
0.00687804
0.00631014
0.00584276
0.00545475
0.00513049
0.00485783
0.0046274
0.00443185
0.00426535
0.00412339
0.00388366
0.0382186
0.390948
1.03474
1.80524
2.81661
3.91237
7.00632
15.1772
41.8769
56.0037
0.00776886
0.00675677
0.00619887
0.00573983
0.00535887
0.00504059
0.00477305
0.00454705
0.00435536
0.00419224
0.00405328
0.00427288
0.1216
0.627355
1.31711
2.09896
3.12538
4.35844
7.77464
17.167
45.839
58.0812
0.00765973
0.00665603
0.00610587
0.00565319
0.00527745
0.00496353
0.00469965
0.00447673
0.00428766
0.0041268
0.00398984
0.00961948
0.252589
0.838397
1.53545
2.31889
3.35322
4.69432
8.41274
18.9541
49.8611
60.2902
0.00754386
0.00654905
0.00600779
0.00556251
0.00519301
0.00488436
0.00462496
0.00440589
0.00422015
0.00406218
0.00392822
0.0337849
0.398988
1.01122
1.70359
2.48653
3.52605
4.95552
8.95441
20.5397
53.8634
62.571
0.00744228
0.00645539
0.00592144
0.00548216
0.00511763
0.00481316
0.00455728
0.00434121
0.00415803
0.00400231
0.00387303
0.0887908
0.535082
1.14956
1.83559
2.61781
3.66167
5.16701
9.42531
21.9379
57.7883
64.9213
0.00733974
0.00636059
0.00583446
0.00540167
0.00504259
0.0047427
0.0044907
0.00427794
0.00409761
0.00394435
0.00380996
0.166184
0.651605
1.26164
1.94207
2.72372
3.77192
5.3454
9.84364
23.1674
61.6019
67.2818
0.00724503
0.00627336
0.00575408
0.00532696
0.00497258
0.00467666
0.00442803
0.00421816
0.00404032
0.00388927
0.0042962
0.24945
0.748992
1.35461
2.03041
2.81175
3.86481
5.50158
10.2218
24.2473
65.2879
69.6617
0.0071549
0.00618996
0.00567755
0.00525607
0.00490641
0.0046144
0.00436905
0.00416194
0.00398645
0.00383745
0.0101929
0.328582
0.831067
1.4338
2.10576
2.88711
3.94585
5.64249
10.5679
25.1955
68.8483
72.0102
0.00706404
0.00610644
0.00560077
0.0051849
0.00483993
0.00455193
0.00431001
0.00410587
0.00393298
0.00378678
0.0302904
0.399906
0.901756
1.50297
2.17174
2.95351
4.01892
5.77231
10.887
26.0279
72.2976
74.3523
0.00698484
0.00603296
0.00553317
0.0051221
0.00478111
0.00449637
0.00425716
0.00405527
0.00388427
0.00374182
0.0667228
0.463355
0.964153
1.56479
2.23101
3.01365
4.08675
5.89327
11.1822
26.759
75.6657
76.6493
0.00689826
0.00595346
0.00546017
0.00505456
0.00471816
0.00443738
0.00420158
0.00400268
0.00383429
0.00370215
0.111949
0.520035
1.02054
1.62123
2.28556
3.06954
4.15116
6.00643
11.4554
27.4014
78.9923
78.9445
0.00683009
0.00589009
0.00540178
0.00500016
0.004667
0.0043888
0.00415509
0.00395786
0.00379086
0.00368408
0.158427
0.571385
1.07254
1.67378
2.33687
3.12263
4.21321
6.11223
11.7076
27.9666
82.3305
81.212
0.0067443
0.0058116
0.00533
0.00493408
0.00460577
0.0043318
0.00410177
0.00390777
0.00374363
0.00364654
0.202759
0.618755
1.12136
1.72355
2.3861
3.17395
4.27338
6.21091
11.9398
28.4645
85.7415
83.5114
0.00668526
0.00575641
0.00527888
0.00488613
0.00456036
0.00428835
0.00405986
0.00386708
0.00370396
0.00385877
0.244414
0.663251
1.16789
1.77145
2.43405
3.22418
4.33179
6.30276
12.1524
28.9038
89.2958
85.8273
0.00660144
0.00567985
0.00520902
0.00482202
0.00450118
0.00423349
0.00400879
0.00381934
0.00365926
0.00592872
0.283957
0.705732
1.21281
1.81817
2.48134
3.27367
4.38837
6.38808
12.3462
29.2916
93.0669
88.2307
0.00655188
0.00563328
0.00516564
0.00478102
0.00446197
0.00419557
0.00397181
0.00378302
0.00362385
0.0118574
0.322156
0.74685
1.25665
1.86422
2.52834
3.32263
4.44309
6.46725
12.5219
29.6339
97.1299
90.7106
0.00646769
0.0055567
0.00509611
0.00471759
0.00440383
0.0041421
0.00392243
0.00373726
0.00358228
0.0233636
0.359669
0.7871
1.29986
1.90999
2.5753
3.37113
4.49595
6.54069
12.6803
29.9354
101.553
93.3406
0.00642557
0.00551671
0.00505848
0.0046816
0.00436899
0.00410799
0.0038888
0.0037039
0.00355139
0.0415878
0.396977
0.826866
1.34277
1.95576
2.62235
3.4192
4.54703
6.60883
12.8222
30.2
106.397
96.1058
0.006343
0.00544174
0.00499055
0.00461982
0.00431257
0.00405634
0.00384131
0.00366011
0.00351543
0.0666772
0.434408
0.866449
1.38565
2.00172
2.66955
3.46688
4.59649
6.67209
12.9485
30.431
111.708
99.0732
0.00630943
0.00540955
0.00495992
0.00459007
0.00428327
0.00402711
0.00381197
0.00363051
0.00349479
0.0980875
0.472171
0.906082
1.42869
2.048
2.71696
3.51424
4.64452
6.73093
13.0601
30.6316
117.52
102.217
0.00622485
0.00533311
0.00489104
0.00452788
0.00422696
0.00397604
0.0037655
0.00358811
0.00347388
0.134888
0.510387
0.945948
1.47205
2.09469
2.76459
3.56137
4.69137
6.78578
13.1583
30.8049
123.853
105.592
0.00619812
0.005307
0.0048657
0.00450268
0.00420155
0.00395012
0.00373898
0.00356093
0.0034796
0.176099
0.549101
0.986178
1.51582
2.14183
2.8125
3.60839
4.7373
6.83709
13.2439
30.9541
130.72
109.157
0.00611102
0.0052287
0.00479556
0.00443978
0.00414503
0.00389929
0.00369313
0.00351947
0.00355527
0.220715
0.588281
1.02686
1.56007
2.18946
2.86073
3.65544
4.78261
6.88532
13.3182
31.0817
138.126
112.957
0.00608759
0.00520554
0.00477275
0.00441672
0.00412139
0.00387483
0.00366782
0.00349333
0.00655772
0.267632
0.627817
1.06804
1.60481
2.23761
2.90933
3.70268
4.8276
6.93094
13.3823
31.1896
146.072
116.938
0.00599548
0.00512333
0.00469959
0.00435158
0.0040633
0.003823
0.00362145
0.00345174
0.0343845
0.315424
0.667519
1.10971
1.65005
2.28626
2.95836
3.75028
4.87261
6.97444
13.4376
31.2786
154.54
121.137
0.0059673
0.00509607
0.00467322
0.00432538
0.00403688
0.00379609
0.003594
0.00342442
0.0871767
0.361722
0.707131
1.15185
1.69573
2.33543
3.00789
3.79842
4.91795
7.0163
13.4854
31.3481
163.473
125.495
0.00586249
0.00500293
0.0045907
0.00425226
0.00397202
0.00373855
0.00354284
0.00338436
0.131887
0.404247
0.746365
1.19436
1.74181
2.38507
3.05796
3.84726
4.96395
7.05705
13.5271
31.3962
172.734
130.045
0.00582102
0.00496368
0.00455347
0.00421617
0.00393657
0.00370343
0.00350799
0.00338546
0.16357
0.442122
0.784939
1.23714
1.78819
2.43515
3.10863
3.89698
5.01092
7.09726
13.5641
31.4207
182.044
134.727
0.00569929
0.00485593
0.00445805
0.00413137
0.00386101
0.00363598
0.00344765
0.00433743
0.186038
0.475394
0.822609
1.28004
1.83479
2.48558
3.15992
3.94774
5.05914
7.13751
13.5975
31.4199
190.912
139.588
0.0056171
0.00478959
0.00440384
0.00408553
0.00382082
0.00359942
0.0034133
0.00657821
0.202397
0.504462
0.859182
1.32289
1.88149
2.53624
3.21185
3.99964
5.10889
7.17845
13.6283
31.3937
198.629
144.654
0.0052545
0.00445997
0.00411146
0.00382603
0.00358889
0.00339039
0.00322361
0.0079849
0.214544
0.529744
0.894498
1.36546
1.92819
2.58699
3.26439
4.05278
5.16039
7.22083
13.6567
31.3428
204.374
150.447
95.0235
92.2199
60.6317
46.7929
39.4062
32.7197
31.2816
28.5837
26.7245
25.6938
26.9723
27.7164
30.0499
32.9554
34.1093
34.886
37.9211
41.9149
43.3238
41.8315
40.2486
40.0841
38.9896
31.986
21.7045
11.1181
5.95347
4.87374
4.68669
4.84153
5.16275
5.35354
5.33236
4.82673
4.15587
94.6475
92.8289
61.6373
48.6217
41.2457
34.0276
32.5862
29.7024
27.7271
26.3809
27.2135
28.0176
30.6689
33.8935
35.1656
35.5185
38.0226
41.9775
43.6291
42.2908
40.7658
40.596
39.5343
32.5229
22.0501
11.2168
5.95784
4.86882
4.68177
4.83647
5.15689
5.34637
5.32462
4.81909
4.14959
93.9266
93.7831
63.4531
52.0818
44.7802
36.5604
35.0252
31.6872
29.3951
27.547
27.7152
28.4883
31.5345
35.6114
37.4118
37.0061
38.3516
41.8651
43.7295
42.6695
41.3351
41.141
39.983
33.1209
22.5304
11.3332
5.95832
4.85886
4.67191
4.82635
5.1452
5.33207
5.30915
4.80385
4.13707
92.8104
94.9962
66.1098
57.2297
49.9458
40.2929
38.4775
34.4391
31.7356
29.2954
28.5908
29.2653
32.92
38.3285
41.1821
39.8647
39.3191
41.8028
43.7756
43.1553
42.1868
42.0059
40.6535
33.9455
23.2199
11.4914
5.95678
4.84393
4.65716
4.8112
5.12769
5.31065
5.28601
4.78103
4.11832
91.3035
96.3919
69.62
63.8922
56.5725
45.1739
42.8823
37.9806
34.8246
31.6861
29.9988
30.5894
35.1112
42.1953
46.7583
44.7709
41.6118
42.2302
43.9999
43.9657
43.5623
43.4675
41.8415
35.1656
24.1998
11.7164
5.95524
4.8241
4.63752
4.79104
5.10439
5.28214
5.25523
4.75068
4.0934
89.3553
97.8972
73.961
71.6396
64.4116
51.1302
48.2195
42.3828
38.7799
34.8235
32.1261
32.7486
38.4207
47.2725
54.1268
52.3283
46.1836
43.9282
44.8666
45.4384
45.7661
45.8363
43.8571
36.9774
25.5695
12.0361
5.95591
4.79948
4.61304
4.76589
5.07533
5.24655
5.21687
4.71285
4.06237
87.0012
99.4412
79.0528
79.7821
73.1123
58.0399
54.486
47.7407
43.761
38.8807
35.2137
36.0816
43.1985
53.5832
62.9282
62.7292
54.1112
48.0671
47.2072
48.1297
49.2345
49.5151
47.0784
39.6375
27.4617
12.4841
5.96125
4.77015
4.58376
4.73577
5.04052
5.20394
5.17099
4.66761
4.02529
84.2135
100.955
84.7455
87.5096
82.2067
65.6721
61.6351
54.1282
49.9436
44.1131
39.5898
41.0047
49.8328
61.1972
72.5957
75.3925
66.2014
56.1375
52.3169
52.9362
54.6353
55.0833
52.0252
43.509
30.0639
13.102
5.97403
4.73624
4.54974
4.70073
5.00002
5.15433
5.11769
4.61506
3.98227
81.0699
102.373
90.8447
94.2141
91.1787
73.6482
69.5003
61.5231
57.4422
50.8353
45.6839
48.0016
58.6082
70.1684
82.5258
88.7818
82.0784
69.5407
61.9626
61.2375
63.0095
63.4111
59.4543
49.1245
33.6498
13.9429
5.99732
4.69789
4.51103
4.66081
4.95388
5.09779
5.05706
4.55531
3.93341
77.574
103.633
97.1652
99.7904
99.6191
81.4933
77.743
69.7222
66.1794
59.3585
53.9653
57.4069
69.2334
80.2066
92.1804
100.887
99.103
88.1173
77.8921
74.9101
75.8888
75.7677
70.4558
57.2603
38.6203
15.075
6.0344
4.65523
4.46774
4.61607
4.90216
5.03442
4.98927
4.4885
3.87887
73.8369
104.681
103.646
104.629
107.365
88.7895
85.8692
78.2772
75.7093
69.7317
64.6725
68.9349
80.3212
90.302
101.096
110.377
113.203
107.967
99.7057
95.4824
95.0218
93.6959
86.3961
68.9545
45.5435
16.5837
6.08861
4.60842
4.41997
4.56661
4.84496
4.96432
4.91448
4.41484
3.81883
69.8857
105.46
110.421
109.328
114.519
95.3561
93.3643
86.5466
85.1662
81.4146
77.3248
81.1003
89.7184
98.8571
108.81
117.268
122.149
122.936
121.883
121.198
120.673
117.932
108.192
85.2156
55.1301
18.5682
6.16289
4.55761
4.36786
4.51253
4.7824
4.88764
4.83292
4.33455
3.75349
65.8489
105.904
117.738
114.391
121.338
101.323
99.8955
93.8801
93.5166
93.0474
90.2434
91.6163
96.1542
104.698
114.877
122.354
126.941
130.568
136.794
144.49
148.182
145.576
134.075
105.821
67.9499
21.1231
6.2591
4.5029
4.31157
4.45395
4.71462
4.80457
4.74484
4.24791
3.6831
61.7626
105.914
125.71
120.092
128.097
107.052
105.473
99.9222
100.102
102.875
101.074
99.0195
100.008
107.959
119.089
126.296
129.73
133.3
142.718
157.672
168.286
168.328
157.093
127.024
83.5286
24.2874
6.37688
4.44438
4.25126
4.39104
4.64178
4.71535
4.65057
4.15525
3.60796
57.7502
105.347
133.985
126.473
134.992
112.982
110.455
104.775
104.898
109.738
108.289
103.725
102.714
109.874
121.734
129.326
131.845
134.243
143.454
160.762
175.626
178.269
168.418
141.32
98.9425
27.9547
6.51225
4.38205
4.18715
4.32396
4.5641
4.62023
4.55045
4.05695
3.52837
53.8399
104.021
141.62
133.413
142.131
119.492
115.372
108.99
108.501
113.772
112.353
107.108
105.628
111.815
123.54
131.511
133.579
134.813
142.505
158.476
172.916
175.307
165.688
143.313
109.026
31.7875
6.65652
4.31587
4.11945
4.25292
4.48179
4.51953
4.44487
3.95342
3.44471
50.1273
101.77
147.468
140.699
149.604
126.769
120.745
113.288
111.791
116.173
114.944
110.73
109.742
114.73
125.326
133.035
134.777
135.114
141.114
154.262
165.266
164.723
153.7
134.743
110.203
35.2525
6.79631
4.24571
4.04838
4.17813
4.3951
4.41361
4.33429
3.84513
3.35735
46.6135
98.5287
150.936
148.077
157.399
134.92
126.983
118.336
115.646
118.48
117.911
115.709
115.674
119.09
127.677
134.223
135.334
134.855
139.238
149.226
155.726
151.181
138.186
121.096
103.626
37.8104
6.9154
4.17143
3.97418
4.09982
4.30432
4.30284
4.21917
3.7326
3.2667
43.349
94.4207
152.404
155.262
165.471
143.954
134.332
124.615
120.729
121.96
122.561
123.013
124.014
125.179
130.874
135.374
135.313
133.856
136.59
143.389
145.367
137.043
122.51
106.642
93.1423
39.1199
6.99784
4.09288
3.89711
4.01826
4.20974
4.18766
4.10002
3.61635
3.17321
40.3033
89.7966
152.904
162.033
173.723
153.785
142.884
132.405
127.498
127.472
129.812
133.312
135.326
133.292
135.038
136.674
134.87
132.142
133.047
136.636
134.498
123.26
108.047
93.3613
81.9643
39.1217
7.03103
4.00997
3.81743
3.93369
4.11167
4.06853
3.97738
3.49697
3.07732
37.4893
85.2396
153.241
168.319
182.036
164.238
152.583
141.791
136.186
135.47
140.205
147.365
150.347
143.909
140.323
138.241
134.177
129.866
128.693
129.039
123.363
110.253
95.2049
81.8288
71.6904
37.995
7.00773
3.92269
3.73538
3.8464
4.01045
3.94592
3.85179
3.37503
2.9795
34.8769
81.5511
153.684
174.162
190.283
175.082
163.266
152.705
146.883
146.2
154.153
165.721
169.763
157.64
147.034
140.244
133.434
127.251
123.734
120.843
112.29
98.2794
84.0221
72.0299
62.8118
36.0464
6.9265
3.83114
3.65125
3.75665
3.90643
3.82035
3.72383
3.25113
2.88019
32.4767
79.1232
154.356
179.616
198.344
186.054
174.694
164.95
159.526
159.7
171.819
188.951
194.238
175.19
155.623
142.961
132.894
124.55
118.426
112.376
101.637
87.5053
74.3992
63.7628
55.3141
33.599
6.79077
3.73555
3.56529
3.66474
3.79995
3.69232
3.59406
3.12586
2.77987
30.2708
78.082
155.188
184.71
206.101
196.895
186.59
178.265
173.971
175.905
193.234
217.144
223.911
197.044
166.581
146.76
132.862
122.025
113.031
103.973
91.7064
78.0018
66.1842
56.7932
49.0136
30.9216
6.60729
3.63625
3.47778
3.57095
3.69139
3.56237
3.46306
2.99983
2.67899
28.2673
78.4956
156.042
189.432
213.442
207.368
198.67
192.347
189.984
194.618
218.182
250.134
258.324
223.164
180.248
151.978
133.613
119.883
107.771
95.9172
82.6994
69.7522
59.2055
50.9048
43.699
28.2049
6.38454
3.53367
3.38897
3.47556
3.58111
3.43104
3.33137
2.8736
2.57797
26.4614
80.2571
156.846
193.742
220.267
217.273
210.672
206.909
207.311
215.597
246.343
287.09
295.999
252.442
196.522
158.787
135.31
118.228
102.798
88.4158
74.708
62.6731
53.2908
45.9109
39.1804
25.5684
6.1315
3.42829
3.29914
3.37886
3.46947
3.29884
3.19955
2.74774
2.47723
24.8623
82.9752
157.582
197.591
226.497
226.468
222.375
221.691
225.676
238.529
277.236
326.989
334.938
282.727
214.549
167.003
137.893
117.009
98.1716
81.5913
67.7353
56.6423
48.2778
41.6551
35.3002
23.0778
5.85681
3.32066
3.20854
3.28114
3.35684
3.16632
3.06811
2.62276
2.37716
23.4808
85.897
158.252
200.933
232.083
234.877
233.629
236.502
244.839
263.108
310.345
368.343
372.667
311.219
232.651
176.002
141.048
116.027
93.869
75.487
61.7208
51.5221
44.0214
38.0078
31.9319
20.7638
5.56833
3.21135
3.11742
3.18267
3.24358
3.03396
2.93755
2.49916
2.27813
22.3333
88.0652
158.868
203.746
237.015
242.496
244.361
251.214
264.587
289.008
345.073
409.75
406.953
335.41
248.743
184.731
144.215
114.975
89.8087
70.0877
56.5693
47.1767
40.3963
34.8622
28.9755
18.6359
5.27291
3.10091
3.02604
3.08372
3.13004
2.90226
2.80832
2.3774
2.18045
21.4546
88.8317
159.436
206.026
241.317
249.375
254.571
265.782
284.781
315.971
380.886
449.61
435.69
353.406
261.038
192.002
146.728
113.535
85.8965
65.3385
52.1702
43.4816
37.2964
32.1308
26.3522
16.6922
4.97633
2.98993
2.93463
2.98457
3.01656
2.77169
2.68086
2.25789
2.08444
20.8892
88.3525
159.956
207.79
245.04
255.601
264.32
280.228
305.35
343.806
417.33
486.633
457.391
364.178
268.449
196.811
147.976
111.458
82.0595
61.1652
48.4127
40.3282
34.6337
29.7413
24.0005
14.9249
4.6833
2.87892
2.84342
2.88547
2.90347
2.64267
2.55556
2.14098
1.99034
20.7351
87.4779
160.419
209.071
248.257
261.292
273.728
294.663
326.354
372.538
454.207
519.461
470.863
367.315
270.587
198.597
147.576
108.632
78.2632
57.486
45.193
37.6243
32.3357
27.6346
21.8726
13.3238
4.39754
2.7684
2.75263
2.78666
2.79108
2.51561
2.43276
2.02702
1.8984
21.1259
87.1352
160.802
209.914
251.054
266.586
282.973
309.308
348.042
402.488
491.574
546.981
475.487
362.995
267.557
197.193
145.395
105.069
74.5026
54.2202
42.4185
35.2934
30.3427
25.7619
19.9316
11.878
4.12186
2.65883
2.66247
2.68837
2.6797
2.39089
2.31279
1.91626
1.80881
22.2957
87.8691
161.076
210.367
253.53
271.653
292.333
324.585
371.022
434.517
529.775
567.704
470.812
351.708
259.776
192.74
141.509
100.861
70.7844
51.2904
40.0079
33.2723
28.6057
24.0828
18.1494
10.5764
3.85822
2.55063
2.57314
2.59084
2.5696
2.26884
2.1959
1.80896
1.72173
24.5223
89.7907
161.209
210.475
255.796
276.717
302.236
341.246
396.462
470.201
569.027
579.859
456.804
334.258
247.836
185.53
136.099
96.1253
67.1096
48.6241
37.8915
31.5089
27.0837
22.564
16.505
9.40791
3.60791
2.44416
2.48481
2.49426
2.46104
2.14975
2.08235
1.7053
1.63732
28.1637
92.7324
161.178
210.282
257.986
282.09
313.39
360.64
426.498
512.063
608.562
580.791
433.637
311.616
232.445
175.95
129.388
90.9686
63.468
46.1548
36.0093
29.9597
25.7422
21.1778
14.9828
8.36205
3.37157
2.33973
2.39766
2.39884
2.35429
2.03391
1.97234
1.60545
1.55567
33.4954
96.4055
160.964
209.825
260.266
288.245
326.974
385.121
464.699
563.211
644.775
567.591
402.137
284.998
214.394
164.423
121.598
85.4735
59.8395
43.8232
34.31
28.5878
24.552
19.9009
13.5713
7.42837
3.14938
2.23761
2.31184
2.30476
2.24957
1.92155
1.86604
1.50954
1.47689
40.701
100.505
160.555
209.143
262.872
295.93
344.991
418.705
516.447
625.382
669.231
537.71
363.749
255.779
194.545
151.415
112.948
79.7042
56.2015
41.579
32.7499
27.361
23.4874
18.7142
12.2621
6.59679
2.94113
2.13802
2.2275
2.21219
2.14712
1.8129
1.76361
1.41767
1.40105
49.6321
104.775
159.942
208.283
266.147
306.364
370.809
467.742
587.571
692.64
668.945
490.977
320.824
225.49
173.802
137.414
103.651
73.7144
52.5347
39.3821
31.2921
26.2513
22.5261
17.6015
11.049
5.85762
2.74634
2.04113
2.14477
2.12132
2.04714
1.70815
1.66518
1.32993
1.32821
59.8743
109.044
159.117
207.31
270.634
321.565
409.909
540.154
676.548
741.909
632.532
430.519
276.168
195.613
153.061
122.934
93.9319
67.5614
48.8312
37.2043
29.9064
25.2338
21.6486
16.5495
9.92719
5.20161
2.56432
1.94711
2.0638
2.03231
1.94985
1.60747
1.57085
1.24637
1.25842
70.5911
113.232
158.075
206.326
277.213
344.898
470.074
637.061
755.047
736.253
559.377
362.802
232.706
167.455
133.133
108.485
84.0229
61.312
45.0972
35.0296
28.569
24.287
20.8379
15.5475
8.89286
4.62009
2.39429
1.85606
1.98471
1.94532
1.85544
1.51103
1.48071
1.16703
1.19171
80.9187
117.349
156.805
205.497
287.384
381.817
556.767
727.299
763.355
657.63
462.801
295.207
192.744
141.948
114.676
94.5448
74.1673
55.0489
41.3561
32.8548
27.2623
23.3929
20.0797
14.5871
7.9426
4.10507
2.23542
1.76811
1.90761
1.86053
1.76411
1.41896
1.39483
1.09194
1.1281
89.3733
121.486
155.29
205.11
303.802
439.557
650.766
737.511
670.973
530.806
362.362
233.765
157.757
119.639
98.1468
81.5218
64.6026
48.8667
37.6459
30.6881
25.9753
22.5372
19.3621
13.6621
7.07332
3.64925
2.08688
1.68334
1.83265
1.77812
1.67605
1.33138
1.31326
1.02109
1.06762
95.1437
125.852
153.494
205.689
331.167
517.291
678.794
634.714
522.62
399.348
273.294
181.652
128.233
100.652
83.7681
69.7206
55.551
42.8693
34.0156
28.547
24.7026
21.7092
18.6762
12.7685
6.28195
3.24607
1.94789
1.60184
1.75993
1.69824
1.59141
1.24838
1.23602
0.954467
1.01025
0.00337752
0.00250071
0.00226638
0.00215236
0.00211289
0.00211695
0.0021503
0.00844224
0.22139
0.546129
0.919846
1.39671
1.96256
2.62415
3.30321
4.09257
5.19974
7.25411
13.6768
31.2897
206.647
160.021
0.00334398
0.00224089
0.00183741
0.00159853
0.00147593
0.00143653
0.00146857
0.00864095
0.224813
0.555007
0.934461
1.41456
1.98162
2.64417
3.324
4.11431
5.22272
7.27547
13.6923
31.2579
207.584
170.063
0.00354015
0.00237558
0.00188133
0.00154232
0.001319
0.00118639
0.00115562
0.00876141
0.227084
0.561447
0.945846
1.42816
1.99544
2.65797
3.33812
4.12964
5.24071
7.29452
13.708
31.2355
207.67
179.658
0.0036704
0.00251727
0.00200403
0.00162966
0.00135713
0.00116476
0.00103178
0.00882999
0.22835
0.565567
0.953927
1.43739
2.00387
2.66543
3.34548
4.13844
5.2536
7.31119
13.7229
31.2238
206.969
188.659
0.0039223
0.00276417
0.00222747
0.00182343
0.00151518
0.00128054
0.00100229
0.00885928
0.228701
0.567449
0.958644
1.44215
2.00679
2.6665
3.34601
4.14063
5.26124
7.32535
13.736
31.224
205.526
197.533
0.00405983
0.0029297
0.00239919
0.00199317
0.00167623
0.00142629
0.000993025
0.00885587
0.228195
0.56716
0.959971
1.44238
2.00419
2.66116
3.33967
4.13615
5.26344
7.3368
13.746
31.2367
203.373
206.452
0.00434025
0.00320833
0.00266088
0.00223533
0.00189788
0.00162665
0.00106358
0.00882279
0.226878
0.564768
0.957927
1.4381
1.99606
2.64947
3.32649
4.12492
5.26001
7.34528
13.7516
31.2627
200.552
215.417
0.00447822
0.00337929
0.00284469
0.00242477
0.00208787
0.00181313
0.00119109
0.00876054
0.224787
0.560349
0.952581
1.42938
1.9825
2.6315
3.30654
4.1069
5.2507
7.35043
13.7515
31.3018
197.111
224.369
0.00478385
0.00368507
0.00313619
0.00269909
0.00234423
0.00205156
0.00131634
0.00866812
0.221957
0.553993
0.944054
1.41634
1.96366
2.60741
3.27991
4.08206
5.23524
7.35183
13.7443
31.3534
193.108
233.237
0.00490836
0.0038489
0.00332032
0.00289603
0.0025484
0.00225844
0.00140615
0.00854376
0.218425
0.545809
0.932516
1.39916
1.93974
2.57741
3.24677
4.05038
5.21333
7.34896
13.7288
31.4161
188.604
241.942
0.00522924
0.00417174
0.00363174
0.00319283
0.00282955
0.00252385
0.00151993
0.00838541
0.214226
0.535921
0.918175
1.37809
1.91102
2.54176
3.20732
4.01189
5.18466
7.34123
13.7037
31.4877
183.665
250.373
0.00533899
0.00432475
0.00381065
0.00339044
0.00304014
0.00274269
0.00163854
0.00819013
0.209395
0.524465
0.901269
1.35342
1.87781
2.50074
3.1618
3.96664
5.14891
7.32798
13.6676
31.5647
178.361
258.401
0.00567197
0.00466147
0.00413852
0.00370587
0.00334174
0.00303022
0.00184285
0.00795435
0.203962
0.511584
0.882057
1.32546
1.84048
2.45472
3.11052
3.91475
5.10576
7.30846
13.6193
31.6427
172.76
265.877
0.00575598
0.00479294
0.00430184
0.0038942
0.00354937
0.00325219
0.00212001
0.00767263
0.19795
0.497421
0.860806
1.29459
1.79942
2.40408
3.05379
3.85637
5.05494
7.28185
13.5575
31.7161
166.932
272.652
0.00609199
0.00513389
0.00463611
0.00421809
0.00386136
0.00355203
0.00252516
0.00733871
0.191366
0.482114
0.837781
1.26116
1.75506
2.34925
2.99201
3.79172
4.9962
7.24727
13.481
31.7781
160.943
278.578
0.00615193
0.00524297
0.00478075
0.00439215
0.00405948
0.00376941
0.00299088
0.00694353
0.184201
0.465781
0.813235
1.22557
1.70783
2.29065
2.92558
3.72105
4.92936
7.20378
13.3885
31.8207
154.854
283.525
0.00648668
0.00558367
0.00511658
0.00471924
0.00437612
0.00407526
0.0035038
0.00647835
0.176418
0.448515
0.787398
1.1882
1.65819
2.22876
2.85493
3.64471
4.85434
7.15044
13.2788
31.8352
148.721
287.383
0.00651815
0.00566545
0.00523696
0.00487287
0.00455806
0.00428093
0.00389837
0.00593268
0.167945
0.430371
0.760469
1.14942
1.60657
2.16403
2.78053
3.56305
4.77114
7.08629
13.1507
31.8118
142.594
290.069
0.00683896
0.00599303
0.00556149
0.00519052
0.00486708
0.00458098
0.00427529
0.0053152
0.15867
0.411356
0.732602
1.10958
1.55344
2.09696
2.70286
3.47652
4.67985
7.01041
13.0032
31.7402
136.516
291.524
0.00685331
0.00605572
0.00566266
0.00532575
0.00503213
0.00477178
0.00452856
0.00466564
0.148431
0.391411
0.703895
1.06897
1.49922
2.02801
2.6224
3.38557
4.58071
6.92194
12.8352
31.6096
130.522
291.716
0.00716008
0.00636998
0.00597537
0.005633
0.00533201
0.00506376
0.00482469
0.00412257
0.137018
0.3704
0.674379
1.02787
1.44433
1.95765
2.53965
3.29072
4.47403
6.82013
12.6458
31.4096
124.641
290.63
0.00715648
0.00641247
0.00605579
0.00574785
0.00547772
0.00523676
0.00502345
0.00393046
0.124182
0.348094
0.643991
0.986452
1.38914
1.88634
2.45508
3.19248
4.36027
6.70438
12.4344
31.1298
118.892
288.268
0.00744658
0.00671022
0.00635291
0.0060405
0.00576393
0.00551592
0.00529394
0.00419413
0.109674
0.324163
0.612559
0.944814
1.33398
1.81451
2.36919
3.09142
4.23997
6.57429
12.2004
30.7609
113.293
284.642
0.00743043
0.00673697
0.00641589
0.00613703
0.0058911
0.0056707
0.00547134
0.00469333
0.0933422
0.298175
0.579773
0.902937
1.27912
1.74259
2.28245
2.98809
4.11376
6.42967
11.9434
30.2947
107.852
279.776
0.00770421
0.00701832
0.00669721
0.00641456
0.00616281
0.00593585
0.0057289
0.0052535
0.0753301
0.269626
0.545159
0.860643
1.22473
1.67096
2.19531
2.88306
3.98238
6.27059
11.6634
29.725
102.572
273.695
0.00767662
0.00703035
0.00674351
0.00649315
0.00627142
0.00607194
0.00588905
0.00562285
0.0563981
0.23803
0.508067
0.817565
1.17086
1.59995
2.10822
2.77689
3.84661
6.09737
11.3605
29.0475
97.4529
266.44
0.00793336
0.00729428
0.00700765
0.00675391
0.00652677
0.00632106
0.00613188
0.00592868
0.038194
0.203117
0.467662
0.773089
1.11735
1.52984
2.02158
2.67014
3.70733
5.91066
11.0352
28.2608
92.489
258.053
0.00789942
0.00729632
0.00704141
0.00681801
0.00661945
0.00644026
0.00627513
0.00611315
0.0230315
0.165198
0.422981
0.726314
1.06384
1.46076
1.93577
2.56335
3.56544
5.71137
10.6879
27.3664
87.6697
248.593
0.00814126
0.00754482
0.00729016
0.00706357
0.0068598
0.00667449
0.00650336
0.00634048
0.0129133
0.125649
0.373078
0.676017
1.00963
1.39265
1.85109
2.45704
3.42189
5.50075
10.3197
26.3686
82.982
238.132
0.00810327
0.00753932
0.00731384
0.00711553
0.00693874
0.00677876
0.00663095
0.0064901
0.00805394
0.0873253
0.317373
0.620647
0.953617
1.3252
1.76771
2.35168
3.27769
5.28032
9.93185
25.2751
78.4078
226.761
0.00833033
0.00777246
0.00754716
0.0073458
0.00716398
0.00699804
0.00684432
0.00669879
0.00669963
0.0542064
0.25631
0.55842
0.894243
1.2577
1.68562
2.24767
3.13381
5.05194
9.52575
24.0965
73.9273
214.588
0.00829258
0.00776373
0.00756487
0.00738943
0.00723259
0.00709034
0.00695863
0.00683329
0.00662779
0.029833
0.192281
0.487631
0.829422
1.18894
1.60449
2.14524
2.99125
4.8178
9.10335
22.846
69.5179
201.746
0.00850612
0.00798278
0.00778405
0.00760571
0.00744406
0.00729601
0.00715846
0.00702815
0.00685384
0.0155063
0.130365
0.407416
0.75654
1.1171
1.52357
2.04444
2.85088
4.58032
8.66707
21.539
65.1579
188.381
0.00847096
0.00797342
0.00779847
0.00764368
0.00750496
0.00737885
0.00726184
0.00715038
0.00702495
0.00919727
0.0776869
0.319155
0.672685
1.03964
1.44151
1.94495
2.71342
4.34217
8.21992
20.1928
60.8274
174.662
0.00867177
0.00817922
0.00800434
0.00784682
0.00770353
0.00757186
0.00744915
0.00733265
0.00721437
0.00727963
0.0403511
0.228223
0.575379
0.953285
1.35621
1.84594
2.57926
4.10612
7.76565
18.8256
56.5137
160.762
0.00864154
0.00817176
0.00801809
0.00788176
0.00775929
0.00764769
0.00754392
0.00744487
0.00734561
0.007005
0.0195254
0.144502
0.464325
0.854121
1.26472
1.74594
2.44833
3.87477
7.30873
17.4565
52.2128
146.863
0.00883173
0.00836642
0.00821271
0.00807375
0.00794691
0.00782996
0.00772061
0.0076165
0.00751435
0.00722069
0.0108261
0.0792709
0.344288
0.738378
1.16312
1.64268
2.31987
3.65035
6.85429
16.1047
47.9349
133.142
0.00880912
0.00836381
0.0082289
0.00810887
0.00800075
0.00790196
0.00780985
0.0077217
0.00763432
0.00745981
0.00814876
0.0384458
0.227336
0.604387
1.04659
1.53297
2.19234
3.43429
6.40778