/*--------------------------------*- C++ -*----------------------------------*\
| =========                 |                                                 |
| \\      /  F ield         | OpenFOAM: The Open Source CFD Toolbox           |
|  \\    /   O peration     | Version:  v1912                                 |
|   \\  /    A nd           | Website:  www.openfoam.com                      |
|    \\/     M anipulation  |                                                 |
\*---------------------------------------------------------------------------*/
FoamFile
{
    version     2.0;
    format      ascii;
    class       volScalarField;
    location    "180";
    object      nut;
}
// * * * * * * * * * * * * * * * * * * * * * * * * * * * * * * * * * * * * * //

dimensions      [0 2 -1 0 0 0 0];


internalField   nonuniform List<scalar> 
12441
(
5.82205e-24
1.79056e-20
8.10507e-20
3.32545e-19
1.06833e-18
3.88849e-18
1.0106e-17
2.50055e-17
6.13839e-17
1.2753e-16
3.05653e-16
7.7148e-16
2.18093e-15
7.40644e-15
1.03656e-13
1.89455e-11
0.000199121
0.00101442
0.00324285
0.00270588
0.00364502
0.00775321
6.34216e-24
3.03361e-20
1.11736e-19
4.2396e-19
1.30217e-18
4.80768e-18
1.21993e-17
3.00118e-17
7.36125e-17
1.54459e-16
3.79813e-16
1.02927e-15
2.8282e-15
9.38089e-15
1.13092e-13
3.90003e-11
5.87702e-05
0.00123128
0.00371031
0.00294555
0.00400701
0.00781733
6.36492e-24
3.58968e-20
1.20783e-19
4.48145e-19
1.37782e-18
4.90713e-18
1.29299e-17
3.20431e-17
8.05179e-17
1.71781e-16
4.17908e-16
1.11755e-15
2.78494e-15
7.6701e-15
5.35326e-14
6.57319e-12
1.11982e-05
0.000900757
0.00147355
0.00277764
0.00415963
0.0078909
6.31939e-24
3.76932e-20
1.18539e-19
4.29326e-19
1.32544e-18
4.71398e-18
1.25144e-17
3.13292e-17
7.84987e-17
1.73686e-16
4.23786e-16
1.15411e-15
2.61043e-15
8.47988e-15
3.85143e-14
1.54307e-12
1.63114e-06
0.000625817
0.00109631
0.00269715
0.00432202
0.0079647
6.28534e-24
4.38846e-20
1.29784e-19
4.58331e-19
1.40278e-18
4.77975e-18
1.30919e-17
3.27972e-17
8.43028e-17
1.87539e-16
4.54201e-16
1.28481e-15
3.01917e-15
4.07489e-14
2.47276e-13
2.29771e-12
1.39847e-07
0.000439813
0.00107234
0.00268236
0.0044628
0.00803394
6.23517e-24
4.12897e-20
1.20545e-19
4.29207e-19
1.34282e-18
4.62251e-18
1.27515e-17
3.23957e-17
8.28998e-17
1.92704e-16
4.76992e-16
1.44573e-15
4.5326e-15
1.32985e-12
1.1901e-11
5.10364e-11
4.59196e-07
0.000400624
0.00113312
0.0027392
0.00459097
0.00809948
6.20026e-24
5.02657e-20
1.37801e-19
4.75788e-19
1.46025e-18
4.79289e-18
1.35943e-17
3.44565e-17
9.0709e-17
2.11145e-16
5.209e-16
2.00035e-15
2.50247e-14
4.14837e-11
6.58068e-10
9.37627e-09
1.87579e-05
0.000411693
0.00131427
0.00292889
0.00474049
0.00816218
6.1505e-24
4.3454e-20
1.23177e-19
4.40178e-19
1.40827e-18
4.72326e-18
1.35135e-17
3.48481e-17
9.13267e-17
2.23872e-16
5.72578e-16
5.43677e-15
6.09739e-13
2.25404e-09
8.41628e-08
4.9724e-06
0.000193818
0.000463585
0.00177117
0.00332166
0.00493907
0.00822577
6.11769e-24
5.57062e-20
1.46137e-19
4.997e-19
1.55423e-18
4.95912e-18
1.46131e-17
3.7574e-17
1.02082e-16
2.50974e-16
6.45431e-16
6.13596e-14
2.59077e-11
7.4239e-08
1.04162e-05
0.000152727
0.000780906
0.000813416
0.00272485
0.00399793
0.00522109
0.00829204
6.07086e-24
4.43515e-20
1.25442e-19
4.56654e-19
1.50766e-18
4.95413e-18
1.47489e-17
3.87291e-17
1.04887e-16
2.75153e-16
7.48721e-16
1.68224e-12
1.08329e-09
4.43367e-06
0.000189381
0.00059709
0.00160745
0.00150777
0.00445644
0.00503698
0.0056013
0.00836448
6.04167e-24
6.02623e-20
1.53441e-19
5.25932e-19
1.67285e-18
5.20645e-18
1.60266e-17
4.20386e-17
1.19305e-16
3.17408e-16
8.92202e-16
5.23169e-11
5.50815e-08
8.15915e-05
0.000697799
0.00159278
0.00337093
0.00292228
0.00735936
0.00653378
0.00609286
0.00844366
5.99628e-24
4.46309e-20
1.27743e-19
4.76968e-19
1.63383e-18
5.28151e-18
1.6404e-17
4.40695e-17
1.25511e-16
3.64675e-16
1.15877e-15
1.45686e-09
3.24565e-06
0.000339318
0.00147309
0.00339891
0.00674231
0.00568286
0.0118267
0.00852346
0.00668303
0.00853143
5.97065e-24
6.41518e-20
1.60458e-19
5.53837e-19
1.8151e-18
5.54246e-18
1.79102e-17
4.82267e-17
1.46717e-16
4.44783e-16
1.6948e-15
3.52142e-08
7.22175e-05
0.00102514
0.00345081
0.00717635
0.0129768
0.0106415
0.0179756
0.0109781
0.00736017
0.00862633
5.9267e-24
4.43273e-20
1.29677e-19
4.99341e-19
1.78335e-18
5.69254e-18
1.85345e-17
5.13893e-17
1.59868e-16
5.59227e-16
3.60191e-15
7.96287e-07
0.000338998
0.00253204
0.00731228
0.0138441
0.023127
0.0185004
0.0254914
0.0137616
0.00808924
0.00872852
5.9043e-24
6.75182e-20
1.66663e-19
5.82651e-19
1.97815e-18
5.94071e-18
2.02711e-17
5.67883e-17
1.96075e-16
7.7881e-16
1.65196e-14
1.51686e-05
0.00106966
0.00570795
0.0140314
0.0241607
0.0375965
0.0292948
0.0336271
0.0167096
0.00884795
0.00883515
5.86064e-24
4.3961e-20
1.32005e-19
5.24837e-19
1.95798e-18
6.18625e-18
2.12046e-17
6.1686e-17
2.28192e-16
1.21644e-15
3.02207e-13
0.000136197
0.00255463
0.0113138
0.0242903
0.0382926
0.0557612
0.0420487
0.0414892
0.0196184
0.00959758
0.00894576
5.84152e-24
7.0543e-20
1.73513e-19
6.15155e-19
2.17078e-18
6.44019e-18
2.33131e-17
6.93854e-17
3.08264e-16
2.30525e-15
1.26043e-11
0.000508839
0.00560055
0.0199626
0.0379751
0.0556909
0.0758046
0.0549696
0.0483076
0.0223502
0.0103224
0.00905718
5.7976e-24
4.35044e-20
1.34501e-19
5.53174e-19
2.16089e-18
6.7724e-18
2.46213e-17
7.72392e-17
4.08514e-16
5.44639e-15
5.48066e-10
0.00126384
0.0108457
0.0318628
0.0546433
0.0749539
0.0950211
0.0660884
0.053709
0.0247852
0.0109941
0.00916919
5.78121e-24
7.32668e-20
1.80298e-19
6.49173e-19
2.38822e-18
7.01241e-18
2.71856e-17
8.90809e-17
6.61799e-16
1.69254e-14
4.4085e-08
0.00296037
0.0188839
0.0463809
0.0728955
0.0940946
0.110572
0.0740947
0.057679
0.0268963
0.0116126
0.00927899
5.73671e-24
4.30555e-20
1.3688e-19
5.82448e-19
2.38714e-18
7.43912e-18
2.90112e-17
1.02329e-16
1.08056e-15
7.52825e-14
8.52875e-06
0.00606339
0.0297019
0.0627222
0.0913086
0.110862
0.120372
0.0787409
0.0605052
0.0286592
0.0121637
0.00938714
5.7236e-24
7.57328e-20
1.86813e-19
6.83224e-19
2.62951e-18
7.67391e-18
3.23079e-17
1.2226e-16
2.19401e-15
7.803e-13
0.000164622
0.0112517
0.0427451
0.0795283
0.107914
0.123427
0.123784
0.0807601
0.0625376
0.0301158
0.0126615
0.00949146
5.67829e-24
4.24367e-20
1.38582e-19
6.10977e-19
2.63544e-18
8.19442e-18
3.49447e-17
1.46484e-16
4.34072e-15
1.34078e-11
0.000627358
0.0188351
0.0570857
0.0957452
0.121384
0.130755
0.121715
0.0812858
0.0641167
0.0312833
0.0131037
0.00959327
5.66787e-24
7.80263e-20
1.92482e-19
7.15533e-19
2.89016e-18
8.41929e-18
3.94379e-17
1.83604e-16
1.02769e-14
1.66122e-10
0.00159482
0.0286402
0.0716914
0.110086
0.130547
0.132934
0.116137
0.0813214
0.0654562
0.0322268
0.0135161
0.00969106
5.62201e-24
4.19669e-20
1.39803e-19
6.38059e-19
2.90297e-18
9.03891e-18
4.35075e-17
2.31525e-16
2.24233e-14
1.55819e-09
0.00352718
0.0401396
0.0856343
0.121838
0.135355
0.130928
0.109219
0.0814255
0.066696
0.0329796
0.0139064
0.00978684
5.61512e-24
8.02791e-20
1.97591e-19
7.45869e-19
3.17151e-18
9.26845e-18
5.02705e-17
3.06464e-16
5.64469e-14
1.37801e-08
0.0068396
0.0524593
0.0981947
0.130376
0.136163
0.126252
0.102618
0.0817713
0.0678821
0.0336195
0.0143088
0.00987966
5.56748e-24
4.17948e-20
1.40775e-19
6.63932e-19
3.19246e-18
9.99399e-18
5.7161e-17
4.0852e-16
1.30499e-13
3.18842e-07
0.0118298
0.0648276
0.108877
0.135767
0.13408
0.120393
0.0971847
0.082299
0.0690379
0.0341929
0.0147375
0.00997203
5.56309e-24
8.2488e-20
2.0211e-19
7.74072e-19
3.47325e-18
1.02335e-17
6.84688e-17
5.73427e-16
3.92586e-13
1.86582e-05
0.0183794
0.0765004
0.117408
0.138215
0.130113
0.114514
0.0931009
0.08289
0.0701473
0.0347825
0.0152299
0.0100634
5.51431e-24
4.18624e-20
1.41234e-19
6.87593e-19
3.50202e-18
1.10707e-17
8.13416e-17
8.10515e-16
1.83021e-12
0.000208528
0.0261722
0.0870306
0.123717
0.138378
0.125356
0.109275
0.0901807
0.0834346
0.0712
0.0354305
0.0157988
0.0101564
5.51329e-24
8.46797e-20
2.0581e-19
7.99275e-19
3.79664e-18
1.13456e-17
1.02526e-16
1.20454e-15
1.28029e-11
0.000683786
0.0346408
0.0960818
0.127909
0.136819
0.120454
0.10494
0.0881283
0.0838702
0.0721674
0.0362001
0.0164747
0.0102507
5.46225e-24
4.20376e-20
1.4098e-19
7.08491e-19
3.83418e-18
1.23067e-17
1.28849e-16
1.79603e-15
7.41021e-11
0.00134462
0.0433304
0.103531
0.130219
0.134222
0.11591
0.101495
0.0866716
0.0841665
0.0730334
0.0371032
0.0172571
0.0103488
5.46325e-24
8.68109e-20
2.08991e-19
8.21861e-19
4.14363e-18
1.26547e-17
1.72499e-16
2.80993e-15
3.56437e-10
0.00227261
0.051772
0.10932
0.130961
0.131017
0.111868
0.0988155
0.0856069
0.0843238
0.0737703
0.0381628
0.0181593
0.01045
5.41117e-24
4.22497e-20
1.39914e-19
7.2669e-19
4.19149e-18
1.37439e-17
2.30173e-16
4.39034e-15
1.38701e-09
0.00353999
0.0596792
0.113531
0.130471
0.127621
0.108417
0.0967353
0.0847974
0.0843523
0.0743629
0.0393512
0.0191597
0.0105565
5.41527e-24
8.89226e-20
2.11427e-19
8.42442e-19
4.5231e-18
1.41949e-17
3.26439e-16
7.08445e-15
4.74646e-09
0.00524288
0.0667877
0.116278
0.129072
0.124216
0.105476
0.095107
0.0841581
0.0842726
0.0747868
0.0406571
0.0202502
0.010667
5.35971e-24
4.22823e-20
1.37824e-19
7.42966e-19
4.58567e-18
1.54564e-17
4.58338e-16
1.12977e-14
1.44513e-08
0.00744542
0.073002
0.117757
0.127045
0.120981
0.103005
0.0938065
0.0836388
0.0841035
0.0750295
0.0420319
0.0213896
0.0107831
5.36575e-24
8.84619e-20
2.10352e-19
8.57294e-19
4.93708e-18
1.60498e-17
6.78065e-16
1.85095e-14
4.27935e-08
0.0101963
0.078264
0.118158
0.124622
0.117943
0.10089
0.092744
0.0832121
0.083867
0.0750703
0.0434586
0.0225571
0.0109032
5.30616e-24
4.14895e-20
1.3259e-19
7.51717e-19
5.01097e-18
1.7466e-17
9.80663e-16
2.9924e-14
2.19396e-07
0.0135815
0.0826556
0.117707
0.12198
0.115163
0.0990824
0.0918509
0.0828648
0.083581
0.0749009
0.0449005
0.0237049
0.0110282
5.31258e-24
8.52677e-20
2.03838e-19
8.62127e-19
5.38163e-18
1.81888e-17
1.4749e-15
5.74665e-14
1.10486e-05
0.0177334
0.0862743
0.116596
0.119254
0.112608
0.0974959
0.0910834
0.0825926
0.0832658
0.0745069
0.0463677
0.0248145
0.0111563
5.24623e-24
4.16187e-20
1.2734e-19
7.57801e-19
5.48365e-18
1.9861e-17
2.1428e-15
4.65124e-13
0.000180962
0.0229048
0.0892945
0.115024
0.116536
0.110304
0.0961053
0.0904098
0.0823966
0.0829378
0.0738883
0.0478606
0.0258493
0.0112883
5.24954e-24
5.37929e-20
1.54733e-19
7.99549e-19
5.76948e-18
2.06418e-17
3.20199e-15
2.31317e-11
0.00113291
0.0294183
0.0918501
0.113142
0.11389
0.10821
0.0948538
0.0898143
0.0822822
0.0826159
0.0730427
0.0494281
0.0268135
0.011422
5.17283e-24
4.32847e-20
1.14488e-19
7.24386e-19
5.94153e-18
2.355e-17
4.66372e-15
1.03292e-09
0.00411575
0.0374778
0.0940775
0.111099
0.111352
0.106353
0.0937411
0.0892873
0.0822566
0.082314
0.0719863
0.0510984
0.0277002
0.0115584
5.16612e-24
1.93963e-21
1.12101e-20
4.0069e-19
5.44982e-18
2.44418e-17
7.20841e-15
1.82438e-07
0.010573
0.0470188
0.0960239
0.108999
0.108941
0.104701
0.0927318
0.0888304
0.0823284
0.0820463
0.0707377
0.0529138
0.028549
0.0116955
5.07804e-24
1.71183e-20
4.478e-20
4.17457e-19
5.46349e-18
3.62164e-17
1.80107e-14
4.38158e-05
0.0216314
0.0578145
0.0977126
0.106944
0.106654
0.103295
0.0918488
0.0884475
0.0825043
0.0818176
0.0693396
0.0548241
0.0293759
0.0118345
5.03917e-24
6.72066e-22
8.46009e-23
2.35274e-19
5.06715e-18
8.28335e-17
3.70856e-13
0.000826496
0.0380001
0.0695277
0.0990844
0.104999
0.104477
0.102108
0.0910672
0.0881545
0.0827905
0.0816282
0.0678402
0.0566659
0.0301828
0.011976
4.83856e-24
2.10353e-19
4.5823e-19
1.02972e-18
7.26171e-18
9.13707e-16
7.18241e-12
0.00470966
0.0599073
0.0819921
0.100231
0.10328
0.102394
0.101178
0.0904103
0.0879565
0.0831793
0.0814237
0.0663011
0.0580132
0.0306664
0.0121338
0.00987657
0.0160437
0.0173681
0.00673045
0.0059649
0.00604543
0.00616872
0.00629282
0.00631266
0.00671673
0.00893713
0.00796431
0.00725731
0.0075435
0.00912198
0.0114035
0.0129662
0.0135564
0.0134656
0.0120746
0.0110789
0.011044
0.0116853
0.014692
0.0224779
0.0452956
0.0865732
0.107629
0.112914
0.109036
0.102361
0.0986712
0.0992652
0.109542
0.127453
0.00986353
0.0162318
0.0166481
0.00637429
0.00575484
0.00584642
0.00608357
0.00622175
0.00619647
0.00664521
0.00873522
0.00772607
0.00698084
0.00719075
0.00868352
0.0110327
0.0128838
0.0136861
0.0136381
0.0121053
0.0109624
0.0108888
0.0115022
0.0144156
0.0220719
0.0447861
0.0863055
0.107505
0.112837
0.108938
0.102294
0.0986162
0.0992415
0.10952
0.127445
0.00983842
0.0163358
0.0154339
0.00579494
0.0054796
0.00556337
0.00599458
0.00615619
0.00608213
0.00658012
0.00805968
0.00703385
0.00636761
0.00639081
0.00742743
0.00936569
0.0112182
0.0122563
0.0125953
0.0115121
0.0106242
0.010638
0.0112924
0.014065
0.0214713
0.0440628
0.0858213
0.107185
0.112626
0.108689
0.102111
0.0984601
0.0991524
0.109434
0.127387
0.00979929
0.0163637
0.013916
0.00519663
0.00521618
0.0052909
0.00591721
0.00605656
0.00596702
0.00651208
0.00730819
0.0062684
0.0056576
0.00553857
0.00614116
0.00753645
0.00915169
0.0102745
0.0109675
0.0105357
0.0100819
0.0102404
0.0109731
0.0135808
0.0206339
0.0430496
0.0850995
0.106674
0.112281
0.108288
0.101813
0.0982023
0.0989975
0.109282
0.127279
0.00974597
0.0162639
0.0122422
0.00463272
0.00495058
0.00501536
0.00579938
0.00587775
0.00579467
0.00637634
0.0066254
0.00558082
0.00501551
0.00483811
0.00511717
0.00600046
0.00726974
0.00833943
0.00922556
0.0093758
0.00936239
0.00966813
0.010487
0.0129244
0.0195428
0.0416936
0.0841345
0.105992
0.111821
0.107752
0.101411
0.0978543
0.0987867
0.109076
0.127131
0.00967615
0.0159966
0.0105399
0.00412286
0.00467977
0.00472483
0.00560805
0.00560474
0.00552799
0.00611323
0.00599058
0.00496202
0.00443761
0.00426521
0.00434353
0.00481297
0.00572262
0.00667458
0.00761914
0.00816784
0.00849778
0.00891647
0.0098038
0.0120766
0.0182028
0.0399627
0.0829307
0.10517
0.11127
0.107103
0.100926
0.0974347
0.0985363
0.108834
0.126962
0.00959042
0.015543
0.00892032
0.00369063
0.00442589
0.0044348
0.00534823
0.00525361
0.00516722
0.00570755
0.00534973
0.00435675
0.00386721
0.00373946
0.00372834
0.00389947
0.00447315
0.00527619
0.00620881
0.00697536
0.00751975
0.00800279
0.00892224
0.0110381
0.0166385
0.0378463
0.0814977
0.104246
0.110663
0.106373
0.100381
0.0969668
0.0982669
0.108578
0.126795
0.00948687
0.0148938
0.00746673
0.0033556
0.00422008
0.00417554
0.00505241
0.00486062
0.00474215
0.00518547
0.00467935
0.00374072
0.00328616
0.00322321
0.0032111
0.00319795
0.00347389
0.0040836
0.00495491
0.00581031
0.00646025
0.00696388
0.00787043
0.00983065
0.0148911
0.0353562
0.0798475
0.103263
0.110033
0.105593
0.0998037
0.0964769
0.0980019
0.108333
0.126654
0.00936733
0.014061
0.00622421
0.00312298
0.00408685
0.00397756
0.00476326
0.00446902
0.00429744
0.00459824
0.00399792
0.00313334
0.00272771
0.00272949
0.00277143
0.00267825
0.00271946
0.00309194
0.00382746
0.00467811
0.0053595
0.00585437
0.00670452
0.00849857
0.0130174
0.0325302
0.0779916
0.102263
0.109417
0.104798
0.0992221
0.0959928
0.0977661
0.108128
0.126567
0.0092307
0.013062
0.0052033
0.00298384
0.00403863
0.00386359
0.00452152
0.00412009
0.00388129
0.00400515
0.00334855
0.0025811
0.00224703
0.00229376
0.00240413
0.00231195
0.00220643
0.00234695
0.00286789
0.00362115
0.00427787
0.00474541
0.00550477
0.00711013
0.0110885
0.0294348
0.075941
0.101284
0.108849
0.104022
0.0986648
0.0955428
0.097585
0.107989
0.126562
0.00908003
0.011931
0.00438828
0.00292308
0.00407746
0.00384647
0.00435965
0.00384744
0.00353674
0.00346663
0.00278221
0.00213076
0.00188493
0.00194785
0.00210687
0.00206106
0.00189778
0.00187005
0.00215633
0.00272871
0.0033013
0.00372246
0.0043685
0.00575599
0.00918994
0.0261676
0.0737074
0.100363
0.108361
0.103296
0.098159
0.0951548
0.0974839
0.107947
0.126668
0.00891508
0.0107041
0.00375211
0.00292752
0.00420016
0.00393016
0.00429977
0.0036748
0.00329555
0.00303229
0.00233995
0.00181048
0.00164814
0.00170286
0.00187575
0.00188493
0.00172843
0.00161626
0.00172223
0.0020879
0.00252436
0.0028748
0.00339708
0.00454159
0.00742109
0.0228575
0.0713082
0.0995314
0.107981
0.102649
0.0977303
0.0948554
0.0974872
0.108027
0.126912
0.00874002
0.00943114
0.00326889
0.00299035
0.00440384
0.00411279
0.00435419
0.00361633
0.00317445
0.00273385
0.00204339
0.00161934
0.00151176
0.0015468
0.00170501
0.00175333
0.0016343
0.00150379
0.00151159
0.00171489
0.00200512
0.00226907
0.0026725
0.00356843
0.0058886
0.0196596
0.0687728
0.0988144
0.107731
0.102107
0.0974019
0.0946692
0.0976178
0.108257
0.12732
0.00855535
0.00816229
0.00292219
0.00311179
0.00469009
0.00439038
0.00452732
0.00367745
0.00317546
0.00258142
0.00189065
0.00153385
0.00144163
0.00145396
0.00158531
0.00165022
0.00157181
0.00145861
0.00143472
0.00154756
0.00172866
0.00191652
0.00222676
0.00290335
0.00468874
0.0167407
0.0661518
0.0982338
0.107629
0.10169
0.0971943
0.094619
0.0978973
0.108661
0.127916
0.00836592
0.00695479
0.00270646
0.00329808
0.00506742
0.00476138
0.00481808
0.00385755
0.0032935
0.00256872
0.00186454
0.00152259
0.00140774
0.00139675
0.0015039
0.00156993
0.00152174
0.0014361
0.00141768
0.00150045
0.00162684
0.00177143
0.00203082
0.00255169
0.00387821
0.0142527
0.0635231
0.0978073
0.107691
0.101417
0.097125
0.094725
0.0983451
0.109264
0.128724
0.00817267
0.0058585
0.00262496
0.00356073
0.00555217
0.00523121
0.00522532
0.00415122
0.00351943
0.00268081
0.0019399
0.00156115
0.00139149
0.00135449
0.00144665
0.00150959
0.00148031
0.00141925
0.00141973
0.00150843
0.00162691
0.00176704
0.00202158
0.00246354
0.00345213
0.0122946
0.0609921
0.09755
0.107926
0.101301
0.0972091
0.0950055
0.0989789
0.110087
0.129764
0.00798033
0.00491662
0.0026864
0.00391683
0.00616666
0.0058196
0.00575268
0.00455402
0.0038441
0.00290033
0.00209406
0.00163191
0.00138376
0.00131623
0.00140183
0.00146569
0.00144929
0.00140679
0.00142749
0.00153819
0.00167929
0.00184824
0.00213745
0.00256882
0.00335372
0.0108855
0.0586783
0.0974752
0.108342
0.101354
0.097459
0.0954766
0.099815
0.111151
0.131056
0.00778933
0.00415951
0.00290465
0.00439036
0.00694389
0.00655811
0.00641278
0.00506726
0.00426071
0.00321033
0.00230873
0.0017266
0.00138328
0.00127952
0.00136263
0.00143395
0.00142979
0.00140173
0.00144083
0.00157974
0.00176079
0.00198239
0.00233525
0.00280597
0.00350636
0.00997573
0.0566951
0.0975952
0.108942
0.101582
0.0978852
0.0961527
0.100868
0.112475
0.132616
0.00760307
0.00360132
0.00330119
0.00501474
0.00792586
0.00749183
0.00723014
0.00570305
0.00476958
0.0035993
0.00257515
0.00184122
0.00139205
0.00124651
0.0013274
0.00141154
0.00142174
0.00140653
0.00146289
0.00163404
0.00186574
0.00215579
0.00259085
0.00313194
0.00383939
0.0094867
0.0551302
0.097921
0.109731
0.101992
0.0984961
0.097047
0.102152
0.114077
0.134462
0.00742066
0.00323698
0.00391127
0.00583236
0.00916407
0.00867751
0.00824037
0.00648528
0.0053791
0.00406361
0.00289242
0.00197969
0.00141564
0.00122159
0.00129776
0.00139781
0.00142477
0.0014222
0.00149585
0.00170438
0.00199614
0.00236552
0.00289301
0.00352068
0.00429858
0.00934268
0.054037
0.0984629
0.110709
0.10259
0.0992993
0.0981716
0.103678
0.115975
0.136608
0.00724378
0.00304357
0.00479712
0.00689318
0.0107177
0.0101793
0.00948698
0.00744811
0.00610698
0.00461069
0.00327032
0.00214945
0.00146156
0.00121007
0.00127684
0.00139422
0.00143971
0.00144965
0.00154095
0.0017934
0.00215554
0.00261258
0.00323692
0.00395752
0.00484676
0.00948274
0.0534362
0.0992299
0.111877
0.103377
0.100301
0.0995376
0.105459
0.118185
0.139067
0.00707145
0.00298515
0.00605516
0.00825799
0.0126536
0.0120644
0.0110165
0.00862967
0.00697541
0.00525352
0.00372302
0.00236532
0.00154187
0.00121956
0.00126863
0.00140331
0.00146833
0.00149023
0.00159905
0.00190237
0.00234636
0.00289777
0.00361963
0.00443408
0.00546039
0.00986129
0.0533245
0.10023
0.113236
0.104356
0.101506
0.101156
0.107507
0.120725
0.141853
0.00690537
0.00303686
0.00780034
0.0100087
0.015052
0.0144048
0.0128773
0.0100671
0.00800764
0.006007
0.00426556
0.00264212
0.00167155
0.00126117
0.00127895
0.00142869
0.00151363
0.0015466
0.00167184
0.00203176
0.00256915
0.00322016
0.00403792
0.00494487
0.00612552
0.0104458
0.0536848
0.101471
0.114786
0.105531
0.102921
0.103038
0.109832
0.12361
0.144977
0.00674534
0.00318426
0.0101573
0.0122626
0.0180158
0.0172842
0.0151214
0.0117919
0.00922082
0.00687825
0.00490191
0.00299418
0.00186835
0.00135205
0.0013172
0.00147542
0.00157957
0.00162265
0.0017623
0.00218148
0.00282257
0.00357669
0.00448769
0.00548571
0.0068346
0.011215
0.0544952
0.102958
0.116528
0.106902
0.104549
0.105194
0.112445
0.126857
0.148451
0.00659312
0.00341626
0.0132427
0.015185
0.0216765
0.0207997
0.0178039
0.0138267
0.0106218
0.0078621
0.0056205
0.00342308
0.00214526
0.00151476
0.00139877
0.0015517
0.00167201
0.00172432
0.00187577
0.00235183
0.00310369
0.00396279
0.00496416
0.00605301
0.00758457
0.012157
0.0557347
0.104698
0.118463
0.108472
0.106396
0.107634
0.115356
0.130483
0.152284
0.00644962
0.00373302
0.0171408
0.0189893
0.0261852
0.0250449
0.0209678
0.0161735
0.0121969
0.00893319
0.00638876
0.00391786
0.00250575
0.00177279
0.00154677
0.00167027
0.00179904
0.00185956
0.00202038
0.00254421
0.00340865
0.00437301
0.00546241
0.00664379
0.00837573
0.0132686
0.0573867
0.106696
0.120592
0.110242
0.108465
0.110369
0.118577
0.134503
0.156487
0.00631698
0.00415179
0.0218873
0.023918
0.0316815
0.0300662
0.0246118
0.0187944
0.0139023
0.0100447
0.00715851
0.0044498
0.00293749
0.00213906
0.00179001
0.00185018
0.00197254
0.00203924
0.00220774
0.00276269
0.00373364
0.00480207
0.00597798
0.00725584
0.00921135
0.0145544
0.0594395
0.108958
0.122915
0.112214
0.11076
0.113411
0.122117
0.138934
0.161067
0.00619775
0.00471994
0.0274856
0.0302078
0.0382457
0.0358057
0.0286491
0.0215883
0.0156522
0.0111254
0.00787002
0.0049827
0.00341751
0.00260753
0.0021528
0.00211485
0.00220785
0.00227659
0.00245238
0.00301498
0.00407612
0.00524566
0.00650729
0.00788795
0.0100976
0.016026
0.0618867
0.111489
0.125435
0.114388
0.113286
0.11677
0.125987
0.143791
0.166032
0.00609509
0.00551887
0.033949
0.0380523
0.0458487
0.0420548
0.0328766
0.0243799
0.0173192
0.0120879
0.00846217
0.00547391
0.00391482
0.00315333
0.00264007
0.00248574
0.00252263
0.002587
0.00277114
0.00331361
0.00443623
0.00570126
0.00704796
0.00854016
0.0110434
0.0177014
0.0647254
0.114295
0.128151
0.116766
0.116045
0.120455
0.130196
0.149092
0.171387
0.00601408
0.00666
0.0413485
0.0475565
0.0543028
0.0484359
0.0369733
0.0269275
0.0187441
0.0128351
0.00887718
0.00588503
0.00439855
0.00374148
0.00322937
0.0029693
0.0029303
0.0029843
0.00318027
0.00367521
0.00481793
0.00616856
0.00759896
0.00921381
0.0120609
0.0196046
0.0679559
0.117381
0.131065
0.119349
0.119042
0.124479
0.134755
0.154851
0.177138
0.00596079
0.00825715
0.0498066
0.0586464
0.0632075
0.0544153
0.040528
0.0289515
0.0197586
0.013276
0.0090682
0.00618057
0.00483789
0.00433334
0.0038776
0.00354824
0.00343254
0.00347594
0.00369146
0.00411933
0.00522988
0.00664991
0.00816056
0.00991155
0.0131655
0.0217652
0.0715795
0.120751
0.134177
0.122134
0.122278
0.12885
0.139672
0.161086
0.18329
0.00594609
0.0104029
0.0594376
0.0709218
0.0719045
0.0593493
0.0430954
0.0301768
0.0202103
0.0133355
0.00900218
0.00633631
0.00520766
0.00489168
0.00453256
0.00418106
0.00401094
0.00405489
0.00430464
0.0046637
0.00568551
0.00715009
0.00873402
0.0106371
0.0143755
0.0242174
0.0755976
0.124409
0.137487
0.125121
0.125758
0.133581
0.144959
0.167814
0.189847
0.00598322
0.0131508
0.0702035
0.0835126
0.0794903
0.062575
0.0442739
0.0303815
0.0199903
0.0129688
0.00866749
0.0063384
0.00548766
0.0053836
0.00514465
0.00481459
0.00462856
0.00469627
0.00500245
0.00531861
0.006202
0.0076761
0.00932124
0.0113948
0.0157127
0.0269991
0.0800098
0.128355
0.140992
0.128308
0.129484
0.138683
0.150628
0.175056
0.196815
0.00609167
0.0165354
0.0817643
0.0950914
0.0849498
0.0635494
0.0437931
0.0294451
0.0190546
0.0121697
0.00807902
0.00619221
0.00566894
0.00578451
0.00567301
0.005396
0.00523632
0.00535773
0.00574702
0.00607758
0.00679739
0.00823595
0.00992396
0.0121892
0.0172019
0.0301515
0.0848137
0.132591
0.144692
0.131693
0.133463
0.14417
0.156694
0.182836
0.204202
0.00628805
0.0205776
0.0933838
0.104138
0.0874014
0.0619943
0.0415852
0.0273804
0.0174376
0.0109799
0.00728515
0.00592082
0.00575301
0.00608143
0.006092
0.00588598
0.00578737
0.00599012
0.00648661
0.00691288
0.00748534
0.00883731
0.0105429
0.013024
0.0188705
0.0337174
0.0900038
0.137115
0.148585
0.135274
0.137702
0.150061
0.163175
0.191182
0.21202
0.00658505
0.0253051
0.104058
0.109391
0.0863605
0.0579876
0.0378118
0.0243391
0.0152534
0.00948983
0.0063667
0.00556734
0.005755
0.00627424
0.00639139
0.0062617
0.00624529
0.00654736
0.00716604
0.00777446
0.0082676
0.00948432
0.0111765
0.0139015
0.0207487
0.03774
0.0955717
0.141925
0.152668
0.139051
0.142213
0.156379
0.170095
0.200132
0.220285
0.00697682
0.0306947
0.11275
0.110222
0.0818794
0.0519462
0.0328295
0.0205864
0.0126849
0.00783758
0.00542859
0.00518356
0.00569755
0.0063744
0.00657697
0.00651989
0.00659249
0.00699876
0.00774198
0.00860237
0.00912671
0.0101745
0.0118197
0.0148218
0.0228686
0.0422621
0.101507
0.14702
0.156944
0.143029
0.147011
0.163156
0.177485
0.209733
0.229023
0.00744499
0.0366226
0.118629
0.106722
0.0744952
0.0445107
0.0271114
0.0164612
0.00997044
0.00619787
0.00457672
0.00482148
0.00560767
0.00639973
0.0066636
0.0066701
0.00682716
0.00733103
0.00818977
0.00933898
0.0100224
0.0108944
0.012463
0.0157823
0.0252644
0.0473249
0.1078
0.152402
0.161414
0.147217
0.15212
0.170433
0.185385
0.220044
0.238267
0.00795396
0.0426531
0.121087
0.0994973
0.06503
0.0363876
0.0211629
0.0123421
0.00738898
0.00475776
0.00389002
0.00451849
0.00550683
0.00636893
0.00667153
0.00673204
0.00696305
0.00755068
0.00850867
0.00994633
0.0108966
0.0116181
0.013092
0.0167783
0.0279723
0.0529686
0.114445
0.158079
0.166088
0.151629
0.157572
0.178263
0.193843
0.231138
0.248061
0.00846726
0.0479653
0.119691
0.0893794
0.0543646
0.0282254
0.0154688
0.00862647
0.00522562
0.00366063
0.0034001
0.00429318
0.00540777
0.00629462
0.00661741
0.006726
0.00702035
0.00767629
0.00871549
0.0104083
0.0116851
0.0123074
0.0136889
0.0178041
0.0310316
0.0592336
0.121445
0.164066
0.17098
0.156291
0.163406
0.186713
0.20292
0.243102
0.258462
0.00894498
0.0513012
0.114122
0.0772086
0.0432854
0.0205579
0.0104748
0.00567974
0.00367897
0.00294613
0.0030939
0.00414071
0.00530839
0.00618014
0.00651244
0.00667106
0.00702384
0.00773608
0.00884138
0.0107344
0.0123335
0.0129192
0.0142343
0.0188551
0.0344858
0.0661631
0.128818
0.17039
0.176114
0.161236
0.169673
0.195863
0.212687
0.25604
0.269534
0.0093615
0.0513926
0.104231
0.0637786
0.032451
0.0138224
0.00656104
0.00369876
0.00274917
0.00254659
0.0029272
0.00403808
0.00519414
0.006017
0.00635724
0.00657811
0.00699467
0.00775919
0.00892165
0.0109495
0.012808
0.0134134
0.0147117
0.0199301
0.038385
0.0738069
0.136597
0.17709
0.18152
0.166511
0.176431
0.205802
0.223224
0.270064
0.281355
0.0096768
0.0471865
0.0900798
0.0498682
0.0224598
0.00840494
0.00393294
0.00257304
0.00225648
0.00234228
0.00283831
0.0039484
0.00503937
0.00578944
0.00614676
0.00645198
0.00695138
0.00777605
0.00899491
0.0110921
0.013103
0.0137643
0.0151106
0.0210342
0.0427882
0.0822254
0.144841
0.184218
0.187237
0.172167
0.183744
0.21663
0.234618
0.285299
0.294006
0.00988074
0.0386656
0.072217
0.0362351
0.0138892
0.00458438
0.00243605
0.00196453
0.00196533
0.00219512
0.00274753
0.00381904
0.00480283
0.00546947
0.00586345
0.00628016
0.00689705
0.00780582
0.00909413
0.0112034
0.0132386
0.0139638
0.0154292
0.0221801
0.0477652
0.0914923
0.15363
0.191836
0.193313
0.178264
0.19168
0.228452
0.246958
0.301873
0.307574
4.88282e-24
3.15724e-19
1.1468e-18
4.33647e-18
2.51298e-17
3.16994e-14
9.07673e-11
0.0169718
0.0803491
0.0915689
0.100869
0.102175
0.100907
0.100691
0.0900309
0.0879319
0.0835984
0.0811492
0.065144
0.0584138
0.0302881
0.0121509
4.99666e-24
7.39891e-20
8.37291e-20
6.27287e-18
6.27804e-17
2.47504e-13
9.30044e-10
0.0317485
0.0942049
0.0973402
0.100995
0.101508
0.100048
0.100549
0.0899589
0.0880523
0.0840386
0.0809677
0.0645812
0.0583305
0.02986
0.0122051
5.10263e-24
2.76638e-19
8.78125e-19
8.9097e-18
1.22503e-16
9.31759e-13
9.35926e-09
0.0493048
0.106609
0.102102
0.100971
0.100965
0.0993864
0.10057
0.0900575
0.0882948
0.0846013
0.0808231
0.0643208
0.0578601
0.029331
0.0123679
5.06248e-24
5.72603e-20
2.14737e-20
6.84891e-18
1.92307e-16
2.28042e-12
1.69585e-07
0.0678303
0.117385
0.106027
0.101005
0.100602
0.098957
0.100779
0.0903477
0.0886456
0.0852592
0.0807195
0.0643504
0.0570316
0.0287354
0.0126295
5.16618e-24
2.21284e-19
6.31862e-19
7.2238e-18
2.87887e-16
3.606e-12
6.52887e-06
0.0845389
0.126554
0.109288
0.101238
0.10046
0.0987923
0.101166
0.0908147
0.0890966
0.0859828
0.0806567
0.0646373
0.0559134
0.0281186
0.0129809
5.11447e-24
4.59226e-20
1.20628e-20
4.61182e-18
4.09321e-16
4.86442e-12
1.85425e-05
0.0963714
0.134205
0.112065
0.101791
0.100584
0.098919
0.101762
0.0914828
0.0896393
0.0867415
0.0806307
0.0651461
0.0545623
0.0274908
0.0134394
5.22962e-24
1.78667e-19
4.73085e-19
4.63197e-18
5.79568e-16
5.05184e-12
3.42529e-05
0.101842
0.140479
0.114503
0.102727
0.101004
0.0993616
0.102558
0.0923382
0.0902757
0.0875082
0.0806384
0.0658239
0.0530603
0.0268776
0.0140187
5.1706e-24
3.80394e-20
7.87779e-21
2.77791e-18
7.71383e-16
4.36919e-12
2.56212e-05
0.101361
0.145478
0.116738
0.104103
0.101758
0.100137
0.103591
0.0934108
0.0910088
0.088261
0.0806719
0.0666238
0.0514634
0.0262767
0.0147364
5.29825e-24
1.46639e-19
3.69342e-19
2.85854e-18
9.84614e-16
2.87516e-12
2.72322e-05
0.096457
0.149283
0.118852
0.105931
0.102865
0.101262
0.104854
0.0946892
0.0918529
0.0889879
0.0807256
0.0674883
0.0498459
0.0257072
0.0155964
5.22387e-24
3.24405e-20
5.88572e-21
1.68575e-18
1.14677e-15
1.68648e-12
3.50832e-05
0.0885548
0.151883
0.120908
0.108226
0.104352
0.102744
0.106381
0.0962069
0.0928225
0.0896878
0.080791
0.0683753
0.0482499
0.02516
0.0166021
5.35799e-24
1.21915e-19
2.97232e-19
1.84053e-18
1.25073e-15
8.51042e-13
3.99173e-05
0.0785426
0.153206
0.122911
0.110968
0.106232
0.104594
0.108163
0.0979534
0.093942
0.0903725
0.0808647
0.0692369
0.0467339
0.0246505
0.0177389
5.27146e-24
2.84268e-20
4.69063e-21
1.07993e-18
1.23775e-15
4.15943e-13
4.09102e-05
0.0672353
0.153079
0.124835
0.114141
0.108527
0.106817
0.110233
0.0999633
0.0952326
0.0910646
0.0809427
0.0700466
0.0453222
0.0241654
0.0189912
5.41238e-24
1.02851e-19
2.48023e-19