/*--------------------------------*- C++ -*----------------------------------*\
| =========                 |                                                 |
| \\      /  F ield         | OpenFOAM: The Open Source CFD Toolbox           |
|  \\    /   O peration     | Version:  v1912                                 |
|   \\  /    A nd           | Website:  www.openfoam.com                      |
|    \\/     M anipulation  |                                                 |
\*---------------------------------------------------------------------------*/
FoamFile
{
    version     2.0;
    format      ascii;
    class       volScalarField;
    location    "180";
    object      p;
}
// * * * * * * * * * * * * * * * * * * * * * * * * * * * * * * * * * * * * * //

dimensions      [0 2 -2 0 0 0 0];


internalField   nonuniform List<scalar> 
12441
(
8.32424
8.60888
9.42851
10.7423
12.4053
14.4582
17.0898
20.4144
24.524
29.5617
35.8429
43.6032
53.3253
65.1037
80.8646
100.381
128.075
162.261
217.549
279.388
371.285
437.078
8.32423
8.60887
9.4285
10.7422
12.4053
14.4582
17.0898
20.4143
24.5238
29.5614
35.8425
43.6026
53.3243
65.102
80.8616
100.374
128.06
162.237
217.465
279.311
371.233
436.874
8.32421
8.60885
9.42848
10.7422
12.4052
14.4581
17.0896
20.4141
24.5235
29.561
35.8418
43.6014
53.3223
65.0986
80.8556
100.36
128.036
162.182
217.293
279.127
371.094
436.504
8.32419
8.60883
9.42845
10.7422
12.4051
14.458
17.0895
20.4138
24.523
29.5603
35.8407
43.5995
53.3194
65.0936
80.8467
100.341
128.005
162.098
217.112
278.846
370.842
435.93
8.32416
8.60879
9.42841
10.7421
12.405
14.4579
17.0892
20.4134
24.5224
29.5593
35.8393
43.5971
53.3154
65.0868
80.8348
100.314
127.964
161.994
216.946
278.493
370.489
435.147
8.32412
8.60875
9.42836
10.742
12.4049
14.4577
17.089
20.4129
24.5217
29.5582
35.8375
43.594
53.3104
65.0784
80.82
100.282
127.913
161.871
216.758
278.066
370.04
434.157
8.32408
8.6087
9.4283
10.7419
12.4047
14.4575
17.0886
20.4123
24.5208
29.5568
35.8353
43.5902
53.3044
65.0682
80.8023
100.244
127.854
161.726
216.538
277.569
369.5
432.959
8.32402
8.60864
9.42823
10.7417
12.4045
14.4572
17.0882
20.4116
24.5197
29.5552
35.8327
43.5859
53.2975
65.0564
80.7817
100.199
127.788
161.562
216.298
277.014
368.872
431.551
8.32396
8.60858
9.42815
10.7416
12.4043
14.4569
17.0877
20.4108
24.5185
29.5533
35.8299
43.581
53.2895
65.043
80.7586
100.151
127.721
161.385
216.059
276.415
368.163
429.927
8.32389
8.60851
9.42806
10.7414
12.4041
14.4566
17.0872
20.4099
24.5171
29.5513
35.8266
43.5754
53.2806
65.0281
80.7342
100.103
127.655
161.204
215.842
275.784
367.374
428.084
8.32382
8.60842
9.42797
10.7412
12.4038
14.4563
17.0867
20.4089
24.5156
29.549
35.823
43.5692
53.2707
65.0118
80.7096
100.057
127.603
161.033
215.674
275.129
366.502
426.014
8.32373
8.60833
9.42786
10.741
12.4035
14.4559
17.086
20.4077
24.5139
29.5464
35.819
43.5624
53.2598
64.9952
80.6874
100.022
127.587
160.9
215.58
274.455
365.542
423.708
8.32364
8.60824
9.42774
10.7407
12.4032
14.4554
17.0853
20.4065
24.512
29.5437
35.8146
43.5549
53.2483
64.9799
80.6743
100.013
127.636
160.842
215.566
273.753
364.487
421.156
8.32354
8.60813
9.42761
10.7405
12.4028
14.455
17.0846
20.4052
24.5101
29.5407
35.8099
43.5469
53.2367
64.9695
80.681
100.049
127.781
160.886
215.604
273.003
363.325
418.347
8.32344
8.60802
9.42747
10.7402
12.4024
14.4545
17.0838
20.4038
24.5079
29.5375
35.8048
43.5383
53.2263
64.9699
80.7183
100.142
128.034
161.034
215.638
272.18
362.049
415.268
8.32332
8.60789
9.42732
10.7399
12.402
14.4539
17.0829
20.4022
24.5056
29.534
35.7994
43.5294
53.2192
64.9878
80.7941
100.296
128.377
161.243
215.602
271.256
360.648
411.906
8.3232
8.60776
9.42716
10.7396
12.4016
14.4534
17.082
20.4006
24.5032
29.5303
35.7935
43.5206
53.2194
65.0282
80.9087
100.501
128.762
161.437
215.444
270.215
359.116
408.247
8.32307
8.60763
9.42699
10.7392
12.4011
14.4528
17.081
20.3989
24.5006
29.5264
35.7872
43.5128
53.2309
65.0926
81.055
100.733
129.114
161.533
215.139
269.044
357.447
404.278
8.32293
8.60748
9.42681
10.7389
12.4006
14.4521
17.08
20.3971
24.4979
29.5222
35.7805
43.5077
53.2569
65.1767
81.2181
100.959
129.357
161.477
214.691
267.743
355.637
399.983
8.32279
8.60732
9.42662
10.7385
12.4001
14.4514
17.0789
20.3951
24.495
29.5178
35.7734
43.5075
53.2971
65.274
81.3794
101.139
129.434
161.262
214.121
266.314
353.684
395.35
8.32264
8.60716
9.42642
10.7381
12.3995
14.4507
17.0777
20.3931
24.4919
29.5132
35.7663
43.5148
53.3492
65.3737
81.5174
101.243
129.328
160.918
213.459
264.766
351.589
390.362
8.32248
8.60699
9.42621
10.7377
12.399
14.45
17.0765
20.391
24.4887
29.5082
35.7594
43.5311
53.4069
65.4676
81.6147
101.254
129.064
160.493
212.728
263.107
349.352
385.003
8.32231
8.60681
9.42599
10.7372
12.3984
14.4492
17.0752
20.3887
24.4854
29.503
35.7536
43.5559
53.4658
65.5452
81.6593
101.17
128.694
160.029
211.945
261.345
346.974
379.256
8.32213
8.60663
9.42576
10.7368
12.3977
14.4484
17.0739
20.3864
24.4819
29.4976
35.7499
43.5867
53.5192
65.6013
81.6491
101.01
128.277
159.552
211.12
259.49
344.458
373.105
8.32195
8.60643
9.42552
10.7363
12.3971
14.4475
17.0725
20.3839
24.4782
29.4918
35.7496
43.6202
53.5649
65.6301
81.5892
100.798
127.858
159.07
210.258
257.552
341.807
366.529
8.32176
8.60623
9.42527
10.7358
12.3964
14.4466
17.071
20.3814
24.4743
29.4858
35.7534
43.6532
53.5982
65.6331
81.4917
100.56
127.459
158.58
209.358
255.539
339.024
359.509
8.32156
8.60602
9.42501
10.7353
12.3957
14.4457
17.0695
20.3788
24.4704
29.4796
35.7615
43.683
53.6196
65.6106
81.3689
100.315
127.088
158.08
208.421
253.462
336.111
352.023
8.32136
8.6058
9.42473
10.7347
12.395
14.4447
17.0679
20.376
24.4662
29.4735
35.7731
43.7076
53.6266
65.569
81.2333
100.077
126.739
157.564
207.446
251.328
333.071
344.047
8.32115
8.60557
9.42445
10.7342
12.3942
14.4437
17.0663
20.3732
24.4619
29.4676
35.7865
43.7259
53.6221
65.5113
81.093
99.8484
126.406
157.029
206.433
249.143
329.903
335.555
8.32093
8.60534
9.42416
10.7336
12.3934
14.4427
17.0646
20.3703
24.4573
29.4618
35.8002
43.7374
53.6049
65.4444
80.9537
99.6304
126.079
156.475
205.382
246.914
326.605
326.52
8.3207
8.60509
9.42385
10.733
12.3926
14.4416
17.0629
20.3672
24.4527
29.4563
35.8128
43.7419
53.5792
65.3701
80.8174
99.4207
125.753
155.903
204.291
244.64
323.174
316.912
8.32047
8.60484
9.42354
10.7324
12.3918
14.4405
17.0611
20.364
24.4478
29.4513
35.8236
43.7397
53.5445
65.2933
80.6852
99.2166
125.426
155.312
203.162
242.324
319.601
306.698
8.32022
8.60458
9.42321
10.7317
12.3909
14.4394
17.0592
20.3608
24.4428
29.447
35.8318
43.7313
53.5049
65.214
80.556
99.0153
125.094
154.704
201.995
239.965
315.878
295.844
8.31997
8.60431
9.42287
10.7311
12.39
14.4382
17.0573
20.3574
24.4376
29.4433
35.8371
43.7172
53.4597
65.1351
80.4296
98.8149
124.756
154.08
200.789
237.561
311.994
284.313
8.31972
8.60404
9.42252
10.7304
12.3891
14.437
17.0553
20.3539
24.4322
29.4406
35.8394
43.6985
53.4124
65.0553
80.3044
98.6138
124.411
153.44
199.546
235.114
307.937
272.066
8.31945
8.60375
9.42216
10.7297
12.3882
14.4357
17.0533
20.3504
24.4267
29.4388
35.8389
43.6758
53.3619
64.9767
80.1802
98.4109
124.059
152.787
198.265
232.623
303.696
259.063
8.31918
8.60346
9.42179
10.729
12.3872
14.4344
17.0512
20.3467
24.421
29.4384
35.8359
43.65
53.311
64.8974
80.0556
98.2054
123.701
152.119
196.948
230.093
299.259
245.26
8.3189
8.60316
9.42141
10.7283
12.3862
14.4331
17.049
20.3429
24.4155
29.4401
35.8308
43.6217
53.2581
64.8194
79.9307
97.997
123.335
151.439
195.595
227.527
294.616
230.61
8.31861
8.60285
9.42102
10.7276
12.3852
14.4317
17.0468
20.339
24.4108
29.4443
35.824
43.5917
53.2057
64.7405
79.8045
97.7854
122.963
150.746
194.208
224.931
289.76
215.066
8.31832
8.60253
9.42062
10.7268
12.3841
14.4303
17.0445
20.335
24.4086
29.4511
35.8158
43.5604
53.152
64.6627
79.6774
97.5705
122.585
150.041
192.791
222.309
284.685
198.576
8.31802
8.60221
9.4202
10.726
12.383
14.4289
17.0421
20.3309
24.4107
29.4603
35.8065
43.5284
53.0991
64.5841
79.5486
97.3524
122.201
149.325
191.345
219.667
279.39
181.086
8.31771
8.60187
9.41978
10.7252
12.3819
14.4274
17.0397
20.3268
24.4191
29.4716
35.7961
43.4958
53.0447
64.5067
79.4187
97.1311
121.811
148.598
189.875
217.005
273.873
162.549
8.31739
8.60153
9.41934
10.7244
12.3808
14.4259
17.0373
20.3233
24.4349
29.4846
35.7844
43.4631
52.9909
64.4285
79.287
96.9069
121.415
147.858
188.386
214.321
268.109
142.877
8.31707
8.60118
9.41889
10.7235
12.3796
14.4243
17.0347
20.3225
24.4575
29.4982
35.7716
43.4306
52.9359
64.3521
79.1546
96.6806
121.016
147.105
186.883
211.603
262.017
121.338
-15.8877
-36.8
-41.8648
-27.13
-18.0948
-12.7942
-9.4136
-6.82935
-6.16239
-7.80028
-9.52468
-5.16573
5.29871
16.6024
22.5541
21.8141
19.1921
17.404
16.4365
15.1726
13.0545
10.7596
8.81505
7.08535
3.98851
0.502412
4.20838
9.22187
8.19225
6.0023
4.28315
3.24475
2.29067
1.26716
0.643815
-15.9375
-36.8303
-41.8995
-27.1256
-18.0848
-12.789
-9.41306
-6.8299
-6.16175
-7.7972
-9.51666
-5.15808
5.3054
16.6106
22.5675
21.832
19.208
17.4143
16.4412
15.1749
13.0567
10.7618
8.81603
7.08497
3.98817
0.499342
4.19412
9.21481
8.19126
6.00258
4.28328
3.24476
2.29067
1.26717
0.643816
-16.0187
-36.9031
-41.9637
-27.1198
-18.0712
-12.7812
-9.41125
-6.82895
-6.15935
-7.79358
-9.50775
-5.14889
5.31723
16.6273
22.5921
21.8638
19.2405
17.4413
16.4579
15.1825
13.0606
10.7648
8.81757
7.08637
3.99125
0.498897
4.18048
9.20788
8.19039
6.00293
4.28344
3.24479
2.29067
1.2672
0.643823
-16.1335
-37.0247
-42.056
-27.1176
-18.056
-12.7716
-9.40815
-6.82701
-6.15631
-7.79022
-9.49995
-5.14033
5.33118
16.6467
22.6203
21.9014
19.2825
17.4808
16.4861
15.1957
13.0667
10.7693
8.82085
7.09076
3.99958
0.504663
4.17075
9.20188
8.18966
6.00333
4.28363
3.24485
2.2907
1.26725
0.643835
-16.2806
-37.1969
-42.1739
-27.1227
-18.0393
-12.7607
-9.40332
-6.82382
-6.15246
-7.78736
-9.49557
-5.13502
5.34325
16.6635
22.6441
21.9334
19.3201
17.5188
16.5163
15.2113
13.0746
10.7758
8.82635
7.09831
4.01349
0.517572
4.16515
9.19692
8.18913
6.00379
4.28384
3.24492
2.29073
1.26731
0.643853
-16.4568
-37.4212
-42.3127
-27.1356
-18.0212
-12.7485
-9.3966
-6.81942
-6.14779
-7.78526
-9.49477
-5.13311
5.35223
16.6761
22.6617
21.9573
19.3488
17.5491
16.5428
15.227
13.0842
10.7844
8.83447
7.10897
4.0327
0.538072
4.1634
9.19284
8.18877
6.00428
4.28408
3.24502
2.29078
1.26737
0.643874
-16.6588
-37.697
-42.4669
-27.1561
-18.0028
-12.7357
-9.38836
-6.81408
-6.14247
-7.78424
-9.49716
-5.13364
5.35858
16.6853
22.6742
21.9743
19.3699
17.572
16.5643
15.2421
13.0953
10.7951
8.84527
7.12256
4.05665
0.566434
4.16534
9.18951
8.18855
6.00481
4.28432
3.24513
2.29083
1.26745
0.643898
-16.8833
-38.0204
-42.6313
-27.1841
-17.9857
-12.7235
-9.37938
-6.80827
-6.1369
-7.78465
-9.50207
-5.13568
5.36286
16.6916
22.6823
21.9859
19.3853
17.5896
16.582
15.2564
13.1074
10.8075
8.85842
7.13869
4.08455
0.602649
4.17089
9.18676
8.18844
6.00536
4.28457
3.24523
2.29088
1.26752
0.643921
-17.1268
-38.3842
-42.8013
-27.2187
-17.9714
-12.7129
-9.3706
-6.8025
-6.13145
-7.78665
-9.50898
-5.13894
5.36495
16.6953
22.6862
21.9923
19.3958
17.6031
16.5967
15.2698
13.1201
10.8207
8.87313
7.15666
4.11537
0.646278
4.18004
9.18445
8.18841
6.00592
4.2848
3.24533
2.29092
1.26759
0.643942
-17.3855
-38.7784
-42.9734
-27.2587
-17.9613
-12.705
-9.36305
-6.79731
-6.12656
-7.79018
-9.51717
-5.14327
5.36468
16.6959
22.686
21.9936
19.401
17.6121
16.6079
15.2816
13.1321
10.8337
8.88825
7.17547
4.14783
0.696433
4.19286
9.18243
8.18844
6.00647
4.28502
3.24541
2.29095
1.26765
0.643959
-17.6551
-39.1907
-43.1443
-27.3028
-17.9558
-12.7004
-9.35753
-6.79314
-6.12256
-7.79497
-9.52594
-5.14876
5.36198
16.6936
22.6821
21.9903
19.4015
17.6162
16.6146
15.2902
13.142
10.8451
8.90233
7.19386
4.1805
0.751672
4.20953
9.18058
8.18848
6.007
4.28521
3.24547
2.29097
1.2677
0.643971
-17.9314
-39.6081
-43.3114
-27.3495
-17.9553
-12.6995
-9.35468
-6.79033
-6.11976
-7.80064
-9.53457
-5.15503
5.35734
16.6882
22.675
21.9836
19.3981
17.6159
16.6163
15.2941
13.1483
10.8536
8.91395
7.21043
4.21179
0.810018
4.23037
9.1788
8.18852
6.0075
4.28536
3.2455
2.29096
1.26773
0.643975
-18.2098
-40.017
-43.4717
-27.3976
-17.9597
-12.7027
-9.35476
-6.78903
-6.11825
-7.80686
-9.54264
-5.16177
5.35124
16.6798
22.665
21.9743
19.392
17.6123
16.6137
15.2931
13.1502
10.8584
8.92211
7.22398
4.2402
0.868959
4.25569
9.17703
8.18854
6.00796
4.28546
3.24548
2.29092
1.26774
0.643969
-18.4856
-40.4039
-43.622
-27.4456
-17.9692
-12.71
-9.35783
-6.78923
-6.11805
-7.81342
-9.54988
-5.16829
5.34443
16.6687
22.6521
21.9628
19.3842
17.6067
16.608
15.2881
13.148
10.8596
8.92652
7.23382
4.26455
0.925615
4.28583
9.17526
8.18851
6.00838
4.28551
3.24542
2.29085
1.26772
0.643954
-18.7539
-40.756
-43.7591
-27.4919
-17.9836
-12.7216
-9.36364
-6.79079
-6.11902
-7.82034
-9.55635
-5.17438
5.33738
16.6551
22.6361
21.9491
19.3752
17.6001
16.6005
15.2804
13.1426
10.8576
8.92766
7.24002
4.28439
0.976988
4.32082
9.17353
8.18845
6.00875
4.2855
3.24531
2.29075
1.26768
0.643927
-19.0096
-41.062
-43.8801
-27.535
-18.003
-12.7377
-9.37197
-6.79358
-6.1211
-7.82772
-9.56217
-5.17965
5.33068
16.6392
22.6168
21.9331
19.3649
17.5927
16.592
15.2709
13.1351
10.8536
8.92646
7.2433
4.30016
1.02056
4.36018
9.17192
8.18832
6.00906
4.28543
3.24514
2.29061
1.2676
0.643888
-19.2473
-41.3137
-43.983
-27.5729
-18.0276
-12.7585
-9.38268
-6.79738
-6.12409
-7.83582
-9.56775
-5.18425
5.32445
16.6213
22.594
21.9144
19.3532
17.5846
16.5827
15.2602
13.1262
10.8483
8.92383
7.24462
4.31304
1.055
4.40267
9.17053
8.18814
6.00931
4.28529
3.24491
2.29043
1.2675
0.643836
-19.4619
-41.5071
-44.0668
-27.6029
-18.0595
-12.7845
-9.39588
-6.80216
-6.12794
-7.84495
-9.57344
-5.18807
5.31887
16.6015
22.5677
21.8929
19.34
17.5756
16.5726
15.2486
13.1164
10.8421
8.92044
7.24482
4.32433
1.08073
4.44643
9.16949
8.18791
6.0095
4.28509
3.24462
2.29021
1.26735
0.643771
-19.6483
-41.6427
-44.1322
-27.6235
-18.1001
-12.8161
-9.41186
-6.80786
-6.13248
-7.85549
-9.57992
-5.19163
5.31359
16.5797
22.5377
21.8683
19.3251
17.5657
16.5616
15.2359
13.1056
10.8354
8.91668
7.24454
4.33501
1.09954
4.4892
9.16891
8.18765
6.00963
4.28481
3.24426
2.28995
1.26717
0.643693
-19.8024
-41.7244
-44.1816
-27.6358
-18.1491
-12.854
-9.43117
-6.81472
-6.13783
-7.86781
-9.58782
-5.19515
5.30833
16.5555
22.5038
21.8405
19.3083
17.5548
16.5498
15.2223
13.0941
10.8283
8.91275
7.24412
4.34555
1.11377
4.52902
9.16889
8.18734
6.00969
4.28446
3.24383
2.28965
1.26695
0.643601
-19.9205
-41.7572
-44.2175
-27.642
-18.2053
-12.8986
-9.45443
-6.82293
-6.14398
-7.88243
-9.59827
-5.19972
5.30217
16.5284
22.4657
21.8094
19.2897
17.5428
16.537
15.2078
13.0818
10.8208
8.90873
7.2438
4.3561
1.12547
4.56447
9.16948
8.18703
6.00969
4.28403
3.24333
2.2893
1.2667
0.643496
-20.0008
-41.7482
-44.2408
-27.6437
-18.2681
-12.9507
-9.48246
-6.83297
-6.15127
-7.89988
-9.61234
-5.20618
5.29422
16.4976
22.4228
21.7747
19.269
17.5296
16.5232
15.1923
13.0688
10.813
8.9047
7.24366
4.36667
1.13606
4.59492
9.17068
8.18671
6.00962
4.28352
3.24277
2.2889
1.2664
0.643379
-20.0467
-41.7008
-44.248
-27.6424
-18.3365
-13.0109
-9.51597
-6.84504
-6.15978
-7.9209
-9.6317
-5.21635
5.28297
16.4622
22.3748
21.7363
19.2463
17.5151
16.5085
15.1759
13.0551
10.8049
8.90068
7.24378
4.37725
1.14636
4.62032
9.1725
8.18641
6.00948
4.28294
3.24212
2.28846
1.26607
0.643248
-20.0669
-41.6104
-44.2349
-27.6385
-18.4098
-13.0803
-9.55595
-6.85953
-6.16988
-7.94611
-9.65751
-5.23133
5.26721
16.421
22.3213
21.6941
19.2214
17.4994
16.4926
15.1586
13.0408
10.7966
8.89674
7.24417
4.38786
1.15681
4.64112
9.17489
8.18613
6.00927
4.28228
3.24141
2.28798
1.26569
0.643106
-20.0659
-41.4729
-44.1949
-27.6315
-18.4876
-13.1599
-9.60327
-6.87641
-6.18146
-7.97624
-9.69116
-5.25279
5.24554
16.3729
22.2618
21.6481
19.1944
17.4822
16.4756
15.1405
13.026
10.7881
8.89289
7.24486
4.39855
1.1676
4.65792
9.17781
8.18591
6.00899
4.28153
3.24062
2.28746
1.26527
0.642952
-20.043
-41.2902
-44.1156
-27.6195
-18.5698
-13.2513
-9.65895
-6.89566
-6.19463
-8.01158
-9.73266
-5.28071
5.21777
16.317
22.1957
21.5981
19.1652
17.4634
16.4573
15.1215
13.0108
10.7795
8.88918
7.24586
4.40935
1.17882
4.67144
9.18123
8.18576
6.00863
4.2807
3.23976
2.28689
1.26481
0.642788
-19.9971
-41.0672
-43.9792
-27.5986
-18.6565
-13.3554
-9.72319
-6.91634
-6.2086
-8.0522
-9.78185
-5.3152
5.18406
16.2531
22.1227
21.5441
19.1337
17.443
16.4373
15.1014
12.9951
10.7709
8.88563
7.2472
4.42032
1.19048
4.68231
9.18513
8.18569
6.0082
4.27979
3.23882
2.28628
1.26432
0.642613
-19.9288
-40.8102
-43.7662
-27.5634
-18.748
-13.4726
-9.79523
-6.93696
-6.22254
-8.09733
-9.83662
-5.35427
5.14599
16.1822
22.0423
21.4857
19.0999
17.4206
16.4155
15.0802
12.9791
10.7623
8.88227
7.24889
4.4315
1.20257
4.69115
9.18949
8.18573
6.0077
4.27879
3.23781
2.28562
1.26378
0.64243
-19.8392
-40.5278
-43.4622
-27.5073
-18.845
-13.6018
-9.87212
-6.95437
-6.23427
-8.1457
-9.89481
-5.39646
5.10494
16.1061
21.9555
21.4229
19.0633
17.3959
16.3916
15.0575
12.9625
10.7537
8.87912
7.25094
4.44292
1.21505
4.6984
9.19433
8.1859
6.00712
4.2777
3.23672
2.28493
1.2632
0.642237
-19.73
-40.2321
-43.0643
-27.4249
-18.9489
-13.7403
-9.94919
-6.96481
-6.24163
-8.19504
-9.95233
-5.43848
5.0632
16.0271
21.8635
21.3558
19.0239
17.3687
16.3652
15.0333
12.9454
10.7451
8.87618
7.25336
4.45461
1.22786
4.70452
9.19968
8.1862
6.00645
4.27652
3.23556
2.28419
1.26258
0.642038
-19.6046
-39.9372
-42.5835
-27.3138
-19.0612
-13.883
-10.0194
-6.96325
-6.24149
-8.24278
-10.0056
-5.47836
5.02211
15.9474
21.7689
21.2852
18.9815
17.3388
16.3363
15.0071
12.9276
10.7365
8.87347
7.25618
4.46662
1.24092
4.7098
9.20558
8.18669
6.00572
4.27526
3.23432
2.28342
1.26192
0.641832
-19.469
-39.6577
-42.0406
-27.1784
-19.1844
-14.0234
-10.0751
-6.94526
-6.23169
-8.28558
-10.0498
-5.51257
4.9838
15.8686
21.6732
21.2124
18.9364
17.3061
16.3047
14.9791
12.9091
10.7278
8.87099
7.2594
4.47896
1.25417
4.71461
9.2121
8.18736
6.0049
4.2739
3.23301
2.28261
1.26122
0.64162
-19.3318
-39.4061
-41.4602
-27.0324
-19.3201
-14.153
-10.1082
-6.90672
-6.21019
-8.32018
-10.0817
-5.53954
4.94912
15.7917
21.5785
21.1387
18.8894
17.2709
16.2706
14.949
12.8898
10.7191
8.86875
7.26305
4.49169
1.26749
4.71912
9.21933
8.18825
6.00401
4.27245
3.23162
2.28176
1.26048
0.641403
-19.2027
-39.1932
-40.8688
-26.9005
-19.4701
-14.2641
-10.113
-6.84613
-6.17698
-8.34318
-10.0981
-5.55652
4.91958
15.7172
21.4851
21.0653
18.8411
17.2336
16.2344
14.9171
12.8696
10.7104
8.86674
7.26714
4.50484
1.28081
4.72364
9.22736
8.18936
6.00304
4.27091
3.23015
2.28088
1.2597
0.641183
-19.0909
-39.0296
-40.2948
-26.8125
-19.6339
-14.3499
-10.0862
-6.76417
-6.13277
-8.35225
-10.0988
-5.56331
4.89502
15.645
21.3933
20.9928
18.7923
17.1947
16.1964
14.8837
12.8487
10.7016
8.86497
7.27171
4.51846
1.294
4.7283
9.23631
8.19075
6.00199
4.26927
3.22861
2.27996
1.25888
0.640958
-19.003
-38.9295
-39.7686
-26.7967
-19.81
-14.4074
-10.029
-6.66532
-6.08009
-8.34668
-10.0846
-5.55892
4.87591
15.5743
21.3024
20.9212
18.7435
17.1548
16.1572
14.8491
12.8272
10.6928
8.86346
7.27677
4.53258
1.30697
4.73336
9.2463
8.19241
6.00087
4.26752
3.227
2.279
1.25801
0.64073
-18.9415
-38.9117
-39.3168
-26.8697
-19.9942
-14.4367
-9.94603
-6.55611
-6.02175
-8.32891
-10.0594
-5.54495
4.86092
15.5043
21.2117
20.8503
18.6949
17.1144
16.1173
14.8137
12.8051
10.684
8.86218
7.28236
4.54729
1.31958
4.73889
9.25742
8.19439
5.99967
4.26567
3.22529
2.278
1.25709
0.640498
-18.9047
-38.9984
-38.9575
-27.0342
-20.1818
-14.4415
-9.84545
-6.44473
-5.96221
-8.3042
-10.0262
-5.5218
4.84964
15.4336
21.1198
20.7791
18.6463
17.0736
16.0772
14.7781
12.783
10.6752
8.86116
7.28851
4.56262
1.33175
4.74514
9.26984
8.19669
5.99838
4.2637
3.2235
2.27695
1.25613
0.640263
-18.8864
-39.2061
-38.6967
-27.2801
-20.3669
-14.4264
-9.73647
-6.33884
-5.90757
-8.27941
-9.98827
-5.49177
4.84005
15.3609
21.0256
20.7069
18.5976
17.0328
16.0369
14.7425
12.7609
10.6666
8.86038
7.29525
4.5787
1.34328
4.75217
9.2837
8.19935
5.99702
4.26161
3.22161
2.27586
1.25511
0.640023
-18.8785
-39.5302
-38.5314
-27.5904
-20.544
-14.3973
-9.62851
-6.24641
-5.8658
-8.25955
-9.94618
-5.45567
4.83082
15.2846
20.9276
20.6331
18.5487
16.9922
15.9968
14.7072
12.7391
10.6581
8.85986
7.30264
4.59554
1.35408
4.76027
9.29919
8.20238
5.99555
4.25937
3.21961
2.27472
1.25402
0.63978
-18.8755
-39.9229
-38.4513
-27.9443
-20.7076
-14.3592
-9.52968
-6.17583
-5.84292
-8.24587
-9.90062
-5.41673
4.81847
15.203
20.8257
20.5582
18.5002
16.952
15.9568
14.6719
12.7175
10.6498
8.8596
7.3107
4.61324
1.3639
4.76938
9.31623
8.20575
5.99397
4.25698
3.21749
2.27352
1.25286
0.63953
-18.8764
-40.2727
-38.4407
-28.3199
-20.8517
-14.3159
-9.44802
-6.13371
-5.83887
-8.23599
-9.85206
-5.37812
4.80009
15.1154
20.7209
20.4835
18.4528
16.9122
15.9164
14.6362
12.696
10.6416
8.85956
7.31934
4.63182
1.37269
4.77881
9.33394
8.20923
5.99229
4.25445
3.21523
2.27225
1.25162
0.639271
-18.8577
-40.4039
-38.4752
-28.6946
-20.9692
-14.2707
-9.39128
-6.11854
-5.84677
-8.22739
-9.80525
-5.34717
4.7721
15.0245
20.6184
20.4122
18.4068
16.8712
15.874
14.5993
12.6743
10.6336
8.85973
7.32856
4.65161
1.38008
4.78723
9.35146
8.21278
5.99054
4.25175
3.2128
2.27089
1.25029
0.638996
-18.7145
-40.1631
-38.5339
-29.0567
-21.0571
-14.2314
-9.36216
-6.1221
-5.86152
-8.22219
-9.76657
-5.32763
4.73814
14.9372
20.5234
20.3449
18.3589
16.825
15.8268
14.5602
12.653
10.6268
8.86107
7.33948
4.67301
1.38561
4.80091
9.37697
8.21856
5.98855
4.24867
3.2102
2.26948
1.24887
0.638738
8.31681
8.6009
9.41853
10.7229
12.3787
14.4231
17.0327
20.3289
24.4791
29.5086
35.7612
43.4065
52.8949
64.2937
79.052
96.5038
120.702
146.503
185.709
209.448
256.987
99.701
8.31662
8.6007
9.41827
10.7224
12.3781
14.4221
17.0312
20.3402
24.4948
29.5147
35.7533
43.3899
52.865
64.2547
78.9792
96.3759
120.472
146.058
184.853
207.878
253.144
96.8169
8.31642
8.60048
9.41799
10.7219
12.3773
14.4212
17.0296
20.3543
24.5077
29.5182
35.7445
43.3733
52.8366
64.2138
78.9043
96.244
120.233
145.594
183.973
206.248
249.143
98.5277
8.31621
8.60025
9.41769
10.7213
12.3766
14.4201
17.0279
20.3685
24.5177
29.5195
35.7351
43.3562
52.8065
64.1732
78.8278
96.1068
119.984
145.11
183.069
204.549
245.03
98.4468
8.31599
8.60001
9.41738
10.7208
12.3758
14.419
17.0262
20.3805
24.5252
29.5192
35.7256
43.339
52.7777
64.13
78.7484
95.9636
119.722
144.605
182.135
202.783
240.793
96.6827
8.31575
8.59976
9.41705
10.7202
12.375
14.4179
17.0243
20.388
24.5305
29.5175
35.7162
43.3217
52.7474
64.0869
78.667
95.8141
119.447
144.077
181.166
200.952
236.428
94.6618
8.31551
8.59949
9.41671
10.7195
12.3741
14.4167
17.0223
20.3895
24.5337
29.5148
35.7073
43.3045
52.7184
64.0411
78.5822
95.6576
119.156
143.526
180.155
199.056
231.941
92.7797
8.31525
8.59921
9.41635
10.7188
12.3732
14.4154
17.0202
20.3851
24.5348
29.5112
35.6988
43.2873
52.6881
63.9952
78.495
95.4938
118.849
142.95
179.097
197.096
227.336
90.8746
8.31497
8.59892
9.41596
10.7181
12.3722
14.4141
17.018
20.3764
24.5341
29.507
35.6908
43.2704
52.659
63.9467
78.404
95.3223
118.524
142.347
177.986
195.075
222.619
88.8489
8.31468
8.5986
9.41556
10.7174
12.3712
14.4127
17.0157
20.3646
24.5314
29.5021
35.6832
43.2535
52.6285
63.8978
78.3101
95.1429
118.18
141.718
176.817
192.99
217.793
86.7267
8.31438
8.59827
9.41513
10.7166
12.3701
14.4112
17.0132
20.3506
24.5267
29.4966
35.676
43.2368
52.599
63.8462
78.212
94.9551
117.817
141.059
175.584
190.842
212.862
84.5432
8.31405
8.59792
9.41468
10.7157
12.3689
14.4096
17.0106
20.3352
24.5197
29.4904
35.6691
43.2203
52.568
63.7939
78.1105
94.7587
117.434
140.369
174.284
188.629
207.834
82.3093
8.31371
8.59755
9.4142
10.7148
12.3677
14.4079
17.0079
20.319
24.5101
29.4833
35.6622
43.2038
52.5377
63.7386
78.0042
94.5534
117.03
139.647
172.912
186.351
202.712
80.0292
8.31335
8.59716
9.4137
10.7139
12.3664
14.4061
17.0049
20.3027
24.4974
29.475
35.6551
43.1873
52.5058
63.6822
77.8938
94.3387
116.605
138.892
171.466
184.007
197.501
77.7119
8.31297
8.59675
9.41316
10.7129
12.365
14.4042
17.0018
20.2869
24.4812
29.4651
35.6476
43.1709
52.4743
63.6225
77.778
94.1141
116.158
138.102
169.942
181.594
192.208
75.3698
8.31257
8.59631
9.41259
10.7118
12.3636
14.4023
16.9985
20.2723
24.4612
29.4531
35.6392
43.1542
52.4409
63.5612
77.6574
93.8792
115.69
137.275
168.34
179.112
186.836
73.0163
8.31214
8.59585
9.41199
10.7107
12.362
14.4001
16.995
20.2593
24.4372
29.4383
35.6292
43.1373
52.4078
63.496
77.5306
93.6333
115.198
136.411
166.658
176.559
181.391
70.6656
8.31169
8.59536
9.41135
10.7095
12.3604
14.3979
16.9913
20.2478
24.4093
29.42
35.6171
43.1197
52.3727
63.4288
77.398
93.3758
114.683
135.507
164.895
173.934
175.876
68.3317
8.31121
8.59484
9.41068
10.7083
12.3587
14.3955
16.9874
20.2378
24.3784
29.3973
35.6016
43.1013
52.3375
63.3571
77.2583
93.1059
114.143
134.562
163.051
171.234
170.295
66.0277
8.3107
8.59429
9.40996
10.7069
12.3568
14.393
16.9833
20.229
24.3454
29.3695
35.5817
43.0812
52.3
63.2828
77.1118
92.8229
113.576
133.575
161.124
168.46
164.654
63.7642
8.31016
8.5937
9.4092
10.7055
12.3549
14.3903
16.9789
20.2208
24.3118
29.336
35.5557
43.0586
52.2621
63.2035
76.957
92.5258
112.983
132.544
159.115
165.609
158.956
61.5482
8.30959
8.59308
9.40839
10.704
12.3528
14.3875
16.9742
20.2129
24.2791
29.297
35.5218
43.0319
52.2211
63.1209
76.7943
92.2139
112.36
131.468
157.024
162.68
153.208
59.3827
8.30898
8.59242
9.40753
10.7025
12.3507
14.3845
16.9692
20.2048
24.2488
29.2531
35.4782
42.9992
52.1786
63.0328
76.6221
91.8861
111.706
130.343
154.848
159.671
147.414
57.2656
8.30834
8.59172
9.40661
10.7008
12.3483
14.3813
16.9639
20.1965
24.2216
29.2057
35.4236
42.9573
52.1309
62.9407
76.4407
91.5416
111.021
129.169
152.589
156.582
141.583
55.1894
8.30766
8.59097
9.40564
10.6991
12.3459
14.3779
16.9582
20.1877
24.1973
29.1566
35.3576
42.9026
52.0779
62.8419
76.2484
91.1794
110.301
127.943
150.244
153.409
135.723
53.1419
8.30693
8.59018
9.4046
10.6972
12.3433
14.3743
16.9522
20.1783
24.1756
29.1078
35.2814
42.8307
52.0137
62.7375
76.0456
90.7986
109.546
126.663
147.813
150.152
129.843
51.106
8.30616
8.58933
9.4035
10.6952
12.3405
14.3704
16.9459
20.1682
24.1555
29.0609
35.1975
42.7382
51.9347
62.6235
75.8301
90.3981
108.755
125.328
145.296
146.81
123.954
49.0609
8.30534
8.58844
9.40232
10.6931
12.3376
14.3663
16.9391
20.1576
24.136
29.0167
35.1096
42.6236
51.831
62.4982
75.6019
89.9771
107.925
123.934
142.692
143.379
118.068
46.9835
8.30447
8.58748
9.40107
10.6909
12.3344
14.362
16.9319
20.1462
24.1166
28.9753
35.0215
42.4888
51.6957
62.3535
75.3574
89.5341
107.057
122.481
139.999
139.859
112.198
44.8492
8.30354
8.58646
9.39973
10.6885
12.3311
14.3574
16.9242
20.134
24.0966
28.9362
34.9363
42.3396
51.5201
62.1817
75.0934
89.0676
106.147
120.966
137.219
136.248
106.358
42.6338
8.30256
8.58538
9.3983
10.686
12.3276
14.3524
16.9161
20.1211
24.0757
28.8983
34.8555
42.184
51.3039
61.9683
74.8016
88.575
105.196
119.388
134.351
132.545
100.562
40.3148
8.30151
8.58422
9.39678
10.6834
12.3238
14.3472
16.9074
20.1073
24.0536
28.8606
34.7793
42.0294
51.0523
61.7021
74.4713
88.0518
104.202
117.745
131.396
128.75
94.8244
37.8727
8.30039
8.58299
9.39516
10.6806
12.3198
14.3415
16.8982
20.0926
24.0302
28.8221
34.7064
41.8814
50.7797
61.374
74.0851
87.4904
103.163
116.036
128.353
124.863
89.1593
35.2921
8.2992
8.58168
9.39343
10.6776
12.3156
14.3356
16.8884
20.077
24.0053
28.7821
34.6352
41.7416
50.5015
60.9882
73.6264
86.8789
102.074
114.258
125.225
120.884
83.5807
32.5629
8.29793
8.58027
9.39158
10.6744
12.311
14.3292
16.878
20.0604
23.9788
28.74
34.5635
41.6088
50.2314
60.5594
73.0818
86.2011
100.929
112.411
122.013
116.816
78.1017
29.6807
8.29657
8.57878
9.3896
10.6711
12.3062
14.3224
16.8669
20.0427
23.9506
28.6956
34.4897
41.4801
49.9757
60.1116
72.4531
85.4394
99.7181
110.493
118.719
112.662
72.7348
26.6474
8.29513
8.57718
9.38748
10.6675
12.3011
14.3151
16.855
20.0239
23.9207
28.6484
34.4127
41.3516
49.7344
59.6665
71.7578
84.5803
98.4294
108.503
115.348
108.426
67.4914
23.4718
8.29359
8.57547
9.38522
10.6637
12.2956
14.3073
16.8425
20.0039
23.8888
28.5983
34.3317
41.22
49.5021
59.238
71.027
83.6227
97.0498
106.438
111.905
104.115
62.3824
20.1685
8.29194
8.57365
9.3828
10.6597
12.2898
14.299
16.829
19.9825
23.8548
28.545
34.246
41.0829
49.2717
58.8281
70.2919
82.582
95.5706
104.298
108.401
99.7372
57.4183
16.758
8.29019
8.5717
9.38022
10.6554
12.2836
14.2902
16.8147
19.9598
23.8187
28.4883
34.1552
40.9386
49.0367
58.43
69.5732
81.4867
93.9928
102.086
104.851
95.3062
52.6102
13.2658
8.28831
8.56962
9.37745
10.6508
12.2769
14.2807
16.7995
19.9355
23.7803
28.4281
34.0588
40.7862
48.7921
58.0325
68.8749
80.3679
92.3293
99.807
101.277
90.8399
47.9705
9.72172
8.28631
8.56739
9.37449
10.6459
12.2699
14.2706
16.7833
19.9097
23.7394
28.364
33.9564
40.6249
48.5349
57.6252
68.1868
79.2466
90.6021
97.4709
97.7055
86.3626
43.5137
6.1589
8.28417
8.56501
9.37132
10.6408
12.2623
14.2597
16.7659
19.8822
23.6958
28.2957
33.8477
40.4539
48.2635
57.2002
67.4926
78.1281
88.8338
95.0876
94.1685
81.9066
39.2576
2.61356
8.28188
8.56246
9.36792
10.6352
12.2543
14.2481
16.7475
19.8528
23.6494
28.2231
33.7323
40.2725
47.9768
56.7531
66.7766
77.0028
87.0405
92.6627
90.6933
77.5103
35.2222
-0.875592
8.27944
8.55973
9.36429
10.6294
12.2457
14.2357
16.7277
19.8215
23.6
28.1458
33.6097
40.0802
47.6737
56.2817
66.0278
75.8536
85.2267
90.1934
87.2934
73.2148
31.4294
-4.26795
8.27682
8.55681
9.36039
10.6231
12.2365
14.2225
16.7067
19.7882
23.5474
28.0636
33.4795
39.8762
47.3531
55.7847
65.241
74.6632
83.3857
87.6716
83.9591
69.0558
27.8995
-7.52208
8.27402
8.55368
9.35622
10.6164
12.2267
14.2083
16.6842
19.7526
23.4914
27.9761
33.3412
39.66
47.014
55.2606
64.4143
73.4202
81.5026
85.0903
80.6556
65.0519
24.647
-10.5973
8.27102
8.55034
9.35174
10.6093
12.2163
14.1931
16.6602
19.7147
23.4317
27.8829
33.1944
39.4308
46.6555
54.7083
63.5477
72.12
79.5613
82.4465
77.337
61.1938
21.6739
-13.4564
8.26781
8.54675
9.34695
10.6018
12.2051
14.1768
16.6346
19.6742
23.368
27.7838
33.0384
39.1878
46.2766
54.1262
62.6403
70.7626
77.5516
79.7381
73.9681
57.4428
18.9622
-16.0693
8.26438
8.54291
9.34181
10.5937
12.1932
14.1594
16.6073
19.631
23.3003
27.6783
32.8729
38.9304
45.8764
53.5132
61.6912
69.3494
75.4716
76.9621
70.5374
53.745
16.4693
-18.4174
8.2607
8.53879
9.33629
10.585
12.1805
14.1407
16.578