/*--------------------------------*- C++ -*----------------------------------*\
| =========                 |                                                 |
| \\      /  F ield         | OpenFOAM: The Open Source CFD Toolbox           |
|  \\    /   O peration     | Version:  v1912                                 |
|   \\  /    A nd           | Website:  www.openfoam.com                      |
|    \\/     M anipulation  |                                                 |
\*---------------------------------------------------------------------------*/
FoamFile
{
    version     2.0;
    format      ascii;
    class       surfaceScalarField;
    location    "180";
    object      phi;
}
// * * * * * * * * * * * * * * * * * * * * * * * * * * * * * * * * * * * * * //

dimensions      [0 3 -1 0 0 0 0];
oriented        oriented;


internalField   nonuniform List<scalar> 
24588
(
6.81688e-05
1.91548e-08
6.81178e-05
5.22252e-08
6.80355e-05
8.01531e-08
6.79249e-05
1.10287e-07
6.7781e-05
1.44824e-07
6.75966e-05
1.85398e-07
6.73657e-05
2.29919e-07
6.70761e-05
2.89253e-07
6.67167e-05
3.59386e-07
6.62685e-05
4.48657e-07
6.57192e-05
5.48482e-07
6.49803e-05
7.11508e-07
6.41868e-05
8.80716e-07
6.29607e-05
1.14526e-06
6.15077e-05
1.45628e-06
5.92423e-05
2.27985e-06
5.64192e-05
2.82296e-06
5.18158e-05
4.60309e-06
4.53021e-05
6.5136e-06
3.42103e-05
1.1092e-05
2.04184e-05
1.37919e-05
2.04184e-05
6.81689e-05
3.90279e-08
6.81174e-05
1.05324e-07
6.80362e-05
1.58385e-07
6.79258e-05
2.20369e-07
6.77806e-05
2.91205e-07
6.75963e-05
3.70967e-07
6.73664e-05
4.58491e-07
6.70767e-05
5.78624e-07
6.67163e-05
7.19708e-07
6.62689e-05
8.96532e-07
6.57178e-05
1.09862e-06
6.4978e-05
1.42012e-06
6.42029e-05
1.7514e-06
6.29463e-05
2.3214e-06
6.14944e-05
2.91207e-06
5.92985e-05
4.49001e-06
5.64305e-05
5.69071e-06
5.17834e-05
9.24968e-06
4.53428e-05
1.2954e-05
3.41115e-05
2.23237e-05
2.03708e-05
2.75326e-05
4.0789e-05
6.8169e-05
5.88698e-08
6.81174e-05
1.58415e-07
6.80361e-05
2.36863e-07
6.79257e-05
3.30408e-07
6.77806e-05
4.37444e-07
6.75963e-05
5.5652e-07
6.73664e-05
6.87197e-07
6.70766e-05
8.68015e-07
6.67162e-05
1.08006e-06
6.62687e-05
1.34454e-06
6.57185e-05
1.64787e-06
6.49748e-05
2.13172e-06
6.42018e-05
2.62645e-06
6.29553e-05
3.47288e-06
6.14986e-05
4.3729e-06
5.93335e-05
6.67141e-06
5.6429e-05
8.59492e-06
5.18031e-05
1.38749e-05
4.53142e-05
1.94426e-05
3.41259e-05
3.35124e-05
2.03872e-05
4.12714e-05
6.11762e-05
6.81689e-05
7.87376e-08
6.81175e-05
2.11419e-07
6.80363e-05
3.15008e-07
6.79258e-05
4.40513e-07
6.77807e-05
5.83851e-07
6.75964e-05
7.42024e-07
6.73665e-05
9.15766e-07
6.70767e-05
1.15742e-06
6.67163e-05
1.4404e-06
6.62689e-05
1.79247e-06
6.5718e-05
2.19777e-06
6.49789e-05
2.83953e-06
6.4199e-05
3.5006e-06
6.29459e-05
4.64866e-06
6.14891e-05
5.83346e-06
5.93493e-05
8.82476e-06
5.6451e-05
1.14929e-05
5.18179e-05
1.85074e-05
4.52992e-05
2.5961e-05
3.41496e-05
4.46623e-05
2.04178e-05
5.50033e-05
8.15938e-05
6.8169e-05
9.85477e-08
6.81175e-05
2.64387e-07
6.80362e-05
3.93479e-07
6.79258e-05
5.50579e-07
6.77807e-05
7.30078e-07
6.75964e-05
9.27488e-07
6.73665e-05
1.14449e-06
6.70767e-05
1.44684e-06
6.67162e-05
1.80075e-06
6.62688e-05
2.24049e-06
6.57185e-05
2.74706e-06
6.49742e-05
3.55224e-06
6.41969e-05
4.38104e-06
6.29548e-05
5.7954e-06
6.14929e-05
7.29958e-06
5.93598e-05
1.09743e-05
5.64772e-05
1.43752e-05
5.18188e-05
2.31651e-05
4.53154e-05
3.24641e-05
3.41912e-05
5.57869e-05
2.04633e-05
6.87312e-05
0.000102057
6.81689e-05
1.18406e-07
6.81175e-05
3.17271e-07
6.80364e-05
4.71475e-07
6.79259e-05
6.60722e-07
6.77808e-05
8.76549e-07
6.75965e-05
1.11292e-06
6.73667e-05
1.37302e-06
6.70769e-05
1.73626e-06
6.67164e-05
2.16109e-06
6.6269e-05
2.68843e-06
6.57179e-05
3.29709e-06
6.49805e-05
4.25876e-06
6.41961e-05
5.25642e-06
6.29454e-05
6.9735e-06
6.1485e-05
8.76399e-06
5.93574e-05
1.31147e-05
5.64931e-05
1.72391e-05
5.1827e-05
2.78308e-05
4.53445e-05
3.89463e-05
3.42524e-05
6.68794e-05
2.05254e-05
8.24582e-05
0.000122582
6.8169e-05
1.38192e-07
6.81175e-05
3.7011e-07
6.80363e-05
5.49866e-07
6.79259e-05
7.70809e-07
6.77808e-05
1.0228e-06
6.75966e-05
1.29829e-06
6.73666e-05
1.60173e-06
6.70768e-05
2.0257e-06
6.67164e-05
2.52142e-06
6.6269e-05
3.13642e-06
6.57183e-05
3.84677e-06
6.49741e-05
4.97228e-06
6.41951e-05
6.1379e-06
6.29577e-05
8.11304e-06
6.14904e-05
1.02366e-05
5.93548e-05
1.52664e-05
5.65113e-05
2.00822e-05
5.18432e-05
3.24982e-05
4.53864e-05
4.54027e-05
3.4338e-05
7.79282e-05
2.06063e-05
9.619e-05
0.000143189
6.81689e-05
1.58041e-07
6.81176e-05
4.22876e-07
6.80365e-05
6.27704e-07
6.79261e-05
8.80986e-07
6.77809e-05
1.16934e-06
6.75967e-05
1.48364e-06
6.73668e-05
1.8302e-06
6.7077e-05
2.31513e-06
6.67166e-05
2.88175e-06
6.62692e-05
3.58435e-06
6.57179e-05
4.39698e-06
6.49831e-05
5.6766e-06
6.4195e-05
7.01183e-06
6.29455e-05
9.29527e-06
6.14751e-05
1.17127e-05
5.93397e-05
1.74136e-05
5.65275e-05
2.2894e-05
5.1876e-05
3.71494e-05
4.54486e-05
5.18301e-05
3.44548e-05
8.89223e-05
2.07087e-05
0.000109936
0.000163897
6.8169e-05
1.77803e-07
6.81176e-05
4.756e-07
6.80364e-05
7.06042e-07
6.79259e-05
9.91092e-07
6.77809e-05
1.31561e-06
6.75967e-05
1.66893e-06
6.73667e-05
2.0589e-06
6.7077e-05
2.60456e-06
6.67166e-05
3.24203e-06
6.62693e-05
4.03221e-06
6.57183e-05
4.94706e-06
6.49734e-05
6.39203e-06
6.41887e-05
7.90049e-06
6.29555e-05
1.04311e-05
6.14663e-05
1.32062e-05
5.93392e-05
1.95522e-05
5.65219e-05
2.57112e-05
5.1939e-05
4.17318e-05
4.55383e-05
5.82305e-05
3.46087e-05
9.98521e-05
2.08358e-05
0.000123709
0.000184733
6.81689e-05
1.97639e-07
6.81177e-05
5.28253e-07
6.80367e-05
7.83756e-07
6.79261e-05
1.1013e-06
6.7781e-05
1.4622e-06
6.75968e-05
1.85421e-06
6.7367e-05
2.28732e-06
6.70772e-05
2.89398e-06
6.67168e-05
3.60231e-06
6.62694e-05
4.48008e-06
6.57177e-05
5.49775e-06
6.49874e-05
7.09249e-06
6.41878e-05
8.77712e-06
6.29393e-05
1.16196e-05
6.14413e-05
1.47111e-05
5.93431e-05
2.16569e-05
5.64909e-05
2.85631e-05
5.20227e-05
4.61999e-05
4.56563e-05
6.4597e-05
3.48019e-05
0.000110707
2.09899e-05
0.000137521
0.000205723
6.8169e-05
2.17373e-07
6.81176e-05
5.80861e-07
6.80365e-05
8.62062e-07
6.7926e-05
1.21142e-06
6.7781e-05
1.60848e-06
6.75968e-05
2.03941e-06
6.73669e-05
2.51601e-06
6.70771e-05
3.1834e-06
6.67168e-05
3.96254e-06
6.62697e-05
4.92775e-06
6.57179e-05
6.04865e-06
6.49744e-05
7.80835e-06
6.41598e-05
9.69139e-06
6.29308e-05
1.27665e-05
6.14183e-05
1.62254e-05
5.93385e-05
2.37418e-05
5.64573e-05
3.14443e-05
5.21168e-05
5.054e-05
4.57947e-05
7.09189e-05
3.50292e-05
0.000121472
2.11721e-05
0.000151378
0.000226895
6.81689e-05
2.3719e-07
6.81177e-05
6.33403e-07
6.80368e-05
9.3969e-07
6.79262e-05
1.32166e-06
6.7781e-05
1.75511e-06
6.75969e-05
2.22461e-06
6.73671e-05
2.7444e-06
6.70774e-05
3.4728e-06
6.67171e-05
4.32276e-06
6.62698e-05
5.37545e-06
6.57164e-05
6.60107e-06
6.49889e-05
8.50836e-06
6.41451e-05
1.05963e-05
6.29203e-05
1.39551e-05
6.13896e-05
1.77615e-05
5.93273e-05
2.58062e-05
5.64367e-05
3.43347e-05
5.22084e-05
5.47684e-05
4.59398e-05
7.71874e-05
3.52806e-05
0.000132132
2.13812e-05
0.000165278
0.000248276
6.8169e-05
2.56889e-07
6.81177e-05
6.8591e-07
6.80365e-05
1.01803e-06
6.79261e-05
1.4318e-06
6.77811e-05
1.90136e-06
6.75969e-05
2.40973e-06
6.7367e-05
2.97309e-06
6.70773e-05
3.76219e-06
6.6717e-05
4.68292e-06
6.627e-05
5.82306e-06
6.57152e-05
7.15496e-06
6.49811e-05
9.21832e-06
6.41104e-05
1.15476e-05
6.29151e-05
1.51095e-05
6.13648e-05
1.93104e-05
5.93166e-05
2.78562e-05
5.64297e-05
3.72217e-05
5.22865e-05
5.89114e-05
4.608e-05
8.33938e-05
3.55449e-05
0.000142667
2.16147e-05
0.000179208
0.000269891
6.8169e-05
2.76682e-07
6.81178e-05
7.38345e-07
6.80368e-05
1.09562e-06
6.79263e-05
1.54207e-06
6.77811e-05
2.04802e-06
6.7597e-05
2.59484e-06
6.73673e-05
3.20146e-06
6.70775e-05
4.05155e-06
6.67174e-05
5.04303e-06
6.62702e-05
6.27068e-06
6.57107e-05
7.71341e-06
6.499e-05
9.91746e-06
6.41027e-05
1.24627e-05
6.29065e-05
1.62974e-05
6.13447e-05
2.08756e-05
5.93081e-05
2.98932e-05
5.64297e-05
4.01001e-05
5.23485e-05
6.29926e-05
4.62091e-05
8.95333e-05
3.58135e-05
0.000153062
2.18692e-05
0.000193152
0.00029176
6.8169e-05
2.96343e-07
6.81177e-05
7.90747e-07
6.80366e-05
1.17401e-06
6.79261e-05
1.65223e-06
6.77811e-05
2.19423e-06
6.7597e-05
2.77988e-06
6.73672e-05
3.43015e-06
6.70775e-05
4.34091e-06
6.67174e-05
5.40301e-06
6.627e-05
6.7186e-06
6.57054e-05
8.27725e-06
6.49813e-05
1.06243e-05
6.40858e-05
1.33975e-05
6.28957e-05
1.74691e-05
6.13302e-05
2.24393e-05
5.93014e-05
3.19228e-05
5.64317e-05
4.29699e-05
5.23969e-05
6.70273e-05
4.63256e-05
9.56044e-05
3.60808e-05
0.000163307
2.21412e-05
0.000207092
0.000313901
6.8169e-05
3.16105e-07
6.81178e-05
8.43075e-07
6.80369e-05
1.25159e-06
6.79263e-05
1.76253e-06
6.77812e-05
2.34089e-06
6.75971e-05
2.96491e-06
6.73674e-05
3.65849e-06
6.70778e-05
4.63022e-06
6.67179e-05
5.76275e-06
6.62703e-05
7.16663e-06
6.56972e-05
8.84947e-06
6.49777e-05
1.13309e-05
6.4073e-05
1.43045e-05
6.28845e-05
1.86591e-05
6.13195e-05
2.40068e-05
5.92958e-05
3.39466e-05
5.64335e-05
4.58321e-05
5.24352e-05
7.10257e-05
4.64304e-05
0.000101609
3.63438e-05
0.000173394
2.24276e-05
0.000221008
0.000336328
6.81691e-05
3.35723e-07
6.81178e-05
8.95385e-07
6.80366e-05
1.33009e-06
6.79261e-05
1.87269e-06
6.77812e-05
2.48704e-06
6.75972e-05
3.14986e-06
6.73673e-05
3.88719e-06
6.70777e-05
4.91948e-06
6.67181e-05
6.12234e-06
6.62703e-05
7.61486e-06
6.56856e-05
9.43349e-06
6.49744e-05
1.20346e-05
6.40599e-05
1.52394e-05
6.28756e-05
1.98334e-05
6.13117e-05
2.55687e-05
5.92909e-05
3.59678e-05
5.64344e-05
4.86887e-05
5.24666e-05
7.49934e-05
4.65254e-05
0.00010755
3.66013e-05
0.000183318
2.2726e-05
0.000234884
0.000359054
6.8169e-05
3.55451e-07
6.81179e-05
9.47609e-07
6.8037e-05
1.40769e-06
6.79264e-05
1.98302e-06
6.77812e-05
2.6337e-06
6.75973e-05
3.33479e-06
6.73676e-05
4.11551e-06
6.70781e-05
5.20865e-06
6.67185e-05
6.48184e-06
6.62712e-05
8.06254e-06
6.56751e-05
1.00288e-05
6.4973e-05
1.27321e-05
6.40501e-05
1.61574e-05
6.28683e-05
2.10191e-05
6.13058e-05
2.71332e-05
5.92866e-05
3.79869e-05
5.64346e-05
5.15406e-05
5.24938e-05
7.89342e-05
4.66129e-05
0.000113431
3.68536e-05
0.000193077
2.30346e-05
0.000248703
0.000382089
6.81691e-05
3.75024e-07
6.81178e-05
9.99823e-07
6.80366e-05
1.4863e-06
6.79261e-05
2.0932e-06
6.77813e-05
2.77978e-06
6.75973e-05
3.51963e-06
6.73674e-05
4.34425e-06
6.7078e-05
5.49774e-06
6.67184e-05
6.8414e-06
6.62709e-05
8.51051e-06
6.56679e-05
1.06312e-05
6.49696e-05
1.34286e-05
6.40422e-05
1.7097e-05
6.28626e-05
2.21915e-05
6.13012e-05
2.86929e-05
5.92827e-05
4.00057e-05
5.64344e-05
5.4389e-05
5.2519e-05
8.28495e-05
4.66954e-05
0.000119255
3.71017e-05
0.000202671
2.33525e-05
0.000262452
0.000405441
6.8169e-05
3.94715e-07
6.81179e-05
1.05194e-06
6.8037e-05
1.56393e-06
6.79264e-05
2.20356e-06
6.77813e-05
2.92642e-06
6.75974e-05
3.70447e-06
6.73677e-05
4.57257e-06
6.70784e-05
5.78675e-06
6.67187e-05
7.20097e-06
6.6268e-05
8.96167e-06
6.56671e-05
1.12315e-05
6.49656e-05
1.41286e-05
6.40363e-05
1.802e-05
6.2858e-05
2.3374e-05
6.12976e-05
3.0255e-05
5.92795e-05
4.20237e-05
5.64343e-05
5.72341e-05
5.25437e-05
8.67402e-05
4.6775e-05
0.000125023
3.73469e-05
0.000212099
2.36791e-05
0.000276119
0.00042912
6.81691e-05
4.1424e-07
6.81179e-05
1.10407e-06
6.80366e-05
1.64268e-06
6.79261e-05
2.31374e-06
6.77813e-05
3.07243e-06
6.75974e-05
3.88921e-06
6.73676e-05
4.80133e-06
6.70783e-05
6.07574e-06
6.67187e-05
7.56052e-06
6.62598e-05
9.42101e-06
6.56714e-05
1.18198e-05
6.49614e-05
1.48382e-05
6.40315e-05
1.89592e-05
6.28543e-05
2.45454e-05
6.12948e-05
3.18129e-05
5.92769e-05
4.40419e-05
5.6435e-05
6.0076e-05
5.25694e-05
9.06057e-05
4.68537e-05
0.000130739
3.75911e-05
0.000221362
2.40146e-05
0.000289696
0.000453135
6.8169e-05
4.33892e-07
6.8118e-05
1.15609e-06
6.80371e-05
1.72037e-06
6.79264e-05
2.42413e-06
6.77814e-05
3.21903e-06
6.75975e-05
4.07395e-06
6.73679e-05
5.02964e-06
6.70786e-05
6.36473e-06
6.67193e-05
7.91976e-06
6.62512e-05
9.88943e-06
6.56767e-05
1.2394e-05
6.49577e-05
1.55565e-05
6.40278e-05
1.98829e-05
6.28512e-05
2.5726e-05
6.12928e-05
3.33728e-05
5.92752e-05
4.60595e-05
5.64368e-05
6.29143e-05
5.25971e-05
9.44454e-05
4.69331e-05
0.000136403
3.78363e-05
0.000230459
2.43593e-05
0.000303173
0.000477494
6.81691e-05
4.53371e-07
6.81179e-05
1.20813e-06
6.80366e-05
1.79925e-06
6.79261e-05
2.53432e-06
6.77814e-05
3.36495e-06
6.75975e-05
4.2586e-06
6.73678e-05
5.25838e-06
6.70784e-05
6.65379e-06
6.67195e-05
8.27863e-06
6.62442e-05
1.03652e-05
6.56796e-05
1.29586e-05
6.49544e-05
1.62816e-05
6.40247e-05
2.08204e-05
6.28488e-05
2.68967e-05
6.12915e-05
3.49286e-05
5.92746e-05
4.80766e-05
5.64403e-05
6.57486e-05
5.26273e-05
9.82583e-05
4.70143e-05
0.000142016
3.80845e-05
0.000239389
2.47141e-05
0.000316543
0.000502208
6.8169e-05
4.72982e-07
6.8118e-05
1.26004e-06
6.80371e-05
1.87699e-06
6.79265e-05
2.64473e-06
6.77814e-05
3.51152e-06
6.75976e-05
4.44324e-06
6.73681e-05
5.48662e-06
6.70787e-05
6.94286e-06
6.67203e-05
8.63703e-06
6.62402e-05
1.08455e-05
6.56801e-05
1.35186e-05
6.49517e-05
1.70096e-05
6.40222e-05
2.17438e-05
6.28469e-05
2.8076e-05
6.1291e-05
3.6486e-05
5.92754e-05
5.00921e-05
5.64458e-05
6.85782e-05
5.26605e-05
0.000102044
4.70982e-05
0.000147578
3.83378e-05
0.000248149
2.508e-05
0.000329801
0.000527288
6.81692e-05
4.92412e-07
6.81179e-05
1.312e-06
6.80366e-05
1.95603e-06
6.79261e-05
2.75493e-06
6.77815e-05
3.65734e-06
6.75977e-05
4.62779e-06
6.7368e-05
5.71535e-06
6.70786e-05
7.23192e-06
6.67203e-05
8.99527e-06
6.62375e-05
1.13289e-05
6.56794e-05
1.40767e-05
6.49493e-05
1.77397e-05
6.40201e-05
2.26799e-05
6.28454e-05
2.92458e-05
6.12911e-05
3.80389e-05
5.92777e-05
5.21057e-05
5.64537e-05
7.14022e-05
5.26966e-05
0.000105801
4.71856e-05
0.000153089
3.85985e-05
0.000256736
2.54583e-05
0.000342941
0.000552747
6.81691e-05
5.11982e-07
6.81181e-05
1.36382e-06
6.80372e-05
2.03384e-06
6.79265e-05
2.86537e-06
6.77815e-05
3.80386e-06
6.75978e-05
4.81234e-06
6.73683e-05
5.94357e-06
6.70791e-05
7.52088e-06
6.67196e-05
9.3546e-06
6.62371e-05
1.18116e-05
6.56782e-05
1.46356e-05
6.49473e-05
1.84703e-05
6.40184e-05
2.36031e-05
6.28444e-05
3.04237e-05
6.1292e-05
3.95927e-05
5.92817e-05
5.4116e-05
5.64639e-05
7.422e-05
5.27356e-05
0.000109529
4.72767e-05
0.000158548
3.88685e-05
0.000265144
2.58506e-05
0.000355959
0.000578597
6.81692e-05
5.31365e-07
6.8118e-05
1.4157e-06
6.80366e-05
2.11302e-06
6.79261e-05
2.97557e-06
6.77815e-05
3.94958e-06
6.75978e-05
4.99677e-06
6.73682e-05
6.17231e-06
6.70791e-05
7.80974e-06
6.67148e-05
9.71882e-06
6.624e-05
1.22868e-05
6.56769e-05
1.51987e-05
6.49455e-05
1.92018e-05
6.40169e-05
2.45381e-05
6.28438e-05
3.15922e-05
6.12938e-05
4.11413e-05
5.92873e-05
5.61227e-05
5.64766e-05
7.70307e-05
5.27774e-05
0.000113228
4.73718e-05
0.000163954
3.91498e-05
0.000273367
2.62584e-05
0.000368851
0.000604855
6.81691e-05
5.50894e-07
6.81181e-05
1.46742e-06
6.80372e-05
2.1909e-06
6.79265e-05
3.08602e-06
6.77816e-05
4.09606e-06
6.75979e-05
5.18119e-06
6.73685e-05
6.40054e-06
6.70795e-05
8.09844e-06
6.67083e-05
1.00899e-05
6.6245e-05
1.27503e-05
6.56757e-05
1.57679e-05
6.4944e-05
1.99332e-05
6.40158e-05
2.54608e-05
6.28437e-05
3.27681e-05
6.12963e-05
4.26902e-05
5.92944e-05
5.81245e-05
5.64917e-05
7.98334e-05
5.28218e-05
0.000116898
4.7471e-05
0.000169304
3.9444e-05
0.000281394
2.66831e-05
0.000381611
0.000631539
6.81692e-05
5.70229e-07
6.8118e-05
1.51922e-06
6.80366e-05
2.27024e-06
6.79261e-05
3.19622e-06
6.77816e-05
4.24168e-06
6.7598e-05
5.3655e-06
6.73684e-05
6.62933e-06
6.70795e-05
8.38702e-06
6.6703e-05
1.04664e-05
6.62486e-05
1.32049e-05
6.56745e-05
1.63421e-05
6.49426e-05
2.06651e-05
6.40148e-05
2.63947e-05
6.28439e-05
3.39345e-05
6.12995e-05
4.42331e-05
5.93031e-05
6.01211e-05
5.65093e-05
8.26272e-05
5.28688e-05
0.000120539
4.7574e-05
0.000174599
3.97523e-05
0.000289215
2.71263e-05
0.000394238
0.000658665
6.81691e-05
5.89717e-07
6.81182e-05
1.57084e-06
6.80372e-05
2.34819e-06
6.79265e-05
3.3067e-06
6.77817e-05
4.3881e-06
6.75981e-05
5.5498e-06
6.73687e-05
6.85756e-06
6.708e-05
8.67545e-06
6.66999e-05
1.08464e-05
6.62508e-05
1.36541e-05
6.56735e-05
1.69194e-05
6.49415e-05
2.13967e-05
6.40141e-05
2.73168e-05
6.28445e-05
3.51079e-05
6.13035e-05
4.57756e-05
5.93131e-05
6.21114e-05
5.65292e-05
8.54111e-05
5.29183e-05
0.00012415
4.76807e-05
0.000179837
4.00756e-05
0.00029682
2.75891e-05
0.000406724
0.000686254
6.81692e-05
6.0901e-07
6.8118e-05
1.62256e-06
6.80366e-05
2.42764e-06
6.79262e-05
3.41689e-06
6.77817e-05
4.53363e-06
6.75982e-05
5.73398e-06
6.73686e-05
7.08635e-06
6.708e-05
8.96376e-06
6.66978e-05
1.12286e-05
6.62521e-05
1.41e-05
6.56725e-05
1.7499e-05
6.49405e-05
2.21288e-05
6.40136e-05
2.82495e-05
6.28455e-05
3.62715e-05
6.13081e-05
4.73114e-05
5.93244e-05
6.40952e-05
5.65514e-05
8.81841e-05
5.29703e-05
0.000127731
4.77908e-05
0.000185016
4.04141e-05
0.000304197
2.80724e-05
0.000419066
0.000714326
6.81691e-05
6.28459e-07
6.81182e-05
1.67409e-06
6.80373e-05
2.50566e-06
6.79266e-05
3.52738e-06
6.77817e-05
4.68e-06
6.75983e-05
5.91816e-06
6.7369e-05
7.31454e-06
6.70805e-05
9.25196e-06
6.66967e-05
1.16123e-05
6.62529e-05
1.45438e-05
6.56717e-05
1.80801e-05
6.49397e-05
2.28606e-05
6.40133e-05
2.91707e-05
6.28468e-05
3.74419e-05
6.13133e-05
4.88464e-05
5.93369e-05
6.60716e-05
5.65758e-05
9.09452e-05
5.30247e-05
0.000131282
4.7904e-05
0.000190137
4.07677e-05
0.000311333
2.85769e-05
0.000431256
0.000742903
6.81693e-05
6.47708e-07
6.8118e-05
1.72575e-06
6.80366e-05
2.58526e-06
6.79262e-05
3.63757e-06
6.77818e-05
4.82542e-06
6.75983e-05
6.10222e-06
6.73689e-05
7.54328e-06
6.70805e-05
9.54011e-06
6.66959e-05
1.19968e-05
6.62534e-05
1.49864e-05
6.5671e-05
1.86625e-05
6.49389e-05
2.35927e-05
6.40132e-05
3.01021e-05
6.28484e-05
3.8602e-05
6.1319e-05
5.03742e-05
5.93505e-05
6.80403e-05
5.66025e-05
9.36931e-05
5.30817e-05
0.000134802
4.80202e-05
0.000195198
4.11358e-05
0.000318218
2.91027e-05
0.00044329
0.000772006
6.81691e-05
6.67118e-07
6.81183e-05
1.77718e-06
6.80373e-05
2.66333e-06
6.79266e-05
3.74808e-06
6.77818e-05
4.97174e-06
6.75985e-05
6.28629e-06
6.73693e-05
7.77137e-06
6.70809e-05
9.82822e-06
6.66956e-05
1.23821e-05
6.62537e-05
1.54284e-05
6.56704e-05
1.92458e-05
6.49383e-05
2.43245e-05
6.40132e-05
3.10223e-05
6.28504e-05
3.97688e-05
6.13253e-05
5.19008e-05
5.93651e-05
7.00005e-05
5.66313e-05
9.64269e-05
5.31411e-05
0.000138293
4.81392e-05
0.0002002
4.15181e-05
0.000324839
2.96501e-05
0.000455158
0.000801656
6.81693e-05
6.86329e-07
6.81181e-05
1.82877e-06
6.80366e-05
2.74306e-06
6.79262e-05
3.85826e-06
6.77819e-05
5.11705e-06
6.75985e-05
6.47025e-06
6.73692e-05
8.00002e-06
6.70808e-05
1.01164e-05
6.66953e-05
1.27676e-05
6.62538e-05
1.58699e-05
6.56698e-05
1.98298e-05
6.49378e-05
2.50566e-05
6.40134e-05
3.19521e-05
6.28526e-05
4.09247e-05
6.13321e-05
5.34197e-05
5.93807e-05
7.1952e-05
5.66623e-05
9.91453e-05
5.32032e-05
0.000141752
4.82613e-05
0.000205142
4.1914e-05
0.000331186
3.02191e-05
0.000466853
0.000831875
6.81692e-05
7.05705e-07
6.81183e-05
1.88011e-06
6.80374e-05
2.82114e-06
6.79267e-05
3.96877e-06
6.77819e-05
5.26333e-06
6.75987e-05
6.65421e-06
6.73697e-05
8.22795e-06
6.7081e-05
1.04048e-05
6.66955e-05
1.31531e-05
6.6254e-05
1.63115e-05
6.56694e-05
2.04143e-05
6.49375e-05
2.57882e-05
6.40138e-05
3.28709e-05
6.28551e-05
4.20874e-05
6.13393e-05
5.49371e-05
5.93973e-05
7.3894e-05
5.66954e-05
0.000101847
5.32679e-05
0.000145179
4.83865e-05
0.000210024
4.23233e-05
0.00033725
3.08098e-05
0.000478366
0.000862685
6.81693e-05
7.24881e-07
6.81181e-05
1.93163e-06
6.80367e-05
2.90094e-06
6.79263e-05
4.07894e-06
6.7782e-05
5.40856e-06
6.75987e-05
6.83806e-06
6.73696e-05
8.45644e-06
6.70787e-05
1.06955e-05
6.66975e-05
1.35342e-05
6.6254e-05
1.67551e-05
6.5669e-05
2.09994e-05
6.49372e-05
2.652e-05
6.40143e-05
3.37991e-05
6.28579e-05
4.32388e-05
6.1347e-05
5.64463e-05
5.94149e-05
7.58263e-05
5.67305e-05
0.000104532
5.33355e-05
0.000148574
4.85153e-05
0.000214844
4.2746e-05
0.000343019
3.14225e-05
0.00048969
0.000894107
6.81692e-05
7.44228e-07
6.81184e-05
1.98287e-06
6.80375e-05
2.97901e-06
6.79268e-05
4.18947e-06
6.77821e-05
5.55482e-06
6.75989e-05
7.0219e-06
6.737e-05
8.68429e-06
6.70715e-05
1.09938e-05
6.67049e-05
1.39007e-05
6.62541e-05
1.72058e-05
6.56687e-05
2.15848e-05
6.49371e-05
2.72514e-05
6.4015e-05
3.47162e-05
6.2861e-05
4.43971e-05
6.13552e-05
5.79537e-05
5.94333e-05
7.77482e-05
5.67675e-05
0.000107197
5.34059e-05
0.000151936
4.86478e-05
0.000219602
4.31825e-05
0.000348484
3.20579e-05
0.000500814
0.000926165
6.81693e-05
7.63372e-07
6.81181e-05
2.03433e-06
6.80367e-05
3.05888e-06
6.79263e-05
4.29962e-06
6.77822e-05
5.69996e-06
6.7599e-05
7.20556e-06
6.73699e-05
8.91286e-06
6.70648e-05
1.12986e-05
6.67114e-05
1.42541e-05
6.62541e-05
1.76631e-05
6.56684e-05
2.21705e-05
6.4937e-05
2.79828e-05
6.40159e-05
3.56428e-05
6.28643e-05
4.55436e-05
6.13639e-05
5.94524e-05
5.94526e-05
7.96596e-05
5.68064e-05
0.000109843
5.34795e-05
0.000155263
4.87841e-05
0.000224297
4.36329e-05
0.000353635
3.27164e-05
0.000511731
0.000958881
6.81692e-05
7.82688e-07
6.81184e-05
2.08547e-06
6.80376e-05
3.13696e-06
6.79268e-05
4.41015e-06
6.77822e-05
5.8462e-06
6.75992e-05
7.38921e-06
6.73703e-05
9.14082e-06
6.70625e-05
1.16062e-05
6.67138e-05
1.46028e-05
6.62541e-05
1.81229e-05
6.56682e-05
2.27563e-05
6.49371e-05
2.87137e-05
6.40169e-05
3.65578e-05
6.28679e-05
4.66971e-05
6.1373e-05
6.09492e-05
5.94728e-05
8.15597e-05
5.6847e-05
0.000112469
5.35563e-05
0.000158553
4.8924e-05
0.00022893
4.4097e-05
0.000358462
3.33985e-05
0.000522429
0.00099228
6.81693e-05
8.01815e-07
6.81182e-05
2.13685e-06
6.80368e-05
3.21676e-06
6.79264e-05
4.52029e-06
6.77823e-05
5.99136e-06
6.75993e-05
7.57266e-06
6.7369e-05
9.37065e-06
6.70621e-05
1.19128e-05
6.67146e-05
1.49504e-05
6.6254e-05
1.85835e-05
6.56681e-05
2.33422e-05
6.49372e-05
2.94447e-05
6.40181e-05
3.74835e-05
6.28719e-05
4.78376e-05
6.13826e-05
6.24362e-05
5.94939e-05
8.34485e-05
5.68892e-05
0.000115074
5.36367e-05
0.000161806
4.90672e-05
0.000233499
4.45731e-05
0.000362957
3.41036e-05
0.000532899
0.00102638
6.81692e-05
8.21085e-07
6.81184e-05
2.18794e-06
6.80375e-05
3.29501e-06
6.79269e-05
4.63078e-06
6.77823e-05
6.1375e-06
6.75996e-05
7.75595e-06
6.7362e-05
9.60735e-06
6.70674e-05
1.22073e-05
6.67147e-05
1.53031e-05
6.62539e-05
1.90443e-05
6.5668e-05
2.39281e-05
6.49374e-05
3.0175e-05
6.40194e-05
3.83959e-05
6.2876e-05
4.8986e-05
6.13926e-05
6.39217e-05
5.95158e-05
8.53254e-05
5.69329e-05
0.000117657
5.37208e-05
0.000165018
4.92128e-05
0.000238007
4.50565e-05
0.000367113
3.48283e-05
0.000543127
0.00106121
6.81693e-05
8.40176e-07
6.81182e-05
2.23927e-06
6.80368e-05
3.37498e-06
6.79264e-05
4.74088e-06
6.77824e-05
6.28256e-06
6.75998e-05
7.93897e-06
6.73545e-05
9.85215e-06
6.70732e-05
1.24886e-05
6.67146e-05
1.56617e-05
6.62537e-05
1.95053e-05
6.56679e-05
2.4514e-05
6.49377e-05
3.09053e-05
6.40208e-05
3.93194e-05
6.28804e-05
5.01206e-05
6.14032e-05
6.53965e-05
5.95385e-05
8.71901e-05
5.69778e-05
0.000120218
5.38089e-05
0.000168187
4.93603e-05
0.000242455
4.55374e-05
0.000370936
3.55648e-05
0.000553099
0.00109678
6.81691e-05
8.59402e-07
6.81185e-05
2.29014e-06
6.80379e-05
3.45271e-06
6.79272e-05
4.85137e-06
6.77825e-05
6.42904e-06
6.76e-05
8.1221e-06
6.73521e-05
1.00992e-05
6.70752e-05
1.27654e-05
6.67144e-05
1.60225e-05
6.62535e-05
1.99662e-05
6.56678e-05
2.50996e-05
6.49381e-05
3.16348e-05
6.40224e-05
4.02294e-05
6.28851e-05
5.12629e-05
6.14142e-05
6.68695e-05
5.95621e-05
8.90423e-05
5.70237e-05
0.000122756
5.39022e-05
0.000171309
4.95084e-05
0.000246849
4.60122e-05
0.000374432
3.6392e-05
0.00056272
0.00113317
-8.7647e-06
8.76467e-06
-1.4851e-05
6.08624e-06
-1.51023e-05
2.51256e-07
-1.16171e-05
-3.48552e-06
-8.68118e-06
-2.93542e-06
-7.14129e-06
-1.54107e-06
-6.33406e-06
-8.0832e-07
-5.8994e-06
-4.36728e-07
-5.49294e-06
-4.17098e-07
-4.97932e-06
-5.2726e-07
-3.98764e-06
-1.09272e-06
-1.91947e-06
-1.95177e-06
1.33496e-06
-3.23508e-06
5.10878e-06
-3.77281e-06
9.00859e-06
-3.90307e-06
1.31596e-05
-4.15307e-06
1.77253e-05
-4.56694e-06
2.25265e-05
-4.80157e-06
2.71134e-05
-4.58803e-06
3.12549e-05
-4.14054e-06
3.51888e-05
-3.93335e-06
3.93417e-05
-4.15323e-06
4.38381e-05
-4.49651e-06
4.84977e-05
-4.65955e-06
5.42799e-05
-5.78244e-06
6.06519e-05
-6.3718e-06
6.46825e-05
-4.03047e-06
6.6062e-05
-1.37945e-06
6.64478e-05
-3.85956e-07
6.66881e-05
-2.40249e-07
6.69268e-05
-2.38736e-07
6.71365e-05
-2.0975e-07
6.73017e-05
-1.65187e-07
6.74383e-05
-1.36625e-07
-6.41547e-08
-8.60885e-06
1.73735e-05
-1.46399e-05
1.21172e-05
-1.48933e-05
5.04614e-07
-1.14142e-05
-6.96525e-06
-8.51736e-06
-5.83141e-06
-6.99203e-06
-3.06863e-06
-6.16283e-06
-1.63964e-06
-5.67853e-06
-9.25121e-07
-5.2379e-06
-8.77826e-07
-4.81068e-06
-9.81006e-07
-4.03579e-06
-2.02734e-06
-2.15525e-06
-3.6419e-06
1.04759e-06
-6.40005e-06
4.98333e-06
-7.70609e-06
9.02179e-06
-7.94791e-06
1.31414e-05
-8.27689e-06
1.75634e-05
-8.99151e-06
2.22319e-05
-9.47092e-06
2.67604e-05
-9.11843e-06
3.09002e-05
-8.27862e-06
3.48322e-05
-7.86426e-06
3.89497e-05
-8.27134e-06
4.34323e-05
-8.97925e-06
4.8141e-05
-9.36813e-06
5.39806e-05
-1.16226e-05
6.04512e-05
-1.28421e-05
6.46127e-05
-8.19156e-06
6.60561e-05
-2.82287e-06
6.64531e-05
-7.83176e-07
6.66907e-05
-4.77865e-07
6.69279e-05
-4.75936e-07
6.71377e-05
-4.19497e-07
6.73029e-05
-3.30485e-07
6.74395e-05
-2.73137e-07
-1.2832e-07
-8.44791e-06
2.58213e-05
-1.43933e-05
1.80625e-05
-1.4622e-05
7.33231e-07
-1.11438e-05
-1.04441e-05
-8.28172e-06
-8.69266e-06
-6.76059e-06
-4.592e-06
-5.90073e-06
-2.50143e-06
-5.38125e-06
-1.44833e-06
-4.96852e-06
-1.30965e-06
-4.69438e-06
-1.27956e-06
-4.1198e-06
-2.76549e-06
-2.35543e-06
-5.20836e-06
8.86061e-07
-9.60299e-06
4.97215e-06
-1.17901e-05
9.10835e-06
-1.20912e-05
1.31703e-05
-1.23434e-05
1.74391e-05
-1.3263e-05
2.19751e-05
-1.40078e-05
2.64486e-05
-1.35941e-05
3.05911e-05
-1.24193e-05
3.45296e-05
-1.18018e-05
3.86186e-05
-1.2361e-05
4.30816e-05
-1.34424e-05
4.78226e-05
-1.41091e-05
5.37053e-05
-1.75058e-05
6.02635e-05
-1.94e-05
6.45469e-05
-1.24747e-05
6.60511e-05
-4.32713e-06
6.64588e-05
-1.19104e-06
6.66938e-05
-7.12904e-07
6.69295e-05
-7.11588e-07
6.71392e-05
-6.29176e-07
6.73044e-05
-4.95781e-07
6.74408e-05
-4.09437e-07
-1.92402e-07
-8.26295e-06
3.40842e-05
-1.41068e-05
2.39063e-05
-1.42785e-05
9.04863e-07
-1.07796e-05
-1.39437e-05
-7.96526e-06
-1.15062e-05
-6.46233e-06
-6.09736e-06
-5.58779e-06
-3.37813e-06
-5.05044e-06
-1.98999e-06
-4.67989e-06
-1.70053e-06
-4.55637e-06
-1.43041e-06
-4.16314e-06
-3.29562e-06
-2.4915e-06
-6.70164e-06
8.05457e-07
-1.2855e-05
5.04349e-06
-1.60249e-05
9.27312e-06
-1.63292e-05
1.32667e-05
-1.63429e-05
1.73647e-05
-1.73645e-05
2.17529e-05
-1.8397e-05
2.61683e-05
-1.80119e-05
3.03216e-05
-1.65705e-05
3.42776e-05
-1.57566e-05
3.83465e-05
-1.64307e-05
4.2785e-05
-1.7881e-05
4.75407e-05
-1.88647e-05
5.3452e-05
-2.34176e-05
6.00871e-05
-2.60347e-05
6.44846e-05
-1.68718e-05
6.6047e-05
-5.88954e-06
6.64649e-05
-1.60919e-06
6.66974e-05
-9.45399e-07
6.69315e-05
-9.45692e-07
6.71411e-05
-8.38714e-07
6.73062e-05
-6.60972e-07
6.74422e-05
-5.45412e-07
-2.56316e-07
-8.05399e-06
4.21382e-05
-1.37745e-05
2.96267e-05
-1.38501e-05
9.80324e-07
-1.03124e-05
-1.7482e-05
-7.56469e-06
-1.42531e-05
-6.097e-06
-7.56745e-06
-5.22468e-06
-4.25238e-06
-4.68256e-06
-2.53593e-06
-4.36298e-06
-2.03927e-06
-4.38399e-06
-1.43464e-06
-4.15202e-06
-3.65449e-06
-2.54731e-06
-8.13416e-06
8.26465e-07
-1.61831e-05
5.22353e-06
-2.04196e-05
9.54589e-06
-2.06609e-05
1.34604e-05
-2.0264e-05
1.73634e-05
-2.12712e-05
2.1578e-05
-2.26128e-05
2.59247e-05
-2.23614e-05
3.00945e-05
-2.07381e-05
3.40772e-05
-1.97382e-05
3.81334e-05
-2.04876e-05
4.25426e-05
-2.22903e-05
4.72954e-05
-2.36173e-05
5.32198e-05
-2.93426e-05
5.99212e-05
-3.27358e-05
6.44256e-05
-2.13759e-05
6.60436e-05
-7.50755e-06
6.64715e-05
-2.03722e-06
6.67015e-05
-1.17537e-06
6.6934e-05
-1.17823e-06
6.71433e-05
-1.04804e-06
6.73083e-05
-8.2595e-07
6.74439e-05
-6.80947e-07
-3.19981e-07
-7.82048e-06
4.99586e-05
-1.33899e-05
3.5196e-05
-1.33256e-05
9.15845e-07
-9.73489e-06
-2.10735e-05
-7.07588e-06
-1.69113e-05
-5.6614e-06
-8.98463e-06
-4.80775e-06
-5.10834e-06
-4.27e-06
-3.07851e-06
-4.00607e-06
-2.32487e-06
-4.16272e-06
-1.30806e-06
-4.06913e-06
-3.85641e-06
-2.50144e-06
-9.53847e-06
9.7326e-07
-1.96028e-05
5.53862e-06
-2.49807e-05
9.95778e-06
-2.5091e-05
1.37886e-05
-2.41036e-05
1.74724e-05
-2.49602e-05
2.14805e-05
-2.66224e-05
2.57372e-05
-2.66214e-05
2.99205e-05
-2.49187e-05
3.39341e-05
-2.37505e-05
3.79821e-05
-2.45364e-05
4.23567e-05
-2.6665e-05
4.70885e-05
-2.83491e-05
5.30088e-05
-3.52635e-05
5.97654e-05
-3.9492e-05
6.43701e-05
-2.59802e-05
6.60411e-05
-9.17861e-06
6.64785e-05
-2.47482e-06
6.6706e-05
-1.40287e-06
6.6937e-05
-1.40921e-06
6.7146e-05
-1.25706e-06
6.73107e-05
-9.90608e-07
6.74457e-05
-8.15927e-07
-3.83314e-07
-7.56148e-06
5.752e-05
-1.29464e-05
4.05809e-05
-1.26983e-05
6.67595e-07
-9.04539e-06
-2.47272e-05
-6.49504e-06
-1.94608e-05
-5.14965e-06
-1.03327e-05
-4.32951e-06
-5.93047e-06
-3.80156e-06
-3.61082e-06
-3.59446e-06
-2.55271e-06
-3.87568e-06
-1.05587e-06
-3.89442e-06
-3.93299e-06
-2.32993e-06
-1.09479e-05
1.26903e-06
-2.31462e-05
6.01085e-06
-2.97195e-05
1.05374e-05
-2.96292e-05
1.42924e-05
-2.7868e-05
1.77403e-05
-2.84136e-05
2.15047e-05
-3.03885e-05
2.56379e-05
-3.07586e-05
2.98191e-05
-2.90968e-05
3.38604e-05
-2.77904e-05
3.79006e-05
-2.85776e-05
4.22334e-05
-3.09979e-05
4.69251e-05
-3.30407e-05
5.28208e-05
-4.11598e-05
5.96194e-05
-4.62902e-05
6.43178e-05
-3.06784e-05
6.60394e-05
-1.09002e-05
6.6486e-05
-2.92156e-06
6.67111e-05
-1.62794e-06
6.69404e-05
-1.63862e-06
6.71491e-05
-1.46571e-06
6.73133e-05
-1.15483e-06
6.74476e-05
-9.50237e-07
-4.46232e-07
-7.27584e-06
6.47958e-05
-1.24378e-05
4.57427e-05
-1.19686e-05
1.98149e-07
-8.25221e-06
-2.84445e-05
-5.82235e-06
-2.18899e-05
-4.55594e-06
-1.16021e-05
-3.78046e-06
-6.70854e-06
-3.26378e-06
-4.13322e-06
-3.11098e-06
-2.7302e-06
-3.50249e-06
-7.00366e-07
-3.60283e-06
-3.91863e-06
-2.00328e-06
-1.23879e-05
1.74017e-06
-2.68205e-05
6.66019e-06
-3.46339e-05
1.13086e-05
-3.42911e-05
1.50142e-05
-3.15857e-05
1.82251e-05
-3.1632e-05
2.17089e-05
-3.38747e-05
2.56729e-05
-3.47274e-05
2.98212e-05
-3.32413e-05
3.38772e-05
-3.18447e-05
3.79051e-05
-3.26066e-05
4.21854e-05