/*--------------------------------*- C++ -*----------------------------------*\
| =========                 |                                                 |
| \\      /  F ield         | OpenFOAM: The Open Source CFD Toolbox           |
|  \\    /   O peration     | Version:  v1912                                 |
|   \\  /    A nd           | Website:  www.openfoam.com                      |
|    \\/     M anipulation  |                                                 |
\*---------------------------------------------------------------------------*/
FoamFile
{
    version     2.0;
    format      ascii;
    class       volVectorField;
    location    "180";
    object      U;
}
// * * * * * * * * * * * * * * * * * * * * * * * * * * * * * * * * * * * * * //

dimensions      [0 1 -1 0 0 0 0];


internalField   nonuniform List<vector> 
12441
(
(29.999 1.64921e-05 0)
(29.9858 4.93683e-05 0)
(29.9583 8.44148e-05 0)
(29.9155 0.000133494 0)
(29.8594 0.000195584 0)
(29.7878 0.000278431 0)
(29.6983 0.000388715 0)
(29.5853 0.000552287 0)
(29.444 0.000771445 0)
(29.2682 0.00108039 0)
(29.0489 0.00148785 0)
(28.7872 0.00215702 0)
(28.419 0.00301821 0)
(28.0121 0.00440743 0)
(27.4325 0.00624777 0)
(26.6458 0.0110565 0)
(25.6327 0.0144929 0)
(24.0351 0.0301346 0)
(21.7849 0.051294 0)
(18.1918 0.0903639 0)
(12.4162 0.123713 0)
(5.9885 0.201836 0)
(29.999 4.90915e-05 0)
(29.9856 0.000148236 0)
(29.9584 0.000252848 0)
(29.9159 0.000394043 0)
(29.8595 0.000582826 0)
(29.7875 0.000834386 0)
(29.6983 0.00116399 0)
(29.5855 0.00165092 0)
(29.4441 0.00230481 0)
(29.268 0.00322951 0)
(29.0482 0.00444532 0)
(28.7879 0.00647655 0)
(28.4213 0.00898791 0)
(28.0126 0.0133032 0)
(27.4272 0.0188252 0)
(26.6435 0.0329653 0)
(25.6324 0.0461615 0)
(24.0335 0.0863311 0)
(21.7828 0.133797 0)
(18.1876 0.261454 0)
(12.4153 0.363438 0)
(5.99046 0.602519 0)
(29.999 8.17442e-05 0)
(29.9856 0.000247404 0)
(29.9584 0.000417193 0)
(29.9159 0.000653449 0)
(29.8595 0.000971677 0)
(29.7875 0.00139159 0)
(29.6983 0.00193413 0)
(29.5855 0.0027454 0)
(29.4441 0.00383982 0)
(29.268 0.0053775 0)
(29.0482 0.00741184 0)
(28.7887 0.0107791 0)
(28.4179 0.0149361 0)
(28.0162 0.0222288 0)
(27.4316 0.0314256 0)
(26.6466 0.0540132 0)
(25.6348 0.0785477 0)
(24.038 0.140697 0)
(21.7848 0.213841 0)
(18.1852 0.430231 0)
(12.4184 0.599729 0)
(5.99649 1.00112 0)
(29.999 0.00011483 0)
(29.9856 0.000347112 0)
(29.9584 0.000582556 0)
(29.916 0.000914892 0)
(29.8595 0.00136303 0)
(29.7876 0.00194949 0)
(29.6984 0.00270607 0)
(29.5856 0.00384423 0)
(29.4442 0.00537943 0)
(29.2681 0.00752997 0)
(29.0483 0.0103806 0)
(28.7882 0.0150894 0)
(28.4218 0.0209107 0)
(28.0119 0.031167 0)
(27.4279 0.0440361 0)
(26.6453 0.0751415 0)
(25.6355 0.110193 0)
(24.0423 0.198117 0)
(21.7923 0.318653 0)
(18.1881 0.607006 0)
(12.4282 0.840001 0)
(6.00746 1.40132 0)
(29.999 0.000147955 0)
(29.9856 0.000446589 0)
(29.9584 0.000747822 0)
(29.9159 0.00117632 0)
(29.8595 0.00175378 0)
(29.7876 0.00250607 0)
(29.6984 0.00347748 0)
(29.5856 0.00494288 0)
(29.4442 0.00691811 0)
(29.2681 0.00968067 0)
(29.0484 0.0133473 0)
(28.7889 0.0194008 0)
(28.4173 0.026899 0)
(28.0157 0.040089 0)
(27.4323 0.0566727 0)
(26.6475 0.0960407 0)
(25.6386 0.141322 0)
(24.0469 0.25628 0)
(21.803 0.406211 0)
(18.1973 0.779982 0)
(12.4461 1.08002 0)
(6.02365 1.80276 0)
(29.999 0.000181064 0)
(29.9856 0.000545938 0)
(29.9585 0.000912987 0)
(29.916 0.00143771 0)
(29.8596 0.0021444 0)
(29.7876 0.00306265 0)
(29.6985 0.00424936 0)
(29.5857 0.00604193 0)
(29.4443 0.00845673 0)
(29.2683 0.0118314 0)
(29.0486 0.0163148 0)
(28.7883 0.0237096 0)
(28.4231 0.032897 0)
(28.0112 0.0490055 0)
(27.4287 0.0693068 0)
(26.6469 0.116832 0)
(25.6401 0.172182 0)
(24.0509 0.313847 0)
(21.8153 0.492209 0)
(18.2128 0.951688 0)
(12.4733 1.3197 0)
(6.04538 2.20524 0)
(29.999 0.000214154 0)
(29.9856 0.000645163 0)
(29.9584 0.00107804 0)
(29.916 0.00169913 0)
(29.8596 0.00253513 0)
(29.7877 0.00361924 0)
(29.6985 0.00502124 0)
(29.5857 0.00714081 0)
(29.4443 0.00999507 0)
(29.2683 0.013982 0)
(29.0486 0.0192836 0)
(28.7888 0.0280207 0)
(28.4174 0.0388901 0)
(28.0169 0.0578926 0)
(27.4343 0.0819508 0)
(26.6497 0.137481 0)
(25.6441 0.202394 0)
(24.0556 0.369062 0)
(21.8308 0.580426 0)
(18.2362 1.12354 0)
(12.5115 1.55944 0)
(6.07306 2.60905 0)
(29.999 0.000247233 0)
(29.9856 0.000744287 0)
(29.9585 0.00124294 0)
(29.9161 0.00196055 0)
(29.8596 0.00292591 0)
(29.7877 0.00417572 0)
(29.6986 0.005793 0)
(29.5858 0.0082396 0)
(29.4444 0.0115334 0)
(29.2684 0.0161327 0)
(29.0488 0.0222529 0)
(28.7884 0.0323242 0)
(28.4253 0.0448885 0)
(28.0113 0.0667545 0)
(27.4302 0.0944319 0)
(26.6491 0.157793 0)
(25.6476 0.234132 0)
(24.0606 0.426413 0)
(21.8526 0.669868 0)
(18.2709 1.29491 0)
(12.5628 1.79941 0)
(6.10721 3.01464 0)
(29.999 0.000280295 0)
(29.9856 0.000843295 0)
(29.9585 0.00140777 0)
(29.916 0.00222202 0)
(29.8596 0.00331679 0)
(29.7877 0.00473209 0)
(29.6986 0.00656467 0)
(29.5858 0.0093384 0)
(29.4444 0.0130717 0)
(29.2685 0.0182832 0)
(29.049 0.0252232 0)
(28.7887 0.0366366 0)
(28.4169 0.0508825 0)
(28.017 0.0757122 0)
(27.4373 0.107038 0)
(26.6532 0.178579 0)
(25.6515 0.26445 0)
(24.0639 0.483402 0)
(21.8842 0.759056 0)
(18.3206 1.46533 0)
(12.6298 2.03976 0)
(6.14836 3.42248 0)
(29.999 0.000313343 0)
(29.9856 0.000942203 0)
(29.9586 0.00157249 0)
(29.9162 0.00248351 0)
(29.8597 0.00370767 0)
(29.7878 0.00528831 0)
(29.6987 0.00733631 0)
(29.5859 0.0104372 0)
(29.4445 0.0146099 0)
(29.2686 0.0204335 0)
(29.0491 0.0281942 0)
(28.7882 0.0409337 0)
(28.4292 0.056902 0)
(28.0124 0.0844254 0)
(27.4365 0.120282 0)
(26.6523 0.199737 0)
(25.6502 0.295217 0)
(24.0644 0.538678 0)
(21.926 0.847797 0)
(18.387 1.63479 0)
(12.7139 2.28068 0)
(6.19706 3.83308 0)
(29.999 0.00034637 0)
(29.9857 0.001041 0)
(29.9585 0.00173715 0)
(29.9161 0.00274504 0)
(29.8596 0.00409864 0)
(29.7878 0.00584444 0)
(29.6987 0.00810788 0)
(29.5859 0.011536 0)
(29.4446 0.0161479 0)
(29.2687 0.0225835 0)
(29.0494 0.0311689 0)
(28.7883 0.0452306 0)
(28.4189 0.0629794 0)
(28.0099 0.0931576 0)
(27.4376 0.132835 0)
(26.6451 0.219867 0)
(25.6453 0.327161 0)
(24.0676 0.593499 0)
(21.974 0.936163 0)
(18.4667 1.80308 0)
(12.8155 2.52233 0)
(6.2538 4.24696 0)
(29.999 0.00037938 0)
(29.9856 0.0011397 0)
(29.9586 0.00190174 0)
(29.9162 0.00300656 0)
(29.8597 0.00448958 0)
(29.7878 0.00640041 0)
(29.6987 0.00887944 0)
(29.586 0.0126347 0)
(29.4447 0.0176859 0)
(29.2688 0.0247322 0)
(29.0495 0.0341477 0)
(28.7871 0.0495077 0)
(28.4337 0.0690869 0)
(28.0032 0.102146 0)
(27.4305 0.146272 0)
(26.6336 0.240457 0)
(25.6407 0.359306 0)
(24.0762 0.647002 0)
(22.0214 1.02357 0)
(18.5532 1.96976 0)
(12.9331 2.76476 0)
(6.31892 4.66469 0)
(29.999 0.000412362 0)
(29.9857 0.00123829 0)
(29.9585 0.00206635 0)
(29.9161 0.00326816 0)
(29.8597 0.00488056 0)
(29.7879 0.0069563 0)
(29.6987 0.00965096 0)
(29.586 0.0137334 0)
(29.4447 0.0192237 0)
(29.2689 0.0268818 0)
(29.0498 0.0371303 0)
(28.7869 0.053798 0)
(28.4303 0.0752222 0)
(27.9967 0.11128 0)
(27.4217 0.160131 0)
(26.623 0.260888 0)
(25.6376 0.39123 0)
(24.0872 0.698908 0)
(22.0633 1.10976 0)
(18.6399 2.13446 0)
(13.0639 3.00782 0)
(6.39256 5.08677 0)
(29.999 0.000445323 0)
(29.9856 0.00133679 0)
(29.9587 0.00223095 0)
(29.9163 0.00352975 0)
(29.8597 0.00527149 0)
(29.7879 0.00751201 0)
(29.6988 0.0104225 0)
(29.5861 0.014832 0)
(29.4448 0.0207612 0)
(29.2691 0.029032 0)
(29.0499 0.0401363 0)
(28.7854 0.0580675 0)
(28.4431 0.0817436 0)
(27.9891 0.12062 0)
(27.4127 0.173752 0)
(26.6153 0.280776 0)
(25.6356 0.422746 0)
(24.0973 0.749481 0)
(22.0984 1.19481 0)
(18.7223 2.29697 0)
(13.2048 3.25127 0)
(6.47467 5.51365 0)
(29.999 0.000478252 0)
(29.9857 0.00143519 0)
(29.9586 0.00239556 0)
(29.9161 0.00379139 0)
(29.8597 0.00566246 0)
(29.7879 0.00806765 0)
(29.6988 0.011194 0)
(29.5861 0.0159305 0)
(29.4448 0.0222988 0)
(29.2692 0.0311811 0)
(29.0498 0.0431731 0)
(28.7846 0.0621865 0)
(28.4394 0.0881739 0)
(27.9812 0.129816 0)
(27.4057 0.187285 0)
(26.6099 0.30045 0)
(25.6339 0.454035 0)
(24.1052 0.799139 0)
(22.1276 1.27886 0)
(18.7983 2.45715 0)
(13.3526 3.4948 0)
(6.56499 5.94572 0)
(29.999 0.000511156 0)
(29.9857 0.00153349 0)
(29.9587 0.00256019 0)
(29.9163 0.00405303 0)
(29.8598 0.00605334 0)
(29.7879 0.00862311 0)
(29.6989 0.0119655 0)
(29.5862 0.0170291 0)
(29.445 0.0238347 0)
(29.2696 0.033335 0)
(29.0498 0.0462254 0)
(28.7835 0.0664578 0)
(28.4361 0.0945842 0)
(27.9741 0.138904 0)
(27.4005 0.200744 0)
(26.6061 0.320047 0)
(25.6322 0.485211 0)
(24.1109 0.848201 0)
(22.1521 1.36199 0)
(18.8673 2.61493 0)
(13.5049 3.73808 0)
(6.66315 6.38328 0)
(29.999 0.000544023 0)
(29.9858 0.0016317 0)
(29.9586 0.00272491 0)
(29.9161 0.00431473 0)
(29.8597 0.00644424 0)
(29.788 0.00917849 0)
(29.6989 0.0127369 0)
(29.5862 0.0181274 0)
(29.445 0.0253703 0)
(29.2697 0.0354858 0)
(29.0499 0.0493513 0)
(28.7817 0.0707675 0)
(28.4299 0.100983 0)
(27.9689 0.147937 0)
(27.3966 0.214188 0)
(26.6033 0.339618 0)
(25.6304 0.516318 0)
(24.1148 0.896854 0)
(22.1736 1.44431 0)
(18.9301 2.77024 0)
(13.6598 3.9808 0)
(6.7687 6.8266 0)
(29.999 0.000576862 0)
(29.9857 0.00172981 0)
(29.9587 0.0028897 0)
(29.9163 0.00457643 0)
(29.8598 0.00683502 0)
(29.788 0.00973365 0)
(29.699 0.0135084 0)
(29.5863 0.0192253 0)
(29.4453 0.0269057 0)
(29.2699 0.0376312 0)
(29.0505 0.0525085 0)
(28.7794 0.0751496 0)
(28.4254 0.1073 0)
(27.9648 0.156959 0)
(27.3936 0.22764 0)
(26.6012 0.359179 0)
(25.6285 0.547378 0)
(24.1175 0.945198 0)
(22.1932 1.52584 0)
(18.9875 2.92304 0)
(13.8163 4.22266 0)
(6.88121 7.27588 0)
(29.999 0.000609663 0)
(29.9858 0.00182784 0)
(29.9586 0.00305454 0)
(29.9162 0.00483818 0)
(29.8597 0.00722582 0)
(29.7881 0.0102888 0)
(29.6989 0.0142799 0)
(29.5863 0.0203231 0)
(29.4453 0.0284402 0)
(29.2699 0.0397864 0)
(29.0512 0.0556585 0)
(28.7767 0.0794585 0)
(28.4215 0.113638 0)
(27.9619 0.165964 0)
(27.3912 0.241092 0)
(26.5996 0.378736 0)
(25.6266 0.578405 0)
(24.1195 0.993289 0)
(22.2121 1.60662 0)
(19.0409 3.07331 0)
(13.9738 4.46342 0)
(7.00027 7.73132 0)
(29.999 0.000642435 0)
(29.9857 0.00192577 0)
(29.9587 0.00321947 0)
(29.9164 0.00509991 0)
(29.8598 0.0076165 0)
(29.7881 0.0108436 0)
(29.6991 0.0150514 0)
(29.5864 0.0214205 0)
(29.4455 0.0299765 0)
(29.27 0.041947 0)
(29.0522 0.0588828 0)
(28.774 0.0837227 0)
(28.4187 0.119953 0)
(27.9596 0.174982 0)
(27.3892 0.254544 0)
(26.5984 0.398292 0)
(25.6248 0.609408 0)
(24.1213 1.04115 0)
(22.231 1.68668 0)
(19.0914 3.22101 0)
(14.1322 4.70286 0)
(7.12552 8.19309 0)
(29.999 0.000675165 0)
(29.9858 0.00202361 0)
(29.9586 0.00338451 0)
(29.9162 0.00536171 0)
(29.8597 0.00800717 0)
(29.7881 0.0113984 0)
(29.699 0.015823 0)
(29.5864 0.0225173 0)
(29.4455 0.0315135 0)
(29.27 0.0441193 0)
(29.0528 0.0621197 0)
(28.7717 0.0880082 0)
(28.4163 0.126292 0)
(27.9578 0.183996 0)
(27.3877 0.267991 0)
(26.5976 0.417853 0)
(25.6234 0.640398 0)
(24.1233 1.08878 0)
(22.2507 1.766 0)
(19.1401 3.36615 0)
(14.292 4.94078 0)
(7.25671 8.66136 0)
(29.999 0.000707865 0)
(29.9857 0.00212136 0)
(29.9588 0.00354965 0)
(29.9164 0.0056235 0)
(29.8598 0.00839769 0)
(29.7881 0.011953 0)
(29.6991 0.0165945 0)
(29.5866 0.0236146 0)
(29.4457 0.0330472 0)
(29.2704 0.0463483 0)
(29.0529 0.0653026 0)
(28.7697 0.0923269 0)
(28.4146 0.132626 0)
(27.9563 0.193018 0)
(27.3864 0.281434 0)
(26.597 0.437419 0)
(25.6223 0.671382 0)
(24.1258 1.13614 0)
(22.2715 1.84461 0)
(19.188 3.50871 0)
(14.4538 5.17704 0)
(7.39366 9.13631 0)
(29.999 0.000740523 0)
(29.9859 0.00221903 0)
(29.9586 0.00371487 0)
(29.9162 0.00588533 0)
(29.8598 0.00878821 0)
(29.7882 0.0125075 0)
(29.6991 0.017366 0)
(29.5865 0.0247118 0)
(29.4456 0.03458 0)
(29.2707 0.0486156 0)
(29.0523 0.0684606 0)
(28.7681 0.0966915 0)
(28.413 0.138973 0)
(27.9551 0.202033 0)
(27.3854 0.29487 0)
(26.5969 0.456991 0)
(25.6219 0.702361 0)
(24.1292 1.18319 0)
(22.2938 1.9225 0)
(19.2361 3.64869 0)
(14.6184 5.41148 0)
(7.53629 9.61812 0)
(29.999 0.00077315 0)
(29.9858 0.0023166 0)
(29.9588 0.0038802 0)
(29.9164 0.00614715 0)
(29.8598 0.00917857 0)
(29.7882 0.0130617 0)
(29.6992 0.0181375 0)
(29.5867 0.0258093 0)
(29.4457 0.0361093 0)
(29.2713 0.05091 0)
(29.0515 0.0715391 0)
(28.7667 0.101088 0)
(28.4118 0.145315 0)
(27.9542 0.21105 0)
(27.3846 0.308302 0)
(26.597 0.476564 0)
(25.6224 0.733321 0)
(24.1335 1.22989 0)
(22.3176 1.99967 0)
(19.2849 3.78606 0)
(14.7868 5.64402 0)
(7.68459 10.107 0)
(29.999 0.000805733 0)
(29.9859 0.0024141 0)
(29.9586 0.00404566 0)
(29.9162 0.00640902 0)
(29.8598 0.00956889 0)
(29.7883 0.013616 0)
(29.6992 0.0189086 0)
(29.5867 0.0269072 0)
(29.4457 0.0376347 0)
(29.2714 0.0531858 0)
(29.0506 0.0745588 0)
(28.7656 0.105504 0)
(28.4108 0.151662 0)
(27.9534 0.220062 0)
(27.3841 0.321725 0)
(26.5976 0.496133 0)
(25.6237 0.764236 0)
(24.1389 1.27622 0)
(22.3429 2.07614 0)
(19.3352 3.92078 0)
(14.9603 5.87454 0)
(7.83867 10.6032 0)
(29.999 0.000838285 0)
(29.9858 0.00251149 0)
(29.9588 0.00421125 0)
(29.9164 0.0066709 0)
(29.8599 0.00995904 0)
(29.7883 0.0141699 0)
(29.6993 0.0196801 0)
(29.5869 0.0280038 0)
(29.446 0.0391743 0)
(29.2716 0.0554463 0)
(29.0499 0.0775559 0)
(28.7646 0.109932 0)
(28.4099 0.158005 0)
(27.9527 0.229073 0)
(27.3838 0.335139 0)
(26.5986 0.515684 0)
(25.6261 0.795078 0)
(24.1454 1.32218 0)
(22.3697 2.15188 0)
(19.3873 4.05277 0)
(15.14 6.10297 0)
(7.99869 11.1069 0)
(29.999 0.000870794 0)
(29.9859 0.00260882 0)
(29.9586 0.00437692 0)
(29.9162 0.00693279 0)
(29.8598 0.0103492 0)
(29.7884 0.0147239 0)
(29.6993 0.0204515 0)
(29.5868 0.0291019 0)
(29.4461 0.0407191 0)
(29.2715 0.0578091 0)
(29.0492 0.0805672 0)
(28.7638 0.114367 0)
(28.4092 0.164349 0)
(27.9522 0.238079 0)
(27.3837 0.348538 0)
(26.6 0.535205 0)
(25.6295 0.82583 0)
(24.1531 1.36778 0)
(22.3977 2.2269 0)
(19.4416 4.18194 0)
(15.3271 6.32923 0)
(8.16489 11.6185 0)
(29.999 0.000903274 0)
(29.9858 0.00270605 0)
(29.9588 0.00454272 0)
(29.9164 0.00719468 0)
(29.8599 0.0107391 0)
(29.7883 0.0152775 0)
(29.6994 0.0212226 0)
(29.587 0.0301998 0)
(29.4463 0.0422714 0)
(29.2714 0.0601319 0)
(29.0486 0.0836104 0)
(28.763 0.118805 0)
(28.4085 0.170689 0)
(27.9518 0.24708 0)
(27.3839 0.361918 0)
(26.6019 0.554681 0)
(25.6338 0.856484 0)
(24.162 1.41302 0)
(22.4268 2.30117 0)
(19.4983 4.30816 0)
(15.5228 6.55325 0)
(8.33758 12.1383 0)
(29.999 0.000935708 0)
(29.986 0.00280322 0)
(29.9586 0.00470862 0)
(29.9162 0.0074566 0)
(29.8598 0.0111291 0)
(29.7885 0.015831 0)
(29.6994 0.0219942 0)
(29.5869 0.0312943 0)
(29.4464 0.0438731 0)
(29.2712 0.0623129 0)
(29.0481 0.0866878 0)
(28.7624 0.123247 0)
(28.4079 0.177027 0)
(27.9515 0.256074 0)
(27.3843 0.375273 0)
(26.6042 0.574103 0)
(25.639 0.887038 0)
(24.1721 1.4579 0)
(22.4571 2.37468 0)
(19.5573 4.43127 0)
(15.728 6.77496 0)
(8.51708 12.6666 0)
(29.999 0.000968115 0)
(29.9859 0.00290028 0)
(29.9588 0.00487468 0)
(29.9164 0.00771853 0)
(29.8599 0.0115188 0)
(29.7884 0.0163842 0)
(29.6995 0.0227657 0)
(29.5871 0.0323889 0)
(29.4467 0.0454938 0)
(29.2711 0.0644716 0)
(29.0477 0.0897921 0)
(28.7619 0.127689 0)
(28.4075 0.183363 0)
(27.9513 0.265059 0)
(27.385 0.388598 0)
(26.6069 0.593465 0)
(25.645 0.917488 0)
(24.1833 1.50242 0)
(22.4883 2.4474 0)
(19.6186 4.55111 0)
(15.9435 6.99427 0)
(8.70378 13.2037 0)
(29.9989 0.00100048 0)
(29.986 0.00299729 0)
(29.9586 0.00504077 0)
(29.9162 0.00798045 0)
(29.8599 0.0119086 0)
(29.7885 0.0169374 0)
(29.6995 0.0235371 0)
(29.5871 0.0334837 0)
(29.4468 0.0471207 0)
(29.271 0.0666275 0)
(29.0473 0.0929138 0)
(28.7614 0.132133 0)
(28.4071 0.189695 0)
(27.9513 0.274033 0)
(27.3858 0.401892 0)
(26.61 0.612761 0)
(25.6517 0.947825 0)
(24.1959 1.54658 0)
(22.5204 2.51933 0)
(19.6819 4.66749 0)
(16.1696 7.2111 0)
(8.89804 13.7502 0)
(29.999 0.00103282 0)
(29.9859 0.00309418 0)
(29.9589 0.00520702 0)
(29.9165 0.00824239 0)
(29.86 0.0122982 0)
(29.7885 0.0174902 0)
(29.6997 0.0243085 0)
(29.5873 0.0345779 0)
(29.4471 0.0487559 0)
(29.271 0.0687671 0)
(29.047 0.0960466 0)
(28.761 0.136577 0)
(28.4067 0.196025 0)
(27.9513 0.282995 0)
(27.3869 0.415152 0)
(26.6133 0.631989 0)
(25.6591 0.97804 0)
(24.2097 1.59037 0)
(22.5535 2.59045 0)
(19.7471 4.78023 0)
(16.4065 7.42535 0)
(9.10022 14.3064 0)
(29.9989 0.00106511 0)
(29.9861 0.00319104 0)
(29.9586 0.00537334 0)
(29.9162 0.00850434 0)
(29.8599 0.0126877 0)
(29.7886 0.0180431 0)
(29.6996 0.0250798 0)
(29.5872 0.0356719 0)
(29.4471 0.050396 0)
(29.271 0.0708969 0)
(29.0467 0.099187 0)
(28.7606 0.141021 0)
(28.4064 0.20235 0)
(27.9514 0.291944 0)
(27.3881 0.428377 0)
(26.617 0.651142 0)
(25.6671 1.00812 0)
(24.2247 1.63379 0)
(22.5875 2.66075 0)
(19.8139 4.88914 0)
(16.6541 7.6369 0)
(9.31066 14.8726 0)
(29.999 0.00109738 0)
(29.9859 0.00328778 0)
(29.9589 0.0055398 0)
(29.9165 0.00876629 0)
(29.86 0.013077 0)
(29.7886 0.0185955 0)
(29.6998 0.0258508 0)
(29.5875 0.0367658 0)
(29.4473 0.0520399 0)
(29.271 0.0730183 0)
(29.0465 0.102333 0)
(28.7603 0.145465 0)
(28.4062 0.208672 0)
(27.9517 0.300878 0)
(27.3896 0.441563 0)
(26.621 0.670217 0)
(25.6758 1.03805 0)
(24.241 1.67683 0)
(22.6226 2.73024 0)
(19.8823 4.99404 0)
(16.912 7.84563 0)
(9.52967 15.4494 0)
(29.9989 0.00112961 0)
(29.9861 0.0033845 0)
(29.9586 0.00570631 0)
(29.9162 0.00902825 0)
(29.8599 0.0134664 0)
(29.7887 0.0191482 0)
(29.6997 0.0266218 0)
(29.5875 0.0378562 0)
(29.4472 0.0536827 0)
(29.2711 0.0751355 0)
(29.0462 0.105484 0)
(28.76 0.149909 0)
(28.4061 0.214988 0)
(27.952 0.309796 0)
(27.3911 0.454712 0)
(26.6252 0.689209 0)
(25.685 1.06782 0)
(24.2586 1.7195 0)
(22.6586 2.79889 0)
(19.9522 5.09476 0)
(17.1799 8.0514 0)
(9.7575 16.0372 0)
(29.9989 0.00116182 0)
(29.986 0.00348109 0)
(29.9589 0.00587294 0)
(29.9165 0.0092902 0)
(29.86 0.0138556 0)
(29.7887 0.0197 0)
(29.6999 0.0273943 0)
(29.5877 0.0389462 0)
(29.4473 0.0552679 0)
(29.2712 0.0772495 0)
(29.0461 0.108639 0)
(28.7598 0.154353 0)
(28.406 0.2213 0)
(27.9524 0.318698 0)
(27.3929 0.467821 0)
(26.6297 0.708112 0)
(25.6949 1.09741 0)
(24.2774 1.76179 0)
(22.6959 2.86672 0)
(20.0239 5.19116 0)
(17.4577 8.25408 0)
(9.99441 16.6363 0)
(29.9989 0.00119399 0)
(29.9861 0.00357765 0)
(29.9586 0.00603953 0)
(29.9162 0.00955215 0)
(29.86 0.0142447 0)
(29.7888 0.0202527 0)
(29.6998 0.0281623 0)
(29.5877 0.0400655 0)
(29.4473 0.0567259 0)
(29.2713 0.0793693 0)
(29.0459 0.111797 0)
(28.7596 0.158796 0)
(28.4059 0.227606 0)
(27.9529 0.327583 0)
(27.3948 0.480887 0)
(26.6344 0.726922 0)
(25.7053 1.12682 0)
(24.2973 1.80368 0)
(22.7343 2.9337 0)
(20.0973 5.28306 0)
(17.7452 8.45351 0)
(10.2406 17.2473 0)
(29.9989 0.00122615 0)
(29.986 0.00367408 0)
(29.9589 0.00620622 0)
(29.9166 0.0098141 0)
(29.8601 0.0146336 0)
(29.7888 0.0208042 0)
(29.7 0.0289351 0)
(29.5879 0.0411694 0)
(29.4477 0.0584532 0)
(29.2713 0.08152 0)
(29.0458 0.114957 0)
(28.7594 0.163238 0)
(28.4059 0.233906 0)
(27.9535 0.336449 0)
(27.3968 0.493911 0)
(26.6394 0.745635 0)
(25.7162 1.15604 0)
(24.3184 1.84517 0)
(22.7742 2.99984 0)
(20.1726 5.37033 0)
(18.0427 8.64954 0)
(10.4964 17.8705 0)
(29.9989 0.00125827 0)
(29.9861 0.00377048 0)
(29.9586 0.00637289 0)
(29.9162 0.010076 0)
(29.86 0.0150228 0)
(29.7889 0.0213552 0)
(29.7 0.029706 0)
(29.5878 0.0423022 0)
(29.448 0.0601871 0)
(29.2714 0.0837058 0)
(29.0456 0.118119 0)
(28.7593 0.167679 0)
(28.4059 0.2402 0)
(27.9541 0.345299 0)
(27.399 0.50689 0)
(26.6446 0.764247 0)
(25.7276 1.18504 0)
(24.3406 1.88624 0)
(22.8158 3.06511 0)
(20.2496 5.45281 0)
(18.3505 8.84202 0)
(10.7619 18.5064 0)
(29.9989 0.00129038 0)
(29.986 0.00386674 0)
(29.959 0.00653962 0)
(29.9166 0.0103382 0)
(29.8601 0.0154113 0)
(29.7888 0.0219085 0)
(29.7002 0.0304632 0)
(29.5879 0.043456 0)
(29.4482 0.0617007 0)
(29.2714 0.0859102 0)
(29.0455 0.121282 0)
(28.7592 0.172119 0)
(28.4061 0.246488 0)
(27.9549 0.354128 0)
(27.4013 0.519822 0)
(26.6501 0.782752 0)
(25.7396 1.21383 0)
(24.3638 1.92687 0)
(22.8591 3.12951 0)
(20.3281 5.53033 0)
(18.6687 9.03077 0)
(11.0374 19.1555 0)
(29.9989 0.00132247 0)
(29.9862 0.00396299 0)
(29.9587 0.00670608 0)
(29.9163 0.0106 0)
(29.8601 0.0158012 0)
(29.789 0.0224576 0)
(29.7003 0.0312546 0)
(29.5876 0.0444233 0)
(29.4482 0.0631469 0)
(29.2714 0.0881205 0)
(29.0455 0.124446 0)
(28.7592 0.176557 0)
(28.4062 0.252772 0)
(27.9557 0.362936 0)
(27.4038 0.532705 0)
(26.6559 0.801148 0)
(25.752 1.24239 0)
(24.3879 1.96705 0)
(22.9045 3.19304 0)
(20.4075 5.60275 0)
(18.9963 9.21568 0)
(11.3231 19.8181 0)
(29.9989 0.00135453 0)
(29.9861 0.00405928 0)
(29.959 0.00687261 0)
(29.9166 0.0108612 0)
(29.8602 0.0161913 0)
(29.7889 0.0230103 0)
(29.7006 0.0320422 0)
(29.5873 0.045595 0)
(29.4481 0.0646189 0)
(29.2713 0.0903318 0)
(29.0454 0.127609 0)
(28.7592 0.180993 0)
(28.4064 0.259048 0)
(27.9566 0.371722 0)
(27.4065 0.545538 0)
(26.6619 0.819431 0)
(25.7648 1.27071 0)
(24.4128 2.00676 0)
(22.9524 3.25571 0)
(20.4867 5.66995 0)
(19.3303 9.39673 0)
(11.6193 20.4955 0)
(29.9989 0.00138631 0)
(29.9862 0.00415598 0)
(29.9586 0.00704033 0)
(29.9163 0.0111195 0)
(29.8601 0.0165776 0)
(29.789 0.0235683 0)
(29.7006 0.0328334 0)
(29.5869 0.0469264 0)
(29.4481 0.0661293 0)
(29.2712 0.0925452 0)
(29.0453 0.130772 0)
(28.7592 0.185427 0)
(28.4067 0.265315 0)
(27.9576 0.380483 0)
(27.4093 0.558315 0)
(26.6682 0.837597 0)
(25.7782 1.29879 0)
(24.4384 2.04595 0)
(23.003 3.31753 0)
(20.5651 5.73191 0)
(19.6635 9.57359 0)
(11.9254 21.195 0)
(29.9989 0.0014177 0)
(29.986 0.00425078 0)
(29.9591 0.00721574 0)
(29.9168 0.0113794 0)
(29.8603 0.0169528 0)
(29.789 0.0241098 0)
(29.7008 0.033678 0)
(29.5868 0.048073 0)
(29.448 0.0676565 0)
(29.2711 0.0947601 0)
(29.0452 0.133934 0)
(28.7592 0.189865 0)
(28.407 0.271575 0)
(27.9587 0.389199 0)
(27.4122 0.571036 0)
(26.6748 0.855648 0)
(25.7919 1.32663 0)
(24.4646 2.08458 0)
(23.0567 3.37856 0)
(20.6423 5.78869 0)
(19.9842 9.74426 0)
(12.3275 21.9384 0)
(-2.05668 0.090326 0)
(-5.84665 0.0580178 0)
(-7.27809 0.00233058 0)
(-5.93581 -0.0281673 0)
(-4.22296 -0.0218796 0)
(-3.38719 -0.0105467 0)
(-2.87904 -0.00504745 0)
(-2.68628 -0.00252873 0)
(-2.49762 -0.00240737 0)
(-2.33207 -0.00297616 0)
(-2.04229 -0.00544581 0)
(-1.44274 -0.00839232 0)
(-0.192741 -0.0127488 0)
(1.43626 -0.0137958 0)
(3.12606 -0.0132623 0)
(4.86803 -0.0131698 0)
(6.78787 -0.013477 0)
(8.89424 -0.0130654 0)
(11.0137 -0.0114091 0)
(12.9222 -0.00939513 0)
(14.6507 -0.00819646 0)
(16.3843 -0.0079901 0)
(18.3132 -0.00794084 0)
(20.3455 -0.007575 0)
(22.4147 -0.00872252 0)
(25.4731 -0.00884129 0)
(28.0015 -0.00513807 0)
(28.9573 -0.00161677 0)
(29.1863 -0.000420485 0)
(29.292 -0.000244756 0)
(29.3977 -0.000224072 0)
(29.502 -0.000181377 0)
(29.5813 -0.000131884 0)
(29.6468 -0.000100776 0)
(29.7011 -4.36797e-05 0)
(-2.02503 0.267792 0)
(-5.76204 0.172239 0)
(-7.17772 0.00667904 0)
(-5.8375 -0.0839491 0)
(-4.14632 -0.0651235 0)
(-3.32497 -0.031603 0)
(-2.81136 -0.0153951 0)
(-2.59919 -0.00779825 0)
(-2.3795 -0.00689813 0)
(-2.22206 -0.00772982 0)
(-2.02367 -0.0146285 0)
(-1.51977 -0.0241888 0)
(-0.328342 -0.0378044 0)
(1.34074 -0.0411978 0)
(3.11941 -0.0394147 0)
(4.88378 -0.0385694 0)
(6.75022 -0.0391006 0)
(8.78457 -0.0380091 0)
(10.8625 -0.0336232 0)
(12.7634 -0.0280148 0)
(14.4975 -0.0245113 0)
(16.2237 -0.0238624 0)
(18.1279 -0.023905 0)
(20.1742 -0.0229416 0)
(22.2735 -0.0262808 0)
(25.3514 -0.0267648 0)
(27.9495 -0.0156778 0)
(28.9497 -0.0049646 0)
(29.1891 -0.00127807 0)
(29.2937 -0.000729429 0)
(29.3983 -0.000670018 0)
(29.5024 -0.000544236 0)
(29.5819 -0.000395838 0)
(29.6473 -0.000302243 0)
(29.7016 -0.000131092 0)
(-1.98002 0.442098 0)
(-5.66224 0.285141 0)
(-7.06182 0.0109744 0)
(-5.71116 -0.139755 0)
(-4.03644 -0.108 0)
(-3.22836 -0.0525508 0)
(-2.70399 -0.026177 0)
(-2.4752 -0.0138491 0)
(-2.24113 -0.011948 0)
(-2.12512 -0.0116535 0)
(-2.02253 -0.0224442 0)
(-1.59911 -0.0377398 0)
(-0.425847 -0.0626497 0)
(1.3006 -0.0702035 0)
(3.15342 -0.0665594 0)
(4.92539 -0.0634303 0)
(6.73094 -0.0633988 0)
(8.69131 -0.0618049 0)
(10.7282 -0.055203 0)
(12.6232 -0.0464737 0)
(14.3659 -0.0408246 0)
(16.0888 -0.0396024 0)
(17.9705 -0.0397432 0)
(20.0232 -0.0383834 0)
(22.1452 -0.0439712 0)
(25.2379 -0.0449178 0)
(27.9003 -0.0265425 0)
(28.9427 -0.00846869 0)
(29.1921 -0.00216255 0)
(29.2957 -0.00120891 0)
(29.399 -0.0011128 0)
(29.503 -0.000906917 0)
(29.5826 -0.000659858 0)
(29.6479 -0.000503458 0)
(29.7021 -0.000218447 0)
(-1.9266 0.612853 0)
(-5.5498 0.396442 0)
(-6.92362 0.0145808 0)
(-5.5414 -0.195978 0)
(-3.88806 -0.150275 0)
(-3.09944 -0.0734146 0)
(-2.57041 -0.0372435 0)
(-2.33297 -0.0201049 0)
(-2.09173 -0.0164115 0)
(-2.02245 -0.0138793 0)
(-2.00787 -0.0283307 0)
(-1.65636 -0.0508102 0)
(-0.488482 -0.0880737 0)
(1.29794 -0.100494 0)
(3.22299 -0.0947721 0)
(4.99979 -0.088509 0)
(6.73756 -0.0874211 0)
(8.61558 -0.085416 0)
(10.6066 -0.0768699 0)
(12.498 -0.0651101 0)
(14.2545 -0.057201 0)
(15.9786 -0.0552376 0)
(17.8405 -0.0555114 0)
(19.8921 -0.0539305 0)
(22.0288 -0.061788 0)
(25.1318 -0.0633173 0)
(27.8536 -0.0377221 0)
(28.9362 -0.012116 0)
(29.1953 -0.00306965 0)
(29.2978 -0.00168301 0)
(29.4 -0.00155272 0)
(29.5039 -0.00126947 0)
(29.5834 -0.00092381 0)
(29.6486 -0.000704278 0)
(29.7027 -0.000305636 0)
(-1.8652 0.779645 0)
(-5.42437 0.505628 0)
(-6.7583 0.016886 0)
(-5.32176 -0.25257 0)
(-3.69951 -0.191617 0)
(-2.93701 -0.0938716 0)
(-2.41167 -0.0483698 0)
(-2.17196 -0.0264756 0)
(-1.9286 -0.0203484 0)
(-1.90872 -0.014623 0)
(-1.97398 -0.0324157 0)
(-1.68483 -0.0632727 0)
(-0.50872 -0.114016 0)
(1.3431 -0.132001 0)
(3.34073 -0.123717 0)
(5.12093 -0.113229 0)
(6.78234 -0.110509 0)
(8.56527 -0.10831 0)
(10.501 -0.0983404 0)
(12.3895 -0.0838548 0)
(14.1639 -0.0736821 0)
(15.8931 -0.0708142 0)
(17.7378 -0.0711803 0)
(19.7812 -0.0694951 0)
(21.924 -0.0796749 0)
(25.0325 -0.0819219 0)
(27.8092 -0.0491903 0)
(28.9302 -0.0158997 0)
(29.1987 -0.00399907 0)
(29.3001 -0.00215197 0)
(29.4012 -0.00198973 0)
(29.5049 -0.00163172 0)
(29.5844 -0.00118752 0)
(29.6494 -0.00090454 0)
(29.7033 -0.000392544 0)
(-1.79601 0.941928 0)
(-5.28527 0.612233 0)
(-6.56075 0.0171497 0)
(-5.04763 -0.30985 0)
(-3.46909 -0.231792 0)
(-2.73911 -0.113708 0)
(-2.22697 -0.0593578 0)
(-1.98967 -0.0328429 0)
(-1.74737 -0.0237033 0)
(-1.77788 -0.0139758 0)
(-1.91425 -0.034929 0)
(-1.6758 -0.0752926 0)
(-0.476315 -0.140479 0)
(1.44695 -0.164513 0)
(3.51882 -0.153156 0)
(5.30437 -0.137322 0)
(6.88256 -0.132306 0)
(8.55592 -0.130134 0)
(10.4218 -0.119424 0)
(12.3036 -0.102677 0)
(14.0973 -0.0902909 0)
(15.834 -0.086355 0)
(17.6631 -0.0867345 0)
(19.6917 -0.085017 0)
(21.8314 -0.0975771 0)
(24.9394 -0.100696 0)
(27.7672 -0.0609252 0)
(28.9248 -0.0198128 0)
(29.2023 -0.0049499 0)
(29.3027 -0.00261587 0)
(29.4026 -0.00242381 0)
(29.5061 -0.00199354 0)
(29.5856 -0.0014508 0)
(29.6504 -0.00110407 0)
(29.704 -0.000479055 0)
(-1.71914 1.09918 0)
(-5.1316 0.715688 0)
(-6.3259 0.0145848 0)
(-4.71814 -0.368113 0)
(-3.19596 -0.270514 0)
(-2.50317 -0.132706 0)
(-2.01372 -0.0700123 0)
(-1.78201 -0.0391244 0)
(-1.54211 -0.0264546 0)
(-1.62281 -0.0120494 0)
(-1.82114 -0.0361264 0)
(-1.61927 -0.0871746 0)
(-0.380076 -0.167652 0)
(1.61893 -0.198106 0)
(3.76713 -0.183151 0)
(5.56566 -0.160827 0)
(7.05923 -0.152709 0)
(8.60909 -0.150677 0)
(10.3867 -0.139951 0)
(12.2511 -0.121523 0)
(14.0612 -0.107027 0)
(15.8056 -0.10187 0)
(17.6192 -0.102155 0)
(19.6263 -0.100437 0)
(21.7525 -0.115437 0)
(24.8525 -0.119606 0)
(27.7275 -0.0729098 0)
(28.9199 -0.023849 0)
(29.2061 -0.00592129 0)
(29.3055 -0.0030748 0)
(29.4042 -0.00285495 0)
(29.5075 -0.00235477 0)
(29.5869 -0.00171348 0)
(29.6514 -0.0013027 0)
(29.7046 -0.000565057 0)
(-1.63461 1.25087 0)
(-4.96232 0.815314 0)
(-6.04942 0.00845683 0)
(-4.33856 -0.427466 0)
(-2.88186 -0.307522 0)
(-2.22738 -0.150678 0)
(-1.76852 -0.0801651 0)
(-1.54397 -0.0452796 0)
(-1.30587 -0.0286129 0)
(-1.43523 -0.00897168 0)
(-1.68517 -0.0363355 0)
(-1.50283 -0.0991949 0)
(-0.206289 -0.1958 0)
(1.86881 -0.232941 0)
(4.09326 -0.213876 0)
(5.91845 -0.183924 0)
(7.33643 -0.171746 0)
(8.75199 -0.169791 0)
(10.4193 -0.159714 0)
(12.2483 -0.140272 0)
(14.066 -0.12385 0)
(15.8158 -0.117349 0)
(17.6123 -0.117412 0)
(19.5899 -0.11569 0)
(21.6904 -0.133188 0)
(24.7721 -0.138612 0)
(27.6903 -0.0851276 0)
(28.9155 -0.0280023 0)
(29.21 -0.00691238 0)
(29.3084 -0.00352885 0)
(29.406 -0.00328316 0)
(29.5091 -0.00271528 0)
(29.5883 -0.00197539 0)
(29.6526 -0.00150025 0)
(29.7054 -0.000650438 0)
(-1.54245 1.39645 0)
(-4.77633 0.910349 0)
(-5.72844 -0.00179457 0)
(-3.92062 -0.487814 0)
(-2.53238 -0.342713 0)
(-1.91256 -0.16754 0)
(-1.48847 -0.0897072 0)
(-1.2705 -0.0513173 0)
(-1.03126 -0.0302326 0)
(-1.20546 -0.00491541 0)
(-1.49412 -0.0358694 0)
(-1.31015 -0.1117 0)
(0.0619502 -0.225187 0)
(2.20742 -0.269104 0)
(4.50149 -0.245465 0)
(6.36924 -0.20686 0)
(7.7371 -0.189522 0)
(9.01833 -0.187371 0)
(10.5517 -0.178486 0)
(12.3191 -0.158736 0)
(14.1291 -0.140671 0)
(15.8784 -0.132755 0)
(17.6533 -0.132454 0)
(19.5908 -0.130692 0)
(21.6503 -0.150741 0)
(24.699 -0.157662 0)
(27.6558 -0.09756 0)
(28.9117 -0.0322661 0)
(29.2141 -0.00792227 0)
(29.3116 -0.00397816 0)
(29.4081 -0.00370842 0)
(29.511 -0.00307493 0)
(29.5899 -0.00223632 0)
(29.6538 -0.00169656 0)
(29.7061 -0.000735085 0)
(-1.44264 1.53534 0)
(-4.57253 0.999997 0)
(-5.36183 -0.0164585 0)
(-3.47917 -0.548871 0)
(-2.15672 -0.376186 0)
(-1.56362 -0.183363 0)
(-1.1728 -0.0986389 0)
(-0.957767 -0.0573183 0)
(-0.711723 -0.0314368 0)
(-0.922783 -0.000130893 0)
(-1.23298 -0.0351525 0)
(-1.02162 -0.125013 0)
(0.440351 -0.255964 0)
(2.64363 -0.306508 0)
(4.99126 -0.277952 0)
(6.91114 -0.229944 0)
(8.26957 -0.206305 0)
(9.44229 -0.203383 0)
(10.8261 -0.196054 0)
(12.4991 -0.176678 0)
(14.2778 -0.157356 0)
(16.0161 -0.148021 0)
(17.761 -0.147206 0)
(19.6427 -0.145332 0)
(21.6405 -0.167976 0)
(24.635 -0.176682 0)
(27.6241 -0.110185 0)
(28.9085 -0.0366334 0)
(29.2183 -0.00895 0)
(29.315 -0.00442286 0)
(29.4104 -0.00413075 0)
(29.513 -0.00343355 0)
(29.5916 -0.0024961 0)
(29.6552 -0.00189145 0)
(29.7069 -0.000818884 0)
(-1.33518 1.66691 0)
(-4.34988 1.08346 0)
(-4.94957 -0.0355292 0)
(-3.0274 -0.610161 0)
(-1.76572 -0.408176 0)
(-1.18964 -0.198368 0)
(-0.824316 -0.107102 0)
(-0.60493 -0.0634463 0)
(-0.343689 -0.0324456 0)
(-0.57672 0.00501364 0)
(-0.885694 -0.0346548 0)
(-0.620139 -0.139534 0)
(0.932862 -0.288059 0)