/*--------------------------------*- C++ -*----------------------------------*\
| =========                 |                                                 |
| \\      /  F ield         | OpenFOAM: The Open Source CFD Toolbox           |
|  \\    /   O peration     | Version:  v1912                                 |
|   \\  /    A nd           | Website:  www.openfoam.com                      |
|    \\/     M anipulation  |                                                 |
\*---------------------------------------------------------------------------*/
FoamFile
{
    version     2.0;
    format      ascii;
    class       volScalarField;
    location    "180";
    object      yPlus;
}
// * * * * * * * * * * * * * * * * * * * * * * * * * * * * * * * * * * * * * //

dimensions      [0 0 0 0 0 0 0];


internalField   uniform 0;

boundaryField
{
    inlet
    {
        type            calculated;
        value           uniform 0;
    }
    outlet
    {
        type            calculated;
        value           uniform 0;
    }
    lowerSymmetry
    {
        type            symmetryPlane;
    }
    obstical
    {
        type            calculated;
        value           nonuniform List<scalar> 
88
(
492.32
494.432
498.741
505.275
513.966
524.72
537.439
552.025
568.384
586.419
606.041
627.156
649.671
673.489
698.514
724.654
751.82
779.935
808.933
838.757
869.363
900.715
932.788
965.565
999.04
1033.21
1068.08
1103.66
1139.98
1177.03
1214.86
1253.48
1292.91
1333.17
1374.3
1416.3
1459.21
1503.04
1547.82
1593.57
1640.32
1688.13
1737.4
1792.05
184.619
183.36
182.267
181.713
181.702
182.209
183.19
184.591
186.349
188.396
190.666
193.092
195.615
198.18
200.737
203.245
205.678
208.021
210.283
212.49
214.684
216.913
219.124
221.275
223.339
225.26
226.986
228.487
229.773
230.911
232.041
233.343
234.944
236.772
238.402
238.962
237.198
231.695
221.118
204.344
180.443
148.586
107.883
56.9141
)
;
    }
    obsticalTop
    {
        type            calculated;
        value           nonuniform List<scalar> 
20
(
53.1509
38.2594
46.7855
52.9904
55.9072
57.6044
58.2636
58.0271
57.1481
55.7624
53.853
51.3185
48.074
43.9494
38.9122
32.3437
26.0978
16.8715
15.0101
10.0301
)
;
    }
    top
    {
        type            calculated;
        value           uniform 0;
    }
    defaultFaces
    {
        type            empty;
    }
}


// ************************************************************************* //
