# Region type : patch outlet
# Faces       : 30
# Area        : 5.000000e-05
# Scale factor: 1.000000e+00
# Time        	areaAverage(p)
81            	0.000000e+00
