/*--------------------------------*- C++ -*----------------------------------*\
| =========                 |                                                 |
| \\      /  F ield         | OpenFOAM: The Open Source CFD Toolbox           |
|  \\    /   O peration     | Version:  v1912                                 |
|   \\  /    A nd           | Website:  www.openfoam.com                      |
|    \\/     M anipulation  |                                                 |
\*---------------------------------------------------------------------------*/
FoamFile
{
    version     2.0;
    format      ascii;
    class       volScalarField;
    location    "310";
    object      epsilon;
}
// * * * * * * * * * * * * * * * * * * * * * * * * * * * * * * * * * * * * * //

dimensions      [0 2 -3 0 0 0 0];


internalField   nonuniform List<scalar> 
12441
(
0.0102962
0.00908472
0.00832687
0.00770245
0.00718354
0.00674888
0.00638222
0.0060709
0.00580504
0.00557658
0.00537931
0.00520981
0.00504186
0.00491738
0.00479559
0.00469351
0.00483456
0.0198002
0.269211
3.00725
20.9535
39.25
0.0101186
0.00891974
0.00818364
0.00757658
0.00707167
0.00664844
0.00629121
0.00598777
0.00572857
0.0055058
0.00531348
0.00514851
0.0049829
0.00486207
0.00474365
0.00464612
0.00477263
0.0195354
0.253603
2.99985
21.2448
40.2318
0.00989659
0.00871697
0.00799994
0.00740876
0.00691719
0.00650527
0.00615772
0.00586266
0.00561082
0.00539461
0.00520824
0.00504879
0.00488763
0.00477294
0.00465915
0.00456689
0.00463154
0.0177125
0.214978
2.96968
21.6255
41.3784
0.009673
0.00851333
0.00781456
0.0072385
0.00675959
0.00635836
0.00601994
0.00573278
0.00548785
0.00527779
0.00509699
0.00494254
0.00478791
0.00467669
0.00456876
0.00448167
0.00449614
0.0155297
0.17711
2.94766
22.0942
42.5504
0.0094288
0.00828872
0.00760868
0.00704824
0.00658249
0.00619249
0.00586374
0.00558504
0.0053476
0.00514429
0.00496972
0.00482106
0.0046712
0.00456689
0.00446417
0.0043842
0.00435019
0.013567
0.157815
2.95489
22.6119
43.6698
0.00922281
0.0080991
0.00743427
0.00688644
0.00643126
0.00605018
0.00572902
0.00545686
0.0052251
0.0050268
0.00485672
0.00471205
0.00456825
0.00446625
0.00436895
0.00429287
0.00427597
0.0137322
0.177471
3.06107
23.2403
44.7472
0.00900217
0.00789551
0.00724712
0.00671301
0.00626939
0.00589816
0.0055855
0.00532074
0.00509552
0.0049031
0.00473841
0.00459868
0.00445849
0.00436345
0.00426866
0.00420001
0.00603285
0.0228426
0.282658
3.35906
24.0777
45.7945
0.0088237
0.00773085
0.0070953
0.0065718
0.00613701
0.0057732
0.00546679
0.00520736
0.00498672
0.00479827
0.00463706
0.00450038
0.00436587
0.00427174
0.00418711
0.00516697
0.0345126
0.0794779
0.593957
3.98549
25.2452
46.8732
0.00862958
0.00755166
0.00693062
0.00641922
0.00599463
0.00563951
0.00534059
0.00508769
0.0048728
0.00468949
0.00453295
0.00440049
0.00426893
0.00414102
0.00539134
0.027062
0.176685
0.299108
1.27483
5.08728
26.8708
48.0153
0.00847487
0.00740877
0.00679872
0.00629637
0.0058793
0.00553046
0.00523682
0.00498837
0.00477727
0.00459722
0.0044435
0.00431371
0.00418855
0.00427116
0.025278
0.150131
0.529412
0.797405
2.35317
6.72176
29.0468
49.2846
0.00830546
0.00725232
0.006655
0.00616327
0.00575515
0.00541393
0.00512684
0.00488411
0.00467803
0.00450243
0.00435274
0.00422745
0.00407435
0.00950482
0.114448
0.436088
1.05117
1.52675
3.6271
8.78997
31.7992
50.6975
0.00817042
0.00712762
0.00653985
0.00605598
0.00565436
0.00531855
0.00503598
0.00479703
0.00459416
0.00442131
0.00427396
0.0041521
0.00415665
0.0485585
0.323378
0.820729
1.56569
2.27511
4.84157
11.0834
35.0758
52.295
0.00802131
0.00698997
0.00641355
0.00593914
0.00554548
0.00521645
0.00493971
0.00470583
0.00450739
0.00433845
0.0041946
0.00403829
0.00838986
0.166268
0.602663
1.17249
1.96623
2.88825
5.86947
13.3931
38.7706
54.0597
0.0079004
0.00687832
0.00631047
0.00584309
0.00545524
0.00513105
0.00485835
0.00462787
0.00443231
0.00426584
0.00412411
0.00388347
0.03735
0.347512
0.853525
1.43432
2.24869
3.34133
6.70062
15.5746
42.7512
56.0037
0.00776903
0.00675699
0.00619915
0.00574012
0.00535929
0.00504107
0.0047735
0.00454746
0.00435577
0.0041927
0.00405396
0.00427119
0.11425
0.530846
1.04366
1.61908
2.44578
3.66913
7.37062
17.5557
46.8892
58.0812
0.00765994
0.0066563
0.00610619
0.00565351
0.00527793
0.00496408
0.00470016
0.00447719
0.00428811
0.00412729
0.00399053
0.00953878
0.226433
0.681124
1.18088
1.75088
2.58703
3.91156
7.92023
19.314
51.0726
60.2902
0.00754403
0.00654925
0.00600806
0.00556278
0.00519342
0.00488483
0.0046254
0.00440629
0.00422055
0.00406263
0.00392885
0.0327098
0.342066
0.795788
1.28135
1.8481
2.69241
4.09831
8.38272
20.8557
55.2167
62.571
0.00744248
0.00645565
0.00592175
0.00548248
0.00511811
0.00481369
0.00455778
0.00434167
0.00415848
0.0040028
0.00387364
0.0828226
0.441892
0.882633
1.35744
1.9227
2.77455
4.24911
8.78244
22.1989
59.2612
64.9213
0.0073399
0.00636078
0.00583471
0.00540193
0.00504298
0.00474314
0.00449112
0.00427832
0.004098
0.00394479
0.00381007
0.148601
0.522081
0.950087
1.41733
1.98226
2.8415
4.37673
9.13643
23.3659
63.1712
67.2818
0.00724524
0.00627362
0.0057544
0.00532727
0.00497305
0.00467718
0.00442852
0.00421861
0.00404076
0.00388975
0.00428565
0.214562
0.585663
1.00431
1.46628
2.03169
2.89851
4.48941
9.45626
24.3781
66.9306
69.6617
0.00715504
0.00619014
0.00567779
0.00525632
0.00490678
0.00461482
0.00436945
0.00416231
0.00398682
0.00383787
0.0100183
0.273414
0.63701
1.04944
1.50772
2.07428
2.94917
4.59245
9.74959
25.2556
70.5425
72.0102
0.00706424
0.00610669
0.00560107
0.00518521
0.00484039
0.00455244
0.0043105
0.00410632
0.00393341
0.00378726
0.0289117
0.32364
0.679736
1.08823
1.54398
2.1123
2.99603
4.68908
10.0213
26.0161
74.0228
74.3523
0.00698498
0.00603312
0.00553339
0.00512233
0.00478146
0.00449677
0.00425754
0.00405563
0.00388463
0.0037422
0.0612168
0.36623
0.716411
1.12252
1.57671
2.14741
3.0409
4.78109
10.2746
26.6752
77.4032
76.6493
0.00689845
0.0059537
0.00546047
0.00505487
0.00471862
0.00443788
0.00420206
0.00400312
0.00383472
0.00370251
0.0986027
0.402688
0.748803
1.15363
1.60712
2.18085
3.08502
4.86935
10.5113
27.2469
80.7254
78.9445
0.00683022
0.00589023
0.00540199
0.00500037
0.00466732
0.00438917
0.00415545
0.00395819
0.0037912
0.00368416
0.134504
0.434493
0.778119
1.18252
1.63611
2.2135
3.12912
4.95423
10.7328
27.7437
84.0441
81.212
0.00674449
0.00581183
0.0053303
0.00493439
0.00460622
0.0043323
0.00410224
0.0039082
0.00374405
0.00364583
0.166742
0.462864
0.805206
1.20988
1.66435
2.246
3.17352
5.03595
10.9399
28.1762
87.4224
83.5114
0.00668539
0.00575654
0.00527907
0.00488633
0.00456066
0.0042887
0.0040602
0.0038674
0.00370428
0.00384827
0.195471
0.48872
0.830673
1.23627
1.69234
2.27875
3.21824
5.11466
11.1335
28.5543
90.9325
85.8273
0.00660162
0.00568008
0.00520932
0.00482233
0.00450162
0.00423398
0.00400925
0.00381977
0.00365967
0.00584589
0.221488
0.512736
0.854973
1.26208
1.7204
2.31195
3.26316
5.19057
11.3142
28.8858
94.6491
88.2307
0.006552
0.00563339
0.00516582
0.0047812
0.00446225
0.0041959
0.00397213
0.00378333
0.00362415
0.0114413
0.245556
0.535396
0.878444
1.28762
1.74875
2.34566
3.30812
5.26391
11.4827
29.1776
98.6485
90.7106
0.00646787
0.00555692
0.00509641
0.0047179
0.00440427
0.00414258
0.00392289
0.00373768
0.00358266
0.021873
0.268245
0.557053
0.901349
1.3131
1.77748
2.37984
3.35299
5.3349
11.6399
29.4354
103
93.3406
0.00642568
0.00551682
0.00505864
0.00468177
0.00436925
0.0041083
0.00388909
0.00370419
0.00355165
0.0374992
0.289931
0.577966
0.923881
1.33866
1.80663
2.41441
3.39771
5.40377
11.7863
29.6638
107.765
96.1058
0.00634318
0.00544195
0.00499085
0.00462013
0.00431302
0.00405681
0.00384177
0.00366053
0.00351572
0.0576062
0.310854
0.598329
0.946185
1.36438
1.83617
2.44929
3.44223
5.47071
11.9228
29.8671
112.989
99.0732
0.00630954
0.00540964
0.00496005
0.00459021
0.00428351
0.00402739
0.00381224
0.00363078
0.00349486
0.0809503
0.331162
0.618289
0.96836
1.39029
1.86606
2.48439
3.48656
5.53589
12.0502
30.0495
118.708
102.217
0.00622502
0.00533332
0.00489135
0.0045282
0.0042274
0.00397651
0.00376595
0.00358852
0.00347387
0.106209
0.350947
0.63795
0.990473
1.41639
1.89621
2.51967
3.5307
5.59947
12.1692
30.2148
124.941
105.592
0.00619823
0.00530708
0.00486582
0.00450281
0.00420177
0.00395039
0.00373924
0.00356119
0.00347911
0.132296
0.370256
0.657387
1.01256
1.44267
1.92658
2.55505
3.57467
5.66156
12.2806
30.3671
131.703
109.157
0.00611119
0.00522891
0.00479587
0.00444011
0.00414547
0.00389976
0.00369358
0.00351988
0.00355174
0.158355
0.389104
0.676648
1.03462
1.46909
1.95708
2.5905
3.61849
5.72223
12.3853
30.51
138.999
112.957
0.00608769
0.00520562
0.00477286
0.00441684
0.0041216
0.00387509
0.00366808
0.00349359
0.00638093
0.183687
0.407477
0.695757
1.05665
1.4956
1.98766
2.62598
3.66218
5.78156
12.484
30.6463
146.832
116.938
0.00599565
0.00512354
0.00469991
0.00435192
0.00406376
0.00382348
0.00362191
0.00345215
0.0297287
0.20759
0.425331
0.714716
1.07862
1.52213
2.01824
2.66144
3.70574
5.83958
12.5779
30.778
155.183
121.137
0.0059674
0.00509614
0.00467334
0.00432551
0.0040371
0.00379635
0.00359427
0.00342463
0.0636303
0.229057
0.442607
0.733507
1.10047
1.54862
2.04876
2.69686
3.74918
5.89631
12.6678
30.9056
164.002
125.495
0.00586266
0.00500315
0.00459106
0.00425265
0.00397252
0.00373906
0.00354333
0.00338444
0.0861361
0.2475
0.459238
0.752098
1.12217
1.57499
2.07914
2.73217
3.79245
5.95175
12.7546
31.0285
173.156
130.045
0.00582112
0.00496377
0.00455363
0.00421635
0.00393685
0.00370374
0.00350832
0.00336205
0.0997791
0.263045
0.475167
0.770442
1.14363
1.60116
2.10931
2.76732
3.83553
6.0059
12.8395
31.1453
182.373
134.727
0.00569945
0.00485616
0.00445845
0.00413182
0.00386155
0.00363654
0.0034482
0.0037805
0.1085
0.276091
0.490347
0.788477
1.1648
1.62701
2.13917
2.80223
3.87832
6.05875
12.9231
31.255
191.172
139.588
0.0056172
0.00478969
0.00440406
0.00408579
0.00382117
0.00359981
0.00341366
0.00468258
0.114401
0.287057
0.504754
0.806131
1.18559
1.65244
2.16863
2.8368
3.92073
6.11036
13.0057
31.3579
198.859
144.654
0.00525469
0.00446029
0.00411195
0.00382637
0.00358912
0.0033906
0.00322358
0.00512864
0.118553
0.29628
0.518367
0.823318
1.20594
1.6773
2.19757
2.87093
3.96264
6.16082
13.0869
31.4562
204.622
150.447
95.0235
59.6537
39.9628
31.4486
28.7272
23.6253
22.4336
20.1201
18.9051
18.2932
18.2271
18.1823
20.3717
24.6587
29.4329
32.3331
34.0519
36.2243
37.6268
37.875
37.7696
37.6281
37.1332
36.3602
35.8636
35.2581
34.5634
37.3941
44.4503
6.94905
4.39665
4.36213
4.33444
3.99247
3.51706
94.6475
59.7501
40.1809
32.0369
29.5136
24.1648
22.9471
20.5197
19.2627
18.5861
18.3561
18.2932
20.5822
25.0669
30.1232
33.0618
34.3495
36.2957
37.8434
38.337
38.4738
38.4784
37.9869
37.0814
36.413
35.6808
34.9198
37.7402
45.8102
6.98569
4.39348
4.35705
4.32888
3.98691
3.51238
93.9266
59.8996
40.6018
33.225
31.0777
25.2397
23.9398
21.2858
19.9515
19.1488
18.6208
18.5261
20.9772
25.8619
31.6061
34.6988
35.1168
36.4817
38.1671
39.1175
39.8097
40.188
39.7689
38.6286
37.597
36.5557
35.6347
38.4514
45.0738
7.0221
4.38716
4.34688
4.31779
3.9758
3.50302
92.8104
60.0811
41.2432
35.0656
33.4013
26.85
25.3743
22.3948
20.962
19.9807
19.0628
18.9207
21.6013
27.1423
34.1313
37.7493
36.819
37.0001
38.6823
40.2866
41.8465
42.8588
42.645
41.2065
39.5977
38.0091
36.7742
39.6236
43.4483
7.06606
4.37779
4.33163
4.30119
3.95917
3.48902
91.3035
60.274
42.13
37.5962
36.4505
28.9889
27.2207
23.8398
22.2938
21.0844
19.7304
19.5291
22.5135
28.98
37.9336
42.9168
40.2589
38.3059
39.5898
41.9816
44.7041
46.6444
46.8547
45.1228
42.6989
40.2329
38.4363
41.3744
41.8375
7.12918
4.36555
4.31132
4.27911
3.93706
3.47041
89.3553
60.4599
43.2956
40.8498
40.204
31.6623
29.4748
25.637
23.9659
22.4797
20.6739
20.4082
23.7624
31.385
43.0824
50.8502
46.6023
41.1966
41.2891
44.4524
48.5841
51.7698
52.7255
50.8169
47.3314
43.5228
40.7699
43.855
40.7574
7.22453
4.35066
4.28597
4.25158
3.9095
3.44723
87.0012
60.6227
44.7832
44.854
44.6512
34.8944
32.1605
27.825
26.0211
24.2122
21.9556
21.6224
25.3985
34.3449
49.4418
61.7206
57.1752
46.8713
44.4709
48.1254
53.817
58.567
60.6941
58.8937
54.1367
48.3342
44.0009
47.2654
40.4876
7.36597
4.33336
4.25561
4.21865
3.87655
3.41954
84.2135
60.7477
46.6449
49.599
49.7666
38.7146
35.3213
30.4616
28.5251
26.3574
23.6629
23.261
27.5045
37.8955
56.7165
74.6633
72.5807
56.7877
50.17
53.6753
60.9265
67.5262
71.333
70.1477
64.0419
55.3632
48.4696
51.8732
41.2272
7.56874
4.31392
4.22027
4.18038
3.83826
3.38741
81.0699
60.8213
48.941
54.9818
55.4798
43.1376
39.0072
33.616
31.5612
29.0208
25.9224
25.4551
30.2293
42.1762
64.4998
87.4435
90.6922
71.7777
59.6489
62.0632
70.6861
79.3413
85.3562
85.5308
78.2974
65.6403
54.6791
58.0318
43.2069
7.85069
4.2926
4.17999
4.13685
3.79471
3.3509
77.574
60.8298
51.7395
60.761
61.6612
48.1447
43.2597
37.36
35.2218
32.3366
28.9097
28.3954
33.8099
47.4293
72.3031
97.1803
105.618
89.7608
73.7108
74.3844
84.0737
94.8607
103.507
105.924
98.3053
80.5616
63.337
66.1851
46.7757
8.23368
4.26968
4.13484
4.08814
3.74602
3.31014
73.8369
60.7585
55.1178
66.5748
68.1331
53.6735
48.0968
41.7529
39.5924
36.4572
32.8491
32.3447
38.5876
53.9661
79.6047
102.203
112.057
104.511
90.9879
91.1466
101.873
114.722
126.099
131.42
124.786
101.557
75.3243
76.8174
52.4831
8.74456
4.24536
4.08488
4.03439
3.69231
3.26524
69.8857
60.5902
59.1665
72.0542
74.7062
59.6254
53.5004
46.8232
44.7276
41.5317
37.9998
37.6363
44.9874
61.9811
85.97
103.151
110.72
110.849
106.864
110.769
123.571
138.379
151.996
159.94
155.735
128.696
91.3909
90.2606
61.1465
9.41451
4.21972
4.03023
3.97575
3.63375
3.21636
65.8489
60.3033
63.9817
76.9787
81.2248
65.8919
59.4118
52.5497
50.6195
47.6571
44.5955
44.6335
53.3954
71.2438
91.2419
102.088
106.197
110.21
116.82
128.992
146.064
162.861
177.561
186.269
184.353
157.845
111.234
106.231
73.8043
10.2735
4.19263
3.971
3.91239
3.57052
3.16366
61.7626
59.8694
69.6186
81.3566
87.6008
72.3906
65.7444
58.8551
57.1755
54.8153
52.7382
53.5932
63.8058
80.7907
95.568
101.013
102.277
107.455
120.959
141.851
164.542
183.208
197.466
204.026
201.596
179.664
132.014
123.128
91.2289
11.3342
4.16352
3.90733
3.84452
3.50285
3.10735
57.7502
59.252
75.977
85.374
93.8186
79.0936
72.4163
65.6156
64.2218
62.8058
62.2343
64.4363
75.2814
89.2204
99.2587
101.18
100.698
106.022
122.668
149.157
176.157
195.658
207.905
209.896
203.455
186.115
148.169
137.751
112.467
12.5588
4.13123
3.83939
3.7724
3.431
3.04766
53.8399
58.4093
82.6398
89.2764
99.9233
86.0399
79.3701
72.7004
71.5488
71.2539
72.5132
76.3522
86.0482
95.4332
102.551
103.106
101.943
107.215
124.853
153.428
181.728
200.058
208.765
205.132
193.269
178.05
154.837
146.588
132.853
13.816
4.09385
3.76738
3.69629
3.35527
2.98483
50.1273
57.308
88.8066
93.271
106.008
93.2693
86.5964
80.0303
78.9846
79.7096
82.7152
87.8864
94.5361
99.406
105.609
106.754
105.846
111.082
128.636
156.869
183.599
198.587
202.435
193.264
176.982
162.43
151.822
148.136
145.009
14.8724
4.04895
3.6915
3.61649
3.27595
2.91913
46.6135
55.9539
93.549
97.4483
112.167
100.829
94.1283
87.6087
86.4725
87.8502
92.0856
97.6789
100.463
102.031
108.617
111.706
111.845
117.026
133.795
160.162
183.318
193.349
191.551
177.648
159.071
145.382
142.786
143.648
144.693
15.4727
3.99405
3.61201
3.53333
3.19342
2.85086
43.349
54.4342
96.3698
101.81
118.463
108.736
102.011
95.5072
94.0867
95.624
100.345
105.366
104.875
104.62
111.947
117.388
119.007
124.021
139.393
162.87
181.247
185.474
177.994
160.651
141.906
129.895
131.675
135.599
134.086
15.4679
3.92748
3.52918
3.44716
3.10802
2.78031
40.3033
52.9365
97.5375
106.324
124.905
116.948
110.265
103.823
102
103.299
107.869
111.677
109.282
108.349
116.133
123.375
126.307
130.899
144.326
164.191
177.168
175.459
163.002
143.78
126.48
116.789
120.837
126.045
118.242
14.8748
3.84888
3.44332
3.35833
3.02016
2.7078
37.4893
51.7382
97.8354
110.951
131.452
125.363
118.862
112.619
110.401
111.248
115.404
118.035
115.149
114.26
121.853
129.638
133.003
136.72
147.751
163.536
170.924
163.706
147.508
127.963
113.079
105.946
111.154
116.104
101.111
13.8357
3.75925
3.35476
3.26723
2.93021
2.63367
34.8769
51.1229
97.9996
115.65
138.025
133.829
127.714
121.89
119.432
119.857
123.788
125.785
123.641
123.242
129.79
136.542
138.981
141.143
149.356
160.741
162.666
150.771
132.308
113.723
101.651
96.9641
102.7
106.194
84.7642
12.5397
3.66055
3.26388
3.17424
2.8386
2.55821
32.4767
51.1209
98.4819
120.367
144.525
142.178
136.686
131.554
129.142
129.388
133.594
135.934
135.749
136.289
140.683
144.667
144.621
144.388
149.308
156.045
152.852
137.339
118.034
101.276
91.9958
89.4162
95.2334
96.3877
70.0733
11.1592
3.55524
3.17105
3.07974
2.74571
2.48177
30.2708
51.6263
99.364
125.026
150.844
150.241
145.622
141.471
139.494
139.966
145.084
149.02
152.171
154.373
155.27
154.588
150.525
146.998
148.071
149.906
142.076
124.09
105.115
90.6194
83.8501
82.9307
88.438
86.6754
57.3313
9.81962
3.44575
3.07665
2.98412
2.65196
2.40466
28.2673
52.3947
100.565
129.532
156.874
157.875
154.361
151.475
150.381
151.58
158.305
165.264
173.375
178.438
174.343
166.772
157.155
149.483
146.157
142.86
130.958
111.576
93.7541
81.6121
76.9447
77.2089
82.0317
77.089
46.5576
8.59527
3.33424
2.98109
2.88775
2.55774
2.32718
26.4614
53.1247
101.969
133.782
162.522
164.967
162.765
161.409
161.674
164.16
173.216
184.64
199.45
208.825
198.422
181.487
164.802
152.219
144.011
135.401
120.021
100.163
83.9733
74.0403
71.0284
72.0187
75.8051
67.7417
37.6314
7.51932
3.22239
2.88473
2.79099
2.46341
2.24963
24.8623
53.6226
103.478
137.685
167.717
171.452
170.729
171.151
173.251
177.616
189.739
207.082
230.295
245.142
227.414
198.695
173.477
155.348
141.914
127.932
109.664
90.0323
75.6666
67.67
65.8829
67.1884
69.6342
58.8048
30.3561
6.59743
3.11147
2.78794
2.6942
2.36934
2.17228
23.4808
53.9443
105.024
141.181
172.42
177.313
178.205
180.632
185.033
191.897
207.856
232.506
265.554
285.945
259.973
217.791
182.976
158.843
139.984
120.718
100.128
81.2134
68.6611
62.2762
61.3267
62.5962
63.4765
50.4648
24.502
5.81963
3.00234
2.69107
2.59771
2.27587
2.09539
22.3333
54.3742
106.558
144.242
176.629
182.579
185.196
189.844
196.998
206.993
227.588
260.899
304.774
329.231
293.601
237.449
192.716
162.432
138.131
113.894
91.5334
73.6342
62.7597
57.6596
57.2162
58.1651
57.3588
42.8759
19.8352
5.16882
2.89552
2.59445
2.50182
2.1833
2.0192
21.4546
55.265
108.046
146.875
180.37
187.314
191.752
198.836
209.187
222.966
249.04
292.268
347.236
372.381
325.047
255.723
201.867
165.687
136.129
107.469
83.8877
67.165
57.7692
53.6519
53.4418
53.8544
51.3561
36.1337
16.1376
4.62588
2.79135
2.49839
2.40683
2.09192
1.94393
20.8892
56.8819
109.456
149.107
183.69
191.601
197.96
207.704
221.708
239.947
272.379
326.719
392.081
412.699
351.281
270.559
209.355
168.018
133.654
101.379
77.1383
61.6519
53.5142
50.117
49.9252
49.6539
45.5677
30.268
13.2173
4.17255
2.68995
2.40315
2.31298
2.00199
1.86978
20.7351
59.339
110.762
150.982
186.652
195.532
203.932
216.591
234.742
258.18
297.927
364.461
438.108
447.291
369.858
280.325
214.261
168.886
130.427
95.5289
71.1911
56.9403
49.8446
46.9475
46.6136
45.5742
40.093
25.2528
10.9124
3.79261
2.59136
2.309
2.22053
1.91373
1.7969
21.1259
62.6059
111.94
152.55
189.324
199.209
209.803
225.693
248.57
278.066
326.225
405.949
483.791
473.574
379.334
284.123
215.891
167.859
126.266
89.8451
65.9443
52.8868
46.6348
44.0616
43.4748
41.6399
35.0144
21.0225
9.09034
3.4723
2.49557
2.21616
2.12969
1.82734
1.72546
22.2957
66.5438
112.98
153.866
191.785
202.737
215.74
235.28
263.632
300.294
358.25
451.851
526.752
489.036
379.082
281.758
214.004
164.765
121.149
84.2887
61.2929
49.3654
43.7836
41.3981
40.4919
37.8803
30.3867
17.4903
7.64513
3.20024
2.40252
2.12485
2.04064
1.74301
1.65559
24.5223
70.9462
113.877
154.985
194.115
206.237
221.956
245.744
280.629
326.013
395.615
502.865
563.42
491.741
369.362
273.597
208.633
159.605
115.16
78.8587
57.1429
46.2684
41.21
38.9129
37.6583
34.3243
26.2354
14.5618
6.49317
2.96716
2.31213
2.03523
1.95356
1.66088
1.58739
28.1637
75.5809
114.638
155.955
196.405
209.856
228.751
257.692
300.716
357.167
440.831
558.641
588.466
480.334
351.052
260.379
200.105
152.569
108.458
73.5676
53.4067
43.5063
38.8512
36.5747
34.9726
30.9941
22.5598
12.1449
5.56927
2.7656
2.22433
1.9475
1.8686
1.58109
1.52097
33.4954
80.2271
115.274
156.824
198.76
213.787
236.572
272.099
325.825
396.901
497.038
615.409
595.583
454.977
325.74
243.098
188.856
143.904
101.208
68.4303
50.0097
41.0059
36.6596
34.362
32.4356
27.904
19.3393
10.1552
4.82295
2.58955
2.13905
1.86178
1.78589
1.50374
1.45642
40.701
84.7041
115.794
157.636
201.312
218.317
246.132
290.599
359.209
449.932
566.034
662.378
579.356
417.503
295.472
222.904
175.456
133.922
93.5728
63.4524
46.8851
38.7092
34.6004
32.2604
30.0475
25.0591
16.5407
8.51851
4.21523
2.43422
2.05624
1.77824
1.70555
1.42894
1.39379
49.6321
88.8919
116.211
158.443
204.246
223.894
258.623
316.005
406.14
521.551
641.671
681.596
538.59
371.674
262.643
201.028
160.498
122.929
85.6927
58.6366
43.9799
36.5717
32.6496
30.2607
27.8065
22.4564
14.1236
7.17165
3.71603
2.29579
1.97587
1.697
1.6277
1.35678
1.33317
59.8743
92.737
116.534
159.308
207.844
231.272
276.13
353.184
474
611.267
700.036
657.053
477.891
322.069
229.524
178.675
144.637
111.26
77.7039
53.984
41.2507
34.5612
30.7927
28.3579
25.7088
20.0863
12.0459
6.06161
3.30215
2.1712
1.89791
1.61818
1.55243
1.28734
1.2746
70.5911
96.2432
116.775
160.324
212.57
241.785
302.418
410.095
567.342
695.809
704.33
588.396
406.572
273.154
198.026
156.926
128.497
99.2327
69.7342
49.5019
38.6669
32.6554
29.0222
26.5505
23.7491
17.9352
10.266
5.14463
2.95563
2.05799
1.82238
1.54192
1.47984
1.22068
1.21814
80.9187
99.4512
116.946
161.642
219.243
257.925
344.336
496.046
666.946
721.759
638.451
492.705
334.521
228.1
169.421
136.648
112.687
87.1761
61.9148
45.2028
36.2063
30.8401
27.3368
24.8404
21.9218
15.9872
8.7453
4.3849
2.66253
1.9542
1.74929
1.46834
1.41002
1.15688
1.16383
89.3733
102.423
117.066
163.526
229.43
284.573
412.884
602.774
706.519
654.292
526.022
392.344
268.914
188.682
144.417
118.459
97.7255
75.391
54.3673
41.1033
33.8557
29.1072
25.7386
23.2324
20.2227
14.2261
7.44852
3.75329
2.41201
1.85825
1.67867
1.39755
1.34304
1.09597
1.11172
95.1437
105.239
117.167
166.483
246.359
331.061
512.452
659.506
632.583
524.198
405.924
302.807
213.035
155.34
123.163
102.662
84.0338
64.1744
47.2087
37.219
31.606
27.4521
24.2326
21.7336
18.6496
12.6369
6.34439
3.22613
2.19557
1.76885
1.61057
1.32965
1.27897
1.038
1.06185
0.00337769
0.00250374
0.00227474
0.00216161
0.00211956
0.00212251
0.00215543
0.00526346
0.120803
0.302096
0.527943
0.835659
1.22054
1.69502
2.21828
2.89549
3.99301
6.1976
13.1463
31.531
206.95
160.127
0.00334422
0.0022419
0.00184097
0.00160382
0.00148108
0.00144181
0.0014738
0.00532653
0.121916
0.305239
0.533435
0.842578
1.22842
1.70431
2.22906
2.90841
4.00967
6.21901
13.1843
31.5868
207.936
170.244
0.00354033
0.00237563
0.00188181
0.00154372
0.00132103
0.00118913
0.00115819
0.00536726
0.122649
0.307527
0.537701
0.847716
1.23386
1.71038
2.23595
2.91685
4.02134
6.23545
13.2157
31.6441
208.074
179.907
0.00367063
0.00251725
0.00200375
0.00162958
0.00135757
0.00116571
0.00103153
0.0053926
0.123053
0.309009
0.540726
0.851029
1.2368
1.71316
2.23887
2.92069
4.02786
6.24665
13.2391
31.7033
207.427
188.979
0.00392246
0.00276388
0.0022265
0.00182234
0.00151454
0.0012802
0.000999962
0.00540612
0.123159
0.30972
0.542496
0.852489
1.23719
1.71262
2.23779
2.91988
4.02909
6.25238
13.2528
31.7651
206.039
197.923
0.00406006
0.0029296
0.00239847
0.0019922
0.00167554
0.00142568
0.000989768
0.00540978
0.122987
0.30968
0.543003
0.85208
1.23502
1.70875
2.23267
2.91435
4.02491
6.2524
13.255
31.8296
203.942
206.91
0.00434038
0.00320796
0.00265966
0.00223382
0.00189671
0.00162555
0.00105949
0.00540451
0.122549
0.308908
0.542248
0.849802
1.2303
1.70158
2.22354
2.90409
4.01522
6.24651
13.2443
31.8966
201.175
215.941
0.00447844
0.00337916
0.0028439
0.00242365
0.00208699
0.0018122
0.00118652
0.00539041
0.121853
0.307421
0.540249
0.845677
1.22306
1.69114
2.21044
2.88911
3.99996
6.23448
13.2193
31.9654
197.787
224.953
0.00478396
0.00368465
0.00313482
0.00269738
0.00234287
0.0020502
0.00131142
0.00536698
0.120905
0.305239
0.537037
0.839745
1.21336
1.67751
2.19344
2.86945
3.97906
6.21614
13.1789
32.0345
193.833
233.877
0.00490857
0.00384877
0.00331952
0.00289487
0.00254748
0.00225741
0.00140152
0.00533335
0.11971
0.302384
0.532656
0.832065
1.20128
1.66078
2.17267
2.84517
3.95247
6.19129
13.122
32.1016
189.374
242.629
0.00522933
0.00417128
0.00363029
0.00319101
0.00282807
0.00252235
0.00151539
0.00528846
0.118272
0.298881
0.527163
0.822715
1.18694
1.64111
2.14825
2.81638
3.92018
6.15976
13.0479
32.1636
184.475
251.101
0.00533918
0.00432463
0.00380989
0.00338929
0.00303922
0.00274162
0.00163452
0.00523079
0.116595
0.294761
0.520625
0.811793
1.17046
1.61862
2.12036
2.7832
3.88219
6.12138
12.9558
32.2163
179.202
259.158
0.00567204
0.00466098
0.00413701
0.00370395
0.00334018
0.00302861
0.00183887
0.00515852
0.114677
0.290054
0.513116
0.799408
1.152
1.59349
2.08919
2.74582
3.83851
6.07595
12.8454
32.2542
173.625
266.653
0.00575617
0.00479284
0.00430116
0.00389313
0.0035485
0.00325114
0.00211638
0.00506884
0.112515
0.28479
0.504713
0.785683
1.13171
1.56593
2.05497
2.70442
3.78921
6.02329
12.7162
32.2711
167.809
273.432
0.00609204
0.00513338
0.00463461
0.00421617
0.00385977
0.00355037
0.00252128
0.00495839
0.110099
0.278997
0.495493
0.77075
1.10978
1.53613
2.01791
2.65926
3.73439
5.96322
12.5681
32.2597
161.821
279.348
0.0061521
0.0052429
0.00478016
0.00439119
0.00405868
0.00376842
0.00298736
0.00482178
0.107407
0.272696
0.485528
0.754747
1.08637
1.50431
1.97829
2.6106
3.67421
5.89552
12.401
32.2115
155.718
284.269
0.00648671
0.00558316
0.00511511
0.00471735
0.00437452
0.00407359
0.00350009
0.00465286
0.104406
0.265897
0.474886
0.737811
1.06169
1.47069
1.93636
2.55871
3.60887
5.82002
12.2149
32.1179
149.558
288.082
0.0065183
0.00566541
0.00523649
0.00487205
0.00455736
0.00428003
0.00389568
0.00444186
0.101043
0.258595
0.463619
0.720081
1.03592
1.43551
1.89238
2.50392
3.53861
5.73652
12.0102
31.9694
143.386
290.704
0.00683897
0.00599254
0.00556011
0.00518873
0.00486554
0.00457937
0.0042725
0.00418699
0.0972408
0.25076
0.451765
0.701685
1.00926
1.39899
1.84663
2.44655
3.46373
5.64489
11.7872
31.7565
137.246
292.075
0.00685345
0.0060557
0.00566228
0.00532506
0.00503153
0.00477099
0.0045268
0.00390194
0.0928854
0.242331
0.439337
0.682739
0.981888
1.36137
1.79938
2.38692
3.38459
5.54499
11.5464
31.47
131.17
292.162
0.00716007
0.0063695
0.00597408
0.00563132
0.00533053
0.00506221
0.00482245
0.00367341
0.0878211
0.233203
0.426314
0.663336
0.953991
1.32286
1.7509
2.32537
3.30156
5.43676
11.2885
31.1013
125.187
290.95
0.0071566
0.00641247
0.0060555
0.00574729
0.00547722
0.00523608
0.00502209
0.00370432
0.0818412
0.223214
0.41263
0.643541
0.925738
1.28369
1.70143
2.26223
3.21506
5.32019
11.0144
30.6427
119.318
288.442
0.00744655
0.00670977
0.00635172
0.00603894
0.00576253
0.00551444
0.00529191
0.00409903
0.0746908
0.212125
0.398161
0.623374
0.897274
1.24408
1.65123
2.19782
3.12553
5.19535
10.7249
30.0881
113.577
284.651
0.00743053
0.00673698
0.00641568
0.00613657
0.00589069
0.00567012
0.00547017
0.00465961
0.0660944
0.199611
0.382699
0.602795
0.868719
1.20423
1.60054
2.13248
3.03343
5.06242
10.4212
29.4332
107.974
279.601
0.00770417
0.00701789
0.00669613
0.00641313
0.00616151
0.00593447
0.00572702
0.00524215
0.0558587
0.185239
0.365929
0.58168
0.84014
1.16432
1.5496
2.06649
2.93926
4.92168
10.1042
28.6761
102.513
273.324
0.00767671
0.00703038
0.00674337
0.0064928
0.00627109
0.00607145
0.00588804
0.00561884
0.0441083
0.168492
0.3474
0.559794
0.811541
1.12453
1.49861
2.00016
2.8435
4.7735
9.7752
27.8176
97.1962
265.86
0.00793331
0.00729388
0.00700669
0.00675261
0.00652556
0.00631977
0.00613016
0.00592592
0.031662
0.148837
0.326494
0.536747
0.782819
1.08498
1.44777
1.93376
2.74666
4.61843
9.43526
26.861
92.0193
257.26
0.0078995
0.00729635
0.00704132
0.00681774
0.00661919
0.00643985
0.00627427
0.00611162
0.0202245
0.125954
0.302409
0.511955
0.75373
1.04572
1.39728
1.86756
2.64925
4.45712
9.08553
25.8127
86.9755
247.585
0.0081412
0.00754443
0.00728929
0.00706239
0.00685867
0.00667329
0.00650177
0.00633856
0.0119321
0.100152
0.274178
0.484581
0.72383
1.00671
1.34726
1.80182
2.5518
4.29042
8.72714
24.682
82.0559
236.914
0.00810333
0.00753935
0.00731378
0.00711532
0.00693853
0.00677842
0.0066302
0.00648896
0.00775189
0.0729834
0.240822
0.453479
0.692415
0.967706
1.29777
1.73674
2.45483
4.11932
8.36122
23.4804
77.2476
225.342
0.00833026
0.0077721
0.00754638
0.00734473
0.00716294
0.00699691
0.00684285
0.00669709
0.00661233
0.0474806
0.201771
0.417171
0.658436
0.928256
1.24878
1.67249
2.35887
3.945
7.98895
22.2218
72.5375
212.984
0.00829263
0.00776376
0.00756482
0.00738925
0.00723241
0.00709004
0.00695797
0.0068323
0.00660547
0.0272502
0.157687
0.37392
0.620414
0.887545
1.20002
1.60916
2.26443
3.76884
7.61164
20.9215
67.9101
199.975
0.00850604
0.00798245
0.00778335
0.00760474
0.00744309
0.00729496
0.0071571
0.00702659
0.00684796
0.0146584
0.111586
0.32213
0.576343
0.844328
1.15095
1.54668
2.17196
3.5924
7.23086
19.596
63.3521
186.467
0.008471
0.00797344
0.00779843
0.00764353
0.0075048
0.00737858
0.00726126
0.00714949
0.00702307
0.00893534
0.06925
0.261363
0.523678
0.796795
1.10065
1.48478
2.0818
3.41739
6.84854
18.2619
58.8521
172.629
0.00867169
0.0081789
0.00800371
0.00784593
0.00770262
0.00757086
0.00744789
0.00733122
0.00721274
0.00719559
0.0372081
0.194143
0.459641
0.742443
1.04763
1.42282
1.99409
3.24555
6.4671
16.9362
54.4059
158.64
0.00864157
0.00817177
0.00801805
0.00788162
0.00775914
0.00764744
0.00754339
0.00744407
0.00734458
0.00697597
0.0184893
0.127601
0.382332
0.677983
0.989729
1.35974
1.90863
3.07854
6.08948
15.6349
50.0171
144.68
0.00883165
0.00836612
0.00821213
0.00807294
0.00794606
0.00782902
0.00771943
0.00761516
0.00751296
0.00721048
0.0104979
0.0722532
0.293219
0.59962
0.923918
1.29387
1.82479
2.91773
5.7191
14.3733
45.7015
130.93
0.00880914
0.00836382
0.00822885
0.00810873
0.00800059
0.0079017
0.00780935
0.00772094
0.00763339
0.00745661
0.00804482
0.035872
0.200306
0.504246
0.846162