/*--------------------------------*- C++ -*----------------------------------*\
| =========                 |                                                 |
| \\      /  F ield         | OpenFOAM: The Open Source CFD Toolbox           |
|  \\    /   O peration     | Version:  v1912                                 |
|   \\  /    A nd           | Website:  www.openfoam.com                      |
|    \\/     M anipulation  |                                                 |
\*---------------------------------------------------------------------------*/
FoamFile
{
    version     2.0;
    format      ascii;
    class       volScalarField;
    location    "310";
    object      nut;
}
// * * * * * * * * * * * * * * * * * * * * * * * * * * * * * * * * * * * * * //

dimensions      [0 2 -1 0 0 0 0];


internalField   nonuniform List<scalar> 
12441
(
5.82197e-24
1.79052e-20
8.10492e-20
3.3254e-19
1.0683e-18
3.88832e-18
1.01056e-17
2.50049e-17
6.13828e-17
1.27528e-16
3.05647e-16
7.71192e-16
2.18243e-15
7.40185e-15
1.03708e-13
1.89446e-11
0.000195794
0.000962382
0.00309053
0.00264746
0.00364681
0.00775321
6.342e-24
3.0335e-20
1.11732e-19
4.23947e-19
1.30209e-18
4.80732e-18
1.21985e-17
3.00102e-17
7.36088e-17
1.54451e-16
3.7979e-16
1.0288e-15
2.83024e-15
9.37536e-15
1.13155e-13
3.90003e-11
5.81119e-05
0.00116753
0.00353825
0.00288223
0.00400915
0.00781733
6.36477e-24
3.58955e-20
1.20778e-19
4.4813e-19
1.37773e-18
4.90675e-18
1.2929e-17
3.20412e-17
8.05133e-17
1.71771e-16
4.17877e-16
1.11702e-15
2.787e-15
7.66403e-15
5.35588e-14
6.57224e-12
1.11368e-05
0.000856745
0.00140996
0.00271896
0.00416203
0.0078909
6.31923e-24
3.76917e-20
1.18534e-19
4.29309e-19
1.32535e-18
4.71357e-18
1.25134e-17
3.1327e-17
7.84934e-17
1.73673e-16
4.23745e-16
1.15356e-15
2.61226e-15
8.47489e-15
3.85332e-14
1.54298e-12
1.62769e-06
0.000597263
0.00105125
0.0026414
0.0043245
0.0079647
6.28519e-24
4.38831e-20
1.29779e-19
4.58314e-19
1.40269e-18
4.77935e-18
1.30909e-17
3.27949e-17
8.42969e-17
1.87525e-16
4.54153e-16
1.28419e-15
3.02139e-15
4.0716e-14
2.47394e-13
2.2973e-12
1.39747e-07
0.000421567
0.00103151
0.00262832
0.0044648
0.00803394
6.23502e-24
4.1288e-20
1.20539e-19
4.29188e-19
1.34272e-18
4.62208e-18
1.27504e-17
3.23931e-17
8.28931e-17
1.92687e-16
4.76932e-16
1.44504e-15
4.5357e-15
1.32911e-12
1.1906e-11
5.10302e-11
4.58897e-07
0.000387258
0.00109773
0.0026852
0.00459142
0.00809948
6.20012e-24
5.02639e-20
1.37796e-19
4.75768e-19
1.46014e-18
4.79246e-18
1.35932e-17
3.44538e-17
9.07019e-17
2.11126e-16
5.20831e-16
1.99941e-15
2.50434e-14
4.14527e-11
6.58332e-10
9.37422e-09
1.87529e-05
0.000405391
0.00128441
0.0028705
0.00473733
0.00816218
6.15034e-24
4.34522e-20
1.23172e-19
4.40157e-19
1.40816e-18
4.72279e-18
1.35123e-17
3.4845e-17
9.13186e-17
2.2385e-16
5.72495e-16
5.43418e-15
6.10134e-13
2.25382e-09
8.42088e-08
4.97817e-06
0.000195278
0.000465207
0.00173917
0.00324955
0.00492872
0.00822577
6.11755e-24
5.57043e-20
1.46131e-19
4.99676e-19
1.55412e-18
4.95866e-18
1.46118e-17
3.75708e-17
1.02074e-16
2.5095e-16
6.45334e-16
6.13314e-14
2.59257e-11
7.42668e-08
1.04438e-05
0.000154465
0.000801794
0.000830598
0.00268296
0.00389717
0.00519825
0.00829204
6.0707e-24
4.43497e-20
1.25436e-19
4.5663e-19
1.50753e-18
4.95362e-18
1.47475e-17
3.87255e-17
1.04877e-16
2.75124e-16
7.48602e-16
1.68145e-12
1.08357e-09
4.43754e-06
0.000191879
0.000618748
0.00170689
0.00157648
0.00441911
0.00489166
0.00555946
0.00836448
6.04153e-24
6.02603e-20
1.53434e-19
5.25907e-19
1.67272e-18
5.20595e-18
1.60252e-17
4.20349e-17
1.19294e-16
3.17376e-16
8.92059e-16
5.22947e-11
5.50643e-08
8.22961e-05
0.000726157
0.00172575
0.00375619
0.00315456
0.00739368
0.00633274
0.00602556
0.00844366
5.99612e-24
4.46291e-20
1.27736e-19
4.76942e-19
1.63369e-18
5.28095e-18
1.64023e-17
4.40652e-17
1.25499e-16
3.64635e-16
1.15858e-15
1.45637e-09
3.24555e-06
0.000349371
0.00160289
0.00389503
0.00788972
0.00634208
0.0120635
0.0082639
0.00658521
0.00853143
5.97051e-24
6.41497e-20
1.60451e-19
5.5381e-19
1.81496e-18
5.54193e-18
1.79086e-17
4.82224e-17
1.46704e-16
4.44736e-16
1.69452e-15
3.52138e-08
7.25424e-05
0.00109656
0.00397413
0.00867086
0.0157976
0.0122092
0.0185882
0.0106656
0.00722883
0.00862633
5.92654e-24
4.43255e-20
1.2967e-19
4.99314e-19
1.78319e-18
5.69192e-18
1.85325e-17
5.13841e-17
1.59851e-16
5.59163e-16
3.60129e-15
7.96328e-07
0.00034688
0.00284852
0.00886477
0.0174242
0.0289679
0.0216622
0.0266544
0.0134105
0.00792381
0.00872852
5.90416e-24
6.7516e-20
1.66655e-19
5.82622e-19
1.978e-18
5.94014e-18
2.02692e-17
5.67831e-17
1.96056e-16
7.78726e-16
1.65168e-14
1.51746e-05
0.00113847
0.00674567
0.0177077
0.0313217
0.0480434
0.0347983
0.0354703
0.0163396
0.00864979
0.00883515
5.86048e-24
4.39592e-20
1.31998e-19
5.24807e-19
1.9578e-18
6.18557e-18
2.12023e-17
6.16796e-17
2.28168e-16
1.21629e-15
3.02155e-13
0.000137349
0.00284972
0.0139262
0.0315836
0.0507154
0.0722756
0.0504633
0.0440691
0.0192528
0.00936991
0.00894576
5.84139e-24
7.05408e-20
1.73505e-19
6.15125e-19
2.17061e-18
6.43958e-18
2.33109e-17
6.93791e-17
3.08234e-16
2.30499e-15
1.26023e-11
0.000525563
0.00653253
0.0253668
0.050489
0.0749293
0.0992756
0.0664673
0.0516021
0.0220116
0.0100694
0.00905718
5.79744e-24
4.35026e-20
1.34494e-19
5.53142e-19
2.16068e-18
6.77165e-18
2.46186e-17
7.7231e-17
4.0847e-16
5.44573e-15
5.47979e-10
0.00135491
0.0131329
0.0414989
0.0738911
0.102052
0.125402
0.0803649
0.0576405
0.0244937
0.0107209
0.00916919
5.78108e-24
7.32647e-20
1.8029e-19
6.49141e-19
2.38804e-18
7.01175e-18
2.7183e-17
8.90728e-17
6.61736e-16
1.69235e-14
4.40836e-08
0.00331065
0.0235688
0.0615902
0.0998833
0.12929
0.146778
0.0904937
0.0621436
0.0266679
0.0113241
0.00927899
5.73655e-24
4.30538e-20
1.36873e-19
5.82414e-19
2.38692e-18
7.43829e-18
2.90079e-17
1.02318e-16
1.08044e-15
7.52731e-14
8.54974e-06
0.00704928
0.0379851
0.0845995
0.126438
0.153426
0.160502
0.0964936
0.0654034
0.0285054
0.0118651
0.00938714
5.72348e-24
7.57307e-20
1.86805e-19
6.83192e-19
2.62932e-18
7.67321e-18
3.2305e-17
1.22249e-16
2.1938e-15
7.80213e-13
0.000167492
0.0135221
0.0557668
0.108656
0.150718
0.171794
0.165617
0.0992255
0.0677864
0.0300441
0.0123574
0.00949146
5.67813e-24
4.2435e-20
1.38575e-19
6.1094e-19
2.63519e-18
8.1935e-18
3.49408e-17
1.46468e-16
4.34024e-15
1.34062e-11
0.000657275
0.0232736
0.0757313
0.132235
0.170737
0.182828
0.163271
0.100064
0.0696552
0.0312976
0.0127983
0.00959327
5.66776e-24
7.80242e-20
1.92474e-19
7.155e-19
2.88995e-18
8.41854e-18
3.94344e-17
1.83588e-16
1.02759e-14
1.66105e-10
0.00173826
0.0362356
0.0964829
0.153459
0.184721
0.186558
0.15608
0.100239
0.0712384
0.0323281
0.0132127
0.00969106
5.62186e-24
4.19652e-20
1.39795e-19
6.3802e-19
2.90269e-18
9.03789e-18
4.35026e-17
2.315e-16
2.24208e-14
1.55803e-09
0.00400462
0.0518367
0.11671
0.171223
0.192494
0.184281
0.146963
0.10044
0.0726862
0.0331666
0.0136079
0.00978684
5.61501e-24
8.02771e-20
1.97583e-19
7.45837e-19
3.17129e-18
9.26767e-18
5.02662e-17
3.06438e-16
5.64418e-14
1.37798e-08
0.00805606
0.0689871
0.13535
0.184539
0.194483
0.178107
0.13817
0.100884
0.0740478
0.0338897
0.0140171
0.00987966
5.56732e-24
4.17931e-20
1.40767e-19
6.6389e-19
3.19214e-18
9.99284e-18
5.71544e-17
4.08475e-16
1.30484e-13
3.18904e-07
0.014385
0.0866614
0.151626
0.193409
0.192223
0.170135
0.130866
0.101501
0.0753475
0.0345427
0.0144541
0.00997203
5.56298e-24
8.24861e-20
2.02103e-19
7.74041e-19
3.47302e-18
1.02327e-17
6.84631e-17
5.7338e-16
3.92552e-13
1.87092e-05
0.0229813
0.10382
0.165071
0.198048
0.187139
0.162025
0.125315
0.102145
0.0765671
0.0352082
0.0149558
0.0100634
5.51416e-24
4.18608e-20
1.41226e-19
6.87548e-19
3.50167e-18
1.10694e-17
8.13322e-17
8.10425e-16
1.83e-12
0.000211483
0.033554
0.119789
0.175496
0.199349
0.180801
0.154731
0.121277
0.102684
0.0776946
0.0359283
0.0155347
0.0101564
5.51319e-24
8.4678e-20
2.05804e-19
7.99245e-19
3.7964e-18
1.13447e-17
1.02518e-16
1.20444e-15
1.28018e-11
0.000708649
0.0454467
0.134029
0.18298
0.198086
0.174153
0.148647
0.118364
0.103043
0.0786986
0.0367662
0.0162211
0.0102507
5.4621e-24
4.20359e-20
1.40971e-19
7.08444e-19
3.83379e-18
1.23053e-17
1.28834e-16
1.79583e-15
7.40941e-11
0.00143626
0.0580983
0.146286
0.187793
0.195233
0.167937
0.143771
0.116216
0.10319
0.0795615
0.0377335
0.0170147
0.0103488
5.46316e-24
8.68092e-20
2.08985e-19
8.21832e-19
4.14338e-18
1.26538e-17
1.72486e-16
2.80971e-15
3.56411e-10
0.0025204
0.0708868
0.156398
0.19034
0.191413
0.162378
0.139939
0.114565
0.103128
0.0802537
0.0388526
0.0179289
0.01045
5.41102e-24
4.22481e-20
1.39905e-19
7.26641e-19
4.19106e-18
1.37423e-17
2.30146e-16
4.38985e-15
1.3869e-09
0.00409741
0.0833997
0.164406
0.191069
0.187236
0.157623
0.136925
0.113232
0.102876
0.0807598
0.0400941
0.0189424
0.0105565
5.41518e-24
8.89211e-20
2.11421e-19
8.42416e-19
4.52285e-18
1.41939e-17
3.26415e-16
7.08393e-15
4.74636e-09
0.0063528
0.0952258
0.170402
0.190428
0.18298
0.153572
0.134531
0.112109
0.102465
0.0810549
0.0414447
0.0200475
0.010667
5.35956e-24
4.22806e-20
1.37815e-19
7.42913e-19
4.58519e-18
1.54546e-17
4.58284e-16
1.12964e-14
1.44514e-08
0.00945587
0.106168
0.17461
0.188815
0.178918
0.150176
0.132589
0.111134
0.101922
0.0811278
0.0428528
0.0212032
0.0107831
5.36566e-24
8.84606e-20
2.10346e-19
8.5727e-19
4.93682e-18
1.60488e-17
6.78018e-16
1.85082e-14
4.27995e-08
0.0135723
0.116068
0.177254
0.186562
0.175102
0.147284
0.130979
0.110276
0.101281
0.0809589
0.0442986
0.0223887
0.0109032
5.30601e-24
4.14879e-20
1.32582e-19
7.51661e-19
5.01043e-18
1.74639e-17
9.80544e-16
2.99206e-14
2.19614e-07
0.0189298
0.124966
0.178628
0.18393
0.171634
0.144832
0.129611
0.109524
0.10057
0.0805428
0.0457419
0.023556
0.0110282
5.31249e-24
8.52665e-20
2.03833e-19
8.62104e-19
5.38135e-18
1.81876e-17
1.47479e-15
5.74623e-14
1.13547e-05
0.0258376
0.132926
0.178983
0.181121
0.168477
0.142705
0.12843
0.108876
0.0998191
0.0798679
0.0471897
0.0246862
0.0111563
5.24608e-24
4.1617e-20
1.27332e-19
7.5774e-19
5.48303e-18
1.98585e-17
2.14253e-15
4.65068e-13
0.000209303
0.0348029
0.14014
0.178593
0.178275
0.165679
0.140872
0.127398
0.108342
0.0990557
0.0789386
0.048639
0.025742
0.0112883
5.24945e-24
5.37921e-20
1.54729e-19
7.99524e-19
5.76916e-18
2.06403e-17
3.20175e-15
2.31303e-11
0.00155214
0.0464567
0.146744
0.17767
0.175495
0.163189
0.13926
0.1265
0.107933
0.0983085
0.0777573
0.0501358
0.0267269
0.011422
5.17267e-24
4.32828e-20
1.14479e-19
7.2432e-19
5.94079e-18
2.35468e-17
4.66307e-15
1.0329e-09
0.00630183
0.0612132
0.152897
0.17643
0.172839
0.161054
0.137873
0.125729
0.107666
0.0976006
0.076346
0.0517039
0.0276326
0.0115584
5.16603e-24
1.9396e-21
1.12097e-20
4.00672e-19
5.44945e-18
2.44397e-17
7.20773e-15
1.83708e-07
0.0173326
0.0790284
0.158624
0.175026
0.17034
0.159236
0.136665
0.125093
0.107558
0.0969553
0.0747297
0.0533817
0.0284976
0.0116955
5.0779e-24
1.71175e-20
4.4776e-20
4.17412e-19
5.46273e-18
3.62109e-17
1.80078e-14
5.02706e-05
0.03709
0.0995491
0.163923
0.173617
0.168001
0.157804
0.135676
0.124604
0.107624
0.0963851
0.0729585
0.0551134
0.0293359
0.0118345
5.03909e-24
6.72051e-22
8.45968e-23
2.35259e-19
5.06669e-18
8.28245e-17
3.70817e-13
0.00116108
0.0672293
0.122185
0.168659
0.172306
0.165801
0.156721
0.134875
0.12429
0.10788
0.0958969
0.0710881
0.0567305
0.030148
0.011976
4.83839e-24
2.10338e-19
4.58176e-19
1.02963e-18
7.26125e-18
9.13651e-16
7.18248e-12
0.00733258
0.108413
0.146601
0.17296
0.171288
0.163719
0.156052
0.1343
0.124165
0.108321
0.0954332
0.0691878
0.057804
0.0306292
0.0121338
0.00987657
0.0248023
0.026351
0.0100144
0.00818229
0.00837257
0.00860173
0.00893992
0.00892365
0.009434
0.0132251
0.0121405
0.0107051
0.0100816
0.0105713
0.0123038
0.0144395
0.015686
0.0155044
0.013336
0.0118061
0.0117648
0.0122694
0.0129245
0.0136035
0.0142833
0.014912
0.0140277
0.0119053
0.0759671
0.120197
0.121097
0.122119
0.132431
0.150602
0.00986353
0.025218
0.0255382
0.00967412
0.00804247
0.00823262
0.008639
0.00900602
0.00891934
0.00943214
0.0129502
0.0118332
0.0104019
0.00972274
0.0101371
0.0118525
0.0142615
0.0158286
0.0157232
0.0133537
0.0116155
0.011488
0.0119708
0.0126435
0.0133657
0.0140791
0.014725
0.013869
0.0115319
0.0754222
0.120069
0.121008
0.122069
0.13238
0.150566
0.00983842
0.0255765
0.0241203
0.00908386
0.00789561
0.00805869
0.00877039
0.00916441
0.00896097
0.00946601
0.011996
0.0108162
0.00957226
0.00880004
0.00879175
0.00998846
0.0122516
0.0140649
0.0144309
0.0125575
0.0110313
0.0108903
0.0113532
0.0120596
0.0128669
0.0136606
0.0143498
0.0135443
0.0116737
0.0747027
0.119754
0.120775
0.121918
0.132226
0.150444
0.00979929
0.0258731
0.0223063
0.00848131
0.00779989
0.00793989
0.00897284
0.00931388
0.00903383
0.00954791
0.010961
0.00969556
0.0086221
0.0078212
0.00740978
0.00795878
0.00977312
0.0116082
0.0124116
0.0112859
0.0101639
0.0100367
0.0104607
0.0111877
0.0120996
0.0130154
0.0137847
0.0130408
0.0120352
0.0737322
0.119253
0.120398
0.121664
0.131967
0.150236
0.00974597
0.0260097
0.0202302
0.007873
0.00768349
0.00781554
0.00913607
0.00936419
0.00905172
0.00958248
0.0100735
0.00874151
0.00782202
0.00704433
0.0063076
0.0062597
0.00751404
0.00919379
0.0102532
0.00981891
0.00912326
0.00900965
0.00936495
0.0100724
0.011076
0.0121418
0.0130356
0.0123583
0.0123949
0.0724125
0.118574
0.119889
0.121321
0.131617
0.149953
0.00967615
0.0259019
0.0180051
0.0072304
0.00749755
0.00762993
0.00917452
0.00926568
0.00894499
0.00947003
0.00930901
0.00796244
0.00717503
0.0064243
0.00545702
0.00495289
0.00567121
0.00711716
0.0082793
0.00834901
0.00800489
0.00789452
0.0081548
0.00878763
0.0098336
0.0110516
0.012115
0.0115098
0.0125939
0.0706539
0.117736
0.119272
0.120908
0.131197
0.149618
0.00959042
0.0254957
0.0157465
0.00656454
0.00724699
0.0073764
0.00906091
0.00901386
0.00868996
0.00916537
0.00858022
0.00727018
0.00657745
0.00583412
0.00474533
0.00396319
0.00423344
0.0054108
0.00659084
0.00697599
0.00687944
0.00676591
0.00692069
0.00742903
0.00844011
0.00977521
0.0110413
0.0105208
0.0125286
0.0683897
0.116762
0.118575
0.12045
0.130734
0.149255
0.00948687
0.0247517
0.0135657
0.00592043
0.00697092
0.00708302
0.00881636
0.00863701
0.00830288
0.00867867
0.00782891
0.00659418
0.00595389
0.00520514
0.00411013
0.00322918
0.00316856
0.00403685
0.00516695
0.0057303
0.00579318
0.00568066
0.00574012
0.00609744
0.0069905
0.00836724
0.00984145
0.0094284
0.012143
0.0655807
0.115677
0.11783
0.119975
0.130258
0.148895
0.00936733
0.023667
0.0115534
0.00535139
0.00671657
0.00679083
0.00848684
0.00817909
0.00782147
0.00805468
0.00704566
0.00590865
0.00528846
0.00454104
0.00354597
0.00271924
0.00246117
0.00299558
0.00397592
0.00461588
0.00477746
0.00467893
0.00466999
0.00488114
0.00559448
0.00690987
0.00855429
0.00827855
0.0114237
0.0622165
0.114507
0.11707
0.119514
0.1298
0.148569
0.0092307
0.0222532
0.00977163
0.00490048
0.00652477
0.00653981
0.00812573
0.007689
0.00729266
0.00735204
0.00625069
0.00521821
0.00460131
0.00387893
0.00306506
0.00240012
0.00207034
0.00230398
0.00303057
0.00364674
0.00386141
0.00379028
0.00374704
0.00384358
0.00435622
0.00550795
0.00723524
0.00712397
0.0103966
0.058318
0.11328
0.116329
0.119095
0.129394
0.148308
0.00908003
0.0205559
0.00825188
0.00459391
0.00642533
0.00636303
0.00778346
0.00721307
0.00676301
0.00663061
0.00547755
0.0045412
0.00392354
0.00325936
0.00267566
0.0022259
0.00191719
0.00193187
0.00236294
0.00285851
0.00307928
0.0030402
0.00299306
0.00302009
0.00335407
0.004273
0.00595792
0.00602099
0.00912586
0.0539434
0.112023
0.115641
0.11875
0.12907
0.148143
0.00891508
0.018631
0.00700245
0.00444192
0.00643854
0.00628532
0.00750358
0.00679239
0.00627508
0.00594421
0.00476151
0.0039013
0.00328688
0.00271599
0.00237409
0.0021429
0.00190685
0.0017925
0.00196428
0.00228448
0.00246514
0.00245001
0.00241809
0.00241975
0.00262706
0.00329787
0.00480863
0.00502573
0.00771335
0.0492014
0.110762
0.115035
0.118505
0.128861
0.148106
0.00874002
0.0165628
0.00601535
0.00444369
0.00657869
0.00632428
0.00732117
0.00646058
0.0058646
0.00533767
0.004135
0.00332393
0.00272236
0.00227312
0.00214667
0.00210138
0.00195354
0.00178157
0.00177005
0.00192093
0.0020342
0.00202825
0.00201799
0.00202725
0.00217045
0.00263088
0.00386983
0.00418851
0.0062935
0.0442672
0.109529
0.114542
0.118388
0.128795
0.148224
0.00855535
0.0144398
0.00527659
0.00459336
0.00685821
0.00649256
0.00726313
0.00624346
0.00555956
0.00484472
0.00362346
0.00283396
0.00225959
0.00194289
0.00197549
0.00206326
0.00199372
0.00180943
0.0016928
0.00172017
0.00176799
0.00176086
0.00177149
0.00180759
0.00194272
0.00226305
0.00319544
0.00354581
0.00501553
0.0393963
0.108359
0.114186
0.118423
0.128899
0.148524
0.00836592
0.0123653
0.00477282
0.00488577
0.00729133
0.00680145
0.00734894
0.00615973
0.00537949
0.00448822
0.00324433
0.00245095
0.00192072
0.00172009
0.00184444
0.00200666
0.00199244
0.00181836
0.0016579
0.00161719
0.00162194
0.00161399
0.00164512
0.00171802
0.00188602
0.00214077
0.00279194
0.00311138
0.00400936
0.0349176
0.107302
0.11399
0.118628
0.129198
0.149028
0.00817267
0.0104334
0.00449839
0.00532109
0.00789743
0.00726511
0.0075955
0.00622335
0.00533706
0.0042805
0.0030057
0.00219
0.00170812
0.001587
0.00174275
0.00192548
0.00193969
0.00178458
0.00162046
0.00155806
0.00154802
0.00154842
0.00160444
0.00172112
0.00194739
0.00219497
0.00262207
0.00287208
0.00334654
0.0311832
0.106421
0.113973
0.119025
0.129712
0.149757
0.00798033
0.00873113
0.00446089
0.00590852
0.00870272
0.00790984
0.00802119
0.00644647
0.00544074
0.00422709
0.00290997
0.00205608
0.00160634
0.00151913
0.00166354
0.00182652
0.00184542
0.00171114
0.00156595
0.00151261
0.00151161
0.00153307
0.00162288
0.00179097
0.00208829
0.00236251
0.00262673
0.00279372
0.00302469
0.0284735
0.105791
0.114153
0.119626
0.130462
0.15073
0.00778933
0.00732445
0.00468648
0.00667133
0.00974405
0.00877543
0.00865109
0.00684454
0.00569816
0.00432964
0.00295622
0.0020453
0.00159272
0.00149344
0.00160174
0.00172301
0.00173007
0.00161529
0.00149944
0.00147187
0.00149577
0.00155004
0.00168467
0.00191272
0.00228419
0.00259444
0.00274586
0.0028341
0.00299225
0.0269163
0.105489
0.114543
0.120447
0.131465
0.151961
0.00760307
0.0062468
0.00522066
0.00764751
0.0110709
0.00991834
0.00952096
0.00744118
0.0061202
0.00459059
0.00314526
0.0021496
0.00164608
0.00149147
0.00155183
0.00162782
0.00161654
0.00151807
0.00143347
0.00143859
0.00149639
0.00159287
0.00178323
0.00207902
0.00252004
0.00285707
0.00292989
0.00295562
0.00318924
0.0264956
0.105575
0.115154
0.121498
0.132735
0.153464
0.00742066
0.00549091
0.00613148
0.00888821
0.0127458
0.0114108
0.010678
0.00827071
0.00672377
0.00501454
0.0034808
0.0023632
0.00175301
0.00150282
0.00150903
0.00154848
0.00152136
0.00143571
0.00137896
0.00141834
0.00151538
0.00166177
0.00191765
0.00228611
0.00278565
0.0031296
0.00314419
0.00313248
0.0035742
0.0271302
0.106079
0.115997
0.122789
0.134284
0.15525
0.00724378
0.00501433
0.00751379
0.0104574
0.0148419
0.0133359
0.0121784
0.00937746
0.00753332
0.00561456
0.00397312
0.00268355
0.00190832
0.00152407
0.00147038
0.00148675
0.00145242
0.00137698
0.00134218
0.0014151
0.00155574
0.00175952
0.00208917
0.00253072
0.00307278
0.00340075
0.00336891
0.00335257
0.00413309
0.0287394
0.107003
0.117078
0.124328
0.136126
0.157328
0.00707145
0.00476191
0.00949579
0.012436
0.0174445
0.0157831
0.0140832
0.0108113
0.00857871
0.00640819
0.00463627
0.00311628
0.00211704
0.00155995
0.00143718
0.00144136
0.00140973
0.00134356
0.00132474
0.00143017
0.00161971
0.00188889
0.00229865
0.00280846
0.00337405
0.00366593
0.00359641
0.00361598
0.00487768
0.0312633
0.108325
0.118403
0.126121
0.13827
0.159706
0.00690537
0.00470035
0.0122259
0.0149354
0.0206572
0.0188502
0.016458
0.0126227
0.0098917
0.00741426
0.00548605
0.00367261
0.00239174
0.00162114
0.00141478
0.00141183
0.00139089
0.00133411
0.00132605
0.00146318
0.00170832
0.00205171
0.00254518
0.00311327
0.00368308
0.00392513
0.00382808
0.00393255
0.00584026
0.0346569
0.110005
0.119976
0.128174
0.140724
0.162391
0.00674534
0.00481602
0.0158638
0.0181165
0.0246153
0.0226515
0.0193756
0.0148588
0.0114999
0.00864436
0.00652872
0.00436295
0.00274917
0.00172577
0.00141316
0.0014007
0.00139422
0.00134699
0.00134527
0.00151305
0.0018219
0.00224826
0.00282562
0.00343802
0.00399509
0.00418164
0.00407139
0.00431936
0.00706873
0.0388754
0.112002
0.121801
0.130492
0.143498
0.165386
0.00659312
0.0051181
0.020548
0.0222071
0.0294928
0.0273204
0.0229145
0.0175575
0.0134191
0.0100944
0.00774637
0.00518099
0.00319637
0.00189444
0.00144615
0.00141405
0.00142154
0.00138288
0.00138313
0.00157903
0.00195996
0.00247735
0.00313486
0.00377551
0.00430749
0.00444104
0.00433784
0.00479923
0.00862305
0.0438614
0.114273
0.12388
0.133078
0.146597
0.168695
0.00644962
0.00563959
0.0263656
0.0275003
0.035489
0.0329858
0.0271393
0.0207326
0.0156399
0.0117323
0.00908591
0.00609172
0.00371873
0.00214308
0.00153196
0.00146135
0.00147709
0.00144432
0.00144219
0.00166135
0.00212174
0.00273623
0.00346653
0.00411968
0.00462019
0.00471069
0.00464172
0.00539971
0.0105723
0.049538
0.116781
0.126214
0.135935
0.150027
0.17232
0.00631698
0.00642444
0.033331
0.0343244
0.0427849
0.0397138
0.0320569
0.0243443
0.0181091
0.0134894
0.0104596
0.00702637
0.00427226
0.00246701
0.00168876
0.00155507
0.00156792
0.00153597
0.00152724
0.00176197
0.00230614
0.00302114
0.00381415
0.00446641
0.00493546
0.00499914
0.00499935
0.00615278
0.0129917
0.0558078
0.119495
0.128803
0.139065
0.153794
0.176259
0.00619775
0.00751569
0.0414161
0.0429928
0.0514798
0.04743
0.0375593
0.0282656
0.0207112
0.015254
0.0117506
0.00789375
0.00479599
0.002838
0.00192654
0.00170906
0.00170194
0.00166294
0.00164449
0.00188532
0.0025126
0.00332786
0.00417208
0.00481409
0.00525764
0.00531598
0.00542887
0.00709467
0.0159592
0.0625571
0.122389
0.131648
0.142469
0.157899
0.180511
0.00609509
0.00893844
0.0506148
0.0537499
0.0615233
0.0558559
0.0433798
0.032261
0.0232613
0.0168773
0.0128304
0.00859696
0.0052273
0.00321251
0.00223671
0.00193386
0.00188775
0.00183118
0.00180171
0.00203912
0.00274167
0.00365273
0.00453653
0.00516356
0.0055926
0.00567147
0.00595011
0.0082662
0.0195506
0.069663
0.125444
0.134746
0.146147
0.162346
0.185074
0.00601408
0.0107051
0.061015
0.0667087
0.0726515
0.0644835
0.0490859
0.0359937
0.0255177
0.0181889
0.0135769
0.00905322
0.00551903
0.00355083
0.00259344
0.00222941
0.00212991
0.00204495
0.00200673
0.00223444
0.00299629
0.00399343
0.00490597
0.00551792
0.00594725
0.00607646
0.00658482
0.00971287
0.0238343
0.0770024
0.128646
0.138095
0.150098
0.167136
0.189942
0.00596079
0.0128255
0.0727859
0.0817272
0.0843179
0.0725917
0.0541136
0.0390606
0.0272127
0.0190224
0.013894
0.00920569
0.00564375
0.00382388
0.00296326
0.00258108
0.00242618
0.00230583
0.00226644
0.00248532
0.00328232
0.00434989
0.00528141
0.00588188
0.00632902
0.00654216
0.00735671
0.0114852
0.0288654
0.0844599
0.131984
0.141693
0.15432
0.17227
0.195109
0.00594609
0.0153361
0.0860851
0.0982087
0.0956371
0.079309
0.0578447
0.0410541
0.0280977
0.0192424
0.0137243
0.00903105
0.00559701
0.00401705
0.00331601
0.00296208
0.00276262
0.00260823
0.00258302
0.00280645
0.00360923
0.00472454
0.00566602
0.00626128
0.00674545
0.00708006
0.00829181
0.0136386
0.0346809
0.0919338
0.13545
0.145534
0.158814
0.177749
0.200571
0.00598322
0.0183034
0.100848
0.114917
0.105409
0.0837393
0.0597147
0.0416372
0.0279901
0.0187718
0.0130607
0.00854044
0.00539347
0.00412653
0.0036287
0.00334152
0.00311717
0.00293956
0.00295168
0.0032097
0.00398942
0.00512255
0.00606482
0.00666231
0.0072037
0.00770165
0.00941868
0.0162338
0.0412953
0.0993403
0.139038
0.149617
0.163578
0.183575
0.206322
0.00609167
0.0218346
0.116572
0.130009
0.1123
0.0851517
0.0593408
0.0406215
0.0268164
0.0176093
0.0119471
0.00777988
0.00506691
0.00416013
0.00388757
0.0036912
0.0034625
0.00327975
0.00335785
0.00369826
0.00443688
0.00555103
0.00648374
0.00709091
0.00771028
0.00841842
0.0107689
0.0193359
0.0486994
0.106615
0.142745
0.15394
0.168616
0.189753
0.212361
0.00628805
0.0260434
0.132198
0.141423
0.115174
0.0831803
0.0566263
0.0380211
0.0246353
0.0158361
0.0104785
0.00682736
0.00466437
0.00413382
0.00408763
0.00399136
0.00377532
0.00360767
0.00378007
0.00426247
0.00496354
0.00601823
0.00692891
0.0075521
0.00827065
0.00924157
0.0123774
0.0230144
0.0568605
0.113714
0.146571
0.158505
0.173933
0.196295
0.218688
0.00658505
0.0310476
0.146302
0.147498
0.113438
0.0779475
0.0518022
0.0340626
0.0216335
0.0136054
0.00878916
0.00578808
0.00424083
0.0040704
0.00423198
0.00423132
0.00403821
0.00390383
0.00419346
0.00487754
0.0055744
0.00653118
0.00740536
0.00804937
0.00888907
0.0101821
0.0142832
0.027342
0.0657261
0.120611
0.150522
0.163318
0.179539
0.203216
0.22531
0.00697682
0.0368845
0.157441
0.147474
0.107217
0.0700379
0.0453746
0.0291374
0.0180915
0.0111217
0.00704215
0.00478078
0.00384698
0.00399293
0.00432879
0.00440983
0.00424469
0.00415698
0.00457747
0.00550902
0.00626154
0.0070933
0.00791598
0.00858411
0.00956837
0.0112507
0.0165302
0.0323947
0.0752294
0.127299
0.154607
0.168394
0.185451
0.210542
0.232243
0.00744499
0.0434544
0.164486
0.141593
0.0972753
0.0603344
0.0380008
0.0237178
0.0143348
0.00861472
0.00541113
0.00391402
0.00352079
0.00392074
0.00438744
0.0045309
0.00439492
0.00436308
0.00491892
0.00611963
0.00700077
0.00770057
0.00846008
0.00915528
0.0103101
0.0124583
0.0191682
0.0382507
0.0852976
0.133789
0.158843
0.173755
0.191696
0.218309
0.239508
0.00795396
0.0502746
0.166652
0.130795
0.0847387
0.0497907
0.030343
0.0182684
0.0106898
0.00631849
0.00405536
0.00325482
0.00328027
0.00386395
0.00441483
0.00460174
0.0044968
0.00452775
0.00521632
0.00668026
0.00775303
0.00833948
0.00903264
0.0097593
0.0111148
0.0138166
0.0222538
0.0449911
0.0958606
0.140105
0.163256
0.179435
0.198306
0.226563
0.24714
0.00846726
0.0563995
0.163429
0.116311
0.0707882
0.0392451
0.022963
0.0131932
0.00745861
0.00444299
0.00307223
0.002813
0.00312509
0.00382313
0.0044129
0.00462773
0.00455923
0.00466135
0.00547704
0.00717308
0.00847162
0.00898585
0.00962388
0.0103904
0.0119825
0.0153393
0.0258531
0.0527012
0.106861
0.146293
0.167878
0.185478
0.205327
0.235366
0.255182
0.00894498
0.0603571
0.154485
0.0993619
0.0564487
0.0293251
0.0162819
0.00882317
0.00489616
0.00311737
0.00245717
0.00255314
0.00303831
0.00378868
0.00437833
0.00461178
0.00459282
0.00477982
0.00571772
0.00759611
0.00911258
0.00960846
0.0102202
0.0110412
0.0129132
0.0170436
0.0300433
0.0614728
0.118261
0.152409
0.172752
0.191939
0.212811
0.244787
0.263687
0.0093615
0.0606417
0.139757
0.0810825
0.0425368
0.0204618
0.0106087
0.00542309
0.00314658
0.00232032
0.00212187
0.00241944
0.00299276
0.00374441
0.00430305
0.00455129
0.00460369
0.00489968
0.00595922
0.00795845
0.00964406
0.0101744
0.0108062
0.0117036
0.0139075
0.0189516
0.034916
0.0714075
0.130053
0.158529
0.177926
0.198881
0.220818
0.254906
0.272718
0.0096768
0.0559687
0.119492
0.0625497
0.0297404
0.0129824
0.00619888
0.00314819
0.00214295
0.00190022
0.00195523
0.00235252
0.00295632
0.00367095
0.00417738
0.00444017
0.00459529
0.00504026
0.00622841
0.00828146
0.0100531
0.0106574
0.0113671
0.0123694
0.0149661
0.0210923
0.0405807
0.0826216
0.142263
0.164742
0.183457
0.206374
0.229414
0.265808
0.282341
0.00988074
0.0462389
0.0946073
0.0447683
0.0186704
0.00716322
0.0032268
0.00189067
0.0016237
0.0016723
0.00184981
0.00229102
0.002891
0.00354393
0.00398798
0.00426504
0.00455933
0.00521438
0.00655265
0.00859303
0.0103469
0.0110427
0.0118914
0.0130308
0.0160893
0.0235018
0.0471683
0.0952508
0.154956
0.171147
0.1894
0.214488
0.238664
0.277579
0.292627
4.88257e-24
3.15342e-19
1.14259e-18
4.31792e-18
2.50507e-17
3.16164e-14
9.05513e-11
0.0272216
0.147253
0.165538
0.175745
0.170774
0.162251
0.155885
0.134063
0.124286
0.108863
0.0949828
0.0677729
0.0579668
0.0302437
0.0121428
4.99631e-24
7.39556e-20
8.35673e-20
6.2522e-18
6.2562e-17
2.46597e-13
9.26741e-10
0.0515039
0.173714
0.176991
0.17692
0.170415
0.161391
0.155998
0.134148
0.124561
0.109463
0.0947222
0.0670697
0.0577231
0.0298095
0.0121922
5.10238e-24
2.76632e-19
8.779e-19
8.90166e-18
1.22314e-16
9.29613e-13
9.33847e-09
0.0804841
0.197386
0.186405
0.177614
0.170098
0.160731
0.156288
0.13445
0.125007
0.110254
0.0945507
0.0667165
0.0571132
0.0292741
0.0123508
5.06216e-24
5.72607e-20
2.14768e-20
6.84928e-18
1.92245e-16
2.27858e-12
1.69626e-07
0.111067
0.217833
0.194057
0.178188
0.169918
0.160331
0.156798
0.135004
0.125605
0.111205
0.0944754
0.0667019
0.0561691
0.028672
0.0126081
5.16598e-24
2.21307e-19
6.32139e-19
7.2281e-18
2.8801e-16
3.60695e-12
6.54409e-06
0.138538
0.235004
0.20023
0.178898
0.169947
0.160247
0.157512
0.135789
0.126346
0.112277
0.0944981
0.0669943
0.0549609
0.0280487
0.0129554
5.11419e-24
4.59242e-20
1.20664e-20
4.61408e-18
4.0949e-16
4.86652e-12
1.86036e-05
0.157761
0.249009
0.20524
0.179955
0.170266
0.160525
0.15848
0.136842
0.127219
0.113433
0.0946151
0.0675594
0.0535461
0.0274142
0.0134097
5.22946e-24
1.78687e-19
4.73302e-19
4.6351e-18
5.79924e-16
5.05527e-12
3.43849e-05
0.166256
0.260071
0.209344
0.181477
0.170927
0.161206
0.15969
0.138141
0.128226
0.114637
0.094823
0.0683452
0.0520058
0.0267944
0.0139847
5.17035e-24
3.80408e-20
7.87999e-21
2.7792e-18
7.71707e-16
4.37143e-12
2.572e-05
0.164733
0.268369
0.212783
0.183556
0.171993
0.162317
0.161194
0.139731
0.12937
0.115859
0.0951119
0.0693058
0.050395
0.0261869
0.0146982
5.29813e-24
1.46656e-19
3.69503e-19
2.86036e-18
9.85186e-16
2.87706e-12
2.73345e-05
0.155786
0.274054
0.215711
0.186215
0.173494
0.163879
0.162979
0.141591
0.130669
0.117081
0.0954742
0.0703838
0.0487862
0.025611
0.0155538
5.22365e-24
3.24415e-20
5.88713e-21
1.68642e-18
1.14718e-15
1.68725e-12
3.5199e-05
0.141861
0.277128
0.218242
0.18947
0.175474
0.165904
0.165096
0.143769
0.132142
0.118299
0.0958975
0.0715372
0.0472196
0.0250577
0.0165551
5.35789e-24
1.21929e-19
2.9735e-19
1.84159e-18
1.25138e-15
8.51548e-13
4.00368e-05
0.124538
0.277502
0.22039
0.193277
0.177945
0.168401
0.167524
0.146244
0.133819
0.119523
0.0963749
0.0727167
0.0457517
0.0245424
0.0176875
5.27127e-24
2.84276e-20
4.69157e-21
1.08029e-18
1.23813e-15
4.16104e-13
4.10109e-05
0.105274
0.274917
0.222117
0.197593
0.180935
0.17137
0.170309
0.149062
0.135726
0.120778
0.0968976
0.0738947
0.0444056
0.0240519
0.0189357
5.41231e-24
1.02862e-19
2.48113e-19
1.26242e-18