/*--------------------------------*- C++ -*----------------------------------*\
| =========                 |                                                 |
| \\      /  F ield         | OpenFOAM: The Open Source CFD Toolbox           |
|  \\    /   O peration     | Version:  v1912                                 |
|   \\  /    A nd           | Website:  www.openfoam.com                      |
|    \\/     M anipulation  |                                                 |
\*---------------------------------------------------------------------------*/
FoamFile
{
    version     2.0;
    format      ascii;
    class       volScalarField;
    location    "310";
    object      p;
}
// * * * * * * * * * * * * * * * * * * * * * * * * * * * * * * * * * * * * * //

dimensions      [0 2 -2 0 0 0 0];


internalField   nonuniform List<scalar> 
12441
(
8.67741
8.97198
9.81323
11.1237
12.8243
14.9652
17.6327
20.9422
25.0703
30.176
36.5118
44.1739
53.7889
66.3941
81.5934
101.107
129.207
164.255
220.959
283.31
374.486
437.858
8.6774
8.97197
9.81322
11.1236
12.8243
14.9652
17.6326
20.9421
25.0701
30.1758
36.5114
44.1733
53.7879
66.3924
81.5903
101.1
129.191
164.23
220.877
283.234
374.438
437.662
8.67738
8.97195
9.8132
11.1236
12.8242
14.9651
17.6325
20.9419
25.0698
30.1753
36.5107
44.1722
53.7859
66.3889
81.5842
101.086
129.167
164.174
220.708
283.053
374.305
437.306
8.67736
8.97192
9.81316
11.1236
12.8241
14.965
17.6323
20.9416
25.0694
30.1746
36.5096
44.1704
53.7829
66.3838
81.5751
101.065
129.134
164.088
220.529
282.776
374.064
436.754
8.67733
8.97189
9.81312
11.1235
12.824
14.9648
17.6321
20.9412
25.0688
30.1737
36.5081
44.1681
53.7789
66.3769
81.5629
101.038
129.092
163.981
220.364
282.427
373.725
436
8.67729
8.97184
9.81306
11.1234
12.8239
14.9646
17.6318
20.9407
25.068
30.1725
36.5062
44.1651
53.7739
66.3682
81.5477
101.005
129.039
163.855
220.178
282.005
373.294
435.046
8.67724
8.97179
9.81299
11.1233
12.8238
14.9644
17.6314
20.9401
25.0672
30.1711
36.504
44.1616
53.7679
66.3579
81.5295
100.965
128.976
163.708
219.96
281.514
372.773
433.891
8.67719
8.97173
9.81291
11.1232
12.8236
14.9641
17.631
20.9394
25.0661
30.1694
36.5015
44.1575
53.7609
66.3458
81.5084
100.92
128.908
163.54
219.722
280.966
372.169
432.532
8.67713
8.97166
9.81282
11.123
12.8234
14.9638
17.6305
20.9386
25.0649
30.1675
36.4985
44.1528
53.7529
66.3321
81.4848
100.87
128.838
163.359
219.485
280.372
371.485
430.965
8.67706
8.97158
9.81272
11.1229
12.8231
14.9634
17.63
20.9377
25.0636
30.1653
36.4952
44.1476
53.7439
66.3167
81.4598
100.82
128.772
163.176
219.272
279.744
370.722
429.186
8.67698
8.97149
9.8126
11.1227
12.8229
14.963
17.6294
20.9367
25.0621
30.163
36.4915
44.1417
53.7339
66.3
81.435
100.775
128.725
163.008
219.115
279.091
369.878
427.185
8.67689
8.9714
9.81248
11.1225
12.8226
14.9626
17.6287
20.9357
25.0604
30.1603
36.4874
44.1353
53.723
66.2828
81.4137
100.745
128.726
162.891
219.041
278.418
368.946
424.955
8.6768
8.97129
9.81234
11.1223
12.8223
14.9621
17.628
20.9345
25.0587
30.1575
36.483
44.1283
53.7115
66.2671
81.4049
100.751
128.818
162.869
219.06
277.717
367.919
422.484
8.6767
8.97118
9.81219
11.1221
12.8219
14.9616
17.6272
20.9332
25.0567
30.1544
36.4782
44.1207
53.7
66.2571
81.423
100.819
129.04
162.978
219.142
276.968
366.786
419.76
8.67659
8.97105
9.81203
11.1218
12.8216
14.9611
17.6264
20.9318
25.0546
30.1511
36.473
44.1125
53.6901
66.2608
81.4841
100.97
129.414
163.221
219.225
276.146
365.538
416.769
8.67647
8.97092
9.81186
11.1216
12.8212
14.9605
17.6255
20.9303
25.0524
30.1475
36.4675
44.1041
53.6846
66.2874
81.6002
101.21
129.917
163.547
219.238
275.225
364.167
413.499
8.67635
8.97078
9.81168
11.1213
12.8208
14.9598
17.6245
20.9288
25.05
30.1437
36.4616
44.0959
53.6883
66.345
81.7735
101.527
130.484
163.862
219.122
274.185
362.664
409.934
8.67622
8.97063
9.81149
11.121
12.8203
14.9592
17.6235
20.9271
25.0475
30.1396
36.4552
44.0891
53.7075
66.4357
81.995
101.89
131.018
164.063
218.849
273.016
361.025
406.06
8.67608
8.97047
9.81128
11.1207
12.8199
14.9585
17.6224
20.9253
25.0448
30.1353
36.4484
44.0857
53.7464
66.5563
82.2452
102.25
131.412
164.083
218.422
271.715
359.244
401.863
8.67593
8.97031
9.81107
11.1204
12.8194
14.9577
17.6213
20.9234
25.0419
30.1307
36.4413
44.0888
53.8067
66.6957
82.4975
102.555
131.59
163.908
217.865
270.287
357.322
397.327
8.67577
8.97013
9.81084
11.12
12.8189
14.9569
17.6201
20.9215
25.039
30.1259
36.4342
44.1017
53.8841
66.8431
82.7221
102.758
131.526
163.577
217.208
268.737
355.255
392.436
8.67561
8.96995
9.8106
11.1197
12.8183
14.9561
17.6189
20.9194
25.0358
30.1208
36.4275
44.1268
53.9738
66.9823
82.893
102.832
131.251
163.148
216.478
267.075
353.046
387.173
8.67544
8.96975
9.81035
11.1193
12.8177
14.9552
17.6175
20.9172
25.0325
30.1155
36.4221
44.164
54.0662
67.1036
82.9927
102.777
130.834
162.673
215.693
265.308
350.695
381.522
8.67526
8.96955
9.81008
11.1189
12.8171
14.9543
17.6162
20.915
25.0291
30.1098
36.4193
44.2108
54.1565
67.1936
83.0163
102.614
130.354
162.182
214.862
263.447
348.205
375.464
8.67508
8.96934
9.80981
11.1185
12.8165
14.9534
17.6147
20.9126
25.0255
30.1039
36.4209
44.2631
54.2361
67.25
82.9709
102.38
129.871
161.687
213.991
261.5
345.578
368.979
8.67488
8.96912
9.80952
11.118
12.8159
14.9524
17.6132
20.9101
25.0217
30.0977
36.4281
44.3167
54.3038
67.2676
82.872
102.107
129.417
161.185
213.081
259.478
342.817
362.047
8.67468
8.9689
9.80923
11.1176
12.8152
14.9514
17.6117
20.9076
25.0178
30.0914
36.4413
44.3679
54.3536
67.2533
82.7378
101.827
129.001
160.67
212.131
257.39
339.925
354.646
8.67447
8.96866
9.80892
11.1171
12.8145
14.9503
17.6101
20.9049
25.0137
30.0852
36.4598
44.4139
54.3882
67.209
82.5849
101.553
128.618
160.137
211.141
255.244
336.903
346.751
8.67425
8.96841
9.8086
11.1167
12.8138
14.9492
17.6084
20.9022
25.0094
30.0791
36.4819
44.4528
54.404
67.1456
82.4257
101.296
128.255
159.583
210.11
253.046
333.751
338.336
8.67403
8.96816
9.80826
11.1162
12.813
14.9481
17.6066
20.8993
25.005
30.0734
36.5055
44.4835
54.4064
67.0658
82.2678
101.053
127.904
159.007
209.038
250.802
330.467
329.373
8.6738
8.9679
9.80792
11.1156
12.8123
14.9469
17.6049
20.8963
25.0004
30.0681
36.5292
44.5056
54.3935
66.9794
82.115
100.823
127.557
158.41
207.925
248.513
327.047
319.831
8.67356
8.96762
9.80757
11.1151
12.8115
14.9456
17.603
20.8933
24.9956
30.0636
36.5515
44.5191
54.3717
66.8864
81.968
100.602
127.209
157.793
206.77
246.18
323.484
309.678
8.67331
8.96734
9.8072
11.1146
12.8106
14.9444
17.6011
20.8901
24.9907
30.0601
36.5717
44.5243
54.3395
66.7936
81.8268
100.386
126.858
157.156
205.575
243.802
319.769
298.88
8.67305
8.96705
9.80682
11.114
12.8098
14.9431
17.5991
20.8868
24.9855
30.0581
36.589
44.5222
54.3029
66.6987
81.6898
100.173
126.5
156.501
204.339
241.379
315.891
287.398
8.67279
8.96676
9.80643
11.1134
12.8089
14.9417
17.5971
20.8834
24.9803
30.0578
36.6031
44.5135
54.2599
66.6063
81.5562
99.9606
126.137
155.83
203.064
238.91
311.838
275.194
8.67252
8.96645
9.80603
11.1128
12.808
14.9404
17.595
20.8799
24.9748
30.0596
36.614
44.4994
54.2156
66.5132
81.4244
99.747
125.766
155.144
201.749
236.398
307.599
262.226
8.67224
8.96613
9.80562
11.1122
12.8071
14.939
17.5928
20.8763
24.9693
30.0643
36.622
44.4807
54.1675
66.4231
81.2939
99.5322
125.39
154.443
200.396
233.844
303.161
248.45
8.67195
8.96581
9.80519
11.1115
12.8061
14.9375
17.5906
20.8726
24.964
30.0733
36.6275
44.4586
54.12
66.3322
81.1637
99.3145
125.006
153.728
199.006
231.253
298.516
233.821
8.67166
8.96548
9.80476
11.1109
12.8051
14.936
17.5883
20.8688
24.96
30.0873
36.6309
44.4338
54.07
66.2443
81.0336
99.0949
124.617
153.001
197.58
228.631
293.654
218.288
8.67136
8.96514
9.80431
11.1102
12.8041
14.9345
17.586
20.8649
24.9599
30.1067
36.6325
44.4072
54.0214
66.1557
80.903
98.8721
124.222
152.262
196.122
225.983
288.572
201.801
8.67105
8.96479
9.80385
11.1095
12.8031
14.9329
17.5836
20.8608
24.9679
30.1314
36.6324
44.3792
53.9707
66.0702
80.7721
98.6476
123.823
151.512
194.635
223.313
283.267
184.304
8.67073
8.96443
9.80338
11.1088
12.802
14.9313
17.5811
20.8569
24.9879
30.1609
36.6307
44.3506
53.9219
65.9841
80.6404
98.4202
123.418
150.751
193.123
220.623
277.737
165.751
8.67041
8.96406
9.80289
11.1081
12.8009
14.9296
17.5786
20.8539
25.0224
30.1942
36.6272
44.3217
53.8705
65.9016
80.5084
98.1918
123.01
149.977
191.59
217.911
271.957
146.054
8.67008
8.96368
9.8024
11.1074
12.7998
14.9279
17.576
20.8553
25.0704
30.2297
36.6216
44.2933
53.8215
65.8183
80.3758
97.9617
122.598
149.188
190.044
215.165
265.846
124.472
-19.2855
-24.3448
-26.9123
-22.8588
-18.135
-15.2974
-13.2535
-11.7977
-10.6116
-9.86479
-10.3992
-11.047
-8.40914
-0.507122
8.45856
13.5714
13.7982
12.6346
13.075
14.3453
13.8902
11.9339
10.3996
8.27135
6.42873
5.90099
5.30862
4.34257
-2.60004
-3.08007
7.85941
5.47014
4.01361
1.92735
0.823572
-19.2923
-24.3353
-26.9378
-22.8584
-18.1326
-15.2949
-13.2535
-11.7977
-10.6116
-9.86392
-10.3983
-11.0425
-8.40525
-0.504208
8.46479
13.5844
13.8138
12.6462
13.0803
14.3476
13.8926
11.9365
10.4023
8.27398
6.43117
5.90275
5.30974
4.35043
-2.59954
-3.12464
7.84701
5.47061
4.01397
1.92742
0.823575
-19.3029
-24.3338
-26.9813
-22.8587
-18.1297
-15.2914
-13.2532
-11.7975
-10.6111
-9.86235
-10.3963
-11.0396
-8.40159
-0.498919
8.47767
13.6094
13.8465
12.6769
13.1004
14.3575
13.8986
11.9419
10.4073
8.2784
6.4351
5.90575
5.31199
4.35902
-2.60418
-3.16523
7.83486
5.47122
4.01437
1.92749
0.823584
-19.3177
-24.3477
-27.0422
-22.8611
-18.1271
-15.2873
-13.2524
-11.797
-10.6104
-9.86048
-10.3944
-11.0379
-8.39786
-0.492691
8.49291
13.6395
13.8892
12.722
13.1345
14.3751
13.9084
11.95
10.4148
8.28506
6.44089
5.91036
5.31488
4.36893
-2.61349
-3.1879
7.82304
5.47189
4.01479
1.92758
0.823597
-19.3368
-24.3815
-27.1173
-22.8661
-18.1238
-15.2821
-13.2505
-11.7963
-10.6093
-9.85844
-10.3934
-11.0377
-8.39564
-0.487725
8.50617
13.6658
13.928
12.7657
13.1712
14.3956
13.9204
11.9603
10.4244
8.29372
6.44851
5.91656
5.31863
4.37988
-2.62328
-3.19168
7.81229
5.47264
4.01522
1.92768
0.823614
-19.3597
-24.4397
-27.203
-22.8727
-18.1185
-15.2754
-13.2472
-11.7952
-10.6079
-9.85643
-10.3935
-11.0391
-8.39525
-0.484304
8.51667
13.6862
13.9582
12.8009
13.2033
14.4158
13.9333
11.9717
10.4352
8.30391
6.45772
5.92421
5.32329
4.39166
-2.62938
-3.178
7.80278
5.4735
4.01566
1.9278
0.823633
-19.3859
-24.5257
-27.2959
-22.8804
-18.1109
-15.2671
-13.2424
-11.7939
-10.6061
-9.85462
-10.3945
-11.0417
-8.39636
-0.481639
8.52529
13.7016
13.9806
12.8274
13.2291
14.4339
13.9461
11.9831
10.4463
8.31487
6.46809
5.93311
5.32875
4.40421
-2.6289
-3.14812
7.79447
5.47447
4.0161
1.92792
0.823652
-19.4149
-24.6412
-27.3922
-22.8894
-18.1017
-15.2578
-13.2364
-11.7924
-10.604
-9.85321
-10.3966
-11.0453
-8.39832
-0.479016
8.53244
13.7127
13.9968
12.8471
13.2493
14.4497
13.9581
11.9937
10.4569
8.32573
6.47898
5.94289
5.33487
4.41746
-2.62056
-3.10293
7.78732
5.47554
4.01655
1.92805
0.823668
-19.4462
-24.7861
-27.4885
-22.9003
-18.0917
-15.2481
-13.2298
-11.791
-10.6019
-9.8523
-10.3995
-11.0498
-8.40085
-0.476389
8.53788
13.7197
14.0077
12.8615
13.2649
14.4628
13.9685
12.0027
10.4659
8.33554
6.48957
5.95303
5.34148
4.43132
-2.60426
-3.04339
7.78126
5.47671
4.01701
1.92816
0.823679
-19.4793
-24.9581
-27.5814
-22.9136
-18.0818
-15.239
-13.2231
-11.7899
-10.5999
-9.85198
-10.4032
-11.0551
-8.40373
-0.474054
8.54114
13.7224
14.0135
12.871
13.2762
14.4732
13.9769
12.0097
10.4728
8.3435
6.49898
5.96284
5.34834
4.44558
-2.58075
-2.97067
7.77633
5.47797
4.01746
1.92827
0.823683
-19.5136
-25.1527
-27.6681
-22.9295
-18.0727
-15.231
-13.2169
-11.7891
-10.5981
-9.85229
-10.4077
-11.061
-8.40696
-0.472423
8.54215
13.7215
14.0147
12.8756
13.2832
14.4801
13.9826
12.014
10.4771
8.34904
6.50649
5.97158
5.35513
4.46003
-2.55146
-2.88643
7.77258
5.47934
4.01791
1.92836
0.823677
-19.5486
-25.3638
-27.7468
-22.9478
-18.0649
-15.2246
-13.2117
-11.7888
-10.5969
-9.85329
-10.4127
-11.0673
-8.41033
-0.471685
8.54119
13.7177
14.0124
12.876
13.2859
14.4833
13.9851
12.0156
10.4787
8.35198
6.51166
5.97859
5.36145
4.4744
-2.51844
-2.79288
7.77022
5.48079
4.01834
1.92844
0.823659
-19.5837
-25.583
-27.8163
-22.9676
-18.059
-15.2203
-13.2081
-11.7893
-10.5963
-9.855
-10.4181
-11.0739
-8.4138
-0.471915
8.53888
13.7124
14.0077
12.8733
13.285
14.4827
13.9843
12.0145
10.4779
8.3525
6.51447
5.98351
5.36685
4.4885
-2.48418
-2.69311
7.76952
5.48233
4.01877
1.92848
0.823628
-19.6186
-25.801
-27.8763
-22.9879
-18.0555
-15.2182
-13.2063
-11.7908
-10.5965
-9.85753
-10.4239
-11.0802
-8.41718
-0.472973
8.53577
13.7064
14.0017
12.8687
13.2816
14.479
13.9805
12.0108
10.4749
8.35105
6.51523
5.98635
5.37095
4.50216
-2.45124
-2.59116
7.77096
5.48395
4.01919
1.9285
0.82358
-19.6527
-26.0077
-27.9271
-23.0071
-18.0543
-15.2186
-13.2066
-11.7933
-10.5977
-9.86096
-10.43
-11.0864
-8.42043
-0.474679
8.53233
13.7003
13.9952
12.8632
13.2768
14.4731
13.9742
12.005
10.4702
8.34816
6.51448
5.98744
5.37361
4.51536
-2.42167
-2.49218
7.77509
5.48564
4.01959
1.92849
0.823515
-19.6855
-26.1936
-27.9695
-23.0235
-18.0557
-15.2219
-13.2091
-11.7972
-10.6
-9.86542
-10.4365
-11.0923
-8.42332
-0.476715
8.52868
13.694
13.9882
12.8573
13.2714
14.4657
13.9659
11.9975
10.4642
8.34433
6.51281
5.98724
5.37498
4.52814
-2.39637
-2.40202
7.78253
5.4874
4.01996
1.92845
0.823432
-19.7164
-26.3507
-28.0042
-23.0348
-18.0598
-15.2282
-13.214
-11.8025
-10.6035
-9.87102
-10.4435
-11.0979
-8.42585
-0.478822
8.52486
13.6874
13.9807
12.8512
13.2659
14.4574
13.956
11.9885
10.457
8.33986
6.51067
5.98623
5.37541
4.54066
-2.37498
-2.32621
7.79364
5.48921
4.02032
1.92836
0.82333
-19.745
-26.4739
-28.033
-23.0394
-18.0673
-15.2377
-13.2215
-11.8096
-10.6085
-9.87791
-10.4512
-11.1034
-8.42781
-0.480712
8.52061
13.6796
13.9722
12.8448
13.2604
14.4484
13.9448
11.9782
10.4488
8.33491
6.50831
5.98471
5.37529
4.55315
-2.35633
-2.26823
7.80848
5.49108
4.02064
1.92824
0.823207
-19.7704
-26.5624
-28.0581
-23.0372
-18.078
-15.2506
-13.232
-11.8186
-10.615
-9.88622
-10.46
-11.1093
-8.42934
-0.482257
8.51583
13.6702
13.9622
12.8379
13.2548
14.4385
13.9321
11.9666
10.4397
8.32953
6.50582
5.98288
5.37492
4.5659
-2.33907
-2.22836
7.82652
5.493
4.02094
1.92808
0.823065
-19.7925
-26.6184
-28.0821
-23.0296
-18.0913
-15.2669
-13.2458
-11.8302
-10.6234
-9.89619
-10.4703
-11.1161
-8.43054
-0.483385
8.51023
13.6586
13.9503
12.8305
13.2489
14.4277
13.9181
11.9539
10.4297
8.32377
6.50323
5.98083
5.37449
4.57912
-2.3222
-2.20369
7.84695
5.49495
4.02119
1.92787
0.822902
-19.8115
-26.6469
-28.1061
-23.0186
-18.1066
-15.2871
-13.2634
-11.8449
-10.6341
-9.90809
-10.4829
-11.1248
-8.4321
-0.484312
8.50375
13.6445
13.9362
12.8222
13.2426
14.4159
13.9026
11.9399
10.4189
8.31765
6.5005
5.9786
5.37412
4.59298
-2.3052
-2.18973
7.86873
5.49695
4.02141
1.92762
0.822718
-19.8278
-26.6547
-28.1281
-23.0062
-18.1232
-15.3112
-13.2857
-11.8635
-10.6475
-9.9223
-10.4987
-11.1363
-8.43472
-0.485458
8.49598
13.6276
13.9199
12.8129
13.2358
14.403
13.8855
11.9249
10.4074
8.31123
6.49761
5.97619
5.37388
4.60749
-2.28792
-2.18186
7.89101
5.49898
4.02157
1.92733
0.822514
-19.8408
-26.648
-28.1442
-22.9934
-18.1404
-15.3397
-13.3132
-11.8869
-10.6643
-9.93923
-10.5184
-11.1522
-8.43989
-0.487711
8.48662
13.6078
13.9011
12.8026
13.2283
14.3889
13.867
11.9088
10.3953
8.30454
6.49455
5.97364
5.37381
4.62261
-2.27042
-2.17642
7.91316
5.50105
4.02169
1.927
0.82229
-19.8499
-26.6307
-28.1489
-22.981
-18.1576
-15.3729
-13.3469
-11.916
-10.6851
-9.95924
-10.543
-11.1735
-8.44885
-0.49223
8.47491
13.5847
13.8797
12.7911
13.2201
14.3737
13.8471
11.8917
10.3827
8.29764
6.49133
5.97095
5.37393
4.63818
-2.25287
-2.17072
7.93491
5.50315
4.02176
1.92662
0.822046
-19.8544
-26.6061
-28.133
-22.9686
-18.1745
-15.4113
-13.388
-11.9516
-10.7103
-9.98258
-10.5729
-11.2019
-8.46329
-0.500475
8.46013
13.5582
13.8559
12.7782
13.2111
14.3574
13.8258
11.8738
10.3696
8.29056
6.48797
5.96815
5.37424
4.65405
-2.2354
-2.16307
7.95618
5.50529
4.02176
1.9262
0.821784
-19.8536
-26.5782
-28.0856
-22.955
-18.1907
-15.4558
-13.4373
-11.9946
-10.7404
-10.0092
-10.6079
-11.2374
-8.48349
-0.513535
8.44118
13.5279
13.8294
12.764
13.2011
14.34
13.8034
11.8551
10.3561
8.28334
6.48451
5.96527
5.37473
4.66999
-2.2182
-2.15223
7.97713
5.50746
4.0217
1.92573
0.821502
-19.8468
-26.5513
-27.9982
-22.9377
-18.2058
-15.5067
-13.4956
-12.0449
-10.7751
-10.0385
-10.647
-11.2799
-8.50924
-0.531749
8.41734
13.4935
13.8002
12.7483
13.1899
14.3213
13.7799
11.8359
10.3424
8.27603
6.48098
5.96233
5.37537
4.68583
-2.2014
-2.13748
7.99794
5.50967
4.02157
1.92522
0.821202
-19.8342
-26.5308
-27.869
-22.9135
-18.2199
-15.5641
-13.5626
-12.1017
-10.8133
-10.0692
-10.6888
-11.3271
-8.53824
-0.554078
8.38812
13.4545
13.7682
12.731
13.1773
14.3012
13.7554
11.8162
10.3285
8.26867
6.47744
5.95938
5.37609
4.7013
-2.18517
-2.11815
8.01892
5.51193
4.02136
1.92466
0.820885
-19.8166
-26.5223
-27.7046
-22.8785
-18.233
-15.6267
-13.6361
-12.1624
-10.8526
-10.0995
-10.7307
-11.3772
-8.56813
-0.57861
8.35419
13.4108
13.7332
12.7119
13.163
14.2794
13.7298
11.796
10.3144
8.26129
6.47392
5.95642
5.37685
4.71619
-2.16968
-2.09393
8.04026
5.51425
4.02108
1.92406
0.820552
-19.796
-26.5319
-27.5164
-22.8292
-18.2454
-15.6925
-13.7122
-12.2229
-10.8899
-10.1267
-10.7702
-11.426
-8.59543
-0.603028
8.31666
13.3625
13.6952
12.6908
13.1467
14.2557
13.7031
11.7754
10.3001
8.25397
6.47048
5.95346
5.37755
4.73019
-2.15515
-2.06444
8.06226
5.51662
4.02072
1.92342
0.820203
-19.7747
-26.5665
-27.3169
-22.7633
-18.2582
-15.7578
-13.7849
-12.2774
-10.9209
-10.1478
-10.8046
-11.4705
-8.61804
-0.625667
8.27735
13.3104
13.6542
12.6677
13.1282
14.2296
13.6751
11.7544
10.2859
8.24673
6.46716
5.95053
5.37812
4.74307
-2.14183
-2.02962
8.08508
5.51908
4.02027
1.92273
0.81984
-19.7553
-26.6341
-27.1175
-22.6817
-18.2728
-15.8179
-13.847
-12.3198
-10.9412
-10.1603
-10.8315
-11.5064
-8.63366
-0.645344
8.23747
13.2554
13.6105
12.6425
13.1074
14.201
13.6458
11.7331
10.2716
8.23964
6.46401
5.94762
5.37843
4.75443
-2.13003
-1.98927
8.10897
5.5216
4.01973
1.922
0.819462
-19.7399
-26.7448
-26.9277
-22.5897
-18.2909
-15.8674
-13.8911
-12.3438
-10.9469
-10.1622
-10.849
-11.5316
-8.64205
-0.661677
8.19816
13.1988
13.5648
12.6155
13.0844
14.1698
13.615
11.7114
10.2573
8.23276
6.46108
5.94473
5.37843
4.76398
-2.12003
-1.94353
8.13403
5.52423
4.01911
1.92122
0.819072
-19.73
-26.9116
-26.756
-22.4981
-18.3146
-15.9012
-13.9112
-12.3451
-10.9357
-10.1528
-10.8558
-11.5436
-8.64275
-0.674278
8.15968
13.1411
13.5177
12.5871
13.0594
14.136
13.5828
11.6894
10.2431
8.22616
6.45843
5.94184
5.37795
4.77118
-2.1122
-1.8923
8.16046
5.52696
4.01839
1.92041
0.818668
-19.7261
-27.1506
-26.6087
-22.4217
-18.345
-15.9157
-13.904
-12.322
-10.9071
-10.1328
-10.8514
-11.5432
-8.63691
-0.6833
8.12232
13.0829
13.4696
12.5575
13.0328
14.0999
13.5491
11.6671
10.229
8.21989
6.45608
5.93896
5.37694
4.77566
-2.10685
-1.83586
8.18833
5.5298
4.01757
1.91954
0.818253
-19.7272
-27.481
-26.489
-22.3752
-18.3828
-15.9102
-13.8699
-12.2759
-10.8635
-10.1041
-10.8364
-11.532
-8.62485
-0.688715
8.08566
13.0241
13.4209
12.5271
13.0051
14.0619
13.5142
11.6445
10.2152
8.21403
6.4541
5.93607
5.37521
4.77671
-2.10434
-1.77418
8.21781
5.53276
4.01664
1.91863
0.817825
-19.7305
-27.9228
-26.3956
-22.3688
-18.4274
-15.8863
-13.8129
-12.2113
-10.8086
-10.0691
-10.8135
-11.5144
-8.60783
-0.691133
8.04948
12.9646
13.3715
12.4961
12.9763
14.0224
13.4784
11.6218
10.2017
8.20864
6.45252
5.93314
5.3727
4.77387
-2.10492
-1.70759
8.24895
5.53586
4.01561
1.91768
0.817386
-19.7321
-28.4909
-26.3234
-22.4063
-18.4775
-15.8484
-13.7396
-12.1347
-10.7477
-10.0307
-10.7872
-11.4935
-8.58589
-0.690944
8.0128
12.9034
13.3211
12.4646
12.9471
13.982
13.442
11.5991
10.1886
8.20378
6.45138
5.93016
5.36919
4.76619
-2.10893
-1.63602
8.28192
5.5391
4.01445
1.91667
0.816931
-19.7278
-29.1825
-26.264
-22.4851
-18.5309
-15.8013
-13.6573
-12.0528
-10.6853
-9.9931
-10.7631
-11.4718
-8.55991
-0.689269
7.97471
12.84
13.2695
12.4325
12.9174
13.941
13.4055
11.5767
10.1759
8.19947
6.45068
5.92709
5.36463
4.75303
-2.11658
-1.55965
8.3168
5.54249
4.01317
1.9156
0.816464
-19.7141
-29.9566
-26.208
-22.5981
-18.5853
-15.7499
-13.573
-11.9718
-10.6265
-9.96193
-10.7449
-11.4491
-8.52987
-0.687307
7.9334
12.7731
13.2165
12.4006
12.8878
13.8997
13.369
11.5546
10.1637
8.1957
6.45046
5.92395
5.35878
4.73314
-2.12804
-1.47816
8.35376
5.54602
4.01174
1.91447
0.815979
-19.6831
-30.7151
-26.1457
-22.736
-18.6382
-15.6978
-13.4915
-11.8962
-10.577
-9.94202
-10.7328
-11.4254
-8.49753
-0.687466
7.88748
12.7032
13.1634
12.3695
12.8582
13.8579
13.3325
11.5327
10.1518
8.19244
6.45077
5.92082
5.3516
4.70592
-2.14311
-1.39214
8.39249
5.54968
4.01019
1.91326
0.815477
-19.6155
-31.2953
-26.0679
-22.8876
-18.6859
-15.6471
-13.416
-11.8311
-10.5429
-9.93393
-10.7244
-11.4
-8.465
-0.69208
7.83636
12.632
13.1124
12.34
12.8278
13.8147
13.2953
11.5108
10.1403
8.18984
6.45193
5.91792
5.34302
4.67116
-2.16188
-1.30425
8.43212
5.55346
4.00851
1.91199
0.814952
-19.5152
-31.4927
-25.9661
-23.0412
-18.7238
-15.598
-13.3487
-11.7828
-10.5247
-9.93395
-10.7179
-11.3755
-8.43715
-0.702689
7.78351
12.5649
13.066
12.3107
12.7934
13.7678
13.2567
11.489
10.1297
8.1885
6.45444
5.91552
5.33322
4.62973
-2.18533
-1.21832
8.47226
5.55746
4.00674
1.91064
0.814404
-19.5778
-31.1458
-25.8329
-23.1896
-18.7524
-15.551
-13.2941
-11.754
-10.5184
-9.93924
-10.7139
-11.3549
-8.41558
-0.716085
7.73509
12.5059
13.023
12.2761
12.7499
13.7151
13.2176
11.4696
10.1223
8.19006
6.4588
5.91249
5.31887
4.56924
-2.21796
-1.1149
8.52355
5.56222
4.00442
1.90911
0.813833
8.66981
8.96338
9.80201
11.1068
12.7989
14.9266
17.5739
20.8685
25.1159
30.2568
36.6148
44.2721
53.7835
65.7548
80.2741
97.7849
122.278
148.562
188.839
212.991
260.798
102.78
8.66962
8.96316
9.80172
11.1064
12.7983
14.9256
17.5724
20.8895
25.1491
30.2731
36.6072
44.2575
53.761
65.705
80.2016
97.6581
122.046
148.102
187.966
211.411
256.942
99.8542
8.66941
8.96293
9.80141
11.1059
12.7976
14.9245
17.5707
20.9156
25.1774
30.2846
36.5976
44.2422
53.7359
65.657
80.1281
97.5286
121.806
147.623
187.071
209.771
252.927
101.537
8.66919
8.96268
9.80109
11.1054
12.7969
14.9234
17.569
20.9419
25.2005
30.2921
36.587
44.2264
53.7133
65.6058
80.0526
97.3933
121.556
147.125
186.152
208.063
248.799
101.428
8.66897
8.96242
9.80075
11.1049
12.7961
14.9222
17.5672
20.9648
25.2188
30.2965
36.5764
44.2104
53.6878
65.5569
79.9757
97.2533
121.295
146.606
185.204
206.287
244.548
99.636
8.66873
8.96215
9.80039
11.1044
12.7953
14.921
17.5653
20.9802
25.2327
30.2983
36.5661
44.1945
53.665
65.5047
79.8966
97.1065
121.02
146.065
184.22
204.444
240.169
97.5891
8.66847
8.96186
9.80001
11.1038
12.7945
14.9197
17.5633
20.9855
25.2424
30.298
36.5565
44.1787
53.6399
65.4543
79.8158
96.9538
120.73
145.501
183.196
202.537
235.666
95.6832
8.6682
8.96156
9.79961
11.1032
12.7936
14.9183
17.5612
20.9811
25.2482
30.296
36.5477
44.1634
53.6176
65.4008
79.7323
96.7935
120.424
144.912
182.126
200.565
231.045
93.7556
8.66792
8.96124
9.79919
11.1026
12.7926
14.9168
17.5589
20.9693
25.2502
30.2926
36.5398
44.1485
53.5933
65.3489
79.6468
96.6267
120.1
144.298
181.002
198.53
226.31
91.7081
8.66762
8.9609
9.79875
11.1019
12.7916
14.9153
17.5566
20.9526
25.2484
30.288
36.5328
44.1342
53.5716
65.2937
79.5581
96.4517
119.757
143.656
179.82
196.43
221.465
89.5649
8.66731
8.96054
9.79828
11.1012
12.7906
14.9136
17.5541
20.9324
25.2427
30.2822
36.5264
44.1203
53.5478
65.2399
79.4671
96.2697
119.394
142.985
178.574
194.264
216.516
87.3611
8.66698
8.96017
9.79778
11.1005
12.7895
14.9119
17.5514
20.9099
25.2327
30.2751
36.5206
44.107
53.5265
65.1827
79.3724
96.079
119.011
142.283
177.259
192.033
211.466
85.1075
8.66663
8.95977
9.79726
11.0997
12.7883
14.91
17.5486
20.8863
25.2179
30.2664
36.515
44.0942
53.5029
65.1265
79.2748
95.8807
118.608
141.55
175.871
189.734
206.322
82.8082
8.66625
8.95934
9.7967
11.0989
12.7871
14.9081
17.5457
20.8629
25.1978
30.2556
36.5092
44.0818
53.4814
65.0665
79.1729
95.6732
118.183
140.782
174.406
187.366
201.088
80.4719
8.66586
8.9589
9.79611
11.098
12.7857
14.906
17.5425
20.8408
25.1718
30.2422
36.5027
44.0696
53.4576
65.0069
79.0674
95.4573
117.737
139.979
172.862
184.928
195.769
78.1109
8.66544
8.95842
9.79549
11.0971
12.7844
14.9038
17.5392
20.821
25.1395
30.2253
36.4948
44.0577
53.4355
64.9431
78.9568
95.2312
117.27
139.139
171.237
182.418
190.37
75.7383
8.665
8.95792
9.79483
11.0961
12.7829
14.9014
17.5356
20.804
25.101
30.204
36.4847
44.0456
53.4108
64.8789
78.8416
94.9956
116.78
138.262
169.528
179.835
184.894
73.3681
8.66454
8.95739
9.79413
11.0951
12.7813
14.899
17.5319
20.79
25.057
30.1772
36.4711
44.0331
53.3876
64.8099
78.7204
94.7486
116.266
137.344
167.735
177.176
179.347
71.0142
8.66404
8.95683
9.79339
11.094
12.7797
14.8963
17.5279
20.7785
25.0089
30.1437
36.4526
44.0194
53.3616
64.7399
78.5935
94.4906
115.728
136.385
165.857
174.441
173.731
68.6893
8.66352
8.95624
9.79261
11.0929
12.7779
14.8936
17.5237
20.769
24.9588
30.1027
36.4273
44.0037
53.3368
64.6644
78.4593
94.2195
115.164
135.383
163.893
171.629
168.052
66.4038
8.66297
8.95561
9.79178
11.0916
12.7761
14.8906
17.5192
20.7606
24.9092
30.0538
36.393
43.9846
53.3087
64.5871
78.3182
93.9357
114.573
134.338
161.843
168.737
162.314
64.1647
8.66238
8.95494
9.79089
11.0903
12.7741
14.8875
17.5144
20.7528
24.8627
29.9974
36.3472
43.9599
53.2807
64.5038
78.1685
93.637
113.953
133.246
159.706
165.764
156.521
61.9749
8.66175
8.95423
9.78996
11.0889
12.772
14.8842
17.5093
20.745
24.8213
29.935
36.2877
43.9265
53.2477
64.4179
78.0105
93.3237
113.303
132.106
157.481
162.708
150.681
59.8323
8.66109
8.95347
9.78896
11.0875
12.7698
14.8807
17.5039
20.737
24.786
29.8691
36.2129
43.8804
53.2119
64.3251
77.8424
92.9935
112.621
130.916
155.168
159.569
144.8
57.7298
8.66038
8.95267
9.7879
11.0859
12.7674
14.8769
17.4981
20.7285
24.7566
29.8031
36.1229
43.8161
53.1659
64.2285
77.6645
92.6466
111.906
129.675
152.767
156.344
138.886
55.6556
8.65964
8.95182
9.78678
11.0843
12.7649
14.873
17.492
20.7194
24.7319
29.7398
36.0203
43.7281
53.1083
64.1228
77.4749
92.2807
111.155
128.38
150.276
153.032
132.949
53.5931
8.65884
8.95092
9.78558
11.0825
12.7622
14.8688
17.4855
20.7097
24.7103
29.6815
35.9095
43.6119
53.0276
64.0092
77.2735
91.896
110.368
127.03
147.696
149.631
126.999
51.5222
8.65799
8.94996
9.78431
11.0806
12.7594
14.8643
17.4786
20.6993
24.6904
29.6293
35.7966
43.4667
52.9164
63.8792
77.0577
91.4903
109.543
125.622
145.027
146.14
121.049
49.4208
8.6571
8.94894
9.78296
11.0786
12.7564
14.8596
17.4712
20.6883
24.671
29.5827
35.6873
43.2965
52.7602
63.7279
76.8255
91.0633
108.679
124.154
142.268
142.556
115.112
47.265
8.65614
8.94785
9.78152
11.0765
12.7532
14.8545
17.4634
20.6765
24.6514
29.5407
35.5858
43.1105
52.5527
63.5393
76.5704
90.6119
107.775
122.626
139.419
138.879
109.201
45.0318
8.65512
8.9467
9.77999
11.0743
12.7498
14.8492
17.4551
20.6639
24.631
29.5015
35.494
42.9207
52.2913
63.2998
76.2836
90.134
106.831
121.034
136.482
135.107
103.33
42.6993
8.65404
8.94547
9.77836
11.0719
12.7462
14.8435
17.4463
20.6504
24.6095
29.4635
35.4115
42.7381
51.9883
62.9906
75.9488
89.6228
105.843
119.379
133.458
131.241
97.5137
40.2487
8.65288
8.94416
9.77662
11.0693
12.7423
14.8374
17.4369
20.6361
24.5867
29.4251
35.3359
42.5698
51.6624
62.6057
75.5459
89.0695
104.811
117.658
130.347
127.281
91.7674
37.665
8.65165
8.94276
9.77477
11.0666
12.7382
14.831
17.4269
20.6209
24.5625
29.3855
35.2643
42.4175
51.3376
62.1499
75.0519
88.4577
103.728
115.87
127.152
123.228
86.1051
34.9379
8.65034
8.94127
9.77279
11.0637
12.7339
14.8241
17.4163
20.6047
24.5366
29.344
35.1937
42.2788
51.0312
61.648
74.4529
87.7677
102.588
114.013
123.874
119.085
80.5407
32.0627
8.64894
8.93969
9.77069
11.0606
12.7292
14.8168
17.405
20.5874
24.5091
29.3001
35.1216
42.1486
50.7519
61.132
73.7525
86.9764
101.376
112.087
120.517
114.855
75.0878
29.0406
8.64745
8.938
9.76844
11.0573
12.7242
14.8091
17.393
20.569
24.4798
29.2534
35.0466
42.0214
50.4977
60.6326
72.9782
86.0689
100.079
110.088
117.086
110.544
69.7591
25.8788
8.64586
8.9362
9.76604
11.0538
12.7189
14.8008
17.3802
20.5494
24.4486
29.2039
34.9676
41.8925
50.2606
60.1665
72.1725
85.0456
98.6773
108.015
113.588
106.16
64.5673
22.5907
8.64417
8.93427
9.76348
11.05
12.7133
14.792
17.3665
20.5284
24.4154
29.1512
34.884
41.7586
50.0304
59.7352
71.3776
83.9304
97.1626
105.867
110.034
101.714
59.5246
19.195
8.64235
8.93222
9.76075
11.046
12.7072
14.7826
17.352
20.5061
24.3801
29.0952
34.7953
41.6177
49.798
59.3276
70.6191
82.7629
95.5365
103.645
106.442
97.2179
54.6443
15.7155
8.64042
8.93003
9.75783
11.0417
12.7008
14.7725
17.3365
20.4824
24.3424
29.0357
34.701
41.4688
49.5569
58.9284
69.9001
81.5853
93.8181
101.357
102.837
92.6937
49.9408
12.1804
8.63835
8.92769
9.75471
11.0372
12.6939
14.7619
17.3199
20.457
24.3023
28.9723
34.6009
41.3109
49.3036
58.5229
69.2056
80.4247
92.0375
99.011
99.2474
88.1677
45.4307
8.62168
8.63614
8.92519
9.75138
11.0323
12.6865
14.7505
17.3023
20.43
24.2596
28.9049
34.4944
41.1435
49.0361
58.1012
68.5132
79.2865
90.226
96.62
95.709
83.6747
41.1332
5.07502
8.63378
8.92251
9.74782
11.0271
12.6787
14.7383
17.2835
20.4011
24.2141
28.8331
34.3813
40.9658
48.7533
57.6576
67.8024
78.1566
88.404
94.1911
92.2499
79.2558
37.0698
1.57908
8.63125
8.91966
9.74401
11.0215
12.6703
14.7253
17.2635
20.3703
24.1656
28.7567
34.261
40.7772
48.4542
57.1897
67.0594
77.0117
86.5766
91.7221
88.8829
74.9546
33.2629
-1.82503
8.62855
8.9166
9.73993
11.0155
12.6613
14.7114
17.2421
20.3374
24.114
28.6754
34.1332
40.577
48.1378
56.6964
66.2778
75.8294
84.7344
89.2036
85.5933
70.8078
29.7329
-5.09483
8.62566
8.91333
9.73557
11.0092
12.6518
14.6967
17.2193
20.3024
24.0589
28.5888
33.9973
40.3646
47.8029
56.1762
65.4559
74.5947
82.8576
86.6275
82.3378
66.8334
26.4936
-8.18842
8.62257
8.90984
9.73091
11.0023
12.6415
14.6808
17.1949
20.2649
24.0002
28.4967
33.8529
40.1393
47.4487
55.6277
64.5938
73.3016
80.9253
83.9909
79.0609
63.0176
23.5454
-11.0673
8.61926
8.9061
9.72592
10.995
12.6306
14.664
17.1689
20.225
23.9376
28.3986
33.6995
39.9003
47.0741
55.0497
63.6911
71.9503
78.9233
81.2911
75.721
59.3135
20.8679
-13.7001
8.61572
8.90209
9.72057
10.9872
12.6188
14.6459