/*--------------------------------*- C++ -*----------------------------------*\
| =========                 |                                                 |
| \\      /  F ield         | OpenFOAM: The Open Source CFD Toolbox           |
|  \\    /   O peration     | Version:  v1912                                 |
|   \\  /    A nd           | Website:  www.openfoam.com                      |
|    \\/     M anipulation  |                                                 |
\*---------------------------------------------------------------------------*/
FoamFile
{
    version     2.0;
    format      ascii;
    class       surfaceScalarField;
    location    "310";
    object      phi;
}
// * * * * * * * * * * * * * * * * * * * * * * * * * * * * * * * * * * * * * //

dimensions      [0 3 -1 0 0 0 0];
oriented        oriented;


internalField   nonuniform List<scalar> 
24588
(
6.81685e-05
1.95711e-08
6.81157e-05
5.36797e-08
6.80325e-05
8.26206e-08
6.79193e-05
1.13127e-07
6.77713e-05
1.47099e-07
6.75853e-05
1.86221e-07
6.73531e-05
2.31579e-07
6.7062e-05
2.91337e-07
6.66989e-05
3.62425e-07
6.62475e-05
4.51434e-07
6.56807e-05
5.6604e-07
6.49792e-05
6.76804e-07
6.41659e-05
8.95682e-07
6.29207e-05
1.1595e-06
6.14759e-05
1.47057e-06
5.91675e-05
2.30167e-06
5.62857e-05
2.8843e-06
5.1544e-05
4.74118e-06
4.48998e-05
6.64421e-06
3.37371e-05
1.1163e-05
2.00601e-05
1.3677e-05
2.00601e-05
6.81687e-05
3.96766e-08
6.81155e-05
1.08083e-07
6.80323e-05
1.65016e-07
6.79193e-05
2.25959e-07
6.77715e-05
2.93822e-07
6.75855e-05
3.72398e-07
6.73533e-05
4.62972e-07
6.70624e-05
5.82585e-07
6.66993e-05
7.24634e-07
6.62477e-05
9.03036e-07
6.56793e-05
1.13349e-06
6.49649e-05
1.36334e-06
6.41997e-05
1.75155e-06
6.29168e-05
2.35739e-06
6.14806e-05
2.93365e-06
5.92299e-05
4.54612e-06
5.63022e-05
5.81644e-06
5.15145e-05
9.52823e-06
4.49444e-05
1.32144e-05
3.364e-05
2.2468e-05
2.00199e-05
2.72971e-05
4.008e-05
6.81687e-05
5.97868e-08
6.81155e-05
1.62498e-07
6.80323e-05
2.47455e-07
6.79193e-05
3.38857e-07
6.77714e-05
4.4061e-07
6.75855e-05
5.58587e-07
6.73532e-05
6.94446e-07
6.70623e-05
8.73814e-07
6.66991e-05
1.08695e-06
6.62479e-05
1.3543e-06
6.56781e-05
1.7024e-06
6.49671e-05
2.0454e-06
6.41962e-05
2.61809e-06
6.2909e-05
3.54456e-06
6.1469e-05
4.40338e-06
5.92542e-05
6.75273e-06
5.62952e-05
8.78085e-06
5.15345e-05
1.42878e-05
4.49203e-05
1.98286e-05
3.36606e-05
3.37284e-05
2.00399e-05
4.09179e-05
6.01198e-05
6.81687e-05
7.98884e-08
6.81155e-05
2.16842e-07
6.80324e-05
3.2984e-07
6.79194e-05
4.51681e-07
6.77715e-05
5.87294e-07
6.75856e-05
7.44735e-07
6.73534e-05
9.25829e-07
6.70624e-05
1.16506e-06
6.66993e-05
1.44919e-06
6.62477e-05
1.80588e-06
6.56792e-05
2.27e-06
6.49647e-05
2.73196e-06
6.41961e-05
3.47609e-06
6.29172e-05
4.74189e-06
6.14738e-05
5.87247e-06
5.92805e-05
8.93992e-06
5.63225e-05
1.17437e-05
5.15511e-05
1.90585e-05
4.49098e-05
2.64701e-05
3.36893e-05
4.49495e-05
2.00736e-05
5.45336e-05
8.01933e-05
6.81687e-05
9.99877e-08
6.81155e-05
2.71186e-07
6.80323e-05
4.12268e-07
6.79193e-05
5.6459e-07
6.77715e-05
7.3406e-07
6.75855e-05
9.30895e-07
6.73532e-05
1.15731e-06
6.70623e-05
1.45628e-06
6.66992e-05
1.81151e-06
6.62479e-05
2.25716e-06
6.56781e-05
2.83893e-06
6.49682e-05
3.41335e-06
6.41938e-05
4.34688e-06
6.29103e-05
5.92537e-06
6.14653e-05
7.34751e-06
5.92839e-05
1.11133e-05
5.63449e-05
1.46882e-05
5.15524e-05
2.38497e-05
4.49283e-05
3.30942e-05
3.37352e-05
5.61433e-05
2.01221e-05
6.81468e-05
0.000100315
6.81687e-05
1.20082e-07
6.81156e-05
3.25465e-07
6.80324e-05
4.94627e-07
6.79194e-05
6.77393e-07
6.77716e-05
8.80676e-07
6.75857e-05
1.117e-06
6.73535e-05
1.38866e-06
6.70625e-05
1.74752e-06
6.66994e-05
2.17373e-06
6.62478e-05
2.70879e-06
6.56795e-05
3.40623e-06
6.49646e-05
4.10069e-06
6.4193e-05
5.20501e-06
6.29189e-05
7.12273e-06
6.14704e-05
8.8202e-06
5.92907e-05
1.32873e-05
5.63646e-05
1.7619e-05
5.15642e-05
2.86494e-05
4.49601e-05
3.96986e-05
3.38007e-05
6.73033e-05
2.01873e-05
8.17602e-05
0.000120503
6.81687e-05
1.40176e-07
6.81155e-05
3.79751e-07
6.80324e-05
5.7704e-07
6.79193e-05
7.90307e-07
6.77715e-05
1.02739e-06
6.75856e-05
1.30312e-06
6.73533e-05
1.62012e-06
6.70624e-05
2.03873e-06
6.66993e-05
2.53599e-06
6.62481e-05
3.1601e-06
6.56786e-05
3.97485e-06
6.49699e-05
4.78176e-06
6.41911e-05
6.07962e-06
6.2911e-05
8.30171e-06
6.1462e-05
1.03e-05
5.92809e-05
1.54605e-05
5.63779e-05
2.05266e-05
5.15833e-05
3.34426e-05
4.5007e-05
4.62749e-05
3.38926e-05
7.84183e-05
2.02719e-05
9.53809e-05
0.000140774
6.81687e-05
1.60265e-07
6.81156e-05
4.33972e-07
6.80324e-05
6.59375e-07
6.79195e-05
9.03084e-07
6.77717e-05
1.17393e-06
6.75858e-05
1.48918e-06
6.73536e-05
1.85143e-06
6.70627e-05
2.32995e-06
6.66996e-05
2.89815e-06
6.6248e-05
3.61178e-06
6.56801e-05
4.5417e-06
6.49644e-05
5.47025e-06
6.4189e-05
6.93696e-06
6.29199e-05
9.49971e-06
6.14604e-05
1.17834e-05
5.92752e-05
1.76413e-05
5.63981e-05
2.34073e-05
5.16278e-05
3.82126e-05
4.50839e-05
5.28191e-05
3.4021e-05
8.94817e-05
2.03796e-05
0.000109022
0.000161154
6.81687e-05
1.80353e-07
6.81156e-05
4.88203e-07
6.80324e-05
7.41775e-07
6.79194e-05
1.01599e-06
6.77716e-05
1.32059e-06
6.75857e-05
1.67526e-06
6.73535e-05
2.08286e-06
6.70626e-05
2.62112e-06
6.66995e-05
3.26033e-06
6.62483e-05
4.06312e-06
6.56792e-05
5.10989e-06
6.4972e-05
6.15096e-06
6.41873e-05
7.81829e-06
6.29071e-05
1.0681e-05
6.14314e-05
1.32851e-05
5.92732e-05
1.97939e-05
5.64018e-05
2.62809e-05
5.17205e-05
4.28928e-05
4.52078e-05
5.93316e-05
3.41962e-05
0.000100494
2.05144e-05
0.000122704
0.000181668
6.81687e-05
2.00435e-07
6.81156e-05
5.42369e-07
6.80325e-05
8.24095e-07
6.79195e-05
1.12874e-06
6.77718e-05
1.46705e-06
6.7586e-05
1.86127e-06
6.73538e-05
2.31412e-06
6.70629e-05
2.91232e-06
6.66999e-05
3.62239e-06
6.62481e-05
4.5149e-06
6.56811e-05
5.67592e-06
6.49631e-05
6.84219e-06
6.41737e-05
8.68181e-06
6.2902e-05
1.18894e-05
6.14095e-05
1.47952e-05
5.92975e-05
2.19045e-05
5.64049e-05
2.91753e-05
5.18619e-05
4.74359e-05
4.53816e-05
6.58123e-05
3.44218e-05
0.000111454
2.06794e-05
0.000136447
0.000202348
6.81687e-05
2.20516e-07
6.81156e-05
5.96551e-07
6.80324e-05
9.06494e-07
6.79194e-05
1.24165e-06
6.77717e-05
1.61365e-06
6.75858e-05
2.0473e-06
6.73536e-05
2.54553e-06
6.70627e-05
3.20347e-06
6.66998e-05
3.9844e-06
6.62483e-05
4.96645e-06
6.56808e-05
6.24264e-06
6.49716e-05
7.52664e-06
6.41713e-05
9.574e-06
6.2897e-05
1.30832e-05
6.13949e-05
1.63103e-05
5.93266e-05
2.39697e-05
5.64232e-05
3.20793e-05
5.20274e-05
5.18309e-05
4.55858e-05
7.22536e-05
3.46904e-05
0.000122349
2.08758e-05
0.000150261
0.000223223
6.81687e-05
2.4059e-07
6.81156e-05
6.50664e-07
6.80325e-05
9.8881e-07
6.79196e-05
1.35438e-06
6.77719e-05
1.76004e-06
6.75861e-05
2.23326e-06
6.73539e-05
2.77674e-06
6.7063e-05
3.49466e-06
6.67003e-05
4.34623e-06
6.62481e-05
5.41865e-06
6.56835e-05
6.80621e-06
6.4958e-05
8.2276e-06
6.41395e-05
1.04521e-05
6.29034e-05
1.42814e-05
6.13907e-05
1.78307e-05
5.9352e-05
2.60088e-05
5.64532e-05
3.49789e-05
5.21825e-05
5.6102e-05
4.57938e-05
7.86424e-05
3.49878e-05
0.000133156
2.11024e-05
0.000164147
0.000244326
6.81687e-05
2.6066e-07
6.81156e-05
7.04797e-07
6.80324e-05
1.07122e-06
6.79194e-05
1.46729e-06
6.77717e-05
1.90661e-06
6.75859e-05
2.41925e-06
6.73537e-05
3.00811e-06
6.70628e-05
3.78582e-06
6.67003e-05
4.7079e-06
6.62479e-05
5.8711e-06
6.56836e-05
7.36976e-06
6.49565e-05
8.93314e-06
6.41147e-05
1.13649e-05
6.29091e-05
1.54503e-05
6.13885e-05
1.9355e-05
5.937e-05
2.80257e-05
5.64843e-05
3.78645e-05
5.23077e-05
6.02781e-05
4.59881e-05
8.49618e-05
3.52989e-05
0.000143845
2.1356e-05
0.00017809
0.000265682
6.81687e-05
2.80722e-07
6.81156e-05
7.58857e-07
6.80325e-05
1.15354e-06
6.79196e-05
1.57998e-06
6.7772e-05
2.05293e-06
6.75862e-05
2.60516e-06
6.73541e-05
3.23926e-06
6.70631e-05
4.07704e-06
6.67008e-05
5.06934e-06
6.62474e-05
6.32445e-06
6.56845e-05
7.9318e-06
6.49385e-05
9.6599e-06
6.40814e-05
1.22501e-05
6.2911e-05
1.66118e-05
6.13873e-05
2.08812e-05
5.93815e-05
3.00324e-05
5.65104e-05
4.0736e-05
5.2403e-05
6.43859e-05
4.61621e-05
9.12029e-05
3.56128e-05
0.000154394
2.16325e-05
0.00019207
0.000287314
6.81687e-05
3.00781e-07
6.81156e-05
8.12941e-07
6.80325e-05
1.23597e-06
6.79194e-05
1.69289e-06
6.77718e-05
2.19945e-06
6.7586e-05
2.7911e-06
6.73539e-05
3.47059e-06
6.70629e-05
4.36824e-06
6.67009e-05
5.43047e-06
6.6247e-05
6.7785e-06
6.56834e-05
8.49464e-06
6.49327e-05
1.03954e-05
6.40674e-05
1.31468e-05
6.29108e-05
1.77538e-05
6.13864e-05
2.24064e-05
5.93884e-05
3.20293e-05
5.653e-05
4.35942e-05
5.24752e-05
6.84403e-05
4.63157e-05
9.73622e-05
3.59228e-05
0.000164787
2.19278e-05
0.000206065
0.000309242
6.81687e-05
3.20829e-07
6.81157e-05
8.66948e-07
6.80325e-05
1.31831e-06
6.79196e-05
1.80557e-06
6.7772e-05
2.34571e-06
6.75863e-05
2.97696e-06
6.73543e-05
3.70168e-06
6.70633e-05
4.65948e-06
6.67014e-05
5.79142e-06
6.62468e-05
7.23312e-06
6.56796e-05
9.0611e-06
6.49341e-05
1.11294e-05
6.40585e-05
1.40267e-05
6.29105e-05
1.89022e-05
6.13859e-05
2.39321e-05
5.93924e-05
3.40236e-05
5.65442e-05
4.64427e-05
5.25315e-05
7.24533e-05
4.64514e-05
0.000103442
3.62256e-05
0.000175013
2.2238e-05
0.000220053
0.00033148
6.81687e-05
3.40874e-07
6.81156e-05
9.20984e-07
6.80325e-05
1.40076e-06
6.79195e-05
1.91848e-06
6.77718e-05
2.49221e-06
6.7586e-05
3.16287e-06
6.7354e-05
3.93298e-06
6.70631e-05
4.95067e-06
6.67015e-05
6.15217e-06
6.62468e-05
7.68787e-06
6.56716e-05
9.6357e-06
6.49441e-05
1.18506e-05
6.40545e-05
1.49304e-05
6.291e-05
2.00394e-05
6.13856e-05
2.54566e-05
5.93946e-05
3.60136e-05
5.65542e-05
4.92829e-05
5.2577e-05
7.64301e-05
4.65726e-05
0.000109447
3.65198e-05
0.000185066
2.25603e-05
0.000234012
0.00035404
6.81687e-05
3.60907e-07
6.81157e-05
9.74938e-07
6.80326e-05
1.48312e-06
6.79197e-05
2.03112e-06
6.77721e-05
2.63842e-06
6.75864e-05
3.34867e-06
6.73545e-05
4.16403e-06
6.70635e-05
5.24184e-06
6.67018e-05
6.51298e-06
6.62475e-05
8.1422e-06
6.56626e-05
1.02198e-05
6.49522e-05
1.25573e-05
6.4052e-05
1.58284e-05
6.29098e-05
2.11841e-05
6.13854e-05
2.69815e-05
5.93957e-05
3.8004e-05
5.65614e-05
5.21175e-05
5.26158e-05
8.0376e-05
4.66825e-05
0.00011538
3.68059e-05
0.000194943
2.28928e-05
0.000247925
0.000376933
6.81687e-05
3.80936e-07
6.81157e-05
1.02893e-06
6.80325e-05
1.56561e-06
6.79195e-05
2.14404e-06
6.77719e-05
2.78489e-06
6.75861e-05
3.53452e-06
6.73541e-05
4.39532e-06
6.70633e-05
5.53289e-06
6.67017e-05
6.87373e-06
6.62474e-05
8.59666e-06
6.56567e-05
1.081e-05
6.49563e-05
1.32563e-05
6.40509e-05
1.67418e-05
6.29096e-05
2.23203e-05
6.13855e-05
2.85055e-05
5.93963e-05
3.99924e-05
5.65669e-05
5.49467e-05
5.26507e-05
8.42918e-05
4.67844e-05
0.000121246
3.7085e-05
0.000204642
2.3234e-05
0.000261776
0.000400167
6.81687e-05
4.00953e-07
6.81157e-05
1.08283e-06
6.80326e-05
1.64798e-06
6.79197e-05
2.25666e-06
6.77722e-05
2.93104e-06
6.75865e-05
3.72026e-06
6.73546e-05
4.62633e-06
6.70638e-05
5.82393e-06
6.67021e-05
7.23454e-06
6.62443e-05
9.05444e-06
6.56559e-05
1.13979e-05
6.49573e-05
1.39538e-05
6.40503e-05
1.76452e-05
6.29097e-05
2.34637e-05
6.13859e-05
3.00298e-05
5.93967e-05
4.19822e-05
5.65717e-05
5.77719e-05
5.26839e-05
8.81798e-05
4.6881e-05
0.000127049
3.73588e-05
0.000214164
2.35835e-05
0.000275552
0.000423751
6.81687e-05
4.20965e-07
6.81157e-05
1.13677e-06
6.80325e-05
1.73051e-06
6.79195e-05
2.36957e-06
6.77719e-05
3.07749e-06
6.75862e-05
3.90606e-06
6.73543e-05
4.85759e-06
6.70636e-05
6.11489e-06
6.67022e-05
7.59504e-06
6.62366e-05
9.52025e-06
6.56597e-05
1.19746e-05
6.49573e-05
1.46559e-05
6.40503e-05
1.8558e-05
6.29099e-05
2.46001e-05
6.13865e-05
3.1553e-05
5.93974e-05
4.39707e-05
5.65766e-05
6.05925e-05
5.27171e-05
9.2039e-05
4.69746e-05
0.000132792
3.76293e-05
0.00022351
2.3941e-05
0.00028924
0.000447692
6.81687e-05
4.40965e-07
6.81157e-05
1.19062e-06
6.80326e-05
1.81291e-06
6.79198e-05
2.48217e-06
6.77723e-05
3.22359e-06
6.75867e-05
4.09175e-06
6.73548e-05
5.08854e-06
6.7064e-05
6.40592e-06
6.67029e-05
7.95525e-06
6.6228e-05
9.99516e-06
6.56643e-05
1.2538e-05
6.4957e-05
1.53627e-05
6.40506e-05
1.94608e-05
6.29104e-05
2.57431e-05
6.13876e-05
3.30762e-05
5.93987e-05
4.59602e-05
5.65824e-05
6.34089e-05
5.27515e-05
9.58703e-05
4.70671e-05
0.000138476
3.78985e-05
0.000232678
2.43071e-05
0.000302831
0.000471999
6.81687e-05
4.60961e-07
6.81157e-05
1.24451e-06
6.80325e-05
1.89547e-06
6.79195e-05
2.59508e-06
6.7772e-05
3.37001e-06
6.75863e-05
4.2775e-06
6.73545e-05
5.31973e-06
6.70637e-05
6.6969e-06
6.67032e-05
8.31497e-06
6.62217e-05
1.04769e-05
6.56673e-05
1.30923e-05
6.49568e-05
1.60732e-05
6.40511e-05
2.03713e-05
6.2911e-05
2.68796e-05
6.13891e-05
3.45979e-05
5.9401e-05
4.79477e-05
5.65897e-05
6.62199e-05
5.27877e-05
9.9672e-05
4.716e-05
0.000144104
3.81688e-05
0.00024167
2.46825e-05
0.000316318
0.000496681
6.81688e-05
4.80942e-07
6.81157e-05
1.2983e-06
6.80327e-05
1.97789e-06
6.79198e-05
2.70765e-06
6.77724e-05
3.51605e-06
6.75868e-05
4.46312e-06
6.73551e-05
5.5506e-06
6.70643e-05
6.98791e-06
6.67038e-05
8.67455e-06
6.62181e-05
1.09625e-05
6.56686e-05
1.36417e-05
6.49567e-05
1.67848e-05
6.40517e-05
2.12727e-05
6.2912e-05
2.8022e-05
6.13913e-05
3.6119e-05
5.94046e-05
4.9935e-05
5.6599e-05
6.90258e-05
5.28263e-05
0.000103445
4.72543e-05
0.000149676
3.84424e-05
0.000250481
2.50681e-05
0.000329692
0.000521749
6.81687e-05
5.0092e-07
6.81157e-05
1.35215e-06
6.80325e-05
2.06048e-06
6.79196e-05
2.82056e-06
6.77721e-05
3.66246e-06
6.75864e-05
4.64882e-06
6.73547e-05
5.78175e-06
6.70641e-05
7.27875e-06
6.67038e-05
9.03399e-06
6.62162e-05
1.14504e-05
6.56691e-05
1.41889e-05
6.49568e-05
1.74972e-05
6.40525e-05
2.21812e-05
6.29133e-05
2.9158e-05
6.13941e-05
3.76379e-05
5.94099e-05
5.19186e-05
5.66105e-05
7.1825e-05
5.28674e-05
0.000107188
4.73508e-05
0.000155192
3.87216e-05
0.000259111
2.54654e-05
0.000342948
0.000547215
6.81688e-05
5.20883e-07
6.81158e-05
1.40589e-06
6.80327e-05
2.14293e-06
6.79199e-05
2.93309e-06
6.77725e-05
3.80845e-06
6.7587e-05
4.83436e-06
6.73553e-05
6.01261e-06
6.70647e-05
7.56949e-06
6.67028e-05
9.39511e-06
6.62162e-05
1.19369e-05
6.56693e-05
1.47358e-05
6.4957e-05
1.82092e-05
6.40535e-05
2.30813e-05
6.29149e-05
3.02992e-05
6.13978e-05
3.91554e-05
5.94169e-05
5.39e-05
5.66245e-05
7.46176e-05
5.29111e-05
0.000110901
4.74501e-05
0.000160653
3.90085e-05
0.000267552
2.58756e-05
0.000356081
0.00057309
6.81688e-05
5.40843e-07
6.81157e-05
1.45969e-06
6.80326e-05
2.22556e-06
6.79196e-05
3.046e-06
6.77721e-05
3.95484e-06
6.75866e-05
5.01997e-06
6.73548e-05
6.24378e-06
6.70647e-05
7.85988e-06
6.66975e-05
9.76157e-06
6.62196e-05
1.24149e-05
6.56694e-05
1.5286e-05
6.49574e-05
1.89213e-05
6.40546e-05
2.3988e-05
6.29169e-05
3.14338e-05
6.14023e-05
4.06697e-05
5.94258e-05
5.58759e-05
5.6641e-05
7.74022e-05
5.29573e-05
0.000114585
4.75525e-05
0.000166058
3.93051e-05
0.0002758
2.63005e-05
0.000369086
0.000599391
6.81688e-05
5.60788e-07
6.81158e-05
1.51338e-06
6.80327e-05
2.30803e-06
6.79199e-05
3.1585e-06
6.77726e-05
4.10078e-06
6.75871e-05
5.20542e-06
6.73554e-05
6.47468e-06
6.70655e-05
8.15002e-06
6.66902e-05
1.01361e-05
6.6225e-05
1.28801e-05
6.56696e-05
1.58414e-05
6.49579e-05
1.96328e-05
6.40559e-05
2.48868e-05
6.29193e-05
3.25729e-05
6.14077e-05
4.21816e-05
5.94365e-05
5.78477e-05
5.66602e-05
8.01787e-05
5.30059e-05
0.000118239
4.76581e-05
0.000171406
3.96132e-05
0.000283845
2.67415e-05
0.000381957
0.000626132
6.81688e-05
5.8073e-07
6.81157e-05
1.56713e-06
6.80326e-05
2.39069e-06
6.79196e-05
3.2714e-06
6.77722e-05
4.24716e-06
6.75867e-05
5.39093e-06
6.7355e-05
6.70592e-06
6.70654e-05
8.43978e-06
6.66843e-05
1.05165e-05
6.62292e-05
1.33353e-05
6.56699e-05
1.64008e-05
6.49585e-05
2.03442e-05
6.40573e-05
2.57916e-05
6.29221e-05
3.37051e-05
6.1414e-05
4.36894e-05
5.94488e-05
5.98123e-05
5.66818e-05
8.29455e-05
5.3057e-05
0.000121864
4.77669e-05
0.000176696
3.99341e-05
0.000291677
2.72001e-05
0.000394691
0.000653332
6.81688e-05
6.00656e-07
6.81158e-05
1.62077e-06
6.80328e-05
2.47318e-06
6.792e-05
3.38386e-06
6.77727e-05
4.39305e-06
6.75873e-05
5.57627e-06
6.73556e-05
6.93683e-06
6.70662e-05
8.72938e-06
6.66808e-05
1.09012e-05
6.62321e-05
1.3784e-05
6.56703e-05
1.69625e-05
6.49592e-05
2.10551e-05
6.40589e-05
2.66888e-05
6.29253e-05
3.48412e-05
6.14211e-05
4.51939e-05
5.94627e-05
6.17713e-05
5.67061e-05
8.57024e-05
5.31106e-05
0.00012546
4.78787e-05
0.000181928
4.02686e-05
0.000299288
2.76775e-05
0.000407282
0.00068101
6.81688e-05
6.20582e-07
6.81158e-05
1.67448e-06
6.80326e-05
2.55588e-06
6.79197e-05
3.49675e-06
6.77723e-05
4.5394e-06
6.75869e-05
5.76171e-06
6.73552e-05
7.16804e-06
6.7066e-05
9.01875e-06
6.66785e-05
1.1288e-05
6.62342e-05
1.42285e-05
6.56708e-05
1.7526e-05
6.496e-05
2.1766e-05
6.40606e-05
2.75917e-05
6.29289e-05
3.59699e-05
6.1429e-05
4.66935e-05
5.94782e-05
6.37214e-05
5.67329e-05
8.84475e-05
5.31668e-05
0.000129025
4.79935e-05
0.000187101
4.06171e-05
0.000306664
2.81745e-05
0.000419725
0.000709184
6.81688e-05
6.4049e-07
6.81158e-05
1.72807e-06
6.80328e-05
2.63839e-06
6.792e-05
3.60918e-06
6.77728e-05
4.68523e-06
6.75875e-05
5.94696e-06
6.73559e-05
7.39886e-06
6.70667e-05
9.30816e-06
6.66776e-05
1.16764e-05
6.62359e-05
1.46701e-05
6.56714e-05
1.80905e-05
6.49609e-05
2.24762e-05
6.40625e-05
2.84871e-05
6.29329e-05
3.71021e-05
6.14376e-05
4.81892e-05
5.9495e-05
6.56646e-05
5.67622e-05
9.11805e-05
5.32256e-05
0.000132562
4.8111e-05
0.000192216
4.09795e-05
0.000313795
2.86918e-05
0.000432013
0.000737876
6.81688e-05
6.60399e-07
6.81158e-05
1.78173e-06
6.80326e-05
2.72111e-06
6.79197e-05
3.72206e-06
6.77724e-05
4.83155e-06
6.7587e-05
6.13234e-06
6.73555e-05
7.62993e-06
6.70664e-05
9.5975e-06
6.6677e-05
1.20652e-05
6.62375e-05
1.51098e-05
6.5672e-05
1.8656e-05
6.49619e-05
2.31864e-05
6.40646e-05
2.93879e-05
6.29372e-05
3.82263e-05
6.14468e-05
4.96793e-05
5.95132e-05
6.75975e-05
5.67941e-05
9.38993e-05
5.32872e-05
0.000136069
4.82311e-05
0.000197272
4.13555e-05
0.000320671
2.92298e-05
0.000444139
0.000767106
6.81688e-05
6.8029e-07
6.81158e-05
1.83528e-06
6.80328e-05
2.80363e-06
6.79201e-05
3.83444e-06
6.77729e-05
4.97731e-06
6.75877e-05
6.31753e-06
6.73563e-05
7.86053e-06
6.70669e-05
9.88709e-06
6.66771e-05
1.24545e-05
6.62389e-05
1.55479e-05
6.56728e-05
1.92221e-05
6.4963e-05
2.38959e-05
6.40668e-05
3.02811e-05
6.29419e-05
3.93539e-05
6.14567e-05
5.11649e-05
5.95326e-05
6.95222e-05
5.68286e-05
9.66036e-05
5.33516e-05
0.000139546
4.83541e-05
0.000202269
4.17447e-05
0.00032728
2.97886e-05
0.000456095
0.000796894
6.81688e-05
7.00184e-07
6.81158e-05
1.8889e-06
6.80327e-05
2.88637e-06
6.79197e-05
3.94731e-06
6.77725e-05
5.12359e-06
6.75872e-05
6.50287e-06
6.7356e-05
8.09134e-06
6.70665e-05
1.01768e-05
6.6677e-05
1.28433e-05
6.62403e-05
1.59848e-05
6.56736e-05
1.97889e-05
6.49642e-05
2.46054e-05
6.40692e-05
3.11795e-05
6.29468e-05
4.0473e-05
6.14671e-05
5.26443e-05
5.95533e-05
7.14353e-05
5.68656e-05
9.92911e-05
5.34192e-05
0.000142992
4.84799e-05
0.000207209
4.21466e-05
0.000333614
3.03682e-05
0.000467873
0.000827263
6.81688e-05
7.20061e-07
6.81159e-05
1.9424e-06
6.80329e-05
2.96891e-06
6.79202e-05
4.05965e-06
6.77731e-05
5.26927e-06
6.75878e-05
6.68803e-06
6.73568e-05
8.32159e-06
6.70667e-05
1.04671e-05
6.66777e-05
1.32318e-05
6.62417e-05
1.64208e-05
6.56745e-05
2.0356e-05
6.49655e-05
2.53142e-05
6.40717e-05
3.20703e-05
6.29521e-05
4.15953e-05
6.14781e-05
5.41188e-05
5.95752e-05
7.33388e-05
5.69052e-05
0.000101961
5.349e-05
0.000146408
4.86091e-05
0.00021209
4.25611e-05
0.000339662
3.09689e-05
0.000479465
0.000858232
6.81688e-05
7.39942e-07
6.81158e-05
1.99598e-06
6.80327e-05
3.05167e-06
6.79198e-05
4.1725e-06
6.77726e-05
5.41548e-06
6.75873e-05
6.87335e-06
6.73565e-05
8.55199e-06
6.70634e-05
1.07604e-05
6.66801e-05
1.36147e-05
6.6243e-05
1.6858e-05
6.56754e-05
2.09236e-05
6.49669e-05
2.60228e-05
6.40744e-05
3.29661e-05
6.29576e-05
4.27087e-05
6.14895e-05
5.55864e-05
5.95982e-05
7.52294e-05
5.69472e-05
0.000104612
5.35642e-05
0.00014979
4.8742e-05
0.000216912
4.29885e-05
0.000345415
3.1591e-05
0.000490863
0.000889823
6.81688e-05
7.59804e-07
6.81159e-05
2.04944e-06
6.80329e-05
3.1342e-06
6.79202e-05
4.2848e-06
6.77732e-05
5.56104e-06
6.7588e-05
7.05847e-06
6.73574e-05
8.78186e-06
6.70547e-05
1.10632e-05
6.6689e-05
1.39803e-05
6.62442e-05
1.73028e-05
6.56764e-05
2.14914e-05
6.49684e-05
2.67307e-05
6.40772e-05
3.38543e-05
6.29634e-05
4.38252e-05
6.15015e-05
5.70488e-05
5.96223e-05
7.71094e-05
5.69917e-05
0.000107243
5.36421e-05
0.00015314
4.8879e-05
0.000221675
4.3429e-05
0.000350865
3.2235e-05
0.000502057
0.000922058
6.81688e-05
7.79671e-07
6.81158e-05
2.10298e-06
6.80327e-05
3.21697e-06
6.79198e-05
4.39765e-06
6.77727e-05
5.7072e-06
6.75875e-05
7.24371e-06
6.73569e-05
9.01211e-06
6.7048e-05
1.13723e-05
6.66959e-05
1.43324e-05
6.62454e-05
1.77533e-05
6.56775e-05
2.20594e-05
6.49699e-05
2.74383e-05
6.40801e-05
3.47474e-05
6.29695e-05
4.49325e-05
6.1514e-05
5.85038e-05
5.96475e-05
7.89751e-05
5.70385e-05
0.000109852
5.3724e-05
0.000156454
4.90205e-05
0.000226378
4.38831e-05
0.000356003
3.29016e-05
0.000513038
0.000954959
6.81688e-05
7.9952e-07
6.81159e-05
2.15639e-06
6.80329e-05
3.29951e-06
6.79203e-05
4.50989e-06
6.77734e-05
5.8527e-06
6.75883e-05
7.42868e-06
6.73577e-05
9.24204e-06
6.70463e-05
1.16839e-05
6.66985e-05
1.46801e-05
6.62465e-05
1.82052e-05
6.56785e-05
2.26273e-05
6.49715e-05
2.81451e-05
6.40832e-05
3.56325e-05
6.29758e-05
4.6043e-05
6.1527e-05
5.99533e-05
5.96738e-05
8.0829e-05
5.70876e-05
0.000112438
5.381e-05
0.000159732
4.91665e-05
0.000231022
4.43507e-05
0.000360819
3.35913e-05
0.000523798
0.00098855
6.81688e-05
8.19379e-07
6.81158e-05
2.20989e-06
6.80328e-05
3.38228e-06
6.792e-05
4.62267e-06
6.77729e-05
5.99879e-06
6.75879e-05
7.61365e-06
6.73558e-05
9.47383e-06
6.7046e-05
1.19938e-05
6.66995e-05
1.50266e-05
6.62474e-05
1.86574e-05
6.56796e-05
2.31952e-05
6.49732e-05
2.88516e-05
6.40864e-05
3.65233e-05
6.29823e-05
4.71433e-05
6.15404e-05
6.13945e-05
5.9701e-05
8.26675e-05
5.71387e-05
0.000115
5.39007e-05
0.00016297
4.93167e-05
0.000235606
4.48304e-05
0.000365305
3.43033e-05
0.000534325
0.00102285
6.81688e-05
8.39217e-07
6.81159e-05
2.26326e-06
6.8033e-05
3.46484e-06
6.79204e-05
4.7349e-06
6.77734e-05
6.14439e-06
6.75889e-05
7.798e-06
6.73469e-05
9.71518e-06
6.70517e-05
1.22891e-05
6.67e-05
1.53783e-05
6.62483e-05
1.9109e-05
6.56806e-05
2.37628e-05
6.49749e-05
2.95571e-05
6.40897e-05
3.74051e-05
6.2989e-05
4.82474e-05
6.15542e-05
6.283e-05
5.97292e-05
8.44933e-05
5.71919e-05
0.000117538
5.39963e-05
0.000166166
4.94708e-05
0.000240131
4.53177e-05
0.000369458
3.50347e-05
0.000544608
0.00105789
6.81688e-05
8.59057e-07
6.81159e-05
2.3167e-06
6.80328e-05
3.54764e-06
6.792e-05
4.84764e-06
6.77728e-05
6.29067e-06
6.75887e-05
7.98217e-06
6.73388e-05
9.96473e-06
6.70565e-05
1.25714e-05
6.67004e-05
1.57344e-05
6.6249e-05
1.95605e-05
6.56817e-05
2.43301e-05
6.49767e-05
3.02622e-05
6.40931e-05
3.82927e-05
6.29959e-05
4.93408e-05
6.15685e-05
6.42566e-05
5.97583e-05
8.63026e-05
5.72468e-05
0.000120049
5.40972e-05
0.000169315
4.96284e-05
0.0002446
4.58031e-05
0.000373283
3.57777e-05
0.000554633
0.00109367
6.81687e-05
8.78861e-07
6.81159e-05
2.37005e-06
6.8033e-05
3.63015e-06
6.79205e-05
4.95969e-06
6.77735e-05
6.43604e-06
6.75897e-05
8.16595e-06
6.7337e-05
1.02166e-05
6.70577e-05
1.28507e-05
6.67005e-05
1.60916e-05
6.62496e-05
2.00113e-05
6.56827e-05
2.4897e-05
6.49785e-05
3.09662e-05
6.40966e-05
3.91711e-05
6.3003e-05
5.04377e-05
6.15831e-05
6.56772e-05
5.97883e-05
8.80982e-05
5.73031e-05
0.000122535
5.42047e-05
0.000172414
4.97886e-05
0.000249016
4.62834e-05
0.000376788
3.66115e-05
0.000564305
0.00113028
-3.60779e-06
3.60783e-06
-7.15994e-06
3.55214e-06
-8.10348e-06
9.43536e-07
-6.57078e-06
-1.5327e-06
-4.75856e-06
-1.81182e-06
-3.66279e-06
-1.09611e-06
-3.17713e-06
-4.85912e-07
-3.05628e-06
-1.21539e-07
-2.94951e-06
-1.10272e-07
-2.92404e-06
-3.08926e-08
-2.98828e-06
1.73565e-08
-2.74939e-06
-1.95186e-07
-1.94117e-06
-8.02969e-07
-5.62991e-07
-1.36778e-06
1.47625e-06
-2.03496e-06
4.3238e-06
-2.84808e-06
8.02935e-06
-3.71058e-06
1.22898e-05
-4.26218e-06
1.65433e-05
-4.25856e-06
2.04161e-05
-3.86837e-06
2.3905e-05
-3.48492e-06
2.71048e-05
-3.20258e-06
3.0123e-05
-3.01836e-06
3.30606e-05
-2.93743e-06
3.60807e-05
-3.01933e-06
3.92088e-05
-3.12626e-06
4.16598e-05
-2.44783e-06
4.75427e-05
-5.8891e-06
5.89771e-05
-1.14398e-05
6.63324e-05
-7.35424e-06
6.72065e-05
-8.73477e-07
6.72429e-05
-3.67132e-08
6.73579e-05
-1.15062e-07
6.7492e-05
-1.34017e-07
-6.7396e-08
-3.53737e-06
7.14526e-06
-7.06985e-06
7.08461e-06
-8.01498e-06
1.88865e-06
-6.49697e-06
-3.0507e-06
-4.68863e-06
-3.61943e-06
-3.59529e-06
-2.1901e-06
-3.1046e-06
-9.77111e-07
-2.97954e-06
-2.47947e-07
-2.86802e-06
-2.28348e-07
-2.85387e-06
-5.55719e-08
-2.95659e-06
4.4217e-08
-2.78677e-06
-2.9483e-07
-2.05094e-06
-1.52823e-06
-6.42065e-07
-2.75562e-06
1.50424e-06
-4.17253e-06
4.41014e-06
-5.75506e-06
8.05259e-06
-7.36319e-06
1.2198e-05
-8.41125e-06
1.63808e-05
-8.45085e-06
2.02662e-05
-7.74525e-06
2.37988e-05
-7.00967e-06
2.7038e-05
-6.44709e-06
3.00761e-05
-6.05671e-06
3.30113e-05
-5.87244e-06
3.6006e-05
-6.01257e-06
3.91181e-05
-6.23485e-06
4.15657e-05
-4.88963e-06
4.70522e-05
-1.13874e-05
5.8395e-05
-2.27924e-05
6.62254e-05
-1.51827e-05
6.72154e-05
-1.86237e-06
6.72489e-05
-7.06486e-08
6.73595e-05
-2.25757e-07
6.7493e-05
-2.6741e-07
-1.34762e-07
-3.46141e-06
1.06067e-05
-6.96655e-06
1.05897e-05
-7.90015e-06
2.82225e-06
-6.37677e-06
-4.57409e-06
-4.57577e-06
-5.41972e-06
-3.48965e-06
-3.27685e-06
-3.00056e-06
-1.46663e-06
-2.87437e-06
-3.75338e-07
-2.76449e-06
-3.44316e-07
-2.77779e-06
-5.18594e-08
-2.93638e-06
1.24224e-07
-2.83945e-06
-3.16938e-07
-2.13835e-06
-2.21888e-06
-6.57045e-07
-4.21565e-06
1.60862e-06
-6.42914e-06
4.54936e-06
-8.69701e-06
8.10304e-06
-1.09277e-05
1.21238e-05
-1.24357e-05
1.62435e-05
-1.2581e-05
2.01464e-05
-1.16393e-05
2.37306e-05
-1.05862e-05
2.70105e-05
-9.7324e-06
3.00666e-05
-9.11312e-06
3.29993e-05
-8.80485e-06
3.59687e-05
-8.98035e-06
3.90614e-05
-9.32413e-06
4.15091e-05
-7.33141e-06
4.66437e-05
-1.65337e-05
5.78878e-05
-3.4046e-05
6.6124e-05
-2.34169e-05
6.72235e-05
-2.96084e-06
6.72548e-05
-1.02401e-07
6.73612e-05
-3.32183e-07
6.7494e-05
-4.00166e-07
-2.02039e-07
-3.37392e-06
1.39807e-05
-6.8476e-06
1.40634e-05
-7.75419e-06
3.72882e-06
-6.21156e-06
-6.11672e-06
-4.42166e-06
-7.20892e-06
-3.35214e-06
-4.34704e-06
-2.87142e-06
-1.94786e-06
-2.7481e-06
-5.00013e-07
-2.64407e-06
-4.54701e-07
-2.68823e-06
-1.82476e-08
-2.903e-06
2.70985e-07
-2.87363e-06
-2.81666e-07
-2.19368e-06
-2.88632e-06
-6.25125e-07
-5.75833e-06
1.7713e-06
-8.81422e-06
4.74986e-06
-1.16771e-05
8.20319e-06
-1.43951e-05
1.20832e-05
-1.63207e-05
1.61329e-05
-1.66426e-05
2.00572e-05
-1.55533e-05
2.36988e-05
-1.42189e-05
2.70227e-05
-1.30625e-05
3.00979e-05
-1.21887e-05
3.30278e-05
-1.17344e-05
3.59709e-05
-1.19219e-05
3.90396e-05
-1.23889e-05
4.14868e-05
-9.77261e-06
4.63234e-05
-2.13831e-05
5.74597e-05
-4.51916e-05
6.60276e-05
-3.19827e-05
6.72307e-05
-4.16278e-06
6.72608e-05
-1.33003e-07
6.7363e-05
-4.34525e-07
6.74952e-05
-5.32208e-07
-2.69178e-07
-3.27467e-06
1.72554e-05
-6.71155e-06
1.75003e-05
-7.57286e-06
4.59012e-06
-5.99892e-06
-7.69068e-06
-4.2266e-06
-8.98056e-06
-3.18369e-06
-5.3906e-06
-2.71809e-06
-2.41386e-06
-2.60053e-06
-6.18729e-07
-2.50559e-06
-5.55424e-07
-2.58179e-06
4.85025e-08
-2.85122e-06
4.75811e-07
-2.88379e-06
-1.85116e-07
-2.21072e-06
-3.54738e-06
-5.35523e-07
-7.40785e-06
2.01294e-06
-1.1351e-05
5.04023e-06
-1.47062e-05
8.37939e-06
-1.77506e-05
1.20925e-05
-2.00392e-05
1.60569e-05
-2.0621e-05
2.00041e-05
-1.94893e-05
2.37089e-05
-1.79145e-05
2.70811e-05
-1.64414e-05
3.01768e-05
-1.52848e-05
3.31029e-05
-1.46601e-05
3.60177e-05
-1.48349e-05
3.90561e-05
-1.54233e-05
4.15012e-05
-1.22114e-05
4.60859e-05
-2.59809e-05
5.71036e-05
-5.62182e-05
6.59359e-05
-4.08128e-05
6.72368e-05
-5.4628e-06
6.72667e-05
-1.63359e-07
6.73651e-05
-5.32948e-07
6.74964e-05
-6.63449e-07
-3.36122e-07
-3.16321e-06
2.04187e-05
-6.5564e-06
2.08935e-05
-7.35087e-06
5.38457e-06
-5.7349e-06
-9.30666e-06
-3.98941e-06
-1.07254e-05
-2.98357e-06
-6.39715e-06
-2.53964e-06
-2.8583e-06
-2.42983e-06
-7.29983e-07
-2.3465e-06
-6.4516e-07
-2.45451e-06
1.45428e-07
-2.77537e-06
7.39752e-07
-2.86293e-06
-4.18655e-08
-2.18197e-06
-4.21348e-06
-3.77768e-07
-9.18014e-06
2.35481e-06
-1.40689e-05
5.45452e-06
-1.78084e-05
8.66831e-06
-2.09867e-05
1.21801e-05
-2.35587e-05
1.60338e-05
-2.44918e-05
1.99998e-05
-2.34413e-05
2.37724e-05
-2.1676e-05
2.71981e-05
-1.98751e-05
3.0316e-05
-1.84032e-05
3.3236e-05
-1.75797e-05
3.61179e-05
-1.77149e-05
3.91174e-05
-1.84181e-05
4.15567e-05
-1.46438e-05
4.59239e-05
-3.03632e-05
5.6809e-05
-6.71122e-05
6.58484e-05
-4.985e-05
6.7242e-05
-6.85531e-06
6.72727e-05
-1.94585e-07
6.73673e-05
-6.27681e-07
6.74978e-05
-7.93812e-07
-4.0282e-07
-3.03896e-06
2.34577e-05
-6.3795e-06
2.4234e-05
-7.08137e-06
6.08643e-06
-5.41361e-06
-1.09744e-05
-3.70726e-06
-1.2431e-05
-2.74922e-06
-7.35588e-06
-2.33337e-06
-3.27454e-06
-2.23257e-06
-8.32032e-07
-2.16263e-06
-7.20961e-07
-2.30136e-06
2.73999e-07
-2.66905e-06
1.05612e-06
-2.80354e-06
1.45295e-07
-2.10018e-06
-4.90298e-06
-1.4185e-07
-1.11069e-05
2.81951e-06
-1.70156e-05
6.03354e-06
-2.10251e-05
9.11839e-06
-2.40972e-05
1.23864e-05
-2.68354e-05
1.60928e-05
-2.82189e-05
2.0065e-05
-2.73977e-05
2.39076e-05
-2.55068e-05
2.73929e-05
-2.33695e-05
3.05357e-05
-2.15464e-05
3.34457e-05
-2.04892e-05
3.62861e-05
-2.0553e-05
3.92334e-05
-2.13602e-05
4.16606e-05
-1.70635e-05
4.58333e-05
-3.45518e-05
5.65673e-05
-7.78553e-05
6.57649e-05
-5.90451e-05
6.72461e-05
-8.33555e-06
6.72786e-05
-2.27577e-07
6.73698e-05
-7.18918e-07
6.74993e-05
-9.23213e-07
-4.69212e-07
-2.90118e-06
2.63589e-05
-6.17748e-06
2.75103e-05
-6.75637e-06
6.66529e-06
-5.02845e-06
-1.27024e-05
-3.37681e-06
-1.4082e-05
-2.47699e-06
-8.25647e-06
-2.09532e-06
-3.65677e-06
-2.00404e-06
-9.24938e-07
-1.94838e-06
-7.83502e-07
-2.11585e-06
4.28968e-07
-2.52459e-06
1.4173e-06
-2.69701e-06
3.65269e-07
-1.95616e-06
-5.62589e-06
1.85561e-07
-1.32085e-05
3.43231e-06
-2.02437e-05
6.82406e-06
-2.44205e-05
9.79084e-06
-2.70993e-05
1.27659e-05
-2.9823e-05
1.62747e-05
-3.17532e-05
2.02306e-05
-3.13338e-05
2.4142e-05
-2.94032e-05
2.76946e-05
-2.69332e-05
3.08669e-05
-2.47195e-05
3.37617e-05