/*--------------------------------*- C++ -*----------------------------------*\
| =========                 |                                                 |
| \\      /  F ield         | OpenFOAM: The Open Source CFD Toolbox           |
|  \\    /   O peration     | Version:  v1912                                 |
|   \\  /    A nd           | Website:  www.openfoam.com                      |
|    \\/     M anipulation  |                                                 |
\*---------------------------------------------------------------------------*/
FoamFile
{
    version     2.0;
    format      ascii;
    class       volVectorField;
    location    "310";
    object      U;
}
// * * * * * * * * * * * * * * * * * * * * * * * * * * * * * * * * * * * * * //

dimensions      [0 1 -1 0 0 0 0];


internalField   nonuniform List<vector> 
12441
(
(29.9989 1.68103e-05 0)
(29.9856 5.09283e-05 0)
(29.9571 8.78371e-05 0)
(29.9135 0.00013523 0)
(29.8565 0.00019763 0)
(29.7834 0.000281318 0)
(29.6928 0.000392637 0)
(29.579 0.000555559 0)
(29.4376 0.000776588 0)
(29.2591 0.00108754 0)
(29.0442 0.00153026 0)
(28.7469 0.00206932 0)
(28.4603 0.00305143 0)
(27.9763 0.00445595 0)
(27.4114 0.00632841 0)
(26.6272 0.0111854 0)
(25.5952 0.0148759 0)
(23.9532 0.030997 0)
(21.6402 0.0522861 0)
(17.9871 0.0909325 0)
(12.2088 0.122651 0)
(5.86687 0.198245 0)
(29.9989 4.99827e-05 0)
(29.9855 0.000152307 0)
(29.957 0.000261838 0)
(29.9134 0.000403319 0)
(29.8565 0.000589675 0)
(29.7833 0.00083949 0)
(29.6929 0.00117388 0)
(29.579 0.00166059 0)
(29.4378 0.00232238 0)
(29.2591 0.00325424 0)
(29.0445 0.00459078 0)
(28.7418 0.00618235 0)
(28.4661 0.00904952 0)
(27.9823 0.0135033 0)
(27.4124 0.0189821 0)
(26.6313 0.0333224 0)
(25.5962 0.047173 0)
(23.9535 0.0889002 0)
(21.6401 0.136529 0)
(17.9848 0.263137 0)
(12.2093 0.360366 0)
(5.87018 0.592 0)
(29.9989 8.30593e-05 0)
(29.9855 0.000253811 0)
(29.957 0.000435197 0)
(29.9134 0.000670213 0)
(29.8565 0.000979993 0)
(29.7833 0.00139696 0)
(29.6929 0.00195308 0)
(29.579 0.00276376 0)
(29.4378 0.00386588 0)
(29.2591 0.00541694 0)
(29.0448 0.00765243 0)
(28.7408 0.0103425 0)
(28.4686 0.0149121 0)
(27.9787 0.022641 0)
(27.4097 0.0316454 0)
(26.6282 0.0546758 0)
(25.5946 0.0802512 0)
(23.9574 0.144958 0)
(21.6433 0.21828 0)
(17.9844 0.433009 0)
(12.2148 0.594607 0)
(5.8779 0.98377 0)
(29.9989 0.000116561 0)
(29.9855 0.000356009 0)
(29.957 0.000609345 0)
(29.9134 0.000938326 0)
(29.8565 0.00137201 0)
(29.7834 0.00195631 0)
(29.693 0.00273497 0)
(29.5791 0.00387009 0)
(29.4379 0.00541342 0)
(29.2592 0.00758542 0)
(29.0446 0.010722 0)
(28.7422 0.0145 0)
(28.4653 0.0207988 0)
(27.9828 0.0318093 0)
(27.4136 0.0443344 0)
(26.6325 0.0760941 0)
(25.5989 0.112562 0)
(23.963 0.204012 0)
(21.6521 0.324773 0)
(17.9889 0.610904 0)
(12.2268 0.832826 0)
(5.89043 1.37719 0)
(29.9989 0.000150119 0)
(29.9855 0.000458054 0)
(29.957 0.000783293 0)
(29.9134 0.00120623 0)
(29.8565 0.00176367 0)
(29.7834 0.0025151 0)
(29.6929 0.00351618 0)
(29.5791 0.00497561 0)
(29.4379 0.00696 0)
(29.2592 0.00975244 0)
(29.0449 0.0137904 0)
(28.7414 0.0186522 0)
(28.4688 0.0267028 0)
(27.9791 0.0409365 0)
(27.4116 0.0570446 0)
(26.6306 0.0972714 0)
(25.5996 0.144383 0)
(23.9671 0.263825 0)
(21.6632 0.414053 0)
(17.9994 0.784988 0)
(12.2466 1.07082 0)
(5.90805 1.7719 0)
(29.9989 0.000183669 0)
(29.9855 0.000560004 0)
(29.957 0.000957211 0)
(29.9134 0.00147413 0)
(29.8566 0.00215527 0)
(29.7834 0.00307389 0)
(29.6931 0.00429744 0)
(29.5792 0.00608129 0)
(29.438 0.00850663 0)
(29.2594 0.0119201 0)
(29.0447 0.0168572 0)
(28.7431 0.0228088 0)
(28.4642 0.0326007 0)
(27.9836 0.0500898 0)
(27.4154 0.0697561 0)
(26.6347 0.118341 0)
(25.6044 0.175932 0)
(23.9724 0.323076 0)
(21.6762 0.501776 0)
(18.0163 0.95777 0)
(12.2758 1.30851 0)
(5.93114 2.16771 0)
(29.9989 0.000217212 0)
(29.9855 0.000661898 0)
(29.957 0.00113112 0)
(29.9134 0.00174205 0)
(29.8565 0.00254681 0)
(29.7834 0.00363263 0)
(29.693 0.00507868 0)
(29.5792 0.00718691 0)
(29.438 0.0100532 0)
(29.2594 0.0140875 0)
(29.045 0.0199245 0)
(28.7423 0.0269621 0)
(28.4692 0.0385228 0)
(27.9789 0.0591682 0)
(27.4136 0.0824574 0)
(26.6331 0.13925 0)
(25.6063 0.206808 0)
(23.9763 0.379865 0)
(21.6931 0.591658 0)
(18.0426 1.13066 0)
(12.3166 1.54629 0)
(5.96017 2.56491 0)
(29.9989 0.00025075 0)
(29.9855 0.00076374 0)
(29.9571 0.00130501 0)
(29.9134 0.00200994 0)
(29.8566 0.00293823 0)
(29.7835 0.00419127 0)
(29.6931 0.00585982 0)
(29.5793 0.0082925 0)
(29.4381 0.0115996 0)
(29.2596 0.0162554 0)
(29.0448 0.0229889 0)
(28.7441 0.0311197 0)
(28.4629 0.0444265 0)
(27.9841 0.0682933 0)
(27.418 0.0950026 0)
(26.6375 0.159795 0)
(25.6134 0.23927 0)
(23.9825 0.438657 0)
(21.7213 0.682653 0)
(18.0839 1.30305 0)
(12.3719 1.78436 0)
(5.99571 2.96398 0)
(29.9989 0.000284282 0)
(29.9855 0.000865532 0)
(29.957 0.00147888 0)
(29.9134 0.00227781 0)
(29.8566 0.00332959 0)
(29.7835 0.00474987 0)
(29.6931 0.00664093 0)
(29.5793 0.00939803 0)
(29.4381 0.0131459 0)
(29.2596 0.0184229 0)
(29.0452 0.0260542 0)
(28.7433 0.0352775 0)
(28.4699 0.0503636 0)
(27.9796 0.0774392 0)
(27.4157 0.107608 0)
(26.6357 0.18074 0)
(25.6202 0.270213 0)
(23.9916 0.496918 0)
(21.7698 0.773344 0)
(18.1469 1.47458 0)
(12.4449 2.02296 0)
(6.03838 3.36542 0)
(29.9989 0.00031781 0)
(29.9855 0.000967272 0)
(29.9571 0.00165274 0)
(29.9135 0.00254566 0)
(29.8567 0.00372084 0)
(29.7836 0.00530837 0)
(29.6932 0.00742196 0)
(29.5794 0.0105035 0)
(29.4382 0.0146919 0)
(29.2598 0.020591 0)
(29.0449 0.0291152 0)
(28.7454 0.0394407 0)
(28.4605 0.0562788 0)
(27.9826 0.0864446 0)
(27.4195 0.120909 0)
(26.6372 0.202023 0)
(25.6311 0.301612 0)
(24.0107 0.553321 0)
(21.8403 0.863699 0)
(18.234 1.64545 0)
(12.5377 2.26244 0)
(6.08881 3.7698 0)
(29.9989 0.000351331 0)
(29.9855 0.00106897 0)
(29.9571 0.0018266 0)
(29.9134 0.0028135 0)
(29.8566 0.00411202 0)
(29.7835 0.00586683 0)
(29.6931 0.00820293 0)
(29.5794 0.011609 0)
(29.4382 0.0162376 0)
(29.2599 0.0227595 0)
(29.0452 0.0321748 0)
(28.7453 0.0436087 0)
(28.4681 0.0622722 0)
(27.984 0.0953833 0)
(27.4226 0.133496 0)
(26.638 0.222171 0)
(25.6445 0.334065 0)
(24.0419 0.609082 0)
(21.9209 0.9538 0)
(18.3394 1.81558 0)
(12.6508 2.50309 0)
(6.1476 4.17771 0)
(29.9989 0.000384845 0)
(29.9855 0.00117061 0)
(29.9571 0.00200046 0)
(29.9135 0.00308132 0)
(29.8567 0.00450311 0)
(29.7836 0.00642519 0)
(29.6933 0.00898384 0)
(29.5795 0.0127143 0)
(29.4384 0.017783 0)
(29.2602 0.0249279 0)
(29.0447 0.0352291 0)
(28.7484 0.0477892 0)
(28.4553 0.0681736 0)
(27.9856 0.104594 0)
(27.4254 0.146996 0)
(26.6391 0.242659 0)
(25.6573 0.366449 0)
(24.0774 0.663273 0)
(21.9967 1.04293 0)
(18.453 1.98446 0)
(12.7824 2.74501 0)
(6.21522 4.58978 0)
(29.9989 0.00041835 0)
(29.9855 0.00127221 0)
(29.9571 0.00217432 0)
(29.9135 0.00334913 0)
(29.8566 0.00489414 0)
(29.7836 0.00698351 0)
(29.6932 0.00976467 0)
(29.5795 0.0138198 0)
(29.4383 0.0193273 0)
(29.2603 0.0270999 0)
(29.0446 0.0382672 0)
(28.7499 0.0520687 0)
(28.4549 0.0740915 0)
(27.9824 0.113843 0)
(27.425 0.160732 0)
(26.6399 0.262792 0)
(25.6672 0.398381 0)
(24.1083 0.715632 0)
(22.0604 1.13074 0)
(18.5655 2.15154 0)
(12.9291 2.98807 0)
(6.29189 5.00657 0)
(29.9989 0.000451846 0)
(29.9856 0.00137376 0)
(29.9571 0.00234819 0)
(29.9135 0.00361691 0)
(29.8567 0.00528508 0)
(29.7837 0.00754173 0)
(29.6934 0.0105454 0)
(29.5797 0.0149253 0)
(29.4384 0.020871 0)
(29.2607 0.0292751 0)
(29.0439 0.0413115 0)
(28.7544 0.0564031 0)
(28.4387 0.0803466 0)
(27.9776 0.123158 0)
(27.424 0.174046 0)
(26.6408 0.282344 0)
(25.674 0.429806 0)
(24.1318 0.766528 0)
(22.1117 1.21725 0)
(18.6709 2.31647 0)
(13.087 3.23196 0)
(6.37759 5.42858 0)
(29.9989 0.000485331 0)
(29.9856 0.00147526 0)
(29.9571 0.00252208 0)
(29.9135 0.00388469 0)
(29.8566 0.00567597 0)
(29.7836 0.00809992 0)
(29.6933 0.0113261 0)
(29.5796 0.0160308 0)
(29.4384 0.0224137 0)
(29.2609 0.0314532 0)
(29.0434 0.0443524 0)
(28.7588 0.0606886 0)
(28.4314 0.0865848 0)
(27.9743 0.132143 0)
(27.423 0.187212 0)
(26.6414 0.301678 0)
(25.6782 0.460959 0)
(24.1488 0.816429 0)
(22.153 1.30258 0)
(18.767 2.47901 0)
(13.2522 3.47631 0)
(6.47206 5.85622 0)
(29.9989 0.000518806 0)
(29.9856 0.00157671 0)
(29.9571 0.00269599 0)
(29.9135 0.00415245 0)
(29.8568 0.00606678 0)
(29.7838 0.00865801 0)
(29.6935 0.0121066 0)
(29.5798 0.0171365 0)
(29.4385 0.0239545 0)
(29.2613 0.0336377 0)
(29.043 0.0473829 0)
(28.7637 0.0651184 0)
(28.4247 0.0927956 0)
(27.9729 0.140947 0)
(27.4223 0.200298 0)
(26.642 0.32096 0)
(25.6806 0.491978 0)
(24.1609 0.865679 0)
(22.1871 1.38684 0)
(18.8534 2.63903 0)
(13.4219 3.72071 0)
(6.57488 6.28982 0)
(29.9989 0.000552268 0)
(29.9856 0.00167812 0)
(29.9571 0.00286992 0)
(29.9135 0.0044202 0)
(29.8567 0.00645754 0)
(29.7837 0.00921605 0)
(29.6933 0.0128871 0)
(29.5797 0.0182422 0)
(29.4385 0.0254951 0)
(29.2614 0.0358203 0)
(29.0429 0.0504657 0)
(28.7677 0.0695995 0)
(28.4216 0.0989977 0)
(27.9723 0.14967 0)
(27.4217 0.213392 0)
(26.6425 0.340225 0)
(25.6817 0.52291 0)
(24.1695 0.914464 0)
(22.2162 1.4701 0)
(18.9312 2.79643 0)
(13.5938 3.9648 0)
(6.68557 6.72965 0)
(29.9989 0.000585718 0)
(29.9856 0.00177948 0)
(29.9571 0.00304388 0)
(29.9135 0.00468793 0)
(29.8568 0.00684825 0)
(29.7838 0.00977399 0)
(29.6935 0.0136676 0)
(29.5799 0.0193475 0)
(29.4387 0.0270357 0)
(29.2616 0.0379975 0)
(29.0434 0.0535672 0)
(28.7693 0.0740862 0)
(28.4194 0.10514 0)
(27.9722 0.158386 0)
(27.4212 0.226504 0)
(26.6429 0.359492 0)
(25.6821 0.553781 0)
(24.1759 0.96289 0)
(22.2422 1.55242 0)
(19.0017 2.95114 0)
(13.7665 4.20823 0)
(6.8036 7.17591 0)
(29.9989 0.000619154 0)
(29.9856 0.00188079 0)
(29.9571 0.00321787 0)
(29.9135 0.00495566 0)
(29.8567 0.0072389 0)
(29.7837 0.0103319 0)
(29.6934 0.014448 0)
(29.5798 0.0204528 0)
(29.4387 0.0285758 0)
(29.2616 0.0401839 0)
(29.044 0.0566583 0)
(28.769 0.0784382 0)
(28.4183 0.111313 0)
(27.9722 0.167093 0)
(27.4209 0.23963 0)
(26.6434 0.378758 0)
(25.682 0.584606 0)
(24.1809 1.01101 0)
(22.2665 1.63386 0)
(19.0664 3.10313 0)
(13.9396 4.45071 0)
(6.92849 7.6288 0)
(29.9989 0.000652578 0)
(29.9856 0.00198205 0)
(29.9571 0.00339188 0)
(29.9136 0.00522336 0)
(29.8568 0.0076295 0)
(29.7839 0.0108896 0)
(29.6936 0.0152284 0)
(29.58 0.0215578 0)
(29.4389 0.0301172 0)
(29.2618 0.042376 0)
(29.0443 0.0598109 0)
(28.768 0.0826948 0)
(28.4177 0.11747 0)
(27.9724 0.175821 0)
(27.4207 0.252763 0)
(26.6439 0.39803 0)
(25.6818 0.615395 0)
(24.1853 1.05886 0)
(22.2902 1.71444 0)
(19.1269 3.25239 0)
(14.1127 4.69199 0)
(7.05984 8.08847 0)
(29.9989 0.000685987 0)
(29.9856 0.00208327 0)
(29.9571 0.00356593 0)
(29.9135 0.00549106 0)
(29.8567 0.00802005 0)
(29.7838 0.0114473 0)
(29.6935 0.0160087 0)
(29.5799 0.0226623 0)
(29.4389 0.0316587 0)
(29.262 0.0445807 0)
(29.0441 0.0629761 0)
(28.7669 0.0869416 0)
(28.4174 0.123648 0)
(27.9726 0.184551 0)
(27.4206 0.265898 0)
(26.6446 0.417308 0)
(25.6817 0.646159 0)
(24.1897 1.10643 0)
(22.3139 1.79419 0)
(19.1844 3.3989 0)
(14.2864 4.93183 0)
(7.19731 8.55508 0)
(29.9989 0.000719383 0)
(29.9856 0.00218444 0)
(29.9571 0.00374001 0)
(29.9136 0.00575872 0)
(29.8569 0.00841055 0)
(29.784 0.0120049 0)
(29.6937 0.0167889 0)
(29.5802 0.0237672 0)
(29.439 0.0331966 0)
(29.2624 0.0468395 0)
(29.0433 0.0661048 0)
(28.7661 0.0911966 0)
(28.4173 0.12982 0)
(27.9729 0.193293 0)
(27.4206 0.279032 0)
(26.6455 0.436594 0)
(25.6819 0.676907 0)
(24.1944 1.1537 0)
(22.3384 1.87311 0)
(19.2401 3.54266 0)
(14.4611 5.17006 0)
(7.34068 9.0288 0)
(29.9989 0.000752763 0)
(29.9856 0.00228556 0)
(29.9571 0.00391412 0)
(29.9135 0.00602639 0)
(29.8567 0.00880099 0)
(29.7839 0.0125625 0)
(29.6935 0.017569 0)
(29.5801 0.0248719 0)
(29.439 0.0347331 0)
(29.2628 0.0491359 0)
(29.0424 0.0692157 0)
(28.7655 0.0954785 0)
(28.4174 0.136001 0)
(27.9733 0.202033 0)
(27.4208 0.292163 0)
(26.6466 0.455885 0)
(25.6828 0.707638 0)
(24.1998 1.20063 0)
(22.3639 1.95124 0)
(19.295 3.68367 0)
(14.6378 5.40653 0)
(7.48981 9.50979 0)
(29.9989 0.00078613 0)
(29.9856 0.00238663 0)
(29.9572 0.00408825 0)
(29.9136 0.00629403 0)
(29.8569 0.00919138 0)
(29.784 0.0131199 0)
(29.6938 0.018349 0)
(29.5804 0.0259768 0)
(29.4392 0.0362667 0)
(29.2631 0.0514569 0)
(29.0417 0.0722405 0)
(28.7651 0.0997781 0)
(28.4175 0.142176 0)
(27.9738 0.210777 0)
(27.4212 0.30529 0)
(26.648 0.475177 0)
(25.6845 0.73834 0)
(24.2061 1.24718 0)
(22.3905 2.02858 0)
(19.35 3.82192 0)
(14.8175 5.64109 0)
(7.64467 9.99825 0)
(29.9989 0.000819481 0)
(29.9856 0.00248766 0)
(29.9571 0.00426243 0)
(29.9135 0.00656166 0)
(29.8567 0.00958172 0)
(29.7839 0.0136773 0)
(29.6936 0.0191287 0)
(29.5802 0.0270818 0)
(29.4392 0.0377973 0)
(29.2631 0.0537579 0)
(29.0413 0.0752012 0)
(28.7648 0.104089 0)
(28.4178 0.148353 0)
(27.9742 0.219518 0)
(27.4218 0.31841 0)
(26.6498 0.494463 0)
(25.6872 0.76899 0)
(24.2133 1.29334 0)
(22.4183 2.10515 0)
(19.4056 3.95736 0)
(15.0014 5.87365 0)
(7.8053 10.4944 0)
(29.9989 0.000852817 0)
(29.9857 0.00258864 0)
(29.9572 0.00443663 0)
(29.9136 0.00682925 0)
(29.8569 0.00997203 0)
(29.7841 0.0142345 0)
(29.6939 0.0199087 0)
(29.5805 0.0281852 0)
(29.4396 0.039343 0)
(29.263 0.0560389 0)
(29.0411 0.0781345 0)
(28.7647 0.108406 0)
(28.418 0.154523 0)
(27.9748 0.228258 0)
(27.4226 0.331521 0)
(26.6521 0.513728 0)
(25.691 0.799558 0)
(24.2217 1.33912 0)
(22.4473 2.18095 0)
(19.4626 4.08994 0)
(15.1908 6.1041 0)
(7.97185 10.9985 0)
(29.9989 0.000886137 0)
(29.9857 0.00268958 0)
(29.9571 0.00461086 0)
(29.9136 0.00709684 0)
(29.8568 0.0103623 0)
(29.784 0.0147917 0)
(29.6937 0.0206887 0)
(29.5803 0.0292896 0)
(29.4397 0.0408966 0)
(29.2625 0.0584142 0)
(29.041 0.0810773 0)
(28.7646 0.112724 0)
(28.4184 0.16069 0)
(27.9755 0.236993 0)
(27.4237 0.344615 0)
(26.6549 0.532959 0)
(25.6959 0.83003 0)
(24.2312 1.38453 0)
(22.4773 2.25597 0)
(19.5211 4.21956 0)
(15.3868 6.33235 0)
(8.14454 11.5107 0)
(29.9989 0.000919443 0)
(29.9857 0.00279047 0)
(29.9572 0.00478512 0)
(29.9137 0.00736439 0)
(29.857 0.0107525 0)
(29.7842 0.0153487 0)
(29.694 0.0214684 0)
(29.5806 0.0303932 0)
(29.4402 0.0424607 0)
(29.2618 0.0607449 0)
(29.041 0.0840473 0)
(28.7646 0.117044 0)
(28.4187 0.166852 0)
(27.9762 0.245723 0)
(27.425 0.357687 0)
(26.6582 0.55214 0)
(25.7019 0.860398 0)
(24.2419 1.42958 0)
(22.5083 2.33022 0)
(19.5815 4.34611 0)
(15.5906 6.55833 0)
(8.32365 12.0315 0)
(29.9989 0.000952734 0)
(29.9857 0.00289131 0)
(29.9571 0.00495942 0)
(29.9136 0.00763192 0)
(29.8568 0.0111426 0)
(29.784 0.0159055 0)
(29.6938 0.0222486 0)
(29.5804 0.0314926 0)
(29.4404 0.0440781 0)
(29.2612 0.0629334 0)
(29.0411 0.087047 0)
(28.7647 0.121362 0)
(28.4191 0.173009 0)
(27.977 0.254445 0)
(27.4266 0.370731 0)
(26.6619 0.571261 0)
(25.7088 0.890662 0)
(24.2538 1.47427 0)
(22.5403 2.40367 0)
(19.6438 4.46945 0)
(15.8032 6.78195 0)
(8.50949 12.5611 0)
(29.9989 0.000986009 0)
(29.9857 0.00299211 0)
(29.9572 0.00513374 0)
(29.9137 0.00789942 0)
(29.857 0.0115328 0)
(29.7843 0.0164621 0)
(29.6941 0.0230289 0)
(29.5807 0.0325916 0)
(29.4408 0.0457167 0)
(29.2608 0.0650961 0)
(29.0413 0.0900691 0)
(28.7648 0.125679 0)
(28.4196 0.179161 0)
(27.9779 0.263155 0)
(27.4285 0.383741 0)
(26.6662 0.590315 0)
(25.7166 0.920817 0)
(24.2671 1.5186 0)
(22.5732 2.47632 0)
(19.7079 4.58941 0)
(16.0254 7.00312 0)
(8.70242 13.0998 0)
(29.9989 0.00101927 0)
(29.9857 0.00309286 0)
(29.9572 0.00530808 0)
(29.9136 0.00816689 0)
(29.8568 0.0119228 0)
(29.7841 0.0170187 0)
(29.6939 0.0238088 0)
(29.5805 0.0336905 0)
(29.4408 0.0473635 0)
(29.2607 0.0672498 0)
(29.0415 0.0931048 0)
(28.765 0.129995 0)
(28.4201 0.185307 0)
(27.9789 0.271852 0)
(27.4306 0.396715 0)
(26.6709 0.609297 0)
(25.7253 0.950855 0)
(24.2817 1.56257 0)
(22.607 2.54816 0)
(19.7737 4.70582 0)
(16.2577 7.22175 0)
(8.9028 13.6482 0)
(29.9989 0.00105252 0)
(29.9857 0.00319356 0)
(29.9572 0.00548245 0)
(29.9137 0.00843434 0)
(29.8571 0.0123129 0)
(29.7843 0.0175751 0)
(29.6943 0.0245888 0)
(29.5809 0.0347889 0)
(29.4411 0.0490185 0)
(29.2609 0.0693819 0)
(29.0418 0.0961489 0)
(28.7653 0.134309 0)
(28.4206 0.191446 0)
(27.98 0.280533 0)
(27.4329 0.409649 0)
(26.6759 0.6282 0)
(25.7348 0.980764 0)
(24.2976 1.60618 0)
(22.6418 2.6192 0)
(19.8409 4.81851 0)
(16.5 7.43773 0)
(9.11098 14.2064 0)
(29.9989 0.00108575 0)
(29.9857 0.00329423 0)
(29.9572 0.00565685 0)
(29.9136 0.00870176 0)
(29.8569 0.0127028 0)
(29.7842 0.0181314 0)
(29.694 0.0253685 0)
(29.5808 0.0358875 0)
(29.4409 0.0506778 0)
(29.2612 0.0714996 0)
(29.0421 0.0991987 0)
(28.7655 0.138621 0)
(28.4212 0.197579 0)
(27.9812 0.289198 0)
(27.4354 0.42254 0)
(26.6813 0.647019 0)
(25.7451 1.01053 0)
(24.315 1.64942 0)
(22.6776 2.68942 0)
(19.9095 4.92731 0)
(16.7525 7.65094 0)
(9.32729 14.7751 0)
(29.9989 0.00111897 0)
(29.9857 0.00339485 0)
(29.9572 0.00583126 0)
(29.9137 0.00896913 0)
(29.8571 0.0130927 0)
(29.7844 0.0186876 0)
(29.6944 0.0261476 0)
(29.5812 0.0369865 0)
(29.441 0.0523391 0)
(29.2617 0.0736048 0)
(29.0424 0.102253 0)
(28.7658 0.142931 0)
(28.4218 0.203704 0)
(27.9825 0.297844 0)
(27.4382 0.435388 0)
(26.6871 0.665748 0)
(25.7562 1.04014 0)
(24.3339 1.6923 0)
(22.7146 2.75883 0)
(19.9793 5.03205 0)
(17.0147 7.86124 0)
(9.55203 15.3545 0)
(29.9989 0.00115217 0)
(29.9857 0.00349544 0)
(29.9572 0.00600569 0)
(29.9136 0.0092365 0)
(29.8569 0.0134825 0)
(29.7843 0.019244 0)
(29.6941 0.0269263 0)
(29.5811 0.0380823 0)
(29.4406 0.053999 0)
(29.2623 0.0757011 0)
(29.0427 0.105311 0)
(28.7662 0.147239 0)
(28.4225 0.209821 0)
(27.9838 0.30647 0)
(27.4411 0.448189 0)
(26.6932 0.684381 0)
(25.768 1.06958 0)
(24.3542 1.73481 0)
(22.7528 2.82744 0)
(20.0506 5.13257 0)
(17.2864 8.06851 0)
(9.78545 15.9451 0)
(29.9988 0.00118537 0)
(29.9857 0.00359598 0)
(29.9572 0.00618015 0)
(29.9138 0.00950379 0)
(29.8571 0.0138723 0)
(29.7845 0.0197996 0)
(29.6944 0.0277073 0)
(29.5816 0.0391756 0)
(29.4406 0.0555919 0)
(29.2629 0.0777894 0)
(29.0431 0.108372 0)
(28.7666 0.151545 0)
(28.4232 0.21593 0)
(27.9853 0.315075 0)
(27.4442 0.460942 0)
(26.6996 0.702912 0)
(25.7805 1.09884 0)
(24.3759 1.77695 0)
(22.7924 2.89524 0)
(20.1233 5.22874 0)
(17.5675 8.2726 0)
(10.0278 16.5473 0)
(29.9989 0.00121855 0)
(29.9857 0.00369649 0)
(29.9572 0.0063546 0)
(29.9137 0.00977111 0)
(29.8569 0.0142617 0)
(29.7844 0.0203564 0)
(29.6942 0.0284811 0)
(29.5816 0.0403131 0)
(29.4401 0.0569972 0)
(29.2635 0.0798805 0)
(29.0435 0.111435 0)
(28.767 0.155848 0)
(28.424 0.22203 0)
(27.9868 0.323659 0)
(27.4474 0.473644 0)
(26.7062 0.721333 0)
(25.7937 1.12789 0)
(24.3991 1.81869 0)
(22.8335 2.96224 0)
(20.1977 5.3204 0)
(17.8579 8.47337 0)
(10.2793 17.1614 0)
(29.9988 0.00125172 0)
(29.9857 0.00379695 0)
(29.9572 0.00652907 0)
(29.9138 0.0100384 0)
(29.8572 0.0146513 0)
(29.7846 0.020912 0)
(29.6945 0.0292616 0)
(29.582 0.0414227 0)
(29.4401 0.0587937 0)
(29.2641 0.0820031 0)
(29.0439 0.1145 0)
(28.7675 0.160148 0)
(28.4248 0.228121 0)
(27.9885 0.33222 0)
(27.4508 0.486294 0)
(26.7132 0.73964 0)
(25.8076 1.15673 0)
(24.4238 1.86003 0)
(22.8765 3.02842 0)
(20.2741 5.40742 0)
(18.1578 8.67065 0)
(10.5402 17.7881 0)
(29.9988 0.00128488 0)
(29.9857 0.00389737 0)
(29.9572 0.00670356 0)
(29.9137 0.0103055 0)
(29.857 0.0150409 0)
(29.7845 0.0214671 0)
(29.6943 0.0300383 0)
(29.5818 0.0425712 0)
(29.4403 0.0605578 0)
(29.2647 0.0841582 0)
(29.0444 0.117567 0)
(28.768 0.164446 0)
(28.4256 0.234202 0)
(27.9902 0.340758 0)
(27.4543 0.49889 0)
(26.7204 0.757827 0)
(25.8222 1.18534 0)
(24.4498 1.90095 0)
(22.9215 3.09378 0)
(20.3523 5.48967 0)
(18.4677 8.8643 0)
(10.8106 18.4275 0)
(29.9988 0.00131803 0)
(29.9858 0.00399775 0)
(29.9573 0.00687801 0)
(29.9138 0.0105728 0)
(29.8573 0.0154296 0)
(29.7847 0.0220265 0)
(29.6947 0.030797 0)
(29.582 0.043741 0)
(29.4405 0.0620566 0)
(29.2651 0.086327 0)
(29.0448 0.120634 0)
(28.7685 0.16874 0)
(28.4265 0.240273 0)
(27.9919 0.349272 0)
(27.458 0.511429 0)
(26.7279 0.775887 0)
(25.8373 1.21371 0)
(24.4771 1.94143 0)
(22.9689 3.15832 0)
(20.4322 5.56699 0)
(18.7875 9.05416 0)
(11.091 19.0803 0)
(29.9988 0.00135117 0)
(29.9858 0.0040981 0)
(29.9572 0.0070525 0)
(29.9137 0.0108398 0)
(29.857 0.0158193 0)
(29.7845 0.022578 0)
(29.6946 0.0316079 0)
(29.5814 0.0446468 0)
(29.4405 0.0634879 0)
(29.2655 0.0884974 0)
(29.0452 0.123701 0)
(28.769 0.17303 0)
(28.4275 0.246337 0)
(27.9938 0.357759 0)
(27.4618 0.52391 0)
(26.7357 0.793815 0)
(25.8531 1.24182 0)
(24.5057 1.98144 0)
(23.0189 3.22202 0)
(20.5132 5.63926 0)
(19.1166 9.2401 0)
(11.3814 19.7468 0)
(29.9988 0.0013843 0)
(29.9858 0.00419847 0)
(29.9573 0.00722704 0)
(29.9138 0.0111069 0)
(29.8573 0.0162086 0)
(29.7847 0.0231339 0)
(29.6953 0.0324005 0)
(29.5802 0.0459131 0)
(29.4405 0.0649495 0)
(29.2658 0.0906659 0)
(29.0456 0.126766 0)
(28.7695 0.177317 0)
(28.4284 0.252388 0)
(27.9957 0.366223 0)
(27.4657 0.53633 0)
(26.7438 0.811606 0)
(25.8694 1.26967 0)
(24.5354 2.02096 0)
(23.0721 3.28491 0)
(20.5947 5.70637 0)
(19.4518 9.42212 0)
(11.682 20.4282 0)
(29.9988 0.00141725 0)
(29.9858 0.00429872 0)
(29.9572 0.00740166 0)
(29.9137 0.0113743 0)
(29.8571 0.0165984 0)
(29.7845 0.0236894 0)
(29.6953 0.0332019 0)
(29.5792 0.0472895 0)
(29.4405 0.0664495 0)
(29.2661 0.0928349 0)
(29.046 0.129831 0)
(28.77 0.181599 0)
(28.4295 0.258429 0)
(27.9976 0.374657 0)
(27.4697 0.548686 0)
(26.7521 0.829252 0)
(25.8862 1.29723 0)
(24.5661 2.05993 0)
(23.1288 3.34699 0)
(20.676 5.76831 0)
(19.786 9.59992 0)
(11.9925 21.1319 0)
(29.9988 0.00144976 0)
(29.9858 0.0043982 0)
(29.9573 0.00757482 0)
(29.9138 0.0116399 0)
(29.8575 0.0169872 0)
(29.7848 0.0242356 0)
(29.6958 0.0340557 0)
(29.5788 0.0484112 0)
(29.4404 0.0679614 0)
(29.2663 0.0950006 0)
(29.0463 0.132894 0)
(28.7706 0.185879 0)
(28.4305 0.264468 0)
(27.9996 0.383051 0)
(27.4738 0.560973 0)
(26.7607 0.846746 0)
(25.9035 1.3245 0)
(24.5978 2.09829 0)
(23.1895 3.4083 0)
(20.7571 5.82517 0)
(20.1081 9.77148 0)
(12.399 21.8795 0)
(-0.666548 0.0371512 0)
(-2.59299 0.0337257 0)
(-3.75529 0.0082573 0)
(-3.35736 -0.0123798 0)
(-2.38334 -0.0134529 0)
(-1.78191 -0.00751269 0)
(-1.42766 -0.00308043 0)
(-1.3662 -0.000715864 0)
(-1.32148 -0.000619774 0)
(-1.27164 -0.000216309 0)
(-1.30365 -8.32235e-05 0)
(-1.32849 -0.000912766 0)
(-1.082 -0.00315352 0)
(-0.605061 -0.00482894 0)
(0.141332 -0.00675135 0)
(1.19974 -0.00895098 0)
(2.66204 -0.0109273 0)
(4.47519 -0.0116212 0)
(6.41726 -0.010616 0)
(8.21284 -0.00878915 0)
(9.81705 -0.00725743 0)
(11.2771 -0.00616533 0)
(12.6292 -0.00536194 0)
(13.9307 -0.00481716 0)
(15.2136 -0.00457926 0)
(16.5925 -0.00436538 0)
(17.9659 -0.00316748 0)
(18.7255 -0.00714749 0)
(23.2924 -0.0125746 0)
(28.8284 -0.00727276 0)
(29.5741 -0.000795377 0)
(29.5671 -3.359e-05 0)
(29.6083 -9.29818e-05 0)
(29.6691 -9.8934e-05 0)
(29.7261 -4.58972e-05 0)
(-0.64652 0.110219 0)
(-2.55593 0.100551 0)
(-3.71402 0.024708 0)
(-3.32027 -0.0368554 0)
(-2.35238 -0.0403062 0)
(-1.75299 -0.0225301 0)
(-1.39679 -0.00925172 0)
(-1.33398 -0.00214134 0)
(-1.28541 -0.00179924 0)
(-1.23401 -0.000447827 0)
(-1.27958 0.000293395 0)
(-1.32809 -0.00224109 0)
(-1.12438 -0.00928282 0)
(-0.659778 -0.0149258 0)
(0.13376 -0.0206569 0)
(1.2407 -0.0266165 0)
(2.69626 -0.0318936 0)
(4.45573 -0.0337768 0)
(6.35111 -0.0312094 0)
(8.13735 -0.0261946 0)
(9.76075 -0.0217586 0)
(11.2419 -0.0184561 0)
(12.6063 -0.0160584 0)
(13.9119 -0.014426 0)
(15.1886 -0.0136767 0)
(16.5511 -0.0130859 0)
(17.9274 -0.00945024 0)
(18.6829 -0.0207438 0)
(22.8869 -0.0374616 0)
(28.7346 -0.0227418 0)
(29.5779 -0.00250788 0)
(29.5713 -9.32007e-05 0)
(29.6092 -0.000273893 0)
(29.6695 -0.000296283 0)
(29.7266 -0.000137691 0)
(-0.62121 0.181754 0)
(-2.51353 0.166897 0)
(-3.66569 0.0411037 0)
(-3.26702 -0.0612264 0)
(-2.2998 -0.0671801 0)
(-1.70653 -0.0375387 0)
(-1.35034 -0.0155096 0)
(-1.2889 -0.00365679 0)
(-1.23784 -0.00311275 0)
(-1.19066 -0.000609399 0)
(-1.25658 0.000649217 0)
(-1.33475 -0.00274605 0)
(-1.16611 -0.01471 0)
(-0.694645 -0.0250195 0)
(0.158475 -0.0350795 0)
(1.31064 -0.0443188 0)
(2.74772 -0.0520285 0)
(4.44563 -0.0548727 0)
(6.29376 -0.0511234 0)
(8.07384 -0.0435003 0)
(9.71964 -0.0364692 0)
(11.224 -0.0309792 0)
(12.6005 -0.0268411 0)
(13.9096 -0.0240026 0)
(15.1802 -0.0226647 0)
(16.526 -0.0217172 0)
(17.9026 -0.0157437 0)
(18.6579 -0.0333755 0)
(22.5395 -0.0626096 0)
(28.646 -0.0389609 0)
(29.5809 -0.00447123 0)
(29.5754 -0.0001505 0)
(29.6101 -0.000447182 0)
(29.6701 -0.000492543 0)
(29.727 -0.000229392 0)
(-0.590814 0.251621 0)
(-2.46615 0.232751 0)
(-3.60858 0.0571928 0)
(-3.19456 -0.0859098 0)
(-2.22679 -0.0939105 0)
(-1.64438 -0.0523925 0)
(-1.29168 -0.0216818 0)
(-1.23404 -0.00513724 0)
(-1.18153 -0.00434408 0)
(-1.14128 -0.000430156 0)
(-1.22765 0.00167245 0)
(-1.33587 -0.00268332 0)
(-1.19716 -0.0200463 0)
(-0.711626 -0.0359336 0)
(0.20708 -0.0506698 0)
(1.40889 -0.0626854 0)
(2.82451 -0.0721665 0)
(4.45309 -0.075784 0)
(6.24795 -0.0710829 0)
(8.0224 -0.0610535 0)
(9.69352 -0.0514313 0)
(11.2231 -0.0436539 0)
(12.6126 -0.0376884 0)
(13.925 -0.0335781 0)
(15.1894 -0.0315826 0)
(16.518 -0.030301 0)
(17.8912 -0.0220313 0)
(18.65 -0.0452481 0)
(22.2545 -0.0872019 0)
(28.5623 -0.0560237 0)
(29.5832 -0.00662508 0)
(29.5795 -0.00020394 0)
(29.6112 -0.000613873 0)
(29.6706 -0.000687841 0)
(29.7274 -0.000320944 0)
(-0.555015 0.319595 0)
(-2.41392 0.297959 0)
(-3.54118 0.0726729 0)
(-3.10062 -0.110947 0)
(-2.13357 -0.120364 0)
(-1.56661 -0.066915 0)
(-1.22158 -0.0276934 0)
(-1.16941 -0.00656422 0)
(-1.11627 -0.00548818 0)
(-1.08503 6.94205e-05 0)
(-1.19068 0.00329177 0)
(-1.32888 -0.00210862 0)
(-1.21509 -0.025276 0)
(-0.707678 -0.0475655 0)
(0.285955 -0.0672396 0)
(1.54737 -0.0813788 0)
(2.94004 -0.0917979 0)
(4.48772 -0.0960056 0)
(6.21824 -0.0907772 0)
(7.9855 -0.0787482 0)
(9.68474 -0.0666593 0)
(11.242 -0.0565222 0)
(12.6458 -0.0486169 0)
(13.9614 -0.0431484 0)
(15.2189 -0.0404196 0)
(16.529 -0.0388092 0)
(17.8945 -0.0283147 0)
(18.6598 -0.0564706 0)
(22.0261 -0.11151 0)
(28.4832 -0.0737011 0)
(29.5847 -0.00896959 0)
(29.5835 -0.000256177 0)
(29.6124 -0.000774127 0)
(29.6712 -0.000882025 0)
(29.7279 -0.00041227 0)
(-0.513459 0.385422 0)
(-2.35685 0.36241 0)
(-3.46166 0.0871885 0)
(-2.9823 -0.136537 0)
(-2.01963 -0.146485 0)
(-1.47269 -0.080991 0)
(-1.13993 -0.0334696 0)
(-1.09428 -0.00791119 0)
(-1.04117 -0.00651801 0)
(-1.02051 0.000889345 0)
(-1.14361 0.0054669 0)
(-1.31077 -0.00106214 0)
(-1.21666 -0.0304769 0)
(-0.679494 -0.0599883 0)
(0.401059 -0.0848507 0)
(1.73907 -0.100352 0)
(3.11159 -0.110673 0)
(4.56435 -0.115201 0)
(6.2144 -0.11 0)
(7.96928 -0.0965328 0)
(9.69818 -0.0821565 0)
(11.2858 -0.0695909 0)
(12.7056 -0.0596254 0)
(14.024 -0.0527065 0)
(15.2731 -0.0491642 0)
(16.5622 -0.0472193 0)
(17.9146 -0.0345905 0)
(18.6891 -0.0671361 0)
(21.8458 -0.135552 0)
(28.4084 -0.0918511 0)
(29.5855 -0.0114933 0)
(29.5874 -0.000308973 0)
(29.6136 -0.000928287 0)
(29.6719 -0.00107497 0)
(29.7284 -0.000503296 0)
(-0.465788 0.448843 0)
(-2.29482 0.425962 0)
(-3.36777 0.100332 0)
(-2.83574 -0.162887 0)
(-1.88375 -0.172147 0)
(-1.36138 -0.0944935 0)
(-1.04575 -0.0389331 0)
(-1.00725 -0.00915942 0)
(-0.954613 -0.00741206 0)
(-0.945642 0.00201985 0)
(-1.08407 0.00815672 0)
(-1.27828 0.000368997 0)
(-1.19859 -0.0357705 0)
(-0.623969 -0.073362 0)
(0.558325 -0.103756 0)
(1.99827 -0.119831 0)
(3.36127 -0.128787 0)
(4.70327 -0.13316 0)
(6.25162 -0.128578 0)
(7.98398 -0.114358 0)
(9.74182 -0.0979312 0)
(11.3626 -0.0828771 0)
(12.8011 -0.0707181 0)
(14.1218 -0.0622427 0)
(15.3593 -0.0577984 0)
(16.6231 -0.0555011 0)
(17.9551 -0.0408433 0)
(18.7407 -0.0773172 0)
(21.7065 -0.159305 0)
(28.3378 -0.110364 0)
(29.5855 -0.014186 0)
(29.5911 -0.000364062 0)
(29.6149 -0.0010767 0)
(29.6727 -0.00126656 0)
(29.7289 -0.000593947 0)
(-0.411655 0.509592 0)
(-2.22756 0.488423 0)
(-3.25671 0.111617 0)
(-2.65658 -0.190162 0)
(-1.7246 -0.197142 0)
(-1.23102 -0.107276 0)
(-0.937454 -0.0440042 0)
(-0.906384 -0.0102983 0)
(-0.854352 -0.00815719 0)
(-0.857697 0.0034431 0)
(-1.00905 0.0112943 0)
(-1.22769 0.00212117 0)
(-1.1572 -0.0412847 0)
(-0.536674 -0.0879017 0)
(0.765346 -0.124333 0)
(2.33975 -0.140216 0)
(3.71619 -0.146257 0)
(4.93113 -0.14971 0)
(6.35075 -0.146299 0)
(8.04463 -0.132135 0)
(9.82768 -0.113977 0)
(11.4847 -0.0964012 0)
(12.9455 -0.0819009 0)
(14.2687 -0.0717405 0)
(15.4897 -0.0662903 0)
(16.7201 -0.0636091 0)
(18.0211 -0.0470499 0)
(18.8193 -0.0870594 0)
(21.6038 -0.182711 0)
(28.2712 -0.12915 0)
(29.5847 -0.017038 0)
(29.5947 -0.000423207 0)
(29.6164 -0.00121975 0)
(29.6735 -0.00145668 0)
(29.7294 -0.000684146 0)
(-0.350749 0.567383 0)
(-2.15466 0.549546 0)
(-3.12524 0.120474 0)
(-2.44125 -0.218479 0)
(-1.54153 -0.221201 0)
(-1.08018 -0.119198 0)
(-0.813201 -0.0486081 0)
(-0.789403 -0.0113262 0)
(-0.737663 -0.00874981 0)
(-0.753309 0.00513246 0)
(-0.914637 0.0148262 0)
(-1.15446 0.00411282 0)
(-1.08745 -0.0471496 0)
(-0.410481 -0.103845 0)
(1.03144 -0.147006 0)
(2.77244 -0.161992 0)
(4.19947 -0.163243 0)
(5.27999 -0.164669 0)
(6.53889 -0.162919 0)
(8.17214 -0.149726 0)
(9.97316 -0.13027 0)
(11.6692 -0.110191 0)
(13.1579 -0.0931889 0)
(14.4854 -0.0811772 0)
(15.6833 -0.0745874 0)
(16.8669 -0.0714718 0)
(18.1201 -0.0531723 0)
(18.9314 -0.0963837 0)
(21.5367 -0.205702 0)
(28.2089 -0.148124 0)
(29.5831 -0.0200401 0)
(29.5982 -0.000488153 0)
(29.6179 -0.00135785 0)
(29.6744 -0.00164521 0)
(29.73 -0.000773816 0)
(-0.282798 0.621916 0)
(-2.07555 0.609018 0)
(-2.96971 0.126291 0)
(-2.1887 -0.247894 0)
(-1.33532 -0.244032 0)
(-0.908179 -0.130146 0)
(-0.671253 -0.0526879 0)
(-0.653866 -0.0122563 0)
(-0.601495 -0.00920196 0)
(-0.6285 0.00704422 0)
(-0.795911 0.0186634 0)
(-1.05282 0.00626707 0)
(-0.982095 -0.0535144 0)
(-0.234875 -0.121441 0)
(1.36515 -0.172145 0)
(3.28863 -0.185596 0)
(4.80532 -0.179988 0)
(5.77429 -0.177874 0)
(6.84802 -0.178178 0)
(8.39436 -0.166964 0)
(10.2024 -0.146777 0)
(11.9395 -0.124286 0)
(13.4634 -0.104619 0)
(14.8003 -0.0905356 0)
(15.9683 -0.0826109 0)
(17.0843 -0.0789772 0)
(18.2635 -0.0591458 0)
(19.086 -0.105287 0)
(21.5083 -0.228194 0)
(28.1512 -0.167197 0)
(29.5807 -0.0231819 0)
(29.6015 -0.000560661 0)
(29.6195 -0.00149144 0)
(29.6754 -0.00183204 0)
(29.7305 -0.000862881 0)
(-0.207593 0.672866 0)
(-1.9895 0.666452 0)
(-2.78616 0.128476 0)
(-1.90212 -0.278367 0)
(-1.10849 -0.26536 0)
(-0.715662 -0.14006 0)