/*--------------------------------*- C++ -*----------------------------------*\
| =========                 |                                                 |
| \\      /  F ield         | OpenFOAM: The Open Source CFD Toolbox           |
|  \\    /   O peration     | Version:  v1912                                 |
|   \\  /    A nd           | Website:  www.openfoam.com                      |
|    \\/     M anipulation  |                                                 |
\*---------------------------------------------------------------------------*/
FoamFile
{
    version     2.0;
    format      ascii;
    class       volScalarField;
    location    "310";
    object      yPlus;
}
// * * * * * * * * * * * * * * * * * * * * * * * * * * * * * * * * * * * * * //

dimensions      [0 0 0 0 0 0 0];


internalField   uniform 0;

boundaryField
{
    inlet
    {
        type            calculated;
        value           uniform 0;
    }
    outlet
    {
        type            calculated;
        value           uniform 0;
    }
    lowerSymmetry
    {
        type            symmetryPlane;
    }
    obstical
    {
        type            calculated;
        value           nonuniform List<scalar> 
88
(
483.385
485.57
489.954
496.528
505.224
515.954
528.625
543.145
559.426
577.382
596.933
617.997
640.489
664.316
689.383
715.597
742.868
771.117
800.272
830.276
861.081
892.649
924.955
957.979
991.713
1026.15
1061.31
1097.18
1133.79
1171.16
1209.3
1248.24
1288
1328.6
1370.06
1412.41
1455.66
1499.84
1544.97
1591.08
1638.18
1686.35
1735.98
1791.01
69.7708
68.7291
67.9649
67.5118
67.3596
67.499
67.9292
68.6618
69.7231
71.1535
73.005
75.3359
78.2044
81.6602
85.7384
90.4512
95.7813
101.671
108.008
114.594
121.201
127.671
133.844
139.559
144.653
148.957
152.295
154.473
155.26
154.378
151.494
146.246
138.295
127.392
113.446
96.5567
77.0463
55.7897
37.4028
41.1685
66.7945
98.6442
133.439
171.111
)
;
    }
    obsticalTop
    {
        type            calculated;
        value           nonuniform List<scalar> 
20
(
53.3385
38.6768
47.0767
53.1971
56.0625
57.7163
58.3374
58.0536
57.1279
55.6934
53.7274
51.1226
47.7872
43.5381
38.3452
31.5667
25.2246
15.7342
14.2026
11.0448
)
;
    }
    top
    {
        type            calculated;
        value           uniform 0;
    }
    defaultFaces
    {
        type            empty;
    }
}


// ************************************************************************* //
