/*--------------------------------*- C++ -*----------------------------------*\
| =========                 |                                                 |
| \\      /  F ield         | OpenFOAM: The Open Source CFD Toolbox           |
|  \\    /   O peration     | Version:  v1912                                 |
|   \\  /    A nd           | Website:  www.openfoam.com                      |
|    \\/     M anipulation  |                                                 |
\*---------------------------------------------------------------------------*/
FoamFile
{
    version     2.0;
    format      ascii;
    class       volScalarField;
    location    "250";
    object      p;
}
// * * * * * * * * * * * * * * * * * * * * * * * * * * * * * * * * * * * * * //

dimensions      [0 2 -2 0 0 0 0];


internalField   nonuniform List<scalar> 
2000
(
-0.0398772
0.077534
0.132114
0.125224
0.109396
0.103088
0.102481
0.103831
0.104048
0.10382
0.103953
0.103632
0.103371
0.103314
0.103364
0.103311
0.103143
0.103036
0.102978
0.102934
0.10287
0.102719
0.102506
0.102271
0.102073
0.101932
0.101833
0.101726
0.101589
0.101421
0.101251
0.101127
0.101108
0.101238
0.101556
0.102074
0.102726
0.103444
0.104134
0.104683
0.104982
0.104929
0.104243
0.103018
0.101249
0.0989512
0.0962054
0.0932303
0.0902645
0.087638
0.0856702
0.0845658
0.0843655
0.0849403
0.0859758
0.0869463
0.0871964
0.0861841
0.0841153
0.0825683
0.0835541
0.0890796
0.0991684
0.112216
0.126369
0.140132
0.152652
0.163574
0.172766
0.180101
0.185468
0.188633
0.189248
0.186665
0.179892
0.167817
0.148842
0.122355
0.0822285
0.0412027
0.0133665
0.0985438
0.137362
0.124167
0.106426
0.102225
0.105756
0.108187
0.10544
0.102215
0.101776
0.103068
0.103525
0.103394
0.103546
0.103344
0.103112
0.10293
0.102863
0.102839
0.102819
0.102702
0.102488
0.10226
0.102066
0.101928
0.101838
0.101771
0.10165
0.101432
0.10116
0.100904
0.100752
0.100794
0.101076
0.101647
0.102463
0.103446
0.104475
0.105402
0.106088
0.106167
0.105818
0.104733
0.102805
0.100037
0.0965138
0.0924452
0.088212
0.0843824
0.0815608
0.0801415
0.0801518
0.0811517
0.0823065
0.0824162
0.080511
0.0763094
0.0711571
0.0699631
0.0758531
0.0865141
0.0995877
0.113647
0.127837
0.14111
0.152819
0.162713
0.17074
0.176867
0.180966
0.182727
0.181709
0.177258
0.168406
0.154119
0.132994
0.104796
0.0651301
0.0292998
0.0644306
0.0982291
0.120921
0.119364
0.110165
0.105987
0.106021
0.105382
0.103484
0.102828
0.10443
0.105983
0.104936
0.102426
0.101512
0.102377
0.10324
0.103338
0.103049
0.10281
0.1026
0.1024
0.102289
0.102235
0.1022
0.102198
0.102201
0.102155
0.101968
0.10161
0.101068
0.100444
0.0999001
0.0996216
0.0997666
0.100418
0.101575
0.103196
0.105095
0.106978
0.108451
0.109679
0.109991
0.109079
0.106699
0.102746
0.097323
0.0908392
0.0840866
0.0781611
0.0741307
0.0726201
0.0736905
0.0761267
0.0791934
0.081458
0.0820773
0.0811989
0.0800864
0.0803614
0.0846664
0.0930388
0.104308
0.116739
0.129102
0.140569
0.150593
0.158888
0.165348
0.169915
0.172452
0.172671
0.170119
0.164178
0.154055
0.13898
0.117954
0.0911928
0.055679
0.0249525
0.0894148
0.0994286
0.111978
0.116057
0.113363
0.110343
0.108681
0.106951
0.105336
0.104533
0.104342
0.104218
0.103857
0.103135
0.102597
0.103512
0.104674
0.103807
0.102448
0.10179
0.101551
0.101734
0.102056
0.102327
0.10257
0.102827
0.103043
0.103097
0.102858
0.102213
0.101164
0.0998463
0.098529
0.0975835
0.0974042
0.0980496
0.0996496
0.102381
0.105868
0.109625
0.113102
0.115388
0.116574
0.115836
0.112638
0.106796
0.0985527
0.0887102
0.07865
0.0700802
0.0645251
0.0625198
0.0640859
0.0688619
0.0747017
0.0800178
0.0837257
0.0856492
0.0866625
0.0883179
0.0923885
0.0994736
0.108856
0.119233
0.129556
0.139141
0.147493
0.154278
0.159313
0.162477
0.163605
0.162417
0.158503
0.151357
0.140388
0.125075
0.104755
0.0798278
0.0482303
0.0207911
0.101753
0.105353
0.112873
0.116842
0.115712
0.113381
0.111998
0.110959
0.109659
0.10821
0.106853
0.105751
0.105012
0.10415
0.103152
0.10314
0.103639
0.103752
0.10339
0.102659
0.102064
0.101826
0.101915
0.102237
0.102674
0.103183
0.10366
0.103919
0.103766
0.102945
0.101354
0.0991789
0.0968438
0.0949324
0.094106
0.0945144
0.0968448
0.100905
0.106114
0.111825
0.117197
0.121403
0.123318
0.122554
0.118569
0.111095
0.100509
0.0879601
0.0752664
0.0645645
0.0577054
0.0558211
0.0581639
0.063718
0.070764
0.0776154
0.0831567
0.0871408
0.0902029
0.0934964
0.0981529
0.10465
0.112622
0.121256
0.129765
0.137574
0.144266
0.149541
0.153195
0.155067
0.154966
0.152629
0.147716
0.139836
0.128555
0.113523
0.094274
0.0712673
0.0429353
0.0181326
0.110192
0.112026
0.115978
0.118148
0.11733
0.11572
0.114759
0.114081
0.113119
0.111925
0.110789
0.109784
0.108749
0.107394
0.105981
0.105229
0.105037
0.10479
0.104017
0.102874
0.102026
0.101722
0.101865
0.10223
0.102713
0.103364
0.104125
0.104691
0.104616
0.103549
0.1014
0.0984795
0.0953979
0.0928828
0.0916013
0.0925214
0.0954547
0.100336
0.106623
0.113504
0.119967
0.124933
0.127339
0.126443
0.121804
0.113465
0.102021
0.0889053
0.0761043
0.0657645
0.0594578
0.0579469
0.0605926
0.0662016
0.0732155
0.0801652
0.0861353
0.0909207
0.0949472
0.098976
0.103721
0.109517
0.116201
0.123275
0.130176
0.13644
0.141718
0.145735
0.148271
0.14913
0.148108
0.144964
0.139415
0.131149
0.119831
0.105204
0.086907
0.0654041
0.0393213
0.016495
0.117001
0.117824
0.11906
0.119396
0.118607
0.117619
0.116956
0.116413
0.11574
0.114978
0.114242
0.113504
0.112619
0.111476
0.110268
0.109362
0.108771
0.108047
0.106892
0.105579
0.104588
0.104086
0.103966
0.104061
0.104314
0.104721
0.105167
0.105366
0.104978
0.103754
0.101638
0.0988879
0.0960523
0.0938564
0.0930565
0.0942073
0.0973154
0.102199
0.108294
0.114775
0.120709
0.125138
0.127186
0.126205
0.121788
0.113894
0.103303
0.0913804
0.0800099
0.0710884
0.0659163
0.0648462
0.0672742
0.0721018
0.0780987
0.0841972
0.0897413
0.0945648
0.0989073
0.103217
0.107917
0.11321
0.119003
0.124968
0.130698
0.135824
0.140043
0.1431
0.144775
0.144865
0.143165
0.139454
0.133482
0.124988
0.113694
0.0994022
0.0818102
0.0613776
0.0368019
0.015446
0.122877
0.122822
0.121905
0.120694
0.119868
0.119347
0.118866
0.11839
0.11794
0.117494
0.117028
0.116511
0.115884
0.115106
0.114255
0.113504
0.11288
0.112134
0.111112
0.109991
0.109061
0.108449
0.108114
0.107974
0.107984
0.108103
0.108212
0.108087
0.107477
0.106199
0.104246
0.101876
0.0995976
0.0980705
0.0978281
0.0992312
0.102283
0.106724
0.112036
0.117504
0.122334
0.125734
0.127002
0.125638
0.121426
0.114552
0.10575
0.0961743
0.0872434
0.0802762
0.0761274
0.0749991
0.0764958
0.0798782
0.0843286
0.0891363
0.0938394
0.0982746
0.102529
0.106826
0.111382
0.116288
0.121454
0.126637
0.131524
0.135811
0.139231
0.141553
0.142564
0.142062
0.139848
0.135707
0.129413
0.120737
0.109445
0.0953803
0.0782823
0.0585983
0.0350745
0.0147211
0.12828
0.12729
0.124324
0.121779
0.12102
0.120927
0.120587
0.120173
0.119899
0.11967
0.119385
0.119037
0.118619
0.118103
0.117518
0.116964
0.116468
0.115887
0.115122
0.114268
0.113515
0.112974
0.112643
0.112467
0.112398
0.112383
0.112322
0.112053
0.1114
0.110253
0.10865
0.106823
0.105175
0.104166
0.104177
0.105479
0.108045
0.111639
0.115854
0.120129
0.123844
0.126392
0.127254
0.126073
0.122723
0.117365
0.110515
0.103008
0.095848
0.0899851
0.0860823
0.0843832
0.084726
0.0866865
0.0897495
0.0934356
0.0973929
0.10144
0.10555
0.109787
0.114222
0.11886
0.123598
0.128234
0.132516
0.136185
0.139006
0.140764
0.141259
0.140293
0.137666
0.133175
0.126607
0.117762
0.106439
0.0925189
0.0757702
0.0566244
0.0338672
0.0141603
0.133509
0.131321
0.126125
0.122479
0.122011
0.122333
0.122099
0.121768
0.121673
0.121629
0.121489
0.121274
0.121002
0.120651
0.12024
0.119838
0.119466
0.119031
0.118463
0.117825
0.117255
0.116845
0.116597
0.116467
0.116406
0.116361
0.116251
0.115958
0.115365
0.114409
0.11314
0.111745
0.110519
0.109794
0.109894
0.11101
0.113118
0.11603
0.119423
0.122856
0.125832
0.12787
0.128554
0.127597
0.124893
0.120564
0.114997
0.108812
0.102757
0.0975526
0.0937414
0.0915906
0.0910892
0.0920267
0.094094
0.096967
0.100369
0.104108
0.108084
0.112256
0.116599
0.121055
0.125502
0.129759
0.133606
0.13682
0.139187
0.140509
0.140595
0.139253
0.136287
0.131498
0.124687
0.115675
0.104297
0.0904674
0.0739734
0.0552304
0.0330313
0.013735
0.138747
0.134897
0.127202
0.122809
0.122896
0.123583
0.123405
0.123183
0.123275
0.123398
0.12339
0.123295
0.123141
0.122916
0.122631
0.122337
0.122052
0.121715
0.121278
0.120788
0.120354
0.120046
0.119867
0.119779
0.119739
0.119696
0.119582
0.119309
0.118791
0.117993
0.116963
0.115853
0.114894
0.114351
0.114487
0.115447
0.117215
0.119641
0.122463
0.125322
0.127809
0.129522
0.130116
0.12935
0.127131
0.123548
0.11889
0.113623
0.108316
0.103537
0.0997504
0.0972405
0.0961012
0.0962709
0.097589
0.0998454
0.102822
0.106327
0.110207
0.114347
0.118648
0.122999
0.12726
0.131253
0.134784
0.13765
0.139662
0.140634
0.140387
0.138734
0.135482
0.130434
0.123402
0.11423
0.102785
0.0890148
0.0727167
0.0542902
0.0324721
0.0134616
0.144113
0.137943
0.127527
0.122865
0.123728
0.124685
0.124528
0.124443
0.124718
0.124985
0.125095
0.125111
0.125068
0.124953
0.124774
0.124571
0.124358
0.124097
0.123754
0.123371
0.123031
0.122791
0.122656
0.122596
0.12257
0.122533
0.122426
0.122177
0.121722
0.121038
0.120171
0.11925
0.118465
0.118045
0.118189
0.119022
0.12054
0.122623
0.125053
0.127531
0.129708
0.131237
0.131818
0.131234
0.129393
0.126352
0.122327
0.117684
0.112873
0.108365
0.104564
0.101763
0.100124
0.0996924
0.100421
0.102193
0.104841
0.108175
0.112003
0.116148
0.120449
0.124751
0.128893
0.132701
0.135995
0.138593
0.140322
0.141013
0.140494
0.138583
0.13509
0.129821
0.122594
0.113277
0.101766
0.088046
0.0719104
0.0537463
0.0321492
0.0133795
0.149685
0.140356
0.127134
0.122768
0.124527
0.125638
0.125497
0.125576
0.126019
0.126405
0.126618
0.126736
0.126793
0.126776
0.126692
0.126572
0.126429
0.126236
0.125974
0.125675
0.125409
0.125223
0.125123
0.125083
0.12507
0.125041
0.124943
0.124719
0.124316
0.123721
0.122974
0.122188
0.121525
0.121175
0.121308
0.122032
0.123354
0.125179
0.127325
0.129536
0.131507
0.132931
0.133535
0.133118
0.131583
0.128961
0.125417
0.121239
0.116793
0.11247
0.10863
0.105567
0.103493
0.102542
0.102764
0.104126
0.106506
0.109715
0.113525
0.117706
0.122041
0.126335
0.130408
0.134086
0.1372
0.139586
0.141086
0.141546
0.140803
0.13868
0.134989
0.129536
0.122149
0.112713
0.101154
0.0874871
0.071496
0.0535595
0.0320453
0.0135147
0.155504
0.142018
0.126121
0.122635
0.125292
0.126445
0.126343
0.126602
0.127192
0.127676
0.127981
0.12819
0.128335
0.128404
0.128403
0.128358
0.12828
0.128152
0.12796
0.127734
0.127531
0.127392
0.127324
0.127306
0.127307
0.127289
0.127207
0.127008
0.126654
0.126132
0.125479
0.124791
0.124211
0.1239
0.124006
0.12463
0.125789
0.127409
0.129339
0.131357
0.133192
0.134565
0.13522
0.134965
0.133696
0.131418
0.128254
0.124433
0.120254
0.116047
0.112136
0.108815
0.106339
0.104916
0.104686
0.105691
0.10785
0.110973
0.114796
0.119036
0.123428
0.12774
0.131775
0.135359
0.138333
0.140548
0.141862
0.142133
0.141207
0.138915
0.135069
0.129478
0.121973
0.112455
0.100874
0.0872717
0.071415
0.0536844
0.0321454
0.0138682
0.161577
0.14282
0.124634
0.122556
0.126005
0.127118
0.127092
0.127535
0.128248
0.128815
0.129202
0.129493
0.129715
0.129858
0.129929
0.129951
0.129933
0.129863
0.129733
0.129569
0.129421
0.129325
0.129287
0.129291
0.129308
0.129305
0.12924
0.12907
0.128761
0.128301
0.127722
0.127109
0.126585
0.126291
0.126363
0.126894
0.127913
0.129367
0.131129
0.133005
0.134752
0.13611
0.136835
0.136736
0.135699
0.133708
0.130852
0.12731
0.123328
0.119188
0.115183
0.111604
0.108744
0.106883
0.106242
0.106933
0.10891
0.111975
0.115829
0.120139
0.124595
0.128936
0.13295
0.136463
0.139326
0.141403
0.142566
0.142685
0.141617
0.139199
0.135243
0.12956
0.121985
0.112427
0.100852
0.0873249
0.0715935
0.0540582
0.0323953
0.0144158
0.167884
0.142687
0.122848
0.12258
0.126643
0.127677
0.12777
0.128387
0.129198
0.129836
0.130298
0.130662
0.130951
0.131159
0.131294
0.131375
0.131411
0.131392
0.131316
0.131207
0.131107
0.131048
0.131037
0.131061
0.131095
0.131108
0.131063
0.130921
0.130653
0.130247
0.129729
0.129172
0.128686
0.128397
0.128428
0.128874
0.12977
0.131085
0.132714
0.134485
0.136177
0.137543
0.138346
0.138393
0.137559
0.13581
0.133201
0.129874
0.126031
0.121913
0.117786
0.113948
0.110726
0.108466
0.107463
0.107886
0.109714
0.112739
0.116628
0.121004
0.125519
0.129888
0.133887
0.137345
0.14012
0.142089
0.143137
0.143142
0.141971
0.139467
0.135445
0.129715
0.122113
0.112552
0.10101
0.0875661
0.071951
0.0546061
0.0328149
0.0150902
0.174374
0.141609
0.120945
0.122717
0.127184
0.128146
0.128391
0.129161
0.130052
0.130753
0.131283
0.131711
0.132059
0.132325
0.132516
0.132649
0.132732
0.132759
0.13273
0.132668
0.132609
0.132582
0.132595
0.132638
0.132687
0.132716
0.13269
0.132574
0.132343
0.131982
0.131512
0.130999
0.130538
0.130241
0.130227
0.13059
0.131377
0.132572
0.134091
0.135783
0.13744
0.138826
0.139706
0.139881
0.139217
0.137658
0.135236
0.13206
0.128296
0.124158
0.119897
0.115817
0.11228
0.109685
0.108386
0.108593
0.110304
0.113297
0.117212
0.121636
0.126194
0.130581
0.134568
0.137983
0.140694
0.142585
0.14355
0.143478
0.142242
0.13969
0.135639
0.129899
0.122303
0.112769
0.101277
0.0879207
0.0724135
0.0552528
0.0333268
0.0158323
0.180962
0.139605
0.119083
0.122949
0.127623
0.128548
0.128963
0.129862
0.130816
0.131574
0.132162
0.132646
0.133045
0.13336
0.133599
0.133777
0.133901
0.133967
0.133978
0.133954
0.133929
0.133928
0.133961
0.134018
0.13408
0.134121
0.13411
0.134014
0.133814
0.133485
0.13305
0.132565
0.132112
0.131797
0.131733
0.132016
0.132705
0.133798
0.135228
0.136859
0.138492
0.139899
0.140842
0.141117
0.140578
0.139155
0.136857
0.13377
0.13004
0.12586
0.121476
0.1172
0.113423
0.110579
0.10906
0.109107
0.110724
0.113686
0.11761
0.12206
0.126641
0.131037
0.135012
0.138398
0.141065
0.142906
0.143819
0.143702
0.142431
0.139861
0.135808
0.130083
0.122517
0.113027
0.101596
0.088329
0.0729134
0.0559391
0.0338877
0.0165964
0.187556
0.136776
0.117374
0.123234
0.127962
0.128899
0.129485
0.130483
0.131484
0.132287
0.132924
0.133451
0.133889
0.134242
0.134518
0.13473
0.134886
0.134982
0.135022
0.135027
0.135025
0.135043
0.135088
0.135153
0.135221
0.135269
0.135267
0.135182
0.135
0.134686
0.134271
0.133796
0.133338
0.132997
0.132884
0.133099
0.133708
0.134721
0.136083
0.137668
0.139285
0.140706
0.141693
0.142035
0.141577
0.140237
0.138011
0.13497
0.131247
0.127027
0.122553
0.118147
0.114212
0.111205
0.10954
0.109473
0.111018
0.113945
0.117861
0.122317
0.126905
0.131301
0.135267
0.138633
0.141275
0.143087
0.143974
0.143837
0.142556
0.139988
0.135952
0.130257
0.122732
0.113296
0.101928
0.0887494
0.0734226
0.0566165
0.0344661
0.0173461
0.194064
0.13325
0.115889
0.123522
0.128208
0.129194
0.129929
0.130994
0.132023
0.132857
0.133525
0.13408
0.134544
0.134921
0.13522
0.135454
0.13563
0.135744
0.135803
0.135825
0.135838
0.135864
0.135914
0.135981
0.136051
0.1361
0.1361
0.136024
0.135835
0.135532
0.135123
0.134648
0.134179
0.133814
0.133663
0.133828
0.134381
0.135339
0.136656
0.13821
0.139815
0.141243
0.142255
0.142635
0.142223
0.140929
0.138741
0.135722
0.131999
0.127753
0.123229
0.11875
0.114728
0.111627
0.109873
0.10973
0.111218
0.114109
0.118005
0.122452
0.127036
0.131427
0.135385
0.138741
0.14137
0.143171
0.14405
0.14391
0.142635
0.140083
0.136073
0.130414
0.122935
0.113554
0.102251
0.0891561
0.0739108
0.0572573
0.0350383
0.0180581
0.20041
0.129186
0.114667
0.123775
0.128369
0.129417
0.130257
0.131355
0.132397
0.133246
0.13393
0.1345
0.134977
0.135367
0.135678
0.135924
0.13611
0.136234
0.136302
0.136332
0.136352
0.136383
0.136433
0.1365
0.136568
0.136615
0.136614
0.136535
0.136346
0.136045
0.135637
0.135158
0.134679
0.134298
0.134124
0.13426
0.13478
0.135708
0.136998
0.138533
0.140129
0.141559
0.142583
0.142983
0.142594
0.141322
0.139153
0.136146
0.132423
0.128167
0.123621
0.119111
0.115049
0.111901
0.110097
0.109904
0.111348
0.114204
0.118076
0.122505
0.127078
0.131461
0.135414
0.138766
0.141392
0.143193
0.144076
0.143945
0.142686
0.140156
0.136176
0.130554
0.12312
0.113793
0.102552
0.0895312
0.0743641
0.0578469
0.0355877
0.0187211
0.206593
0.124852
0.113734
0.123967
0.128452
0.129549
0.130449
0.13156
0.132606
0.133462
0.134154
0.13473
0.135213
0.135609
0.135927
0.136178
0.136369
0.136497
0.136569
0.136604
0.136627
0.136659
0.13671
0.136776
0.136842
0.136887
0.136884
0.136803
0.136615
0.136312
0.135901
0.135419
0.134936
0.134547
0.134362
0.134484
0.134989
0.135902
0.137178
0.138704
0.140293
0.141723
0.14275
0.143159
0.142781
0.14152
0.139362
0.136361
0.132641
0.128384
0.123833
0.119314
0.115238
0.112072
0.11024
0.110016
0.111426
0.114251
0.118094
0.122507
0.127067
0.131442
0.135391
0.138743
0.141372
0.14318
0.144074
0.143958
0.142719
0.140213
0.136263
0.130677
0.123286
0.114008
0.102825
0.0898753
0.074777
0.0583788
0.0361038
0.0193349
0.212756
0.120764
0.113099
0.124084
0.128469
0.129597
0.130528
0.131645
0.132693
0.133553
0.134248
0.134828
0.135314
0.135713
0.136033
0.136287
0.13648
0.13661
0.136684
0.136721
0.136745
0.136778
0.13683
0.136895
0.136961
0.137005
0.137
0.136918
0.13673
0.136425
0.136013
0.13553
0.135044
0.134652
0.134464
0.134581
0.135081
0.135988
0.13726
0.138779
0.140367
0.141795
0.142823
0.143234
0.142862
0.141607
0.139455
0.13646
0.132744
0.12849
0.123941
0.119423
0.115345
0.112171
0.110326
0.110081
0.111466
0.114265
0.118084
0.122479
0.127027
0.131396
0.135343
0.138697
0.141333
0.143151
0.144059
0.143962
0.142743
0.140262
0.13634
0.130787
0.123434
0.114203
0.103075
0.090189
0.0751551
0.0588599
0.0365889
0.0199168
0.218853
0.117558
0.112703
0.124133
0.128449
0.129591
0.130536
0.13166
0.132711
0.133573
0.134271
0.134852
0.135339
0.13574
0.136061
0.136317
0.136511
0.136642
0.136717
0.136755
0.13678
0.136813
0.136865
0.136931
0.136996
0.13704
0.137035
0.136952
0.136763
0.136458
0.136045
0.135561
0.135075
0.134683
0.134494
0.134611
0.135111
0.136017
0.137287
0.138804
0.140391
0.141819
0.142848
0.14326
0.142889
0.141642
0.139494
0.136503
0.132793
0.128542
0.123997
0.119481
0.115404
0.112226
0.110371
0.110111
0.111476
0.114252
0.118054
0.122435
0.126974
0.131338
0.135287
0.138647
0.14129
0.14312
0.144044
0.143965
0.142769
0.140313
0.136418
0.130896
0.123581
0.114392
0.103312
0.0904843
0.0755087
0.0593037
0.0370458
0.0204958
0.22358
0.115616
0.112478
0.12416
0.128427
0.129566
0.13052
0.13165
0.132704
0.133567
0.134266
0.134848
0.135337
0.135738
0.13606
0.136315
0.13651
0.136641
0.136717
0.136755
0.13678
0.136814
0.136866
0.136932
0.136998
0.137043
0.137037
0.136954
0.136765
0.136459
0.136045
0.135561
0.135075
0.134683
0.134495
0.134613
0.135113
0.136019
0.137289
0.138806
0.140394
0.141822
0.142853
0.143268
0.1429
0.141656
0.139512
0.136527
0.13282
0.128574
0.124031
0.119517
0.115439
0.112257
0.110392
0.110117
0.111465
0.114225
0.118012
0.122384
0.126916
0.13128
0.135231
0.138597
0.14125
0.143092
0.144031
0.14397
0.142794
0.140359
0.136489
0.130996
0.123713
0.114562
0.103524
0.0907462
0.075818
0.0596909
0.0374362
0.0210391
)
;

boundaryField
{
    inlet
    {
        type            zeroGradient;
    }
    outlet
    {
        type            fixedValue;
        value           uniform 0;
    }
    fixedWalls
    {
        type            zeroGradient;
    }
    frontAndBack
    {
        type            empty;
    }
}


// ************************************************************************* //
