/*--------------------------------*- C++ -*----------------------------------*\
| =========                 |                                                 |
| \\      /  F ield         | OpenFOAM: The Open Source CFD Toolbox           |
|  \\    /   O peration     | Version:  v1912                                 |
|   \\  /    A nd           | Website:  www.openfoam.com                      |
|    \\/     M anipulation  |                                                 |
\*---------------------------------------------------------------------------*/
FoamFile
{
    version     2.0;
    format      ascii;
    class       surfaceScalarField;
    location    "250";
    object      phi;
}
// * * * * * * * * * * * * * * * * * * * * * * * * * * * * * * * * * * * * * //

dimensions      [0 3 -1 0 0 0 0];
oriented        oriented;


internalField   nonuniform List<scalar> 
3895
(
0.000814744
0.000381432
0.000499355
0.000315388
0.000251556
0.0002478
6.48526e-05
0.000186703
-6.22081e-05
0.000127061
-0.000127357
6.51485e-05
-0.000137686
1.03299e-05
-0.000113676
-2.40109e-05
-9.02134e-05
-2.34622e-05
-8.46463e-05
-5.56709e-06
-6.6013e-05
-1.86333e-05
-4.49431e-05
-2.10699e-05
-4.04838e-05
-4.45931e-06
-4.7366e-05
6.88215e-06
-4.07153e-05
-6.65064e-06
-2.17593e-05
-1.8956e-05
-9.16205e-06
-1.25973e-05
-4.60269e-06
-4.55936e-06
-2.67176e-06
-1.93093e-06
1.25744e-06
-3.9292e-06
1.09596e-05
-9.70212e-06
2.53653e-05
-1.44058e-05
4.10017e-05
-1.56364e-05
5.40319e-05
-1.30302e-05
6.24361e-05
-8.40417e-06
6.56772e-05
-3.24111e-06
6.39799e-05
1.69726e-06
5.86683e-05
5.31161e-06
5.2161e-05
6.50733e-06
4.57968e-05
6.36413e-06
4.01424e-05
5.6545e-06
3.55956e-05
4.54674e-06
3.25151e-05
3.08046e-06
3.11922e-05
1.32294e-06
3.24656e-05
-1.27342e-06
3.6054e-05
-3.58839e-06
4.15563e-05
-5.50233e-06
4.84412e-05
-6.88487e-06
5.58286e-05
-7.38741e-06
6.25649e-05
-6.73632e-06
6.7371e-05
-4.80604e-06
6.81173e-05
-7.46323e-07
6.26502e-05
5.46714e-06
5.07743e-05
1.18759e-05
3.18153e-05
1.89589e-05
5.76543e-06
2.60499e-05
-2.64917e-05
3.22572e-05
-6.37082e-05
3.72165e-05
-0.000105081
4.13729e-05
-0.000150538
4.5457e-05
-0.000200673
5.01345e-05
-0.000255604
5.49315e-05
-0.000315212
5.96083e-05
-0.000380632
6.542e-05
-0.000453101
7.24687e-05
-0.000531104
7.80027e-05
-0.000609258
7.81546e-05
-0.000679299
7.00406e-05
-0.000731361
5.20624e-05
-0.000751553
2.01911e-05
-0.000735924
-1.5629e-05
-0.000694181
-4.17429e-05
-0.000630348
-6.38325e-05
-0.000551958
-7.83897e-05
-0.0004656
-8.63582e-05
-0.000375938
-8.96627e-05
-0.000285601
-9.0337e-05
-0.000195595
-9.00058e-05
-0.000106039
-8.95553e-05
-1.66233e-05
-8.94161e-05
7.30393e-05
-8.96626e-05
0.000163501
-9.04614e-05
0.000254823
-9.13224e-05
0.000346239
-9.14163e-05
0.000436855
-9.06161e-05
0.000526212
-8.93565e-05
0.000613997
-8.77855e-05
0.00070267
-8.86726e-05
0.000792008
-8.93384e-05
-0.00011106
0.00108795
0.000349296
0.00104738
0.000355953
0.000933267
0.000361914
0.000775724
0.000344246
0.000598394
0.000304391
0.000410347
0.000253195
0.000221222
0.000199454
5.38473e-05
0.000143364
-6.05605e-05
9.09456e-05
-0.000110346
4.42184e-05
-0.000131969
2.98969e-06
-0.000124232
-2.88071e-05
-0.000107077
-2.16138e-05
-0.000110448
1.02525e-05
-0.000108315
-8.7832e-06
-9.862e-05
-2.86511e-05
-8.70955e-05
-2.41217e-05
-8.97569e-05
-1.89803e-06
-9.74561e-05
5.7683e-06
-0.000102145
7.59843e-07
-0.00010036
-1.14873e-05
-9.33409e-05
-2.14248e-05
-8.30555e-05
-2.59218e-05
-7.02907e-05
-2.5795e-05
-5.7297e-05
-2.13979e-05
-4.57966e-05
-1.47415e-05
-3.64583e-05
-7.64106e-06
-2.95017e-05
-1.64497e-06
-2.66079e-05
3.61355e-06
-2.69298e-05
6.68598e-06
-2.94644e-05
8.18915e-06
-3.32972e-05
8.37949e-06
-3.74001e-05
7.18335e-06
-4.07495e-05
4.67236e-06
-4.26949e-05
6.7196e-07
-4.23515e-05
-3.9318e-06
-3.98501e-05
-8.00367e-06
-3.59636e-05
-1.07714e-05
-3.20185e-05
-1.13325e-05
-2.98253e-05
-8.9295e-06
-3.15605e-05
-3.07089e-06
-3.92527e-05
6.9459e-06
-5.29056e-05
1.91201e-05
-7.43977e-05
3.3368e-05
-0.000103803
4.83646e-05
-0.000139931
6.21778e-05
-0.00018058
7.29055e-05
-0.00022282
7.94569e-05
-0.000263308
8.18609e-05
-0.000298921
8.10703e-05
-0.000326878
7.80908e-05
-0.000345751
7.38049e-05
-0.000355363
6.92198e-05
-0.000355851
6.59082e-05
-0.000346581
6.31987e-05
-0.000326581
5.80032e-05
-0.00029446
4.60329e-05
-0.000248659
2.42402e-05
-0.000194221
-2.37546e-06
-0.000130531
-4.3499e-05
-6.6111e-05
-8.00492e-05
1.15595e-06
-0.00010901
6.61404e-05
-0.000128817
0.00012909
-0.00014134
0.000190233
-0.000147501
0.000249964
-0.000149394
0.000308707
-0.00014908
0.000366811
-0.00014811
0.000424672
-0.000147416
0.000482589
-0.000147333
0.00054066
-0.000147733
0.000598368
-0.00014817
0.000655038
-0.000147992
0.000710269
-0.000146648
0.000763667
-0.000144014
0.000814837
-0.000140527
0.00086406
-0.000137009
0.000910777
-0.000135389
0.000957363
-0.000135925
-0.000148372
0.000975283
0.000305928
0.00102604
0.000305195
0.00106097
0.000326987
0.00105861
0.000346604
0.00101215
0.000350847
0.000925014
0.000340335
0.000805697
0.000318771
0.000661689
0.000287373
0.000504773
0.000247861
0.000345532
0.00020346
0.000189922
0.000158599
4.72957e-05
0.000113819
-4.88245e-05
7.45064e-05
-8.51924e-05
4.66204e-05
-0.000106605
1.26293e-05
-0.00011728
-1.79764e-05
-0.000109766
-3.16358e-05
-0.000105441
-6.22267e-06
-0.00011815
1.84773e-05
-0.000132109
1.47189e-05
-0.000144257
6.60447e-07
-0.000154536
-1.11455e-05
-0.000158275
-2.21826e-05
-0.000156707
-2.73631e-05
-0.000152299
-2.58062e-05
-0.000146872
-2.01687e-05
-0.000142351
-1.21615e-05
-0.000141013
-2.98345e-06
-0.000141875
4.47534e-06
-0.00014624
1.10511e-05
-0.000153736
1.56854e-05
-0.000163053
1.76964e-05
-0.000172603
1.67337e-05
-0.000180641
1.27102e-05
-0.00018607
6.10136e-06
-0.000187946
-2.05597e-06
-0.000185963
-9.98651e-06
-0.000180441
-1.62939e-05
-0.000172917
-1.88569e-05
-0.000165591
-1.62546e-05
-0.000161164
-7.49836e-06
-0.000159711
5.49261e-06
-0.000164094
2.35034e-05
-0.000175384
4.46575e-05
-0.000193317
6.62979e-05
-0.000216275
8.51358e-05
-0.000241233
9.78641e-05
-0.00026373
0.000101954
-0.000278471
9.66017e-05
-0.000280411
8.30102e-05
-0.000265484
6.31641e-05
-0.000232735
4.10564e-05
-0.000181332
1.78162e-05
-0.000114019
-1.40435e-06
-3.14091e-05
-1.94115e-05
6.11013e-05
-3.45072e-05
0.000155857
-4.87223e-05
0.000245392
-6.52953e-05
0.00032842
-8.54034e-05
0.000394541
-0.00010962
0.000448044
-0.000133552
0.000492529
-0.000153494
0.000531688
-0.000167977
0.000567869
-0.00017752
0.000603254
-0.000182887
0.000638918
-0.000185057
0.000675103
-0.000185265
0.000711586
-0.000184594
0.000747903
-0.000183733
0.000783462
-0.000182892
0.000817589
-0.00018186
0.000849585
-0.000180166
0.0008789
-0.000177307
0.000905236
-0.000172983
0.000928508
-0.000167286
0.000948747
-0.000160765
0.000966197
-0.000154459
0.000980489
-0.000149681
0.000992658
-0.000148094
-0.000153067
0.000857109
0.000271376
0.000897356
0.000264948
0.000950166
0.000274177
0.00100471
0.000292063
0.00104637
0.000309183
0.0010653
0.000321412
0.00105661
0.000327459
0.00101787
0.000326108
0.000949432
0.000316302
0.00085489
0.000298002
0.000740642
0.000272848
0.00061158
0.000242881
0.000476216
0.000209871
0.000348067
0.000174769
0.000223211
0.000137486
0.000102006
0.000103229
4.99597e-07
6.98705e-05
-5.07726e-05
4.50496e-05
-6.36717e-05
3.13763e-05
-6.88988e-05
1.9946e-05
-7.84507e-05
1.02123e-05
-9.1596e-05
1.9999e-06
-0.000108819
-4.95928e-06
-0.000127222
-8.96037e-06
-0.000141742
-1.12862e-05
-0.000151136
-1.07742e-05
-0.000157132
-6.1661e-06
-0.000161739
1.62381e-06
-0.000167189
9.92533e-06
-0.000174109
1.79707e-05
-0.000182704
2.4281e-05
-0.000192294
2.7286e-05
-0.000201587
2.60267e-05
-0.000208907
2.00304e-05
-0.000211993
9.18742e-06
-0.000211667
-2.38229e-06
-0.000205547
-1.6106e-05
-0.000193004
-2.88376e-05
-0.000175605
-3.62553e-05
-0.000154943
-3.6917e-05
-0.000132939
-2.95025e-05
-0.000113317
-1.41294e-05
-9.44001e-05
4.58687e-06
-7.89118e-05
2.91692e-05
-6.70629e-05
5.4449e-05
-5.78589e-05
7.59317e-05
-4.95195e-05
8.95247e-05
-3.96684e-05
9.21024e-05
-2.51679e-05
8.21011e-05
-1.77551e-06
5.96178e-05
3.47348e-05
2.66538e-05
8.3812e-05
-8.02087e-06
0.000145168
-4.35396e-05
0.000218136
-7.43722e-05
0.000298046
-9.93221e-05
0.000381997
-0.000118457
0.00046654
-0.000133266
0.00054724
-0.000145995
0.000620208
-0.000158371
0.000681642
-0.000171055
0.000731304
-0.000183214
0.000771218
-0.000193408
0.00080401
-0.000200769
0.000831698
-0.000205208
0.000855895
-0.000207084
0.000877779
-0.000206941
0.000897947
-0.000205433
0.000916491
-0.000203137
0.000933143
-0.000200385
0.000947452
-0.0001972
0.000958949
-0.000193357
0.000967307
-0.000188524
0.000972438
-0.000182439
0.000974512
-0.000175057
0.000973879
-0.000166653
0.000970928
-0.000157815
0.000965973
-0.000149503
0.000958944
-0.000142652
0.000949872
-0.000139022
-0.000138997
0.000759397
0.000238013
0.000790536
0.000233809
0.000828353
0.000236361
0.000874989
0.000245426
0.000927007
0.000257164
0.000978877
0.000269542
0.00102441
0.000281922
0.00105753
0.000292987
0.00107314
0.000300693
0.00106778
0.000303369
0.00104028
0.000300347
0.000991315
0.000291841
0.000922857
0.00027833
0.000838335
0.000259291
0.000740865
0.000234955
0.00063582
0.000208274
0.000531233
0.000174457
0.000433268
0.000143014
0.000348803
0.000115842
0.000276517
9.2232e-05
0.0002143
7.24291e-05
0.000160238
5.60619e-05
0.000112327
4.29524e-05
7.10324e-05
3.23339e-05
3.63969e-05
2.33493e-05
9.57296e-06
1.60497e-05
-7.84595e-06
1.12528e-05
-1.61398e-05
9.91768e-06
-1.85456e-05
1.23311e-05
-1.83325e-05
1.77576e-05
-1.76777e-05
2.36261e-05
-1.73485e-05
2.69568e-05
-1.70103e-05
2.56885e-05
-1.56231e-05
1.86432e-05
-1.20738e-05
5.63818e-06
-5.79006e-06
-8.66607e-06
3.59167e-06
-2.54877e-05
1.53888e-05
-4.06347e-05
3.11848e-05
-5.20513e-05
5.17258e-05
-5.74581e-05
7.76609e-05
-5.54375e-05
0.000108948
-4.54162e-05
0.000142241
-2.87069e-05
0.000178315
-6.90463e-06
0.000216468
1.62957e-05
0.000256472
3.59285e-05
0.000298594
4.74024e-05
0.000343729
4.69679e-05
0.000392925
3.29044e-05
0.000446186
6.35705e-06
0.000501917
-2.90768e-05
0.000561099
-6.72037e-05
0.000621153
-0.000103593
0.000681086
-0.000134305
0.000739377
-0.000157614
0.000794666
-0.000173747
0.000845631
-0.00018423
0.00089083
-0.000191195
0.000928969
-0.000196509
0.000959154
-0.00020124
0.000981461
-0.000205521
0.000996914
-0.000208861
0.0010069
-0.00021075
0.00101268
-0.000210991
0.0010153
-0.000209701
0.0010155
-0.000207145
0.00101371
-0.000203639
0.00101002
-0.000199455
0.00100438
-0.000194738
0.000996643
-0.000189466
0.000986781
-0.000183495
0.000974909
-0.000176652
0.000961319
-0.000168849
0.000946424
-0.000160162
0.000930659
-0.000150889
0.000914365
-0.00014152
0.000897673
-0.000132812
0.000880422
-0.0001254
0.000862112
-0.000120712
-0.000118292
0.000672434
0.000206416
0.000702275
0.000203967
0.000733373
0.000205263
0.000767842
0.000210957
0.000806619
0.000218387
0.000850045
0.000226117
0.000897313
0.000234654
0.000946044
0.000244257
0.000992649
0.000254088
0.00103305
0.000262968
0.00106347
0.00026993
0.00108111
0.000274199
0.00108431
0.000275126
0.00107183
0.000271774
0.0010433
0.000263487
0.00100043
0.000251139
0.000948235
0.000226655
0.000890766
0.000200483
0.000831093
0.000175514
0.000771641
0.000151684
0.000714446
0.000129624
0.000660684
0.000109824
0.000611167
9.24691e-05
0.000566157
7.73438e-05
0.000525312
6.41948e-05
0.000488285
5.30762e-05
0.000455313
4.42248e-05
0.000427492
3.77395e-05
0.000406392
3.34302e-05
0.000393462
3.06877e-05
0.000388882
2.82065e-05
0.000391452
2.43872e-05
0.000399203
1.79374e-05
0.000409939
7.90661e-06
0.000421207
-5.62963e-06
0.000433064
-2.05234e-05
0.000442836
-3.52589e-05
0.00044987
-4.76686e-05
0.000454026
-5.62077e-05
0.000456439
-5.98709e-05
0.000459306
-5.83046e-05
0.000465815
-5.19253e-05
0.000478948
-4.18401e-05
0.000501437
-2.93931e-05
0.000534299
-1.6567e-05
0.000576709
-6.48133e-06
0.00062665
-2.53811e-06
0.000682091
-8.47303e-06
0.000740675
-2.56798e-05
0.000799654
-5.26217e-05
0.000855925
-8.53485e-05
0.000907611
-0.00011889
0.000953071
-0.000149052
0.000991779
-0.000173013
0.00102381
-0.00018964
0.00104948
-0.000199422
0.00106916
-0.000203905
0.00108299
-0.000205028
0.001091
-0.000204518
0.00109325
-0.000203493
0.0010901
-0.000202372
0.00108229
-0.000201047
0.00107076
-0.000199222
0.00105646
-0.00019669
0.00104017
-0.00019341
0.00102247
-0.000189453
0.00100377
-0.000184934
0.000984271
-0.000179956
0.000964096
-0.000174563
0.000943353
-0.000168724
0.000922203
-0.000162345
0.000900883
-0.000155332
0.00087968
-0.000147646
0.000858877
-0.000139358
0.000838675
-0.000130688
0.000819136
-0.000121981
0.000800129
-0.000113805
0.000781288
-0.000106559
0.000762082
-0.000101506
-9.76124e-05
0.000594386
0.000177667
0.00062317
0.000175182
0.000652324
0.000176109
0.000682117
0.000181165
0.000712928
0.000187576
0.000745619
0.000193425
0.000781191
0.000199082
0.000820209
0.000205238
0.000862434
0.000211863
0.000906739
0.000218663
0.000951259
0.000225411
0.000993713
0.000231745
0.00103177
0.000237074
0.00106301
0.000240526
0.00108528
0.000241218
0.00109743
0.000238989
0.00109959
0.000224498
0.00109345
0.000206621
0.00108058
0.000188391
0.00106244
0.000169816
0.00104069
0.000151375
0.00101684
0.000133672
0.000992198
0.000117116
0.000967657
0.000101885
0.000943774
8.80787e-05
0.000920992
7.5858e-05
0.000899845
6.53711e-05
0.000881029
5.65562e-05
0.000865441
4.90177e-05
0.000854137
4.1992e-05
0.00084793
3.4413e-05
0.000847075
2.52426e-05
0.000851206
1.38064e-05
0.000859162
-4.9254e-08
0.000869086
-1.55541e-05
0.000879448
-3.08855e-05
0.000888723
-4.45341e-05
0.000896059
-5.50044e-05
0.000901062
-6.12109e-05
0.000903888
-6.26961e-05
0.000905233
-5.96504e-05
0.000906246
-5.29385e-05
0.000908432
-4.40261e-05
0.00091381
-3.47705e-05
0.000924641
-2.73977e-05
0.000942613
-2.44536e-05
0.000968268
-2.81931e-05
0.000999849
-4.00544e-05
0.00103401
-5.98396e-05
0.00106691
-8.55248e-05
0.00109528
-0.000113718
0.00111706
-0.000140664
0.00113132
-0.000163321
0.00113823
-0.000179922
0.00113865
-0.000190054
0.0011337
-0.000194477
0.00112446
-0.000194662
0.00111171
-0.000192281
0.00109597
-0.000188778
0.00107759
-0.000185114
0.00105693
-0.000181706
0.00103443
-0.000178548
0.00101063
-0.00017543
0.000986083
-0.000172139
0.000961226
-0.000168553
0.000936408
-0.000164635
0.000911867
-0.000160393
0.000887755
-0.000155844
0.000864174
-0.000150982
0.000841217
-0.000145766
0.000818991
-0.00014012
0.000797619
-0.000133959
0.000777207
-0.000127234
0.00075781
-0.000119961
0.000739391
-0.000112269
0.000721796
-0.000104386
0.000704759
-9.67684e-05
0.000687836
-8.96354e-05
0.000670664
-8.43339e-05
-7.89682e-05
0.000525111
0.000151817
0.000551937
0.000148357
0.000579147
0.000148899
0.00060647
0.000153842
0.00063401
0.000160035
0.000661959
0.000165476
0.000690637
0.000170404
0.000720618
0.000175257
0.000752555
0.000179926
0.000786906
0.000184312
0.000823774
0.000188543
0.000862809
0.00019271
0.000903193
0.000196689
0.000943638
0.000200081
0.000982498
0.000202358
0.00101826
0.000203232
0.00104859
0.000194159
0.0010731
0.000182111
0.001092
0.0001695
0.00110563
0.000156179
0.00111462
0.000142392
0.00111971
0.000128583
0.00112169
0.000115134
0.00112127
0.000102301
0.00111908
9.02701e-05
0.00111572
7.92185e-05
0.00111184
6.92536e-05
0.00110812
6.02733e-05
0.00110526
5.18752e-05
0.00110388
4.33779e-05
0.00110433
3.39616e-05
0.00110661
2.29592e-05
0.00111024
1.01765e-05
0.00111433
-4.14045e-06
0.00111775
-1.89776e-05
0.00111979
-3.29168e-05
0.00111995
-4.4702e-05
0.0011182
-5.32461e-05
0.00111485
-5.78671e-05
0.00111061
-5.84495e-05
0.0011064
-5.54448e-05
0.00110329
-4.98317e-05
0.00110229
-4.30261e-05
0.00110425
-3.67243e-05
0.00110964
-3.2792e-05
0.00111832
-3.31298e-05
0.00112937
-3.92415e-05
0.00114103
-5.17185e-05
0.00115105
-6.98641e-05
0.00115723
-9.16965e-05
0.00115793
-0.000114421
0.00115247
-0.000135203
0.00114105
-0.000151904
0.00112457
-0.000163435
0.00110426
-0.000169744
0.00108138
-0.000171598
0.00105695
-0.000170231
0.00103164
-0.000166978
0.00100584
-0.000162977
0.000979724
-0.000158996
0.000953416
-0.000155397
0.000927081
-0.000152214
0.000900946
-0.000149294
0.000875252
-0.000146445
0.000850217
-0.000143518
0.000826005
-0.000140423
0.000802722
-0.00013711
0.000780428
-0.00013355
0.000759151
-0.000129706
0.000738906
-0.000125521
0.000719701
-0.000120914
0.000701532
-0.000115791
0.000684368
-0.00011007
0.00066812
-0.000103713
0.000652629
-9.67779e-05
0.000637664
-8.9421e-05
0.000622937
-8.20418e-05
0.00060806
-7.47579e-05
0.000592803
-6.90774e-05
-6.21626e-05
0.00046394
0.000128552
0.00048864
0.000123657
0.000513481
0.000124058
0.000538161
0.000129162
0.000563126
0.00013507
0.000588451
0.000140151
0.000613979
0.000144877
0.000639776
0.00014946
0.000666101
0.000153601
0.000693273
0.000157141
0.000721653
0.000160162
0.000751586
0.000162777
0.000783271
0.000165004
0.000816623
0.00016673
0.000851212
0.000167769
0.000886409
0.000168035
0.000920082
0.000160486
0.000951343
0.000150849
0.000979801
0.000141042
0.00100516
0.000130823
0.0010273
0.00012025
0.00104631
0.000109571
0.00106241
9.90393e-05
0.00107587
8.88412e-05
0.00108702
7.91203e-05
0.00109624
6.99983e-05
0.00110397
6.15244e-05
0.00111066
5.35788e-05
0.00111672
4.58165e-05
0.00112239
3.77059e-05
0.00112768
2.86683e-05
0.00113235
1.82951e-05
0.00113592
6.60088e-06
0.00113781
-6.02614e-06
0.00113751
-1.86798e-05
0.00113488
-3.02846e-05
0.00113002
-3.98413e-05
0.00112335
-4.65761e-05
0.00111555
-5.00702e-05
0.00110746
-5.0362e-05
0.00109996
-4.79418e-05
0.00109382
-4.36952e-05
0.00108962
-3.8821e-05
0.00108761
-3.47168e-05
0.00108768
-3.28599e-05
0.00108919
-3.46402e-05
0.00109099
-4.10371e-05
0.00109152
-5.2257e-05
0.0010892
-6.75374e-05
0.00108273
-8.52262e-05
0.00107148
-0.00010317
0.00105554
-0.00011927
0.00103562
-0.00013198
0.00101273
-0.000140545
0.000987968
-0.000144983
0.00096229
-0.000145919
0.00093639
-0.000144331
0.000910689
-0.000141278
0.000885387
-0.000137675
0.000860551
-0.000134161
0.000836212
-0.000131058
0.000812418
-0.00012842
0.000789258
-0.000126134
0.00076684
-0.000124027
0.000745262
-0.000121941
0.000724596
-0.000119757
0.000704882
-0.000117396
0.000686131
-0.000114798
0.000668331
-0.000111906
0.00065146
-0.00010865
0.000635484
-0.000104939
0.000620353
-0.000100659
0.000605979
-9.56959e-05
0.000592225
-8.99592e-05
0.000578899
-8.34518e-05
0.000565774
-7.62962e-05
0.000552602
-6.88691e-05
0.00053911
-6.12666e-05
0.000525109
-5.50762e-05
-4.67293e-05
0.000410014
0.000107502
0.000432754
0.000100916
0.000455184
0.000101628
0.000477154
0.000107192
0.000499459
0.000112766
0.000522209
0.000117401
0.000545212
0.000121874
0.000568453
0.000126218
0.000591958
0.000130097
0.000615712
0.000133387
0.00063976
0.000136114
0.000664245
0.000138292
0.000689362
0.000139887
0.000715271
0.000140821
0.000742036
0.000141004
0.000769634
0.000140437
0.000796778
0.000133342
0.000822981
0.000124646
0.000848005
0.000116018
0.000871555
0.000107273
0.000893387
9.84173e-05
0.00091336
8.95981e-05
0.000931426
8.09738e-05
0.000947608
7.2659e-05
0.000961994
6.47349e-05
0.000974734
5.72583e-05
0.000986032
5.02257e-05
0.000996101
4.35101e-05
0.00100509
3.68283e-05
0.00101301
2.97802e-05
0.00101972
2.19624e-05
0.00102489
1.31221e-05
0.00102816
3.32979e-06
0.00102917
-7.02829e-06
0.00102775
-1.72597e-05
0.00102398
-2.65133e-05
0.00101816
-3.40212e-05
0.00101081
-3.92349e-05
0.00100264
-4.18978e-05
0.000994389
-4.21089e-05
0.000986767
-4.03193e-05
0.00098035
-3.72786e-05
0.000975492
-3.39626e-05
0.000972253
-3.14785e-05
0.000970347
-3.09536e-05
0.000969098
-3.33916e-05
0.000967508
-3.94469e-05
0.00096443
-4.9179e-05
0.000958821
-6.19283e-05
0.000949987
-7.63918e-05
0.000937722
-9.09054e-05
0.000922294
-0.000103841
0.000904285
-0.000113972
0.000884413
-0.000120673
0.000863375
-0.000123945
0.000841748
-0.000124293
0.000819955
-0.000122538
0.000798266
-0.000119589
0.000776837
-0.000116245
0.000755751
-0.000113075
0.00073507
-0.000110376
0.000714858
-0.000108208
0.000695197
-0.000106473
0.000676171
-0.000105001
0.000657853
-0.000103622
0.000640292
-0.000102196
0.000623511
-0.000100615
0.000607508
-9.87957e-05
0.000592266
-9.66639e-05
0.000577752
-9.41366e-05
0.000563926
-9.11127e-05
0.000550725
-8.74575e-05
0.000538045
-8.30166e-05
0.000525741
-7.76543e-05
0.000513627
-7.13381e-05
0.000501525
-6.4194e-05
0.00048925
-5.65948e-05
0.000476672
-4.86883e-05
0.000463559
-4.19635e-05
-3.25273e-05
0.000362528
8.82944e-05
0.000383496
7.99479e-05
0.000403598
8.15266e-05
0.000423066
8.77235e-05
0.000442884
9.29483e-05
0.000463083
9.72014e-05
0.000483533
0.000101424
0.00050431
0.000105442
0.000525438
0.000108968
0.000546831
0.000111993
0.000568403
0.000114542
0.00059011
0.000116585
0.000611938
0.000118059
0.000633885
0.000118873
0.000655955
0.000118935
0.000678166
0.000118226
0.000699614
0.000111894
0.000720102
0.000104158
0.000739629
9.64907e-05
0.000758115
8.87872e-05
0.00077546
8.10725e-05
0.00079159
7.34675e-05
0.000806467
6.6097e-05
0.000820081
5.90446e-05
0.000832459
5.23576e-05
0.000843663
4.60542e-05
0.000853788
4.01003e-05
0.000862927
3.43708e-05
0.000871123
2.86328e-05
0.000878321
2.25825e-05
0.000884349
1.59341e-05
0.000888937
8.53432e-06
0.000891813
4.53543e-07
0.000892757
-7.97264e-06
0.000891693
-1.61957e-05
0.000888712
-2.35322e-05
0.000884084
-2.93932e-05
0.000878235
-3.33856e-05
0.000871698
-3.53613e-05
0.000865045
-3.54559e-05
0.000858809
-3.40827e-05
0.000853414
-3.18836e-05
0.000849113
-2.96619e-05
0.000845937
-2.83022e-05
0.000843659
-2.86763e-05
0.000841794
-3.15266e-05
0.00083965
-3.73032e-05
0.00083646
-4.59884e-05
0.00083154
-5.70083e-05
0.000824437
-6.92893e-05
0.000814999
-8.14666e-05
0.000803342
-9.2185e-05
0.000789766
-0.000100395
0.00077464
-0.000105548
0.000758338
-0.000107643
0.0007412
-0.000107154
0.000723514
-0.000104853
0.000705523
-0.000101597
0.000687422
-9.81438e-05
0.00066937
-9.50232e-05
0.0006515
-9.25071e-05
0.000633931
-9.06392e-05
0.000616767
-8.93088e-05
0.000600098
-8.83318e-05
0.000583991
-8.75148e-05
0.000568484
-8.66892e-05
0.000553591
-8.57224e-05
0.000539303
-8.45083e-05
0.000525599
-8.29595e-05
0.000512446
-8.09831e-05
0.000499801
-7.84681e-05
0.000487602
-7.52582e-05
0.000475752
-7.11674e-05
0.00046413
-6.6032e-05
0.000452601
-5.98093e-05
0.000441065
-5.2658e-05
0.00042942
-4.49495e-05
0.000417663
-3.69308e-05
0.000405485
-2.97858e-05
-1.97525e-05
0.000320758
7.05696e-05
0.000340087
6.06185e-05
0.000357963
6.36508e-05
0.000375208
7.04786e-05
0.000392823
7.53333e-05
0.000410695
7.9329e-05
0.000428765
8.33545e-05
0.000447174
8.70326e-05
0.000465956
9.01858e-05
0.000485048
9.29013e-05
0.000504382
9.52082e-05
0.000523896
9.70714e-05
0.000543514
9.844e-05
0.00056315
9.9238e-05
0.000582707
9.93771e-05
0.000602114
9.88189e-05
0.000620523
9.34847e-05
0.000637776
8.69051e-05
0.00065393
8.03373e-05
0.000668997
7.37201e-05
0.000682978
6.70916e-05
0.000695882
6.05637e-05
0.00070773
5.42488e-05
0.000718555
4.82196e-05
0.000728402
4.251e-05
0.000737336
3.71209e-05
0.00074543
3.20057e-05
0.000752754
2.70473e-05
0.000759335
2.20513e-05
0.000765135
1.67824e-05
0.000770032
1.1038e-05
0.000773838
4.72825e-06
0.00077635
-2.05921e-06
0.000777404
-9.02643e-06
0.000776915
-1.57061e-05
0.000774933
-2.15507e-05
0.00077164
-2.61005e-05
0.000767331
-2.90762e-05
0.000762384
-3.04146e-05
0.000757217
-3.02885e-05
0.000752229
-2.90951e-05
0.000747753
-2.74077e-05
0.000744004
-2.59123e-05
0.000741038
-2.53363e-05
0.000738731
-2.63694e-05
0.000736773
-2.95683e-05
0.000734703
-3.52331e-05
0.000731995
-4.32804e-05
0.000728162
-5.31756e-05
0.000722849
-6.39768e-05
0.000715876
-7.44927e-05
0.000707216
-8.3525e-05
0.000696948
-9.01277e-05
0.000685208
-9.38072e-05
0.000672164
-9.45989e-05
0.000658018
-9.30089e-05
0.000643007
-8.9841e-05
0.000627381
-8.59715e-05
0.000611388
-8.21511e-05
0.000595252
-7.88869e-05
0.00057916
-7.64156e-05
0.000563266
-7.47447e-05
0.000547687
-7.37296e-05
0.000532509
-7.31543e-05
0.000517788
-7.2794e-05
0.00050355
-7.24503e-05
0.000489793
-7.19656e-05
0.000476499
-7.12145e-05
0.00046364
-7.01005e-05
0.000451182
-6.85253e-05
0.000439089
-6.6375e-05
0.000427314
-6.34834e-05
0.000415801
-5.96539e-05
0.000404489
-5.47199e-05
0.000393328
-4.86486e-05
0.000382309
-4.1639e-05
0.000371403
-3.40436e-05
0.000360699
-2.62264e-05
0.000349807
-1.88936e-05
-8.79436e-06
0.000284047
5.3996e-05
0.000301804
4.28609e-05
0.000317588
4.78673e-05
0.000332895
5.51717e-05
0.000348562
5.96659e-05
0.000364361
6.35303e-05
0.000380328
6.73872e-05
0.000396622
7.07386e-05
0.000413253
7.35553e-05
0.000430169
7.59846e-05
0.000447335
7.80426e-05
0.00046471
7.96965e-05
0.000482234
8.09154e-05
0.000499827
8.16457e-05
0.000517387
8.18171e-05
0.000534815
8.1391e-05
0.000551303
7.69968e-05
0.000566669
7.15391e-05
0.000580946
6.60594e-05
0.000594151
6.0515e-05
0.000606299
5.49442e-05
0.000617416
4.94463e-05
0.000627544
4.41211e-05
0.000636731
3.90322e-05
0.000645037
3.42047e-05
0.000652528
2.96293e-05
0.000659279
2.52545e-05
0.000665354
2.09725e-05
0.000670788
1.66176e-05
0.000675566
1.20047e-05
0.000679611
6.99296e-06
0.000682797
1.5416e-06
0.000684973
-4.23541e-06
0.000686003
-1.00559e-05
0.000685809
-1.55124e-05
0.000684414
-2.01551e-05
0.000681934
-2.36207e-05
0.000678575
-2.57176e-05
0.000674613
-2.64528e-05
0.000670363
-2.60381e-05
0.000666137
-2.48693e-05
0.000662207
-2.3477e-05
0.00065876
-2.24653e-05
0.00065587
-2.24472e-05
0.000653478
-2.39768e-05
0.000651382
-2.74727e-05
0.000649271
-3.31219e-05
0.000646774
-4.07832e-05
0.000643532
-4.99336e-05
0.000639253
-5.96978e-05
0.000633732
-6.89715e-05
0.000626837
-7.66306e-05
0.000618492
-8.17829e-05
0.000608673
-8.39881e-05
0.000597431
-8.33563e-05
0.00058491
-8.04877e-05
0.000571342
-7.62732e-05
0.000557013
-7.16431e-05
0.000542219
-6.73565e-05
0.000527222
-6.38907e-05
0.000512239
-6.1432e-05
0.000497427
-5.99334e-05
0.000482899
-5.92013e-05
0.000468723
-5.89781e-05
0.000454934
-5.90045e-05
0.000441536
-5.90531e-05
0.000428516
-5.8945e-05
0.000415842
-5.85412e-05
0.000403486
-5.77438e-05
0.000391418
-5.6458e-05
0.000379624
-5.45807e-05
0.000368096
-5.19554e-05
0.000356841
-4.83991e-05
0.000345884
-4.37621e-05
0.000335261
-3.80257e-05
0.000325037
-3.14156e-05
0.000315227
-2.42332e-05
0.000305964
-1.69634e-05
0.000296802
-9.7321e-06
-2.19514e-08
0.000251798
3.82841e-05
0.000267991
2.66676e-05
0.000281862
3.3997e-05
0.000295503
4.15307e-05
0.000309436
4.5733e-05
0.000323395
4.9571e-05
0.000337526
5.32561e-05
0.00035197
5.62943e-05
0.000366707
5.88187e-05
0.000381691
6.10002e-05
0.000396898
6.28357e-05
0.000412298
6.42969e-05
0.000427844
6.53688e-05
0.000443476
6.60139e-05
0.000459115
6.61778e-05
0.000474677
6.58293e-05
0.000489431
6.22431e-05
0.000503198
5.7772e-05
0.000515996
5.32616e-05
0.00052783
4.86807e-05
0.000538709
4.40653e-05
0.000548653
3.95025e-05
0.000557695
3.5079e-05
0.000565878
3.08485e-05
0.000573256
2.68273e-05
0.000579887
2.29981e-05
0.000585835
1.93064e-05
0.000591155
1.56523e-05
0.000595882
1.18911e-05
0.000600011
7.87607e-06
0.000603491
3.51227e-06
0.000606234
-1.20122e-06
0.000608128
-6.12922e-06
0.000609071
-1.09987e-05
0.000609001
-1.54431e-05
0.000607927
-1.90803e-05
0.000605926
-2.16202e-05
0.000603149
-2.29403e-05
0.000599803
-2.31071e-05
0.000596135
-2.23699e-05
0.000592397
-2.11313e-05
0.000588815
-1.98954e-05
0.000585556
-1.92065e-05
0.0005827
-1.95903e-05
0.000580219
-2.14966e-05
0.000577983
-2.52364e-05
0.000575767
-3.09063e-05
0.000573294
-3.83099e-05
0.000570271
-4.69105e-05
0.000566422
-5.58483e-05
0.000561496
-6.40462e-05
0.000555279
-7.0413e-05
0.000547605
-7.41087e-05
0.000538398
-7.47816e-05
0.000527707
-7.26655e-05
0.000515712
-6.84921e-05
0.000502692
-6.32539e-05
0.000488977
-5.79278e-05
0.000474883
-5.32624e-05
0.000460676
-4.9684e-05
0.000446555
-4.73108e-05
0.000432651
-4.603e-05
0.000419044
-4.55936e-05
0.000405769
-4.57031e-05
0.000392833
-4.60692e-05
0.000380223
-4.64424e-05
0.000367909
-4.66313e-05
0.00035586
-4.64926e-05
0.000344052
-4.59357e-05
0.000332474
-4.48797e-05
0.000321138
-4.32447e-05
0.000310085
-4.09024e-05
0.000299387
-3.77016e-05
0.000289145
-3.352e-05
0.000279464
-2.8344e-05
0.00027045
-2.24022e-05
0.000262128
-1.59109e-05
0.000254647
-9.48265e-06
0.00024754
-2.62519e-06
6.39235e-06
0.000223468
2.31984e-05
0.000238065
1.20709e-05
0.000250246
2.18156e-05
0.000262461
2.93157e-05
0.000274842
3.33527e-05
0.000287181
3.72316e-05
0.000299713
4.07242e-05
0.00031254
4.34673e-05
0.00032562
4.5739e-05
0.000338916
4.77042e-05
0.000352408
4.93437e-05
0.000366067
5.06375e-05
0.000379853
5.15825e-05
0.000393715
5.21521e-05
0.00040759
5.23032e-05
0.000421408
5.20117e-05
0.000434521
4.91296e-05
0.000446771
4.55225e-05
0.000458171
4.18613e-05
0.000468727
3.81246e-05
0.000478445
3.43474e-05
0.000487339
3.0608e-05
0.000495436
2.69827e-05
0.000502768
2.35163e-05
0.000509378
2.02174e-05
0.000515314
1.70624e-05
0.000520626
1.39943e-05
0.000525357
1.09205e-05
0.000529538
7.71052e-06
0.000533165
4.24856e-06
0.000536206
4.72065e-07
0.000538596
-3.59134e-06
0.000540253
-7.78654e-06
0.000541097
-1.1843e-05
0.000541075
-1.54208e-05
0.000540181
-1.81867e-05
0.000538469
-1.99079e-05
0.000536049
-2.05203e-05
0.000533085
-2.01432e-05
0.000529778
-1.90626e-05
0.000526339
-1.76925e-05
0.000522962
-1.65185e-05
0.000519793
-1.60371e-05
0.000516904
-1.67013e-05
0.00051428
-1.88725e-05
0.000511812
-2.27689e-05
0.000509309
-2.84033e-05
0.000506517
-3.55175e-05
0.000503145
-4.35393e-05
0.000498897
-5.16001e-05
0.000493494
-5.86431e-05
0.000486717
-6.36355e-05
0.000478447
-6.58389e-05
0.000468702
-6.50365e-05
0.000457639
-6.1603e-05
0.000445529
-5.6382e-05
0.0004327
-5.04245e-05
0.000419478
-4.47061e-05
0.000406144
-3.99277e-05
0.000392903
-3.6443e-05
0.000379887
-3.42956e-05
0.000367168
-3.33102e-05
0.000354768
-3.31941e-05
0.000342685
-3.36202e-05
0.000330898
-3.42822e-05
0.000319377
-3.49217e-05
0.000308092
-3.53461e-05
0.000297016
-3.54164e-05
0.000286135
-3.5055e-05
0.000275456
-3.42002e-05
0.000265015
-3.28037e-05
0.000254892
-3.07792e-05
0.000245211
-2.80211e-05
0.000236129
-2.44378e-05
0.000227791
-2.00064e-05
0.000220324
-1.49345e-05
0.000213736
-9.32303e-06
0.000208183
-3.92992e-06
0.000203201
2.35661e-06
1.05079e-05
0.00019856
8.56741e-06
0.000211522