/*--------------------------------*- C++ -*----------------------------------*\
| =========                 |                                                 |
| \\      /  F ield         | OpenFOAM: The Open Source CFD Toolbox           |
|  \\    /   O peration     | Version:  v1912                                 |
|   \\  /    A nd           | Website:  www.openfoam.com                      |
|    \\/     M anipulation  |                                                 |
\*---------------------------------------------------------------------------*/
FoamFile
{
    version     2.0;
    format      ascii;
    class       volVectorField;
    location    "250";
    object      U;
}
// * * * * * * * * * * * * * * * * * * * * * * * * * * * * * * * * * * * * * //

dimensions      [0 1 -1 0 0 0 0];


internalField   nonuniform List<vector> 
2000
(
(0.84616 0.187395 0)
(0.51513 0.12409 0)
(0.223442 0.0684431 0)
(0.0597989 0.0174437 6.19938e-20)
(-0.00455787 -0.0232177 1.27828e-17)
(-0.0642212 -0.0384572 1.10833e-17)
(-0.0776271 -0.0372357 0)
(-0.071617 -0.016731 0)
(-0.059061 0.0115076 0)
(-0.0420396 0.0252769 2.51558e-17)
(-0.0414194 0.0109348 -1.54206e-17)
(-0.0273638 -0.000747881 -1.44757e-17)
(-0.0165505 -0.00295267 0)
(-0.0197964 -0.00264506 0)
(-0.0206879 -0.00236121 -1.15043e-17)
(-0.0139844 -0.00101915 0)
(-0.00520486 0.000390833 1.03786e-17)
(-0.0020166 0.00355833 5.60797e-21)
(-0.00137074 0.00433635 1.00808e-17)
(-0.000480514 0.00237574 -4.97741e-18)
(0.00162824 -0.000778076 9.80262e-18)
(0.00614744 -0.0029788 0)
(0.0115642 -0.00390183 0)
(0.0167153 -0.00388762 -2.68877e-22)
(0.0205062 -0.00307213 0)
(0.0225071 -0.00169569 -4.62414e-18)
(0.0225805 -0.000116583 0)
(0.0209401 0.00121547 4.62391e-18)
(0.0185314 0.00209546 0)
(0.0161263 0.00245505 0)
(0.0140337 0.00237334 0)
(0.0123257 0.00200247 1.18068e-18)
(0.0110604 0.00146645 0)
(0.0103386 0.000857799 -6.01553e-19)
(0.0103446 0.000252905 2.01799e-14)
(0.0111622 -0.000364072 2.02363e-14)
(0.0126766 -0.000929882 6.28179e-19)
(0.0147438 -0.00137117 -6.3849e-19)
(0.0171445 -0.00163659 0)
(0.0195495 -0.00168793 2.64595e-18)
(0.0215923 -0.00148469 0)
(0.0226432 -0.00104646 -2.7258e-18)
(0.0220627 -0.000304274 0)
(0.0193797 0.000967425 -5.59035e-18)
(0.0142872 0.00272804 2.80622e-18)
(0.00668263 0.0045602 0)
(-0.00343432 0.0058809 0)
(-0.0156108 0.00642653 -2.69211e-18)
(-0.0294673 0.00644159 0)
(-0.0449156 0.00656871 2.47792e-18)
(-0.0621349 0.00756971 0)
(-0.0816848 0.00943708 4.84238e-18)
(-0.103789 0.0114935 -4.79741e-18)
(-0.128596 0.0137708 4.78209e-18)
(-0.156947 0.0156786 -2.33248e-18)
(-0.189289 0.0150178 0)
(-0.224587 0.00977395 2.2402e-18)
(-0.260446 -0.000931087 -2.13517e-18)
(-0.292657 -0.0168246 -4.40597e-18)
(-0.314914 -0.0356632 4.00274e-18)
(-0.321357 -0.0519832 -4.27763e-18)
(-0.313172 -0.0617434 4.8482e-18)
(-0.295757 -0.065978 -5.72141e-18)
(-0.269539 -0.066293 6.8239e-18)
(-0.237594 -0.0642324 5.07085e-20)
(-0.201683 -0.0606567 9.87424e-18)
(-0.162987 -0.0561292 0)
(-0.121873 -0.0509635 0)
(-0.0782344 -0.0453531 1.00356e-19)
(-0.0320527 -0.0394481 0)
(0.016399 -0.0332744 2.08163e-17)
(0.0680036 -0.0265357 0)
(0.12425 -0.0187405 1.96138e-17)
(0.184822 -0.00957011 -4.907e-19)
(0.249489 0.00102197 1.67965e-17)
(0.319888 0.0128864 2.92451e-17)
(0.392386 0.0256924 7.17534e-19)
(0.480194 0.0390632 -9.99362e-18)
(0.546475 0.0511331 -6.4426e-18)
(0.70647 0.0619332 0)
(1.0153 0.210385 0)
(0.944632 0.194216 0)
(0.804469 0.17999 -3.70493e-18)
(0.654409 0.15232 7.6641e-18)
(0.509205 0.111176 0)
(0.360009 0.0683807 -7.75069e-18)
(0.216465 0.0293393 0)
(0.0821003 -0.00527341 0)
(-0.0282841 -0.0180886 0)
(-0.0563129 -0.0189842 -1.84037e-17)
(-0.0668647 -0.0247075 1.67409e-17)
(-0.0719023 -0.0154648 1.53536e-17)
(-0.0639206 0.00658531 0)
(-0.0520195 0.019596 6.7127e-18)
(-0.0563464 0.00770457 0)
(-0.0513843 -0.00566117 0)
(-0.0421377 -0.00724196 0)
(-0.0379111 -0.00431871 5.54857e-18)
(-0.041205 -0.00218186 -1.09077e-17)
(-0.0428287 -0.00232004 -5.37007e-18)
(-0.0429192 -0.00408704 0)
(-0.0405443 -0.00679264 0)
(-0.036325 -0.00839358 0)
(-0.0309294 -0.00789621 -7.78639e-18)
(-0.0251452 -0.00548905 0)
(-0.0199183 -0.00218079 5.2361e-18)
(-0.0153508 0.000963489 2.63824e-18)
(-0.0118618 0.00310963 0)
(-0.0102129 0.00392582 0)
(-0.0098458 0.00409486 0)
(-0.0104417 0.00388663 0)
(-0.0116164 0.00335087 -6.70487e-19)
(-0.0130578 0.00240919 0)
(-0.0144122 0.000991488 3.41914e-19)
(-0.0153778 -0.000815426 1.71546e-19)
(-0.0156469 -0.00289178 0)
(-0.015093 -0.00495255 0)
(-0.0138662 -0.00658827 7.25163e-19)
(-0.0123623 -0.00731679 0)
(-0.0111731 -0.00674489 -1.52131e-18)
(-0.0110621 -0.00461171 0)
(-0.012872 -0.000897437 -1.60443e-18)
(-0.0169808 0.00448734 0)
(-0.0238642 0.0112309 1.50277e-18)
(-0.0339523 0.0186716 1.55667e-18)
(-0.0471135 0.0258621 0)
(-0.0628095 0.0319665 0)
(-0.0801488 0.0365944 -2.6658e-18)
(-0.0978613 0.0399428 0)
(-0.114311 0.0424028 -1.40299e-19)
(-0.128174 0.0441793 0)
(-0.138912 0.0454514 0)
(-0.146271 0.0468316 0)
(-0.15017 0.0492171 0)
(-0.150833 0.0519867 5.13322e-18)
(-0.148207 0.052751 0)
(-0.141214 0.048544 -5.49773e-18)
(-0.129427 0.0373339 2.84623e-18)
(-0.113566 0.0195083 -2.86299e-18)
(-0.0837937 -0.00173257 -6.11777e-18)
(-0.0395087 -0.0263126 6.84558e-18)
(-0.0160147 -0.0541592 -8.00606e-18)
(0.018044 -0.0734693 9.18046e-18)
(0.0518143 -0.0841441 0)
(0.0850772 -0.0877551 -1.66436e-17)
(0.11944 -0.0866728 -1.19767e-17)
(0.155378 -0.0830578 0)
(0.193093 -0.0783961 6.60111e-18)
(0.232912 -0.0734831 1.38577e-17)
(0.275253 -0.0686175 0)
(0.320494 -0.0636961 0)
(0.368841 -0.0583043 0)
(0.420238 -0.0518778 0)
(0.474653 -0.0439018 -1.33565e-17)
(0.53198 -0.0341389 5.82361e-18)
(0.593055 -0.0227007 -1.14817e-17)
(0.65607 -0.0102635 9.93111e-18)
(0.728639 0.0023158 -3.41204e-18)
(0.786599 0.0122944 0)
(0.905397 0.0169322 0)
(0.978489 0.20154 0)
(0.978855 0.193013 -2.96908e-18)
(0.969154 0.205122 3.65501e-18)
(0.939079 0.208546 -3.228e-18)
(0.878022 0.194624 3.05155e-18)
(0.785582 0.168738 3.01285e-18)
(0.669316 0.138096 0)
(0.540958 0.106033 0)
(0.408153 0.0750607 0)
(0.285832 0.0459147 7.30414e-18)
(0.17364 0.0179808 0)
(0.072018 -0.00640462 0)
(-0.0210933 -0.013708 0)
(-0.0460372 -0.0031849 -7.63731e-18)
(-0.0506398 -0.0113168 0)
(-0.0596896 -0.0176743 -6.41277e-18)
(-0.0618388 -0.0105259 0)
(-0.0537456 0.00884869 6.19253e-18)
(-0.0549558 0.0147535 3.01755e-18)
(-0.0610849 0.00947826 0)
(-0.0658826 0.00100235 -2.89795e-18)
(-0.0704349 -0.00715802 0)
(-0.0722014 -0.0120201 0)
(-0.0715334 -0.0134531 5.58288e-18)
(-0.069047 -0.0124643 0)
(-0.0657521 -0.0099524 1.40525e-18)
(-0.0626706 -0.00652994 -4.2299e-18)
(-0.0607223 -0.00268459 0)
(-0.0601949 0.00101486 0)
(-0.0610264 0.00392662 -7.0769e-19)
(-0.063348 0.00594819 0)
(-0.0667242 0.00686587 -3.70951e-21)
(-0.0705393 0.00652997 0)
(-0.0741048 0.00492103 6.97664e-19)
(-0.0768314 0.00223646 8.71943e-20)
(-0.0783183 -0.000949013 0)
(-0.0782657 -0.00424348 1.80756e-19)
(-0.0766758 -0.00679056 -3.74055e-19)
(-0.0739679 -0.00762703 -3.9026e-19)
(-0.0709293 -0.00606878 -8.17313e-19)
(-0.0685889 -0.00175516 8.53926e-19)
(-0.0676201 0.00532957 8.02306e-19)
(-0.0687035 0.0146188 0)
(-0.0727572 0.0255565 1.66443e-18)
(-0.0800327 0.036884 -3.32351e-18)
(-0.0901796 0.0469226 0)
(-0.102259 0.0540395 -1.50379e-18)
(-0.114619 0.0572689 2.81849e-18)
(-0.124764 0.0567325 0)
(-0.12984 0.0534683 -1.40284e-18)
(-0.127662 0.0488213 1.13451e-18)
(-0.117144 0.0438887 -1.15835e-18)
(-0.0977012 0.0391606 -1.2539e-18)
(-0.069904 0.0350811 0)
(-0.0349791 0.0320158 -3.39458e-18)
(0.00602683 0.0285909 -1.75647e-18)
(0.0517973 0.0228715 1.67617e-18)
(0.100169 0.011497 1.68272e-18)
(0.149018 -0.00717249 2.94908e-18)
(0.19401 -0.0306239 0)
(0.232391 -0.0537068 0)
(0.265099 -0.072929 0)
(0.294035 -0.0872059 -1.82508e-18)
(0.322084 -0.0966027 0)
(0.35096 -0.101376 4.33189e-18)
(0.381561 -0.102421 0)
(0.414374 -0.101036 -2.49391e-18)
(0.449582 -0.0984469 -5.36039e-18)
(0.487164 -0.0955053 0)
(0.526963 -0.0925808 -2.74216e-18)
(0.568735 -0.0895867 2.75917e-18)
(0.612183 -0.0861241 0)
(0.65701 -0.0816601 0)
(0.703076 -0.0757506 0)
(0.750293 -0.0682914 -5.29945e-18)
(0.799235 -0.0595863 0)
(0.848929 -0.0505723 -1.85724e-18)
(0.90417 -0.042246 3.29752e-18)
(0.948975 -0.0374078 0)
(1.03424 -0.0372462 3.91133e-19)
(0.970611 0.209119 0)
(0.963917 0.194772 1.62969e-18)
(0.966431 0.198525 0)
(0.977154 0.206425 1.78624e-18)
(0.982035 0.208908 -3.17726e-18)
(0.968289 0.204294 -1.42397e-18)
(0.930733 0.193755 0)
(0.870721 0.177903 0)
(0.791061 0.156602 0)
(0.695302 0.131361 1.43319e-18)
(0.589305 0.10545 1.46754e-18)
(0.479832 0.0807271 0)
(0.369012 0.0580171 0)
(0.266497 0.0376446 0)
(0.179505 0.0185248 0)
(0.100237 0.00264086 6.79604e-18)
(0.0298531 -0.00962524 -3.59159e-18)
(-0.0300771 -0.0083585 0)
(-0.0328079 0.00237039 -3.47246e-18)
(-0.0360903 0.00394756 1.70474e-18)
(-0.0385178 0.00189478 3.37625e-18)
(-0.0431363 -0.00256032 0)
(-0.0512786 -0.00674521 0)
(-0.0607923 -0.00883425 -3.2079e-18)
(-0.0685632 -0.00828501 0)
(-0.0734304 -0.00563371 -1.57786e-18)
(-0.0761207 -0.001737 1.57847e-18)
(-0.0780106 0.00250699 0)
(-0.079761 0.0065096 0)
(-0.0822904 0.00995974 7.77997e-19)
(-0.0856605 0.0124696 0)
(-0.089724 0.0135455 -7.62138e-19)
(-0.0939823 0.0127631 0)
(-0.0977305 0.00993432 -1.93994e-19)
(-0.100079 0.00525701 -9.58325e-20)
(-0.10065 -0.000597232 -2.35593e-20)
(-0.0990032 -0.00658423 -2.95403e-19)
(-0.0945204 -0.0113549 4.11179e-19)
(-0.0874381 -0.013572 4.30773e-19)
(-0.0784806 -0.0124089 1.37423e-18)
(-0.0684856 -0.00730002 -4.62148e-19)
(-0.0587923 0.00179091 4.76671e-19)
(-0.0500745 0.0140876 0)
(-0.042514 0.0280232 1.09342e-18)
(-0.0367995 0.0419944 9.60136e-19)
(-0.0326989 0.0538809 0)
(-0.0293901 0.0613461 1.86195e-18)
(-0.0254957 0.062426 8.61752e-19)
(-0.0194163 0.0562095 0)
(-0.00948481 0.0432279 -2.30647e-18)
(0.00744575 0.0250082 -1.55276e-18)
(0.0322919 0.00439024 8.4407e-19)
(0.0633749 -0.0157949 1.48864e-18)
(0.100632 -0.03362 0)
(0.1436 -0.048004 7.16449e-19)
(0.191321 -0.0590987 2.26243e-18)
(0.242517 -0.0680593 1.49544e-18)
(0.295358 -0.0765349 -1.44423e-18)
(0.347343 -0.0856303 -7.36179e-19)
(0.39591 -0.0959305 0)
(0.439242 -0.106327 0)
(0.477209 -0.115557 0)
(0.511099 -0.122644 2.47105e-18)
(0.542675 -0.127288 9.1202e-19)
(0.573312 -0.129672 0)
(0.603907 -0.130269 -2.09643e-18)
(0.635063 -0.129668 2.26322e-18)
(0.667107 -0.128397 -2.3136e-18)
(0.700059 -0.126775 -2.389e-18)
(0.733697 -0.12484 1.14247e-19)
(0.767683 -0.122372 -2.60073e-18)
(0.801705 -0.118994 0)
(0.835587 -0.114336 0)
(0.869396 -0.108194 0)
(0.903333 -0.100686 0)
(0.938083 -0.0922578 0)
(0.973246 -0.0838576 3.60974e-18)
(1.01215 -0.0763198 -1.32403e-18)
(1.04399 -0.0721145 0)
(1.10273 -0.0705547 -4.19352e-19)
(0.972988 0.216083 0)
(0.965832 0.201814 1.98917e-18)
(0.959207 0.195611 2.63259e-19)
(0.961491 0.195562 2.01269e-18)
(0.972673 0.197559 0)
(0.985526 0.199265 -1.70007e-18)
(0.992502 0.199333 0)
(0.988448 0.196297 -3.83264e-19)
(0.970194 0.189084 0)
(0.935578 0.17763 -1.70277e-18)
(0.884637 0.162839 -1.3192e-18)
(0.819471 0.145766 -3.34251e-19)
(0.743082 0.126816 3.31923e-19)
(0.657744 0.106179 0)
(0.568725 0.0853569 3.32236e-19)
(0.478843 0.0663487 0)
(0.392898 0.0504123 2.81471e-18)
(0.313544 0.0365814 -3.71893e-19)
(0.246751 0.0246819 0)
(0.192409 0.0152382 -2.00203e-18)
(0.14814 0.00831006 0)
(0.110941 0.00368538 0)
(0.0796452 0.000924621 0)
(0.0525431 -0.00123705 0)
(0.0299603 -0.003235 -2.34605e-19)
(0.0120992 -0.00440087 0)
(-0.000740767 -0.00359872 0)
(-0.00775384 -0.000277252 1.23454e-19)
(-0.0104006 0.00431298 0)
(-0.010913 0.00918965 0)
(-0.0105383 0.013007 0)
(-0.0100544 0.0146454 -5.84476e-20)
(-0.00975442 0.013663 0)
(-0.00902511 0.0098645 -2.61795e-19)
(-0.00760174 0.00338347 0)
(-0.00479907 -0.00537653 2.999e-20)
(-0.000519804 -0.0143535 1.53108e-19)
(0.00553103 -0.0220311 3.15221e-20)
(0.0133028 -0.0270055 -6.64975e-20)
(0.02297 -0.028074 -5.53879e-19)
(0.035281 -0.0243135 -5.77597e-19)
(0.0507633 -0.0154229 5.96764e-19)
(0.0685102 -0.00175224 -1.56807e-19)
(0.0877129 0.0143709 -1.17517e-18)
(0.108541 0.0304745 1.10895e-18)
(0.130959 0.0441337 -1.31376e-19)
(0.155097 0.052858 0)
(0.181588 0.0545257 -8.03158e-19)
(0.211342 0.048005 0)
(0.244885 0.0331394 6.05729e-19)
(0.281423 0.0112339 0)
(0.320162 -0.014847 5.00925e-19)
(0.361285 -0.040986 0)
(0.403905 -0.0640103 -1.2794e-19)
(0.447237 -0.0826433 -5.55097e-19)
(0.490632 -0.0968034 -5.88317e-19)
(0.533436 -0.107359 1.55433e-19)
(0.574884 -0.115738 0)
(0.614063 -0.123252 6.33057e-19)
(0.650042 -0.130646 -1.70905e-19)
(0.682192 -0.137794 0)
(0.71054 -0.144079 1.89078e-19)
(0.735752 -0.14892 -7.84262e-19)
(0.758781 -0.152102 -8.56544e-19)
(0.780505 -0.153719 0)
(0.801577 -0.154021 2.00919e-18)
(0.822414 -0.153321 0)
(0.843212 -0.151907 2.26449e-18)
(0.863968 -0.149946 2.36561e-18)
(0.884559 -0.147425 2.44601e-18)
(0.904864 -0.144178 2.97725e-19)
(0.924874 -0.139971 0)
(0.944758 -0.134633 0)
(0.964897 -0.128157 0)
(0.985735 -0.120778 -2.71056e-19)
(1.00802 -0.112964 0)
(1.03151 -0.105512 -1.63928e-18)
(1.05877 -0.0991118 1.6143e-18)
(1.08134 -0.0955117 1.01912e-19)
(1.12473 -0.0940612 4.4345e-20)
(0.974194 0.218516 -1.30219e-18)
(0.970935 0.206369 1.25955e-18)
(0.96512 0.198182 -2.97901e-19)
(0.961141 0.194127 0)
(0.962201 0.191963 0)
(0.968268 0.190572 0)
(0.977783 0.189922 0)
(0.988517 0.18953 1.32275e-18)
(0.997445 0.188372 0)
(1.00094 0.185442 -1.18224e-18)
(0.995765 0.180065 -1.47517e-18)
(0.979807 0.172039 3.39079e-19)
(0.952598 0.161594 1.02163e-18)
(0.914184 0.148826 0)
(0.865389 0.133942 -1.56212e-18)
(0.807862 0.118074 0)
(0.745544 0.102735 -1.24771e-18)
(0.682986 0.088283 3.12351e-19)
(0.622167 0.0747215 -1.30224e-18)
(0.565209 0.0624141 -1.00072e-18)
(0.512927 0.0515353 0)
(0.465536 0.0421018 0)
(0.42312 0.034003 -7.18713e-19)
(0.385575 0.0270842 0)
(0.35262 0.0211646 -5.74433e-19)
(0.32367 0.0161336 0)
(0.29817 0.0120284 0)
(0.276112 0.00914816 -1.03043e-19)
(0.258229 0.00795736 0)
(0.245524 0.00852754 0)
(0.238643 0.0100863 0)
(0.237274 0.0112331 5.0902e-20)
(0.240093 0.0106442 1.98506e-19)
(0.245648 0.00735179 1.221e-19)
(0.252607 0.000993951 0)
(0.260131 -0.0077218 0)
(0.267439 -0.0172226 -2.48862e-20)
(0.273283 -0.0260473 -1.30785e-19)
(0.277454 -0.0331685 5.51701e-20)
(0.28025 -0.0375843 0)
(0.282617 -0.0385104 0)
(0.286273 -0.0355617 -2.68178e-19)
(0.293291 -0.0288846 1.36267e-19)
(0.30573 -0.0186857 -5.51239e-19)
(0.325149 -0.00654131 5.25223e-19)
(0.351765 0.00462356 1.19104e-19)
(0.384824 0.0113719 0)
(0.423311 0.0106901 3.6655e-19)
(0.466057 0.000917875 0)
(0.511548 -0.0173066 0)
(0.557593 -0.0411663 0)
(0.602285 -0.0669944 0)
(0.644518 -0.0916639 0)
(0.683558 -0.112772 1.11235e-19)
(0.719194 -0.129063 0)
(0.751591 -0.140491 5.52857e-19)
(0.780997 -0.147944 -1.42172e-19)
(0.807549 -0.152766 0)
(0.831191 -0.156243 6.56751e-19)
(0.851741 -0.159226 1.64384e-19)
(0.869098 -0.16199 7.29996e-19)
(0.883438 -0.164385 -1.87052e-19)
(0.895257 -0.166139 0)
(0.905242 -0.167081 -8.94869e-19)
(0.914073 -0.167186 0)
(0.922303 -0.166534 0)
(0.930319 -0.16525 -1.08069e-18)
(0.938366 -0.163445 0)
(0.946581 -0.161166 0)
(0.95506 -0.158363 -1.2167e-18)
(0.963939 -0.154922 -3.22612e-19)
(0.973453 -0.15072 0)
(0.983954 -0.145699 0)
(0.995897 -0.139922 0)
(1.0097 -0.133617 3.01765e-19)
(1.02593 -0.127159 -1.03129e-18)
(1.04422 -0.121143 -2.36548e-19)
(1.06666 -0.116079 -1.84965e-19)
(1.08551 -0.113157 -1.15277e-19)
(1.12337 -0.111916 -2.36365e-19)
(0.974501 0.219012 4.59213e-18)
(0.973757 0.208041 -4.40801e-18)
(0.971715 0.200434 0)
(0.969161 0.196224 -2.67259e-18)
(0.967057 0.192956 0)
(0.966172 0.189338 -2.35805e-18)
(0.96743 0.185852 0)
(0.971685 0.183054 3.14031e-18)
(0.979 0.180792 -3.90121e-18)
(0.988314 0.178567 1.78421e-18)
(0.997731 0.175884 1.66863e-18)
(1.00502 0.172294 0)
(1.00816 0.167446 -4.50983e-18)
(1.00549 0.160918 -2.87094e-18)
(0.995604 0.152366 4.03871e-18)
(0.977752 0.142093 0)
(0.95293 0.130973 1.2384e-18)
(0.923571 0.119742 0)
(0.891474 0.108545 1.23178e-18)
(0.85794 0.0973259 1.22945e-18)
(0.823992 0.0862844 0)
(0.790584 0.0757317 0)
(0.75855 0.0659247 -6.7213e-19)
(0.728513 0.0569884 0)
(0.700781 0.0489477 6.56974e-19)
(0.675427 0.0418586 0)
(0.652498 0.0358299 0)
(0.632178 0.0308976 0)
(0.614856 0.0268889 0)
(0.6011 0.0233757 0)
(0.591529 0.0197287 0)
(0.586511 0.0152922 0)
(0.585874 0.00956397 1.74727e-19)
(0.589192 0.00225073 -8.2049e-20)
(0.595182 -0.00642508 4.18099e-20)
(0.602492 -0.0154853 0)
(0.610112 -0.0240605 0)
(0.617148 -0.0311992 8.75563e-20)
(0.623134 -0.0361077 -3.8197e-19)
(0.628009 -0.0383145 4.04931e-19)
(0.63205 -0.0377565 0)
(0.63589 -0.0348204 1.11527e-18)
(0.640458 -0.0303577 -9.16016e-19)
(0.646987 -0.0254586 -4.57552e-19)
(0.657068 -0.0213604 -4.47635e-19)
(0.672479 -0.0195194 0)
(0.694539 -0.0216408 0)
(0.723065 -0.0292141 -1.00185e-18)
(0.756247 -0.0428152 0)
(0.791276 -0.0616696 0)
(0.825234 -0.0837142 0)
(0.85592 -0.106156 4.67331e-19)
(0.88211 -0.126468 9.51676e-19)
(0.903422 -0.142892 0)
(0.920156 -0.154698 0)
(0.933039 -0.162161 -5.49586e-19)
(0.942894 -0.16623 0)
(0.950394 -0.168128 1.32975e-18)
(0.955968 -0.168964 7.34054e-19)
(0.959834 -0.169489 0)
(0.962132 -0.170014 8.30089e-19)
(0.963068 -0.170512 1.71641e-18)
(0.962986 -0.170811 1.84049e-18)
(0.962332 -0.170753 9.73522e-19)
(0.961567 -0.170267 -2.11003e-18)
(0.961088 -0.16936 2.24502e-18)
(0.961198 -0.168068 3.57013e-18)
(0.962125 -0.16643 0)
(0.964047 -0.164453 0)
(0.967138 -0.1621 1.36576e-18)
(0.971601 -0.159301 0)
(0.977697 -0.155985 2.72969e-18)
(0.98573 -0.152119 2.699e-18)
(0.996029 -0.147743 0)
(1.00881 -0.143009 2.46025e-18)
(1.02442 -0.138172 -1.05825e-18)
(1.04228 -0.133669 0)
(1.0642 -0.129857 0)
(1.08265 -0.12766 0)
(1.11952 -0.126622 -1.88674e-19)
(0.974733 0.218939 -3.53408e-18)
(0.975458 0.208206 3.38258e-18)
(0.976058 0.201067 -6.56156e-18)
(0.975939 0.197379 3.0227e-18)
(0.974879 0.194478 0)
(0.973207 0.19081 2.66687e-18)
(0.971497 0.186616 -5.10188e-18)
(0.970487 0.182381 -4.73503e-18)
(0.971015 0.178185 -7.90017e-20)
(0.973736 0.174025 0)
(0.978856 0.169969 0)
(0.986039 0.165988 3.78954e-18)
(0.99447 0.161854 3.47349e-18)
(1.00298 0.157151 -3.4473e-18)
(1.01013 0.151486 -9.37828e-18)
(1.01448 0.144762 0)
(1.01514 0.137276 0)
(1.01214 0.129313 0)
(1.00597 0.120828 0)
(0.997068 0.111778 0)
(0.985922 0.102367 0)
(0.973126 0.0929117 0)
(0.959343 0.0836779 1.30385e-18)
(0.94518 0.0748224 -2.72118e-18)
(0.931116 0.066448 0)
(0.917529 0.0586711 0)
(0.904785 0.0515891 0)
(0.893291 0.0451806 0)
(0.883492 0.0392401 0)
(0.875823 0.0333848 -6.92983e-19)
(0.87062 0.0271077 0)
(0.867989 0.0199315 0)
(0.867709 0.0115461 1.51286e-20)
(0.869208 0.0019626 0)
(0.871461 -0.00835801 -3.91002e-20)
(0.873706 -0.0186302 0)
(0.875439 -0.0280285 1.71843e-19)
(0.876404 -0.0357355 0)
(0.876671 -0.0411354 7.37978e-19)
(0.876631 -0.0439478 -3.85555e-19)
(0.876923 -0.0442628 -8.25628e-19)
(0.878346 -0.0425403 -8.51016e-19)
(0.881747 -0.0395683 8.72007e-19)
(0.887915 -0.0363874 8.72372e-19)
(0.897495 -0.0343308 1.7036e-18)
(0.910798 -0.0350086 1.62291e-18)
(0.927563 -0.0399063 0)
(0.94679 -0.0499078 -7.3289e-19)
(0.966789 -0.064872 0)
(0.985521 -0.0834926 0)
(1.00113 -0.103612 -1.10612e-18)
(1.0124 -0.122863 -4.77153e-19)
(1.01898 -0.139352 1.18819e-19)
(1.02121 -0.151985 0)
(1.01996 -0.160519 0)
(1.01628 -0.165428 0)
(1.01115 -0.167619 1.40635e-18)
(1.00531 -0.168135 -1.45432e-18)
(0.999208 -0.167888 -1.55898e-18)
(0.993028 -0.167508 0)
(0.98685 -0.167298 -1.78907e-18)
(0.980761 -0.167296 4.70318e-20)
(0.974928 -0.167394 -2.06989e-18)
(0.969605 -0.167455 2.25519e-18)
(0.965081 -0.167379 -1.66321e-20)
(0.961621 -0.167117 -2.54403e-18)
(0.95945 -0.16665 -2.69317e-18)
(0.958746 -0.165968 0)
(0.959663 -0.165056 0)
(0.96235 -0.163876 0)
(0.96697 -0.162368 0)
(0.973707 -0.160463 -3.09968e-18)
(0.982745 -0.158108 -3.06211e-18)
(0.994256 -0.155296 0)
(1.00828 -0.152105 -2.78661e-18)
(1.02496 -0.148703 4.9563e-18)
(1.04362 -0.145428 0)
(1.06586 -0.142532 0)
(1.0845 -0.140893 0)
(1.12066 -0.139705 8.92053e-19)
(0.975035 0.218504 8.74731e-18)
(0.977128 0.20748 0)
(0.979624 0.200816 1.50117e-17)
(0.980945 0.197732 0)
(0.980752 0.195195 6.54127e-18)
(0.979846 0.191843 0)
(0.978667 0.187935 5.7654e-18)
(0.977198 0.183701 0)
(0.975626 0.179045 -5.29774e-18)
(0.974471 0.173966 0)
(0.974317 0.16864 9.34775e-18)
(0.975647 0.163229 -4.33166e-18)
(0.978763 0.15777 0)
(0.983688 0.152165 7.69826e-18)
(0.990078 0.146265 -1.86006e-19)
(0.99728 0.139988 -7.0245e-18)
(1.00444 0.133464 6.80382e-18)
(1.01085 0.126766 0)
(1.01615 0.119728 0)
(1.02005 0.112237 6.37906e-18)
(1.02239 0.104364 0)
(1.02319 0.0962803 -3.10211e-18)
(1.02263 0.0881505 0)
(1.02101 0.0800991 2.94896e-18)
(1.01861 0.0722341 0)
(1.01573 0.0646612 3.05105e-18)
(1.0127 0.0574474 0)
(1.00989 0.050557 0)
(1.00763 0.0438112 1.51793e-18)
(1.00619 0.0368943 7.26789e-19)
(1.00566 0.0294175 0)
(1.00588 0.0210522 0)
(1.00651 0.0116689 -1.08812e-18)
(1.00698 0.00150259 0)
(1.00674 -0.00891917 0)
(1.00541 -0.0189052 0)
(1.00294 -0.0277605 -1.80102e-19)
(0.999528 -0.0348911 0)
(0.995617 -0.0399193 -1.21068e-18)
(0.991864 -0.042769 -8.50619e-19)
(0.989031 -0.0436812 8.71512e-19)
(0.987867 -0.0431985 0)
(0.989003 -0.0421318 0)
(0.992854 -0.041497 1.85765e-18)
(0.999555 -0.0424339 -1.80137e-18)
(1.00886 -0.0460569 -1.71951e-18)
(1.02001 -0.0531855 0)
(1.03175 -0.0640763 -9.32259e-20)
(1.04249 -0.0782346 1.47404e-18)
(1.05069 -0.0944444 0)
(1.05523 -0.111054 1.21027e-18)
(1.05564 -0.126416 1.32156e-18)
(1.05218 -0.139276 -1.22701e-18)
(1.04561 -0.148984 0)
(1.03693 -0.155489 0)
(1.02711 -0.159231 0)
(1.01698 -0.160941 -1.58934e-18)
(1.0071 -0.161431 0)
(0.997773 -0.161413 0)
(0.989125 -0.161387 0)
(0.981187 -0.161605 4.28741e-18)
(0.973995 -0.162111 -2.24524e-18)
(0.96764 -0.162822 0)
(0.962276 -0.163619 -2.57143e-18)
(0.958091 -0.1644 -2.78236e-18)
(0.955268 -0.165101 5.82565e-18)
(0.95397 -0.165686 -6.10738e-18)
(0.954334 -0.16613 -6.35509e-18)
(0.95648 -0.166406 0)
(0.960523 -0.166471 -6.69878e-18)
(0.966585 -0.166258 0)
(0.974791 -0.165686 0)
(0.985247 -0.164673 0)
(0.998021 -0.163164 6.35298e-18)
(1.01303 -0.161168 -5.9395e-18)
(1.03031 -0.158795 -8.09521e-18)
(1.04913 -0.156326 0)
(1.07099 -0.153969 3.53217e-18)
(1.08921 -0.152602 0)
(1.12365 -0.150986 -1.45459e-18)
(0.975434 0.217691 -9.92213e-18)
(0.979143 0.206094 -9.65055e-18)
(0.983425 0.200252 -1.72769e-17)
(0.985584 0.198007 0)
(0.985492 0.195694 -1.48701e-17)
(0.984795 0.192435 -7.08059e-18)
(0.984213 0.188754 0)
(0.983471 0.184757 1.26201e-17)
(0.982379 0.180243 1.17886e-17)
(0.981068 0.17516 0)
(0.979751 0.1696 -1.05717e-17)
(0.978671 0.16366 0)
(0.978146 0.157403 0)
(0.978512 0.150857 9.15182e-18)
(0.979995 0.144023 8.48933e-18)
(0.982662 0.136936 -1.81396e-19)
(0.986371 0.129801 1.8353e-19)
(0.990848 0.122759 0)
(0.995789 0.115694 0)
(1.00083 0.108477 -7.30931e-18)
(1.00559 0.101085 -7.39329e-18)
(1.00983 0.0935835 1.08394e-17)
(1.01345 0.0860548 3.61339e-18)
(1.01643 0.0785738 3.58706e-18)
(1.01885 0.0712078 0)
(1.02083 0.0640165 -3.44469e-18)
(1.02252 0.0570255 0)
(1.02413 0.0501828 0)
(1.02582 0.0433317 -3.45836e-18)
(1.02766 0.0362244 0)
(1.02956 0.0285874 0)
(1.03127 0.0202224 0)
(1.03237 0.0111348 8.23698e-19)
(1.03244 0.00157122 -4.27865e-19)
(1.0312 -0.00805189 2.13789e-19)
(1.02849 -0.0171887 0)
(1.02449 -0.0253087 0)
(1.01958 -0.031998 0)
(1.01432 -0.0370228 9.1327e-19)
(1.00942 -0.0403841 9.52873e-19)
(1.00562 -0.0423284 -2.01224e-18)
(1.00357 -0.0433269 0)
(1.00375 -0.0440354 0)
(1.00641 -0.0452299 -4.18819e-18)
(1.0115 -0.0477346 -2.08378e-18)
(1.01856 -0.0523271 0)
(1.02673 -0.0595697 0)
(1.03485 -0.0696043 1.77176e-18)
(1.04164 -0.0820219 1.03589e-19)
(1.04603 -0.0958938 0)
(1.04736 -0.109977 0)
(1.04555 -0.123019 -1.50437e-18)
(1.04096 -0.134051 0)
(1.03425 -0.142549 0)
(1.02616 -0.148457 0)
(1.01736 -0.152108 0)
(1.0084 -0.154078 0)
(0.999664 -0.155029 -4.09685e-18)
(0.99139 -0.155555 0)
(0.983711 -0.156094 0)
(0.976711 -0.156887 9.31092e-20)
(0.970473 -0.158003 0)
(0.965109 -0.159393 0)
(0.96077 -0.160962 0)
(0.957623 -0.162611 1.25839e-17)
(0.955832 -0.164262 -6.60282e-18)
(0.955539 -0.165858 6.91375e-18)
(0.956862 -0.167355 2.71359e-21)
(0.959903 -0.168709 0)
(0.964757 -0.169864 7.55617e-18)
(0.97152 -0.170747 -7.56555e-18)
(0.980285 -0.171261 0)
(0.991101 -0.171289 0)
(1.00396 -0.170722 -1.07021e-19)
(1.01871 -0.169517 6.6913e-18)
(1.03532 -0.16776 6.03505e-18)
(1.05312 -0.165701 0)
(1.07357 -0.163586 -4.00244e-18)
(1.09055 -0.162213 0)
(1.12251 -0.16008 1.0933e-18)
(0.975986 0.216475 0)
(0.981693 0.204218 2.2218e-17)
(0.987771 0.199654 1.97691e-17)
(0.990445 0.198421 0)
(0.990129 0.196251 8.44892e-18)
(0.989281 0.192994 -8.16563e-18)
(0.988787 0.189416 0)
(0.988302 0.185498 -1.42701e-17)
(0.98764 0.181045 0)
(0.986892 0.176056 0)
(0.986094 0.17059 0)
(0.985219 0.164676 0)
(0.984306 0.158324 0)
(0.983478 0.151537 1.8204e-19)
(0.982882 0.144324 -9.99931e-18)
(0.982669 0.136737 -1.81376e-19)
(0.982983 0.129026 1.82902e-19)
(0.983923 0.121416 0)
(0.985477 0.113878 0)
(0.987506 0.106328 0)
(0.989799 0.0987494 -2.04399e-19)
(0.992167 0.0911852 2.08487e-19)
(0.994493 0.0836915 -4.13768e-18)
(0.99672 0.0763134 -4.10857e-18)
(0.998833 0.0690835 0)
(1.00085 0.0620229 -4.17624e-18)
(1.00285 0.055125 4.16188e-18)
(1.0049 0.0483278 0)
(1.00706 0.0414976 2.01069e-18)
(1.00932 0.0344452 2.05503e-18)
(1.01152 0.0269788 0)
(1.01337 0.018978 0)
(1.0145 0.0104769 1.018e-18)
(1.01462 0.0016537 -1.78245e-20)
(1.0135 -0.00715224 -4.96901e-19)
(1.0111 -0.0154985 0)
(1.00757 -0.0229721 0)
(1.00328 -0.0292705 -1.06455e-18)
(0.998747 -0.034241 0)
(0.994573 -0.0379183 -1.13152e-18)
(0.991379 -0.0405326 -3.50118e-20)
(0.989714 -0.0424891 0)
(0.989982 -0.0443306 2.42386e-18)
(0.992374 -0.0466898 4.83533e-18)
(0.996812 -0.0502257 2.37313e-18)
(1.00291 -0.0555342 0)
(1.00998 -0.0630107 -4.58609e-18)
(1.0171 -0.0727024 0)
(1.02335 -0.08423 -2.01739e-18)
(1.02791 -0.0968238 0)
(1.03032 -0.109479 0)
(1.03046 -0.121182 0)
(1.0285 -0.131131 0)
(1.02479 -0.138878 0)
(1.01974 -0.144361 -4.05361e-18)
(1.01375 -0.14786 4.23324e-18)
(1.00716 -0.149881 0)
(1.00029 -0.151022 4.64479e-18)
(0.993405 -0.151832 -5.03915e-18)
(0.986731 -0.152722 0)
(0.980462 -0.153929 -5.63202e-18)
(0.974777 -0.155528 0)
(0.969855 -0.157479 0)
(0.965875 -0.159682 0)
(0.963009 -0.16203 -7.13753e-18)
(0.961409 -0.164428 7.54187e-18)
(0.961199 -0.166799 -7.84939e-18)
(0.962475 -0.169084 1.62078e-17)
(0.965313 -0.171226 -8.31456e-18)
(0.969786 -0.173163 0)
(0.975964 -0.174812 8.51992e-18)
(0.983903 -0.17605 -8.41398e-18)
(0.993613 -0.176725 0)
(1.00505 -0.176684 -8.19314e-20)
(1.01806 -0.175852 -7.34875e-18)
(1.03266 -0.174335 0)
(1.0483 -0.172384 0)
(1.0666 -0.170354 -4.41082e-18)
(1.08179 -0.1688 0)
(1.1114 -0.166331 -1.20891e-18)
(0.976761 0.214805 0)
(0.984937 0.202013 -1.27931e-17)
(0.992773 0.19921 -1.12408e-17)
(0.995653 0.199 0)
(0.99499 0.196885 1.93747e-17)
(0.993968 0.193654 1.82949e-17)
(0.993405 0.190166 0)
(0.992852 0.186238 1.64616e-17)
(0.992193 0.181729 -1.56279e-17)
(0.991604 0.176719 0)
(0.991135 0.171275 0)
(0.990716 0.165406 0)
(0.990291 0.159103 0)
(0.989838 0.15235 -1.18862e-17)
(0.989351 0.145134 -1.16563e-17)
(0.98884 0.137479 1.07269e-17)
(0.988381 0.129613 -3.17145e-17)
(0.988094 0.12178 0)
(0.988053 0.113989 0)
(0.988247 0.106198 1.014e-17)
(0.988607 0.0984137 1.98321e-17)
(0.989064 0.0906842 -9.71364e-18)
(0.989583 0.0830638 0)
(0.990159 0.0755904 0)
(0.990804 0.0682848 -4.8733e-18)
(0.991547 0.0611527 9.61026e-18)
(0.99244 0.0541753 -9.58327e-18)
(0.99354 0.0472911 0)
(0.994881 0.0403873 0)
(0.996428 0.0333165 -2.34347e-18)
(0.998049 0.0259389 0)
(0.999506 0.0181769 2.38667e-18)
(1.0005 0.0100621 -1.1584e-18)
(1.00077 0.00174412 -1.67874e-20)
(1.0001 -0.00648659 -8.37892e-21)
(0.998405 -0.0142728 0)
(0.995811 -0.0212951 0)
(0.992589 -0.0273327 -2.75189e-20)
(0.98914 -0.0322938 1.27108e-18)
(0.985951 -0.0362426 3.90018e-18)
(0.983536 -0.0394026 5.33184e-18)
(0.98237 -0.0421349 2.74496e-18)
(0.982817 -0.0449031 -2.75014e-18)
(0.985075 -0.0482271 -2.76119e-18)
(0.989127 -0.0526249 2.78594e-18)
(0.994711 -0.0585408 0)
(1.00132 -0.0662475 5.19739e-18)
(1.00826 -0.0757449 -5.15966e-18)
(1.01479 -0.0867003 0)
(1.02027 -0.0984693 0)
(1.02425 -0.110206 0)
(1.0265 -0.121036 0)
(1.027 -0.130239 0)
(1.02581 -0.137392 0)
(1.02307 -0.142426 4.57453e-18)
(1.01894 -0.145605 -9.65335e-18)
(1.01368 -0.147426 -5.12439e-18)
(1.00759 -0.148475 5.4268e-18)
(1.001 -0.149297 5.68901e-18)
(0.994263 -0.150297 -6.15346e-18)
(0.987681 -0.151705 6.5563e-18)
(0.981526 -0.15359 0)
(0.976031 -0.155904 7.39228e-18)
(0.971394 -0.158538 -7.80638e-18)
(0.967779 -0.161367 0)
(0.965315 -0.164275 -1.70909e-17)
(0.964093 -0.167166 8.86243e-18)
(0.96417 -0.169959 -1.83485e-17)
(0.965584 -0.172585 9.39169e-18)
(0.96837 -0.174967 0)
(0.972563 -0.177011 9.58015e-18)
(0.978198 -0.178576 9.53205e-18)
(0.985284 -0.179483 -9.27995e-18)
(0.993833 -0.179569 -8.95548e-18)
(1.0038 -0.178772 8.38653e-18)
(1.0154 -0.177255 0)
(1.02825 -0.175283 0)
(1.04425 -0.173378 5.07931e-18)
(1.05767 -0.171653 0)
(1.08618 -0.169298 1.40013e-18)
(0.977833 0.212618 1.68799e-17)
(0.988996 0.199653 0)
(0.998474 0.199064 -2.5313e-17)
(1.00126 0.199742 2.29688e-17)
(1.00019 0.197603 -2.18892e-17)
(0.999042 0.194452 2.09768e-17)
(0.998416 0.191056 0)
(0.997748 0.18709 1.59916e-19)
(0.99698 0.182496 1.76439e-17)
(0.996325 0.17742 0)
(0.995855 0.171926 0)
(0.995527 0.166017 0)
(0.995302 0.159694 2.90568e-17)
(0.995153 0.152944 0)
(0.995043 0.145751 2.58894e-17)
(0.994923 0.138122 0)
(0.994783 0.130261 4.83475e-17)
(0.994661 0.122399 0)
(0.994591 0.114558 0)
(0.994565 0.10671 -2.30725e-17)
(0.994543 0.0988674 -1.12998e-17)
(0.994499 0.0910768 0)
(0.994436 0.0833898 0)
(0.994382 0.0758419 0)
(0.994378 0.0684512 5.50243e-18)
(0.994476 0.0612188 -5.48604e-18)
(0.994739 0.0541225 -1.0535e-19)
(0.995229 0.0471051 0)
(0.995984 0.0400706 5.55289e-18)
(0.996987 0.0329016 0)
(0.998138 0.0254953 0)
(0.999252 0.0178033 -2.69973e-18)
(1.00009 0.00986548 1.37395e-18)
(1.00039 0.00183262 -1.62469e-20)
(0.999962 -0.00604756 3.33747e-19)
(0.998711 -0.0134847 0)
(0.996702 -0.0202241 0)