/*--------------------------------*- C++ -*----------------------------------*\
| =========                 |                                                 |
| \\      /  F ield         | OpenFOAM: The Open Source CFD Toolbox           |
|  \\    /   O peration     | Version:  v1912                                 |
|   \\  /    A nd           | Website:  www.openfoam.com                      |
|    \\/     M anipulation  |                                                 |
\*---------------------------------------------------------------------------*/
FoamFile
{
    version     2.0;
    format      ascii;
    class       volScalarField;
    location    "950";
    object      p;
}
// * * * * * * * * * * * * * * * * * * * * * * * * * * * * * * * * * * * * * //

dimensions      [0 2 -2 0 0 0 0];


internalField   nonuniform List<scalar> 
2000
(
-0.045977
0.0714343
0.126015
0.119126
0.103298
0.0969927
0.0963876
0.0977363
0.0979536
0.0977324
0.0978725
0.0975493
0.0972917
0.097236
0.0972937
0.0973153
0.0972722
0.0972506
0.0972451
0.0972487
0.0972525
0.0972461
0.0972248
0.0971903
0.0971489
0.097107
0.0970699
0.0970388
0.0970116
0.0969857
0.0969593
0.0969321
0.0969041
0.0968755
0.0968467
0.0968179
0.0967896
0.0967614
0.0967332
0.0967048
0.0966762
0.0966481
0.0966211
0.0965965
0.0965757
0.09656
0.0965509
0.0965502
0.0965601
0.0965808
0.0966018
0.0965796
0.0963946
0.0958025
0.0944394
0.0919128
0.0879327
0.0824501
0.0759357
0.0698189
0.0662065
0.0661996
0.0707849
0.0795646
0.0915784
0.105823
0.121454
0.137675
0.153571
0.168052
0.18007
0.188747
0.193247
0.192753
0.186475
0.17375
0.153454
0.125391
0.0838597
0.0415395
0.00727014
0.0924466
0.131264
0.118069
0.100328
0.09613
0.0996715
0.102111
0.0993572
0.0961133
0.0956759
0.096976
0.0974241
0.0972921
0.0975164
0.0974181
0.0972941
0.0971914
0.0971566
0.0971454
0.0971633
0.0972037
0.0972109
0.0971875
0.0971524
0.097115
0.0970796
0.0970478
0.0970203
0.0969942
0.0969652
0.0969352
0.0969056
0.0968767
0.0968486
0.096821
0.0967943
0.0967689
0.0967438
0.0967181
0.0966913
0.0966639
0.0966364
0.0966095
0.0965842
0.0965621
0.0965457
0.0965403
0.0965604
0.0966299
0.096752
0.0968384
0.0966069
0.0954965
0.0927316
0.0876477
0.0800908
0.070667
0.0610163
0.0542344
0.0538827
0.0591435
0.0675602
0.0784057
0.091216
0.105635
0.1211
0.136845
0.151954
0.165416
0.176212
0.183362
0.185963
0.18328
0.174651
0.159539
0.137042
0.107331
0.066416
0.0294381
0.058338
0.0921359
0.114827
0.11327
0.104072
0.099897
0.0999352
0.0992979
0.097392
0.0967073
0.0982973
0.0998959
0.0989156
0.0964562
0.095562
0.0964358
0.0973203
0.0974958
0.0973362
0.0972311
0.0971728
0.0971363
0.0971178
0.0971302
0.0971384
0.0971277
0.0970975
0.0970524
0.0970156
0.0969796
0.0969511
0.0969249
0.0968998
0.0968774
0.0968579
0.0968392
0.0968195
0.0967984
0.0967762
0.0967531
0.0967295
0.0967053
0.0966788
0.0966477
0.0966155
0.0966016
0.0966422
0.0967744
0.097028
0.0974144
0.0978743
0.0981848
0.0979276
0.0964794
0.0931632
0.0875621
0.0799064
0.0714068
0.0641177
0.0596157
0.0585815
0.0620099
0.0692604
0.0792059
0.0910762
0.104411
0.118642
0.13295
0.146377
0.157927
0.166643
0.171668
0.172284
0.167934
0.158143
0.142574
0.12064
0.0928766
0.0565715
0.0250025
0.0833252
0.0933389
0.105889
0.109968
0.107276
0.104257
0.102596
0.100864
0.0992414
0.0984242
0.0982373
0.0981397
0.0977951
0.0971004
0.0965762
0.0975202
0.0987738
0.0980355
0.0968767
0.0964744
0.0964236
0.096597
0.0968856
0.0971102
0.0972406
0.0973194
0.0973629
0.0973387
0.097252
0.09715
0.097051
0.0969661
0.0969038
0.0968718
0.0968574
0.096848
0.0968356
0.0968228
0.0968101
0.096797
0.0967833
0.0967679
0.0967458
0.0967107
0.0966676
0.0966519
0.0967301
0.0969477
0.0973371
0.0978995
0.0985937
0.099066
0.0989244
0.0976255
0.0946586
0.0897956
0.0833177
0.0760381
0.0691352
0.0644885
0.0632048
0.0659737
0.0723941
0.0814482
0.092303
0.104355
0.116942
0.129244
0.140376
0.149488
0.155813
0.158695
0.1576
0.152106
0.14186
0.12664
0.106056
0.08072
0.0487456
0.0208135
0.0956658
0.0992663
0.106786
0.110756
0.109628
0.107299
0.105918
0.104879
0.103577
0.102125
0.100775
0.0996866
0.0989599
0.0981225
0.09716
0.0971892
0.0977433
0.0979572
0.097808
0.0973561
0.0970158
0.0969019
0.0969601
0.0971405
0.0973333
0.0974481
0.0974067
0.0972241
0.0970925
0.0969887
0.0969057
0.0968435
0.0968034
0.0968049
0.096834
0.0968655
0.0968891
0.0968937
0.0968839
0.0968665
0.0968433
0.0968123
0.0967666
0.0966931
0.0965853
0.0964624
0.0964076
0.096564
0.0969446
0.0975132
0.0981672
0.0986343
0.0985026
0.0972802
0.0945495
0.0901738
0.0844655
0.0782469
0.0727698
0.0694552
0.0691429
0.0720571
0.0778474
0.0857983
0.095185
0.105375
0.115731
0.125559
0.134149
0.140839
0.145038
0.146241
0.144019
0.13802
0.127936
0.11358
0.094636
0.0716904
0.0432511
0.0181948
0.104107
0.105941
0.109894
0.112065
0.11125
0.109642
0.108683
0.108008
0.107049
0.105857
0.104729
0.103739
0.102726
0.101404
0.10003
0.099322
0.0991918
0.0990616
0.0984958
0.0976112
0.0969947
0.0967908
0.0968797
0.0970873
0.0972586
0.0973537
0.0973947
0.0973878
0.0973052
0.0971903
0.0970728
0.0969695
0.0968907
0.0968536
0.0968152
0.0967837
0.0967781
0.0967869
0.096783
0.0967748
0.0967687
0.0967611
0.0967451
0.0967162
0.0966812
0.0966741
0.0967661
0.0970358
0.097483
0.0980476
0.0986031
0.0989076
0.0986227
0.0974043
0.0950231
0.0914962
0.0871792
0.0827637
0.0791431
0.077188
0.0774567
0.0800974
0.0848957
0.0913661
0.098926
0.107014
0.115087
0.122592
0.128977
0.133715
0.136329
0.13639
0.133516
0.127374
0.117657
0.104171
0.0866107
0.0655097
0.0395183
0.0165561
0.110918
0.111741
0.112978
0.113316
0.112529
0.111544
0.110885
0.110346
0.109679
0.108923
0.108198
0.107479
0.106619
0.105511
0.104345
0.10349
0.102976
0.102378
0.101408
0.100309
0.0994934
0.0990536
0.0988637
0.0987734
0.0986881
0.0985868
0.0984676
0.0983033
0.098083
0.0978625
0.0976746
0.0975227
0.0974013
0.0973407
0.0974968
0.0975855
0.0976125
0.097652
0.0977095
0.0977787
0.0978584
0.0979467
0.0980408
0.0981416
0.0982593
0.0984206
0.0986667
0.0990349
0.0995177
0.10005
0.100507
0.1007
0.100396
0.0993798
0.0975413
0.0949465
0.091884
0.088847
0.0864423
0.0852538
0.0856855
0.0878604
0.0916323
0.0966553
0.102492
0.108696
0.114834
0.120464
0.125142
0.128429
0.12991
0.129195
0.125921
0.119757
0.110388
0.0976026
0.0810852
0.0613134
0.0369769
0.0155165
0.116795
0.11674
0.115825
0.114616
0.113793
0.113276
0.112799
0.112329
0.111886
0.111449
0.110997
0.1105
0.109901
0.109159
0.108354
0.107662
0.10712
0.106492
0.105625
0.104671
0.103871
0.103303
0.102904
0.102592
0.102315
0.102053
0.101792
0.101519
0.101239
0.100986
0.100781
0.100629
0.100536
0.100532
0.100633
0.100706
0.100753
0.100821
0.100921
0.101044
0.101182
0.101335
0.101501
0.101681
0.101884
0.102123
0.102419
0.102785
0.103203
0.103613
0.103912
0.103964
0.103617
0.102742
0.101288
0.0993296
0.0970863
0.0949097
0.0932221
0.0924268
0.0928076
0.0944614
0.097298
0.101084
0.105506
0.110219
0.114868
0.119088
0.1225
0.12472
0.125375
0.124102
0.120552
0.114395
0.105312
0.0930682
0.0773272
0.0585073
0.0353088
0.0148398
0.122199
0.121209
0.118245
0.115702
0.114946
0.114858
0.114524
0.114115
0.11385
0.113633
0.113363
0.113038
0.112649
0.11217
0.111633
0.111143
0.110729
0.110256
0.109622
0.108902
0.108251
0.107746
0.107362
0.107047
0.106764
0.106493
0.106223
0.105953
0.105689
0.105449
0.105249
0.105098
0.105008
0.104983
0.104989
0.105044
0.105112
0.105194
0.105299
0.105422
0.10556
0.105709
0.105869
0.10604
0.106226
0.106433
0.10667
0.106938
0.107215
0.107453
0.107574
0.107483
0.10708
0.106284
0.105076
0.10352
0.101781
0.100113
0.0988178
0.0981838
0.0984227
0.0996207
0.101729
0.104587
0.107957
0.111561
0.115102
0.118264
0.120718
0.122125
0.122147
0.120448
0.116693
0.11056
0.101717
0.0899112
0.0747697
0.056648
0.0342443
0.0143835
0.127429
0.125242
0.120047
0.116403
0.115939
0.116266
0.116038
0.115714
0.115629
0.115597
0.115475
0.115284
0.115042
0.114731
0.114369
0.11403
0.113739
0.113405
0.112953
0.112428
0.111942
0.11156
0.111271
0.111034
0.110816
0.110603
0.110388
0.110173
0.109962
0.109768
0.109605
0.109482
0.109408
0.109381
0.109344
0.109382
0.109446
0.109512
0.109589
0.10968
0.109781
0.109889
0.110004
0.110123
0.110249
0.110385
0.110534
0.110689
0.110832
0.110924
0.110908
0.110713
0.11027
0.109528
0.108479
0.107178
0.105752
0.104391
0.103321
0.10276
0.102872
0.10373
0.105305
0.107477
0.110058
0.112816
0.115499
0.117832
0.11953
0.120292
0.119813
0.117782
0.113881
0.10779
0.0991704
0.08774
0.0730832
0.0554894
0.0336267
0.0141142
0.132667
0.128818
0.121125
0.116734
0.116826
0.117518
0.117346
0.117132
0.117235
0.117372
0.117383
0.117311
0.11719
0.117005
0.11677
0.11654
0.116335
0.116093
0.11576
0.11537
0.115008
0.114725
0.114513
0.114341
0.114183
0.114027
0.113869
0.113709
0.113552
0.113406
0.113282
0.113187
0.113125
0.113085
0.113057
0.113079
0.113124
0.11317
0.113223
0.113284
0.113353
0.113426
0.113499
0.113573
0.113647
0.113723
0.1138
0.11387
0.113916
0.113908
0.113801
0.113542
0.113082
0.112386
0.111453
0.110331
0.10912
0.107968
0.107048
0.10653
0.106542
0.107143
0.108313
0.109956
0.111918
0.114006
0.116
0.117666
0.118751
0.118991
0.118111
0.115824
0.111827
0.105803
0.0973997
0.0863074
0.0720568
0.0548735
0.0333442
0.0140319
0.138034
0.131865
0.121451
0.116792
0.117658
0.118621
0.118471
0.118395
0.118682
0.118963
0.119092
0.119134
0.119123
0.119049
0.118922
0.118782
0.118648
0.118477
0.118231
0.117938
0.117662
0.117446
0.117286
0.117158
0.117042
0.116927
0.116809
0.11669
0.116572
0.116461
0.116366
0.116292
0.116242
0.116208
0.116192
0.116205
0.116237
0.116273
0.116312
0.116355
0.116402
0.116449
0.116493
0.116533
0.116569
0.1166
0.116623
0.116631
0.116609
0.116531
0.116364
0.116065
0.1156
0.114945
0.114103
0.113114
0.112059
0.111056
0.110242
0.109748
0.109675
0.110071
0.110919
0.112138
0.1136
0.115139
0.11657
0.117685
0.118267
0.118083
0.116884
0.114407
0.110358
0.104422
0.0962326
0.0854508
0.0715486
0.0546944
0.0333225
0.0141506
0.143606
0.134278
0.121059
0.116696
0.118459
0.119575
0.119442
0.11953
0.119985
0.120386
0.12062
0.120764
0.120854
0.120878
0.120846
0.12079
0.120724
0.120618
0.120447
0.120232
0.120025
0.119862
0.119742
0.119649
0.119565
0.11948
0.119393
0.119304
0.119215
0.11913
0.119057
0.118998
0.118957
0.118937
0.118927
0.118936
0.118959
0.118988
0.119016
0.119046
0.119076
0.119102
0.119123
0.119137
0.119142
0.119137
0.119119
0.119079
0.119005
0.118877
0.118666
0.118341
0.117876
0.117255
0.116483
0.115595
0.114658
0.113764
0.113024
0.112541
0.112394
0.112618
0.113199
0.114067
0.115114
0.116199
0.117161
0.117823
0.117996
0.117473
0.116031
0.11342
0.109358
0.103526
0.095543
0.0850453
0.0714441
0.0548633
0.0335048
0.0144746
0.149425
0.13594
0.120046
0.116563
0.119225
0.120383
0.120288
0.120557
0.12116
0.12166
0.121986
0.122222
0.1224
0.122511
0.122562
0.12258
0.122579
0.122535
0.12243
0.122282
0.122136
0.12202
0.121939
0.121877
0.121821
0.121764
0.121703
0.121638
0.121574
0.121511
0.121455
0.121411
0.121381
0.121367
0.121361
0.121367
0.121384
0.121406
0.121426
0.121444
0.12146
0.12147
0.121472
0.121464
0.121443
0.121408
0.121354
0.121276
0.12116
0.120991
0.120745
0.1204
0.119935
0.11934
0.118621
0.117809
0.116958
0.116143
0.115451
0.114965
0.114745
0.114819
0.115171
0.115743
0.116443
0.117151
0.11773
0.118027
0.117877
0.117096
0.115477
0.112783
0.108736
0.103014
0.0952235
0.0849799
0.0716381
0.0552951
0.0338421
0.0149853
0.155499
0.136743
0.118559
0.116485
0.119938
0.121057
0.121039
0.121493
0.122218
0.122801
0.12321
0.123528
0.123783
0.123969
0.124092
0.124178
0.124235
0.124246
0.1242
0.124111
0.124018
0.123946
0.123899
0.123867
0.123838
0.123805
0.123768
0.123726
0.123683
0.12364
0.123599
0.123567
0.123546
0.123537
0.123533
0.123539
0.123552
0.123568
0.12358
0.123589
0.123593
0.123589
0.123574
0.123546
0.123502
0.12344
0.123356
0.123243
0.123091
0.122885
0.122609
0.122244
0.121774
0.121194
0.120511
0.11975
0.118957
0.118191
0.117523
0.117017
0.116723
0.11666
0.116814
0.117137
0.117552
0.117956
0.118233
0.11825
0.117859
0.116892
0.115154
0.112417
0.108404
0.102791
0.0951728
0.0851507
0.0720296
0.0559043
0.0342899
0.0156387
0.161807
0.136611
0.116774
0.11651
0.120576
0.121617
0.121718
0.122345
0.123169
0.123825
0.124308
0.1247
0.125023
0.125274
0.125461
0.125605
0.125714
0.125776
0.125781
0.125744
0.125697
0.125664
0.125648
0.125643
0.125638
0.125628
0.125612
0.12559
0.125567
0.12554
0.125513
0.125492
0.125479
0.125474
0.125473
0.125478
0.125487
0.125497
0.125502
0.125502
0.125494
0.125476
0.125444
0.125396
0.125328
0.125239
0.125124
0.124976
0.124787
0.124545
0.124236
0.123846
0.123364
0.122786
0.122119
0.121385
0.120622
0.119878
0.119211
0.118672
0.118301
0.118116
0.118104
0.118227
0.118418
0.118592
0.118645
0.118459
0.1179
0.116809
0.115001
0.11225
0.108282
0.102769
0.0952986
0.0854653
0.0725299
0.0566113
0.0348103
0.0163803
0.168296
0.135532
0.114871
0.116647
0.121118
0.122087
0.12234
0.123121
0.124025
0.124743
0.125295
0.125751
0.126134
0.126442
0.126685
0.126881
0.127038
0.127143
0.127194
0.127202
0.127195
0.127196
0.127207
0.127225
0.127241
0.127252
0.127253
0.127249
0.127241
0.127228
0.127212
0.1272
0.127192
0.127189
0.127188
0.127189
0.127192
0.127192
0.127187
0.127174
0.12715
0.127112
0.127059
0.126986
0.126891
0.12677
0.12662
0.126434
0.126205
0.125923
0.125578
0.125157
0.124654
0.124066
0.123399
0.122673
0.121918
0.121176
0.120494
0.119916
0.119476
0.11919
0.119049
0.119021
0.119049
0.119059
0.118957
0.118636
0.117968
0.116803
0.114959
0.112214
0.108293
0.10287
0.0955246
0.0858506
0.0730705
0.0573503
0.0353698
0.0171596
0.174885
0.133529
0.113009
0.116879
0.121558
0.122489
0.122913
0.123822
0.12479
0.125565
0.126176
0.126688
0.127122
0.12748
0.127771
0.128011
0.128208
0.128352
0.12844
0.128485
0.128512
0.12854
0.128574
0.12861
0.128643
0.128667
0.128682
0.128688
0.128694
0.128686
0.128675
0.128665
0.128656
0.128648
0.12864
0.128632
0.128621
0.128607
0.128584
0.12855
0.128504
0.128442
0.128362
0.128259
0.128132
0.127976
0.127789
0.127564
0.127296
0.126976
0.126594
0.126143
0.125616
0.125012
0.124337
0.123607
0.122849
0.122099
0.121398
0.120784
0.120289
0.119927
0.119694
0.11956
0.119479
0.119381
0.11918
0.118775
0.118044
0.116839
0.114983
0.112255
0.108382
0.103036
0.0957952
0.086255
0.0736049
0.0580726
0.0359394
0.0179366
0.181479
0.1307
0.111301
0.117164
0.121898
0.12284
0.123435
0.124444
0.125459
0.12628
0.126939
0.127494
0.127968
0.128364
0.128691
0.128966
0.129194
0.129366
0.129483
0.129555
0.129606
0.129652
0.129701
0.129748
0.12979
0.129822
0.129842
0.129855
0.129858
0.129848
0.129836
0.129821
0.129803
0.129784
0.129763
0.129739
0.12971
0.129676
0.129632
0.129575
0.129505
0.129417
0.129309
0.129177
0.12902
0.128833
0.128614
0.128356
0.128056
0.127704
0.127294
0.126818
0.126272
0.125653
0.124968
0.124232
0.123468
0.122708
0.121989
0.121348
0.120813
0.1204
0.120105
0.119905
0.119754
0.11959
0.119331
0.118879
0.118115
0.116895
0.115041
0.112336
0.108507
0.103228
0.0960742
0.0866462
0.0741049
0.0587475
0.0364978
0.0186841
0.187987
0.127174
0.109816
0.117452
0.122143
0.123136
0.12388
0.124955
0.125999
0.12685
0.127541
0.128124
0.128623
0.129044
0.129395
0.129691
0.129938
0.130128
0.130262
0.130351
0.130416
0.130472
0.130526
0.130577
0.130621
0.130655
0.130675
0.130685
0.130679
0.130666
0.130647
0.130623
0.130594
0.130563
0.130527
0.130487
0.130442
0.130389
0.130326
0.130251
0.13016
0.130051
0.129922
0.129768
0.129589
0.129379
0.129137
0.128857
0.128534
0.128162
0.127733
0.127241
0.126681
0.126052
0.12536
0.124619
0.123849
0.123082
0.122351
0.121691
0.121131
0.120685
0.120352
0.120111
0.11992
0.119719
0.119429
0.118954
0.118176
0.116954
0.115112
0.112432
0.108644
0.103421
0.0963403
0.0870066
0.0745571
0.0593587
0.0370308
0.0193873
0.194333
0.12311
0.108594
0.117706
0.122304
0.123359
0.124208
0.125317
0.126373
0.12724
0.127947
0.128545
0.129057
0.12949
0.129853
0.130161
0.130418
0.130617
0.130759
0.130857
0.130928
0.130988
0.131044
0.131095
0.131138
0.13117
0.131189
0.131191
0.131181
0.131163
0.131138
0.131106
0.131069
0.131027
0.130981
0.13093
0.130873
0.130808
0.130733
0.130644
0.13054
0.130418
0.130275
0.130108
0.129915
0.129692
0.129436
0.129143
0.128807
0.128423
0.127984
0.127483
0.126916
0.126282
0.125587
0.124842
0.12407
0.123297
0.122559
0.121887
0.121311
0.120845
0.120491
0.120227
0.120015
0.119794
0.11949
0.119006
0.118227
0.117011
0.115183
0.112529
0.108776
0.103603
0.0965832
0.087329
0.0749577
0.0599005
0.0375301
0.0200413
0.200516
0.118777
0.107661
0.117898
0.122388
0.123492
0.124401
0.125522
0.126582
0.127456
0.128171
0.128775
0.129293
0.129732
0.130102
0.130415
0.130677
0.130879
0.131026
0.131127
0.131201
0.131262
0.131318
0.131369
0.131411
0.131441
0.131456
0.131458
0.131445
0.131423
0.131393
0.131357
0.131314
0.131267
0.131215
0.131158
0.131094
0.131023
0.13094
0.130845
0.130734
0.130605
0.130455
0.130281
0.130081
0.129852
0.129589
0.12929
0.128948
0.128559
0.128115
0.12761
0.127041
0.126405
0.125708
0.124962
0.124188
0.123412
0.122669
0.121991
0.121405
0.120929
0.120562
0.120287
0.120064
0.119835
0.119526
0.119042
0.118267
0.117061
0.115249
0.112619
0.108899
0.103768
0.0968001
0.0876135
0.0753099
0.060375
0.0379927
0.0206504
0.206679
0.114689
0.107027
0.118015
0.122405
0.12354
0.12448
0.125608
0.12667
0.127547
0.128265
0.128873
0.129394
0.129836
0.130208
0.130525
0.130788
0.130993
0.131141
0.131244
0.131319
0.131381
0.131437
0.131488
0.131529
0.131557
0.131572
0.131574
0.131559
0.131536
0.131504
0.131465
0.13142
0.131371
0.131316
0.131256
0.13119
0.131115
0.13103
0.130931
0.130818
0.130685
0.130533
0.130356
0.130154
0.129922
0.129657
0.129355
0.129012
0.128621
0.128176
0.12767
0.1271
0.126464
0.125767
0.125021
0.124246
0.123469
0.122723
0.122041
0.12145
0.120968
0.120595
0.120314
0.120087
0.119856
0.119547
0.119067
0.118299
0.117104
0.11531
0.112702
0.109011
0.103917
0.0969956
0.0878678
0.0756247
0.0607953
0.0384245
0.0212335
0.212776
0.111483
0.10663
0.118064
0.122385
0.123534
0.124487
0.125622
0.126688
0.127568
0.128288
0.128898
0.12942
0.129864
0.130237
0.130555
0.130819
0.131025
0.131174
0.131278
0.131353
0.131415
0.131472
0.131522
0.131563
0.131591
0.131606
0.131607
0.131593
0.131569
0.131537
0.131498
0.131453
0.131403
0.131348
0.131287
0.131219
0.131144
0.131058
0.130959
0.130844
0.130711
0.130558
0.130381
0.130178
0.129945
0.12968
0.129379
0.129035
0.128645
0.1282
0.127695
0.127126
0.126491
0.125794
0.125049
0.124273
0.123496
0.122748
0.122063
0.121469
0.120983
0.120607
0.120324
0.120096
0.119866
0.11956
0.119085
0.118326
0.117144
0.115366
0.11278
0.109117
0.104058
0.0971789
0.088105
0.0759186
0.0611839
0.0388373
0.021824
0.217503
0.10954
0.106405
0.118091
0.122363
0.123509
0.124471
0.125612
0.126681
0.127562
0.128284
0.128894
0.129418
0.129862
0.130236
0.130554
0.130818
0.131024
0.131174
0.131277
0.131353
0.131416
0.131473
0.131523
0.131565
0.131593
0.131608
0.13161
0.131595
0.131572
0.131539
0.1315
0.131455
0.131405
0.13135
0.131289
0.131222
0.131147
0.131061
0.130962
0.130847
0.130715
0.130561
0.130385
0.130182
0.12995
0.129685
0.129384
0.129042
0.128652
0.128208
0.127704
0.127136
0.126502
0.125807
0.125062
0.124287
0.123508
0.122759
0.122073
0.121477
0.120989
0.120612
0.120327
0.120099
0.119871
0.119569
0.119099
0.118349
0.117178
0.115416
0.112849
0.109211
0.104183
0.0973412
0.0883145
0.0761769
0.0615269
0.0391965
0.0223863
)
;

boundaryField
{
    inlet
    {
        type            zeroGradient;
    }
    outlet
    {
        type            fixedValue;
        value           uniform 0;
    }
    fixedWalls
    {
        type            zeroGradient;
    }
    frontAndBack
    {
        type            empty;
    }
}


// ************************************************************************* //
