/*--------------------------------*- C++ -*----------------------------------*\
| =========                 |                                                 |
| \\      /  F ield         | OpenFOAM: The Open Source CFD Toolbox           |
|  \\    /   O peration     | Version:  v1912                                 |
|   \\  /    A nd           | Website:  www.openfoam.com                      |
|    \\/     M anipulation  |                                                 |
\*---------------------------------------------------------------------------*/
FoamFile
{
    version     2.0;
    format      ascii;
    class       surfaceScalarField;
    location    "950";
    object      phi;
}
// * * * * * * * * * * * * * * * * * * * * * * * * * * * * * * * * * * * * * //

dimensions      [0 3 -1 0 0 0 0];
oriented        oriented;


internalField   nonuniform List<scalar> 
3895
(
0.000814746
0.00038143
0.000499361
0.000315385
0.000251565
0.000247796
6.4863e-05
0.000186702
-6.21962e-05
0.000127059
-0.000127327
6.51304e-05
-0.000137639
1.0312e-05
-0.000113632
-2.40063e-05
-9.03514e-05
-2.32809e-05
-8.49475e-05
-5.40394e-06
-6.61298e-05
-1.88176e-05
-4.47458e-05
-2.1384e-05
-4.04646e-05
-4.28116e-06
-4.867e-05
8.20534e-06
-4.5711e-05
-2.95899e-06
-3.20515e-05
-1.36595e-05
-2.51399e-05
-6.91157e-06
-2.59227e-05
7.82767e-07
-2.89442e-05
3.0215e-06
-3.04876e-05
1.54338e-06
-2.91856e-05
-1.30197e-06
-2.48992e-05
-4.28643e-06
-1.85779e-05
-6.32126e-06
-1.1973e-05
-6.60494e-06
-6.19817e-06
-5.77481e-06
-1.89576e-06
-4.3024e-06
8.46392e-07
-2.74216e-06
2.45302e-06
-1.60663e-06
3.50402e-06
-1.051e-06
4.40716e-06
-9.03138e-07
5.29312e-06
-8.85961e-07
6.13873e-06
-8.45605e-07
6.92619e-06
-7.87459e-07
7.61939e-06
-6.93197e-07
8.14679e-06
-5.27403e-07
8.44025e-06
-2.93462e-07
8.44764e-06
-7.39022e-09
8.06903e-06
3.78609e-07
7.31253e-06
7.565e-07
6.13313e-06
1.1794e-06
4.44809e-06
1.68504e-06
2.14704e-06
2.30105e-06
-8.93279e-07
3.04032e-06
-4.79361e-06
3.90033e-06
-9.66232e-06
4.86871e-06
-1.56375e-05
5.9752e-06
-2.30349e-05
7.39737e-06
-3.25437e-05
9.50886e-06
-4.54771e-05
1.29334e-05
-6.39775e-05
1.85004e-05
-9.09458e-05
2.69683e-05
-0.000129428
3.84826e-05
-0.000181781
5.23529e-05
-0.000248959
6.71773e-05
-0.00032962
8.06611e-05
-0.000419318
8.96988e-05
-0.000510727
9.14081e-05
-0.000594954
8.42272e-05
-0.000663124
6.81699e-05
-0.000706486
4.33627e-05
-0.000714068
7.58185e-06
-0.000696365
-1.77034e-05
-0.000657699
-3.86656e-05
-0.00060163
-5.60694e-05
-0.000532039
-6.95905e-05
-0.000451962
-8.00771e-05
-0.000363382
-8.85798e-05
-0.000267849
-9.55328e-05
-0.000166983
-0.000100867
-6.24941e-05
-0.000104489
4.36285e-05
-0.000106123
0.000149401
-0.000105772
0.000253228
-0.000103827
0.000353746
-0.000100518
0.000450067
-9.63211e-05
0.000542115
-9.20484e-05
0.000630145
-8.80295e-05
0.000717291
-8.71461e-05
0.000803905
-8.6614e-05
-0.00010736
0.00108795
0.000349294
0.00104738
0.000355946
0.000933278
0.000361903
0.000775747
0.000344233
0.000598431
0.000304375
0.000410383
0.000253178
0.000221248
0.000199447
5.3877e-05
0.000143365
-6.04246e-05
9.10208e-05
-0.000110188
4.43598e-05
-0.000131882
2.87628e-06
-0.000123968
-2.92985e-05
-0.000105671
-2.25784e-05
-0.000107783
1.03173e-05
-0.000103374
-7.36757e-06
-9.07473e-05
-2.62861e-05
-7.67537e-05
-2.09052e-05
-7.88645e-05
2.89365e-06
-8.7131e-05
1.12879e-05
-9.26314e-05
7.04375e-06
-9.45862e-05
6.52882e-07
-9.09585e-05
-7.91417e-06
-8.48031e-05
-1.24767e-05
-7.80628e-05
-1.33452e-05
-7.14973e-05
-1.23403e-05
-6.58374e-05
-9.96235e-06
-6.1702e-05
-6.87749e-06
-5.95511e-05
-3.75752e-06
-5.92609e-05
-1.34128e-06
-6.03363e-05
1.72266e-07
-6.25698e-05
1.34763e-06
-6.52805e-05
1.86509e-06
-6.8158e-05
2.08996e-06
-7.11188e-05
2.26765e-06
-7.4292e-05
2.64578e-06
-7.78285e-05
3.24304e-06
-8.18525e-05
4.01661e-06
-8.64032e-05
4.92928e-06
-9.15994e-05
5.95271e-06
-9.74911e-05
7.07111e-06
-0.000104089
8.28344e-06
-0.000111388
9.60003e-06
-0.000119371
1.10229e-05
-0.000127994
1.25237e-05
-0.000137169
1.4043e-05
-0.000146755
1.55613e-05
-0.000156636
1.72788e-05
-0.000166808
1.96807e-05
-0.000177394
2.35189e-05
-0.000188539
2.96453e-05
-0.000200471
3.89003e-05
-0.000213531
5.15431e-05
-0.000227771
6.65932e-05
-0.000242369
8.17744e-05
-0.000255166
9.34581e-05
-0.000262305
9.68386e-05
-0.000258971
8.80741e-05
-0.000241012
6.62679e-05
-0.000207146
3.43043e-05
-0.000166304
2.52e-06
-0.000119824
-3.88974e-05
-6.7959e-05
-6.95688e-05
-1.34976e-05
-9.3127e-05
4.26344e-05
-0.000112201
0.000102049
-0.000129005
0.000165974
-0.000144003
0.000234312
-0.000156917
0.000306018
-0.000167239
0.000379547
-0.000174396
0.000453106
-0.000178047
0.000525147
-0.000178164
0.000594423
-0.000175047
0.000659859
-0.000169263
0.000720883
-0.000161542
0.000777333
-0.000152771
0.00082932
-0.000144035
0.000877712
-0.000136421
0.000922543
-0.000131978
0.000966533
-0.000130604
-0.000141909
0.000975282
0.000305926
0.00102604
0.000305187
0.00106097
0.000326974
0.00105862
0.000346584
0.00101217
0.00035082
0.000925048
0.000340304
0.000805752
0.000318743
0.000661765
0.000287352
0.000504928
0.000247857
0.000345844
0.000203445
0.000190168
0.000158552
4.70571e-05
0.000113812
-4.98375e-05
7.43162e-05
-8.59848e-05
4.64646e-05
-0.00010587
1.25173e-05
-0.000113874
-1.82817e-05
-0.000101871
-3.29084e-05
-9.15509e-05
-7.42634e-06
-9.9003e-05
1.87401e-05
-0.00010846
1.65007e-05
-0.000114965
7.15761e-06
-0.000119602
-3.27702e-06
-0.00012168
-1.03985e-05
-0.000120585
-1.44403e-05
-0.000118962
-1.39633e-05
-0.000118699
-1.02256e-05
-0.000120395
-5.1808e-06
-0.000124221
6.79211e-08
-0.000128309
2.74688e-06
-0.000132826
4.6894e-06
-0.000137369
5.89082e-06
-0.000141969
6.46529e-06
-0.000146502
6.62217e-06
-0.000150871
6.63734e-06
-0.000155137
6.91125e-06
-0.00015946
7.56576e-06
-0.000163944
8.50144e-06
-0.000168582
9.56645e-06
-0.000173303
1.06741e-05
-0.00017803
1.1798e-05
-0.000182674
1.29272e-05
-0.000187136
1.40626e-05
-0.000191301
1.5188e-05
-0.000194971
1.61932e-05
-0.000197778
1.68501e-05
-0.000199049
1.68318e-05
-0.000197731
1.59613e-05
-0.000192826
1.47752e-05
-0.000183354
1.40479e-05
-0.000168249
1.45399e-05
-0.000146132
1.67837e-05
-0.000116292
2.17029e-05
-7.78981e-05
2.81992e-05
-3.03612e-05
3.42375e-05
2.59893e-05
3.71076e-05
8.85633e-05
3.42646e-05
0.000152841
2.37965e-05
0.000212615
6.49359e-06
0.000267196
-2.02761e-05
0.000319101
-4.93853e-05
0.000361433
-8.12296e-05
0.000402483
-0.000110618
0.000445764
-0.000136408
0.000492845
-0.000159282
0.000543228
-0.000179388
0.000595531
-0.000196306
0.000648033
-0.000209419
0.000699013
-0.000218219
0.000747054
-0.000222437
0.000791126
-0.000222119
0.0008306
-0.000217639
0.000865211
-0.000209659
0.000894996
-0.000199048
0.000920257
-0.000186803
0.000941474
-0.000173988
0.000959154
-0.000161715
0.0009739
-0.000151167
0.000985588
-0.000143665
0.000995283
-0.000140299
-0.000144748
0.000857109
0.000271374
0.000897355
0.000264941
0.000950164
0.000274165
0.00100471
0.000292042
0.00104637
0.000309153
0.00106531
0.000321372
0.00105664
0.000327411
0.00101794
0.000326054
0.000949552
0.000316241
0.00085508
0.000297917
0.000740895
0.000272737
0.000611932
0.000242776
0.000476494
0.000209754
0.000348327
0.000174632
0.000223534
0.00013731
0.000102246
0.000103006
-1.4275e-07
6.94808e-05
-5.16328e-05
4.40637e-05
-6.28837e-05
2.9991e-05
-6.47493e-05
1.83662e-05
-6.71006e-05
9.50898e-06
-7.3006e-05
2.62835e-06
-8.04668e-05
-2.93771e-06
-8.89876e-05
-5.91945e-06
-9.63305e-05
-6.62042e-06
-0.000101823
-4.73348e-06
-0.000106777
-2.26873e-07
-0.000112141
5.43259e-06
-0.000117734
8.33984e-06
-0.000122891
9.84656e-06
-0.000127281
1.02801e-05
-0.000130829
1.00137e-05
-0.000133599
9.39178e-06
-0.000135419
8.45757e-06
-0.000136611
8.10339e-06
-0.000137268
8.22224e-06
-0.000137458
8.69214e-06
-0.000136899
9.00739e-06
-0.000135431
9.20564e-06
-0.000132937
9.30427e-06
-0.000129283
9.27341e-06
-0.00012431
9.08953e-06
-0.000117881
8.75889e-06
-0.000109805
8.11703e-06
-9.98229e-05
6.86823e-06
-8.77042e-05
4.71313e-06
-7.24483e-05
7.05499e-07
-5.42973e-05
-3.37577e-06
-3.20475e-05
-8.20203e-06
-4.20205e-06
-1.33055e-05
3.05074e-05
-1.79258e-05
7.40639e-05
-2.18536e-05
0.000127246
-2.4983e-05
0.000189404
-2.79202e-05
0.000258441
-3.19299e-05
0.000331347
-3.86413e-05
0.000404737
-4.95932e-05
0.000476965
-6.57343e-05
0.000543809
-8.712e-05
0.000605962
-0.000111538
0.000661974
-0.000137242
0.000713547
-0.000162191
0.000761985
-0.000184847
0.000807187
-0.000204484
0.000848376
-0.000220577
0.000884668
-0.000232598
0.000915361
-0.000240111
0.000940067
-0.000242925
0.000958772
-0.000241143
0.000971808
-0.000235155
0.000979771
-0.000225602
0.000983419
-0.000213306
0.000983571
-0.0001992
0.000981019
-0.000184251
0.000976455
-0.000169424
0.00097039
-0.00015565
0.000963116
-0.000143893
0.000954464
-0.000135013
0.00094429
-0.000130125
-0.00013022
0.000759397
0.000238011
0.000790536
0.000233802
0.000828351
0.000236349
0.000874985
0.000245408
0.000927002
0.000257137
0.000978871
0.000269503
0.00102441
0.000281869
0.00105755
0.000292918
0.00107319
0.000300602
0.00106786
0.000303244
0.00104042
0.000300179
0.000991565
0.000291629
0.000923239
0.00027808
0.00083886
0.000259011
0.000741525
0.000234645
0.000636635
0.000207896
0.00053215
0.000173966
0.0004339
0.000142313
0.000348945
0.000114947
0.00027603
9.12807e-05
0.000213746
7.17932e-05
0.000160425
5.5949e-05
0.000114125
4.33628e-05
7.45194e-05
3.36862e-05
4.16983e-05
2.62006e-05
1.65743e-05
2.03905e-05
3.2767e-07
1.60198e-05
-7.28777e-06
1.3048e-05
-9.5208e-06
1.05729e-05
-8.30421e-06
8.62997e-06
-5.00581e-06
6.98169e-06
-4.68884e-07
5.4768e-06
4.89641e-06
4.02648e-06
1.07651e-05
2.58887e-06
1.71432e-05
1.72526e-06
2.47156e-05
6.49841e-07
3.39553e-05
-5.47518e-07
4.48197e-05
-1.85704e-06
5.76053e-05
-3.57995e-06
7.2575e-05
-5.66537e-06
9.00051e-05
-8.15675e-06
0.000110188
-1.10936e-05
0.000133458
-1.45113e-05
0.000160056
-1.84806e-05
0.00019004
-2.31162e-05
0.000223302
-2.85483e-05
0.000258823
-3.48154e-05
0.00029704
-4.15935e-05
0.00033757
-4.87313e-05
0.00038023
-5.5966e-05
0.000425231
-6.29265e-05
0.00047277
-6.93928e-05
0.000523221
-7.54341e-05
0.000576756
-8.14545e-05
0.000633043
-8.82178e-05
0.000691086
-9.66841e-05
0.000749222
-0.000107729
0.000805282
-0.000121795
0.000856855
-0.000138693
0.000902762
-0.000157444
0.000942221
-0.000176702
0.000975074
-0.000195044
0.0010014
-0.000211173
0.00102112
-0.000224204
0.00103414
-0.0002336
0.00104058
-0.000239031
0.00104081
-0.00024035
0.00103553
-0.000237641
0.00102561
-0.000231224
0.00101207
-0.000221618
0.000995961
-0.000209489
0.000978247
-0.000195592
0.000959764
-0.000180717
0.000941154
-0.000165641
0.000922841
-0.000151112
0.000905014
-0.000137823
0.000887602
-0.000126481
0.000870226
-0.000117637
0.000852245
-0.000112144
-0.00011014
0.000672433
0.000206414
0.000702275
0.000203961
0.000733372
0.000205252
0.000767839
0.00021094
0.000806614
0.000218362
0.000850036
0.000226081
0.000897301
0.000234604
0.000946031
0.000244187
0.000992641
0.000253992
0.00103305
0.000262834
0.00106349
0.000269743
0.00108117
0.000273948
0.00108444
0.000274805
0.00107207
0.000271382
0.0010437
0.000263018
0.00100103
0.000250564
0.000949033
0.000225965
0.000891657
0.000199689
0.000831902
0.000174702
0.000772158
0.000151024
0.000714626
0.000129326
0.00066059
0.000109985
0.000610854
9.30988e-05
0.000566006
7.85337e-05
0.00052625
6.59573e-05
0.000491564
5.5076e-05
0.000461924
4.56596e-05
0.000437548
3.74245e-05
0.000418096
3.00247e-05
0.000403346
2.33799e-05
0.000392976
1.7352e-05
0.000386633
1.18192e-05
0.000384038
6.62183e-06
0.000385386
1.24065e-06
0.000390348
-3.23641e-06
0.000398948
-7.94971e-06
0.000411093
-1.26935e-05
0.00042668
-1.74433e-05
0.000445437
-2.23377e-05
0.000467182
-2.74102e-05
0.000491709
-3.2683e-05
0.000518803
-3.81876e-05
0.000548247
-4.39557e-05
0.000579789
-5.00226e-05
0.000613099
-5.64257e-05
0.000647732
-6.31815e-05
0.000683165
-7.02482e-05
0.000719038
-7.74666e-05
0.00075495
-8.46438e-05
0.000790569
-9.15844e-05
0.00082574
-9.8098e-05
0.000860444
-0.000104097
0.000894702
-0.000109692
0.00092846
-0.000115213
0.000961435
-0.000121192
0.000993002
-0.000128252
0.00102219
-0.000136919
0.00104783
-0.00014743
0.00106873
-0.000159596
0.00108404
-0.000172755
0.00109325
-0.000185907
0.00109619
-0.000197983
0.00109304
-0.000208029
0.0010842
-0.000215364
0.00107021
-0.000219606
0.00105177
-0.000220594
0.00102976
-0.000218344
0.00100516
-0.000213039
0.000978957
-0.000205018
0.000952081
-0.000194741
0.000925344
-0.000182751
0.000899383
-0.000169631
0.000874643
-0.000155977
0.000851373
-0.00014237
0.000829631
-0.00012937
0.000809296
-0.000117487
0.000790067
-0.000107252
0.000771426
-9.89962e-05
0.000752735
-9.34527e-05
-9.01729e-05
0.000594386
0.000177665
0.00062317
0.000175177
0.000652323
0.000176099
0.000682115
0.000181149
0.000712924
0.000187552
0.000745613
0.000193392
0.000781181
0.000199036
0.000820193
0.000205175
0.000862411
0.000211774
0.000906707
0.000218538
0.000951215
0.000225234
0.000993659
0.000231504
0.00103171
0.000236754
0.00106298
0.000240113
0.0010853
0.000240698
0.00109753
0.000238336
0.00109977
0.000223726
0.00109369
0.000205769
0.00108083
0.000187562
0.00106268
0.000169173
0.00104092
0.00015108
0.00101711
0.000133794
0.000992588
0.000117625
0.000968436
0.000102686
0.000945443
8.89498e-05
0.000924189
7.63303e-05
0.000905125
6.4724e-05
0.000888572
5.39769e-05
0.00087467
4.39269e-05
0.000863559
3.44909e-05
0.000855315
2.55959e-05
0.00084998
1.71547e-05
0.000847538
9.06333e-06
0.000847403
1.37582e-06
0.00085032
-6.15319e-06
0.000855731
-1.33611e-05
0.000863482
-2.0444e-05
0.000873425
-2.73869e-05
0.000885309
-3.42215e-05
0.000898881
-4.09827e-05
0.000913888
-4.76896e-05
0.000930058
-5.43579e-05
0.000947105
-6.10022e-05
0.000964717
-6.76348e-05
0.000982552
-7.4261e-05
0.00100024
-8.08661e-05
0.00101739
-8.73974e-05
0.00103367
-9.37465e-05
0.0010488
-9.97773e-05
0.00106258
-0.00010537
0.00107493
-0.000110441
0.00108583
-0.000114995
0.0010953
-0.000119168
0.00110333
-0.000123243
0.00110976
-0.000127619
0.00111424
-0.000132727
0.00111623
-0.00013891
0.00111509
-0.000146295
0.00111021
-0.000154711
0.00110113
-0.000163674
0.00108769
-0.000172474
0.00107006
-0.000180346
0.00104864
-0.00018661
0.00102404
-0.00019077
0.000996982
-0.000192546
0.00096822
-0.000191832
0.000938537
-0.000188661
0.00090868
-0.000183183
0.000879314
-0.000175652
0.000850976
-0.000166404
0.000824062
-0.000155837
0.000798815
-0.000144384
0.000775338
-0.000132501
0.000753611
-0.000120643
0.0007335
-0.00010926
0.000714769
-9.87566e-05
0.000697084
-8.95668e-05
0.00067994
-8.18519e-05
0.000662867
-7.63797e-05
-7.19799e-05
0.000525111
0.000151816
0.000551936
0.000148352
0.000579146
0.000148889
0.000606467
0.000153827
0.000634006
0.000160013
0.000661953
0.000165445
0.000690628
0.000170362
0.000720605
0.000175198
0.000752535
0.000179845
0.000786873
0.000184199
0.000823722
0.000188386
0.00086273
0.000192496
0.00090308
0.000196403
0.000943486
0.000199707
0.000982309
0.000201875
0.00101803
0.000202617
0.00104832
0.000193431
0.00107278
0.000181313
0.00109162
0.000168723
0.00110524
0.000155554
0.00111427
0.000142043
0.00111951
0.000128558
0.00112176
0.000115376
0.00112179
0.000102654
0.00112029
9.04548e-05
0.00111783
7.87858e-05
0.00111492
6.76296e-05
0.00111196
5.69424e-05
0.00110922
4.66664e-05
0.00110694
3.67679e-05
0.00110531
2.72297e-05
0.00110444
1.80278e-05
0.00110435
9.15198e-06
0.00110497
7.54403e-07
0.0011064
-7.58897e-06
0.00110847
-1.54243e-05
0.00111104
-2.30196e-05
0.00111403
-3.03763e-05
0.00111731
-3.7495e-05
0.00112072
-4.43927e-05
0.00112411
-5.10816e-05
0.00112732
-5.75683e-05
0.00113017
-6.38584e-05
0.0011325
-6.99551e-05
0.00113409
-7.58554e-05
0.00113477
-8.15422e-05
0.00113434
-8.69755e-05
0.00113269
-9.20882e-05
0.00112971
-9.68018e-05
0.0011254
-0.000101056
0.00111979
-0.000104832
0.00111297
-0.000108177
0.00110503
-0.000111231
0.00109602
-0.00011423
0.00108587
-0.000117474
0.00107442
-0.000121273
0.00106137
-0.000125858
0.00104638
-0.000131306
0.00102915
-0.000137482
0.00100951
-0.000144037
0.000987502
-0.000150464
0.000963359
-0.000156203
0.000937493
-0.000160743
0.000910412
-0.000163689
0.000882657
-0.000164791
0.000854757
-0.000163931
0.000827193
-0.000161097
0.00080038
-0.000156369
0.000774638
-0.00014991
0.000750191
-0.000141958
0.000727167
-0.000132813
0.000705606
-0.000122824
0.000685479
-0.000112374
0.000666697
-0.000101861
0.000649121
-9.16835e-05
0.000632553
-8.21892e-05
0.000616739
-7.37526e-05
0.000601284
-6.63962e-05
0.000585858
-6.0954e-05
-5.5509e-05
0.00046394
0.000128551
0.000488639
0.000123652
0.00051348
0.000124049
0.000538159
0.000129148
0.000563122
0.00013505
0.000588445
0.000140122
0.00061397
0.000144837
0.000639764
0.000149404
0.000666083
0.000153526
0.000693245
0.000157037
0.00072161
0.00016002
0.00075152
0.000162587
0.00078317
0.000164753
0.000816474
0.000166403
0.000850999
0.00016735
0.000886112
0.000167504
0.000919682
0.000159861
0.000950826
0.00015017
0.000979171
0.000140378
0.00100445
0.000130273
0.00102659
0.000119902
0.0010457
0.000109452
0.00106199
9.90859e-05
0.00107574
8.88992e-05
0.00108727
7.89334e-05
0.00109685
6.92015e-05
0.00110477
5.97046e-05
0.00111128
5.04328e-05
0.00111658
4.13692e-05
0.00112084
3.25104e-05
0.0011242
2.38688e-05
0.00112677
1.54599e-05
0.00112862
7.30443e-06
0.00112981
-4.45227e-07
0.00113031
-8.08236e-06
0.00113016
-1.52757e-05
0.00112934
-2.22016e-05
0.00112784
-2.88721e-05
0.00112563
-3.52838e-05
0.00112267
-4.14415e-05
0.00111895
-4.7352e-05
0.0011144
-5.30197e-05
0.00110899
-5.84475e-05
0.00110267
-6.36372e-05
0.0010954
-6.85862e-05
0.00108714
-7.32827e-05
0.00107787
-7.77017e-05
0.00106758
-8.1805e-05
0.00105633
-8.55511e-05
0.00104419
-8.89152e-05
0.00103127
-9.19073e-05
0.00101768
-9.45885e-05
0.00100353
-9.70838e-05
0.000988882
-9.9581e-05
0.000973716
-0.000102308
0.000957934
-0.00010549
0.000941369
-0.000109293
0.000923826
-0.000113764
0.000905144
-0.0001188
0.000885246
-0.000124139
0.000864181
-0.000129399
0.000842122
-0.000134144
0.000819336
-0.000137958
0.000796143
-0.000140496
0.000772865
-0.000141514
0.000749802
-0.000140867
0.000727205
-0.0001385
0.000705275
-0.00013444
0.000684157
-0.000128791
0.000663937
-0.000121738
0.000644659
-0.000113534
0.000626326
-0.000104491
0.000608917
-9.49643e-05
0.000592385
-8.53289e-05
0.000576661
-7.59598e-05
0.000561641
-6.7169e-05
0.000547165
-5.92763e-05
0.000532967
-5.21986e-05
0.000518764
-4.67512e-05
-4.0455e-05
0.000410014
0.000107501
0.000432754
0.000100912
0.000455183
0.00010162
0.000477152
0.000107179
0.000499455
0.000112747
0.000522203
0.000117374
0.000545203
0.000121836
0.00056844
0.000126167
0.00059194
0.000130026
0.000615686
0.00013329
0.000639722
0.000135985
0.000664189
0.000138119
0.000689281
0.000139662
0.000715152
0.000140532
0.000741864
0.000140638
0.000769388
0.000139981
0.000796435
0.000132815
0.000822523
0.000124082
0.000847429
0.000115471
0.000870887
0.000106815
0.000892682
9.81072e-05
0.000912687
8.94465e-05
0.000930852
8.09207e-05
0.000947181
7.25702e-05
0.000961712
6.44019e-05
0.000974506
5.64078e-05
0.000985634
4.85764e-05
0.000995172
4.08949e-05
0.00100319
3.33508e-05
0.00100976
2.59439e-05
0.00101494
1.8689e-05
0.00101879
1.16086e-05
0.00102136
4.73256e-06
0.00102279
-1.87277e-06
0.00102302
-8.31023e-06
0.0010222
-1.44566e-05
0.00102035
-2.03531e-05
0.0010175
-2.6024e-05
0.00101369
-3.14702e-05
0.00100894
-3.66919e-05
0.00100328
-4.16929e-05
0.000996735
-4.64771e-05
0.000989335
-5.10472e-05
0.000981102
-5.54042e-05
0.000972062
-5.95459e-05
0.000962243
-6.34639e-05
0.000951683
-6.71418e-05
0.000940434
-7.05563e-05
0.000928568
-7.36847e-05
0.000916171
-7.65182e-05
0.00090334
-7.90763e-05
0.000890169
-8.14177e-05
0.000876733
-8.36476e-05
0.000863067
-8.59155e-05
0.000849156
-8.83971e-05
0.000834928
-9.1262e-05
0.000820267
-9.46322e-05
0.000805044
-9.85405e-05
0.000789146
-0.000102902
0.000772515
-0.000107508
0.00075517
-0.000112054
0.000737204
-0.000116179
0.00071877
-0.000119524
0.00070005
-0.000121776
0.000681229
-0.000122692
0.000662472
-0.000122111
0.000643921
-0.000119949
0.000625687
-0.000116205
0.000607853
-0.000110957
0.000590479
-0.000104365
0.000573613
-9.66672e-05
0.000557288
-8.8166e-05
0.000541534
-7.92101e-05
0.000526371
-7.01663e-05
0.000511804
-6.13927e-05
0.000497811
-5.31755e-05
0.000484305
-4.57708e-05
0.000471134
-3.90279e-05
0.000457981
-3.35975e-05
-2.67675e-05
0.000362528
8.82933e-05
0.000383496
7.99438e-05
0.000403597
8.15192e-05
0.000423064
8.77118e-05
0.00044288
9.29311e-05
0.000463078
9.71768e-05
0.000483524
0.00010139
0.000504297
0.000105394
0.00052542
0.000108903
0.000546805
0.000111905
0.000568367
0.000114423
0.000590058
0.000116428
0.000611865
0.000117854
0.000633785
0.000118613
0.000655815
0.000118608
0.000677971
0.000117824
0.000699348
0.000111438
0.00071975
0.000103679
0.00073919
9.6032e-05
0.000757603
8.84021e-05
0.00077491
8.07997e-05
0.000791051
7.33059e-05
0.000805981
6.59899e-05
0.000819673
5.88782e-05
0.000832108
5.1967e-05
0.000843276
4.52397e-05
0.000853176
3.86772e-05
0.00086181
3.22609e-05
0.000869186
2.59748e-05
0.000875316
1.98137e-05
0.000880219
1.37857e-05
0.000883922
7.90601e-06
0.000886467
2.18767e-06
0.000887925
-3.33086e-06
0.000888316
-8.70135e-06
0.000887728
-1.38688e-05
0.000886202
-1.88275e-05
0.000883775
-2.35968e-05
0.000880487
-2.81824e-05
0.00087638
-3.25841e-05
0.000871491
-3.68041e-05
0.000865859
-4.08454e-05
0.000859521
-4.47094e-05
0.000852513
-4.83959e-05
0.000844869
-5.19019e-05
0.000836625
-5.52196e-05
0.000827819
-5.83364e-05
0.000818499
-6.1236e-05
0.000808719
-6.39045e-05
0.000798541
-6.63403e-05
0.00078803
-6.85652e-05
0.000777245
-7.06328e-05
0.00076623
-7.26324e-05
0.000755001
-7.46865e-05
0.00074354
-7.69359e-05
0.000731792
-7.95147e-05
0.000719677
-8.25171e-05
0.000707102
-8.59651e-05
0.000693985
-8.97852e-05
0.00068028
-9.38029e-05
0.000665984
-9.77581e-05
0.000651144
-0.000101339
0.000635844
-0.000104224
0.000620187
-0.000106119
0.000604281
-0.000106786
0.000588226
-0.000106056
0.000572113
-0.000103837
0.000556025
-0.000100117
0.000540039
-9.49709e-05
0.000524233
-8.85592e-05
0.000508688
-8.11226e-05
0.00049349
-7.29674e-05
0.000478721
-6.44419e-05
0.000464461
-5.59063e-05
0.000450767
-4.76985e-05
0.00043767
-4.00787e-05
0.000425127
-3.32279e-05
0.00041307
-2.69703e-05
0.000401104
-2.16321e-05
-1.4645e-05
0.000320758
7.05686e-05
0.000340087
6.06147e-05
0.000357962
6.3644e-05
0.000375206
7.04679e-05
0.000392819
7.53176e-05
0.00041069
7.93065e-05
0.000428757
8.33231e-05
0.000447162
8.69892e-05
0.000465939
9.01263e-05
0.000485023
9.28205e-05
0.000504347
9.50998e-05
0.000523846
9.69281e-05
0.000543446
9.82545e-05
0.000563056
9.90022e-05
0.000582581
9.90829e-05
0.000601945
9.84602e-05
0.000620301
9.30824e-05
0.000637492
8.64871e-05
0.000653584
7.99402e-05
0.000668602
7.33843e-05
0.000682559
6.68424e-05
0.000695473
6.03922e-05
0.000707362
5.41009e-05
0.000718243
4.79975e-05
0.000728128
4.20819e-05
0.000737027
3.63409e-05
0.000744947
3.07573e-05
0.000751894
2.53139e-05
0.000757874
1.99949e-05
0.000762894
1.47932e-05
0.000766966
9.71353e-06
0.000770106
4.76671e-06
0.000772347
-5.35143e-08
0.000773722
-4.70603e-06
0.000774254
-9.23336e-06
0.000773984
-1.3599e-05
0.000772949
-1.77925e-05
0.000771178
-2.18253e-05
0.0007687
-2.57049e-05
0.000765548
-2.94321e-05
0.000761752
-3.30079e-05
0.000757341
-3.6434e-05
0.000752342
-3.97109e-05
0.000746783
-4.28373e-05
0.000740691
-4.58092e-05
0.00073409
-4.86192e-05
0.000727011
-5.12568e-05
0.000719484
-5.37096e-05
0.000711549
-5.59687e-05
0.000703245
-5.80366e-05
0.000694615
-5.99356e-05
0.000685697
-6.17145e-05
0.000676516
-6.34513e-05
0.000667079
-6.52499e-05
0.000657371
-6.72274e-05
0.00064735
-6.94936e-05
0.000636956
-7.21233e-05
0.000626121
-7.51297e-05
0.00061478
-7.84447e-05
0.00060289
-8.19124e-05
0.000590432
-8.5301e-05
0.000577422
-8.83287e-05
0.000563898
-9.06993e-05
0.000549916
-9.2137e-05
0.000535544
-9.24135e-05
0.000520855
-9.1367e-05
0.000505931
-8.89133e-05
0.000490866
-8.50523e-05
0.000475768
-7.9872e-05
0.000460755
-7.35469e-05
0.000445961
-6.63279e-05
0.000431518
-5.85243e-05
0.000417553
-5.04777e-05
0.000404178
-4.25309e-05
0.00039147
-3.49905e-05
0.000379479
-2.8088e-05
0.000368171
-2.192e-05
0.000357534
-1.63327e-05
0.000347092
-1.11905e-05
-4.41294e-06
0.000284047
5.3995e-05
0.000301804
4.28575e-05
0.000317587
4.78611e-05
0.000332893
5.51619e-05
0.000348559
5.96515e-05
0.000364356
6.35097e-05
0.00038032
6.73584e-05
0.000396611
7.06988e-05
0.000413236
7.35008e-05
0.000430146
7.59107e-05
0.000447302
7.79438e-05
0.000464664
7.95663e-05
0.000482171
8.07472e-05
0.000499741
8.14325e-05
0.000517271
8.15521e-05
0.000534662
8.10699e-05
0.000551105
7.66393e-05
0.000566422
7.11703e-05
0.000580652
6.57096e-05
0.000593821
6.02153e-05
0.000605953
5.47105e-05
0.00061708
4.92647e-05
0.000627241
4.39403e-05
0.000636471
3.87671e-05
0.000644804
3.37489e-05
0.000652269
2.88766e-05
0.000658888
2.4138e-05
0.000664682
1.95195e-05
0.00066967
1.50073e-05
0.000673867
1.05964e-05
0.000677289
6.29154e-06
0.000679956
2.09903e-06
0.000681884
-1.98077e-06
0.000683102
-5.9243e-06
0.00068362
-9.75163e-06
0.000683467
-1.34458e-05
0.00068267
-1.6996e-05
0.000681254
-2.04086e-05
0.00067924
-2.36907e-05
0.000676651
-2.6844e-05
0.000673512
-2.98688e-05
0.000669844
-3.2766e-05
0.000665668
-3.5535e-05
0.000661005
-3.81737e-05
0.000655873
-4.06776e-05
0.000650293
-4.30391e-05
0.000644285
-4.52485e-05
0.000637871
-4.72956e-05
0.000631076
-4.91739e-05
0.000623927
-5.08876e-05
0.000616449
-5.24582e-05
0.000608665
-5.393e-05
0.000600586
-5.53721e-05
0.00059221
-5.68746e-05
0.00058352
-5.85373e-05
0.000574479
-6.04519e-05
0.000565034
-6.26783e-05
0.000555126
-6.52216e-05
0.000544695
-6.80146e-05
0.000533696
-7.09127e-05
0.000522098
-7.3703e-05
0.000509896
-7.61271e-05
0.00049711
-7.79129e-05
0.00048378
-7.88077e-05
0.000469973
-7.86058e-05
0.000455774
-7.71679e-05
0.000441294
-7.44339e-05
0.000426669
-7.04275e-05
0.000412055
-6.52575e-05
0.00039762
-5.91117e-05
0.000383536
-5.22438e-05
0.000369964
-4.49533e-05
0.000357046
-3.7559e-05
0.000344887
-3.03717e-05
0.000333551
-2.36552e-05
0.000323074
-1.76105e-05
0.000313402
-1.22481e-05
0.000304558
-7.48927e-06
0.000296012
-2.64434e-06
3.64548e-06
0.000251798
3.82832e-05
0.000267991
2.66645e-05
0.000281861
3.39914e-05
0.000295501
4.15218e-05
0.000309433
4.57198e-05
0.00032339
4.95522e-05
0.000337519
5.32298e-05
0.00035196
5.62579e-05
0.000366692
5.87689e-05
0.00038167
6.09327e-05
0.000396868
6.27456e-05
0.000412256
6.41785e-05
0.000427787
6.52162e-05
0.000443398
6.5821e-05
0.000459011
6.5939e-05
0.00047454
6.55414e-05
0.000489255
6.19246e-05
0.00050298
5.7445e-05
0.000515738
5.29513e-05
0.000527542
4.8411e-05
0.000538408
4.38451e-05
0.000548358
3.93143e-05
0.000557424
3.48743e-05
0.000565638
3.0553e-05
0.000573032
2.6355e-05
0.000579635
2.22737e-05
0.000585474
1.82998e-05
0.00059057
1.44229e-05
0.000594947
1.06304e-05
0.000598624
6.9196e-06
0.000601619
3.29688e-06
0.00060395
-2.32421e-07
0.000605635
-3.66549e-06
0.000606698
-6.98745e-06
0.000607152
-1.0206e-05
0.00060702
-1.33135e-05
0.000606325
-1.63007e-05
0.000605086
-1.91702e-05
0.000603324
-2.1928e-05
0.000601056
-2.45759e-05
0.0005983
-2.71136e-05
0.000595075
-2.95402e-05
0.000591394
-3.18541e-05
0.000587272
-3.40518e-05
0.000582722
-3.61274e-05
0.000577755
-3.80723e-05
0.000572383
-3.98768e-05
0.000566619
-4.1531e-05
0.000560474
-4.30293e-05
0.000553963
-4.43764e-05
0.000547097
-4.55925e-05
0.000539886
-4.67185e-05
0.00053233
-4.78166e-05
0.000524422
-4.89667e-05
0.000516141
-5.02559e-05
0.000507451
-5.1762e-05
0.000498306
-5.35332e-05
0.000488652
-5.55677e-05
0.000478436
-5.77989e-05
0.000467615
-6.00917e-05
0.000456163
-6.22512e-05
0.00044408
-6.40436e-05
0.000431394
-6.52265e-05
0.000418165
-6.55788e-05
0.000404487
-6.49277e-05
0.000390485
-6.31665e-05
0.000376316
-6.02643e-05
0.000362157
-5.62689e-05
0.000348203
-5.13031e-05
0.000334647
-4.55561e-05
0.000321671
-3.92683e-05
0.000309431
-3.27125e-05
0.000298042
-2.61701e-05
0.000287579
-1.99088e-05
0.000278067
-1.41436e-05
0.000269506
-9.04947e-06
0.000261812
-4.55393e-06
0.000255034
-7.10788e-07
0.000248633
3.75654e-06
9.42375e-06
0.000223468
2.31975e-05
0.000238065
1.2068e-05
0.000250245
2.18105e-05
0.00026246
2.93075e-05
0.000274839
3.33406e-05
0.000287177
3.72144e-05
0.000299706
4.07001e-05
0.00031253
4.34339e-05
0.000325606
4.56933e-05
0.000338896
4.76424e-05
0.00035238
4.92613e-05
0.000366029
5.05295e-05
0.000379802
5.14436e-05
0.000393646
5.19771e-05
0.000407498
5.20873e-05
0.000421286
5.17526e-05
0.000434366
4.88447e-05
0.00044658
4.52312e-05
0.000457947
4.15846e-05
0.000468477
3.78806e-05
0.000478183
3.41397e-05
0.00048708
3.04167e-05
0.000495193
2.67617e-05
0.000502545
2.32004e-05
0.000509163
1.97374e-05
0.000515069
1.63672e-05
0.000520287
1.30827e-05
0.000524834
9.87536e-06
0.000528732
6.73198e-06
0.000531999
3.65329e-06
0.000534651
6.45074e-07
0.000536707
-2.28905e-06
0.000538185
-5.14361e-06
0.000539105
-7.90689e-06
0.000539479
-1.05802e-05
0.000539324
-1.31589e-05
0.000538659
-1.56349e-05
0.000537497
-1.80082e-05
0.000535851
-2.02828e-05
0.000533735
-2.24596e-05
0.000531158
-2.45371e-05
0.000528131
-2.65131e-05
0.000524661
-2.8384e-05
0.000520755
-3.01451e-05
0.000516416
-3.17889e-05
0.00051165
-3.33067e-05
0.000506462
-3.46884e-05
0.000500856
-3.59252e-05
0.00049484
-3.7013e-05
0.000488421
-3.79574e-05
0.000481608
-3.87791e-05
0.000474406
-3.95168e-05
0.000466818
-4.02284e-05
0.000458837
-4.0986e-05
0.000450448
-4.18665e-05
0.000441622
-4.29367e-05
0.000432324
-4.42352e-05
0.000422512
-4.57551e-05
0.000412145
-4.74324e-05
0.000401197
-4.9143e-05
0.000389658
-5.07127e-05
0.000377551
-5.19364e-05
0.00036493
-5.26058e-05
0.000351888
-5.25364e-05
0.000338551
-5.15913e-05
0.00032508
-4.96954e-05
0.000311658
-4.68424e-05
0.000298484
-4.30944e-05
0.000285756
-3.85751e-05
0.00027366
-3.34604e-05
0.000262356
-2.79639e-05
0.000251963
-2.23202e-05
0.000242559
-1.67652e-05
0.000234171
-1.1521e-05
0.000226781
-6.75421e-06
0.000220356
-2.62396e-06
0.000214779
1.02277e-06
0.000210114
3.95453e-06
0.000205897
7.97323e-06
1.30047e-05
0.00019856
8.56662e-06
0.000211521
-8.92926e-07
0.000222268
1.1064e-05
0.00023325