/*--------------------------------*- C++ -*----------------------------------*\
| =========                 |                                                 |
| \\      /  F ield         | OpenFOAM: The Open Source CFD Toolbox           |
|  \\    /   O peration     | Version:  v1912                                 |
|   \\  /    A nd           | Website:  www.openfoam.com                      |
|    \\/     M anipulation  |                                                 |
\*---------------------------------------------------------------------------*/
FoamFile
{
    version     2.0;
    format      ascii;
    class       volVectorField;
    location    "950";
    object      U;
}
// * * * * * * * * * * * * * * * * * * * * * * * * * * * * * * * * * * * * * //

dimensions      [0 1 -1 0 0 0 0];


internalField   nonuniform List<vector> 
2000
(
(0.84616 0.187394 0)
(0.515133 0.124089 0)
(0.223448 0.0684415 0)
(0.0598068 0.0174443 6.19506e-20)
(-0.00455616 -0.0232232 1.20703e-17)
(-0.0642033 -0.0384872 1.04253e-17)
(-0.0776009 -0.0372471 0)
(-0.0715949 -0.016659 0)
(-0.0590606 0.0117118 0)
(-0.0421582 0.0254666 2.36738e-17)
(-0.0415843 0.0109778 -1.45039e-17)
(-0.0273671 -0.000621468 -1.3622e-17)
(-0.0163175 -0.00266728 0)
(-0.0200714 -0.00264045 0)
(-0.0219061 -0.00226996 -1.08215e-17)
(-0.0168724 0.000848335 0)
(-0.0105732 0.00349417 9.74141e-18)
(-0.00962192 0.00623779 3.09771e-21)
(-0.0106302 0.00612828 9.41699e-18)
(-0.0113963 0.00488886 -4.64791e-18)
(-0.0112576 0.00278243 9.18913e-18)
(-0.0100654 0.000804578 0)
(-0.00791359 -0.000199269 0)
(-0.00539474 -0.000629746 -6.85505e-23)
(-0.00310039 -0.000794755 0)
(-0.0012737 -0.000813485 -4.51794e-18)
(-5.14438e-05 -0.000750174 0)
(0.000644664 -0.000669265 4.52713e-18)
(0.00104124 -0.000654388 0)
(0.00132874 -0.000659565 0)
(0.00160175 -0.000585229 0)
(0.00187644 -0.000474545 1.14969e-18)
(0.00213751 -0.0003857 0)
(0.00237444 -0.000347884 -5.83525e-19)
(0.00257454 -0.000348601 1.9475e-14)
(0.00271311 -0.000366065 1.94616e-14)
(0.00278327 -0.000402361 6.01815e-19)
(0.0027281 -0.000496159 -6.09323e-19)
(0.00254706 -0.000636754 0)
(0.00223856 -0.000791977 2.50649e-18)
(0.00178114 -0.000938524 0)
(0.00113935 -0.00106391 -2.58894e-18)
(0.000270418 -0.0011558 0)
(-0.000882166 -0.00119881 -5.35855e-18)
(-0.00236805 -0.00121474 2.72232e-18)
(-0.00422459 -0.00129313 0)
(-0.00653549 -0.00148107 0)
(-0.00945538 -0.00168917 -2.85618e-18)
(-0.0133028 -0.00160854 0)
(-0.0186886 -0.000647822 2.9336e-18)
(-0.0265894 0.00189169 0)
(-0.0382892 0.00630638 5.91529e-18)
(-0.0551783 0.0120561 -5.86535e-18)
(-0.078406 0.0177423 5.74468e-18)
(-0.108324 0.0214612 -2.74421e-18)
(-0.144027 0.0213653 0)
(-0.183419 0.0162593 2.33314e-18)
(-0.223584 0.00599556 -2.07631e-18)
(-0.260782 -0.00839583 -4.08342e-18)
(-0.290179 -0.0247039 3.30576e-18)
(-0.306903 -0.0397079 -3.2588e-18)
(-0.309424 -0.0502075 3.48301e-18)
(-0.303068 -0.0562454 -3.97155e-18)
(-0.288111 -0.0591661 4.77527e-18)
(-0.265644 -0.0600072 -1.22041e-20)
(-0.236506 -0.0595025 7.16095e-18)
(-0.201109 -0.057855 0)
(-0.159626 -0.0550518 0)
(-0.112323 -0.0510804 7.6369e-20)
(-0.0599483 -0.0459791 0)
(-0.00377718 -0.039682 1.99056e-17)
(0.0559972 -0.0318517 0)
(0.119626 -0.0223435 1.98906e-17)
(0.186624 -0.0113193 -4.88273e-19)
(0.256243 0.000975614 1.71706e-17)
(0.329786 0.0142371 2.9871e-17)
(0.403766 0.0280893 7.34454e-19)
(0.491364 0.0420759 -1.01495e-17)
(0.557255 0.0545482 -6.53116e-18)
(0.713715 0.0652684 0)
(1.0153 0.210384 0)
(0.944633 0.194211 0)
(0.804475 0.179983 -3.52936e-18)
(0.654422 0.152313 7.28917e-18)
(0.509224 0.111169 0)
(0.360042 0.0683704 -7.29028e-18)
(0.216493 0.0293252 0)
(0.0821323 -0.00530892 0)
(-0.0282879 -0.0180399 0)
(-0.0562034 -0.0189155 -1.73128e-17)
(-0.0667325 -0.0249883 1.57501e-17)
(-0.0718834 -0.0159768 1.44469e-17)
(-0.0637615 0.00640346 0)
(-0.0508836 0.02072 6.3243e-18)
(-0.0545097 0.00998903 0)
(-0.048304 -0.00293944 0)
(-0.0376343 -0.004027 0)
(-0.0329312 -0.00109682 5.27113e-18)
(-0.0367022 0.000899501 -1.03385e-17)
(-0.038889 0.000900977 -5.09251e-18)
(-0.0395831 7.06018e-05 0)
(-0.0384908 -0.00112698 0)
(-0.0357718 -0.00235234 0)
(-0.0325261 -0.00294226 -7.41494e-18)
(-0.0293633 -0.00274218 0)
(-0.0265494 -0.00194273 4.9521e-18)
(-0.0243289 -0.000879667 2.48354e-18)
(-0.0228695 1.63257e-06 0)
(-0.0222368 0.000374913 0)
(-0.0222979 0.000407741 0)
(-0.0228726 0.000233304 0)
(-0.0237301 4.29462e-05 -6.32843e-19)
(-0.0246995 -0.000115941 0)
(-0.0257202 -0.000211586 3.20326e-19)
(-0.0268104 -0.000205966 1.61378e-19)
(-0.0280385 -8.04841e-05 0)
(-0.0294487 0.000148892 0)
(-0.0310669 0.000451603 6.62986e-19)
(-0.0329562 0.000809662 0)
(-0.035137 0.0012209 -1.35302e-18)
(-0.0376272 0.00169195 0)
(-0.040435 0.00223412 -1.38287e-18)
(-0.0435693 0.00285389 0)
(-0.047035 0.00354153 1.41354e-18)
(-0.0508215 0.00428101 1.43078e-18)
(-0.0548981 0.00510686 0)
(-0.0592343 0.00620123 0)
(-0.0638227 0.0079392 -2.97045e-18)
(-0.0686511 0.0108398 0)
(-0.0736833 0.0155022 1.38153e-20)
(-0.07894 0.0224597 0)
(-0.0846211 0.031851 0)
(-0.0910876 0.0429801 0)
(-0.0986665 0.0541928 0)
(-0.107104 0.0631439 6.03649e-18)
(-0.114877 0.0673797 0)
(-0.119562 0.0649281 -5.49166e-18)
(-0.119219 0.0548983 2.65626e-18)
(-0.112386 0.0382546 -2.31309e-18)
(-0.0951803 0.0177982 -4.88241e-18)
(-0.063444 -0.00469509 5.02604e-18)
(-0.045403 -0.0306221 -5.54042e-18)
(-0.0202141 -0.0512463 6.48219e-18)
(0.00762579 -0.0659325 0)
(0.0385147 -0.0762798 -1.29236e-17)
(0.0729415 -0.0837507 -9.64707e-18)
(0.111681 -0.089054 0)
(0.154924 -0.0921743 5.73412e-18)
(0.2023 -0.0928033 1.25552e-17)
(0.253217 -0.0907232 0)
(0.307007 -0.0858389 0)
(0.363082 -0.0781326 0)
(0.420962 -0.0677489 0)
(0.480384 -0.0550318 -1.36241e-17)
(0.541097 -0.0405261 5.93872e-18)
(0.603957 -0.0249021 -1.1774e-17)
(0.667388 -0.00910004 1.01645e-17)
(0.739174 0.00584171 -3.46904e-18)
(0.796086 0.0174878 0)
(0.911745 0.0230027 0)
(0.978489 0.201538 0)
(0.978854 0.193006 -2.78616e-18)
(0.969154 0.205111 3.48182e-18)
(0.939083 0.208532 -3.06083e-18)
(0.878034 0.194606 2.88542e-18)
(0.785605 0.168719 2.84348e-18)
(0.669349 0.138081 0)
(0.541012 0.106021 0)
(0.40822 0.0750633 0)
(0.285943 0.0459344 6.86746e-18)
(0.173879 0.0180211 0)
(0.0721777 -0.00640553 0)
(-0.0214749 -0.0141537 0)
(-0.0469109 -0.0038564 -7.18537e-18)
(-0.0508322 -0.0116813 0)
(-0.0586946 -0.0181542 -6.05188e-18)
(-0.059296 -0.0112547 0)
(-0.0481139 0.00906274 5.87688e-18)
(-0.0464832 0.0164833 2.87313e-18)
(-0.0509071 0.012588 0)
(-0.0532648 0.00614914 -2.79011e-18)
(-0.0550531 -0.000293197 0)
(-0.0556696 -0.00469957 0)
(-0.0547681 -0.00653438 5.43662e-18)
(-0.0532161 -0.00661161 0)
(-0.0520357 -0.00573093 1.35835e-18)
(-0.0518342 -0.00422288 -4.07776e-18)
(-0.0526285 -0.00222967 0)
(-0.0539888 -0.000213162 0)
(-0.0554655 0.0012539 -6.8163e-19)
(-0.0570716 0.0022044 0)
(-0.0587874 0.00272518 1.20141e-22)
(-0.0605334 0.00296005 0)
(-0.0622632 0.00307284 6.90818e-19)
(-0.0639814 0.00322685 8.68986e-20)
(-0.0657603 0.0034798 0)
(-0.0676597 0.00382288 1.7639e-19)
(-0.0696969 0.00422197 -3.55741e-19)
(-0.0718579 0.00467074 -3.58958e-19)
(-0.0741144 0.00517178 -7.2489e-19)
(-0.0764321 0.00573031 7.32431e-19)
(-0.078776 0.00635267 7.39759e-19)
(-0.0811178 0.00703625 0)
(-0.0834195 0.00775458 1.5167e-18)
(-0.0855727 0.00847057 -3.07577e-18)
(-0.0873157 0.00919863 0)
(-0.0882268 0.0101118 -1.59056e-18)
(-0.0878236 0.0115974 3.24439e-18)
(-0.085572 0.0141441 0)
(-0.0808169 0.0183353 -1.69798e-18)
(-0.072853 0.0246719 1.7813e-18)
(-0.0611715 0.0334207 -1.84868e-18)
(-0.0454132 0.043699 -1.918e-18)
(-0.0255519 0.0539648 0)
(-0.00180953 0.0619922 -3.94773e-18)
(0.0258574 0.0652429 -1.88841e-18)
(0.0573411 0.061426 1.6376e-18)
(0.0908246 0.0496812 1.53337e-18)
(0.124761 0.0290504 2.57041e-18)
(0.156536 0.00230726 0)
(0.186611 -0.0240432 0)
(0.214228 -0.0460197 0)
(0.242342 -0.0643034 -1.31166e-18)
(0.273927 -0.0800281 0)
(0.309933 -0.0937439 3.21619e-18)
(0.349803 -0.105407 0)
(0.392593 -0.114654 -1.98578e-18)
(0.437412 -0.121003 -4.4609e-18)
(0.483457 -0.124018 0)
(0.530051 -0.123451 -2.47486e-18)
(0.576707 -0.119303 2.57965e-18)
(0.623166 -0.111844 0)
(0.669375 -0.1016 0)
(0.715526 -0.0892723 0)
(0.761863 -0.0757071 -5.41338e-18)
(0.809264 -0.0618283 0)
(0.857027 -0.0488229 -1.8863e-18)
(0.9101 -0.0377974 3.37096e-18)
(0.952977 -0.0311247 0)
(1.03531 -0.0301859 3.93475e-19)
(0.970611 0.209117 0)
(0.963917 0.194765 1.52533e-18)
(0.96643 0.198514 0)
(0.977152 0.206407 1.69457e-18)
(0.982034 0.208884 -3.00433e-18)
(0.968293 0.204266 -1.34109e-18)
(0.930748 0.193726 0)
(0.870757 0.177878 0)
(0.79113 0.156581 0)
(0.695411 0.131331 1.35107e-18)
(0.58948 0.10541 1.38285e-18)
(0.48005 0.0806999 0)
(0.369265 0.0579964 0)
(0.266647 0.0376063 0)
(0.17965 0.0185392 0)
(0.100391 0.00267225 6.40097e-18)
(0.0300552 -0.0099325 -3.38739e-18)
(-0.031055 -0.00937907 0)
(-0.0328211 0.00101157 -3.28286e-18)
(-0.0347036 0.00246108 1.61847e-18)
(-0.0346443 0.00136339 3.21109e-18)
(-0.0359011 -0.00129783 0)
(-0.0391098 -0.00397964 0)
(-0.0434915 -0.00523934 -3.12016e-18)
(-0.0472029 -0.00436203 0)
(-0.0494945 -0.00166641 -1.54394e-18)
(-0.05117 0.00172525 1.5435e-18)
(-0.0536752 0.00424375 0)
(-0.0558152 0.0054249 0)
(-0.0580715 0.00598092 7.66953e-19)
(-0.0600301 0.00605608 0)
(-0.0616735 0.00578882 -7.69933e-19)
(-0.0629502 0.0053431 0)
(-0.0638416 0.00489159 -1.94768e-19)
(-0.064472 0.00466919 -9.81149e-20)
(-0.0649279 0.00476394 -2.47515e-20)
(-0.0652263 0.00513595 -2.99956e-19)
(-0.0652687 0.00571621 4.04343e-19)
(-0.0649764 0.00639783 4.09398e-19)
(-0.0642809 0.00712047 1.24558e-18)
(-0.0631006 0.00786259 -4.21308e-19)
(-0.0613527 0.00860996 4.28576e-19)
(-0.058981 0.00933212 0)
(-0.0559363 0.00994896 8.92459e-19)
(-0.0521084 0.0102748 9.13418e-19)
(-0.047187 0.00999683 0)
(-0.0407044 0.00873342 1.93512e-18)
(-0.0327506 0.00644281 9.99405e-19)
(-0.0225717 0.00385625 0)
(-0.00997052 0.00159439 -3.26235e-18)
(0.00652443 0.000233564 -2.23335e-18)
(0.0279557 0.000387179 1.10831e-18)
(0.0542287 0.00189519 2.17094e-18)
(0.0859377 0.00388574 0)
(0.123098 0.00482867 9.8315e-19)
(0.164857 0.00291501 2.68812e-18)
(0.209912 -0.00343 1.5894e-18)
(0.256174 -0.0147336 -1.39289e-18)
(0.303089 -0.029871 -6.43748e-19)
(0.348945 -0.0472292 0)
(0.393247 -0.066022 0)
(0.436003 -0.084959 0)
(0.47809 -0.102975 1.71299e-18)
(0.52031 -0.119438 6.45617e-19)
(0.562594 -0.13386 0)
(0.604269 -0.145685 -1.56416e-18)
(0.644615 -0.154335 1.73976e-18)
(0.683126 -0.159357 -1.87416e-18)
(0.719544 -0.160524 -2.02235e-18)
(0.753857 -0.157877 1.27105e-19)
(0.786283 -0.151721 -2.42172e-18)
(0.817245 -0.142591 0)
(0.847306 -0.131186 0)
(0.877144 -0.118303 0)
(0.90737 -0.104809 0)
(0.938896 -0.0915858 0)
(0.971389 -0.0796859 3.68002e-18)
(1.00819 -0.0699533 -1.34665e-18)
(1.03843 -0.0643096 0)
(1.09568 -0.0625844 -4.24238e-19)
(0.972988 0.216082 0)
(0.965831 0.201808 1.87111e-18)
(0.959206 0.1956 2.49273e-19)
(0.961489 0.195546 1.90753e-18)
(0.972668 0.197536 0)
(0.985519 0.199235 -1.60773e-18)
(0.992497 0.199295 0)
(0.988452 0.196253 -3.62595e-19)
(0.970218 0.189033 0)
(0.935631 0.177562 -1.60606e-18)
(0.884731 0.162749 -1.24318e-18)
(0.819618 0.145667 -3.15491e-19)
(0.743324 0.126729 3.13178e-19)
(0.658087 0.106111 0)
(0.569157 0.0852834 3.13235e-19)
(0.47934 0.0662429 0)
(0.393491 0.0502679 2.65479e-18)
(0.314099 0.0363417 -3.5138e-19)
(0.247073 0.0242767 0)
(0.192398 0.0147282 -1.89977e-18)
(0.147778 0.00792641 0)
(0.110715 0.00341117 0)
(0.0798814 0.000822399 0)
(0.0539896 -0.000620481 0)
(0.0324742 -0.00159254 -2.21724e-19)
(0.0156996 -0.00203975 0)
(0.0028132 -0.00139979 0)
(-0.0026354 0.000678137 1.15623e-19)
(-0.00511545 0.00210819 0)
(-0.00516171 0.00311069 0)
(-0.00383478 0.00368444 0)
(-0.00158704 0.00394406 -5.87482e-20)
(0.000991316 0.00400726 0)
(0.00444072 0.00379559 -2.67916e-19)
(0.00745606 0.0042695 0)
(0.0111296 0.00509714 3.01178e-20)
(0.0155373 0.0055882 1.51366e-19)
(0.0208678 0.00553955 3.03969e-20)
(0.0272966 0.0052154 -6.10089e-20)
(0.0348945 0.00471607 -4.89389e-19)
(0.043828 0.00402308 -4.90003e-19)
(0.0543132 0.00311031 4.89863e-19)
(0.0665468 0.0019531 -1.22196e-19)
(0.0807255 0.000511244 -9.73291e-19)
(0.0970548 -0.0012839 9.6679e-19)
(0.115516 -0.00350572 -1.19838e-19)
(0.136351 -0.00625613 0)
(0.158993 -0.00959621 -9.39206e-19)
(0.183586 -0.0134816 0)
(0.210241 -0.0177434 9.18607e-19)
(0.238956 -0.0220245 0)
(0.269929 -0.0261809 8.96872e-19)
(0.303475 -0.0301728 0)
(0.339952 -0.0342053 -2.12248e-19)
(0.379584 -0.0387935 -8.06707e-19)
(0.422259 -0.0446828 -7.48726e-19)
(0.467394 -0.0526415 1.73971e-19)
(0.513929 -0.0632213 0)
(0.560459 -0.0767295 5.4469e-19)
(0.605566 -0.0926434 -1.37429e-19)
(0.648392 -0.109979 0)
(0.688536 -0.127384 1.37051e-19)
(0.72587 -0.143603 -5.3387e-19)
(0.760321 -0.157777 -5.89337e-19)
(0.791697 -0.169324 0)
(0.819769 -0.177782 1.47688e-18)
(0.844454 -0.182808 0)
(0.865922 -0.184246 1.83256e-18)
(0.884595 -0.182167 2.01104e-18)
(0.901093 -0.176859 2.17628e-18)
(0.916172 -0.16879 2.70929e-19)
(0.930664 -0.158564 0)
(0.945396 -0.146871 0)
(0.961165 -0.134437 0)
(0.978585 -0.122004 -2.69891e-19)
(0.998404 -0.110301 0)
(1.02025 -0.100133 -1.67633e-18)
(1.04661 -0.0921481 1.65078e-18)
(1.06862 -0.0875661 1.04058e-19)
(1.11229 -0.08632 4.51222e-20)
(0.974194 0.218514 -1.23258e-18)
(0.970935 0.206364 1.19298e-18)
(0.965119 0.198172 -2.82074e-19)
(0.961139 0.194112 0)
(0.962197 0.191942 0)
(0.96826 0.190544 0)
(0.977772 0.189885 0)
(0.988502 0.189481 1.25261e-18)
(0.997432 0.188308 0)
(1.00093 0.185358 -1.11988e-18)
(0.995773 0.179955 -1.39602e-18)
(0.979839 0.171905 3.20081e-19)
(0.952674 0.161434 9.67009e-19)
(0.914336 0.148646 0)
(0.865647 0.133742 -1.47584e-18)
(0.80825 0.117845 0)
(0.746068 0.102471 -1.17983e-18)
(0.683644 0.0879754 2.95092e-19)
(0.622835 0.074387 -1.23437e-18)
(0.565748 0.0621136 -9.50531e-19)
(0.513198 0.0513543 0)
(0.465538 0.0420956 0)
(0.422943 0.0342186 -6.83258e-19)
(0.385367 0.0276155 0)
(0.352673 0.0221517 -5.42522e-19)
(0.32465 0.0176497 0)
(0.300894 0.0138432 0)
(0.281179 0.0104686 -9.56208e-20)
(0.265366 0.00756261 0)
(0.253118 0.0051291 0)
(0.24409 0.00309648 0)
(0.238003 0.00138019 5.05316e-20)
(0.234532 -9.96048e-05 2.04807e-19)
(0.233714 -0.00133343 1.29036e-19)
(0.235312 -0.00278061 0)
(0.239441 -0.00441313 0)
(0.246001 -0.00609674 -2.59635e-20)
(0.254881 -0.00785611 -1.30087e-19)
(0.266068 -0.00976929 5.16961e-20)
(0.279464 -0.0118968 0)
(0.294974 -0.0142848 0)
(0.312526 -0.0169718 -2.04168e-19)
(0.332055 -0.0199938 1.00516e-19)
(0.353489 -0.0233955 -4.00966e-19)
(0.376729 -0.0272337 3.96693e-19)
(0.401629 -0.0315669 9.70359e-20)
(0.427984 -0.0364184 0)
(0.455545 -0.0416743 3.84365e-19)
(0.484129 -0.047188 0)
(0.513588 -0.0527995 0)
(0.543813 -0.0583336 0)
(0.574791 -0.0636765 0)
(0.606604 -0.0688505 0)
(0.639347 -0.07408 1.78327e-19)
(0.673026 -0.0798024 0)
(0.707444 -0.0865919 6.70929e-19)
(0.742125 -0.0950049 -1.52921e-19)
(0.776313 -0.105387 0)
(0.809078 -0.117687 5.80938e-19)
(0.8395 -0.131323 1.27893e-19)
(0.866853 -0.145388 5.67145e-19)
(0.890676 -0.158891 -1.32295e-19)
(0.910764 -0.170947 0)
(0.927133 -0.180901 -6.61783e-19)
(0.939953 -0.188317 0)
(0.949526 -0.192913 0)
(0.956314 -0.194554 -8.5301e-19)
(0.96095 -0.193271 0)
(0.964208 -0.189263 0)
(0.966933 -0.182875 -1.06379e-18)
(0.969973 -0.174562 -2.95745e-19)
(0.974127 -0.164851 0)
(0.980091 -0.154308 0)
(0.988461 -0.143508 0)
(0.99962 -0.133022 3.01558e-19)
(1.01405 -0.123404 -1.03094e-18)
(1.0312 -0.115233 -2.40273e-19)
(1.05313 -0.108981 -1.8865e-19)
(1.0717 -0.105367 -1.17852e-19)
(1.11016 -0.1045 -2.40823e-19)
(0.974501 0.21901 4.35543e-18)
(0.973757 0.208036 -4.18211e-18)
(0.971714 0.200425 0)
(0.969159 0.196211 -2.53733e-18)
(0.967053 0.192937 0)
(0.966166 0.189312 -2.2373e-18)
(0.967419 0.185818 0)
(0.971669 0.183008 2.97938e-18)
(0.978978 0.18073 -3.69931e-18)
(0.988283 0.178484 1.68913e-18)
(0.99769 0.175773 1.57916e-18)
(1.00497 0.172151 0)
(1.00811 0.167266 -4.27163e-18)
(1.00544 0.1607 -2.72075e-18)
(0.995587 0.152111 3.8242e-18)
(0.977795 0.141797 0)
(0.953045 0.130626 1.17137e-18)
(0.923753 0.119347 0)
(0.891694 0.108147 1.16785e-18)
(0.858158 0.0970053 1.16755e-18)
(0.824184 0.0861314 0)
(0.790762 0.0758036 0)
(0.758773 0.0662264 -6.39421e-19)
(0.728889 0.0575057 0)
(0.701553 0.0496246 6.20999e-19)
(0.676999 0.0424986 0)
(0.655348 0.036033 0)
(0.636632 0.0301408 0)
(0.620882 0.0247316 0)
(0.608038 0.0197206 0)
(0.598024 0.0150274 0)
(0.590772 0.0105813 0)
(0.586205 0.00631094 1.77005e-19)
(0.584199 0.00215369 -8.58838e-20)
(0.584524 -0.00203335 4.39762e-20)
(0.587277 -0.00628274 0)
(0.592356 -0.010567 0)
(0.599564 -0.0148907 8.62185e-20)
(0.608755 -0.019302 -3.52014e-19)
(0.619792 -0.0238416 3.51593e-19)
(0.63253 -0.0285345 0)
(0.646821 -0.0334008 8.7181e-19)
(0.662508 -0.0384609 -6.99297e-19)
(0.679424 -0.0437359 -3.57782e-19)
(0.697384 -0.0492439 -3.38926e-19)
(0.716178 -0.0549887 0)
(0.735574 -0.0609385 0)
(0.755336 -0.0670074 -1.03338e-18)
(0.775258 -0.0730884 0)
(0.795181 -0.079073 0)
(0.815007 -0.0848656 0)
(0.834709 -0.0904279 7.04109e-19)
(0.854312 -0.0958317 1.4067e-18)
(0.873846 -0.101283 0)
(0.893274 -0.107105 0)
(0.912417 -0.113672 -6.49736e-19)
(0.930917 -0.1213 0)
(0.948243 -0.130126 1.29448e-18)
(0.96376 -0.140017 6.8672e-19)
(0.976851 -0.150554 0)
(0.987054 -0.161119 6.9979e-19)
(0.994154 -0.17103 1.33443e-18)
(0.998206 -0.179651 1.4054e-18)
(0.999503 -0.186487 7.13439e-19)
(0.998503 -0.191215 -1.61483e-18)
(0.995774 -0.193669 1.74531e-18)
(0.991968 -0.193816 2.83077e-18)
(0.987794 -0.191746 0)
(0.983983 -0.187663 0)
(0.981233 -0.181861 1.19539e-18)
(0.980174 -0.174703 0)
(0.981338 -0.166597 2.49999e-18)
(0.985144 -0.157975 2.53306e-18)
(0.991928 -0.149281 0)
(1.00185 -0.14096 2.40354e-18)
(1.01521 -0.133441 -1.04157e-18)
(1.03135 -0.127163 0)
(1.05218 -0.122469 0)
(1.06984 -0.119804 0)
(1.10676 -0.119356 -1.93161e-19)
(0.974733 0.218938 -3.35512e-18)
(0.975458 0.208201 3.21183e-18)
(0.976056 0.201058 -6.2378e-18)
(0.975936 0.197366 2.86973e-18)
(0.974875 0.19446 0)
(0.9732 0.190786 2.53032e-18)
(0.971487 0.186584 -4.84373e-18)
(0.970472 0.182339 -4.49083e-18)
(0.970994 0.17813 -7.9248e-20)
(0.973704 0.17395 0)
(0.978806 0.169868 0)
(0.985964 0.165856 3.59708e-18)
(0.994363 0.161685 3.29226e-18)
(1.00283 0.15694 -3.27805e-18)
(1.00995 0.151228 -8.89932e-18)
(1.01427 0.144451 0)
(1.01489 0.136908 0)
(1.01186 0.128902 0)
(1.00564 0.120422 0)
(0.996717 0.11145 0)
(0.985584 0.102193 0)
(0.972871 0.0929278 0)
(0.95926 0.0838661 1.24029e-18)
(0.945385 0.0751225 -2.58697e-18)
(0.931766 0.0667317 0)
(0.918812 0.0586941 0)
(0.906842 0.051002 0)
(0.896096 0.0436261 0)
(0.886743 0.0365066 0)
(0.878882 0.0295995 -6.62351e-19)
(0.87258 0.0228761 0)
(0.867874 0.016306 0)
(0.864767 0.00985343 1.26118e-20)
(0.863201 0.00345362 0)
(0.86308 -0.00275956 -4.1024e-20)
(0.86435 -0.00884285 0)
(0.86692 -0.0148765 1.70716e-19)
(0.870664 -0.0208879 0)
(0.875469 -0.0268918 6.72556e-19)
(0.881225 -0.0329028 -3.30668e-19)
(0.887818 -0.0389317 -6.88979e-19)
(0.895121 -0.0449868 -6.65246e-19)
(0.903002 -0.0510748 6.67716e-19)
(0.911324 -0.0572 6.70594e-19)
(0.91994 -0.0633608 1.40188e-18)
(0.928695 -0.0695432 1.41063e-18)
(0.937432 -0.0757118 0)
(0.946006 -0.0818045 -7.43832e-19)
(0.954308 -0.0877453 0)
(0.962274 -0.093464 0)
(0.969894 -0.0989156 -1.47953e-18)
(0.977204 -0.104108 -7.22977e-19)
(0.984266 -0.109127 4.77991e-20)
(0.991132 -0.11415 0)
(0.997791 -0.119417 0)
(1.00412 -0.125191 0)
(1.00989 -0.13168 1.49372e-18)
(1.01472 -0.138962 -1.40023e-18)
(1.01823 -0.146933 -1.38969e-18)
(1.02004 -0.155298 0)
(1.01995 -0.163607 -1.42803e-18)
(1.01795 -0.171357 9.49979e-20)
(1.01424 -0.178076 -1.57532e-18)
(1.00919 -0.183395 1.75637e-18)
(1.00328 -0.187081 -4.75993e-20)
(0.997047 -0.189021 -1.97763e-18)
(0.991046 -0.189196 -2.14146e-18)
(0.98581 -0.187671 0)
(0.98184 -0.18459 0)
(0.979578 -0.18016 0)
(0.979393 -0.174647 0)
(0.981581 -0.168361 -2.83707e-18)
(0.986369 -0.161647 -2.87275e-18)
(0.993949 -0.154873 0)
(1.00439 -0.148416 -2.72365e-18)
(1.01796 -0.142642 4.90977e-18)
(1.03402 -0.137907 0)
(1.05445 -0.134454 0)
(1.07172 -0.132598 0)
(1.1076 -0.132364 9.13871e-19)
(0.975035 0.218502 8.34146e-18)
(0.977127 0.207476 0)
(0.979623 0.200809 1.42773e-17)
(0.980942 0.19772 0)
(0.980747 0.195178 6.21461e-18)
(0.979838 0.19182 0)
(0.978655 0.187904 5.47369e-18)
(0.977181 0.183662 0)
(0.975604 0.178993 -5.03729e-18)
(0.974439 0.173897 0)
(0.97427 0.168549 8.88212e-18)
(0.975577 0.163112 -4.11167e-18)
(0.978659 0.157621 0)
(0.983537 0.151978 7.30858e-18)
(0.989866 0.146033 -1.87028e-19)
(0.996991 0.139703 -6.6828e-18)
(1.00405 0.133126 6.47693e-18)
(1.01036 0.12639 0)
(1.01555 0.119354 0)
(1.01936 0.111922 6.08717e-18)
(1.02167 0.104162 0)
(1.02251 0.0962137 -2.96134e-18)
(1.02211 0.088195 0)
(1.02073 0.0801813 2.80489e-18)
(1.01864 0.072217 0)
(1.01612 0.0643305 2.89686e-18)
(1.01338 0.056538 0)
(1.01062 0.0488386 0)
(1.00799 0.0412213 1.44746e-18)
(1.00562 0.0336855 6.957e-19)
(1.00358 0.0262375 0)
(1.00194 0.0188792 0)
(1.00074 0.0116115 -1.08734e-18)
(0.999997 0.00443627 0)
(0.999669 -0.0025539 0)
(0.999723 -0.00941156 0)
(1.00014 -0.0161955 -1.78e-19)
(1.00089 -0.0229147 0)
(1.00192 -0.0295623 -1.10551e-18)
(1.00318 -0.0361371 -7.50598e-19)
(1.0046 -0.0426408 7.24783e-19)
(1.00614 -0.0490739 0)
(1.00774 -0.055435 0)
(1.00932 -0.0617209 1.54361e-18)
(1.01083 -0.0679247 -1.49791e-18)
(1.0122 -0.0740313 -1.51417e-18)
(1.01336 -0.0800136 0)
(1.01429 -0.0858312 -5.82909e-20)
(1.01497 -0.0914386 1.63351e-18)
(1.01542 -0.0968014 0)
(1.01571 -0.101912 1.6261e-18)
(1.0159 -0.106804 1.70166e-18)
(1.01611 -0.111569 -1.66835e-18)
(1.01639 -0.116354 0)
(1.01675 -0.121346 0)
(1.01713 -0.126738 0)
(1.01735 -0.132674 -1.68134e-18)
(1.01719 -0.139203 0)
(1.01637 -0.146239 0)
(1.01469 -0.153559 0)
(1.01204 -0.160833 3.66103e-18)
(1.00846 -0.167686 -1.80323e-18)
(1.00413 -0.17376 0)
(0.999343 -0.178767 -2.00325e-18)
(0.994461 -0.182501 -2.22547e-18)
(0.989866 -0.184839 4.6176e-18)
(0.985925 -0.18573 -4.89256e-18)
(0.98298 -0.185188 -5.17386e-18)
(0.981334 -0.183295 0)
(0.98125 -0.180195 -5.69671e-18)
(0.982949 -0.176097 0)
(0.986623 -0.171263 0)
(0.992437 -0.166 0)
(1.00057 -0.160649 5.99017e-18)
(1.01111 -0.155562 -5.73713e-18)
(1.02437 -0.151073 -8.00029e-18)
(1.03983 -0.147486 0)
(1.05938 -0.144966 3.60857e-18)
(1.07591 -0.143722 0)
(1.11023 -0.143563 -1.5045e-18)
(0.975434 0.21769 -9.46177e-18)
(0.979143 0.20609 -9.21022e-18)
(0.983423 0.200245 -1.64437e-17)
(0.98558 0.197996 0)
(0.985486 0.195678 -1.41305e-17)
(0.984786 0.192413 -6.73161e-18)
(0.9842 0.188726 0)
(0.983452 0.184719 1.19975e-17)
(0.982353 0.180193 1.11996e-17)
(0.981033 0.175095 0)
(0.979702 0.169516 -1.00451e-17)
(0.978603 0.163553 0)
(0.97805 0.15727 0)
(0.978376 0.150691 8.70998e-18)
(0.979804 0.14382 8.07276e-18)
(0.982396 0.13669 -1.82317e-19)
(0.986006 0.129512 1.84343e-19)
(0.990363 0.12244 0)
(0.995174 0.115376 0)
(1.0001 0.108199 -6.97501e-18)
(1.00479 0.100886 -7.06584e-18)
(1.00904 0.0934774 1.03558e-17)
(1.01274 0.0860166 3.45165e-18)
(1.01588 0.0785346 3.42342e-18)
(1.01847 0.0710492 0)
(1.02058 0.0635701 -3.27233e-18)
(1.02225 0.0561023 0)
(1.02353 0.0486461 0)
(1.02448 0.0412015 -3.30609e-18)
(1.02514 0.033775 0)
(1.02556 0.0263786 0)
(1.02575 0.019026 0)
(1.02575 0.0117332 8.20215e-19)
(1.02558 0.00453401 -4.27664e-19)
(1.0253 -0.00255603 2.13691e-19)
(1.0249 -0.00953573 0)
(1.02442 -0.0164171 0)
(1.02387 -0.0232017 0)
(1.02324 -0.0298842 8.34085e-19)
(1.02253 -0.0364621 8.3903e-19)
(1.02174 -0.0429355 -1.75057e-18)
(1.02086 -0.049304 0)
(1.01988 -0.0555661 0)
(1.0188 -0.0617193 -3.53164e-18)
(1.01762 -0.0677585 -1.81455e-18)
(1.01632 -0.0736739 0)
(1.01491 -0.0794488 0)
(1.01341 -0.08506 1.82433e-18)
(1.01184 -0.090484 5.65651e-20)
(1.01027 -0.095708 0)
(1.00877 -0.100741 0)
(1.00742 -0.105625 -1.93557e-18)
(1.0063 -0.11044 0)
(1.00547 -0.115305 0)
(1.00492 -0.120365 0)
(1.00461 -0.125761 0)
(1.0044 -0.1316 0)
(1.00412 -0.137912 -4.1652e-18)
(1.00358 -0.144631 0)
(1.00262 -0.151586 0)
(1.00115 -0.158525 1.67075e-19)
(0.999193 -0.165149 0)
(0.996856 -0.171161 0)
(0.994333 -0.1763 0)
(0.991859 -0.180361 9.98364e-18)
(0.98968 -0.183203 -5.23118e-18)
(0.98803 -0.184745 5.53491e-18)
(0.987126 -0.184969 1.44024e-20)
(0.987163 -0.183921 0)
(0.988323 -0.181717 6.42651e-18)
(0.990779 -0.17854 -6.54562e-18)
(0.994712 -0.174637 0)
(1.00031 -0.170309 0)
(1.0078 -0.165892 -1.45996e-19)
(1.01736 -0.161733 6.4863e-18)
(1.02939 -0.158155 5.9781e-18)
(1.0435 -0.155414 0)
(1.06161 -0.153633 -4.09614e-18)
(1.077 -0.152836 0)
(1.10948 -0.15276 1.13396e-18)
(0.975986 0.216474 0)
(0.981692 0.204215 2.12167e-17)
(0.987769 0.199647 1.88236e-17)
(0.990441 0.198411 0)
(0.990122 0.196236 8.03034e-18)
(0.989271 0.192974 -7.77093e-18)
(0.988772 0.189389 0)
(0.988281 0.185463 -1.3566e-17)
(0.987611 0.180999 0)
(0.986852 0.175995 0)
(0.98604 0.170512 0)
(0.985145 0.164577 0)
(0.984206 0.1582 0)
(0.983343 0.151386 1.82805e-19)
(0.982702 0.144142 -9.52946e-18)
(0.982426 0.13652 -1.82176e-19)
(0.98266 0.128777 1.83589e-19)
(0.9835 0.121146 0)
(0.984945 0.113609 0)
(0.986875 0.106091 0)
(0.989103 0.0985716 -2.02557e-19)
(0.991463 0.0910725 2.06477e-19)
(0.993841 0.0836193 -3.95261e-18)
(0.996164 0.0762224 -3.92147e-18)
(0.998378 0.0688788 0)
(1.00044 0.0615796 -3.98597e-18)
(1.00231 0.0543153 3.97345e-18)
(1.00396 0.0470775 0)
(1.00538 0.0398605 1.92537e-18)
(1.00655 0.0326643 1.98348e-18)
(1.00745 0.0254969 0)
(1.00809 0.0183717 0)
(1.00847 0.0113031 1.00222e-18)
(1.00861 0.00432804 -1.4867e-20)
(1.00856 -0.00258503 -4.94771e-19)
(1.00835 -0.00940597 0)
(1.00799 -0.0161262 0)
(1.00752 -0.0227516 -1.01137e-18)
(1.00694 -0.0292837 0)
(1.00626 -0.0357216 -1.02153e-18)
(1.0055 -0.0420646 -5.89226e-20)
(1.00467 -0.0483125 0)
(1.00379 -0.0544643 2.08892e-18)
(1.00286 -0.0605178 4.15772e-18)
(1.0019 -0.0664692 2.07099e-18)
(1.00092 -0.0723111 0)
(0.999929 -0.0780321 -4.35406e-18)
(0.998957 -0.0836174 0)
(0.998035 -0.0890537 -2.17649e-18)
(0.997211 -0.0943369 0)
(0.996542 -0.0994808 0)
(0.996091 -0.104524 0)
(0.995909 -0.109536 0)
(0.996028 -0.114612 0)
(0.996439 -0.119868 -4.77743e-18)
(0.997088 -0.125413 4.81047e-18)
(0.99787 -0.131328 0)
(0.998645 -0.137636 4.72662e-18)
(0.99926 -0.144281 -4.9184e-18)
(0.999583 -0.151123 0)
(0.99953 -0.157952 -4.91398e-18)
(0.999088 -0.164511 0)
(0.998309 -0.170536 0)
(0.997302 -0.175779 0)
(0.996204 -0.180037 -5.68245e-18)
(0.995165 -0.183155 6.02331e-18)
(0.994331 -0.185034 -6.29183e-18)
(0.993848 -0.185639 1.31405e-17)
(0.993866 -0.185 -6.84025e-18)
(0.994554 -0.183225 0)
(0.996105 -0.180497 7.39144e-18)
(0.998753 -0.177068 -7.4443e-18)
(1.00276 -0.173252 0)
(1.00846 -0.169396 -1.17138e-19)
(1.01612 -0.165851 -7.1072e-18)
(1.02625 -0.16294 0)
(1.03856 -0.160867 0)
(1.05506 -0.159757 -4.57143e-18)
(1.06925 -0.159318 0)
(1.10035 -0.159512 -1.28631e-18)
(0.976761 0.214804 0)
(0.984936 0.20201 -1.22236e-17)
(0.992771 0.199204 -1.07047e-17)
(0.995649 0.198991 0)
(0.994983 0.196871 1.84281e-17)
(0.993957 0.193635 1.7402e-17)
(0.993389 0.19014 0)
(0.992829 0.186205 1.56666e-17)
(0.992161 0.181685 -1.48772e-17)
(0.99156 0.176662 0)
(0.991075 0.171202 0)
(0.990636 0.165313 0)
(0.990183 0.158988 0)
(0.989696 0.15221 -1.13232e-17)
(0.989165 0.144966 -1.11274e-17)
(0.988598 0.137281 1.02282e-17)
(0.988069 0.12939 -3.02773e-17)
(0.9877 0.12154 0)
(0.987573 0.113753 0)
(0.987691 0.10599 9.70261e-18)
(0.988004 0.0982513 1.89763e-17)
(0.988459 0.0905686 -9.29132e-18)
(0.989024 0.0829712 0)
(0.989681 0.0754699 0)
(0.990406 0.0680609 -4.65936e-18)
(0.991172 0.0607337 9.17929e-18)
(0.991951 0.0534766 -9.15657e-18)
(0.992712 0.0462787 0)
(0.993428 0.0391303 0)
(0.994074 0.0320273 -2.26041e-18)
(0.994627 0.024973 0)
(0.995072 0.0179743 2.33065e-18)
(0.995403 0.0110445 -1.14208e-18)
(0.995638 0.00418221 -1.45007e-20)
(0.995787 -0.00262199 -7.27142e-21)
(0.995852 -0.00934339 0)
(0.995849 -0.0159737 0)
(0.995794 -0.0225197 -2.89997e-20)
(0.995697 -0.0289844 1.18358e-18)
(0.995565 -0.0353668 3.54031e-18)
(0.995407 -0.0416656 4.73034e-18)
(0.995235 -0.0478804 2.41084e-18)
(0.995056 -0.0540103 -2.3719e-18)
(0.994881 -0.0600535 -2.39285e-18)
(0.994717 -0.0660061 2.47326e-18)
(0.994572 -0.0718621 0)
(0.994457 -0.0776127 4.93642e-18)
(0.994389 -0.0832472 -5.10722e-18)
(0.994391 -0.0887574 0)
(0.994497 -0.0941431 0)
(0.994745 -0.0994194 0)
(0.995176 -0.104622 0)
(0.995821 -0.10981 0)
(0.996697 -0.115064 0)
(0.997785 -0.120478 5.39469e-18)
(0.999034 -0.126141 -1.09867e-17)
(1.00035 -0.132116 -5.59786e-18)
(1.00161 -0.138418 5.64236e-18)
(1.00269 -0.144994 5.54585e-18)
(1.00344 -0.151721 -5.77131e-18)
(1.00379 -0.158411 5.87087e-18)
(1.00366 -0.164831 0)
(1.00306 -0.170733 6.16704e-18)
(1.00202 -0.175878 -6.36687e-18)
(1.0006 -0.180059 0)
(0.998877 -0.183113 -1.36518e-17)
(0.996958 -0.184938 7.10293e-18)
(0.994976 -0.185496 -1.48546e-17)
(0.993106 -0.184825 7.74471e-18)
(0.991575 -0.183048 0)
(0.990669 -0.18037 8.22808e-18)
(0.990732 -0.177069 8.48259e-18)
(0.992149 -0.173479 -8.45762e-18)
(0.995355 -0.169964 -8.46018e-18)
(1.00073 -0.166875 8.15016e-18)
(1.00884 -0.16454 0)
(1.01949 -0.163098 0)
(1.03479 -0.162726 5.26179e-18)
(1.04819 -0.162657 0)
(1.07919 -0.163486 1.48421e-18)
(0.977833 0.212617 1.62083e-17)
(0.988995 0.19965 0)
(0.998472 0.199058 -2.40985e-17)
(1.00125 0.199733 2.18325e-17)
(1.00018 0.19759 -2.08198e-17)
(0.99903 0.194434 1.99689e-17)
(0.998399 0.191033 0)
(0.997724 0.187058 1.60212e-19)
(0.996946 0.182455 1.67963e-17)
(0.996278 0.177367 0)
(0.995792 0.171857 0)
(0.995442 0.165931 0)
(0.995188 0.159586 2.77117e-17)
(0.995003 0.152813 0)
(0.994848 0.145595 2.46944e-17)
(0.994672 0.13794 0)
(0.994465 0.130056 4.6188e-17)
(0.994268 0.122182 0)
(0.994123 0.114345 0)
(0.994033 0.106519 -2.20848e-17)
(0.993975 0.0987119 -1.08163e-17)
(0.993934 0.0909545 0)
(0.993915 0.0832777 0)
(0.993933 0.075696 0)
(0.993999 0.0682103 5.26108e-18)
(0.994116 0.0608147 -5.24397e-18)
(0.994281 0.0535009 -1.07964e-19)
(0.994484 0.0462598 0)
(0.994714 0.0390824 5.33978e-18)
(0.994959 0.0319643 0)
(0.995206 0.0249067 0)
(0.995444 0.0179132 -2.63438e-18)
(0.995668 0.0109907 1.35006e-18)