/*--------------------------------*- C++ -*----------------------------------*\
| =========                 |                                                 |
| \\      /  F ield         | OpenFOAM: The Open Source CFD Toolbox           |
|  \\    /   O peration     | Version:  v1912                                 |
|   \\  /    A nd           | Website:  www.openfoam.com                      |
|    \\/     M anipulation  |                                                 |
\*---------------------------------------------------------------------------*/
FoamFile
{
    version     2.0;
    format      ascii;
    class       volScalarField;
    location    "400";
    object      p;
}
// * * * * * * * * * * * * * * * * * * * * * * * * * * * * * * * * * * * * * //

dimensions      [0 2 -2 0 0 0 0];


internalField   nonuniform List<scalar> 
10000
(
0.00215397
0.00215652
0.00216395
0.0021758
0.00219179
0.00221217
0.00223746
0.00226824
0.00230521
0.00234934
0.00240189
0.0024648
0.00254017
0.00263299
0.00274512
0.00289716
0.00307193
0.00340555
0.0036513
0.00603301
0.00215397
0.00215652
0.00216394
0.0021758
0.00219178
0.00221217
0.00223746
0.00226823
0.0023052
0.00234933
0.00240188
0.00246479
0.00254015
0.00263296
0.0027451
0.0028971
0.00307189
0.00340514
0.00365701
0.00536852
0.00215396
0.00215651
0.00216394
0.00217579
0.00219178
0.00221216
0.00223745
0.00226822
0.00230519
0.00234932
0.00240186
0.00246476
0.00254012
0.00263292
0.00274504
0.002897
0.00307179
0.00340455
0.00365933
0.00514575
0.00215396
0.0021565
0.00216393
0.00217578
0.00219176
0.00221215
0.00223743
0.0022682
0.00230516
0.00234929
0.00240183
0.00246472
0.00254007
0.00263285
0.00274495
0.00289683
0.00307162
0.00340366
0.00365979
0.00513171
0.00215395
0.00215649
0.00216392
0.00217577
0.00219175
0.00221213
0.00223741
0.00226818
0.00230513
0.00234925
0.00240178
0.00246466
0.00253999
0.00263274
0.00274482
0.00289658
0.00307138
0.00340243
0.00365965
0.00511481
0.00215393
0.00215647
0.0021639
0.00217575
0.00219173
0.00221211
0.00223738
0.00226814
0.00230509
0.0023492
0.00240172
0.00246459
0.00253989
0.0026326
0.00274464
0.00289626
0.00307104
0.00340084
0.00365896
0.00507307
0.00215392
0.00215645
0.00216387
0.00217572
0.0021917
0.00221207
0.00223735
0.0022681
0.00230504
0.00234914
0.00240164
0.00246449
0.00253977
0.00263243
0.00274442
0.00289585
0.0030706
0.00339887
0.00365763
0.00502348
0.00215389
0.00215643
0.00216384
0.00217569
0.00219166
0.00221203
0.0022373
0.00226805
0.00230498
0.00234906
0.00240155
0.00246437
0.00253962
0.00263221
0.00274415
0.00289535
0.00307006
0.00339649
0.00365572
0.00497253
0.00215387
0.00215639
0.0021638
0.00217565
0.00219162
0.00221199
0.00223725
0.00226798
0.0023049
0.00234897
0.00240144
0.00246422
0.00253943
0.00263195
0.00274382
0.00289474
0.00306938
0.00339366
0.00365328
0.00492018
0.00215383
0.00215635
0.00216376
0.0021756
0.00219157
0.00221193
0.00223718
0.0022679
0.00230481
0.00234886
0.0024013
0.00246405
0.00253921
0.00263165
0.00274342
0.00289401
0.00306857
0.00339035
0.00365033
0.00486591
0.00215379
0.0021563
0.0021637
0.00217555
0.00219151
0.00221186
0.0022371
0.00226781
0.0023047
0.00234873
0.00240114
0.00246385
0.00253895
0.00263129
0.00274296
0.00289316
0.0030676
0.00338652
0.00364684
0.00480967
0.00215374
0.00215625
0.00216364
0.00217548
0.00219144
0.00221178
0.00223701
0.0022677
0.00230458
0.00234858
0.00240096
0.00246361
0.00253866
0.00263087
0.00274242
0.00289217
0.00306645
0.00338213
0.00364279
0.00475159
0.00215368
0.00215618
0.00216356
0.0021754
0.00219135
0.00221168
0.0022369
0.00226758
0.00230443
0.0023484
0.00240074
0.00246334
0.00253831
0.00263038
0.00274179
0.00289103
0.00306512
0.00337714
0.00363812
0.00469175
0.00215362
0.0021561
0.00216347
0.00217531
0.00219125
0.00221157
0.00223677
0.00226743
0.00230426
0.0023482
0.00240049
0.00246303
0.00253792
0.00262983
0.00274107
0.00288972
0.00306356
0.00337151
0.00363278
0.00463025
0.00215353
0.002156
0.00216336
0.0021752
0.00219114
0.00221144
0.00223662
0.00226727
0.00230406
0.00234797
0.00240021
0.00246267
0.00253746
0.00262919
0.00274024
0.00288822
0.00306177
0.0033652
0.00362669
0.0045672
0.00215344
0.0021559
0.00216324
0.00217507
0.002191
0.00221129
0.00223646
0.00226707
0.00230384
0.0023477
0.00239989
0.00246226
0.00253694
0.00262847
0.0027393
0.00288652
0.00305971
0.00335816
0.00361976
0.00450272
0.00215333
0.00215577
0.0021631
0.00217493
0.00219085
0.00221112
0.00223626
0.00226685
0.00230358
0.0023474
0.00239952
0.0024618
0.00253635
0.00262764
0.00273822
0.00288459
0.00305735
0.00335035
0.00361189
0.00443696
0.0021532
0.00215563
0.00216294
0.00217477
0.00219068
0.00221093
0.00223604
0.0022666
0.00230329
0.00234705
0.0023991
0.00246127
0.00253568
0.00262671
0.00273699
0.00288242
0.00305464
0.00334175
0.00360296
0.00437012
0.00215305
0.00215546
0.00216276
0.00217458
0.00219048
0.00221071
0.0022358
0.00226632
0.00230296
0.00234666
0.00239862
0.00246067
0.00253492
0.00262565
0.00273559
0.00287998
0.00305155
0.00333232
0.00359282
0.00430243
0.00215288
0.00215527
0.00216255
0.00217437
0.00219025
0.00221046
0.00223551
0.002266
0.00230259
0.00234621
0.00239808
0.00245999
0.00253406
0.00262446
0.00273401
0.00287725
0.00304802
0.00332203
0.00358132
0.00423413
0.00215268
0.00215506
0.00216232
0.00217413
0.00219
0.00221018
0.00223519
0.00226563
0.00230216
0.00234571
0.00239747
0.00245923
0.00253308
0.00262311
0.00273222
0.00287419
0.003044
0.00331086
0.00356828
0.00416555
0.00215245
0.00215481
0.00216205
0.00217385
0.00218971
0.00220986
0.00223483
0.00226522
0.00230169
0.00234514
0.00239679
0.00245837
0.00253199
0.00262161
0.0027302
0.00287079
0.00303944
0.00329878
0.00355353
0.00409699
0.00215219
0.00215453
0.00216175
0.00217354
0.00218938
0.00220949
0.00223443
0.00226476
0.00230115
0.00234451
0.00239602
0.00245741
0.00253076
0.00261992
0.00272792
0.00286701
0.00303428
0.00328578
0.00353691
0.00402878
0.00215188
0.00215421
0.00216141
0.00217318
0.00218901
0.00220909
0.00223397
0.00226424
0.00230055
0.0023438
0.00239516
0.00245633
0.00252938
0.00261803
0.00272537
0.00286283
0.00302845
0.00327184
0.00351828
0.00396118
0.00215154
0.00215385
0.00216102
0.00217278
0.00218858
0.00220862
0.00223346
0.00226366
0.00229988
0.002343
0.00239419
0.00245512
0.00252783
0.00261592
0.0027225
0.0028582
0.00302189
0.00325691
0.00349753
0.00389442
0.00215114
0.00215344
0.00216059
0.00217233
0.00218811
0.0022081
0.00223287
0.00226299
0.00229911
0.0023421
0.0023931
0.00245376
0.00252609
0.00261356
0.00271928
0.00285307
0.00301451
0.00324095
0.00347461
0.00382861
0.00215069
0.00215297
0.00216009
0.00217182
0.00218756
0.00220751
0.00223221
0.00226225
0.00229825
0.00234108
0.00239187
0.00245222
0.00252412
0.00261091
0.00271566
0.00284739
0.00300624
0.00322389
0.0034495
0.00376382
0.00215018
0.00215245
0.00215954
0.00217124
0.00218695
0.00220684
0.00223147
0.0022614
0.00229727
0.00233993
0.00239047
0.00245049
0.00252191
0.00260793
0.00271158
0.00284109
0.002997
0.00320565
0.00342221
0.00370005
0.00214959
0.00215185
0.00215891
0.00217058
0.00218625
0.00220608
0.00223062
0.00226044
0.00229617
0.00233862
0.0023889
0.00244853
0.00251942
0.00260458
0.00270701
0.00283412
0.00298671
0.00318621
0.00339283
0.00363728
0.00214893
0.00215117
0.0021582
0.00216984
0.00218546
0.00220522
0.00222966
0.00225936
0.00229492
0.00233715
0.00238713
0.00244633
0.00251661
0.00260084
0.00270189
0.00282641
0.00297531
0.0031655
0.00336143
0.00357545
0.00214818
0.00215041
0.0021574
0.002169
0.00218457
0.00220425
0.00222859
0.00225814
0.00229352
0.0023355
0.00238513
0.00244386
0.00251346
0.00259665
0.00269618
0.00281791
0.00296276
0.00314351
0.00332814
0.00351452
0.00214733
0.00214954
0.0021565
0.00216805
0.00218356
0.00220315
0.00222737
0.00225677
0.00229193
0.00233363
0.00238289
0.00244108
0.00250994
0.00259198
0.00268981
0.00280856
0.00294898
0.00312019
0.00329307
0.00345444
0.00214637
0.00214857
0.00215549
0.00216698
0.00218242
0.00220192
0.002226
0.00225522
0.00229015
0.00233154
0.00238037
0.00243797
0.00250599
0.00258677
0.00268275
0.00279829
0.00293393
0.00309553
0.00325634
0.00339515
0.00214529
0.00214747
0.00215435
0.00216578
0.00218114
0.00220053
0.00222445
0.00225347
0.00228815
0.00232918
0.00237754
0.00243449
0.00250158
0.00258098
0.00267492
0.00278705
0.00291757
0.00306952
0.0032181
0.0033366
0.00214407
0.00214624
0.00215307
0.00216443
0.0021797
0.00219896
0.00222272
0.00225152
0.0022859
0.00232654
0.00237438
0.00243059
0.00249666
0.00257455
0.00266627
0.00277477
0.00289987
0.00304215
0.00317848
0.00327876
0.0021427
0.00214484
0.00215162
0.00216291
0.00217808
0.0021972
0.00222077
0.00224932
0.00228337
0.00232359
0.00237084
0.00242625
0.00249119
0.00256744
0.00265674
0.00276141
0.0028808
0.00301344
0.00313761
0.00322158
0.00214115
0.00214328
0.00215
0.0021612
0.00217626
0.00219522
0.00221858
0.00224686
0.00228055
0.00232028
0.00236689
0.00242142
0.00248512
0.00255958
0.00264628
0.0027469
0.00286032
0.0029834
0.00309565
0.00316505
0.00213941
0.00214152
0.00214819
0.00215929
0.00217422
0.00219301
0.00221613
0.0022441
0.00227739
0.00231659
0.00236248
0.00241604
0.0024784
0.00255093
0.00263483
0.00273121
0.00283845
0.00295206
0.00305271
0.00310914
0.00213746
0.00213955
0.00214615
0.00215714
0.00217193
0.00219052
0.00221339
0.00224102
0.00227386
0.00231248
0.00235758
0.00241008
0.00247097
0.00254141
0.00262233
0.00271427
0.00281516
0.00291946
0.00300894
0.00305385
0.00213527
0.00213734
0.00214386
0.00215474
0.00216936
0.00218774
0.00221032
0.00223757
0.00226992
0.00230789
0.00235214
0.00240347
0.00246277
0.00253098
0.00260873
0.00269607
0.00279048
0.00288566
0.00296447
0.00299916
0.00213282
0.00213486
0.0021413
0.00215205
0.00216649
0.00218463
0.00220689
0.00223373
0.00226554
0.00230279
0.0023461
0.00239617
0.00245375
0.00251957
0.00259398
0.00267657
0.00276441
0.00285071
0.0029194
0.00294508
0.00213007
0.00213208
0.00213844
0.00214904
0.00216328
0.00218116
0.00220307
0.00222944
0.00226066
0.00229714
0.00233942
0.00238812
0.00244385
0.00250713
0.00257804
0.00265574
0.00273698
0.00281467
0.00287385
0.0028916
0.00212699
0.00212898
0.00213524
0.00214568
0.0021597
0.00217728
0.00219881
0.00222468
0.00225524
0.00229087
0.00233204
0.00237926
0.00243302
0.00249361
0.00256087
0.00263358
0.00270823
0.00277763
0.00282794
0.00283875
0.00212356
0.00212551
0.00213167
0.00214193
0.0021557
0.00217296
0.00219406
0.00221938
0.00224923
0.00228394
0.0023239
0.00236954
0.00242118
0.00247896
0.00254243
0.00261008
0.00267821
0.00273966
0.00278174
0.00278651
0.00211972
0.00212164
0.00212768
0.00213774
0.00215125
0.00216815
0.00218879
0.00221351
0.00224258
0.00227628
0.00231495
0.00235889
0.00240831
0.00246313
0.0025227
0.00258525
0.00264695
0.00270084
0.00273536
0.0027349
0.00211544
0.00211732
0.00212323
0.00213309
0.00214629
0.00216281
0.00218294
0.002207
0.00223522
0.00226785
0.00230512
0.00234726
0.00239432
0.00244608
0.00250166
0.0025591
0.00261453
0.00266126
0.00268888
0.00268392
0.00211067
0.0021125
0.00211828
0.0021279
0.00214078
0.00215687
0.00217645
0.0021998
0.00222711
0.00225858
0.00229436
0.00233459
0.00237919
0.00242777
0.0024793
0.00253167
0.00258101
0.00262101
0.00264236
0.00263358
0.00210537
0.00210715
0.00211277
0.00212214
0.00213467
0.00215029
0.00216927
0.00219185
0.00221818
0.0022484
0.00228261
0.00232082
0.00236286
0.00240819
0.00245563
0.00250298
0.00254645
0.00258016
0.00259587
0.00258386
0.00209947
0.0021012
0.00210666
0.00211574
0.00212789
0.00214301
0.00216134
0.00218309
0.00220837
0.00223727
0.0022698
0.00230591
0.0023453
0.00238731
0.00243065
0.00247307
0.00251094
0.00253882
0.00254947
0.00253476
0.00209291
0.00209459
0.00209987
0.00210865
0.00212038
0.00213496
0.00215259
0.00217345
0.00219762
0.00222511
0.00225589
0.0022898
0.00232646
0.00236511
0.00240437
0.00244201
0.00247454
0.00249704
0.00250321
0.00248627
0.00208564
0.00208726
0.00209235
0.00210081
0.00211209
0.00212608
0.00214296
0.00216288
0.00218586
0.00221187
0.00224081
0.00227245
0.00230633
0.00234159
0.00237683
0.00240983
0.00243734
0.00245491
0.00245712
0.00243837
0.0020776
0.00207914
0.00208403
0.00209214
0.00210294
0.0021163
0.00213239
0.00215129
0.00217302
0.00219748
0.00222452
0.00225383
0.00228488
0.00231677
0.00234806
0.00237661
0.00239941
0.0024125
0.00241125
0.00239106
0.00206869
0.00207017
0.00207484
0.00208257
0.00209285
0.00210555
0.00212079
0.00213864
0.00215905
0.00218189
0.00220696
0.0022339
0.00226211
0.00229065
0.00231809
0.00234241
0.00236083
0.00236987
0.00236561
0.0023443
0.00205887
0.00206027
0.0020647
0.00207203
0.00208177
0.00209376
0.00210811
0.00212484
0.00214387
0.00216505
0.00218811
0.00221264
0.002238
0.00226325
0.00228698
0.00230729
0.00232167
0.00232708
0.00232022
0.00229808
0.00204804
0.00204936
0.00205354
0.00206045
0.0020696
0.00208085
0.00209426
0.00210983
0.00212744
0.0021469
0.00216791
0.00219002
0.00221257
0.0022346
0.00225477
0.00227132
0.00228199
0.00228417
0.00227509
0.00225236
0.00203612
0.00203736
0.00204127
0.00204774
0.00205628
0.00206675
0.00207918
0.00209354
0.0021097
0.00212741
0.00214635
0.00216604
0.00218582
0.00220473
0.00222152
0.00223456
0.00224187
0.00224119
0.00223024
0.00220712
0.00202304
0.00202419
0.00202782
0.00203382
0.00204173
0.00205139
0.00206281
0.00207593
0.00209059
0.00210653
0.0021234
0.0021407
0.00215776
0.00217369
0.00218728
0.00219708
0.00220135
0.00219816
0.00218565
0.00216232
0.0020087
0.00200976
0.0020131
0.00201861
0.00202586
0.00203469
0.00204506
0.00205692
0.00207007
0.00208423
0.00209904
0.00211399
0.00212844
0.00214151
0.00215211
0.00215894
0.00216048
0.00215512
0.00214133
0.00211793
0.00199302
0.00199399
0.00199703
0.00200204
0.00200861
0.00201658
0.00202589
0.00203647
0.0020481
0.00206049
0.00207326
0.00208593
0.00209786
0.00210824
0.00211607
0.0021202
0.00211931
0.00211207
0.00209725
0.00207391
0.00197592
0.00197679
0.00197952
0.00198402
0.0019899
0.00199699
0.00200523
0.00201452
0.00202464
0.00203528
0.00204607
0.00205654
0.00206607
0.00207392
0.0020792
0.00208089
0.00207787
0.00206904
0.0020534
0.00203023
0.00195731
0.00195808
0.0019605
0.00196448
0.00196966
0.00197587
0.00198304
0.00199104
0.00199966
0.00200859
0.00201747
0.00202583
0.0020331
0.00203861
0.00204156
0.00204107
0.00203619
0.00202602
0.00200975
0.00198684
0.00193712
0.00193779
0.00193989
0.00194334
0.00194782
0.00195315
0.00195925
0.00196599
0.00197315
0.00198042
0.00198746
0.00199382
0.00199899
0.00200235
0.0020032
0.00200077
0.00199429
0.001983
0.00196628
0.00194371
0.00191526
0.00191583
0.00191762
0.00192055
0.00192432
0.00192878
0.00193384
0.00193935
0.00194509
0.00195077
0.00195607
0.00196056
0.00196378
0.00196518
0.00196414
0.00196002
0.00195217
0.00193999
0.00192296
0.00190078
0.00189167
0.00189215
0.00189362
0.00189603
0.00189912
0.00190273
0.00190677
0.00191109
0.00191547
0.00191965
0.0019233
0.00192606
0.0019275
0.00192713
0.00192443
0.00191885
0.00190985
0.00189695
0.00187975
0.00185802
0.0018663
0.00186667
0.00186785
0.00186975
0.00187217
0.00187496
0.00187802
0.0018812
0.0018843
0.00188706
0.0018892
0.00189037
0.00189019
0.00188825
0.0018841
0.00187727
0.00186732
0.00185388
0.00183662
0.00181537
0.00183908
0.00183936
0.00184024
0.00184166
0.00184343
0.00184544
0.00184757
0.00184968
0.00185158
0.00185303
0.00185377
0.0018535
0.00185189
0.00184857
0.00184316
0.00183528
0.00182457
0.00181073
0.00179352
0.0017728
0.00180997
0.00181017
0.00181077
0.00181172
0.00181289
0.00181416
0.00181542
0.00181653
0.00181732
0.00181757
0.00181706
0.0018155
0.00181262
0.0018081
0.00180163
0.00179289
0.00178159
0.00176749
0.00175041
0.00173025
0.00177896
0.00177907
0.00177941
0.00177993
0.00178054
0.00178112
0.00178157
0.00178177
0.00178155
0.00178072
0.00177908
0.0017764
0.00177242
0.00176688
0.00175952
0.00175009
0.00173836
0.00172412
0.00170725
0.00168767
0.00174602
0.00174606
0.00174615
0.00174628
0.00174636
0.00174631
0.00174604
0.00174541
0.00174428
0.0017425
0.00173988
0.00173621
0.0017313
0.00172491
0.00171684
0.00170688
0.00169485
0.00168058
0.00166399
0.00164502
0.00171116
0.00171113
0.001711
0.00171077
0.00171038
0.00170977
0.00170883
0.00170747
0.00170556
0.00170294
0.00169947
0.00169498
0.00168929
0.00168222
0.00167359
0.00166324
0.00165103
0.00163684
0.00162058
0.00160224
0.0016744
0.0016743
0.00167398
0.00167342
0.00167262
0.00167151
0.00167
0.001668
0.0016654
0.00166208
0.0016579
0.00165272
0.00164641
0.0016388
0.00162976
0.00161915
0.00160688
0.00159284
0.00157698
0.00155928
0.00163575
0.0016356
0.00163511
0.00163427
0.00163311
0.00163157
0.00162957
0.00162703
0.00162386
0.00161995
0.00161519
0.00160947
0.00160266
0.00159466
0.00158533
0.0015746
0.00156236
0.00154855
0.00153313
0.00151609
0.00159527
0.00159507
0.00159443
0.00159336
0.00159189
0.00158999
0.00158759
0.00158461
0.00158097
0.00157659
0.00157137
0.00156524
0.00155807
0.0015498
0.00154032
0.00152955
0.00151744
0.00150393
0.00148899
0.00147262
0.00155301
0.00155277
0.00155202
0.00155075
0.00154904
0.00154684
0.00154412
0.00154078
0.00153678
0.00153203
0.00152648
0.00152005
0.00151265
0.00150422
0.00149469
0.00148399
0.00147208
0.00145893
0.00144451
0.00142882
0.00150905
0.00150878
0.00150793
0.00150651
0.0015046
0.00150218
0.00149921
0.0014956
0.00149133
0.00148633
0.00148056
0.00147393
0.00146641
0.00145793
0.00144844
0.0014379
0.00142626
0.00141352
0.00139964
0.00138464
0.00146345
0.00146316
0.00146224
0.00146071
0.00145866
0.00145608
0.00145292
0.00144914
0.00144469
0.00143953
0.00143362
0.00142691
0.00141936
0.00141092
0.00140156
0.00139125
0.00137995
0.00136765
0.00135435
0.00134005
0.00141632
0.00141602
0.00141505
0.00141344
0.00141129
0.00140861
0.00140534
0.00140145
0.0013969
0.00139167
0.00138571
0.00137901
0.00137151
0.0013632
0.00135404
0.00134402
0.0013331
0.00132129
0.00130859
0.00129499
0.00136775
0.00136743
0.00136644
0.00136479
0.00136259
0.00135985
0.00135653
0.0013526
0.00134803
0.00134279
0.00133687
0.00133025
0.00132289
0.00131477
0.00130588
0.00129619
0.00128571
0.00127442
0.00126233
0.00124944
0.00131783
0.00131752
0.00131652
0.00131486
0.00131264
0.00130989
0.00130658
0.00130266
0.00129812
0.00129295
0.00128714
0.00128066
0.00127349
0.00126563
0.00125706
0.00124776
0.00123774
0.001227
0.00121553
0.00120335
0.00126668
0.00126637
0.00126537
0.00126373
0.00126153
0.00125882
0.00125555
0.00125169
0.00124725
0.00124221
0.00123655
0.00123027
0.00122335
0.00121579
0.00120758
0.00119871
0.00118919
0.00117901
0.00116817
0.0011567
0.0012144
0.00121409
0.00121312
0.0012115
0.00120936
0.00120671
0.00120352
0.00119978
0.00119547
0.0011906
0.00118515
0.00117911
0.00117249
0.00116527
0.00115746
0.00114904
0.00114003
0.00113042
0.00112023
0.00110946
0.00116108
0.00116078
0.00115984
0.00115828
0.00115621
0.00115365
0.00115058
0.00114698
0.00114285
0.00113818
0.00113297
0.00112722
0.00112092
0.00111408
0.00110669
0.00109875
0.00109026
0.00108124
0.00107168
0.0010616
0.00110683
0.00110654
0.00110564
0.00110415
0.00110217
0.00109972
0.00109679
0.00109336
0.00108943
0.001085
0.00108006
0.00107462
0.00106868
0.00106223
0.00105528
0.00104783
0.00103988
0.00103144
0.00102252
0.00101313
0.00105174
0.00105147
0.00105061
0.00104919
0.00104732
0.001045
0.00104223
0.00103899
0.00103528
0.00103111
0.00102646
0.00102135
0.00101578
0.00100974
0.00100324
0.000996284
0.000988876
0.000981022
0.00097273
0.000964008
0.000995884
0.000995629
0.000994825
0.000993495
0.00099173
0.000989558
0.000986962
0.000983926
0.000980453
0.000976547
0.00097221
0.000967443
0.000962248
0.000956628
0.000950586
0.000944127
0.000937256
0.00092998
0.000922305
0.000914241
0.000939345
0.000939107
0.000938358
0.000937118
0.000935475
0.000933453
0.000931037
0.000928214
0.000924987
0.00092136
0.000917337
0.000912919
0.000908109
0.000902909
0.000897324
0.000891359
0.00088502
0.000878312
0.000871242
0.000863818
0.000882181
0.000881962
0.000881269
0.000880123
0.000878604
0.000876736
0.000874505
0.0008719
0.000868923
0.000865579
0.000861872
0.000857804
0.000853377
0.000848596
0.000843464
0.000837986
0.000832168
0.000826015
0.000819534
0.000812732
0.000824441
0.00082424
0.000823605
0.000822553
0.00082116
0.000819448
0.000817402
0.000815015
0.000812288
0.000809227
0.000805834
0.000802113
0.000798066
0.000793696
0.000789009
0.000784008
0.000778698
0.000773085
0.000767175
0.000760974
0.000766156
0.000765973
0.000765395
0.000764438
0.00076317
0.000761612
0.000759751
0.00075758
0.0007551
0.000752317
0.000749234
0.000745854
0.000742178
0.000738211
0.000733957
0.000729419
0.000724603
0.000719513
0.000714155
0.000708534
0.000707341
0.000707175
0.000706653
0.000705789
0.000704644
0.000703237
0.000701558
0.000699598
0.00069736
0.00069485
0.000692069
0.00068902
0.000685706
0.000682129
0.000678294
0.000674205
0.000669865
0.00066528
0.000660453
0.00065539
0.000647986
0.000647838
0.000647371
0.000646598
0.000645573
0.000644314
0.00064281
0.000641057
0.000639054
0.000636808
0.00063432
0.000631593
0.000628628
0.00062543
0.000622
0.000618343
0.000614463
0.000610363
0.000606047
0.00060152
0.000588062
0.00058793
0.000587516
0.00058683
0.000585921
0.000584805
0.000583472
0.000581917
0.000580142
0.00057815
0.000575945
0.000573527
0.000570899
0.000568064
0.000565024
0.000561783
0.000558343
0.000554708
0.000550882
0.000546869
0.000527507
0.000527392
0.000527029
0.000526428
0.000525632
0.000524653
0.000523485
0.000522123
0.000520567
0.000518822
0.000516889
0.00051477
0.000512467
0.000509982
0.000507318
0.000504477
0.000501462
0.000498276
0.000494921
0.000491402
0.000466226
0.000466126
0.000465812
0.000465292
0.000464603
0.000463756
0.000462745
0.000461567
0.000460221
0.000458711
0.000457039
0.000455206
0.000453213
0.000451063
0.000448758
0.000446299
0.00044369
0.000440932
0.000438029
0.000434982
0.000404089
0.000404005
0.00040374
0.000403299
0.000402716
0.000401998
0.000401142
0.000400143
0.000399002
0.000397722
0.000396304
0.000394749
0.000393059
0.000391236
0.00038928
0.000387194
0.000384979
0.000382639
0.000380174
0.000377587
0.000340898
0.000340826
0.000340604
0.000340237
0.000339751
0.000339155
0.000338443
0.000337612
0.000336665
0.000335601
0.000334424
0.000333133
0.00033173
0.000330216
0.000328592
0.00032686
0.000325021
0.000323078
0.000321031
0.000318883
0.000276441
0.000276388
0.000276215
0.000275926
0.000275543
0.000275072
0.000274508
0.000273851
0.000273099
0.000272256
0.000271322
0.000270297
0.000269182
0.000267979
0.000266689
0.000265311
0.000263849
0.000262303
0.000260674
0.000258963
0.000210318
0.000210271
0.000210132
0.000209906
0.00020961
0.000209247
0.000208815
0.000208312
0.000207739
0.000207097
0.000206386
0.000205607
0.000204761
0.000203849
0.000202871
0.000201828
0.000200721
0.000199551
0.000198319
0.000197026
0.00014229
0.00014227
0.000142193
0.000142055
0.000141868
0.000141636
0.000141358
0.000141032
0.000140659
0.000140239
0.000139772
0.000139261
0.000138703
0.000138101
0.000137455
0.000136765
0.000136032
0.000135256
0.000134438
0.000133579
7.14326e-05
7.13981e-05
7.13267e-05
7.12303e-05
7.11141e-05
7.09766e-05
7.0816e-05
7.06321e-05
7.04255e-05
7.01967e-05
6.99457e-05
6.96726e-05
6.93778e-05
6.90613e-05
6.87235e-05
6.83647e-05
6.7985e-05
6.75848e-05
6.71645e-05
6.67242e-05
0.00503983
0.00305474
0.00237586
0.00221753
0.00206889
0.00190991
0.00177316
0.00166154
0.00156865
0.00148834
0.00141688
0.00135233
0.00129344
0.00123924
0.00118896
0.00114204
0.00109804
0.0010566
0.00101743
0.000980292
0.000944972
0.000911296
0.000879115
0.000848298
0.00081873
0.000790311
0.000762953
0.000736579
0.000711119
0.000686509
0.000662694
0.000639625
0.000617255
0.000595542
0.000574449
0.000553943
0.000533991
0.000514564
0.000495637
0.000477184
0.000459183
0.000441614
0.000424456
0.000407693
0.000391308
0.000375286
0.000359612
0.000344274
0.00032926
0.00031456
0.000300163
0.000286061
0.000272245
0.000258709
0.000245446
0.000232451
0.000219719
0.000207248
0.000195034
0.000183078
0.000171379
0.000159939
0.000148762
0.000137855
0.000127227
0.000116889
0.000106862
9.71673e-05
8.78434e-05
7.89216e-05
7.0506e-05
6.25716e-05
5.56018e-05
4.87615e-05
4.54735e-05
3.71267e-05
5.17429e-05
1.19115e-05
0.000145289
-0.000193608
0.00509453
0.00310953
0.00241243
0.0022384
0.00208105
0.00191845
0.00178017
0.0016676
0.00157392
0.00149295
0.00142094
0.00135595
0.00129671
0.00124221
0.00119169
0.00114455
0.00110037
0.00105877
0.00101946
0.000982194
0.000946763
0.000912988
0.000880717
0.000849818
0.000820176
0.00079169
0.00076427
0.000737838
0.000712325
0.000687666
0.000663806
0.000640695
0.000618286
0.000596536
0.000575409
0.000554871
0.000534889
0.000515433
0.000496479
0.000478001
0.000459976
0.000442384
0.000425204
0.000408421
0.000392016
0.000375975
0.000360283
0.000344929
0.000329899
0.000315183
0.000300771
0.000286655
0.000272826
0.000259277
0.000246001
0.000232994
0.000220251
0.000207768
0.000195544
0.000183577
0.000171868
0.000160418
0.000149232
0.000138316
0.000127679
0.000117334
0.000107298
9.75958e-05
8.82644e-05
7.93354e-05
7.09128e-05
6.29717e-05
5.59957e-05
4.91488e-05
4.58569e-05
3.75007e-05
5.21204e-05
1.22805e-05
0.000145677
-0.000193398
0.00507731
0.00311996
0.00242868
0.00225305
0.00209401
0.00192979
0.00178996
0.00167608
0.00158132
0.00149949
0.00142678
0.0013612
0.00130147
0.00124657
0.0011957
0.00114826
0.00110381
0.00106199
0.00102248
0.000985032
0.00094944
0.00091552
0.000883118
0.0008521
0.000822349
0.000793762
0.000766251
0.000739735
0.000714143
0.000689412
0.000665485
0.000642311
0.000619843
0.000598039
0.00057686
0.000556273
0.000536246
0.000516748
0.000497753
0.000479237
0.000461176
0.000443549
0.000426337
0.000409523
0.000393089
0.00037702
0.000361302
0.000345921
0.000330867
0.000316128
0.000301694
0.000287556
0.000273706
0.000260138
0.000246843
0.000233818
0.000221057
0.000208557
0.000196317
0.000184334
0.00017261
0.000161146
0.000149946
0.000139016
0.000128366
0.000118008
0.00010796
9.82459e-05
8.89031e-05
7.99631e-05
7.153e-05
6.35785e-05
5.65932e-05
4.97357e-05
4.64385e-05
3.80647e-05
5.26985e-05
1.28093e-05
0.000146353
-0.0001932
0.00503977
0.00312461
0.00243808
0.0022596
0.00210099
0.00193794
0.00179837
0.00168402
0.00158855
0.001506
0.00143267
0.00136656
0.00130638
0.00125108
0.00119987
0.00115215
0.00110744
0.00106538
0.00102567
0.000988042
0.000952285
0.000918216
0.000885679
0.000854537
0.000824673
0.000795983
0.000768376
0.000741772
0.000716098
0.000691291
0.000667293
0.000644052
0.000621522
0.00059966
0.000578428
0.00055779
0.000537714
0.000518171
0.000499133
0.000480575
0.000462476
0.000444813
0.000427567
0.000410719
0.000394254
0.000378155
0.000362408
0.000347
0.00033192
0.000317156
0.000302697
0.000288537
0.000274665
0.000261075
0.00024776
0.000234715
0.000221935
0.000209418
0.000197159
0.00018516
0.000173419
0.00016194
0.000150724
0.00013978
0.000129116
0.000118744
0.000108682
9.89557e-05
8.96005e-05
8.06485e-05
7.22038e-05
6.42411e-05
5.72452e-05
5.03762e-05
4.7071e-05
3.86815e-05
5.33166e-05
1.33978e-05
0.00014711
-0.000193062
0.00499874
0.00313234
0.00244903
0.00226595
0.00210589
0.00194299
0.00180394
0.00169001
0.00159462
0.00151187
0.0014382
0.00137171
0.00131118
0.00125556
0.00120405
0.00115606
0.00111112
0.00106885
0.00102894
0.000991143
0.000955229
0.000921015
0.000888345
0.000857082
0.000827105
0.000798311
0.000770608
0.000743915
0.000718158
0.000693273
0.000669203
0.000645895
0.000623301
0.00060138
0.000580091
0.0005594
0.000539274
0.000519684
0.000500601
0.000482002
0.000463862
0.000446161
0.000428878
0.000411996
0.000395498
0.000379368
0.000363591
0.000348154
0.000333047
0.000318256
0.000303773
0.000289588
0.000275693
0.000262081
0.000248744
0.000235678
0.000222879
0.000210342
0.000198065
0.000186048
0.00017429
0.000162794
0.000151562
0.000140602
0.000129923
0.000119536
0.000109461
9.97203e-05
9.03518e-05
8.13869e-05
7.29299e-05
6.49549e-05
5.79473e-05
5.10664e-05
4.77498e-05
3.93482e-05
5.39658e-05
1.40545e-05
0.000147902
-0.000192916
0.00495624
0.00313963
0.00245912
0.00227194
0.00211049
0.00194713
0.00180788
0.00169402
0.00159887
0.00151633
0.00144274
0.00137622
0.00131554
0.00125974
0.00120804
0.00115986
0.00111473
0.00107228
0.00103222
0.000994264
0.000958208
0.000923864
0.000891072
0.000859695
0.000829613
0.00080072
0.000772925
0.000746144
0.000720307
0.000695346
0.000671204
0.000647829
0.000625172
0.00060319
0.000581845
0.000561101
0.000540924
0.000521286
0.000502158
0.000483515
0.000465334
0.000447594
0.000430274
0.000413356
0.000396824
0.000380661
0.000364853
0.000349387
0.000334251
0.000319433
0.000304924
0.000290713
0.000276794
0.000263158
0.000249799
0.000236712
0.000223891
0.000211334
0.000199038
0.000187002
0.000175226
0.000163712
0.000152463
0.000141487
0.000130792
0.00012039
0.000110299
0.000100544
9.11619e-05
8.21833e-05
7.37128e-05
6.57249e-05
5.87041e-05
5.18109e-05
4.84792e-05
4.00698e-05
5.4649e-05
1.47881e-05
0.00014871
-0.000192719
0.00491204
0.00314572
0.00246798
0.0022769
0.00211442
0.00195089
0.00181138
0.00169726
0.00160196
0.00151945
0.00144599
0.00137962
0.00131905
0.00126328
0.00121155
0.00116329
0.00111807
0.00107552
0.00103534
0.000997274
0.00096111
0.000926661
0.000893769
0.000862296
0.000832123
0.000803143
0.000775265
0.000748406
0.000722494
0.000697463
0.000673254
0.000649815
0.000627098
0.000605059
0.000583659
0.000562863
0.000542637
0.000522951
0.000503778
0.000485093
0.000466872
0.000449092
0.000431735
0.000414782
0.000398215
0.00038202
0.00036618
0.000350684
0.000335519
0.000320674
0.000306137
0.000291901
0.000277957
0.000264298
0.000250916
0.000237806
0.000224964
0.000212387
0.000200071
0.000188015
0.00017622
0.000164688
0.000153422
0.000142428
0.000131716
0.000121298
0.000111192
0.000101422
9.20249e-05
8.30319e-05
7.45473e-05
6.65457e-05
5.95107e-05
5.26048e-05
4.92539e-05
4.08417e-05
5.53592e-05
1.55987e-05
0.000149507
-0.00019244
0.00486625
0.00315133
0.00247633
0.0022812
0.00211769
0.0019541
0.0018145
0.00170018
0.00160466
0.00152196
0.00144842
0.00138206
0.00132158
0.00126594
0.00121431
0.00116611
0.00112092
0.00107836
0.00103814
0.00100003
0.000963807
0.000929293
0.000896334
0.000864793
0.000834551
0.000805504
0.00077756
0.000750637
0.000724662
0.00069957
0.000675303
0.000651808
0.000629037
0.000606946
0.000585496
0.000564652
0.000544381
0.000524651
0.000505436
0.00048671
0.000468449
0.000450632
0.000433239
0.000416251