/*--------------------------------*- C++ -*----------------------------------*\
| =========                 |                                                 |
| \\      /  F ield         | OpenFOAM: The Open Source CFD Toolbox           |
|  \\    /   O peration     | Version:  v1912                                 |
|   \\  /    A nd           | Website:  www.openfoam.com                      |
|    \\/     M anipulation  |                                                 |
\*---------------------------------------------------------------------------*/
FoamFile
{
    version     2.0;
    format      ascii;
    class       surfaceScalarField;
    location    "400";
    object      phi;
}
// * * * * * * * * * * * * * * * * * * * * * * * * * * * * * * * * * * * * * //

dimensions      [0 3 -1 0 0 0 0];
oriented        oriented;


internalField   nonuniform List<scalar> 
19800
(
2.29239e-07
3.80304e-13
2.29238e-07
1.24309e-12
2.29235e-07
2.21667e-12
2.29232e-07
3.19114e-12
2.29228e-07
4.18846e-12
2.29223e-07
5.26745e-12
2.29216e-07
6.46519e-12
2.29208e-07
7.81505e-12
2.29199e-07
9.35851e-12
2.29188e-07
1.11769e-11
2.29175e-07
1.33317e-11
2.29158e-07
1.60835e-11
2.29139e-07
1.93202e-11
2.29115e-07
2.44874e-11
2.29086e-07
2.88974e-11
2.29041e-07
4.52329e-11
2.29005e-07
3.58721e-11
2.28824e-07
1.80618e-10
2.29265e-07
-4.41121e-10
1.28266e-08
2.16439e-07
2.42236e-07
7.86042e-13
2.42234e-07
2.56038e-12
2.42232e-07
4.55875e-12
2.42229e-07
6.56243e-12
2.42224e-07
8.61407e-12
2.42219e-07
1.08334e-11
2.42212e-07
1.32967e-11
2.42204e-07
1.60728e-11
2.42194e-07
1.92472e-11
2.42182e-07
2.29867e-11
2.42168e-07
2.7419e-11
2.42151e-07
3.30758e-11
2.4213e-07
3.97387e-11
2.42105e-07
5.03441e-11
2.42074e-07
5.9472e-11
2.42026e-07
9.28541e-11
2.41988e-07
7.44699e-11
2.41804e-07
3.64078e-10
2.42082e-07
-7.18938e-10
1.25907e-08
2.42318e-07
2.5597e-07
1.2157e-12
2.55968e-07
3.9532e-12
2.55966e-07
7.03348e-12
2.55962e-07
1.01246e-11
2.55958e-07
1.32904e-11
2.55952e-07
1.67147e-11
2.55944e-07
2.05153e-11
2.55936e-07
2.47983e-11
2.55925e-07
2.96961e-11
2.55913e-07
3.54652e-11
2.55898e-07
4.23043e-11
2.5588e-07
5.10295e-11
2.55858e-07
6.13148e-11
2.55831e-07
7.76572e-11
2.55799e-07
9.18001e-11
2.55749e-07
1.43032e-10
2.55707e-07
1.16134e-10
2.55523e-07
5.47767e-10
2.55667e-07
-8.62439e-10
1.20368e-08
2.56221e-07
2.70482e-07
1.67081e-12
2.70481e-07
5.42596e-12
2.70478e-07
9.64833e-12
2.70474e-07
1.38884e-11
2.70469e-07
1.82315e-11
2.70463e-07
2.29291e-11
2.70456e-07
2.81427e-11
2.70446e-07
3.40179e-11
2.70435e-07
4.07366e-11
2.70422e-07
4.86501e-11
2.70406e-07
5.80323e-11
2.70387e-07
6.99982e-11
2.70365e-07
8.41135e-11
2.70336e-07
1.06504e-10
2.70302e-07
1.2599e-10
2.70249e-07
1.95832e-10
2.70203e-07
1.61461e-10
2.70022e-07
7.29137e-10
2.70057e-07
-8.97575e-10
1.16459e-08
2.70448e-07
2.85818e-07
2.15301e-12
2.85816e-07
6.98337e-12
2.85813e-07
1.24112e-11
2.85809e-07
1.7865e-11
2.85804e-07
2.34523e-11
2.85797e-07
2.94952e-11
2.85789e-07
3.62018e-11
2.8578e-07
4.37593e-11
2.85768e-07
5.24018e-11
2.85754e-07
6.25807e-11
2.85737e-07
7.465e-11
2.85717e-07
9.0038e-11
2.85693e-07
1.08203e-10
2.85663e-07
1.36966e-10
2.85627e-07
1.62159e-10
2.85571e-07
2.51315e-10
2.85522e-07
2.11049e-10
2.85344e-07
9.06695e-10
2.85292e-07
-8.45842e-10
1.13601e-08
2.85578e-07
3.02022e-07
2.66409e-12
3.02021e-07
8.63041e-12
3.02018e-07
1.53302e-11
3.02014e-07
2.20665e-11
3.02008e-07
2.89684e-11
3.02001e-07
3.64329e-11
3.01993e-07
4.47168e-11
3.01982e-07
5.40515e-11
3.0197e-07
6.47266e-11
3.01955e-07
7.72985e-11
3.01938e-07
9.2207e-11
3.01917e-07
1.11208e-10
3.01891e-07
1.33657e-10
3.01859e-07
1.69128e-10
3.01821e-07
2.00431e-10
3.01762e-07
3.09536e-10
3.01708e-07
2.65478e-10
3.01535e-07
1.07966e-09
3.01414e-07
-7.24848e-10
1.11512e-08
3.01623e-07
3.19146e-07
3.20601e-12
3.19144e-07
1.03724e-11
3.19141e-07
1.84143e-11
3.19137e-07
2.65052e-11
3.19131e-07
3.47964e-11
3.19123e-07
4.37628e-11
3.19114e-07
5.37131e-11
3.19104e-07
6.49254e-11
3.19091e-07
7.77477e-11
3.19075e-07
9.28472e-11
3.19056e-07
1.10755e-10
3.19034e-07
1.3357e-10
3.19007e-07
1.6055e-10
3.18973e-07
2.03075e-10
3.18933e-07
2.40938e-10
3.18872e-07
3.7055e-10
3.18812e-07
3.25279e-10
3.18644e-07
1.24786e-09
3.18468e-07
-5.49018e-10
1.10042e-08
3.18615e-07
3.3724e-07
3.78093e-12
3.37238e-07
1.22152e-11
3.37235e-07
2.16726e-11
3.3723e-07
3.11946e-11
3.37224e-07
4.09537e-11
3.37217e-07
5.15068e-11
3.37207e-07
6.32177e-11
3.37196e-07
7.64132e-11
3.37182e-07
9.15039e-11
3.37165e-07
1.09273e-10
3.37146e-07
1.3035e-10
3.37122e-07
1.57189e-10
3.37094e-07
1.88961e-10
3.37058e-07
2.38898e-10
3.37015e-07
2.83818e-10
3.36951e-07
4.34413e-10
3.36886e-07
3.90923e-10
3.36722e-07
1.41162e-09
3.36503e-07
-3.30264e-10
1.09091e-08
3.36598e-07
3.56361e-07
4.39122e-12
3.56359e-07
1.41648e-11
3.56355e-07
2.51148e-11
3.5635e-07
3.61483e-11
3.56344e-07
4.74585e-11
3.56336e-07
5.9688e-11
3.56325e-07
7.32586e-11
3.56313e-07
8.85491e-11
3.56299e-07
1.06036e-10
3.56281e-07
1.26624e-10
3.56261e-07
1.51048e-10
3.56236e-07
1.82133e-10
3.56206e-07
2.18977e-10
3.56168e-07
2.7669e-10
3.56123e-07
3.29219e-10
3.56056e-07
5.01187e-10
3.55984e-07
4.62802e-10
3.55824e-07
1.57166e-09
3.55572e-07
-7.83875e-11
1.08576e-08
3.55624e-07
3.76565e-07
5.03955e-12
3.76563e-07
1.6228e-11
3.76559e-07
2.8751e-11
3.76554e-07
4.13809e-11
3.76547e-07
5.43301e-11
3.76538e-07
6.83306e-11
3.76528e-07
8.38657e-11
3.76515e-07
1.01369e-10
3.765e-07
1.21386e-10
3.76481e-07
1.4495e-10
3.76459e-07
1.72911e-10
3.76433e-07
2.08472e-10
3.76401e-07
2.50683e-10
3.76362e-07
3.16548e-10
3.76313e-07
3.77292e-10
3.76244e-07
5.70942e-10
3.76165e-07
5.41224e-10
3.76008e-07
1.72899e-09
3.75731e-07
1.98712e-10
1.08421e-08
3.75746e-07
3.97915e-07
5.72888e-12
3.97913e-07
1.8412e-11
3.97909e-07
3.2592e-11
3.97903e-07
4.69078e-11
3.97896e-07
6.15889e-11
3.97887e-07
7.74602e-11
3.97876e-07
9.50702e-11
3.97862e-07
1.1491e-10
3.97846e-07
1.37599e-10
3.97826e-07
1.64305e-10
3.97803e-07
1.96e-10
3.97776e-07
2.36281e-10
3.97742e-07
2.84171e-10
3.977e-07
3.58568e-10
3.97649e-07
4.28194e-10
3.97576e-07
6.43757e-10
3.97491e-07
6.2642e-10
3.97335e-07
1.88474e-09
3.97039e-07
4.94925e-10
1.08553e-08
3.97026e-07
4.20475e-07
6.46259e-12
4.20473e-07
2.07246e-11
4.20469e-07
3.66492e-11
4.20463e-07
5.2745e-11
4.20455e-07
6.9256e-11
4.20445e-07
8.71036e-11
4.20434e-07
1.06905e-10
4.20419e-07
1.29212e-10
4.20402e-07
1.54723e-10
4.20382e-07
1.84745e-10
4.20357e-07
2.20384e-10
4.20328e-07
2.65637e-10
4.20293e-07
3.19539e-10
4.20248e-07
4.02854e-10
4.20195e-07
4.82086e-10
4.20119e-07
7.19723e-10
4.20026e-07
7.18555e-10
4.19871e-07
2.03999e-09
4.1956e-07
8.05811e-10
1.08899e-08
4.19526e-07
4.44314e-07
7.24453e-12
4.44312e-07
2.31747e-11
4.44308e-07
4.09343e-11
4.44301e-07
5.8909e-11
4.44293e-07
7.73539e-11
4.44283e-07
9.72891e-11
4.44271e-07
1.19405e-10
4.44256e-07
1.44316e-10
4.44238e-07
1.72807e-10
4.44216e-07
2.06328e-10
4.4419e-07
2.4613e-10
4.44159e-07
2.9662e-10
4.44122e-07
3.56885e-10
4.44075e-07
4.49507e-10
4.44018e-07
5.39132e-10
4.43939e-07
7.98941e-10
4.4384e-07
8.1775e-10
4.43684e-07
2.1957e-09
4.43361e-07
1.12845e-09
1.09393e-08
4.43312e-07
4.69505e-07
8.07905e-12
4.69503e-07
2.57718e-11
4.69498e-07
4.54599e-11
4.69492e-07
6.54173e-11
4.69483e-07
8.59058e-11
4.69472e-07
1.08046e-10
4.69459e-07
1.32605e-10
4.69443e-07
1.60267e-10
4.69424e-07
1.91902e-10
4.69401e-07
2.29115e-10
4.69374e-07
2.73313e-10
4.69342e-07
3.29313e-10
4.69302e-07
3.96315e-10
4.69253e-07
4.98635e-10
4.69193e-07
5.99497e-10
4.6911e-07
8.81511e-10
4.69004e-07
9.24117e-10
4.68847e-07
2.35254e-09
4.68514e-07
1.46124e-09
1.09974e-08
4.68456e-07
4.96125e-07
8.97112e-12
4.96122e-07
2.85267e-11
4.96117e-07
5.02392e-11
4.9611e-07
7.22879e-11
4.96101e-07
9.49362e-11
4.9609e-07
1.19406e-10
4.96076e-07
1.46545e-10
4.96059e-07
1.77109e-10
4.96039e-07
2.12064e-10
4.96015e-07
2.53169e-10
4.95986e-07
3.02006e-10
4.95952e-07
3.63804e-10
4.9591e-07
4.37935e-10
4.95858e-07
5.50346e-10
4.95794e-07
6.63351e-10
4.95708e-07
9.67535e-10
4.95595e-07
1.03778e-09
4.95436e-07
2.51088e-09
4.95094e-07
1.80362e-09
1.10589e-08
4.95033e-07
5.24253e-07
9.92628e-12
5.2425e-07
3.14513e-11
5.24245e-07
5.52862e-11
5.24238e-07
7.95395e-11
5.24228e-07
1.04471e-10
5.24216e-07
1.314e-10
5.24202e-07
1.61263e-10
5.24184e-07
1.9489e-10
5.24163e-07
2.33348e-10
5.24137e-07
2.78558e-10
5.24107e-07
3.3229e-10
5.2407e-07
4.00182e-10
5.24027e-07
4.81857e-10
5.23972e-07
6.04748e-10
5.23905e-07
7.30863e-10
5.23815e-07
1.0571e-09
5.23694e-07
1.15892e-09
5.23534e-07
2.67072e-09
5.23182e-07
2.15574e-09
1.11198e-08
5.23121e-07
5.53976e-07
1.09506e-11
5.53973e-07
3.4559e-11
5.53968e-07
6.06155e-11
5.5396e-07
8.71914e-11
5.5395e-07
1.14536e-10
5.53937e-07
1.44064e-10
5.53922e-07
1.76801e-10
5.53903e-07
2.1366e-10
5.53881e-07
2.55813e-10
5.53854e-07
3.05349e-10
5.53822e-07
3.64245e-10
5.53784e-07
4.38539e-10
5.53737e-07
5.28195e-10
5.5368e-07
6.61955e-10
5.53609e-07
8.02206e-10
5.53516e-07
1.15027e-09
5.53387e-07
1.28775e-09
5.53226e-07
2.83182e-09
5.52863e-07
2.51817e-09
1.11771e-08
5.52806e-07
5.85385e-07
1.20502e-11
5.85381e-07
3.78639e-11
5.85376e-07
6.62429e-11
5.85368e-07
9.52635e-11
5.85357e-07
1.25159e-10
5.85344e-07
1.57432e-10
5.85327e-07
1.93202e-10
5.85307e-07
2.33471e-10
5.85284e-07
2.79521e-10
5.85256e-07
3.33616e-10
5.85222e-07
3.97957e-10
5.85181e-07
4.78971e-10
5.85132e-07
5.77067e-10
5.85072e-07
7.22076e-10
5.84997e-07
8.77551e-10
5.849e-07
1.2471e-09
5.84763e-07
1.42451e-09
5.84601e-07
2.99376e-09
5.84228e-07
2.89148e-09
1.12288e-08
5.84176e-07
6.18574e-07
1.32309e-11
6.1857e-07
4.13807e-11
6.18564e-07
7.2185e-11
6.18556e-07
1.03776e-10
6.18545e-07
1.36369e-10
6.18531e-07
1.71541e-10
6.18513e-07
2.10512e-10
6.18492e-07
2.54375e-10
6.18467e-07
3.04536e-10
6.18438e-07
3.63431e-10
6.18402e-07
4.33513e-10
6.18359e-07
5.21575e-10
6.18308e-07
6.28593e-10
6.18245e-07
7.85226e-10
6.18165e-07
9.57069e-10
6.18065e-07
1.34763e-09
6.1792e-07
1.56947e-09
6.17757e-07
3.15611e-09
6.17373e-07
3.27591e-09
1.12739e-08
6.17328e-07
6.53645e-07
1.44976e-11
6.53641e-07
4.51234e-11
6.53635e-07
7.84596e-11
6.53626e-07
1.12752e-10
6.53614e-07
1.48195e-10
6.53599e-07
1.8643e-10
6.53581e-07
2.28776e-10
6.53559e-07
2.76428e-10
6.53532e-07
3.30922e-10
6.53501e-07
3.94872e-10
6.53463e-07
4.71001e-10
6.53419e-07
5.66453e-10
6.53364e-07
6.8289e-10
6.53298e-07
8.5152e-10
6.53214e-07
1.04092e-09
6.5311e-07
1.45192e-09
6.52957e-07
1.72277e-09
6.52794e-07
3.31867e-09
6.52399e-07
3.67099e-09
1.13122e-08
6.52361e-07
6.90704e-07
1.5853e-11
6.907e-07
4.91038e-11
6.90693e-07
8.50851e-11
6.90684e-07
1.22213e-10
6.90671e-07
1.60669e-10
6.90656e-07
2.02138e-10
6.90637e-07
2.48044e-10
6.90613e-07
2.99689e-10
6.90585e-07
3.58747e-10
6.90552e-07
4.28017e-10
6.90513e-07
5.10512e-10
6.90466e-07
6.13706e-10
6.90408e-07
7.40077e-10
6.90339e-07
9.21081e-10
6.9025e-07
1.12923e-09
6.90142e-07
1.56006e-09
6.89981e-07
1.8844e-09
6.89818e-07
3.48164e-09
6.89414e-07
4.07511e-09
1.13444e-08
6.89381e-07
7.29864e-07
1.72978e-11
7.2986e-07
5.33309e-11
7.29853e-07
9.20807e-11
7.29843e-07
1.32185e-10
7.2983e-07
1.73824e-10
7.29814e-07
2.18707e-10
7.29793e-07
2.68364e-10
7.29769e-07
3.24215e-10
7.29739e-07
3.88081e-10
7.29704e-07
4.62946e-10
7.29663e-07
5.5214e-10
7.29613e-07
6.6344e-10
7.29553e-07
8.00267e-10
7.2948e-07
9.94039e-10
7.29387e-07
1.2221e-09
7.29275e-07
1.67224e-09
7.29105e-07
2.05402e-09
7.28941e-07
3.64585e-09
7.28531e-07
4.48498e-09
1.13718e-08
7.28504e-07
7.71245e-07
1.88308e-11
7.71241e-07
5.78102e-11
7.71233e-07
9.94662e-11
7.71223e-07
1.42697e-10
7.71209e-07
1.87693e-10
7.71191e-07
2.36181e-10
7.7117e-07
2.89791e-10
7.71144e-07
3.50071e-10
7.71113e-07
4.18996e-10
7.71076e-07
4.99743e-10
7.71033e-07
5.95977e-10
7.7098e-07
7.15765e-10
7.70917e-07
8.63569e-10
7.7084e-07
1.07054e-09
7.70743e-07
1.31958e-09
7.70626e-07
1.78877e-09
7.70449e-07
2.23095e-09
7.70283e-07
3.81275e-09
7.69872e-07
4.89518e-09
1.13967e-08
7.69847e-07
8.14972e-07
2.04502e-11
8.14967e-07
6.25463e-11
8.14959e-07
1.07262e-10
8.14948e-07
1.53778e-10
8.14934e-07
2.02316e-10
8.14915e-07
2.54605e-10
8.14893e-07
3.1238e-10
8.14865e-07
3.77321e-10
8.14833e-07
4.5157e-10
8.14794e-07
5.38498e-10
8.14748e-07
6.42123e-10
8.14693e-07
7.70798e-10
8.14626e-07
9.30093e-10
8.14546e-07
1.15076e-09
8.14444e-07
1.42166e-09
8.14323e-07
1.91005e-09
8.1414e-07
2.4141e-09
8.13968e-07
3.98428e-09
8.13565e-07
5.29836e-09
1.14216e-08
8.1354e-07
8.61178e-07
2.21551e-11
8.61173e-07
6.75442e-11
8.61165e-07
1.1549e-10
8.61153e-07
1.65461e-10
8.61137e-07
2.17732e-10
8.61118e-07
2.7403e-10
8.61094e-07
3.36192e-10
8.61065e-07
4.06039e-10
8.61031e-07
4.85885e-10
8.6099e-07
5.79308e-10
8.60942e-07
6.90687e-10
8.60884e-07
8.28666e-10
8.60814e-07
9.99959e-10
8.6073e-07
1.23487e-09
8.60623e-07
1.52835e-09
8.60497e-07
2.03654e-09
8.60309e-07
2.60234e-09
8.60131e-07
4.16223e-09
8.59742e-07
5.68712e-09
1.14486e-08
8.59715e-07
9.10003e-07
2.39462e-11
9.09998e-07
7.28115e-11
9.09989e-07
1.24171e-10
9.09977e-07
1.77781e-10
9.09961e-07
2.33983e-10
9.0994e-07
2.94506e-10
9.09915e-07
3.61287e-10
9.09885e-07
4.36296e-10
9.09849e-07
5.22028e-10
9.09806e-07
6.22272e-10
9.09755e-07
7.41779e-10
9.09694e-07
8.89498e-10
9.09621e-07
1.0733e-09
9.09532e-07
1.32304e-09
9.09421e-07
1.63968e-09
9.09289e-07
2.16858e-09
9.09097e-07
2.79476e-09
9.08911e-07
4.34752e-09
9.08542e-07
6.05638e-09
1.14788e-08
9.08512e-07
9.61597e-07
2.58258e-11
9.61592e-07
7.83581e-11
9.61582e-07
1.33329e-10
9.61569e-07
1.9077e-10
9.61552e-07
2.51111e-10
9.61531e-07
3.16085e-10
9.61504e-07
3.87729e-10
9.61472e-07
4.68168e-10
9.61434e-07
5.60084e-10
9.61389e-07
6.67487e-10
9.61335e-07
7.9551e-10
9.61272e-07
9.53418e-10
9.61195e-07
1.15022e-09
9.61102e-07
1.41543e-09
9.60986e-07
1.7557e-09
9.60848e-07
2.30632e-09
9.60652e-07
2.99078e-09
9.6046e-07
4.54e-09
9.60112e-07
6.40397e-09
1.15118e-08
9.60079e-07
1.01612e-06
2.77977e-11
1.01611e-06
8.41959e-11
1.0161e-06
1.42986e-10
1.01609e-06
2.04463e-10
1.01607e-06
2.69159e-10
1.01605e-06
3.3882e-10
1.01602e-06
4.15581e-10
1.01598e-06
5.01728e-10
1.01594e-06
6.00138e-10
1.0159e-06
7.1505e-10
1.01584e-06
8.51983e-10
1.01577e-06
1.02054e-09
1.01569e-06
1.23085e-09
1.0156e-06
1.51215e-09
1.01548e-06
1.87643e-09
1.01533e-06
2.44975e-09
1.01513e-06
3.18991e-09
1.01493e-06
4.73885e-09
1.01461e-06
6.72936e-09
1.15463e-08
1.01457e-06
1.07373e-06
2.98664e-11
1.07372e-06
9.03378e-11
1.07371e-06
1.53165e-10
1.0737e-06
2.18892e-10
1.07368e-06
2.8817e-10
1.07365e-06
3.62763e-10
1.07362e-06
4.44907e-10
1.07359e-06
5.3705e-10
1.07355e-06
6.42275e-10
1.0735e-06
7.65055e-10
1.07344e-06
9.11303e-10
1.07337e-06
1.09097e-09
1.07328e-06
1.31528e-09
1.07318e-06
1.61326e-09
1.07305e-06
2.00188e-09
1.07291e-06
2.59875e-09
1.0727e-06
3.39169e-09
1.0725e-06
4.94284e-09
1.0722e-06
7.03277e-09
1.15808e-08
1.07216e-06
1.1346e-06
3.20368e-11
1.1346e-06
9.67976e-11
1.13459e-06
1.63891e-10
1.13457e-06
2.34094e-10
1.13455e-06
3.08188e-10
1.13452e-06
3.87969e-10
1.13449e-06
4.75769e-10
1.13446e-06
5.74208e-10
1.13441e-06
6.86577e-10
1.13436e-06
8.17594e-10
1.1343e-06
9.73563e-10
1.13422e-06
1.1648e-09
1.13414e-06
1.4036e-09
1.13403e-06
1.71883e-09
1.1339e-06
2.132e-09
1.13375e-06
2.75312e-09
1.13354e-06
3.59562e-09
1.13333e-06
5.15064e-09
1.13305e-06
7.31467e-09
1.16133e-08
1.13302e-06
1.19893e-06
3.43138e-11
1.19892e-06
1.03589e-10
1.19891e-06
1.75186e-10
1.1989e-06
2.50101e-10
1.19888e-06
3.29257e-10
1.19885e-06
4.1449e-10
1.19882e-06
5.08232e-10
1.19878e-06
6.13275e-10
1.19873e-06
7.33125e-10
1.19868e-06
8.72753e-10
1.19861e-06
1.03886e-09
1.19853e-06
1.24213e-09
1.19844e-06
1.49586e-09
1.19833e-06
1.82887e-09
1.1982e-06
2.26673e-09
1.19804e-06
2.91257e-09
1.19783e-06
3.80117e-09
1.19762e-06
5.36078e-09
1.19736e-06
7.57571e-09
1.16425e-08
1.19733e-06
1.26691e-06
3.67027e-11
1.2669e-06
1.10727e-10
1.26689e-06
1.87074e-10
1.26687e-06
2.66949e-10
1.26685e-06
3.51422e-10
1.26682e-06
4.4238e-10
1.26679e-06
5.42359e-10
1.26674e-06
6.54323e-10
1.2667e-06
7.82e-10
1.26664e-06
9.30617e-10
1.26657e-06
1.10726e-09
1.26649e-06
1.32301e-09
1.26639e-06
1.59213e-09
1.26628e-06
1.94339e-09
1.26614e-06
2.40593e-09
1.26597e-06
3.07673e-09
1.26577e-06
4.00774e-09
1.26556e-06
5.57178e-09
1.26532e-06
7.81658e-09
1.16668e-08
1.26529e-06
1.33873e-06
3.92086e-11
1.33873e-06
1.18226e-10
1.33871e-06
1.9958e-10
1.3387e-06
2.84671e-10
1.33867e-06
3.74725e-10
1.33864e-06
4.71692e-10
1.33861e-06
5.7821e-10
1.33856e-06
6.97419e-10
1.33851e-06
8.33275e-10
1.33845e-06
9.91263e-10
1.33838e-06
1.17886e-09
1.3383e-06
1.40752e-09
1.3382e-06
1.69241e-09
1.33808e-06
2.06233e-09
1.33793e-06
2.54943e-09
1.33777e-06
3.24515e-09
1.33756e-06
4.2147e-09
1.33735e-06
5.78214e-09
1.33713e-06
8.03803e-09
1.16851e-08
1.33711e-06
1.41464e-06
4.18368e-11
1.41463e-06
1.26099e-10
1.41461e-06
2.12727e-10
1.4146e-06
3.03302e-10
1.41457e-06
3.9921e-10
1.41454e-06
5.02477e-10
1.4145e-06
6.15844e-10
1.41446e-06
7.42631e-10
1.4144e-06
8.87019e-10
1.41434e-06
1.05476e-09
1.41427e-06
1.25371e-09
1.41418e-06
1.4957e-09
1.41407e-06
1.79672e-09
1.41395e-06
2.1856e-09
1.4138e-06
2.69702e-09
1.41363e-06
3.41733e-09
1.41342e-06
4.42135e-09
1.41321e-06
5.99037e-09
1.41301e-06
8.24078e-09
1.16962e-08
1.413e-06
1.49484e-06
4.45922e-11
1.49483e-06
1.34362e-10
1.49482e-06
2.26537e-10
1.4948e-06
3.22873e-10
1.49477e-06
4.24919e-10
1.49474e-06
5.34784e-10
1.4947e-06
6.55318e-10
1.49465e-06
7.90019e-10
1.4946e-06
9.43295e-10
1.49453e-06
1.12116e-09
1.49445e-06
1.33185e-09
1.49436e-06
1.58755e-09
1.49425e-06
1.90501e-09
1.49412e-06
2.31306e-09
1.49397e-06
2.84839e-09
1.4938e-06
3.59264e-09
1.49359e-06
4.62694e-09
1.49339e-06
6.19503e-09
1.4932e-06
8.42556e-09
1.16994e-08
1.4932e-06
1.57959e-06
4.748e-11
1.57958e-06
1.43027e-10
1.57957e-06
2.41033e-10
1.57955e-06
3.43417e-10
1.57952e-06
4.5189e-10
1.57949e-06
5.68659e-10
1.57945e-06
6.96683e-10
1.5794e-06
8.39636e-10
1.57934e-06
1.00216e-09
1.57927e-06
1.19052e-09
1.57919e-06
1.4133e-09
1.57909e-06
1.68307e-09
1.57898e-06
2.0172e-09
1.57885e-06
2.44453e-09
1.57869e-06
3.0032e-09
1.57851e-06
3.77043e-09
1.57831e-06
4.83069e-09
1.57811e-06
6.39474e-09
1.57794e-06
8.59304e-09
1.16941e-08
1.57795e-06
1.66915e-06
5.05046e-11
1.66914e-06
1.52108e-10
1.66912e-06
2.56236e-10
1.6691e-06
3.64962e-10
1.66907e-06
4.80161e-10
1.66904e-06
6.04144e-10
1.669e-06
7.39985e-10
1.66894e-06
8.91529e-10
1.66888e-06
1.06364e-09
1.66881e-06
1.26286e-09
1.66873e-06
1.49809e-09
1.66863e-06
1.78221e-09
1.66851e-06
2.13319e-09
1.66837e-06
2.57977e-09
1.66822e-06
3.16101e-09
1.66804e-06
3.94993e-09
1.66784e-06
5.03176e-09
1.66764e-06
6.58819e-09
1.66749e-06
8.74387e-09
1.16799e-08
1.66751e-06
1.76378e-06
5.36706e-11
1.76377e-06
1.61618e-10
1.76376e-06
2.72165e-10
1.76374e-06
3.87535e-10
1.76371e-06
5.09764e-10
1.76367e-06
6.41276e-10
1.76362e-06
7.85261e-10
1.76357e-06
9.45734e-10
1.7635e-06
1.12778e-09
1.76343e-06
1.33819e-09
1.76334e-06
1.58617e-09
1.76324e-06
1.88491e-09
1.76312e-06
2.2528e-09
1.76298e-06
2.71845e-09
1.76282e-06
3.32134e-09
1.76264e-06
4.13035e-09
1.76244e-06
5.22928e-09
1.76226e-06
6.77418e-09
1.76212e-06
8.87863e-09
1.16567e-08
1.76214e-06
1.86378e-06
5.69818e-11
1.86377e-06
1.71566e-10
1.86376e-06
2.88836e-10
1.86373e-06
4.11157e-10
1.8637e-06
5.40727e-10
1.86366e-06
6.80085e-10
1.86362e-06
8.3254e-10
1.86356e-06
1.00227e-09
1.86349e-06
1.19459e-09
1.86341e-06
1.41649e-09
1.86332e-06
1.67751e-09
1.86322e-06
1.99104e-09
1.86309e-06
2.37583e-09
1.86295e-06
2.86022e-09
1.86279e-06
3.48363e-09
1.86261e-06
4.31081e-09
1.86242e-06
5.42238e-09
1.86224e-06
6.95162e-09
1.86212e-06
8.99784e-09
1.16245e-08
1.86215e-06
1.96945e-06
6.04415e-11
1.96944e-06
1.81962e-10
1.96942e-06
3.06263e-10
1.9694e-06
4.35849e-10
1.96937e-06
5.73071e-10
1.96933e-06
7.20592e-10
1.96928e-06
8.81839e-10
1.96922e-06
1.06116e-09
1.96915e-06
1.26404e-09
1.96907e-06
1.49774e-09
1.96897e-06
1.772e-09
1.96886e-06
2.10044e-09
1.96874e-06
2.502e-09
1.96859e-06
3.00464e-09
1.96843e-06
3.64724e-09
1.96825e-06
4.4904e-09
1.96806e-06
5.61016e-09
1.9679e-06
7.11954e-09
1.96779e-06
9.10199e-09
1.15833e-08
1.96783e-06
2.08111e-06
6.40524e-11
2.0811e-06
1.92814e-10
2.08108e-06
3.24457e-10
2.08106e-06
4.61622e-10
2.08102e-06
6.0681e-10
2.08098e-06
7.62808e-10
2.08093e-06
9.33163e-10
2.08087e-06
1.12237e-09
2.0808e-06
1.33612e-09
2.08071e-06
1.58186e-09
2.08062e-06
1.86953e-09
2.0805e-06
2.21291e-09
2.08037e-06
2.63097e-09
2.08023e-06
3.15118e-09
2.08006e-06
3.81146e-09
2.07989e-06
4.66817e-09
2.0797e-06
5.7917e-09
2.07955e-06
7.27707e-09
2.07946e-06
9.19153e-09
1.15334e-08
2.07951e-06
2.1991e-06
6.78161e-11
2.19909e-06
2.04125e-10
2.19907e-06
3.43424e-10
2.19905e-06
4.88483e-10
2.19901e-06
6.41948e-10
2.19897e-06
8.06731e-10
2.19892e-06
9.86497e-10
2.19885e-06
1.18589e-09
2.19878e-06
1.41076e-09
2.19869e-06
1.66874e-09
2.19859e-06
1.96993e-09
2.19847e-06
2.32816e-09
2.19834e-06
2.76236e-09
2.1982e-06
3.29929e-09
2.19803e-06
3.97553e-09
2.19786e-06
4.84313e-09
2.19768e-06
5.96614e-09
2.19754e-06
7.42349e-09
2.19746e-06
9.26686e-09
1.1475e-08
2.19752e-06
2.32379e-06
7.17334e-11
2.32377e-06
2.15898e-10
2.32375e-06
3.63163e-10
2.32373e-06
5.16429e-10
2.32369e-06
6.78478e-10
2.32364e-06
8.52346e-10
2.32359e-06
1.04181e-09
2.32352e-06
1.25165e-09
2.32345e-06
1.48787e-09
2.32336e-06
1.75824e-09
2.32325e-06
2.07297e-09
2.32314e-06
2.44589e-09
2.323e-06
2.89569e-09
2.32285e-06
3.44831e-09
2.32269e-06
4.13863e-09
2.32252e-06
5.0143e-09
2.32235e-06
6.13261e-09
2.32222e-06
7.55818e-09
2.32216e-06
9.32838e-09
1.14086e-08
2.32222e-06
2.45554e-06
7.58037e-11
2.45552e-06
2.28129e-10
2.4555e-06
3.8367e-10
2.45547e-06
5.45449e-10
2.45544e-06
7.16381e-10
2.45539e-06
8.99619e-10
2.45533e-06
1.09905e-09
2.45526e-06
1.31957e-09
2.45518e-06
1.56733e-09
2.45509e-06
1.85017e-09
2.45499e-06
2.17839e-09
2.45487e-06
2.56569e-09
2.45473e-06
3.03045e-09
2.45458e-06
3.59754e-09
2.45442e-06
4.29988e-09
2.45426e-06
5.18068e-09
2.4541e-06
6.29028e-09
2.45398e-06
7.68065e-09
2.45393e-06
9.37646e-09
1.13344e-08
2.454e-06
2.59476e-06
8.00247e-11
2.59474e-06
2.40812e-10
2.59472e-06
4.0493e-10
2.59469e-06
5.7552e-10
2.59465e-06
7.55621e-10
2.5946e-06
9.48496e-10
2.59454e-06
1.15814e-09
2.59447e-06
1.38954e-09
2.59439e-06
1.64895e-09
2.5943e-06
1.9443e-09
2.59419e-06
2.28585e-09
2.59407e-06
2.68713e-09
2.59393e-06
3.16601e-09
2.59379e-06
3.7462e-09
2.59363e-06
4.45837e-09
2.59347e-06
5.34129e-09
2.59332e-06
6.43839e-09
2.59321e-06
7.79051e-09
2.59317e-06
9.41147e-09
1.12529e-08
2.59326e-06
2.74187e-06
8.43927e-11
2.74186e-06
2.53935e-10
2.74183e-06
4.2692e-10
2.7418e-06
6.06606e-10
2.74176e-06
7.96145e-10
2.74171e-06
9.98903e-10
2.74165e-06
1.21896e-09
2.74158e-06
1.46141e-09
2.7415e-06
1.73255e-09
2.7414e-06
2.04034e-09
2.74129e-06
2.39497e-09
2.74117e-06
2.8097e-09
2.74103e-06
3.30174e-09
2.74088e-06
3.89348e-09
2.74073e-06
4.61317e-09
2.74058e-06
5.49516e-09
2.74044e-06
6.57622e-09
2.74034e-06
7.88748e-09
2.74032e-06
9.43377e-09
1.11644e-08
2.74041e-06
2.89732e-06
8.89018e-11
2.89731e-06
2.67478e-10
2.89729e-06
4.49609e-10
2.89725e-06
6.38657e-10
2.89721e-06
8.37879e-10
2.89716e-06
1.05074e-09
2.8971e-06
1.28139e-09
2.89702e-06
1.53497e-09
2.89694e-06
1.81785e-09
2.89684e-06
2.13794e-09
2.89673e-06
2.5053e-09
2.89661e-06
2.9328e-09
2.89647e-06
3.43689e-09
2.89633e-06
4.0385e-09
2.89618e-06
4.76332e-09
2.89603e-06
5.64137e-09
2.89591e-06
6.70314e-09
2.89582e-06
7.97138e-09
2.89581e-06
9.44374e-09
1.10692e-08
2.89591e-06
3.06159e-06
9.35436e-11
3.06158e-06
2.81418e-10
3.06155e-06
4.7295e-10
3.06152e-06
6.71605e-10
3.06148e-06
8.8073e-10
3.06142e-06
1.10386e-09
3.06136e-06
1.34523e-09
3.06129e-06
1.61001e-09
3.0612e-06
1.90456e-09
3.0611e-06
2.23672e-09
3.06099e-06
2.61633e-09
3.06087e-06
3.05579e-09
3.06073e-06
3.57069e-09
3.06059e-06
4.18036e-09
3.06045e-06
4.90787e-09
3.06031e-06
5.77904e-09
3.06019e-06
6.81858e-09
3.06012e-06
8.0421e-09
3.06012e-06
9.44176e-09
1.09677e-08
3.06023e-06
3.23517e-06
9.83074e-11
3.23516e-06
2.9572e-10
3.23513e-06
4.96888e-10
3.2351e-06
7.05363e-10
3.23506e-06
9.24575e-10
3.235e-06
1.15813e-09
3.23494e-06
1.41028e-09
3.23486e-06
1.68624e-09
3.23477e-06
1.9923e-09
3.23467e-06
2.33621e-09
3.23456e-06
2.72748e-09
3.23444e-06
3.17798e-09
3.23431e-06
3.70231e-09
3.23417e-06
4.31813e-09
3.23403e-06
5.04586e-09
3.2339e-06
5.90737e-09
3.2338e-06
6.92206e-09
3.23374e-06
8.09964e-09
3.23376e-06
9.42821e-09
1.08601e-08
3.23386e-06
3.41859e-06
1.03179e-10
3.41858e-06
3.10342e-10
3.41855e-06
5.21348e-10
3.41852e-06
7.39824e-10
3.41848e-06
9.69267e-10
3.41842e-06
1.21333e-09
3.41835e-06
1.47629e-09
3.41828e-06
1.76333e-09
3.41819e-06
2.08068e-09
3.41809e-06
2.43588e-09
3.41798e-06
2.83812e-09
3.41786e-06
3.29861e-09
3.41773e-06
3.83088e-09
3.4176e-06
4.45087e-09
3.41747e-06
5.1764e-09
3.41735e-06
6.02559e-09
3.41726e-06
7.01318e-09
3.41721e-06
8.14403e-09
3.41724e-06
9.40347e-09
1.07468e-08
3.41735e-06
3.61242e-06
1.08143e-10
3.6124e-06
3.25235e-10
3.61238e-06
5.46243e-10
3.61234e-06
7.74859e-10
3.61229e-06
1.01463e-09
3.61224e-06
1.26923e-09
3.61217e-06
1.54294e-09
3.61209e-06
1.8409e-09
3.61201e-06
2.16921e-09
3.61191e-06
2.53518e-09
3.6118e-06
2.94757e-09
3.61168e-06
3.41687e-09
3.61155e-06
3.9555e-09
3.61143e-06
4.57764e-09
3.61131e-06
5.29859e-09
3.6112e-06
6.13304e-09
3.61112e-06
7.09164e-09
3.61109e-06
8.1754e-09
3.61112e-06
9.36794e-09
1.0628e-08
3.61124e-06
3.81723e-06
1.13177e-10
3.81721e-06
3.40334e-10
3.81719e-06
5.71467e-10
3.81715e-06
8.10313e-10
3.8171e-06
1.06045e-09
3.81705e-06
1.32556e-09
3.81698e-06
1.6099e-09
3.8169e-06
1.91852e-09
3.81682e-06
2.25737e-09
3.81672e-06
2.63346e-09
3.81661e-06
3.05506e-09
3.81649e-06
3.53192e-09
3.81637e-06
4.07526e-09
3.81625e-06
4.69753e-09
3.81614e-06
5.41162e-09
3.81605e-06
6.22913e-09
3.81598e-06
7.15722e-09
3.81596e-06
8.19391e-09
3.81601e-06
9.322e-09
1.05038e-08
3.81613e-06
4.03365e-06
1.18258e-10
4.03363e-06
3.55568e-10
4.03361e-06
5.96895e-10
4.03357e-06
8.46005e-10
4.03353e-06
1.10649e-09
4.03347e-06
1.38201e-09
4.0334e-06
1.67678e-09
4.03333e-06
1.99572e-09
4.03324e-06
2.34458e-09
4.03314e-06
2.73004e-09
4.03304e-06
3.15984e-09
4.03293e-06
3.6429e-09
4.03281e-06
4.18924e-09
4.0327e-06
4.80964e-09
4.0326e-06
5.51473e-09
4.03251e-06
6.31335e-09
4.03246e-06
7.20977e-09
4.03245e-06
8.19977e-09
4.03251e-06
9.26603e-09
1.03745e-08
4.03264e-06
4.26234e-06
1.23358e-10
4.26233e-06
3.70853e-10
4.2623e-06
6.22385e-10
4.26226e-06
8.8173e-10
4.26222e-06
1.15247e-09
4.26216e-06
1.43823e-09
4.2621e-06
1.74313e-09
4.26202e-06
2.07196e-09
4.26193e-06
2.43022e-09
4.26184e-06
2.82419e-09
4.26174e-06
3.26106e-09
4.26163e-06
3.7489e-09
4.26153e-06
4.29654e-09
4.26142e-06
4.91313e-09
4.26133e-06
5.60723e-09
4.26126e-06
6.3853e-09
4.26122e-06
7.24923e-09
4.26123e-06
8.19324e-09
4.26129e-06
9.20039e-09
1.02403e-08
4.26142e-06
4.504e-06
1.28444e-10
4.50399e-06
3.86091e-10
4.50396e-06
6.47774e-10
4.50392e-06
9.17253e-10
4.50388e-06
1.19808e-09
4.50382e-06
1.49382e-09
4.50376e-06
1.80848e-09
4.50368e-06
2.14667e-09
4.5036e-06
2.51361e-09
4.50351e-06
2.91516e-09
4.50341e-06
3.35791e-09
4.50331e-06
3.84907e-09
4.50321e-06
4.39629e-09
4.50312e-06
5.0072e-09
4.50304e-06
5.68852e-09
4.50298e-06
6.44464e-09
4.50295e-06
7.27561e-09
4.50297e-06
8.1746e-09
4.50304e-06
9.12545e-09
1.01013e-08
4.50318e-06
4.75936e-06
1.33481e-10
4.75935e-06
4.01174e-10
4.75932e-06
6.72878e-10
4.75929e-06
9.52315e-10
4.75924e-06
1.24298e-09
4.75919e-06
1.54836e-09
4.75912e-06
1.87231e-09
4.75905e-06
2.21924e-09
4.75897e-06
2.59404e-09
4.75888e-06
3.00216e-09
4.75879e-06
3.44953e-09
4.7587e-06
3.94251e-09
4.75861e-06
4.48764e-09
4.75852e-06
5.09114e-09
4.75845e-06
5.75809e-09
4.75841e-06
6.49116e-09
4.75839e-06
7.28898e-09
4.75842e-06
8.14417e-09
4.75851e-06
9.04157e-09
9.95753e-09
4.75865e-06
5.0292e-06
1.38429e-10
5.02918e-06
4.15984e-10
5.02916e-06
6.97498e-10
5.02913e-06
9.8663e-10
5.02908e-06
1.2868e-09
5.02903e-06
1.60138e-09
5.02897e-06
1.93406e-09
5.0289e-06
2.28902e-09
5.02882e-06
2.6708e-09
5.02874e-06
3.08439e-09
5.02865e-06
3.53507e-09
5.02857e-06
4.02839e-09
5.02848e-06
4.56982e-09
5.02841e-06
5.16431e-09
5.02835e-06
5.81551e-09
5.02832e-06
6.52471e-09
5.02832e-06
7.28949e-09
5.02836e-06
8.10226e-09
5.02845e-06
8.94905e-09
9.80924e-09
5.0286e-06
5.31434e-06
1.43245e-10
5.31432e-06
4.3039e-10
5.3143e-06
7.21415e-10
5.31426e-06
1.01989e-09
5.31422e-06
1.32914e-09
5.31417e-06
1.65239e-09
5.31411e-06
1.99316e-09
5.31405e-06
2.35534e-09
5.31397e-06
2.74314e-09
5.3139e-06
3.16104e-09
5.31382e-06
3.61373e-09
5.31374e-06
4.10592e-09
5.31367e-06
4.64213e-09
5.31361e-06
5.22615e-09
5.31356e-06
5.86045e-09
5.31354e-06
6.54522e-09
5.31355e-06
7.27732e-09
5.31361e-06
8.04923e-09
5.31371e-06
8.84824e-09
9.65647e-09
5.31386e-06
5.61564e-06
1.47881e-10
5.61563e-06
4.44252e-10
5.6156e-06
7.44398e-10
5.61557e-06
1.05178e-09
5.61553e-06
1.36958e-09
5.61548e-06
1.70088e-09
5.61543e-06
2.04899e-09
5.61536e-06
2.41752e-09
5.6153e-06
2.8103e-09
5.61523e-06
3.23134e-09
5.61516e-06
3.6847e-09
5.61509e-06
4.17436e-09
5.61503e-06
4.70392e-09
5.61498e-06
5.27621e-09
5.61494e-06
5.89269e-09
5.61494e-06
6.55271e-09
5.61496e-06
7.25271e-09
5.61502e-06
7.98542e-09
5.61513e-06
8.73943e-09
9.49932e-09
5.61529e-06
5.93403e-06
1.52289e-10
5.93401e-06
4.57426e-10
5.93399e-06
7.66202e-10
5.93396e-06
1.08194e-09
5.93392e-06
1.40768e-09
5.93388e-06
1.74633e-09
5.93383e-06
2.10096e-09
5.93377e-06
2.47489e-09
5.93371e-06
2.87158e-09
5.93364e-06
3.29454e-09
5.93358e-06
3.74727e-09
5.93352e-06
4.23303e-09
5.93347e-06
4.75466e-09
5.93343e-06
5.31412e-09
5.93341e-06
5.91209e-09
5.93342e-06
6.54729e-09
5.93346e-06
7.21594e-09
5.93353e-06
7.9112e-09
5.93365e-06
8.62291e-09
9.33784e-09
5.93381e-06
6.27046e-06
1.56419e-10
6.27045e-06
4.69758e-10
6.27043e-06
7.86579e-10
6.2704e-06
1.11004e-09
6.27037e-06
1.44301e-09
6.27033e-06
1.7882e-09
6.27028e-06
2.14846e-09
6.27023e-06
2.52679e-09
6.27017e-06
2.92626e-09
6.27012e-06
3.34994e-09
6.27006e-06
3.80076e-09
6.27001e-06
4.28138e-09
6.26997e-06
4.79391e-09
6.26995e-06
5.33964e-09
6.26994e-06
5.91859e-09
6.26996e-06
6.5291e-09
6.27001e-06
7.16733e-09
6.27009e-06
7.82693e-09
6.27022e-06
8.49896e-09
9.17212e-09
6.27038e-06
6.62598e-06
1.60218e-10
6.62596e-06
4.81099e-10
6.62595e-06
8.05275e-10
6.62592e-06