/*--------------------------------*- C++ -*----------------------------------*\
| =========                 |                                                 |
| \\      /  F ield         | OpenFOAM: The Open Source CFD Toolbox           |
|  \\    /   O peration     | Version:  v1912                                 |
|   \\  /    A nd           | Website:  www.openfoam.com                      |
|    \\/     M anipulation  |                                                 |
\*---------------------------------------------------------------------------*/
FoamFile
{
    version     2.0;
    format      ascii;
    class       volVectorField;
    location    "400";
    object      U;
}
// * * * * * * * * * * * * * * * * * * * * * * * * * * * * * * * * * * * * * //

dimensions      [0 1 -1 0 0 0 0];


internalField   nonuniform List<vector> 
10000
(
(1 1.92372e-08 0)
(0.999996 6.24304e-08 0)
(0.999989 1.11162e-07 0)
(0.999977 1.59904e-07 0)
(0.999961 2.09801e-07 0)
(0.999941 2.63803e-07 0)
(0.999915 3.23754e-07 0)
(0.999884 3.91325e-07 0)
(0.999847 4.68594e-07 0)
(0.999802 5.59637e-07 0)
(0.999749 6.67527e-07 0)
(0.999686 8.05333e-07 0)
(0.999609 9.67389e-07 0)
(0.999518 1.22626e-06 0)
(0.999395 1.44693e-06 0)
(0.999266 2.26622e-06 0)
(0.999 1.79262e-06 0)
(0.998955 9.11355e-06 0)
(0.997408 -2.35446e-05 0)
(1.00286 0.00066379 0)
(1 5.86275e-08 0)
(0.999996 1.90562e-07 0)
(0.999989 3.39275e-07 0)
(0.999977 4.88212e-07 0)
(0.999961 6.40701e-07 0)
(0.999941 8.05689e-07 0)
(0.999915 9.88836e-07 0)
(0.999884 1.19524e-06 0)
(0.999847 1.43128e-06 0)
(0.999802 1.70935e-06 0)
(0.999749 2.03892e-06 0)
(0.999686 2.4597e-06 0)
(0.999609 2.95495e-06 0)
(0.999518 3.74459e-06 0)
(0.999395 4.42108e-06 0)
(0.999266 6.91358e-06 0)
(0.999 5.50407e-06 0)
(0.998952 2.74832e-05 0)
(0.997462 -6.2319e-05 0)
(1.00132 0.00135059 0)
(1 1.00206e-07 0)
(0.999996 3.25818e-07 0)
(0.999989 5.79817e-07 0)
(0.999977 8.34563e-07 0)
(0.999961 1.09544e-06 0)
(0.999941 1.37764e-06 0)
(0.999915 1.69086e-06 0)
(0.999884 2.04384e-06 0)
(0.999847 2.44748e-06 0)
(0.999802 2.92296e-06 0)
(0.999749 3.48658e-06 0)
(0.999686 4.20581e-06 0)
(0.999609 5.05325e-06 0)
(0.999518 6.40127e-06 0)
(0.999395 7.56386e-06 0)
(0.999266 1.18013e-05 0)
(0.999001 9.50404e-06 0)
(0.998946 4.58942e-05 0)
(0.997543 -8.2927e-05 0)
(1.00013 0.00135279 0)
(1 1.4444e-07 0)
(0.999996 4.69084e-07 0)
(0.999989 8.34258e-07 0)
(0.999977 1.20081e-06 0)
(0.999961 1.57625e-06 0)
(0.999941 1.98235e-06 0)
(0.999915 2.43307e-06 0)
(0.999884 2.94099e-06 0)
(0.999847 3.52181e-06 0)
(0.999802 4.20597e-06 0)
(0.999749 5.01705e-06 0)
(0.999686 6.05169e-06 0)
(0.999609 7.27172e-06 0)
(0.999518 9.20893e-06 0)
(0.999395 1.08893e-05 0)
(0.999266 1.69508e-05 0)
(0.999002 1.38447e-05 0)
(0.998937 6.4178e-05 0)
(0.997637 -9.05337e-05 0)
(0.999266 0.0012025 0)
(1 1.91353e-07 0)
(0.999996 6.20646e-07 0)
(0.999989 1.1032e-06 0)
(0.999977 1.58789e-06 0)
(0.999961 2.08441e-06 0)
(0.999941 2.62144e-06 0)
(0.999915 3.21746e-06 0)
(0.999884 3.88911e-06 0)
(0.999847 4.65718e-06 0)
(0.999803 5.56183e-06 0)
(0.999749 6.63445e-06 0)
(0.999686 8.00226e-06 0)
(0.999609 9.61631e-06 0)
(0.999518 1.21747e-05 0)
(0.999396 1.44072e-05 0)
(0.999265 2.23675e-05 0)
(0.999004 1.85824e-05 0)
(0.998926 8.21476e-05 0)
(0.997734 -8.89713e-05 0)
(0.99864 0.00113944 0)
(1 2.41067e-07 0)
(0.999996 7.80923e-07 0)
(0.999989 1.38736e-06 0)
(0.999977 1.99686e-06 0)
(0.999961 2.62133e-06 0)
(0.999941 3.29671e-06 0)
(0.999915 4.04625e-06 0)
(0.999884 4.89089e-06 0)
(0.999847 5.85679e-06 0)
(0.999803 6.99438e-06 0)
(0.999749 8.34332e-06 0)
(0.999686 1.00629e-05 0)
(0.999609 1.20937e-05 0)
(0.999518 1.53063e-05 0)
(0.999396 1.81292e-05 0)
(0.999265 2.80556e-05 0)
(0.999007 2.37765e-05 0)
(0.998913 9.96819e-05 0)
(0.997831 -7.9912e-05 0)
(0.998195 0.001119 0)
(1 2.93773e-07 0)
(0.999996 9.50435e-07 0)
(0.999989 1.68759e-06 0)
(0.999977 2.42895e-06 0)
(0.999961 3.18861e-06 0)
(0.999941 4.01017e-06 0)
(0.999915 4.92191e-06 0)
(0.999884 5.9493e-06 0)
(0.999847 7.12421e-06 0)
(0.999803 8.50785e-06 0)
(0.99975 1.01488e-05 0)
(0.999686 1.22397e-05 0)
(0.999609 1.47112e-05 0)
(0.999518 1.86122e-05 0)
(0.999396 2.20681e-05 0)
(0.999265 3.40204e-05 0)
(0.99901 2.94833e-05 0)
(0.998899 0.000116733 0)
(0.997922 -6.46911e-05 0)
(0.997888 0.00110581 0)
(1 3.49686e-07 0)
(0.999996 1.12975e-06 0)
(0.999989 2.0048e-06 0)
(0.999977 2.88545e-06 0)
(0.999961 3.78796e-06 0)
(0.999941 4.76397e-06 0)
(0.999915 5.84707e-06 0)
(0.999884 7.06751e-06 0)
(0.999847 8.46322e-06 0)
(0.999803 1.01067e-05 0)
(0.99975 1.20561e-05 0)
(0.999686 1.4539e-05 0)
(0.999609 1.74767e-05 0)
(0.999518 2.21013e-05 0)
(0.999396 2.62376e-05 0)
(0.999265 4.02673e-05 0)
(0.999013 3.57536e-05 0)
(0.998886 0.000133312 0)
(0.998005 -4.46152e-05 0)
(0.997687 0.00109467 0)
(1 4.09038e-07 0)
(0.999996 1.31946e-06 0)
(0.999989 2.33994e-06 0)
(0.999977 3.36771e-06 0)
(0.999961 4.42119e-06 0)
(0.999941 5.56036e-06 0)
(0.999915 6.82449e-06 0)
(0.999884 8.24887e-06 0)
(0.999847 9.87781e-06 0)
(0.999803 1.17958e-05 0)
(0.99975 1.4071e-05 0)
(0.999686 1.69675e-05 0)
(0.99961 2.03984e-05 0)
(0.999518 2.57828e-05 0)
(0.999397 3.06519e-05 0)
(0.999265 4.68023e-05 0)
(0.999017 4.26306e-05 0)
(0.998873 0.000149476 0)
(0.998078 -2.08015e-05 0)
(0.997568 0.0010873 0)
(1 4.72089e-07 0)
(0.999996 1.52021e-06 0)
(0.999989 2.694e-06 0)
(0.999977 3.87718e-06 0)
(0.999961 5.09016e-06 0)
(0.999941 6.40172e-06 0)
(0.999915 7.85708e-06 0)
(0.999884 9.49686e-06 0)
(0.999847 1.13722e-05 0)
(0.999803 1.35799e-05 0)
(0.99975 1.61994e-05 0)
(0.999687 1.95322e-05 0)
(0.99961 2.3485e-05 0)
(0.999518 2.96663e-05 0)
(0.999397 3.53261e-05 0)
(0.999265 5.3632e-05 0)
(0.999021 5.01493e-05 0)
(0.998861 0.000165316 0)
(0.99814 5.86452e-06 0)
(0.997509 0.00108404 0)
(1 5.39129e-07 0)
(0.999996 1.73272e-06 0)
(0.999989 3.06804e-06 0)
(0.999977 4.41535e-06 0)
(0.999961 5.79687e-06 0)
(0.999941 7.29053e-06 0)
(0.999915 8.94789e-06 0)
(0.999884 1.08152e-05 0)
(0.999847 1.29507e-05 0)
(0.999803 1.54644e-05 0)
(0.99975 1.84475e-05 0)
(0.999687 2.22402e-05 0)
(0.99961 2.67454e-05 0)
(0.999519 3.37614e-05 0)
(0.999398 4.02757e-05 0)
(0.999264 6.0764e-05 0)
(0.999025 5.83367e-05 0)
(0.998851 0.000180942 0)
(0.998192 3.46941e-05 0)
(0.997495 0.00108412 0)
(1 6.10487e-07 0)
(0.999996 1.95773e-06 0)
(0.999989 3.46318e-06 0)
(0.999977 4.98379e-06 0)
(0.999961 6.5434e-06 0)
(0.999941 8.22944e-06 0)
(0.999915 1.01001e-05 0)
(0.999884 1.22077e-05 0)
(0.999847 1.46179e-05 0)
(0.999803 1.74547e-05 0)
(0.99975 2.08217e-05 0)
(0.999687 2.50992e-05 0)
(0.99961 3.01892e-05 0)
(0.999519 3.80783e-05 0)
(0.999398 4.55168e-05 0)
(0.999265 6.82068e-05 0)
(0.99903 6.72121e-05 0)
(0.998844 0.000196468 0)
(0.998235 6.5169e-05 0)
(0.997512 0.00108671 0)
(1 6.86537e-07 0)
(0.999996 2.1961e-06 0)
(0.999989 3.88057e-06 0)
(0.999977 5.58414e-06 0)
(0.999961 7.33195e-06 0)
(0.999941 9.2212e-06 0)
(0.999915 1.13172e-05 0)
(0.999884 1.36784e-05 0)
(0.999847 1.63788e-05 0)
(0.999803 1.95564e-05 0)
(0.99975 2.3329e-05 0)
(0.999687 2.81171e-05 0)
(0.99961 3.3826e-05 0)
(0.999519 4.26271e-05 0)
(0.999399 5.10657e-05 0)
(0.999265 7.59703e-05 0)
(0.999034 7.67894e-05 0)
(0.998838 0.000211998 0)
(0.99827 9.69291e-05 0)
(0.997549 0.00109106 0)
(1 7.67709e-07 0)
(0.999996 2.44874e-06 0)
(0.999989 4.32146e-06 0)
(0.999977 6.21814e-06 0)
(0.999961 8.16481e-06 0)
(0.999941 1.02687e-05 0)
(0.999915 1.26026e-05 0)
(0.999884 1.52316e-05 0)
(0.999847 1.82383e-05 0)
(0.999803 2.17756e-05 0)
(0.99975 2.59763e-05 0)
(0.999687 3.13021e-05 0)
(0.999611 3.76663e-05 0)
(0.99952 4.74185e-05 0)
(0.9994 5.6939e-05 0)
(0.999265 8.40646e-05 0)
(0.999039 8.70799e-05 0)
(0.998835 0.000227616 0)
(0.9983 0.000129756 0)
(0.997599 0.00109654 0)
(1 8.54484e-07 0)
(0.999996 2.7167e-06 0)
(0.999989 4.78712e-06 0)
(0.999977 6.88757e-06 0)
(0.999961 9.0444e-06 0)
(0.999941 1.1375e-05 0)
(0.999915 1.39602e-05 0)
(0.999885 1.68719e-05 0)
(0.999847 2.02019e-05 0)
(0.999803 2.41185e-05 0)
(0.99975 2.87711e-05 0)
(0.999688 3.46628e-05 0)
(0.999611 4.17205e-05 0)
(0.99952 5.24632e-05 0)
(0.999401 6.31534e-05 0)
(0.999266 9.25e-05 0)
(0.999043 9.80949e-05 0)
(0.998833 0.000243374 0)
(0.998327 0.000163552 0)
(0.997656 0.00110257 0)
(1 9.474e-07 0)
(0.999996 3.0011e-06 0)
(0.999989 5.27891e-06 0)
(0.999977 7.59426e-06 0)
(0.999961 9.97323e-06 0)
(0.999941 1.25433e-05 0)
(0.999915 1.53937e-05 0)
(0.999885 1.86037e-05 0)
(0.999848 2.22749e-05 0)
(0.999803 2.65916e-05 0)
(0.999751 3.17212e-05 0)
(0.999688 3.82078e-05 0)
(0.999612 4.59997e-05 0)
(0.999521 5.7772e-05 0)
(0.999402 6.97259e-05 0)
(0.999267 0.000101286 0)
(0.999048 0.000109849 0)
(0.998834 0.000259288 0)
(0.998351 0.000198308 0)
(0.997716 0.00110869 0)
(1 1.04702e-06 0)
(0.999997 3.30319e-06 0)
(0.999989 5.79824e-06 0)
(0.999977 8.3401e-06 0)
(0.999961 1.09539e-05 0)
(0.999941 1.37769e-05 0)
(0.999916 1.69073e-05 0)
(0.999885 2.04321e-05 0)
(0.999848 2.44634e-05 0)
(0.999804 2.92018e-05 0)
(0.999751 3.48346e-05 0)
(0.999688 4.19464e-05 0)
(0.999612 5.05152e-05 0)
(0.999521 6.33562e-05 0)
(0.999404 7.66737e-05 0)
(0.999268 0.00011043 0)
(0.999053 0.000122363 0)
(0.998836 0.000275344 0)
(0.998375 0.00023407 0)
(0.997778 0.00111453 0)
(1 1.15392e-06 0)
(0.999997 3.62434e-06 0)
(0.999989 6.34658e-06 0)
(0.999977 9.12698e-06 0)
(0.999961 1.1989e-05 0)
(0.999941 1.50792e-05 0)
(0.999916 1.8505e-05 0)
(0.999885 2.23621e-05 0)
(0.999848 2.67731e-05 0)
(0.999804 3.1956e-05 0)
(0.999751 3.81195e-05 0)
(0.999689 4.5888e-05 0)
(0.999613 5.52786e-05 0)
(0.999522 6.92266e-05 0)
(0.999405 8.4014e-05 0)
(0.999269 0.000119939 0)
(0.999058 0.00013566 0)
(0.998839 0.000291502 0)
(0.9984 0.000270903 0)
(0.99784 0.00111985 0)
(1 1.26856e-06 0)
(0.999997 3.96591e-06 0)
(0.999989 6.92549e-06 0)
(0.999977 9.95686e-06 0)
(0.999961 1.30814e-05 0)
(0.999941 1.64538e-05 0)
(0.999916 2.01913e-05 0)
(0.999885 2.43986e-05 0)
(0.999848 2.92103e-05 0)
(0.999804 3.48613e-05 0)
(0.999752 4.15845e-05 0)
(0.999689 5.00419e-05 0)
(0.999613 6.03013e-05 0)
(0.999523 7.53943e-05 0)
(0.999407 9.17637e-05 0)
(0.999271 0.000129815 0)
(0.999064 0.000149767 0)
(0.998844 0.000307717 0)
(0.998425 0.000308854 0)
(0.997903 0.00112451 0)
(1 1.39133e-06 0)
(0.999997 4.32925e-06 0)
(0.999989 7.53659e-06 0)
(0.999977 1.08317e-05 0)
(0.999961 1.42338e-05 0)
(0.999941 1.79042e-05 0)
(0.999916 2.19705e-05 0)
(0.999885 2.6547e-05 0)
(0.999848 3.17809e-05 0)
(0.999804 3.79249e-05 0)
(0.999752 4.52377e-05 0)
(0.99969 5.44174e-05 0)
(0.999614 6.55947e-05 0)
(0.999524 8.18697e-05 0)
(0.999408 9.9938e-05 0)
(0.999273 0.000140062 0)
(0.99907 0.000164702 0)
(0.99885 0.000323949 0)
(0.998452 0.00034791 0)
(0.997967 0.0011285 0)
(1 1.52241e-06 0)
(0.999997 4.71553e-06 0)
(0.999989 8.18164e-06 0)
(0.999977 1.17538e-05 0)
(0.999962 1.54492e-05 0)
(0.999941 1.94344e-05 0)
(0.999916 2.38474e-05 0)
(0.999885 2.8813e-05 0)
(0.999849 3.44917e-05 0)
(0.999805 4.11543e-05 0)
(0.999752 4.90877e-05 0)
(0.99969 5.9024e-05 0)
(0.999615 7.11693e-05 0)
(0.999525 8.86629e-05 0)
(0.99941 0.000108549 0)
(0.999275 0.000150684 0)
(0.999076 0.000180468 0)
(0.998857 0.000340195 0)
(0.998479 0.000387946 0)
(0.998032 0.0011319 0)
(1 1.66191e-06 0)
(0.999997 5.12571e-06 0)
(0.999989 8.86251e-06 0)
(0.999978 1.27254e-05 0)
(0.999962 1.67309e-05 0)
(0.999941 2.10488e-05 0)
(0.999916 2.58275e-05 0)
(0.999886 3.12031e-05 0)
(0.999849 3.73504e-05 0)
(0.999805 4.45586e-05 0)
(0.999753 5.31452e-05 0)
(0.999691 6.38734e-05 0)
(0.999616 7.70379e-05 0)
(0.999526 9.57873e-05 0)
(0.999413 0.000117608 0)
(0.999278 0.000161692 0)
(0.999083 0.000197041 0)
(0.998865 0.000356503 0)
(0.998508 0.000428684 0)
(0.998097 0.00113491 0)
(1 1.80988e-06 0)
(0.999997 5.56052e-06 0)
(0.999989 9.58118e-06 0)
(0.999978 1.37492e-05 0)
(0.999962 1.80821e-05 0)
(0.999941 2.27514e-05 0)
(0.999916 2.79158e-05 0)
(0.999886 3.37237e-05 0)
(0.999849 4.03649e-05 0)
(0.999806 4.81476e-05 0)
(0.999754 5.74216e-05 0)
(0.999692 6.89799e-05 0)
(0.999617 8.32165e-05 0)
(0.999528 0.000103263 0)
(0.999415 0.00012713 0)
(0.999281 0.000173121 0)
(0.999091 0.00021438 0)
(0.998875 0.000373005 0)
(0.998539 0.000469683 0)
(0.998163 0.00113781 0)
(1 1.96643e-06 0)
(0.999997 6.02059e-06 0)
(0.999989 1.03397e-05 0)
(0.999978 1.48281e-05 0)
(0.999962 1.95061e-05 0)
(0.999942 2.45462e-05 0)
(0.999917 3.01169e-05 0)
(0.999886 3.63799e-05 0)
(0.99985 4.35409e-05 0)
(0.999806 5.19278e-05 0)
(0.999754 6.19246e-05 0)
(0.999693 7.43531e-05 0)
(0.999619 8.97152e-05 0)
(0.99953 0.000111107 0)
(0.999418 0.000137122 0)
(0.999285 0.000185017 0)
(0.9991 0.000232412 0)
(0.998886 0.00038991 0)
(0.99857 0.000510345 0)
(0.998229 0.00114089 0)
(1 2.13167e-06 0)
(0.999997 6.50656e-06 0)
(0.999989 1.11401e-05 0)
(0.999978 1.59652e-05 0)
(0.999962 2.10069e-05 0)
(0.999942 2.64374e-05 0)
(0.999917 3.24356e-05 0)
(0.999886 3.91769e-05 0)
(0.99985 4.6884e-05 0)
(0.999807 5.59046e-05 0)
(0.999755 6.66588e-05 0)
(0.999694 7.9997e-05 0)
(0.99962 9.65344e-05 0)
(0.999532 0.000119323 0)
(0.999421 0.000147563 0)
(0.999289 0.000197403 0)
(0.999108 0.000250991 0)
(0.998899 0.000407382 0)
(0.998603 0.000549907 0)
(0.998295 0.00114415 0)
(1 2.30574e-06 0)
(0.999997 7.0192e-06 0)
(0.999989 1.19848e-05 0)
(0.999978 1.71642e-05 0)
(0.999962 2.25888e-05 0)
(0.999942 2.84307e-05 0)
(0.999917 3.48789e-05 0)
(0.999887 4.2123e-05 0)
(0.99985 5.04036e-05 0)
(0.999807 6.00891e-05 0)
(0.999756 7.16364e-05 0)
(0.999695 8.59252e-05 0)
(0.999621 0.000103686 0)
(0.999534 0.000127926 0)
(0.999425 0.00015845 0)
(0.999294 0.000210307 0)
(0.999118 0.000269994 0)
(0.998913 0.000425522 0)
(0.998635 0.00058771 0)
(0.998359 0.00114743 0)
(1 2.48882e-06 0)
(0.999997 7.55947e-06 0)
(0.999989 1.28762e-05 0)
(0.999978 1.84288e-05 0)
(0.999962 2.42566e-05 0)
(0.999942 3.05322e-05 0)
(0.999917 3.74542e-05 0)
(0.999887 4.52274e-05 0)
(0.999851 5.4111e-05 0)
(0.999808 6.44949e-05 0)
(0.999757 7.68734e-05 0)
(0.999696 9.21575e-05 0)
(0.999623 0.000111192 0)
(0.999536 0.000136945 0)
(0.999428 0.000169804 0)
(0.999299 0.000223778 0)
(0.999128 0.000289387 0)
(0.998928 0.0004444 0)
(0.998669 0.000623475 0)
(0.998421 0.00115076 0)
(1 2.68116e-06 0)
(0.999997 8.12845e-06 0)
(0.99999 1.38166e-05 0)
(0.999978 1.97625e-05 0)
(0.999962 2.60149e-05 0)
(0.999942 3.27472e-05 0)
(0.999917 4.01681e-05 0)
(0.999887 4.84981e-05 0)
(0.999851 5.80154e-05 0)
(0.999808 6.91324e-05 0)
(0.999757 8.2382e-05 0)
(0.999697 9.87076e-05 0)
(0.999625 0.000119068 0)
(0.999538 0.000146397 0)
(0.999432 0.000181638 0)
(0.999304 0.000237832 0)
(0.999138 0.000309134 0)
(0.998944 0.000463983 0)
(0.998703 0.000657105 0)
(0.998482 0.00115419 0)
(1 2.88307e-06 0)
(0.999997 8.72733e-06 0)
(0.99999 1.48084e-05 0)
(0.999978 2.11685e-05 0)
(0.999962 2.78677e-05 0)
(0.999942 3.5081e-05 0)
(0.999918 4.30268e-05 0)
(0.999888 5.1942e-05 0)
(0.999852 6.21247e-05 0)
(0.999809 7.40107e-05 0)
(0.999759 8.81716e-05 0)
(0.999698 0.000105585 0)
(0.999627 0.000127321 0)
(0.999541 0.000156288 0)
(0.999436 0.000193948 0)
(0.999311 0.000252457 0)
(0.99915 0.000329181 0)
(0.998962 0.000484156 0)
(0.998738 0.000688553 0)
(0.998542 0.00115762 0)
(1 3.09496e-06 0)
(0.999997 9.35739e-06 0)
(0.99999 1.58536e-05 0)
(0.999978 2.26501e-05 0)
(0.999962 2.98192e-05 0)
(0.999943 3.75386e-05 0)
(0.999918 4.60364e-05 0)
(0.999888 5.55663e-05 0)
(0.999852 6.64471e-05 0)
(0.99981 7.91384e-05 0)
(0.99976 9.42513e-05 0)
(0.9997 0.000112799 0)
(0.999629 0.00013596 0)
(0.999544 0.000166625 0)
(0.999441 0.00020673 0)
(0.999318 0.000267632 0)
(0.999162 0.000349474 0)
(0.998982 0.000504781 0)
(0.998774 0.000717834 0)
(0.998601 0.00116094 0)
(1 3.31729e-06 0)
(0.999997 1.002e-05 0)
(0.99999 1.69547e-05 0)
(0.999978 2.42107e-05 0)
(0.999963 3.18738e-05 0)
(0.999943 4.01252e-05 0)
(0.999918 4.92031e-05 0)
(0.999889 5.93781e-05 0)
(0.999853 7.09903e-05 0)
(0.999811 8.45243e-05 0)
(0.999761 0.00010063 0)
(0.999702 0.000120359 0)
(0.999632 0.000144991 0)
(0.999548 0.000177409 0)
(0.999447 0.000219977 0)
(0.999325 0.000283332 0)
(0.999175 0.000369959 0)
(0.999003 0.000525716 0)
(0.998811 0.000744999 0)
(0.99866 0.00116397 0)
(1 3.55055e-06 0)
(0.999997 1.07165e-05 0)
(0.99999 1.81141e-05 0)
(0.999978 2.58537e-05 0)
(0.999963 3.40358e-05 0)
(0.999943 4.28462e-05 0)
(0.999919 5.25331e-05 0)
(0.999889 6.33846e-05 0)
(0.999854 7.57624e-05 0)
(0.999812 9.01767e-05 0)
(0.999762 0.000107317 0)
(0.999704 0.000128272 0)
(0.999634 0.000154421 0)
(0.999552 0.000188642 0)
(0.999452 0.000233679 0)
(0.999334 0.000299523 0)
(0.999189 0.000390577 0)
(0.999025 0.000546811 0)
(0.998849 0.000770112 0)
(0.998718 0.00116659 0)
(1 3.79526e-06 0)
(0.999997 1.14483e-05 0)
(0.99999 1.93339e-05 0)
(0.999978 2.75825e-05 0)
(0.999963 3.63095e-05 0)
(0.999943 4.57067e-05 0)
(0.999919 5.60326e-05 0)
(0.99989 6.75926e-05 0)
(0.999855 8.0771e-05 0)
(0.999813 9.61036e-05 0)
(0.999764 0.000114319 0)
(0.999706 0.000136544 0)
(0.999637 0.000164252 0)
(0.999556 0.000200319 0)
(0.999459 0.000247821 0)
(0.999343 0.000316165 0)
(0.999205 0.000411269 0)
(0.999049 0.000567916 0)
(0.998888 0.000793246 0)
(0.998775 0.00116866 0)
(1 4.05192e-06 0)
(0.999997 1.2217e-05 0)
(0.99999 2.06167e-05 0)
(0.999978 2.94004e-05 0)
(0.999963 3.86993e-05 0)
(0.999944 4.87121e-05 0)
(0.99992 5.97077e-05 0)
(0.99989 7.2009e-05 0)
(0.999856 8.60232e-05 0)
(0.999814 0.000102312 0)
(0.999766 0.000121644 0)
(0.999708 0.000145181 0)
(0.999641 0.000174485 0)
(0.999561 0.000212436 0)
(0.999466 0.000262384 0)
(0.999354 0.000333209 0)
(0.999221 0.000431966 0)
(0.999074 0.000588882 0)
(0.998928 0.000814472 0)
(0.998831 0.00117006 0)
(1 4.32106e-06 0)
(0.999997 1.30238e-05 0)
(0.99999 2.19648e-05 0)
(0.999979 3.13109e-05 0)
(0.999963 4.12095e-05 0)
(0.999944 5.18674e-05 0)
(0.99992 6.3564e-05 0)
(0.999891 7.66402e-05 0)
(0.999857 9.15258e-05 0)
(0.999816 0.000108809 0)
(0.999768 0.000129295 0)
(0.999711 0.000154186 0)
(0.999645 0.00018512 0)
(0.999566 0.000224979 0)
(0.999474 0.000277341 0)
(0.999365 0.000350599 0)
(0.999239 0.000452597 0)
(0.999101 0.000609561 0)
(0.998968 0.000833863 0)
(0.998886 0.00117072 0)
(1 4.60316e-06 0)
(0.999997 1.38703e-05 0)
(0.99999 2.33804e-05 0)
(0.999979 3.33171e-05 0)
(0.999964 4.38441e-05 0)
(0.999944 5.51773e-05 0)
(0.999921 6.7607e-05 0)
(0.999892 8.14918e-05 0)
(0.999858 9.72844e-05 0)
(0.999817 0.0001156 0)
(0.99977 0.000137278 0)
(0.999714 0.000163559 0)
(0.999649 0.000196149 0)
(0.999572 0.000237934 0)
(0.999482 0.000292661 0)
(0.999377 0.000368271 0)
(0.999257 0.000473084 0)
(0.999129 0.000629812 0)
(0.999009 0.000851489 0)
(0.998941 0.00117055 0)
(1 4.89871e-06 0)
(0.999997 1.47577e-05 0)
(0.99999 2.48656e-05 0)
(0.999979 3.5422e-05 0)
(0.999964 4.66069e-05 0)
(0.999945 5.86462e-05 0)
(0.999921 7.18416e-05 0)
(0.999893 8.65689e-05 0)
(0.999859 0.000103304 0)
(0.999819 0.000122687 0)
(0.999772 0.000145594 0)
(0.999718 0.000173297 0)
(0.999653 0.000207565 0)
(0.999579 0.000251278 0)
(0.999491 0.000308303 0)
(0.999391 0.000386153 0)
(0.999277 0.000493347 0)
(0.999158 0.000649501 0)
(0.99905 0.000867415 0)
(0.998995 0.00116952 0)
(1 5.20816e-06 0)
(0.999997 1.56873e-05 0)
(0.99999 2.64224e-05 0)
(0.999979 3.76284e-05 0)
(0.999964 4.95014e-05 0)
(0.999945 6.22782e-05 0)
(0.999922 7.62719e-05 0)
(0.999894 9.18757e-05 0)
(0.999861 0.000109588 0)
(0.999821 0.000130074 0)
(0.999775 0.000154241 0)
(0.999721 0.000183395 0)
(0.999659 0.000219352 0)
(0.999586 0.000264984 0)
(0.999501 0.000324224 0)
(0.999405 0.000404168 0)
(0.999298 0.000513299 0)
(0.999188 0.000668501 0)
(0.999092 0.000881701 0)
(0.999048 0.00116759 0)
(1 5.53193e-06 0)
(0.999997 1.66603e-05 0)
(0.99999 2.80528e-05 0)
(0.999979 3.99389e-05 0)
(0.999965 5.25306e-05 0)
(0.999946 6.60765e-05 0)
(0.999923 8.09013e-05 0)
(0.999895 9.74151e-05 0)
(0.999862 0.000116138 0)
(0.999823 0.000137759 0)
(0.999778 0.000163217 0)
(0.999725 0.000193842 0)
(0.999664 0.000231492 0)
(0.999593 0.000279017 0)
(0.999512 0.000340369 0)
(0.99942 0.000422232 0)
(0.99932 0.000532854 0)
(0.999219 0.000686699 0)
(0.999135 0.000894403 0)
(0.9991 0.00116476 0)
(1 5.87036e-06 0)
(0.999997 1.76777e-05 0)
(0.99999 2.97581e-05 0)
(0.99998 4.23554e-05 0)
(0.999965 5.5697e-05 0)
(0.999947 7.00437e-05 0)
(0.999924 8.57321e-05 0)
(0.999896 0.000103189 0)
(0.999864 0.000122954 0)
(0.999826 0.000145741 0)
(0.999781 0.000172514 0)
(0.99973 0.000204626 0)
(0.99967 0.000243961 0)
(0.999602 0.000293339 0)
(0.999524 0.00035668 0)
(0.999437 0.000440256 0)
(0.999343 0.000551921 0)
(0.999251 0.000703989 0)
(0.999177 0.000905572 0)
(0.999152 0.00116104 0)
(1 6.22376e-06 0)
(0.999997 1.87402e-05 0)
(0.99999 3.15397e-05 0)
(0.99998 4.48795e-05 0)
(0.999965 5.90025e-05 0)
(0.999947 7.41815e-05 0)
(0.999925 9.07655e-05 0)
(0.999898 0.000109197 0)
(0.999866 0.000130035 0)
(0.999829 0.000154014 0)
(0.999785 0.000182121 0)
(0.999735 0.000215727 0)
(0.999677 0.000256728 0)
(0.999611 0.0003079 0)
(0.999537 0.000373088 0)
(0.999454 0.000458146 0)
(0.999367 0.00057041 0)
(0.999284 0.000720281 0)
(0.99922 0.000915254 0)
(0.999202 0.00115643 0)
(1 6.59235e-06 0)
(0.999997 1.98486e-05 0)
(0.999991 3.33983e-05 0)
(0.99998 4.75122e-05 0)
(0.999966 6.24478e-05 0)
(0.999948 7.84905e-05 0)
(0.999926 9.6001e-05 0)
(0.999899 0.000115436 0)
(0.999868 0.000137375 0)
(0.999832 0.000162569 0)
(0.999789 0.000192025 0)
(0.99974 0.000227121 0)
(0.999684 0.000269758 0)
(0.999621 0.000322647 0)
(0.99955 0.000389521 0)
(0.999473 0.000475805 0)
(0.999393 0.000588232 0)
(0.999318 0.000735494 0)
(0.999263 0.000923491 0)
(0.999252 0.00115097 0)
(1 6.97623e-06 0)
(0.999997 2.1003e-05 0)
(0.999991 3.53343e-05 0)
(0.99998 5.02537e-05 0)
(0.999966 6.60329e-05 0)
(0.999949 8.29696e-05 0)
(0.999927 0.000101436 0)
(0.999901 0.000121904 0)
(0.999871 0.000144967 0)
(0.999835 0.000171394 0)
(0.999793 0.000202204 0)
(0.999746 0.00023878 0)
(0.999692 0.000283006 0)
(0.999632 0.000337519 0)
(0.999564 0.000405898 0)
(0.999492 0.000493134 0)
(0.999419 0.000605299 0)
(0.999352 0.000749562 0)
(0.999306 0.000930324 0)
(0.999301 0.00114469 0)
(1 7.37541e-06 0)
(0.999997 2.22035e-05 0)
(0.999991 3.73474e-05 0)
(0.999981 5.31033e-05 0)
(0.999967 6.97565e-05 0)
(0.99995 8.76166e-05 0)
(0.999928 0.000107068 0)
(0.999903 0.000128593 0)
(0.999873 0.000152801 0)
(0.999838 0.000180473 0)
(0.999798 0.000212636 0)
(0.999753 0.000250668 0)
(0.999701 0.000296424 0)
(0.999643 0.000352449 0)
(0.99958 0.000422136 0)
(0.999513 0.000510034 0)
(0.999446 0.000621526 0)
(0.999387 0.000762429 0)
(0.999348 0.000935791 0)
(0.999348 0.00113761 0)
(1 7.78974e-06 0)
(0.999997 2.34496e-05 0)
(0.999991 3.94366e-05 0)
(0.999981 5.60594e-05 0)
(0.999968 7.36158e-05 0)
(0.999951 9.24271e-05 0)
(0.99993 0.000112888 0)
(0.999905 0.000135492 0)
(0.999876 0.000160861 0)
(0.999842 0.000189784 0)
(0.999803 0.000223289 0)
(0.999759 0.000262742 0)
(0.99971 0.000309955 0)
(0.999655 0.000367361 0)
(0.999596 0.000438143 0)
(0.999534 0.000526404 0)
(0.999474 0.000636833 0)
(0.999422 0.000774051 0)
(0.999391 0.000939929 0)
(0.999395 0.00112979 0)
(1 8.21894e-06 0)
(0.999997 2.47402e-05 0)
(0.999991 4.16002e-05 0)
(0.999981 5.9119e-05 0)
(0.999968 7.76065e-05 0)
(0.999952 9.73947e-05 0)
(0.999932 0.000118888 0)
(0.999907 0.000142589 0)
(0.999879 0.000169129 0)
(0.999846 0.000199301 0)
(0.999809 0.000234129 0)
(0.999767 0.000274955 0)
(0.99972 0.000323535 0)
(0.999668 0.000382176 0)
(0.999613 0.000453829 0)
(0.999556 0.000542149 0)
(0.999502 0.000651145 0)
(0.999457 0.000784395 0)
(0.999433 0.000942776 0)
(0.999441 0.00112125 0)
(1 8.66249e-06 0)
(0.999997 2.60739e-05 0)
(0.999991 4.38353e-05 0)
(0.999982 6.22778e-05 0)
(0.999969 8.17223e-05 0)
(0.999953 0.00010251 0)
(0.999933 0.000125055 0)
(0.99991 0.000149867 0)
(0.999883 0.000177581 0)
(0.999851 0.000208992 0)
(0.999815 0.000245113 0)
(0.999775 0.000287252 0)
(0.99973 0.000337095 0)
(0.999682 0.00039681 0)
(0.999631 0.000469096 0)
(0.999579 0.000557172 0)
(0.999531 0.000664396 0)
(0.999493 0.000793437 0)
(0.999474 0.000944368 0)
(0.999485 0.00111203 0)
(1 9.11969e-06 0)
(0.999997 2.74486e-05 0)
(0.999992 4.61381e-05 0)
(0.999982 6.55299e-05 0)
(0.99997 8.59547e-05 0)
(0.999954 0.000107763 0)
(0.999935 0.000131374 0)
(0.999913 0.000157304 0)
(0.999886 0.00018619 0)
(0.999856 0.000218822 0)
(0.999822 0.000256194 0)
(0.999784 0.000299572 0)
(0.999742 0.00035056 0)
(0.999696 0.000411173 0)
(0.999649 0.000483851 0)
(0.999603 0.000571384 0)
(0.99956 0.000676523 0)
(0.999528 0.000801163 0)
(0.999515 0.000944745 0)
(0.999529 0.00110216 0)
(1 9.5896e-06 0)
(0.999998 2.88612e-05 0)
(0.999992 4.85036e-05 0)
(0.999983 6.88677e-05 0)
(0.999971 9.02931e-05 0)
(0.999956 0.000113137 0)
(0.999937 0.000137825 0)
(0.999916 0.000164875 0)
(0.99989 0.000194922 0)
(0.999861 0.000228746 0)
(0.999829 0.000267316 0)
(0.999793 0.000311847 0)
(0.999753 0.000363849 0)
(0.999712 0.000425174 0)
(0.999669 0.000497997 0)
(0.999627 0.0005847 0)
(0.99959 0.000687476 0)
(0.999564 0.000807568 0)
(0.999555 0.000943944 0)
(0.999571 0.00109167 0)
(1 1.0071e-05 0)
(0.999998 3.03081e-05 0)
(0.999992 5.09252e-05 0)
(0.999983 7.22815e-05 0)
(0.999972 9.47239e-05 0)
(0.999957 0.000118615 0)
(0.99994 0.000144384 0)
(0.999919 0.000172549 0)
(0.999894 0.000203739 0)
(0.999867 0.000238716 0)
(0.999836 0.00027842 0)
(0.999802 0.000324004 0)
(0.999766 0.000376877 0)
(0.999727 0.000438718 0)
(0.999689 0.000511441 0)
(0.999652 0.00059704 0)
(0.99962 0.00069721 0)
(0.999599 0.000812654 0)
(0.999594 0.000942004 0)
(0.999613 0.0010806 0)
(1 1.05623e-05 0)
(0.999998 3.17845e-05 0)
(0.999992 5.33948e-05 0)
(0.999984 7.57595e-05 0)
(0.999973 9.9231e-05 0)
(0.999959 0.000124176 0)
(0.999942 0.000151024 0)
(0.999922 0.000180291 0)
(0.999899 0.000212595 0)
(0.999873 0.000248678 0)
(0.999844 0.000289439 0)
(0.999813 0.000335966 0)
(0.999779 0.000389554 0)
(0.999744 0.000451712 0)
(0.999709 0.000524094 0)
(0.999677 0.000608334 0)
(0.99965 0.000705689 0)
(0.999634 0.000816428 0)
(0.999633 0.000938964 0)
(0.999653 0.00106896 0)
(1 1.10616e-05 0)
(0.999998 3.32849e-05 0)
(0.999993 5.59028e-05 0)
(0.999985 7.92873e-05 0)
(0.999974 0.000103795 0)
(0.999961 0.000129794 0)
(0.999945 0.000157713 0)
(0.999926 0.000188061 0)
(0.999904 0.000221441 0)
(0.999879 0.00025857 0)
(0.999852 0.000300302 0)
(0.999823 0.000347648 0)
(0.999792 0.000401791 0)
(0.999761 0.000464062 0)
(0.99973 0.000535869 0)
(0.999702 0.000618518 0)
(0.99968 0.000712888 0)
(0.999668 0.000818905 0)
(0.99967 0.000934862 0)
(0.999691 0.00105678 0)
(1 1.15668e-05 0)
(0.999998 3.48024e-05 0)
(0.999993 5.84377e-05 0)
(0.999985 8.28484e-05 0)
(0.999975 0.000108393 0)
(0.999963 0.000135441 0)
(0.999947 0.000164414 0)
(0.999929 0.000195812 0)
(0.999909 0.000230222 0)
(0.999886 0.000268327 0)
(0.999861 0.000310931 0)
(0.999834 0.000358966 0)
(0.999806 0.000413495 0)
(0.999778 0.000475678 0)
(0.999751 0.000546688 0)
(0.999727 0.000627538 0)
(0.99971 0.000718788 0)
(0.999701 0.000820105 0)
(0.999707 0.000929739 0)
(0.999729 0.00104409 0)
(1 1.20752e-05 0)
(0.999998 3.63293e-05 0)
(0.999993 6.09861e-05 0)
(0.999986 8.64233e-05 0)
(0.999977 0.000113 0)
(0.999965 0.000141081 0)
(0.99995 0.000171084 0)
(0.999933 0.000203495 0)
(0.999914 0.000238877 0)
(0.999893 0.000277879 0)
(0.99987 0.000321247 0)
(0.999846 0.000369832 0)
(0.999821 0.000424575 0)
(0.999796 0.000486472 0)
(0.999772 0.000556477 0)
(0.999753 0.000635348 0)
(0.999739 0.000723379 0)
(0.999734 0.000820051 0)
(0.999742 0.000923631 0)
(0.999764 0.00103088 0)
(1 1.25839e-05 0)
(0.999998 3.78564e-05 0)
(0.999994 6.35327e-05 0)
(0.999987 8.999e-05 0)
(0.999978 0.000117586 0)
(0.999967 0.00014668 0)
(0.999953 0.000177679 0)
(0.999938 0.000211054 0)
(0.99992 0.000247341 0)
(0.999901 0.000287149 0)
(0.99988 0.000331166 0)
(0.999858 0.000380156 0)
(0.999835 0.000434942 0)
(0.999814 0.000496361 0)
(0.999794 0.000565173 0)
(0.999778 0.00064191 0)
(0.999768 0.000726659 0)
(0.999766 0.000818771 0)
(0.999776 0.000916574 0)
(0.999799 0.0010172 0)
(1 1.30893e-05 0)
(0.999998 3.93735e-05 0)
(0.999994 6.60601e-05 0)
(0.999988 9.35238e-05 0)
(0.999979 0.000122118 0)
(0.999969 0.000152194 0)
(0.999956 0.000184148 0)
(0.999942 0.00021843 0)
(0.999926 0.000255546 0)
(0.999908 0.000296062 0)
(0.999889 0.000340604 0)
(0.99987 0.00038985 0)
(0.99985 0.00044451 0)
(0.999832 0.000505271 0)
(0.999815 0.000572719 0)
(0.999803 0.000647198 0)
(0.999796 0.000728632 0)
(0.999797 0.000816294 0)
(0.999808 0.000908606 0)
(0.999832 0.00100304 0)
(1 1.35879e-05 0)
(0.999998 4.08692e-05 0)
(0.999995 6.85492e-05 0)
(0.999989 9.69975e-05 0)
(0.999981 0.00012656 0)
(0.999971 0.000157581 0)
(0.99996 0.000190437 0)
(0.999947 0.000225559 0)
(0.999932 0.000263419 0)
(0.999916 0.000304537 0)
(0.999899 0.000349476 0)
(0.999882 0.00039883 0)
(0.999865 0.000453197 0)
(0.99985 0.000513133 0)
(0.999836 0.000579068 0)
(0.999827 0.000651193 0)
(0.999823 0.000729308 0)
(0.999827 0.000812652 0)
(0.99984 0.000899759 0)
(0.999863 0.000988414 0)
(1 1.40753e-05 0)
(0.999998 4.23311e-05 0)
(0.999995 7.09791e-05 0)
(0.99999 0.000100381 0)
(0.999982 0.000130875 0)
(0.999974 0.000162791 0)
(0.999963 0.00019649 0)
(0.999951 0.000232375 0)
(0.999938 0.000270886 0)
(0.999924 0.000312494 0)
(0.99991 0.000357699 0)
(0.999895 0.000407011 0)
(0.99988 0.000460929 0)
(0.999868 0.000519887 0)
(0.999857 0.000584183 0)
(0.999851 0.000653885 0)
(0.99985 0.000728706 0)
(0.999855 0.00080788 0)
(0.999869 0.000890067 0)
(0.999893 0.000973341 0)
(1 1.45471e-05 0)
(0.999999 4.37457e-05 0)
(0.999996 7.33271e-05 0)
(0.999991 0.000103643 0)
(0.999984 0.00013502 0)
(0.999976 0.000167774 0)
(0.999967 0.000202246 0)
(0.999956 0.000238811 0)
(0.999945 0.000277873 0)
(0.999932 0.000319854 0)
(0.99992 0.000365191 0)
(0.999907 0.000414318 0)
(0.999895 0.000467639 0)
(0.999885 0.000525482 0)
(0.999878 0.000588035 0)
(0.999874 0.000655271 0)
(0.999875 0.000726845 0)
(0.999883 0.000802012 0)
(0.999898 0.00087956 0)
(0.999921 0.000957826 0)
(1 1.49986e-05 0)
(0.999999 4.50986e-05 0)
(0.999996 7.55695e-05 0)
(0.999992 0.000106751 0)
(0.999986 0.000138954 0)
(0.999979 0.000172479 0)
(0.99997 0.000207646 0)
(0.999961 0.000244799 0)
(0.999951 0.000284305 0)
(0.999941 0.000326539 0)
(0.99993 0.000371877 0)
(0.99992 0.00042068 0)
(0.99991 0.000473268 0)
(0.999902 0.000529877 0)