/*--------------------------------*- C++ -*----------------------------------*\
| =========                 |                                                 |
| \\      /  F ield         | OpenFOAM: The Open Source CFD Toolbox           |
|  \\    /   O peration     | Version:  v1912                                 |
|   \\  /    A nd           | Website:  www.openfoam.com                      |
|    \\/     M anipulation  |                                                 |
\*---------------------------------------------------------------------------*/
FoamFile
{
    version     2.0;
    format      ascii;
    class       volScalarField;
    location    "81";
    object      p;
}
// * * * * * * * * * * * * * * * * * * * * * * * * * * * * * * * * * * * * * //

dimensions      [0 2 -2 0 0 0 0];


internalField   nonuniform List<scalar> 
3000
(
0.218074
0.221143
0.230077
0.242436
0.25547
0.268075
0.279921
0.290786
0.300557
0.309272
0.317027
0.323927
0.330072
0.335561
0.340481
0.344912
0.34892
0.352564
0.355894
0.358951
0.361773
0.364391
0.36683
0.369113
0.37126
0.373288
0.37521
0.37704
0.378789
0.380465
0.382077
0.383633
0.385139
0.386601
0.388023
0.389411
0.390769
0.3921
0.393407
0.394692
0.39596
0.397211
0.398448
0.399671
0.400883
0.402085
0.403277
0.404461
0.405637
0.406805
0.407966
0.409119
0.410264
0.411399
0.412523
0.413633
0.414726
0.415798
0.416842
0.417854
0.418826
0.419748
0.420613
0.421409
0.422124
0.422746
0.423261
0.423654
0.423907
0.424002
0.42392
0.42364
0.423135
0.42238
0.421345
0.419996
0.4183
0.416211
0.413688
0.410673
0.407115
0.402942
0.398086
0.392454
0.385949
0.378459
0.369855
0.359974
0.348642
0.335634
0.320699
0.303515
0.28371
0.260862
0.234293
0.20385
0.167347
0.128471
0.0739836
0.0420347
0.217978
0.221042
0.229983
0.242371
0.255428
0.268046
0.279901
0.290771
0.300546
0.309263
0.317019
0.323919
0.330065
0.335554
0.340474
0.344905
0.348913
0.352557
0.355887
0.358944
0.361766
0.364384
0.366823
0.369106
0.371254
0.373281
0.375204
0.377034
0.378783
0.380459
0.382072
0.383628
0.385134
0.386596
0.388018
0.389407
0.390764
0.392095
0.393402
0.394689
0.395956
0.397208
0.398445
0.399669
0.400881
0.402083
0.403276
0.40446
0.405636
0.406805
0.407966
0.40912
0.410266
0.411402
0.412526
0.413637
0.414731
0.415804
0.41685
0.417862
0.418835
0.419759
0.420625
0.421422
0.422138
0.42276
0.423276
0.423669
0.423923
0.424019
0.423937
0.423656
0.423153
0.422398
0.421363
0.420014
0.418318
0.416228
0.413704
0.410687
0.407129
0.402952
0.398095
0.39246
0.385952
0.378459
0.369851
0.359967
0.348631
0.335619
0.320682
0.303496
0.28369
0.260841
0.234277
0.203825
0.167352
0.128407
0.0740852
0.0418511
0.217808
0.220852
0.229823
0.242278
0.255383
0.26803
0.279905
0.290787
0.300569
0.309288
0.317045
0.323944
0.330088
0.335575
0.340493
0.344922
0.348928
0.35257
0.355898
0.358954
0.361774
0.36439
0.366829
0.369111
0.371258
0.373284
0.375206
0.377036
0.378784
0.38046
0.382072
0.383628
0.385133
0.386595
0.388017
0.389405
0.390763
0.392094
0.393401
0.394687
0.395955
0.397206
0.398443
0.399667
0.40088
0.402082
0.403275
0.404459
0.405636
0.406805
0.407966
0.409121
0.410267
0.411404
0.41253
0.413641
0.414737
0.415811
0.416859
0.417873
0.418847
0.419773
0.420641
0.42144
0.422158
0.422782
0.4233
0.423696
0.423952
0.424049
0.42397
0.423692
0.42319
0.422438
0.421405
0.420058
0.418364
0.416276
0.413754
0.410738
0.40718
0.403004
0.398148
0.392512
0.386004
0.378511
0.369903
0.360019
0.348683
0.335671
0.320734
0.30355
0.283746
0.2609
0.23434
0.203888
0.167422
0.128448
0.0741615
0.0418037
0.217554
0.220563
0.229591
0.242152
0.255335
0.268028
0.279934
0.290835
0.300625
0.309347
0.317104
0.324
0.330141
0.335623
0.340537
0.344961
0.348963
0.352602
0.355926
0.358979
0.361796
0.364409
0.366845
0.369126
0.37127
0.373295
0.375216
0.377044
0.378791
0.380465
0.382077
0.383632
0.385137
0.386597
0.388019
0.389407
0.390764
0.392094
0.393401
0.394687
0.395954
0.397205
0.398442
0.399666
0.400879
0.402081
0.403274
0.404459
0.405635
0.406805
0.407967
0.409122
0.410269
0.411407
0.412534
0.413647
0.414744
0.41582
0.41687
0.417887
0.418865
0.419793
0.420664
0.421467
0.422188
0.422816
0.423337
0.423736
0.423996
0.424097
0.424021
0.423747
0.42325
0.422501
0.421473
0.42013
0.41844
0.416356
0.413838
0.410826
0.407272
0.403099
0.398246
0.392613
0.386107
0.378617
0.370011
0.36013
0.348797
0.33579
0.320857
0.303678
0.28388
0.261041
0.234486
0.204037
0.167568
0.128572
0.0742537
0.0418369
0.217213
0.220176
0.229288
0.241995
0.255281
0.268038
0.279985
0.290912
0.300714
0.309439
0.317194
0.324086
0.330221
0.335697
0.340604
0.345021
0.349017
0.35265
0.355969
0.359017
0.36183
0.36444
0.366872
0.369149
0.371291
0.373314
0.375232
0.377058
0.378803
0.380476
0.382086
0.383639
0.385143
0.386603
0.388023
0.38941
0.390766
0.392096
0.393402
0.394687
0.395954
0.397205
0.398442
0.399666
0.400878
0.40208
0.403273
0.404458
0.405635
0.406804
0.407967
0.409123
0.410271
0.41141
0.412538
0.413654
0.414753
0.415832
0.416885
0.417905
0.418886
0.419819
0.420694
0.4215
0.422226
0.422858
0.423384
0.423789
0.424053
0.42416
0.42409
0.423821
0.42333
0.422587
0.421565
0.420228
0.418544
0.416467
0.413954
0.410948
0.4074
0.403233
0.398385
0.392757
0.386257
0.378772
0.370172
0.360296
0.348969
0.33597
0.321044
0.303875
0.284086
0.261256
0.23471
0.204266
0.167789
0.128767
0.0743777
0.0419218
0.216787
0.219689
0.228912
0.241805
0.255224
0.26806
0.28006
0.291018
0.300834
0.309562
0.317315
0.324201
0.330328
0.335795
0.340694
0.345103
0.34909
0.352716
0.356028
0.359069
0.361876
0.364481
0.366909
0.369182
0.37132
0.373339
0.375254
0.377077
0.37882
0.380491
0.382098
0.38365
0.385152
0.38661
0.38803
0.389415
0.39077
0.392099
0.393404
0.394689
0.395955
0.397206
0.398442
0.399665
0.400877
0.402079
0.403272
0.404457
0.405634
0.406804
0.407967
0.409124
0.410273
0.411413
0.412543
0.413661
0.414763
0.415845
0.416901
0.417926
0.418911
0.419849
0.420729
0.421541
0.422272
0.42291
0.423442
0.423853
0.424124
0.424237
0.424174
0.423913
0.423429
0.422694
0.42168
0.420351
0.418675
0.416606
0.414102
0.411104
0.407564
0.403404
0.398564
0.392944
0.386451
0.378975
0.370382
0.360515
0.349197
0.336208
0.321293
0.304137
0.28436
0.261545
0.235008
0.204571
0.168082
0.129032
0.0745362
0.042051
0.216272
0.219101
0.228465
0.241586
0.255164
0.268096
0.28016
0.291154
0.300986
0.309718
0.317467
0.324346
0.330463
0.335919
0.340806
0.345204
0.349182
0.352798
0.356101
0.359135
0.361935
0.364533
0.366955
0.369223
0.371356
0.373371
0.375283
0.377102
0.378842
0.38051
0.382115
0.383664
0.385164
0.386621
0.388038
0.389422
0.390776
0.392103
0.393407
0.394691
0.395956
0.397206
0.398442
0.399665
0.400876
0.402078
0.403271
0.404456
0.405633
0.406803
0.407967
0.409124
0.410274
0.411416
0.412548
0.413668
0.414774
0.415859
0.41692
0.417949
0.418939
0.419883
0.420769
0.421587
0.422326
0.422971
0.42351
0.423928
0.424207
0.424329
0.424274
0.424021
0.423547
0.422821
0.421817
0.420498
0.418832
0.416774
0.41428
0.411291
0.407762
0.403612
0.398782
0.393172
0.38669
0.379224
0.370641
0.360786
0.34948
0.336505
0.321604
0.304464
0.284703
0.261906
0.235381
0.204953
0.168447
0.129368
0.0747298
0.0422247
0.21567
0.21841
0.227944
0.241339
0.255103
0.268147
0.280285
0.291321
0.30117
0.309906
0.317651
0.32452
0.330624
0.336068
0.340941
0.345327
0.349292
0.352897
0.35619
0.359214
0.362005
0.364596
0.367011
0.369272
0.3714
0.37341
0.375317
0.377132
0.378868
0.380533
0.382135
0.383681
0.385179
0.386633
0.388048
0.38943
0.390782
0.392108
0.393411
0.394693
0.395958
0.397207
0.398442
0.399664
0.400875
0.402077
0.403269
0.404454
0.405631
0.406802
0.407966
0.409124
0.410275
0.411419
0.412553
0.413676
0.414785
0.415874
0.41694
0.417974
0.418971
0.419921
0.420814
0.42164
0.422386
0.423039
0.423587
0.424014
0.424302
0.424433
0.424388
0.424146
0.423681
0.422967
0.421974
0.420667
0.419013
0.416967
0.414485
0.411509
0.407992
0.403855
0.399037
0.393439
0.386969
0.379516
0.370947
0.361106
0.349815
0.336856
0.321973
0.304853
0.285111
0.262336
0.235826
0.20541
0.168883
0.129772
0.0749608
0.042439
0.214977
0.217611
0.227351
0.241065
0.255043
0.268214
0.280436
0.29152
0.301388
0.310127
0.317865
0.324723
0.330813
0.336241
0.341099
0.345469
0.34942
0.353011
0.356292
0.359305
0.362087
0.364668
0.367075
0.369329
0.37145
0.373454
0.375356
0.377166
0.378898
0.380558
0.382157
0.3837
0.385195
0.386646
0.388059
0.389439
0.390789
0.392113
0.393414
0.394695
0.395959
0.397207
0.398441
0.399663
0.400873
0.402074
0.403267
0.404451
0.405629
0.406799
0.407964
0.409123
0.410276
0.411421
0.412558
0.413684
0.414796
0.41589
0.416961
0.418001
0.419004
0.419961
0.420862
0.421696
0.422451
0.423113
0.423671
0.424107
0.424406
0.424548
0.424514
0.424283
0.423831
0.42313
0.422149
0.420856
0.419216
0.417184
0.414716
0.411754
0.408251
0.404129
0.399326
0.393743
0.387288
0.379851
0.371298
0.361474
0.3502
0.337262
0.322399
0.305302
0.285584
0.262833
0.236342
0.20594
0.169391
0.130247
0.0752307
0.0426933
0.214193
0.216701
0.226684
0.240767
0.254986
0.2683
0.280616
0.29175
0.301638
0.31038
0.318111
0.324955
0.331028
0.336437
0.341277
0.34563
0.349565
0.35314
0.356407
0.359408
0.362178
0.364748
0.367146
0.369392
0.371505
0.373503
0.375398
0.377204
0.37893
0.380586
0.382181
0.38372
0.385212
0.38666
0.38807
0.389447
0.390795
0.392118
0.393417
0.394697
0.395959
0.397206
0.398439
0.39966
0.400871
0.402071
0.403263
0.404448
0.405625
0.406796
0.407961
0.409121
0.410275
0.411422
0.412562
0.413691
0.414807
0.415906
0.416982
0.418029
0.419039
0.420003
0.420913
0.421756
0.42252
0.423193
0.423761
0.424208
0.424518
0.424672
0.42465
0.424433
0.423994
0.423306
0.422341
0.421063
0.419438
0.417422
0.41497
0.412025
0.408538
0.404433
0.399646
0.39408
0.387643
0.380223
0.371689
0.361885
0.350632
0.337716
0.322878
0.305809
0.286118
0.263396
0.236927
0.206543
0.169969
0.130791
0.0755417
0.0429843
0.213316
0.215676
0.225945
0.240448
0.254934
0.268406
0.280825
0.292014
0.301923
0.310666
0.318387
0.325215
0.331268
0.336657
0.341476
0.345809
0.349725
0.353283
0.356534
0.35952
0.362277
0.364836
0.367223
0.369459
0.371564
0.373554
0.375443
0.377242
0.378963
0.380615
0.382205
0.383741
0.385228
0.386673
0.388081
0.389455
0.390801
0.392121
0.393419
0.394697
0.395958
0.397204
0.398436
0.399657
0.400867
0.402067
0.403259
0.404443
0.40562
0.406792
0.407958
0.409118
0.410273
0.411423
0.412564
0.413697
0.414817
0.415921
0.417003
0.418056
0.419074
0.420047
0.420965
0.421818
0.422592
0.423276
0.423855
0.424314
0.424636
0.424802
0.424795
0.424591
0.424167
0.423495
0.422545
0.421284
0.419676
0.417677
0.415243
0.412316
0.408848
0.404761
0.399994
0.394447
0.38803
0.380631
0.372118
0.362336
0.351108
0.338218
0.323408
0.306369
0.286709
0.264021
0.237578
0.207215
0.170617
0.131405
0.0758955
0.0433117
0.212343
0.214529
0.225133
0.240111
0.254891
0.268535
0.281064
0.292311
0.302241
0.310984
0.318694
0.325502
0.331533
0.336898
0.341694
0.346003
0.349898
0.353437
0.356669
0.359639
0.362381
0.364928
0.367303
0.369529
0.371625
0.373607
0.375488
0.377281
0.378996
0.380642
0.382228
0.38376
0.385243
0.386685
0.38809
0.389462
0.390805
0.392123
0.393419
0.394696
0.395956
0.397201
0.398432
0.399652
0.400861
0.402061
0.403253
0.404437
0.405615
0.406786
0.407953
0.409114
0.410271
0.411422
0.412566
0.413702
0.414826
0.415935
0.417023
0.418083
0.419108
0.42009
0.421017
0.42188
0.422665
0.42336
0.423951
0.424422
0.424757
0.424938
0.424944
0.424756
0.424348
0.423692
0.42276
0.421516
0.419927
0.417947
0.415533
0.412626
0.409178
0.405112
0.400365
0.39484
0.388445
0.381069
0.37258
0.362823
0.351622
0.338762
0.323983
0.306979
0.287355
0.264704
0.238291
0.207954
0.171332
0.132088
0.0762942
0.0436729
0.211272
0.213257
0.224248
0.23976
0.25486
0.268688
0.281336
0.292644
0.302592
0.311334
0.319029
0.325815
0.33182
0.337157
0.341926
0.34621
0.350081
0.353597
0.35681
0.359762
0.362488
0.36502
0.367383
0.369598
0.371684
0.373657
0.375531
0.377317
0.379027
0.380668
0.382249
0.383776
0.385256
0.386695
0.388097
0.389466
0.390807
0.392123
0.393418
0.394693
0.395951
0.397195
0.398426
0.399645
0.400854
0.402054
0.403246
0.40443
0.405607
0.406779
0.407946
0.409109
0.410267
0.411419
0.412566
0.413705
0.414834
0.415947
0.417041
0.418108
0.419141
0.420131
0.421069
0.421941
0.422737
0.423444
0.424047
0.424532
0.42488
0.425075
0.425097
0.424924
0.424532
0.423894
0.42298
0.421756
0.420187
0.418227
0.415834
0.412949
0.409523
0.40548
0.400756
0.395255
0.388884
0.381534
0.373071
0.363343
0.352172
0.339345
0.324601
0.307635
0.28805
0.265442
0.239064
0.208758
0.172114
0.13284
0.0767396
0.0440677
0.210101
0.21185
0.223293
0.239399
0.254844
0.26887
0.281643
0.293011
0.302978
0.311714
0.319391
0.32615
0.332124
0.337431
0.342169
0.346424
0.350268
0.35376
0.356951
0.359884
0.362593
0.36511
0.367459
0.369663
0.371739
0.373703
0.37557
0.377349
0.379053
0.380689
0.382265
0.383789
0.385266
0.386701
0.3881
0.389468
0.390807
0.392121
0.393414
0.394688
0.395945
0.397188
0.398418
0.399637
0.400846
0.402045
0.403237
0.404421
0.405599
0.406772
0.407939
0.409103
0.410262
0.411416
0.412566
0.413708
0.41484
0.415958
0.417058
0.418132
0.419172
0.420171
0.421118
0.422001
0.422808
0.423526
0.424142
0.42464
0.425002
0.425212
0.425249
0.425093
0.424719
0.424099
0.423204
0.422
0.420452
0.418514
0.416143
0.413282
0.409879
0.405861
0.401162
0.395687
0.389343
0.382021
0.373586
0.363889
0.352752
0.33996
0.325255
0.308331
0.288791
0.26623
0.239892
0.209624
0.17296
0.13366
0.0772339
0.044494
0.208827
0.210302
0.222268
0.239034
0.254846
0.269082
0.281985
0.293413
0.303394
0.312122
0.319774
0.326502
0.332441
0.337712
0.342415
0.346638
0.350453
0.353919
0.357087
0.359999
0.36269
0.365192
0.367528
0.36972
0.371787
0.373743
0.375602
0.377375
0.379073
0.380705
0.382277
0.383797
0.385271
0.386704
0.388101
0.389466
0.390803
0.392116
0.393407
0.39468
0.395937
0.397179
0.398409
0.399628
0.400836
0.402036
0.403227
0.404412
0.40559
0.406763
0.407931
0.409095
0.410256
0.411412
0.412563
0.413708
0.414844
0.415967
0.417072
0.418153
0.419201
0.420208
0.421164
0.422057
0.422875
0.423605
0.424233
0.424744
0.425121
0.425345
0.425399
0.425259
0.424903
0.424302
0.423427
0.422244
0.420718
0.418803
0.416456
0.413619
0.410242
0.40625
0.401578
0.39613
0.389816
0.382524
0.374121
0.364458
0.353357
0.340605
0.325942
0.309064
0.289573
0.267063
0.240771
0.210548
0.173868
0.13455
0.0777793
0.0449518
0.207446
0.208603
0.221175
0.238671
0.254871
0.269327
0.282364
0.293848
0.303839
0.312551
0.320173
0.326862
0.33276
0.33799
0.342656
0.346844
0.350627
0.354066
0.35721
0.360102
0.362776
0.365262
0.367586
0.369767
0.371824
0.373773
0.375625
0.377393
0.379087
0.380714
0.382283
0.3838
0.385271
0.386702
0.388097
0.389461
0.390797
0.392108
0.393399
0.394671
0.395927
0.397169
0.398399
0.399617
0.400826
0.402025
0.403217
0.404402
0.405581
0.406754
0.407923
0.409088
0.410249
0.411407
0.412561
0.413708
0.414848
0.415975
0.417085
0.418171
0.419226
0.420241
0.421206
0.422109
0.422937
0.423679
0.424319
0.424843
0.425234
0.425474
0.425543
0.425421
0.425082
0.424501
0.423646
0.422485
0.420982
0.419091
0.416768
0.413958
0.410606
0.406642
0.401999
0.396581
0.390298
0.383038
0.374669
0.365043
0.353981
0.341272
0.326655
0.309828
0.29039
0.267938
0.241697
0.211525
0.174835
0.135507
0.0783781
0.0454394
0.205957
0.206743
0.220018
0.238314
0.254923
0.269607
0.282778
0.294312
0.304304
0.312992
0.320575
0.327218
0.33307
0.338255
0.34288
0.347032
0.350783
0.354195
0.357315
0.360187
0.362845
0.365318
0.36763
0.369802
0.371851
0.373793
0.37564
0.377404
0.379093
0.380717
0.382284
0.383799
0.385268
0.386697
0.388091
0.389453
0.390788
0.392099
0.393389
0.39466
0.395916
0.397158
0.398387
0.399606
0.400815
0.402015
0.403207
0.404392
0.405571
0.406745
0.407915
0.40908
0.410243
0.411402
0.412557
0.413707
0.41485
0.415981
0.417095
0.418187
0.419248
0.420271
0.421244
0.422156
0.422995
0.423747
0.424399
0.424936
0.425341
0.425595
0.42568
0.425575
0.425254
0.424692
0.423859
0.42272
0.421239
0.419373
0.417075
0.414292
0.410968
0.407034
0.40242
0.397034
0.390784
0.383558
0.375227
0.36564
0.35462
0.341957
0.327389
0.310617
0.291237
0.268848
0.242665
0.212553
0.17586
0.136532
0.079033
0.0459577
0.204354
0.204709
0.2188
0.237973
0.255006
0.269924
0.283223
0.294796
0.304778
0.31343
0.320965
0.327556
0.333356
0.338494
0.343077
0.347193
0.350914
0.354299
0.357399
0.360253
0.362897
0.365358
0.36766
0.369824
0.371867
0.373804
0.375646
0.377406
0.379093
0.380715
0.38228
0.383793
0.385261
0.386689
0.388082
0.389443
0.390778
0.392088
0.393378
0.394649
0.395905
0.397147
0.398376
0.399595
0.400804
0.402004
0.403197
0.404383
0.405562
0.406737
0.407907
0.409073
0.410237
0.411397
0.412554
0.413706
0.414851
0.415985
0.417104
0.418201
0.419268
0.420297
0.421277
0.422198
0.423046
0.423809
0.424472
0.425021
0.425439
0.425708
0.425808
0.425719
0.425417
0.424874
0.424061
0.422944
0.421487
0.419646
0.417374
0.414619
0.411323
0.40742
0.402837
0.397484
0.391269
0.38408
0.375787
0.366243
0.355268
0.342654
0.32814
0.311426
0.292108
0.269789
0.243669
0.213626
0.176938
0.137624
0.0797467
0.0465061
0.202633
0.202488
0.217529
0.237654
0.255123
0.270273
0.28369
0.295286
0.305242
0.313847
0.321325
0.327859
0.333605
0.338696
0.343239
0.347321
0.351014
0.354377
0.357458
0.360298
0.36293
0.365382
0.367677
0.369835
0.371873
0.373806
0.375646
0.377403
0.379088
0.380709
0.382272
0.383785
0.385252
0.38668
0.388072
0.389433
0.390767
0.392078
0.393367
0.394639
0.395894
0.397136
0.398366
0.399585
0.400794
0.401995
0.403188
0.404374
0.405554
0.406729
0.4079
0.409067
0.410231
0.411393
0.412551
0.413705
0.414852
0.415989
0.417111
0.418212
0.419284
0.420319
0.421306
0.422234
0.423091
0.423864
0.424538
0.425098
0.425528
0.425811
0.425926
0.425853
0.425568
0.425044
0.424252
0.423157
0.421723
0.419907
0.417662
0.414935
0.411668
0.407796
0.403246
0.397927
0.391749
0.384598
0.376347
0.366846
0.35592
0.343357
0.3289
0.312249
0.292999
0.270754
0.244705
0.214741
0.178066
0.138784
0.0805229
0.0470874
0.20079
0.200063
0.216212
0.237366
0.255272
0.270648
0.284163
0.295759
0.305674
0.314222
0.321637
0.328111
0.333806
0.338853
0.34336
0.347413
0.351083
0.354428
0.357495
0.360324
0.362947
0.365392
0.367682
0.369836
0.371872
0.373802
0.37564
0.377397
0.379081
0.380701
0.382263
0.383775
0.385243
0.38667
0.388062
0.389424
0.390758
0.392068
0.393358
0.394629
0.395885
0.397127
0.398357
0.399576
0.400786
0.401987
0.403181
0.404367
0.405548
0.406723
0.407895
0.409062
0.410228
0.41139
0.412549
0.413705
0.414854
0.415993
0.417118
0.418222
0.419299
0.420339
0.421331
0.422266
0.423131
0.423912
0.424595
0.425166
0.425608
0.425903
0.426032
0.425975
0.425707
0.425201
0.424429
0.423356
0.421944
0.420153
0.417934
0.415236
0.411999
0.408159
0.403642
0.398359
0.392219
0.385108
0.3769
0.367446
0.356571
0.344063
0.329666
0.313082
0.293904
0.271739
0.245768
0.215893
0.179243
0.14001
0.0813656
0.0477042
0.198819
0.197418
0.214862
0.237115
0.25545
0.271033
0.284617
0.296191
0.306051
0.314534
0.321887
0.328306
0.333955
0.338965
0.343443
0.347473
0.351125
0.354457
0.357514
0.360335
0.362953
0.365394
0.36768
0.369832
0.371866
0.373795
0.375633
0.377389
0.379073
0.380692
0.382255
0.383767
0.385234
0.386662
0.388054
0.389416
0.39075
0.392061
0.39335
0.394622
0.395878
0.39712
0.398351
0.39957
0.40078
0.401982
0.403175
0.404362
0.405543
0.406719
0.407891
0.40906
0.410225
0.411389
0.412549
0.413706
0.414856
0.415997
0.417124
0.418232
0.419311
0.420355
0.421353
0.422294
0.423165
0.423953
0.424645
0.425225
0.425678
0.425985
0.426127
0.426084
0.425832
0.425344
0.424591
0.423539
0.42215
0.420384
0.418191
0.415521
0.412314
0.408507
0.404023
0.398777
0.392675
0.385606
0.377443
0.368038
0.357215
0.344766
0.330432
0.313918
0.294818
0.272739
0.246853
0.217077
0.180463
0.141304
0.0822803
0.0483639
0.19672
0.194533
0.213496
0.236907
0.255644
0.271403
0.285024
0.296555
0.306352
0.314773
0.322069
0.328442
0.334054
0.339036
0.343492
0.347506
0.351147
0.35447
0.35752
0.360337
0.362952
0.36539
0.367676
0.369827
0.37186
0.373789
0.375626
0.377382
0.379066
0.380686
0.382249
0.383761
0.385229
0.386657
0.388049
0.389411
0.390746
0.392056
0.393346
0.394618
0.395874
0.397117
0.398347
0.399567
0.400777
0.401979
0.403173
0.40436
0.405541
0.406718
0.40789
0.409059
0.410225
0.411389
0.41255
0.413708
0.414859
0.416002
0.417131
0.41824
0.419323
0.42037
0.421371
0.422317
0.423193
0.423988
0.424687
0.425276
0.425738
0.426056
0.426211
0.426181
0.425944
0.425473
0.424737
0.423706
0.422338
0.420596
0.418429
0.415788
0.41261
0.408835
0.404386
0.399177
0.393115
0.386089
0.377972
0.368618
0.35785
0.345461
0.331195
0.314755
0.295735
0.273749
0.247955
0.21829
0.181725
0.142667
0.0832744
0.0490767
0.194501
0.191397
0.212141
0.236741
0.255833
0.271729
0.285356
0.296832
0.30657
0.314937
0.322189
0.328526
0.334112
0.339075
0.343517
0.347522
0.351155
0.354473
0.357521
0.360336
0.362949
0.365387
0.367672
0.369822
0.371856
0.373785
0.375622
0.377379
0.379063
0.380683
0.382246
0.383759
0.385227
0.386655
0.388048
0.38941
0.390745
0.392056
0.393346
0.394618
0.395874
0.397117
0.398347
0.399567
0.400777
0.401979
0.403173
0.40436
0.405542
0.406718
0.407891
0.40906
0.410227
0.411392
0.412553
0.413711
0.414864
0.416007
0.417137
0.418248
0.419333
0.420382
0.421387
0.422336
0.423217
0.424018
0.424723
0.425319
0.42579
0.426117
0.426283
0.426266
0.426042
0.425587
0.424869
0.423856
0.42251
0.420791
0.418649
0.416035
0.412887
0.409144
0.404729
0.399558
0.393536
0.386554
0.378485
0.369183
0.358472
0.346146
0.331949
0.315587
0.296653
0.274764
0.24907
0.219527
0.183025
0.144099
0.0843576
0.0498607
0.192177
0.188007
0.210826
0.236609
0.25599
0.271983
0.285596
0.297019
0.30671
0.315038
0.322259
0.328574
0.334144
0.339096
0.34353
0.34753
0.35116
0.354476
0.357522
0.360336
0.362949
0.365387
0.367672
0.369823
0.371856
0.373786
0.375624
0.37738
0.379065
0.380685
0.382249
0.383762
0.38523
0.386658
0.388051
0.389414
0.390748
0.392059
0.39335
0.394622
0.395878
0.39712
0.39835
0.39957
0.40078
0.401982
0.403176
0.404363
0.405545
0.406722
0.407894
0.409064
0.410231
0.411396
0.412558
0.413717
0.414869
0.416014
0.417144
0.418257
0.419342
0.420394
0.421401
0.422353
0.423237
0.424042
0.424753
0.425355
0.425833
0.42617
0.426345
0.426339
0.426128
0.425687
0.424985
0.423991
0.422664
0.420968
0.41885
0.416263
0.413143
0.409433
0.405052
0.399918
0.393937
0.387
0.378979
0.369731
0.359079
0.346817
0.332693
0.316412
0.297568
0.275782
0.250194
0.220786
0.184364
0.145602
0.085544
0.050742
0.189792
0.184382
0.209587
0.236496
0.25609
0.272151
0.285744
0.297129
0.306791
0.315096
0.322299
0.328602
0.334164
0.33911
0.343542
0.347539
0.351168
0.354483
0.357529
0.360343
0.362956
0.365394
0.367679
0.36983
0.371864
0.373793
0.375631
0.377388
0.379073
0.380693
0.382257
0.38377
0.385238
0.386666
0.388059
0.389421
0.390756
0.392067
0.393357
0.394629
0.395885
0.397127
0.398357
0.399577
0.400786
0.401988
0.403182
0.404369
0.40555
0.406727
0.4079
0.40907
0.410237
0.411402
0.412564
0.413723
0.414876
0.416021
0.417152
0.418265
0.419352
0.420404
0.421413
0.422367
0.423255
0.424063
0.424778
0.425386
0.42587
0.426214
0.426398
0.426403
0.426204
0.425776
0.425089
0.424111
0.422804
0.421128
0.419033
0.416472
0.413381
0.409701
0.405355
0.400258
0.394318
0.387425
0.379455
0.37026
0.359668
0.347474
0.333424
0.317227
0.298476
0.276799
0.251325
0.222063
0.185738
0.14718
0.0868505
0.0517603
0.187515
0.180619
0.208457
0.236381
0.25612
0.272236
0.285822
0.297189
0.306838
0.315133
0.322329
0.328627
0.334186
0.33913
0.34356
0.347556
0.351185
0.3545
0.357545
0.360359
0.362972
0.365409
0.367694
0.369846
0.371879
0.373808
0.375646
0.377403
0.379087
0.380707
0.38227
0.383783
0.385251
0.386679
0.388072
0.389433
0.390768
0.392078
0.393368
0.39464
0.395895
0.397137
0.398367
0.399586
0.400795
0.401996
0.403189
0.404376
0.405558
0.406734
0.407907
0.409077
0.410244
0.411409
0.412572
0.413731
0.414884
0.416029
0.41716
0.418273
0.419361
0.420414
0.421424
0.42238
0.42327
0.424081
0.4248
0.425413
0.425903
0.426253
0.426445
0.426459
0.42627
0.425854
0.425181
0.424219
0.42293
0.421274
0.419201
0.416665
0.413601
0.409952
0.405639
0.400579
0.39468
0.387832
0.379911
0.370771
0.36024
0.348114
0.33414
0.31803
0.299376
0.277812
0.25246
0.223354
0.187146
0.148828
0.0882962
0.0529646
0.185697
0.177003
0.207455
0.236244
0.256087
0.272269
0.285866
0.297231
0.30688
0.315173
0.322367
0.328663
0.33422
0.339163
0.343592
0.347587
0.351215
0.354529
0.357574
0.360387
0.362998
0.365435
0.367719
0.36987
0.371902
0.373831
0.375668
0.377423
0.379107
0.380727
0.382289
0.383801
0.385268
0.386696
0.388088
0.389449
0.390783
0.392093
0.393382
0.394653
0.395908
0.39715
0.398379
0.399597
0.400806
0.402006
0.403199
0.404385
0.405566
0.406743
0.407915
0.409085
0.410252
0.411417
0.41258
0.413739
0.414892
0.416037
0.417169
0.418282
0.41937
0.420424
0.421435
0.422393
0.423285
0.424099
0.424821
0.425438
0.425933
0.426289
0.426489
0.42651
0.426332
0.425927
0.425267
0.424319
0.423047
0.421409
0.419358
0.416845
0.413809
0.410188
0.405908
0.400884
0.395025
0.388222
0.38035
0.371266
0.360796
0.348739
0.334843
0.318821
0.300267
0.27882
0.253596
0.224657
0.188588
0.150546
0.0899078
0.0544291
0.184265
0.17404
0.206573
0.236084
0.25604
0.272301
0.28592
0.297292
0.306945
0.315237
0.322429
0.328724
0.334278
0.339219
0.343645
0.347638
0.351263
0.354575
0.357617
0.360428
0.363038
0.365473
0.367755
0.369904
0.371935
0.373862
0.375697
0.377452
0.379134
0.380752
0.382314
0.383824
0.385291
0.386717
0.388108
0.389469
0.390802
0.392111
0.393399
0.394669
0.395924
0.397164
0.398392
0.39961
0.400818
0.402017
0.40321
0.404396
0.405576
0.406752
0.407924
0.409094
0.410261
0.411426
0.412589
0.413748
0.414901
0.416047
0.417179
0.418293
0.419381
0.420436
0.421449
0.422408
0.423302
0.424118
0.424844
0.425465
0.425965
0.426327
0.426534
0.426564
0.426395
0.426001
0.425353
0.42442
0.423164
0.421545
0.419515
0.417025
0.414014
0.410423
0.406175
0.401187
0.395369
0.38861
0.380789
0.37176
0.361354
0.349368
0.335552
0.319622
0.301174
0.27985
0.254765
0.226003
0.190104
0.152371
0.0917554
0.0563363
0.18146
0.172315
0.205797
0.235979
0.256067
0.272399
0.286034
0.297411
0.307061
0.315349
0.322536
0.328824
0.334372
0.339307
0.343727
0.347715
0.351335
0.354642
0.357681
0.360487
0.363094
0.365525
0.367805
0.36995
0.371979
0.373903
0.375736
0.377488
0.379169
0.380785
0.382345
0.383854
0.385319
0.386743
0.388133
0.389492
0.390824
0.392132
0.393419
0.394688
0.395942
0.397181
0.398408
0.399625
0.400832
0.40203
0.403222
0.404407
0.405587
0.406762
0.407934
0.409103
0.41027
0.411435
0.412598
0.413757
0.414911
0.416057
0.41719
0.418304
0.419394
0.420451
0.421465
0.422426
0.423323
0.424143
0.424873
0.425498
0.426004
0.426373
0.426587
0.426626
0.426467
0.426085
0.425451
0.424533
0.423294
0.421694
0.419686
0.417221
0.414238
0.410677
0.406463
0.401514
0.395737
0.389027
0.381259
0.37229
0.361952
0.350042
0.336314
0.320484
0.302151
0.280963
0.256034
0.227473
0.191776
0.154417
0.0939177
0.0590493
0.175972
0.172178
0.205268
0.236077
0.256225
0.272591
0.286226
0.297592
0.307231
0.315506
0.32268
0.328957
0.334495
0.339419
0.343831
0.347811
0.351424
0.354725
0.357757
0.360559
0.36316
0.365587
0.367862
0.370004
0.372029
0.373951
0.375781
0.37753
0.379208
0.380822
0.382379
0.383886
0.385349
0.386772
0.38816
0.389517
0.390848
0.392154
0.39344
0.394708
0.39596
0.397198
0.398424
0.399639
0.400845
0.402043
0.403233
0.404417
0.405596
0.40677
0.407942
0.40911
0.410277
0.411442
0.412604
0.413764
0.414918
0.416064
0.417198
0.418314
0.419405
0.420463
0.421479
0.422443
0.423342
0.424166
0.4249
0.42553
0.426041
0.426416
0.426637
0.426685
0.426536
0.426165
0.425544
0.42464
0.423418
0.421837
0.41985
0.417408
0.414452
0.41092
0.406739
0.401827
0.396092
0.389428
0.381712
0.372802
0.36253
0.350696
0.337053
0.321323
0.303103
0.282052
0.257274
0.228924
0.193407
0.156506
0.096008
0.0623778
)
;

boundaryField
{
    wall
    {
        type            zeroGradient;
    }
    inlet
    {
        type            zeroGradient;
    }
    outlet
    {
        type            fixedValue;
        value           uniform 0;
    }
    centerline
    {
        type            symmetryPlane;
    }
    frontAndBack
    {
        type            empty;
    }
}


// ************************************************************************* //
