/*--------------------------------*- C++ -*----------------------------------*\
| =========                 |                                                 |
| \\      /  F ield         | OpenFOAM: The Open Source CFD Toolbox           |
|  \\    /   O peration     | Version:  v1912                                 |
|   \\  /    A nd           | Website:  www.openfoam.com                      |
|    \\/     M anipulation  |                                                 |
\*---------------------------------------------------------------------------*/
FoamFile
{
    version     2.0;
    format      ascii;
    class       surfaceScalarField;
    location    "81";
    object      phi;
}
// * * * * * * * * * * * * * * * * * * * * * * * * * * * * * * * * * * * * * //

dimensions      [0 3 -1 0 0 0 0];
oriented        oriented;


internalField   nonuniform List<scalar> 
5870
(
1.76124e-06
-9.45712e-08
1.84496e-06
-8.37187e-08
1.91805e-06
-7.30967e-08
1.98317e-06
-6.51151e-08
2.04289e-06
-5.97249e-08
2.09897e-06
-5.60781e-08
2.15258e-06
-5.36127e-08
2.20453e-06
-5.19468e-08
2.25529e-06
-5.07585e-08
2.30511e-06
-4.98214e-08
2.35411e-06
-4.89987e-08
2.40232e-06
-4.82073e-08
2.44971e-06
-4.73968e-08
2.49625e-06
-4.65388e-08
2.54187e-06
-4.56182e-08
2.5865e-06
-4.46296e-08
2.63007e-06
-4.35732e-08
2.67253e-06
-4.24521e-08
2.7138e-06
-4.12706e-08
2.75383e-06
-4.00336e-08
2.79258e-06
-3.8746e-08
2.82999e-06
-3.74139e-08
2.86603e-06
-3.60424e-08
2.90067e-06
-3.46359e-08
2.93387e-06
-3.31981e-08
2.9656e-06
-3.17325e-08
2.99584e-06
-3.02422e-08
3.02457e-06
-2.87303e-08
3.05177e-06
-2.71991e-08
3.07742e-06
-2.56511e-08
3.10151e-06
-2.40881e-08
3.12402e-06
-2.25121e-08
3.14495e-06
-2.09246e-08
3.16427e-06
-1.9327e-08
3.18199e-06
-1.77209e-08
3.1981e-06
-1.61071e-08
3.21259e-06
-1.44883e-08
3.22545e-06
-1.28647e-08
3.23669e-06
-1.12394e-08
3.2463e-06
-9.61152e-09
3.25429e-06
-7.98383e-09
3.26064e-06
-6.35619e-09
3.26537e-06
-4.72985e-09
3.26848e-06
-3.10515e-09
3.26996e-06
-1.48203e-09
3.26982e-06
1.39239e-10
3.26806e-06
1.75887e-09
3.26469e-06
3.37433e-09
3.2597e-06
4.9857e-09
3.25311e-06
6.59096e-09
3.24492e-06
8.18782e-09
3.23515e-06
9.77131e-09
3.22381e-06
1.1337e-08
3.21093e-06
1.28801e-08
3.19654e-06
1.43919e-08
3.18067e-06
1.58713e-08
3.16337e-06
1.73063e-08
3.14467e-06
1.86961e-08
3.12464e-06
2.00293e-08
3.10334e-06
2.13117e-08
3.0808e-06
2.2536e-08
3.0571e-06
2.37028e-08
3.03229e-06
2.4815e-08
3.00642e-06
2.58688e-08
2.97955e-06
2.68733e-08
2.95172e-06
2.78219e-08
2.923e-06
2.87257e-08
2.89343e-06
2.95648e-08
2.86308e-06
3.03482e-08
2.83201e-06
3.10633e-08
2.80031e-06
3.17061e-08
2.76804e-06
3.2262e-08
2.73532e-06
3.27189e-08
2.70225e-06
3.30769e-08
2.66893e-06
3.33095e-08
2.63549e-06
3.34403e-08
2.60205e-06
3.34405e-08
2.56872e-06
3.33348e-08
2.53562e-06
3.31013e-08
2.50283e-06
3.27878e-08
2.47047e-06
3.23666e-08
2.43858e-06
3.18901e-08
2.40726e-06
3.13207e-08
2.37656e-06
3.07076e-08
2.34651e-06
3.00466e-08
2.31717e-06
2.93461e-08
2.28856e-06
2.8609e-08
2.26071e-06
2.78437e-08
2.23367e-06
2.70478e-08
2.20743e-06
2.62408e-08
2.18203e-06
2.53969e-08
2.15745e-06
2.45824e-08
2.13371e-06
2.37366e-08
2.11066e-06
2.30517e-08
2.08837e-06
2.22962e-08
2.066e-06
2.23551e-08
2.04436e-06
2.16537e-08
2.01891e-06
2.54334e-08
1.99608e-06
2.28418e-08
3.86267e-08
1.76137e-06
-1.89274e-07
1.84484e-06
-1.67192e-07
1.91786e-06
-1.46112e-07
1.983e-06
-1.30257e-07
2.04272e-06
-1.19445e-07
2.09876e-06
-1.12117e-07
2.15234e-06
-1.0719e-07
2.20425e-06
-1.03862e-07
2.25497e-06
-1.0148e-07
2.30475e-06
-9.9601e-08
2.35371e-06
-9.79534e-08
2.40187e-06
-9.63694e-08
2.44922e-06
-9.47468e-08
2.49571e-06
-9.30288e-08
2.54128e-06
-9.11862e-08
2.58586e-06
-8.92078e-08
2.62938e-06
-8.70935e-08
2.67177e-06
-8.48492e-08
2.71299e-06
-8.24835e-08
2.75296e-06
-8.00067e-08
2.79164e-06
-7.74292e-08
2.82899e-06
-7.47617e-08
2.86496e-06
-7.20145e-08
2.89952e-06
-6.91963e-08
2.93264e-06
-6.63149e-08
2.96428e-06
-6.33777e-08
2.99443e-06
-6.03911e-08
3.02306e-06
-5.73607e-08
3.05016e-06
-5.42916e-08
3.07569e-06
-5.11883e-08
3.09966e-06
-4.80548e-08
3.12204e-06
-4.48947e-08
3.14283e-06
-4.17113e-08
3.16201e-06
-3.85075e-08
3.17957e-06
-3.52864e-08
3.19552e-06
-3.20509e-08
3.20983e-06
-2.88044e-08
3.22252e-06
-2.555e-08
3.23357e-06
-2.22911e-08
3.24299e-06
-1.90302e-08
3.25078e-06
-1.57704e-08
3.25693e-06
-1.2514e-08
3.26147e-06
-9.26303e-09
3.26438e-06
-6.01869e-09
3.26568e-06
-2.78166e-09
3.26537e-06
4.48295e-10
3.26346e-06
3.67084e-09
3.25995e-06
6.88492e-09
3.25484e-06
1.00895e-08
3.24815e-06
1.32835e-08
3.23987e-06
1.64624e-08
3.23002e-06
1.96203e-08
3.2186e-06
2.27482e-08
3.20565e-06
2.5837e-08
3.19117e-06
2.88728e-08
3.17519e-06
3.18447e-08
3.15777e-06
3.47365e-08
3.13893e-06
3.75351e-08
3.11874e-06
4.02265e-08
3.09725e-06
4.28041e-08
3.07454e-06
4.52597e-08
3.05066e-06
4.75882e-08
3.02569e-06
4.97912e-08
2.99969e-06
5.18676e-08
2.97274e-06
5.38248e-08
2.9449e-06
5.56628e-08
2.91623e-06
5.73902e-08
2.88679e-06
5.89979e-08
2.85664e-06
6.04898e-08
2.82584e-06
6.18547e-08
2.79445e-06
6.30843e-08
2.76255e-06
6.41592e-08
2.73019e-06
6.50642e-08
2.69749e-06
6.57821e-08
2.6645e-06
6.629e-08
2.63136e-06
6.65866e-08
2.59815e-06
6.66519e-08
2.565e-06
6.64946e-08
2.532e-06
6.61026e-08
2.49928e-06
6.55137e-08
2.46693e-06
6.47176e-08
2.43507e-06
6.37623e-08
2.40376e-06
6.26392e-08
2.37308e-06
6.13902e-08
2.3431e-06
6.00308e-08
2.31386e-06
5.85835e-08
2.28542e-06
5.70536e-08
2.2578e-06
5.54657e-08
2.23103e-06
5.38218e-08
2.20513e-06
5.21432e-08
2.18009e-06
5.04341e-08
2.15593e-06
4.87393e-08
2.1326e-06
4.70746e-08
2.11004e-06
4.56006e-08
2.08806e-06
4.42831e-08
2.06647e-06
4.39388e-08
2.04441e-06
4.37216e-08
2.02159e-06
4.82315e-08
1.99464e-06
4.98016e-08
7.03843e-08
1.76136e-06
-2.83966e-07
1.84478e-06
-2.50611e-07
1.91767e-06
-2.19003e-07
1.98267e-06
-1.95262e-07
2.04227e-06
-1.79037e-07
2.09819e-06
-1.68042e-07
2.15167e-06
-1.60664e-07
2.20349e-06
-1.55683e-07
2.25412e-06
-1.52113e-07
2.30381e-06
-1.49294e-07
2.35268e-06
-1.46823e-07
2.40076e-06
-1.44446e-07
2.44802e-06
-1.4201e-07
2.49442e-06
-1.39429e-07
2.5399e-06
-1.36662e-07
2.58438e-06
-1.3369e-07
2.6278e-06
-1.30514e-07
2.67009e-06
-1.27141e-07
2.71119e-06
-1.23585e-07
2.75105e-06
-1.19861e-07
2.7896e-06
-1.15985e-07
2.82681e-06
-1.11972e-07
2.86263e-06
-1.07837e-07
2.89703e-06
-1.03594e-07
2.92997e-06
-9.92556e-08
2.96143e-06
-9.48317e-08
2.99137e-06
-9.03326e-08
3.01978e-06
-8.57672e-08
3.04663e-06
-8.11429e-08
3.0719e-06
-7.6467e-08
3.0956e-06
-7.17456e-08
3.11769e-06
-6.69846e-08
3.13816e-06
-6.2189e-08
3.15702e-06
-5.73635e-08
3.17424e-06
-5.25133e-08
3.18984e-06
-4.76428e-08
3.20379e-06
-4.27575e-08
3.2161e-06
-3.78619e-08
3.22677e-06
-3.29619e-08
3.2358e-06
-2.80614e-08
3.2432e-06
-2.31659e-08
3.24896e-06
-1.82791e-08
3.25311e-06
-1.34043e-08
3.25563e-06
-8.54429e-09
3.25655e-06
-3.69982e-09
3.25587e-06
1.12848e-09
3.2536e-06
5.94099e-09
3.24975e-06
1.07367e-08
3.24432e-06
1.55157e-08
3.23733e-06
2.02763e-08
3.22878e-06
2.5014e-08
3.21868e-06
2.97211e-08
3.20704e-06
3.43868e-08
3.19388e-06
3.89971e-08
3.17922e-06
4.35333e-08
3.16309e-06
4.79776e-08
3.14552e-06
5.23058e-08
3.12656e-06
5.64983e-08
3.10625e-06
6.05316e-08
3.08467e-06
6.43924e-08
3.06187e-06
6.80652e-08
3.03791e-06
7.1541e-08
3.01289e-06
7.48183e-08
2.98686e-06
7.78944e-08
2.95991e-06
8.07776e-08
2.9321e-06
8.34693e-08
2.90351e-06
8.59823e-08
2.8742e-06
8.83102e-08
2.84423e-06
9.04591e-08
2.81366e-06
9.24203e-08
2.78255e-06
9.41846e-08
2.75098e-06
9.57322e-08
2.719e-06
9.70407e-08
2.6867e-06
9.80912e-08
2.65413e-06
9.88499e-08
2.6214e-06
9.93101e-08
2.58861e-06
9.94448e-08
2.55585e-06
9.92542e-08
2.52323e-06
9.87273e-08
2.49085e-06
9.78913e-08
2.45882e-06
9.67489e-08
2.42726e-06
9.53389e-08
2.39622e-06
9.36727e-08
2.36582e-06
9.17941e-08
2.33612e-06
8.97349e-08
2.30719e-06
8.75182e-08
2.27907e-06
8.51773e-08
2.2518e-06
8.27321e-08
2.22541e-06
8.02107e-08
2.19992e-06
7.76325e-08
2.17533e-06
7.50225e-08
2.15163e-06
7.24344e-08
2.12879e-06
6.99206e-08
2.10673e-06
6.76575e-08
2.08526e-06
6.57576e-08
2.06416e-06
6.50287e-08
2.04264e-06
6.52509e-08
2.02023e-06
7.06308e-08
1.99403e-06
7.60133e-08
1.01988e-07
1.76135e-06
-3.78644e-07
1.84466e-06
-3.33921e-07
1.91734e-06
-2.91687e-07
1.98212e-06
-2.60043e-07
2.04151e-06
-2.38423e-07
2.09725e-06
-2.23782e-07
2.15056e-06
-2.13974e-07
2.20223e-06
-2.07357e-07
2.25273e-06
-2.0261e-07
2.30229e-06
-1.98858e-07
2.35103e-06
-1.95565e-07
2.39898e-06
-1.92395e-07
2.44612e-06
-1.89143e-07
2.49239e-06
-1.85697e-07
2.53772e-06
-1.81999e-07
2.58206e-06
-1.78027e-07
2.62532e-06
-1.73779e-07
2.66745e-06
-1.69266e-07
2.70837e-06
-1.64505e-07
2.74802e-06
-1.59517e-07
2.78636e-06
-1.54322e-07
2.82333e-06
-1.48942e-07
2.85889e-06
-1.43396e-07
2.893e-06
-1.37702e-07
2.92562e-06
-1.31878e-07
2.95673e-06
-1.25937e-07
2.98629e-06
-1.19895e-07
3.01429e-06
-1.13764e-07
3.0407e-06
-1.07554e-07
3.0655e-06
-1.01275e-07
3.0887e-06
-9.49375e-08
3.11026e-06
-8.85483e-08
3.13018e-06
-8.21153e-08
3.14847e-06
-7.56456e-08
3.1651e-06
-6.91461e-08
3.18008e-06
-6.26238e-08
3.19341e-06
-5.60858e-08
3.20508e-06
-4.95392e-08
3.21511e-06
-4.29912e-08
3.2235e-06
-3.64488e-08
3.23026e-06
-2.99188e-08
3.23538e-06
-2.34069e-08
3.2389e-06
-1.69181e-08
3.24081e-06
-1.0456e-08
3.24113e-06
-4.0222e-09
3.23988e-06
2.38268e-09
3.23706e-06
8.7591e-09
3.23269e-06
1.51072e-08
3.22677e-06
2.14274e-08
3.21933e-06
2.7719e-08
3.21036e-06
3.39773e-08
3.19989e-06
4.01936e-08
3.18792e-06
4.63551e-08
3.17447e-06
5.24448e-08
3.15956e-06
5.84396e-08
3.14323e-06
6.43147e-08
3.12549e-06
7.00405e-08
3.10641e-06
7.55875e-08
3.08602e-06
8.09267e-08
3.06438e-06
8.60348e-08
3.04156e-06
9.0891e-08
3.01763e-06
9.54803e-08
2.99266e-06
9.97965e-08
2.96672e-06
1.03838e-07
2.93989e-06
1.07609e-07
2.91224e-06
1.11116e-07
2.88385e-06
1.1437e-07
2.85478e-06
1.17373e-07
2.8251e-06
1.20132e-07
2.79487e-06
1.22641e-07
2.76416e-06
1.2489e-07
2.73302e-06
1.26861e-07
2.70152e-06
1.28533e-07
2.66974e-06
1.29876e-07
2.63772e-06
1.30858e-07
2.60557e-06
1.31458e-07
2.57337e-06
1.31651e-07
2.54121e-06
1.31423e-07
2.50917e-06
1.30764e-07
2.47738e-06
1.29694e-07
2.44592e-06
1.28217e-07
2.41489e-06
1.26371e-07
2.38439e-06
1.24177e-07
2.35451e-06
1.21683e-07
2.32532e-06
1.18928e-07
2.29688e-06
1.15952e-07
2.26927e-06
1.12792e-07
2.24252e-06
1.09488e-07
2.21666e-06
1.06073e-07
2.19171e-06
1.02579e-07
2.16768e-06
9.90555e-08
2.14456e-06
9.55528e-08
2.1223e-06
9.21814e-08
2.10084e-06
8.91152e-08
2.07998e-06
8.66217e-08
2.05949e-06
8.55084e-08
2.03862e-06
8.61228e-08
2.01679e-06
9.24528e-08
1.99144e-06
1.01366e-07
1.33176e-07
1.76133e-06
-4.73305e-07
1.84447e-06
-4.17068e-07
1.91687e-06
-3.6408e-07
1.98134e-06
-3.24514e-07
2.04044e-06
-2.97522e-07
2.09592e-06
-2.79267e-07
2.14901e-06
-2.67061e-07
2.20048e-06
-2.58832e-07
2.2508e-06
-2.52924e-07
2.30019e-06
-2.48247e-07
2.34876e-06
-2.44137e-07
2.39654e-06
-2.40174e-07
2.4435e-06
-2.36103e-07
2.48959e-06
-2.31783e-07
2.53473e-06
-2.27142e-07
2.57885e-06
-2.22153e-07
2.62189e-06
-2.16812e-07
2.66376e-06
-2.11134e-07
2.70439e-06
-2.05139e-07
2.74373e-06
-1.98852e-07
2.7817e-06
-1.923e-07
2.81827e-06
-1.85509e-07
2.85338e-06
-1.78505e-07
2.88699e-06
-1.71312e-07
2.91906e-06
-1.63951e-07
2.94957e-06
-1.56444e-07
2.97848e-06
-1.48807e-07
3.00578e-06
-1.4106e-07
3.03144e-06
-1.33216e-07
3.05545e-06
-1.2529e-07
3.07781e-06
-1.17293e-07
3.0985e-06
-1.09239e-07
3.11752e-06
-1.01137e-07
3.13487e-06
-9.29959e-08
3.15055e-06
-8.48264e-08
3.16457e-06
-7.66374e-08
3.17692e-06
-6.84385e-08
3.18762e-06
-6.02383e-08
3.19667e-06
-5.20467e-08
3.2041e-06
-4.38722e-08
3.2099e-06
-3.57239e-08
3.2141e-06
-2.76088e-08
3.21672e-06
-1.95332e-08
3.21776e-06
-1.15017e-08
3.21726e-06
-3.51621e-09
3.21522e-06
4.42232e-09
3.21166e-06
1.23158e-08
3.20661e-06
2.0165e-08
3.20006e-06
2.79722e-08
3.19204e-06
3.57367e-08
3.18257e-06
4.34551e-08
3.17164e-06
5.11179e-08
3.15929e-06
5.87114e-08
3.14552e-06
6.62156e-08
3.13035e-06
7.3603e-08
3.11383e-06
8.08441e-08
3.09597e-06
8.79016e-08
3.07682e-06
9.47409e-08
3.05642e-06
1.01323e-07
3.03484e-06
1.07621e-07
3.01212e-06
1.13603e-07
2.98835e-06
1.19253e-07
2.96359e-06
1.24558e-07
2.93791e-06
1.29515e-07
2.9114e-06
1.34129e-07
2.8841e-06
1.38405e-07
2.85612e-06
1.42358e-07
2.8275e-06
1.45992e-07
2.79831e-06
1.49315e-07
2.76863e-06
1.52326e-07
2.7385e-06
1.55016e-07
2.70799e-06
1.57367e-07
2.67717e-06
1.59354e-07
2.6461e-06
1.6095e-07
2.61484e-06
1.62114e-07
2.58347e-06
1.62825e-07
2.55207e-06
1.63049e-07
2.52073e-06
1.62769e-07
2.48952e-06
1.61971e-07
2.45854e-06
1.60666e-07
2.4279e-06
1.58865e-07
2.39768e-06
1.56596e-07
2.36797e-06
1.53891e-07
2.33885e-06
1.50798e-07
2.31042e-06
1.47368e-07
2.28273e-06
1.43642e-07
2.25585e-06
1.39679e-07
2.22981e-06
1.35517e-07
2.20467e-06
1.31216e-07
2.18044e-06
1.2681e-07
2.15712e-06
1.22366e-07
2.13472e-06
1.17956e-07
2.11319e-06
1.13715e-07
2.09245e-06
1.09852e-07
2.07233e-06
1.06747e-07
2.05258e-06
1.05252e-07
2.0325e-06
1.06207e-07
2.01141e-06
1.13535e-07
1.98705e-06
1.25732e-07
1.63712e-07
1.76131e-06
-5.67944e-07
1.84423e-06
-4.99997e-07
1.91625e-06
-4.36097e-07
1.98032e-06
-3.88586e-07
2.03905e-06
-3.56252e-07
2.09421e-06
-3.34426e-07
2.14701e-06
-3.19865e-07
2.19824e-06
-3.10056e-07
2.24832e-06
-3.03007e-07
2.29749e-06
-2.97418e-07
2.34585e-06
-2.92495e-07
2.39341e-06
-2.87735e-07
2.44014e-06
-2.82833e-07
2.48598e-06
-2.77621e-07
2.53085e-06
-2.72012e-07
2.57467e-06
-2.65972e-07
2.61735e-06
-2.59497e-07
2.65882e-06
-2.52602e-07
2.699e-06
-2.45314e-07
2.73781e-06
-2.37662e-07
2.77519e-06
-2.2968e-07
2.81108e-06
-2.21401e-07
2.84543e-06
-2.12859e-07
2.8782e-06
-2.04083e-07
2.90935e-06
-1.95104e-07
2.93886e-06
-1.85948e-07
2.96669e-06
-1.76641e-07
2.99284e-06
-1.67205e-07
3.01728e-06
-1.57662e-07
3.04002e-06
-1.4803e-07
3.06105e-06
-1.38325e-07
3.08038e-06
-1.28565e-07
3.098e-06
-1.18762e-07
3.11394e-06
-1.08929e-07
3.12819e-06
-9.90775e-08
3.14077e-06
-8.92203e-08
3.1517e-06
-7.9368e-08
3.16099e-06
-6.95319e-08
3.16867e-06
-5.97229e-08
3.17475e-06
-4.99517e-08
3.17925e-06
-4.02283e-08
3.18221e-06
-3.05611e-08
3.18363e-06
-2.09573e-08
3.18355e-06
-1.14213e-08
3.18199e-06
-1.95557e-09
3.17897e-06
7.44036e-09
3.17452e-06
1.67695e-08
3.16865e-06
2.60351e-08
3.16138e-06
3.52409e-08
3.15272e-06
4.43881e-08
3.1427e-06
5.34744e-08
3.13133e-06
6.24909e-08
3.11861e-06
7.14232e-08
3.10458e-06
8.02493e-08
3.08924e-06
8.89394e-08
3.07263e-06
9.74573e-08
3.05477e-06
1.05762e-07
3.0357e-06
1.13809e-07
3.01547e-06
1.21557e-07
2.99413e-06
1.28966e-07
2.97174e-06
1.36002e-07
2.94836e-06
1.42641e-07
2.92406e-06
1.48867e-07
2.8989e-06
1.54676e-07
2.87296e-06
1.60071e-07
2.8463e-06
1.65059e-07
2.81901e-06
1.69653e-07
2.79113e-06
1.73865e-07
2.76273e-06
1.77704e-07
2.73388e-06
1.81171e-07
2.70463e-06
1.84257e-07
2.67504e-06
1.86946e-07
2.64518e-06
1.89214e-07
2.6151e-06
1.91029e-07
2.58486e-06
1.9235e-07
2.55454e-06
1.93145e-07
2.52421e-06
1.93381e-07
2.49395e-06
1.93033e-07
2.46384e-06
1.92087e-07
2.43396e-06
1.90546e-07
2.40441e-06
1.88421e-07
2.37528e-06
1.8574e-07
2.34663e-06
1.82538e-07
2.31856e-06
1.78867e-07
2.29115e-06
1.74781e-07
2.26446e-06
1.70333e-07
2.23856e-06
1.65585e-07
2.21349e-06
1.60594e-07
2.18928e-06
1.55421e-07
2.16598e-06
1.50119e-07
2.14357e-06
1.44772e-07
2.12207e-06
1.39459e-07
2.10142e-06
1.34362e-07
2.08157e-06
1.29702e-07
2.06233e-06
1.25985e-07
2.04348e-06
1.24103e-07
2.02434e-06
1.25343e-07
2.00417e-06
1.337e-07
1.98096e-06
1.48938e-07
1.93392e-07
1.76128e-06
-6.62557e-07
1.84393e-06
-5.82651e-07
1.91548e-06
-5.07647e-07
1.97907e-06
-4.52167e-07
2.03734e-06
-4.14531e-07
2.09211e-06
-3.89187e-07
2.14456e-06
-3.72323e-07
2.19548e-06
-3.60975e-07
2.24529e-06
-3.52811e-07
2.29419e-06
-3.46322e-07
2.34228e-06
-3.40585e-07
2.38956e-06
-3.35015e-07
2.43599e-06
-3.29256e-07
2.48148e-06
-3.23111e-07
2.52594e-06
-3.1648e-07
2.56929e-06
-3.09319e-07
2.61142e-06
-3.01626e-07
2.65224e-06
-2.93418e-07
2.69165e-06
-2.84727e-07
2.72958e-06
-2.75592e-07
2.76596e-06
-2.66056e-07
2.80072e-06
-2.56162e-07
2.83381e-06
-2.45953e-07
2.8652e-06
-2.3547e-07
2.89485e-06
-2.24752e-07
2.92273e-06
-2.13836e-07
2.94885e-06
-2.02756e-07
2.97319e-06
-1.91543e-07
2.99575e-06
-1.80224e-07
3.01654e-06
-1.68824e-07
3.03559e-06
-1.57366e-07
3.05289e-06
-1.45869e-07
3.06848e-06
-1.3435e-07
3.08238e-06
-1.22825e-07
3.09461e-06
-1.11309e-07
3.1052e-06
-9.98129e-08
3.11418e-06
-8.83511e-08
3.12159e-06
-7.69349e-08
3.12744e-06
-6.55765e-08
3.13177e-06
-5.42864e-08
3.13462e-06
-4.30755e-08
3.13601e-06
-3.19522e-08
3.13598e-06
-2.09231e-08
3.13455e-06
-9.99237e-09
3.13175e-06
8.3891e-10
3.12762e-06
1.15725e-08
3.12218e-06
2.2215e-08
3.11544e-06
3.27713e-08
3.10743e-06
4.32485e-08
3.09817e-06
5.36497e-08
3.08767e-06
6.39754e-08
3.07595e-06
7.42177e-08
3.06301e-06
8.43629e-08
3.04887e-06
9.43878e-08
3.03355e-06
1.04259e-07
3.01707e-06
1.13937e-07
2.99946e-06
1.23375e-07
2.98075e-06
1.32524e-07
2.96098e-06
1.41332e-07
2.94019e-06
1.49756e-07
2.91843e-06
1.57755e-07
2.89577e-06
1.65298e-07
2.87227e-06
1.72369e-07
2.84799e-06
1.78957e-07
2.823e-06
1.85066e-07
2.79735e-06
1.90702e-07
2.77112e-06
1.95886e-07
2.74436e-06
2.00623e-07
2.71714e-06
2.04931e-07
2.6895e-06
2.08809e-07
2.6615e-06
2.12253e-07
2.6332e-06
2.15245e-07
2.60466e-06
2.17759e-07
2.57593e-06
2.19764e-07
2.54706e-06
2.2121e-07
2.51813e-06
2.22071e-07
2.48921e-06
2.22302e-07
2.46036e-06
2.21879e-07
2.43167e-06
2.20779e-07
2.40321e-06
2.19005e-07
2.37507e-06
2.16568e-07
2.34732e-06
2.13491e-07
2.32005e-06
2.09812e-07
2.29333e-06
2.05587e-07
2.26724e-06
2.00877e-07
2.24183e-06
1.95733e-07
2.21718e-06
1.90237e-07
2.19333e-06
1.84444e-07
2.17032e-06
1.78435e-07
2.14817e-06
1.72267e-07
2.12689e-06
1.66043e-07
2.10649e-06
1.5986e-07
2.08693e-06
1.53921e-07
2.06815e-06
1.48489e-07
2.04997e-06
1.44158e-07
2.03218e-06
1.41893e-07
2.01416e-06
1.43366e-07
1.9951e-06
1.52761e-07
1.97322e-06
1.70818e-07
2.21989e-07
1.76125e-06
-7.57141e-07
1.84357e-06
-6.6497e-07
1.91456e-06
-5.78639e-07
1.97756e-06
-5.15165e-07
2.0353e-06
-4.72277e-07
2.0896e-06
-4.43479e-07
2.14165e-06
-4.24378e-07
2.19221e-06
-4.11537e-07
2.24169e-06
-4.02283e-07
2.29026e-06
-3.949e-07
2.33801e-06
-3.88334e-07
2.38491e-06
-3.81917e-07
2.4309e-06
-3.7524e-07
2.47586e-06
-3.68077e-07
2.5197e-06
-3.60312e-07
2.56228e-06
-3.51898e-07
2.60348e-06
-3.42832e-07
2.6432e-06
-3.33139e-07
2.68134e-06
-3.22862e-07
2.7178e-06
-3.12052e-07
2.75251e-06
-3.00769e-07
2.78541e-06
-2.89069e-07
2.81647e-06
-2.7701e-07
2.84565e-06
-2.6465e-07
2.87294e-06
-2.5204e-07
2.89834e-06
-2.39231e-07
2.92184e-06
-2.26265e-07
2.94349e-06
-2.13185e-07
2.96329e-06
-2.00025e-07
2.98128e-06
-1.86816e-07
2.9975e-06
-1.73586e-07
3.01198e-06
-1.60357e-07
3.02478e-06
-1.4715e-07
3.03594e-06
-1.33981e-07
3.04549e-06
-1.20865e-07
3.0535e-06
-1.07816e-07
3.05999e-06
-9.48445e-08
3.06502e-06
-8.19626e-08
3.06862e-06
-6.91809e-08
3.07085e-06
-5.65094e-08
3.07173e-06
-4.39574e-08
3.07131e-06
-3.15318e-08
3.06963e-06
-1.92382e-08
3.06671e-06
-7.07833e-09
3.0626e-06
4.94876e-09
3.05733e-06
1.68491e-08
3.05091e-06
2.86309e-08
3.04338e-06
4.03041e-08
3.03475e-06
5.18788e-08
3.02503e-06
6.33622e-08
3.01425e-06
7.47577e-08
3.0024e-06
8.60599e-08
2.98951e-06
9.7257e-08
2.97557e-06
1.08325e-07
2.96059e-06
1.1923e-07
2.9446e-06
1.29928e-07
2.92761e-06
1.40367e-07
2.90964e-06
1.50492e-07
2.89073e-06
1.60247e-07
2.87092e-06
1.69578e-07
2.85024e-06
1.78438e-07
2.82875e-06
1.86793e-07
2.80651e-06
1.94619e-07
2.78356e-06
2.01906e-07
2.75998e-06
2.08654e-07
2.7358e-06
2.14874e-07
2.71111e-06
2.2058e-07
2.68593e-06
2.25791e-07
2.66034e-06
2.30518e-07
2.63438e-06
2.34768e-07
2.60809e-06
2.38533e-07
2.58153e-06
2.41798e-07
2.55474e-06
2.44538e-07
2.52779e-06
2.46715e-07
2.50071e-06
2.48284e-07
2.47358e-06
2.492e-07
2.44646e-06
2.49427e-07
2.41942e-06
2.48928e-07
2.39252e-06
2.47685e-07
2.36584e-06
2.45691e-07
2.33945e-06
2.42956e-07
2.31345e-06
2.39505e-07
2.28788e-06
2.35379e-07
2.26284e-06
2.30635e-07
2.23838e-06
2.25334e-07
2.21457e-06
2.19541e-07
2.19148e-06
2.13337e-07
2.16913e-06
2.06792e-07
2.14758e-06
1.99988e-07
2.12685e-06
1.92999e-07
2.10695e-06
1.85941e-07
2.08789e-06
1.78923e-07
2.06963e-06
1.72181e-07
2.05211e-06
1.65999e-07
2.0352e-06
1.61071e-07
2.01867e-06
1.58426e-07
2.00195e-06
1.6008e-07
1.9842e-06
1.70509e-07
1.96385e-06
1.91163e-07
2.49285e-07
1.76122e-06
-8.51695e-07
1.84314e-06
-7.46888e-07
1.91347e-06
-6.48973e-07
1.97579e-06
-5.77485e-07
2.03292e-06
-5.29405e-07
2.08668e-06
-4.97234e-07
2.13827e-06
-4.75968e-07
2.18841e-06
-4.61684e-07
2.23749e-06
-4.51358e-07
2.28565e-06
-4.43065e-07
2.33294e-06
-4.3562e-07
2.37929e-06
-4.28264e-07
2.42458e-06
-4.20538e-07
2.46869e-06
-4.12187e-07
2.51146e-06
-4.03082e-07
2.55274e-06
-3.93176e-07
2.59239e-06
-3.82475e-07
2.63027e-06
-3.7102e-07
2.66628e-06
-3.58873e-07
2.70033e-06
-3.46108e-07
2.73237e-06
-3.32807e-07
2.76235e-06
-3.1905e-07
2.79026e-06
-3.04917e-07
2.81609e-06
-2.90483e-07
2.83987e-06
-2.75818e-07
2.86163e-06
-2.60986e-07
2.8814e-06
-2.46044e-07
2.89926e-06
-2.3104e-07
2.91525e-06
-2.16018e-07
2.92945e-06
-2.01013e-07
2.94192e-06
-1.86055e-07
2.95273e-06
-1.71169e-07
2.96195e-06
-1.56373e-07
2.96966e-06
-1.41684e-07
2.97591e-06
-1.27115e-07
2.98076e-06
-1.12674e-07
2.98429e-06
-9.83728e-08
2.98655e-06
-8.4217e-08
2.98758e-06
-7.02151e-08
2.98745e-06
-5.63729e-08
2.98618e-06
-4.26969e-08
2.98384e-06
-2.91908e-08
2.98046e-06
-1.58564e-08
2.97608e-06
-2.69313e-09
2.97072e-06
1.03052e-08
2.96442e-06
2.31474e-08
2.9572e-06
3.58475e-08
2.94909e-06
4.84179e-08
2.9401e-06
6.08747e-08
2.93023e-06
7.32289e-08
2.9195e-06
8.54888e-08
2.90791e-06
9.76525e-08
2.89546e-06
1.0971e-07
2.88215e-06
1.21639e-07
2.86797e-06
1.33403e-07
2.85295e-06
1.44957e-07
2.83707e-06
1.56243e-07
2.82036e-06
1.67204e-07
2.80284e-06
1.7777e-07
2.78453e-06
1.87888e-07
2.76547e-06
1.975e-07
2.74569e-06
2.06567e-07
2.72526e-06
2.15061e-07
2.70419e-06
2.22966e-07
2.68256e-06
2.30285e-07
2.66041e-06
2.37024e-07
2.63779e-06
2.43203e-07
2.61474e-06
2.48838e-07
2.59132e-06
2.53945e-07
2.56755e-06
2.58532e-07
2.54349e-06
2.62592e-07
2.51918e-06
2.66112e-07
2.49466e-06
2.69061e-07
2.46997e-06
2.71404e-07
2.44516e-06
2.73083e-07
2.4203e-06
2.74064e-07
2.39543e-06
2.74294e-07
2.37062e-06
2.73739e-07
2.34593e-06
2.72372e-07
2.32143e-06
2.70185e-07
2.2972e-06
2.67189e-07
2.27331e-06
2.63404e-07
2.24982e-06
2.5887e-07
2.2268e-06
2.53652e-07
2.20433e-06
2.47814e-07
2.18245e-06
2.4142e-07
2.16122e-06
2.34566e-07
2.14069e-06
2.27321e-07
2.12089e-06
2.19783e-07
2.10186e-06
2.12032e-07
2.0836e-06
2.04194e-07
2.06613e-06
1.96398e-07
2.04941e-06
1.88897e-07
2.03339e-06
1.82012e-07
2.01796e-06
1.76507e-07
2.00289e-06
1.73496e-07
1.98768e-06
1.75286e-07
1.97146e-06
1.86736e-07
1.95285e-06
2.09766e-07
2.75047e-07
1.76119e-06
-9.46218e-07
1.84264e-06
-8.28337e-07
1.91221e-06
-7.18549e-07
1.97376e-06
-6.39031e-07
2.03019e-06
-5.85832e-07
2.08333e-06
-5.50379e-07
2.1344e-06
-5.27031e-07
2.18405e-06
-5.11342e-07
2.23263e-06
-4.99932e-07
2.28022e-06
-4.90661e-07
2.32681e-06
-4.82205e-07
2.37226e-06
-4.73717e-07
2.41641e-06
-4.64687e-07
2.45906e-06
-4.54837e-07
2.50002e-06
-4.44037e-07
2.53909e-06
-4.32252e-07
2.57613e-06
-4.19513e-07
2.611e-06
-4.05892e-07
2.64362e-06
-3.91485e-07
2.67391e-06
-3.76402e-07
2.70186e-06
-3.60757e-07
2.72747e-06
-3.44662e-07
2.75078e-06
-3.28222e-07
2.77183e-06
-3.11536e-07
2.79071e-06
-2.94692e-07
2.80749e-06
-2.77767e-07
2.82227e-06
-2.60826e-07
2.83515e-06
-2.43926e-07
2.84625e-06
-2.27113e-07
2.85566e-06
-2.10422e-07
2.86348e-06
-1.93883e-07
2.86983e-06
-1.77515e-07
2.87479e-06
-1.61335e-07
2.87846e-06
-1.45351e-07
2.88091e-06
-1.29572e-07
2.88224e-06
-1.14e-07
2.8825e-06
-9.86368e-08
2.88177e-06
-8.34853e-08
2.8801e-06
-6.85458e-08
2.87755e-06
-5.38194e-08
2.87416e-06
-3.93066e-08
2.86998e-06
-2.50066e-08
2.86504e-06
-1.09168e-08
2.85938e-06
2.96978e-09
2.85302e-06
1.66625e-08
2.84599e-06
3.01762e-08
2.83831e-06
4.35267e-08
2.83e-06
5.67353e-08
2.82105e-06
6.98209e-08
2.81148e-06
8.28017e-08
2.80127e-06
9.56893e-08
2.79044e-06
1.08488e-07
2.77895e-06
1.21191e-07
2.76681e-06
1.33776e-07
2.754e-06
1.4621e-07
2.74052e-06
1.58441e-07
2.72635e-06
1.70413e-07
2.7115e-06
1.82056e-07
2.69597e-06
1.93303e-07
2.67977e-06
2.04084e-07
2.66294e-06
2.14339e-07
2.64549e-06
2.24019e-07
2.62747e-06
2.33091e-07
2.6089e-06
2.41539e-07
2.58983e-06
2.49358e-07
2.57029e-06
2.56558e-07
2.55034e-06
2.63154e-07
2.53001e-06
2.6917e-07
2.50932e-06
2.74623e-07
2.48833e-06
2.79519e-07
2.46706e-06
2.83857e-07
2.44554e-06
2.87619e-07
2.42382e-06
2.9078e-07
2.40193e-06
2.93291e-07
2.3799e-06
2.95107e-07
2.3578e-06
2.96169e-07
2.33566e-06
2.96432e-07
2.31356e-06
2.9585e-07
2.29153e-06
2.944e-07
2.26966e-06
2.92062e-07
2.24801e-06
2.88848e-07
2.22664e-06
2.84778e-07
2.20561e-06
2.79896e-07
2.185e-06
2.74265e-07
2.16486e-06
2.67951e-07
2.14526e-06
2.61028e-07
2.12624e-06
2.5359e-07
2.10784e-06
2.4572e-07
2.0901e-06
2.37517e-07
2.07306e-06
2.29074e-07
2.05673e-06
2.20529e-07
2.04111e-06
2.12018e-07
2.02618e-06
2.03823e-07
2.01191e-06
1.96283e-07
1.99817e-06
1.9024e-07
1.98479e-06
1.86878e-07
1.97131e-06
1.88763e-07
1.95684e-06
2.01207e-07
1.94021e-06
2.26389e-07
2.99038e-07
1.76116e-06
-1.04071e-06
1.84206e-06
-9.09242e-07
1.91078e-06
-7.8726e-07
1.97145e-06
-6.99707e-07
2.0271e-06
-6.41477e-07
2.07956e-06
-6.02844e-07
2.13001e-06
-5.77483e-07
2.17906e-06
-5.60389e-07
2.22694e-06
-5.47807e-07
2.27365e-06
-5.37377e-07
2.31908e-06
-5.27631e-07
2.363e-06
-5.17637e-07
2.40516e-06
-5.06849e-07
2.4453e-06
-4.94984e-07
2.4832e-06
-4.81936e-07
2.51866e-06
-4.67709e-07
2.55153e-06
-4.52383e-07
2.58172e-06
-4.3608e-07
2.60918e-06
-4.18951e-07
2.63393e-06
-4.01153e-07
2.65602e-06
-3.82841e-07
2.67552e-06
-3.64163e-07
2.69255e-06
-3.45253e-07
2.70724e-06
-3.26227e-07
2.71973e-06
-3.07187e-07
2.73019e-06
-2.88218e-07
2.73875e-06
-2.6939e-07
2.74558e-06
-2.50757e-07
2.75083e-06
-2.3236e-07
2.75464e-06
-2.1423e-07
2.75714e-06
-1.96387e-07
2.75847e-06
-1.78842e-07
2.75873e-06
-1.61599e-07
2.75804e-06
-1.4466e-07
2.75649e-06
-1.28019e-07
2.75416e-06
-1.1167e-07
2.75113e-06
-9.5606e-08
2.74746e-06
-7.98175e-08
2.74321e-06
-6.42983e-08
2.73843e-06
-4.90404e-08
2.73316e-06
-3.4038e-08
2.72744e-06
-1.92838e-08
2.72129e-06
-4.76868e-09
2.71474e-06
9.51908e-09
2.70781e-06
2.35946e-08
2.70051e-06
3.74751e-08
2.69285e-06
5.11849e-08
2.68484e-06
6.47468e-08
2.67648e-06
7.81888e-08
2.66775e-06
9.15322e-08
2.65864e-06
1.04797e-07
2.64914e-06
1.17991e-07
2.63922e-06
1.31111e-07
2.62886e-06
1.4414e-07
2.61803e-06
1.5704e-07
2.60671e-06
1.69764e-07
2.59488e-06
1.82248e-07
2.58252e-06
1.94422e-07
2.56962e-06
2.06204e-07
2.55618e-06
2.17524e-07
2.54221e-06
2.28309e-07
2.52772e-06
2.38507e-07
2.51273e-06
2.48076e-07
2.49728e-06
2.56993e-07
2.48139e-06
2.65253e-07
2.46508e-06
2.72861e-07
2.4484e-06
2.79838e-07
2.43136e-06
2.86203e-07
2.41401e-06
2.91976e-07
2.39636e-06
2.97167e-07
2.37845e-06
3.01772e-07
2.36029e-06
3.05779e-07
2.34192e-06
3.09153e-07
2.32336e-06
3.11855e-07
2.30464e-06
3.13817e-07
2.28581e-06
3.14995e-07
2.26691e-06
3.15329e-07
2.24799e-06
3.14771e-07
2.2291e-06
3.13287e-07
2.2103e-06
3.10859e-07
2.19166e-06
3.07496e-07
2.17323e-06
3.03213e-07
2.15507e-06
2.98051e-07
2.13726e-06
2.92083e-07
2.11984e-06
2.85374e-07
2.10286e-06
2.77998e-07
2.08639e-06
2.70063e-07
2.07046e-06
2.61649e-07
2.05511e-06
2.52869e-07
2.04036e-06
2.4382e-07
2.02623e-06
2.34649e-07
2.01274e-06
2.25509e-07
1.99987e-06
2.16691e-07
1.98759e-06
2.08567e-07
1.9758e-06
2.0203e-07
1.96433e-06
1.98347e-07
1.95281e-06
2.0029e-07
1.94031e-06
2.13698e-07
1.92591e-06
2.40791e-07
3.21017e-07
1.76113e-06
-1.13518e-06
1.84141e-06
-9.8952e-07
1.90915e-06
-8.54995e-07
1.96886e-06
-7.59417e-07
2.02364e-06
-6.96257e-07
2.07533e-06
-6.54538e-07
2.12503e-06
-6.27185e-07
2.17323e-06
-6.08583e-07
2.22e-06
-5.94582e-07
2.26523e-06
-5.82599e-07
2.30863e-06
-5.71031e-07
2.34988e-06
-5.58886e-07
2.38864e-06
-5.45615e-07
2.42463e-06
-5.30974e-07
2.45761e-06
-5.14919e-07
2.48744e-06
-4.97531e-07
2.51402e-06
-4.78968e-07
2.53737e-06
-4.59431e-07
2.55756e-06
-4.39135e-07
2.5747e-06
-4.18291e-07
2.58895e-06
-3.97099e-07
2.60052e-06
-3.75735e-07
2.60962e-06
-3.5435e-07
2.61647e-06
-3.33073e-07
2.62129e-06
-3.12007e-07
2.6243e-06
-2.91232e-07
2.62572e-06
-2.70809e-07
2.62574e-06
-2.5078e-07
2.62456e-06
-2.31174e-07
2.62233e-06
-2.12005e-07
2.61922e-06
-1.93277e-07
2.61537e-06
-1.74986e-07
2.61089e-06
-1.5712e-07
2.60589e-06
-1.39666e-07
2.60047e-06
-1.22603e-07
2.59471e-06
-1.05911e-07
2.58868e-06
-8.95712e-08
2.58242e-06
-7.35632e-08
2.57599e-06
-5.78691e-08
2.56943e-06
-4.24735e-08
2.56275e-06
-2.73618e-08
2.55599e-06
-1.25204e-08
2.54916e-06
2.06651e-09
2.54226e-06
1.64165e-08
2.53531e-06
3.05461e-08
2.52831e-06
4.44799e-08
2.52125e-06
5.82429e-08
2.51413e-06
7.18687e-08
2.50693e-06
8.53861e-08
2.49964e-06
9.8826e-08
2.49222e-06
1.1221e-07
2.48466e-06
1.25556e-07
2.4769e-06
1.38863e-07
2.46893e-06
1.52116e-07
2.46068e-06
1.65284e-07
2.45213e-06
1.78314e-07
2.44323e-06
1.91143e-07
2.43397e-06
2.0369e-07
2.4243e-06
2.15876e-07
2.41421e-06
2.27612e-07
2.4037e-06
2.38824e-07
2.39276e-06
2.49447e-07
2.38141e-06
2.59433e-07
2.36965e-06
2.68753e-07
2.35751e-06
2.77396e-07
2.345e-06
2.85368e-07
2.33216e-06
2.92684e-07
2.31899e-06
2.99368e-07
2.30552e-06
3.05442e-07
2.29176e-06
3.10914e-07
2.27774e-06
3.15789e-07
2.26347e-06
3.20043e-07
2.24897e-06
3.23653e-07
2.23426e-06
3.26563e-07
2.21935e-06
3.28722e-07
2.2043e-06
3.30056e-07
2.18912e-06
3.30513e-07
2.17386e-06
3.30033e-07
2.15856e-06
3.28586e-07
2.14329e-06
3.26138e-07
2.12809e-06
3.22698e-07
2.11302e-06
3.18282e-07
2.09814e-06
3.12932e-07
2.08351e-06
3.06718e-07
2.06918e-06
2.99704e-07
2.0552e-06
2.91976e-07
2.04163e-06
2.83638e-07
2.02849e-06
2.74783e-07
2.01584e-06
2.65522e-07
2.00369e-06
2.55966e-07
1.99207e-06
2.46268e-07
1.98099e-06
2.36588e-07
1.97044e-06
2.27241e-07
1.9604e-06
2.18606e-07
1.95079e-06
2.11639e-07
1.94148e-06
2.07666e-07
1.93213e-06
2.09637e-07
1.92185e-06
2.23967e-07
1.90992e-06
2.5272e-07
3.40732e-07
1.76111e-06
-1.22963e-06
1.84068e-06
-1.06908e-06
1.90733e-06
-9.21647e-07
1.96598e-06
-8.18071e-07
2.0198e-06
-7.50074e-07
2.07057e-06
-7.05304e-07
2.11923e-06
-6.75851e-07