/*--------------------------------*- C++ -*----------------------------------*\
| =========                 |                                                 |
| \\      /  F ield         | OpenFOAM: The Open Source CFD Toolbox           |
|  \\    /   O peration     | Version:  v1912                                 |
|   \\  /    A nd           | Website:  www.openfoam.com                      |
|    \\/     M anipulation  |                                                 |
\*---------------------------------------------------------------------------*/
FoamFile
{
    version     2.0;
    format      ascii;
    class       volVectorField;
    location    "81";
    object      U;
}
// * * * * * * * * * * * * * * * * * * * * * * * * * * * * * * * * * * * * * //

dimensions      [0 1 -1 0 0 0 0];


internalField   nonuniform List<vector> 
3000
(
(0.999639 0.000163897 1.23413e-18)
(0.995499 0.000501911 -2.06787e-20)
(0.986521 0.000804344 2.12908e-20)
(0.974409 0.000989822 1.50367e-18)
(0.961227 0.0010712 -1.62314e-18)
(0.948089 0.00108722 -1.62944e-18)
(0.935509 0.00106239 1.74001e-18)
(0.923789 0.00101268 -1.24506e-19)
(0.913075 0.000950751 3.8731e-19)
(0.903378 0.00088495 1.61025e-18)
(0.894641 0.000819926 2.75037e-19)
(0.88678 0.000758215 0)
(0.879705 0.000701099 -8.85529e-19)
(0.873326 0.000649125 -3.01032e-19)
(0.867557 0.000602466 0)
(0.862319 0.000560878 1.58427e-18)
(0.857544 0.000523948 9.68047e-19)
(0.853171 0.000491227 3.28668e-19)
(0.849147 0.000462303 -3.30171e-19)
(0.845428 0.00043682 1.34367e-18)
(0.841972 0.000414499 1.35899e-18)
(0.838747 0.000394883 0)
(0.835722 0.000377665 0)
(0.832873 0.000362544 0)
(0.830178 0.000349289 -7.06348e-19)
(0.827616 0.000337663 7.07615e-19)
(0.825172 0.000327552 0)
(0.822831 0.000318814 7.20468e-19)
(0.820579 0.000311328 -1.44277e-18)
(0.818406 0.000304913 7.28612e-19)
(0.816302 0.000299469 1.46163e-18)
(0.814257 0.000294886 -7.34448e-19)
(0.812263 0.00029109 -1.10762e-18)
(0.810315 0.000287991 3.69961e-19)
(0.808404 0.000285527 0)
(0.806526 0.000283669 3.74557e-19)
(0.804676 0.000282348 1.29211e-21)
(0.802848 0.000281503 -1.13044e-18)
(0.80104 0.000281058 0)
(0.799248 0.000280997 0)
(0.797468 0.000281275 0)
(0.795698 0.00028184 -7.66866e-19)
(0.793936 0.000282659 5.76693e-19)
(0.792179 0.000283682 -1.92804e-19)
(0.790425 0.000284949 3.8775e-19)
(0.788672 0.000286433 1.94653e-19)
(0.786918 0.000288115 0)
(0.785162 0.000289859 0)
(0.7834 0.000291676 4.92952e-20)
(0.781634 0.000293451 -4.93454e-20)
(0.77986 0.000295083 -4.96805e-20)
(0.77808 0.000296358 4.97375e-20)
(0.776294 0.0002971 0)
(0.774505 0.000297114 -2.01102e-19)
(0.772716 0.000296113 -2.7374e-22)
(0.770934 0.000294081 -4.04906e-19)
(0.769163 0.000290641 -2.03527e-19)
(0.767413 0.000285698 6.12476e-19)
(0.765695 0.000278976 5.15877e-22)
(0.764017 0.000270508 0)
(0.762394 0.000260194 0)
(0.760836 0.000247897 -8.28673e-19)
(0.759356 0.000233754 4.15345e-19)
(0.757968 0.000217325 1.25074e-18)
(0.756686 0.000198902 0)
(0.755521 0.000178259 -8.38619e-19)
(0.754488 0.000155432 0)
(0.753603 0.000129666 0)
(0.752883 0.000100814 0)
(0.752349 6.86479e-05 -2.53021e-18)
(0.752023 3.25976e-05 -2.34783e-22)
(0.751933 -7.67123e-06 -8.43032e-19)
(0.752112 -5.30321e-05 1.68283e-18)
(0.752599 -0.000103428 0)
(0.753436 -0.000159743 1.67246e-18)
(0.754672 -0.000221275 -8.33917e-19)
(0.75636 -0.000289184 -8.28755e-19)
(0.758559 -0.000362725 0)
(0.761331 -0.000442784 -1.62622e-18)
(0.764743 -0.000527738 0)
(0.768864 -0.000619319 -1.58666e-18)
(0.773768 -0.000715394 0)
(0.779533 -0.000818213 0)
(0.786247 -0.00092647 3.72077e-19)
(0.794004 -0.00104041 -3.69044e-19)
(0.802904 -0.00116061 0)
(0.813065 -0.00128763 0)
(0.824618 -0.00142154 0)
(0.837714 -0.00156319 2.22004e-18)
(0.852526 -0.00171284 2.41371e-18)
(0.869253 -0.00187195 2.88801e-19)
(0.888139 -0.00203948 2.0997e-18)
(0.90941 -0.00221812 1.15432e-19)
(0.933498 -0.00240214 1.72191e-18)
(0.96038 -0.00260103 -1.61965e-18)
(0.991439 -0.00278286 0)
(1.02422 -0.00300543 0)
(1.06662 -0.0030776 7.63934e-19)
(1.09794 -0.00337568 0)
(1.16975 -0.00307311 0)
(0.999636 0.000475662 1.85299e-18)
(0.995491 0.0015102 -3.07335e-20)
(0.98649 0.00243981 4.12246e-18)
(0.974344 0.00302458 2.26391e-18)
(0.961132 0.00329749 2.277e-18)
(0.947971 0.00336807 7.49008e-18)
(0.935372 0.003308 -7.7408e-18)
(0.923636 0.00316716 -3.45159e-19)
(0.912909 0.002985 1.76999e-19)
(0.903201 0.00278757 -3.35875e-18)
(0.894452 0.00258984 3.79217e-19)
(0.886581 0.00240044 0)
(0.879496 0.00222401 1.61019e-18)
(0.873107 0.00206257 0)
(0.867327 0.00191659 -3.75375e-18)
(0.862079 0.00178571 -4.65112e-18)
(0.857294 0.001669 -2.14048e-18)
(0.85291 0.00156535 -3.02695e-18)
(0.848875 0.00147351 3.48802e-18)
(0.845144 0.0013923 -2.64008e-18)
(0.841676 0.00132055 -5.31644e-18)
(0.838438 0.00125727 8.87142e-19)
(0.8354 0.00120143 2.6828e-18)
(0.832536 0.00115226 8.96733e-19)
(0.829824 0.00110902 0)
(0.827244 0.00107111 -9.09403e-19)
(0.824781 0.00103789 9.08053e-19)
(0.822419 0.00100888 3.65402e-18)
(0.820145 0.000983645 1.83289e-18)
(0.817948 0.000961823 1.83847e-18)
(0.815818 0.000943061 -5.53174e-18)
(0.813745 0.000927086 -1.80673e-21)
(0.811723 0.000913617 -1.80971e-21)
(0.809743 0.000902456 0)
(0.807799 0.000893324 0)
(0.805886 0.00088606 0)
(0.803998 0.000880358 1.87589e-18)
(0.802132 0.000876102 9.40791e-19)
(0.800283 0.000872952 0)
(0.798448 0.000870888 0)
(0.796625 0.000869617 0)
(0.794811 0.000869113 -4.76629e-19)
(0.793005 0.000869219 -9.56723e-19)
(0.791205 0.000869915 2.40451e-19)
(0.789409 0.000871133 -7.2271e-19)
(0.787616 0.000872924 -2.4198e-19)
(0.785826 0.00087529 -4.85529e-19)
(0.784036 0.000878103 0)
(0.782246 0.000881258 0)
(0.780453 0.000884693 -6.13397e-20)
(0.778657 0.00088808 6.15763e-20)
(0.776857 0.000890994 0)
(0.775052 0.000892846 0)
(0.773244 0.000893088 4.98795e-19)
(0.771434 0.000890729 2.50514e-19)
(0.769625 0.000885293 2.51349e-19)
(0.767825 0.000875613 2.5255e-19)
(0.766039 0.000861178 5.07602e-19)
(0.764278 0.000840802 1.02094e-18)
(0.762553 0.000814653 0)
(0.760878 0.000781928 0)
(0.759266 0.000742574 1.03745e-18)
(0.757735 0.000696642 -1.04282e-18)
(0.7563 0.000644073 1.04824e-18)
(0.754978 0.00058531 -5.27136e-19)
(0.753787 0.000519959 1.58723e-18)
(0.752744 0.000448888 -2.12666e-18)
(0.751866 0.000370501 -1.0682e-18)
(0.751172 0.00028529 1.07155e-18)
(0.750682 0.000191707 6.45366e-18)
(0.750416 8.92598e-05 2.15732e-18)
(0.750399 -2.42107e-05 4.32468e-18)
(0.750659 -0.000149909 -2.16557e-18)
(0.751229 -0.000289194 4.33466e-18)
(0.752145 -0.00044466 -1.08523e-18)
(0.753449 -0.00061577 2.16014e-18)
(0.755193 -0.000805081 -5.10149e-21)
(0.757431 -0.00101195 -1.07843e-18)
(0.760223 -0.00123847 6.42068e-18)
(0.763637 -0.00148193 3.19322e-18)
(0.767746 -0.00174432 4.21302e-18)
(0.77263 -0.00202324 3.12076e-18)
(0.778371 -0.002321 0)
(0.785059 -0.0026356 4.04609e-18)
(0.792798 -0.00296803 -4.91121e-19)
(0.801695 -0.00331857 4.89298e-19)
(0.811869 -0.00368877 4.23596e-18)
(0.823457 -0.00407984 -4.62353e-19)
(0.836611 -0.00449405 -3.51035e-18)
(0.851507 -0.0049325 -3.76204e-18)
(0.86834 -0.00539958 1.97972e-20)
(0.887356 -0.00589413 -8.53053e-18)
(0.908778 -0.00642256 0)
(0.933036 -0.00697578 -7.45638e-18)
(0.960112 -0.00756823 -2.19638e-18)
(0.991367 -0.00814317 -3.75089e-18)
(1.02439 -0.00878787 3.01582e-18)
(1.06698 -0.00915835 -1.12922e-18)
(1.09854 -0.00985981 0)
(1.17071 -0.00944158 0)
(0.999632 0.00077352 -3.64736e-18)
(0.995473 0.00251827 0)
(0.986413 0.00406638 -4.03697e-18)
(0.974188 0.00503936 -7.15219e-20)
(0.960909 0.00549904 4.71371e-18)
(0.947696 0.00562075 1.57627e-19)
(0.935057 0.00552143 5.05908e-18)
(0.923288 0.00528619 0)
(0.912534 0.00498208 5.70291e-18)
(0.902803 0.00465238 3.73713e-19)
(0.894035 0.00432196 5.70995e-18)
(0.886145 0.00400532 0)
(0.879041 0.00371031 4.02142e-19)
(0.872634 0.00344036 -6.90626e-18)
(0.866836 0.00319635 1.03297e-17)
(0.86157 0.00297761 2.51358e-18)
(0.856765 0.00278263 4.2157e-19)
(0.852361 0.00260947 3.42816e-18)
(0.848305 0.00245613 -3.46002e-18)
(0.84455 0.0023206 0)
(0.841057 0.00220105 9.65899e-18)
(0.83779 0.00209569 1.76775e-18)
(0.834721 0.00200294 -4.4423e-18)
(0.831824 0.00192139 0)
(0.829075 0.00184984 9.00317e-19)
(0.826455 0.00178718 -1.80336e-18)
(0.823948 0.00173245 1.81062e-18)
(0.821538 0.00168482 -4.54171e-18)
(0.819213 0.00164359 0)
(0.81696 0.0016081 -3.66064e-18)
(0.814771 0.0015778 3.67282e-18)
(0.812635 0.00155216 0)
(0.810545 0.00153077 -2.3113e-18)
(0.808495 0.0015132 4.17124e-18)
(0.806477 0.00149908 3.72056e-18)
(0.804487 0.00148804 -4.6741e-19)
(0.80252 0.00147969 -1.40529e-18)
(0.800572 0.00147368 0)
(0.798639 0.00146963 0)
(0.796719 0.00146725 4.73901e-19)
(0.794809 0.00146618 -4.74151e-19)
(0.792908 0.00146619 1.43105e-18)
(0.791014 0.00146705 2.39726e-19)
(0.789126 0.0014686 1.92203e-18)
(0.787244 0.00147077 2.41018e-19)
(0.785366 0.00147356 -2.42754e-19)
(0.783493 0.00147697 7.28989e-19)
(0.781623 0.00148089 0)
(0.779756 0.0014853 -6.12582e-20)
(0.777891 0.00149007 1.22675e-19)
(0.776027 0.00149486 8.53763e-23)
(0.774163 0.00149911 -6.17472e-20)
(0.772299 0.00150203 0)
(0.770436 0.00150269 -2.4897e-19)
(0.768575 0.00149979 -2.5002e-19)
(0.76672 0.0014922 1.25754e-18)
(0.764875 0.00147827 -2.01999e-18)
(0.763047 0.00145667 -1.77659e-18)
(0.761246 0.00142588 -5.10562e-19)
(0.759482 0.00138502 -5.13036e-19)
(0.757769 0.00133306 5.14349e-19)
(0.756121 0.00126931 0)
(0.754555 0.00119365 5.20641e-19)
(0.753088 0.00110568 -2.08956e-18)
(0.751739 0.00100586 -1.05028e-18)
(0.750526 0.000893982 5.27151e-19)
(0.749469 0.000770603 -2.11986e-18)
(0.748588 0.000634762 4.25655e-18)
(0.747902 0.000486508 0)
(0.747431 0.000324651 -8.5713e-18)
(0.747198 0.00014802 1.07391e-18)
(0.747227 -4.54397e-05 -5.3826e-18)
(0.747544 -0.000257811 -4.31215e-18)
(0.74818 -0.000491196 -4.31414e-18)
(0.749168 -0.000748564 0)
(0.750548 -0.00103101 0)
(0.752367 -0.00134147 0)
(0.754676 -0.00168061 -1.06684e-18)
(0.757534 -0.00205061 -3.19036e-18)
(0.761006 -0.00245016 -5.28196e-18)
(0.765164 -0.00288132 1.05283e-18)
(0.770089 -0.00334225 3.63327e-18)
(0.775865 -0.00383499 6.77792e-21)
(0.782586 -0.00435818 4.03575e-18)
(0.790357 -0.00491256 8.39732e-18)
(0.799289 -0.0054991 -7.71881e-18)
(0.809507 -0.00611957 -4.2169e-18)
(0.82115 -0.00677571 4.60398e-19)
(0.834371 -0.00747047 -4.28843e-19)
(0.849349 -0.00820687 4.2539e-19)
(0.866281 -0.00898915 -5.93871e-18)
(0.885414 -0.0098196 1.14588e-17)
(0.906971 -0.0107022 -5.62976e-18)
(0.931379 -0.0116332 1.59567e-19)
(0.958624 -0.0126138 8.75519e-18)
(0.990063 -0.0136037 3.7377e-18)
(1.0233 -0.0146143 -6.01178e-18)
(1.06611 -0.0154203 0)
(1.0979 -0.016206 -1.26505e-18)
(1.17049 -0.0161526 6.94615e-19)
(0.999629 0.00107917 -7.15954e-18)
(0.995443 0.00354354 2.97741e-20)
(0.986289 0.00571172 7.9856e-18)
(0.97394 0.00706779 -1.29076e-17)
(0.960556 0.00770807 -4.44496e-18)
(0.947264 0.00787554 -1.48158e-17)
(0.934561 0.00773282 -1.03346e-17)
(0.922742 0.00740061 1.08431e-17)
(0.911949 0.00697317 -1.69467e-17)
(0.902185 0.00651053 0)
(0.893387 0.00604727 -6.02862e-18)
(0.885469 0.0056036 3.90302e-19)
(0.87834 0.00519048 6.97618e-21)
(0.871906 0.00481265 6.45152e-18)
(0.866081 0.00447128 -6.54626e-18)
(0.860786 0.00416541 -4.12702e-19)
(0.855951 0.00389292 -6.72938e-18)
(0.851513 0.00365114 0)
(0.84742 0.00343725 7.72951e-18)
(0.843625 0.00324847 -7.7873e-18)
(0.840087 0.00308218 5.36775e-22)
(0.83677 0.00293593 0)
(0.833645 0.00280748 0)
(0.830685 0.00269488 0)
(0.827867 0.00259642 8.03678e-18)
(0.825172 0.00251054 -8.94432e-19)
(0.822582 0.00243588 -7.2067e-18)
(0.820082 0.00237124 0)
(0.81766 0.00231562 0)
(0.815304 0.0022681 -7.2933e-18)
(0.813004 0.00222785 0)
(0.810752 0.00219417 3.67377e-18)
(0.808541 0.0021664 3.22538e-18)
(0.806363 0.00214397 -6.9396e-18)
(0.804215 0.00212633 -3.71427e-18)
(0.80209 0.00211292 -3.72815e-18)
(0.799985 0.00210321 -3.27373e-18)
(0.797897 0.00209668 -4.22566e-18)
(0.795822 0.00209277 4.72252e-19)
(0.793759 0.00209103 -9.46811e-19)
(0.791707 0.00209094 4.74643e-19)
(0.789663 0.00209214 -1.90992e-18)
(0.787628 0.00209426 2.40185e-19)
(0.785602 0.00209706 -2.40553e-19)
(0.783584 0.00210042 0)
(0.781575 0.0021043 0)
(0.779574 0.00210872 0)
(0.777582 0.00211363 1.22422e-19)
(0.775598 0.00211904 3.6804e-19)
(0.773623 0.00212484 -1.23016e-19)
(0.771655 0.00213065 1.23429e-19)
(0.769695 0.00213581 -6.19482e-19)
(0.767743 0.00213936 1.24147e-19)
(0.765799 0.00214004 0)
(0.763865 0.00213618 0)
(0.761944 0.00212606 -1.0064e-18)
(0.760041 0.00210747 -2.53014e-19)
(0.758163 0.00207841 2.53468e-19)
(0.756317 0.0020367 2.03956e-18)
(0.754515 0.0019808 0)
(0.752769 0.00190907 -4.11752e-18)
(0.751094 0.00182041 0)
(0.749506 0.00171425 3.63682e-18)
(0.748024 0.00159014 5.21513e-19)
(0.746665 0.00144832 0)
(0.745448 0.00128869 -5.27138e-19)
(0.744396 0.00111178 9.52131e-18)
(0.743526 0.000916964 -9.02679e-18)
(0.742861 0.000704223 -4.26306e-18)
(0.742422 0.000472418 4.27527e-18)
(0.742232 0.000220148 0)
(0.742314 -5.48386e-05 -9.66192e-18)
(0.742695 -0.000355109 -3.22487e-18)
(0.743406 -0.000683471 0)
(0.744479 -0.00104357 0)
(0.745951 -0.0014377 -8.58599e-18)
(0.747867 -0.00186935 0)
(0.750277 -0.00234048 8.53122e-18)
(0.753236 -0.00285368 0)
(0.756806 -0.00340903 -1.04872e-18)
(0.761059 -0.00400848 -6.26727e-18)
(0.766075 -0.00465147 -9.30059e-18)
(0.771937 -0.00533946 0)
(0.77874 -0.00607192 4.99838e-19)
(0.78659 -0.00684962 -1.62367e-17)
(0.795601 -0.00767402 7.68965e-18)
(0.805899 -0.00854683 0)
(0.817625 -0.00947075 0)
(0.830937 -0.010449 -4.27499e-19)
(0.846015 -0.0114863 1.72446e-20)
(0.863058 -0.012587 6.7055e-18)
(0.882314 -0.013756 -1.78898e-17)
(0.904006 -0.0149958 5.62516e-18)
(0.928566 -0.0163067 -4.94677e-18)
(0.955978 -0.0176781 4.3725e-18)
(0.987603 -0.0190841 0)
(1.02104 -0.0204651 2.95619e-18)
(1.06411 -0.0216997 -4.43902e-18)
(1.09613 -0.0225893 1.24659e-18)
(1.16922 -0.0228765 -6.91177e-19)
(0.999624 0.00138813 7.04467e-18)
(0.995402 0.00458077 -7.34049e-18)
(0.986116 0.00737572 -1.16505e-20)
(0.973599 0.00911377 1.68459e-17)
(0.960073 0.00993056 2.14518e-19)
(0.946672 0.0101397 1.9208e-17)
(0.933883 0.0099501 -1.65331e-19)
(0.921998 0.0095183 1.68023e-19)
(0.911152 0.00896572 -3.88475e-21)
(0.901344 0.00836898 1.15982e-17)
(0.892507 0.00777216 1.19536e-17)
(0.884553 0.00720108 3.86881e-19)
(0.877387 0.0066697 -3.88207e-19)
(0.870917 0.00618407 -1.23819e-17)
(0.865053 0.00574561 1.25946e-17)
(0.859716 0.00535305 0)
(0.854834 0.0050037 6.6755e-18)
(0.850343 0.00469413 4.23879e-19)
(0.84619 0.00442073 5.53849e-18)
(0.842326 0.00417993 8.59475e-18)
(0.838709 0.00396835 -8.66215e-18)
(0.835304 0.00378282 -5.235e-18)
(0.832079 0.00362049 5.64799e-21)
(0.829008 0.00347882 5.29736e-21)
(0.826067 0.00335553 -7.9894e-18)
(0.823236 0.00324861 -7.14074e-18)
(0.8205 0.00315626 7.17485e-18)
(0.817842 0.00307691 -9.03096e-19)
(0.815251 0.00300919 9.02921e-19)
(0.812716 0.00295187 1.45428e-17)
(0.810229 0.00290389 -7.30227e-18)
(0.807781 0.00286426 -1.09991e-17)
(0.805368 0.00283213 -7.82437e-18)
(0.802983 0.00280673 -2.77284e-18)
(0.800622 0.0027873 -4.63211e-19)
(0.798282 0.00277313 7.45662e-18)
(0.79596 0.00276349 3.27558e-18)
(0.793655 0.0027577 4.23028e-18)
(0.791363 0.00275504 3.77795e-18)
(0.789086 0.00275488 0)
(0.786822 0.00275656 0)
(0.784571 0.00275952 1.43626e-18)
(0.782335 0.00276333 -1.44496e-18)
(0.780113 0.00276763 -4.70909e-25)
(0.777906 0.00277224 0)
(0.775717 0.00277709 0)
(0.773544 0.00278224 0)
(0.77139 0.00278768 9.8208e-19)
(0.769255 0.0027935 -5.54105e-19)
(0.767139 0.00279959 1.85145e-19)
(0.765042 0.0028056 -6.18538e-20)
(0.762964 0.00281076 4.35097e-19)
(0.760905 0.00281396 -9.97744e-19)
(0.758867 0.00281369 0)
(0.756851 0.0028079 0)
(0.754859 0.00279434 0)
(0.752898 0.00277027 -1.93107e-23)
(0.750972 0.00273305 2.5438e-18)
(0.74909 0.00267986 -2.55343e-18)
(0.747262 0.00260845 0)
(0.745501 0.00251664 4.12298e-18)
(0.74382 0.00240279 -4.14191e-18)
(0.742235 0.00226597 -4.16048e-18)
(0.740765 0.00210547 0)
(0.739426 0.00192136 4.19783e-18)
(0.738239 0.00171351 -8.95828e-18)
(0.737224 0.00148246 -3.70302e-18)
(0.736401 0.00122777 1.16801e-17)
(0.735791 0.000949415 5.32561e-18)
(0.735417 0.000646296 0)
(0.735301 0.000316879 -8.5661e-18)
(0.735467 -4.12419e-05 8.57845e-18)
(0.735943 -0.000430993 7.51421e-18)
(0.736759 -0.000855733 1.07464e-18)
(0.737945 -0.00131976 -9.65546e-18)
(0.73954 -0.00182622 8.57215e-18)
(0.741586 -0.00237931 8.55189e-18)
(0.744131 -0.00298203 -8.50445e-18)
(0.747229 -0.00363763 1.06154e-18)
(0.75094 -0.00434738 0)
(0.755335 -0.00511351 2.3965e-17)
(0.760491 -0.0059366 1.54772e-18)
(0.76649 -0.00681809 1.57592e-17)
(0.773427 -0.0077582 -8.00217e-18)
(0.781408 -0.00875793 7.84918e-18)
(0.790546 -0.00981922 -4.74069e-19)
(0.80097 -0.010944 -1.40029e-17)
(0.812823 -0.0121358 -1.49171e-17)
(0.826263 -0.0133982 1.34877e-17)
(0.841473 -0.0147373 1.37164e-17)
(0.858653 -0.0161579 3.82677e-19)
(0.878053 -0.0176669 -3.87605e-19)
(0.8999 -0.019266 0)
(0.924625 -0.0209586 1.36734e-19)
(0.952217 -0.0227244 -8.73373e-18)
(0.984042 -0.0245478 7.33064e-18)
(1.0177 -0.0263097 5.95389e-18)
(1.06105 -0.0279638 3.23434e-20)
(1.09331 -0.0289999 0)
(1.16699 -0.0295815 0)
(0.999619 0.00169892 -6.90567e-18)
(0.99535 0.0056327 7.23517e-18)
(0.985894 0.00906324 -7.67584e-18)
(0.973162 0.0111813 -1.37639e-19)
(0.959456 0.0121693 2.12185e-19)
(0.945917 0.0124148 -1.4504e-19)
(0.933021 0.0121735 1.01355e-17)
(0.921052 0.0116385 -1.06405e-17)
(0.91014 0.0109583 1.07404e-17)
(0.900277 0.0102258 -2.3e-17)
(0.89139 0.00949447 3.70834e-19)
(0.883389 0.00879551 3.83606e-19)
(0.876177 0.00814587 6.83758e-21)
(0.869656 0.00755282 1.26825e-17)
(0.863736 0.00701798 -1.36964e-17)
(0.858334 0.00653981 -1.30897e-17)
(0.853376 0.00611499 -4.5266e-21)
(0.848798 0.00573939 8.37502e-19)
(0.844542 0.00540856 -2.74999e-17)
(0.840559 0.00511812 1.28063e-17)
(0.836805 0.0048639 8.57543e-19)
(0.833244 0.00464199 6.93826e-18)
(0.829844 0.00444884 0)
(0.826578 0.00428128 0)
(0.823423 0.00413645 0)
(0.82036 0.00401179 -5.51594e-22)
(0.817374 0.00390501 -8.95975e-19)
(0.814451 0.00381412 -6.29132e-18)
(0.811581 0.00373734 0)
(0.808755 0.00367312 -7.25854e-18)
(0.805966 0.00362008 1.45875e-17)
(0.803209 0.00357696 7.32852e-18)
(0.800481 0.00354269 -2.05359e-22)
(0.797777 0.00351626 -1.70172e-22)
(0.795096 0.00349674 7.43466e-18)
(0.792436 0.00348323 -3.73541e-18)
(0.789797 0.00347483 -4.70039e-19)
(0.787179 0.00347071 4.24363e-18)
(0.784582 0.00346997 -3.79216e-18)
(0.782006 0.00347183 -4.77271e-19)
(0.779453 0.00347546 -3.35412e-18)
(0.776924 0.0034802 3.37092e-18)
(0.774421 0.00348547 2.6636e-18)
(0.771945 0.00349085 -2.1917e-18)
(0.7695 0.00349611 0)
(0.767086 0.00350116 -1.96683e-18)
(0.764705 0.00350612 0)
(0.762359 0.00351106 -1.97695e-18)
(0.760048 0.00351612 0)
(0.757773 0.00352126 2.48514e-19)
(0.755535 0.00352614 -2.49259e-19)
(0.753333 0.00352993 0)
(0.751168 0.00353142 2.00677e-18)
(0.749042 0.00352883 0)
(0.746954 0.00351976 2.0206e-18)
(0.744908 0.00350151 0)
(0.742908 0.00347078 1.78085e-18)
(0.740959 0.00342432 -1.27693e-18)
(0.739069 0.00335866 -4.61618e-18)
(0.737248 0.00327092 4.12093e-18)
(0.735507 0.00315829 0)
(0.73386 0.00301866 4.15597e-18)
(0.732322 0.00285065 0)
(0.730909 0.00265333 -8.38365e-18)
(0.729639 0.00242652 -4.20865e-18)
(0.728532 0.00217009 8.45043e-18)
(0.727607 0.00188451 8.48303e-18)
(0.726883 0.0015695 -1.7022e-17)
(0.726383 0.00122502 0)
(0.726127 0.000849973 -8.55895e-18)
(0.726139 0.000442696 1.82216e-17)
(0.726442 6.54457e-07 -9.95904e-22)
(0.727063 -0.000479419 -1.65424e-21)
(0.728033 -0.00100136 -9.66861e-18)
(0.729383 -0.00157003 7.51184e-18)
(0.731148 -0.00218939 1.8212e-17)
(0.733371 -0.00286426 -2.56301e-17)
(0.7361 -0.00359859 -1.70175e-17)
(0.739386 -0.0043963 0)
(0.74329 -0.00525973 0)
(0.747878 -0.0061916 -1.66465e-17)
(0.753227 -0.00719346 5.11486e-19)
(0.759418 -0.00826705 -3.3008e-17)
(0.766545 -0.0094133 0)
(0.774712 -0.0106336 -1.5687e-17)
(0.784034 -0.0119305 -1.48571e-17)
(0.794637 -0.0133063 1.4437e-17)
(0.806667 -0.0147653 1.44331e-17)
(0.820283 -0.0163116 -1.38892e-17)
(0.835668 -0.0179525 -1.32693e-17)
(0.853024 -0.0196935 1.21941e-17)
(0.872604 -0.0215431 1.19687e-17)
(0.894635 -0.0235028 1.26986e-20)
(0.919554 -0.0255784 1.00159e-17)
(0.947349 -0.0277415 0)
(0.979401 -0.0299845 -1.48959e-17)
(1.0133 -0.0321354 1.16031e-20)
(1.05698 -0.0342092 4.47767e-18)
(1.08949 -0.0354195 -2.51762e-18)
(1.16385 -0.0362754 1.38052e-18)
(0.999614 0.00201182 6.79735e-18)
(0.995287 0.00670404 -2.83462e-20)
(0.98562 0.0107804 2.91465e-20)
(0.972626 0.0132754 8.23883e-18)
(0.958701 0.0144275 1.7771e-17)
(0.944996 0.0147024 -9.48656e-18)
(0.93197 0.0144034 1.02061e-17)
(0.919901 0.0137606 -1.07136e-17)
(0.908909 0.0129498 -1.10027e-17)
(0.89898 0.0120797 1.13954e-17)
(0.890032 0.0112127 -1.17479e-17)
(0.881971 0.0103857 -1.20651e-17)
(0.874693 0.00961827 3.88688e-19)
(0.868098 0.00891886 -3.89888e-19)
(0.862089 0.0082893 4.02409e-19)
(0.856582 0.00772771 1.25814e-17)
(0.851497 0.00723016 1.35738e-17)
(0.846766 0.00679173 4.08898e-21)
(0.84233 0.00640712 -4.21513e-19)
(0.838137 0.00607104 -1.35798e-17)
(0.834142 0.00577844 0)
(0.83031 0.00552459 0)
(0.826608 0.00530515 0)
(0.823011 0.00511622 0)
(0.819498 0.00495425 -1.32159e-17)
(0.816052 0.00481607 -7.97878e-18)
(0.812662 0.00469886 -1.42731e-17)
(0.809316 0.00460009 7.17774e-18)
(0.806008 0.00451758 7.21927e-18)
(0.802733 0.0044494 0)
(0.799488 0.00439382 -7.29985e-18)
(0.796271 0.00434934 7.34056e-18)
(0.793081 0.00431462 7.84303e-18)
(0.789919 0.00428848 1.43807e-17)
(0.786785 0.00426979 1.71058e-22)
(0.783682 0.00425749 4.6989e-19)
(0.780611 0.00425054 -8.49139e-18)
(0.777574 0.00424798 -3.322e-18)
(0.774574 0.00424878 -7.15769e-18)
(0.771613 0.004252 -4.31976e-18)
(0.768694 0.00425673 7.14645e-25)
(0.765819 0.00426216 -3.8873e-18)
(0.762992 0.00426765 2.44849e-19)
(0.760216 0.0042727 -2.45636e-19)
(0.757492 0.00427705 0)
(0.754825 0.00428062 1.73734e-18)
(0.752215 0.00428363 2.48477e-19)
(0.749664 0.00428623 1.24916e-19)
(0.747174 0.00428866 -1.24889e-19)
(0.744745 0.00429094 -2.50825e-19)
(0.742377 0.00429278 2.51537e-19)
(0.740071 0.00429333 -1.2631e-19)
(0.737825 0.00429129 1.26358e-19)
(0.735641 0.00428464 2.54175e-19)
(0.733518 0.00427068 -2.29165e-18)
(0.731459 0.00424624 0)
(0.729467 0.0042075 -2.56755e-19)
(0.727546 0.00415061 2.57031e-19)
(0.725703 0.00407145 4.13317e-18)
(0.723947 0.00396649 1.40753e-22)
(0.722287 0.00383233 -3.64433e-18)
(0.720737 0.00366633 -5.22152e-19)
(0.71931 0.0034667 -5.25408e-19)
(0.718023 0.00323221 8.9565e-18)
(0.716893 0.0029625 5.29381e-19)
(0.715937 0.00265732 -9.02462e-18)
(0.715173 0.00231715 -9.05448e-18)
(0.714623 0.00194176 1.76308e-17)
(0.714305 0.00153112 8.57223e-18)
(0.714242 0.00108411 8.58896e-18)
(0.714454 0.000598918 2.40424e-21)
(0.714967 7.28692e-05 -8.61479e-18)
(0.715805 -0.000497641 -1.83123e-17)
(0.716999 -0.00111689 9.68964e-18)
(0.718579 -0.00179035 1.72085e-17)
(0.720581 -0.00252261 -1.60941e-17)
(0.723047 -0.0033192 1.60374e-17)
(0.726022 -0.00418487 3.40731e-17)
(0.72956 -0.00512428 1.69416e-17)
(0.733717 -0.00614068 1.04623e-18)
(0.73856 -0.00723738 -1.04584e-18)
(0.744164 -0.00841682 5.11735e-19)
(0.750609 -0.00968121 1.57381e-17)
(0.757987 -0.0110321 -1.59967e-17)
(0.766403 -0.0124715 3.13688e-17)
(0.775968 -0.0140026 1.53212e-17)
(0.786812 -0.015628 -4.59832e-19)
(0.799076 -0.017353 1.49011e-17)
(0.812922 -0.0191824 -4.26112e-19)
(0.828534 -0.0211245 8.28352e-19)
(0.846115 -0.0231856 -2.59268e-17)
(0.86592 -0.0253759 3.78222e-19)
(0.888177 -0.027697 -1.63098e-19)
(0.913326 -0.0301567 -9.56462e-18)
(0.94136 -0.0327195 1.73133e-17)
(0.973675 -0.0353855 2.23638e-17)
(1.00785 -0.0379327 -5.94391e-18)
(1.0519 -0.040431 -4.0289e-20)
(1.08469 -0.0418373 2.51109e-18)
(1.15983 -0.0429604 -4.13795e-18)
(0.999609 0.00232721 0)
(0.995213 0.00779949 -2.78738e-20)
(0.985293 0.0125333 1.50254e-17)
(0.971986 0.0154008 -1.631e-17)
(0.957805 0.0167087 -1.74472e-17)
(0.943904 0.0170045 -1.43218e-19)
(0.930727 0.0166405 9.96215e-18)
(0.918541 0.0158845 1.04561e-17)
(0.907457 0.0149395 -1.09196e-17)
(0.897446 0.0139298 -3.57714e-19)
(0.888421 0.0129266 3.59817e-19)
(0.880275 0.0119719 -1.19785e-17)
(0.872899 0.011088 3.85714e-19)
(0.866183 0.0102846 1.21022e-17)
(0.860026 0.0095635 -3.9952e-19)
(0.854333 0.00892248 4.00476e-19)
(0.849023 0.00835689 4.45917e-21)
(0.844022 0.00786088 -1.365e-17)
(0.839268 0.00742814 1.37927e-17)
(0.83471 0.00705234 0)
(0.830302 0.00672739 0)
(0.826012 0.00644754 0)
(0.821809 0.00620756 0)
(0.817673 0.00600266 0)
(0.813589 0.00582851 1.49589e-17)
(0.809545 0.00568125 2.74714e-17)
(0.805534 0.00555743 1.42746e-17)
(0.801553 0.00545401 0)
(0.797599 0.00536835 -2.17003e-17)
(0.793675 0.00529813 0)
(0.789781 0.00524135 1.46561e-17)
(0.785923 0.00519623 -7.375e-18)
(0.782102 0.00516127 7.42284e-18)
(0.778326 0.0051351 -7.47044e-18)
(0.774597 0.00511648 -7.51879e-18)
(0.770921 0.00510424 -7.56785e-18)
(0.767302 0.00509727 -1.09872e-22)
(0.763745 0.0050945 0)
(0.760254 0.00509484 7.71847e-18)
(0.756834 0.00509726 3.88514e-18)
(0.753488 0.00510075 1.22241e-17)
(0.75022 0.00510445 -9.84555e-19)
(0.747034 0.00510764 4.94908e-19)
(0.743933 0.00510979 0)
(0.740919 0.00511061 0)
(0.737996 0.00511012 0)
(0.735165 0.00510859 0)
(0.732428 0.00510628 1.01138e-18)
(0.729784 0.00510357 0)
(0.727235 0.00510054 0)
(0.72478 0.00509699 0)
(0.722417 0.00509207 0)
(0.720146 0.00508442 -1.02496e-18)
(0.717966 0.00507184 -2.5732e-19)
(0.715876 0.00505134 5.15487e-19)
(0.713876 0.00501928 -2.58201e-19)
(0.711967 0.00497136 0)
(0.710154 0.0049031 5.21093e-19)
(0.708441 0.00480976 -1.0444e-18)
(0.706834 0.00468714 -1.25781e-17)
(0.705343 0.00453117 4.20584e-18)
(0.703979 0.00433874 5.27174e-19)
(0.702755 0.00410755 -7.94537e-18)
(0.701685 0.00383613 -5.31011e-19)
(0.700785 0.00352383 8.53509e-18)
(0.700073 0.00317036 8.56137e-18)
(0.699565 0.00277608 0)
(0.69928 0.00234091 -9.68633e-18)
(0.699238 0.00186474 1.08058e-18)
(0.699459 0.00134643 0)
(0.699964 0.000784051 -8.65501e-18)
(0.700775 0.000174723 2.70695e-17)
(0.701919 -0.000485479 1.73187e-17)
(0.703424 -0.00120131 -1.94763e-17)
(0.705319 -0.00197875 -1.61966e-17)
(0.707641 -0.00282313 0)
(0.71043 -0.00374062 -1.71791e-17)
(0.713731 -0.00473676 -1.70891e-17)
(0.717596 -0.00581685 -1.69843e-17)
(0.72208 -0.00698511 0)
(0.727252 -0.00824539 0)
(0.733182 -0.00960096 5.1286e-19)
(0.739951 -0.0110546 -6.66742e-21)
(0.74765 -0.0126084 1.60064e-17)
(0.756382 -0.0142652 -9.69011e-19)
(0.766258 -0.0160286 4.84316e-19)
(0.777405 -0.0179021 0)
(0.789968 -0.0198915 -1.44489e-17)
(0.804106 -0.0220026 -4.26635e-19)
(0.820004 -0.0242448 -2.61716e-17)
(0.837866 -0.0266255 3.77644e-17)
(0.857947 -0.029156 0)
(0.880479 -0.0318387 -2.19583e-17)
(0.905907 -0.0346833 -9.59562e-18)
(0.934223 -0.0376483 -1.75925e-17)
(0.966845 -0.0407407 -2.98541e-17)
(1.00133 -0.0436923 0)
(1.04582 -0.0466221 0)
(1.07893 -0.0482461 5.04262e-18)
(1.15495 -0.0496351 2.7532e-18)
(0.999605 0.00264538 0)
(0.995128 0.00892384 0)
(0.984909 0.0143283 -1.48144e-17)
(0.971239 0.0175627 1.61599e-17)
(0.956762 0.0190161 -1.74686e-17)
(0.942638 0.0193231 1.48765e-19)
(0.929289 0.0188853 -1.97261e-17)
(0.916969 0.01801 2.07609e-17)
(0.905775 0.0169272 2.14693e-17)
(0.895662 0.0157761 -2.28005e-17)
(0.886527 0.0146367 3.57089e-19)
(0.878251 0.013556 4.75169e-17)
(0.87071 0.012559 3.82929e-19)
(0.863784 0.0116559 -1.27808e-17)
(0.857359 0.0108489 2.56431e-17)
(0.851335 0.010135 -3.98033e-19)
(0.845623 0.00950857 -1.29973e-17)
(0.840148 0.0089626 1.31639e-17)
(0.834849 0.00848949 0)
(0.829675 0.0080816 0)
(0.824587 0.00773153 0)
(0.819559 0.00743236 0)
(0.814569 0.00717774 0)
(0.809607 0.00696191 0)
(0.804664 0.00677969 0)
(0.799741 0.00662647 1.77237e-21)
(0.794838 0.00649819 -1.43248e-17)
(0.789963 0.00639133 1.35332e-17)
(0.78512 0.00630284 3.00053e-17)
(0.78032 0.0062301 -1.46614e-17)
(0.77557 0.00617089 -2.95451e-17)
(0.770881 0.00612329 -1.48849e-17)
(0.766262 0.00608567 -7.96774e-18)
(0.761721 0.00605661 4.71286e-19)
(0.757267 0.00603483 0)
(0.752907 0.00601916 8.14874e-18)
(0.748649 0.00600847 7.2442e-18)
(0.744498 0.00600168 -7.78448e-18)
(0.74046 0.00599768 7.84314e-18)
(0.736541 0.00599543 0)
(0.732743 0.00599386 -1.59245e-17)
(0.729071 0.00599208 -8.52493e-18)
(0.725528 0.00598931 5.0445e-19)
(0.722116 0.00598502 -4.32776e-18)
(0.718839 0.00597895 2.55289e-19)
(0.715697 0.00597118 4.10036e-18)
(0.71269 0.00596207 -2.05502e-18)
(0.709821 0.00595196 -1.93101e-18)
(0.707087 0.00594135 -1.16133e-18)
(0.704488 0.00593043 -2.58746e-19)
(0.702022 0.00591911 2.59384e-19)
(0.699687 0.00590658 9.09928e-19)
(0.697479 0.00589146 2.21565e-18)
(0.695396 0.00587137 2.09083e-18)
(0.693436 0.00584304 -4.19263e-18)
(0.691596 0.00580244 2.63086e-19)
(0.689876 0.00574474 3.95248e-18)
(0.688277 0.00566489 5.29133e-19)
(0.686802 0.00555742 7.95111e-18)
(0.685456 0.0054175 1.70123e-17)
(0.684245 0.00524037 -5.33924e-19)
(0.683179 0.00502238 -1.25696e-21)
(0.682269 0.0047607 9.12164e-18)
(0.681528 0.00445355 -5.3881e-19)
(0.680971 0.00409998 -8.09764e-18)
(0.680613 0.00369962 0)
(0.680471 0.00325275 8.6839e-18)
(0.680561 0.00275933 -1.63173e-17)
(0.680903 0.00221921 7.63145e-18)
(0.681516 0.00163125 1.74587e-17)
(0.682418 0.000993345 1.74718e-17)
(0.683634 0.00030245 -1.74679e-17)
(0.685186 -0.00044571 -1.09036e-18)
(0.687103 -0.00125635 1.08362e-18)
(0.689412 -0.00213605 -1.74057e-17)
(0.69215 -0.00309078 -1.62711e-17)
(0.695355 -0.00412735 1.61921e-17)
(0.699072 -0.00525213 0)
(0.703352 -0.00647109 1.70809e-17)
(0.70825 -0.0077893 0)
(0.713831 -0.00921122 0)
(0.720169 -0.0107409 5.14946e-19)
(0.72734 -0.0123817 1.58386e-17)
(0.735435 -0.0141363 -4.98213e-19)
(0.744557 -0.0160083 -4.67891e-17)
(0.754816 -0.018002 0)
(0.766339 -0.0201214 4.6176e-19)
(0.779268 -0.0223732 2.80982e-17)
(0.793765 -0.0247644 1.49935e-20)
(0.810013 -0.0273051 2.70496e-17)
(0.828217 -0.030004 -2.52109e-17)
(0.848635 -0.0328741 0)
(0.871498 -0.0359182 2.1808e-17)
(0.897257 -0.0391485 1.99262e-17)
(0.925904 -0.0425177 1.73841e-17)
(0.958885 -0.0460405 1.49446e-17)
(0.993727 -0.0494051 4.15338e-20)
(1.03872 -0.0527754 -4.04441e-20)
(1.07219 -0.05464 -1.00851e-17)