/*--------------------------------*- C++ -*----------------------------------*\
| =========                 |                                                 |
| \\      /  F ield         | OpenFOAM: The Open Source CFD Toolbox           |
|  \\    /   O peration     | Version:  v1912                                 |
|   \\  /    A nd           | Website:  www.openfoam.com                      |
|    \\/     M anipulation  |                                                 |
\*---------------------------------------------------------------------------*/
FoamFile
{
    version     2.0;
    format      ascii;
    class       volScalarField;
    location    "650";
    object      p;
}
// * * * * * * * * * * * * * * * * * * * * * * * * * * * * * * * * * * * * * //

dimensions      [0 2 -2 0 0 0 0];


internalField   nonuniform List<scalar> 
2000
(
-0.0459737
0.0714376
0.126018
0.119129
0.103301
0.0969961
0.0963909
0.0977396
0.0979569
0.0977357
0.0978758
0.0975528
0.0972953
0.0972396
0.0972973
0.0973193
0.0972764
0.0972549
0.0972494
0.0972531
0.0972568
0.0972504
0.097229
0.0971942
0.0971526
0.0971105
0.0970732
0.0970421
0.0970152
0.0969898
0.096964
0.0969374
0.09691
0.0968816
0.0968524
0.0968226
0.0967927
0.0967623
0.0967317
0.0967014
0.0966717
0.0966437
0.0966186
0.0965977
0.0965825
0.0965738
0.0965725
0.0965797
0.0965969
0.0966229
0.0966465
0.0966235
0.0964336
0.0958322
0.0944549
0.0919097
0.0879078
0.0824024
0.0758678
0.0697382
0.0661235
0.0661259
0.0707318
0.0795396
0.0915854
0.105862
0.121519
0.137757
0.153659
0.168134
0.180138
0.188796
0.193275
0.192761
0.186467
0.173732
0.153432
0.12537
0.0838441
0.0415318
0.00727347
0.0924499
0.131268
0.118072
0.100331
0.0961333
0.0996748
0.102115
0.0993606
0.0961167
0.0956792
0.0969794
0.0974275
0.0972954
0.0975201
0.0974222
0.0972984
0.0971959
0.097161
0.0971497
0.0971676
0.097208
0.0972151
0.0971915
0.0971561
0.0971183
0.0970825
0.0970507
0.0970234
0.0969977
0.0969697
0.0969409
0.0969123
0.0968842
0.0968559
0.0968272
0.0967982
0.09677
0.0967416
0.0967124
0.096683
0.0966543
0.0966278
0.0966046
0.0965858
0.0965729
0.0965674
0.0965734
0.0966041
0.0966821
0.096809
0.0968949
0.0966562
0.0955306
0.0927423
0.087628
0.0800375
0.0705825
0.060911
0.0541266
0.0537863
0.0590637
0.0675019
0.078377
0.0912218
0.105675
0.12117
0.136933
0.152048
0.165502
0.176283
0.183413
0.185992
0.18329
0.174646
0.159525
0.137025
0.107314
0.066404
0.029433
0.0583413
0.0921393
0.114831
0.113273
0.104075
0.0999004
0.0999386
0.0993013
0.0973953
0.0967105
0.0983006
0.0998994
0.0989194
0.0964602
0.0955661
0.0964398
0.0973242
0.0975
0.0973405
0.0972356
0.0971773
0.0971409
0.0971222
0.0971344
0.097142
0.0971307
0.0970997
0.0970542
0.0970174
0.096982
0.0969549
0.0969308
0.0969082
0.096888
0.0968696
0.0968503
0.0968277
0.0968017
0.0967731
0.0967431
0.096713
0.0966839
0.0966558
0.0966278
0.0966044
0.0966049
0.0966642
0.0968155
0.0970873
0.0974885
0.097957
0.0982667
0.0979974
0.0965252
0.0931748
0.0875327
0.0798356
0.071303
0.0639928
0.0594856
0.0584588
0.0619058
0.0691835
0.0791633
0.0910724
0.104445
0.118707
0.133035
0.146468
0.158011
0.166713
0.171719
0.172316
0.167949
0.158145
0.142567
0.120629
0.0928657
0.0565638
0.0249988
0.0833286
0.0933423
0.105892
0.109972
0.107279
0.10426
0.102599
0.100867
0.0992447
0.0984275
0.0982406
0.0981432
0.0977987
0.0971042
0.0965801
0.0975241
0.0987777
0.0980394
0.096881
0.0964791
0.0964286
0.0966019
0.0968905
0.0971147
0.0972444
0.0973221
0.0973646
0.097339
0.0972517
0.0971504
0.0970534
0.0969721
0.0969146
0.0968873
0.0968766
0.0968681
0.0968515
0.0968305
0.0968071
0.0967815
0.096755
0.0967287
0.0967005
0.0966674
0.0966363
0.0966432
0.0967539
0.096999
0.0974174
0.098004
0.0987132
0.099184
0.0990253
0.0976943
0.0946837
0.0897711
0.0832453
0.0759274
0.0690033
0.0643466
0.0630682
0.0658578
0.0723095
0.0814008
0.0922948
0.104383
0.116998
0.129316
0.140453
0.14956
0.155873
0.158741
0.15763
0.152123
0.141867
0.126639
0.106051
0.0807141
0.0487414
0.0208109
0.0956692
0.0992697
0.106789
0.11076
0.109631
0.107302
0.105921
0.104882
0.10358
0.102129
0.100778
0.0996902
0.0989636
0.0981263
0.0971639
0.0971931
0.0977471
0.0979613
0.0978126
0.0973611
0.0970212
0.0969075
0.0969656
0.0971456
0.0973375
0.0974506
0.0974069
0.0972222
0.0970888
0.0969849
0.0969046
0.0968479
0.0968158
0.0968255
0.0968621
0.0968974
0.0969159
0.0969093
0.0968837
0.0968467
0.0968033
0.0967546
0.0966978
0.0966237
0.096529
0.0964334
0.0964165
0.096624
0.097044
0.0976429
0.0983145
0.0987806
0.0986288
0.0973692
0.0945897
0.0901603
0.0844017
0.0781434
0.0726423
0.0693196
0.0690149
0.0719503
0.0777704
0.0857548
0.0951749
0.105394
0.115772
0.125613
0.134208
0.140895
0.145087
0.14628
0.144047
0.138038
0.127946
0.113584
0.0946359
0.0716884
0.0432497
0.0181932
0.10411
0.105944
0.109898
0.112068
0.111253
0.109645
0.108687
0.108011
0.107052
0.105861
0.104732
0.103742
0.10273
0.101408
0.100034
0.0993259
0.0991957
0.0990658
0.0985004
0.0976163
0.0970002
0.0967966
0.0968854
0.0970927
0.0972629
0.097356
0.097394
0.0973837
0.0972987
0.0971836
0.0970699
0.0969744
0.0969061
0.0968804
0.0968498
0.0968221
0.0968115
0.0968033
0.0967786
0.0967475
0.0967176
0.0966895
0.0966617
0.0966343
0.0966166
0.0966421
0.0967781
0.0970968
0.0975851
0.0981795
0.0987498
0.0990503
0.0987428
0.097487
0.0950596
0.0914844
0.0871237
0.0826749
0.0790348
0.0770742
0.0773499
0.0800077
0.0848296
0.0913263
0.098912
0.107022
0.115113
0.122629
0.129019
0.133757
0.136366
0.136422
0.133541
0.127391
0.117668
0.104177
0.0866134
0.0655103
0.0395186
0.0165553
0.110921
0.111744
0.112982
0.113319
0.112533
0.111548
0.110889
0.11035
0.109682
0.108927
0.108202
0.107482
0.106623
0.105515
0.104348
0.103494
0.10298
0.102382
0.101413
0.100314
0.0994988
0.0990592
0.0988691
0.0987782
0.0986917
0.0985882
0.0984663
0.0982992
0.0980772
0.0978573
0.0976732
0.0975283
0.0974158
0.097364
0.0975313
0.0976222
0.0976427
0.0976671
0.0977049
0.0977518
0.097809
0.0978792
0.0979648
0.0980701
0.0982066
0.0983992
0.0986848
0.0990941
0.0996117
0.100167
0.100634
0.100821
0.100496
0.0994495
0.0975737
0.0949406
0.0918438
0.0887803
0.0863594
0.0851655
0.0856011
0.0877878
0.0915766
0.0966189
0.102474
0.108696
0.114848
0.120489
0.125172
0.12846
0.129939
0.129221
0.125943
0.119773
0.1104
0.0976102
0.0810898
0.0613158
0.0369784
0.0155166
0.116798
0.116743
0.115828
0.11462
0.113796
0.113279
0.112803
0.112332
0.111889
0.111452
0.111001
0.110503
0.109905
0.109163
0.108358
0.107666
0.107124
0.106496
0.105629
0.104676
0.103876
0.103308
0.102909
0.102596
0.102318
0.102054
0.101791
0.101516
0.101235
0.100984
0.100783
0.100636
0.100551
0.100556
0.100663
0.100736
0.100776
0.10083
0.100913
0.101016
0.101137
0.101277
0.101439
0.101626
0.101845
0.10211
0.102438
0.102835
0.103281
0.103708
0.104015
0.104063
0.1037
0.102802
0.10132
0.0993319
0.0970618
0.0948636
0.0931618
0.0923601
0.0927417
0.0944025
0.0972504
0.101051
0.105487
0.110213
0.114875
0.119104
0.122521
0.124744
0.125399
0.124124
0.120571
0.114411
0.105323
0.0930768
0.0773332
0.0585111
0.0353111
0.0148405
0.122202
0.121213
0.118249
0.115705
0.11495
0.114861
0.114527
0.114119
0.113854
0.113636
0.113367
0.113041
0.112653
0.112174
0.111637
0.111146
0.110733
0.11026
0.109626
0.108907
0.108256
0.10775
0.107366
0.107051
0.106767
0.106494
0.106223
0.105952
0.105687
0.105448
0.105252
0.105106
0.105021
0.105002
0.105012
0.105066
0.105129
0.1052
0.10529
0.105399
0.105524
0.105665
0.105823
0.105999
0.106198
0.106425
0.106687
0.106978
0.107277
0.107529
0.107657
0.107564
0.10715
0.106337
0.105108
0.103529
0.101768
0.100082
0.098773
0.0981318
0.0983693
0.0995709
0.101687
0.104555
0.107936
0.111552
0.115103
0.118273
0.120732
0.122143
0.122167
0.120467
0.11671
0.110574
0.101729
0.0899204
0.0747767
0.0566529
0.0342473
0.0143848
0.127432
0.125245
0.12005
0.116407
0.115943
0.11627
0.116041
0.115718
0.115633
0.115601
0.115479
0.115287
0.115046
0.114735
0.114373
0.114034
0.113743
0.11341
0.112958
0.112433
0.111947
0.111565
0.111276
0.111038
0.110819
0.110604
0.110389
0.110173
0.109962
0.109769
0.109608
0.10949
0.109421
0.109398
0.109362
0.1094
0.109458
0.109516
0.109582
0.109662
0.109753
0.109855
0.109967
0.110091
0.110228
0.11038
0.110547
0.110722
0.110882
0.110987
0.110977
0.110782
0.110331
0.109576
0.108511
0.107191
0.105747
0.10437
0.103287
0.102718
0.102827
0.103687
0.105268
0.107447
0.110037
0.112805
0.115496
0.117837
0.11954
0.120306
0.119828
0.117797
0.113895
0.107803
0.099182
0.0877497
0.073091
0.0554952
0.0336303
0.0141161
0.132671
0.128821
0.121128
0.116738
0.116829
0.117521
0.117349
0.117136
0.117239
0.117375
0.117386
0.117315
0.117194
0.117009
0.116774
0.116544
0.116339
0.116097
0.115764
0.115375
0.115013
0.114729
0.114517
0.114345
0.114186
0.114029
0.11387
0.11371
0.113552
0.113407
0.113286
0.113195
0.113136
0.113099
0.113073
0.113094
0.113134
0.113174
0.113217
0.11327
0.113331
0.113397
0.113469
0.113546
0.11363
0.113719
0.113811
0.113898
0.113959
0.113962
0.113861
0.113603
0.113137
0.112431
0.111485
0.110347
0.10912
0.107953
0.107022
0.106496
0.106503
0.107105
0.108278
0.109927
0.111896
0.113992
0.115994
0.117667
0.118757
0.119001
0.118123
0.115837
0.11184
0.105815
0.0974112
0.0863175
0.0720653
0.0548801
0.0333483
0.0140341
0.138037
0.131868
0.121454
0.116795
0.117662
0.118625
0.118475
0.118398
0.118685
0.118967
0.119096
0.119137
0.119127
0.119053
0.118926
0.118786
0.118652
0.118481
0.118236
0.117943
0.117667
0.11745
0.11729
0.117162
0.117044
0.116929
0.116811
0.116691
0.116573
0.116463
0.11637
0.116299
0.116252
0.11622
0.116205
0.116217
0.116246
0.116276
0.116307
0.116343
0.116383
0.116425
0.116467
0.11651
0.116554
0.116595
0.116632
0.116655
0.116646
0.116579
0.116418
0.116121
0.115652
0.114989
0.114135
0.113132
0.112063
0.111047
0.110221
0.109719
0.109642
0.110037
0.110886
0.11211
0.113578
0.115124
0.116561
0.117683
0.11827
0.11809
0.116894
0.114418
0.11037
0.104434
0.0962438
0.0854612
0.0715577
0.0547016
0.033327
0.0141533
0.14361
0.134282
0.121062
0.116699
0.118462
0.119579
0.119445
0.119533
0.119989
0.12039
0.120623
0.120767
0.120857
0.120882
0.12085
0.120794
0.120728
0.120623
0.120451
0.120236
0.120029
0.119866
0.119746
0.119652
0.119567
0.119483
0.119395
0.119305
0.119216
0.119133
0.119061
0.119005
0.118966
0.118949
0.118939
0.118947
0.118968
0.11899
0.119013
0.119036
0.119059
0.119082
0.119101
0.119117
0.119129
0.119133
0.119126
0.1191
0.119038
0.11892
0.118715
0.118393
0.117925
0.117298
0.116516
0.115616
0.114665
0.113759
0.113008
0.112517
0.112364
0.112587
0.113168
0.11404
0.115092
0.116183
0.117151
0.117819
0.117996
0.117478
0.116039
0.11343
0.109369
0.103537
0.0955541
0.0850559
0.0714537
0.0548711
0.0335097
0.0144777
0.149429
0.135944
0.120049
0.116567
0.119228
0.120387
0.120292
0.120561
0.121164
0.121664
0.121989
0.122226
0.122404
0.122515
0.122566
0.122584
0.122583
0.122539
0.122434
0.122287
0.12214
0.122025
0.121943
0.12188
0.121824
0.121766
0.121705
0.12164
0.121575
0.121514
0.121459
0.121417
0.121389
0.121377
0.121372
0.121377
0.121392
0.121409
0.121423
0.121435
0.121446
0.121452
0.121452
0.121445
0.12143
0.121403
0.121361
0.121294
0.12119
0.12103
0.120791
0.120449
0.119983
0.119382
0.118655
0.117831
0.116968
0.116141
0.115439
0.114944
0.114719
0.11479
0.115142
0.115716
0.11642
0.117133
0.117717
0.11802
0.117875
0.117098
0.115482
0.112791
0.108745
0.103025
0.0952345
0.0849907
0.071648
0.0553034
0.0338472
0.0149888
0.155503
0.136747
0.118562
0.116488
0.119942
0.121061
0.121043
0.121496
0.122221
0.122805
0.123213
0.123532
0.123787
0.123973
0.124096
0.124182
0.124239
0.124251
0.124204
0.124116
0.124022
0.12395
0.123903
0.12387
0.123841
0.123808
0.12377
0.123728
0.123685
0.123642
0.123603
0.123573
0.123554
0.123546
0.123544
0.123548
0.12356
0.123571
0.123578
0.123582
0.12358
0.123572
0.123556
0.123529
0.12349
0.123435
0.123361
0.123258
0.123117
0.122921
0.122652
0.12229
0.12182
0.121236
0.120546
0.119775
0.11897
0.118193
0.117514
0.117
0.116699
0.116632
0.116786
0.11711
0.117528
0.117938
0.11822
0.118242
0.117856
0.116893
0.115159
0.112425
0.108414
0.102802
0.0951838
0.0851616
0.0720398
0.055913
0.0342952
0.0156425
0.16181
0.136614
0.116777
0.116513
0.12058
0.121621
0.121721
0.122349
0.123173
0.123828
0.124312
0.124703
0.125027
0.125278
0.125465
0.125609
0.125718
0.12578
0.125785
0.125749
0.125702
0.125668
0.125652
0.125646
0.125641
0.125631
0.125614
0.125592
0.125569
0.125543
0.125517
0.125498
0.125487
0.125483
0.125483
0.125487
0.125495
0.125501
0.125501
0.125496
0.125483
0.12546
0.125426
0.125379
0.125316
0.125233
0.125127
0.12499
0.124811
0.124579
0.124277
0.123891
0.123409
0.122828
0.122154
0.121411
0.120637
0.119882
0.119204
0.118656
0.118279
0.11809
0.118077
0.118201
0.118395
0.118572
0.11863
0.11845
0.117895
0.116809
0.115005
0.112257
0.10829
0.102779
0.0953095
0.0854764
0.0725403
0.0566204
0.0348158
0.0163844
0.1683
0.135535
0.114874
0.11665
0.121122
0.12209
0.122343
0.123124
0.124028
0.124747
0.125298
0.125754
0.126137
0.126446
0.126689
0.126885
0.127042
0.127148
0.127198
0.127206
0.1272
0.1272
0.127211
0.127229
0.127245
0.127254
0.127255
0.127251
0.127244
0.127231
0.127216
0.127206
0.127199
0.127197
0.127197
0.127198
0.127199
0.127197
0.127187
0.127168
0.127139
0.127098
0.127042
0.12697
0.126878
0.126764
0.126622
0.126446
0.126227
0.125955
0.125617
0.125201
0.124699
0.124108
0.123435
0.1227
0.121935
0.121182
0.120489
0.119902
0.119456
0.119165
0.119022
0.118995
0.119025
0.119039
0.118942
0.118626
0.117963
0.116803
0.114962
0.11222
0.108302
0.10288
0.0955354
0.0858617
0.0730811
0.0573596
0.0353754
0.017164
0.174888
0.133532
0.113012
0.116883
0.121562
0.122493
0.122917
0.123826
0.124793
0.125569
0.12618
0.126692
0.127126
0.127484
0.127774
0.128015
0.128212
0.128356
0.128444
0.12849
0.128517
0.128544
0.128577
0.128613
0.128646
0.12867
0.128684
0.12869
0.128696
0.128689
0.128679
0.128671
0.128663
0.128657
0.12865
0.128641
0.128629
0.128611
0.128584
0.128546
0.128495
0.128429
0.128346
0.128243
0.128119
0.127969
0.12779
0.127575
0.127317
0.127006
0.126633
0.126187
0.125661
0.125055
0.124374
0.123636
0.122868
0.122107
0.121395
0.120772
0.120269
0.119903
0.119667
0.119534
0.119455
0.11936
0.119165
0.118765
0.118038
0.116838
0.114986
0.112261
0.10839
0.103046
0.095806
0.0862662
0.0736155
0.0580821
0.0359452
0.0179412
0.181482
0.130703
0.111304
0.117167
0.121901
0.122844
0.123439
0.124447
0.125462
0.126283
0.126942
0.127498
0.127971
0.128367
0.128695
0.12897
0.129198
0.12937
0.129487
0.12956
0.12961
0.129657
0.129704
0.129751
0.129793
0.129824
0.129844
0.129857
0.12986
0.129851
0.129839
0.129826
0.12981
0.129793
0.129772
0.129748
0.129718
0.129681
0.129632
0.129571
0.129496
0.129404
0.129293
0.129162
0.129007
0.128826
0.128614
0.128366
0.128075
0.127733
0.127331
0.126861
0.126316
0.125695
0.125005
0.124261
0.123487
0.122716
0.121987
0.121337
0.120794
0.120376
0.120079
0.119879
0.11973
0.11957
0.119316
0.118868
0.118109
0.116893
0.115044
0.112342
0.108516
0.103238
0.096085
0.0866574
0.0741156
0.0587571
0.0365037
0.018689
0.187991
0.127177
0.109819
0.117456
0.122146
0.12314
0.123883
0.124959
0.126003
0.126854
0.127544
0.128128
0.128627
0.129047
0.129399
0.129695
0.129942
0.130132
0.130266
0.130355
0.13042
0.130476
0.13053
0.130581
0.130624
0.130657
0.130678
0.130687
0.130681
0.130668
0.130651
0.130628
0.130601
0.130571
0.130536
0.130496
0.13045
0.130394
0.130328
0.130247
0.130151
0.130038
0.129906
0.129753
0.129575
0.129371
0.129136
0.128866
0.128553
0.12819
0.127769
0.127283
0.126725
0.126095
0.125398
0.124648
0.123869
0.123091
0.122349
0.12168
0.121112
0.120662
0.120326
0.120085
0.119897
0.119699
0.119413
0.118943
0.11817
0.116953
0.115114
0.112438
0.108652
0.103431
0.0963511
0.0870178
0.0745678
0.0593684
0.0370367
0.0193923
0.194336
0.123114
0.108597
0.117709
0.122308
0.123363
0.124211
0.12532
0.126376
0.127243
0.12795
0.128548
0.129061
0.129494
0.129857
0.130165
0.130422
0.130621
0.130764
0.130861
0.130932
0.130992
0.131048
0.131099
0.131141
0.131172
0.131191
0.131193
0.131183
0.131166
0.131141
0.131111
0.131075
0.131035
0.13099
0.130939
0.130881
0.130813
0.130734
0.13064
0.130532
0.130405
0.13026
0.130092
0.129901
0.129684
0.129435
0.129152
0.128826
0.128452
0.12802
0.127525
0.12696
0.126325
0.125625
0.124872
0.124089
0.123306
0.122557
0.121876
0.121292
0.120822
0.120465
0.120201
0.119991
0.119774
0.119474
0.118995
0.118221
0.117009
0.115186
0.112534
0.108784
0.103612
0.0965939
0.0873401
0.0749685
0.0599102
0.0375362
0.0200466
0.200519
0.11878
0.107665
0.117902
0.122391
0.123495
0.124404
0.125526
0.126586
0.12746
0.128174
0.128779
0.129297
0.129736
0.130106
0.130419
0.130681
0.130884
0.13103
0.131131
0.131205
0.131266
0.131322
0.131373
0.131414
0.131444
0.131459
0.13146
0.131447
0.131426
0.131397
0.131362
0.131321
0.131275
0.131224
0.131167
0.131102
0.131028
0.130942
0.130841
0.130726
0.130592
0.13044
0.130266
0.130068
0.129843
0.129588
0.129298
0.128967
0.128587
0.128151
0.127652
0.127085
0.126447
0.125746
0.124992
0.124208
0.123422
0.122668
0.12198
0.121387
0.120906
0.120537
0.120261
0.12004
0.119815
0.11951
0.119031
0.118261
0.117059
0.115252
0.112624
0.108906
0.103777
0.0968107
0.0876246
0.0753206
0.0603847
0.0379988
0.0206558
0.206683
0.114692
0.10703
0.118019
0.122409
0.123543
0.124483
0.125611
0.126673
0.127551
0.128269
0.128877
0.129398
0.12984
0.130212
0.130528
0.130792
0.130997
0.131145
0.131248
0.131323
0.131385
0.131441
0.131491
0.131532
0.13156
0.131574
0.131576
0.131561
0.131538
0.131507
0.13147
0.131427
0.131379
0.131325
0.131265
0.131197
0.13112
0.131031
0.130928
0.130809
0.130673
0.130518
0.130341
0.13014
0.129913
0.129656
0.129364
0.12903
0.128649
0.128212
0.127712
0.127144
0.126507
0.125805
0.125051
0.124266
0.123478
0.122722
0.12203
0.121432
0.120945
0.12057
0.120288
0.120063
0.119836
0.119531
0.119055
0.118293
0.117103
0.115312
0.112707
0.109018
0.103927
0.0970062
0.0878788
0.0756354
0.060805
0.0384306
0.0212392
0.21278
0.111486
0.106634
0.118068
0.122389
0.123537
0.124491
0.125626
0.126691
0.127571
0.128292
0.128901
0.129424
0.129868
0.130241
0.130559
0.130823
0.131029
0.131178
0.131282
0.131357
0.131419
0.131475
0.131525
0.131566
0.131594
0.131608
0.131609
0.131595
0.131572
0.131541
0.131503
0.13146
0.131411
0.131356
0.131296
0.131227
0.131149
0.131059
0.130955
0.130836
0.130699
0.130543
0.130365
0.130164
0.129937
0.129679
0.129387
0.129054
0.128672
0.128236
0.127736
0.127169
0.126533
0.125832
0.125078
0.124293
0.123505
0.122747
0.122052
0.121451
0.120961
0.120582
0.120299
0.120072
0.119846
0.119544
0.119074
0.11832
0.117142
0.115368
0.112785
0.109124
0.104067
0.0971894
0.0881159
0.0759293
0.0611937
0.0388435
0.0218299
0.217507
0.109544
0.106409
0.118095
0.122366
0.123513
0.124475
0.125616
0.126684
0.127566
0.128287
0.128898
0.129421
0.129866
0.13024
0.130558
0.130822
0.131028
0.131178
0.131282
0.131357
0.13142
0.131476
0.131527
0.131568
0.131596
0.131611
0.131612
0.131598
0.131574
0.131543
0.131505
0.131462
0.131413
0.131359
0.131298
0.13123
0.131152
0.131062
0.130958
0.130839
0.130702
0.130546
0.130369
0.130169
0.129942
0.129685
0.129393
0.12906
0.12868
0.128244
0.127746
0.12718
0.126544
0.125844
0.125091
0.124307
0.123518
0.122758
0.122063
0.121459
0.120967
0.120587
0.120302
0.120076
0.119851
0.119553
0.119088
0.118343
0.117177
0.115418
0.112854
0.109218
0.104192
0.0973516
0.0883254
0.0761876
0.0615366
0.0392027
0.0223924
)
;

boundaryField
{
    inlet
    {
        type            zeroGradient;
    }
    outlet
    {
        type            fixedValue;
        value           uniform 0;
    }
    fixedWalls
    {
        type            zeroGradient;
    }
    frontAndBack
    {
        type            empty;
    }
}


// ************************************************************************* //
