/*--------------------------------*- C++ -*----------------------------------*\
| =========                 |                                                 |
| \\      /  F ield         | OpenFOAM: The Open Source CFD Toolbox           |
|  \\    /   O peration     | Version:  v1912                                 |
|   \\  /    A nd           | Website:  www.openfoam.com                      |
|    \\/     M anipulation  |                                                 |
\*---------------------------------------------------------------------------*/
FoamFile
{
    version     2.0;
    format      ascii;
    class       surfaceScalarField;
    location    "650";
    object      phi;
}
// * * * * * * * * * * * * * * * * * * * * * * * * * * * * * * * * * * * * * //

dimensions      [0 3 -1 0 0 0 0];
oriented        oriented;


internalField   nonuniform List<scalar> 
3895
(
0.000814746
0.00038143
0.000499361
0.000315385
0.000251565
0.000247796
6.4863e-05
0.000186702
-6.21962e-05
0.000127059
-0.000127326
6.51303e-05
-0.000137638
1.03118e-05
-0.000113632
-2.40064e-05
-9.03518e-05
-2.328e-05
-8.49488e-05
-5.40301e-06
-6.61316e-05
-1.88172e-05
-4.47493e-05
-2.13822e-05
-4.04726e-05
-4.27679e-06
-4.86865e-05
8.21391e-06
-4.57452e-05
-2.94129e-06
-3.21017e-05
-1.36434e-05
-2.51959e-05
-6.90585e-06
-2.59826e-05
7.86733e-07
-2.90057e-05
3.02309e-06
-3.05507e-05
1.54502e-06
-2.92491e-05
-1.30158e-06
-2.49627e-05
-4.28642e-06
-1.8638e-05
-6.32475e-06
-1.20271e-05
-6.61091e-06
-6.24465e-06
-5.78241e-06
-1.93379e-06
-4.31085e-06
8.16424e-07
-2.75022e-06
2.43113e-06
-1.61471e-06
3.49098e-06
-1.05985e-06
4.40475e-06
-9.13769e-07
5.30262e-06
-8.97874e-07
6.1596e-06
-8.56976e-07
6.95611e-06
-7.96508e-07
7.654e-06
-6.97895e-07
8.18071e-06
-5.2671e-07
8.46602e-06
-2.8531e-07
8.45379e-06
1.22369e-08
8.04985e-06
4.03938e-07
7.26494e-06
7.84916e-07
6.05704e-06
1.2079e-06
4.3479e-06
1.70914e-06
2.03249e-06
2.31541e-06
-1.00747e-06
3.03996e-06
-4.88949e-06
3.88203e-06
-9.72134e-06
4.83184e-06
-1.56429e-05
5.92152e-06
-2.29742e-05
7.3313e-06
-3.24121e-05
9.4379e-06
-4.52787e-05
1.28667e-05
-6.37267e-05
1.84479e-05
-9.06665e-05
2.69398e-05
-0.000129153
3.84861e-05
-0.000181548
5.2395e-05
-0.000248809
6.72614e-05
-0.000329587
8.07778e-05
-0.000419412
8.98251e-05
-0.000510931
9.15192e-05
-0.000595239
8.43083e-05
-0.000663453
6.82134e-05
-0.000706811
4.3358e-05
-0.000714356
7.54537e-06
-0.000696608
-1.7748e-05
-0.000657879
-3.87296e-05
-0.00060173
-5.61488e-05
-0.000532051
-6.96791e-05
-0.000451884
-8.01667e-05
-0.000363222
-8.86617e-05
-0.000267625
-9.55968e-05
-0.00016672
-0.000100906
-6.22205e-05
-0.000104499
4.38857e-05
-0.000106106
0.000149621
-0.000105735
0.000253398
-0.000103777
0.000353861
-0.000100464
0.00045013
-9.6269e-05
0.000542134
-9.20033e-05
0.000630127
-8.79938e-05
0.000717248
-8.71202e-05
0.000803844
-8.6596e-05
-0.000107352
0.00108795
0.000349294
0.00104738
0.000355946
0.000933278
0.000361903
0.000775747
0.000344233
0.000598431
0.000304375
0.000410383
0.000253178
0.000221248
0.000199447
5.38769e-05
0.000143365
-6.04241e-05
9.1021e-05
-0.000110187
4.436e-05
-0.00013188
2.87549e-06
-0.000123962
-2.92999e-05
-0.000105658
-2.25805e-05
-0.000107766
1.03218e-05
-0.00010335
-7.35762e-06
-9.07209e-05
-2.62725e-05
-7.67334e-05
-2.08933e-05
-7.88533e-05
2.90657e-06
-8.71266e-05
1.12964e-05
-9.26321e-05
7.05052e-06
-9.45911e-05
6.57399e-07
-9.09685e-05
-7.90894e-06
-8.48184e-05
-1.24749e-05
-7.80833e-05
-1.3346e-05
-7.15227e-05
-1.23429e-05
-6.58679e-05
-9.96568e-06
-6.17371e-05
-6.88104e-06
-5.95896e-05
-3.76216e-06
-5.93016e-05
-1.34786e-06
-6.03672e-05
1.51817e-07
-6.25933e-05
1.32828e-06
-6.52929e-05
1.8426e-06
-6.81573e-05
2.0679e-06
-7.11064e-05
2.25118e-06
-7.42741e-05
2.64104e-06
-7.78146e-05
3.25519e-06
-8.18507e-05
4.04834e-06
-8.64258e-05
4.97902e-06
-9.16554e-05
6.01453e-06
-9.75841e-05
7.13652e-06
-0.000104216
8.34145e-06
-0.000111539
9.63819e-06
-0.000119528
1.10291e-05
-0.000128134
1.2488e-05
-0.000137264
1.39611e-05
-0.000146779
1.54373e-05
-0.000156575
1.71274e-05
-0.000166661
1.9523e-05
-0.000177169
2.33747e-05
-0.000188255
2.95341e-05
-0.000200157
3.88423e-05
-0.000213227
5.15563e-05
-0.000227518
6.66857e-05
-0.000242197
8.19405e-05
-0.000255093
9.36734e-05
-0.000262332
9.7064e-05
-0.000259082
8.82699e-05
-0.000241182
6.64074e-05
-0.000207355
3.43864e-05
-0.000166544
2.5474e-06
-0.000120077
-3.89213e-05
-6.82069e-05
-6.96184e-05
-1.37231e-05
-9.32135e-05
4.24584e-05
-0.00011233
0.000101946
-0.000129167
0.000165953
-0.000144174
0.000234362
-0.000157071
0.00030612
-0.000167355
0.000379676
-0.000174462
0.000453239
-0.000178062
0.000525269
-0.000178136
0.000594522
-0.000174988
0.000659933
-0.000169188
0.000720931
-0.000161462
0.000777359
-0.000152697
0.000829329
-0.000143973
0.000877708
-0.000136373
0.000922531
-0.000131943
0.000966515
-0.000130581
-0.000141896
0.000975282
0.000305926
0.00102604
0.000305187
0.00106097
0.000326974
0.00105862
0.000346584
0.00101217
0.00035082
0.000925048
0.000340304
0.000805752
0.000318743
0.000661765
0.000287352
0.000504929
0.000247857
0.000345844
0.000203444
0.000190168
0.000158552
4.70562e-05
0.000113812
-4.98393e-05
7.43149e-05
-8.59816e-05
4.64642e-05
-0.000105857
1.25182e-05
-0.000113851
-1.82789e-05
-0.000101837
-3.29069e-05
-9.15098e-05
-7.42115e-06
-9.89622e-05
1.87488e-05
-0.000108419
1.65071e-05
-0.000114928
7.16632e-06
-0.000119566
-3.27015e-06
-0.000121652
-1.03896e-05
-0.000120567
-1.44306e-05
-0.000118956
-1.39539e-05
-0.000118705
-1.02166e-05
-0.000120412
-5.17407e-06
-0.000124246
7.15081e-08
-0.000128337
2.74369e-06
-0.000132859
4.67358e-06
-0.000137392
5.86142e-06
-0.000141976
6.42602e-06
-0.000146487
6.57934e-06
-0.000150837
6.6006e-06
-0.000155089
6.89313e-06
-0.00015941
7.57682e-06
-0.000163912
8.54958e-06
-0.00016858
9.64752e-06
-0.000173343
1.07778e-05
-0.000178118
1.19116e-05
-0.000182811
1.30342e-05
-0.000187314
1.41415e-05
-0.0001915
1.52147e-05
-0.000195159
1.61471e-05
-0.00019792
1.67221e-05
-0.000199113
1.66298e-05
-0.000197695
1.57097e-05
-0.000192695
1.45227e-05
-0.000183133
1.38134e-05
-0.000167953
1.43535e-05
-0.000145785
1.66746e-05
-0.000115934
2.17052e-05
-7.75674e-05
2.83193e-05
-3.00898e-05
3.44629e-05
2.61788e-05
3.74049e-05
8.8656e-05
3.45869e-05
0.000152834
2.40921e-05
0.000212532
6.70942e-06
0.000267026
-2.01082e-05
0.000318874
-4.93e-05
0.000361182
-8.12295e-05
0.000402259
-0.000110695
0.0004456
-0.000136555
0.000492752
-0.000159482
0.000543197
-0.000179612
0.000595546
-0.000196522
0.000648072
-0.000209598
0.000699061
-0.000218343
0.000747099
-0.0002225
0.000791161
-0.000222124
0.000830625
-0.0002176
0.000865227
-0.000209591
0.000895006
-0.000198967
0.000920264
-0.00018672
0.00094148
-0.000173913
0.000959159
-0.000161653
0.000973905
-0.000151118
0.000985591
-0.000143629
0.000995283
-0.000140273
-0.00014473
0.000857109
0.000271374
0.000897355
0.000264941
0.000950164
0.000274165
0.00100471
0.000292042
0.00104637
0.000309153
0.00106531
0.000321372
0.00105664
0.000327411
0.00101794
0.000326054
0.000949553
0.00031624
0.000855081
0.000297916
0.000740896
0.000272737
0.000611933
0.000242775
0.000476494
0.000209753
0.000348327
0.000174631
0.000223536
0.00013731
0.00010225
0.000103006
-1.37111e-07
6.94805e-05
-5.16204e-05
4.40622e-05
-6.28615e-05
2.99899e-05
-6.47188e-05
1.83644e-05
-6.70611e-05
9.50861e-06
-7.29612e-05
2.62993e-06
-8.04182e-05
-2.93255e-06
-8.89378e-05
-5.91094e-06
-9.62868e-05
-6.60495e-06
-0.000101792
-4.71118e-06
-0.000106758
-2.0802e-07
-0.000112137
5.45062e-06
-0.000117739
8.34569e-06
-0.000122899
9.83283e-06
-0.000127282
1.02444e-05
-0.000130816
9.95983e-06
-0.000133564
9.32756e-06
-0.000135361
8.39778e-06
-0.000136529
8.06118e-06
-0.000137171
8.21844e-06
-0.000137378
8.75648e-06
-0.000136851
9.12111e-06
-0.000135423
9.34967e-06
-0.000132977
9.46591e-06
-0.000129377
9.43339e-06
-0.000124454
9.21872e-06
-0.000118061
8.82193e-06
-0.000109996
8.08209e-06
-9.99965e-05
6.72263e-06
-8.7823e-05
4.45627e-06
-7.24576e-05
3.44273e-07
-5.42598e-05
-3.67505e-06
-3.19424e-05
-8.50402e-06
-4.04154e-06
-1.35474e-05
3.06939e-05
-1.80608e-05
7.42597e-05
-2.18606e-05
0.000127433
-2.48541e-05
0.000189569
-2.76729e-05
0.000258575
-3.16017e-05
0.000331444
-3.82819e-05
0.000404792
-4.92552e-05
0.000476962
-6.54613e-05
0.00054379
-8.69358e-05
0.00060595
-0.00011146
0.000661989
-0.000137269
0.0007136
-0.000162306
0.000762073
-0.000185028
0.000807292
-0.000204701
0.000848479
-0.000220799
0.000884752
-0.000232795
0.000915417
-0.000240263
0.000940095
-0.00024302
0.000958777
-0.000241182
0.000971798
-0.000235146
0.000979756
-0.000225557
0.000983406
-0.000213241
0.000983564
-0.000199125
0.00098102
-0.000184177
0.000976464
-0.000169356
0.000970403
-0.000155592
0.00096313
-0.000143845
0.000954476
-0.000134975
0.000944298
-0.000130094
-0.000130195
0.000759397
0.000238011
0.000790536
0.000233802
0.000828351
0.000236349
0.000874985
0.000245408
0.000927002
0.000257137
0.000978871
0.000269503
0.00102441
0.000281869
0.00105755
0.000292917
0.00107319
0.000300601
0.00106786
0.000303244
0.00104042
0.000300178
0.000991565
0.000291629
0.00092324
0.000278079
0.00083886
0.000259011
0.000741526
0.000234644
0.000636636
0.000207896
0.000532152
0.000173965
0.000433902
0.000142312
0.000348948
0.000114945
0.000276034
9.12785e-05
0.000213751
7.17912e-05
0.000160433
5.59482e-05
0.000114137
4.33635e-05
7.45355e-05
3.36902e-05
4.172e-05
2.62106e-05
1.66009e-05
2.04079e-05
3.5024e-07
1.60427e-05
-7.27189e-06
1.30728e-05
-9.51559e-06
1.05894e-05
-8.30794e-06
8.62519e-06
-5.01037e-06
6.94688e-06
-4.63293e-07
5.41275e-06
4.91892e-06
3.94535e-06
1.08131e-05
2.5036e-06
1.72192e-05
1.65504e-06
2.4799e-05
6.38624e-07
3.40386e-05
-4.83088e-07
4.49049e-05
-1.74514e-06
5.76752e-05
-3.42064e-06
7.26261e-05
-5.48501e-06
9.004e-05
-7.9805e-06
0.000110213
-1.09543e-05
0.00013348
-1.4445e-05
0.000160077
-1.85154e-05
0.000190062
-2.32618e-05
0.00022331
-2.87914e-05
0.000258774
-3.51198e-05
0.000296993
-4.18949e-05
0.000337484
-4.8995e-05
0.000380085
-5.61478e-05
0.000425018
-6.29943e-05
0.000472494
-6.93363e-05
0.000522904
-7.52636e-05
0.000576428
-8.11971e-05
0.000632739
-8.7913e-05
0.000690834
-9.63768e-05
0.00074904
-0.000107461
0.000805177
-0.000121599
0.000856829
-0.000138588
0.000902802
-0.000157433
0.00094231
-0.000176777
0.000975191
-0.000195186
0.00100152
-0.000211358
0.00102122
-0.000224404
0.00103421
-0.00023379
0.00104061
-0.00023919
0.00104081
-0.000240466
0.0010355
-0.000237711
0.00102557
-0.00023125
0.00101203
-0.000221607
0.000995928
-0.000209453
0.000978227
-0.00019554
0.000959759
-0.000180657
0.000941161
-0.000165579
0.000922858
-0.000151053
0.000905035
-0.000137769
0.000887623
-0.000126433
0.000870244
-0.000117596
0.000852257
-0.000112107
-0.000110108
0.000672433
0.000206414
0.000702275
0.000203961
0.000733372
0.000205252
0.000767839
0.00021094
0.000806614
0.000218362
0.000850036
0.000226081
0.000897301
0.000234604
0.000946031
0.000244187
0.000992641
0.000253992
0.00103305
0.000262833
0.00106349
0.000269742
0.00108117
0.000273947
0.00108444
0.000274805
0.00107207
0.000271381
0.0010437
0.000263017
0.00100103
0.000250564
0.000949034
0.000225964
0.000891658
0.000199688
0.000831902
0.0001747
0.000772158
0.000151023
0.000714624
0.000129325
0.000660586
0.000109986
0.000610848
9.31016e-05
0.000565999
7.85391e-05
0.000526243
6.59659e-05
0.000491564
5.50875e-05
0.000461935
4.56717e-05
0.000437574
3.74338e-05
0.000418137
3.00261e-05
0.000403394
2.33679e-05
0.000393017
1.73243e-05
0.000386651
1.17781e-05
0.000384022
6.57509e-06
0.00038534
1.1849e-06
0.000390257
-3.26142e-06
0.000398836
-7.94015e-06
0.000410991
-1.26384e-05
0.000426599
-1.73527e-05
0.000445399
-2.22207e-05
0.000467199
-2.72857e-05
0.000491796
-3.25768e-05
0.000518968
-3.81267e-05
0.000548485
-4.39623e-05
0.000580078
-5.01083e-05
0.000613403
-5.65865e-05
0.000648008
-6.3397e-05
0.000683372
-7.04839e-05
0.000719157
-7.76797e-05
0.000754961
-8.47989e-05
0.000790469
-9.16555e-05
0.000825546
-9.80711e-05
0.000860184
-0.000103974
0.000894411
-0.000109491
0.000928176
-0.000114962
0.00096119
-0.000120927
0.00099282
-0.000128007
0.00102208
-0.000136725
0.00104779
-0.000147306
0.00106876
-0.000159552
0.00108411
-0.000172787
0.00109334
-0.000186003
0.00109627
-0.000198125
0.00109311
-0.000208195
0.00108424
-0.000215533
0.00107021
-0.000219761
0.00105174
-0.000220722
0.00102972
-0.000218439
0.0010051
-0.000213099
0.000978898
-0.000205045
0.000952032
-0.000194741
0.000925309
-0.000182729
0.000899364
-0.000169595
0.000874639
-0.000155932
0.00085138
-0.00014232
0.000829646
-0.000129319
0.000809314
-0.000117437
0.000790085
-0.000107205
0.000771442
-9.89523e-05
0.000752746
-9.34111e-05
-9.0136e-05
0.000594386
0.000177665
0.00062317
0.000175177
0.000652323
0.000176099
0.000682115
0.000181149
0.000712924
0.000187552
0.000745613
0.000193392
0.000781181
0.000199036
0.000820193
0.000205175
0.000862411
0.000211774
0.000906707
0.000218538
0.000951215
0.000225234
0.000993659
0.000231503
0.00103171
0.000236753
0.00106298
0.000240113
0.0010853
0.000240697
0.00109753
0.000238335
0.00109977
0.000223724
0.00109369
0.000205767
0.00108083
0.000187562
0.00106268
0.000169173
0.00104092
0.000151081
0.00101711
0.000133797
0.000992583
0.000117629
0.00096843
0.000102692
0.000945439
8.89572e-05
0.000924189
7.63377e-05
0.000905131
6.4729e-05
0.000888589
5.39764e-05
0.000874697
4.39175e-05
0.000863595
3.44708e-05
0.000855353
2.55659e-05
0.000850011
1.71198e-05
0.000847556
9.03073e-06
0.000847385
1.35542e-06
0.00085027
-6.1465e-06
0.000855652
-1.3322e-05
0.000863387
-2.0373e-05
0.000873329
-2.72947e-05
0.000885232
-3.41242e-05
0.000898845
-4.08988e-05
0.000913907
-4.76389e-05
0.000930138
-5.43572e-05
0.000947237
-6.10615e-05
0.000964882
-6.77536e-05
0.000982723
-7.44271e-05
0.00100038
-8.10567e-05
0.00101748
-8.75825e-05
0.0010337
-9.38947e-05
0.00104876
-9.98638e-05
0.00106249
-0.00010538
0.00107479
-0.000110373
0.00108567
-0.000114856
0.00109515
-0.000118976
0.00110322
-0.000123025
0.00110969
-0.000127403
0.00111422
-0.000132538
0.00111627
-0.000138768
0.00111517
-0.000146213
0.00111031
-0.000154692
0.00110124
-0.000163713
0.0010878
-0.00017256
0.00107013
-0.000180463
0.00104868
-0.000186743
0.00102405
-0.000190906
0.000996965
-0.000192671
0.00096818
-0.000191938
0.000938484
-0.000188743
0.000908624
-0.000183239
0.000879262
-0.000175683
0.000850934
-0.000166413
0.000824031
-0.000155827
0.000798796
-0.00014436
0.00077533
-0.000132466
0.00075361
-0.0001206
0.000733505
-0.000109213
0.000714777
-9.8709e-05
0.000697091
-8.95198e-05
0.000679946
-8.1807e-05
0.000662871
-7.63362e-05
-7.19408e-05
0.000525111
0.000151816
0.000551936
0.000148352
0.000579146
0.000148889
0.000606467
0.000153827
0.000634006
0.000160013
0.000661953
0.000165445
0.000690628
0.000170361
0.000720605
0.000175198
0.000752534
0.000179845
0.000786873
0.000184199
0.000823722
0.000188385
0.000862729
0.000192496
0.00090308
0.000196403
0.000943486
0.000199706
0.000982309
0.000201874
0.00101803
0.000202616
0.00104832
0.00019343
0.00107278
0.000181312
0.00109162
0.000168722
0.00110524
0.000155554
0.00111427
0.000142044
0.00111951
0.00012856
0.00112176
0.00011538
0.00112179
0.000102659
0.00112029
9.04604e-05
0.00111783
7.87902e-05
0.00111493
6.76305e-05
0.00111197
5.69374e-05
0.00110924
4.66537e-05
0.00110696
3.67473e-05
0.00110532
2.72036e-05
0.00110444
1.80018e-05
0.00110434
9.13366e-06
0.00110494
7.50446e-07
0.00110636
-7.56903e-06
0.00110842
-1.5379e-05
0.001111
-2.29525e-05
0.001114
-3.02986e-05
0.0011173
-3.74215e-05
0.00112074
-4.43387e-05
0.00112416
-5.10611e-05
0.0011274
-5.75916e-05
0.00113027
-6.3929e-05
0.00113258
-7.00683e-05
0.00113415
-7.5998e-05
0.00113479
-8.16942e-05
0.00113432
-8.71137e-05
0.00113262
-9.21903e-05
0.0011296
-9.68511e-05
0.00112527
-0.000101044
0.00111966
-0.00010476
0.00111285
-0.000108054
0.00110495
-0.000111073
0.00109598
-0.000114057
0.00108589
-0.000117307
0.00107448
-0.000121129
0.00106146
-0.000125752
0.0010465
-0.000131246
0.00102927
-0.000137469
0.00100963
-0.000144067
0.000987597
-0.00015053
0.000963428
-0.000156294
0.000937533
-0.000160848
0.000910426
-0.000163798
0.000882649
-0.000164894
0.000854733
-0.000164021
0.000827161
-0.00016117
0.000800344
-0.000156422
0.000774604
-0.000149943
0.000750162
-0.000141971
0.000727144
-0.000132808
0.000705589
-0.000122805
0.000685468
-0.000112344
0.00066669
-0.000101822
0.000649116
-9.16401e-05
0.000632551
-8.21436e-05
0.000616738
-7.37067e-05
0.000601283
-6.63518e-05
0.000585857
-6.09107e-05
-5.54699e-05
0.00046394
0.000128551
0.000488639
0.000123652
0.00051348
0.000124049
0.000538159
0.000129148
0.000563122
0.00013505
0.000588445
0.000140122
0.00061397
0.000144836
0.000639764
0.000149404
0.000666083
0.000153525
0.000693245
0.000157037
0.00072161
0.00016002
0.000751519
0.000162586
0.00078317
0.000164752
0.000816474
0.000166403
0.000850999
0.000167349
0.000886112
0.000167503
0.000919681
0.00015986
0.000950825
0.000150169
0.000979169
0.000140377
0.00100445
0.000130273
0.00102659
0.000119903
0.0010457
0.000109454
0.00106199
9.90892e-05
0.00107574
8.89032e-05
0.00108727
7.89373e-05
0.00109685
6.9204e-05
0.00110478
5.97038e-05
0.00111129
5.0427e-05
0.00111659
4.13575e-05
0.00112084
3.24932e-05
0.0011242
2.38489e-05
0.00112676
1.54418e-05
0.0011286
7.29377e-06
0.00112979
-4.41339e-07
0.00113028
-8.0614e-06
0.00113014
-1.52355e-05
0.00112933
-2.21471e-05
0.00112785
-2.88126e-05
0.00112565
-3.5231e-05
0.00112272
-4.1407e-05
0.00111901
-4.73455e-05
0.00111446
-5.30474e-05
0.00110905
-5.85105e-05
0.00110271
-6.37301e-05
0.00109541
-6.86978e-05
0.00108711
-7.33975e-05
0.0010778
-7.78026e-05
0.00106748
-8.18763e-05
0.00105622
-8.55815e-05
0.00104407
-8.88997e-05
0.00103116
-9.18475e-05
0.0010176
-9.44916e-05
0.00100348
-9.69618e-05
0.000988875
-9.94484e-05
0.000973748
-0.00010218
0.000957999
-0.00010538
0.000941458
-0.000109211
0.000923929
-0.000113716
0.000905248
-0.000118788
0.000885342
-0.000124161
0.000864262
-0.00012945
0.000842184
-0.000134216
0.000819379
-0.000138043
0.000796167
-0.000140586
0.000772875
-0.000141601
0.000749799
-0.000140946
0.000727194
-0.000138566
0.00070526
-0.000134488
0.00068414
-0.000128822
0.00066392
-0.000121751
0.000644642
-0.000113531
0.000626311
-0.000104474
0.000608903
-9.49359e-05
0.000592374
-8.52925e-05
0.000576652
-7.59183e-05
0.000561633
-6.71251e-05
0.000547159
-5.92321e-05
0.000532963
-5.21558e-05
0.000518761
-4.67094e-05
-4.04174e-05
0.000410014
0.000107501
0.000432754
0.000100912
0.000455183
0.00010162
0.000477152
0.000107179
0.000499455
0.000112747
0.000522203
0.000117374
0.000545203
0.000121836
0.00056844
0.000126167
0.00059194
0.000130026
0.000615686
0.00013329
0.000639722
0.000135984
0.000664189
0.000138119
0.00068928
0.000139661
0.000715152
0.000140531
0.000741864
0.000140637
0.000769387
0.00013998
0.000796434
0.000132814
0.000822522
0.000124081
0.000847428
0.000115471
0.000870886
0.000106815
0.00089268
9.81082e-05
0.000912686
8.94484e-05
0.000930852
8.09232e-05
0.000947182
7.25731e-05
0.000961715
6.44045e-05
0.00097451
5.64091e-05
0.000985638
4.85751e-05
0.000995176
4.08898e-05
0.00100319
3.33414e-05
0.00100975
2.59308e-05
0.00101493
1.86745e-05
0.00101877
1.15964e-05
0.00102134
4.72697e-06
0.00102277
-1.86719e-06
0.001023
-8.29185e-06
0.00102219
-1.44249e-05
0.00102035
-2.03119e-05
0.00101752
-2.59806e-05
0.00101372
-3.14334e-05
0.00100898
-3.66701e-05
0.00100333
-4.16929e-05
0.000996787
-4.65029e-05
0.000989375
-5.10986e-05
0.000981122
-5.54765e-05
0.000972055
-5.96305e-05
0.000962206
-6.35492e-05
0.000951619
-6.72152e-05
0.000940349
-7.06066e-05
0.000928471
-7.37037e-05
0.000916074
-7.65025e-05
0.000903254
-7.90271e-05
0.000890103
-8.13407e-05
0.000876693
-8.35519e-05
0.000863057
-8.58121e-05
0.000849174
-8.82973e-05
0.00083497
-9.11763e-05
0.000820328
-9.45687e-05
0.000805115
-9.85042e-05
0.000789221
-0.000102894
0.000772589
-0.000107529
0.000755237
-0.000112098
0.000737261
-0.000116241
0.000718815
-0.000119597
0.000700083
-0.000121854
0.000681251
-0.000122769
0.000662484
-0.00012218
0.000643925
-0.000120006
0.000625684
-0.000116247
0.000607845
-0.000110983
0.000590468
-0.000104375
0.000573599
-9.66619e-05
0.000557273
-8.81479e-05
0.000541519
-7.91818e-05
0.000526357
-7.01308e-05
0.000511792
-6.13529e-05
0.000497801
-5.31337e-05
0.000484297
-4.57289e-05
0.000471129
-3.89874e-05
0.000457978
-3.35582e-05
-2.67321e-05
0.000362528
8.82933e-05
0.000383496
7.99438e-05
0.000403597
8.15192e-05
0.000423064
8.77117e-05
0.00044288
9.2931e-05
0.000463078
9.71768e-05
0.000483524
0.00010139
0.000504297
0.000105394
0.000525419
0.000108903
0.000546805
0.000111904
0.000568366
0.000114423
0.000590058
0.000116427
0.000611865
0.000117854
0.000633784
0.000118612
0.000655814
0.000118607
0.000677971
0.000117823
0.000699347
0.000111438
0.00071975
0.000103678
0.000739189
9.60319e-05
0.000757602
8.84024e-05
0.000774909
8.08006e-05
0.00079105
7.33074e-05
0.000805982
6.59919e-05
0.000819674
5.88804e-05
0.00083211
5.19688e-05
0.000843279
4.52403e-05
0.000853178
3.86757e-05
0.000861811
3.22565e-05
0.000869185
2.59674e-05
0.000875312
1.9804e-05
0.000880211
1.37754e-05
0.00088391
7.89803e-06
0.000886452
2.18507e-06
0.000887909
-3.32491e-06
0.000888303
-8.68574e-06
0.000887722
-1.38439e-05
0.000886207
-1.87964e-05
0.000883791
-2.35652e-05
0.000880515
-2.81569e-05
0.000876416
-3.25711e-05
0.000871531
-3.68083e-05
0.000865897
-4.0869e-05
0.000859551
-4.47519e-05
0.000852528
-4.84533e-05
0.000844864
-5.19672e-05
0.000836599
-5.52838e-05
0.000827774
-5.839e-05
0.000818438
-6.12705e-05
0.000808648
-6.39139e-05
0.000798468
-6.63224e-05
0.000787962
-6.85214e-05
0.000777189
-7.05678e-05
0.000766191
-7.25536e-05
0.000754981
-7.46027e-05
0.00074354
-7.68564e-05
0.000731812
-7.94478e-05
0.000719712
-8.24692e-05
0.000707148
-8.59403e-05
0.000694039
-8.97848e-05
0.000680336
-9.38258e-05
0.000666039
-9.78009e-05
0.000651195
-0.000101397
0.000635888
-0.000104291
0.000620223
-0.000106189
0.000604308
-0.000106853
0.000588244
-0.000106116
0.000572122
-0.000103885
0.000556026
-0.000100151
0.000540033
-9.49899e-05
0.000524222
-8.85635e-05
0.000508674
-8.11137e-05
0.000493473
-7.29473e-05
0.000478705
-6.44134e-05
0.000464446
-5.58719e-05
0.000450754
-4.76607e-05
0.00043766
-4.00396e-05
0.00042512
-3.3189e-05
0.000413065
-2.69329e-05
0.000401103
-2.15958e-05
-1.46125e-05
0.000320758
7.05686e-05
0.000340087
6.06147e-05
0.000357962
6.3644e-05
0.000375206
7.04678e-05
0.000392819
7.53175e-05
0.00041069
7.93064e-05
0.000428757
8.3323e-05
0.000447162
8.6989e-05
0.000465939
9.01262e-05
0.000485023
9.28203e-05
0.000504346
9.50995e-05
0.000523846
9.69278e-05
0.000543446
9.82542e-05
0.000563056
9.90018e-05
0.000582581
9.90825e-05
0.000601944
9.84598e-05
0.0006203
9.3082e-05
0.000637492
8.64868e-05
0.000653584
7.99402e-05
0.000668601
7.33846e-05
0.000682559
6.68432e-05
0.000695473
6.03934e-05
0.000707362
5.41024e-05
0.000718243
4.79991e-05
0.000728129
4.20831e-05
0.000737029
3.6341e-05
0.000744949
3.07557e-05
0.000751895
2.53101e-05
0.000757874
1.99889e-05
0.000762892
1.47858e-05
0.000766961
9.70628e-06
0.000770097
4.76179e-06
0.000772336
-5.39724e-08
0.000773711
-4.69958e-06
0.000774245
-9.21958e-06
0.000773979
-1.35787e-05
0.000772951
-1.77685e-05
0.000771188
-2.18021e-05
0.000768719
-2.56878e-05
0.000765574
-2.94258e-05
0.000761781
-3.30156e-05
0.000757369
-3.6457e-05
0.000752366
-3.97481e-05
0.000746797
-4.28849e-05
0.000740691
-4.58611e-05
0.000734075
-4.86683e-05
0.000726981
-5.12953e-05
0.000719442
-5.37312e-05
0.000711497
-5.59691e-05
0.000703189
-5.80146e-05
0.000694561
-5.9893e-05
0.000685649
-6.16558e-05
0.000676478
-6.33831e-05
0.000667055
-6.51797e-05
0.000657362
-6.71631e-05
0.000647356
-6.94419e-05
0.000636976
-7.20894e-05
0.000626152
-7.51166e-05
0.00061482
-7.84529e-05
0.000602935
-8.19405e-05
0.00059048
-8.53455e-05
0.000577468
-8.8385e-05
0.00056394
-9.0762e-05
0.000549951
-9.22004e-05
0.00053557
-9.24725e-05
0.000520872
-9.14174e-05
0.000505939
-8.8952e-05
0.000490866
-8.50776e-05
0.00047576
-7.98837e-05
0.000460742
-7.35457e-05
0.000445944
-6.63155e-05
0.000431499
-5.85028e-05
0.000417535
-5.04495e-05
0.000404161
-4.24982e-05
0.000391456
-3.49555e-05
0.000379469
-2.80523e-05
0.000368165
-2.18848e-05
0.000357531
-1.6299e-05
0.000347093
-1.11576e-05
-4.38355e-06
0.000284047
5.3995e-05
0.000301804
4.28575e-05
0.000317587
4.78611e-05
0.000332893
5.51619e-05
0.000348559
5.96514e-05
0.000364356
6.35096e-05
0.00038032
6.73583e-05
0.000396611
7.06987e-05
0.000413236
7.35007e-05
0.000430146
7.59105e-05
0.000447302
7.79436e-05
0.000464664
7.9566e-05
0.000482171
8.07469e-05
0.00049974
8.14322e-05
0.000517271
8.15517e-05
0.000534661
8.10695e-05
0.000551104
7.6639e-05
0.000566421
7.11701e-05
0.000580652
6.57097e-05
0.000593821
6.02157e-05
0.000605953
5.47112e-05
0.00061708
4.92658e-05
0.000627241
4.39416e-05
0.000636472
3.87683e-05
0.000644805
3.37495e-05
0.00065227
2.88763e-05
0.000658889
2.41363e-05
0.000664683
1.95161e-05
0.00066967
1.50024e-05
0.000673865
1.05908e-05
0.000677285
6.28647e-06
0.00067995
2.09632e-06
0.000681876
-1.97944e-06
0.000683093
-5.91736e-06
0.000683613
-9.73902e-06
0.000683463
-1.34287e-05
0.000682671
-1.6977e-05
0.000681261
-2.03916e-05
0.000679253
-2.36799e-05
0.00067667
-2.6843e-05
0.000673534
-2.98799e-05
0.000669867
-3.27893e-05
0.000665688
-3.5569e-05
0.000661018
-3.82147e-05
0.000655876
-4.072e-05
0.000650285
-4.30766e-05
0.000644264
-4.5275e-05
0.000637839
-4.73062e-05
0.000631036
-4.91658e-05
0.000623882
-5.08605e-05
0.000616404
-5.24145e-05
0.000608622
-5.38745e-05
0.00060055
-5.53109e-05
0.000592185
-5.68146e-05
0.000583507
-5.84852e-05
0.000574479
-6.04134e-05
0.000565047
-6.26573e-05
0.00055515
-6.52198e-05
0.000544729
-6.80318e-05
0.000533735
-7.09467e-05
0.000522139
-7.375e-05
0.000509937
-7.61824e-05
0.000497146
-7.79714e-05
0.00048381
-7.88644e-05
0.000469994
-7.86562e-05
0.000455785
-7.72088e-05
0.000441296
-7.44631e-05
0.000426663
-7.04443e-05
0.000412042
-6.52623e-05
0.000397602
-5.91057e-05
0.000383515
-5.22287e-05
0.000369943
-4.49312e-05
0.000357026
-3.7532e-05
0.000344869
-3.03416e-05
0.000333537
-2.36236e-05
0.000323064
-1.75786e-05
0.000313396
-1.22169e-05
0.000304556
-7.45953e-06
0.000296014
-2.61511e-06
3.6716e-06
0.000251798
3.82832e-05
0.000267991
2.66645e-05
0.000281861
3.39914e-05
0.000295501
4.15218e-05
0.000309433
4.57198e-05
0.00032339
4.95521e-05
0.000337519
5.32297e-05
0.00035196
5.62578e-05
0.000366692
5.87688e-05
0.00038167
6.09325e-05
0.000396868
6.27454e-05
0.000412256
6.41782e-05
0.000427787
6.52159e-05
0.000443398
6.58207e-05
0.000459011
6.59387e-05
0.000474539
6.55411e-05
0.000489254
6.19244e-05
0.000502979
5.74448e-05
0.000515738
5.29514e-05
0.000527542
4.84113e-05
0.000538408
4.38457e-05
0.000548358
3.93152e-05
0.000557424
3.48753e-05
0.000565639
3.05538e-05
0.000573033
2.63553e-05
0.000579636
2.22731e-05
0.000585475
1.8298e-05
0.000590571
1.44198e-05
0.000594947
1.06263e-05
0.000598623
6.91525e-06
0.000601616
3.29349e-06
0.000603945
-2.33391e-07
0.000605629
-3.66274e-06
0.000606691
-6.98006e-06
0.000607146
-1.01942e-05
0.000607016
-1.32987e-05
0.000606325
-1.62855e-05
0.000605091
-1.9158e-05
0.000603334
-2.19223e-05
0.00060107
-2.45794e-05
0.000598318
-2.71276e-05
0.000595093
-2.95644e-05
0.00059141
-3.18863e-05
0.000587284
-3.4088e-05
0.000582726
-3.61625e-05
0.00057775
-3.81008e-05
0.000572369
-3.98934e-05
0.000566595
-4.15321e-05
0.000560442
-4.30133e-05
0.000553926
-4.43441e-05
0.000547058
-4.5547e-05
0.000539848
-4.66648e-05
0.000532298
-4.77608e-05
0.000524399
-4.89153e-05
0.000516128
-5.02146e-05
0.00050745
-5.17353e-05
0.000498317
-5.35238e-05
0.000488673
-5.55762e-05
0.000478466
-5.7824e-05
0.000467649
-6.01306e-05
0.000456199
-6.22996e-05
0.000444113
-6.40969e-05
0.000431422
-6.52799e-05
0.000418186
-6.5628e-05
0.000404499
-6.49694e-05
0.000390488
-6.31982e-05
0.00037631
-6.0285e-05
0.000362144
-5.62785e-05
0.000348184
-5.13025e-05
0.000334625
-4.55466e-05
0.000321648
-3.92519e-05
0.000309408
-3.2691e-05
0.000298021
-2.61452e-05
0.000287562
-1.98818e-05
0.000278054
-1.41158e-05
0.000269497
-9.02176e-06
0.000261807
-4.52691e-06
0.000255033
-6.85133e-07
0.000248635
3.78195e-06
9.44659e-06
0.000223468
2.31975e-05
0.000238065
1.2068e-05
0.000250245
2.18104e-05
0.00026246
2.93075e-05
0.000274839
3.33406e-05
0.000287177
3.72144e-05
0.000299706
4.07e-05
0.00031253
4.34338e-05
0.000325606
4.56932e-05
0.000338896
4.76422e-05
0.00035238
4.92611e-05
0.000366029
5.05293e-05
0.000379802
5.14434e-05
0.000393646
5.19768e-05
0.000407497
5.2087e-05
0.000421286
5.17524e-05
0.000434366
4.88445e-05
0.00044658
4.52311e-05
0.000457946
4.15847e-05
0.000468477
3.78809e-05
0.000478182
3.41403e-05
0.00048708
3.04174e-05
0.000495193
2.67624e-05
0.000502546
2.32009e-05
0.000509164
1.97374e-05
0.00051507
1.63664e-05
0.000520287
1.30809e-05
0.000524835
9.87255e-06
0.000528732
6.72854e-06
0.000531998
3.65e-06
0.000534648
6.43026e-07
0.000536703
-2.28862e-06
0.00053818
-5.13972e-06
0.000539099
-7.89906e-06
0.000539474
-1.0569e-05
0.000539321
-1.31459e-05
0.000538658
-1.56227e-05
0.0005375
-1.79999e-05
0.000535859
-2.02812e-05
0.000533747
-2.24669e-05
0.000531173
-2.45539e-05
0.000528147
-2.65382e-05
0.000524675
-2.84149e-05
0.000520765
-3.01775e-05
0.00051642
-3.1818e-05
0.000511647
-3.33274e-05
0.00050645
-3.46966e-05
0.000500836
-3.59182e-05
0.000494813
-3.69903e-05
0.00048839
-3.79209e-05
0.000481576
-3.87325e-05
0.000474376
-3.94655e-05
0.000466794
-4.01782e-05
0.000458821
-4.09428e-05
0.000450442
-4.18351e-05
0.000441627
-4.29204e-05
0.000432338
-4.42354e-05
0.000422534
-4.57715e-05
0.000412172
-4.74627e-05
0.000401226
-4.9184e-05
0.000389686
-5.076e-05
0.000377575
-5.19858e-05
0.000364948
-5.26529e-05
0.000351898
-5.25779e-05
0.000338553
-5.16246e-05
0.000325074
-4.9719e-05
0.000311645
-4.68561e-05
0.000298465
-4.30985e-05
0.000285733
-3.85707e-05
0.000273636
-3.34492e-05
0.000262331
-2.79474e-05
0.00025194
-2.23001e-05
0.000242538
-1.67429e-05
0.000234154
-1.14975e-05
0.000226768
-6.73038e-06
0.000220347
-2.60045e-06
0.000214774
1.04565e-06
0.000210113
3.97615e-06
0.0002059
7.99472e-06
1.30243e-05
0.00019856
8.56662e-06
0.000211521
-8.92935e-07
0.000222268
1.1064e-05
0.00023325
1.8325e-05