/*--------------------------------*- C++ -*----------------------------------*\
| =========                 |                                                 |
| \\      /  F ield         | OpenFOAM: The Open Source CFD Toolbox           |
|  \\    /   O peration     | Version:  v1912                                 |
|   \\  /    A nd           | Website:  www.openfoam.com                      |
|    \\/     M anipulation  |                                                 |
\*---------------------------------------------------------------------------*/
FoamFile
{
    version     2.0;
    format      ascii;
    class       volVectorField;
    location    "650";
    object      U;
}
// * * * * * * * * * * * * * * * * * * * * * * * * * * * * * * * * * * * * * //

dimensions      [0 1 -1 0 0 0 0];


internalField   nonuniform List<vector> 
2000
(
(0.84616 0.187394 0)
(0.515133 0.124089 0)
(0.223448 0.0684415 0)
(0.0598069 0.0174443 6.19505e-20)
(-0.00455618 -0.0232232 1.20707e-17)
(-0.0642032 -0.0384875 1.04257e-17)
(-0.0776006 -0.0372472 0)
(-0.0715947 -0.0166586 0)
(-0.0590605 0.0117132 0)
(-0.0421587 0.0254686 2.36746e-17)
(-0.0415853 0.0109799 -1.45044e-17)
(-0.0273677 -0.000618262 -1.36224e-17)
(-0.0163196 -0.00266402 0)
(-0.0200775 -0.00264008 0)
(-0.0219161 -0.00227164 -1.08218e-17)
(-0.016889 0.000852179 0)
(-0.010597 0.0034978 9.74161e-18)
(-0.00964654 0.00623748 3.09388e-21)
(-0.0106541 0.00612857 9.41715e-18)
(-0.0114202 0.00488969 -4.64799e-18)
(-0.0112813 0.00278362 9.18928e-18)
(-0.010088 0.000805739 0)
(-0.0079357 -0.000198961 0)
(-0.00541502 -0.000630444 -6.75839e-23)
(-0.00311815 -0.000796256 0)
(-0.00128853 -0.000815477 -4.51801e-18)
(-6.30764e-05 -0.00075283 0)
(0.000635863 -0.00067258 4.52733e-18)
(0.00103553 -0.000658727 0)
(0.00132625 -0.000665223 0)
(0.001603 -0.000590594 0)
(0.00188153 -0.000479137 1.14975e-18)
(0.00214593 -0.000389334 0)
(0.0023852 -0.000350255 -5.83557e-19)
(0.00258576 -0.00034887 1.94759e-14)
(0.00272293 -0.000363733 1.94624e-14)
(0.0027886 -0.000397864 6.01831e-19)
(0.00272601 -0.00048952 -6.09331e-19)
(0.00253609 -0.000628601 0)
(0.00221814 -0.000783535 2.50646e-18)
(0.00175192 -0.00093133 0)
(0.00110353 -0.00105974 -2.58895e-18)
(0.00023201 -0.00115629 0)
(-0.000917635 -0.001205 -5.35833e-18)
(-0.00239438 -0.00122665 2.72247e-18)
(-0.00423559 -0.00131006 0)
(-0.00652584 -0.00150157 0)
(-0.00942164 -0.00171101 -2.85731e-18)
(-0.0132442 -0.00162897 0)
(-0.0186075 -0.000663582 2.93547e-18)
(-0.026492 0.00188449 0)
(-0.0381855 0.00631108 5.91881e-18)
(-0.0550813 0.0120753 -5.86835e-18)
(-0.0783317 0.0177776 5.74675e-18)
(-0.108289 0.0215071 -2.74454e-18)
(-0.144041 0.0214072 0)
(-0.183482 0.0162832 2.33171e-18)
(-0.223688 0.00599454 -2.07413e-18)
(-0.260914 -0.00841992 -4.07904e-18)
(-0.290321 -0.0247409 3.30011e-18)
(-0.307037 -0.0397431 -3.25343e-18)
(-0.309537 -0.0502332 3.47823e-18)
(-0.303162 -0.0562658 -3.96789e-18)
(-0.288172 -0.0591841 4.7734e-18)
(-0.265667 -0.0600232 -1.22438e-20)
(-0.236486 -0.0595151 7.16383e-18)
(-0.201046 -0.0578615 0)
(-0.159525 -0.0550495 0)
(-0.112194 -0.0510679 7.61338e-20)
(-0.0598047 -0.0459568 0)
(-0.00363289 -0.0396508 1.99138e-17)
(0.0561336 -0.0318141 0)
(0.119741 -0.0223035 1.98909e-17)
(0.186712 -0.0112811 -4.88143e-19)
(0.256299 0.00100872 1.71695e-17)
(0.329813 0.014263 2.98683e-17)
(0.403765 0.0281071 7.34303e-19)
(0.491341 0.0420858 -1.01483e-17)
(0.557213 0.0545515 -6.53026e-18)
(0.713661 0.0652644 0)
(1.0153 0.210384 0)
(0.944633 0.194211 0)
(0.804475 0.179983 -3.52945e-18)
(0.654422 0.152313 7.28938e-18)
(0.509224 0.111169 0)
(0.360042 0.0683704 -7.29053e-18)
(0.216493 0.0293251 0)
(0.0821323 -0.00530916 0)
(-0.0282881 -0.01804 0)
(-0.0562028 -0.0189159 -1.73134e-17)
(-0.0667312 -0.0249896 1.57506e-17)
(-0.0718816 -0.0159778 1.44474e-17)
(-0.0637578 0.00640504 0)
(-0.0508759 0.0207272 6.32457e-18)
(-0.0544986 0.0100008 0)
(-0.0482911 -0.00292921 0)
(-0.0376228 -0.00401924 0)
(-0.0329248 -0.00109232 5.27139e-18)
(-0.0366996 0.000902265 -1.0339e-17)
(-0.0388884 0.000903108 -5.09273e-18)
(-0.0395843 7.15494e-05 0)
(-0.0384934 -0.00112771 0)
(-0.0357769 -0.0023544 0)
(-0.0325332 -0.00294559 -7.41517e-18)
(-0.0293725 -0.00274632 0)
(-0.0265605 -0.00194705 4.95219e-18)
(-0.0243416 -0.000883615 2.48356e-18)
(-0.0228838 -1.70425e-06 0)
(-0.0222519 0.000371855 0)
(-0.0223114 0.00040423 0)
(-0.0228827 0.000227344 0)
(-0.0237367 3.52262e-05 -6.32875e-19)
(-0.0247015 -0.000123911 0)
(-0.0257177 -0.000217617 3.20343e-19)
(-0.0268048 -0.000207549 1.6139e-19)
(-0.0280327 -7.55518e-05 0)
(-0.0294453 0.000161639 0)
(-0.031071 0.000471868 6.62972e-19)
(-0.032971 0.000835557 0)
(-0.0351651 0.00124898 -1.35287e-18)
(-0.0376688 0.00171737 0)
(-0.0404879 0.0022511 -1.38253e-18)
(-0.0436285 0.00285653 0)
(-0.0470925 0.00352509 1.4136e-18)
(-0.050867 0.00424367 1.43069e-18)
(-0.0549211 0.0050513 0)
(-0.0592263 0.00613395 0)
(-0.06378 0.00786907 -2.97202e-18)
(-0.0685744 0.0107755 0)
(-0.0735773 0.0154535 1.43333e-20)
(-0.0788138 0.0224363 0)
(-0.0844893 0.031861 0)
(-0.090968 0.0430274 0)
(-0.0985761 0.0542753 0)
(-0.107055 0.0632497 6.03688e-18)
(-0.114874 0.0674886 0)
(-0.119601 0.0650204 -5.48735e-18)
(-0.119294 0.0549629 2.65347e-18)
(-0.112483 0.0382906 -2.30844e-18)
(-0.0952668 0.0178012 -4.87413e-18)
(-0.0635378 -0.00473395 5.01755e-18)
(-0.0455519 -0.0306968 -5.53229e-18)
(-0.0203294 -0.0513304 6.47533e-18)
(0.00752534 -0.0660287 0)
(0.0384471 -0.0763851 -1.29237e-17)
(0.0729133 -0.0838559 -9.64975e-18)
(0.111693 -0.0891454 0)
(0.15497 -0.092239 5.73699e-18)
(0.20237 -0.0928339 1.25611e-17)
(0.253298 -0.0907186 0)
(0.307088 -0.0858033 0)
(0.363154 -0.0780743 0)
(0.42102 -0.0676776 0)
(0.480426 -0.0549573 -1.36249e-17)
(0.541123 -0.0404566 5.9388e-18)
(0.603969 -0.024843 -1.17731e-17)
(0.667389 -0.0090543 1.01634e-17)
(0.739166 0.0058737 -3.46863e-18)
(0.796073 0.0175081 0)
(0.911727 0.0230104 0)
(0.978489 0.201538 0)
(0.978854 0.193006 -2.78626e-18)
(0.969154 0.205111 3.48192e-18)
(0.939083 0.208531 -3.06092e-18)
(0.878034 0.194606 2.88552e-18)
(0.785605 0.168719 2.84358e-18)
(0.669349 0.13808 0)
(0.541012 0.106021 0)
(0.40822 0.0750633 0)
(0.285943 0.0459344 6.86769e-18)
(0.17388 0.018021 0)
(0.0721778 -0.00640579 0)
(-0.0214763 -0.0141561 0)
(-0.0469113 -0.00385844 -7.18563e-18)
(-0.0508287 -0.0116806 0)
(-0.0586851 -0.0181524 -6.05221e-18)
(-0.0592812 -0.0112534 0)
(-0.0480925 0.0090665 5.87725e-18)
(-0.0464633 0.0164876 2.87331e-18)
(-0.0508873 0.0125918 0)
(-0.0532463 0.00615325 -2.79029e-18)
(-0.0550354 -0.0002891 0)
(-0.0556547 -0.00469666 0)
(-0.0547576 -0.00653273 5.43693e-18)
(-0.053211 -0.00661067 0)
(-0.0520364 -0.00573035 1.35839e-18)
(-0.0518399 -0.00422314 -4.07783e-18)
(-0.0526376 -0.00223127 0)
(-0.0540004 -0.000217224 0)
(-0.0554795 0.00124604 -6.81637e-19)
(-0.0570833 0.00219198 0)
(-0.0587934 0.00270918 1.21407e-22)
(-0.0605313 0.00294276 0)
(-0.0622522 0.00305814 6.90915e-19)
(-0.0639634 0.00321954 8.69147e-20)
(-0.0657395 0.00348508 0)
(-0.0676424 0.00384421 1.76411e-19)
(-0.0696899 0.00425787 -3.55748e-19)
(-0.0718666 0.00471694 -3.58923e-19)
(-0.0741425 0.00522212 -7.24727e-19)
(-0.0764815 0.00577634 7.32179e-19)
(-0.0788453 0.00638431 7.39669e-19)
(-0.081201 0.00704329 0)
(-0.083505 0.00772823 1.5164e-18)
(-0.0856447 0.00840613 -3.07534e-18)
(-0.0873593 0.00909802 0)
(-0.0882306 0.00998636 -1.59117e-18)
(-0.0877835 0.0114694 3.24629e-18)
(-0.0854885 0.0140279 0)
(-0.0806937 0.0182478 -1.69908e-18)
(-0.0726991 0.0246277 1.7836e-18)
(-0.0610036 0.0334365 -1.85094e-18)
(-0.0452503 0.0437771 -1.91991e-18)
(-0.0254109 0.0540992 0)
(-0.0017036 0.0621668 -3.94751e-18)
(0.0259189 0.0654316 -1.88732e-18)
(0.0573556 0.0615985 1.63621e-18)
(0.0907993 0.0498143 1.53109e-18)
(0.124694 0.0291256 2.56605e-18)
(0.156428 0.00232335 0)
(0.186477 -0.0240703 0)
(0.21409 -0.0460833 0)
(0.242228 -0.0644078 -1.31019e-18)
(0.273854 -0.0801702 0)
(0.309902 -0.0939096 3.21589e-18)
(0.349804 -0.105575 0)
(0.392614 -0.114801 -1.98658e-18)
(0.437443 -0.121111 -4.46339e-18)
(0.483489 -0.124079 0)
(0.530078 -0.123465 -2.47609e-18)
(0.576727 -0.119277 2.58074e-18)
(0.62318 -0.11179 0)
(0.669384 -0.10153 0)
(0.715532 -0.089199 0)
(0.761868 -0.0756388 -5.41354e-18)
(0.809269 -0.0617704 0)
(0.857032 -0.0487779 -1.88622e-18)
(0.910103 -0.0377649 3.37053e-18)
(0.95298 -0.0311025 0)
(1.03531 -0.030173 3.93423e-19)
(0.970611 0.209117 0)
(0.963917 0.194765 1.52538e-18)
(0.96643 0.198514 0)
(0.977152 0.206407 1.69462e-18)
(0.982034 0.208884 -3.00442e-18)
(0.968293 0.204266 -1.34114e-18)
(0.930748 0.193726 0)
(0.870757 0.177878 0)
(0.791131 0.156581 0)
(0.695412 0.131331 1.35112e-18)
(0.589481 0.105409 1.3829e-18)
(0.48005 0.0806998 0)
(0.369265 0.0579962 0)
(0.266647 0.0376059 0)
(0.17965 0.0185391 0)
(0.100392 0.00267239 6.40122e-18)
(0.0300593 -0.00993282 -3.38753e-18)
(-0.0310525 -0.00937957 0)
(-0.0328092 0.00101266 -3.28303e-18)
(-0.0346893 0.00246131 1.61857e-18)
(-0.0346255 0.00136473 3.21131e-18)
(-0.0358792 -0.00129493 0)
(-0.0390848 -0.00397524 0)
(-0.0434657 -0.00523336 -3.1204e-18)
(-0.0471788 -0.00435447 0)
(-0.049476 -0.00165788 -1.54403e-18)
(-0.0511585 0.00173345 1.54356e-18)
(-0.0536704 0.004249 0)
(-0.055816 0.00542485 0)
(-0.0580747 0.00597236 7.66971e-19)
(-0.060032 0.00603887 0)
(-0.06167 0.00576444 -7.70009e-19)
(-0.0629377 0.00531494 0)
(-0.0638181 0.00486668 -1.94795e-19)
(-0.0644378 0.00465694 -9.81361e-20)
(-0.0648857 0.0047718 -2.47592e-20)
(-0.0651849 0.00516746 -3.00004e-19)
(-0.0652389 0.00576866 4.04351e-19)
(-0.0649644 0.00646767 4.09355e-19)
(-0.0642906 0.00719934 1.24527e-18)
(-0.0631355 0.00793792 -4.21205e-19)
(-0.0614129 0.00866576 4.28462e-19)
(-0.0590616 0.00935069 0)
(-0.0560267 0.00991619 8.91876e-19)
(-0.0521942 0.0101853 9.13439e-19)
(-0.0472538 0.00985699 0)
(-0.0407326 0.00855941 1.93597e-18)
(-0.032737 0.00625129 1e-18)
(-0.0225297 0.00368295 0)
(-0.00990309 0.001464 -3.26604e-18)
(0.00661197 0.00017187 -2.23565e-18)
(0.0280556 0.000413546 1.10892e-18)
(0.054325 0.00201496 2.17253e-18)
(0.0860254 0.00408886 0)
(0.123174 0.00509013 9.83412e-19)
(0.164916 0.00319938 2.68725e-18)
(0.209951 -0.00316132 1.58797e-18)
(0.256189 -0.0145125 -1.39087e-18)
(0.303077 -0.0297189 -6.42634e-19)
(0.348931 -0.0471514 0)
(0.393246 -0.0660189 0)
(0.436026 -0.0850262 0)
(0.478138 -0.103101 1.71081e-18)
(0.520378 -0.119603 6.4515e-19)
(0.562669 -0.134041 0)
(0.604338 -0.145855 -1.56428e-18)
(0.644667 -0.154473 1.74048e-18)
(0.683156 -0.159449 -1.87498e-18)
(0.719555 -0.160567 -2.02331e-18)
(0.753853 -0.157875 1.27322e-19)
(0.786271 -0.151685 -2.42281e-18)
(0.817232 -0.142532 0)
(0.847297 -0.131116 0)
(0.877142 -0.118232 0)
(0.907375 -0.104743 0)
(0.938907 -0.0915296 0)
(0.971404 -0.0796404 3.67991e-18)
(1.0082 -0.069918 -1.3466e-18)
(1.03844 -0.0642823 0)
(1.09568 -0.062564 -4.24184e-19)
(0.972988 0.216082 0)
(0.965831 0.201808 1.87118e-18)
(0.959206 0.1956 2.49281e-19)
(0.961489 0.195546 1.90759e-18)
(0.972668 0.197536 0)
(0.985519 0.199235 -1.60778e-18)
(0.992497 0.199295 0)
(0.988452 0.196253 -3.62606e-19)
(0.970218 0.189032 0)
(0.935631 0.177562 -1.60611e-18)
(0.884731 0.162749 -1.24323e-18)
(0.819619 0.145667 -3.15502e-19)
(0.743325 0.126729 3.1319e-19)
(0.658088 0.106111 0)
(0.569158 0.0852834 3.13247e-19)
(0.47934 0.0662429 0)
(0.393492 0.0502677 2.65489e-18)
(0.314101 0.0363411 -3.51394e-19)
(0.247075 0.0242755 0)
(0.1924 0.0147265 -1.89987e-18)
(0.14778 0.00792498 0)
(0.110719 0.00341061 0)
(0.0798866 0.000822821 0)
(0.0539975 -0.000617517 0)
(0.0324847 -0.00158535 -2.21731e-19)
(0.0157125 -0.0020281 0)
(0.00282451 -0.00138555 0)
(-0.00262794 0.000689238 1.15617e-19)
(-0.00510861 0.00211237 0)
(-0.00516031 0.00310234 0)
(-0.00383525 0.00366123 0)
(-0.00158426 0.00390873 -5.87539e-20)
(0.00100083 0.00396647 0)
(0.00446111 0.00375689 -2.67972e-19)
(0.00749397 0.00423825 0)
(0.0111627 0.00509321 3.01237e-20)
(0.0155793 0.00564696 1.51394e-19)
(0.0209121 0.00564309 3.04002e-20)
(0.0273342 0.0053288 -6.10048e-20)
(0.0349232 0.00482663 -4.89286e-19)
(0.0438469 0.00412279 -4.89821e-19)
(0.0543258 0.00318243 4.89611e-19)
(0.0665598 0.00197675 -1.22099e-19)
(0.0807414 0.000470507 -9.72712e-19)
(0.0970729 -0.00139519 9.66344e-19)
(0.115539 -0.00368125 -1.19802e-19)
(0.136353 -0.00647582 0)
(0.158968 -0.00983727 -9.39603e-19)
(0.183552 -0.0137053 0)
(0.21018 -0.0179135 9.19709e-19)
(0.238851 -0.0221142 0)
(0.269778 -0.0261792 8.98292e-19)
(0.303287 -0.0300815 0)
(0.339743 -0.0340385 -2.12517e-19)
(0.379376 -0.0385761 -8.07303e-19)
(0.422073 -0.0444466 -7.48827e-19)
(0.467247 -0.0524198 1.73896e-19)
(0.513832 -0.063043 0)
(0.560415 -0.0766132 5.43728e-19)
(0.605574 -0.0926003 -1.37192e-19)
(0.648442 -0.11001 0)
(0.688615 -0.127479 1.36855e-19)
(0.725963 -0.143743 -5.33207e-19)
(0.76041 -0.15794 -5.88921e-19)
(0.791767 -0.169487 0)
(0.819811 -0.177924 1.47706e-18)
(0.844465 -0.182915 0)
(0.865908 -0.184312 1.83344e-18)
(0.884563 -0.182193 2.01206e-18)
(0.901054 -0.176849 2.17732e-18)
(0.916136 -0.168754 2.71026e-19)
(0.930638 -0.158513 0)
(0.945383 -0.146812 0)
(0.961166 -0.134377 0)
(0.978599 -0.121948 -2.69922e-19)
(0.998426 -0.110251 0)
(1.02027 -0.10009 -1.67631e-18)
(1.04663 -0.0921113 1.65072e-18)
(1.06864 -0.087534 1.04058e-19)
(1.1123 -0.0862928 4.512e-20)
(0.974194 0.218514 -1.23262e-18)
(0.970935 0.206364 1.19302e-18)
(0.965119 0.198172 -2.82083e-19)
(0.961139 0.194112 0)
(0.962197 0.191942 0)
(0.96826 0.190544 0)
(0.977772 0.189884 0)
(0.988502 0.189481 1.25265e-18)
(0.997432 0.188308 0)
(1.00093 0.185358 -1.11992e-18)
(0.995773 0.179955 -1.39607e-18)
(0.979839 0.171905 3.20092e-19)
(0.952675 0.161433 9.67043e-19)
(0.914336 0.148646 0)
(0.865647 0.133742 -1.47589e-18)
(0.80825 0.117845 0)
(0.746069 0.102471 -1.17987e-18)
(0.683645 0.0879748 2.95104e-19)
(0.622836 0.0743863 -1.23442e-18)
(0.565749 0.0621129 -9.5058e-19)
(0.513197 0.0513538 0)
(0.465536 0.0420954 0)
(0.422939 0.034219 -6.83297e-19)
(0.385362 0.027617 0)
(0.352668 0.0221552 -5.42542e-19)
(0.324647 0.0176556 0)
(0.300895 0.0138516 0)
(0.281189 0.0104784 -9.56159e-20)
(0.265387 0.00757 0)
(0.253148 0.0051288 0)
(0.244122 0.00308385 0)
(0.238025 0.00135388 5.05351e-20)
(0.234535 -0.000134983 2.04848e-19)
(0.233697 -0.00137033 1.29077e-19)
(0.235278 -0.00281372 0)
(0.239374 -0.00442506 0)
(0.245922 -0.00607608 -2.59745e-20)
(0.254821 -0.00779687 -1.30124e-19)
(0.266029 -0.00967693 5.17004e-20)
(0.279452 -0.0117873 0)
(0.295 -0.0141783 0)
(0.3126 -0.0168891 -2.04011e-19)
(0.332181 -0.0199537 1.00422e-19)
(0.353659 -0.023412 -4.00562e-19)
(0.376925 -0.0273109 3.96344e-19)
(0.401825 -0.0316968 9.69763e-20)
(0.42815 -0.0365808 0)
(0.455658 -0.0418352 3.84526e-19)
(0.484175 -0.0473209 0)
(0.51356 -0.052882 0)
(0.543711 -0.0583489 0)
(0.574629 -0.063619 0)
(0.606405 -0.0687266 0)
(0.639137 -0.0739069 1.78538e-19)
(0.67283 -0.0796052 0)
(0.707284 -0.0863987 6.71021e-19)
(0.742015 -0.0948426 -1.52839e-19)
(0.776259 -0.105276 0)
(0.809077 -0.117639 5.80275e-19)
(0.839541 -0.131339 1.27669e-19)
(0.866921 -0.145462 5.66427e-19)
(0.890753 -0.159008 -1.32108e-19)
(0.910833 -0.171088 0)
(0.927181 -0.18105 -6.6144e-19)
(0.939971 -0.188455 0)
(0.949514 -0.193027 0)
(0.956276 -0.194638 -8.5314e-19)
(0.960896 -0.193322 0)
(0.964148 -0.189283 0)
(0.966877 -0.182869 -1.06413e-18)
(0.969928 -0.174537 -2.95849e-19)
(0.974097 -0.164813 0)
(0.980078 -0.154263 0)
(0.988463 -0.143459 0)
(0.999634 -0.132974 3.01593e-19)
(1.01407 -0.123358 -1.03103e-18)
(1.03122 -0.11519 -2.40281e-19)
(1.05316 -0.108942 -1.88652e-19)
(1.07172 -0.10533 -1.17853e-19)
(1.11017 -0.104467 -2.40821e-19)
(0.974501 0.21901 4.35556e-18)
(0.973757 0.208036 -4.18224e-18)
(0.971714 0.200425 0)
(0.969159 0.196211 -2.53741e-18)
(0.967053 0.192937 0)
(0.966166 0.189312 -2.23737e-18)
(0.967419 0.185818 0)
(0.971669 0.183008 2.97947e-18)
(0.978977 0.18073 -3.69943e-18)
(0.988283 0.178484 1.68918e-18)
(0.99769 0.175773 1.57922e-18)
(1.00497 0.172151 0)
(1.00811 0.167265 -4.27178e-18)
(1.00544 0.160699 -2.72085e-18)
(0.995587 0.15211 3.82434e-18)
(0.977795 0.141797 0)
(0.953045 0.130625 1.17141e-18)
(0.923753 0.119347 0)
(0.891694 0.108146 1.1679e-18)
(0.858158 0.097005 1.16761e-18)
(0.824183 0.0861316 0)
(0.79076 0.0758044 0)
(0.75877 0.0662281 -6.39449e-19)
(0.728885 0.0575084 0)
(0.701549 0.0496285 6.21023e-19)
(0.676996 0.0425032 0)
(0.655349 0.0360372 0)
(0.636639 0.0301427 0)
(0.620897 0.0247291 0)
(0.60806 0.0197121 0)
(0.598051 0.0150128 0)
(0.590799 0.0105631 0)
(0.586224 0.00629354 1.77034e-19)
(0.584203 0.00214263 -8.59077e-20)
(0.584502 -0.00203321 4.39917e-20)
(0.587231 -0.00626475 0)
(0.592292 -0.0105285 0)
(0.599494 -0.0148382 8.62407e-20)
(0.608691 -0.0192449 -3.52023e-19)
(0.619748 -0.0237896 3.51519e-19)
(0.63252 -0.028499 0)
(0.646854 -0.0333937 8.71218e-19)
(0.662584 -0.0384917 -6.9875e-19)
(0.679534 -0.0438083 -3.57557e-19)
(0.697511 -0.0493536 -3.38665e-19)
(0.7163 -0.0551224 0)
(0.735669 -0.0610758 0)
(0.755386 -0.0671244 -1.03387e-18)
(0.775256 -0.0731649 0)
(0.795127 -0.0790948 0)
(0.814911 -0.0848257 0)
(0.834587 -0.0903292 7.04971e-19)
(0.854185 -0.0956866 1.40822e-18)
(0.873735 -0.101111 0)
(0.893195 -0.106928 0)
(0.912383 -0.113512 -6.49744e-19)
(0.93093 -0.121177 0)
(0.948298 -0.130052 1.29369e-18)
(0.963845 -0.139996 6.86348e-19)
(0.976953 -0.150584 0)
(0.987155 -0.161191 6.99319e-19)
(0.99424 -0.171131 1.33332e-18)
(0.998267 -0.179768 1.40449e-18)
(0.999532 -0.186605 7.13087e-19)
(0.998499 -0.191324 -1.61444e-18)
(0.995743 -0.19376 1.7452e-18)
(0.991917 -0.193885 2.83107e-18)
(0.987734 -0.191791 0)
(0.983921 -0.187684 0)
(0.981179 -0.181863 1.19577e-18)
(0.980131 -0.174689 0)
(0.981308 -0.166571 2.50057e-18)
(0.985128 -0.15794 2.53358e-18)
(0.991923 -0.149241 0)
(1.00186 -0.140917 2.40389e-18)
(1.01522 -0.133397 -1.04171e-18)
(1.03136 -0.12712 0)
(1.05219 -0.122429 0)
(1.06985 -0.119765 0)
(1.10676 -0.11932 -1.93182e-19)
(0.974733 0.218938 -3.35522e-18)
(0.975458 0.208201 3.21192e-18)
(0.976056 0.201058 -6.23798e-18)
(0.975936 0.197366 2.86981e-18)
(0.974875 0.19446 0)
(0.9732 0.190785 2.53039e-18)
(0.971487 0.186584 -4.84388e-18)
(0.970472 0.182339 -4.49097e-18)
(0.970994 0.178129 -7.92488e-20)
(0.973704 0.17395 0)
(0.978806 0.169868 0)
(0.985964 0.165856 3.5972e-18)
(0.994363 0.161684 3.29237e-18)
(1.00283 0.15694 -3.27816e-18)
(1.00995 0.151228 -8.89964e-18)
(1.01427 0.144451 0)
(1.01489 0.136908 0)
(1.01186 0.128902 0)
(1.00564 0.120422 0)
(0.996716 0.11145 0)
(0.985582 0.102193 0)
(0.972869 0.092929 0)
(0.959259 0.0838682 1.24035e-18)
(0.945383 0.0751254 -2.58706e-18)
(0.931766 0.0667351 0)
(0.918814 0.0586972 0)
(0.906846 0.0510036 0)
(0.896104 0.0436246 0)
(0.886754 0.0365006 0)
(0.878896 0.0295885 -6.62344e-19)
(0.872592 0.0228608 0)
(0.867881 0.0162891 0)
(0.864765 0.00983871 1.26107e-20)
(0.863187 0.00344592 0)
(0.863053 -0.00275329 -4.10386e-20)
(0.864314 -0.00881939 0)
(0.866882 -0.014837 1.70758e-19)
(0.870633 -0.0208383 0)
(0.875453 -0.0268406 6.72533e-19)
(0.881232 -0.0328599 -3.30582e-19)
(0.887849 -0.038908 -6.88701e-19)
(0.895175 -0.0449918 -6.64796e-19)
(0.903073 -0.0511138 6.67203e-19)
(0.911399 -0.0572721 6.70102e-19)
(0.920004 -0.0634585 1.40129e-18)
(0.928733 -0.0696528 1.41036e-18)
(0.937434 -0.0758157 0)
(0.945967 -0.0818848 -7.44065e-19)
(0.954231 -0.0877876 0)
(0.96217 -0.0934601 0)
(0.969777 -0.0988642 -1.48099e-18)
(0.977091 -0.104015 -7.23844e-19)
(0.984175 -0.109005 4.75875e-20)
(0.991077 -0.114013 0)
(0.99778 -0.119284 0)
(1.00416 -0.125076 0)
(1.00996 -0.131596 1.49345e-18)
(1.01483 -0.138917 -1.39932e-18)
(1.01835 -0.146929 -1.38849e-18)
(1.02017 -0.15533 0)
(1.02007 -0.16367 -1.42668e-18)
(1.01804 -0.171441 9.51711e-20)
(1.0143 -0.17817 -1.57431e-18)
(1.00922 -0.183491 1.75567e-18)
(1.00328 -0.187171 -4.75681e-20)
(0.997027 -0.189098 -1.9775e-18)
(0.99101 -0.189257 -2.14161e-18)
(0.985767 -0.187714 0)
(0.981796 -0.184615 0)
(0.979537 -0.180168 0)
(0.979358 -0.17464 0)
(0.981553 -0.168342 -2.83772e-18)
(0.986349 -0.161618 -2.87334e-18)
(0.993935 -0.154837 0)
(1.00439 -0.148376 -2.72408e-18)
(1.01795 -0.1426 4.91045e-18)
(1.03401 -0.137865 0)
(1.05445 -0.134412 0)
(1.07172 -0.132557 0)
(1.1076 -0.132326 9.13954e-19)
(0.975035 0.218502 8.34169e-18)
(0.977127 0.207476 0)
(0.979623 0.200808 1.42778e-17)
(0.980942 0.19772 0)
(0.980747 0.195178 6.21479e-18)
(0.979837 0.191819 0)
(0.978655 0.187904 5.47386e-18)
(0.977181 0.183661 0)
(0.975604 0.178993 -5.03745e-18)
(0.974439 0.173897 0)
(0.97427 0.168549 8.8824e-18)
(0.975577 0.163112 -4.11181e-18)
(0.978659 0.157621 0)
(0.983536 0.151978 7.30883e-18)
(0.989865 0.146032 -1.87028e-19)
(0.99699 0.139703 -6.68304e-18)
(1.00405 0.133126 6.47717e-18)
(1.01036 0.12639 0)
(1.01554 0.119354 0)
(1.01936 0.111922 6.08742e-18)
(1.02166 0.104162 0)
(1.02251 0.0962148 -2.96146e-18)
(1.02211 0.0881968 0)
(1.02073 0.0801836 2.80499e-18)
(1.01864 0.0722195 0)
(1.01612 0.0643323 2.8969e-18)
(1.01338 0.0565381 0)
(1.01062 0.0488358 0)
(1.008 0.0412148 1.44746e-18)
(1.00562 0.0336753 6.95697e-19)
(1.00358 0.0262249 0)
(1.00194 0.018867 0)
(1.00073 0.0116035 -1.08749e-18)
(0.999977 0.00443671 0)
(0.999644 -0.00254136 0)
(0.999699 -0.00938599 0)
(1.00013 -0.0161594 -1.78041e-19)
(1.00089 -0.0228738 0)
(1.00194 -0.0295247 -1.10544e-18)
(1.00321 -0.0361113 -7.50452e-19)
(1.00465 -0.0426346 7.24481e-19)
(1.0062 -0.0490924 0)
(1.0078 -0.0554795 0)
(1.00937 -0.0617882 1.54297e-18)
(1.01085 -0.0680069 -1.49734e-18)
(1.01219 -0.0741168 -1.51395e-18)
(1.01332 -0.0800893 0)
(1.01422 -0.0858845 -5.81627e-20)
(1.01487 -0.0914604 1.63443e-18)
(1.01531 -0.0967872 0)
(1.01559 -0.101862 1.62769e-18)
(1.0158 -0.106725 1.70302e-18)
(1.01604 -0.11147 -1.66974e-18)
(1.01636 -0.116247 0)
(1.01677 -0.121243 0)
(1.01718 -0.12665 0)
(1.01744 -0.132611 -1.68101e-18)
(1.01729 -0.139169 0)
(1.01649 -0.146235 0)
(1.01481 -0.153584 0)
(1.01215 -0.160882 3.65888e-18)
(1.00855 -0.167751 -1.80204e-18)
(1.00419 -0.173836 0)
(0.999385 -0.178846 -2.00243e-18)
(0.994482 -0.182576 -2.22488e-18)
(0.989869 -0.184906 4.61692e-18)
(0.985915 -0.185785 -4.89234e-18)
(0.982961 -0.185229 -5.17406e-18)
(0.98131 -0.18332 0)
(0.981224 -0.180205 -5.69753e-18)
(0.982923 -0.176093 0)
(0.986598 -0.171246 0)
(0.992414 -0.165973 0)
(1.00054 -0.160614 5.99125e-18)
(1.01109 -0.155522 -5.73813e-18)
(1.02435 -0.151031 -8.00159e-18)
(1.03982 -0.147444 0)
(1.05937 -0.144925 3.60912e-18)
(1.0759 -0.143681 0)
(1.11022 -0.143526 -1.50472e-18)
(0.975434 0.21769 -9.46203e-18)
(0.979143 0.20609 -9.21047e-18)
(0.983423 0.200245 -1.64441e-17)
(0.98558 0.197996 0)
(0.985486 0.195678 -1.41309e-17)
(0.984786 0.192413 -6.73181e-18)
(0.9842 0.188725 0)
(0.983452 0.184719 1.19978e-17)
(0.982353 0.180193 1.12e-17)
(0.981033 0.175095 0)
(0.979702 0.169516 -1.00454e-17)
(0.978603 0.163553 0)
(0.97805 0.157269 0)
(0.978376 0.150691 8.71027e-18)
(0.979803 0.14382 8.07305e-18)
(0.982395 0.13669 -1.82317e-19)
(0.986005 0.129512 1.84344e-19)
(0.990362 0.12244 0)
(0.995173 0.115375 0)
(1.00009 0.108199 -6.9753e-18)
(1.00479 0.100887 -7.06612e-18)
(1.00904 0.0934783 1.03563e-17)
(1.01274 0.086018 3.45177e-18)
(1.01588 0.0785363 3.42352e-18)
(1.01848 0.0710508 0)
(1.02058 0.0635711 -3.27237e-18)
(1.02225 0.0561017 0)
(1.02353 0.0486432 0)
(1.02448 0.0411959 -3.3061e-18)
(1.02514 0.0337669 0)
(1.02555 0.0263694 0)
(1.02574 0.0190178 0)
(1.02573 0.0117289 8.20324e-19)
(1.02556 0.00453597 -4.27729e-19)
(1.02527 -0.00254538 2.13728e-19)
(1.02488 -0.00951587 0)
(1.02441 -0.0163903 0)
(1.02388 -0.0231727 0)
(1.02327 -0.029859 8.34029e-19)
(1.02257 -0.0364468 8.38861e-19)
(1.02179 -0.0429351 -1.75011e-18)
(1.02091 -0.0493216 0)
(1.01993 -0.0556019 0)
(1.01884 -0.0617704 -3.53037e-18)
(1.01762 -0.0678189 -1.81414e-18)
(1.0163 -0.0737352 0)
(1.01486 -0.0795015 0)
(1.01333 -0.0850953 1.82499e-18)
(1.01174 -0.0904957 5.64112e-20)
(1.01016 -0.0956933 0)
(1.00866 -0.100701 0)
(1.00733 -0.105563 -1.9371e-18)
(1.00624 -0.110364 0)
(1.00544 -0.115223 0)
(1.00493 -0.120286 0)
(1.00465 -0.125695 0)
(1.00447 -0.131552 0)
(1.00421 -0.137886 -4.16435e-18)
(1.00368 -0.144629 0)
(1.00272 -0.151608 0)
(1.00125 -0.158567 1.6737e-19)
(0.999276 -0.165205 0)
(0.996925 -0.171227 0)
(0.994387 -0.176369 0)
(0.991898 -0.180429 9.98092e-18)
(0.989705 -0.183264 -5.23035e-18)
(0.988042 -0.184796 5.5346e-18)
(0.987127 -0.185007 1.46073e-20)
(0.987154 -0.183945 0)
(0.988307 -0.181726 6.42742e-18)
(0.990757 -0.178535 -6.54655e-18)
(0.994686 -0.17462 0)
(1.00028 -0.170282 0)
(1.00777 -0.165857 -1.46062e-19)
(1.01734 -0.161693 6.48748e-18)
(1.02937 -0.158114 5.97913e-18)
(1.04348 -0.155373 0)
(1.06159 -0.153592 -4.09679e-18)
(1.07699 -0.152797 0)
(1.10948 -0.152726 1.13414e-18)
(0.975986 0.216474 0)
(0.981692 0.204215 2.12173e-17)
(0.987769 0.199647 1.88241e-17)
(0.990441 0.198411 0)
(0.990122 0.196236 8.03058e-18)
(0.989271 0.192974 -7.77115e-18)
(0.988772 0.189389 0)
(0.98828 0.185462 -1.35664e-17)
(0.987611 0.180998 0)
(0.986852 0.175995 0)
(0.986039 0.170512 0)
(0.985145 0.164577 0)
(0.984206 0.1582 0)
(0.983343 0.151385 1.82805e-19)
(0.982701 0.144141 -9.52979e-18)
(0.982426 0.13652 -1.82176e-19)
(0.982659 0.128776 1.83589e-19)
(0.983499 0.121145 0)
(0.984944 0.113609 0)
(0.986874 0.106091 0)
(0.989102 0.098572 -2.0255e-19)
(0.991462 0.0910732 2.06469e-19)
(0.99384 0.0836204 -3.95275e-18)
(0.996164 0.0762237 -3.92158e-18)
(0.99838 0.06888 0)
(1.00044 0.0615801 -3.98603e-18)
(1.00231 0.0543146 3.97349e-18)
(1.00397 0.0470751 0)
(1.00538 0.0398561 1.92539e-18)
(1.00655 0.0326583 1.98353e-18)
(1.00745 0.0254903 0)
(1.00808 0.0183663 0)
(1.00845 0.0113008 1.00232e-18)
(1.00859 0.00433103 -1.48585e-20)
(1.00855 -0.00257539 -4.94849e-19)
(1.00834 -0.00938974 0)
(1.00799 -0.0161055 0)
(1.00753 -0.0227301 -1.01141e-18)
(1.00696 -0.0292659 0)
(1.0063 -0.035712 -1.0214e-18)
(1.00555 -0.0420667 -5.89967e-20)
(1.00472 -0.0483284 0)
(1.00383 -0.0544937 2.08831e-18)
(1.00289 -0.0605583 4.15652e-18)
(1.00191 -0.0665158 2.07053e-18)
(1.0009 -0.0723574 0)
(0.999886 -0.0780708 -4.35442e-18)
(0.998891 -0.083642 0)
(0.997952 -0.0890595 -2.1775e-18)
(0.997119 -0.0943218 0)
(0.996452 -0.0994456 0)
(0.99601 -0.104472 0)
(0.995847 -0.109473 0)
(0.995989 -0.114545 0)
(0.996426 -0.119804 -4.77908e-18)
(0.997102 -0.125359 4.81137e-18)
(0.997908 -0.13129 0)
(0.998703 -0.137617 4.72569e-18)
(0.999333 -0.144282 -4.91707e-18)
(0.999664 -0.151145 0)
(0.999614 -0.15799 -4.91159e-18)
(0.999169 -0.164563 0)
(0.998384 -0.170596 0)
(0.997366 -0.175843 0)
(0.996256 -0.180099 -5.68086e-18)
(0.995203 -0.18321 6.02212e-18)
(0.994355 -0.18508 -6.29111e-18)
(0.993857 -0.185672 1.31402e-17)
(0.993862 -0.185019 -6.84046e-18)
(0.994538 -0.18323 0)
(0.996081 -0.180488 7.39254e-18)
(0.998722 -0.177048 -7.44545e-18)
(1.00273 -0.173223 0)
(1.00843 -0.169361 -1.17203e-19)
(1.01609 -0.165812 -7.10855e-18)
(1.02622 -0.1629 0)
(1.03854 -0.160827 0)
(1.05504 -0.159719 -4.5723e-18)
(1.06924 -0.159281 0)
(1.10035 -0.15948 -1.2866e-18)
(0.976761 0.214804 0)
(0.984936 0.20201 -1.22239e-17)
(0.992771 0.199204 -1.0705e-17)
(0.995649 0.198991 0)
(0.994983 0.196871 1.84287e-17)
(0.993957 0.193635 1.74025e-17)
(0.993389 0.19014 0)
(0.992828 0.186205 1.56671e-17)
(0.992161 0.181685 -1.48776e-17)
(0.99156 0.176662 0)
(0.991075 0.171202 0)
(0.990636 0.165313 0)
(0.990183 0.158987 0)
(0.989695 0.152209 -1.13236e-17)
(0.989164 0.144966 -1.11278e-17)
(0.988597 0.137281 1.02285e-17)
(0.988068 0.129389 -3.02784e-17)
(0.987699 0.12154 0)
(0.987572 0.113753 0)
(0.98769 0.10599 9.70297e-18)
(0.988003 0.0982516 1.8977e-17)
(0.988458 0.0905693 -9.29166e-18)
(0.989024 0.082972 0)
(0.989681 0.0754708 0)
(0.990407 0.0680617 -4.65946e-18)
(0.991174 0.0607339 9.17945e-18)
(0.991954 0.0534759 -9.15668e-18)
(0.992715 0.0462766 0)
(0.99343 0.0391268 0)
(0.994072 0.0320229 -2.26046e-18)
(0.994622 0.0249683 0)
(0.995063 0.0179708 2.3308e-18)
(0.99539 0.0110437 -1.14219e-18)
(0.995624 0.00418571 -1.44944e-20)
(0.995773 -0.00261372 -7.26771e-21)
(0.995842 -0.00933077 0)
(0.995847 -0.0159584 0)
(0.995802 -0.0225044 -2.89983e-20)
(0.995716 -0.0289727 1.18354e-18)
(0.995595 -0.0353619 3.53989e-18)
(0.995444 -0.0416701 4.7294e-18)
(0.995274 -0.0478955 2.41028e-18)
(0.995092 -0.0540356 -2.37122e-18)
(0.994907 -0.0600865 -2.39222e-18)
(0.994727 -0.0660428 2.47285e-18)
(0.994562 -0.0718972 0)
(0.994427 -0.0776405 4.93682e-18)
(0.994338 -0.0832628 -5.10828e-18)
(0.994325 -0.0887573 0)
(0.99442 -0.094126 0)
(0.994664 -0.0993862 0)
(0.9951 -0.104576 0)
(0.995757 -0.109755 0)
(0.996649 -0.115008 0)
(0.997759 -0.120426 5.39656e-18)
(0.999031 -0.126099 -1.09889e-17)
(1.00037 -0.132088 -5.59818e-18)
(1.00166 -0.138407 5.64186e-18)
(1.00275 -0.145001 5.54436e-18)
(1.00352 -0.151746 -5.76949e-18)
(1.00387 -0.15845 5.86865e-18)
(1.00374 -0.164882 0)
(1.00314 -0.170791 6.16464e-18)
(1.00209 -0.175938 -6.36466e-18)
(1.00066 -0.180115 0)
(0.998919 -0.183163 -1.3649e-17)
(0.996983 -0.184977 7.10215e-18)
(0.994983 -0.185522 -1.4854e-17)
(0.993096 -0.184837 7.74501e-18)
(0.991551 -0.183047 0)
(0.990634 -0.180357 8.22904e-18)
(0.990691 -0.177046 8.48399e-18)
(0.992105 -0.173448 -8.45908e-18)
(0.995312 -0.169929 -8.46181e-18)
(1.00069 -0.166837 8.15176e-18)
(1.00881 -0.164501 0)
(1.01947 -0.16306 0)
(1.03478 -0.162691 5.2628e-18)
(1.04818 -0.162624 0)
(1.0792 -0.163457 1.48454e-18)
(0.977833 0.212617 1.62087e-17)
(0.988995 0.19965 0)
(0.998472 0.199058 -2.40992e-17)
(1.00125 0.199733 2.18332e-17)
(1.00018 0.19759 -2.08205e-17)
(0.99903 0.194434 1.99695e-17)
(0.998399 0.191033 0)
(0.997724 0.187058 1.60213e-19)
(0.996946 0.182455 1.67968e-17)
(0.996278 0.177367 0)
(0.995791 0.171857 0)
(0.995442 0.165931 0)
(0.995188 0.159586 2.77125e-17)
(0.995003 0.152813 0)
(0.994847 0.145595 2.46952e-17)
(0.994671 0.13794 0)
(0.994464 0.130056 4.61896e-17)
(0.994267 0.122182 0)
(0.994122 0.114345 0)
(0.994032 0.10652 -2.20856e-17)
(0.993974 0.0987122 -1.08167e-17)
(0.993934 0.090955 0)
(0.993915 0.0832783 0)
(0.993933 0.0756967 0)
(0.994 0.0682108 5.26121e-18)
(0.994118 0.0608147 -5.24407e-18)
(0.994283 0.0535001 -1.07974e-19)
(0.994486 0.046258 0)
(0.994715 0.0390796 5.33988e-18)
(0.994958 0.0319608 0)
(0.995202 0.0249034 0)
(0.995437 0.0179111 -2.63455e-18)