/*--------------------------------*- C++ -*----------------------------------*\
| =========                 |                                                 |
| \\      /  F ield         | OpenFOAM: The Open Source CFD Toolbox           |
|  \\    /   O peration     | Version:  v1912                                 |
|   \\  /    A nd           | Website:  www.openfoam.com                      |
|    \\/     M anipulation  |                                                 |
\*---------------------------------------------------------------------------*/
FoamFile
{
    version     2.0;
    format      ascii;
    class       volScalarField;
    location    "900";
    object      alphat;
}
// * * * * * * * * * * * * * * * * * * * * * * * * * * * * * * * * * * * * * //

dimensions      [0 2 -1 0 0 0 0];


internalField   nonuniform List<scalar> 
4000
(
0.00046216
0.000440171
0.000409875
0.000353328
0.000167718
0.000142697
0.000129221
0.000120862
0.000132166
0.000102379
0.000152969
0.000122579
0.000120129
0.000127936
0.00013948
0.000167249
0.00035991
0.000412938
0.000442409
0.000464044
0.000484354
0.000458782
0.000413742
0.000367008
0.000306943
0.000222577
0.000165531
0.000163875
0.000160235
0.000128799
0.000182702
0.00016561
0.000164
0.000165066
0.000224232
0.000308516
0.00037039
0.000415632
0.000460388
0.000486142
0.000498241
0.000477366
0.000433855
0.000382529
0.000341673
0.000298967
0.000259081
0.000197299
0.000177445
0.000184803
0.000190486
0.000182168
0.000198757
0.000260354
0.000299559
0.000342322
0.000383475
0.000434998
0.000478689
0.000499867
0.000506693
0.000492151
0.000456915
0.000408012
0.000362714
0.000321535
0.000284706
0.000245873
0.000203418
0.000197556
0.000197045
0.00020742
0.000247975
0.000286218
0.000322417
0.000363563
0.00040863
0.000458177
0.000493459
0.000508201
0.000513283
0.000506529
0.000485099
0.000453846
0.00042047
0.000381562
0.000342259
0.000304359
0.000267471
0.000251339
0.000257445
0.000274797
0.000309003
0.000346598
0.00038593
0.000422603
0.000455465
0.000486523
0.000507883
0.000514715
0.000519459
0.000521906
0.000514481
0.000501322
0.000486837
0.000471065
0.00045487
0.000437639
0.000421494
0.000406843
0.000408317
0.000423628
0.0004399
0.00045713
0.000473182
0.000488734
0.000503042
0.000516068
0.000523396
0.000520854
0.000526438
0.0005383
0.000543705
0.000544503
0.00054307
0.000538671
0.0005315
0.000521275
0.000508183
0.000490893
0.00049138
0.000508863
0.000522311
0.000532777
0.000540125
0.000544628
0.000546113
0.000545306
0.000539844
0.000527794
0.000534722
0.000556141
0.000572431
0.000583363
0.000590661
0.000593679
0.000592572
0.000586445
0.00057431
0.000553708
0.000553757
0.00057431
0.000586874
0.000593372
0.000594795
0.00059202
0.000584879
0.00057401
0.000557696
0.000536039
0.000545492
0.000577933
0.000603969
0.000623089
0.000637185
0.000645699
0.000649042
0.000645968
0.000634202
0.000609923
0.000609682
0.000633823
0.00064611
0.000649666
0.000646711
0.000638484
0.000624565
0.000605523
0.00057946
0.000546761
0.000561398
0.000603845
0.000637741
0.000662502
0.000681583
0.000695472
0.000704303
0.000707026
0.000701096
0.00067957
0.000679072
0.00070057
0.000706959
0.000704653
0.000696173
0.00068257
0.000663706
0.000639084
0.000605225
0.000562592
0.000440181
0.00043942
0.0004046
0.000349784
0.000198773
0.000195549
0.000177747
0.000143473
0.000105274
0.000238364
9.66787e-05
0.000151309
0.000156799
0.000178057
0.000191117
0.000198534
0.000359278
0.000409251
0.000442998
0.000443028
0.000458791
0.000664832
0.00059332
0.000465227
0.000414658
0.000409592
0.000390469
0.000358991
0.000377609
0.000431632
0.000412524
0.000379993
0.000361787
0.000395338
0.000411152
0.000417962
0.000474606
0.000604828
0.000663469
0.000461618
0.000477374
0.000738267
0.000798702
0.000649771
0.000533292
0.000474047
0.000444985
0.000414918
0.000408842
0.000476393
0.000470573
0.000409067
0.000417569
0.000447158
0.000475903
0.000536875
0.000655138
0.000800316
0.000736809
0.000479941
0.000492156
0.000727661
0.000763255
0.000687785
0.000577547
0.00049879
0.000444959
0.0004074
0.000403065
0.000485382
0.00047976
0.000401405
0.000409099
0.000447673
0.000502433
0.000582557
0.000693734
0.00076765
0.000730314
0.000494484
0.00050653
0.000738263
0.000766654
0.000687704
0.00057603
0.000491188
0.000431721
0.000382115
0.00034693
0.000355849
0.000355688
0.000348239
0.000384899
0.000435493
0.000495672
0.000580298
0.000692452
0.000771775
0.000742467
0.0005086
0.000521906
0.000757761
0.00079578
0.000749092
0.000646707
0.000535143
0.000470745
0.00041778
0.000381899
0.000372221
0.000373302
0.00038437
0.000420739
0.000474035
0.000538519
0.000649533
0.000753567
0.000800753
0.000762148
0.000523717
0.000538301
0.000773828
0.000824504
0.000824742
0.000786159
0.000705876
0.000603138
0.000530059
0.000489286
0.00046852
0.000469822
0.000491561
0.000532817
0.00060799
0.000711241
0.000790805
0.000829554
0.000829235
0.00077813
0.000539885
0.000556142
0.000780213
0.000843451
0.000894268
0.000934397
0.000944302
0.000925893
0.000872875
0.000798964
0.000718894
0.000720962
0.000801833
0.000877353
0.000929813
0.000949025
0.000939803
0.000899846
0.000848157
0.000784368
0.000557573
0.000577933
0.000758619
0.000847805
0.000914418
0.000960568
0.00097533
0.000970738
0.00094193
0.000876239
0.00076953
0.000769395
0.000874776
0.000942711
0.000973465
0.00097946
0.000965434
0.000919272
0.000852104
0.000762115
0.000579259
0.000603846
0.000650933
0.000690081
0.000720301
0.000745
0.000764289
0.000777949
0.000784185
0.00077966
0.000758303
0.000757523
0.000778959
0.000784022
0.000778277
0.000765028
0.000746059
0.000721573
0.000691455
0.000652278
0.000604934
0.000409901
0.000404594
0.000372868
0.000293643
0.000208257
0.000223874
0.000200451
0.000172346
0.000188194
0.000107912
0.000246772
0.00012441
0.000184411
0.000201004
0.000220717
0.00020908
0.000315112
0.000380232
0.000409237
0.00041345
0.00041374
0.000593327
0.000525068
0.000438127
0.000462789
0.000476225
0.000450004
0.000434725
0.000452272
0.000498034
0.000500387
0.000447088
0.000437902
0.000450673
0.000471386
0.000453454
0.000445122
0.000541214
0.000608579
0.000417511
0.000433843
0.000798712
0.000799434
0.00066789
0.000587487
0.000551017
0.000536138
0.000515037
0.000511284
0.000561953
0.000555968
0.000509836
0.00051506
0.000535348
0.00054962
0.000587832
0.000674238
0.000814757
0.000803497
0.000437537
0.000456899
0.000763272
0.000846396
0.000776259
0.00067365
0.000598421
0.000549269
0.000521421
0.000530531
0.00058697
0.000581592
0.000527723
0.000522577
0.000552232
0.000603083
0.000680897
0.000787399
0.000857713
0.000770521
0.000460252
0.000485083
0.000766683
0.000834108
0.000775603
0.000669584
0.000583678
0.000523152
0.000478776
0.000458287
0.000495056
0.000493723
0.00045816
0.000481235
0.000527144
0.000588918
0.000676087
0.000784011
0.000843844
0.000774733
0.000487779
0.000514469
0.000795813
0.00087191
0.000826946
0.000706134
0.000585773
0.00050402
0.000441466
0.000395958
0.00038541
0.000385311
0.000396602
0.00044346
0.000507032
0.00058928
0.000709857
0.000832971
0.000880253
0.00080338
0.000516704
0.0005437
0.00082454
0.000918399
0.000904324
0.000805188
0.00067831
0.000570081
0.000491773
0.000439617
0.000415171
0.000415612
0.000440249
0.000493571
0.000573329
0.000682206
0.000809
0.000909925
0.000925995
0.000831598
0.00054549
0.000572429
0.000843485
0.000970977
0.00101941
0.000995575
0.00091669
0.000838789
0.00076308
0.000687333
0.000604822
0.000604426
0.000687807
0.00076657
0.000842888
0.000922112
0.00100142
0.00102609
0.000978727
0.000850133
0.000573939
0.000603969
0.000847826
0.00105536
0.00123027
0.00133545
0.00135768
0.00135006
0.00131392
0.00122233
0.00103006
0.0010295
0.00121964
0.00131588
0.00135534
0.00136504
0.00134374
0.00123838
0.00106274
0.000853357
0.000605352
0.000637742
0.000690082
0.000733841
0.000768769
0.000798238
0.000822064
0.000839905
0.000849338
0.000846302
0.000823124
0.000822067
0.000845456
0.000849103
0.000840207
0.000822819
0.000799326
0.000770053
0.000735191
0.000691361
0.000638752
0.000353976
0.000350058
0.000293763
0.000220237
0.0002357
0.000230632
0.000209568
0.000191167
0.000179755
0.000167092
0.000169295
0.000174039
0.000191225
0.000210084
0.000230872
0.000232863
0.000222802
0.000314843
0.000359286
0.000361102
0.000367141
0.000465316
0.000438173
0.000460922
0.000507651
0.000500972
0.000485967
0.000484648
0.00050785
0.000565334
0.000556607
0.000504912
0.00048531
0.000484329
0.000494899
0.000496556
0.000451689
0.000445489
0.000476349
0.000371889
0.00038253
0.000649797
0.000667905
0.000625655
0.000600752
0.00059367
0.000588027
0.000571214
0.000576156
0.000630088
0.000621943
0.000571856
0.000569124
0.000584654
0.000589607
0.000597496
0.000626188
0.000676111
0.000659812
0.000385814
0.000407972
0.000687802
0.000776269
0.000747236
0.000689938
0.000642366
0.000610925
0.000596901
0.00060882
0.000653084
0.00064868
0.000605852
0.000597348
0.000613487
0.000646669
0.00069665
0.000757532
0.000790507
0.000699347
0.000411238
0.000453807
0.000687752
0.000775639
0.000763419
0.000702632
0.000641095
0.000593407
0.00056058
0.000555025
0.00061145
0.000611107
0.000555805
0.000563679
0.000598269
0.000647554
0.000710912
0.000774132
0.000788305
0.000698937
0.000457122
0.000501285
0.000749153
0.000827005
0.000813967
0.000738399
0.000646454
0.000572027
0.000513792
0.000471718
0.000465634
0.0004655
0.000472368
0.000516382
0.000576258
0.000651978
0.000745101
0.000822765
0.000838228
0.000759729
0.000503836
0.000544487
0.000824802
0.000904397
0.000903835
0.000832276
0.000721933
0.000621183
0.000540951
0.000478335
0.000445281
0.000444944
0.000478844
0.000543621
0.000625763
0.000727831
0.000839208
0.000912557
0.000915311
0.000834254
0.000546362
0.000583356
0.00089432
0.00101949
0.00107218
0.00104615
0.000960444
0.00087011
0.000785393
0.000699449
0.000609963
0.0006085
0.000699883
0.000789255
0.000876449
0.000968661
0.00105578
0.00108352
0.00103087
0.000902451
0.000584853
0.000623086
0.000914458
0.00123031
0.00150179
0.00160957
0.00162259
0.00161167
0.00156299
0.00143631
0.00121533
0.00121056
0.00143495
0.00156741
0.00161989
0.00163364
0.00162159
0.00151363
0.00124078
0.00092138
0.00062444
0.000662501
0.0007203
0.000768769
0.000808671
0.000843749
0.00087324
0.000896036
0.000909318
0.000908529
0.000888797
0.000887325
0.000907552
0.000909004
0.000896283
0.000873966
0.000844811
0.000809905
0.000770023
0.000721441
0.000663381
0.000167015
0.000197459
0.000208331
0.000236394
0.000238646
0.000228057
0.000213275
0.000198851
0.000185205
0.000179449
0.000177657
0.000185853
0.000200114
0.000215123
0.000229609
0.000239072
0.000233206
0.000209385
0.000198872
0.000168337
0.000307145
0.000414831
0.000462834
0.000507681
0.000519279
0.000514546
0.000510563
0.00051435
0.000545867
0.000624528
0.000612512
0.000540346
0.000513909
0.000508895
0.00050891
0.000511161
0.000497092
0.000454412
0.000419252
0.000310396
0.00034166
0.000533318
0.0005875
0.00060076
0.000610945
0.00061886
0.000613678
0.00059966
0.000613012
0.000689664
0.000677852
0.000607487
0.000597358
0.000609573
0.000613637
0.000606259
0.000598263
0.000589827
0.000540114
0.000344321
0.000362699
0.000577548
0.000673653
0.000689938
0.000675677
0.000657809
0.000645903
0.000641698
0.000652938
0.000706781
0.000700027
0.00064991
0.000641675
0.00064793
0.000661222
0.000681076
0.000697772
0.000683963
0.000586744
0.000365911
0.000420491
0.000576071
0.00066962
0.000702646
0.000689842
0.000661235
0.000633739
0.000615771
0.000625389
0.000693555
0.000692567
0.000626813
0.000619463
0.000639127
0.000668201
0.00069841
0.000712779
0.000680612
0.000585666
0.000424271
0.000486778
0.000646773
0.000706221
0.000738446
0.000721117
0.000673696
0.000623256
0.000580836
0.000556801
0.000577698
0.000578931
0.000558989
0.000585122
0.000629497
0.000681692
0.000730575
0.000749244
0.000717976
0.000657718
0.00048952
0.000543041
0.000786234
0.00080531
0.000832356
0.00081658
0.000753958
0.000679053
0.000611035
0.000557549
0.000542904
0.000544129
0.000560215
0.00061626
0.000686694
0.000763723
0.00082816
0.000845367
0.000818654
0.000797046
0.000544896
0.000590648
0.00093447
0.000995712
0.00104624
0.00104186
0.000980835
0.000904657
0.000827197
0.000741791
0.000652595
0.000651988
0.000744026
0.000833229
0.000914269
0.000993006
0.00105606
0.00106205
0.00101093
0.000943568
0.000592034
0.000637178
0.000960624
0.00133553
0.00160963
0.0017392
0.00180879
0.0018374
0.00180455
0.00165542
0.00138236
0.00137696
0.00165341
0.00180777
0.00184624
0.00182179
0.00175419
0.00162493
0.00134812
0.00096809
0.000638406
0.00068158
0.000744997
0.000798237
0.000843749
0.000886137
0.000922242
0.000951049
0.000969653
0.000973679
0.000960265
0.000958527
0.00097251
0.000969138
0.000951077
0.000922751
0.000887034
0.000844818
0.000799282
0.000745911
0.000682271
0.000139167
0.000189379
0.000223481
0.000231172
0.000228337
0.000222308
0.000213513
0.00020324
0.000193054
0.000190252
0.000189303
0.000194529
0.000205164
0.000215626
0.000224271
0.000229903
0.000231538
0.000221519
0.000190829
0.000139868
0.000222971
0.000409409
0.000476128
0.000500942
0.000514536
0.000522437
0.000526159
0.000535665
0.000575957
0.000662597
0.000649637
0.000568355
0.000534375
0.000525122
0.000519475
0.000509683
0.000496722
0.000473938
0.000414084
0.00022829
0.000299033
0.000474038
0.000551012
0.000593674
0.000618853
0.000626689
0.000619302
0.000610705
0.000635033
0.000713189
0.000701236
0.000628541
0.00060911
0.000616665
0.000622159
0.000614277
0.000590609
0.000551223
0.000477829
0.000301139
0.000321593
0.000498788
0.000598414
0.00064236
0.000657805
0.000662258
0.00066254
0.00066037
0.000671516
0.000722889
0.000717274
0.000669063
0.000660485
0.000663914
0.000664947
0.000661691
0.000647794
0.000605092
0.000504724
0.000323811
0.000381764
0.000491249
0.000583707
0.000641106
0.000661237
0.000660034
0.00065159
0.000647852
0.000669454
0.00072853
0.000728182
0.00067105
0.000651849
0.000656959
0.000666564
0.000668723
0.000649125
0.000591496
0.000498096
0.000387684
0.000471029
0.000535174
0.00058584
0.000646507
0.000673717
0.000667326
0.000645432
0.000624153
0.000623351
0.000667453
0.000670281
0.000627214
0.000629988
0.000652987
0.000676206
0.000683252
0.000655945
0.000594402
0.000541999
0.000473863
0.000538638
0.000705961
0.000678427
0.000722041
0.000754011
0.000741341
0.000701123
0.000656094
0.000626777
0.000646763
0.000650452
0.000632319
0.000664048
0.000711381
0.000753462
0.000767225
0.000735284
0.000690688
0.000717831
0.000540391
0.000593663
0.000944387
0.000916839
0.00096058
0.000980905
0.000957782
0.00091176
0.000851562
0.000772123
0.000688992
0.000690471
0.000776704
0.000859635
0.000923424
0.000972402
0.000996817
0.000976581
0.000930406
0.000953562
0.000594836
0.000645689
0.00097539
0.00135778
0.00162268
0.00180884
0.00193098
0.0019918
0.00195326
0.00174673
0.00136356
0.00135905
0.00174551
0.00195595
0.00199851
0.00194225
0.00182333
0.00163729
0.00136917
0.000981843
0.000646651
0.000695466
0.000764283
0.00082206
0.000873238
0.000922242
0.000964832
0.00099983
0.00102434
0.00103476
0.00102967
0.00102773
0.0010335
0.00102366
0.000999595
0.00096497
0.000922762
0.00087396
0.000822746
0.000764871
0.000695911
0.000125269
0.000168485
0.000196336
0.000210017
0.000213823
0.000213699
0.000210601
0.000205941
0.00020164
0.000205149
0.000204482
0.000202882
0.000207892
0.000212748
0.000215829
0.000215628
0.000210916
0.000200853
0.000176576
0.000128212
0.000164477
0.000390383
0.000449799
0.00048579
0.000510492
0.000526144
0.000537702
0.000557696
0.000609633
0.00069422
0.000683116
0.000600312
0.000555171
0.00053725
0.000525864
0.00051016
0.000486236
0.000453373
0.000398603
0.000166097
0.000259642
0.000445008
0.000536052
0.000587986
0.000613656
0.000619295
0.000615192
0.00061797
0.000651793
0.000681703
0.000676345
0.000644987
0.000616545
0.000614609
0.000617684
0.000611323
0.000586655
0.000537283
0.000448631
0.000261133
0.000285077
0.000445003
0.000549257
0.000610914
0.000645893
0.000662537
0.000665186
0.000662416
0.000674426
0.000648923
0.000652451
0.000673289
0.00066328
0.00066665
0.000664596
0.000648849
0.000614619
0.000553629
0.000449013
0.000287076
0.000343296
0.000431987
0.000523218
0.000593419
0.000633737
0.000651588
0.000657618
0.000664904
0.000684991
0.000638472
0.000645928
0.000687793
0.000669007
0.000662717
0.000657201
0.000639606
0.000599134
0.000528341
0.000436753
0.000348251
0.000454944
0.000470813
0.000504087
0.000572076
0.000623281
0.00064544
0.000648007
0.000646996
0.00065663
0.000607694
0.000615854
0.000662171
0.000653482
0.000655586
0.00065345
0.000630926
0.000578771
0.000509764
0.000476084
0.000457789
0.000531474
0.000603216
0.000570181
0.000621285
0.000679123
0.000701153
0.000691509
0.0006724
0.000666884
0.00064526
0.000652478
0.000674457
0.000681768
0.000702461
0.000712863
0.000690509
0.000631414
0.000578855
0.000612603
0.000533058
0.000592557
0.000925981
0.000838934
0.000870252
0.000904758
0.000911806
0.000891217
0.000843344
0.000767776
0.000684123
0.000687757
0.0007741
0.000852073
0.000902444
0.000925156
0.000918472
0.000882804
0.000849058
0.00093485
0.000593472
0.000649031
0.000970799
0.00135016
0.00161177
0.00183747
0.00199183
0.00205722
0.00197369
0.00165551
0.00110858
0.00110671
0.00165844
0.0019775
0.00206216
0.00199943
0.00184775
0.00162239
0.00135861
0.000975691
0.000649662
0.000704294
0.000777941
0.0008399
0.000896034
0.000951049
0.000999832
0.0010413
0.00107312
0.00109393
0.00110622
0.00110403
0.00109263
0.00107231
0.00104082
0.000999621
0.000951111
0.000896275
0.000840136
0.000778144
0.000704453
0.000120244
0.000152124
0.000167194
0.000191576
0.000199058
0.000203291
0.000205927
0.000208671
0.000212392
0.00022296
0.000222124
0.000213146
0.000210431
0.0002081
0.000205577
0.000200863
0.000192273
0.00018612
0.000154138
0.000119797
0.000161719
0.000359329
0.000434265
0.000484469
0.000514212
0.000535637
0.000557711
0.000591955
0.000625381
0.000554425
0.000547891
0.000617146
0.000587729
0.000556829
0.000536587
0.000516318
0.000487698
0.000439529
0.000363701
0.000164713
0.000200349
0.000415472
0.000514919
0.000571086
0.000599598
0.000610701
0.00061799
0.000635105
0.000609377
0.000407531
0.000406833
0.000608432
0.000633301
0.000618265
0.000611617
0.000600424
0.000572427
0.000517991
0.000419391
0.000201076
0.000246077
0.000407421
0.000521362
0.000596857
0.000641676
0.00066037
0.000662429
0.000660125
0.000582253
0.000368761
0.000369123
0.000590068
0.000662444
0.000664678
0.000662471
0.000643733
0.00059911
0.00052393
0.000410055
0.000248495
0.000305719
0.000382436
0.000478835
0.000560569
0.000615754
0.000647847
0.00066491
0.000669483
0.00056295
0.000404042
0.000400817
0.000574544
0.000674838
0.000669569
0.000652357
0.000619843
0.000564065
0.000481839
0.000386081
0.000311272
0.000437768
0.000417832
0.000441495
0.000513821
0.000580853
0.000624163
0.000647004
0.000652092
0.000528819
0.000447458
0.000441375
0.000540778
0.000659446
0.000653618
0.000630293
0.000585945
0.000517846
0.000445138
0.00042214
0.000440527
0.000521257
0.000530102
0.000491841
0.000541036
0.000611104
0.000656138
0.000672422
0.000674764
0.000587374
0.00052897
0.000524695
0.000598766
0.000684412
0.000682294
0.000665616
0.000619266
0.000547498
0.000496965
0.000535553
0.000522631
0.000586428
0.000872956
0.000763197
0.000785523
0.000827304
0.000851632
0.000843377
0.000797086
0.00071595
0.000654576
0.00065212
0.000723154
0.000805716
0.000852971
0.000861784
0.00083698
0.000793931
0.000770554
0.000882588
0.000587058
0.000645955
0.000941989
0.00131402
0.00156308
0.00180462
0.00195331
0.00197372
0.00177231
0.00131111
0.00112313
0.00111694
0.00131924
0.00177996
0.00197915
0.00195843
0.00181041
0.00156956
0.00131936
0.000945401
0.000646213
0.000707014
0.000784175
0.000849333
0.000909316
0.000969654
0.00102434
0.00107312
0.00111588
0.00115719
0.00121211
0.0012093
0.00115563
0.00111486
0.00107235
0.00102375
0.000969229
0.000909038
0.000849079
0.000783944
0.000706841
0.000116086
0.000195474
0.000122805
0.0001705
0.000185243
0.000193456
0.000201778
0.000212433
0.000220098
0.000232698
0.000232063
0.000220551
0.000213587
0.000203498
0.000195371
0.000187121
0.000174884
0.000120756
0.0001744
0.000119673
0.000158676
0.000383902
0.000448574
0.000506879
0.000545603
0.000575948
0.000609704
0.000625442
0.000491242
0.000539912
0.000533401
0.000488069
0.000620756
0.000605654
0.000573826
0.000545509
0.00050897
0.000449667
0.000383586
0.00016284
0.000189249
0.000409999
0.00051059
0.000575945
0.000612954
0.000635071
0.000651875
0.000609434
0.000383514
0.000670311
0.000658548
0.000384062
0.000611333
0.000650206
0.000633911
0.000612733
0.000576843
0.000513713
0.000412616
0.000185266
0.000206903
0.000403463
0.000530411
0.000608755
0.000652928
0.000671552
0.000674489
0.000582291
0.000383567
0.000912832
0.000894952
0.000382763
0.000591784
0.000676923
0.00067277
0.00065361
0.000609186
0.000530548
0.000403529
0.000209405
0.000273322
0.000348518
0.000458497
0.00055497
0.000625339
0.000669452
0.000685025
0.000562975
0.000438513
0.00120745
0.00118291
0.000432909
0.000575466
0.000689416
0.000671709
0.00062646
0.000555039
0.000458178
0.000350089
0.000278388
0.00042201
0.000382187
0.000395954
0.000471696
0.000556792
0.000623359
0.000656656
0.000528842
0.000501111
0.00148438
0.00145409
0.000490256
0.000541058
0.000662142
0.000626434
0.000558406
0.000472688
0.000397739
0.000385726
0.000424442
0.000508203
0.000489331
0.000439639
0.000478384
0.000557604
0.000626826
0.000666927
0.000587401
0.000598972
0.0016752
0.00164247
0.000588184
0.000598851
0.000674547
0.000632855
0.000562043
0.00048168
0.000442864
0.000493634
0.000509268
0.000574291
0.000799022
0.000687423
0.000699562
0.000741896
0.000772205
0.000767834
0.00071598
0.000755249
0.00176518
0.00173395
0.0007472
0.000723989
0.000775608
0.000779295
0.000747997
0.000704773
0.000692687
0.000807204
0.000574545
0.000634185
0.0008763
0.00122244
0.00143641
0.00165551
0.00174682
0.00165557
0.00131113
0.00118728
0.00171062
0.00169026
0.00117952
0.00132181
0.0016631
0.00175107
0.0016586
0.00143967
0.00122494
0.000878158
0.000633981
0.00070108
0.000779648
0.000846296
0.000908528
0.000973682
0.00103476
0.00109393
0.00115719
0.00124014
0.00134758
0.00134441
0.00123757
0.00115554
0.00109263
0.0010336
0.000972635
0.000907623
0.000845452
0.00077888
0.000700484
0.000179284
8.83275e-05
0.000215311
0.000167792
0.000178408
0.00018986
0.000205058
0.000222961
0.000232718
0.000240998
0.000240726
0.000232856
0.000223253
0.000205695
0.000190541
0.00017851
0.000167835
0.000226531
9.4086e-05
0.000165544
0.000204885
0.000416464
0.000507177
0.000564708
0.000624212
0.00066255
0.000694255
0.000554472
0.000539984
0.000359822
0.000358376
0.000537001
0.000553217
0.000690068
0.000657195
0.000619894
0.000561398
0.000504064
0.00041508
0.000185277
0.000200474
0.000477091
0.000562749
0.000630057
0.000689684
0.000713276
0.000681808
0.000407595
0.000670387
0.000523844
0.000521566
0.000663518
0.000410154
0.00068212
0.00070834
0.00068483
0.000627489
0.000561027
0.000474517
0.000192905
0.000200923
0.000485105
0.000586948
0.000653094
0.000706848
0.000722988
0.000649029
0.000368816
0.000912898
0.000698724
0.000696491
0.000900509
0.000371265
0.000654838
0.00072084
0.000703082
0.000651813
0.000585842
0.000483449
0.000198839
0.000260164
0.000359158
0.000495743
0.000611485
0.000693537
0.00072857
0.000638548
0.000404087
0.0012075
0.000896826
0.000895468
0.00118851
0.000402937
0.000645494
0.000727007
0.000688892
0.000605431
0.000489126
0.00035675
0.000263275
0.000407666
0.000372827
0.000385437
0.000465597
0.000577675
0.000667467
0.000607754
0.000447487
0.00148442
0.00111248
0.00111265
0.00145882
0.000442656
0.000613506
0.000665684
0.00057361
0.00046209
0.000384747
0.000375339
0.000409721
0.000490934
0.000468584
0.000415168
0.000445298
0.000542936
0.000646808
0.000645326
0.000528998
0.00167525
0.00132682
0.00132933
0.00164635
0.000524918
0.000651021
0.000648084
0.000542867
0.00044552
0.000417029
0.000472187
0.000491623
0.000553681
0.000718905
0.000604857
0.000610032
0.000652676
0.000689074
0.0006842
0.0006546
0.00176524
0.00148527
0.00149017
0.00173613
0.000652374
0.000689573
0.000693194
0.000655778
0.000612889
0.000608664
0.000725422
0.000553428
0.000609893
0.000769554
0.00103009
0.00121542
0.00138246
0.00136369
0.00110868
0.00112316
0.00171065
0.0015981
0.00160203
0.00169018
0.00111639
0.00111324
0.00136731
0.0013827
0.0012153
0.00103196
0.000770075
0.000609061
0.000679543
0.000758282
0.000823111
0.000888795
0.000960268
0.00102968
0.00110622
0.00121211
0.00134758
0.00138417
0.00138856
0.00134419
0.00120884
0.00110372
0.00102761
0.000958373
0.000887058
0.000821594
0.000756889
0.000678326
9.90205e-05
0.000209117
0.00010567
0.000167713
0.000179917
0.000190433
0.000204879
0.000222248
0.000232109
0.000240744
0.000240737
0.000232469
0.000222827
0.00020536
0.000190652
0.000179497
0.000165648
0.000104499
0.000227863
9.74807e-05
0.000139117
0.000425173
0.000491581
0.000556798
0.000612435
0.000649597
0.000683067
0.000547898
0.000533403
0.000358385
0.000359022
0.000536932
0.000552656
0.000689368
0.000656501
0.000619063
0.000561546
0.000495087
0.000427391
0.000144385
0.000187441
0.000470957
0.000555292
0.000621867
0.0006778
0.000701197
0.000676364
0.000406889
0.000658468
0.00052157
0.000522181
0.000662784
0.000408838
0.000680566
0.000706874
0.000683411
0.000626132
0.000558784
0.000472838
0.000187337
0.000199707
0.000480031
0.000581638
0.000648682
0.000700034
0.000717291
0.000652564
0.00036917
0.000894776
0.000696489
0.000696464
0.000898407
0.000369189
0.000652671
0.00071852
0.000701048
0.000649978
0.000583959
0.000481883
0.000199602
0.000261272
0.000357327
0.000494231
0.000611257
0.000692609
0.000728225
0.000646072
0.000400784
0.00118261
0.00089546
0.000894266
0.00118406
0.000399266
0.000642943
0.000724146
0.000686514
0.000603803
0.000488005
0.000356843
0.000266387
0.000408589
0.000373616
0.000385454
0.000465594
0.000579004
0.000670343
0.000615984
0.000441269
0.00145367
0.00111263
0.00110998
0.00145238
0.000438154
0.000611022
0.000663293
0.00057173
0.000460527
0.000384145
0.000375845
0.000410179
0.000491379
0.000469907
0.000415683
0.000445004
0.000544189
0.000650523
0.000652583
0.000524585
0.00164197
0.00132932
0.00132521
0.00163844
0.000520465
0.000648645
0.000646049
0.000541185
0.000444409
0.000417069
0.000472739
0.000491468
0.000553717
0.00072099
0.000604448
0.000608512
0.000651997
0.000690495
0.000687798
0.000652019
0.00173341
0.00149017
0.00148512
0.00172713
0.000648386
0.0006873
0.000691207
0.000653938
0.000611497
0.000608091
0.000725703
0.00055294
0.000609637
0.000769381
0.00102947
0.0012105
0.00137691
0.00135906
0.00110674
0.00111676
0.00168989
0.00160202
0.0015965
0.00168395
0.00111211
0.00111095
0.00136491
0.00137942
0.00121208
0.00103055
0.000768838
0.000608306
0.000679027
0.00075748
0.000822024
0.000887282
0.000958484
0.00102769
0.00110397
0.00120922
0.00134433
0.00138857
0.00138459
0.00134099
0.00120608
0.00110137
0.00102557
0.000956535
0.000885404
0.000820198
0.000755672
0.000677296
0.000114627
0.000135562
0.000204045
0.000177565
0.000185966
0.000194394
0.000202828
0.000213137
0.000220553
0.000232875
0.000232466
0.000220136
0.000212832
0.000202513
0.000194106
0.00018554
0.000177269
0.00020239
0.000115378
0.000132328
0.000155586
0.000379056
0.000450802
0.000505153
0.000540395
0.000568346
0.000600276
0.000617123
0.000488098
0.000537007
0.000536973
0.000488887
0.000620125
0.000604034
0.00057181
0.000543316
0.000506838
0.000452577
0.000377954
0.000162606
0.000179815
0.00040885
0.000510242
0.00057191
0.000607496
0.000628537
0.000644971
0.000608463
0.000384094
0.000663492
0.000662837
0.000383741
0.000609614
0.000647846
0.000631536
0.00061048
0.000574684
0.000512163
0.000409952
0.000180259
0.000208148
0.000401537
0.000527765
0.000605879
0.000649926
0.000669079
0.000673312
0.000590173
0.000382768
0.000900432
0.000898465
0.000381654
0.000588841
0.000673652
0.000669709
0.000650763
0.000606519
0.000528323
0.000401985
0.000209386
0.000276757
0.000348952
0.000458404
0.000555901
0.000626856
0.000671077
0.000687829
0.00057467
0.000432839
0.00118836
0.00118412
0.000430297
0.000571444
0.000685116
0.000667935
0.000623397
0.000552761
0.000456487
0.000349395
0.000280261
0.000423725
0.000384505
0.000396712
0.000472442
0.000559041
0.000627261
0.000662224
0.000540896
0.000490111
0.00145859
0.00145242
0.000486616
0.000537349
0.000658308
0.000623274
0.000555735
0.000470372
0.000396368
0.000385902
0.000424489
0.000508833
0.000491595
0.00044029
0.000478887
0.000560259
0.000632377
0.000674521
0.000598854
0.000588015
0.00164608
0.00163846
0.00058362
0.000595004
0.000670654
0.000629486
0.000559056
0.000479361
0.000441869
0.000493648
0.000508605
0.000574267
0.000801825
0.000687811
0.000699871
0.000744011
0.0007767
0.00077411
0.000723177
0.000747037
0.00173585
0.00172713
0.000742547
0.000721047
0.00077226
0.000775833
0.000744678
0.000702014
0.000690782
0.000805885
0.000573491
0.00063378
0.00087473
0.00121956
0.00143485
0.00165328
0.00174541
0.00165845
0.00131934
0.00117935
0.00168999
0.00168393
0.00117484
0.00132323
0.00166226
0.00174737
0.00165394
0.00143527
0.00122027
0.000875042
0.000632658
0.000700533
0.000778922
0.000845417
0.000907511
0.000972469
0.00103346
0.00109259
0.00115559
0.00123752
0.00134415
0.00134099
0.00123455
0.00115306
0.00109043
0.00103152
0.000970643
0.000905766
0.000843737
0.000777312
0.000699052
0.00012176
0.000146179
0.000164999
0.000192163
0.000200501
0.00020521
0.000207898
0.000210445
0.000213592
0.000223324
0.0002228
0.000212857
0.000209677
0.000207193
0.000204655
0.000199985
0.000190338
0.00016934
0.000151435
0.000125055
0.000162783
0.000361388
0.000436832
0.00048518
0.000513948
0.000534398
0.000555173
0.000587717
0.000620755
0.000553251
0.000552736
0.000620169
0.000587819
0.000555405
0.000534755
0.000514463
0.00048581
0.000437096
0.000361931
0.000165946
0.000198822
0.000417411
0.000514852
0.000569122
0.000597371
0.000609122
0.000616552
0.000633298
0.000611365
0.000410193
0.000408874
0.000609641
0.000632872
0.000616734
0.000609911
0.000598739
0.000570622
0.000515777
0.000416953
0.000200661
0.000247885
0.000409072
0.000522564
0.000597353
0.000641681
0.000660495
0.000663299
0.000662472
0.000591873
0.000371287
0.0003692
0.000588843
0.000660815
0.000662438