/*--------------------------------*- C++ -*----------------------------------*\
| =========                 |                                                 |
| \\      /  F ield         | OpenFOAM: The Open Source CFD Toolbox           |
|  \\    /   O peration     | Version:  v1912                                 |
|   \\  /    A nd           | Website:  www.openfoam.com                      |
|    \\/     M anipulation  |                                                 |
\*---------------------------------------------------------------------------*/
FoamFile
{
    version     2.0;
    format      ascii;
    class       volScalarField;
    location    "900";
    object      k;
}
// * * * * * * * * * * * * * * * * * * * * * * * * * * * * * * * * * * * * * //

dimensions      [0 2 -2 0 0 0 0];


internalField   nonuniform List<scalar> 
4000
(
4.8934e-05
4.43911e-05
3.84877e-05
2.86268e-05
6.38918e-06
4.52605e-06
3.74903e-06
3.3907e-06
3.397e-06
4.26089e-06
3.39019e-06
3.27176e-06
3.38855e-06
3.75753e-06
4.45106e-06
6.4214e-06
2.96802e-05
3.90652e-05
4.48462e-05
4.93441e-05
5.37596e-05
4.82287e-05
3.92188e-05
3.08641e-05
2.1584e-05
1.14194e-05
6.26719e-06
6.11013e-06
5.90424e-06
6.33607e-06
5.71999e-06
5.89394e-06
6.14642e-06
6.30193e-06
1.15525e-05
2.18101e-05
3.14272e-05
3.95785e-05
4.85687e-05
5.41587e-05
5.68889e-05
5.22184e-05
4.31269e-05
3.35283e-05
2.67476e-05
2.04961e-05
1.54426e-05
9.00867e-06
7.62871e-06
8.32615e-06
8.1201e-06
7.49481e-06
9.06814e-06
1.5514e-05
2.05633e-05
2.68492e-05
3.36929e-05
4.33571e-05
5.25104e-05
5.72624e-05
5.88375e-05
5.55058e-05
4.78368e-05
3.8146e-05
3.01482e-05
2.3702e-05
1.86131e-05
1.38919e-05
9.68079e-06
9.11494e-06
9.00921e-06
9.90509e-06
1.4098e-05
1.87654e-05
2.38181e-05
3.02842e-05
3.82613e-05
4.81046e-05
5.58034e-05
5.91894e-05
6.03797e-05
5.87991e-05
5.39248e-05
4.71962e-05
4.05153e-05
3.33658e-05
2.69258e-05
2.13497e-05
1.68319e-05
1.5078e-05
1.54077e-05
1.74471e-05
2.19551e-05
2.75273e-05
3.41081e-05
4.09205e-05
4.75366e-05
5.42454e-05
5.91157e-05
6.0718e-05
6.18431e-05
6.24258e-05
6.0659e-05
5.75912e-05
5.43078e-05
5.08468e-05
4.74197e-05
4.38964e-05
4.07493e-05
3.79927e-05
3.82183e-05
4.11312e-05
4.4343e-05
4.78802e-05
5.13032e-05
5.47354e-05
5.79913e-05
6.10368e-05
6.2784e-05
6.21761e-05
6.35176e-05
6.64124e-05
6.77511e-05
6.79481e-05
6.75888e-05
6.64973e-05
6.47401e-05
6.22753e-05
5.91879e-05
5.52317e-05
5.53339e-05
5.93392e-05
6.25165e-05
6.50485e-05
6.68572e-05
6.79792e-05
6.83525e-05
6.8152e-05
6.67942e-05
6.38453e-05
6.55341e-05
7.08901e-05
7.51036e-05
7.7999e-05
7.9962e-05
8.07803e-05
8.04787e-05
7.88224e-05
7.55933e-05
7.02662e-05
7.0276e-05
7.55901e-05
7.8935e-05
8.06949e-05
8.10843e-05
8.03309e-05
7.84055e-05
7.55186e-05
7.12865e-05
6.58565e-05
6.8202e-05
7.65567e-05
8.36106e-05
8.89885e-05
9.30603e-05
9.55636e-05
9.6555e-05
9.56411e-05
9.21868e-05
8.5261e-05
8.51917e-05
9.20736e-05
9.56805e-05
9.67388e-05
9.58624e-05
9.34394e-05
8.94098e-05
8.40404e-05
7.69606e-05
6.85184e-05
7.2239e-05
8.3578e-05
9.32253e-05
0.000100606
0.000106485
0.000110868
0.000113701
0.00011458
0.000112665
0.000105849
0.000105692
0.000112493
0.000114557
0.000113812
0.000111091
0.000106792
0.00010097
9.36168e-05
8.39584e-05
7.25448e-05
4.43929e-05
4.42328e-05
3.74931e-05
2.80211e-05
8.97051e-06
8.47069e-06
6.95947e-06
5.18957e-06
5.16393e-06
4.24526e-06
5.33493e-06
4.56244e-06
5.23435e-06
7.11748e-06
8.36051e-06
9.03406e-06
2.95564e-05
3.83647e-05
4.49614e-05
4.49737e-05
4.82321e-05
6.31551e-05
5.08575e-05
3.55641e-05
2.80563e-05
2.36443e-05
1.51016e-05
1.15633e-05
1.01147e-05
9.4121e-06
9.63907e-06
1.01375e-05
1.18499e-05
1.54458e-05
2.39934e-05
2.8518e-05
3.65718e-05
5.18133e-05
6.28935e-05
4.88317e-05
5.2222e-05
7.08034e-05
7.30607e-05
5.32444e-05
3.83798e-05
3.00167e-05
2.50808e-05
1.95774e-05
1.43103e-05
1.25e-05
1.24709e-05
1.44064e-05
1.98286e-05
2.52467e-05
3.01313e-05
3.86147e-05
5.35765e-05
7.29107e-05
7.05007e-05
5.27883e-05
5.55088e-05
6.85249e-05
6.67096e-05
5.53294e-05
4.15185e-05
3.20241e-05
2.54614e-05
2.04303e-05
1.70679e-05
1.62107e-05
1.6248e-05
1.71935e-05
2.06588e-05
2.57214e-05
3.23555e-05
4.19877e-05
5.59313e-05
6.71767e-05
6.88526e-05
5.60378e-05
5.88012e-05
7.02285e-05
6.78645e-05
5.7028e-05
4.42738e-05
3.42796e-05
2.70841e-05
2.12053e-05
1.67055e-05
1.51261e-05
1.52203e-05
1.69832e-05
2.16156e-05
2.75979e-05
3.49151e-05
4.4842e-05
5.76225e-05
6.84741e-05
7.07775e-05
5.92844e-05
6.2427e-05
7.35834e-05
7.23249e-05
6.5341e-05
5.49602e-05
4.38503e-05
3.69343e-05
3.1246e-05
2.74968e-05
2.60002e-05
2.61332e-05
2.77977e-05
3.16346e-05
3.73758e-05
4.43165e-05
5.53735e-05
6.59003e-05
7.29116e-05
7.41561e-05
6.28619e-05
6.64129e-05
7.72229e-05
7.7403e-05
7.47344e-05
7.03369e-05
6.24373e-05
5.23448e-05
4.50642e-05
4.09053e-05
3.84734e-05
3.85955e-05
4.11002e-05
4.53069e-05
5.27859e-05
6.2948e-05
7.08243e-05
7.52784e-05
7.79345e-05
7.7783e-05
6.68043e-05
7.08903e-05
8.19592e-05
8.45587e-05
8.66634e-05
8.92511e-05
8.91504e-05
8.64435e-05
8.02509e-05
7.23682e-05
6.32259e-05
6.33862e-05
7.25435e-05
8.0556e-05
8.67111e-05
8.95615e-05
8.98072e-05
8.72983e-05
8.51306e-05
8.25332e-05
7.12548e-05
7.65566e-05
9.03678e-05
9.95872e-05
0.000106489
0.00011212
0.000114698
0.000114878
0.000111368
0.000102351
8.62702e-05
8.61937e-05
0.000102104
0.000111431
0.000115224
0.000115259
0.000112808
0.000107193
0.000100244
9.09517e-05
7.69068e-05
8.35776e-05
9.71234e-05
0.000109159
0.00011893
0.000127227
0.0001339
0.000138729
0.00014096
0.000139336
0.000131805
0.000131531
0.000139082
0.000140899
0.000138843
0.000134157
0.000127587
0.000119348
0.000109592
9.75229e-05
8.38767e-05
3.84897e-05
3.74939e-05
3.18285e-05
1.96887e-05
9.91961e-06
1.13712e-05
9.01001e-06
6.77412e-06
5.32873e-06
6.02138e-06
5.00605e-06
6.26273e-06
6.8263e-06
9.15282e-06
1.11942e-05
1.00117e-05
2.26929e-05
3.31057e-05
3.8364e-05
3.9165e-05
3.92239e-05
5.08613e-05
4.10517e-05
3.01252e-05
2.89009e-05
2.55235e-05
1.83266e-05
1.48224e-05
1.24871e-05
1.18163e-05
1.15843e-05
1.27827e-05
1.50268e-05
1.86149e-05
2.55653e-05
2.8554e-05
3.11448e-05
4.25308e-05
5.22763e-05
3.99432e-05
4.31331e-05
7.3065e-05
6.83676e-05
5.08126e-05
3.94666e-05
3.29071e-05
2.86175e-05
2.3382e-05
1.8235e-05
1.53637e-05
1.54884e-05
1.85217e-05
2.35274e-05
2.86403e-05
3.28691e-05
3.95875e-05
5.14555e-05
6.97372e-05
7.34169e-05
4.38717e-05
4.78421e-05
6.67124e-05
6.81626e-05
5.73336e-05
4.48242e-05
3.58404e-05
2.95457e-05
2.49107e-05
2.18071e-05
1.92522e-05
1.94048e-05
2.19637e-05
2.51675e-05
2.98763e-05
3.63069e-05
4.55546e-05
5.85018e-05
6.92863e-05
6.75227e-05
4.85473e-05
5.3928e-05
6.78673e-05
6.58586e-05
5.60433e-05
4.4396e-05
3.53619e-05
2.87502e-05
2.34425e-05
1.93855e-05
1.75931e-05
1.76705e-05
1.96135e-05
2.38189e-05
2.92364e-05
3.59475e-05
4.50544e-05
5.6859e-05
6.68287e-05
6.87918e-05
5.45293e-05
6.06608e-05
7.23275e-05
7.00659e-05
6.10499e-05
4.9222e-05
3.84482e-05
3.10659e-05
2.5349e-05
2.1269e-05
1.95857e-05
1.96323e-05
2.14225e-05
2.56211e-05
3.14333e-05
3.88529e-05
4.96095e-05
6.16068e-05
7.0872e-05
7.31783e-05
6.11892e-05
6.7752e-05
7.74058e-05
7.64198e-05
6.82195e-05
5.74297e-05
4.69218e-05
3.81319e-05
3.18027e-05
2.77525e-05
2.56421e-05
2.56844e-05
2.77995e-05
3.1925e-05
3.83709e-05
4.72164e-05
5.77083e-05
6.86553e-05
7.7136e-05
7.81872e-05
6.81987e-05
7.5104e-05
8.45611e-05
8.86231e-05
8.39882e-05
7.26846e-05
6.64739e-05
6.06103e-05
5.45102e-05
4.79834e-05
4.02314e-05
4.01529e-05
4.79222e-05
5.46628e-05
6.08126e-05
6.68138e-05
7.31003e-05
8.45228e-05
8.94472e-05
8.53442e-05
7.54998e-05
8.36107e-05
9.95886e-05
0.000119618
0.000136886
0.00014895
0.000151937
0.000151943
0.000146362
0.000130255
9.89851e-05
9.88501e-05
0.000130027
0.000146732
0.000152761
0.000153061
0.000150183
0.000138025
0.000120621
0.000100385
8.39925e-05
9.3225e-05
0.000109159
0.000123445
0.000135478
0.000146065
0.000154915
0.000161712
0.000165363
0.00016418
0.000155309
0.000154907
0.000163848
0.000165266
0.000161824
0.000155196
0.00014646
0.000135928
0.000123897
0.000109562
9.35184e-05
2.86408e-05
2.80325e-05
1.96873e-05
1.11088e-05
1.2755e-05
1.21868e-05
1.00096e-05
8.30152e-06
6.92122e-06
6.32021e-06
6.32687e-06
7.05666e-06
8.39968e-06
1.01087e-05
1.22163e-05
1.24358e-05
1.13631e-05
2.26544e-05
2.95549e-05
2.98611e-05
3.08711e-05
3.55704e-05
3.01273e-05
2.90155e-05
2.90318e-05
2.37336e-05
1.89033e-05
1.63608e-05
1.45179e-05
1.38363e-05
1.39583e-05
1.47713e-05
1.66322e-05
1.91234e-05
2.38418e-05
2.87488e-05
2.87721e-05
3.11869e-05
3.67949e-05
3.16841e-05
3.35344e-05
5.3253e-05
5.08162e-05
4.28883e-05
3.70652e-05
3.31552e-05
2.93988e-05
2.4335e-05
1.98412e-05
1.73827e-05
1.75534e-05
2.00736e-05
2.44555e-05
2.93186e-05
3.2993e-05
3.69776e-05
4.3114e-05
5.16824e-05
5.42196e-05
3.41118e-05
3.81538e-05
5.53351e-05
5.73363e-05
5.05548e-05
4.24658e-05
3.59168e-05
3.09417e-05
2.71332e-05
2.39518e-05
2.07451e-05
2.09803e-05
2.41674e-05
2.7401e-05
3.12941e-05
3.63928e-05
4.31724e-05
5.16401e-05
5.88215e-05
5.65816e-05
3.87613e-05
4.72009e-05
5.70333e-05
5.60462e-05
4.99163e-05
4.21109e-05
3.52911e-05
2.98648e-05
2.54122e-05
2.20288e-05
2.04102e-05
2.05716e-05
2.23328e-05
2.58277e-05
3.03747e-05
3.58968e-05
4.28402e-05
5.08609e-05
5.72257e-05
5.82595e-05
4.78892e-05
5.75932e-05
6.53448e-05
6.10529e-05
5.36493e-05
4.4916e-05
3.65281e-05
2.99836e-05
2.47161e-05
2.05693e-05
1.83172e-05
1.83315e-05
2.07117e-05
2.50088e-05
3.03935e-05
3.70083e-05
4.54432e-05
5.4326e-05
6.20055e-05
6.64308e-05
5.81785e-05
6.7949e-05
7.47372e-05
6.82232e-05
5.98202e-05
5.09441e-05
4.19047e-05
3.43509e-05
2.8478e-05
2.40298e-05
2.13141e-05
2.12756e-05
2.40478e-05
2.86438e-05
3.46543e-05
4.22893e-05
5.13731e-05
6.03844e-05
6.90944e-05
7.56314e-05
6.84163e-05
7.79995e-05
8.66652e-05
8.39932e-05
7.54482e-05
7.02846e-05
6.51768e-05
6.00246e-05
5.43831e-05
4.70258e-05
3.76732e-05
3.74451e-05
4.70113e-05
5.4694e-05
6.05564e-05
6.58677e-05
7.10341e-05
7.62752e-05
8.5114e-05
8.74829e-05
7.83986e-05
8.89887e-05
0.000106491
0.000136889
0.000163928
0.00017992
0.000190926
0.000197233
0.000194701
0.000174824
0.000136648
0.000135643
0.00017457
0.000195388
0.000198493
0.000192667
0.000181773
0.000165677
0.000138258
0.000107399
8.93738e-05
0.000100605
0.00011893
0.000135478
0.00014991
0.0001632
0.000174808
0.000184054
0.000189549
0.000189218
0.000181087
0.000180482
0.000188804
0.000189412
0.000184149
0.000175094
0.000163606
0.000150364
0.000135917
0.000119304
0.00010087
6.36973e-06
8.94826e-06
9.90766e-06
1.27573e-05
1.30662e-05
1.19417e-05
1.04395e-05
9.03767e-06
7.82477e-06
7.2632e-06
7.27729e-06
7.92324e-06
9.19814e-06
1.0604e-05
1.20741e-05
1.30913e-05
1.2462e-05
1.00465e-05
9.06976e-06
6.49639e-06
2.15822e-05
2.80529e-05
2.8902e-05
2.90296e-05
2.55934e-05
2.15164e-05
1.87575e-05
1.66837e-05
1.53694e-05
1.59038e-05
1.58235e-05
1.55802e-05
1.6979e-05
1.89822e-05
2.16375e-05
2.56368e-05
2.87935e-05
2.86528e-05
2.86812e-05
2.20741e-05
2.67495e-05
3.83839e-05
3.94695e-05
3.70665e-05
3.45732e-05
3.19612e-05
2.8194e-05
2.35175e-05
1.9856e-05
1.86416e-05
1.87197e-05
2.01226e-05
2.37096e-05
2.81425e-05
3.17803e-05
3.44072e-05
3.70591e-05
3.98167e-05
3.90393e-05
2.71674e-05
3.01551e-05
4.15231e-05
4.48271e-05
4.24669e-05
3.82516e-05
3.414e-05
3.06206e-05
2.7437e-05
2.41311e-05
2.14413e-05
2.16504e-05
2.44202e-05
2.77286e-05
3.09782e-05
3.45682e-05
3.8839e-05
4.32785e-05
4.58607e-05
4.24634e-05
3.06856e-05
4.05235e-05
4.42808e-05
4.43992e-05
4.2112e-05
3.79947e-05
3.35891e-05
2.95888e-05
2.61289e-05
2.36136e-05
2.26528e-05
2.28414e-05
2.39644e-05
2.65725e-05
3.01045e-05
3.41905e-05
3.8713e-05
4.29932e-05
4.54491e-05
4.53987e-05
4.12499e-05
5.43106e-05
5.4968e-05
4.92268e-05
4.49182e-05
3.98398e-05
3.43139e-05
2.93269e-05
2.50533e-05
2.17018e-05
2.02114e-05
2.02787e-05
2.1921e-05
2.54198e-05
2.98118e-05
3.48964e-05
4.05136e-05
4.5721e-05
5.02025e-05
5.60653e-05
5.49178e-05
6.75899e-05
7.03414e-05
5.74352e-05
5.09474e-05
4.54759e-05
3.93845e-05
3.36645e-05
2.88338e-05
2.49482e-05
2.28668e-05
2.28741e-05
2.50815e-05
2.91504e-05
3.41374e-05
3.99788e-05
4.61679e-05
5.1742e-05
5.83454e-05
7.12885e-05
6.80491e-05
7.99625e-05
8.92533e-05
7.26901e-05
7.02889e-05
7.07455e-05
6.90634e-05
6.62115e-05
6.18754e-05
5.42197e-05
4.36129e-05
4.34023e-05
5.43438e-05
6.23915e-05
6.70468e-05
7.01319e-05
7.19173e-05
7.14225e-05
7.364e-05
9.00696e-05
8.03357e-05
9.30606e-05
0.000112123
0.000148956
0.000179925
0.000211485
0.00023586
0.000252043
0.000253886
0.000228716
0.000178298
0.000177023
0.000228141
0.000254326
0.000253215
0.000237813
0.000213758
0.000182117
0.000150615
0.000113044
9.3417e-05
0.000106484
0.000127227
0.000146066
0.0001632
0.000180012
0.000194981
0.000207352
0.000215541
0.000217332
0.000211386
0.000210614
0.000216802
0.000215304
0.000207356
0.00019519
0.000180371
0.000163609
0.000146444
0.000127536
0.000106697
4.48928e-06
8.4116e-06
1.12909e-05
1.21757e-05
1.19443e-05
1.13339e-05
1.04574e-05
9.46219e-06
8.55302e-06
8.25655e-06
8.25674e-06
8.66994e-06
9.6482e-06
1.0651e-05
1.15203e-05
1.21062e-05
1.22813e-05
1.12675e-05
8.37921e-06
4.50035e-06
1.14695e-05
2.36326e-05
2.55127e-05
2.37266e-05
2.15175e-05
1.97728e-05
1.81058e-05
1.65928e-05
1.60125e-05
1.75564e-05
1.73469e-05
1.6138e-05
1.68728e-05
1.83547e-05
1.99672e-05
2.16827e-05
2.39813e-05
2.58014e-05
2.43018e-05
1.19857e-05
2.05004e-05
3.00152e-05
3.29065e-05
3.31562e-05
3.19626e-05
2.93558e-05
2.56394e-05
2.18234e-05
1.93343e-05
1.91657e-05
1.91468e-05
1.95918e-05
2.21162e-05
2.57529e-05
2.92813e-05
3.18356e-05
3.30958e-05
3.30562e-05
3.03971e-05
2.07882e-05
2.37059e-05
3.20255e-05
3.58419e-05
3.59178e-05
3.41406e-05
3.17512e-05
2.91519e-05
2.61634e-05
2.30602e-05
2.1371e-05
2.15461e-05
2.34164e-05
2.65034e-05
2.95002e-05
3.21529e-05
3.46108e-05
3.65021e-05
3.65143e-05
3.26252e-05
2.40309e-05
3.33781e-05
3.42845e-05
3.53636e-05
3.52917e-05
3.35891e-05
3.10273e-05
2.82627e-05
2.57269e-05
2.40158e-05
2.35885e-05
2.37797e-05
2.43847e-05
2.61829e-05
2.87674e-05
3.15931e-05
3.42349e-05
3.60292e-05
3.61821e-05
3.51994e-05
3.44233e-05
5.08511e-05
4.38559e-05
3.84514e-05
3.653e-05
3.43145e-05
3.12421e-05
2.79205e-05
2.48765e-05
2.27921e-05
2.30578e-05
2.32057e-05
2.30943e-05
2.53042e-05
2.84471e-05
3.18526e-05
3.49942e-05
3.7265e-05
3.92146e-05
4.46255e-05
5.14571e-05
6.64989e-05
6.24478e-05
4.69283e-05
4.19095e-05
3.93868e-05
3.62838e-05
3.27723e-05
2.95485e-05
2.7164e-05
2.74406e-05
2.75862e-05
2.74665e-05
3.00201e-05
3.33857e-05
3.70047e-05
4.0176e-05
4.2723e-05
4.7759e-05
6.34721e-05
6.69275e-05
8.07808e-05
8.91529e-05
6.64799e-05
6.51835e-05
6.90673e-05
7.13356e-05
7.15978e-05
6.88355e-05
6.0709e-05
4.91117e-05
4.90424e-05
6.10064e-05
6.94997e-05
7.25632e-05
7.25304e-05
7.03593e-05
6.63266e-05
6.72714e-05
8.9881e-05
8.10977e-05
9.5564e-05
0.000114701
0.000151945
0.000190934
0.000235864
0.000271867
0.000296801
0.000299859
0.00026274
0.000192632
0.0001914
0.000262171
0.000300131
0.00029759
0.000273137
0.00023795
0.000192968
0.000153388
0.000115442
9.58455e-05
0.000110868
0.0001339
0.000154916
0.000174809
0.000194982
0.000213407
0.000229169
0.000240537
0.000245453
0.000243046
0.000242123
0.000244845
0.00024021
0.000229052
0.00021346
0.000195195
0.000175092
0.000155169
0.000134102
0.000111007
3.76649e-06
6.96665e-06
8.86873e-06
9.96069e-06
1.04355e-05
1.04585e-05
1.01638e-05
9.71579e-06
9.32281e-06
9.63577e-06
9.60165e-06
9.43007e-06
9.90207e-06
1.03691e-05
1.0672e-05
1.06516e-05
1.01817e-05
9.2262e-06
7.20279e-06
3.8183e-06
6.3279e-06
1.51028e-05
1.82947e-05
1.88884e-05
1.87526e-05
1.81037e-05
1.72095e-05
1.65736e-05
1.72779e-05
2.12989e-05
2.08635e-05
1.72398e-05
1.67998e-05
1.74827e-05
1.83785e-05
1.90309e-05
1.92101e-05
1.87573e-05
1.55837e-05
6.37089e-06
1.5451e-05
2.50798e-05
2.86116e-05
2.93939e-05
2.81925e-05
2.56385e-05
2.26749e-05
2.01908e-05
1.93681e-05
2.13177e-05
2.11037e-05
1.95032e-05
2.05185e-05
2.29602e-05
2.58076e-05
2.8265e-05
2.94907e-05
2.88479e-05
2.54503e-05
1.56257e-05
1.8617e-05
2.54595e-05
2.95441e-05
3.09407e-05
3.06202e-05
2.91515e-05
2.6827e-05
2.40291e-05
2.21211e-05
2.29034e-05
2.28994e-05
2.24377e-05
2.44353e-05
2.72101e-05
2.95427e-05
3.10481e-05
3.13986e-05
3.00235e-05
2.58841e-05
1.88823e-05
2.69477e-05
2.70889e-05
2.87504e-05
2.98642e-05
2.95882e-05
2.82621e-05
2.64314e-05
2.46853e-05
2.3951e-05
2.57068e-05
2.5767e-05
2.42904e-05
2.51408e-05
2.6927e-05
2.87875e-05
3.01499e-05
3.04586e-05
2.93621e-05
2.77614e-05
2.77588e-05
4.74244e-05
3.6941e-05
3.10678e-05
2.99846e-05
2.93272e-05
2.79204e-05
2.59845e-05
2.41336e-05
2.36352e-05
2.73036e-05
2.73772e-05
2.39526e-05
2.45774e-05
2.64984e-05
2.84794e-05
2.99059e-05
3.05604e-05
3.16335e-05
3.75756e-05
4.80164e-05
6.47423e-05
5.23556e-05
3.81373e-05
3.43554e-05
3.36674e-05
3.27735e-05
3.1248e-05
2.97205e-05
2.93345e-05
3.40855e-05
3.42402e-05
2.97244e-05
3.02606e-05
3.18896e-05
3.34649e-05
3.43496e-05
3.498e-05
3.87244e-05
5.31602e-05
6.51207e-05
8.04793e-05
8.64464e-05
6.06154e-05
6.00317e-05
6.62174e-05
7.16007e-05
7.43491e-05
7.20856e-05
6.24205e-05
5.22122e-05
5.22778e-05
6.28858e-05
7.28077e-05
7.52653e-05
7.26587e-05
6.72939e-05
6.09117e-05
6.11572e-05
8.70678e-05
8.07254e-05
9.65554e-05
0.00011488
0.00015195
0.000197241
0.000252051
0.000296805
0.000327275
0.000323759
0.000261739
0.000176512
0.00017559
0.00026199
0.000324291
0.000327921
0.000297634
0.000253422
0.000198669
0.00015296
0.000115382
9.67399e-05
0.000113701
0.000138729
0.000161712
0.000184055
0.000207353
0.00022917
0.00024857
0.000263987
0.000274322
0.000280518
0.000279395
0.000273661
0.000263583
0.000248333
0.000229064
0.000207372
0.000184147
0.000161797
0.000138796
0.000113748
3.4826e-06
5.24007e-06
6.777e-06
8.21947e-06
9.02818e-06
9.46481e-06
9.7176e-06
9.97633e-06
1.03382e-05
1.13904e-05
1.1313e-05
1.04094e-05
1.0146e-05
9.92289e-06
9.68698e-06
9.25657e-06
8.46353e-06
6.82347e-06
5.33506e-06
3.47574e-06
6.19704e-06
1.17332e-05
1.47442e-05
1.63749e-05
1.66907e-05
1.65938e-05
1.65734e-05
1.73366e-05
1.98135e-05
2.38407e-05
2.32154e-05
1.95238e-05
1.74465e-05
1.68428e-05
1.69303e-05
1.70518e-05
1.67231e-05
1.5063e-05
1.19259e-05
6.21798e-06
9.04329e-06
1.96237e-05
2.34078e-05
2.43407e-05
2.35191e-05
2.1823e-05
2.01903e-05
1.96199e-05
2.09837e-05
2.67322e-05
2.62048e-05
2.08745e-05
1.98727e-05
2.05665e-05
2.2204e-05
2.3856e-05
2.46614e-05
2.37751e-05
2.00311e-05
9.20725e-06
1.39322e-05
2.04492e-05
2.49165e-05
2.71346e-05
2.74374e-05
2.61629e-05
2.40286e-05
2.23059e-05
2.31135e-05
3.43598e-05
3.35474e-05
2.31832e-05
2.27157e-05
2.44907e-05
2.66011e-05
2.78504e-05
2.75246e-05
2.52815e-05
2.07585e-05
1.41715e-05
2.14156e-05
2.12252e-05
2.34465e-05
2.54126e-05
2.61282e-05
2.5726e-05
2.46848e-05
2.37803e-05
2.5651e-05
4.8054e-05
4.67237e-05
2.57682e-05
2.42235e-05
2.51688e-05
2.62162e-05
2.66115e-05
2.58814e-05
2.39036e-05
2.17626e-05
2.21993e-05
4.39068e-05
3.12603e-05
2.53524e-05
2.47168e-05
2.50533e-05
2.48762e-05
2.41335e-05
2.36346e-05
2.69352e-05
6.1099e-05
5.92519e-05
2.69931e-05
2.40424e-05
2.45914e-05
2.53368e-05
2.54902e-05
2.51224e-05
2.5754e-05
3.17718e-05
4.44656e-05
6.22791e-05
4.50686e-05
3.18052e-05
2.84811e-05
2.88366e-05
2.95502e-05
2.97213e-05
3.01182e-05
3.47611e-05
7.5964e-05
7.41664e-05
3.49071e-05
3.06255e-05
3.02877e-05
3.01039e-05
2.9319e-05
2.88661e-05
3.21321e-05
4.55164e-05
6.2596e-05
7.88236e-05
8.02603e-05
5.45134e-05
5.43894e-05
6.18819e-05
6.884e-05
7.20879e-05
6.81188e-05
5.98829e-05
9.11949e-05
8.96547e-05
6.02675e-05
6.88729e-05
7.28782e-05
6.96397e-05
6.26156e-05
5.49507e-05
5.48533e-05
8.08986e-05
7.89886e-05
9.56417e-05
0.00011137
0.000146368
0.000194708
0.000253895
0.000299867
0.000323764
0.000295196
0.000209657
0.000232569
0.000230136
0.000210854
0.00029665
0.000324576
0.000300527
0.000254647
0.000195545
0.000146972
0.000111641
9.57147e-05
0.00011458
0.00014096
0.000165364
0.00018955
0.000215543
0.000240538
0.000263988
0.000285437
0.000306958
0.000336785
0.000335205
0.00030612
0.000284906
0.0002636
0.000240252
0.000215345
0.000189427
0.000165259
0.000140873
0.000114521
3.61674e-06
4.49386e-06
6.16499e-06
6.94669e-06
7.81081e-06
8.55077e-06
9.32435e-06
1.03398e-05
1.1101e-05
1.24089e-05
1.23432e-05
1.11463e-05
1.04529e-05
9.48594e-06
8.73414e-06
7.99649e-06
7.11899e-06
6.36521e-06
4.5427e-06
3.44386e-06
6.07802e-06
1.00471e-05
1.26641e-05
1.45292e-05
1.53739e-05
1.60116e-05
1.72776e-05
1.98153e-05
2.20186e-05
6.19987e-05
6.04899e-05
2.1677e-05
1.9688e-05
1.74051e-05
1.62742e-05
1.5706e-05
1.48616e-05
1.28737e-05
1.02117e-05
6.02401e-06
7.60783e-06
1.42645e-05
1.83072e-05
1.98535e-05
1.98561e-05
1.93328e-05
1.93681e-05
2.09856e-05
2.86859e-05
0.000133485
0.000130391
2.83229e-05
2.10214e-05
1.96551e-05
1.97236e-05
2.02717e-05
2.0263e-05
1.8719e-05
1.46105e-05
7.61569e-06
9.7049e-06
1.71028e-05
2.18209e-05
2.39551e-05
2.41307e-05
2.30587e-05
2.21209e-05
2.3115e-05
4.13822e-05
0.000222259
0.00021691
4.04218e-05
2.33136e-05
2.25661e-05
2.3542e-05
2.45773e-05
2.434e-05
2.21263e-05
1.73332e-05
9.99725e-06
1.69454e-05
1.67521e-05
1.94008e-05
2.2033e-05
2.36136e-05
2.40148e-05
2.3951e-05
2.56524e-05
5.98244e-05
0.000332119
0.000323881
5.7979e-05
2.58818e-05
2.43773e-05
2.44242e-05
2.39742e-05
2.23397e-05
1.96798e-05
1.71667e-05
1.77255e-05
4.07642e-05
2.75221e-05
2.12764e-05
2.05704e-05
2.17016e-05
2.27917e-05
2.36355e-05
2.69364e-05
7.83269e-05
0.000436807
0.000425756
7.5377e-05
2.70524e-05
2.39755e-05
2.30947e-05
2.19499e-05
2.07915e-05
2.15339e-05
2.79326e-05
4.12732e-05
5.91919e-05
4.09096e-05
2.77534e-05
2.40313e-05
2.49503e-05
2.71659e-05
2.93362e-05
3.47625e-05
9.86655e-05
0.00050551
0.000492787
9.52904e-05
3.49179e-05
2.97321e-05
2.75089e-05
2.52043e-05
2.42186e-05
2.79522e-05
4.12503e-05
5.94344e-05
7.55947e-05
7.23772e-05
4.79851e-05
4.70312e-05
5.42264e-05
6.07147e-05
6.24246e-05
5.9885e-05
0.000118786
0.000509866
0.00049759
0.000115599
6.03431e-05
6.3048e-05
6.12346e-05
5.46417e-05
4.73317e-05
4.81842e-05
7.28796e-05
7.5656e-05
9.21876e-05
0.000102353
0.00013026
0.000174833
0.000228728
0.000262753
0.00026175
0.000209663
0.000231601
0.000450564
0.000443193
0.000228513
0.000211123
0.000262867
0.000263142
0.00022892
0.000175118
0.000130538
0.000102392
9.21248e-05
0.000112665
0.000139337
0.000164182
0.00018922
0.000217335
0.000245455
0.000274324
0.000306959
0.000352536
0.00041626
0.000414284
0.000351063
0.000306071
0.000273659
0.000244895
0.000216859
0.000188837
0.000163849
0.000139058
0.00011247
3.50022e-06
5.66826e-06
4.8149e-06
6.20858e-06
7.24854e-06
8.25997e-06
9.64111e-06
1.13949e-05
1.24119e-05
1.33103e-05
1.32805e-05
1.24265e-05
1.1425e-05
9.7061e-06
8.34591e-06
7.34422e-06
6.32766e-06
4.90347e-06
5.56758e-06
3.49912e-06
6.16924e-06
9.74752e-06
1.16246e-05
1.39699e-05
1.59111e-05
1.7554e-05
2.12984e-05
2.38423e-05
6.20103e-05
6.20574e-05
6.15412e-05
6.11563e-05
2.35863e-05
2.11912e-05
1.75927e-05
1.6035e-05
1.41053e-05
1.167e-05
9.79542e-06
5.86448e-06
8.3464e-06
1.25003e-05
1.53906e-05
1.74007e-05
1.86465e-05
1.91669e-05
2.13206e-05
2.67362e-05
0.000133503
0.000111431
0.000110793
0.000131437
2.65381e-05
2.13628e-05
1.93225e-05
1.88779e-05
1.76967e-05
1.56582e-05
1.26462e-05
8.25048e-06
9.21913e-06
1.62663e-05
1.92617e-05
2.07475e-05
2.1443e-05
2.13718e-05
2.29065e-05
3.43643e-05
0.000222278
0.000169461
0.000169104
0.00021819
3.39213e-05
2.30627e-05
2.16216e-05
2.17166e-05
2.1103e-05
1.9635e-05
1.65035e-05
9.09889e-06
1.53405e-05
1.5232e-05
1.76162e-05
2.04179e-05
2.2656e-05
2.35894e-05
2.57095e-05
4.80593e-05
0.000332136
0.00023916
0.000239526
0.000325228
4.71281e-05
2.58313e-05
2.37283e-05
2.27139e-05
2.0433e-05
1.76669e-05
1.55021e-05
1.59308e-05
3.80195e-05
2.60439e-05
1.95994e-05
1.8319e-05
2.02119e-05
2.30584e-05
2.73057e-05
6.11019e-05
0.000436819
0.00031661
0.000318086
0.00042686
5.95276e-05
2.73024e-05
2.30599e-05
2.01646e-05
1.83214e-05
1.97211e-05
2.63563e-05
3.84604e-05
5.52357e-05
3.8483e-05
2.56444e-05
2.13144e-05
2.28681e-05
2.74423e-05
3.40881e-05
7.59662e-05
0.000505521
0.000392782
0.000395786
0.000493554
7.42506e-05
3.41338e-05
2.75009e-05
2.28806e-05
2.13507e-05
2.5775e-05
3.87666e-05
5.53845e-05
7.02667e-05
6.32325e-05
4.02311e-05
3.7676e-05
4.36181e-05
4.9117e-05
5.22166e-05
9.11954e-05
0.000509877
0.000439666
0.000444121
0.000497788
8.96191e-05
5.24472e-05
4.93358e-05
4.37313e-05
3.77433e-05
4.03231e-05
6.36029e-05
7.01958e-05
8.52603e-05
8.62688e-05
9.89833e-05
0.000136656
0.000178311
0.00019265
0.000176523
0.000232569
0.000450566
0.000462864
0.000466773
0.000442862
0.000229776
0.000176295
0.000192575
0.000177775
0.00013619
9.89543e-05
8.60952e-05
8.50243e-05
0.000105849
0.000131804
0.00015531
0.00018109
0.000211388
0.000243049
0.00028052
0.000336785
0.00041626
0.000439142
0.000441926
0.000414146
0.00033495
0.000279238
0.000242065
0.000210548
0.000180376
0.000154732
0.000131316
0.000105466
3.95927e-06
4.21197e-06
6.07675e-06
6.2888e-06
7.26202e-06
8.25462e-06
9.60327e-06
1.13147e-05
1.23442e-05
1.32809e-05
1.3281e-05
1.23832e-05
1.13746e-05
9.65055e-06
8.28637e-06
7.28185e-06
6.33111e-06
6.22971e-06
4.30047e-06
4.03135e-06
6.24048e-06
9.42524e-06
1.17723e-05
1.38943e-05
1.58291e-05
1.73461e-05
2.08586e-05
2.32116e-05
6.04815e-05
6.15407e-05
6.16499e-05
6.11511e-05
2.35586e-05
2.11332e-05
1.75293e-05
1.59767e-05
1.3925e-05
1.18868e-05
9.53279e-06
6.27662e-06
8.21656e-06
1.24682e-05
1.54958e-05
1.75603e-05
1.87231e-05
1.91477e-05
2.11025e-05
2.62023e-05
0.000130367
0.000110792
0.000110789
0.000131284
2.64442e-05
2.12519e-05
1.9228e-05
1.87934e-05
1.76249e-05
1.55934e-05
1.25882e-05
8.27148e-06
9.01953e-06
1.62436e-05
1.94089e-05
2.09872e-05
2.16562e-05
2.15497e-05
2.29004e-05
3.35404e-05
0.000216857
0.000169104
0.000168747
0.000217659
3.37037e-05
2.28933e-05
2.14949e-05
2.16035e-05
2.0998e-05
1.9536e-05
1.64155e-05
9.05975e-06
1.54409e-05
1.52474e-05
1.76862e-05
2.05808e-05
2.28474e-05
2.37832e-05
2.57679e-05
4.67067e-05
0.000323783
0.000239526
0.000238573
0.000323988
4.66149e-05
2.5587e-05
2.35501e-05
2.25557e-05
2.0302e-05
1.75877e-05
1.55135e-05
1.60604e-05
3.82198e-05
2.61397e-05
1.96375e-05
1.83335e-05
2.02809e-05
2.32079e-05
2.73768e-05
5.92233e-05
0.00042561
0.000318089
0.00031639
0.000425002
5.8835e-05
2.70446e-05
2.28994e-05
2.00422e-05
1.82415e-05
1.97149e-05
2.64212e-05
3.85263e-05
5.53332e-05
3.85961e-05
2.56842e-05
2.12753e-05
2.28749e-05
2.75877e-05
3.42397e-05
7.41339e-05
0.000492608
0.000395793
0.000393314
0.000491271
7.35147e-05
3.38925e-05
2.73559e-05
2.27731e-05
2.12929e-05
2.57881e-05
3.88066e-05
5.53478e-05
7.02727e-05
6.33887e-05
4.01492e-05
3.74413e-05
4.3399e-05
4.90401e-05
5.22753e-05
8.96216e-05
0.000497398
0.000444138
0.000441186
0.000495176
8.88984e-05
5.21754e-05
4.90966e-05
4.35032e-05
3.75717e-05
4.02504e-05
6.36006e-05
7.0071e-05
8.5186e-05
8.6186e-05
9.88395e-05
0.000135626
0.000177006
0.000191391
0.000175577
0.00023008
0.000443072
0.000466785
0.000463671
0.000440918
0.000228614
0.000175558
0.000191831
0.000176928
0.000135442
9.86349e-05
8.58571e-05
8.48126e-05
0.000105684
0.000131521
0.000154895
0.000180467
0.000210595
0.000242101
0.000279366
0.000335165
0.000414237
0.000441934
0.000439403
0.000412163
0.000333412
0.000278047
0.000241099
0.000209736
0.0001797
0.000154204
0.000130892
0.000105144
3.3373e-06
4.70906e-06
5.39416e-06
7.0452e-06
7.94369e-06
8.68021e-06
9.43422e-06
1.0411e-05
1.1147e-05
1.24265e-05
1.23847e-05
1.11052e-05
1.03809e-05
9.40121e-06
8.64703e-06
7.9099e-06
7.00223e-06
5.4731e-06
5.09004e-06
3.32877e-06
6.02036e-06
1.01821e-05
1.26974e-05
1.47698e-05
1.55758e-05
1.61364e-05
1.72385e-05
1.95223e-05
2.16766e-05
6.11539e-05
6.11583e-05
2.17413e-05
1.96291e-05
1.72877e-05
1.61418e-05
1.55666e-05
1.47523e-05
1.26884e-05
1.0259e-05
5.99463e-06
7.57883e-06
1.44807e-05
1.8494e-05
2.00739e-05
2.0125e-05
1.95939e-05
1.95041e-05
2.08741e-05
2.83213e-05
0.000131427
0.000131296
2.8331e-05
2.09165e-05
1.95119e-05
1.95846e-05
2.01377e-05
2.0129e-05
1.85727e-05
1.45864e-05
7.58465e-06
9.92001e-06
1.72013e-05
2.19654e-05
2.41703e-05
2.44237e-05
2.34201e-05
2.24407e-05
2.3184e-05
4.04139e-05
0.000218163
0.000217673
4.03772e-05
2.3135e-05
2.23768e-05
2.33593e-05
2.43887e-05
2.41506e-05
2.19648e-05
1.72247e-05
1.00115e-05
1.74953e-05
1.69978e-05
1.96195e-05
2.23379e-05
2.39686e-05
2.4388e-05
2.42929e-05
2.57683e-05
5.79582e-05
0.000325172
0.000324003
5.7646e-05
2.55956e-05
2.41148e-05
2.41829e-05
2.37542e-05
2.21551e-05
1.9547e-05
1.71368e-05
1.79028e-05
4.11334e-05
2.78028e-05
2.14247e-05
2.07138e-05
2.19235e-05
2.30968e-05
2.39544e-05
2.69913e-05
7.53417e-05
0.000426776
0.000425014
7.48022e-05
2.67424e-05
2.37359e-05
2.28927e-05
2.17677e-05
2.06394e-05
2.14571e-05
2.79565e-05
4.12713e-05
5.93366e-05
4.10997e-05
2.77976e-05
2.40467e-05
2.50818e-05
2.74679e-05
2.97256e-05
3.49042e-05
9.52471e-05
0.000493451
0.000491277
9.45042e-05
3.45692e-05
2.94752e-05
2.72899e-05
2.50094e-05
2.40674e-05
2.78739e-05
4.121e-05
5.92766e-05
7.55847e-05
7.25406e-05
4.79156e-05
4.70052e-05
5.43379e-05
6.10016e-05
6.28836e-05
6.0265e-05
0.000115554
0.000497683
0.000495173
0.000114678
6.00326e-05
6.27198e-05
6.08652e-05
5.42934e-05
4.70535e-05
4.79813e-05
7.26777e-05
7.53769e-05
9.20658e-05
0.000102091
0.000130006
0.000174546
0.000228108
0.000262144
0.000261986
0.00021086
0.000228457
0.000442795
0.000440912
0.000226852
0.000210892
0.00026241
0.00026208
0.000227763
0.000174186
0.000129836
0.000101867
9.17387e-05
0.000112484
0.000139071
0.000163834
0.000188788
0.000216784
0.000244825
0.000273639
0.000306096
0.000351032
0.00041412
0.000412161
0.000349334
0.000304749
0.000272551
0.000243903
0.000215967
0.00018806
0.000163181
0.000138495
0.000112008
3.3418e-06
5.28798e-06
6.98329e-06
8.3985e-06
9.19987e-06
9.64991e-06
9.90328e-06
1.01469e-05
1.04538e-05
1.14248e-05
1.13775e-05
1.03817e-05
1.00743e-05
9.83394e-06
9.5897e-06
9.15286e-06
8.37979e-06
6.97531e-06
5.32855e-06
3.42184e-06
6.18485e-06
1.18012e-05
1.50978e-05
1.66367e-05
1.69773e-05
1.68728e-05
1.68005e-05
1.74473e-05
1.96888e-05
2.35878e-05
2.35639e-05
1.96318e-05
1.73852e-05
1.6725e-05
1.68011e-05
1.69235e-05
1.66097e-05
1.50651e-05
1.17944e-05
6.1901e-06
9.11359e-06
1.98542e-05
2.35449e-05
2.44548e-05
2.37096e-05
2.21178e-05
2.05207e-05
1.98747e-05
2.10225e-05
2.65383e-05
2.64486e-05
2.09179e-05
1.97921e-05