/*--------------------------------*- C++ -*----------------------------------*\
| =========                 |                                                 |
| \\      /  F ield         | OpenFOAM: The Open Source CFD Toolbox           |
|  \\    /   O peration     | Version:  v1912                                 |
|   \\  /    A nd           | Website:  www.openfoam.com                      |
|    \\/     M anipulation  |                                                 |
\*---------------------------------------------------------------------------*/
FoamFile
{
    version     2.0;
    format      ascii;
    class       volScalarField;
    location    "900";
    object      nut;
}
// * * * * * * * * * * * * * * * * * * * * * * * * * * * * * * * * * * * * * //

dimensions      [0 2 -1 0 0 0 0];


internalField   nonuniform List<scalar> 
4000
(
0.000392834
0.000374175
0.00034844
0.00030082
0.000142095
0.000118583
0.000106504
0.000101739
9.85602e-05
0.00015059
8.41026e-05
9.83489e-05
0.000104026
0.000109615
0.000119294
0.0001427
0.000306068
0.000351031
0.000376083
0.000394471
0.000411725
0.000389975
0.00035167
0.000312059
0.000261109
0.000189591
0.000139952
0.000137687
0.000135029
0.000171732
0.000118326
0.000132628
0.000138635
0.000141039
0.000190905
0.000262356
0.000314873
0.000353314
0.000391362
0.000413251
0.000423524
0.000405766
0.000368752
0.000325141
0.000290437
0.000254216
0.000220633
0.00017004
0.000160245
0.000169412
0.000159207
0.00015278
0.000168965
0.000221083
0.000254657
0.000290994
0.000325966
0.000369772
0.000406915
0.000424914
0.000430706
0.000418334
0.000388357
0.000346754
0.000308293
0.000273376
0.000242324
0.000209128
0.000175945
0.00017051
0.000169721
0.000176883
0.00021073
0.0002432
0.00027403
0.000309016
0.000347331
0.000389473
0.000419466
0.000431995
0.000436307
0.000430558
0.000412327
0.000385743
0.000357422
0.000324486
0.00029171
0.000259794
0.000232401
0.0002205
0.000222038
0.000235126
0.000263273
0.00029463
0.000328015
0.000359218
0.000387162
0.000413568
0.000431724
0.00043753
0.000441558
0.000443635
0.000437314
0.000426112
0.000413788
0.000400405
0.000386735
0.000372142
0.000358732
0.000346501
0.000347392
0.000360249
0.000373981
0.000388579
0.000402217
0.000415442
0.000427608
0.000438682
0.000444909
0.000442747
0.000447491
0.000457575
0.000462163
0.000462834
0.000461609
0.000457868
0.000451781
0.000443102
0.000432013
0.000417339
0.000417726
0.000432562
0.000443979
0.000452874
0.000459122
0.000462953
0.000464217
0.000463532
0.000458889
0.000448645
0.000454534
0.000472742
0.000486584
0.000495872
0.000502071
0.000504634
0.000503694
0.000498487
0.000488174
0.000470662
0.000470702
0.000488173
0.000498852
0.000504379
0.000505592
0.000503236
0.000497167
0.000487928
0.000474061
0.000455652
0.00046369
0.000491266
0.000513393
0.000529642
0.000541618
0.000548852
0.000551692
0.000549077
0.000539073
0.00051843
0.000518228
0.000538756
0.000549203
0.000552229
0.000549719
0.000542727
0.000530897
0.000514712
0.000492559
0.000464765
0.000477211
0.00051329
0.000542098
0.000563141
0.000579356
0.000591158
0.000598661
0.000600972
0.000595929
0.000577626
0.000577208
0.00059549
0.000600925
0.000598967
0.00059176
0.000580198
0.000564164
0.000543236
0.000514457
0.00047822
0.000374188
0.000373553
0.000343944
0.00029753
0.000168066
0.000161818
0.000143617
0.000127121
0.00016354
7.52177e-05
0.000177428
0.000113357
0.000124691
0.000149723
0.00016297
0.000169001
0.000305487
0.000347911
0.000376597
0.000376614
0.000389997
0.000565111
0.00050448
0.0003956
0.000352649
0.000348186
0.000332046
0.000305361
0.000325816
0.000353491
0.000360871
0.000322032
0.000307216
0.000336335
0.000349614
0.000355365
0.000403525
0.000514256
0.000563963
0.000392409
0.000405786
0.000627523
0.000678949
0.000552403
0.000453395
0.000403021
0.000378349
0.000353046
0.000348422
0.00040526
0.000400324
0.000347533
0.000354832
0.0003801
0.000404581
0.000456426
0.000556965
0.000680329
0.000626293
0.000407978
0.000418349
0.000618546
0.00064883
0.000584699
0.000490992
0.000424051
0.000378324
0.000346317
0.000343064
0.00041278
0.000407968
0.000341282
0.000347744
0.00038055
0.000427124
0.00049525
0.000589763
0.000652569
0.000620803
0.000420337
0.000430568
0.000627572
0.000651724
0.000584614
0.000489684
0.000417597
0.000367201
0.000325095
0.000296373
0.000304985
0.000303628
0.000296533
0.000327345
0.000370197
0.000421356
0.000493308
0.000588662
0.000656079
0.000631145
0.000432333
0.000443638
0.000644145
0.000676475
0.000636793
0.000549732
0.00045491
0.000400213
0.000355198
0.000324933
0.000316905
0.000317595
0.00032685
0.000357696
0.00040297
0.000457784
0.000552154
0.000640608
0.000680702
0.000647871
0.000445182
0.000457574
0.000657796
0.000700879
0.00070109
0.000668294
0.00060005
0.000512726
0.000450619
0.000416005
0.00039838
0.000399477
0.000417912
0.000452962
0.000516849
0.000604621
0.000672254
0.000705182
0.000704897
0.000661448
0.000458923
0.00047274
0.000663216
0.000716972
0.000760178
0.000794301
0.000802736
0.000787102
0.000742051
0.000679248
0.000611195
0.000612963
0.00068169
0.000745863
0.000790441
0.000806755
0.000798896
0.000764914
0.000720965
0.000666741
0.000473956
0.000491264
0.000644849
0.000720656
0.000777274
0.000816494
0.000829037
0.000825132
0.000800653
0.000744831
0.000654137
0.000654028
0.000743603
0.000801334
0.000827463
0.000832555
0.000820631
0.000781395
0.000724304
0.000647815
0.000492387
0.000513287
0.000553308
0.000586581
0.000612264
0.000633254
0.000649646
0.000661255
0.000666553
0.000662705
0.000644548
0.000643892
0.00066212
0.000666425
0.000661543
0.000650282
0.000634159
0.000613347
0.000587748
0.000554449
0.000514208
0.000348472
0.000343987
0.000317018
0.000249915
0.000177108
0.000190293
0.000167449
0.000142973
0.000106162
0.000178654
8.92825e-05
0.00017485
0.000140475
0.000170172
0.000188218
0.000177773
0.000268
0.000323272
0.000347915
0.000351485
0.000351745
0.000504517
0.000446495
0.000372493
0.00039332
0.00040478
0.000382626
0.000369564
0.000381656
0.000430639
0.000418083
0.000383355
0.000371366
0.000383213
0.000400736
0.000385402
0.000378443
0.000460207
0.000517443
0.000354929
0.000368814
0.000678977
0.000679707
0.000567794
0.0004994
0.000468395
0.000455723
0.000437777
0.000434188
0.000478374
0.000472078
0.000433743
0.000437683
0.000455082
0.000467216
0.000499711
0.000573208
0.000692727
0.000683023
0.00037194
0.000388405
0.000648858
0.000719569
0.000659957
0.000572703
0.000508737
0.00046695
0.000443225
0.000450959
0.000498946
0.000494322
0.000448616
0.000444227
0.000469457
0.000512696
0.000578862
0.000669421
0.00072917
0.000655003
0.000391245
0.000412349
0.000651753
0.000709091
0.00065936
0.000569231
0.000496206
0.000444785
0.000407066
0.00038984
0.000421326
0.000419913
0.000389566
0.000409121
0.000448124
0.000500644
0.000574757
0.00066651
0.000717359
0.000658586
0.000414637
0.000437318
0.000676501
0.000741197
0.000702975
0.000600271
0.000497963
0.000428483
0.000375296
0.000336638
0.000327646
0.000327575
0.000337175
0.00037699
0.000431023
0.000500943
0.000603444
0.000708101
0.000748285
0.000682927
0.000439222
0.000462161
0.000700904
0.00078069
0.000768727
0.00068446
0.000576606
0.000484607
0.000418045
0.000373722
0.000352936
0.000353335
0.000374268
0.000419584
0.000487377
0.00057993
0.000687706
0.000773486
0.000787139
0.000706898
0.000463687
0.00048658
0.000716993
0.000825361
0.000866531
0.000846256
0.000779198
0.000712977
0.000648636
0.000584275
0.000514153
0.00051383
0.000584692
0.000651615
0.000716475
0.000783817
0.000851228
0.000872194
0.000831938
0.000722638
0.000487866
0.000513387
0.000720665
0.000897067
0.00104573
0.0011351
0.00115398
0.00114749
0.00111678
0.00103896
0.000875546
0.000875083
0.0010367
0.00111847
0.001152
0.00116025
0.00114216
0.00105262
0.000903331
0.000725364
0.000514564
0.000542091
0.000586576
0.000623768
0.000653455
0.0006785
0.000698749
0.000713912
0.00072193
0.00071935
0.000699645
0.000698754
0.00071864
0.000721741
0.000714179
0.000699399
0.000679431
0.00065455
0.000624919
0.000587666
0.000542952
0.000300891
0.000297795
0.000249922
0.000187113
0.000200733
0.000196584
0.000178615
0.000162963
0.00014522
0.000141812
0.000141904
0.000150916
0.000163278
0.000178683
0.000196296
0.000197928
0.000189374
0.000267808
0.000305549
0.000307041
0.000312192
0.000395721
0.000372545
0.000391683
0.000431405
0.000425814
0.000413077
0.000411993
0.000431012
0.000479899
0.000473352
0.000429437
0.000412445
0.000411715
0.000420697
0.000422045
0.000383897
0.000378762
0.000405025
0.000316171
0.000325248
0.000552481
0.00056783
0.000531827
0.000510628
0.000504617
0.000499831
0.000485519
0.000489654
0.000535578
0.000528641
0.000486157
0.000483815
0.000496996
0.000501182
0.000507892
0.000532305
0.000574799
0.000560937
0.000327976
0.000346886
0.000584761
0.000659986
0.000635272
0.000586537
0.000546081
0.000519352
0.000507402
0.000517513
0.000555145
0.000551369
0.000515024
0.000507804
0.00052153
0.00054974
0.000592239
0.000644011
0.000672056
0.000594527
0.000349589
0.000385804
0.00058468
0.0006594
0.000649009
0.00059733
0.000545012
0.000504476
0.000476555
0.000471809
0.000519731
0.000519409
0.00047246
0.000479183
0.000508594
0.000550496
0.000604363
0.000658108
0.000670149
0.000594162
0.000388585
0.000426128
0.00063685
0.000703026
0.000691943
0.000627713
0.000549556
0.000486289
0.000436779
0.000400997
0.000395758
0.000395673
0.000401545
0.000438973
0.000489877
0.000554248
0.000633406
0.000699416
0.000712555
0.00064583
0.00042829
0.000462831
0.000701135
0.00076878
0.00076831
0.00070749
0.000613693
0.000528046
0.000459843
0.000406614
0.000378495
0.00037823
0.000407057
0.000462121
0.000531947
0.000618709
0.000713376
0.000775713
0.000778047
0.000709164
0.000464429
0.000495864
0.000760205
0.000866576
0.000911369
0.000889228
0.000816361
0.000739559
0.000667546
0.00059451
0.000518468
0.000517239
0.000594901
0.000670852
0.000744968
0.000823356
0.000897412
0.000920988
0.000876238
0.000767116
0.000497142
0.000529631
0.000777291
0.00104575
0.00127649
0.00136803
0.00137906
0.00136975
0.00132838
0.00122075
0.00103296
0.00102892
0.00121963
0.00133218
0.00137678
0.00138849
0.00137826
0.00128655
0.00105465
0.000783177
0.000530787
0.00056313
0.000612254
0.000653451
0.000687365
0.00071718
0.000742244
0.00076162
0.00077291
0.000772241
0.000755468
0.000754223
0.000771419
0.000772653
0.000761839
0.00074287
0.000718089
0.00068842
0.000654522
0.000613232
0.000563885
0.000141266
0.000167572
0.000176479
0.000200325
0.000203
0.000194119
0.000181755
0.0001693
0.000157675
0.000151704
0.000152873
0.000158187
0.000170477
0.000182875
0.000195113
0.000203156
0.000198157
0.000178046
0.00016917
0.000143138
0.000260959
0.000352638
0.000393353
0.0004314
0.000441321
0.000437342
0.000433995
0.000437182
0.000463827
0.000530579
0.000520666
0.000459408
0.0004369
0.000432606
0.000432587
0.000434486
0.000422496
0.000386218
0.000356433
0.000263884
0.000290499
0.000453434
0.000499427
0.000510639
0.000519286
0.000526011
0.000521638
0.000509738
0.000521064
0.000586191
0.000576194
0.00051643
0.00050783
0.000518179
0.000521604
0.000515324
0.000508541
0.000501401
0.00045917
0.00029269
0.00030844
0.000491047
0.000572731
0.000586546
0.000574403
0.0005592
0.000549079
0.000545495
0.000555046
0.000600785
0.000595045
0.000552486
0.000545491
0.000550806
0.000562103
0.000578986
0.000593189
0.000581459
0.000498802
0.000311055
0.000357549
0.000489768
0.000569277
0.000597347
0.000586459
0.000562134
0.000538757
0.000523469
0.000531602
0.000589478
0.000588642
0.000532815
0.000526607
0.000543332
0.00056805
0.000593731
0.000605943
0.00057859
0.000497863
0.000360662
0.000413833
0.000549838
0.000600357
0.000627757
0.000613034
0.000572723
0.000529841
0.000493772
0.000473319
0.000491023
0.000492078
0.000475171
0.00049741
0.00053514
0.000579512
0.000621059
0.000636915
0.000610323
0.000559101
0.000416132
0.000461611
0.000668366
0.000684563
0.000707557
0.000694154
0.000640922
0.000577241
0.000519415
0.000473941
0.000461468
0.000462517
0.000476212
0.000523862
0.000583738
0.000649215
0.00070398
0.000718593
0.000695884
0.000677544
0.000463187
0.000502061
0.000794339
0.000846368
0.000889304
0.000885562
0.000833673
0.000768896
0.00070304
0.000630456
0.000554664
0.000554162
0.00063238
0.000708193
0.000777083
0.000844023
0.000897624
0.000902723
0.000859283
0.000802078
0.000503246
0.000541605
0.000816518
0.00113516
0.00136808
0.00147818
0.00153728
0.00156156
0.00153364
0.00140692
0.00117485
0.00117028
0.00140525
0.00153643
0.00156912
0.00154836
0.00149094
0.00138109
0.00114586
0.000822874
0.000542658
0.000579342
0.000633242
0.000678493
0.000717176
0.000753204
0.000783893
0.000808379
0.000824195
0.000827618
0.000816214
0.000814745
0.000826633
0.000823766
0.000808412
0.000784334
0.000753974
0.000718092
0.00067939
0.000634029
0.00057994
0.000117868
0.000161742
0.000186897
0.00019573
0.000194098
0.000189027
0.000181614
0.000172818
0.000164559
0.00016155
0.000161943
0.000165286
0.000174438
0.000183269
0.000190611
0.000195402
0.000196778
0.000188493
0.000162616
0.000119124
0.000191922
0.000348287
0.000404696
0.000425733
0.000437316
0.000444061
0.000447262
0.000455341
0.000489566
0.000563163
0.000552283
0.000483175
0.000454283
0.000446392
0.000441571
0.000433231
0.000422224
0.000402903
0.000352138
0.000194871
0.000254456
0.000403052
0.000468398
0.000504623
0.000526018
0.000532679
0.000526436
0.000519162
0.000539829
0.000606237
0.000596109
0.000534335
0.000517815
0.000524211
0.000528855
0.000522143
0.000502026
0.000468571
0.000406217
0.000256076
0.0002735
0.000424092
0.000508755
0.000546089
0.000559203
0.000562981
0.000563222
0.000561386
0.000570867
0.000614513
0.000609741
0.000568779
0.000561488
0.000564392
0.000565265
0.000562498
0.00055069
0.000514395
0.000429069
0.000275262
0.000324653
0.000417673
0.000496244
0.00054503
0.000562139
0.000561114
0.000553935
0.00055075
0.000569086
0.000619282
0.000618981
0.00057044
0.000554145
0.000558493
0.000566657
0.00056849
0.000551825
0.000502826
0.000423422
0.000329555
0.000400475
0.00045499
0.000498031
0.000549605
0.000572742
0.000567312
0.000548698
0.000530601
0.000529897
0.000567335
0.000569734
0.000533172
0.000535556
0.000555113
0.00057485
0.000580831
0.000557605
0.000505281
0.000460748
0.000402828
0.000457882
0.000600178
0.000576719
0.000613788
0.000640968
0.000630198
0.000596006
0.000557721
0.000532788
0.000549756
0.000552889
0.0005375
0.000564482
0.000604721
0.00064049
0.000652179
0.000625019
0.000587113
0.000610218
0.000459363
0.000504622
0.000802781
0.000779322
0.000816474
0.000833729
0.000814052
0.000774905
0.000723722
0.000656211
0.000585581
0.000586849
0.000660126
0.000730606
0.000784834
0.000826482
0.000847247
0.00083006
0.000790838
0.00081059
0.00050563
0.000548836
0.000829061
0.00115404
0.00137914
0.00153732
0.00164108
0.00169275
0.00166001
0.00148451
0.00115883
0.00115501
0.0014835
0.00166235
0.00169851
0.00165071
0.00154967
0.00139157
0.00116375
0.000834563
0.000549666
0.000591142
0.000649631
0.000698739
0.000742237
0.000783889
0.000820091
0.000849843
0.000870676
0.000879537
0.000875211
0.000873572
0.000878473
0.000870111
0.000849652
0.000820219
0.000784342
0.000742861
0.000699334
0.000650144
0.000591534
0.000110038
0.000149312
0.000163996
0.000176183
0.000181334
0.000181596
0.000179002
0.000175021
0.000171543
0.000174383
0.00017418
0.000172404
0.000176706
0.000180839
0.000183476
0.000183302
0.000179127
0.00017046
0.00015118
0.000110233
0.000143559
0.000331906
0.000382296
0.000412894
0.000433882
0.000447213
0.000457066
0.000474066
0.000518211
0.000590107
0.000580733
0.000510318
0.000471937
0.000456693
0.000447009
0.000433652
0.000413305
0.000385552
0.00033912
0.000142228
0.000221025
0.000378409
0.000455693
0.000499785
0.000521614
0.000526422
0.000522963
0.000525345
0.000554087
0.000579528
0.000574982
0.000548312
0.000524128
0.000522469
0.000525069
0.000519652
0.000498682
0.000456723
0.000381353
0.000221989
0.000242408
0.000378363
0.000466953
0.000519346
0.000549075
0.00056322
0.000565481
0.000563144
0.000573359
0.000551706
0.000554683
0.000572382
0.000563869
0.000566721
0.000564967
0.00055158
0.000522486
0.000470637
0.000381693
0.000243993
0.000291828
0.000367279
0.000444826
0.000504491
0.00053876
0.000553934
0.000559061
0.000565253
0.000582323
0.000542812
0.000549125
0.000584696
0.000568736
0.000563389
0.000558697
0.000543735
0.000509324
0.000449129
0.000371235
0.000295867
0.000386776
0.00040028
0.00042853
0.000486328
0.000529863
0.000548705
0.000550888
0.000550023
0.000558198
0.000516584
0.000523503
0.0005629
0.00055553
0.000557322
0.000555503
0.000536346
0.000492001
0.000433335
0.000404713
0.000389135
0.000451809
0.000512867
0.00048471
0.000528139
0.000577303
0.000596032
0.000587833
0.000571582
0.000566879
0.000548471
0.000554598
0.000573315
0.000579542
0.000597135
0.000605973
0.000586964
0.000536726
0.000492055
0.000520774
0.000453128
0.000503681
0.000787158
0.000713099
0.00073968
0.000768978
0.000774941
0.000757417
0.000716719
0.000652507
0.000581438
0.000584533
0.000657898
0.000724156
0.000766975
0.000786297
0.000780636
0.000750343
0.000721694
0.000794702
0.000504472
0.000551674
0.000825153
0.00114756
0.00136983
0.00156162
0.00169278
0.00174835
0.00167739
0.00140699
0.000942164
0.000940583
0.0014095
0.00168066
0.0017526
0.00169929
0.0015704
0.00137889
0.00115476
0.000829337
0.000552226
0.000598643
0.000661239
0.0007139
0.000761611
0.000808374
0.000849841
0.000885092
0.000912143
0.000929838
0.000940283
0.000938429
0.000928742
0.00091147
0.000884698
0.000849672
0.000808438
0.000761829
0.000714115
0.000661427
0.000598795
0.000108999
0.000129783
0.000147182
0.000159058
0.000168626
0.000172851
0.000175082
0.000177363
0.000180564
0.000189536
0.000188918
0.000181162
0.000178876
0.000176917
0.000174841
0.000171006
0.000163403
0.000138503
0.000128885
0.000106998
0.000142855
0.000305297
0.00036957
0.000411916
0.000437082
0.000455286
0.000474059
0.000503165
0.000531593
0.000471333
0.000465799
0.000524622
0.000499597
0.00047333
0.000456135
0.000438925
0.000414526
0.000372566
0.000309163
0.000140111
0.000169738
0.000353456
0.000437959
0.000485512
0.000509707
0.000519137
0.000525341
0.000539896
0.000518059
0.000346496
0.000345899
0.000517252
0.000538362
0.000525577
0.000519929
0.000510418
0.000486596
0.00044019
0.000356406
0.000170165
0.000210473
0.000346696
0.000443318
0.00050742
0.000545499
0.000561386
0.000563147
0.000561203
0.000495057
0.000313529
0.000313834
0.00050167
0.00056316
0.00056505
0.000563167
0.000547234
0.000509291
0.000445389
0.000348631
0.000211552
0.000261053
0.00032554
0.000407212
0.000476597
0.000523476
0.000550749
0.000565256
0.000569155
0.000478639
0.000343477
0.000340745
0.000488467
0.000573697
0.00056921
0.000554573
0.00052693
0.000479508
0.000409613
0.000328242
0.000264773
0.000372263
0.000355351
0.000375357
0.000436812
0.00049379
0.000530609
0.000550028
0.000554355
0.000449582
0.000380338
0.000375186
0.00045973
0.000560599
0.000555642
0.000535809
0.000498103
0.000440207
0.000378404
0.000358877
0.000374514
0.000443162
0.000450726
0.00041813
0.000459926
0.000519478
0.000557757
0.000571598
0.00057358
0.000499276
0.000449593
0.000445976
0.000508954
0.000581778
0.000579983
0.000565804
0.000526399
0.000465394
0.00042245
0.000455284
0.000444269
0.000498482
0.000742161
0.000648744
0.000667659
0.000703129
0.000723778
0.000716744
0.000677402
0.000608462
0.000556324
0.000554253
0.000614594
0.000684751
0.000724913
0.000732418
0.00071136
0.000674803
0.000654982
0.000750301
0.000499021
0.000549059
0.000800672
0.00111685
0.00132847
0.00153371
0.00166006
0.00167741
0.00150628
0.00111432
0.000954609
0.000949371
0.00112122
0.00151278
0.00168206
0.00166444
0.00153866
0.001334
0.00112141
0.0008036
0.000549295
0.000600953
0.000666537
0.000721918
0.000772901
0.000824189
0.000870673
0.000912142
0.000948492
0.000983612
0.0010303
0.00102792
0.000982299
0.000947636
0.000911498
0.000870182
0.000823839
0.000772679
0.000721718
0.000666358
0.000600825
0.000116832
9.5788e-05
0.000174933
0.000149355
0.000156829
0.000164232
0.000171502
0.000180574
0.000187094
0.000197816
0.0001973
0.000187475
0.000181559
0.000172962
0.000165951
0.000158764
0.000150771
0.000179719
0.000102053
0.000106307
0.000144744
0.000321085
0.000385341
0.000431594
0.000463811
0.000489517
0.000518228
0.000531629
0.000417592
0.000458961
0.000453446
0.000414913
0.000527672
0.000514824
0.000487774
0.000463732
0.000432558
0.000386448
0.000322606
0.000137497
0.000153739
0.000348723
0.00043482
0.000489744
0.000521048
0.00053983
0.000554126
0.00051809
0.000326057
0.000569801
0.000559836
0.000326523
0.0005197
0.00055272
0.000538872
0.00052087
0.0004904
0.000437198
0.00035044
0.000153198
0.000175657
0.000343634
0.000451146
0.000517558
0.000555059
0.000570883
0.000573391
0.000495072
0.000326103
0.00077593
0.000760779
0.000325423
0.000503117
0.000575456
0.000571922
0.000555626
0.00051786
0.000451004
0.000343002
0.000177406
0.000234137
0.000297332
0.000390251
0.000471935
0.00053163
0.000569097
0.000582345
0.000478648
0.000372761
0.00102631
0.00100552
0.000368018
0.000489243
0.00058607
0.000571005
0.000532528
0.000471813
0.000389479
0.000297641
0.000236732
0.000358801
0.000325234
0.000336758
0.00040103
0.00047333
0.000529906
0.000558215
0.000449592
0.000425929
0.00126166
0.001236
0.000416737
0.000459963
0.000562872
0.000532511
0.000474676
0.00040181
0.00033811
0.000327936
0.000360843
0.000432057
0.000416132
0.000373806
0.000406685
0.000473997
0.000532827
0.000566909
0.000499293
0.000509077
0.00142385
0.00139611
0.000499944
0.000509022
0.000573384
0.000537946
0.000477753
0.000409446
0.000376469
0.00041966
0.000432918
0.000488175
0.000679364
0.000584375
0.000594614
0.000630544
0.000656275
0.00065255
0.000608482
0.000641877
0.00150034
0.00147388
0.00063507
0.000615298
0.000659169
0.000662312
0.000635736
0.000599035
0.000588813
0.000686241
0.000488386
0.000539055
0.000744846
0.00103903
0.00122084
0.00140701
0.00148458
0.00140704
0.00111433
0.00100912
0.001454
0.00143675
0.00100255
0.0011234
0.00141345
0.00148822
0.00140965
0.00122363
0.00104118
0.000746458
0.000538899
0.000595908
0.000662688
0.000719338
0.000772233
0.000827614
0.000879535
0.000929838
0.000983612
0.00105412
0.00114545
0.00114277
0.00105196
0.000982222
0.000928738
0.000878559
0.000826736
0.000771478
0.000718637
0.000662055
0.000595423
7.72081e-05
0.000204089
8.72789e-05
0.000136214
0.000151034
0.000161622
0.000174481
0.00018959
0.000197842
0.000204871
0.000204644
0.000197956
0.000189828
0.000175026
0.000162439
0.00015246
0.00013947
8.70804e-05
0.000194967
8.48558e-05
0.000133712
0.000366724
0.000424157
0.000480547
0.000530518
0.000563126
0.000590123
0.000471324
0.000459016
0.000305878
0.000304652
0.000456493
0.000470274
0.000586583
0.000558646
0.00052695
0.000478296
0.00042172
0.00036447
0.000122345
0.000162179
0.000405643
0.000478198
0.000535758
0.000586244
0.00060629
0.000579583
0.000346515
0.000569869
0.000445309
0.000443378
0.00056405
0.000348698
0.000579863
0.000602134
0.000582127
0.000533512
0.000476429
0.000403608
0.000159396
0.000173368
0.000413458
0.000499093
0.000555226
0.000600869
0.00061458
0.000551754
0.000313555
0.000775993
0.000593969
0.000592077
0.000765494
0.00031564
0.000556694
0.000612768
0.000597666
0.000554086
0.000497978
0.000411149
0.000169682
0.000226238
0.000308146
0.000422518
0.000520077
0.000589591
0.000619332
0.000542844
0.000343504
0.00102637
0.000762362
0.000761215
0.00101027
0.000342536
0.000548742
0.00061799
0.000585551
0.000514575
0.000415752
0.000303655
0.000224866
0.000346692
0.000317614
0.00032803
0.000395906
0.00049108
0.000567372
0.000516619
0.000380355
0.0012617
0.000945671
0.000945822
0.00124001
0.000376268
0.000521501
0.000565838
0.000487562
0.000392766
0.000327047
0.000319114
0.00034835
0.000417396
0.000398591
0.00035308
0.000378588
0.00046153
0.000549798
0.000548517
0.000449611
0.00142389
0.00112786
0.00113
0.0013994
0.000446162
0.000553355
0.000550878
0.000461442
0.000378703
0.000354508
0.000401429
0.000417913
0.000470665
0.000611293
0.000514236
0.000518548
0.000554735
0.000585641
0.000581491
0.000556339
0.00150039
0.00126255
0.00126672
0.00147573
0.000554464
0.000586062
0.000589149
0.000557372
0.000520954
0.000517409
0.000616736
0.000470437
0.000518407
0.000654124
0.000875576
0.00103304
0.00117494
0.00115894
0.00094225
0.000954628
0.00145403
0.00135845
0.00136181
0.00143669
0.000948899
0.000946112
0.00116202
0.00117515
0.00103294
0.000877166
0.000654599
0.000517718
0.000577601
0.000644528
0.000699636
0.00075546
0.000816211
0.00087521
0.000940282
0.0010303
0.00114545
0.00117658
0.00118031
0.00114258
0.00102753
0.000938164
0.000873465
0.000814613
0.000753998
0.000698358
0.000643364
0.00057659
0.000140341
8.08027e-05
0.000183603
0.000139344
0.000150964
0.000161308
0.00017403
0.0001889
0.000197306
0.000204649
0.000204646
0.000197601
0.000189368
0.000174368
0.000161382
0.000150847
0.000141622
0.000197294
7.94896e-05
0.000140767
0.000159229
0.000351304
0.000424501
0.000472822
0.000520452
0.000552138
0.000580641
0.00046576
0.000453448
0.000304662
0.000305199
0.000456438
0.000469805
0.00058601
0.000558068
0.000526211
0.000476285
0.000428105
0.000352926
0.000155651
0.000163675
0.000400619
0.000472777
0.000528673
0.000576121
0.000596038
0.000574966
0.000345919
0.00055977
0.000443385
0.000443901
0.000563438
0.000347576
0.00057854
0.000600886
0.000580971
0.00053223
0.000475602
0.000401602
0.000162918
0.000168923
0.000408026
0.000494476
0.000551423
0.000595045
0.000609732
0.00055475
0.000313858
0.000760631
0.000592078
0.000592056
0.000763731
0.000313876
0.000554848
0.000610795
0.000595932
0.000552542
0.00049646
0.000409427
0.000168573
0.000221352
0.000303666
0.000420271
0.000519606
0.000588718
0.000619016
0.000549225
0.000340709
0.00100526
0.000761211
0.000760197
0.00100653
0.000339422
0.000546564
0.000615554
0.000583522
0.000513172
0.000414624
0.000302539
0.000224523
0.000347264
0.000317666
0.00032769
0.000395762
0.000492159
0.000569799
0.000523605
0.000375091
0.00123564
0.000945812
0.000943557
0.00123458
0.000372454
0.000519381
0.000563802
0.000485965
0.000391443
0.000326546
0.000319469
0.000348576
0.000417725
0.000399539
0.000353402
0.000378295
0.000462585
0.000552953
0.000554683
0.00044588
0.00139569
0.00112999
0.00112651
0.00139274
0.000442391
0.000551329
0.000549146
0.000460015
0.000377765
0.000354555
0.000401893
0.000417772
0.000470682
0.00061302
0.000513865
0.00051726
0.000554173
0.000586865
0.000584561
0.000554165
0.00147342
0.00126672
0.00126243
0.00146814
0.000551087
0.00058413
0.000587463
0.000555814
0.000519776
0.00051693
0.000616974
0.000470023
0.000518189
0.000653989
0.000875063
0.00102888
0.00117025
0.00115503
0.00094061
0.000949216
0.00143644
0.0013618
0.00135711
0.00143144
0.000945275
0.000944165
0.00115998
0.00117237
0.00103022
0.000875971
0.000653552
0.000517079
0.000577166
0.000643851
0.000698718
0.000754182
0.000814703
0.000873528
0.000938378
0.00102785
0.00114271
0.00118032
0.00117694
0.00113988
0.00102519
0.000936182
0.000871736
0.000813055
0.000752597
0.000697175
0.000642333
0.000575717
0.000106149
0.000126944
0.000104528
0.000148719
0.000158934
0.00016571
0.000172554
0.00018121
0.000187496
0.000197954
0.000197631
0.000187135
0.000180934
0.000172201
0.00016521
0.000158067
0.000147181
0.000108366
0.000153595
9.55453e-05
0.000142259
0.000323064
0.00038012
0.000429157
0.000459286
0.000483126
0.000510273
0.00052459
0.000414927
0.000456502
0.000456473
0.000415594
0.000527134
0.000513455
0.000486078
0.000461884
0.000430878
0.000381596
0.000324919
0.00013707
0.000157288
0.000347973
0.00043344
0.00048613
0.000516401
0.000534302
0.000548279
0.000517262
0.000326544
0.000564027
0.000563485
0.000326241
0.000518238
0.000550726
0.000536872
0.000518982
0.000488567
0.000435093
0.000348792
0.000155579
0.000177292
0.000341448
0.000448655
0.00051505
0.000552496
0.000568782
0.00057239
0.000501744
0.000325423
0.000765425
0.000763781
0.000324478
0.000500606
0.00057268
0.000569327
0.000553218
0.000515615
0.000449097
0.000341623
0.000177591
0.000235674
0.000296811
0.000389754
0.000472573
0.000532873
0.000570468
0.000584722
0.000488564
0.000367957
0.00101014
0.00100657
0.000365806
0.00048581
0.000582414
0.000567796
0.000529925
0.000469864
0.000387967
0.000296737
0.000237483
0.000360248
0.000326925
0.000337253
0.00040162
0.00047523
0.000533218
0.000562943
0.000459824
0.000416614
0.00123982
0.00123462
0.000413662
0.000456796
0.00055961
0.000529824
0.000472407
0.000399841
0.000336939
0.000328041
0.000360791
0.000432557
0.000417952
0.000374303
0.000407101
0.000476259
0.000537551
0.000573366
0.000509026
0.000499802
0.00139918
0.00139276
0.000496088
0.000505742
0.000570073
0.000535085
0.00047522
0.000407481
0.000375627
0.000419663
0.00043234
0.000488147
0.000681707
0.000584697
0.000594894
0.000632367
0.00066012
0.000657904
0.000614612
0.000634933
0.00147549
0.00146814
0.000631135
0.000612792
0.000656323
0.000659375
0.000632924
0.000596699
0.000587202
0.000685123
0.000487492
0.000538715
0.000743539
0.00103662
0.00121954
0.00140515
0.00148342
0.00140951
0.00112132
0.00100241
0.00143653
0.00143142
0.000998592
0.00112459
0.00141272
0.00148508
0.0014057
0.0012199
0.00103722
0.00074382
0.000537779
0.000595451
0.00066208
0.0007186
0.000771378
0.000826592
0.000878434
0.000928704
0.000982258
0.00105191
0.00114255
0.00113987
0.00104939
0.000980116
0.000926872
0.000876791
0.000825049
0.000769905
0.000717185
0.000660727
0.00059421
0.000100599
0.000131173
0.000153487
0.000162739
0.000170391
0.000174465
0.000176727
0.000178889
0.00018158
0.000189801
0.000189446
0.000180945
0.000178247
0.000176085
0.000173838
0.000169756
0.000163096
0.000152514
0.000131304
0.000102476
0.000141002
0.000307816
0.00037225
0.000412474
0.000436851
0.000454262
0.000471922
0.000499578
0.000527668
0.000470307
0.00046986
0.000527177
0.000499668
0.000472123
0.000454586
0.000437347
0.000413114
0.000371972
0.00030798
0.000138845
0.000170952
0.00035527
0.000437841
0.000483792
0.000507807
0.000517805
0.000524122
0.000538353
0.000519725
0.000348729
0.000347606
0.000518256
0.000537991
0.000524277
0.000518481
0.000508988
0.00048511
0.000438595
0.000354585
0.000171186
0.000211167
0.000347842
0.000444249
0.000507806
0.000545487
0.000561486
0.000563877
0.000563178
0.00050319