/*--------------------------------*- C++ -*----------------------------------*\
| =========                 |                                                 |
| \\      /  F ield         | OpenFOAM: The Open Source CFD Toolbox           |
|  \\    /   O peration     | Version:  v1912                                 |
|   \\  /    A nd           | Website:  www.openfoam.com                      |
|    \\/     M anipulation  |                                                 |
\*---------------------------------------------------------------------------*/
FoamFile
{
    version     2.0;
    format      ascii;
    class       surfaceScalarField;
    location    "900";
    object      phi;
}
// * * * * * * * * * * * * * * * * * * * * * * * * * * * * * * * * * * * * * //

dimensions      [0 3 -1 0 0 0 0];
oriented        oriented;


internalField   nonuniform List<scalar> 
11200
(
0.00382141
-0.00764779
0.00382117
0.00502145
-0.00427232
0.00307234
0.00330877
-0.0003698
0.00208265
-0.00038865
0.00249931
0.00119845
-0.00140564
0.000809523
0.000208125
-0.00120736
-0.000180421
-1.68211e-05
-0.000887411
-0.000260373
-5.92544e-05
-0.000639453
-0.00019225
-5.89215e-05
-0.000477943
-5.17964e-05
-0.000108983
0.000302875
-0.000809153
3.09533e-05
0.000356422
0.000167651
-0.00023174
0.000649635
-0.000218698
-7.21877e-05
0.000921898
-0.000217912
-5.83007e-05
0.00125516
-0.000270036
-6.09115e-05
0.00142538
-0.000169396
-1.12585e-06
0.00033433
0.000843145
0.000247899
-0.00350185
0.00248741
0.00134867
-0.00515806
-0.000514327
0.00217047
-0.0039008
-0.00436427
0.00310694
-0.00773711
0.00383629
0.00183839
-0.0113246
0.00183847
0.00295055
-0.00700441
0.00162016
0.0032168
-0.00183845
0.00120284
0.00282138
0.0018698
0.00102559
0.000844054
0.00176571
0.00102215
-0.000849107
0.000904615
0.000608488
-0.00126614
0.000166578
-1.17006e-05
-0.00101517
-0.000266763
-0.000179963
-0.000483838
-0.000273336
-0.000298351
-0.000141478
-0.000613132
-0.000538013
0.000682111
-0.000291254
-0.000354963
0.00106084
-0.000300487
-0.000306707
0.00129148
-0.000269843
-0.000176637
0.000856295
0.000172655
-7.90066e-06
-0.000858209
0.000918739
0.000626368
-0.002816
0.00178309
0.00101779
-0.00322101
0.00186327
0.00102904
-0.00296461
-0.00197358
0.00120272
-0.001859
-0.0070919
0.00162196
-0.0114353
0.0018392
0.000948209
-0.0132213
0.00094859
0.00164262
-0.00886751
0.00116887
0.00278863
-0.00407356
0.00108941
0.00362986
-1.72632e-05
0.00104616
0.00315237
0.00118645
0.00105707
0.00200293
0.001181
0.000872839
0.000540038
0.00086043
0.000767142
-0.00037436
0.000328933
0.000320655
-0.000378218
4.65324e-05
-0.000335895
-5.33153e-05
-7.95041e-05
-0.000850415
0.000476767
-5.2149e-05
-0.000773696
0.000410203
5.13946e-05
-0.000284917
-0.000556312
0.000343113
0.0003542
-0.00202308
0.000862478
0.000777525
-0.00315003
0.00117729
0.000868545
-0.00359224
0.0011885
0.00103677
-0.00271585
-1.60994e-05
0.0010029
-0.00160353
-0.00415187
0.00106588
-0.0009368
-0.00892391
0.00116526
-0.013322
0.00094986
0.000408469
-0.0140387
0.000409059
0.000454056
-0.00993562
0.00102262
0.00101835
-0.00591693
0.00127928
0.00214143
-0.00263004
0.00149011
0.0026821
-0.000793676
0.00143991
0.00243096
0.00017016
0.0012621
0.00175952
0.000462561
0.0010685
0.000829167
0.000495656
0.000769682
6.54778e-05
0.000489438
0.000313419
8.58054e-06
0.000448314
-0.000469946
-7.13645e-05
0.00045458
-0.000427451
-0.000877214
0.00049554
0.000362365
-0.00181018
0.000476151
0.000800708
-0.00246329
0.000424674
0.00109122
-0.00267316
0.000112201
0.00127507
-0.00208715
-0.000837893
0.00144039
-0.000932745
-0.00265257
0.00148199
-0.000399484
-0.00596252
0.00127732
-0.000381386
-0.00996799
0.00102595
-0.0141205
0.000417109
2.01252e-05
-0.0140796
2.07855e-05
-0.000453745
-0.0104056
0.000943806
-0.000606353
-0.00714706
0.00138275
-0.000378178
-0.00463134
0.00177329
-0.000115107
-0.00303825
0.00198181
7.81031e-05
-0.00191215
0.00188911
0.000151603
-0.00124764
0.00163541
2.84118e-05
-0.000769359
0.00138971
-9.07002e-05
-0.000520747
0.00112974
-1.10372e-06
-0.000442823
0.00080431
0.000106933
-0.000473471
0.000822012
2.07819e-05
-0.00057631
0.00115907
-8.22926e-05
-0.000837259
0.00141712
5.3536e-07
-0.00132075
0.00166296
0.000183485
-0.00198812
0.0019175
0.000436687
-0.00309431
0.00200323
0.000671686
-0.00467186
0.00178424
0.000502895
-0.00718366
0.00138988
1.28344e-05
-0.0104327
0.000954724
-0.0141461
3.83402e-05
-0.000285833
-0.0135086
-0.000285204
-0.00111963
-0.0104108
0.000838857
-0.00169618
-0.00787435
0.00130373
-0.00189216
-0.00605337
0.001618
-0.00187995
-0.00487637
0.00182613
-0.00163305
-0.00404447
0.00188577
-0.00124157
-0.00343494
0.00179574
-0.000785885
-0.00293462
0.00170978
-0.000348541
-0.00262376
0.00166582
1.31106e-05
-0.0024602
0.00165649
0.000386976
-0.00250084
0.00165399
0.000838515
-0.0026941
0.00166671
0.00129911
-0.00300954
0.00171203
0.00168879
-0.0035085
0.00179824
0.00192732
-0.00411261
0.001886
0.00193917
-0.00493466
0.00182847
0.00174488
-0.00609975
0.00162212
0.0011633
-0.00791249
0.00131034
0.000319655
-0.0104412
0.00085211
-0.0135651
-0.000261403
-0.00058518
-0.0123389
-0.000584627
-0.00169997
-0.00987899
0.000582813
-0.00248836
-0.0080664
0.000980255
-0.00280251
-0.00690142
0.00116206
-0.00275318
-0.00618121
0.00125546
-0.00240926
-0.00569834
0.00131001
-0.00186229
-0.00532225
0.00134052
-0.00117823
-0.00496609
0.00134785
-0.000496964
-0.00469361
0.00138872
3.03713e-05
-0.0044719
0.0014845
0.000554984
-0.004503
0.00147769
0.00123173
-0.0047489
0.00137818
0.0019117
-0.00502495
0.00133552
0.00245661
-0.00537929
0.0013259
0.00279957
-0.00575249
0.00129689
0.0028488
-0.00623012
0.00124617
0.00253443
-0.00694374
0.00115827
0.00174307
-0.00810274
0.000981497
0.000618599
-0.00990993
0.000593069
-0.0123866
-0.000559958
-0.000991481
-0.0103565
-0.000991008
-0.00237382
-0.00851165
1.47122e-05
-0.00331091
-0.00737631
0.000246758
-0.00367224
-0.00677559
0.00023528
-0.00356207
-0.0064607
0.000169171
-0.00308108
-0.00629019
0.000110728
-0.00234159
-0.00615999
9.81275e-05
-0.00145142
-0.00599919
0.000142882
-0.000584261
-0.00582135
0.000260557
2.89551e-05
-0.00558454
0.000499428
0.000640649
-0.00560333
0.000488644
0.00150367
-0.00585336
0.000241424
0.0023916
-0.00603314
0.000120217
0.00313013
-0.00619424
7.6363e-05
0.00361029
-0.00632406
9.13024e-05
0.00371985
-0.00649312
0.00015333
0.00335726
-0.00680576
0.000224475
0.00241746
-0.0074038
0.000240722
0.00102475
-0.00853784
2.04567e-05
-0.0103933
-0.000968658
-0.00172469
-0.0069077
-0.0017243
-0.0033975
-0.00573442
-0.0011048
-0.00440869
-0.00525081
-0.0011146
-0.00475688
-0.00512098
-0.00130667
-0.00455694
-0.00511467
-0.00154618
-0.00394361
-0.00517519
-0.0017285
-0.00301758
-0.0052304
-0.00185577
-0.00188576
-0.00524069
-0.00189046
-0.000750814
-0.00519605
-0.00176037
2.88842e-05
-0.0050825
-0.00128186
0.000807925
-0.00509109
-0.00129142
0.00193751
-0.0052093
-0.00177378
0.00306749
-0.00525447
-0.00190876
0.00399327
-0.00524476
-0.0018754
0.0046066
-0.00518995
-0.00174757
0.00480623
-0.00512958
-0.00156331
0.00445682
-0.0051357
-0.00132081
0.00344155
-0.00526543
-0.00112329
0.00175748
-0.00574964
-0.00110433
-0.00692917
-0.00170684
-0.00345413
-0.00345381
-0.00548138
-0.00370752
-0.00643143
-0.00430101
-0.00668369
-0.00486894
-0.00635898
-0.00543955
-0.00556409
-0.00597022
-0.00436116
-0.00643346
-0.00282411
-0.00677787
-0.00113702
-0.00688327
3.05473e-05
-0.00625022
0.00119387
-0.00625457
0.00287604
-0.00689161
0.00441341
-0.00679195
0.00561767
-0.00644913
0.00641317
-0.00598555
0.00673736
-0.00545388
0.00648289
-0.00488136
0.00552716
-0.00430985
0.00348728
-0.00370996
-0.00344206
0.00307275
-0.00427351
0.00502202
0.00396476
-0.00178441
0.00396499
0.00261646
0.00115343
0.00227793
-0.000165306
0.00306403
0.000916862
-0.000881496
0.000683335
0.000242221
-0.000694751
-0.000212176
9.17722e-06
-0.000443827
-0.000353516
4.1994e-05
-0.000292791
-0.000219231
8.74037e-06
-8.5775e-05
-0.0004034
8.48362e-05
-2.62078e-05
6.81008e-05
-9.48318e-05
0.000206947
-0.000509408
3.52598e-05
0.000335117
-0.000147621
-4.76651e-05
0.000489436
-0.000230395
1.72924e-05
0.00075606
-0.00038076
5.25717e-05
0.000921983
-0.00018956
2.28396e-05
7.85623e-05
0.000765651
0.000325695
-0.00288827
0.00307605
0.00123924
-0.00416849
0.000952612
0.00249797
-0.00318232
-0.00198737
0.00410809
-0.00446188
0.00511584
0.00162033
-0.00700609
0.00295089
0.00279871
-0.00414114
0.00279882
0.00318794
-0.000246668
0.00221425
0.00306796
0.0023321
0.00187815
0.00156593
0.00172687
0.00148174
0.000170876
0.000896676
0.00089442
-0.000402606
-2.94807e-05
0.000231988
-0.0003258
-0.000346334
-0.000121681
-0.000249546
-0.000383169
-0.000409054
7.33193e-05
-0.000291381
-0.000498897
0.000152784
-0.000330815
-0.000618276
0.000393119
-0.00038834
-0.000304323
0.000441754
-0.000360751
-9.57178e-05
-0.00017376
-2.05317e-05
0.000248035
-0.00161173
0.000945613
0.000929321
-0.00311152
0.00178781
0.00149524
-0.00322977
0.00236807
0.00185514
-0.00285144
-0.000424893
0.00220179
-0.00166849
-0.00434747
0.00279904
-0.00722834
0.0029371
0.00116876
-0.0088692
0.00164306
0.00224647
-0.00629648
0.00224672
0.00339377
-0.00265971
0.00235556
0.00400052
0.000539591
0.00223248
0.00355185
0.00131712
0.00191599
0.00261955
0.00118658
0.00151522
0.00143431
0.000785291
0.00113551
0.000512558
0.000281569
0.000618994
5.87049e-05
-0.000117846
-0.000153421
2.82926e-06
-0.00027634
-0.000814417
-5.83269e-05
-0.000260398
-0.000779692
-0.000526035
-0.000111021
-9.34134e-05
-0.00147531
0.000289805
0.000653911
-0.0026603
0.000793299
0.0011491
-0.00356873
0.00120708
0.00151554
-0.00399574
0.00135939
0.00189213
-0.00335053
0.000574876
0.00215077
-0.00223088
-0.00275863
0.00227988
-0.00118084
-0.00643812
0.00220581
-0.0090623
0.00160293
0.00102226
-0.00993715
0.000454777
0.00167177
-0.00759547
0.00167222
0.00244195
-0.00435798
0.00220759
0.00330376
-0.00124409
0.00241241
0.00345055
0.000392778
0.00221796
0.00297407
0.00102368
0.00190141
0.00223192
0.00104428
0.00154998
0.00136453
0.000834923
0.00108543
0.000568735
0.000597161
0.000393525
-9.25082e-06
0.000366663
-0.000534692
-0.000594201
0.000376435
-0.000478429
-0.00141135
0.000607737
0.000461666
-0.00228699
0.000832698
0.00113396
-0.00301912
0.00103173
0.00158513
-0.00346894
0.00101117
0.00192086
-0.00328607
0.000403897
0.00221298
-0.00238782
-0.00121694
0.00237549
-0.00164095
-0.00440035
0.0021721
-0.0010169
-0.00768544
0.00164919
-0.0100908
0.00042862
0.000943363
-0.0104068
-0.000452974
0.00118975
-0.00808844
0.00119037
0.00127301
-0.00512692
0.00206844
0.00150844
-0.00223376
0.00252773
0.00160823
-0.000339188
0.00261453
0.00146924
0.000680833
0.00237149
0.00111804
0.00102354
0.00200708
0.00065743
0.00110878
0.00157746
0.00024341
0.0010654
0.00107658
7.80498e-06
0.000973931
0.000433873
-0.000220481
0.000973407
0.000454313
-0.000629118
0.00106101
0.00111519
-0.00109138
0.00109504
0.0016175
-0.00144438
0.000999499
0.00204841
-0.00158321
0.000655769
0.0024118
-0.0014747
-0.000344511
0.0026431
-0.00122297
-0.00222012
0.00253561
-0.00115624
-0.00514221
0.00206495
-0.000929298
-0.00815044
0.00119272
-0.0105277
-0.000454058
0.000838456
-0.0104116
-0.00111894
0.000772982
-0.00795786
0.000773621
0.000405092
-0.0052456
0.00179017
0.000118388
-0.00267164
0.00234253
-4.70129e-05
-0.000914182
0.0025667
-8.60637e-05
0.000128248
0.00247774
-0.000131874
0.00064876
0.00221679
-0.000170485
0.000927525
0.00193074
-0.000150588
0.00101681
0.00169484
1.72027e-05
0.000982512
0.00148057
0.000192995
0.000969377
0.00148271
0.000225034
0.000990108
0.00170595
0.000189142
0.000897707
0.00194549
0.000136098
0.000616394
0.00223451
8.55364e-05
9.63443e-05
0.00249598
-8.23464e-05
-0.000931324
0.00258307
-0.000361444
-0.00267489
0.00235586
-0.000738412
-0.00525464
0.00179962
-0.000820571
-0.00800639
0.000790113
-0.0105065
-0.00110322
0.000582489
-0.00987949
-0.00169936
0.000252047
-0.00729745
0.000252588
-0.000305579
-0.0050148
0.00130682
-0.000666777
-0.00301504
0.00186642
-0.000844859
-0.00161412
0.00213334
-0.000818379
-0.000726441
0.00213809
-0.000702242
-0.000178383
0.00205134
-0.000541402
0.00018082
0.00193387
-0.000311409
0.00031857
0.00185704
3.23213e-05
0.000326738
0.00179672
0.00037541
0.000312718
0.00179148
0.00060678
0.000289407
0.00184765
0.000765127
0.000152551
0.00192237
0.000873596
-0.000205216
0.00203898
0.000891156
-0.000753697
0.00212922
0.000709021
-0.00163572
0.00213251
0.00034859
-0.00303067
0.00187428
-0.000213436
-0.00502897
0.00131766
-0.000561098
-0.00733662
0.000270785
-0.00995135
-0.00167637
1.44542e-05
-0.00851192
-0.0023733
-0.000599008
-0.00607105
-0.000598618
-0.00125296
-0.0043957
0.000281215
-0.00156572
-0.00315143
0.000684061
-0.00160874
-0.00228964
0.000887424
-0.00140866
-0.00168383
0.000867779
-0.00105536
-0.00128156
0.000847723
-0.000652821
-0.000971657
0.000892673
-0.000251017
-0.000800457
0.000977648
3.58823e-05
-0.000574633
0.0011138
0.000321919
-0.000588787
0.001104
0.000721075
-0.000824319
0.000955842
0.0011196
-0.000991189
0.000865242
0.00146733
-0.00129948
0.000822665
0.00166227
-0.00170256
0.000844986
0.00161583
-0.0023079
0.000871704
0.00129774
-0.00316944
0.000681069
0.000640522
-0.0044149
0.000283609
1.071e-05
-0.00610043
-0.00058619
-0.0085602
-0.00234929
-0.00110496
-0.00573453
-0.00339708
-0.00218705
-0.00390745
-0.00218679
-0.00295255
-0.00298761
-0.00175761
-0.00323797
-0.00247698
-0.0016961
-0.00309736
-0.00217913
-0.00179763
-0.00267588
-0.00201408
-0.00182002
-0.00206777
-0.00190665
-0.00183907
-0.00136822
-0.0018043
-0.00175762
-0.000669647
-0.00172378
-0.00153589
4.02232e-05
-0.00148262
-0.00108405
0.000743685
-0.00148831
-0.00109568
0.00143563
-0.00173066
-0.00155967
0.00213165
-0.00181039
-0.00178582
0.00273698
-0.00191289
-0.00186754
0.00315562
-0.00202124
-0.00184777
0.00329302
-0.00218737
-0.00182147
0.00300294
-0.00248632
-0.00171409
0.00222896
-0.00299883
-0.00176567
0.00112981
-0.0039234
-0.00218252
-0.00575994
-0.00337753
-0.00370765
-0.00548103
-0.00566158
-0.00566137
-0.00660942
-0.00634103
-0.00686039
-0.00709516
-0.00658704
-0.00789222
-0.00589294
-0.00867857
-0.00483721
-0.00939601
-0.00345275
-0.00996678
-0.00183469
-0.0102253
3.70089e-05
-0.00960474
0.00190269
-0.00960875
0.00351687
-0.0102366
0.0048996
-0.0099852
0.00595364
-0.00941619
0.00664525
-0.00869852
0.00691504
-0.00791118
0.0066587
-0.00711151
0.00570192
-0.00635208
0.00373247
-0.00566413
-0.00546962
0.00208274
-0.000371331
0.00331074
0.00227747
0.0011531
0.00261733
0.000895537
0.00276384
0.000896292
-0.000592471
0.00255932
-0.000153702
-0.000500012
6.69694e-05
8.47458e-05
-0.000159154
-0.00039031
5.96323e-05
6.78138e-05
-0.000405286
0.000216637
8.71627e-05
-0.000261007
0.000255843
4.73182e-06
-0.000107207
0.000280401
8.54765e-05
-0.000407455
0.000217149
-5.9235e-05
-2.80271e-05
0.000199012
-4.1881e-05
-0.000376063
0.000311171
-2.46704e-05
-0.000247149
0.000248434
0.00021683
-0.000416483
0.000227644
0.000550234
-0.000370666
6.02857e-05
0.000471706
0.00025164
0.000152334
-0.00126446
0.00302713
-5.20553e-05
-0.00255908
0.00256724
0.00122513
-0.00223385
0.000922105
0.00286065
-0.000637598
0.00351952
0.00120296
-0.00184075
0.00321746
0.00221435
-0.000247362
0.00318813
0.00266666
0.00185981
0.00266635
0.00254791
0.00220478
0.00235221
0.00137138
0.001371
0.0013556
0.000457696
0.000574922
0.000844079
6.16668e-05
-0.000197853
0.000418573
4.27802e-05
-0.000505783
0.000130272
0.000104346
-0.000469108
-0.000103881
-5.96282e-05
-0.000350921
-0.000395965
-1.6396e-05
-0.000381939
-0.00030906
-0.000106843
-0.000482582
-0.000105097
-8.20634e-05
-0.000525801
0.000158356
-0.000503346
-0.000192792
0.000446059
-0.00144915
0.000618945
0.000885366
-0.00263355
0.00149026
0.00144069
-0.0026588
0.00249185
0.00241547
-0.00225834
0.00174421
0.00262421
-0.00124984
-0.000494459
0.00320699
-0.00218196
0.00323155
0.00108924
-0.0040758
0.00278898
0.00235542
-0.0026608
0.00339409
0.00350006
-0.000429069
0.00350013
0.00384613
0.000962509
0.00312917
0.0034311
0.00120092
0.00250162
0.0025901
0.000997248
0.00193406
0.00156616
0.000591709
0.00136883
0.00075324
0.000116053
0.000810981
0.00025485
-0.000261992
0.00013676
-1.08364e-05
-0.000414215
-0.00048505
-0.000300331
-0.000427915
-0.000443134
-0.000807203
-0.000270597
0.000202372
-0.00163351
0.00010048
0.000854482
-0.00265305
0.000579321
0.00139669
-0.00347533
0.00100716
0.00194958
-0.00386569
0.00126929
0.00250337
-0.00343814
0.00110527
0.00310972
-0.00231522
-0.00050457
0.00340567
-0.00108102
-0.00285175
0.00332883
-0.0043516
0.00269152
0.00127881
-0.00591882
0.00101904
0.00220721
-0.00435911
0.00244234
0.0032098
-0.00243387
0.00321007
0.00382309
-0.000486034
0.00324807
0.00373963
0.000650204
0.00285269
0.00316775
0.00109681
0.00237425
0.00238244
0.00103392
0.00189294
0.00150456
0.000745845
0.00133446
0.000676576
0.000386541
0.000574352
-1.83487e-05
7.15755e-05
-0.000324721
-0.000728137
7.1447e-05
-0.000267024
-0.00156985
0.000382618
0.000650851
-0.00245652
0.000726845
0.00139458
-0.00323832
0.00100352
0.00194284
-0.00379445
0.0010736
0.00241055
-0.00384759
0.000665159
0.00287022
-0.00317369
-0.000431874
0.00323866
-0.00217828
-0.00248037
0.00315245
-0.00126641
-0.00448803
0.00237354
-0.00610824
0.000918804
0.00138228
-0.00714846
-0.000605515
0.00206792
-0.00512795
0.00127372
0.00247397
-0.00324581
0.00247445
0.00274498
-0.0012037
0.00297457
0.00269787
0.000351366
0.00296083
0.00231932
0.00119911
0.00264813
0.00175726
0.00137955
0.00222365
0.00113049
0.00123916
0.00171145
0.000525233
0.000998067
0.00107092
1.68417e-05
0.000794275
0.000220426
-0.000496015
0.000797201
0.000242289
-0.00111214
0.000997731
0.00111675
-0.00175328
0.00122431
0.00176144
-0.002326
0.00135061
0.00227415
-0.00270748
0.00117164
0.00269525
-0.00274375
0.0003492
0.0029953
-0.00244573
-0.00118348
0.00298915
-0.00204402
-0.00327548
0.0024583
-0.0013685
-0.00522083
0.00124998
-0.00728415
-0.000646677
0.00130338
-0.0078753
-0.00169546
0.00178964
-0.00524645
0.000405892
0.00180326
-0.00327313
0.00180387
0.00163695
-0.00122492
0.00253006
0.00139932
0.000349536
0.00280627
0.00113482
0.0012476
0.00269387
0.000818223
0.00152542
0.00238754
0.000483009
0.00151094
0.00199448
0.000192009
0.00140908
0.00157515
1.92039e-05
0.00133615
0.00111199
-0.000143635
0.00133332
0.00110993
-0.000425625
0.00140061
0.00158538
-0.000764562
0.00149616
0.00201274
-0.00109303
0.00150232
0.00241131
-0.00137034
0.00122563
0.00271924
-0.00161133
0.000344569
0.00282862
-0.00177079
-0.00121548
0.00254724
-0.00176241
-0.00329723
0.00181291
-0.00128721
-0.00532239
0.000416403
-0.00798085
-0.00169378
0.000980019
-0.00806697
-0.00248778
0.00130635
-0.00501534
-0.000304978
0.00115714
-0.00297499
0.00115771
0.000853711
-0.00102181
0.00196657
0.000553052
0.000405854
0.00237758
0.000364892
0.00115664
0.00241715
0.000228112
0.00142679
0.00228665
0.000103928
0.00147758
0.00209148
2.44472e-05
0.00143977
0.00190593
2.62254e-05
0.00144552
0.00168573
3.67412e-05
0.00143969
0.00167473
-3.31109e-05
0.00142635
0.00189183
-0.000159019
0.0014642
0.0020802
-0.000305857
0.00140919
0.00227885
-0.000504888
0.00113832
0.00241543
-0.000809465
0.000397386
0.0023841
-0.00111476
-0.00101697
0.00198089
-0.00126982
-0.00299803
0.00117337
-0.000960517
-0.0050741
-0.000286944
-0.00814508
-0.00247274
0.000246624
-0.00737662
-0.00331044
0.000280883
-0.00439593
-0.00125258
8.17732e-05
-0.00257722
8.22029e-05
-6.53606e-05
-0.00102772
0.000836706
-0.000113808
6.60702e-05
0.00127531
-8.22131e-05
0.000618072
0.00137447
-9.21295e-06
0.000838686
0.00136258
6.99236e-05
0.000944477
0.00134646
0.00013498
0.00097959
0.00137263
3.36897e-05
0.00124828
0.00141219
-6.52912e-05
0.00124016
0.00140235
1.57096e-06
0.000964058
0.00135109
7.81527e-05
0.000929367
0.00132328
0.000146275
0.000822548
0.00134096
0.000171091
0.000600988
0.00135726
0.000119976
5.15439e-05
0.00126839
-2.79005e-05
-0.00103388
0.000845574
-0.000236779
-0.00259834
9.25153e-05
-0.000224899
-0.00443243
-0.00123997
-0.00742752
-0.00329187
-0.00111468
-0.00525095
-0.0044083
-0.00175778
-0.00298768
-0.00295227
-0.00211035
-0.00187248
-0.00211013
-0.00210191
-0.00117383
-0.00155879
-0.0017515
-0.000735948
-0.00134636
-0.00125333
-0.000446555
-0.00125385
-0.000762891
-0.000282886
-0.00120821
-0.000337184
-0.000133622
-0.00110549
-2.12957e-05
-1.40149e-05
-0.000858454
4.21075e-05
0.000520186
-0.000419672
0.000106562
0.000512933
-0.000433225
0.000423102
-2.03859e-05
-0.000892032
0.000845617
-0.000138813
-0.0011404
0.00132999
-0.00028778
-0.0012418
0.00182047
-0.000452622
-0.00128485
0.00216246
-0.000742584
-0.00136956
0.00216708
-0.00117996
-0.00157287
0.00180162
-0.00188247
-0.00211632
0.00113834
-0.00300385
-0.00294804
-0.00527566
-0.00439119
-0.00430108
-0.00643109
-0.00634116
-0.00660917
-0.0072775
-0.00727732
-0.00747211
-0.00807455
-0.00716115
-0.00893927
-0.00644958
-0.00983683
-0.00540085
-0.0107278
-0.00400462
-0.0114968
-0.00229254
-0.0119515
4.14198e-05
-0.0114187
0.00236607
-0.0114206
0.00407367
-0.0119647
0.00546643
-0.0115169
0.00651173
-0.0107493
0.00721897
-0.00985847
0.0075249
-0.00895977
0.00732457
-0.00809125
0.00637889
-0.00728899
0.00432374
-0.00661297
-0.0064216
0.00119809
0.00249931
-0.000386531
0.000914827
0.00306291
-0.000162377
-0.000158372
0.00255883
-0.000589245
-0.000267078
0.000214402
-0.000258432
5.96525e-05
-0.000359468
0.000120105
0.000311063
-0.000522461
0.000333123
0.000461541
-0.000437145
0.000503114
0.000425249
-0.000325622
0.0006076
0.000269562
-0.000248931
0.000690365
3.57952e-06
-0.000203753
0.000686904
-0.000249576
-0.000224446
0.000674039
-0.000420654
-0.00023991
0.000725367
-0.000455376
-0.000331057
0.000614895
-0.000298611
-0.000442615
0.000513796
-4.62571e-05
-0.000522398
0.000330121
0.000297806
-0.000333657
0.000141409
4.68663e-05
0.00047474
-0.000276489
-0.00127089
0.00302119
-0.00047876
-0.00138818
0.00306143
-8.36866e-05
0.00245127
-0.000320054
0.00102579
0.00186752
0.00282333
0.00187817
0.00233059
0.00306797
0.00235226
0.00220412
0.00254718
0.00172122
0.00147805
0.00172057
0.000924476
0.000796016
0.000997982
0.00044398
9.3353e-05
0.000710078
0.000321091
-0.000414923
0.000519359
0.000333246
-0.000617018
0.000411118
0.000243337
-0.000541567
0.000273754
-3.97315e-05
-0.000400689
8.85537e-05
-0.000287006
-0.000409981
0.000123893
-0.000387283
-0.000560653
0.000316877
-0.00037111
-0.000635505
0.000447134
-0.000499738
-0.000428467
0.000560518
-0.00100511
0.000109003
0.000758917
-0.0018369
0.000870193
0.00106812
-0.00244296
0.00167002
0.0018258
-0.00189828
0.00247578
0.00262477
-0.00106897
0.00231839
0.00312057
0.00174337
0.00287034
0.0010463
-1.96783e-05
0.00362997
0.00223254
0.000537937
0.00400044
0.00312915
0.000961796
0.00384598
0.0033164
0.0011039
0.00331648
0.00296635
0.0010047
0.00264368
0.00224919
0.000740412
0.00200515
0.00142403
0.000343211
0.00143618
0.000766996
-9.89013e-05
0.000951182
0.000325932
-0.000413324
0.000449627
-3.56812e-05
-0.000500768
-2.20812e-05
-0.000402205
-0.000513936
2.83344e-05
-0.000848623
-0.000436143
0.000524944
-0.00151021
-0.000130794
0.0010116
-0.00233007
0.000305329
0.00148276
-0.00303554
0.000717979
0.00204597
-0.00336924
0.00102911
0.00267806
-0.00314631
0.00120929
0.00334743
-0.00219164
0.00107242
0.0038543
-0.00102728
0.000483149
0.00399967
-0.000179353
0.00358693
0.00148972
-0.00263212
0.00214173
0.00241216
-0.0012458
0.00330385
0.00324792
-0.000486822
0.00382316
0.0036533
0.000293558
0.00365337
0.00352256
0.000831963
0.00315663
0.00300639
0.00102246
0.00260895
0.00227662
0.000883057
0.00208316
0.0014454
0.000558552
0.00150887
0.000649544
0.000143122
0.000814565
-2.917e-05
-0.000223509
7.76671e-05
-0.000718219
-0.000228382
0.000137325
-0.00152721
0.000125413
0.000898771
-0.00236526
0.0005203
0.00158171
-0.00309656
0.000829896
0.0021496
-0.00360369
0.000969081
0.00266656
-0.00371475
0.00080701
0.00320333
-0.00326897
0.000314857
0.00368728
-0.0023948
-0.000476435
0.0038271
-0.00147731
-0.0013237
0.00326285
-0.002783
0.00204505
0.00177267
-0.00463296
-0.000377126
0.00252715
-0.00223525
0.00150904
0.00297417
-0.00120446
0.00274534
0.00319835
-0.000154365
0.00319856
0.00310118
0.000758068
0.00313218
0.00269078
0.00127986
0.00280146
0.00209707
0.00132532
0.00237533
0.00142648
0.00107039
0.00187059
0.000721151
0.000694663
0.00122524
1.56616e-05
0.000320124
0.000383062
-0.000699038
0.00031805
0.000411279
-0.00142221
0.000688568
0.00127715
-0.00211275
0.00104568
0.00192676
-0.00272083
0.00128176
0.00243041
-0.00313864
0.0012309
0.00285124
-0.00323274
0.000725735
0.00317067
-0.00298861
-0.00016253
0.0032224
-0.00252054
-0.00122938
0.00274317
-0.00176028
-0.00230839
0.00147441
-0.00475997
-0.000429991
0.00161755
-0.00605444
-0.00189135
0.00234189
-0.00267284
0.000119381
0.00252949
-0.00122562
0.00163761
0.00246803
-3.12386e-05
0.0024685
0.00227703
0.000944372
0.0028111
0.00195952
0.00153473
0.00275668
0.00153773
0.00164074
0.00249403
0.00105289
0.001449
0.00210093
0.000544528
0.00116754
0.00161096
2.53961e-05
0.000964496
0.000987201
-0.000489464
0.000960391
0.000982853
-0.000998044
0.00116107
0.00162168
-0.00149325
0.00143308
0.00212063
-0.00193014
0.00161229
0.00251768
-0.00226208
0.00150281
0.00277925
-0.00245978
0.000922903
0.00282912
-0.00251516
-4.31286e-05
0.00248319
-0.0023219
-0.00125867
0.00164892
-0.00159937
-0.00274347
0.000128936
-0.00615807
-0.00189507
0.0011618
-0.00690205
-0.00280192
0.00186588
-0.00301576
-0.000666061
0.00196596
-0.00102238
0.000854398
0.00176795
0.000364742
0.00176853
0.00154997
0.00121281
0.00232707
0.00133421
0.00166495
0.00250268
0.00107735
0.00173461
0.00244963
0.000750802
0.00160446
0.0022626
0.000383933
0.00142593
0.00201451
3.01607e-05
0.00136293
0.00164119
-0.000316023
0.00135561
0.00162578
-0.000676985
0.00141499
0.00199888
-0.0010088
0.00159218
0.00225289
-0.00127762
0.00171528
0.00244462
-0.00150509
0.00164355
0.00250208
-0.0017288
0.00119799
0.00233264
-0.00192605
0.000352871
0.00178203
-0.00182954
-0.00105571
0.000873802
-0.00113976
-0.00307199
-0.000648305
-0.00697914
-0.00279148
0.000235149
-0.00677591
-0.00367178
0.000683696
-0.00315175
-0.00156524
0.000836198
-0.00102802
-6.4861e-05
0.000799633
0.000437661
0.000800091
0.000792877
0.00112514
0.0013695
0.000811498
0.00139425
0.00162638
0.000792138
0.00142351
0.00169287
0.000691143
0.00138498
0.00166679
0.000492987
0.00134988
0.0016467
4.2356e-05
0.00163749
0.00158813
-0.000410982
0.00163694
0.00157422
-0.000611101
0.00134291
0.00162314
-0.000717029
0.00137539
0.00164585
-0.000743859
0.00140785
0.00167507
-0.000732642
0.001377
0.00161244
-0.000742952
0.00111107
0.00136545
-0.000778235
0.00042438
0.000809152
-0.00063667
-0.00105522
-4.974e-05
-0.000210885
-0.00318608
-0.00155182
-0.00682476
-0.00365722
-0.00130672
-0.00512112
-0.0047565
-0.0016962
-0.00247708
-0.00323765
-0.00155899
-0.00117389
-0.00210169
-0.00118213
-0.000316326
-0.0011819
-0.000793793
0.000203128
-0.000812937
-0.000425574
0.000439918
-0.000667987
-0.000123435
0.000559047
-0.000646149
8.29298e-05
0.000708652
-0.000635793
0.000189813
0.000879225
-0.000494952
4.38064e-05
0.00153631
-0.000172758
-9.8525e-05
0.00152795
-0.000182162
1.24756e-05
0.000864494
-0.000524832
0.000215843
0.000703023
-0.000671576
0.000508098
0.000555752
-0.000682116
0.000865926
0.000434778
-0.000700602
0.00124689
0.000197043
-0.000836647
0.00161701
-0.000322861
-0.00119592
0.00173823
-0.00118261
-0.00211033
0.00133011
-0.00249131
-0.00323485
-0.00514373
-0.00474221
-0.00486898
-0.00668334
-0.00709523
-0.0068601
-0.00807467
-0.00747187
-0.00823291
-0.00823274
-0.00787135
-0.0090978
-0.00716189
-0.0101065
-0.00613977
-0.0111909
-0.0047155
-0.0122125
-0.00283836
-0.0129495
4.72165e-05
-0.012768
0.0029202
-0.0127657
0.00478591
-0.012966
0.00620449
-0.0122325
0.00722261
-0.0112118
0.00792697
-0.0101281
0.00828225
-0.00911806
0.00811739
-0.00824933
0.00712923
-0.00748353
0.00488964
-0.00686478
-0.00667572
0.000205939
0.000815237
-0.00140781
0.000236123
0.000685808
-0.000879132
7.83262e-05
6.79158e-05
-0.000500002
0.00011315
-0.000357307
6.45698e-05
0.000378595
-0.000527031
0.000383068
0.000625132
-0.000544119
0.000632216
0.000745495
-0.000443497
0.000827282
0.000686912
-0.0003482
0.00101624
0.000434225
-0.000270634
0.00121096
5.73607e-07
-0.000231449
0.00135592
-0.000446219
-0.00023784
0.00135865
-0.000695638
-0.000266123
0.00124183
-0.000760393
-0.000354704
0.00103465
-0.000636559
-0.000457311
0.00084713
-0.000392167
-0.000561078
0.000646296
-0.000122079
-0.000534022
0.000404644
-0.000130522
-0.000331703
6.29396e-05
-0.000314596
0.000249057
-0.000544324
-0.000244011
0.000768722
-0.000923413
0.000851646
-0.00141605
0.00102156
0.00176633
0.000849822
0.00148139
0.00172735
0.001566
0.00135512
0.00137125
0.00136964
0.000998499
0.000796329
0.000923892
0.00064323
0.000183292
0.000643565
0.000498392
-0.000309038
0.000621385
0.000506953
-0.000589253
0.000657483
0.000522178
-0.000659553
0.000709839
0.000360068
-0.000559195
0.000723968
-5.09081e-05
-0.000412462
0.00068292
-0.000447002
-0.000425204
0.000708182
-0.00058828
-0.000581059
0.000773513
-0.000567327
-0.000683655
0.000755145
-0.000551612
-0.000618702
0.000705953
-0.000700397
-0.000325359
0.00067155
-0.00107052
0.000202288
0.000701405
-0.00145312
0.000871919
0.00100428
-0.00151668
0.00148395
0.00145307
-0.00103431
0.00177176
0.00163481
0.00175693
0.000930387
0.00105717
0.00118562
0.00315351
0.00191611
0.00131654
0.00355191
0.00250172
0.00120063
0.00343081
0.00264355
0.00100461
0.0029664
0.00235463
0.000761448
0.00235491
0.00180075
0.000458781
0.0017921
0.00119966
8.12165e-05
0.00136747
0.000719313
-0.000286843
0.00106011
0.000339485
-0.000516381
0.000787219
-5.22813e-05
-0.00055408
0.000512315
-0.000437457
-0.000568694
0.000557616
-0.000815121
-0.00054173
0.000863539
-0.001292
-0.000324862
0.00112968
-0.00188624
2.93984e-05
0.00142878
-0.00242771
0.000410348
0.00185159
-0.002699
0.000738445
0.00241306
-0.00253241
0.00102892
0.00302376
-0.00192287
0.00125352
0.00347512
-0.00105659
0.00132301
0.00358209
0.00112709
0.00316027
0.00143976
-0.000795236
0.00268271
0.00221782
0.000391626
0.00345063
0.00285258
0.000649488
0.00373958
0.00315651
0.000831718
0.00352253
0.00306317
0.000948523
0.00306323
0.00265368
0.000919302
0.00255838
0.00202205
0.000717507
0.00207889
0.00128553
0.000370494
0.00158866
0.000563617