/*--------------------------------*- C++ -*----------------------------------*\
| =========                 |                                                 |
| \\      /  F ield         | OpenFOAM: The Open Source CFD Toolbox           |
|  \\    /   O peration     | Version:  v1912                                 |
|   \\  /    A nd           | Website:  www.openfoam.com                      |
|    \\/     M anipulation  |                                                 |
\*---------------------------------------------------------------------------*/
FoamFile
{
    version     2.0;
    format      ascii;
    class       volVectorField;
    location    "900";
    object      U;
}
// * * * * * * * * * * * * * * * * * * * * * * * * * * * * * * * * * * * * * //

dimensions      [0 1 -1 0 0 0 0];


internalField   nonuniform List<vector> 
4000
(
(0.0099784 -0.0266597 0.00997712)
(0.0184926 -0.0154292 0.00858506)
(0.0199341 -0.00478831 0.00692931)
(0.00883338 0.00551251 0.00461432)
(-0.00964705 -0.00115705 0.00039186)
(-0.00443002 -0.00205118 -0.000219606)
(-0.00451941 -0.000796374 -0.000516391)
(-0.00290191 -0.000716753 -0.000603386)
(-0.00168514 -0.000467191 -0.000367925)
(-0.000852915 -0.00270432 -0.00227055)
(0.000759092 -0.000380448 -0.000661545)
(0.00241871 -0.000986855 -0.000825072)
(0.00295436 -0.000603742 -0.000493794)
(0.00476827 -0.000755935 -0.000423471)
(0.00453669 -0.00202448 -0.000139323)
(0.00992623 -0.00101312 0.000482974)
(-0.00978626 0.00529064 0.00492189)
(-0.0205118 -0.00524706 0.00701844)
(-0.0189484 -0.0158226 0.00862075)
(-0.0101508 -0.0270096 0.00998472)
(0.00433019 -0.0389997 0.00433026)
(0.00963856 -0.02219 0.00392132)
(0.0134195 -0.00145508 0.0028728)
(0.0131417 0.0109536 0.00282909)
(0.00856021 0.00757115 0.00276327)
(-0.000912411 0.00142235 0.00129044)
(-0.00584398 -0.00163457 -0.000587292)
(-0.0044342 -0.001371 -0.000922891)
(-0.0026863 -0.000461812 -0.0013621)
(-0.00171796 -0.00246462 -0.00255191)
(0.000686703 -8.55757e-05 -0.0014876)
(0.00377385 -0.000981684 -0.00134271)
(0.00464114 -0.00147344 -0.000902706)
(0.00596787 -0.00166368 -0.000574961)
(0.000808492 0.00147051 0.00133982)
(-0.00842746 0.00762141 0.00277078)
(-0.0133123 0.0109187 0.0028697)
(-0.0133401 -0.00211607 0.00288018)
(-0.00976907 -0.0225669 0.00392236)
(-0.00434794 -0.0394203 0.00434558)
(0.00218782 -0.0505845 0.00218879)
(0.0051196 -0.0329639 0.00269836)
(0.00789248 -0.0126062 0.00251308)
(0.0143528 0.00508144 0.00235896)
(0.0145065 0.00713987 0.0025931)
(0.0106195 0.00552968 0.00222043)
(0.00582802 0.00320023 0.0021083)
(-0.00112563 -0.000409947 0.000436412)
(-0.002194 -0.00157821 -0.00183502)
(-0.000942425 -0.00307122 -0.00326264)
(0.00102908 -0.00133772 -0.00305535)
(0.00253545 -0.00156899 -0.0017799)
(0.00105778 -0.00035362 0.00050914)
(-0.00593657 0.00324274 0.00212708)
(-0.010677 0.00557118 0.00221383)
(-0.0143922 0.0072226 0.00256051)
(-0.0141688 0.00511911 0.00229101)
(-0.00757519 -0.0130008 0.00248352)
(-0.00507251 -0.0332529 0.0027011)
(-0.00213451 -0.0510234 0.00222291)
(0.00107497 -0.0552856 0.00107649)
(0.00199395 -0.038221 0.0024042)
(0.00169309 -0.0204048 0.00308655)
(0.00624011 -0.00582491 0.00415585)
(0.0105842 0.00189732 0.00420962)
(0.0109976 0.00431177 0.00374208)
(0.0087091 0.00409784 0.00328397)
(0.00535366 0.00314177 0.00246235)
(0.00138844 0.00228648 0.00109042)
(-0.000629602 0.00138847 -0.00175449)
(0.00074892 0.00159382 -0.0015974)
(-0.00159722 0.00241638 0.00127381)
(-0.00555237 0.00320507 0.00255601)
(-0.00889983 0.00409711 0.00335461)
(-0.0110655 0.00426818 0.0037938)
(-0.0104302 0.0018272 0.00424568)
(-0.00593761 -0.00582591 0.00418139)
(-0.00137631 -0.0206185 0.00309951)
(-0.00185408 -0.0383808 0.00242116)
(-0.000989942 -0.0556485 0.00113427)
(0.00027893 -0.0569104 0.000280739)
(-0.000365761 -0.0411121 0.00213041)
(-0.00311288 -0.0266318 0.00296816)
(-0.00192651 -0.015094 0.00423341)
(-0.00122066 -0.008202 0.00523151)
(5.35369e-05 -0.00300839 0.00545845)
(0.000757615 -0.000229855 0.0049528)
(0.000601835 0.00141164 0.00447424)
(-0.000159104 0.0022927 0.00379949)
(-0.000489723 0.00263972 0.00277323)
(0.000417859 0.00255026 0.00290989)
(0.000311254 0.00214855 0.00390395)
(-0.000312955 0.00116964 0.00451884)
(-0.000475671 -0.00054334 0.00498574)
(0.000321825 -0.00341745 0.0055005)
(0.00140819 -0.00845099 0.00526585)
(0.0021934 -0.0152556 0.00425298)
(0.00334289 -0.026781 0.002984)
(0.000536346 -0.0412085 0.00215508)
(-0.000180379 -0.0571989 0.000359037)
(-0.000455234 -0.0556991 -0.000453383)
(-0.00219803 -0.0420783 0.0015126)
(-0.00654719 -0.0304616 0.00195895)
(-0.00724197 -0.0218429 0.00241092)
(-0.0078702 -0.0162618 0.00271454)
(-0.00717326 -0.0124633 0.00291658)
(-0.00585577 -0.00982045 0.00297732)
(-0.00409654 -0.00767235 0.00309265)
(-0.00217841 -0.00648481 0.00331993)
(-0.000626009 -0.00603051 0.00372316)
(0.000754609 -0.00616207 0.0036782)
(0.00236359 -0.0067681 0.0032558)
(0.00432036 -0.00799704 0.00302039)
(0.00608632 -0.010132 0.00290763)
(0.00737874 -0.0127276 0.0028502)
(0.00804979 -0.0164972 0.00267061)
(0.00743793 -0.0220257 0.00238653)
(0.00673309 -0.030615 0.00195278)
(0.0023651 -0.0421999 0.00152956)
(0.000560527 -0.0559433 -0.000367723)
(-0.00139934 -0.0525123 -0.00139769)
(-0.00389804 -0.0413327 0.000263876)
(-0.00937544 -0.0326278 6.49888e-05)
(-0.0107977 -0.0267233 -0.000311239)
(-0.011524 -0.022971 -0.000796061)
(-0.0105344 -0.0203453 -0.00126771)
(-0.00870602 -0.0183478 -0.00159674)
(-0.00619112 -0.0166204 -0.00171693)
(-0.00318754 -0.015439 -0.00148933)
(-0.000820603 -0.0146523 -0.000745603)
(0.0010651 -0.0147911 -0.000783433)
(0.00340968 -0.0156881 -0.00154945)
(0.0063944 -0.0168899 -0.00179665)
(0.00889811 -0.0186137 -0.00167409)
(0.0107207 -0.0206014 -0.00133553)
(0.0117077 -0.0231956 -0.000850818)
(0.0109845 -0.0269102 -0.000348248)
(0.00955475 -0.0327827 4.10023e-05)
(0.0040647 -0.0414588 0.000267228)
(0.00150287 -0.0527222 -0.00131934)
(-0.00290273 -0.0463189 -0.00290131)
(-0.0060971 -0.037875 -0.00184656)
(-0.0124442 -0.0321142 -0.00265403)
(-0.014312 -0.028753 -0.00365485)
(-0.014943 -0.0268316 -0.0046731)
(-0.013557 -0.0256684 -0.00562283)
(-0.0110388 -0.0247877 -0.00640108)
(-0.00773104 -0.0238817 -0.00692409)
(-0.00381435 -0.0230961 -0.00692702)
(-0.000968852 -0.022225 -0.00601091)
(0.00120336 -0.0223166 -0.00602586)
(0.00402981 -0.0232604 -0.00695233)
(0.00793242 -0.0240608 -0.00697456)
(0.0112364 -0.0249667 -0.00646106)
(0.0137512 -0.0258422 -0.0056814)
(0.0151344 -0.0269952 -0.00472486)
(0.0145014 -0.028902 -0.00369457)
(0.0126259 -0.0322471 -0.00268366)
(0.00626415 -0.0379946 -0.00185196)
(0.00300562 -0.0464901 -0.00283473)
(-0.00563624 -0.0345664 -0.00563504)
(-0.00991134 -0.0290553 -0.0051849)
(-0.0167145 -0.0263583 -0.0063421)
(-0.0187719 -0.0253568 -0.00763151)
(-0.0191256 -0.0250991 -0.0089011)
(-0.0173116 -0.0252307 -0.0100118)
(-0.014162 -0.0254029 -0.0109448)
(-0.0100122 -0.0253717 -0.0116069)
(-0.00495552 -0.025078 -0.0117241)
(-0.00138309 -0.0243384 -0.0105845)
(0.00161979 -0.0243842 -0.0105884)
(0.00516957 -0.0251589 -0.0117343)
(0.0102122 -0.0254561 -0.0116419)
(0.0143607 -0.0254901 -0.0109905)
(0.0175103 -0.0253196 -0.010059)
(0.0193239 -0.0251875 -0.00894516)
(0.0189686 -0.025443 -0.00766896)
(0.016902 -0.0264415 -0.0063699)
(0.0100758 -0.0291407 -0.00519268)
(0.0057402 -0.0346813 -0.00558073)
(-0.0110136 -0.0207619 -0.0110127)
(-0.018362 -0.016353 -0.0122209)
(-0.0248934 -0.014573 -0.0144009)
(-0.0267219 -0.0139041 -0.0163884)
(-0.0265978 -0.0135024 -0.0183469)
(-0.0242153 -0.0131567 -0.0201632)
(-0.020166 -0.0126234 -0.0217731)
(-0.0146596 -0.0118053 -0.0230142)
(-0.00763355 -0.0107416 -0.0234683)
(-0.00249123 -0.00971212 -0.021298)
(0.00273553 -0.00976854 -0.0213064)
(0.00784297 -0.0108022 -0.0234838)
(0.0148658 -0.0118537 -0.0230555)
(0.020378 -0.0126663 -0.0218234)
(0.0244317 -0.0131973 -0.0202141)
(0.0268146 -0.0135422 -0.0183952)
(0.0269344 -0.0139431 -0.016431)
(0.0250922 -0.0146127 -0.0144331)
(0.0185275 -0.0163956 -0.012233)
(0.0111237 -0.0208241 -0.0109709)
(0.00858712 -0.0154322 0.0184913)
(0.0152747 -0.00699951 0.0152724)
(0.0155875 0.000917268 0.00986385)
(0.0067654 0.00888067 0.00532929)
(-0.00684292 -0.00220597 0.00121379)
(-0.00222003 -0.00316576 2.61234e-05)
(-0.00268859 -0.0012438 -0.000114745)
(-0.000756359 -0.000438316 -0.000213333)
(-0.00162261 -0.00196147 -0.000161181)
(-0.000251566 -0.00093772 -0.000472042)
(0.00113319 -0.00276124 -0.000281681)
(0.000555731 -0.000271075 8.60946e-05)
(0.00145122 -0.000428965 -0.000217648)
(0.00298166 -0.0013426 -5.82161e-05)
(0.00234719 -0.00321262 7.54415e-05)
(0.00724091 -0.00188652 0.00143448)
(-0.00807245 0.00873675 0.0061991)
(-0.0164966 0.000182571 0.0104664)
(-0.0158802 -0.00768514 0.015571)
(-0.00884085 -0.016065 0.0187064)
(0.00392243 -0.0221968 0.00963779)
(0.00888562 -0.0101334 0.00888367)
(0.0132729 0.00582738 0.00710917)
(0.0128039 0.0131679 0.00602569)
(0.0103337 0.00777916 0.00524504)
(0.00345152 0.00237119 0.0034338)
(-0.00207535 -0.00216421 0.000432654)
(-0.00148019 -0.00207254 -0.000693765)
(-0.00125526 -0.00173344 -0.0016012)
(-0.000253095 8.65882e-05 -0.00273061)
(0.000374996 -0.00131603 -0.00190211)
(0.00128842 -0.0012847 -0.00133977)
(0.00163171 -0.00212448 -0.000625512)
(0.00219144 -0.00224296 0.000456187)
(-0.00370857 0.00258054 0.00352237)
(-0.0103255 0.00800448 0.00522614)
(-0.0131903 0.0132918 0.00595485)
(-0.0133488 0.00493921 0.00705968)
(-0.00913538 -0.0110674 0.00891951)
(-0.00403249 -0.0230968 0.009675)
(0.00269862 -0.0329711 0.00512012)
(0.00679133 -0.0221588 0.00679057)
(0.011172 -0.00699515 0.00670293)
(0.0157183 0.00627831 0.00644356)
(0.0159724 0.00673395 0.00595517)
(0.0125878 0.00489195 0.00484809)
(0.00848472 0.00254831 0.00391553)
(0.00335795 -0.000244555 0.00215043)
(0.000508874 -0.00178488 -0.000829553)
(-2.70919e-05 -0.00169235 -0.00348344)
(0.000105187 -0.00184311 -0.00331822)
(-0.000526347 -0.00180238 -0.000647294)
(-0.00351894 -0.000209654 0.00225236)
(-0.00867875 0.00262493 0.00394648)
(-0.012709 0.00503549 0.0048215)
(-0.0159718 0.00696537 0.00583048)
(-0.0156601 0.00644577 0.0061479)
(-0.0109637 -0.00751333 0.00652687)
(-0.00683688 -0.0228486 0.0067655)
(-0.00272702 -0.0338212 0.00512686)
(0.00240382 -0.0382276 0.00199554)
(0.00586908 -0.0285371 0.00586948)
(0.00749717 -0.0148559 0.0072669)
(0.0117814 -0.00225596 0.00785665)
(0.0144099 0.0035265 0.00730249)
(0.0133343 0.00476142 0.0063608)
(0.0106123 0.00397044 0.00529081)
(0.00726189 0.00259456 0.00375572)
(0.0036891 0.00111718 0.00141811)
(0.000961261 -0.000295465 -0.00201848)
(-0.000991428 -0.000240939 -0.00182159)
(-0.00385813 0.00119272 0.00165881)
(-0.00748645 0.00262906 0.00390815)
(-0.010834 0.00398096 0.00539628)
(-0.0134734 0.00480356 0.00640932)
(-0.0144083 0.00365534 0.00726835)
(-0.0116236 -0.00209924 0.00774746)
(-0.00727337 -0.015102 0.00722538)
(-0.00582854 -0.0289725 0.00588007)
(-0.0023879 -0.0389137 0.00201717)
(0.00212978 -0.0411175 -0.000363637)
(0.00532846 -0.032048 0.00532967)
(0.00430298 -0.0197636 0.00790017)
(0.00556401 -0.00774341 0.00943553)
(0.00637587 -0.000388122 0.0098151)
(0.00653391 0.00347714 0.00888438)
(0.00536751 0.00457932 0.00755059)
(0.00363176 0.0045088 0.00611274)
(0.00164398 0.00416499 0.00456367)
(0.000295236 0.0038374 0.00266081)
(-0.000206061 0.00384649 0.00279309)
(-0.00155099 0.00416383 0.0047212)
(-0.00351383 0.00445464 0.00625394)
(-0.00527701 0.00446618 0.00769635)
(-0.00642153 0.00334129 0.00903362)
(-0.00628613 -0.000419709 0.00993273)
(-0.00537684 -0.00767334 0.00948557)
(-0.00411142 -0.0198551 0.00793022)
(-0.0052461 -0.0323339 0.00538969)
(-0.00209244 -0.0416624 -0.000297268)
(0.00151206 -0.0420819 -0.00219584)
(0.00479935 -0.032634 0.00480082)
(0.00163023 -0.021235 0.00785152)
(0.00127347 -0.0100915 0.00954044)
(-0.000322323 -0.00241998 0.0104187)
(-0.000125544 0.00198377 0.0103336)
(-0.000419484 0.00371091 0.00948725)
(-0.000605113 0.00450828 0.00863732)
(-0.000735449 0.00461156 0.00803042)
(-0.000389822 0.00431709 0.00754775)
(0.000539601 0.00427729 0.00757214)
(0.000929141 0.00453186 0.00809112)
(0.000837335 0.00440991 0.00870916)
(0.000639652 0.00359472 0.00956016)
(0.000303673 0.00188035 0.0103948)
(0.000452492 -0.00245096 0.0104723)
(-0.00111035 -0.0100628 0.00958765)
(-0.00145468 -0.0212774 0.00789901)
(-0.00469499 -0.0328497 0.00488391)
(-0.00146854 -0.0425092 -0.00209293)
(0.000263526 -0.0413351 -0.00389593)
(0.00358021 -0.0312261 0.00358162)
(-0.00107482 -0.0209278 0.00672525)
(-0.00180937 -0.0116182 0.00818673)
(-0.0033709 -0.00541805 0.0090179)
(-0.00344251 -0.00174437 0.0094773)
(-0.00306444 0.000491676 0.00971782)
(-0.00253454 0.00180604 0.00966236)
(-0.0017584 0.00231154 0.00958396)
(-0.000641997 0.00225585 0.00950087)
(0.000900891 0.0021931 0.0094968)
(0.00201718 0.00218078 0.00957677)
(0.00279477 0.00166555 0.00964852)
(0.003303 0.000348723 0.00968236)
(0.00364586 -0.00188737 0.00943984)
(0.00353867 -0.00551898 0.0090006)
(0.00197825 -0.0116728 0.00819364)
(0.00125069 -0.0209581 0.0067565)
(-0.0034498 -0.0314017 0.00365711)
(-0.000217052 -0.0416704 -0.00377917)
(-0.0018468 -0.0378764 -0.00609522)
(0.000677453 -0.0272264 0.000678688)
(-0.00480693 -0.0191584 0.00322007)
(-0.00566838 -0.0123521 0.00387288)
(-0.00669593 -0.00727833 0.00403172)
(-0.00616233 -0.00366513 0.0041989)
(-0.00502176 -0.00127287 0.00456139)
(-0.00343226 0.000467055 0.00519439)
(-0.00172319 0.00112316 0.00584227)
(-0.000412735 0.00113062 0.00660728)
(0.000702249 0.00108943 0.00655967)
(0.00200103 0.0010318 0.00575118)
(0.00369891 0.000398291 0.00508564)
(0.00526627 -0.0013309 0.0044682)
(0.00638552 -0.00373128 0.0041139)
(0.00690201 -0.00734517 0.0039635)
(0.00586012 -0.0124169 0.00382877)
(0.00497776 -0.0192358 0.00320606)
(-0.000519039 -0.0273608 0.000731032)
(0.0018954 -0.0381148 -0.00598358)
(-0.00518512 -0.0290559 -0.00990984)
(-0.00553665 -0.0209247 -0.00553595)
(-0.0112901 -0.0162923 -0.00454213)
(-0.0126258 -0.0136549 -0.00494593)
(-0.0130691 -0.012252 -0.00581517)
(-0.0117119 -0.0116124 -0.00645181)
(-0.00961599 -0.0114766 -0.00684199)
(-0.00695442 -0.0114855 -0.00680228)
(-0.00393613 -0.0115657 -0.00612905)
(-0.00155981 -0.0105054 -0.00406536)
(0.00187679 -0.0105364 -0.00411053)
(0.00421528 -0.0116225 -0.00619194)
(0.0072151 -0.0115438 -0.00688963)
(0.00986551 -0.011537 -0.00693536)
(0.011951 -0.0116762 -0.00654447)
(0.0132956 -0.0123171 -0.00590066)
(0.0128399 -0.0137221 -0.00501949)
(0.0114785 -0.0163628 -0.00458006)
(0.00568386 -0.0210186 -0.00552118)
(0.00524375 -0.0291943 -0.00982464)
(-0.0122212 -0.0163533 -0.0183609)
(-0.0190652 -0.00951992 -0.0190646)
(-0.0256645 -0.00629535 -0.0216759)
(-0.0273842 -0.00438987 -0.0244258)
(-0.0273751 -0.00299768 -0.0272887)
(-0.0252945 -0.0017929 -0.0300446)
(-0.0217705 -0.000479791 -0.0324915)
(-0.0169281 0.00103087 -0.0343844)
(-0.0104722 0.00262304 -0.0351516)
(-0.00473371 0.00440607 -0.032819)
(0.00502633 0.0043464 -0.0328326)
(0.0107286 0.00257931 -0.0351894)
(0.017181 0.00100601 -0.0344504)
(0.0220173 -0.000496336 -0.0325648)
(0.0255332 -0.00180736 -0.0301165)
(0.0276018 -0.00301359 -0.0273567)
(0.0275944 -0.00440857 -0.024485)
(0.0258486 -0.00632105 -0.0217156)
(0.0192018 -0.00955885 -0.0190719)
(0.012295 -0.0164203 -0.0183092)
(0.00693062 -0.00478971 0.0199372)
(0.00986502 0.000917119 0.0155892)
(0.00833245 0.00749971 0.00833442)
(-0.000363359 0.00751791 0.00208077)
(-0.00428476 -0.00459064 0.000560224)
(-0.000516686 -0.00341545 0.000129122)
(-0.000542668 -0.00161517 0.000542859)
(0.000467079 -0.000542108 0.000328913)
(0.000467976 -0.000108776 6.52969e-05)
(-0.00021733 -0.00211293 0.000857625)
(9.31372e-06 -0.000383524 -0.0002144)
(0.00037862 -0.00130966 0.000470021)
(-0.000700477 -0.000487437 0.000427683)
(0.000826879 -0.00173059 0.000559337)
(0.000530287 -0.00351056 0.000135551)
(0.00489907 -0.00392501 0.000959059)
(-0.00145992 0.00951983 0.00366462)
(-0.00954783 0.00654026 0.00934196)
(-0.0107512 0.000165537 0.0163055)
(-0.00720671 -0.00536969 0.0203885)
(0.00287383 -0.00146547 0.0134202)
(0.00711131 0.00582473 0.013273)
(0.0108297 0.0123289 0.0108277)
(0.010069 0.0114894 0.00871787)
(0.00938517 0.00595442 0.006255)
(0.00305513 0.00106817 0.00378733)
(0.000237507 -0.00228031 0.00150831)
(0.000242351 -0.00244068 -3.44907e-05)
(0.000195443 -0.00138289 -0.00121301)
(0.000211402 -0.00129146 -0.00215578)
(-0.000229733 -0.000546846 -0.00209876)
(-0.000216907 -0.0020031 -0.00107749)
(-0.000362365 -0.00247619 4.30271e-05)
(-0.000309177 -0.00229108 0.00158844)
(-0.00346346 0.00130501 0.00394454)
(-0.00961549 0.00652215 0.00641216)
(-0.0102298 0.0128834 0.00885569)
(-0.010923 0.0118026 0.0107175)
(-0.00729597 0.00471725 0.0131506)
(-0.00299782 -0.00294325 0.0132104)
(0.00251302 -0.0126166 0.00789249)
(0.00670378 -0.00699954 0.0111715)
(0.0121514 0.00331211 0.0121498)
(0.015319 0.00708327 0.011196)
(0.0153199 0.00570999 0.00924318)
(0.0122832 0.00376977 0.00719482)
(0.00854612 0.00142521 0.00520691)
(0.0042408 -0.000979469 0.00292822)
(0.00166629 -0.00208965 -8.13119e-05)
(0.000396495 -0.00198953 -0.00277723)
(-0.000496438 -0.00204886 -0.00261837)
(-0.00187625 -0.00214447 0.000164383)
(-0.00450167 -0.0010163 0.00307178)
(-0.00882238 0.00143374 0.00527941)
(-0.0125119 0.00389147 0.00721037)
(-0.0154813 0.00612949 0.00917123)
(-0.0151793 0.00793856 0.0109468)
(-0.0119061 0.00290826 0.0117357)
(-0.00663004 -0.0078655 0.0108317)
(-0.00249472 -0.0138689 0.00749423)
(0.00308554 -0.0204133 0.0016942)
(0.00726671 -0.0148605 0.00749749)
(0.0105872 -0.00717372 0.0105867)
(0.0146166 0.000292094 0.0114037)
(0.0158448 0.00367574 0.0103562)
(0.0141958 0.00430157 0.00876859)
(0.0112525 0.00339715 0.00705225)
(0.00785435 0.00196902 0.00493496)
(0.00424492 0.00023961 0.00188213)
(0.00128084 -0.00119193 -0.00194798)
(-0.00142804 -0.00120485 -0.00172632)
(-0.00448473 0.000211272 0.00217087)
(-0.00814822 0.00189505 0.00515192)
(-0.0115566 0.00330347 0.00721457)
(-0.0144618 0.00426729 0.00886538)
(-0.01602 0.00382294 0.0103537)
(-0.0145802 0.000658327 0.0112679)
(-0.0103958 -0.00737663 0.010348)
(-0.00721545 -0.0154793 0.0072926)
(-0.00303176 -0.0213273 0.00142818)
(0.00296723 -0.0266377 -0.00311123)
(0.00789937 -0.0197676 0.00430423)
(0.00886677 -0.0123167 0.00886725)
(0.010587 -0.00437229 0.0110163)
(0.0112715 0.00137066 0.0112862)
(0.0103708 0.00434919 0.0101944)
(0.00829219 0.00482676 0.00858084)
(0.00582576 0.00402986 0.00660921)
(0.00320564 0.00286614 0.0041917)
(0.00106504 0.00181282 0.00100944)
(-0.000914336 0.0018298 0.00109401)
(-0.0031122 0.00286533 0.00436315)
(-0.0057839 0.00395344 0.00679269)
(-0.00830808 0.00468189 0.0087684)
(-0.0104095 0.0042053 0.0103708)
(-0.0113123 0.00134409 0.0114085)
(-0.0105146 -0.00428881 0.0110548)
(-0.00873136 -0.0124629 0.00881713)
(-0.00784397 -0.0201862 0.00426129)
(-0.00290845 -0.0272511 -0.0031987)
(0.00195839 -0.0304658 -0.00654548)
(0.00785063 -0.0212385 0.00163188)
(0.0069169 -0.0135306 0.006918)
(0.00716297 -0.00518165 0.00981464)
(0.00595153 0.00150915 0.0110159)
(0.00522706 0.00531406 0.0105899)
(0.00395075 0.00632654 0.0093429)
(0.00261986 0.00606594 0.0078655)
(0.00123602 0.00542129 0.00648953)
(0.000309672 0.00492661 0.00512438)
(-0.000144356 0.00492102 0.00512438)
(-0.00101411 0.00540272 0.00652904)
(-0.00238899 0.00601045 0.00792913)
(-0.00375696 0.00622899 0.00942771)
(-0.00508971 0.00522552 0.0106836)
(-0.00585797 0.00150532 0.0111017)
(-0.00704684 -0.00511541 0.00988391)
(-0.00677317 -0.0136307 0.00695582)
(-0.00777847 -0.0215707 0.00168534)
(-0.00189684 -0.0309481 -0.00652021)
(6.47675e-05 -0.0326304 -0.00937379)
(0.00672449 -0.0209304 -0.00107347)
(0.00441549 -0.0128366 0.00441668)
(0.00438947 -0.00493402 0.00767355)
(0.00261254 0.000815289 0.00930191)
(0.00181171 0.00420812 0.00929687)
(0.0011703 0.00538478 0.00867377)
(0.000652832 0.00547657 0.00794362)
(0.000175302 0.00522193 0.0074362)
(1.34853e-05 0.00509693 0.00698273)
(0.000201628 0.00507193 0.00694858)
(9.87275e-05 0.0051623 0.00737586)
(-0.000363763 0.00539987 0.00788188)
(-0.000910071 0.00528175 0.00862001)
(-0.00160365 0.00410912 0.00927086)
(-0.00243149 0.000772495 0.00931431)
(-0.0042247 -0.00492954 0.00772653)
(-0.00423047 -0.0129326 0.00447374)
(-0.00662093 -0.0212101 -0.00100109)
(-7.5517e-06 -0.0329976 -0.00930399)
(-0.00265406 -0.0321157 -0.0124428)
(0.00321969 -0.0191595 -0.0048062)
(-0.000218007 -0.0108236 -0.000217232)
(0.000290047 -0.00272178 0.002576)
(-0.000428974 0.00332186 0.00444378)
(-0.000409678 0.00608234 0.00454326)
(-0.000199171 0.0072259 0.00438333)
(0.000100942 0.00769061 0.00437667)
(0.000503716 0.0076919 0.00464289)
(0.000431415 0.00773058 0.00509166)
(-0.000159967 0.0077215 0.00505032)
(-0.000219412 0.00767516 0.00454344)
(0.00018545 0.00768106 0.00425933)
(0.000466001 0.00720114 0.00426718)
(0.000650131 0.00604626 0.00444382)
(0.000647974 0.00330144 0.00438609)
(-7.67151e-05 -0.00268089 0.00259525)
(0.000441386 -0.0109085 -0.000187607)
(-0.00309241 -0.0193461 -0.00475942)
(0.00270649 -0.0323743 -0.0123616)
(-0.00634207 -0.0263589 -0.0167132)
(-0.00454241 -0.0162926 -0.0112895)
(-0.00877022 -0.0108112 -0.00876986)
(-0.00844493 -0.00726033 -0.00775449)
(-0.0080506 -0.00519674 -0.00753167)
(-0.00594059 -0.00403767 -0.00683896)
(-0.00400774 -0.0039526 -0.0063478)
(-0.00215732 -0.00415127 -0.00548707)
(-0.000477809 -0.00450668 -0.00405982)
(0.000128154 -0.00225759 -0.00202073)
(0.000208821 -0.00229411 -0.00209152)
(0.000823364 -0.00458445 -0.00421084)
(0.00249731 -0.00422825 -0.00563968)
(0.00432708 -0.004023 -0.00649152)
(0.0062345 -0.00411132 -0.0069732)
(0.00830711 -0.00526587 -0.00763683)
(0.00868263 -0.00732156 -0.00781813)
(0.00897622 -0.01088 -0.00879766)
(0.00468905 -0.0163892 -0.0112722)
(0.00639245 -0.0264959 -0.0166412)
(-0.014401 -0.0145733 -0.0248923)
(-0.0216762 -0.00629551 -0.0256638)
(-0.0284495 -0.00244082 -0.0284491)
(-0.0299408 -4.38874e-05 -0.0316785)
(-0.0297189 0.00169363 -0.0351503)
(-0.0275204 0.0031873 -0.0386043)
(-0.024013 0.00482175 -0.0418326)
(-0.0192119 0.00669138 -0.0444798)
(-0.0126503 0.00866897 -0.0458157)
(-0.0061241 0.0106588 -0.0431059)
(0.00644862 0.0106043 -0.0431241)
(0.0129263 0.00864017 -0.0458616)
(0.0194806 0.00667928 -0.0445579)
(0.0242691 0.00481524 -0.0419189)
(0.0277616 0.0031817 -0.0386896)
(0.0299408 0.00168536 -0.0352312)
(0.0301419 -5.50238e-05 -0.0317475)
(0.0286237 -0.00246316 -0.0284972)
(0.0218019 -0.00633394 -0.0256787)
(0.0144682 -0.0146363 -0.024852)
(0.00461492 0.00550988 0.0088482)
(0.00532561 0.00887558 0.00677049)
(0.00207314 0.00751576 -0.000359984)
(-0.00269391 -0.00438654 -0.00267377)
(-5.62922e-05 -0.00440389 0.000324284)
(0.000717428 -0.00302955 0.000718614)
(0.00151916 -0.00160951 0.00140423)
(0.00196241 -0.000709303 0.00170194)
(0.00144614 -0.000433973 0.00199125)
(0.000737041 -0.000426393 0.00136617)
(-0.000584158 -0.000603863 0.00194472)
(-0.00143463 -0.000353175 0.00183046)
(-0.00194723 -0.000733918 0.00172969)
(-0.00147679 -0.00166835 0.00139943)
(-0.000780191 -0.0031469 0.000675835)
(0.00022509 -0.00460405 0.000428612)
(0.00308553 -0.00348764 -0.0030356)
(-0.0037565 0.00951616 0.00134412)
(-0.00636141 0.00873335 0.00800927)
(-0.00508621 0.00525771 0.00995618)
(0.00283062 0.0109458 0.013142)
(0.0060275 0.013161 0.0128013)
(0.00871986 0.0114856 0.010065)
(0.00911146 0.0069398 0.00910943)
(0.00562478 0.00260884 0.00503363)
(0.00195288 -0.00111045 0.00305677)
(0.00134548 -0.00267935 0.00189099)
(0.00133448 -0.00257535 0.00112346)
(0.00125395 -0.00183721 0.000295621)
(0.000576508 -0.00121768 -0.000739311)
(-0.000821486 -0.00124348 -0.000603509)
(-0.00145435 -0.00191784 0.000450076)
(-0.00153885 -0.00265142 0.00124087)
(-0.0015168 -0.00270673 0.0020254)
(-0.00221782 -0.000972474 0.00325462)
(-0.00616 0.00304057 0.00542096)
(-0.00938307 0.00785028 0.00930635)
(-0.00900399 0.0128438 0.0101474)
(-0.00614521 0.0131833 0.0131784)
(-0.00300069 0.0106522 0.0134843)
(0.00236009 0.00506952 0.0143518)
(0.0064453 0.00627143 0.0157176)
(0.0111979 0.00708038 0.0153177)
(0.0135651 0.00578122 0.0135641)
(0.0130044 0.00415876 0.0107274)
(0.0107629 0.00229064 0.00824492)
(0.00740045 6.7861e-05 0.0058072)
(0.00408294 -0.00191234 0.00358616)
(0.00201485 -0.00250405 0.00119166)
(0.00058922 -0.00215221 -0.00112242)
(-0.000875472 -0.00220451 -0.000925527)
(-0.00232659 -0.002593 0.00147502)
(-0.00443591 -0.00199138 0.00379748)
(-0.00773933 -2.59639e-05 0.00595674)
(-0.0110654 0.0022836 0.00835613)
(-0.0132802 0.00437261 0.0108055)
(-0.0136971 0.00643205 0.0135781)
(-0.0111204 0.00785618 0.0150899)
(-0.00628446 0.00617009 0.0156211)
(-0.00236896 0.00439863 0.0140545)
(0.00415447 -0.00583338 0.00624131)
(0.00785682 -0.00226345 0.0117808)
(0.0114047 0.000288745 0.0146155)
(0.0143425 0.0027452 0.0143412)
(0.0148683 0.00386158 0.0124295)
(0.013376 0.00371733 0.0102565)
(0.0107246 0.00270305 0.00813646)
(0.00754875 0.00122378 0.00579165)
(0.00407052 -0.000552973 0.00277602)
(0.00123868 -0.00169624 -0.000587698)
(-0.00147167 -0.0017286 -0.000338388)
(-0.00438053 -0.000649242 0.00309392)
(-0.00789243 0.00105653 0.00605574)
(-0.0110969 0.00250532 0.0083702)
(-0.0137286 0.00355021 0.0104456)
(-0.0151739 0.0038398 0.0125593)
(-0.0145098 0.00295944 0.0143795)
(-0.0113711 0.00047118 0.014466)
(-0.00779593 -0.00257938 0.0114921)
(-0.00410699 -0.00642388 0.00578962)
(0.00423176 -0.0151008 -0.00192409)
(0.00943422 -0.00774887 0.00556544)
(0.0110159 -0.00437494 0.0105872)
(0.0125973 -0.000585756 0.0125967)
(0.0129613 0.00263052 0.0123985)
(0.011875 0.00432814 0.0110532)
(0.00971077 0.00429236 0.00928565)
(0.00711539 0.00316944 0.0071739)
(0.00426935 0.00156914 0.00449349)
(0.00164586 -0.000238639 0.000950592)
(-0.00151761 -0.000245722 0.001043)
(-0.0042127 0.00152839 0.00468751)
(-0.0071437 0.00303497 0.00738727)
(-0.00981156 0.00406957 0.0094994)
(-0.012018 0.00407809 0.01125)
(-0.0131235 0.00245956 0.0125459)
(-0.0126998 -0.00062752 0.0126699)
(-0.0110094 -0.00446152 0.0105389)
(-0.00941117 -0.00804508 0.00544728)
(-0.0041512 -0.0156761 -0.00213769)
(0.00241011 -0.0218474 -0.00723975)
(0.00953913 -0.0100963 0.00127558)
(0.00981348 -0.00518434 0.00716399)
(0.0102266 -0.000588167 0.010227)
(0.00955981 0.00350085 0.0113818)
(0.00863913 0.00598988 0.0109753)
(0.00707863 0.00642499 0.00976956)
(0.0052409 0.00557968 0.00810999)
(0.00316759 0.00428848 0.00616878)
(0.00121642 0.00322397 0.00386379)
(-0.00100635 0.00321063 0.00384214)
(-0.00293728 0.00426917 0.00620446)
(-0.00503624 0.00550835 0.00818587)
(-0.00693084 0.00629274 0.00986897)
(-0.00855545 0.00584049 0.0110792)
(-0.00952624 0.00340315 0.0114712)
(-0.0101892 -0.000625932 0.0102977)
(-0.00972446 -0.00530843 0.00720873)
(-0.00947917 -0.0103971 0.00131514)
(-0.00232037 -0.022311 -0.00724808)
(-0.000311553 -0.026726 -0.010796)
(0.00818593 -0.0116213 -0.0018078)
(0.00767211 -0.00493593 0.00439054)
(0.00776266 -6.04453e-05 0.00776355)
(0.00656086 0.00366081 0.00957104)
(0.00581153 0.00589891 0.00991094)
(0.00487526 0.00628178 0.0094438)
(0.00372603 0.00554626 0.00858626)
(0.00225693 0.00451337 0.0076309)
(0.00084179 0.00390605 0.00637507)
(-0.000595864 0.00388056 0.00631583)
(-0.0019619 0.00447291 0.00756542)
(-0.00343235 0.00548315 0.00854282)
(-0.00462267 0.00617927 0.00942256)
(-0.00561452 0.00578723 0.00991477)
(-0.00639774 0.0035827 0.00960548)
(-0.00761461 -0.000121281 0.00782877)
(-0.00749067 -0.00507285 0.00446567)
(-0.00808388 -0.0118831 -0.00173188)
(0.000390305 -0.0270908 -0.0107454)
(-0.0036549 -0.0287546 -0.0143106)
(0.0038726 -0.0123538 -0.00566749)
(0.00257499 -0.00272358 0.000290375)
(0.00373288 0.00385324 0.0037333)
(0.00306746 0.00691476 0.00555119)
(0.00323618 0.00834359 0.00620839)
(0.00326747 0.00866849 0.0062373)
(0.00302346 0.00853553 0.0060692)
(0.00251902 0.00828417 0.00601166)
(0.00132634 0.00839126 0.0059237)
(-0.000989495 0.00836407 0.00587658)
(-0.0021975 0.00825668 0.00592186)
(-0.0027072 0.00851825 0.00598732)
(-0.00298132 0.00863515 0.00616792)
(-0.00298463 0.00829933 0.00615778)
(-0.00283634 0.00688582 0.00554433)
(-0.00351422 0.00382982 0.00377991)
(-0.00232602 -0.00285341 0.000341668)
(-0.00374219 -0.0125342 -0.00561231)
(0.00371966 -0.0290072 -0.0142441)
(-0.00763142 -0.0253574 -0.0187707)
(-0.00494596 -0.0136553 -0.0126251)
(-0.00775453 -0.00726055 -0.00844465)
(-0.00504975 -0.00277334 -0.00504954)
(-0.00392962 -0.0003893 -0.00339588)
(-0.00238069 0.000101758 -0.00314205)
(-0.00102883 -0.000430293 -0.00319571)
(-3.93116e-05 -0.0010413 -0.00316101)
(0.000740601 -0.00155589 -0.00254842)
(0.000612841 0.00083745 -0.00104992)
(-0.000255831 0.000843918 -0.00108598)
(-0.000370403 -0.00163172 -0.00266992)
(0.000425532 -0.0010997 -0.00329964)
(0.00137979 -0.000496205 -0.00333197)
(0.00268986 2.84073e-05 -0.00326393)
(0.00419699 -0.000458062 -0.00348248)
(0.00531105 -0.00283749 -0.00510393)
(0.00795084 -0.00732508 -0.00846691)
(0.00508656 -0.0137402 -0.0126092)
(0.00768346 -0.025483 -0.0187075)
(-0.0163884 -0.0139044 -0.0267208)
(-0.0244258 -0.00439013 -0.0273834)
(-0.0316787 -4.40564e-05 -0.0299402)
(-0.0330934 0.00254116 -0.033093)
(-0.0326011 0.00430407 -0.0364742)
(-0.03031 0.00590132 -0.0401384)
(-0.0269475 0.00773299 -0.0439939)
(-0.0222046 0.00986427 -0.0474576)
(-0.0153139 0.0121915 -0.0496802)
(-0.00780163 0.014835 -0.0480439)
(0.00817042 0.0147715 -0.048045)
(0.0156096 0.0121791 -0.0497495)
(0.0224714 0.00986024 -0.047543)
(0.0271973 0.00772905 -0.0440829)
(0.0305442 0.00589753 -0.0402296)
(0.032813 0.00429759 -0.0365588)
(0.0332778 0.00252876 -0.0331578)
(0.0318347 -6.6036e-05 -0.0299858)
(0.024539 -0.00442567 -0.0273999)
(0.0164515 -0.013962 -0.0266866)
(0.000379429 -0.00115962 -0.00961345)
(0.00118571 -0.00220516 -0.00680268)
(0.000523348 -0.00458585 -0.00426219)
(0.000295392 -0.00438654 -3.04067e-05)
(0.000928537 -0.00343743 0.000942277)
(0.0019953 -0.00245556 0.00190042)
(0.002846 -0.00143605 0.00264256)
(0.0030581 -0.000760133 0.00322114)
(0.00239945 -0.000485177 0.00375242)
(0.00118042 -0.000537825 0.0039655)
(-0.00117678 -0.000549467 0.00396029)
(-0.00244585 -0.0004402 0.00384172)
(-0.00312035 -0.000767354 0.00326313)
(-0.00289251 -0.00149655 0.0026898)
(-0.00205945 -0.002586 0.00191671)
(-0.000962467 -0.00364038 0.00102152)