/*--------------------------------*- C++ -*----------------------------------*\
| =========                 |                                                 |
| \\      /  F ield         | OpenFOAM: The Open Source CFD Toolbox           |
|  \\    /   O peration     | Version:  v1912                                 |
|   \\  /    A nd           | Website:  www.openfoam.com                      |
|    \\/     M anipulation  |                                                 |
\*---------------------------------------------------------------------------*/
FoamFile
{
    version     2.0;
    format      ascii;
    class       volScalarField;
    location    "935";
    object      a;
}
// * * * * * * * * * * * * * * * * * * * * * * * * * * * * * * * * * * * * * //

dimensions      [0 -1 0 0 0 0 0];


internalField   uniform 0.5;

boundaryField
{
    box
    {
        type            calculated;
        value           uniform 0.5;
    }
    floor
    {
        type            calculated;
        value           uniform 0.5;
    }
    ceiling
    {
        type            calculated;
        value           uniform 0.5;
    }
    fixedWalls
    {
        type            calculated;
        value           uniform 0.5;
    }
}


// ************************************************************************* //
