/*--------------------------------*- C++ -*----------------------------------*\
| =========                 |                                                 |
| \\      /  F ield         | OpenFOAM: The Open Source CFD Toolbox           |
|  \\    /   O peration     | Version:  v1912                                 |
|   \\  /    A nd           | Website:  www.openfoam.com                      |
|    \\/     M anipulation  |                                                 |
\*---------------------------------------------------------------------------*/
FoamFile
{
    version     2.0;
    format      ascii;
    class       volScalarField;
    location    "935";
    object      alphat;
}
// * * * * * * * * * * * * * * * * * * * * * * * * * * * * * * * * * * * * * //

dimensions      [1 -1 -1 0 0 0 0];


internalField   nonuniform List<scalar> 
104000
(
0.000397077
0.000429669
0.000448136
0.000458041
0.000463394
0.000411151
0.000441094
0.000456505
0.000464556
0.000468836
0.00042142
0.000450203
0.000464311
0.0004717
0.000475762
0.000428211
0.000455567
0.000470501
0.000478728
0.000483693
0.00041157
0.000427547
0.000450423
0.000462688
0.000468349
0.000398684
0.000435495
0.000459985
0.000476434
0.00048756
0.000456977
0.000783515
0.00082661
0.000850246
0.000883137
0.000484315
0.000939827
0.0010289
0.00108916
0.00115128
0.000498546
0.000927171
0.00104005
0.00109896
0.001138
0.000462921
0.000723138
0.000825794
0.000790816
0.000680914
0.000404736
0.00044282
0.000471783
0.000495739
0.000515097
0.00049217
0.00104921
0.00116614
0.00123949
0.00131656
0.000532256
0.0013166
0.00152022
0.00165724
0.00177721
0.000550389
0.00126381
0.00148686
0.00162273
0.00171144
0.000499438
0.000897195
0.00104076
0.000970263
0.000781746
0.000413694
0.000449653
0.00047999
0.000507862
0.000533505
0.000519158
0.00127082
0.00146377
0.00158387
0.00169633
0.000569861
0.00160574
0.00190579
0.00210214
0.00226415
0.000588282
0.00149466
0.00180132
0.00202274
0.00217332
0.000525718
0.00101151
0.00119814
0.00110225
0.00085072
0.00042436
0.000458704
0.000488608
0.000517119
0.000546096
0.00054048
0.00145339
0.00173206
0.00191157
0.00206561
0.000600817
0.00182964
0.0022121
0.0024777
0.00269588
0.000616879
0.00165291
0.00202626
0.00232897
0.00256165
0.000545862
0.00109512
0.0013374
0.00123173
0.000933708
0.000465542
0.000464718
0.000461435
0.00045622
0.000449576
0.000441976
0.000433823
0.000425442
0.000417081
0.000408915
0.000470354
0.000469765
0.00046679
0.000461851
0.000455357
0.000447696
0.000439196
0.000430117
0.000420668
0.000411032
0.0004773
0.000476964
0.000475108
0.000472154
0.000468422
0.000463856
0.00045856
0.000452642
0.000446026
0.000438091
0.000486528
0.000487926
0.00048804
0.000487198
0.000485521
0.000483008
0.000479568
0.000474969
0.000468873
0.00046081
0.000471615
0.000473374
0.000473428
0.000472255
0.000470326
0.000468139
0.000466259
0.000465106
0.000464691
0.000462763
0.000494399
0.000497579
0.000496697
0.000492224
0.000484759
0.000474986
0.000463603
0.000451277
0.000438593
0.000426033
0.000917357
0.000953
0.000998298
0.0010423
0.00108518
0.00112769
0.00116943
0.00120753
0.00123432
0.00123621
0.00120773
0.00126202
0.00131296
0.0013572
0.00139271
0.00142307
0.00144813
0.00146681
0.00147949
0.00148883
0.00116367
0.00118867
0.0012081
0.0012222
0.00123022
0.0012338
0.00123604
0.00124344
0.0012606
0.00131791
0.000517871
0.000524252
0.000530664
0.000537115
0.000544878
0.000556125
0.000574123
0.000602157
0.000640087
0.00067858
0.000528744
0.000537925
0.000542343
0.0005422
0.000537913
0.000530103
0.000519464
0.000506708
0.000492526
0.000477587
0.00139329
0.00147368
0.00156019
0.00166165
0.00177004
0.00188466
0.00200254
0.00211536
0.00220566
0.00224491
0.00187888
0.00197228
0.00205953
0.00214094
0.00221429
0.00227903
0.00233601
0.00238785
0.0024384
0.00250738
0.00176487
0.00180022
0.0018174
0.00181813
0.00180387
0.00178015
0.00175674
0.0017487
0.00176885
0.00192017
0.000567419
0.000579175
0.000589358
0.000598648
0.000609275
0.000624912
0.000650904
0.000692426
0.000749407
0.000807181
0.000554275
0.000568931
0.000578979
0.000583967
0.000584268
0.000580373
0.000572896
0.000562485
0.000549772
0.000534887
0.00180321
0.00191538
0.00203195
0.00216223
0.00230822
0.00246282
0.0026198
0.00276735
0.00288328
0.00294422
0.00239616
0.00251015
0.00261116
0.00270247
0.00278589
0.00286241
0.00293399
0.00300363
0.00307582
0.00322182
0.00224545
0.00227534
0.00227297
0.00223995
0.0021844
0.00211911
0.00206235
0.00203459
0.0020707
0.00230223
0.000614165
0.00062984
0.000640653
0.000648743
0.000658085
0.000674227
0.000704569
0.000755385
0.000823935
0.000893916
0.000571699
0.000591744
0.000605836
0.000615309
0.000619931
0.000620109
0.000616506
0.000609995
0.000601322
0.000586387
0.00220677
0.00234974
0.00249162
0.00263593
0.00279109
0.00295693
0.00311817
0.00325689
0.0033493
0.00343935
0.00287327
0.00301528
0.00313149
0.00322359
0.00329996
0.00336548
0.0034228
0.00347264
0.00355013
0.00374282
0.00272195
0.00276244
0.00274266
0.00265783
0.00253175
0.00239007
0.0022663
0.00218805
0.00225332
0.00253711
0.000663778
0.000681755
0.000690658
0.000693498
0.000698219
0.000713816
0.000750739
0.000815228
0.000895639
0.000981835
0.000401127
0.000393557
0.000387036
0.000381279
0.000376123
0.000371406
0.000367029
0.000362914
0.000359005
0.000355259
0.00035165
0.000348156
0.000344765
0.000341465
0.000338248
0.000335108
0.000332039
0.000329033
0.000326078
0.000323168
0.000320296
0.000317455
0.00031464
0.000311856
0.000309102
0.000306374
0.000303671
0.000300991
0.00029833
0.000295689
0.000293063
0.000290452
0.000287852
0.000285261
0.000282676
0.000280094
0.000277511
0.000274923
0.000272326
0.000269716
0.000267085
0.000264429
0.00026174
0.00025901
0.000256229
0.000253388
0.000250475
0.000247477
0.000244378
0.000241162
0.000237809
0.000234299
0.000230608
0.000226711
0.000222581
0.000218193
0.000213523
0.000208555
0.000203287
0.000197744
0.000191987
0.000186132
0.00018036
0.000174918
0.000170089
0.000166131
0.000163199
0.000161295
0.00016028
0.000159932
0.000160018
0.000160335
0.00016072
0.000161046
0.00016119
0.000161005
0.000160282
0.000158686
0.000155666
0.000150664
0.000401517
0.000390911
0.000382561
0.000375989
0.000370766
0.000366405
0.000362605
0.000359137
0.000355922
0.000352904
0.000350048
0.000347328
0.000344724
0.000342218
0.000339797
0.00033744
0.000335112
0.000332806
0.000330517
0.000328239
0.000325969
0.000323701
0.000321432
0.000319156
0.000316921
0.000314727
0.000312574
0.00031046
0.000308383
0.000306342
0.000304336
0.000302363
0.000300421
0.000298508
0.000296621
0.000294757
0.000292914
0.000291086
0.000289271
0.000287462
0.000285653
0.000283838
0.000282009
0.000280156
0.000278269
0.000276335
0.000274339
0.000272267
0.000270098
0.000267812
0.000265384
0.000262786
0.000259987
0.000256952
0.000253641
0.000250015
0.000246027
0.000241635
0.0002368
0.000231491
0.000225698
0.00021944
0.000212784
0.000205862
0.000198889
0.000192177
0.000186101
0.000181044
0.000177295
0.000174962
0.00017395
0.000174015
0.000174861
0.000176206
0.000177796
0.000179356
0.000180532
0.000180825
0.000179414
0.000181005
0.000428159
0.000413052
0.000401194
0.000392526
0.000385927
0.000380507
0.000375885
0.000371846
0.000368207
0.000364849
0.000361694
0.00035869
0.0003558
0.000352998
0.000350264
0.000347594
0.000345001
0.00034248
0.000340024
0.000337629
0.000335295
0.000333028
0.000330824
0.000328683
0.000326605
0.000324587
0.000322629
0.000320728
0.000318885
0.000317096
0.000315362
0.00031368
0.000312049
0.000310467
0.000308931
0.000307439
0.000305987
0.000304573
0.000303192
0.000301839
0.000300509
0.000299195
0.000297888
0.000296581
0.000295261
0.000293918
0.000292535
0.000291096
0.000289582
0.000287971
0.000286237
0.000284351
0.000282279
0.000279984
0.000277423
0.000274548
0.00027131
0.000267653
0.000263525
0.000258875
0.000253666
0.000247877
0.000241519
0.000234638
0.00022734
0.000219819
0.000212358
0.000205336
0.000199191
0.000194338
0.000191051
0.000189369
0.000189098
0.000189931
0.000191528
0.000193497
0.000195339
0.000196408
0.000195725
0.000198483
0.000449558
0.000434128
0.000419013
0.0004088
0.000401472
0.0003956
0.000390585
0.000386093
0.000381957
0.000378078
0.000374401
0.000370886
0.000367513
0.000364267
0.00036114
0.000358124
0.000355215
0.000352409
0.000349703
0.000347094
0.000344581
0.00034216
0.000339832
0.000337593
0.000335443
0.000333379
0.0003314
0.000329505
0.000327692
0.000325958
0.000324304
0.000322726
0.000321224
0.000319795
0.000318436
0.000317146
0.000315922
0.000314759
0.000313656
0.000312606
0.000311605
0.000310648
0.000309725
0.00030883
0.000307951
0.000307076
0.00030619
0.000305277
0.000304315
0.000303285
0.000302159
0.000300907
0.000299496
0.000297886
0.000296032
0.000293884
0.000291387
0.000288478
0.000285095
0.000281177
0.000276669
0.000271535
0.000265767
0.000259375
0.000252392
0.000244945
0.000237211
0.000229472
0.000222106
0.000215567
0.000210313
0.000206667
0.000204672
0.000204145
0.000204785
0.000206163
0.000207694
0.000208648
0.000207978
0.000211347
0.0004541
0.000449044
0.000433314
0.000423031
0.000415837
0.000410001
0.000404889
0.000400177
0.00039573
0.000391475
0.000387377
0.000383418
0.000379589
0.000375886
0.000372306
0.00036885
0.000365516
0.000362304
0.000359215
0.000356247
0.000353401
0.000350675
0.000348069
0.000345581
0.000343211
0.000340957
0.000338817
0.000336791
0.000334877
0.000333072
0.000331374
0.000329782
0.000328295
0.000326908
0.00032562
0.00032443
0.000323332
0.000322326
0.000321408
0.000320573
0.000319818
0.000319138
0.000318525
0.000317974
0.000317473
0.000317013
0.000316577
0.000316147
0.000315702
0.000315219
0.000314672
0.000314031
0.000313261
0.00031232
0.000311162
0.000309732
0.00030797
0.000305806
0.000303167
0.00029998
0.000296176
0.000291708
0.000286573
0.000280781
0.000274292
0.000267223
0.000259664
0.000251821
0.000243978
0.000236523
0.000229931
0.000224667
0.000220971
0.000218825
0.000218044
0.00021825
0.000218855
0.000219139
0.000218062
0.000221704
0.000414048
0.000401798
0.000392563
0.00038545
0.000379533
0.000374209
0.000369196
0.000364502
0.000360052
0.000355794
0.000351693
0.000347728
0.000343881
0.000340139
0.00033649
0.000332925
0.000329436
0.000326056
0.000322801
0.000319671
0.000316665
0.000313783
0.000311024
0.000308377
0.000305819
0.000303329
0.000300902
0.000298536
0.000296227
0.000293972
0.000291768
0.000289611
0.000287499
0.000285427
0.000283391
0.000281385
0.000279406
0.000277447
0.000275502
0.000273563
0.000271622
0.00026967
0.000267695
0.000265685
0.000263626
0.000261501
0.000259291
0.000256974
0.000254525
0.000251914
0.00024911
0.000246076
0.000242771
0.000239154
0.000235179
0.000230805
0.000225995
0.000220726
0.000215003
0.000208871
0.000202438
0.000195887
0.000189487
0.000183574
0.000178488
0.000174493
0.000171698
0.000170038
0.000169317
0.00016929
0.000169721
0.000170412
0.0001712
0.000171938
0.000172461
0.000172546
0.000171836
0.000169724
0.000165082
0.000156251
0.00119007
0.00110758
0.001001
0.000908783
0.000840879
0.000790609
0.000751485
0.000723483
0.00070299
0.000687573
0.000675223
0.000665071
0.000656635
0.000649195
0.000642269
0.000635504
0.000628601
0.000622209
0.000616676
0.000611891
0.000607751
0.000604147
0.000600955
0.000598045
0.000596372
0.000595683
0.000595694
0.000596348
0.000597603
0.000599419
0.000601761
0.000604594
0.000607887
0.000611609
0.000615729
0.000620216
0.000625037
0.000630156
0.000635536
0.000641134
0.000646898
0.000652774
0.000658692
0.000664575
0.000670329
0.000675842
0.000680983
0.000685594
0.00068949
0.000692454
0.000694232
0.000694538
0.000693048
0.000689409
0.000683249
0.000674189
0.00066187
0.000645987
0.000626337
0.000602884
0.000575842
0.000545748
0.000513525
0.000480487
0.000448259
0.000418569
0.000392966
0.000372496
0.000357488
0.000347558
0.000341814
0.000339131
0.000338321
0.000338167
0.000337299
0.000333898
0.000325125
0.000306251
0.000268023
0.000191418
0.00152199
0.00160088
0.00156572
0.00148385
0.00140668
0.00134563
0.00129854
0.00126076
0.00122659
0.00119493
0.00116577
0.00113853
0.00111278
0.00108867
0.00106626
0.0010455
0.00102635
0.00100876
0.00099266
0.000977595
0.000963773
0.000951691
0.000941271
0.000932427
0.00092508
0.00091913
0.000914485
0.000911065
0.000908793
0.0009076
0.000907419
0.000908187
0.000909842
0.000912327
0.000915584
0.000919556
0.000924186
0.000929413
0.000935177
0.000941409
0.000948038
0.000954981
0.000962146
0.000969426
0.000976697
0.000983814
0.000990609
0.00099688
0.00100239
0.00100687
0.00100998
0.00101135
0.00101056
0.00100714
0.00100057
0.000990313
0.000975842
0.000956634
0.000932236
0.000902324
0.000866795
0.000825864
0.000780174
0.000730902
0.000679771
0.000628901
0.00058063
0.000537175
0.000500225
0.000470601
0.000448137
0.000431819
0.000420047
0.000410856
0.000401953
0.00039053
0.000372682
0.000342608
0.000290834
0.000208102
0.00150242
0.00171919
0.0017061
0.00164378
0.00159639
0.00156676
0.00154394
0.00152185
0.00149832
0.00147312
0.00144672
0.00141977
0.00139286
0.00136649
0.00134104
0.00131679
0.00129394
0.00127263
0.00125295
0.00123495
0.00121865
0.00120407
0.00119119
0.00117996
0.00117036
0.00116232
0.0011558
0.00115073
0.00114704
0.00114469
0.00114361
0.00114373
0.001145
0.00114735
0.00115072
0.00115505
0.00116026
0.0011663
0.00117308
0.00118055
0.00118861
0.00119717
0.00120615
0.00121541
0.00122485
0.00123429
0.00124357
0.00125248
0.00126077
0.00126817
0.0012743
0.00127878
0.00128112
0.00128079
0.00127718
0.00126966
0.00125755
0.00124014
0.00121671
0.0011866
0.00114926
0.00110436
0.00105197
0.000992755
0.000928283
0.000860609
0.000792417
0.000726693
0.000666293
0.000613441
0.000569339
0.000533996
0.000506272
0.000484026
0.000464233
0.00044307
0.000415478
0.000374275
0.00030905
0.000220489
0.00121225
0.00187353
0.00179387
0.00171324
0.00167753
0.00167085
0.00167219
0.0016715
0.00166564
0.00165435
0.00163854
0.00161935
0.00159787
0.00157503
0.00155158
0.0015281
0.00150503
0.00148272
0.00146143
0.00144135
0.00142264
0.00140541
0.00138973
0.00137566
0.00136323
0.00135245
0.00134332
0.00133584
0.00132997
0.00132569
0.00132294
0.00132169
0.00132188
0.00132344
0.00132632
0.00133045
0.00133575
0.00134215
0.00134957
0.00135792
0.00136712
0.00137706
0.00138764
0.00139875
0.00141024
0.00142197
0.00143375
0.00144537
0.00145667
0.00146737
0.00147712
0.00148553
0.00149213
0.00149637
0.00149763
0.00149522
0.00148843
0.00147644
0.0014584
0.00143336
0.00140037
0.00135847
0.00130675
0.00124492
0.00117428
0.00109625
0.00101349
0.00092939
0.000847728
0.000772008
0.000704923
0.000647947
0.000601154
0.000562966
0.000530035
0.000497662
0.000459671
0.000407302
0.000328262
0.000230579
0.000460784
0.000439267
0.00042287
0.000410804
0.00040171
0.000394262
0.000387789
0.000381919
0.000376462
0.000371299
0.000366381
0.00036168
0.000357179
0.000352865
0.000348726
0.000344754
0.000340939
0.000337276
0.000333758
0.000330376
0.000327125
0.000323997
0.000320988
0.000318091
0.000315321
0.00031268
0.000310119
0.000307635
0.000305224
0.000302883
0.000300609
0.000298396
0.000296241
0.000294139
0.000292084
0.00029007
0.000288091
0.000286139
0.000284206
0.000282281
0.000280354
0.000278413
0.000276442
0.000274426
0.000272346
0.000270179
0.000267902
0.000265487
0.000262901
0.000260108
0.000257069
0.000253739
0.000250071
0.000246018
0.000241533
0.000236575
0.000231119
0.000225163
0.00021875
0.000211976
0.00020502
0.000198143
0.000191684
0.000186005
0.000181416
0.000178087
0.00017601
0.000175026
0.000174897
0.000175375
0.000176244
0.000177321
0.000178445
0.000179445
0.00018011
0.000180125
0.000178993
0.000175891
0.000169372
0.000157765
0.00222872
0.00217164
0.00200891
0.00183062
0.00169242
0.00159198
0.00151595
0.00145481
0.00140295
0.00136069
0.00132567
0.00129538
0.00126815
0.00124284
0.00121861
0.00119479
0.00117192
0.00115078
0.00113136
0.00111363
0.00109755
0.00108301
0.00106994
0.00105822
0.00104775
0.00103903
0.0010318
0.0010259
0.00102127
0.00101783
0.00101552
0.00101426
0.00101399
0.00101462
0.00101611
0.00101836
0.0010213
0.00102485
0.00102892
0.00103343
0.00103825
0.00104328
0.00104837
0.00105337
0.00105809
0.00106233
0.00106584
0.00106834
0.00106949
0.00106891
0.00106618
0.00106081
0.00105226
0.00103997
0.00102335
0.00100184
0.000974971
0.000942413
0.000904085
0.000860269
0.00081173
0.000759815
0.00070648
0.000654178
0.000605589
0.000563187
0.000528762
0.000503077
0.000485791
0.000475705
0.000471135
0.000470231
0.000471075
0.000471566
0.000469096
0.000459973
0.000438492
0.000395922
0.000318571
0.00019177
0.00268411
0.00308855
0.00324911
0.00318756
0.0030629
0.00295485
0.00286592
0.00278846
0.0027201
0.00265763
0.00259902
0.00254286
0.0024883
0.00243526
0.00238383
0.00233402
0.00228567
0.00223874
0.00219315
0.00214934
0.00210781
0.00206864
0.00203184
0.00199741
0.00196535
0.00193564
0.00190824
0.0018831
0.00186016
0.00183935
0.0018206
0.00180383
0.00178895
0.00177587
0.0017645
0.00175473
0.00174644
0.00173952
0.00173383
0.00172924
0.00172557
0.00172264
0.00172027
0.00171821
0.00171622
0.00171398
0.00171116
0.00170737
0.00170216
0.00169504
0.00168544
0.00167272
0.0016562
0.00163515
0.00160879
0.00157638
0.0015372
0.00149067
0.00143643
0.00137439
0.0013049
0.00122892
0.0011481
0.00106484
0.00098223
0.00090372
0.000832679
0.000771819
0.00072266
0.000685265
0.000658353
0.000639667
0.000626327
0.000614929
0.00060129
0.000579764
0.000541903
0.000475163
0.000362909
0.000207873
0.00238742
0.00314639
0.003512
0.00361362
0.00357989
0.0035311
0.00348698
0.00344373
0.00339763
0.00334766
0.00329417
0.00323804
0.00318024
0.00312165
0.00306301
0.00300492
0.00294782
0.00289208
0.002838
0.00278583
0.00273576
0.0026879
0.00264234
0.00259916
0.00255838
0.00252003
0.00248412
0.00245065
0.00241959
0.00239091
0.00236456
0.0023405
0.00231866
0.00229897
0.00228135
0.0022657
0.00225193
0.00223992
0.00222954
0.00222067
0.00221315
0.0022068
0.00220143
0.00219681
0.00219268
0.00218875
0.00218467
0.00218003
0.00217436
0.00216712
0.00215772
0.00214546
0.00212959
0.00210927
0.00208364
0.00205176
0.0020127
0.00196558
0.00190966
0.00184425
0.00176897
0.00168394
0.0015899
0.00148852
0.00138257
0.00127562
0.00117188
0.00107563
0.000990485
0.000918745
0.000860952
0.000815898
0.000780863
0.000751817
0.000723322
0.000687979
0.000634768
0.0005468
0.000402099
0.00022019
0.00171695
0.0032559
0.00357835
0.00372262
0.00375406
0.00376872
0.00378123
0.00378464
0.00377504
0.0037527
0.00371963
0.00367826
0.0036308
0.0035791
0.00352466
0.00346862
0.00341188
0.00335512
0.0032989
0.00324364
0.00318967
0.00313726
0.00308664
0.00303799
0.00299145
0.00294716
0.0029052
0.00286565
0.00282857
0.00279399
0.00276193
0.00273238
0.00270532
0.00268073
0.00265854
0.00263869
0.00262109
0.00260565
0.00259227
0.0025808
0.00257112
0.00256305
0.00255643
0.00255103
0.00254664
0.00254299
0.00253977
0.0025366
0.00253302
0.00252848
0.0025224
0.00251416
0.00250277
0.00248737
0.00246703
0.00244076
0.00240749
0.00236624
0.00231622
0.00225613
0.00218493
0.00210184
0.0020064
0.00189892
0.00178141
0.00165673
0.00152903
0.00140338
0.00128502
0.00117841
0.00108644
0.00100997
0.00094762
0.000895738
0.00084827
0.000796438
0.000727018
0.000618869
0.00044267
0.000230476
0.000514511
0.000486284
0.000464237
0.000447907
0.000435857
0.000426215
0.000417997
0.000410621
0.000403796
0.000397359
0.000391224
0.000385347
0.000379704
0.000374284
0.000369079
0.000364086
0.0003593
0.000354716
0.000350328
0.000346128
0.000342109
0.00033826
0.000334573
0.000331037
0.00032764
0.000324384
0.000321303
0.000318351
0.000315494
0.000312727
0.000310042
0.000307434
0.000304896
0.000302421
0.000300002
0.00029763
0.000295297
0.000292994
0.000290709
0.00028843
0.000286143
0.000283834
0.000281484
0.000279073
0.000276579
0.000273976
0.000271235
0.000268325
0.000265209
0.000261847
0.000258197
0.000254214
0.000249852
0.000245069
0.000239831
0.00023412
0.000227942
0.000221346
0.000214435
0.000207384
0.000200446
0.000193938
0.000188201
0.000183529
0.000180094
0.000177904
0.000176823
0.000176632
0.0001771
0.000178017
0.000179212
0.000180533
0.00018183
0.000182924
0.000183571
0.000183402
0.000181842
0.000177978
0.00017026
0.000157203
0.00297798
0.00294826
0.00276314
0.00254185
0.00236717
0.00224188
0.00214918
0.0020757
0.00201384
0.00195931
0.00190964
0.0018634
0.00181973
0.00177813
0.0017383
0.00170015
0.00166365
0.00162883
0.0015957
0.00156431
0.00153468
0.00150684
0.00148079
0.00145652
0.00143402
0.00141324
0.00139445
0.0013775
0.00136234
0.00134893
0.00133721
0.00132709
0.0013185
0.00131133
0.00130551
0.00130093
0.00129747
0.00129502
0.00129345
0.00129262
0.00129237
0.00129252
0.00129289
0.00129323
0.00129329
0.00129277
0.00129132
0.00128855
0.00128401
0.00127718
0.00126751
0.00125437
0.00123708
0.00121497
0.00118736
0.00115369
0.00111356
0.00106686
0.00101392
0.000955616
0.000893501
0.000829838
0.000767477
0.00070955
0.000659
0.000617998
0.000587473
0.000567104
0.000555588
0.000551107
0.0005516
0.000554937
0.000558858
0.000560708
0.000556981
0.000542637
0.000510151
0.000448983
0.000344793
0.000189591
0.0035238
0.00416424
0.00444252
0.00438972
0.00422845
0.00408789
0.00397888
0.00388987
0.00381125
0.00373777
0.00366679
0.0035974
0.00352937
0.00346241
0.00339635
0.00333124
0.0032674
0.00320499
0.00314419
0.00308515
0.00302801
0.00297286
0.00291978
0.00286882
0.00282003
0.00277344
0.00272907
0.00268692
0.00264698
0.00260923
0.00257362
0.00254011
0.00250863
0.00247912
0.00245149
0.00242565
0.00240151
0.00237894
0.0023578
0.00233794
0.00231919
0.00230132
0.00228411
0.00226724
0.00225041
0.0022332
0.00221517
0.0021958
0.00217449
0.00215059
0.00212336
0.00209201
0.00205571
0.00201359
0.00196481
0.00190858
0.00184428
0.00177155
0.00169042
0.00160147
0.00150597
0.00140593
0.0013042
0.00120426
0.00111004
0.00102529
0.000953007
0.000894856
0.000850916
0.000819786
0.000798983
0.000785357
0.000775277
0.000764453
0.000747367
0.000716313
0.000659899
0.000562496
0.000406696
0.000205253
0.00300032
0.00421948
0.00489384
0.00513911
0.00511007
0.00503155
0.00496167
0.00489957
0.00483795
0.00477339
0.00470506
0.00463341
0.00455923
0.0044834
0.00440667
0.00432972
0.00425312
0.00417733
0.00410272
0.0040296
0.00395821
0.00388876
0.00382139
0.00375624
0.00369341
0.00363296
0.00357497
0.00351945
0.00346641
0.00341586
0.00336777
0.0033221
0.00327879
0.00323777
0.00319897
0.00316229
0.00312764
0.00309488
0.0030639
0.00303456
0.00300667
0.00298007
0.00295452
0.00292979
0.00290556
0.00288148
0.00285715
0.00283206
0.0028056
0.00277708
0.00274573
0.00271069
0.00267109
0.002626
0.00257441
0.00251528
0.00244764
0.00237063
0.00228361
0.00218641
0.00207931
0.00196333
0.0018404
0.00171351
0.00158669
0.00146456
0.00135176
0.00125226
0.00116858
0.00110139
0.00104944
0.0010099
0.000978653
0.000950264
0.000917524
0.00087033
0.000793547
0.000665457
0.000462442
0.000217745
0.00204763
0.00426669
0.00498668
0.00538871
0.00548997
0.0054988
0.0054952
0.00548419
0.00546077
0.00542371
0.00537434
0.005315
0.00524801
0.00517544
0.00509896
0.00501994
0.00493941
0.00485823
0.00477707
0.00469644
0.00461679
0.00453848
0.0044618
0.00438701
0.00431431
0.00424388
0.00417589
0.00411043
0.00404761
0.0039875
0.00393012
0.0038755
0.00382362
0.00377445
0.00372794
0.00368401
0.00364257
0.00360352
0.00356674
0.00353207
0.00349938
0.00346847
0.00343917
0.00341123
0.00338441
0.00335842
0.00333292
0.00330756
0.00328173
0.00325475
0.00322574
0.00319358
0.00315759
0.00311684
0.00307027
0.00301674
0.00295504
0.00288391
0.00280214
0.00270903
0.0026039
0.00248658
0.00235761
0.00221852
0.0020726
0.00192426
0.00177889
0.00164213
0.00151885
0.00141229
0.00132351
0.00125125
0.00119205
0.00114019
0.00108735
0.00102144
0.00092405
0.000767276
0.000518697
0.000228494
0.000564231
0.000532173
0.000507325
0.000488821
0.000475333
0.000464646
0.00045558
0.00044739
0.000439721
0.000432373
0.000425245
0.000418289
0.000411487
0.000404835
0.000398338
0.000392005
0.000385845
0.000379865
0.000374074
0.000368475
0.000363072
0.000357866
0.000352858
0.000348046
0.000343428
0.000338998
0.00033475
0.000330709
0.000326891
0.000323259
0.000319745
0.000316339
0.000313029
0.000309804
0.000306654
0.000303567
0.00030053
0.000297531
0.000294555
0.000291586
0.000288608
0.000285601
0.000282545
0.000279416
0.000276187
0.000272831
0.000269315
0.000265605
0.000261666
0.000257458
0.000252944
0.000248088
0.000242859
0.000237237
0.000231223
0.000224845
0.00021817
0.000211318
0.00020447
0.000197863
0.000191776
0.000186494
0.000182252
0.00017918
0.000177171
0.000176079
0.000175757
0.000176055
0.000176867
0.000177982
0.000179273
0.000180625
0.000181897
0.000182908
0.000183396
0.00018297
0.000181031
0.000176662
0.000168371
0.000154953
0.00350554
0.00350392
0.00332115
0.00308845
0.0029032
0.00277122
0.002675
0.00259849
0.00253328
0.00247478
0.00242043
0.00236881
0.00231914
0.00227095
0.002224
0.00217813
0.00213328
0.00208944
0.00204664
0.00200495
0.0019645
0.00192543
0.0018878
0.00185165
0.00181704
0.00178398
0.00175247
0.00172269
0.00169465
0.00166837
0.00164388
0.00162115
0.00160012
0.00158074
0.00156292
0.00154657
0.00153156
0.00151778
0.00150508
0.00149329
0.00148224
0.00147173
0.00146156
0.00145147
0.00144115
0.0014302
0.00141822
0.0014047
0.0013891
0.00137078
0.00134909
0.00132331
0.00129272
0.00125665
0.00121453
0.00116607
0.00111136
0.00105106
0.00098636
0.000919075
0.000851595
0.000786682
0.000727242
0.000675695
0.000634718
0.000606478
0.000589865
0.000582488
0.000580879
0.000584099
0.000590543
0.000598174
0.000604716
0.000607309
0.000602001
0.000583144
0.00054264
0.000469979
0.000351988
0.000185219
0.00412238
0.00493064
0.00529062
0.00524345
0.00506824
0.00491792
0.00480526
0.00471524
0.00463576
0.00456055
0.00448674
0.00441319
0.00433956
0.00426583
0.00419217
0.00411882
0.00404602
0.00397402
0.00390305
0.00383333
0.00376507
0.00369843
0.00363357
0.00357057
0.00350952
0.00345047
0.00339348
0.00333854
0.00328566
0.00323481
0.00318593
0.00313895
0.0030938
0.00305037
0.00300853
0.00296817
0.00292914
0.00289129
0.00285446
0.00281845
0.00278309
0.00274815
0.00271337
0.00267846
0.00264307
0.00260677
0.00256907
0.00252942
0.00248714
0.00244149
0.00239165
0.00233672
0.00227582
0.00220805
0.00213266
0.00204911
0.00195716
0.00185707
0.00174974
0.00163691
0.00152132
0.0014067
0.00129714
0.00119658
0.00110852
0.00103542
0.000978129
0.00093598
0.000907065
0.00088875
0.00087793
0.000871202
0.000864731
0.000853972
0.000832826
0.000792747
0.000721558
0.000603913
0.00042463
0.000200272
0.00340468
0.00495608
0.00588935
0.00624455
0.00621974
0.0061256
0.00604523
0.00597755
0.00591201
0.00584326
0.00576963
0.00569127
0.00560899
0.00552374
0.00543645
0.00534793
0.00525886
0.00516982
0.00508131
0.00499373
0.00490742
0.00482268
0.00473973
0.00465879
0.00458001
0.00450351
0.00442939
0.00435771
0.0042885
0.00422175
0.00415745
0.00409553
0.0040359
0.00397846
0.00392309
0.00386961
0.00381788
0.0037677
0.00371887
0.00367119
0.00362444
0.00357836
0.00353271
0.00348718
0.00344148
0.00339523
0.00334803
0.00329937
0.00324868
0.00319524
0.00313823
0.00307673
0.00300979
0.00293636
0.00285543
0.00276597
0.00266709
0.00255816
0.00243897
0.00231005
0.0021729
0.00203008
0.00188532
0.00174361
0.00161052
0.0014909
0.001388
0.00130358
0.00123738
0.00118744
0.00115053
0.00112246
0.00109824
0.00107187
0.00103529
0.000977177
0.000881119
0.000725588
0.000490463
0.000212906
0.00233546
0.00492309
0.00598323
0.00663073
0.00679286
0.0067953
0.00677982
0.00676074
0.00673099
0.0066873
0.00663006
0.00656127
0.00648329
0.00639827
0.00630808
0.00621422
0.00611792
0.00602015
0.00592171
0.00582325
0.00572531
0.00562833
0.00553271
0.00543876
0.00534676
0.00525695
0.00516954
0.00508467
0.00500249
0.00492306
0.00484645
0.00477266
0.00470167
0.00463343
0.00456783
0.00450477
0.00444408
0.00438559
0.00432911
0.00427441
0.00422127
0.00416943
0.00411863
0.00406858
0.00401899
0.00396953
0.00391987
0.00386963
0.00381841
0.00376552
0.00371006
0.00365116
0.00358784
0.00351902
0.00344355
0.0033602
0.00326776
0.00316501
0.00305082
0.00292444
0.00278596
0.00263617
0.00247706
0.00231222
0.00214704
0.00198781
0.00184116
0.00171206
0.00160302
0.00151407
0.001443
0.00138571
0.00133702
0.00128977
0.00123418
0.00115643
0.0010361
0.000845039
0.000555726
0.000224145
0.000390543
0.000421419
0.000444381
0.000452148
0.000432819
0.000420304
0.000452495
0.000476777
0.000484583
0.000456693
0.000435318
0.000473656
0.000501245
0.000510734
0.00047608
0.000442497
0.000487959
0.000519514
0.000530263
0.000490404
0.000444131
0.00049804
0.000533808
0.000544533
0.000499036
0.000441518
0.000505221
0.000545032
0.000554286
0.000501814
0.000436053
0.000509965
0.000553246
0.000560083
0.000501471
0.000428845
0.000512126
0.000557891
0.000562659
0.000509099
0.000420827
0.000511081
0.000558074
0.000562873
0.00053497
0.000412859
0.000505134
0.000553576
0.000563891
0.000555057
0.000423674
0.000800085
0.00100359
0.00100574
0.00052131
0.000463029
0.000919149
0.00113307
0.00111857
0.000533059
0.000490573
0.00103529
0.00126449
0.00124708
0.000553616
0.000505538
0.00113851
0.00137297
0.00134892
0.000575209
0.000513072
0.00123327
0.00145454
0.00140516
0.000587722
0.000516027
0.00132517
0.00151798
0.00141731
0.000587639
0.000515198
0.00141402
0.00157165
0.00138772
0.000576769
0.00051184
0.00149624
0.0016249
0.00134969
0.000588248
0.000507004
0.00155869
0.00168177
0.00134128
0.000666248
0.000498982
0.00159186
0.00177701
0.00146758
0.000735718
0.000449772
0.000996472
0.00131033
0.00132584
0.000580374
0.000489585
0.00118156
0.00154583
0.00153639
0.000593253
0.000525937
0.00137887
0.00177146
0.00173704
0.000616223
0.000549012
0.00155526
0.00194696
0.00188113
0.00064264
0.000562426
0.00172132
0.00207148
0.00194406
0.000656275
0.000570104
0.00188761
0.00216456
0.00193548
0.000651992
0.000573881
0.00205269
0.00224374
0.00186502
0.000630455
0.000574559
0.0022061
0.00232634
0.0017864
0.000639484
0.000573097
0.00232059
0.00242014
0.00176234
0.000748046
0.000563159
0.00241576
0.00261254
0.00198083
0.00084525
0.00047025
0.00112204
0.00152619
0.0015645
0.000626577
0.000505354
0.00135657
0.00184023
0.0018545
0.000645662
0.000543956
0.00160664
0.00212315
0.0021018
0.00067209
0.000570745
0.00182555
0.00232722
0.00225473
0.000700369
0.00058831
0.00203037
0.00245975
0.00229151
0.000710882
0.000599508
0.0022373