/*--------------------------------*- C++ -*----------------------------------*\
| =========                 |                                                 |
| \\      /  F ield         | OpenFOAM: The Open Source CFD Toolbox           |
|  \\    /   O peration     | Version:  v1912                                 |
|   \\  /    A nd           | Website:  www.openfoam.com                      |
|    \\/     M anipulation  |                                                 |
\*---------------------------------------------------------------------------*/
FoamFile
{
    version     2.0;
    format      ascii;
    class       volScalarField;
    location    "935";
    object      epsilon;
}
// * * * * * * * * * * * * * * * * * * * * * * * * * * * * * * * * * * * * * //

dimensions      [0 2 -3 0 0 0 0];


internalField   nonuniform List<scalar> 
104000
(
0.000232449
0.000293684
0.000332626
0.000354664
0.000366729
0.000258437
0.000318112
0.000352003
0.0003704
0.000380169
0.00027883
0.000338912
0.00037118
0.000388621
0.000398174
0.000293357
0.000352345
0.000387941
0.00040827
0.000420562
0.000258947
0.000289017
0.000344511
0.000375873
0.00039155
0.000235952
0.000306961
0.00036131
0.000400993
0.000429127
0.00035594
0.000385934
0.000346935
0.000312901
0.000296803
0.000424712
0.000429448
0.00037885
0.000333385
0.000306245
0.000465348
0.000521196
0.0005433
0.000512782
0.000478415
0.000364813
0.000543899
0.000837766
0.000863081
0.000758573
0.000247688
0.000323697
0.000391132
0.000453327
0.000507872
0.000445712
0.000434934
0.000404407
0.000386773
0.000389015
0.000565397
0.000503354
0.000461169
0.000430093
0.000419127
0.000626852
0.000642998
0.000724725
0.000727796
0.000705856
0.000457075
0.000628946
0.00101943
0.00106772
0.000948578
0.000265205
0.000339909
0.000413256
0.000489021
0.000566116
0.000524414
0.000470415
0.000461055
0.000465338
0.000486882
0.000695507
0.000563469
0.000552706
0.000550442
0.000560477
0.000765277
0.000728821
0.000898412
0.000977733
0.000991627
0.000533209
0.000643767
0.00107521
0.00116678
0.00109143
0.000286904
0.000362851
0.000438377
0.000517961
0.000609099
0.000592928
0.000498153
0.000516842
0.000546287
0.000589369
0.00081628
0.000620738
0.000660385
0.000702319
0.000748311
0.000880738
0.000790705
0.00105336
0.00126507
0.00140321
0.000597659
0.0006335
0.00109196
0.00124414
0.00126625
0.000371332
0.000368775
0.000360391
0.000347674
0.000332082
0.00031493
0.000297269
0.000279867
0.000263235
0.000247669
0.000383279
0.000381264
0.000373442
0.00036107
0.000345412
0.000327655
0.000308763
0.000289465
0.000270306
0.000251701
0.000401421
0.000399905
0.000394555
0.000386525
0.000376718
0.000365152
0.000352165
0.000338128
0.000322943
0.000305473
0.000427384
0.000430395
0.000429999
0.000427084
0.00042202
0.000414864
0.000405447
0.000393284
0.00037771
0.0003579
0.000401317
0.000405115
0.000404575
0.000400929
0.000395377
0.000389098
0.000383306
0.000378724
0.000375106
0.000367276
0.00044665
0.000454538
0.00045126
0.000438287
0.000417768
0.000392176
0.000363886
0.000334933
0.000306863
0.000280707
0.000286431
0.000277358
0.000265812
0.000249492
0.00022965
0.000208235
0.000187201
0.000168079
0.000151472
0.000136551
0.000286885
0.00027331
0.000264315
0.00025908
0.00025743
0.000259022
0.000263532
0.000270125
0.000277026
0.000281481
0.000451519
0.000444887
0.000449028
0.000461909
0.000480267
0.000502027
0.000525919
0.000552792
0.000579924
0.000596544
0.000536865
0.000555811
0.000575437
0.0005957
0.000620847
0.000658693
0.000722371
0.000828841
0.000986813
0.00116346
0.000548396
0.000576261
0.000589336
0.000587565
0.000572433
0.000546618
0.000513219
0.000475303
0.000435593
0.000396352
0.000392428
0.000390278
0.000381488
0.000367938
0.000348569
0.000325601
0.000301558
0.000278352
0.000256583
0.000234669
0.000413315
0.000410029
0.000408544
0.000408833
0.000411045
0.000415569
0.000422274
0.000429931
0.000435985
0.000431681
0.000679413
0.000676027
0.000683447
0.000698023
0.00071688
0.000739953
0.000769276
0.000809332
0.000857876
0.000879553
0.00071195
0.000755582
0.000794883
0.000831883
0.000875682
0.000942945
0.00106184
0.00127004
0.001593
0.00196692
0.000633683
0.000683797
0.000719017
0.00073594
0.000735233
0.000718832
0.000689733
0.000651285
0.000606761
0.000557607
0.00050612
0.000515106
0.000512782
0.0005025
0.000486341
0.000464615
0.00043957
0.000412929
0.000385097
0.000350169
0.000568456
0.000571807
0.000572682
0.000573135
0.000575555
0.000580816
0.000588345
0.000595426
0.000597468
0.000576946
0.00096479
0.000949829
0.000943322
0.000939974
0.000942532
0.000955944
0.000987118
0.00104173
0.00110741
0.00112686
0.000909298
0.000978824
0.00102874
0.00106705
0.00111253
0.00119417
0.00135743
0.00165977
0.00212738
0.00268099
0.000697547
0.000771789
0.000826012
0.000863063
0.000880215
0.000878561
0.000861028
0.000831885
0.000795007
0.000735479
0.000628219
0.000652225
0.000659671
0.00065245
0.000637397
0.000617592
0.00059345
0.00056607
0.000533227
0.000482199
0.000783788
0.000796919
0.000797769
0.000789553
0.000782662
0.000781141
0.00078505
0.000789865
0.000783927
0.000746463
0.00146244
0.00144379
0.00140234
0.00132815
0.00125567
0.00120674
0.0012037
0.00125871
0.00134546
0.00139599
0.00115578
0.00125024
0.00129863
0.0013138
0.00133954
0.00142821
0.00165293
0.002095
0.00274116
0.00356086
0.000233426
0.000220118
0.000209057
0.000199604
0.000191391
0.000184086
0.000177487
0.000171439
0.000165833
0.000160587
0.000155646
0.000150967
0.000146521
0.000142284
0.000138236
0.000134361
0.000130647
0.00012708
0.000123641
0.000120317
0.000117099
0.000113975
0.000110937
0.000107987
0.00010512
0.000102334
9.96238e-05
9.69853e-05
9.44151e-05
9.19098e-05
8.9466e-05
8.70805e-05
8.475e-05
8.24714e-05
8.02413e-05
7.80564e-05
7.59134e-05
7.38087e-05
7.17386e-05
6.96995e-05
6.76873e-05
6.5698e-05
6.37271e-05
6.17699e-05
5.98216e-05
5.78769e-05
5.59304e-05
5.39763e-05
5.20085e-05
5.00208e-05
4.80068e-05
4.596e-05
4.38744e-05
4.17445e-05
3.9566e-05
3.73368e-05
3.50579e-05
3.27356e-05
3.03834e-05
2.80245e-05
2.56946e-05
2.34435e-05
2.13337e-05
1.94355e-05
1.78164e-05
1.65257e-05
1.55808e-05
1.49611e-05
1.46147e-05
1.44733e-05
1.44682e-05
1.45398e-05
1.46402e-05
1.47312e-05
1.47776e-05
1.47386e-05
1.4558e-05
1.41514e-05
1.33923e-05
1.21931e-05
0.000234215
0.000215735
0.000201851
0.000191323
0.000183199
0.000176584
0.000170947
0.000165914
0.000161342
0.000157136
0.000153229
0.000149573
0.000146132
0.000142875
0.000139779
0.000136817
0.000133939
0.00013113
0.000128386
0.000125698
0.000123059
0.000120465
0.000117909
0.000115385
0.000112935
0.000110566
0.000108274
0.000106056
0.000103909
0.000101829
9.98132e-05
9.78585e-05
9.59616e-05
9.41192e-05
9.23277e-05
9.05834e-05
8.88824e-05
8.72204e-05
8.55929e-05
8.3995e-05
8.24213e-05
8.08659e-05
7.93223e-05
7.77832e-05
7.62406e-05
7.46859e-05
7.31092e-05
7.15e-05
6.98464e-05
6.81358e-05
6.63542e-05
6.44869e-05
6.25185e-05
6.04329e-05
5.82144e-05
5.58485e-05
5.33227e-05
5.06292e-05
4.77667e-05
4.47443e-05
4.15852e-05
3.83304e-05
3.50415e-05
3.18021e-05
2.87164e-05
2.59027e-05
2.34766e-05
2.15307e-05
2.01132e-05
1.9217e-05
1.87842e-05
1.87248e-05
1.89399e-05
1.93392e-05
1.98412e-05
2.03551e-05
2.07588e-05
2.08745e-05
2.04207e-05
1.86651e-05
0.000284652
0.000254824
0.000232968
0.00021776
0.000206605
0.000197726
0.000190357
0.000184069
0.000178527
0.000173519
0.000168903
0.000164596
0.000160528
0.000156656
0.000152945
0.000149376
0.000145967
0.000142704
0.000139576
0.00013657
0.000133687
0.000130925
0.000128279
0.000125744
0.000123316
0.000120989
0.000118761
0.000116625
0.00011458
0.00011262
0.000110742
0.000108943
0.000107218
0.000105565
0.000103978
0.000102455
0.00010099
9.958e-05
9.82188e-05
9.69013e-05
9.56216e-05
9.43728e-05
9.31473e-05
9.19367e-05
9.07312e-05
8.952e-05
8.8291e-05
8.70303e-05
8.57227e-05
8.43511e-05
8.28963e-05
8.13373e-05
7.96512e-05
7.78132e-05
7.57975e-05
7.35777e-05
7.11283e-05
6.8426e-05
6.54533e-05
6.22018e-05
5.86776e-05
5.4906e-05
5.09353e-05
4.68386e-05
4.2714e-05
3.86907e-05
3.49179e-05
3.1552e-05
2.87374e-05
2.65808e-05
2.51247e-05
2.4336e-05
2.41151e-05
2.43373e-05
2.48789e-05
2.55975e-05
2.62994e-05
2.67179e-05
2.64423e-05
2.45019e-05
0.000331298
0.000296628
0.000265924
0.000246362
0.000232882
0.000222426
0.000213749
0.000206179
0.000199381
0.000193153
0.000187383
0.000181981
0.000176902
0.000172111
0.00016758
0.00016329
0.000159224
0.000155367
0.000151709
0.000148238
0.000144945
0.000141821
0.000138858
0.000136049
0.000133386
0.000130864
0.000128477
0.000126218
0.000124082
0.000122064
0.000120159
0.000118362
0.000116669
0.000115075
0.000113576
0.000112166
0.000110841
0.000109595
0.000108425
0.000107324
0.000106285
0.000105302
0.000104366
0.000103469
0.0001026
0.000101746
0.000100894
0.000100028
9.91284e-05
9.81763e-05
9.71486e-05
9.60193e-05
9.47591e-05
9.33356e-05
9.17134e-05
8.98547e-05
8.77207e-05
8.52725e-05
8.24742e-05
7.92978e-05
7.57294e-05
7.17774e-05
6.74788e-05
6.28983e-05
5.81133e-05
5.32504e-05
4.84624e-05
4.39254e-05
3.98275e-05
3.6353e-05
3.36493e-05
3.17888e-05
3.07291e-05
3.035e-05
3.05089e-05
3.10228e-05
3.16362e-05
3.20182e-05
3.168e-05
2.95074e-05
0.000344438
0.000329128
0.00029466
0.000273446
0.000259165
0.000247946
0.000238401
0.000229845
0.000221981
0.000214643
0.000207745
0.000201232
0.000195072
0.00018924
0.000183718
0.00017849
0.000173544
0.000168866
0.000164446
0.000160272
0.000156334
0.000152623
0.000149128
0.000145842
0.000142754
0.000139858
0.000137144
0.000134606
0.000132236
0.000130026
0.000127971
0.000126064
0.000124298
0.000122669
0.000121169
0.000119794
0.000118538
0.000117396
0.000116362
0.00011543
0.000114595
0.000113851
0.000113188
0.0001126
0.000112076
0.000111602
0.000111165
0.000110744
0.000110317
0.000109862
0.000109354
0.000108762
0.000108053
0.000107186
0.000106117
0.000104795
0.000103168
0.000101179
9.87717e-05
9.58936e-05
9.2506e-05
8.85967e-05
8.41977e-05
7.93914e-05
7.42081e-05
6.87789e-05
6.32497e-05
5.7798e-05
5.26213e-05
4.79405e-05
4.39741e-05
4.08997e-05
3.87621e-05
3.74786e-05
3.69156e-05
3.68697e-05
3.70462e-05
3.70852e-05
3.64702e-05
3.39958e-05
0.000257199
0.000234572
0.000218367
0.000206374
0.000196737
0.000188343
0.000180684
0.000173716
0.000167294
0.000161311
0.000155697
0.000150404
0.000145391
0.000140628
0.00013609
0.000131755
0.000127604
0.000123664
0.000119946
0.00011644
0.000113136
0.000110027
0.000107101
0.000104345
0.000101736
9.92386e-05
9.68458e-05
9.4551e-05
9.23484e-05
9.02322e-05
8.81971e-05
8.62378e-05
8.43489e-05
8.25252e-05
8.07614e-05
7.9052e-05
7.73916e-05
7.57745e-05
7.41946e-05
7.26456e-05
7.11209e-05
6.96131e-05
6.81144e-05
6.66162e-05
6.51091e-05
6.35828e-05
6.20261e-05
6.04266e-05
5.87709e-05
5.70446e-05
5.52324e-05
5.33187e-05
5.12881e-05
4.91263e-05
4.68217e-05
4.43675e-05
4.17644e-05
3.9024e-05
3.61731e-05
3.32579e-05
3.03467e-05
2.75292e-05
2.4911e-05
2.25989e-05
2.06816e-05
1.92093e-05
1.81821e-05
1.75537e-05
1.72485e-05
1.7182e-05
1.72767e-05
1.74674e-05
1.77002e-05
1.7926e-05
1.80913e-05
1.81233e-05
1.79096e-05
1.72698e-05
1.59033e-05
1.34917e-05
0.000119212
8.84018e-05
7.0953e-05
6.20214e-05
5.67824e-05
5.33804e-05
5.09554e-05
4.87738e-05
4.67328e-05
4.48264e-05
4.30648e-05
4.14648e-05
4.0039e-05
3.87929e-05
3.77316e-05
3.68607e-05
3.61876e-05
3.56481e-05
3.52026e-05
3.48476e-05
3.45815e-05
3.44051e-05
3.43228e-05
3.43416e-05
3.43848e-05
3.44365e-05
3.4497e-05
3.45662e-05
3.4644e-05
3.47303e-05
3.48247e-05
3.49267e-05
3.5036e-05
3.51518e-05
3.52734e-05
3.53999e-05
3.55301e-05
3.56628e-05
3.57963e-05
3.59289e-05
3.60582e-05
3.61817e-05
3.6296e-05
3.63976e-05
3.64819e-05
3.65439e-05
3.65775e-05
3.65755e-05
3.65297e-05
3.64306e-05
3.62673e-05
3.60275e-05
3.56976e-05
3.5263e-05
3.4708e-05
3.40171e-05
3.31757e-05
3.21714e-05
3.09964e-05
2.96501e-05
2.81422e-05
2.64956e-05
2.47494e-05
2.29612e-05
2.12065e-05
1.9574e-05
1.8153e-05
1.70161e-05
1.62043e-05
1.57211e-05
1.55394e-05
1.56161e-05
1.5903e-05
1.63556e-05
1.69332e-05
1.75871e-05
1.82381e-05
1.87846e-05
1.90475e-05
1.94244e-05
0.000261434
0.00016033
0.000101454
7.78711e-05
6.61412e-05
5.95515e-05
5.52133e-05
5.20786e-05
4.96225e-05
4.7608e-05
4.59066e-05
4.44404e-05
4.31608e-05
4.20394e-05
4.10566e-05
4.01978e-05
3.94529e-05
3.88139e-05
3.82769e-05
3.78418e-05
3.74833e-05
3.71746e-05
3.69123e-05
3.66937e-05
3.65156e-05
3.63766e-05
3.62752e-05
3.62102e-05
3.61803e-05
3.6184e-05
3.622e-05
3.62868e-05
3.6383e-05
3.65071e-05
3.66573e-05
3.68321e-05
3.70297e-05
3.72483e-05
3.74857e-05
3.77399e-05
3.80082e-05
3.82879e-05
3.85758e-05
3.88683e-05
3.91612e-05
3.94499e-05
3.97288e-05
3.99915e-05
4.02306e-05
4.04373e-05
4.06018e-05
4.07124e-05
4.0756e-05
4.07175e-05
4.05802e-05
4.03257e-05
3.99341e-05
3.9385e-05
3.8658e-05
3.77348e-05
3.66009e-05
3.52481e-05
3.36781e-05
3.19072e-05
2.99733e-05
2.79439e-05
2.59155e-05
2.40062e-05
2.23376e-05
2.10081e-05
2.00696e-05
1.95189e-05
1.93022e-05
1.93404e-05
1.95501e-05
1.98386e-05
2.00915e-05
2.0265e-05
2.06913e-05
2.49063e-05
0.000539032
0.000312428
0.000165817
0.000115822
9.41537e-05
8.25844e-05
7.52317e-05
7.00484e-05
6.60952e-05
6.29159e-05
6.02552e-05
5.79646e-05
5.59517e-05
5.4157e-05
5.25404e-05
5.10743e-05
4.97393e-05
4.85211e-05
4.74095e-05
4.63961e-05
4.54744e-05
4.46392e-05
4.38866e-05
4.32133e-05
4.26166e-05
4.20936e-05
4.16419e-05
4.12589e-05
4.09422e-05
4.06893e-05
4.04976e-05
4.03648e-05
4.02884e-05
4.02658e-05
4.02944e-05
4.03718e-05
4.04954e-05
4.06625e-05
4.08704e-05
4.11162e-05
4.13969e-05
4.17093e-05
4.20496e-05
4.24141e-05
4.27982e-05
4.31969e-05
4.36046e-05
4.40149e-05
4.44203e-05
4.48127e-05
4.51829e-05
4.552e-05
4.58116e-05
4.60432e-05
4.61984e-05
4.62584e-05
4.62019e-05
4.60054e-05
4.5644e-05
4.50923e-05
4.43253e-05
4.33204e-05
4.20588e-05
4.0528e-05
3.87265e-05
3.6681e-05
3.44502e-05
3.21323e-05
2.98619e-05
2.7791e-05
2.6055e-05
2.47341e-05
2.38187e-05
2.32311e-05
2.28649e-05
2.25876e-05
2.22333e-05
2.17542e-05
2.18926e-05
2.95784e-05
0.000758682
0.00053749
0.000244653
0.000157314
0.000124026
0.000107581
9.74955e-05
9.04173e-05
8.49565e-05
8.04834e-05
7.66645e-05
7.33138e-05
7.03178e-05
6.76043e-05
6.51254e-05
6.28481e-05
6.07493e-05
5.88123e-05
5.70246e-05
5.53768e-05
5.38613e-05
5.24721e-05
5.12042e-05
5.00531e-05
4.90145e-05
4.80848e-05
4.72602e-05
4.6537e-05
4.59117e-05
4.53807e-05
4.49406e-05
4.45877e-05
4.43185e-05
4.41298e-05
4.40179e-05
4.39795e-05
4.40114e-05
4.41101e-05
4.42724e-05
4.44951e-05
4.47746e-05
4.51074e-05
4.54898e-05
4.59174e-05
4.63856e-05
4.68887e-05
4.74204e-05
4.7973e-05
4.85368e-05
4.91037e-05
4.96643e-05
5.02079e-05
5.0722e-05
5.11919e-05
5.16008e-05
5.19291e-05
5.21542e-05
5.2251e-05
5.21924e-05
5.195e-05
5.1495e-05
5.08006e-05
4.98442e-05
4.86035e-05
4.70457e-05
4.51677e-05
4.29834e-05
4.05471e-05
3.79613e-05
3.5379e-05
3.29784e-05
3.09189e-05
2.92572e-05
2.79515e-05
2.69053e-05
2.59671e-05
2.49232e-05
2.36824e-05
2.32548e-05
3.37857e-05
0.000355259
0.000307081
0.000273378
0.000250157
0.000233517
0.000220447
0.000209504
0.000199914
0.000191283
0.000183368
0.000176048
0.000169247
0.00016291
0.000156993
0.000151459
0.000146274
0.000141412
0.000136847
0.000132558
0.000128522
0.000124721
0.000121136
0.000117751
0.000114553
0.000111539
0.000108722
0.000106042
0.000103485
0.000101045
9.87149e-05
9.64867e-05
9.43538e-05
9.23094e-05
9.03463e-05
8.84576e-05
8.6636e-05
8.48739e-05
8.31636e-05
8.14968e-05
7.98647e-05
7.8258e-05
7.66666e-05
7.50795e-05
7.34847e-05
7.18691e-05
7.02186e-05
6.85175e-05
6.67491e-05
6.48954e-05
6.29373e-05
6.08554e-05
5.86303e-05
5.62442e-05
5.36822e-05
5.09354e-05
4.80032e-05
4.48979e-05
4.1649e-05
3.83075e-05
3.49485e-05
3.16717e-05
2.85947e-05
2.58396e-05
2.35129e-05
2.1683e-05
2.03664e-05
1.95263e-05
1.90887e-05
1.89635e-05
1.90636e-05
1.93137e-05
1.96508e-05
2.00179e-05
2.03548e-05
2.05856e-05
2.05998e-05
2.02279e-05
1.92131e-05
1.71736e-05
1.38843e-05
0.000198797
0.000138448
0.000103899
8.65956e-05
7.66182e-05
7.00041e-05
6.50036e-05
6.09219e-05
5.7446e-05
5.42857e-05
5.13735e-05
4.87077e-05
4.62888e-05
4.4116e-05
4.21868e-05
4.04989e-05
3.90138e-05
3.76874e-05
3.65053e-05
3.54557e-05
3.45278e-05
3.37124e-05
3.30009e-05
3.2386e-05
3.1861e-05
3.14187e-05
3.1041e-05
3.07206e-05
3.04526e-05
3.02325e-05
3.00562e-05
2.99198e-05
2.98198e-05
2.97525e-05
2.97147e-05
2.9703e-05
2.97143e-05
2.97452e-05
2.97924e-05
2.98524e-05
2.99215e-05
2.99957e-05
3.00705e-05
3.01412e-05
3.02022e-05
3.02477e-05
3.02707e-05
3.02635e-05
3.02175e-05
3.01229e-05
2.9969e-05
2.97438e-05
2.94348e-05
2.90289e-05
2.85132e-05
2.7876e-05
2.7108e-05
2.62037e-05
2.51637e-05
2.39969e-05
2.27223e-05
2.13711e-05
1.99872e-05
1.86266e-05
1.73543e-05
1.62368e-05
1.53317e-05
1.46765e-05
1.42831e-05
1.41402e-05
1.42221e-05
1.44984e-05
1.49387e-05
1.55139e-05
1.61933e-05
1.6934e-05
1.76629e-05
1.82929e-05
1.86766e-05
1.95259e-05
0.000388848
0.000229044
0.000135371
9.83817e-05
8.09225e-05
7.12936e-05
6.4927e-05
6.02026e-05
5.64135e-05
5.32194e-05
5.04446e-05
4.79865e-05
4.57821e-05
4.37976e-05
4.20091e-05
4.03947e-05
3.89328e-05
3.76092e-05
3.6413e-05
3.53346e-05
3.43642e-05
3.34938e-05
3.27168e-05
3.20273e-05
3.14197e-05
3.08892e-05
3.04308e-05
3.00405e-05
2.97143e-05
2.94487e-05
2.92402e-05
2.90855e-05
2.89813e-05
2.89244e-05
2.89119e-05
2.89407e-05
2.90076e-05
2.91098e-05
2.9244e-05
2.9407e-05
2.95954e-05
2.98057e-05
3.00339e-05
3.02758e-05
3.05268e-05
3.07819e-05
3.10352e-05
3.12806e-05
3.15106e-05
3.17172e-05
3.18912e-05
3.20219e-05
3.20975e-05
3.21051e-05
3.20303e-05
3.18581e-05
3.15728e-05
3.11591e-05
3.06028e-05
2.98925e-05
2.90208e-05
2.79869e-05
2.67993e-05
2.54799e-05
2.4069e-05
2.26285e-05
2.12382e-05
1.99869e-05
1.89551e-05
1.81992e-05
1.77404e-05
1.75654e-05
1.76327e-05
1.78848e-05
1.82575e-05
1.86771e-05
1.90557e-05
1.93928e-05
2.00799e-05
2.48385e-05
0.000769874
0.000422041
0.000203887
0.000130073
0.000101214
8.7436e-05
7.92392e-05
7.35286e-05
6.90664e-05
6.53311e-05
6.20694e-05
5.91521e-05
5.65057e-05
5.40855e-05
5.1862e-05
4.98139e-05
4.79253e-05
4.61837e-05
4.45793e-05
4.31034e-05
4.17487e-05
4.05092e-05
3.93792e-05
3.83537e-05
3.74282e-05
3.65981e-05
3.58595e-05
3.52084e-05
3.46409e-05
3.41535e-05
3.37425e-05
3.34044e-05
3.3136e-05
3.29338e-05
3.27946e-05
3.27151e-05
3.26921e-05
3.27222e-05
3.28021e-05
3.29284e-05
3.30974e-05
3.33053e-05
3.3548e-05
3.38211e-05
3.41197e-05
3.44384e-05
3.47715e-05
3.51125e-05
3.54545e-05
3.57899e-05
3.61101e-05
3.64057e-05
3.66658e-05
3.68783e-05
3.70294e-05
3.71038e-05
3.70849e-05
3.69542e-05
3.66923e-05
3.62802e-05
3.57005e-05
3.49374e-05
3.39791e-05
3.28213e-05
3.14731e-05
2.99657e-05
2.83573e-05
2.67332e-05
2.51984e-05
2.38585e-05
2.27951e-05
2.20445e-05
2.15845e-05
2.13477e-05
2.12425e-05
2.11599e-05
2.09773e-05
2.0724e-05
2.12461e-05
2.94925e-05
0.0011381
0.00072627
0.00029898
0.000169681
0.000125496
0.000106613
9.63304e-05
8.95148e-05
8.42917e-05
7.9918e-05
7.60598e-05
7.25599e-05
6.93362e-05
6.63433e-05
6.35536e-05
6.09486e-05
5.85154e-05
5.62441e-05
5.41268e-05
5.21569e-05
5.03288e-05
4.86375e-05
4.70784e-05
4.56473e-05
4.43399e-05
4.31522e-05
4.20803e-05
4.11201e-05
4.02677e-05
3.95191e-05
3.88704e-05
3.83177e-05
3.78571e-05
3.74847e-05
3.71968e-05
3.69896e-05
3.68592e-05
3.68021e-05
3.68143e-05
3.68921e-05
3.70314e-05
3.72281e-05
3.74777e-05
3.77751e-05
3.81152e-05
3.84916e-05
3.88975e-05
3.9325e-05
3.97657e-05
4.02116e-05
4.06537e-05
4.10823e-05
4.14874e-05
4.18577e-05
4.21798e-05
4.24391e-05
4.26193e-05
4.27009e-05
4.26608e-05
4.24807e-05
4.21408e-05
4.16201e-05
4.08982e-05
3.99562e-05
3.87792e-05
3.73689e-05
3.57492e-05
3.39761e-05
3.21417e-05
3.0366e-05
2.87722e-05
2.74519e-05
2.64229e-05
2.56313e-05
2.49783e-05
2.433e-05
2.35239e-05
2.25768e-05
2.26607e-05
3.37947e-05
0.000495191
0.000417038
0.000362004
0.000324454
0.000298429
0.000278628
0.00026247
0.000248534
0.000236113
0.000224807
0.000214396
0.000204744
0.000195767
0.000187405
0.000179611
0.000172346
0.000165573
0.000159257
0.000153366
0.000147866
0.000142728
0.000137923
0.000133423
0.000129201
0.000125233
0.000121498
0.000118029
0.000114778
0.000111693
0.000108759
0.000105965
0.000103299
0.000100752
9.83122e-05
9.59696e-05
9.37138e-05
9.15345e-05
8.94209e-05
8.7362e-05
8.53464e-05
8.33617e-05
8.1395e-05
7.94326e-05
7.74597e-05
7.54605e-05
7.3418e-05
7.13146e-05
6.91313e-05
6.6849e-05
6.44481e-05
6.19103e-05
5.92189e-05
5.63613e-05
5.33315e-05
5.01326e-05
4.67811e-05
4.33107e-05
3.97757e-05
3.6253e-05
3.28406e-05
2.96513e-05
2.68001e-05
2.43862e-05
2.24741e-05
2.10802e-05
2.01727e-05
1.96828e-05
1.95254e-05
1.96161e-05
1.98814e-05
2.02608e-05
2.07011e-05
2.11479e-05
2.15359e-05
2.17742e-05
2.17286e-05
2.11983e-05
1.98983e-05
1.74436e-05
1.37421e-05
0.000293746
0.000205409
0.000154084
0.000127968
0.000112993
0.000103018
9.53742e-05
8.89783e-05
8.33516e-05
7.82768e-05
7.36489e-05
6.94123e-05
6.55305e-05
6.19746e-05
5.872e-05
5.57438e-05
5.3024e-05
5.05405e-05
4.82751e-05
4.62114e-05
4.43339e-05
4.26283e-05
4.10818e-05
3.96824e-05
3.84194e-05
3.7283e-05
3.62654e-05
3.53496e-05
3.45267e-05
3.37891e-05
3.31296e-05
3.25415e-05
3.20185e-05
3.15545e-05
3.11437e-05
3.07803e-05
3.04589e-05
3.0174e-05
2.99202e-05
2.9692e-05
2.94837e-05
2.92897e-05
2.91037e-05
2.89193e-05
2.87298e-05
2.85278e-05
2.83054e-05
2.80541e-05
2.77647e-05
2.74276e-05
2.70324e-05
2.65687e-05
2.60261e-05
2.53951e-05
2.46679e-05
2.38395e-05
2.29094e-05
2.18831e-05
2.07735e-05
1.96024e-05
1.84009e-05
1.72083e-05
1.6071e-05
1.50375e-05
1.41538e-05
1.34565e-05
1.29681e-05
1.26937e-05
1.26236e-05
1.27391e-05
1.30201e-05
1.34481e-05
1.40062e-05
1.46762e-05
1.54332e-05
1.62359e-05
1.70091e-05
1.76608e-05
1.80222e-05
1.88864e-05
0.000505896
0.000301059
0.000182777
0.0001349
0.000112566
0.000100345
9.21591e-05
8.58745e-05
8.05936e-05
7.59409e-05
7.17363e-05
6.7896e-05
6.43714e-05
6.11226e-05
5.81191e-05
5.53397e-05
5.27699e-05
5.03941e-05
4.81986e-05
4.61708e-05
4.42994e-05
4.25744e-05
4.09867e-05
3.95279e-05
3.81903e-05
3.6967e-05
3.58513e-05
3.4837e-05
3.39185e-05
3.30903e-05
3.23476e-05
3.16855e-05
3.10993e-05
3.05845e-05
3.01367e-05
2.97515e-05
2.94246e-05
2.91516e-05
2.89281e-05
2.87495e-05
2.86112e-05
2.85082e-05
2.84352e-05
2.83867e-05
2.83566e-05
2.83385e-05
2.83255e-05
2.83099e-05
2.82836e-05
2.82377e-05
2.81625e-05
2.80479e-05
2.78826e-05
2.76551e-05
2.73536e-05
2.69665e-05
2.64833e-05
2.58954e-05
2.51975e-05
2.43885e-05
2.34737e-05
2.24664e-05
2.13895e-05
2.02774e-05
1.91765e-05
1.81425e-05
1.72341e-05
1.65037e-05
1.59885e-05
1.57062e-05
1.56554e-05
1.58195e-05
1.61699e-05
1.66686e-05
1.72677e-05
1.79064e-05
1.85037e-05
1.90458e-05
1.97997e-05
2.39466e-05
0.000959822
0.000513481
0.000252372
0.000162401
0.000128163
0.000112564
0.000103504
9.70927e-05
9.18705e-05
8.72796e-05
8.30829e-05
7.91792e-05
7.55203e-05
7.20811e-05
6.88463e-05
6.58047e-05
6.29471e-05
6.02652e-05
5.77511e-05
5.53974e-05
5.31973e-05
5.11441e-05
4.92316e-05
4.7454e-05
4.58055e-05
4.4281e-05
4.28751e-05
4.15831e-05
4.04e-05
3.93214e-05
3.83426e-05
3.74593e-05
3.66672e-05
3.59622e-05
3.53401e-05
3.47969e-05
3.43285e-05
3.39307e-05
3.35995e-05
3.33304e-05
3.31191e-05
3.29607e-05
3.28501e-05
3.27817e-05
3.27494e-05
3.27466e-05
3.27659e-05
3.27993e-05
3.28383e-05
3.28736e-05
3.28957e-05
3.28945e-05
3.2859e-05
3.27776e-05
3.26381e-05
3.24275e-05
3.21326e-05
3.17402e-05
3.12378e-05
3.0614e-05
2.98613e-05
2.89767e-05
2.79647e-05
2.68407e-05
2.56348e-05
2.43934e-05
2.31785e-05
2.2061e-05
2.11102e-05
2.03816e-05
1.9907e-05
1.96887e-05
1.96974e-05
1.98777e-05
2.01548e-05
2.04375e-05
2.06221e-05
2.07353e-05
2.14428e-05
2.85727e-05
0.00148682
0.000859602
0.000354135
0.00019858
0.000147649
0.000127536
0.000117371
0.0001108
0.000105635
0.000101088
9.68559e-05
9.28276e-05
8.89642e-05
8.52558e-05
8.17014e-05
7.83028e-05
7.50613e-05
7.19777e-05
6.90514e-05
6.62812e-05
6.36652e-05
6.12008e-05
5.88854e-05
5.67159e-05
5.46891e-05
5.28015e-05
5.10494e-05
4.94292e-05
4.79368e-05
4.65683e-05
4.53195e-05
4.41862e-05
4.31643e-05
4.22494e-05
4.14372e-05
4.07235e-05
4.0104e-05
3.95743e-05
3.91301e-05
3.87667e-05
3.84795e-05
3.82635e-05
3.81134e-05
3.80232e-05
3.79865e-05
3.7996e-05
3.80433e-05
3.81188e-05
3.82112e-05
3.83097e-05
3.84029e-05
3.84797e-05
3.85286e-05
3.85378e-05
3.84954e-05
3.83888e-05
3.82056e-05
3.79333e-05
3.75585e-05
3.70657e-05
3.64445e-05
3.56844e-05
3.47772e-05
3.37214e-05
3.25262e-05
3.1216e-05
2.98375e-05
2.84576e-05
2.71578e-05
2.60216e-05
2.51158e-05
2.44742e-05
2.40812e-05
2.38756e-05
2.37622e-05
2.36211e-05
2.33169e-05
2.28847e-05
2.33053e-05
3.29963e-05
0.000653637
0.000546927
0.000472629
0.000421812
0.000387082
0.000360941
0.000339727
0.000321333
0.000304766
0.000289478
0.000275184
0.000261729
0.000249028
0.000237034
0.000225716
0.000215049
0.000205011
0.00019558
0.000186732
0.000178441
0.000170679
0.000163419
0.000156633
0.000150293
0.000144372
0.00013884
0.000133668
0.000128859
0.000124422
0.000120309
0.000116421
0.000112737
0.000109236
0.0001059
0.000102713
9.96564e-05
9.67157e-05
9.38745e-05
9.11173e-05
8.84283e-05
8.57914e-05
8.31902e-05
8.06078e-05
7.80269e-05
7.54298e-05
7.27986e-05
7.01154e-05
6.73623e-05
6.45229e-05
6.15826e-05
5.85298e-05
5.53583e-05
5.2069e-05
4.86727e-05
4.51931e-05
4.16693e-05
3.8158e-05
3.47327e-05
3.14811e-05
2.84972e-05
2.58702e-05
2.36716e-05
2.1944e-05
2.06934e-05
1.98758e-05
1.9402e-05
1.92113e-05
1.92478e-05
1.9472e-05
1.982e-05
2.02439e-05
2.07027e-05
2.11471e-05
2.15107e-05
2.16973e-05
2.15653e-05
2.09101e-05
1.94588e-05
1.6872e-05
1.31699e-05
0.000401423
0.000283504
0.000217175
0.000182833
0.000162948
0.000149634
0.000139442
0.000130701
0.000122832
0.000115584
0.000108833
0.000102521
9.66199e-05
9.11086e-05
8.59685e-05
8.11817e-05
7.67296e-05
7.2594e-05
6.87566e-05
6.51993e-05
6.19041e-05
5.88537e-05
5.60322e-05
5.34255e-05
5.10216e-05
4.88095e-05
4.67666e-05
4.48875e-05
4.3161e-05
4.15751e-05
4.01177e-05
3.87792e-05
3.75501e-05
3.64214e-05
3.53842e-05
3.44303e-05
3.35512e-05
3.2739e-05
3.19855e-05
3.12827e-05
3.06226e-05
2.99968e-05
2.93966e-05
2.88134e-05
2.82385e-05
2.76628e-05
2.70775e-05
2.64733e-05
2.5841e-05
2.51716e-05
2.44564e-05
2.36879e-05
2.28601e-05
2.19692e-05
2.10148e-05
2.00011e-05
1.89375e-05
1.78392e-05
1.67295e-05
1.56386e-05
1.46016e-05
1.36558e-05
1.28372e-05
1.21767e-05
1.16856e-05
1.13553e-05
1.11834e-05
1.11649e-05
1.13012e-05
1.15699e-05
1.19581e-05
1.24589e-05
1.30641e-05
1.37608e-05
1.4527e-05
1.53207e-05
1.6062e-05
1.6652e-05
1.69019e-05
1.76339e-05
0.000641278
0.000377364
0.000236569
0.000180578
0.000155184
0.000141439
0.000132057
0.000124538
0.000117907
0.000111802
0.000106074
0.000100668
9.55591e-05
9.07353e-05
8.61858e-05
8.19001e-05
7.7867e-05
7.40747e-05
7.05108e-05
6.71631e-05
6.40198e-05
6.10694e-05
5.83014e-05
5.57061e-05
5.32747e-05
5.09986e-05
4.88699e-05
4.68815e-05
4.50267e-05
4.3299e-05
4.16921e-05
4.02e-05
3.88172e-05
3.75381e-05
3.63573e-05
3.52694e-05
3.42691e-05
3.3351e-05
3.25096e-05
3.17392e-05
3.10339e-05
3.03874e-05
2.97931e-05
2.92439e-05
2.87324e-05
2.82504e-05
2.77895e-05
2.73404e-05
2.68936e-05
2.64392e-05
2.59668e-05
2.54663e-05
2.49278e-05
2.43418e-05
2.36999e-05
2.29956e-05
2.22249e-05
2.13877e-05
2.04896e-05
1.95429e-05
1.85681e-05
1.75933e-05
1.66525e-05
1.57823e-05
1.50186e-05
1.4393e-05
1.39295e-05
1.36422e-05
1.35359e-05
1.36073e-05
1.38497e-05
1.4253e-05
1.48015e-05
1.54727e-05
1.62308e-05
1.70206e-05
1.77578e-05
1.83958e-05
1.90515e-05
2.22834e-05
0.00119642
0.000612541
0.000303716
0.00020172
0.000164839
0.000149078
0.000140214
0.000133787
0.00012823
0.000123018
0.000117975
0.000113061
0.00010828
0.000103647
9.91774e-05
9.48808e-05
9.0764e-05
8.68295e-05
8.30772e-05
7.95046e-05
7.61083e-05
7.28838e-05
6.98263e-05
6.69307e-05
6.41922e-05
6.16055e-05
5.91657e-05
5.6868e-05
5.47076e-05
5.26796e-05
5.07795e-05
4.90025e-05
4.73442e-05
4.58e-05
4.43653e-05
4.30356e-05
4.18064e-05
4.06732e-05
3.9631e-05
3.86752e-05
3.78005e-05
3.70013e-05
3.62718e-05
3.56055e-05
3.49951e-05
3.44328e-05
3.39095e-05
3.34155e-05
3.29399e-05
3.24712e-05
3.19971e-05
3.15061e-05
3.09868e-05
3.04283e-05
2.98199e-05
2.91517e-05
2.84147e-05
2.7602e-05
2.67098e-05
2.57394e-05
2.4698e-05
2.36015e-05
2.24764e-05
2.13618e-05
2.03049e-05
1.93531e-05
1.85487e-05
1.79266e-05
1.75086e-05
1.73049e-05
1.73142e-05
1.75241e-05
1.79097e-05
1.84311e-05
1.90293e-05
1.96246e-05
2.01149e-05
2.04882e-05
2.11712e-05
2.67576e-05
0.00202178
0.00103902
0.000412943
0.000232829
0.000178328
0.000159091
0.000150425
0.000145054
0.000140612
0.000136339
0.000132012
0.000127599
0.000123131
0.000118656
0.000114216
0.000109848
0.000105578
0.000101426
9.74069e-05
9.35296e-05
8.98006e-05
8.62237e-05
8.28011e-05
7.95335e-05
7.64209e-05
7.34623e-05
7.06562e-05
6.80007e-05
6.54933e-05
6.31313e-05
6.09114e-05
5.88302e-05
5.6884e-05
5.5069e-05
5.3381e-05
5.18157e-05
5.03688e-05
4.90356e-05
4.78113e-05
4.66911e-05
4.56696e-05
4.47412e-05
4.39e-05
4.31393e-05
4.24518e-05
4.18292e-05
4.12619e-05
4.07389e-05
4.02474e-05
3.97712e-05
3.92925e-05
3.87947e-05
3.82647e-05
3.76906e-05
3.70615e-05
3.63677e-05
3.56008e-05
3.47543e-05
3.38232e-05
3.28053e-05
3.17003e-05
3.05139e-05
2.92602e-05
2.79663e-05
2.66689e-05
2.54183e-05
2.42755e-05
2.32957e-05
2.25221e-05
2.19837e-05
2.16916e-05
2.16377e-05
2.17923e-05
2.20974e-05
2.24687e-05
2.27975e-05
2.29561e-05
2.29481e-05
2.34702e-05
3.1203e-05
0.000225718
0.000283091
0.000332292
0.000351345
0.000315834
0.000279403
0.000348939
0.000408771
0.000431335
0.000370892
0.000308907
0.000397994
0.000472575
0.000503098
0.000419833
0.000323275
0.000433427
0.000524165
0.000561303
0.000458095
0.00032608
0.000459489
0.000566907
0.000606345
0.000482284
0.000319797
0.000478458
0.000601838
0.000638217
0.00049063
0.000307679
0.000490988
0.000627965
0.000657285
0.000490253
0.00029241
0.000496269
0.000642474
0.000665144
0.000511
0.00027615
0.000492334
0.000641722
0.000664289
0.000583661
0.000260666
0.000474549
0.000624845
0.000664666
0.000641689
0.000286361
0.000502126
0.000679974
0.000778648
0.000554805
0.000375363
0.000474646
0.000551513
0.00066871
0.000595235
0.000442916
0.000458782
0.000534561
0.000745855
0.000666439
0.000482303
0.000449297
0.000538905
0.00083998
0.000745788
0.000502667
0.00044153
0.000549757
0.000912406
0.000794515
0.000510065
0.000439238
0.000569644
0.000952923