/*--------------------------------*- C++ -*----------------------------------*\
| =========                 |                                                 |
| \\      /  F ield         | OpenFOAM: The Open Source CFD Toolbox           |
|  \\    /   O peration     | Version:  v1912                                 |
|   \\  /    A nd           | Website:  www.openfoam.com                      |
|    \\/     M anipulation  |                                                 |
\*---------------------------------------------------------------------------*/
FoamFile
{
    version     2.0;
    format      ascii;
    class       volScalarField;
    location    "935";
    object      G;
}
// * * * * * * * * * * * * * * * * * * * * * * * * * * * * * * * * * * * * * //

dimensions      [1 0 -3 0 0 0 0];


internalField   nonuniform List<scalar> 
104000
(
2770.57
2843.69
2929.29
3024.02
3121.85
2844.8
2927.21
3026.19
3138.17
3255.87
2932.08
3027.64
3147.65
3289
3442.96
3028.77
3141.23
3290.53
3476.34
3690.99
3128.42
3260.44
3446
3692.6
4005.14
2816.77
2893.08
2982.15
3080.48
3181.85
2894.11
2979.98
3082.81
3198.9
3320.76
2984.81
3084.24
3208.72
3355.03
3514.17
3085.1
3201.94
3356.57
3548.57
3769.91
3188.29
3325.33
3517.23
3771.54
4092.4
2841.17
2918.5
3008.21
3106.8
3208.14
2919.4
3006.19
3109.49
3225.62
3347.21
3010.62
3110.81
3235.45
3381.39
3539.83
3111.07
3228.48
3382.86
3573.94
3794.01
3214.15
3351.55
3542.77
3795.58
4114.72
2844.62
2920.85
3008.45
3104.08
3201.92
2921.61
3006.86
3107.31
3219.48
3336.44
3010.56
3108.5
3229.02
3369.19
3520.86
3107.89
3222.07
3370.53
3553.21
3763.49
3207.31
3340.37
3523.55
3764.94
4071.37
2829.17
2902.41
2985.47
3075.26
3166.51
2903.04
2984.54
3079.17
3183.69
3291.88
2987.28
3080.19
3192.6
3321.68
3460.18
3078.55
3185.95
3322.86
3488.9
3678.47
3171.15
3295.31
3462.55
3679.74
3954.71
3214.57
3293.79
3353.72
3391.38
3405.5
3395.6
3361.41
3302.89
3220.85
3117.94
3368.18
3462.86
3533.25
3577.05
3593.87
3583.68
3546.17
3480.7
3387.08
3267.18
3592.23
3713.34
3799.75
3852.17
3872.64
3862.29
3820.72
3745.92
3635.02
3486.59
3907.75
4067.49
4173.24
4234.71
4258.76
4248.45
4203.26
4119.01
3987.57
3797.76
4359.62
4562.73
4683.04
4749.6
4775.42
4765.44
4719.09
4630.08
4483.59
4247.56
3277.84
3359.81
3421.8
3460.67
3475.13
3464.66
3428.97
3368.07
3282.8
3175.93
3436.95
3534.88
3607.68
3652.93
3670.19
3659.44
3620.32
3552.24
3455.01
3330.62
3668.33
3793.47
3882.81
3936.97
3958.01
3947.09
3903.78
3826.06
3711.01
3557.24
3992.9
4157.67
4266.91
4330.43
4355.19
4344.31
4297.26
4209.78
4073.58
3877.36
4453.17
4661.99
4786.17
4854.94
4881.54
4871.02
4822.77
4730.38
4578.75
4335.55
3303.94
3385.67
3447.41
3486.01
3500.15
3489.27
3453.11
3391.7
3305.96
3198.68
3463.02
3560.59
3633.09
3678.06
3695.01
3683.86
3644.28
3575.73
3478.11
3353.46
3693.24
3817.8
3906.73
3960.59
3981.31
3970
3926.23
3848.08
3732.75
3578.99
4015.86
4179.82
4288.58
4351.79
4376.25
4364.98
4317.46
4229.55
4093.18
3897.23
4474.18
4682.12
4805.83
4874.33
4900.67
4889.76
4841.02
4748.19
4596.4
4353.6
3294.18
3372.78
3432.08
3469.02
3482.21
3471.09
3435.43
3375.33
3291.77
3187.51
3447.63
3541.29
3610.87
3653.92
3669.84
3658.47
3619.51
3552.55
3457.65
3336.9
3667.72
3787.01
3872.29
3923.88
3943.45
3931.91
3888.89
3812.69
3700.89
3552.5
3976.37
4133.51
4237.88
4298.56
4321.78
4310.27
4263.55
4177.86
4045.81
3856.97
4421.74
4622.14
4741.22
4807.2
4832.32
4821.16
4773.15
4682.52
4535.34
4300.62
3252.2
3325.12
3380.06
3414.09
3425.82
3414.64
3380.34
3323.15
3244.13
3145.98
3394.4
3480.82
3545.13
3584.82
3599.08
3587.66
3550.29
3486.76
3397.41
3284.43
3594.01
3703.24
3781.78
3829.37
3847.05
3835.44
3794.22
3722.1
3617.4
3479.82
3870.87
4014.03
4110.15
4166.36
4187.56
4175.92
4131.03
4049.83
3926.44
3752.66
4277.06
4460.55
4571.02
4632.77
4656.06
4644.69
4598.15
4511.61
4373.43
4157.11
2996.08
2863
2731.85
2609.23
2498.67
2401.41
2317.25
2245.21
2183.97
2132.16
2088.42
2051.55
2020.49
1994.31
1972.23
1953.59
1937.84
1924.5
1913.19
1903.58
1895.41
1888.44
1882.49
1877.4
1873.03
1869.28
1866.05
1863.27
1860.86
1858.77
1856.96
1855.38
1854
1852.8
1851.74
1850.81
1850
1849.27
1848.64
1848.07
1847.57
1847.12
1846.72
1846.36
1846.04
1845.75
1845.5
1845.27
1845.07
1844.89
1844.73
1844.58
1844.46
1844.35
1844.26
1844.18
1844.12
1844.07
1844.03
1844
1843.98
1843.97
1843.96
1843.96
1843.97
1843.98
1843.99
1843.99
1844
1844.01
1844
1843.99
1843.97
1843.93
1843.86
1843.77
1843.65
1843.5
1843.3
1843.06
3123.12
2966.79
2815.24
2675.98
2552.31
2444.81
2352.63
2274.28
2208.02
2152.17
2105.18
2065.65
2032.41
2004.43
1980.86
1960.97
1944.18
1929.97
1917.93
1907.7
1899
1891.59
1885.26
1879.84
1875.19
1871.2
1867.77
1864.81
1862.24
1860.03
1858.1
1856.42
1854.96
1853.67
1852.55
1851.57
1850.7
1849.93
1849.25
1848.65
1848.11
1847.63
1847.21
1846.83
1846.49
1846.18
1845.91
1845.66
1845.45
1845.25
1845.08
1844.93
1844.79
1844.68
1844.58
1844.49
1844.42
1844.37
1844.32
1844.29
1844.26
1844.25
1844.24
1844.24
1844.24
1844.25
1844.26
1844.27
1844.28
1844.29
1844.29
1844.28
1844.25
1844.21
1844.15
1844.05
1843.93
1843.76
1843.55
1843.3
3301.39
3103.96
2919
2754.58
2612.45
2491.45
2389.33
2303.54
2231.64
2171.44
2121.04
2078.82
2043.42
2013.7
1988.71
1967.67
1949.91
1934.89
1922.18
1911.39
1902.21
1894.4
1887.72
1882.02
1877.12
1872.92
1869.3
1866.18
1863.48
1861.14
1859.11
1857.34
1855.8
1854.45
1853.27
1852.23
1851.31
1850.5
1849.79
1849.15
1848.59
1848.08
1847.63
1847.23
1846.87
1846.55
1846.26
1846
1845.77
1845.57
1845.39
1845.22
1845.08
1844.96
1844.85
1844.76
1844.68
1844.62
1844.57
1844.54
1844.51
1844.49
1844.48
1844.48
1844.49
1844.5
1844.51
1844.52
1844.53
1844.54
1844.54
1844.53
1844.51
1844.46
1844.4
1844.3
1844.17
1844
1843.78
1843.51
3537.83
3273.66
3040.2
2842.19
2676.92
2539.83
2426.3
2332.29
2254.34
2189.62
2135.78
2090.91
2053.43
2022.06
1995.74
1973.62
1954.98
1939.24
1925.92
1914.63
1905.04
1896.86
1889.89
1883.92
1878.81
1874.42
1870.64
1867.38
1864.56
1862.12
1859.99
1858.15
1856.54
1855.13
1853.89
1852.8
1851.85
1851
1850.25
1849.59
1849
1848.47
1848
1847.58
1847.2
1846.86
1846.56
1846.29
1846.05
1845.83
1845.64
1845.47
1845.32
1845.19
1845.08
1844.98
1844.9
1844.84
1844.78
1844.74
1844.72
1844.7
1844.69
1844.69
1844.69
1844.7
1844.72
1844.73
1844.74
1844.75
1844.76
1844.75
1844.73
1844.69
1844.62
1844.52
1844.39
1844.21
1843.98
1843.7
3834.73
3467.57
3170.93
2933.19
2742.04
2587.54
2462
2359.51
2275.47
2206.27
2149.1
2101.69
2062.27
2029.38
2001.86
1978.77
1959.36
1942.99
1929.15
1917.42
1907.46
1898.98
1891.75
1885.56
1880.26
1875.71
1871.79
1868.41
1865.48
1862.95
1860.75
1858.84
1857.16
1855.7
1854.42
1853.29
1852.3
1851.42
1850.64
1849.95
1849.34
1848.79
1848.3
1847.87
1847.48
1847.13
1846.81
1846.53
1846.28
1846.05
1845.85
1845.67
1845.52
1845.38
1845.26
1845.16
1845.08
1845.01
1844.96
1844.91
1844.88
1844.87
1844.86
1844.86
1844.87
1844.88
1844.89
1844.91
1844.93
1844.94
1844.95
1844.94
1844.92
1844.88
1844.81
1844.71
1844.58
1844.39
1844.15
1843.86
3049.42
2911.25
2774.99
2647.46
2532.32
2430.88
2342.96
2267.58
2203.41
2149.03
2103.07
2064.27
2031.55
2003.94
1980.63
1960.93
1944.27
1930.15
1918.17
1907.99
1899.32
1891.92
1885.6
1880.19
1875.55
1871.56
1868.12
1865.16
1862.59
1860.36
1858.43
1856.75
1855.28
1853.99
1852.86
1851.87
1851
1850.23
1849.54
1848.94
1848.4
1847.92
1847.49
1847.1
1846.76
1846.45
1846.18
1845.93
1845.71
1845.52
1845.34
1845.19
1845.06
1844.94
1844.84
1844.76
1844.69
1844.63
1844.58
1844.55
1844.53
1844.52
1844.51
1844.51
1844.52
1844.53
1844.54
1844.55
1844.56
1844.56
1844.56
1844.56
1844.53
1844.49
1844.43
1844.34
1844.21
1844.05
1843.84
1843.58
3181.24
3019.11
2861.81
2717.1
2588.39
2476.34
2380.09
2298.14
2228.73
2170.14
2120.76
2079.17
2044.16
2014.65
1989.77
1968.76
1951
1935.96
1923.21
1912.37
1903.14
1895.27
1888.55
1882.79
1877.86
1873.61
1869.96
1866.8
1864.07
1861.71
1859.65
1857.86
1856.3
1854.93
1853.74
1852.68
1851.75
1850.93
1850.2
1849.56
1848.98
1848.47
1848.01
1847.61
1847.24
1846.91
1846.62
1846.36
1846.12
1845.91
1845.73
1845.56
1845.42
1845.29
1845.18
1845.09
1845.01
1844.95
1844.9
1844.87
1844.84
1844.82
1844.81
1844.81
1844.82
1844.83
1844.84
1844.85
1844.86
1844.87
1844.87
1844.86
1844.84
1844.8
1844.74
1844.64
1844.51
1844.34
1844.11
1843.84
3365.59
3161.18
2969.48
2798.83
2651.08
2525.07
2418.52
2328.84
2253.56
2190.42
2137.49
2093.08
2055.8
2024.47
1998.09
1975.86
1957.08
1941.19
1927.72
1916.29
1906.56
1898.26
1891.18
1885.11
1879.91
1875.44
1871.59
1868.27
1865.39
1862.9
1860.74
1858.85
1857.21
1855.77
1854.5
1853.39
1852.41
1851.55
1850.78
1850.1
1849.49
1848.95
1848.47
1848.04
1847.65
1847.31
1847
1846.72
1846.47
1846.25
1846.05
1845.88
1845.73
1845.59
1845.48
1845.38
1845.3
1845.23
1845.17
1845.13
1845.1
1845.09
1845.08
1845.08
1845.08
1845.09
1845.1
1845.12
1845.13
1845.14
1845.14
1845.14
1845.12
1845.08
1845.01
1844.91
1844.77
1844.59
1844.36
1844.07
3609.43
3336.58
3095
2889.75
2718.15
2575.51
2457.17
2358.96
2277.39
2209.54
2153.02
2105.83
2066.37
2033.3
2005.53
1982.16
1962.45
1945.8
1931.7
1919.73
1909.56
1900.88
1893.48
1887.14
1881.71
1877.04
1873.02
1869.55
1866.54
1863.94
1861.68
1859.71
1857.99
1856.48
1855.17
1854
1852.98
1852.08
1851.28
1850.56
1849.93
1849.37
1848.86
1848.41
1848.01
1847.64
1847.32
1847.03
1846.77
1846.53
1846.33
1846.14
1845.98
1845.84
1845.72
1845.62
1845.53
1845.46
1845.4
1845.36
1845.33
1845.31
1845.3
1845.3
1845.3
1845.31
1845.33
1845.35
1845.36
1845.37
1845.38
1845.38
1845.36
1845.32
1845.25
1845.15
1845.01
1844.82
1844.58
1844.27
3914.26
3536.6
3230.21
2984.09
2785.8
2625.2
2494.43
2387.44
2299.54
2227.03
2167.02
2117.2
2075.7
2041.03
2012
1987.62
1967.09
1949.77
1935.11
1922.69
1912.13
1903.13
1895.45
1888.88
1883.25
1878.41
1874.24
1870.64
1867.53
1864.83
1862.48
1860.44
1858.66
1857.1
1855.73
1854.52
1853.46
1852.52
1851.69
1850.95
1850.3
1849.71
1849.19
1848.72
1848.3
1847.92
1847.58
1847.28
1847.01
1846.77
1846.55
1846.36
1846.19
1846.04
1845.92
1845.81
1845.72
1845.64
1845.58
1845.54
1845.51
1845.49
1845.48
1845.48
1845.49
1845.5
1845.52
1845.54
1845.56
1845.57
1845.58
1845.58
1845.56
1845.52
1845.46
1845.35
1845.21
1845.02
1844.77
1844.45
3071.78
2933.13
2796.22
2667.8
2551.54
2448.8
2359.48
2282.66
2217.07
2161.33
2114.1
2074.13
2040.35
2011.78
1987.62
1967.16
1949.83
1935.12
1922.63
1911.99
1902.92
1895.18
1888.55
1882.87
1878
1873.8
1870.18
1867.06
1864.35
1862
1859.96
1858.18
1856.63
1855.26
1854.07
1853.02
1852.09
1851.27
1850.54
1849.89
1849.32
1848.8
1848.34
1847.93
1847.56
1847.24
1846.94
1846.67
1846.44
1846.23
1846.04
1845.87
1845.73
1845.6
1845.49
1845.4
1845.33
1845.26
1845.21
1845.18
1845.15
1845.14
1845.13
1845.13
1845.14
1845.15
1845.16
1845.17
1845.19
1845.2
1845.2
1845.2
1845.18
1845.15
1845.09
1845
1844.87
1844.7
1844.48
1844.2
3203.91
3041.56
2883.81
2738.35
2608.58
2495.23
2397.55
2314.09
2243.19
2183.16
2132.44
2089.62
2053.47
2022.95
1997.17
1975.36
1956.89
1941.22
1927.92
1916.59
1906.95
1898.71
1891.66
1885.62
1880.44
1875.98
1872.13
1868.81
1865.93
1863.44
1861.26
1859.37
1857.72
1856.27
1855
1853.88
1852.9
1852.02
1851.25
1850.56
1849.95
1849.4
1848.91
1848.48
1848.08
1847.73
1847.42
1847.13
1846.88
1846.66
1846.46
1846.28
1846.12
1845.98
1845.87
1845.77
1845.68
1845.61
1845.56
1845.52
1845.49
1845.47
1845.46
1845.46
1845.47
1845.48
1845.49
1845.51
1845.52
1845.53
1845.54
1845.54
1845.52
1845.49
1845.42
1845.33
1845.2
1845.02
1844.78
1844.49
3387.59
3183.45
2991.73
2820.63
2671.98
2544.75
2436.77
2345.56
2268.72
2204.09
2149.74
2104.04
2065.58
2033.17
2005.85
1982.76
1963.24
1946.69
1932.65
1920.71
1910.54
1901.85
1894.43
1888.07
1882.61
1877.91
1873.86
1870.36
1867.33
1864.7
1862.41
1860.42
1858.68
1857.15
1855.82
1854.64
1853.6
1852.68
1851.86
1851.14
1850.49
1849.92
1849.4
1848.94
1848.53
1848.16
1847.82
1847.53
1847.26
1847.02
1846.81
1846.62
1846.45
1846.31
1846.18
1846.07
1845.99
1845.91
1845.85
1845.81
1845.78
1845.76
1845.74
1845.74
1845.75
1845.76
1845.78
1845.79
1845.81
1845.83
1845.83
1845.83
1845.82
1845.78
1845.72
1845.63
1845.49
1845.3
1845.05
1844.74
3630.03
3358.07
3117.05
2911.77
2739.53
2595.8
2476.06
2376.31
2293.16
2223.77
2165.77
2117.23
2076.53
2042.35
2013.59
1989.34
1968.85
1951.52
1936.81
1924.32
1913.68
1904.6
1896.85
1890.2
1884.49
1879.59
1875.36
1871.7
1868.54
1865.79
1863.41
1861.33
1859.51
1857.91
1856.52
1855.29
1854.2
1853.24
1852.39
1851.63
1850.96
1850.35
1849.82
1849.33
1848.9
1848.51
1848.16
1847.85
1847.57
1847.32
1847.1
1846.9
1846.72
1846.57
1846.44
1846.33
1846.23
1846.15
1846.09
1846.05
1846.01
1845.99
1845.98
1845.98
1845.99
1846
1846.02
1846.04
1846.06
1846.07
1846.09
1846.09
1846.07
1846.04
1845.98
1845.88
1845.74
1845.55
1845.29
1844.97
3933.36
3557.11
3251.84
3006.12
2807.49
2645.95
2513.85
2405.32
2315.81
2241.72
2180.2
2128.97
2086.19
2050.37
2020.31
1995.02
1973.69
1955.66
1940.38
1927.41
1916.37
1906.96
1898.91
1892.02
1886.11
1881.02
1876.64
1872.85
1869.57
1866.72
1864.25
1862.09
1860.21
1858.56
1857.11
1855.83
1854.7
1853.71
1852.82
1852.04
1851.34
1850.71
1850.16
1849.65
1849.21
1848.8
1848.44
1848.11
1847.82
1847.56
1847.33
1847.12
1846.94
1846.78
1846.65
1846.53
1846.43
1846.35
1846.28
1846.24
1846.2
1846.18
1846.17
1846.17
1846.18
1846.19
1846.21
1846.24
1846.26
1846.28
1846.3
1846.3
1846.29
1846.26
1846.2
1846.1
1845.96
1845.76
1845.5
1845.17
3064.35
2929.71
2796.43
2670.96
2556.87
2455.58
2367.09
2290.65
2225.09
2169.16
2121.57
2081.18
2046.91
2017.85
1993.21
1972.3
1954.53
1939.43
1926.56
1915.6
1906.23
1898.22
1891.35
1885.46
1880.39
1876.02
1872.25
1868.99
1866.16
1863.7
1861.56
1859.7
1858.06
1856.63
1855.37
1854.26
1853.28
1852.41
1851.64
1850.96
1850.34
1849.8
1849.31
1848.87
1848.47
1848.12
1847.8
1847.52
1847.26
1847.04
1846.83
1846.65
1846.49
1846.36
1846.24
1846.14
1846.05
1845.98
1845.93
1845.89
1845.86
1845.84
1845.83
1845.83
1845.84
1845.85
1845.86
1845.88
1845.9
1845.92
1845.93
1845.94
1845.93
1845.9
1845.85
1845.77
1845.65
1845.47
1845.24
1844.93
3192.29
3035.23
2882.21
2740.51
2613.48
2501.93
2405.31
2322.35
2251.55
2191.35
2140.28
2097.02
2060.38
2029.35
2003.06
1980.76
1961.84
1945.75
1932.06
1920.39
1910.43
1901.91
1894.61
1888.34
1882.95
1878.31
1874.3
1870.83
1867.83
1865.22
1862.95
1860.96
1859.23
1857.7
1856.37
1855.19
1854.14
1853.22
1852.4
1851.67
1851.02
1850.44
1849.92
1849.45
1849.03
1848.66
1848.32
1848.01
1847.74
1847.5
1847.28
1847.09
1846.92
1846.77
1846.64
1846.53
1846.44
1846.36
1846.3
1846.26
1846.22
1846.2
1846.19
1846.19
1846.2
1846.21
1846.23
1846.25
1846.27
1846.29
1846.3
1846.31
1846.3
1846.27
1846.22
1846.14
1846.01
1845.82
1845.58
1845.26
3368.22
3171.73
2986.71
2820.79
2675.81
2550.98
2444.41
2353.91
2277.29
2212.54
2157.88
2111.73
2072.76
2039.83
2011.98
1988.39
1968.4
1951.41
1936.97
1924.66
1914.16
1905.18
1897.49
1890.89
1885.21
1880.33
1876.11
1872.46
1869.29
1866.54
1864.15
1862.06
1860.24
1858.63
1857.22
1855.98
1854.89
1853.92
1853.05
1852.28
1851.6
1850.99
1850.44
1849.95
1849.5
1849.11
1848.75
1848.43
1848.14
1847.89
1847.66
1847.45
1847.27
1847.11
1846.98
1846.86
1846.76
1846.68
1846.62
1846.57
1846.53
1846.51
1846.5
1846.49
1846.5
1846.51
1846.53
1846.55
1846.58
1846.6
1846.62
1846.63
1846.62
1846.6
1846.54
1846.46
1846.32
1846.13
1845.88
1845.54
3599.74
3338.8
3107.25
2909.11
2741.8
2601.24
2483.38
2384.61
2301.82
2232.39
2174.11
2125.14
2083.94
2049.22
2019.92
1995.15
1974.17
1956.38
1941.26
1928.39
1917.41
1908.03
1899.99
1893.1
1887.18
1882.07
1877.67
1873.86
1870.55
1867.68
1865.19
1863.01
1861.1
1859.43
1857.96
1856.66
1855.51
1854.5
1853.6
1852.8
1852.08
1851.44
1850.87
1850.36
1849.89
1849.48
1849.11
1848.77
1848.47
1848.2
1847.96
1847.75
1847.56
1847.39
1847.25
1847.12
1847.02
1846.94
1846.87
1846.82
1846.78
1846.75
1846.74
1846.74
1846.75
1846.76
1846.78
1846.81
1846.84
1846.86
1846.88
1846.89
1846.89
1846.87
1846.82
1846.73
1846.59
1846.4
1846.14
1845.79
3891.29
3529.24
3236.55
3000.19
2807.91
2650.4
2520.7
2413.45
2324.47
2250.44
2188.69
2137.05
2093.76
2057.41
2026.8
2000.97
1979.14
1960.64
1944.94
1931.58
1920.18
1910.45
1902.13
1894.98
1888.84
1883.55
1878.99
1875.04
1871.62
1868.65
1866.06
1863.8
1861.82
1860.09
1858.57
1857.22
1856.04
1854.98
1854.05
1853.22
1852.48
1851.81
1851.22
1850.69
1850.21
1849.78
1849.39
1849.04
1848.73
1848.45
1848.2
1847.98
1847.78
1847.61
1847.46
1847.33
1847.22
1847.13
1847.06
1847.01
1846.97
1846.95
1846.94
1846.94
1846.95
1846.96
1846.99
1847.02
1847.05
1847.08
1847.1
1847.12
1847.12
1847.1
1847.05
1846.96
1846.83
1846.63
1846.36
1846.01
3030.29
2903.65
2777.8
2658.66
2549.63
2452.2
2366.54
2292.08
2227.87
2172.79
2125.71
2085.56
2051.36
2022.26
1997.48
1976.39
1958.43
1943.11
1930.03
1918.85
1909.28
1901.07
1894.03
1887.97
1882.75
1878.25
1874.35
1870.97
1868.04
1865.49
1863.26
1861.32
1859.61
1858.11
1856.8
1855.63
1854.6
1853.68
1852.87
1852.14
1851.5
1850.92
1850.39
1849.93
1849.5
1849.13
1848.78
1848.48
1848.2
1847.95
1847.73
1847.54
1847.37
1847.21
1847.08
1846.97
1846.88
1846.8
1846.74
1846.69
1846.66
1846.64
1846.63
1846.63
1846.63
1846.65
1846.67
1846.69
1846.72
1846.74
1846.77
1846.78
1846.79
1846.77
1846.74
1846.67
1846.55
1846.38
1846.13
1845.8
3149.63
3003.01
2859.4
2725.49
2604.53
2497.52
2404.17
2323.5
2254.23
2195
2144.51
2101.54
2064.99
2033.92
2007.51
1985.03
1965.9
1949.59
1935.68
1923.78
1913.61
1904.89
1897.4
1890.96
1885.42
1880.63
1876.49
1872.9
1869.79
1867.08
1864.72
1862.65
1860.84
1859.25
1857.85
1856.61
1855.52
1854.54
1853.68
1852.91
1852.22
1851.6
1851.05
1850.55
1850.1
1849.7
1849.34
1849.01
1848.72
1848.45
1848.22
1848.01
1847.82
1847.66
1847.52
1847.4
1847.3
1847.21
1847.15
1847.09
1847.06
1847.03
1847.02
1847.02
1847.03
1847.04
1847.06
1847.09
1847.12
1847.14
1847.17
1847.19
1847.19
1847.18
1847.15
1847.07
1846.95
1846.77
1846.51
1846.17
3310.16
3128.95
2957.06
2801.47
2664.22
2544.97
2442.33
2354.53
2279.71
2216.1
2162.11
2116.32
2077.48
2044.53
2016.56
1992.8
1972.58
1955.37
1940.7
1928.16
1917.44
1908.25
1900.37
1893.59
1887.75
1882.71
1878.36
1874.58
1871.31
1868.46
1865.97
1863.79
1861.89
1860.22
1858.74
1857.44
1856.29
1855.27
1854.36
1853.55
1852.83
1852.18
1851.59
1851.07
1850.6
1850.17
1849.79
1849.45
1849.14
1848.86
1848.61
1848.39
1848.19
1848.02
1847.87
1847.75
1847.64
1847.55
1847.48
1847.42
1847.38
1847.35
1847.34
1847.34
1847.35
1847.36
1847.39
1847.41
1847.44
1847.47
1847.5
1847.52
1847.53
1847.53
1847.49
1847.42
1847.3
1847.11
1846.85
1846.49
3518.49
3280.97
3068.3
2884.14
2726.8
2593.19
2480.1
2384.54
2303.86
2235.77
2178.29
2129.74
2088.71
2053.99
2024.59
1999.64
1978.46
1960.43
1945.08
1931.97
1920.76
1911.17
1902.94
1895.86
1889.76
1884.51
1879.96
1876.02
1872.6
1869.63
1867.03
1864.76
1862.78
1861.03
1859.5
1858.14
1856.94
1855.87
1854.92
1854.08
1853.32
1852.65
1852.04
1851.49
1851
1850.56
1850.16
1849.8
1849.47
1849.18
1848.92
1848.69
1848.49
1848.31
1848.15
1848.02
1847.9
1847.81
1847.74
1847.68
1847.64
1847.61
1847.59
1847.59
1847.6
1847.62
1847.64
1847.68
1847.71
1847.74
1847.78
1847.8
1847.82
1847.81
1847.78
1847.71
1847.59
1847.4
1847.13
1846.77
3780.6
3453.09
3186.74
2968.8
2789.08
2640.07
2516.06
2412.58
2326.06
2253.58
2192.75
2141.61
2098.55
2062.22
2031.52
2005.53
1983.48
1964.75
1948.81
1935.21
1923.59
1913.64
1905.11
1897.78
1891.46
1886.02
1881.31
1877.23
1873.69
1870.61
1867.92
1865.57
1863.51
1861.71
1860.11
1858.71
1857.47
1856.36
1855.38
1854.5
1853.72
1853.02
1852.39
1851.82
1851.31
1850.86
1850.44
1850.07
1849.73
1849.43
1849.16
1848.92
1848.71
1848.52
1848.36
1848.22
1848.1
1848.01
1847.93
1847.87
1847.83
1847.8
1847.79
1847.79
1847.8
1847.82
1847.85
1847.88
1847.92
1847.96
1848
1848.03
1848.05
1848.05
1848.02
1847.95
1847.83
1847.64
1847.37
1847
3221.91
3373.72
3596.41
3910.81
4361.8
3301.35
3469.01
3718.38
4071.66
4566.26
3361.5
3539.86
3805.45
4178.22
4687.5
3399.37
3584.03
3858.36
4240.29
4754.72
3413.69
3601.14
3879.21
4264.8
4781.04
3403.95
3591.18
3869.15
4254.84
4771.44
3369.87
3553.81
3827.76
4209.86
4725.34
3311.4
3488.41
3753.04
4125.71
4636.43
3229.34
3394.76
3642.09
3994.2
4489.85
3126.33
3274.74
3493.49
3804.17
4253.64
3285.19
3442.54
3672.56
3996
4455.36
3367.48
3541.14
3798.61
4161.9
4665.56
3429.73
3614.43
3888.62
4271.99
4790.71
3468.85
3660.08
3943.32
4336.15
4860.17
3483.54
3677.66
3964.77
4361.4
4887.3
3473.25
3667.15
3954.16
4350.89
4877.19
3437.71
3628.21
3911.05
4304.08
4829.23
3376.87
3560.2
3833.42
4216.7
4736.96
3291.59
3462.96
3718.33
4080.44
4585.24
3184.62
3338.45
3564.4
3884
4341.85
3310.91
3468.38
3697.32
4018.84
4476.27
3393.04
3566.64
3822.77
4183.91
4685.56
3455.09
3639.66
3912.4
4293.53
4810.23
3493.99
3685.06
3966.81
4357.4
4879.44
3508.39
3702.35
3987.97
4382.37
4906.32
3497.74
3691.48
3976.99
4371.49
4895.85
3461.74
3652.1
3933.45
4324.24
4847.44
3400.44
3583.65
3855.4
4236.45
4754.76
3314.71
3486.03
3740.06
4100.04
4602.9
3207.35
3361.28
3586.16
3903.89
4359.92
3300.5
3452.53
3671.47
3979.1
4423.63
3379.54
3546.86
3791.61
4137.28
4625.28
3439.2
3616.98
3877.57
4242.48
4745.28
3476.46
3660.47
3929.72
4303.81
4811.95
3489.95
3676.76
3949.73
4327.55
4837.64
3479.09
3665.68
3938.55
4316.46
4826.93
3443.64
3626.96
3895.78
4270.03
4779.29
3383.68
3560.13
3819.72
4184.5
4688.83
3300.16
3465.26
3707.93
4052.43
4541.61
3195.86
3344.44
3559.42
3863.43
4306.77
3257.67
3398.67
3597.3
3873.24
4278.62
3330.99
3485.71
3707.29
4017.32
4463.19
3386.3
3550.53
3786.46
4114.2
4574.51
3420.68
3590.65
3834.58
4171.04
4636.94
3432.74
3605.29
3852.72
4192.77
4660.8
3421.85
3594.19
3841.48
4181.56
4649.91
3387.81
3557.08
3800.53
4136.98
4603.76
3330.8
3493.71
3728.58
4055.96
4517.41
3251.87
3404.43
3623.91
3932.58
4379.22
3153.72
3291.43
3486.27
3758.69
4162.85
4159.38
3659.73
3296.35
3019.25
2802.94
2631.64
2494.58
2384.01
2294.22
2220.86
2160.63
2110.94
2069.78
2035.55
2006.99
1983.09
1963.01
1946.1
1931.82
1919.73
1909.47
1900.74
1893.29
1886.92
1881.47
1876.78
1872.75
1869.27
1866.26
1863.65
1861.38
1859.41
1857.69
1856.18
1854.86
1853.7
1852.68
1851.77
1850.97
1850.26
1849.62
1849.06
1848.55
1848.1
1847.7
1847.34
1847.01
1846.72
1846.46
1846.23
1846.02
1845.84
1845.67
1845.53
1845.41
1845.31
1845.22
1845.15
1845.09
1845.05
1845.02
1845
1844.99
1845
1845
1845.02
1845.04
1845.06
1845.08
1845.09
1845.1
1845.1
1845.08
1845.04
1844.98
1844.88
1844.74
1844.55
1844.31
1844
4346.03
3801.57
3397.94
3091.54
2854.73
2669.18
2522.16
2404.58
2309.8
2232.86
2170.01
2118.4
2075.79
2040.47
2011.07
1986.5
1965.9
1948.57
1933.94
1921.57
1911.07
1902.14
1894.53
1888.02
1882.44
1877.65
1873.52
1869.96
1866.88
1864.22
1861.9
1859.88
1858.12
1856.57
1855.22
1854.03
1852.98
1852.05
1851.23
1850.5
1849.85
1849.27
1848.75
1848.29
1847.87
1847.5
1847.17
1846.87
1846.6
1846.36
1846.15
1845.96
1845.79
1845.65
1845.52
1845.41
1845.32
1845.25
1845.19
1845.15
1845.12
1845.1
1845.1
1845.1
1845.11
1845.13
1845.15
1845.18
1845.2
1845.22
1845.23
1845.24
1845.22
1845.18
1845.12
1845.02
1844.88
1844.69
1844.44
1844.13
4456.58
3895.74
3470.62
3145.39
2894.06
2697.84
2543.17
2420.15
2321.49
2241.77
2176.92
2123.85
2080.17
2044.04
2014.02
1988.97
1967.99
1950.36
1935.5
1922.93
1912.26
1903.19
1895.46
1888.85
1883.18
1878.31
1874.12
1870.5
1867.37
1864.66
1862.3
1860.24
1858.45
1856.88
1855.5
1854.29
1853.22
1852.27
1851.43
1850.69
1850.03
1849.43
1848.91
1848.43
1848.01
1847.63
1847.29
1846.98
1846.7
1846.46
1846.24
1846.05
1845.88
1845.73
1845.6
1845.49
1845.4
1845.32
1845.26
1845.22
1845.19
1845.18
1845.17
1845.18
1845.2
1845.22
1845.24
1845.27
1845.3
1845.33
1845.34
1845.35
1845.34
1845.3
1845.24
1845.14
1845
1844.81
1844.56
1844.24
4518.11
3951.02
3515.22
3179.34
2919.13
2716.12
2556.48
2429.89
2328.71
2247.2
2181.09
2127.11
2082.77
2046.16
2015.79
1990.47
1969.28
1951.49
1936.49
1923.8
1913.04
1903.89
1896.09
1889.41
1883.69
1878.78
1874.54
1870.89
1867.72
1864.98
1862.59
1860.51
1858.7
1857.11
1855.71
1854.48
1853.39
1852.43
1851.58
1850.83
1850.15
1849.55
1849.02
1848.54
1848.1
1847.72
1847.37
1847.06
1846.78
1846.53
1846.3
1846.11
1845.93
1845.78
1845.65
1845.54
1845.44
1845.37
1845.31
1845.27
1845.24
1845.23
1845.23
1845.24
1845.25
1845.28
1845.31
1845.35
1845.38
1845.41
1845.43
1845.44
1845.43
1845.4
1845.34
1845.24
1845.1
1844.91
1844.66
1844.33
4543.09
3973.79
3533.72
3193.29
2929.18
2723.17
2561.36
2433.26
2331.06
2248.88
2182.32
2128.05
2083.53
2046.81
2016.35
1990.98
1969.76
1951.93
1936.91
1924.2
1913.42
1904.25
1896.42
1889.73
1883.99
1879.06
1874.8
1871.13
1867.95
1865.19
1862.79
1860.69
1858.86
1857.26
1855.85
1854.61
1853.52
1852.55
1851.69
1850.92
1850.24
1849.64
1849.09
1848.6
1848.17
1847.77
1847.42
1847.11
1846.82
1846.57
1846.34
1846.14
1845.96
1845.81
1845.68
1845.56
1845.47
1845.39
1845.34
1845.29
1845.27
1845.26
1845.26
1845.27
1845.29
1845.32
1845.36
1845.4
1845.44
1845.47
1845.5
1845.51
1845.51
1845.48
1845.43
1845.33
1845.19
1845
1844.74
1844.42
4536.3
3966.95
3527.2
3187.33
2923.89
2718.58
2557.44
2429.97
2328.34
2246.66
2180.53
2126.63
2082.42
2045.95
2015.71
1990.51
1969.42
1951.71
1936.77
1924.13
1913.41
1904.28
1896.48
1889.81
1884.08
1879.16
1874.91
1871.24
1868.06
1865.29
1862.89
1860.79
1858.96
1857.35
1855.93
1854.69
1853.59
1852.61
1851.75
1850.98
1850.29
1849.68
1849.13
1848.64
1848.2
1847.81
1847.45
1847.13
1846.84
1846.59
1846.36
1846.16
1845.98
1845.82
1845.69
1845.57
1845.48
1845.4
1845.34
1845.3
1845.28
1845.27
1845.27
1845.29
1845.31
1845.35
1845.39
1845.43
1845.48
1845.52
1845.55
1845.57
1845.57
1845.55
1845.5
1845.41
1845.27
1845.08
1844.82
1844.49
4497.17
3930.01
3495.31
3161.21
2903.09
2702.24
2544.68
2420.01
2320.54
2240.55
2175.74
2122.86
2079.46
2043.62
2013.88
1989.08
1968.31
1950.84
1936.1
1923.62
1913.02
1903.98
1896.27
1889.66
1883.98
1879.09
1874.87
1871.22
1868.05
1865.3
1862.91
1860.81
1858.98
1857.37
1855.96
1854.72
1853.61
1852.64
1851.77
1851
1850.31
1849.7
1849.15
1848.66
1848.21
1847.81
1847.46
1847.13
1846.85
1846.59
1846.36
1846.15
1845.97
1845.81
1845.68
1845.56
1845.47
1845.39
1845.33
1845.29
1845.27
1845.26
1845.27
1845.29
1845.32
1845.36
1845.4
1845.45
1845.5
1845.55
1845.59
1845.61
1845.62
1845.6
1845.56
1845.47
1845.33
1845.14
1844.88
1844.55
4419.6
3859.01
3436.2
3114.35
2866.8
2674.4
2523.33
2403.6
2307.88
2230.72
2168.07
2116.85
2074.73
2039.89
2010.93
1986.74
1966.45
1949.36
1934.93
1922.69
1912.28
1903.4
1895.8
1889.29
1883.69
1878.86
1874.69
1871.08
1867.95
1865.22
1862.84
1860.77
1858.95
1857.35
1855.94
1854.7
1853.6
1852.63
1851.76
1850.99
1850.31
1849.69
1849.14
1848.65
1848.2
1847.8
1847.44
1847.12
1846.83
1846.57
1846.34
1846.13
1845.95
1845.79
1845.65
1845.54
1845.44
1845.37
1845.31
1845.27
1845.25
1845.24
1845.25
1845.27
1845.31
1845.35
1845.41
1845.46
1845.52
1845.57
1845.61
1845.65
1845.66
1845.65
1845.6
1845.52
1845.39
1845.2
1844.94
1844.6
4289.34
3746.36
3347.18
3046.42
2815.54
2635.74
2494.06
2381.29
2290.75
2217.48
2157.76
2108.78
2068.37
2034.85
2006.92
1983.54
1963.89
1947.31
1933.28
1921.36
1911.2
1902.53
1895.1
1888.72
1883.23
1878.49
1874.39
1870.83
1867.74
1865.06
1862.71
1860.65
1858.85
1857.27
1855.88
1854.64
1853.55
1852.59
1851.73
1850.96
1850.27
1849.66
1849.11
1848.62
1848.17
1847.77
1847.41
1847.09
1846.8
1846.54
1846.31
1846.1
1845.92
1845.76
1845.62
1845.51
1845.41
1845.33
1845.28
1845.24
1845.22
1845.21
1845.23
1845.25
1845.29
1845.34
1845.4
1845.46
1845.52
1845.58
1845.63
1845.67
1845.69
1845.68
1845.64
1845.56
1845.43
1845.25
1844.99
1844.65
4076.19
3581.86
3226.77
2958.56
2750.9
2587.68
2457.95
2353.89
2269.76
2201.26
2145.14
2098.88
2060.56
2028.66
2001.98
1979.59
1960.71
1944.75
1931.2
1919.67
1909.83
1901.41
1894.19
1887.97
1882.61
1877.98
1873.97
1870.49
1867.46
1864.82
1862.51
1860.49
1858.71
1857.15
1855.77
1854.55
1853.47
1852.52
1851.66
1850.9
1850.22
1849.61
1849.07
1848.57
1848.13
1847.73
1847.37
1847.05
1846.76
1846.5
1846.27
1846.06
1845.88
1845.72
1845.58
1845.46
1845.37
1845.29
1845.24
1845.2
1845.18
1845.18
1845.19
1845.22
1845.26
1845.32
1845.38
1845.45
1845.51
1845.58
1845.64
1845.68
1845.71
1845.71
1845.67
1845.6
1845.47
1845.29
1845.03
1844.7
4244.47
3734.38
3359.84
3073.24
2849.02
2671.07
2528.39
2413.05
2319.18
2242.34
2179.14
2126.93
2083.61
2047.55
2017.42
1992.18
1970.96
1953.07
1937.95
1925.14
1914.26
1905
1897.09
1890.33
1884.53
1879.55
1875.25
1871.55
1868.35
1865.57
1863.15
1861.05
1859.21
1857.61
1856.2
1854.95
1853.86
1852.89
1852.04
1851.27
1850.6
1849.99
1849.45
1848.97
1848.53
1848.14
1847.79
1847.48
1847.2
1846.95
1846.73
1846.53
1846.35
1846.2
1846.07
1845.96
1845.86
1845.79
1845.73
1845.68
1845.65
1845.63
1845.62
1845.62
1845.63
1845.65
1845.67
1845.69
1845.72
1845.74
1845.75
1845.75
1845.73
1845.7
1845.63
1845.53
1845.39
1845.19
1844.93
1844.61
4436.43
3880.8
3464.94
3148.14
2902.77
2710.11
2557.13
2434.52
2335.48
2254.92
2189
2134.77
2089.95
2052.74
2021.72
1995.78
1974.01
1955.68
1940.2
1927.09
1915.96
1906.48
1898.4
1891.48
1885.56
1880.46
1876.07
1872.29
1869.01
1866.17
1863.7
1861.54
1859.66
1858.02
1856.57
1855.3
1854.18
1853.19
1852.31
1851.53
1850.83
1850.21
1849.66
1849.16
1848.72
1848.32
1847.96
1847.64
1847.35
1847.09
1846.86
1846.66
1846.48
1846.32
1846.18
1846.07
1845.97
1845.89
1845.83
1845.79
1845.75
1845.74
1845.73
1845.73
1845.75
1845.77
1845.79
1845.82
1845.85
1845.87
1845.89
1845.89
1845.88
1845.85
1845.78
1845.68
1845.54
1845.34
1845.08
1844.75
4550.64
3978.2
3540.17
3203.94
2943.57
2739.9
2579.01
2450.76
2347.7
2264.25
2196.25
2140.5
2094.55
2056.49
2024.83
1998.39
1976.22
1957.58
1941.84
1928.52
1917.21
1907.59
1899.38
1892.36
1886.34
1881.16
1876.7
1872.86
1869.52
1866.63
1864.12
1861.93
1860.02
1858.34
1856.87
1855.57
1854.43
1853.42
1852.52
1851.73
1851.02
1850.38
1849.82
1849.31
1848.86
1848.45
1848.08
1847.75
1847.46
1847.19
1846.96
1846.75
1846.57
1846.4
1846.27
1846.15
1846.05
1845.97
1845.91
1845.86
1845.83
1845.81
1845.81
1845.82
1845.83
1845.86
1845.89
1845.92
1845.95
1845.98
1846
1846.01
1846
1845.97
1845.91
1845.81
1845.67
1845.47
1845.2
1844.87
4614.33
4035.42
3586.36
3239.11
2969.57
2758.88
2592.84
2460.91
2355.23
2269.93
2200.61
2143.92
2097.29
2058.73
2026.7
1999.97
1977.58
1958.76
1942.88
1929.44
1918.04
1908.33
1900.05
1892.96
1886.88
1881.65
1877.15
1873.26
1869.89
1866.97
1864.43
1862.21
1860.27
1858.58
1857.09
1855.77