/*--------------------------------*- C++ -*----------------------------------*\
| =========                 |                                                 |
| \\      /  F ield         | OpenFOAM: The Open Source CFD Toolbox           |
|  \\    /   O peration     | Version:  v1912                                 |
|   \\  /    A nd           | Website:  www.openfoam.com                      |
|    \\/     M anipulation  |                                                 |
\*---------------------------------------------------------------------------*/
FoamFile
{
    version     2.0;
    format      ascii;
    class       volScalarField;
    location    "935";
    object      k;
}
// * * * * * * * * * * * * * * * * * * * * * * * * * * * * * * * * * * * * * //

dimensions      [0 2 -2 0 0 0 0];


internalField   nonuniform List<scalar> 
104000
(
0.000944455
0.00110369
0.00119912
0.00125142
0.00127956
0.00101345
0.001164
0.00124518
0.00128811
0.00131059
0.00106603
0.00121419
0.00128998
0.00132999
0.00135162
0.00110283
0.00124628
0.00132862
0.00137447
0.00140184
0.00101672
0.00109535
0.00122835
0.00130105
0.0013367
0.000953967
0.00113685
0.00126726
0.00135829
0.00142097
0.00125456
0.00171003
0.00166488
0.0016031
0.00159073
0.00141123
0.00197633
0.00194181
0.00187368
0.00184578
0.00149957
0.00216417
0.00234003
0.00233649
0.00229606
0.00128035
0.00195524
0.00259574
0.00258048
0.00224686
0.000985201
0.00117788
0.00133622
0.00147425
0.00159007
0.00145756
0.00210192
0.00213641
0.0021535
0.0022252
0.00170774
0.00253399
0.00260598
0.0026271
0.00268493
0.00182955
0.00280823
0.00323399
0.00338541
0.00342333
0.00148906
0.00234275
0.00321628
0.0031819
0.00269539
0.00103102
0.00121687
0.00138618
0.00155078
0.00170963
0.00162439
0.00240695
0.00255716
0.00267183
0.00282753
0.00196062
0.00296236
0.00319617
0.00334941
0.00350678
0.00209076
0.00325319
0.00396605
0.0043843
0.00457599
0.00165052
0.00251725
0.00354524
0.00354745
0.00301899
0.00108644
0.00127036
0.00144116
0.00161138
0.00179521
0.00176294
0.00264998
0.0029466
0.00318201
0.0034348
0.00218175
0.00332049
0.00376603
0.00410982
0.00442407
0.00229762
0.00356502
0.00455744
0.00535512
0.00591425
0.00178102
0.00259869
0.00377551
0.00387408
0.00340931
0.00129017
0.00128418
0.0012646
0.00123465
0.00119745
0.00115585
0.00111223
0.0010684
0.00102566
0.000984833
0.00131767
0.00131299
0.00129492
0.00126613
0.00122925
0.00118676
0.0011407
0.00109269
0.00104396
0.000995528
0.0013589
0.00135544
0.00134331
0.00132503
0.00130254
0.00127575
0.00124533
0.00121203
0.0011755
0.00113275
0.00141691
0.00142353
0.00142265
0.00141621
0.001405
0.00138909
0.00136801
0.00134053
0.00130493
0.00125891
0.00135885
0.00136735
0.0013661
0.00135788
0.00134532
0.00133106
0.00131784
0.00130734
0.00129901
0.00128088
0.00145931
0.00147633
0.00146913
0.00144077
0.0013954
0.00133779
0.00127264
0.00120422
0.00113598
0.0010705
0.00159213
0.00159628
0.00159884
0.00158217
0.0015483
0.00150241
0.00145013
0.00139581
0.00133926
0.00127217
0.00182917
0.00182445
0.00182941
0.00184082
0.00185816
0.00188346
0.00191581
0.00195146
0.00198412
0.00200568
0.00225498
0.0022616
0.00228991
0.00233533
0.00238838
0.00244473
0.00250376
0.00257383
0.00265349
0.0027505
0.00164965
0.00168821
0.00172774
0.00176812
0.00181764
0.00189091
0.00201103
0.00220417
0.00247602
0.00276328
0.00167338
0.0017295
0.00175543
0.0017518
0.00172151
0.00166929
0.00160053
0.00152067
0.00143474
0.00134723
0.00229833
0.0023563
0.00239604
0.00242743
0.00243754
0.00242999
0.00240965
0.00237853
0.00233104
0.00224827
0.00274059
0.00279572
0.00285066
0.00290639
0.00296262
0.00302097
0.00308192
0.00314289
0.00319709
0.00322472
0.00340973
0.00343406
0.0034682
0.00350457
0.00353649
0.00356807
0.00361285
0.00369587
0.00382546
0.00403337
0.00199124
0.00207176
0.002143
0.00220907
0.0022861
0.00240193
0.00260001
0.00292973
0.00340733
0.00392147
0.00184291
0.00193865
0.00200451
0.00203572
0.00203431
0.00200386
0.00194935
0.00187617
0.00178964
0.00169162
0.00297121
0.00308803
0.00317204
0.00323773
0.00328959
0.00331978
0.00332901
0.00331485
0.00326631
0.00314622
0.003632
0.00372697
0.00380264
0.00386851
0.00393442
0.00400461
0.00407888
0.00415005
0.00420509
0.0042273
0.00458676
0.00457983
0.00456024
0.00451745
0.0044656
0.00442794
0.00443718
0.00452561
0.00470494
0.00500074
0.00234398
0.00246192
0.00254491
0.00260782
0.00268162
0.00281154
0.00306254
0.00350195
0.00413193
0.00482063
0.00196488
0.00210173
0.00219894
0.00226409
0.00229389
0.00229092
0.00226028
0.00220895
0.00214314
0.00203479
0.00366407
0.00385083
0.00398612
0.00407548
0.00414309
0.0041957
0.00422165
0.00421205
0.00414392
0.00399164
0.00467282
0.00482502
0.00491771
0.00496158
0.00499583
0.00503801
0.00509113
0.00514147
0.00517656
0.00518406
0.00622187
0.00622589
0.00611179
0.00585317
0.00555253
0.00528667
0.00513927
0.00516152
0.00541179
0.00584449
0.00275024
0.00289798
0.00297223
0.00299553
0.00303488
0.00316781
0.00349228
0.00409003
0.00489254
0.00582453
0.000946721
0.000910404
0.000879659
0.000852953
0.000829407
0.000808179
0.000788764
0.000770759
0.00075388
0.000737914
0.000722717
0.000708181
0.00069423
0.000680803
0.000667852
0.000655339
0.000643233
0.000631494
0.000620073
0.000608935
0.000598048
0.000587385
0.000576923
0.000566669
0.000556618
0.000546758
0.00053708
0.000527572
0.000518226
0.000509033
0.000499983
0.000491067
0.000482277
0.000473602
0.000465032
0.000456556
0.000448164
0.000439841
0.000431576
0.000423354
0.000415159
0.000406973
0.000398779
0.000390554
0.000382277
0.000373922
0.000365461
0.000356865
0.0003481
0.00033913
0.000329915
0.000320415
0.000310585
0.000300383
0.000289765
0.000278695
0.000267151
0.000255131
0.000242671
0.000229862
0.000216873
0.000203972
0.000191537
0.000180039
0.000169981
0.000161793
0.000155707
0.000151686
0.000149447
0.000148561
0.000148574
0.000149088
0.000149782
0.000150398
0.000150702
0.000150416
0.000149155
0.000146323
0.000140983
0.000132344
0.000948911
0.000898352
0.000859421
0.000829309
0.000805701
0.000786224
0.00076944
0.000754302
0.00074042
0.000727534
0.000715463
0.000704079
0.000693278
0.000682979
0.000673114
0.000663607
0.000654299
0.000645154
0.000636152
0.000627271
0.000618492
0.000609795
0.000601164
0.000592579
0.000584191
0.000576022
0.000568063
0.000560306
0.000552742
0.000545366
0.000538167
0.000531139
0.000524272
0.000517557
0.000510983
0.00050454
0.000498213
0.00049199
0.000485855
0.000479791
0.000473777
0.000467792
0.00046181
0.000455802
0.000449737
0.000443578
0.000437284
0.000430808
0.000424099
0.000417097
0.000409738
0.00040195
0.000393655
0.000384768
0.0003752
0.000364861
0.000353661
0.000341525
0.000328394
0.000314253
0.000299143
0.000283189
0.000266631
0.000249842
0.000233358
0.000217859
0.000204102
0.000192787
0.000184393
0.000179049
0.000176508
0.000176261
0.000177701
0.000180253
0.000183398
0.00018657
0.000189027
0.000189706
0.000186898
0.000179474
0.00108071
0.00100388
0.000945682
0.000904127
0.000873037
0.000847894
0.000826747
0.000808489
0.000792227
0.00077739
0.000763591
0.000750602
0.000738232
0.000726356
0.000714883
0.000703767
0.000693067
0.000682748
0.000672778
0.000663133
0.000653811
0.00064482
0.000636146
0.000627779
0.000619711
0.000611932
0.000604432
0.000597202
0.000590233
0.000583517
0.000577044
0.000570805
0.000564793
0.000558996
0.000553404
0.000548005
0.000542787
0.000537735
0.000532834
0.000528065
0.000523409
0.00051884
0.000514334
0.000509857
0.000505375
0.000500847
0.000496226
0.000491457
0.000486482
0.00048123
0.000475624
0.000469576
0.000462988
0.000455752
0.000447749
0.000438854
0.000428936
0.000417866
0.000405525
0.000391823
0.000376714
0.000360225
0.000342478
0.000323706
0.000304281
0.000284767
0.000265897
0.000248544
0.000233623
0.000221933
0.000213935
0.000209622
0.000208519
0.000209937
0.000213149
0.000217312
0.000221317
0.000223679
0.000222133
0.000215328
0.00119576
0.00111082
0.00103282
0.000981596
0.00094552
0.00091707
0.000893126
0.000871978
0.000852768
0.00083498
0.000818329
0.000802589
0.00078765
0.000773426
0.000759856
0.000746896
0.000734508
0.000722663
0.000711337
0.000700507
0.000690155
0.000680262
0.000670813
0.000661792
0.000653186
0.000644981
0.000637164
0.000629723
0.000622647
0.000615923
0.000609542
0.000603491
0.00059776
0.000592337
0.000587211
0.00058237
0.000577799
0.000573485
0.000569412
0.000565563
0.000561916
0.00055845
0.000555138
0.000551946
0.00054884
0.000545775
0.0005427
0.000539558
0.000536281
0.000532795
0.000529015
0.000524841
0.000520163
0.000514852
0.000508769
0.000501758
0.000493654
0.000484283
0.000473472
0.000461064
0.000446946
0.000431074
0.000413505
0.000394396
0.000373961
0.000352653
0.000331073
0.000310012
0.000290422
0.00027335
0.000259764
0.000250283
0.000244885
0.000243055
0.000244071
0.000246943
0.000250294
0.000252377
0.000250634
0.000243838
0.00122723
0.00119056
0.0011059
0.0010522
0.00101529
0.000985833
0.000960431
0.000937378
0.000915941
0.000895713
0.000876489
0.000858147
0.000840618
0.000823856
0.000807829
0.000792511
0.000777881
0.00076392
0.000750611
0.000737937
0.000725881
0.000714427
0.000703558
0.00069326
0.000683518
0.000674314
0.000665635
0.000657466
0.00064979
0.000642595
0.000635866
0.000629588
0.000623748
0.000618333
0.000613328
0.000608719
0.000604493
0.000600634
0.000597129
0.00059396
0.00059111
0.000588557
0.000586279
0.000584247
0.000582426
0.000580772
0.000579233
0.000577743
0.000576222
0.000574593
0.000572765
0.000570632
0.000568071
0.000564939
0.000561071
0.000556286
0.000550379
0.000543132
0.000534313
0.000523698
0.000511095
0.000496394
0.000479638
0.000461019
0.000440537
0.000418617
0.000395721
0.000372528
0.000349876
0.000328812
0.000310497
0.000295999
0.000285779
0.000279639
0.000277033
0.00027699
0.000278034
0.000278358
0.000275358
0.000268062
0.0010099
0.000949818
0.0009056
0.000872167
0.000844828
0.000820647
0.000798263
0.000777625
0.000758357
0.000740183
0.000722927
0.000706463
0.000690695
0.000675546
0.000660952
0.00064686
0.000633223
0.000620145
0.000607679
0.00059581
0.000584519
0.00057379
0.000563608
0.00055393
0.000544681
0.000535755
0.00052713
0.000518792
0.000510723
0.000502909
0.000495336
0.000487987
0.000480848
0.000473903
0.000467134
0.000460525
0.000454056
0.000447709
0.00044146
0.000435287
0.000429164
0.000423061
0.000416947
0.000410786
0.000404535
0.000398151
0.000391582
0.00038477
0.000377649
0.000370149
0.00036219
0.000353686
0.00034455
0.000334689
0.000324019
0.000312466
0.000299986
0.000286578
0.000272312
0.000257359
0.000242022
0.000226754
0.00021215
0.000198887
0.00018761
0.000178774
0.00017253
0.000168701
0.000166873
0.000166537
0.000167208
0.00016847
0.00016998
0.000171429
0.000172479
0.000172674
0.000171299
0.000167174
0.000158215
0.000141774
0.00116592
0.000968266
0.000824425
0.000734239
0.000675638
0.000635081
0.000604841
0.00058054
0.00056009
0.000542442
0.000526834
0.000513015
0.000500877
0.000490193
0.000480831
0.000472721
0.000465816
0.00045996
0.000455028
0.000450957
0.0004477
0.000445223
0.000443506
0.000442546
0.000442199
0.000442271
0.000442659
0.000443343
0.000444305
0.00044553
0.000447003
0.000448708
0.000450629
0.000452752
0.000455057
0.000457529
0.000460147
0.000462888
0.000465729
0.000468639
0.000471588
0.000474534
0.000477433
0.00048023
0.000482863
0.000485256
0.000487322
0.000488956
0.000490037
0.000490423
0.000489951
0.000488437
0.000485675
0.000481441
0.0004755
0.000467613
0.000457557
0.00044514
0.00043024
0.000412841
0.000393084
0.000371312
0.000348114
0.000324338
0.000301065
0.000279503
0.000260804
0.000245841
0.000235023
0.000228254
0.000225049
0.000224715
0.000226499
0.000229646
0.000233366
0.000236626
0.000237778
0.000234204
0.000220626
0.000188285
0.00195361
0.0015682
0.00123322
0.00105148
0.000943275
0.000875226
0.000827717
0.000791974
0.000762421
0.000737003
0.000714757
0.000694929
0.000677012
0.000660842
0.00064628
0.000633202
0.00062151
0.000611129
0.000602006
0.000594
0.000586972
0.000580862
0.000575622
0.000571203
0.000567558
0.000564645
0.000562425
0.000560864
0.000559928
0.000559585
0.000559803
0.000560553
0.000561804
0.000563526
0.00056569
0.000568263
0.000571216
0.000574516
0.000578127
0.000582012
0.000586129
0.000590431
0.000594865
0.000599371
0.000603877
0.000608303
0.000612554
0.000616518
0.000620066
0.000623044
0.000625274
0.000626552
0.000626644
0.000625287
0.000622193
0.000617055
0.000609551
0.00059936
0.000586184
0.000569778
0.000549996
0.00052684
0.000500528
0.000471557
0.000440769
0.000409354
0.000378787
0.00035066
0.000326413
0.000307034
0.000292848
0.000283495
0.000278047
0.00027526
0.000273732
0.000271796
0.000267198
0.000257293
0.000239535
0.000222302
0.00278985
0.00226953
0.00164622
0.00134996
0.00119912
0.00111229
0.00105365
0.00100923
0.000972588
0.000940777
0.000912288
0.000886326
0.000862441
0.000840369
0.000819938
0.000801035
0.000783574
0.000767492
0.000752735
0.000739256
0.000727013
0.000715967
0.000706083
0.000697327
0.000689661
0.00068305
0.000677457
0.000672846
0.000669179
0.000666419
0.000664528
0.00066347
0.000663205
0.000663695
0.000664902
0.000666787
0.000669309
0.000672429
0.000676102
0.000680284
0.000684927
0.000689978
0.000695379
0.000701063
0.000706957
0.000712975
0.000719019
0.000724976
0.000730716
0.000736086
0.000740908
0.000744973
0.00074804
0.000749833
0.000750041
0.000748317
0.000744287
0.000737546
0.000727675
0.000714261
0.000696932
0.000675398
0.000649515
0.000619385
0.000585475
0.000548643
0.0005102
0.000471863
0.000435573
0.00040319
0.000376099
0.000354885
0.000339094
0.000327445
0.000318141
0.000308912
0.000296782
0.000278627
0.00025399
0.000249362
0.00297794
0.00310904
0.00205101
0.00160653
0.00141103
0.00131117
0.00124842
0.00120177
0.00116269
0.00112767
0.0010952
0.0010646
0.0010356
0.00100806
0.000981955
0.000957254
0.00093396
0.000912076
0.000891603
0.000872544
0.000854895
0.000838652
0.000823806
0.000810343
0.000798247
0.000787497
0.000778067
0.000769928
0.000763049
0.000757393
0.000752925
0.000749602
0.000747384
0.000746228
0.000746088
0.000746918
0.000748672
0.000751302
0.000754758
0.000758989
0.000763942
0.000769558
0.000775775
0.000782524
0.000789726
0.000797292
0.000805115
0.000813068
0.000821023
0.00082883
0.000836315
0.000843272
0.000849459
0.000854598
0.000858368
0.000860405
0.000860309
0.000857637
0.000851906
0.000842602
0.000829199
0.000811178
0.000788069
0.000759569
0.000725789
0.000687124
0.00064451
0.000599446
0.000553951
0.000510337
0.000470825
0.000437075
0.000409527
0.00038736
0.000368757
0.00035103
0.000330512
0.00030327
0.000269787
0.000272537
0.00125246
0.00113657
0.00105187
0.000991496
0.000947075
0.00091144
0.000881056
0.00085399
0.000829259
0.000806247
0.000784668
0.000764349
0.00074517
0.000727038
0.000709873
0.000693603
0.000678168
0.000663518
0.000649602
0.000636373
0.000623785
0.000611798
0.000600373
0.000589477
0.000579125
0.00056936
0.000559984
0.000550968
0.000542293
0.00053394
0.000525891
0.000518126
0.000510625
0.000503369
0.000496335
0.000489501
0.00048284
0.000476328
0.000469933
0.000463626
0.000457369
0.000451124
0.000444847
0.000438489
0.000431995
0.000425304
0.000418347
0.000411048
0.000403321
0.000395075
0.00038621
0.000376621
0.000366203
0.000354855
0.000342492
0.000329059
0.000314547
0.000299025
0.000282666
0.000265777
0.000248825
0.000232431
0.00021732
0.000204211
0.00019367
0.000185968
0.000181028
0.000178487
0.000177835
0.000178547
0.000180158
0.000182278
0.000184555
0.000186622
0.000188024
0.000188096
0.000185804
0.000179507
0.000166537
0.00014452
0.00206112
0.00169723
0.00141365
0.00123163
0.00111364
0.00103219
0.000970423
0.000920179
0.000877351
0.000839837
0.000806336
0.000776048
0.000748484
0.000723331
0.000700372
0.000679447
0.00066043
0.000643202
0.000627651
0.000613681
0.000601193
0.000590093
0.000580288
0.000571691
0.000564219
0.000557944
0.000552642
0.000548204
0.000544569
0.000541679
0.00053948
0.000537917
0.000536941
0.000536502
0.00053655
0.000537036
0.000537912
0.000539125
0.000540623
0.000542349
0.000544242
0.000546232
0.000548245
0.000550196
0.000551987
0.000553507
0.000554632
0.000555216
0.000555093
0.000554076
0.000551952
0.000548489
0.00054343
0.00053651
0.000527458
0.000516024
0.000501996
0.000485243
0.000465749
0.000443666
0.000419367
0.000393488
0.000366937
0.000340864
0.000316563
0.000295288
0.000278032
0.000265337
0.000257221
0.00025326
0.00025277
0.000254968
0.000259043
0.00026412
0.000269133
0.000272529
0.000271755
0.000262791
0.000238185
0.000188954
0.00316519
0.00260426
0.00205262
0.00173262
0.00153991
0.00141933
0.00133366
0.00126653
0.00121073
0.00116222
0.00111885
0.0010793
0.00104276
0.00100891
0.000977546
0.000948461
0.000921404
0.000896226
0.000872803
0.000851124
0.000831186
0.000812912
0.000796233
0.00078108
0.00076739
0.000755099
0.000744144
0.000734461
0.000725993
0.000718681
0.000712467
0.000707294
0.000703104
0.000699838
0.00069744
0.000695848
0.000695004
0.000694843
0.000695302
0.00069631
0.000697794
0.000699674
0.000701862
0.000704261
0.000706763
0.000709247
0.000711574
0.00071359
0.000715117
0.000715957
0.000715881
0.000714637
0.000711941
0.000707487
0.000700946
0.000691983
0.000680265
0.000665491
0.000647416
0.00062589
0.000600909
0.000572673
0.000541651
0.00050864
0.000474796
0.000441588
0.00041065
0.000383535
0.000361414
0.000344851
0.000333724
0.000327327
0.000324515
0.000323839
0.000323546
0.00032133
0.000313792
0.000296421
0.0002636
0.000221883
0.00420464
0.00356958
0.00261972
0.00212163
0.00186218
0.0017185
0.00162535
0.00155565
0.00149734
0.00144534
0.00139734
0.0013523
0.00130973
0.00126943
0.00123125
0.00119513
0.001161
0.00112884
0.0010986
0.00107025
0.00104376
0.00101909
0.000996199
0.000975055
0.000955615
0.000937837
0.000921675
0.000907084
0.000894014
0.000882416
0.000872237
0.000863423
0.00085592
0.000849668
0.00084461
0.000840683
0.000837825
0.000835969
0.000835047
0.000834984
0.000835703
0.000837119
0.000839139
0.000841661
0.000844573
0.000847748
0.000851043
0.000854297
0.000857332
0.000859944
0.000861908
0.000862969
0.000862838
0.0008612
0.000857705
0.000851977
0.000843616
0.000832219
0.000817386
0.000798746
0.000776005
0.000748992
0.000717731
0.00068254
0.000644151
0.00060374
0.000562927
0.000523643
0.000487855
0.000457193
0.000432604
0.000414141
0.000400902
0.00039121
0.000382776
0.00037258
0.000356332
0.000328716
0.000285412
0.000248838
0.00434287
0.00476581
0.00320311
0.00246001
0.00212373
0.00196068
0.00186636
0.00179957
0.00174376
0.00169264
0.00164378
0.00159639
0.00155028
0.0015055
0.00146215
0.00142036
0.00138021
0.0013418
0.00130517
0.00127038
0.00123745
0.00120642
0.00117728
0.00115005
0.00112473
0.0011013
0.00107975
0.00106005
0.00104218
0.00102611
0.00101179
0.000999172
0.000988212
0.000978853
0.000971036
0.000964699
0.000959777
0.0009562
0.000953895
0.000952785
0.000952787
0.000953812
0.000955764
0.000958536
0.000962011
0.000966055
0.000970519
0.000975229
0.000979986
0.000984583
0.000988793
0.000992367
0.00099499
0.000996343
0.000996076
0.000993805
0.000989105
0.000981538
0.000970657
0.000955966
0.000936996
0.000913317
0.000884575
0.000850593
0.000811633
0.000768354
0.000721977
0.000674309
0.000627587
0.000584153
0.000545978
0.000514193
0.000488643
0.000467906
0.0004495
0.000429858
0.000403834
0.000365008
0.000309275
0.000272521
0.00156295
0.00139393
0.00126852
0.00117929
0.00111541
0.00106555
0.00102399
0.000987441
0.000954285
0.000923596
0.000894874
0.000867829
0.00084229
0.000818149
0.000795322
0.000773745
0.000753356
0.000734092
0.000715893
0.000698695
0.000682435
0.000667051
0.00065248
0.000638662
0.000625536
0.000613061
0.000601362
0.000590286
0.000579674
0.000569492
0.000559708
0.000550291
0.000541213
0.000532443
0.000523951
0.000515704
0.00050767
0.000499812
0.000492093
0.000484472
0.000476904
0.000469338
0.000461722
0.000453995
0.000446091
0.000437937
0.000429454
0.000420555
0.000411147
0.00040113
0.000390403
0.000378867
0.000366429
0.000353016
0.000338589
0.000323158
0.000306811
0.000289739
0.00027226
0.000254835
0.00023806
0.000222621
0.000209195
0.000198318
0.000190264
0.000184989
0.000182173
0.000181345
0.000182006
0.000183707
0.000186073
0.000188775
0.000191486
0.000193815
0.000195228
0.000194934
0.00019172
0.000183764
0.000168284
0.000143524
0.00289699
0.00240939
0.00201948
0.00176461
0.00159973
0.00148616
0.00139981
0.00132851
0.00126633
0.00121029
0.00115886
0.00111123
0.00106689
0.00102554
0.000986949
0.000950949
0.000917409
0.000886207
0.000857235
0.000830395
0.00080559
0.000782725
0.000761708
0.00074245
0.000724863
0.00070886
0.000694447
0.000681434
0.000669735
0.000659268
0.000649953
0.000641713
0.000634467
0.000628137
0.000622645
0.000617911
0.000613857
0.000610401
0.000607458
0.000604941
0.000602756
0.000600804
0.000598977
0.000597156
0.00059521
0.000592994
0.000590347
0.00058709
0.000583025
0.000577934
0.00057158
0.000563712
0.00055407
0.000542399
0.00052847
0.000512103
0.000493207
0.000471818
0.000448151
0.000422635
0.000395947
0.00036901
0.000342946
0.000318972
0.000298232
0.000281602
0.000269531
0.000262
0.000258609
0.000258741
0.000261695
0.000266766
0.000273205
0.000280125
0.000286302
0.000289847
0.000287651
0.000274975
0.00024342
0.00018478
0.0041378
0.00346778
0.00278958
0.0023814
0.00213438
0.00198091
0.00187249
0.00178685
0.00171318
0.00164666
0.00158497
0.00152714
0.00147272
0.00142128
0.00137255
0.00132635
0.00128265
0.00124136
0.0012024
0.0011657
0.00113117
0.00109876
0.00106838
0.00103998
0.00101348
0.00098883
0.000965959
0.000944803
0.000925299
0.000907384
0.000890992
0.000876058
0.000862516
0.000850295
0.000839326
0.000829535
0.000820845
0.000813177
0.000806444
0.000800557
0.000795418
0.000790919
0.000786944
0.000783364
0.000780035
0.0007768
0.00077348
0.00076988
0.00076578
0.000760943
0.000755105
0.000747985
0.000739281
0.00072868
0.000715866
0.000700541
0.000682445
0.00066139
0.000637305
0.000610275
0.000580596
0.000548815
0.000515763
0.000482554
0.00045054
0.000421166
0.000395753
0.000375275
0.000360188
0.000350404
0.000345369
0.000344202
0.000345753
0.000348584
0.000350806
0.000349733
0.000341231
0.000319622
0.000277103
0.000216492
0.00526448
0.00456072
0.00344132
0.0028277
0.00250405
0.00232796
0.00221623
0.00213258
0.002061
0.0019951
0.00193231
0.00187175
0.00181312
0.00175642
0.00170168
0.00164898
0.00159836
0.00154987
0.00150352
0.00145933
0.00141729
0.00137738
0.00133959
0.0013039
0.00127026
0.00123866
0.00120905
0.0011814
0.00115565
0.00113176
0.00110968
0.00108935
0.00107071
0.00105371
0.00103827
0.00102433
0.00101182
0.00100065
0.000990756
0.000982041
0.000974412
0.000967766
0.000961989
0.000956954
0.000952519
0.000948524
0.00094479
0.000941112
0.000937262
0.00093299
0.000928022
0.000922066
0.000914817
0.000905942
0.00089509
0.000881897
0.000865998
0.00084705
0.000824758
0.00079892
0.000769472
0.00073655
0.000700558
0.000662255
0.000622798
0.000583683
0.000546614
0.000513273
0.000485026
0.000462678
0.000446346
0.00043545
0.000428754
0.000424418
0.000419939
0.000411853
0.000395037
0.000362741
0.000307503
0.000243572
0.00542247
0.00593683
0.00411617
0.00320253
0.00278623
0.00259079
0.00248394
0.00241047
0.00234815
0.00228889
0.00222994
0.00217074
0.00211144
0.00205245
0.00199416
0.00193692
0.00188103
0.00182669
0.00177409
0.00172334
0.00167454
0.00162778
0.0015831
0.00154055
0.00150015
0.00146193
0.00142588
0.00139201
0.0013603
0.00133073
0.00130327
0.00127789
0.00125453
0.00123315
0.00121368
0.00119606
0.00118023
0.0011661
0.0011536
0.00114263
0.00113311
0.00112492
0.00111795
0.00111208
0.00110717
0.00110305
0.00109953
0.00109643
0.00109347
0.00109036
0.00108682
0.00108247
0.00107704
0.0010702
0.00106159
0.00105085
0.00103757
0.00102135
0.00100179
0.000978527
0.000951285
0.000919869
0.000884243
0.000844648
0.000801802
0.000756859
0.000711462
0.000667573
0.000627193
0.000592005
0.000563033
0.000540408
0.000523216
0.00050952
0.000496388
0.000479676
0.000453286
0.000409199
0.000339521
0.000268132
0.00188096
0.00167036
0.00151557
0.001405
0.00132686
0.00126649
0.00121642
0.00117214
0.00113153
0.00109339
0.00105711
0.00102237
0.000989032
0.00095702
0.00092631
0.000896891
0.00086876
0.000841907
0.000816317
0.00079197
0.000768833
0.000746872
0.000726051
0.000706326
0.000687652
0.000669976
0.00065324
0.000637492
0.000622785
0.00060899
0.0005958
0.00058316
0.00057102
0.000559328
0.000548035
0.000537094
0.000526455
0.000516069
0.000505883
0.000495844
0.000485893
0.000475971
0.000466011
0.000455944
0.000445694
0.000435183
0.000424326
0.000413039
0.000401231
0.000388818
0.000375721
0.000361876
0.000347242
0.000331819
0.00031566
0.000298895
0.000281747
0.00026455
0.000247748
0.000231876
0.000217505
0.000205173
0.000195285
0.000188034
0.000183246
0.00018049
0.000179437
0.000179759
0.00018122
0.000183407
0.00018603
0.000188834
0.000191521
0.000193696
0.000194794
0.000193975
0.00018999
0.000181054
0.000164586
0.000139498
0.00367536
0.00308663
0.00262913
0.00232549
0.00212792
0.00199175
0.00188863
0.0018018
0.00172439
0.00165308
0.00158617
0.00152283
0.00146264
0.00140537
0.00135087
0.00129904
0.00124978
0.00120302
0.0011587
0.00111673
0.00107708
0.00103969
0.00100447
0.000971373
0.000940335
0.000911306
0.000884104
0.000858757
0.000835189
0.000813313
0.000793039
0.00077428
0.000756948
0.00074095
0.000726193
0.000712576
0.000699997
0.000688352
0.000677529
0.000667413
0.000657884
0.000648814
0.000640067
0.000631495
0.000622934
0.000614208
0.000605124
0.000595476
0.000585045
0.000573599
0.000560902
0.000546721
0.000530839
0.000513081
0.000493334
0.00047159
0.000447986
0.000422842
0.000396676
0.000370213
0.000344347
0.000320065
0.00029837
0.000280106
0.000265948
0.000256265
0.000250811
0.000249031
0.000250201
0.000253859
0.000259502
0.000266587
0.000274473
0.0002823
0.000288783
0.000291885
0.000288298
0.000273185
0.000238186
0.000176483
0.00504008
0.00422563
0.00346413
0.00301191
0.00274421
0.00258001
0.00246368
0.00236952
0.00228568
0.00220725
0.00213223
0.00205985
0.0019899
0.00192232
0.00185713
0.00179434
0.00173397
0.00167602
0.00162047
0.00156729
0.00151644
0.00146787
0.00142155
0.00137742
0.00133543
0.00129553
0.00125766
0.00122178
0.00118783
0.00115576
0.0011255
0.00109698
0.00107016
0.00104496
0.00102131
0.000999138
0.000978366
0.00095891
0.000940683
0.000923587
0.000907517
0.000892358
0.000877978
0.000864234
0.000850962
0.000837981
0.000825086
0.000812052
0.000798632
0.000784556
0.000769539
0.000753288
0.000735505
0.000715909
0.000694246
0.000670325
0.000644043
0.000615431
0.000584707
0.000552323
0.000519015
0.000485805
0.000453859
0.00042437
0.000398451
0.000376985
0.000360459
0.000348952
0.000342179
0.0003396
0.00034052
0.000344116
0.000349371
0.000354975
0.000359037
0.000358713
0.00034956
0.00032549
0.000277754
0.000206296
0.0062624
0.0053997
0.00414226
0.00347463
0.00313364
0.00295656
0.00284773
0.00276549
0.00269208
0.00262101
0.00255015
0.00247918
0.00240834
0.00233808
0.00226878
0.0022008
0.0021344
0.00206977
0.00200705
0.00194635
0.00188773
0.00183123
0.00177687
0.00172468
0.00167465
0.00162677
0.00158102
0.0015374
0.00149587
0.0014564
0.00141894
0.00138346
0.0013499
0.00131821
0.00128832
0.00126018
0.00123372
0.00120885
0.0011855
0.00116358
0.001143
0.00112363
0.00110538
0.0010881
0.00107164
0.00105583
0.00104046
0.00102533
0.00101016
0.00099466
0.000978526
0.000961432
0.000943049
0.000923047
0.000901096
0.000876879
0.000850114
0.000820584
0.000788189
0.000753014
0.000715394
0.000675964
0.000635703
0.000595994
0.000558448
0.000524563
0.000495508
0.000472081
0.000454545
0.00044268
0.000435863
0.000433115
0.000433104
0.000434057
0.000433453
0.000427647
0.000411125
0.000376525
0.000314681
0.000233083
0.00675412
0.00701251
0.00486966
0.00384738
0.00340671
0.00321728
0.00312403
0.00306274
0.00300825
0.00295207
0.00289197
0.00282808
0.00276127
0.00269255
0.00262279
0.00255276
0.00248302
0.00241405
0.0023462
0.00227974
0.00221488
0.00215179
0.00209059
0.0020314
0.00197429
0.00191933
0.00186656
0.00181602
0.00176774
0.00172171
0.00167793
0.0016364
0.00159707
0.00155992
0.00152491
0.00149196
0.00146103
0.00143204
0.0014049
0.00137954
0.00135585
0.00133373
0.00131306
0.0012937
0.0012755
0.00125829
0.00124189
0.00122606
0.00121055
0.00119501
0.00117902
0.00116219
0.00114418
0.00112463
0.00110318
0.00107951
0.00105328
0.0010242
0.000991999
0.000956517
0.000917743
0.000875872
0.000831407
0.000785308
0.000738978
0.000694177
0.000652888
0.000616745
0.00058679
0.000563419
0.000546371
0.000534749
0.000527143
0.000521355
0.000514264
0.000501429
0.000476271
0.000430044
0.000352686
0.000258261
0.000923882
0.00107472
0.00119624
0.00124197
0.00115719
0.00106518
0.00123546
0.00137343
0.00142395
0.001288
0.00113922
0.00134931
0.00151357
0.00157841
0.0013993
0.00117448
0.00142864
0.00162232
0.00169847
0.00148348
0.00118129
0.00148558
0.00170975
0.00178863
0.00153561
0.001166
0.00152635
0.00177963
0.00185119
0.00155355
0.00113623
0.00155301
0.00183106
0.00188821
0.00155286
0.00109815
0.00156422
0.00185941
0.0019035
0.00159654
0.00105687
0.00155601
0.00185812
0.00190206
0.00174506
0.00101677
0.0015183
0.00182544
0.00190293
0.00185925
0.00108458
0.00197351
0.00257345
0.00275966
0.00168504
0.00129679
0.00205521
0.00246139
0.00269626
0.00176497
0.0014491
0.00214345
0.00255908
0.00300625
0.0019038
0.00153431
0.00222349
0.00267656
0.00331753
0.00205298
0.00157731
0.00229321
0.00278169
0.00352845
0.00214215
0.00159282
0.0023701
0.00289182
0.00362101
0.00214282
0.00158546
0.00246081
0.00302022
0.00357926
0.00206902
0.00156293
0.00257151
0.00317743
0.00351561
0.00215136
0.00153188
0.00268698
0.00335228
0.00353591
0.00272672
0.00148247
0.00274772
0.00353267
0.00377914
0.00328551
0.00122048
0.00238438
0.00319729
0.00351061
0.00209651
0.0014524
0.00253714
0.00315912
0.00358258
0.00219555
0.00166818
0.00272736
0.0033631
0.00409447
0.00236961
0.00181156
0.00289384
0.00356748
0.00457107
0.00257418
0.00189657
0.00303057
0.00371772
0.00484331
0.00268302
0.00194502
0.00316648
0.0038555
0.00491065
0.00264993
0.00196755
0.00331263
0.00401699
0.00477729
0.00248596
0.00196923
0.00347683
0.00423068
0.00463525
0.0025606
0.0019565
0.00363699
0.00448183
0.00465568
0.00345469
0.00188716
0.00372195
0.00475764
0.00506021
0.00435273
0.00133281
0.00261602
0.00358653
0.00404394
0.00245211
0.00154918
0.00285852
0.00368702
0.00432926