/*--------------------------------*- C++ -*----------------------------------*\
| =========                 |                                                 |
| \\      /  F ield         | OpenFOAM: The Open Source CFD Toolbox           |
|  \\    /   O peration     | Version:  v1912                                 |
|   \\  /    A nd           | Website:  www.openfoam.com                      |
|    \\/     M anipulation  |                                                 |
\*---------------------------------------------------------------------------*/
FoamFile
{
    version     2.0;
    format      ascii;
    class       volScalarField;
    location    "935";
    object      nut;
}
// * * * * * * * * * * * * * * * * * * * * * * * * * * * * * * * * * * * * * //

dimensions      [0 2 -1 0 0 0 0];


internalField   nonuniform List<scalar> 
104000
(
0.000345365
0.000373302
0.000389054
0.000397403
0.00040181
0.000357677
0.000383327
0.000396427
0.000403161
0.000406629
0.000366811
0.000391497
0.000403484
0.000409649
0.000412929
0.000373132
0.000396742
0.000409523
0.000416453
0.000420545
0.000359284
0.000373617
0.000394172
0.00040531
0.000410699
0.000347125
0.000378934
0.000400029
0.000414085
0.000423473
0.000397969
0.000681923
0.000719055
0.000739193
0.000767303
0.000422031
0.000818561
0.000895753
0.00094774
0.00100122
0.000434909
0.000808766
0.000907082
0.000958159
0.000991756
0.000404419
0.000632594
0.000723839
0.00069437
0.000598957
0.000352686
0.000385749
0.000410844
0.00043149
0.000448045
0.000428985
0.000914218
0.00101576
0.00107914
0.00114555
0.000464229
0.0011481
0.00132533
0.00144422
0.00154797
0.000480578
0.00110382
0.00129882
0.00141728
0.00149425
0.000436595
0.000785385
0.000913257
0.000853409
0.000689307
0.000360743
0.000392072
0.000418469
0.000442605
0.000464668
0.000452844
0.0011084
0.00127645
0.00138067
0.00147786
0.000497424
0.00140167
0.00166345
0.00183428
0.00197471
0.00051408
0.00130689
0.00157574
0.00176938
0.00190049
0.000459819
0.000885863
0.00105206
0.000970707
0.000751569
0.000370267
0.000400282
0.000426399
0.000451173
0.000476197
0.000471753
0.00126872
0.00151191
0.00166811
0.0018016
0.000524824
0.0015986
0.00193291
0.00216448
0.00235399
0.000539452
0.00144661
0.00177463
0.00204017
0.00224346
0.00047767
0.000959408
0.00117486
0.0010857
0.000826142
0.000403437
0.000402472
0.000399372
0.000394602
0.000388605
0.000381796
0.000374527
0.00036708
0.000359671
0.000352449
0.000407701
0.000406946
0.000404115
0.000399586
0.000393718
0.000386855
0.000379283
0.000371229
0.000362874
0.000354377
0.000414016
0.000413473
0.000411612
0.000408804
0.000405331
0.000401144
0.000396339
0.000391008
0.000385088
0.000378039
0.000422777
0.000423751
0.000423613
0.000422655
0.000420984
0.000418598
0.000415417
0.000411234
0.000405747
0.000398541
0.000414094
0.000415356
0.000415154
0.0004139
0.000411986
0.000409806
0.000407778
0.000406161
0.000404871
0.000402038
0.00042911
0.000431557
0.000430465
0.000426259
0.000419472
0.00041071
0.000400582
0.000389668
0.000378477
0.000367422
0.000796488
0.000826839
0.000865519
0.000903004
0.000939472
0.000975583
0.001011
0.00104324
0.00106571
0.0010667
0.00104965
0.0010961
0.00113957
0.00117715
0.00120712
0.00123259
0.00125347
0.00126881
0.00127896
0.00128622
0.00101356
0.00103472
0.00105101
0.00106263
0.00106898
0.00107146
0.00107278
0.00107855
0.00109271
0.00114136
0.000456206
0.000461498
0.000466875
0.000472324
0.000478931
0.00048854
0.000503873
0.000527548
0.000559135
0.000590666
0.000459556
0.000467158
0.000470596
0.000470064
0.000465946
0.000458797
0.000449231
0.000437869
0.000425314
0.000412143
0.00121145
0.00128036
0.00135441
0.00144132
0.00153412
0.00163217
0.00173293
0.00182922
0.00190597
0.00193858
0.00163549
0.00171559
0.00179017
0.00185953
0.00192178
0.00197647
0.00202437
0.00206777
0.00210999
0.00216802
0.0015401
0.00156998
0.00158397
0.00158358
0.00157015
0.00154848
0.00152707
0.00151897
0.00153528
0.00166463
0.000501234
0.000511256
0.000519974
0.00052796
0.00053714
0.000550649
0.000572971
0.000608247
0.000655926
0.000703646
0.000482369
0.00049467
0.000502946
0.000506801
0.000506585
0.000502747
0.000495838
0.000486426
0.000475067
0.000461873
0.00156984
0.00166613
0.00176598
0.00187754
0.00200256
0.00213486
0.00226905
0.00239494
0.00249337
0.00254415
0.00208851
0.00218628
0.00227247
0.00235003
0.00242057
0.00248499
0.00254503
0.00260328
0.00266366
0.00278762
0.00196256
0.00198745
0.00198407
0.00195395
0.00190418
0.00184592
0.0017951
0.00176946
0.00179905
0.00199729
0.000543806
0.000557296
0.000566607
0.000573605
0.000581736
0.000595753
0.000621855
0.000664989
0.000722277
0.000780109
0.000498131
0.000515109
0.000526846
0.00053455
0.000538019
0.000537639
0.000534009
0.0005279
0.000519965
0.000506656
0.00192335
0.00204623
0.00216779
0.00229115
0.00242372
0.00256537
0.00270286
0.00282072
0.00289837
0.00297385
0.00250728
0.00262922
0.00272829
0.00280609
0.00287001
0.00292436
0.00297148
0.00301207
0.00307645
0.00324022
0.00238236
0.00241624
0.00239732
0.00232154
0.00220978
0.00208446
0.00197482
0.00190491
0.00195908
0.00220218
0.000588993
0.000604559
0.000612242
0.000614694
0.000618827
0.000632368
0.000664059
0.000718641
0.000785918
0.000857452
0.000345571
0.000338887
0.000333125
0.000328038
0.000323486
0.000319328
0.000315478
0.000311867
0.000308443
0.000305171
0.000302024
0.000298985
0.000296039
0.000293177
0.000290391
0.000287674
0.000285022
0.000282426
0.000279877
0.000277368
0.000274893
0.000272446
0.000270023
0.000267628
0.000265259
0.000262913
0.00026059
0.000258286
0.000256
0.00025373
0.000251475
0.000249232
0.000246999
0.000244774
0.000242555
0.000240338
0.000238121
0.0002359
0.000233671
0.00023143
0.000229173
0.000226893
0.000224586
0.000222243
0.000219857
0.00021742
0.00021492
0.000212348
0.000209689
0.00020693
0.000204054
0.000201042
0.000197876
0.000194533
0.00019099
0.000187226
0.000183219
0.000178957
0.000174439
0.000169683
0.000164744
0.000159721
0.000154769
0.0001501
0.000145957
0.000142561
0.000140045
0.000138411
0.00013754
0.000137241
0.000137314
0.000137585
0.000137916
0.000138194
0.000138317
0.000138158
0.000137537
0.000136166
0.000133574
0.000129282
0.000346002
0.000336678
0.000329324
0.000323525
0.00031891
0.000315053
0.000311696
0.000308639
0.00030581
0.000303162
0.000300661
0.000298285
0.000296013
0.000293832
0.000291729
0.000289684
0.000287666
0.000285671
0.000283692
0.000281725
0.000279766
0.000277811
0.000275856
0.000273895
0.000271971
0.000270084
0.000268232
0.000266413
0.000264628
0.000262873
0.000261149
0.000259454
0.000257785
0.000256142
0.000254521
0.000252921
0.000251337
0.000249768
0.00024821
0.000246657
0.000245104
0.000243546
0.000241976
0.000240386
0.000238767
0.000237107
0.000235395
0.000233617
0.000231757
0.000229795
0.000227712
0.000225484
0.000223083
0.000220479
0.00021764
0.000214529
0.000211108
0.000207341
0.000203193
0.000198639
0.000193669
0.000188301
0.000182591
0.000176652
0.00017067
0.000164911
0.000159698
0.00015536
0.000152143
0.000150141
0.000149272
0.000149327
0.000150052
0.000151206
0.000152568
0.000153905
0.000154913
0.000155163
0.000153951
0.000155315
0.00036927
0.000355928
0.000345491
0.000337849
0.000332022
0.000327237
0.00032316
0.000319602
0.000316401
0.000313454
0.00031069
0.000308066
0.000305546
0.000303107
0.000300731
0.000298414
0.000296168
0.000293985
0.000291862
0.000289793
0.000287778
0.000285822
0.000283922
0.000282077
0.000280286
0.000278549
0.000276863
0.000275228
0.000273642
0.000272103
0.000270612
0.000269166
0.000267764
0.000266404
0.000265084
0.000263802
0.000262555
0.000261341
0.000260155
0.000258993
0.000257851
0.000256722
0.000255601
0.000254479
0.000253346
0.000252193
0.000251006
0.000249772
0.000248473
0.000247091
0.000245604
0.000243986
0.000242209
0.00024024
0.000238044
0.000235579
0.000232801
0.000229665
0.000226124
0.000222136
0.000217667
0.000212702
0.000207247
0.000201345
0.000195084
0.000188632
0.00018223
0.000176206
0.000170934
0.000166769
0.000163948
0.000162504
0.000162272
0.000162985
0.000164354
0.000166041
0.000167619
0.000168535
0.000167946
0.000170311
0.000388426
0.000374386
0.000361026
0.000351993
0.000345501
0.0003403
0.000335865
0.000331901
0.000328262
0.000324858
0.000321638
0.000318568
0.000315628
0.000312804
0.000310087
0.00030747
0.000304949
0.00030252
0.00030018
0.000297926
0.000295755
0.000293667
0.000291659
0.000289729
0.000287875
0.000286098
0.000284394
0.000282762
0.000281201
0.00027971
0.000278287
0.00027693
0.000275638
0.000274409
0.000273241
0.000272132
0.00027108
0.000270081
0.000269133
0.000268231
0.000267371
0.000266549
0.000265757
0.000264988
0.000264233
0.000263482
0.000262722
0.000261938
0.000261114
0.000260229
0.000259264
0.00025819
0.00025698
0.0002556
0.00025401
0.000252168
0.000250027
0.000247532
0.000244631
0.000241271
0.000237404
0.000233002
0.000228054
0.000222571
0.000216581
0.000210192
0.000203557
0.000196918
0.000190597
0.000184987
0.000180479
0.00017735
0.000175637
0.000175183
0.00017573
0.000176911
0.000178221
0.000179038
0.000178459
0.000181349
0.000393537
0.000387599
0.000373557
0.000364391
0.00035797
0.000352771
0.000348231
0.000344062
0.000340143
0.000336406
0.000332817
0.000329359
0.000326021
0.0003228
0.000319691
0.000316693
0.000313805
0.000311026
0.000308355
0.000305791
0.000303333
0.000300981
0.000298733
0.000296588
0.000294546
0.000292604
0.000290762
0.000289017
0.000287369
0.000285816
0.000284355
0.000282986
0.000281706
0.000280513
0.000279406
0.000278382
0.000277439
0.000276574
0.000275784
0.000275067
0.000274418
0.000273833
0.000273306
0.000272833
0.000272403
0.000272007
0.000271633
0.000271264
0.000270882
0.000270468
0.000269999
0.000269449
0.000268789
0.000267983
0.00026699
0.000265765
0.000264254
0.000262399
0.000260137
0.000257404
0.000254142
0.00025031
0.000245906
0.000240938
0.000235373
0.000229309
0.000222824
0.000216096
0.000209367
0.000202971
0.000197315
0.000192798
0.000189625
0.000187782
0.00018711
0.000187284
0.0001878
0.00018804
0.000187112
0.000190235
0.000356889
0.000346137
0.000338009
0.000331732
0.000326508
0.000321814
0.000317406
0.000313287
0.000309392
0.000305673
0.0003021
0.000298651
0.00029531
0.000292065
0.000288906
0.000285823
0.000282808
0.00027989
0.000277081
0.000274382
0.000271792
0.000269309
0.000266933
0.000264655
0.000262454
0.000260312
0.000258225
0.00025619
0.000254205
0.000252267
0.000250373
0.00024852
0.000246706
0.000244926
0.000243177
0.000241455
0.000239755
0.000238073
0.000236403
0.000234739
0.000233073
0.000231397
0.000229703
0.000227978
0.000226211
0.000224388
0.000222492
0.000220504
0.000218402
0.000216163
0.000213757
0.000211154
0.000208319
0.000205216
0.000201807
0.000198054
0.000193927
0.000189407
0.000184497
0.000179237
0.000173717
0.000168097
0.000162606
0.000157532
0.000153168
0.000149741
0.000147343
0.000145918
0.000145299
0.000145275
0.000145645
0.000146238
0.000146914
0.000147546
0.000147995
0.000148067
0.000147457
0.000145644
0.00014166
0.000134082
0.00102627
0.000954488
0.000862132
0.000782306
0.00072353
0.000680016
0.000646151
0.000621899
0.000604138
0.000590766
0.000580052
0.000571245
0.000563924
0.000557473
0.000551471
0.000545617
0.000539651
0.00053413
0.000529351
0.000525219
0.000521643
0.000518531
0.000515775
0.000513263
0.000511815
0.000511212
0.000511211
0.000511765
0.000512834
0.000514386
0.000516389
0.000518814
0.000521635
0.000524825
0.000528357
0.000532204
0.000536338
0.000540728
0.000545343
0.000550144
0.000555089
0.000560129
0.000565207
0.000570254
0.000575191
0.000579922
0.000584333
0.000588291
0.000591635
0.000594179
0.000595707
0.000595971
0.000594695
0.000591575
0.000586292
0.00057852
0.000567953
0.000554327
0.000537469
0.000517348
0.000494146
0.000468325
0.000440676
0.000412328
0.000384674
0.000359198
0.000337228
0.000319663
0.000306784
0.000298262
0.000293333
0.000291029
0.000290333
0.000290199
0.000289453
0.000286532
0.000279001
0.000262802
0.000229995
0.000164258
0.00131388
0.00138048
0.00134914
0.00127781
0.00121073
0.00115768
0.00111677
0.00108394
0.00105427
0.00102684
0.00100158
0.000978015
0.000955755
0.000934933
0.00091559
0.000897685
0.000881171
0.000866007
0.000852133
0.000839157
0.000827254
0.00081685
0.000807877
0.000800262
0.000793934
0.000788809
0.000784806
0.000781855
0.000779893
0.000778857
0.000778691
0.000779341
0.000780753
0.000782878
0.000785667
0.000789069
0.000793037
0.000797518
0.00080246
0.000807805
0.00081349
0.000819445
0.000825592
0.000831837
0.000838075
0.000844182
0.000850012
0.000855395
0.000860126
0.000863967
0.000866639
0.000867821
0.000867146
0.000864211
0.000858577
0.000849784
0.000837372
0.000820895
0.000799965
0.000774304
0.000743823
0.000708704
0.000669502
0.000627225
0.000583352
0.000539701
0.000498279
0.00046099
0.000429282
0.00040386
0.000384582
0.000370577
0.000360473
0.000352584
0.000344941
0.000335134
0.000319815
0.000294002
0.000249571
0.000178575
0.00129954
0.00148376
0.00147091
0.00141611
0.00137446
0.00134829
0.00132811
0.00130865
0.00128804
0.00126606
0.00124312
0.00121974
0.00119643
0.00117362
0.00115163
0.00113069
0.00111097
0.00109259
0.00107563
0.00106011
0.00104607
0.0010335
0.00102241
0.00101274
0.00100447
0.000997542
0.000991918
0.000987542
0.000984364
0.000982329
0.000981386
0.00098148
0.000982557
0.000984564
0.000987446
0.000991147
0.000995613
0.00100079
0.0010066
0.001013
0.00101991
0.00102726
0.00103496
0.00104291
0.001051
0.0010591
0.00106707
0.00107471
0.00108183
0.00108818
0.00109345
0.00109729
0.0010993
0.00109902
0.00109594
0.00108949
0.0010791
0.00106417
0.00104408
0.00101825
0.000986214
0.000947698
0.000902743
0.000851939
0.00079662
0.000738551
0.000680036
0.000623637
0.000571805
0.00052645
0.000488603
0.000458271
0.000434476
0.000415382
0.000398392
0.000380226
0.000356543
0.000321179
0.000265203
0.000189204
0.00105199
0.00161854
0.00154749
0.00147656
0.00144477
0.00143822
0.00143872
0.00143759
0.00143209
0.00142201
0.0014081
0.00139133
0.00137265
0.00135283
0.00133252
0.00131221
0.00129228
0.00127302
0.00125465
0.00123734
0.00122121
0.00120636
0.00119285
0.00118073
0.00117002
0.00116073
0.00115287
0.00114642
0.00114136
0.00113766
0.00113529
0.0011342
0.00113434
0.00113567
0.00113813
0.00114166
0.0011462
0.00115168
0.00115804
0.0011652
0.00117309
0.00118162
0.00119069
0.00120022
0.00121008
0.00122014
0.00123025
0.00124022
0.00124992
0.0012591
0.00126747
0.00127469
0.00128036
0.001284
0.00128509
0.00128303
0.00127721
0.00126694
0.00125146
0.00122999
0.0012017
0.00116575
0.00112139
0.00106834
0.00100773
0.000940774
0.000869762
0.000797596
0.000727519
0.000662539
0.000604967
0.00055607
0.00051591
0.000483133
0.000454867
0.00042708
0.00039447
0.000349523
0.000281689
0.000197862
0.000397396
0.000378598
0.000364256
0.000353681
0.000345695
0.000339152
0.00033347
0.000328326
0.000323553
0.000319047
0.000314762
0.000310674
0.000306766
0.000303024
0.00029944
0.000296003
0.000292706
0.000289542
0.000286505
0.000283588
0.000280785
0.000278091
0.000275499
0.000273005
0.00027062
0.000268348
0.000266144
0.000264008
0.000261935
0.000259923
0.000257968
0.000256067
0.000254215
0.000252409
0.000250644
0.000248915
0.000247215
0.000245539
0.000243879
0.000242227
0.000240573
0.000238906
0.000237215
0.000235485
0.0002337
0.000231841
0.000229887
0.000227815
0.000225596
0.0002232
0.000220592
0.000217736
0.00021459
0.000211113
0.000207264
0.000203011
0.00019833
0.000193221
0.000187718
0.000181906
0.000175938
0.000170038
0.000164496
0.000159623
0.000155685
0.000152828
0.000151047
0.000150203
0.000150091
0.000150502
0.000151247
0.000152171
0.000153135
0.000153994
0.000154563
0.000154576
0.000153604
0.000150942
0.000145347
0.000135386
0.00192327
0.00187256
0.00173109
0.00157654
0.00145679
0.00136975
0.00130385
0.00125087
0.00120595
0.00116936
0.00113903
0.00111281
0.00108926
0.00106738
0.00104646
0.00102591
0.00100618
0.000987964
0.000971234
0.000955965
0.00094211
0.000929597
0.000918342
0.000908257
0.000899245
0.000891736
0.000885511
0.000880434
0.000876444
0.00087348
0.000871483
0.000870391
0.000870146
0.000870686
0.00087195
0.000873875
0.000876394
0.000879437
0.00088293
0.00088679
0.000890927
0.000895238
0.000899605
0.000903893
0.000907947
0.000911585
0.000914598
0.000916741
0.000917731
0.000917241
0.000914901
0.000910294
0.000902961
0.000892415
0.000878157
0.000859707
0.000836655
0.000808721
0.000775837
0.000738241
0.000696592
0.000652046
0.00060628
0.000561399
0.000519704
0.000483318
0.000453777
0.000431735
0.000416901
0.000408246
0.000404324
0.000403547
0.00040427
0.00040469
0.000402568
0.000394738
0.000376301
0.000339766
0.000273385
0.000164568
0.0023188
0.00266496
0.00280114
0.00274622
0.00263733
0.00254307
0.00246553
0.00239806
0.00233858
0.00228429
0.00223343
0.00218476
0.00213754
0.00209168
0.00204726
0.00200428
0.00196258
0.00192213
0.00188286
0.00184514
0.00180939
0.00177568
0.00174402
0.00171441
0.00168683
0.00166129
0.00163773
0.00161612
0.0015964
0.00157851
0.0015624
0.00154798
0.0015352
0.00152396
0.00151418
0.00150579
0.00149866
0.00149271
0.00148783
0.00148387
0.00148072
0.00147821
0.00147617
0.0014744
0.00147268
0.00147076
0.00146834
0.00146509
0.00146063
0.00145452
0.00144629
0.00143538
0.00142121
0.00140315
0.00138054
0.00135274
0.00131913
0.00127921
0.00123267
0.00117944
0.00111982
0.00105463
0.000985278
0.000913832
0.000842943
0.000775572
0.000714608
0.00066238
0.000620193
0.000588102
0.000565006
0.000548968
0.000537518
0.000527735
0.000516026
0.000497549
0.000465053
0.000407774
0.000311436
0.000178388
0.00206672
0.00271721
0.00302944
0.00311455
0.00308348
0.00303983
0.0030005
0.00296217
0.00292158
0.00287782
0.00283117
0.00278237
0.00273223
0.00268149
0.00263078
0.00258059
0.0025313
0.00248323
0.00243661
0.00239167
0.00234854
0.00230734
0.00226813
0.00223097
0.00219589
0.00216291
0.00213203
0.00210325
0.00207654
0.00205189
0.00202924
0.00200857
0.0019898
0.00197287
0.00195773
0.00194428
0.00193244
0.00192212
0.00191321
0.00190558
0.00189912
0.00189366
0.00188905
0.00188508
0.00188154
0.00187816
0.00187466
0.00187068
0.00186581
0.00185961
0.00185155
0.00184104
0.00182743
0.00181
0.00178802
0.00176068
0.00172717
0.00168676
0.00163879
0.00158267
0.00151809
0.00144513
0.00136444
0.00127745
0.00118653
0.00109476
0.00100573
0.000923128
0.000850061
0.000788495
0.000738895
0.000700228
0.000670157
0.000645226
0.000620767
0.000590429
0.000544756
0.000469256
0.000345071
0.000188958
0.00149147
0.00281461
0.00308848
0.00320982
0.00323453
0.00324523
0.00325441
0.00325601
0.00324663
0.00322647
0.00319724
0.00316099
0.00311963
0.00307472
0.00302752
0.00297903
0.00292998
0.00288098
0.00283248
0.00278483
0.00273832
0.00269319
0.0026496
0.00260773
0.00256768
0.00252957
0.00249348
0.00245947
0.00242759
0.00239786
0.00237029
0.0023449
0.00232164
0.0023005
0.00228143
0.00226437
0.00224924
0.00223598
0.00222447
0.00221462
0.0022063
0.00219937
0.00219367
0.00218904
0.00218527
0.00218213
0.00217936
0.00217664
0.00217357
0.00216968
0.00216448
0.00215741
0.00214765
0.00213445
0.00211701
0.00209449
0.00206596
0.00203058
0.00198768
0.00193613
0.00187506
0.00180377
0.0017219
0.00162968
0.00152884
0.00142185
0.00131227
0.00120444
0.00110286
0.00101136
0.00093244
0.000866807
0.000813291
0.000768759
0.000728013
0.000683521
0.000623934
0.00053111
0.00037989
0.000197786
0.000443975
0.000419326
0.000400061
0.000385772
0.000375208
0.000366749
0.000359543
0.000353084
0.000347119
0.000341504
0.000336163
0.000331055
0.000326157
0.000321459
0.000316953
0.000312634
0.000308499
0.00030454
0.000300754
0.000297132
0.000293667
0.000290351
0.000287176
0.000284131
0.000281208
0.000278407
0.000275756
0.000273217
0.000270761
0.000268382
0.000266075
0.000263833
0.000261652
0.000259526
0.000257448
0.000255411
0.000253408
0.00025143
0.000249468
0.000247511
0.000245549
0.000243566
0.000241549
0.00023948
0.00023734
0.000235106
0.000232755
0.000230258
0.000227584
0.000224699
0.000221568
0.00021815
0.000214408
0.000210304
0.000205811
0.00020091
0.00019561
0.00018995
0.000184021
0.000177971
0.000172017
0.000166433
0.000161511
0.000157502
0.000154555
0.000152676
0.000151748
0.000151585
0.000151986
0.000152773
0.000153798
0.000154932
0.000156045
0.000156984
0.000157538
0.000157393
0.000156055
0.000152738
0.000146114
0.000134909
0.00257137
0.00254354
0.00238212
0.00218998
0.00203837
0.00192958
0.00184905
0.00178521
0.00173149
0.00168417
0.00164112
0.00160107
0.0015633
0.00152734
0.00149295
0.00146003
0.00142855
0.00139853
0.00137
0.00134296
0.00131745
0.00129349
0.00127107
0.0012502
0.00123084
0.00121298
0.00119682
0.00118224
0.00116921
0.00115768
0.0011476
0.0011389
0.00113151
0.00112536
0.00112035
0.00111641
0.00111343
0.00111132
0.00110997
0.00110925
0.00110903
0.00110916
0.00110947
0.00110976
0.00110981
0.00110937
0.00110812
0.00110575
0.00110185
0.001096
0.00108771
0.00107643
0.0010616
0.00104263
0.00101895
0.000990056
0.000955622
0.000915555
0.000870127
0.000820095
0.000766793
0.000712162
0.000658648
0.000608937
0.000565558
0.000530372
0.000504176
0.000486697
0.000476814
0.000472969
0.000473393
0.000476256
0.000479621
0.000481208
0.000478008
0.000465697
0.000437815
0.000385319
0.000295902
0.000162707
0.00304594
0.00359495
0.00383178
0.00378353
0.00364233
0.00351945
0.00342409
0.00334623
0.00327754
0.00321346
0.00315169
0.00309141
0.00303241
0.00297442
0.00291728
0.00286102
0.00280591
0.00275208
0.00269966
0.00264879
0.00259957
0.00255209
0.00250641
0.00246256
0.00242059
0.00238052
0.00234237
0.00230613
0.0022718
0.00223936
0.00220875
0.00217996
0.00215291
0.00212755
0.00210382
0.00208163
0.00206089
0.0020415
0.00202335
0.0020063
0.0019902
0.00197486
0.00196008
0.00194561
0.00193115
0.00191639
0.00190092
0.0018843
0.00186602
0.00184552
0.00182216
0.00179526
0.00176412
0.00172799
0.00168614
0.00163789
0.00158272
0.00152032
0.00145071
0.00137439
0.00129243
0.00120659
0.00111929
0.00103353
0.000952667
0.000879938
0.000817904
0.000767998
0.000730289
0.000703574
0.00068572
0.000674026
0.000665374
0.000656083
0.000641417
0.000614763
0.000566343
0.000482746
0.000349032
0.00017615
0.00259874
0.00364573
0.00422329
0.0044312
0.00440317
0.00433306
0.00427085
0.00421568
0.00416122
0.00410448
0.0040447
0.00398222
0.00391773
0.00385193
0.00378546
0.0037189
0.00365271
0.00358728
0.00352291
0.00345987
0.00339835
0.00333853
0.00328053
0.00322445
0.00317039
0.00311839
0.00306851
0.00302077
0.00297517
0.00293172
0.00289038
0.00285113
0.00281391
0.00277867
0.00274534
0.00271383
0.00268406
0.00265592
0.00262932
0.00260412
0.00258017
0.00255733
0.0025354
0.00251417
0.00249337
0.00247271
0.00245183
0.0024303
0.0024076
0.00238314
0.00235624
0.00232618
0.00229222
0.00225354
0.00220928
0.00215857
0.00210054
0.00203447
0.00195981
0.00187641
0.00178451
0.00168499
0.0015795
0.00147061
0.00136178
0.00125697
0.00116016
0.00107477
0.00100295
0.000945284
0.000900699
0.000866767
0.000839944
0.000815576
0.000787473
0.000746964
0.000681059
0.00057112
0.000396881
0.000186873
0.00177983
0.00369024
0.00430587
0.00464829
0.00473201
0.00473668
0.00473114
0.00471961
0.00469773
0.00466437
0.00462067
0.00456858
0.00451009
0.00444694
0.00438057
0.0043121
0.00424244
0.00417229
0.00410222
0.00403267
0.003964
0.00389652
0.00383048
0.00376608
0.00370351
0.00364291
0.00358442
0.00352812
0.0034741
0.00342242
0.00337309
0.00332614
0.00328156
0.0032393
0.00319934
0.0031616
0.003126
0.00309245
0.00306085
0.00303108
0.003003
0.00297646
0.0029513
0.00292731
0.00290429
0.00288198
0.00286011
0.00283834
0.00281618
0.00279303
0.00276816
0.00274057
0.00270971
0.00267476
0.00263482
0.00258891
0.00253599
0.00247498
0.00240484
0.00232496
0.00223477
0.00213411
0.00202344
0.00190409
0.00177887
0.00165156
0.0015268
0.00140943
0.00130362
0.00121216
0.00113596
0.00107394
0.00102312
0.000978612
0.000933249
0.000876676
0.000793078
0.000658516
0.000445165
0.000196099
0.000487152
0.000459128
0.000437394
0.000421186
0.000409346
0.000399955
0.000391992
0.00038481
0.000378099
0.000371683
0.000365474
0.000359425
0.000353521
0.000347755
0.000342131
0.000336655
0.000331333
0.000326171
0.000321175
0.000316348
0.000311692
0.000307208
0.000302895
0.000298754
0.00029478
0.000290969
0.000287316
0.000283841
0.000280558
0.000277437
0.000274417
0.000271489
0.000268646
0.000265875
0.000263169
0.000260518
0.00025791
0.000255335
0.000252779
0.000250231
0.000247674
0.000245093
0.00024247
0.000239784
0.000237013
0.000234133
0.000231116
0.000227933
0.000224552
0.000220942
0.000217069
0.000212902
0.000208415
0.000203591
0.000198431
0.000192958
0.00018723
0.000181351
0.000175475
0.000169805
0.000164582
0.00016005
0.000156409
0.000153774
0.00015205
0.000151113
0.000150838
0.000151094
0.00015179
0.000152747
0.000153856
0.000155015
0.000156107
0.000156975
0.000157394
0.000157028
0.000155364
0.000151614
0.000144499
0.000132984
0.00302859
0.00302449
0.00286455
0.00266206
0.00250094
0.00238605
0.0023022
0.00223552
0.00217872
0.00212781
0.00208058
0.00203579
0.00199274
0.00195103
0.00191043
0.0018708
0.0018321
0.00179428
0.00175739
0.00172147
0.00168664
0.001653
0.00162062
0.00158952
0.00155975
0.00153132
0.00150423
0.00147863
0.00145452
0.00143194
0.0014109
0.00139136
0.00137329
0.00135664
0.00134133
0.00132728
0.0013144
0.00130256
0.00129165
0.00128153
0.00127204
0.00126301
0.00125428
0.00124563
0.00123676
0.00122737
0.00121709
0.00120549
0.0011921
0.00117639
0.00115777
0.00113565
0.00110941
0.00107845
0.00104231
0.00100073
0.000953781
0.000902033
0.000846511
0.000788769
0.000730859
0.000675152
0.00062414
0.000579903
0.000544736
0.000520501
0.000506245
0.000499915
0.000498535
0.000501299
0.000506831
0.000513381
0.000518995
0.000521221
0.000516666
0.000500482
0.000465719
0.000403358
0.000302092
0.000158964
0.0035651
0.00425858
0.00456533
0.00452128
0.00436745
0.00423562
0.00413667
0.00405754
0.00398777
0.00392191
0.00385744
0.00379336
0.00372935
0.00366537
0.00360155
0.00353808
0.00347515
0.00341298
0.00335174
0.00329162
0.00323278
0.00317538
0.00311952
0.00306529
0.00301275
0.00296195
0.00291293
0.00286569
0.00282022
0.0027765
0.00273449
0.00269412
0.00265532
0.002618
0.00258206
0.00254739
0.00251387
0.00248136
0.00244972
0.00241881
0.00238845
0.00235845
0.0023286
0.00229863
0.00226825
0.0022371
0.00220475
0.00217073
0.00213445
0.00209528
0.00205252
0.00200539
0.00195313
0.00189498
0.0018303
0.0017586
0.0016797
0.00159381
0.00150171
0.00140488
0.00130568
0.00120731
0.00111328
0.00102698
0.000951402
0.000888668
0.000839496
0.000803322
0.000778507
0.000762789
0.000753504
0.000747731
0.000742178
0.000732944
0.000714795
0.000680395
0.000619294
0.000518322
0.000364447
0.000171886
0.00295013
0.00428397
0.00508451
0.00538655
0.00536142
0.00527719
0.00520535
0.00514488
0.00508661
0.00502586
0.00496118
0.00489264
0.00482092
0.0047468
0.00467106
0.00459437
0.00451731
0.00444036
0.00436393
0.00428836
0.00421394
0.00414091
0.00406945
0.00399975
0.00393193
0.0038661
0.00380233
0.00374067
0.00368114
0.00362375
0.00356847
0.00351524
0.003464
0.00341464
0.00336705
0.00332111
0.00327667
0.00323356
0.00319163
0.00315068
0.00311053
0.00307097
0.00303177
0.0029927
0.00295347
0.00291378
0.00287326
0.00283151
0.00278802
0.00274217
0.00269325
0.00264049
0.00258306
0.00252007
0.00245063
0.00237388
0.00228904
0.00219558
0.0020933
0.00198267
0.00186497
0.00174241
0.00161817
0.00149654
0.00138232
0.00127964
0.00119133
0.00111887
0.00106205
0.00101919
0.000987508
0.000963413
0.000942626
0.000919994
0.000888596
0.000838713
0.000756262
0.000622767
0.000420958
0.000182733
0.00203071
0.00425958
0.00516832
0.00572185
0.00585724
0.00585563
0.00583918
0.00582012
0.00579227
0.00575276
0.00570187
0.00564131
0.00557306
0.00549894
0.00542054
0.00533911
0.00525571
0.00517114
0.00508608
0.00500108
0.00491659
0.00483297
0.00475057
0.00466964
0.00459042
0.00451312
0.00443789
0.00436488
0.00429418
0.00422588
0.00416
0.00409656
0.00403554
0.00397688
0.00392051
0.00386631
0.00381417
0.00376392
0.0037154
0.00366842
0.00362278
0.00357826
0.00353464
0.00349167
0.0034491
0.00340665
0.00336402
0.00332091
0.00327697
0.00323159
0.00318401
0.00313348
0.00307917
0.00302014
0.0029554
0.0028839
0.0028046
0.00271645
0.00261849
0.00251006
0.00239123
0.00226269
0.00212614
0.00198467
0.0018429
0.00170622
0.00158034
0.00146953
0.00137594
0.00129959
0.00123859
0.00118941
0.00114762
0.00110705
0.00105934
0.000992599
0.00088931
0.000725308
0.000476982
0.000192382
0.000340337
0.000367201
0.000387577
0.000395124
0.000381584
0.000365473
0.000393684
0.000415315
0.000423076
0.000402556
0.000378119
0.000411709
0.000436291
0.000445688
0.000419747
0.000384026
0.000423812
0.000451905
0.00046255
0.000432366
0.000385151
0.000432272
0.000464084
0.000474859
0.00044005
0.000382618
0.000438234
0.00047361
0.000483252
0.00044273
0.000377638
0.000442098
0.000480524
0.000488192
0.000442678
0.000371173
0.000443733
0.000484325
0.000490266
0.00044893
0.00036403
0.000442595
0.00048422
0.000490154
0.000469572
0.000356949
0.000437195
0.00047996
0.000490325
0.000484837
0.000369704
0.000698087
0.000876562
0.000880264
0.000460598
0.000403208
0.000800914
0.000988662
0.000978429
0.000471008
0.000426698
0.00090129
0.00110259
0.00109053
0.000489468
0.000439286
0.000990333
0.00119643
0.00117924
0.000508622
0.000445448
0.00107194
0.00126675
0.00122807
0.000519807
0.000447662
0.00115101
0.00132124
0.00123835
0.000520051
0.00044662
0.00122735
0.00136716
0.00121211
0.000510874
0.00044341
0.00129789
0.00141263
0.00117833
0.00052066
0.000438945
0.0013512
0.00146109
0.00117007
0.00058651
0.000431738
0.00137898
0.00154237
0.00127794
0.000644036
0.000392807
0.000870227
0.00114562
0.00116177
0.000513676
0.000426748
0.00103062
0.00135032
0.00134565
0.000525164
0.000457904
0.00120165
0.00154648
0.00152117
0.000545972
0.000477508
0.00135423
0.00169863
0.00164697
0.000569522
0.000488717
0.00149761
0.00180613
0.00170164
0.000581785
0.000494966
0.00164102
0.00188609
0.00169367
0.000578414
0.000497856
0.00178322
0.00195382
0.00163144
0.000559977
0.000498082
0.00191513
0.00202435
0.00156178
0.000567732
0.000496477
0.0020131
0.00210436
0.00153929
0.000659934
0.000487534
0.00209396
0.00226916
0.00172648
0.000741066
0.000410957
0.00098059
0.0013354
0.00137218
0.00055536
0.000440838
0.00118422
0.00160889
0.00162589
0.000572381
0.000473969
0.0014013
0.00185517
0.00184259
0.000596427