/*--------------------------------*- C++ -*----------------------------------*\
| =========                 |                                                 |
| \\      /  F ield         | OpenFOAM: The Open Source CFD Toolbox           |
|  \\    /   O peration     | Version:  v1912                                 |
|   \\  /    A nd           | Website:  www.openfoam.com                      |
|    \\/     M anipulation  |                                                 |
\*---------------------------------------------------------------------------*/
FoamFile
{
    version     2.0;
    format      ascii;
    class       surfaceScalarField;
    location    "935";
    object      phi;
}
// * * * * * * * * * * * * * * * * * * * * * * * * * * * * * * * * * * * * * //

dimensions      [1 0 -1 0 0 0 0];
oriented        oriented;


internalField   nonuniform List<scalar> 
303675
(
-0.00106529
0.000138167
0.000922808
-0.00187935
0.000279202
0.00053486
-0.00248554
0.000316229
0.000289956
-0.00296148
0.000360563
0.000115379
0.000398671
-2.10397e-05
-0.00333911
-0.00122629
0.000467644
0.000896812
-0.00204254
0.000518719
0.000576735
-0.00264163
0.00055082
0.000364503
-0.00310872
0.00061856
0.000209094
0.000686959
8.72624e-05
-0.00348427
-0.00129036
0.00084738
0.000910622
-0.00208165
0.000664841
0.000645165
-0.0026416
0.000649998
0.000460782
-0.00308759
0.000740977
0.000323571
0.000837942
0.000214967
-0.00345355
-0.00129593
0.00111686
0.00102645
-0.00196727
0.000476773
0.000859407
-0.00247155
0.000444831
0.000709442
-0.00289567
0.000590238
0.000574861
0.000723798
0.000464277
-0.00324581
-0.000495897
0.00120704
0.000405709
-0.000858877
0.00119545
-0.00035569
-0.00142324
0.00126542
-0.000256228
-0.00200524
0.00125132
-7.90868e-05
0.0011844
-0.00244311
-2.27324e-05
-0.000740634
3.52145e-05
0.00162823
-0.00147442
0.000163319
0.00110533
-0.00208411
0.000192041
0.000707608
-0.00258448
0.000233474
0.000382269
0.00027229
0.000113509
-0.00299132
-0.000981492
0.000323825
0.00158969
-0.0017275
0.000334934
0.00115113
-0.00232429
0.000340207
0.000813118
-0.00280836
0.000393745
0.000532889
0.000456877
0.000301405
-0.00320709
-0.00107887
0.000685447
0.00162787
-0.00179829
0.000420586
0.00127893
-0.00233935
0.000343494
0.000998558
-0.0027873
0.000405912
0.000759353
0.000489519
0.00055732
-0.00316229
-0.00107893
0.000998358
0.00179248
-0.00168134
0.000293701
0.0015887
-0.00216977
0.000154795
0.00138657
-0.00258655
0.00021979
0.00117775
0.000300222
0.000991852
-0.00292482
-0.000374994
0.00198032
0.000600076
-0.000616024
0.00196451
-0.000234347
-0.00107861
0.00209774
-0.000214931
-0.00161054
0.00213125
-0.00012821
0.00209437
-0.00205618
-0.000164107
-0.00051441
-4.82077e-05
0.00219084
-0.00110873
8.47527e-05
0.00161489
-0.00164173
0.000108207
0.0011324
-0.00211188
0.000147374
0.000705049
0.000186332
0.000335619
-0.00252032
-0.000822584
0.0002201
0.00214397
-0.00145347
0.000215634
0.00165115
-0.00197743
0.000202062
0.00124323
-0.00242311
0.000246217
0.000879714
0.000305972
0.000566028
-0.00280736
-0.000955753
0.000592982
0.00221074
-0.00157741
0.0002873
0.00182891
-0.00205025
0.00017577
0.0014977
-0.00245631
0.000224563
0.00118707
0.000304194
0.000910258
-0.00280748
-0.000948564
0.000917032
0.00241699
-0.00147139
0.000188536
0.00221029
-0.00191685
1.06333e-05
0.00199716
-0.00230303
4.94107e-05
0.00173909
0.00011825
0.00148798
-0.00261322
-0.000275556
0.00259107
0.000581835
-0.000409263
0.00254444
-0.000257673
-0.000798599
0.00275264
-0.000254927
-0.0013037
0.00286543
-0.000179674
0.00287105
-0.00175735
-0.000204774
-0.000326101
-0.000116117
0.00263307
-0.000783728
2.23116e-05
0.00205021
-0.00122546
4.22156e-05
0.00153192
-0.00164921
7.96582e-05
0.00104915
0.000120029
0.000614052
-0.00204768
-0.000689902
0.000134876
0.00258288
-0.00121075
0.000121728
0.00207258
-0.00165219
9.54168e-05
0.00163146
-0.00204803
0.000137124
0.00121809
0.000200603
0.000847496
-0.00241007
-0.000850568
0.00051577
0.00268042
-0.00137972
0.00018519
0.00229461
-0.00178062
5.10602e-05
0.00194295
-0.00213726
9.95922e-05
0.00158125
0.000190131
0.00124444
-0.00246097
-0.000827312
0.000837344
0.00292273
-0.00126183
9.65165e-05
0.00273349
-0.00165534
-9.33898e-05
0.00253512
-0.00201752
-5.56073e-05
0.00225648
1.75136e-05
0.00195346
-0.00231038
-0.000190587
0.00307587
0.000543137
-0.000251348
0.00298632
-0.000284609
-0.000580662
0.00326548
-0.000276918
-0.00104299
0.00346986
-0.000197711
0.00353421
-0.00148576
-0.000202878
-0.000174281
-0.000164427
0.00297177
-0.000513846
-2.55454e-05
0.00241533
-0.000871808
-1.38769e-05
0.00190375
-0.0012485
1.55277e-05
0.00141032
4.86682e-05
-0.00162638
0.000943274
-0.000576752
6.93173e-05
0.00292589
-0.0010026
4.36978e-05
0.00242919
-0.00137213
-5.00306e-07
0.00198762
-0.00172195
3.29395e-05
0.00155048
8.78766e-05
-0.00205661
0.00114295
-0.000758285
0.000449838
0.00305819
-0.00120744
9.75661e-05
0.0026899
-0.00154987
-5.95388e-05
0.00234441
-0.00186722
-1.94019e-05
0.00195095
6.1666e-05
-0.00216334
0.00156678
-0.000719508
0.000761534
0.00333053
-0.00107777
1.7123e-05
0.00317219
-0.00142679
-0.000174808
0.0029994
-0.00177099
-0.000140031
0.00272131
-8.11021e-05
-0.0020542
0.00237943
-0.000127987
0.000500623
0.00346477
-0.000143975
-0.000309733
0.00332916
-0.000436547
-0.000296966
0.00368021
-0.000879002
-0.000212833
0.00398512
-0.00130946
-0.000203109
0.00408667
-0.00365208
0.000436434
-0.000123468
-0.00391445
0.000465472
-0.000203098
-0.00413567
0.000485537
-0.000264316
-0.00432198
0.000493798
-0.000307485
-0.00447685
0.000488188
-0.00033332
-0.00459946
0.000465911
-0.000343299
-0.00468376
0.0004233
-0.000338999
-0.0047179
0.000356769
-0.000322631
-0.00468844
0.000266903
-0.000296362
0.000144839
-0.000262317
-0.00457096
-0.00380031
0.000756474
-3.99994e-06
-0.00406779
0.000805144
-7.2194e-05
-0.00429742
0.000835699
-0.000120529
-0.00449408
0.000843754
-0.000153303
-0.0046597
0.000824918
-0.00017111
-0.00479173
0.000773387
-0.000175442
-0.00488244
0.000681935
-0.000167918
-0.00491912
0.000544828
-0.000151386
-0.0048928
0.000369673
-0.000129089
0.000132957
-0.000101276
-0.00477964
-0.0037682
0.000933165
0.000137961
-0.00403711
0.000995628
7.84331e-05
-0.00426918
0.00103252
3.52425e-05
-0.00447316
0.00104243
5.30654e-06
-0.00465651
0.00102014
-1.18666e-05
-0.00482251
0.000956524
-1.71401e-05
-0.00496732
0.000837473
-1.0737e-05
-0.00507306
0.000644588
5.98315e-06
-0.00511387
0.000379741
3.0745e-05
-2.69118e-05
6.94158e-05
-0.00502342
-0.00357791
0.000865161
0.000400108
-0.00386132
0.000931304
0.000347725
-0.00410465
0.00096659
0.00030927
-0.00432033
0.000977234
0.000280872
-0.00451563
0.000952922
0.000262509
-0.00468975
0.000876907
0.000253735
-0.00483096
0.000723284
0.000255399
-0.00491102
0.000459458
0.000265192
-0.0049163
0.000112768
0.000272253
-0.000344693
0.000289844
-0.00488837
-0.00273274
0.0011548
-0.00291097
0.00110953
-0.00301123
0.00106685
-0.00305533
0.00102134
-0.00306815
0.000965745
-0.00308086
0.000889605
-0.00314397
0.000786395
-0.0033405
0.000655991
-0.0037487
0.000520965
0.000500241
-0.00459364
-0.0033323
0.000313744
-9.62247e-05
-0.00362474
0.000343815
-0.000254476
-0.00387923
0.000363101
-0.00037293
-0.00409869
0.00036945
-0.000457481
-0.0042845
0.000361876
-0.000509382
-0.00443437
0.000337944
-0.000531367
-0.00454172
0.000294759
-0.00052641
-0.00459503
0.000229434
-0.00049876
-0.00458164
0.000143536
-0.000453287
3.13495e-05
-0.000394614
-0.00448069
-0.00355039
0.000534335
0.000118712
-0.00384274
0.000585708
-2.17353e-05
-0.00409398
0.000614911
-0.000121097
-0.00431096
0.000620027
-0.000186898
-0.00449436
0.000597967
-0.000223799
-0.00464056
0.000543499
-0.000234797
-0.00474167
0.000450953
-0.000223006
-0.00478569
0.000315741
-0.000193665
-0.00476372
0.000146103
-0.000153631
-7.18774e-05
-0.00010583
-0.00465594
-0.00349649
0.000608389
0.000398103
-0.00378588
0.000683305
0.000270222
-0.00403549
0.000725851
0.000173912
-0.00425277
0.000738683
0.000103934
-0.00444404
0.000718144
5.92226e-05
-0.00461188
0.000655674
3.85244e-05
-0.00475326
0.000539379
4.22193e-05
-0.00485315
0.000352875
6.87417e-05
-0.00488788
9.85332e-05
0.000113045
-0.000263046
0.00017707
-0.00480437
-0.00327058
0.000506155
0.000848098
-0.00356885
0.000598488
0.000730808
-0.00382159
0.000646241
0.000641622
-0.00404111
0.000667143
0.000571937
-0.00423505
0.00065271
0.000521885
-0.00440377
0.000587664
0.000490466
-0.00453778
0.000448893
0.000479892
-0.00461346
0.00020503
0.000488723
-0.00463328
-0.000112745
0.000503349
-0.000524036
0.000532693
-0.00461514
-0.00239955
0.00200432
-0.00259078
0.00189925
-0.00269091
0.00181322
-0.00272639
0.00172396
-0.00272695
0.00161901
-0.00272807
0.00147839
-0.0027833
0.00129052
-0.00298691
0.00106463
-0.00342846
0.000849775
0.000817891
-0.00427015
-0.00287856
0.000229611
3.23972e-05
-0.00318911
0.000257748
-0.00020168
-0.00346545
0.000275164
-0.000371751
-0.00370749
0.000278992
-0.000494436
-0.00391424
0.00026862
-0.000571248
-0.00408248
0.000242446
-0.000605572
-0.00420566
0.000198553
-0.000601788
-0.00427296
0.000134687
-0.000566145
-0.00427267
5.2676e-05
-0.000506258
-4.99945e-05
-0.000430259
-0.00418703
-0.00315492
0.000388744
0.000307141
-0.00346154
0.000440937
0.000101694
-0.00372863
0.000469262
-4.81005e-05
-0.00395872
0.000470458
-0.000148277
-0.00415371
0.000444644
-0.000204839
-0.00430929
0.000387782
-0.000224553
-0.004418
0.000296103
-0.000211836
-0.00446882
0.000165568
-0.000173727
-0.00445271
3.18028e-06
-0.000120256
-0.000195641
-5.99513e-05
-0.00435294
-0.0031361
0.000437528
0.000677942
-0.00342839
0.000518271
0.000485188
-0.00368377
0.000561723
0.000336832
-0.00390674
0.000571593
0.000225769
-0.00410201
0.00054697
0.000152168
-0.00427075
0.000481007
0.00011405
-0.00440979
0.000365185
0.00011217
-0.00450643
0.000186286
0.000144666
-0.00454031
-5.41583e-05
0.000204271
-0.000372926
0.000283855
-0.00446981
-0.002948
0.000348946
0.00127146
-0.00324286
0.00045314
0.0010908
-0.00349538
0.00050443
0.000951439
-0.00371532
0.000524896
0.00083858
-0.00390885
0.0005081
0.000754283
-0.00407512
0.000440668
0.00069708
-0.00420533
0.000304254
0.00067103
-0.00427936
7.32469e-05
0.000675799
-0.00430846
-0.000217255
0.000695547
-0.000586497
0.00073684
-0.00429904
-0.00212177
0.00271769
-0.00231884
0.00254946
-0.00242133
0.00242014
-0.00245816
0.00228569
-0.00246061
0.00212956
-0.00246356
0.00192201
-0.00251864
0.00164986
-0.00272148
0.00134071
-0.00316037
0.00107141
0.00103684
-0.00396581
-0.00242568
0.000169082
0.000241312
-0.00275931
0.000197775
-6.58189e-05
-0.00305049
0.000212503
-0.000293074
-0.00330614
0.00021319
-0.000451979
-0.00352447
0.000199493
-0.000552413
-0.00370192
0.000170608
-0.000598726
-0.0038328
0.000126354
-0.000597268
-0.00390792
6.55954e-05
-0.000556619
-0.00391733
-9.72364e-06
-0.000487126
-9.75396e-05
-0.000403061
-0.00384699
-0.00275796
0.00029443
0.000529683
-0.00307509
0.000349068
0.000267528
-0.00335738
0.000376684
7.00104e-05
-0.00359891
0.000373456
-6.70184e-05
-0.00380007
0.000342127
-0.000146309
-0.00395882
0.000281312
-0.000176503
-0.00406919
0.000190117
-0.000165233
-0.0041223
6.65179e-05
-0.000121544
-0.00410959
-8.29072e-05
-5.97767e-05
-0.000254849
7.26496e-06
-0.0040195
-0.00278644
0.000345637
0.000952205
-0.00308534
0.000432778
0.000700384
-0.00335102
0.000476235
0.000502961
-0.00358098
0.000477708
0.000351481
-0.00377799
0.000442121
0.000249184
-0.00394211
0.00036563
0.000193845
-0.00407128
0.000245494
0.000185964
-0.00415714
7.43372e-05
0.00022271
-0.0041859
-0.00014242
0.000292545
-0.000411325
0.000381489
-0.00412706
-0.00264042
0.000270917
0.00167622
-0.00293774
0.000385697
0.00143519
-0.00319835
0.000437408
0.00125089
-0.0034244
0.000446808
0.00109552
-0.00361977
0.000413663
0.00097811
-0.0037813
0.000327724
0.000896506
-0.00390069
0.000179424
0.000856493
-0.00396771
-4.0448e-05
0.000857608
-0.00399679
-0.000293029
0.00087523
-0.000602428
0.000921314
-0.00399016
-0.00187146
0.00337431
-0.00208577
0.00314946
-0.00220703
0.00297881
-0.00226085
0.00278631
-0.00228047
0.00256284
-0.00229841
0.00226767
-0.00236133
0.0018922
-0.00254982
0.00148876
-0.00295092
0.00117948
0.00116161
-0.00367812
-0.00199994
9.47003e-05
0.000520166
-0.00233864
0.000121115
0.000151769
-0.00263293
0.000136388
-0.000135175
-0.00288725
0.000135486
-0.000333138
-0.0031059
0.000122392
-0.000456158
-0.00328364
9.41689e-05
-0.000515151
-0.00341526
5.2511e-05
-0.000518159
-0.00349293
-2.5403e-06
-0.00047641
-0.00350757
-6.88971e-05
-0.000403594
-0.000141678
-0.00345053
-0.000318423
-0.00239184
0.000180377
0.00077923
-0.0027017
0.000229349
0.000469155
-0.00298075
0.000253926
0.000231521
-0.00322087
0.000246567
6.20206e-05
-0.00341787
0.000213391
-4.0306e-05
-0.00356976
0.000153171
-8.36141e-05
-0.00367369
6.90669e-05
-7.78529e-05
-0.0037227
-4.01629e-05
-3.49142e-05
-0.00371074
-0.000169708
2.90782e-05
-0.000313405
-0.00363142
9.96717e-05
-0.00247554
0.000220042
0.00122473
-0.00276713
0.000299161
0.000922162
-0.00302873
0.000334563
0.000683928
-0.0032528
0.000323066
0.000499049
-0.00344005
0.000276475
0.000373355
-0.00359039
0.000194871
0.000302482
-0.00370401
8.33627e-05
0.000285292
-0.00377674
-6.19908e-05
0.00031727
-0.00379963
-0.000238976
0.000384707
-0.000462163
-0.00374437
0.000474989
-0.00238033
0.000169149
0.00205325
-0.00267145
0.000273233
0.00175223
-0.00293063
0.000313774
0.00153086
-0.00315354
0.000304384
0.00133711
-0.00334043
0.000251825
0.00118965
-0.00348514
0.000152821
0.00108327
-0.00358162
1.24869e-05
0.00102384
-0.0036402
-0.000158483
0.00101269
-0.00367627
-0.00035531
0.00102763
-0.000625963
-0.00366239
0.00107123
-0.00168371
0.00391771
-0.0018978
0.00363679
-0.00202704
0.00342182
-0.00209263
0.00315629
-0.0021251
0.00284713
-0.00215435
0.00244975
-0.00223272
0.00198306
-0.00242609
0.00152364
-0.00279886
0.00119694
-0.00341129
0.00114807
-0.00432922
2.36744e-06
-0.000244106
-0.00410406
-1.31025e-05
-0.000212055
-0.00390494
-1.16225e-05
-0.000187504
-0.00374487
6.74977e-06
-0.000166815
-0.00361615
2.17946e-05
-0.000150514
-0.00351244
3.31107e-05
-0.000136832
-0.00342668
3.93363e-05
-0.000125091
-0.00335378
4.16524e-05
-0.000114547
-0.0032899
4.08863e-05
-0.00010477
-0.00323241
3.79719e-05
-9.54546e-05
-0.00317955
3.3595e-05
-8.6456e-05
-0.00313014
2.82763e-05
-7.76907e-05
-0.00308338
2.2374e-05
-6.91268e-05
-0.00303877
1.61343e-05
-6.07497e-05
-0.00299594
9.72251e-06
-5.25531e-05
-0.00295463
3.23954e-06
-4.45397e-05
-0.00291464
-3.25957e-06
-3.67321e-05
-0.0028757
-9.76968e-06
-2.91651e-05
-0.00283762
-1.6246e-05
-2.18375e-05
-0.00280026
-2.26304e-05
-1.47265e-05
-0.00276353
-2.89066e-05
-7.82576e-06
-0.00272732
-3.50712e-05
-1.13509e-06
-0.00269148
-4.11491e-05
5.30145e-06
-0.00265577
-4.71584e-05
1.1453e-05
-0.00262005
-5.30893e-05
1.73713e-05
-0.00258422
-5.89371e-05
2.31087e-05
-0.0025482
-6.47045e-05
2.86842e-05
-0.00251192
-7.03948e-05
3.41144e-05
-0.00247532
-7.60122e-05
3.94109e-05
-0.00243834
-8.15604e-05
4.45814e-05
-0.00240093
-8.70435e-05
4.9633e-05
-0.00236303
-9.24654e-05
5.45726e-05
-0.00232461
-9.78302e-05
5.94056e-05
-0.0022856
-0.000103142
6.41372e-05
-0.00224597
-0.000108406
6.87723e-05
-0.00220566
-0.000113626
7.33151e-05
-0.00216462
-0.000118809
7.77697e-05
-0.0021228
-0.000123958
8.21402e-05
-0.00208015
-0.000129079
8.64304e-05
-0.00203662
-0.000134179
9.06442e-05
-0.00199214
-0.000139261
9.4785e-05
-0.00194667
-0.00014433
9.88558e-05
-0.00190014
-0.000149391
0.000102859
-0.00185249
-0.000154445
0.000106797
-0.00180367
-0.000159493
0.000110671
-0.00175362
-0.000164532
0.000114482
-0.00170229
-0.000169556
0.00011823
-0.00164965
-0.000174552
0.000121912
-0.00159568
-0.0001795
0.000125525
-0.00154037
-0.000184369
0.000129061
-0.00148377
-0.000189114
0.000132509
-0.00142595
-0.000193672
0.000135855
-0.00136706
-0.000197961
0.000139074
-0.00130732
-0.000201871
0.000142137
-0.00124706
-0.000205258
0.000144999
-0.00118672
-0.000207943
0.000147602
-0.00112688
-0.000209706
0.000149869
-0.0010683
-0.000210285
0.000151705
-0.0010119
-0.000209386
0.000152992
-0.000958783
-0.000206709
0.000153597
-0.000910182
-0.000201979
0.00015338
-0.000867377
-0.000195014
0.000152211
-0.000831557
-0.000185806
0.000149989
-0.000803616
-0.000174625
0.000146685
-0.00078389
-0.000162105
0.00014238
-0.000771924
-0.000149265
0.0001373
-0.000766376
-0.000137366
0.000131819
-0.000765109
-0.000127703
0.000126436
-0.000765437
-0.000121361
0.00012169
-0.000764401
-0.000119095
0.000118057
-0.000758951
-0.000121297
0.000115847
-0.000745985
-0.000128105
0.000115138
-0.000722282
-0.00013946
0.000115756
-0.000684292
-0.000155305
0.000117314
-0.000627875
-0.000175652
0.000119233
-0.000548388
-0.000200137
0.00012065
-0.000441352
-0.000227246
0.000120209
-0.000305934
-0.000251698
0.00011628
-0.000148452
-0.000262794
0.000105312
-0.000237455
8.9003e-05
-0.00448472
-0.000202479
-9.00739e-05
-0.00423247
-0.000177665
-8.76869e-05
-0.0040253
-0.000131555
-8.72308e-05
-0.00386514
-6.94249e-05
-8.39898e-05
-0.003739
-2.36586e-05
-8.06858e-05
-0.00363824
8.88451e-06
-7.65363e-05
-0.00355492
2.82455e-05
-7.22207e-05
-0.00348372
3.80648e-05
-6.76087e-05
-0.0034208
4.08011e-05
-6.28356e-05
-0.00336364
3.87331e-05
-5.79267e-05
-0.00331051
3.34508e-05
-5.29752e-05
-0.0032603
2.60815e-05
-4.80191e-05
-0.00321222
1.74023e-05
-4.31056e-05
-0.00316575
7.9495e-06
-3.82884e-05
-0.0031205
-1.92489e-06
-3.35946e-05
-0.00307625
-1.19763e-05
-2.90316e-05
-0.00303285
-2.20537e-05
-2.46049e-05
-0.00299024
-3.2076e-05
-2.02948e-05
-0.00294839
-4.2e-05
-1.60958e-05
-0.0029072
-5.1804e-05
-1.20196e-05
-0.00286657
-6.14777e-05
-8.06218e-06
-0.0028264
-7.10256e-05
-4.21656e-06
-0.0027866
-8.04642e-05
-4.82947e-07
-0.00274706
-8.98138e-05
3.12051e-06
-0.00270766
-9.90833e-05
6.59375e-06
-0.00266829
-0.00010827
9.9623e-06
-0.00262886
-0.000117376
1.32476e-05
-0.00258931
-0.00012641
1.64652e-05
-0.00254957
-0.000135379
1.96251e-05
-0.00250957
-0.000144289
2.2734e-05
-0.00246926
-0.000153146
2.57973e-05
-0.00242859
-0.000161957
2.88195e-05
-0.0023875
-0.000170726
3.18038e-05
-0.00234593
-0.000179459
3.47525e-05
-0.00230384
-0.000188163
3.76677e-05
-0.00226117
-0.000196843
4.05504e-05
-0.00221788
-0.000205506
4.34015e-05
-0.0021739
-0.000214159
4.62216e-05
-0.00212918
-0.000222809
4.90109e-05
-0.00208367
-0.000231463
5.17696e-05
-0.0020373
-0.000240128
5.44973e-05
-0.00199001
-0.00024881
5.71935e-05
-0.00194175
-0.000257516
5.98575e-05
-0.00189243
-0.000266247
6.24888e-05
-0.00184201
-0.000275005
6.50867e-05
-0.00179041
-0.000283786
6.76511e-05
-0.00173757
-0.00029258
7.01821e-05
-0.00168343
-0.000301371
7.26799e-05
-0.00162795
-0.000310127
7.51453e-05
-0.00157109
-0.000318803
7.75795e-05
-0.00151286
-0.000327333
7.99849e-05
-0.00145327
-0.000335624
8.23652e-05
-0.0013924
-0.000343554
8.47257e-05
-0.00133037
-0.000350964
8.70738e-05
-0.0012674
-0.00035765
8.94185e-05
-0.00120375
-0.000363356
9.17697e-05
-0.00113982
-0.000367773
9.41365e-05
-0.00107608
-0.00037054
9.65258e-05
-0.00101315
-0.000371252
9.89395e-05
-0.000951738
-0.00036949
0.000101372
-0.000892657
-0.000364861
0.000103805
-0.000836811
-0.000357056
0.000106199
-0.000785175
-0.000345917
0.000108478
-0.000738775
-0.000331543
0.00011052
-0.000698615
-0.000314423
0.00011216
-0.000665538
-0.00029555
0.00011321
-0.000639998
-0.000276415
0.000113508
-0.000621751
-0.000258951
0.000113002
-0.000609608
-0.000245321
0.000111816
-0.000601357
-0.000237615
0.000110268
-0.000593971
-0.000237473
0.000108789
-0.000583968
-0.000245878
0.000107769
-0.000567807
-0.000263009
0.000107386
-0.00054195
-0.000288741
0.000107577
-0.000502558
-0.000323129
0.000108086
-0.000445359
-0.000365747
0.000108411
-0.000365976
-0.000414179
0.000107551
-0.00026135
-0.000460542
0.000104232
-0.000134734
-0.000485309
9.5964e-05
-0.00045389
8.20734e-05
-0.00453454
-0.000778097
8.67469e-05
-0.00418961
-0.00057095
4.83512e-05
-0.00395961
-0.000383129
2.15726e-05
-0.00380037
-0.000235586
6.92789e-06
-0.00368289
-0.000136927
-4.21168e-06
-0.00359116
-7.17682e-05
-1.1069e-05
-0.0035149
-3.26253e-05
-1.53946e-05
-0.00344841
-1.08881e-05
-1.75389e-05
-0.00338827
-1.11457e-06
-1.82205e-05
-0.00333255
8.29496e-07
-1.78185e-05
-0.00328004
-2.37222e-06
-1.66838e-05
-0.00323002
-8.86134e-06
-1.50772e-05
-0.00318202
-1.74058e-05
-1.31901e-05
-0.00313573
-2.71949e-05
-1.11447e-05
-0.00309091
-3.76964e-05
-9.04043e-06
-0.00304736
-4.85729e-05
-6.95218e-06
-0.00300488
-5.96327e-05
-4.90102e-06
-0.00296332
-7.07391e-05
-2.89833e-06
-0.00292254
-8.18189e-05
-9.56987e-07
-0.00288242
-9.28376e-05
9.11756e-07
-0.00284282
-0.00010378
2.7049e-06
-0.00280363
-0.000114644
4.42745e-06
-0.00276474
-0.000125438
6.08384e-06
-0.00272606
-0.000136175
7.67771e-06
-0.00268749
-0.000146866
9.21596e-06
-0.00264895
-0.000157516
1.0709e-05
-0.00261036
-0.000168132
1.21673e-05
-0.00257164
-0.000178723
1.35995e-05
-0.00253273
-0.0001893
1.50131e-05
-0.00249357
-0.000199869
1.64141e-05
-0.00245408
-0.000210438
1.78075e-05
-0.00241422
-0.000221012
1.91975e-05
-0.00237393
-0.000231599
2.05871e-05
-0.00233317
-0.000242204
2.19782e-05
-0.00229187
-0.000252834
2.3372e-05
-0.00224999
-0.000263494
2.4769e-05
-0.00220747
-0.000274191
2.61689e-05
-0.00216427
-0.000284932
2.75709e-05
-0.00212033
-0.000295725
2.89738e-05
-0.00207559
-0.000306577
3.03758e-05
-0.00203
-0.000317497
3.17749e-05
-0.00198349
-0.00032849
3.31686e-05
-0.00193599
-0.000339565
3.45546e-05
-0.00188745
-0.000350724
3.59306e-05
-0.00183778
-0.000361969
3.72949e-05
-0.00178691
-0.000373299
3.86466e-05
-0.00173477
-0.000384706
3.9986e-05
-0.00168128
-0.000396174
4.13145e-05
-0.00162637
-0.000407672
4.26356e-05
-0.00156998
-0.000419151
4.39551e-05
-0.00151206
-0.000430537
4.52826e-05
-0.00145258
-0.00044173
4.66323e-05
-0.00139157
-0.000452593
4.80247e-05
-0.00132907
-0.00046295
4.94879e-05
-0.0012652
-0.000472574
5.10581e-05
-0.00120015
-0.000481183
5.27799e-05
-0.00113419
-0.000488434
5.47059e-05
-0.0010677
-0.000493923
5.68949e-05
-0.00100115
-0.000497205
5.94092e-05
-0.000935133
-0.00049781
6.23085e-05
-0.00087034
-0.00049529
6.5639e-05
-0.000807547
-0.000489263
6.94172e-05
-0.000747607
-0.000479466
7.36109e-05
-0.00069144
-0.000465827
7.81188e-05
-0.000639993
-0.000448632
8.27641e-05
-0.00059419
-0.000428644
8.72932e-05
-0.000554874
-0.000407122
9.13939e-05
-0.000522649
-0.000385936
9.47598e-05
-0.000497621
-0.000367519
9.71707e-05
-0.00047907
-0.00035475
9.85844e-05
-0.00046521
-0.000350495
9.91624e-05
-0.00045319
-0.000357112
9.9214e-05
-0.00043964
-0.000375535
9.89761e-05
-0.000421061
-0.000405849
9.8528e-05
-0.000393701
-0.000448353
9.78636e-05
-0.000353348
-0.000502905
9.68047e-05
-0.00029544
-0.00056673
9.46348e-05
-0.000215432
-0.000630801
9.02157e-05
-0.000113341
-0.000668784
8.12725e-05
-0.000632789
6.55774e-05
-0.00427383
-0.00169608
0.000303442
-0.00392825
-0.00110245
0.000185914
-0.00373497
-0.000701642
0.000125229
-0.00361934
-0.000444897
9.36803e-05
-0.00353847
-0.000286754
6.89679e-05
-0.00347425
-0.000187789
5.17973e-05
-0.00341761
-0.000128383
3.9116e-05
-0.00336496
-9.37525e-05
3.02127e-05
-0.00331462
-7.54225e-05
2.39663e-05
-0.00326594
-6.75714e-05
1.9726e-05
-0.00321866
-6.65661e-05
1.69174e-05
-0.00317269
-6.99559e-05
1.51224e-05
-0.00312795
-7.6174e-05
1.40302e-05
-0.00308439
-8.41808e-05
1.3425e-05
-0.00304192
-9.33021e-05
1.31474e-05
-0.00300047
-0.000103103
1.30826e-05
-0.00295995
-0.000113305
1.31439e-05
-0.00292023
-0.000123726
1.32759e-05
-0.00288123
-0.00013426
1.34393e-05
-0.00284283
-0.000144848
1.36076e-05
-0.00280492
-0.000155458
1.37648e-05
-0.00276739
-0.000166077
1.39026e-05
-0.00273014
-0.000176704
1.40168e-05
-0.00269307
-0.000187346
1.41053e-05
-0.0026561
-0.00019801
1.41706e-05
-0.00261913
-0.000208703
1.42185e-05
-0.00258208
-0.000219435
1.42555e-05
-0.00254487
-0.000230216
1.42881e-05
-0.00250744
-0.000241053
1.43221e-05
-0.00246971
-0.000251956
1.43629e-05
-0.00243164
-0.00026293
1.44152e-05
-0.00239315
-0.000273983
1.44829e-05
-0.00235419
-0.000285121
1.45689e-05
-0.00231472
-0.000296349
1.46755e-05
-0.00227469
-0.000307672
1.48037e-05
-0.00223404
-0.000319098
1.49542e-05
-0.00219273
-0.000330632
1.51266e-05
-0.0021507
-0.00034228
1.53198e-05
-0.00210791
-0.00035405
1.55322e-05
-0.00206429
-0.00036595
1.57615e-05
-0.00201981
-0.000377987
1.60047e-05
-0.00197439
-0.00039017
1.62586e-05
-0.00192797
-0.000402505
1.65199e-05
-0.00188048
-0.000414997
1.67857e-05
-0.00183185
-0.000427652
1.70535e-05
-0.001782
-0.000440471
1.73222e-05
-0.00173084
-0.000453454
1.75927e-05
-0.00167829
-0.000466591
1.78666e-05
-0.00162425
-0.000479859
1.8149e-05
-0.00156864
-0.000493213
1.84484e-05
-0.00151137
-0.000506583
1.87775e-05
-0.00145238
-0.000519873
1.91559e-05
-0.00139163
-0.000532952
1.96115e-05
-0.00132912
-0.000545646
2.01835e-05
-0.00126488
-0.000557732
2.09235e-05
-0.00119903
-0.000568928
2.18963e-05
-0.00113175
-0.000578891
2.31806e-05
-0.00106332
-0.000587215
2.48678e-05
-0.000994138
-0.000593443
2.70585e-05
-0.000924709
-0.000597093
2.98567e-05
-0.000855666
-0.000597687
3.33564e-05
-0.000787759
-0.000594794
3.76261e-05
-0.000721845
-0.000588063
4.26857e-05
-0.000658884
-0.000577259
4.84738e-05
-0.000599854
-0.000562506
5.48458e-05
-0.000545709
-0.000544344
6.15578e-05
-0.000497351
-0.000523745
6.82672e-05
-0.000455547
-0.000502323
7.45846e-05
-0.000420826
-0.000482366
8.01273e-05
-0.000393267
-0.000466923
8.46159e-05
-0.000372194
-0.000459496
8.79293e-05
-0.000355793
-0.000463664
9.01528e-05
-0.000341442
-0.000481236
9.13497e-05
-0.000326116
-0.000512693
9.15198e-05
-0.000306418
-0.000558822
9.07731e-05
-0.000278413
-0.000620111
8.92049e-05
-0.000237516
-0.000693973
8.63571e-05
-0.00017812
-0.000771414
8.12362e-05
-9.69812e-05
-0.00082158
7.16321e-05
-0.000784173
5.44027e-05
-0.0038335
0.000568662
-0.00302488
-0.00358775
0.000318847
-0.00166704
-0.00347126
0.000217066
-0.0010352
-0.00342063
0.000164921
-0.000660446
-0.00338505
0.000126706
-0.000449035
-0.00335276
0.000100099
-0.000320183
-0.00331832
8.02962e-05
-0.000243116
-0.00328123
6.59318e-05
-0.000196778
-0.00324187
5.53549e-05
-0.000170134
-0.00320108
4.76266e-05
-0.000155989
-0.00315958
4.1938e-05
-0.000150003
-0.00311795
3.77394e-05
-0.000149326
-0.00307659
3.46041e-05
-0.000152138
-0.00303576
3.2227e-05
-0.000157235
-0.00299561
3.03814e-05
-0.000163833
-0.0029562
2.89035e-05
-0.000171414
-0.00291753
2.76755e-05
-0.000179643
-0.00287958
2.6615e-05
-0.000188299
-0.00284225
2.56625e-05
-0.000197243
-0.00280549
2.47753e-05
-0.00020639
-0.00276918
2.39253e-05
-0.000215691
-0.00273323
2.30944e-05
-0.000225119
-0.00269755
2.22711e-05
-0.000234661
-0.00266203
2.14486e-05
-0.000244315
-0.00262658
2.06245e-05
-0.000254082
-0.00259111
1.97995e-05
-0.000263968
-0.00255554
1.89758e-05
-0.000273979
-0.00251979
1.81565e-05
-0.000284121
-0.00248379
1.73454e-05
-0.000294401
-0.00244746
1.65463e-05
-0.000304826
-0.00241075
1.5763e-05
-0.000315401
-0.0023736
1.49986e-05
-0.000326132
-0.00233595
1.42558e-05
-0.000337023
-0.00229776
1.35364e-05
-0.000348079
-0.00225897
1.28416e-05
-0.000359306
-0.00221953
1.21716e-05
-0.000370706
-0.00217941
1.15261e-05
-0.000382286
-0.00213854
1.09036e-05
-0.000394051
-0.00209688
1.0302e-05
-0.000406008
-0.00205439
9.7182e-06
-0.000418163
-0.002011
9.14843e-06
-0.000430524
-0.00196666
8.58826e-06
-0.000443098
-0.00192131
8.03294e-06
-0.000455891
-0.00187487
7.47768e-06
-0.000468912
-0.00182727
6.91811e-06
-0.000482165
-0.00177844
6.35074e-06
-0.000495654
-0.00172828
5.77585e-06
-0.000509391
-0.00167669
5.19132e-06
-0.000523375
-0.00162355
4.60297e-06
-0.000537599
-0.00156875
4.0183e-06
-0.000552025
-0.00151219
3.45045e-06
-0.000566597
-0.00145375
2.92069e-06
-0.000581231
-0.00139335
2.46035e-06
-0.00059581
-0.00133093
2.11336e-06
-0.00061018
-0.00126646
1.93901e-06
-0.000624136
-0.00119998
2.01396e-06
-0.000637418
-0.0011316
2.43282e-06
-0.000649702
-0.00106152
3.30691e-06
-0.000660601
-0.000990049
4.76158e-06
-0.000669673
-0.000917633
6.93314e-06
-0.00067644
-0.00084487
9.96055e-06
-0.000680409
-0.000772515
1.3967e-05
-0.000681114
-0.000701475
1.90334e-05
-0.000678134
-0.000632829
2.51468e-05
-0.000671049
-0.000567655
3.22334e-05
-0.000659911
-0.000507041
4.00925e-05
-0.000645047
-0.000452017
4.83947e-05
-0.000627161
-0.000403468
5.67247e-05
-0.000607593
-0.000362081
6.462e-05
-0.00058837
-0.000328243
7.16692e-05
-0.000572427
-0.000301859
7.75524e-05
-0.00056343
-0.000281842
8.21656e-05
-0.000565844
-0.00026627
8.52995e-05
-0.000582105
-0.000252623
8.67061e-05
-0.000613044
-0.000237881
8.64719e-05
-0.000660034
-0.000218531
8.48649e-05
-0.000724327
-0.000190196
8.15944e-05
-0.000803902
-0.00014679
7.57666e-05
-0.000890578
-8.26761e-05
6.51466e-05
-0.000950843
4.6044e-05
-0.000912892
-0.00425496
-0.000109014
-0.00036082
-0.004051
-9.75491e-05
-0.000318471
-0.00387565
-7.67211e-05
-0.000286129
-0.00373875
-4.3801e-05
-0.000259916
-0.00363127
-1.91405e-05
-0.000238853
-0.00354654
-8.03212e-07
-0.000220762
-0.00347749
1.06196e-05
-0.000204755
-0.00341913
1.70208e-05
-0.000189923
-0.00336787
1.97188e-05
-0.000175756
-0.00332128
1.99397e-05
-0.000161977
-0.00327777
1.85072e-05
-0.00014847
-0.00323629
1.60044e-05
-0.000135178
-0.00319614
1.28183e-05
-0.000122097
-0.00315687
9.21823e-06
-0.000109238
-0.00311817
5.37733e-06
-9.66223e-05
-0.00307984
1.40233e-06
-8.42699e-05
-0.0030417
-2.65271e-06
-7.22156e-05
-0.00300361
-6.76229e-06
-6.04902e-05
-0.00296547
-1.08928e-05
-4.90876e-05
-0.00292719
-1.5015e-05
-3.79884e-05
-0.00288872
-1.91145e-05
-2.71828e-05
-0.00285001
-2.31785e-05
-1.66657e-05
-0.0028111
-2.71811e-05
-6.42577e-06
-0.00277209
-3.1103e-05
3.54405e-06
-0.00273301
-3.49568e-05
1.32506e-05
-0.00269383
-3.87676e-05
2.2698e-05
-0.0026545
-4.255e-05
3.19066e-05
-0.00261496
-4.63073e-05
4.08893e-05
-0.00257517
-5.00432e-05
4.96617e-05
-0.00253506
-5.3762e-05
5.82385e-05
-0.00249459
-5.74672e-05
6.66335e-05
-0.00245372
-6.11619e-05
7.4857e-05
-0.00241238
-6.48483e-05
8.29169e-05
-0.00237053
-6.8529e-05
9.08212e-05
-0.00232813
-7.2207e-05
9.85781e-05
-0.00228512
-7.58853e-05
0.000106195
-0.00224146
-7.95666e-05
0.000113677
-0.0021971
-8.3254e-05
0.00012103
-0.00215198
-8.69505e-05
0.000128261
-0.00210606
-9.06593e-05
0.000135375
-0.00205927
-9.43829e-05
0.000142377
-0.00201156
-9.81238e-05
0.00014927
-0.00196287