/*--------------------------------*- C++ -*----------------------------------*\
| =========                 |                                                 |
| \\      /  F ield         | OpenFOAM: The Open Source CFD Toolbox           |
|  \\    /   O peration     | Version:  v1912                                 |
|   \\  /    A nd           | Website:  www.openfoam.com                      |
|    \\/     M anipulation  |                                                 |
\*---------------------------------------------------------------------------*/
FoamFile
{
    version     2.0;
    format      ascii;
    class       volScalarField;
    location    "935";
    object      qr;
}
// * * * * * * * * * * * * * * * * * * * * * * * * * * * * * * * * * * * * * //

dimensions      [1 0 -3 0 0 0 0];


internalField   uniform 0;

boundaryField
{
    box
    {
        type            calculated;
        value           nonuniform List<scalar> 
300
(
-4730.79
-4685.71
-4675.59
-4700.86
-4770.58
-4632.91
-4585.08
-4575.37
-4604.28
-4682.15
-4574.93
-4525.23
-4515.75
-4546.89
-4628.92
-4542.86
-4492.09
-4482.74
-4515.1
-4599.16
-4530.41
-4479.27
-4470.05
-4502.99
-4587.93
-4535.22
-4484.34
-4475.31
-4508.37
-4593.42
-4557.56
-4507.59
-4498.79
-4531.5
-4615.84
-4600.45
-4552.12
-4543.53
-4575.18
-4657.55
-4671.05
-4625.19
-4616.68
-4646.11
-4724.14
-4784.8
-4742.4
-4733.7
-4759.23
-4828.39
-4816.42
-4726.67
-4673.51
-4643.92
-4631.91
-4635.18
-4653.99
-4691.29
-4753.93
-4856.42
-4775.5
-4683.2
-4628.28
-4597.66
-4585.25
-4588.7
-4608.29
-4647.01
-4711.85
-4817.45
-4766.77
-4674.69
-4619.84
-4589.23
-4576.86
-4580.45
-4600.26
-4639.21
-4704.19
-4809.7
-4790.51
-4701.39
-4648.3
-4618.63
-4606.71
-4610.41
-4629.98
-4668.13
-4731.32
-4833.58
-4855.05
-4772.72
-4722.98
-4694.89
-4683.67
-4687.5
-4706.62
-4743.32
-4803.05
-4897.85
-4811.72
-4770.93
-4762.17
-4785.74
-4849.63
-4723.13
-4679.81
-4671.28
-4697.78
-4768.41
-4670.53
-4625.47
-4617
-4645.26
-4719.24
-4641.29
-4595.21
-4586.76
-4615.96
-4691.52
-4629.55
-4583.08
-4574.68
-4604.32
-4680.57
-4633.02
-4586.75
-4578.49
-4608.24
-4684.62
-4652
-4606.5
-4598.46
-4627.97
-4703.89
-4689.38
-4645.31
-4637.5
-4666.21
-4740.65
-4751.89
-4710.03
-4702.36
-4729.28
-4800.24
-4853.64
-4814.87
-4807.12
-4830.81
-4894.35
-4729.75
-4631.21
-4572.78
-4540.39
-4527.7
-4532.33
-4554.54
-4597.39
-4668.04
-4781.87
-4684.66
-4583.35
-4523.04
-4489.57
-4476.49
-4481.36
-4504.48
-4548.95
-4622.06
-4739.36
-4674.58
-4573.72
-4513.63
-4480.28
-4467.32
-4472.37
-4495.7
-4540.37
-4613.55
-4730.65
-4699.95
-4602.77
-4544.94
-4512.81
-4500.43
-4505.58
-4528.55
-4572.14
-4643.09
-4756.26
-4769.83
-4680.88
-4627.23
-4597.15
-4585.65
-4590.9
-4613.14
-4654.75
-4721.35
-4825.62
-4754.61
-4664.01
-4609.58
-4579.13
-4567.55
-4572.95
-4595.54
-4637.69
-4705.11
-4810.93
-4664.42
-4564.23
-4504.66
-4471.64
-4459.04
-4464.55
-4488.36
-4533.27
-4606.14
-4722.28
-4610.36
-4505.03
-4441.93
-4407.03
-4393.72
-4399.37
-4424.17
-4471.19
-4547.72
-4669.48
-4580.24
-4472.35
-4407.29
-4371.26
-4357.45
-4363.13
-4388.54
-4436.82
-4515.42
-4640
-4568.96
-4460.03
-4394.15
-4357.59
-4343.49
-4349.14
-4374.74
-4423.51
-4502.9
-4628.54
-4574.59
-4465.72
-4399.9
-4363.36
-4349.21
-4354.74
-4380.17
-4428.7
-4507.8
-4633.14
-4597.34
-4489.64
-4424.8
-4388.85
-4374.89
-4380.24
-4405.1
-4452.64
-4530.34
-4654
-4639.57
-4534.65
-4471.99
-4437.29
-4423.8
-4428.87
-4452.73
-4498.44
-4573.41
-4693.53
-4707.04
-4607.63
-4548.78
-4516.15
-4503.42
-4508.16
-4530.57
-4573.52
-4644.01
-4757.63
-4812.96
-4723.95
-4670.81
-4641.03
-4629.34
-4633.74
-4654.44
-4693.84
-4757.8
-4859.79
)
;
    }
    floor
    {
        type            calculated;
        value           nonuniform List<scalar> 
5125
(
449.812
485.583
527.645
574.245
622.267
485.048
525.301
573.699
628.44
685.892
526.303
573.002
631.536
700.393
775.318
571.957
626.966
699.657
789.94
894.162
619.1
683.689
773.854
893.386
1044.78
663.786
737.816
845.792
997.85
1215.62
701.964
783.443
904.158
1074.83
1313.5
730.849
817.368
945.804
1125.79
1371.48
748.995
838.476
971.065
1155.42
1403.56
755.802
846.581
980.927
1167.01
1416
751.03
841.673
975.941
1162.04
1411.2
734.551
823.594
955.905
1140.26
1388.86
706.352
792.043
919.859
1099.66
1345.96
666.814
746.925
866.412
1036.32
1275.36
617.22
689.141
794.879
944.844
1161.62
558.491
619.715
705.626
819.574
962.66
494.355
544.377
610.479
692.265
785.717
431.151
471.338
521.344
579.752
642.756
372.057
404.228
442.105
484.324
528.183
318.775
344.626
373.607
404.679
436.062
271.903
292.818
315.297
338.609
361.603
231.343
248.396
266.082
283.899
301.104
196.624
210.634
224.735
238.59
251.71
167.114
178.703
190.084
201.027
211.206
142.142
151.788
161.073
169.836
177.86
121.064
129.139
136.785
143.89
150.306
103.297
110.09
116.439
122.263
127.461
88.3268
94.0691
99.3795
104.2
108.46
75.7104
80.5854
85.0565
89.0811
92.6089
65.0702
69.2262
73.0128
76.3986
79.3476
56.0875
59.6445
62.8689
65.7369
68.2226
48.4942
51.5505
54.3099
56.7544
58.8653
42.0662
44.7021
47.0748
49.1702
50.9748
36.6157
38.8978
40.947
42.7527
44.3049
31.9863
33.9694
35.7471
37.3107
38.6532
28.0472
29.7771
31.3256
32.686
33.8532
24.6893
26.2042
27.5586
28.7475
29.7671
21.8215
23.1532
24.3427
25.3861
26.2809
19.3674
20.5426
21.5917
22.5113
23.2999
17.2631
18.3045
19.2335
20.0474
20.7453
15.4552
16.3818
17.2077
17.931
18.5512
13.8988
14.7265
15.4639
16.1093
16.6627
12.5559
13.2985
13.9595
14.5378
15.0335
11.3948
12.0639
12.6589
13.1791
13.6248
10.3888
10.9941
11.532
12.0018
12.4041
9.51505
10.0651
10.5533
10.9793
11.3439
8.75451
9.25636
9.70133
10.0892
10.4208
8.09096
8.55079
8.95801
9.31251
9.61531
7.51065
7.93371
8.30788
8.63317
8.91065
7.00191
7.39273
7.73789
8.03751
8.2927
6.55485
6.9173
7.23693
7.51394
7.74947
6.16102
6.49845
6.79556
7.05259
7.27073
5.81327
6.12856
6.40573
6.64506
6.84778
5.50548
5.80114
6.06061
6.28422
6.47322
5.23245
5.51064
5.75435
5.96397
6.14073
4.98975
5.25234
5.482
5.67911
5.84493
4.7736
5.02224
5.23931
5.42522
5.58123
4.58078
4.81689
5.02267
5.19853
5.34571
4.40855
4.63339
4.82899
4.9958
5.13504
4.25456
4.46923
4.65567
4.81432
4.94638
4.11683
4.32231
4.50046
4.65173
4.77731
3.99366
4.19082
4.36147
4.50605
4.62576
3.88362
4.07323
4.23707
4.3756
4.48999
3.78548
3.96822
4.12589
4.25894
4.3685
3.69818
3.87469
4.02676
4.15484
4.26004
3.62085
3.79168
3.93868
4.06226
4.16351
3.55269
3.71837
3.86077
3.9803
4.07801
3.49305
3.65405
3.79231
3.90819
4.00273
3.44134
3.5981
3.73262
3.84526
3.93699
3.39702
3.54996
3.68114
3.7909
3.88017
3.35962
3.50911
3.63733
3.74457
3.83172
3.32866
3.47507
3.6007
3.70577
3.79114
3.30371
3.44738
3.57076
3.67401
3.75794
3.2843
3.42557
3.54702
3.6488
3.73161
3.26995
3.40914
3.52902
3.62963
3.71168
3.26016
3.39759
3.51621
3.61601
3.6976
3.25439
3.39039
3.50807
3.60737
3.68883
3.25206
3.38695
3.50402
3.60312
3.68477
3.25253
3.38665
3.50343
3.60264
3.68475
3.25514
3.38885
3.50565
3.60525
3.68809
3.25919
3.39284
3.50994
3.61018
3.69399
3.26394
3.39785
3.51552
3.61662
3.70158
3.26862
3.40305
3.5215
3.62362
3.70988
3.27236
3.40751
3.52686
3.63011
3.71774
3.27418
3.41011
3.53042
3.63483
3.72383
3.27292
3.40959
3.53079
3.63628
3.72659
3.26717
3.4044
3.5263
3.63271
3.72417
3.25527
3.39275
3.51504
3.62207
3.71441
3.23528
3.37253
3.49476
3.602
3.69486
3.205
3.34138
3.46295
3.56985
3.66272
3.16203
3.29671
3.41686
3.52271
3.61495
3.10391
3.23586
3.35361
3.45752
3.54833
3.02831
3.15623
3.27038
3.37124
3.45961
2.93328
3.05553
3.16457
3.26103
3.34571
2.81758
2.93181
3.0338
3.12418
3.20366
667.323
705.61
734.597
752.847
759.748
755.055
738.63
710.454
670.904
621.261
740.486
786.409
820.554
841.838
850.084
845.283
827.275
795.756
750.624
692.783
847.807
906.588
948.546
974.048
984.095
979.246
959.299
923.289
869.821
798.208
999.326
1076.84
1128.19
1158.11
1169.92
1165.12
1143.45
1102.89
1039.51
947.93
1216.67
1315.2
1373.63
1406.03
1418.71
1414.09
1391.87
1349.02
1278.38
1164.55
1119.12
1209.07
1262.34
1292
1304.04
1300.77
1281.91
1244.52
1181.75
1079.02
878.324
946.679
992.061
1018.7
1029.68
1026.38
1008.58
974.362
920.07
840.795
703.197
752.158
787.182
808.68
817.592
814.452
799.082
770.597
727.695
669.667
569.657
604.494
630.448
646.809
653.532
650.659
638.071
615.49
582.75
540.407
465.41
490.371
509.322
521.406
526.25
523.699
513.676
496.189
471.484
440.333
382.855
400.946
414.761
423.572
426.968
424.754
416.882
403.462
384.831
361.673
316.802
330.094
340.222
346.635
348.985
347.097
340.946
330.66
316.551
299.152
263.519
273.431
280.934
285.629
287.253
285.669
280.866
272.96
262.206
249.003
220.244
227.754
233.387
236.865
237.997
236.686
232.931
226.827
218.571
208.458
184.892
190.673
194.969
197.586
198.393
197.322
194.38
189.642
183.259
175.446
155.862
160.386
163.717
165.724
166.317
165.455
163.145
159.449
154.48
148.397
131.916
135.511
138.137
139.709
140.165
139.479
137.664
134.767
130.875
126.105
112.079
114.979
117.086
118.342
118.71
118.173
116.746
114.466
111.401
107.637
95.5853
97.9565
99.6739
100.7
101.01
100.597
99.4752
97.6755
95.249
92.2632
81.8221
83.7858
85.2066
86.0602
86.3327
86.0224
85.1417
83.717
81.7883
79.4075
70.3001
71.9449
73.1362
73.859
74.1059
73.8788
73.1892
72.0592
70.5205
68.6138
60.6247
62.0164
63.0272
63.6484
63.8771
63.7169
63.1788
62.2814
61.0501
59.5171
52.4765
53.6646
54.5311
55.0717
55.2862
55.1795
54.7617
54.0484
53.0605
51.8236
45.5955
46.6177
47.3673
47.8425
48.0452
47.9806
47.6581
47.0911
46.2968
45.2957
39.7693
40.6549
41.3083
41.7295
41.9215
41.8898
41.6429
41.1923
40.5524
39.7399
34.8238
35.5958
36.169
36.5447
36.7266
36.7202
36.5331
36.1753
35.659
34.9979
30.6155
31.2921
31.7978
32.1348
32.3069
32.3194
32.1796
31.8959
31.4787
30.9395
27.0261
27.622
28.0703
28.3736
28.5361
28.5627
28.46
28.2355
27.898
27.4572
23.9573
24.4845
24.8836
25.1576
25.3105
25.3472
25.2736
25.0964
24.823
24.4619
21.3277
21.796
22.1526
22.4007
22.5443
22.588
22.537
22.3975
22.1759
21.8793
19.0692
19.4868
19.8065
20.0317
20.1661
20.2143
20.1809
20.0714
19.8915
19.6474
17.1252
17.4989
17.7864
17.9911
18.1167
18.1673
18.1474
18.0619
17.9157
17.7142
15.448
15.7835
16.0429
16.2293
16.3464
16.398
16.3884
16.3217
16.2027
16.036
13.9977
14.3
14.5345
14.7045
14.8135
14.865
14.863
14.8114
14.7144
14.5759
12.7408
13.014
13.2267
13.3819
13.4831
13.5337
13.5373
13.4976
13.4182
13.3028
11.6489
11.8966
12.0899
12.2319
12.3257
12.3748
12.3824
12.352
12.2868
12.1902
10.6981
10.9234
11.0996
11.2296
11.3165
11.3636
11.374
11.3508
11.297
11.2158
9.86828
10.0738
10.2347
10.3539
10.4344
10.4792
10.4913
10.4737
10.4291
10.3603
9.14222
9.33028
9.47758
9.58698
9.66142
9.7038
9.71691
9.70353
9.66628
9.60768
8.5054
8.67797
8.81315
8.91371
8.98251
9.02233
9.03585
9.02566
8.99424
8.94389
7.94546
8.10429
8.22862
8.32117
8.38473
8.42196
8.43543
8.42759
8.40077
8.35713
7.45191
7.5985
7.7131
7.7984
7.85708
7.89173
7.9048
7.89865
7.87545
7.83722
7.0158
7.15146
7.25733
7.33603
7.39019
7.42231
7.43473
7.42972
7.40933
7.37548
6.62951
6.75538
6.8534
6.92611
6.97608
7.00572
7.01732
7.01302
6.99479
6.96444
6.28653
6.40364
6.49458
6.56183
6.6079
6.63516
6.64579
6.64187
6.62528
6.59772
5.98133
6.09057
6.1751
6.23737
6.27984
6.3048
6.31438
6.31058
6.29519
6.26984
5.70919
5.81132
5.89005
5.94779
5.98692
6.00968
6.01815
6.01425
5.99972
5.9761
5.46607
5.56179
5.63526
5.68884
5.72487
5.74555
5.75287
5.74871
5.73475
5.71247
5.24855
5.33847
5.40715
5.45693
5.49008
5.50877
5.51493
5.5104
5.49678
5.47551
5.05369
5.13834
5.20268
5.24896
5.27945
5.29625
5.30126
5.29625
5.2828
5.26227
4.879
4.95888
5.01924
5.06232
5.09034
5.10536
5.10922
5.10368
5.09024
5.07024
4.72236
4.7979
4.85464
4.89479
4.92052
4.93384
4.9366
4.93047
4.91693
4.89727
4.58197
4.65357
4.70701
4.74446
4.76807
4.77981
4.78149
4.77474
4.76101
4.74155
4.4563
4.52431
4.57475
4.60973
4.63138
4.64165
4.64228
4.63491
4.62093
4.60156
4.34404
4.40882
4.45652
4.48925
4.50911
4.518
4.51765
4.50964
4.49536
4.476
4.2441
4.30594
4.35118
4.38187
4.40009
4.40771
4.40643
4.39782
4.38322
4.3638
4.15553
4.21474
4.25776
4.28662
4.30336
4.30983
4.3077
4.29852
4.28359
4.26406
4.07752
4.1344
4.17545
4.20269
4.21811
4.22356
4.22066
4.21095
4.19571
4.17606
4.00936
4.0642
4.10354
4.12937
4.14365
4.14821
4.14465
4.13447
4.11896
4.09919
3.95046
4.00354
4.04143
4.06606
4.0794
4.08321
4.07911
4.06855
4.05282
4.03296
3.90025
3.95187
3.98857
4.01225
4.02483
4.02808
4.02357
4.01275
3.99687
3.97698
3.85822
3.90869
3.94447
3.96745
3.97951
3.98238
3.97763
3.96668
3.95076
3.9309
3.82389
3.87352
3.90868
3.93122
3.943
3.94572
3.9409
3.92998
3.91415
3.89443
3.79678
3.84587
3.88072
3.90312
3.91488
3.91769
3.91303
3.90232
3.88674
3.8673
3.77638
3.82528
3.86013
3.88268
3.89473
3.89788
3.89363
3.88335
3.86821
3.8492
3.76218
3.8112
3.84638
3.86942
3.88205
3.88585
3.88227
3.87267
3.8582
3.83982
3.7536
3.80308
3.83892
3.86277
3.87631
3.88107
3.87847
3.86982
3.85627
3.83876
3.75003
3.80029
3.83712
3.86211
3.87689
3.88293
3.88162
3.87424
3.86189
3.84551
3.75081
3.80214
3.84026
3.86672
3.88306
3.89073
3.89104
3.88524
3.8744
3.85945
3.7552
3.80785
3.84755
3.87576
3.89398
3.90359
3.90586
3.90198
3.89299
3.87977
3.76237
3.81658
3.85809
3.88831
3.90868
3.92053
3.92506
3.92342
3.9166
3.90546
3.77141
3.82735
3.87084
3.90327
3.92602
3.94036
3.94743
3.94833
3.944
3.93525
3.78127
3.83906
3.88465
3.91941
3.94469
3.9617
3.97153
3.97522
3.97364
3.96759
3.79076
3.85044
3.89819
3.93535
3.96323
3.983
3.99573
4.00237
4.00376
4.00064
3.79848
3.86005
3.90993
3.94947
3.97994
4.0025
4.01816
4.02783
4.03232
4.03231
3.80279
3.86616
3.91809
3.95992
3.99291
4.01819
4.03673
4.04943
4.05703
4.06019
3.80176
3.86677
3.9206
3.96457
3.99993
4.02778
4.04908
4.06469
4.07533
4.08163
3.79316
3.85958
3.91508
3.96097
3.99847
4.0287
4.05257
4.07092
4.08445
4.09376
3.77441
3.84193
3.89881
3.94634
3.98573
4.01807
4.04427
4.06513
4.08133
4.09346
3.74264
3.81085
3.86874
3.91756
3.9585
3.99264
4.02085
4.04394
4.06255
4.07725
3.69465
3.76304
3.82145
3.87112
3.91321
3.94875
3.97861
4.00356
4.02423
4.04118
3.62708
3.69498
3.75329
3.80324
3.84594
3.88238
3.91342
3.93978
3.96209
3.98089
3.53649
3.60304
3.66048
3.70997
3.75259
3.78929
3.82089
3.84809
3.8715
3.89163
3.41957
3.48371
3.53927
3.58738
3.62904
3.66517
3.69655
3.72385
3.74765
3.76845
3.2731
3.33353
3.386
3.43157
3.47119
3.50572
3.5359
3.56237
3.58568
3.60632
560.667
492.582
425.928
364.262
309.338
261.634
220.874
186.414
157.474
133.269
113.071
96.2356
82.2068
70.5128
60.7583
52.6144
45.8079
40.1127
35.3419
31.3411
27.9824
25.1603
22.7871
20.7903
19.1094
17.6942
16.5022
15.4974
14.6494
13.9319
13.3222
12.7999
12.3461
11.9428
11.5721
11.2161
10.8567
10.4762
10.0576
9.58614
621.155
541.277
464.456
394.669
333.458
280.922
236.434
199.071
167.848
141.83
120.179
102.17
87.1881
74.7157
64.323
55.6536
48.413
42.3583
37.289
33.0398
29.4741
26.4791
23.9615
21.8438
20.0617
18.5615
17.2983
16.2341
15.3367
14.5783
13.9349
13.3847
12.9077
12.4846
12.0964
11.7239
11.3476
10.9485
10.5081
10.0087
706.105
605.448
512.127
430.191
360.254
301.45
252.408
211.683
177.936
149.992
126.85
107.671
91.7605
78.5444
67.5509
58.3926
50.7521
44.3686
39.028
34.5542
30.8021
27.652
25.0052
22.7796
20.9074
19.3319
18.0057
16.889
15.9478
15.153
14.4794
13.904
13.4057
12.9643
12.5597
12.1719
11.7803
11.3643
10.9039
10.3794
818.643
684.511
567.482
469.517
388.765
322.563
268.36
223.961
187.545
157.623
132.99
112.671
95.8738
81.9607
70.4132
60.8103
52.8099
46.133
40.5516
35.8792
31.9628
28.6764
25.9163
23.5963
21.6454
20.0043
18.6233
17.4609
16.4817
15.6553
14.9551
14.3575
13.8403
13.3825
12.9633
12.5619
12.1569
11.7268
11.2495
10.7027
959.499
774.372
626.872
510.151
417.397
343.255
283.654
235.497
196.407
164.547
138.484
117.09
99.4732
84.9259
72.8813
62.8844
54.5685
47.6368
41.8482
37.0062
32.9501
29.5481
26.692
24.2922
22.2749
20.5783
19.1512
17.9502
16.9389
16.0857
15.363
14.7463
14.2128
13.7409
13.3091
12.896
12.4794
12.0371
11.5456
10.9797
1112.95
863.108
683.714
548.49
444.093
362.3
297.53
245.808
204.213
170.562
143.196
120.839
102.5
87.4009
74.9297
64.5984
56.0175
48.8735
42.9133
37.9317
33.7613
30.2653
27.3315
24.8673
22.7964
21.0552
19.5909
18.3589
17.3215
16.4465
15.7054
15.073
14.5261
14.0424
13.6001
13.1772
12.7511
12.2984
11.7946
11.2125
1201.94
929.217
730.025
580.774
466.792
378.468
309.224
254.405
210.645
175.459
146.991
123.829
104.894
89.3468
76.5333
65.9369
57.1477
49.8383
43.7454
38.6563
34.3983
30.8304
27.8374
25.3243
23.2128
21.4379
19.9454
18.6898
17.6327
16.7409
15.9856
15.341
14.7835
14.2905
13.8398
13.4091
12.9752
12.514
11.9999
11.4039
1254.78
973.386
763.334
604.894
484.022
390.775
318.079
260.854
215.414
179.047
149.74
125.976
106.601
90.729
77.6704
66.8867
57.952
50.5281
44.3439
39.1813
34.8635
31.2467
28.2135
25.6671
23.5281
21.7302
20.2186
18.9469
17.8762
16.9728
16.2075
15.5542
14.989
14.4891
14.0322
13.5955
13.1556
12.6876
12.1649
11.5574
1284.15
999.351
783.799
620.077
494.954
398.551
323.607
264.814
218.288
181.171
151.343
127.213
107.579
91.5202
78.3248
67.4387
58.4262
50.9418
44.7098
39.5089
35.1601
31.518
28.4638
25.9001
23.7466
21.9367
20.4148
19.1344
18.0561
17.1462
16.3751
15.7166
15.1466
14.6422
14.1811
13.7403
13.296
12.8228
12.2932
11.676
1295.95
1009.93
792.163
626.18
499.19
401.402
325.492
266.053
219.106
181.722
151.727
127.495
107.8
91.7048
78.4882
67.5898
58.57
51.0811
44.8462
39.6431
35.2924
31.6487
28.593
26.0279
23.8729
22.0616
20.5383
19.2565
18.1767
17.2651
16.4923
15.832
15.26
14.7536
14.2902
13.8471
13.4
12.9231
12.3882
11.7631
1292.46
1006.44
788.86
623.188
496.557
399.136
323.574
264.453
217.788
180.648
150.861
126.805
107.255
91.28
78.1617
67.3433
58.3882
50.9515
44.7586
39.5892
35.2658
31.644
28.6059
26.055
23.9115
22.1094
20.5933
19.3172
18.2417
17.3334
16.5629
15.904
15.3328
14.8266
14.3631
13.9192
13.4708
12.9916
12.4529
11.8217
1273.39
988.626
773.724
610.99
486.987
391.712
317.833
260.007
214.334
177.955
148.754
125.152
105.956
90.2577
77.3569
66.7099
57.8907
50.5619
44.4552
39.3549
35.0869
31.5099
28.5081
25.9866
23.867
22.0843
20.5839
19.3203
18.2549
17.3545
16.5901
15.9359
15.3682
14.8645
14.4025
13.9596
13.5112
13.0311
12.4899
11.8542
1235.85
954.708
745.985
589.388
470.523
379.251
308.393
252.822
208.83
173.711
145.46
122.58
103.937
88.6653
76.0959
65.7083
57.0929
49.9256
43.9472
38.9495
34.764
31.2535
28.3057
25.8281
23.7443
21.9907
20.514
19.2697
18.2197
17.3317
16.5772
15.9307
15.369
14.8698
14.4113
13.9707
13.5238
13.044
12.5017
11.8629
1173.05
901.29
704.568
558.334
447.452
362.086
295.544
243.125
201.448
168.043
141.074
119.16
101.252
86.5443
74.4115
64.3641
56.0158
49.0593
43.2484
38.3846
34.3067
30.8831
28.0057
25.5855
23.5486
21.8332
20.3878
19.1688
18.1395
17.2681
16.5269
15.8911
15.3378
14.8452
14.3917
13.9549
13.5107
13.0323
12.4901
11.8497
1070.84
824.015
649.048
518.464
418.53
340.85
279.763
231.264
192.44
161.134
135.726
114.988
97.9726
83.9493
72.3455
62.71
54.6847
47.9833
42.3752
37.6734
33.7258
30.4075
27.6157
25.2652
23.2852
21.6164
20.2091
19.0213
18.0174
17.1666
16.442
15.8196
15.2769
14.7927
14.3458
13.9142
13.4737
12.9979
12.4569
11.8161
892.59
718.697
579.757
470.398
384.16
315.76
261.152
217.274
181.801
152.96
129.388
110.032
94.0682
80.8517
69.8721
60.7235
53.0806
46.6815
41.3138
36.8045
33.0119
29.8189
27.129
24.8616
22.9496
21.3367
19.9751
18.8248
17.8515
17.0256
16.3213
15.7152
15.1856
14.7119
14.2733
13.8481
13.4126
12.9405
12.4017
11.7619
728.242
609.301
504.93
417.718
346.185
287.866
240.346
201.553
169.788
143.689
122.169
104.365
89.5863
77.2829
67.0124
58.4184
51.2122
45.1593
40.0676
35.7797
32.1655
29.1172
26.545
24.374
22.5409
20.9928
19.6846
18.578
17.6405
16.844
16.1635
15.5767
15.0627
14.6015
14.1728
13.7555
13.3263
12.8588
12.3235
11.6859
594.5
511.447
434.045
366.046
308.089
259.436
218.883
185.177
157.172
133.884
114.488
98.302
84.7679
73.4288
63.9108
55.9081
49.1696
43.4885
38.6943
34.6456
31.2247
28.3335
25.8895
23.8234
22.0766
20.5995
19.3497
18.2912
17.3933
16.6291
15.9751
15.4098
14.9132
14.466
14.0485
13.6402
13.218
12.7562
12.2253
11.591
487.57
428.132
370.583
318.029
271.703
231.715
197.617
168.741
144.375
123.849
106.565
92.0062
79.7344
69.3808
60.6372
53.2466
46.9944
41.702
37.2199
33.423
30.2064
27.4815
25.1735
23.2191
21.5643
20.163
18.9758
17.969
17.1136
16.3843
15.7589
15.217
14.7393
14.3073
13.9022
13.5037
13.0895
12.6341
12.1084
11.4786
402.083
358.638
315.495
274.919
238.129
205.568
177.197
152.726
131.753
113.849
98.5993
85.6274
74.5995
65.2261
57.2589
50.4859
44.7277
39.8321
35.6701
32.1326
29.1271
26.5746
24.4081
22.5702
21.0115
19.6896
18.5682
17.6157
16.8052
16.1129
15.5178
15.0006
14.5432
14.1275
13.7355
13.3476
12.9421
12.4938
11.9741
11.3497
333.43
301.126
268.464
237.042
207.881
181.502
158.061
137.488
119.587
104.101
90.7594
79.296
69.4648
61.0439
53.8376
47.6751
42.4082
37.9095
34.0696
30.7943
28.003
25.6262
23.6043
21.8856
20.4256
19.1856
18.132
17.2358
16.4719
15.8181
15.2546
14.7633
14.3269
13.9284
13.5503
13.1736
12.7772
12.3366
11.8236
11.2057
277.984
253.622
228.652
204.199
181.066
159.742
140.456
123.256
108.073
94.7703
83.1792
73.1199
64.4164
56.9029
50.4286
44.8579
40.0711
35.9629
32.4415
29.4269
26.8495
24.6488
22.7723
21.174
19.8139
18.657
17.6725
16.8338
16.1174
15.503
14.972
14.5073
14.0928
13.712
13.3483
12.9833
12.5965
12.164
11.6584
11.0478
232.94
214.35
195.085
175.947
157.551
140.316
124.483
110.156
97.3379
85.971
75.9579
67.1829
59.5239
52.8605
47.0786
42.0728
37.7477
34.0177
30.8068
28.0475
25.6808
23.6543
21.9221
20.4438
19.1835
18.1098
17.1947
16.4137
15.7455
15.1709
14.6728
14.2352
13.8429
13.4802
13.1312
12.7782
12.4014
11.9775
11.4797
10.8771
196.141
181.81
166.822
151.754
137.075
123.13
110.142
98.2336
87.4479
77.7738
69.163
61.5457
54.8404
48.9619
43.8258
39.3518
35.4648
32.0962
29.1838
26.6717
24.5098
22.6534
21.0628
19.7025
18.5407
17.5494
16.7032
15.9798
15.3595
14.8248
14.3597
13.9494
13.5793
13.2349
12.9008
12.56
12.1934
11.7784
11.289
10.6951
165.914
154.767
143.017
131.086
119.329
108.024
97.3669
87.479
78.4223
70.2131
62.8346
56.2487
50.4037
45.2412
40.7003
36.7207
33.2444
30.2172
27.5887
25.3129
23.3479
21.6559
20.2026
18.9571
17.8916
16.981
16.2025
15.5358
14.9629
14.4676
14.0353
13.6521
13.3043
12.9781
12.6589
12.3304
11.9741
11.5682
11.0876
10.5031
140.959
132.22
122.945
113.445
103.991
94.8044
86.0509
77.8429
70.2476
63.2959
56.9906
51.3147
46.2381
41.7221
37.7239
34.1993
31.1041
28.3959
26.0345
23.9824
22.2049
20.67
19.3486
18.214
17.2416
16.4093
15.6967
15.0853
14.5588
14.1023
13.7022
13.3456
13.0197
12.7116
12.4072
12.091
11.7451
11.3485
10.8769
10.3023
120.259
113.36
105.992
98.3871
90.7548
83.2698
76.0695
69.2535
62.8876
57.0089
51.6316
46.7526
42.3565
38.4192
34.9116
31.8019
29.057
26.6443
24.5319
22.6896
21.0889
19.7031
18.5073
17.4785
16.5955
15.8386
15.1895
14.6317
14.1502
13.7313
13.3626
13.032
12.7277
12.4373
12.1475
11.8434
11.5079
11.1207
10.6585
10.0944
103.012
97.5305
91.6434
85.5265
79.3408
73.2249
67.2918
61.6272
56.292
51.3249
46.7458
42.5602
38.7627
35.3397
32.2722
29.5379
27.1125
24.9712
23.0892
21.4421
20.0068
18.761
17.6838
16.7554
15.9574
15.2725
14.6842
14.1779
13.7397
13.3571
13.0188
12.7134
12.43
12.1568
11.8814
11.5892
11.264
10.8864
10.4338
9.88041
88.5828
84.2022
79.4736
74.5308
69.4986
64.4872
59.5886
54.8758
50.4031
46.2078
42.3124
38.7273
35.4535
32.4848
29.8095
27.4125
25.2765
23.3827
21.7121
20.2454
18.9636
17.8485
16.8825
16.0487
15.331
14.7142
14.1839
13.7265
13.3297
12.982
12.6727
12.3917
12.1284
11.872
11.6104
11.33
11.015
10.6469
10.2041
9.66184
76.4634
72.9447
69.1283
65.1172
61.0087
56.8906
52.8378
48.9118
45.16
41.6167
38.3051
35.2379
32.4203
29.8507
27.523
25.4275
23.5519
21.8826
20.4048
19.1035
17.9634
16.9695
16.107
15.3615
14.7192
14.1666
13.6908
13.2798
12.9223
12.6078
12.3264
12.0686
11.8246
11.5843
11.3361
11.0671
10.7622
10.4036
9.97068
9.4399
66.2476
63.408
60.3141
57.046
53.6802
50.2867
46.9267
43.6514
40.5017
37.5086
34.6942
32.0724
29.6505
27.4303
25.4093
23.5818
21.9394
20.4723
19.1694
18.019
17.0088
16.1266
15.3599
14.6965
14.1244
13.6318
13.2073
12.84
12.5195
12.2363
11.9813
11.7456
11.5201
11.2952
11.0599
10.802
10.507
10.1578
9.73489
9.21576
57.6072
55.3058
52.7874
50.1148
47.3485
44.5446
41.753
39.0163
36.3696
33.8403
31.4488
29.2091
27.1295
25.214
23.4625
21.8721
20.4376
19.1519
18.0068
16.9933
16.1016
15.3216
14.643
14.0554
13.5485
13.1117
12.735
12.4085
12.1228
11.8691
11.639
11.4242
11.2162
11.0059
10.7831
10.5359
10.2505
9.91077
9.49786
8.99053
50.2762
48.4037
46.3459
44.1527
41.872
39.5492
37.225
34.9348
32.7084
30.5699
28.5376
26.6251
24.841
23.1904
21.6749
20.2937
19.0436
17.9199
16.9166
16.0266
15.2424
14.5556
13.9577
13.4398
12.9928
12.6078
12.2754
11.9869
11.7337
11.5075
11.3007
11.1056
10.9142
10.7178
10.5068
10.2699
9.99398
9.66351
9.26065
8.76522
44.0376
42.5085
40.8212
39.0154
37.1297
35.2006
33.2614
31.3418
29.4669
27.6575
25.9303
24.2975
22.7679
21.3471
20.0378
18.8404
17.7535
16.7739
15.8973
15.1185
14.4313
13.8291
13.3046
12.8504
12.4585
12.121
11.8296
11.5762
11.3531
11.1526
10.9676
10.7909
10.615
10.4318
10.2321
10.0051
9.73836
9.41706
9.02422
8.54075
38.7137
37.4608
36.0728
34.5814
33.0178
31.4117
29.7906
28.1789
26.5981
25.0662
23.5977
22.2039
20.8932
19.6714
18.5417
17.5055
16.5624
15.7105
14.9469
14.2675
13.6677
13.1418
12.684
12.2877
11.9461
11.6521
11.3983
11.1774
10.982
10.8054
10.6406
10.4811
10.3197
10.1489
9.95985
9.74242
9.48457
9.17229
8.78944
8.31792
34.1583
33.1285
31.9831
30.7477
29.4477
28.1074
26.7494
25.3941
24.0597
22.7616
21.5126
20.3229
19.2003
18.1504
17.1769
16.2816
15.4649
14.7259
14.0626
13.472
12.9504
12.4933
12.0956
11.7518
11.4559
11.2016
10.9822
10.7909
10.6212
10.4664
10.3204
10.1768
10.0291
9.86987
9.69095
9.48261
9.23341
8.93
8.55705
8.09744
30.2507
29.4017
28.4536
27.4274
26.3438
25.2227
24.0828
22.9413
21.8135
20.7126
19.6498
18.6342
17.673
16.7716
15.9336
15.1613
14.4555
13.816
13.2415
12.7298
12.278
11.8824
11.5389
11.2425
10.988
10.7697
10.5815
10.4174
10.271
10.1364
10.0077
9.87886
9.74373
9.59542
9.42605
9.2264
8.98558
8.69085
8.32769
7.87992
26.8905
26.1886
25.4016
24.5468
23.6412
22.7013
21.7427
20.7797
19.8252
18.8907
17.9859
17.1189
16.2961
15.5227
14.8021
14.1369
13.5282
12.9761
12.48
12.0383
11.6487
11.3081
11.013
10.7592
10.542
10.3562
10.1965
10.057
9.93195
9.81579
9.70289
9.58768
9.46426
9.32611
9.16574
8.97438
8.74164
8.45543
8.10193
7.66588
23.9944
23.4124
22.7573
22.0433
21.2846
20.4948
19.687
18.8733
18.0645
17.2706
16.4998
15.7595
15.0554
14.3922
13.7733
13.2012
12.6772
12.2019
11.7748
11.395
11.0605
10.7688
10.517
10.3013
10.1176
9.96114
9.82698
9.70978
9.60416
9.50479
9.4064
9.30369
9.1911
9.06241
8.91051
8.72704
8.50211
8.2242
7.88023
7.45575
21.4926
21.0086
20.4617
19.8638
19.2265
18.5614
17.8794
17.1906
16.5044
15.8292
15.1723
14.54
13.9375
13.3692
12.8382
12.3469
11.8968
11.4886
11.1223
10.7969
10.5112
10.263
10.0497
9.86798
9.71419
9.58405
9.47292
9.37583
9.28775
9.20362
9.11844
9.0272
8.92458
8.80469
8.66075
8.48479
8.26738
7.99758
7.66296
7.24989
19.3267
18.923
18.4651
17.9629
17.4264
16.865
16.288
15.704
15.121
14.5462
13.9859
13.4458
12.9304
12.4436
11.9885
11.5673
11.1816
10.832
10.5188
10.2414
9.99869
9.78891
9.60973
9.45828
9.33118
9.22453
9.13402
9.05499
8.9827
8.91235
8.83918
8.75841
8.66497
8.55324
8.41677
8.24794
8.03779
7.77588
7.45043
7.04859
17.4474
17.1097
16.7252
16.3023
15.8493
15.3743
14.8852
14.3892
13.8931
13.4033
12.9251
12.4635
12.0227
11.6061
11.2164
10.8559
10.5261
10.2276
9.96093
9.7256
9.52073
9.34482
9.19583
9.07118
8.96777
8.88202
8.8099
8.74704
8.68892
8.63099
8.5687
8.49745
8.41244
8.30828
8.1788
8.01676
7.81358
7.55935
7.2429
6.85207
15.8133
15.5299
15.206
14.8488
14.4654
14.0625
13.647
13.2249
12.8023
12.3843
11.9759
11.5814
11.2043
10.8479
10.5148
10.2067
9.92534
9.67142
9.4453
9.24678
9.07511
8.92898
8.80659
8.7056
8.62315
8.55593
8.50016
8.45169
8.40624
8.35946
8.30698
8.2444
8.1671
8.06995
7.94703
7.79142
7.59496
7.3482
7.04054
6.66051
14.3894
14.1507
13.877
13.5744
13.2489
12.9063
12.5525
12.1927
11.8319
11.4749
11.1258
10.7884
10.466
10.1613
9.87676
9.6141
9.3747
9.15944
8.96868
8.80229
8.65966
8.53965
8.44062
8.36044
8.29647
8.24561
8.2043
8.16861
8.13445
8.09764
8.05399
7.99926
7.92901
7.83833
7.72155
7.57205
7.38205
7.14254
6.84348
6.47401
13.146
12.9442
12.7121
12.4548
12.1776
11.8856
11.5836
11.2762
10.9678
10.6624
10.3638
10.0751
9.79938
9.53909
9.29633
9.0728
8.86975
8.68801
8.52798
8.38958
8.27229
8.17511
8.09653
8.0346
7.98685
7.95038
7.92181
7.89742
7.87327
7.84535
7.80962
7.76198
7.69818
7.61347
7.50243
7.35874
7.17495
6.94248
6.6518
6.29266
12.0578
11.8865
11.6889
11.4694
11.2326
10.9829
10.7244
10.4612
10.1971
9.93552
9.67975
9.43268
9.1969
8.97466
8.76787
8.57807
8.40641
8.2537
8.12032
8.00624
7.91101
7.83371
7.77298
7.72698
7.69342
7.66955
7.65217
7.63772
7.62241
7.60238
7.57373
7.53249
7.47455
7.39535
7.2897
7.15151
6.97368
6.74805
6.46554
6.1165
11.1034
10.9573
10.7883
10.6004
10.3974
10.1831
9.96133
9.73544
9.50875
9.28434
9.06504
8.85343
8.65181
8.46219
8.28629
8.12551
7.98094
7.85331
7.743
7.65
7.57391
7.51388
7.46866
7.43653
7.41533
7.40244
7.39483
7.38907
7.38155
7.3685
7.34615
7.31067
7.25807
7.18395
7.08333
6.95037
6.77828
6.55926
6.28472
5.94552
10.2645
10.1393
9.99408
9.83242
9.65773
9.47331
9.28238
9.08797
8.89298
8.7001
8.51184
8.33046
8.15803
7.99634
7.84695
7.71113
7.58989
7.48389
7.39351
7.31873
7.25919
7.21412
7.18233
7.16221
7.15172
7.14836
7.14924
7.15107
7.15035
7.14345
7.12671
7.09639
7.04863
6.97921
6.88329
6.75529
6.58871
6.37611
6.10932
5.77972
9.52534
9.41744
9.29208
9.1524
9.00142
8.84207
8.67716
8.50936
8.34121
8.1751
8.01323
7.85763
7.71013
7.57235
7.44568
7.3313
7.23011
7.14274
7.06951
7.01045
6.96519
6.93301
6.91281
6.90305
6.90179
6.90665
6.91487
6.92328
6.92849
6.92698
6.9152
6.8895
6.84614
6.78103
6.68951
6.56623
6.40494
6.19855
5.9393
5.61905
8.8727
8.77911
8.67026
8.54896
8.41788
8.27961
8.13664
7.99133
7.84593
7.70254
7.56313
7.42949
7.30327
7.18593
7.07873
6.98272
6.89874
6.82736
6.76889
6.72332
6.69033
6.66924
6.65898
6.65811
6.66476
6.67668
6.6912
6.70528
6.71562
6.71882
6.71141
6.68984
6.65047
6.58933
6.50193
6.38312
6.22691
6.02654
5.77462
5.46348
8.29508
8.21335
8.11827
8.01233