/*--------------------------------*- C++ -*----------------------------------*\
| =========                 |                                                 |
| \\      /  F ield         | OpenFOAM: The Open Source CFD Toolbox           |
|  \\    /   O peration     | Version:  v1912                                 |
|   \\  /    A nd           | Website:  www.openfoam.com                      |
|    \\/     M anipulation  |                                                 |
\*---------------------------------------------------------------------------*/
FoamFile
{
    version     2.0;
    format      ascii;
    class       volScalarField;
    location    "935";
    object      T;
}
// * * * * * * * * * * * * * * * * * * * * * * * * * * * * * * * * * * * * * //

dimensions      [0 0 0 1 0 0 0];


internalField   nonuniform List<scalar> 
104000
(
304.174
303.841
303.613
303.421
303.242
304.235
303.919
303.695
303.501
303.317
304.402
304.116
303.904
303.715
303.533
304.736
304.562
304.395
304.226
304.062
305.291
305.606
306.044
306.35
306.672
304.489
304.295
304.132
303.95
303.747
304.557
304.371
304.212
304.038
303.846
304.741
304.592
304.459
304.307
304.134
305.076
305.055
305.006
304.908
304.775
305.52
305.928
306.538
307.065
307.622
304.737
304.64
304.54
304.388
304.188
304.816
304.719
304.614
304.471
304.287
305.015
304.955
304.879
304.76
304.602
305.355
305.441
305.483
305.435
305.332
305.708
306.13
306.869
307.594
308.359
304.947
304.925
304.885
304.772
304.585
305.038
305.013
304.956
304.841
304.669
305.255
305.265
305.238
305.148
305.001
305.598
305.774
305.912
305.906
305.806
305.871
306.268
307.071
307.972
308.949
305.127
305.164
305.179
305.107
304.942
305.235
305.269
305.254
305.166
305.008
305.472
305.543
305.568
305.496
305.355
305.811
306.058
306.275
306.34
306.266
306.017
306.367
307.202
308.244
309.416
303.065
302.877
302.682
302.485
302.29
302.101
301.918
301.745
301.581
301.427
303.135
302.953
302.763
302.571
302.38
302.193
302.012
301.838
301.673
301.515
303.351
303.167
302.981
302.797
302.616
302.438
302.266
302.1
301.939
301.781
303.895
303.722
303.553
303.389
303.233
303.083
302.938
302.791
302.636
302.462
307.065
306.857
306.673
306.505
306.339
306.141
305.855
305.397
304.699
303.828
303.533
303.313
303.082
302.848
302.616
302.391
302.175
301.972
301.781
301.603
303.637
303.419
303.201
302.98
302.759
302.543
302.334
302.134
301.943
301.761
303.942
303.739
303.531
303.321
303.111
302.906
302.706
302.509
302.315
302.123
304.606
304.423
304.239
304.057
303.878
303.701
303.523
303.338
303.14
302.868
308.073
307.853
307.678
307.529
307.389
307.215
306.923
306.385
305.486
304.407
303.95
303.705
303.448
303.185
302.924
302.671
302.429
302.201
301.988
301.79
304.071
303.834
303.587
303.342
303.098
302.859
302.628
302.406
302.194
301.991
304.41
304.198
303.974
303.745
303.514
303.284
303.057
302.833
302.611
302.38
305.171
304.985
304.793
304.598
304.4
304.2
303.991
303.77
303.533
303.17
308.92
308.701
308.541
308.418
308.307
308.152
307.84
307.196
306.088
304.855
304.34
304.061
303.783
303.497
303.211
302.934
302.669
302.42
302.188
301.971
304.45
304.199
303.932
303.663
303.398
303.139
302.887
302.646
302.416
302.188
304.808
304.587
304.348
304.101
303.849
303.597
303.345
303.095
302.846
302.578
305.65
305.459
305.26
305.055
304.845
304.624
304.389
304.137
303.83
303.387
309.645
309.428
309.288
309.204
309.135
309.004
308.653
307.858
306.56
305.185
304.702
304.414
304.109
303.805
303.497
303.195
302.908
302.639
302.389
302.154
304.79
304.533
304.253
303.961
303.674
303.395
303.127
302.87
302.621
302.373
305.159
304.929
304.677
304.412
304.14
303.866
303.593
303.323
303.044
302.744
306.074
305.877
305.67
305.456
305.23
304.988
304.727
304.451
304.039
303.538
310.304
310.106
309.999
309.965
309.94
309.801
309.326
308.271
306.863
305.401
301.284
301.139
301.006
300.885
300.777
300.683
300.6
300.528
300.466
300.412
300.366
300.327
300.293
300.264
300.239
300.217
300.198
300.182
300.168
300.156
300.145
300.136
300.128
300.121
300.115
300.11
300.105
300.101
300.097
300.094
300.091
300.089
300.087
300.085
300.083
300.082
300.08
300.079
300.078
300.078
300.077
300.077
300.076
300.076
300.076
300.076
300.077
300.077
300.078
300.078
300.079
300.08
300.081
300.082
300.084
300.085
300.087
300.088
300.09
300.092
300.094
300.096
300.098
300.099
300.101
300.102
300.102
300.102
300.102
300.101
300.1
300.099
300.098
300.096
300.095
300.093
300.091
300.09
300.088
300.088
301.366
301.201
301.053
300.921
300.806
300.706
300.62
300.545
300.481
300.426
300.378
300.338
300.303
300.273
300.247
300.225
300.205
300.188
300.174
300.161
300.15
300.14
300.132
300.125
300.118
300.112
300.107
300.103
300.099
300.095
300.092
300.09
300.087
300.085
300.083
300.081
300.08
300.079
300.078
300.077
300.076
300.075
300.075
300.075
300.074
300.074
300.075
300.075
300.075
300.076
300.076
300.077
300.078
300.079
300.081
300.082
300.084
300.085
300.087
300.089
300.091
300.094
300.096
300.098
300.1
300.102
300.104
300.105
300.106
300.106
300.105
300.104
300.102
300.1
300.098
300.095
300.092
300.089
300.086
300.084
301.619
301.354
301.163
301.005
300.872
300.76
300.665
300.584
300.514
300.455
300.404
300.361
300.323
300.291
300.263
300.239
300.218
300.2
300.184
300.17
300.158
300.147
300.138
300.13
300.123
300.117
300.111
300.106
300.102
300.098
300.094
300.091
300.088
300.086
300.084
300.082
300.08
300.079
300.077
300.076
300.075
300.075
300.074
300.074
300.073
300.073
300.073
300.073
300.073
300.074
300.074
300.075
300.076
300.077
300.078
300.08
300.081
300.083
300.085
300.087
300.09
300.092
300.094
300.097
300.099
300.102
300.104
300.106
300.107
300.108
300.108
300.107
300.106
300.103
300.1
300.097
300.093
300.088
300.084
300.082
302.164
301.593
301.322
301.122
300.963
300.833
300.724
300.633
300.556
300.491
300.435
300.387
300.346
300.311
300.28
300.254
300.231
300.211
300.194
300.179
300.166
300.154
300.144
300.135
300.128
300.121
300.114
300.109
300.104
300.1
300.096
300.093
300.09
300.087
300.084
300.082
300.08
300.079
300.077
300.076
300.075
300.074
300.073
300.072
300.072
300.072
300.072
300.072
300.072
300.072
300.073
300.073
300.074
300.075
300.076
300.078
300.08
300.081
300.083
300.086
300.088
300.091
300.093
300.096
300.099
300.101
300.104
300.106
300.108
300.109
300.11
300.11
300.108
300.106
300.102
300.098
300.094
300.088
300.084
300.08
303.077
301.866
301.491
301.241
301.053
300.903
300.781
300.68
300.595
300.524
300.463
300.411
300.367
300.329
300.296
300.268
300.243
300.222
300.203
300.187
300.173
300.161
300.15
300.14
300.132
300.124
300.117
300.112
300.106
300.102
300.097
300.094
300.09
300.087
300.085
300.082
300.08
300.078
300.077
300.075
300.074
300.073
300.072
300.071
300.071
300.07
300.07
300.07
300.07
300.07
300.071
300.071
300.072
300.073
300.074
300.076
300.078
300.079
300.082
300.084
300.086
300.089
300.092
300.095
300.098
300.101
300.103
300.106
300.108
300.11
300.111
300.111
300.11
300.107
300.104
300.1
300.094
300.089
300.083
300.079
301.437
301.269
301.115
300.978
300.856
300.75
300.658
300.578
300.51
300.451
300.401
300.357
300.32
300.288
300.261
300.237
300.217
300.199
300.184
300.171
300.159
300.149
300.14
300.132
300.126
300.12
300.114
300.11
300.106
300.102
300.099
300.096
300.094
300.092
300.09
300.088
300.087
300.086
300.085
300.084
300.083
300.083
300.082
300.082
300.082
300.082
300.083
300.083
300.083
300.084
300.085
300.086
300.087
300.088
300.09
300.091
300.093
300.095
300.096
300.098
300.1
300.102
300.104
300.105
300.107
300.108
300.108
300.108
300.108
300.108
300.107
300.106
300.105
300.104
300.103
300.101
300.1
300.099
300.098
300.097
301.582
301.377
301.199
301.045
300.911
300.796
300.697
300.612
300.539
300.477
300.424
300.378
300.339
300.305
300.276
300.251
300.229
300.21
300.194
300.179
300.167
300.156
300.146
300.138
300.13
300.124
300.118
300.113
300.109
300.105
300.101
300.098
300.095
300.093
300.091
300.089
300.087
300.086
300.085
300.084
300.083
300.082
300.082
300.082
300.081
300.081
300.082
300.082
300.082
300.083
300.084
300.085
300.086
300.087
300.089
300.09
300.092
300.094
300.096
300.098
300.101
300.103
300.105
300.107
300.109
300.111
300.112
300.113
300.114
300.114
300.113
300.112
300.111
300.109
300.108
300.105
300.103
300.1
300.097
300.095
301.897
301.569
301.34
301.155
301.001
300.87
300.76
300.667
300.587
300.519
300.461
300.411
300.368
300.331
300.299
300.271
300.247
300.226
300.208
300.192
300.178
300.166
300.155
300.146
300.137
300.13
300.124
300.118
300.113
300.108
300.104
300.101
300.098
300.095
300.092
300.09
300.088
300.087
300.085
300.084
300.083
300.082
300.081
300.081
300.081
300.081
300.081
300.081
300.081
300.082
300.083
300.084
300.085
300.086
300.088
300.09
300.092
300.094
300.096
300.099
300.101
300.104
300.106
300.109
300.111
300.114
300.115
300.117
300.118
300.119
300.119
300.118
300.117
300.115
300.112
300.109
300.106
300.102
300.098
300.095
302.491
301.824
301.506
301.278
301.098
300.95
300.827
300.724
300.636
300.561
300.498
300.443
300.396
300.356
300.321
300.291
300.265
300.242
300.222
300.204
300.189
300.176
300.164
300.154
300.144
300.136
300.129
300.123
300.117
300.112
300.107
300.103
300.1
300.097
300.094
300.091
300.089
300.087
300.085
300.084
300.083
300.082
300.081
300.08
300.08
300.079
300.079
300.08
300.08
300.08
300.081
300.082
300.083
300.085
300.087
300.089
300.091
300.093
300.096
300.099
300.102
300.105
300.108
300.111
300.113
300.116
300.118
300.12
300.122
300.123
300.123
300.123
300.121
300.119
300.117
300.113
300.109
300.104
300.099
300.094
303.484
302.119
301.683
301.403
301.193
301.026
300.89
300.776
300.681
300.6
300.532
300.473
300.423
300.379
300.342
300.309
300.281
300.256
300.235
300.216
300.199
300.185
300.172
300.161
300.151
300.142
300.134
300.127
300.121
300.115
300.11
300.106
300.102
300.098
300.095
300.092
300.09
300.087
300.086
300.084
300.082
300.081
300.08
300.079
300.079
300.078
300.078
300.078
300.078
300.079
300.079
300.08
300.082
300.083
300.085
300.087
300.089
300.092
300.095
300.098
300.101
300.105
300.108
300.112
300.115
300.118
300.121
300.123
300.125
300.127
300.127
300.127
300.126
300.123
300.12
300.116
300.111
300.105
300.099
300.094
301.603
301.411
301.238
301.083
300.947
300.829
300.726
300.638
300.562
300.497
300.441
300.393
300.352
300.316
300.286
300.26
300.237
300.217
300.2
300.185
300.172
300.161
300.151
300.143
300.135
300.129
300.123
300.118
300.113
300.109
300.106
300.103
300.1
300.098
300.096
300.094
300.092
300.091
300.09
300.089
300.088
300.088
300.087
300.087
300.087
300.087
300.088
300.088
300.088
300.089
300.09
300.091
300.092
300.093
300.095
300.096
300.098
300.1
300.102
300.103
300.105
300.107
300.108
300.11
300.111
300.112
300.112
300.112
300.112
300.112
300.112
300.111
300.11
300.11
300.109
300.108
300.107
300.106
300.105
300.105
301.783
301.548
301.348
301.174
301.024
300.894
300.783
300.688
300.606
300.536
300.476
300.425
300.38
300.342
300.309
300.28
300.255
300.234
300.215
300.199
300.185
300.172
300.161
300.151
300.143
300.136
300.129
300.123
300.118
300.114
300.11
300.106
300.103
300.1
300.098
300.096
300.094
300.092
300.091
300.09
300.089
300.088
300.088
300.087
300.087
300.087
300.087
300.088
300.088
300.089
300.09
300.091
300.092
300.094
300.096
300.097
300.099
300.101
300.103
300.105
300.108
300.11
300.112
300.114
300.115
300.117
300.118
300.119
300.119
300.119
300.119
300.119
300.118
300.117
300.115
300.114
300.112
300.11
300.108
300.106
302.116
301.749
301.495
301.291
301.121
300.977
300.854
300.75
300.66
300.584
300.519
300.463
300.414
300.373
300.336
300.305
300.278
300.254
300.233
300.215
300.199
300.185
300.173
300.162
300.153
300.144
300.137
300.13
300.124
300.119
300.114
300.11
300.106
300.103
300.1
300.098
300.096
300.094
300.092
300.091
300.089
300.089
300.088
300.087
300.087
300.087
300.087
300.088
300.088
300.089
300.09
300.091
300.093
300.094
300.096
300.098
300.1
300.103
300.105
300.108
300.111
300.113
300.116
300.118
300.12
300.122
300.124
300.125
300.126
300.126
300.126
300.126
300.125
300.124
300.122
300.12
300.117
300.114
300.111
300.108
302.735
302.009
301.66
301.413
301.218
301.057
300.923
300.809
300.712
300.63
300.559
300.499
300.447
300.401
300.362
300.328
300.299
300.273
300.251
300.231
300.213
300.198
300.185
300.173
300.162
300.153
300.144
300.137
300.13
300.124
300.119
300.114
300.11
300.106
300.103
300.1
300.097
300.095
300.093
300.091
300.09
300.089
300.088
300.087
300.087
300.087
300.087
300.087
300.087
300.088
300.089
300.09
300.092
300.094
300.096
300.098
300.101
300.104
300.107
300.11
300.113
300.117
300.12
300.123
300.125
300.128
300.129
300.131
300.132
300.133
300.133
300.133
300.132
300.13
300.128
300.125
300.122
300.118
300.113
300.109
303.786
302.314
301.837
301.538
301.314
301.135
300.988
300.865
300.761
300.672
300.597
300.532
300.476
300.428
300.386
300.35
300.318
300.291
300.267
300.245
300.227
300.21
300.195
300.182
300.171
300.161
300.152
300.143
300.136
300.129
300.124
300.118
300.114
300.109
300.106
300.102
300.099
300.096
300.094
300.092
300.09
300.089
300.088
300.087
300.086
300.086
300.086
300.086
300.086
300.087
300.088
300.089
300.091
300.093
300.095
300.097
300.1
300.104
300.107
300.111
300.115
300.119
300.123
300.126
300.13
300.133
300.135
300.137
300.139
300.139
300.14
300.139
300.138
300.136
300.134
300.13
300.126
300.121
300.115
300.11
301.765
301.555
301.364
301.195
301.046
300.916
300.803
300.706
300.623
300.551
300.489
300.436
300.39
300.351
300.317
300.288
300.262
300.24
300.221
300.204
300.19
300.177
300.166
300.156
300.148
300.14
300.134
300.128
300.123
300.119
300.115
300.111
300.108
300.106
300.103
300.101
300.099
300.098
300.097
300.096
300.095
300.094
300.094
300.094
300.093
300.093
300.094
300.094
300.095
300.095
300.096
300.097
300.098
300.099
300.101
300.102
300.104
300.105
300.107
300.109
300.11
300.111
300.113
300.114
300.115
300.116
300.116
300.116
300.116
300.116
300.116
300.116
300.116
300.115
300.115
300.115
300.114
300.114
300.113
300.113
301.958
301.702
301.485
301.296
301.133
300.992
300.871
300.767
300.677
300.6
300.534
300.477
300.427
300.385
300.348
300.316
300.288
300.264
300.242
300.224
300.208
300.193
300.181
300.17
300.16
300.152
300.144
300.137
300.131
300.126
300.121
300.117
300.114
300.11
300.108
300.105
300.103
300.101
300.1
300.098
300.097
300.097
300.096
300.096
300.095
300.095
300.096
300.096
300.097
300.098
300.099
300.1
300.101
300.103
300.104
300.106
300.108
300.11
300.112
300.113
300.115
300.117
300.119
300.12
300.121
300.122
300.123
300.124
300.124
300.125
300.125
300.125
300.125
300.124
300.123
300.123
300.122
300.12
300.119
300.118
302.284
301.899
301.631
301.415
301.233
301.078
300.946
300.833
300.736
300.653
300.581
300.52
300.466
300.42
300.38
300.345
300.315
300.288
300.265
300.244
300.227
300.211
300.197
300.184
300.173
300.164
300.155
300.147
300.14
300.134
300.129
300.124
300.119
300.116
300.112
300.109
300.107
300.104
300.102
300.101
300.099
300.098
300.098
300.097
300.097
300.097
300.097
300.097
300.098
300.099
300.1
300.102
300.103
300.105
300.107
300.11
300.112
300.114
300.117
300.119
300.122
300.124
300.126
300.127
300.129
300.13
300.131
300.132
300.133
300.133
300.133
300.133
300.133
300.133
300.132
300.13
300.129
300.127
300.124
300.122
302.9
302.156
301.791
301.535
301.331
301.16
301.017
300.895
300.791
300.702
300.625
300.559
300.502
300.452
300.409
300.372
300.339
300.311
300.286
300.263
300.244
300.227
300.211
300.198
300.186
300.175
300.165
300.157
300.149
300.142
300.136
300.13
300.125
300.121
300.117
300.113
300.11
300.107
300.105
300.103
300.101
300.1
300.099
300.098
300.097
300.097
300.097
300.098
300.098
300.099
300.101
300.102
300.104
300.107
300.109
300.112
300.115
300.118
300.121
300.125
300.128
300.131
300.134
300.136
300.138
300.139
300.14
300.141
300.142
300.142
300.142
300.142
300.142
300.141
300.14
300.138
300.135
300.132
300.129
300.125
303.971
302.46
301.963
301.657
301.426
301.239
301.083
300.953
300.842
300.747
300.666
300.596
300.535
300.483
300.437
300.397
300.362
300.332
300.305
300.281
300.26
300.242
300.225
300.211
300.197
300.186
300.175
300.166
300.157
300.149
300.143
300.136
300.131
300.126
300.121
300.117
300.113
300.11
300.107
300.105
300.103
300.101
300.099
300.098
300.098
300.097
300.097
300.097
300.098
300.099
300.1
300.102
300.104
300.106
300.109
300.112
300.116
300.12
300.124
300.128
300.133
300.137
300.14
300.144
300.146
300.149
300.15
300.151
300.152
300.152
300.152
300.151
300.151
300.149
300.147
300.145
300.141
300.137
300.132
300.127
301.931
301.704
301.5
301.317
301.156
301.015
300.893
300.788
300.696
300.618
300.55
300.491
300.44
300.397
300.359
300.326
300.297
300.273
300.251
300.232
300.215
300.201
300.188
300.177
300.167
300.158
300.15
300.143
300.137
300.132
300.128
300.124
300.12
300.117
300.114
300.112
300.11
300.108
300.107
300.105
300.104
300.104
300.103
300.103
300.102
300.102
300.102
300.103
300.103
300.104
300.104
300.105
300.106
300.107
300.108
300.109
300.111
300.112
300.113
300.114
300.115
300.117
300.118
300.119
300.119
300.12
300.121
300.121
300.121
300.122
300.122
300.122
300.122
300.122
300.122
300.122
300.122
300.122
300.122
300.122
302.123
301.855
301.625
301.424
301.249
301.098
300.968
300.855
300.758
300.674
300.602
300.539
300.485
300.438
300.397
300.362
300.331
300.303
300.28
300.259
300.24
300.224
300.21
300.197
300.186
300.176
300.167
300.159
300.152
300.146
300.14
300.135
300.131
300.127
300.123
300.12
300.118
300.116
300.114
300.112
300.111
300.11
300.109
300.108
300.108
300.108
300.108
300.109
300.109
300.11
300.111
300.112
300.113
300.115
300.116
300.117
300.119
300.12
300.122
300.123
300.124
300.125
300.126
300.127
300.127
300.128
300.129
300.13
300.13
300.131
300.131
300.132
300.132
300.132
300.132
300.132
300.132
300.132
300.131
300.131
302.429
302.038
301.763
301.539
301.35
301.187
301.047
300.926
300.822
300.732
300.655
300.588
300.53
300.479
300.435
300.397
300.363
300.333
300.308
300.285
300.264
300.246
300.231
300.216
300.204
300.192
300.182
300.173
300.165
300.158
300.151
300.145
300.14
300.136
300.131
300.128
300.124
300.122
300.119
300.117
300.115
300.114
300.113
300.112
300.112
300.112
300.112
300.113
300.113
300.115
300.116
300.117
300.119
300.121
300.123
300.125
300.128
300.13
300.132
300.133
300.135
300.136
300.137
300.137
300.138
300.139
300.139
300.14
300.14
300.141
300.141
300.142
300.142
300.142
300.142
300.142
300.141
300.141
300.14
300.139
303.015
302.279
301.913
301.654
301.445
301.269
301.118
300.99
300.88
300.785
300.702
300.631
300.57
300.516
300.469
300.428
300.392
300.36
300.333
300.308
300.286
300.267
300.249
300.234
300.22
300.208
300.196
300.186
300.177
300.169
300.162
300.155
300.149
300.143
300.139
300.134
300.13
300.127
300.124
300.121
300.119
300.117
300.116
300.115
300.114
300.114
300.114
300.115
300.116
300.117
300.118
300.12
300.123
300.125
300.128
300.131
300.135
300.138
300.141
300.144
300.146
300.148
300.15
300.151
300.151
300.151
300.151
300.151
300.152
300.152
300.152
300.153
300.153
300.153
300.152
300.151
300.15
300.148
300.146
300.144
304.07
302.572
302.074
301.769
301.537
301.346
301.185
301.049
300.933
300.833
300.746
300.671
300.606
300.55
300.5
300.457
300.419
300.385
300.356
300.33
300.306
300.286
300.267
300.25
300.236
300.222
300.21
300.199
300.189
300.18
300.172
300.164
300.157
300.151
300.146
300.141
300.136
300.132
300.128
300.125
300.123
300.12
300.118
300.117
300.116
300.115
300.115
300.115
300.116
300.117
300.119
300.121
300.124
300.127
300.13
300.134
300.138
300.143
300.147
300.152
300.156
300.16
300.162
300.164
300.166
300.166
300.166
300.165
300.165
300.165
300.164
300.164
300.164
300.163
300.162
300.16
300.158
300.155
300.152
300.148
304.762
304.726
305.016
305.614
308.321
304.096
304.266
304.636
305.331
308.263
303.767
303.982
304.401
305.18
308.338
303.507
303.746
304.207
305.061
308.331
303.277
303.538
304.04
304.972
308.382
303.065
303.35
303.891
304.901
308.543
302.869
303.178
303.75
304.83
308.717
302.688
303.015
303.604
304.724
308.387
302.519
302.856
303.439
304.538
306.967
302.36
302.683
303.212
304.094
305.476
305.166
305.132
305.45
306.084
308.987
304.534
304.73
305.145
305.9
309.007
304.18
304.45
304.939
305.815
309.194
303.884
304.2
304.748
305.725
309.232
303.622
303.968
304.565
305.64
309.303
303.384
303.752
304.388
305.558
309.493
303.164
303.549
304.213
305.461
309.761
302.96
303.354
304.03
305.315
309.534
302.77
303.162
303.825
305.076
307.86
302.586
302.946
303.538
304.523
306.135
305.419
305.406
305.752
306.435
309.521
304.827
305.037
305.483
306.295
309.574
304.474
304.765
305.296
306.25
309.844
304.165
304.507
305.106
306.18
309.922
303.88
304.26
304.914
306.103
310.017
303.621
304.026
304.721
306.02
310.246
303.383
303.802
304.523
305.913
310.617
303.162
303.586
304.314
305.738
310.472
302.956
303.372
304.081
305.451
308.519
302.749
303.126
303.747
304.806
306.606
305.613
305.62
305.991
306.719
309.96
305.062
305.279
305.744
306.598
310.017
304.713
305.012
305.568
306.58
310.338
304.395
304.749
305.381
306.531
310.455
304.097
304.491
305.186
306.476
310.592
303.821
304.243
304.985
306.422
310.898
303.565
304.003
304.774
306.342
311.39
303.329
303.769
304.544
306.185
311.132
303.105
303.534
304.275
305.748
309.009
302.881
303.262
303.892
304.998
306.948
305.773
305.796
306.186
306.955
310.326
305.262
305.479
305.955
306.842
310.372
304.918
305.217
305.788
306.841
310.724
304.596
304.951
305.605
306.814
310.883
304.291
304.687
305.411
306.79
311.087
304.004
304.429
305.208
306.769
311.515
303.736
304.178
304.99
306.711
312.127
303.484
303.931
304.748
306.552
311.544
303.244
303.669
304.421
305.944
309.294
303.002
303.373
303.993
305.107
307.154
304.276
302.139
301.654
301.354
301.136
300.967
300.832
300.721
300.629
300.552
300.487
300.432
300.385
300.345
300.31
300.28
300.254
300.231
300.211
300.194
300.179
300.166
300.154
300.144
300.135
300.127
300.12
300.114
300.108
300.103
300.099
300.095
300.091
300.088
300.085
300.082
300.08
300.078
300.076
300.075
300.073
300.072
300.071
300.07
300.07
300.069
300.069
300.069
300.069
300.069
300.069
300.07
300.07
300.071
300.072
300.074
300.076
300.077
300.08
300.082
300.085
300.087
300.09
300.093
300.097
300.1
300.103
300.106
300.108
300.11
300.112
300.112
300.111
300.109
300.105
300.1
300.095
300.089
300.083
300.078
304.654
302.314
301.775
301.442
301.202
301.018
300.873
300.754
300.657
300.576
300.507
300.449
300.4
300.357
300.321
300.289
300.262
300.238
300.218
300.2
300.184
300.17
300.158
300.147
300.138
300.129
300.122
300.115
300.109
300.104
300.099
300.095
300.091
300.088
300.085
300.082
300.08
300.078
300.076
300.074
300.073
300.071
300.07
300.069
300.068
300.068
300.067
300.067
300.067
300.067
300.067
300.068
300.068
300.069
300.07
300.072
300.073
300.075
300.077
300.08
300.083
300.086
300.089
300.092
300.095
300.099
300.102
300.105
300.108
300.11
300.112
300.113
300.112
300.109
300.106
300.101
300.095
300.089
300.082
300.078
305.03
302.459
301.87
301.51
301.252
301.057
300.903
300.779
300.677
300.593
300.522
300.462
300.41
300.367
300.329
300.297
300.269
300.244
300.223
300.204
300.188
300.174
300.161
300.15
300.14
300.131
300.123
300.117
300.11
300.105
300.1
300.096
300.092
300.088
300.085
300.082
300.08
300.077
300.075
300.073
300.072
300.07
300.069
300.068
300.067
300.067
300.066
300.066
300.065
300.065
300.066
300.066
300.066
300.067
300.068
300.07
300.071
300.073
300.075
300.078
300.081
300.084
300.087
300.091
300.094
300.098
300.101
300.105
300.108
300.11
300.112
300.113
300.112
300.11
300.106
300.101
300.095
300.089
300.082
300.077
305.199
302.532
301.922
301.548
301.281
301.079
300.921
300.794
300.689
300.603
300.531
300.47
300.417
300.373
300.335
300.302
300.273
300.248
300.226
300.207
300.191
300.176
300.163
300.152
300.142
300.133
300.125
300.117
300.111
300.105
300.1
300.096
300.092
300.088
300.085
300.082
300.079
300.077
300.075
300.073
300.071
300.069
300.068
300.067
300.066
300.065
300.065
300.064
300.064
300.064
300.064
300.064
300.065
300.065
300.066
300.068
300.069
300.071
300.073
300.076
300.078
300.082
300.085
300.089
300.093
300.097
300.1
300.104
300.107
300.11
300.113
300.114
300.113
300.111
300.107
300.102
300.096
300.089
300.081
300.077
305.283
302.556
301.938
301.56
301.29
301.086
300.927
300.799
300.694
300.607
300.535
300.473
300.421
300.376
300.338
300.304
300.276
300.25
300.228
300.209
300.192
300.178
300.164
300.153
300.142
300.133
300.125
300.118
300.111
300.106
300.1
300.096
300.091
300.088
300.084
300.081
300.078
300.076
300.074
300.072
300.07
300.068
300.067
300.066
300.065
300.064
300.063
300.063
300.062
300.062
300.062
300.062
300.063
300.064
300.064
300.066
300.067
300.069
300.071
300.073
300.076
300.079
300.083
300.087
300.091
300.095
300.099
300.103
300.107
300.11
300.113
300.114
300.113
300.111
300.107
300.102
300.096
300.089
300.081
300.076
305.257
302.523
301.916
301.545
301.28
301.079
300.922
300.795
300.692
300.606
300.534
300.473
300.421
300.377
300.338
300.305
300.276
300.251
300.229
300.21
300.193
300.178
300.165
300.153
300.143
300.134
300.125
300.118
300.111
300.106
300.1
300.095
300.091
300.087
300.084
300.081
300.078
300.075
300.073
300.071
300.069
300.068
300.066
300.065
300.064
300.063
300.062
300.062
300.061
300.061
300.061
300.061
300.061
300.062
300.063
300.064
300.065
300.067
300.069
300.071
300.074
300.077
300.081
300.085
300.089
300.094
300.098
300.102
300.106
300.11
300.113
300.114
300.113
300.111
300.107
300.102
300.096
300.089
300.081
300.076
305.146
302.443
301.861
301.506
301.251
301.058
300.906
300.783
300.683
300.599
300.529
300.469
300.418
300.375
300.337
300.304
300.276
300.251
300.229
300.21
300.193
300.178
300.165
300.153
300.143
300.134
300.125
300.118
300.111
300.105
300.1
300.095
300.091
300.087
300.083
300.08
300.077
300.075
300.072
300.07
300.068
300.067
300.065
300.064
300.063
300.062
300.061
300.06
300.06
300.06
300.059
300.059
300.06
300.06
300.061
300.062
300.063
300.065
300.067
300.069
300.072
300.075
300.079
300.083
300.087
300.092
300.097
300.101
300.106
300.109
300.112
300.114
300.113
300.111
300.107
300.102
300.096
300.089
300.081
300.076
304.947
302.317
301.775
301.445
301.207
301.025
300.881
300.764
300.668
300.588
300.52
300.462
300.413
300.37
300.333
300.301
300.273
300.249
300.228
300.209
300.192
300.177
300.164
300.153
300.142
300.133
300.125
300.117
300.111
300.105
300.099
300.094
300.09
300.086
300.083
300.079
300.076
300.074
300.071
300.069
300.067
300.066
300.064
300.063
300.062
300.061
300.06
300.059
300.059
300.058
300.058
300.058
300.058
300.059
300.059
300.06
300.061
300.063
300.065
300.067
300.07
300.073
300.076
300.081
300.085
300.09
300.095
300.1
300.105
300.109
300.112
300.114
300.113
300.111
300.107
300.102
300.096
300.089
300.081
300.076
304.647
302.145
301.661
301.366
301.15
300.983
300.849
300.74
300.649
300.572
300.508
300.452
300.405
300.364
300.328
300.297
300.27
300.246
300.225
300.207
300.191
300.176
300.163
300.152
300.141
300.132
300.124
300.117
300.11
300.104
300.099
300.094
300.089
300.085
300.082
300.079
300.076
300.073
300.071
300.068
300.066
300.065
300.063
300.062
300.061
300.06
300.059
300.058
300.057
300.057
300.057
300.057
300.057
300.057
300.058
300.059
300.06
300.061
300.063
300.065
300.068
300.071
300.074
300.078
300.083
300.088
300.093
300.099
300.104
300.108
300.112
300.114
300.113
300.111
300.107
300.102
300.096
300.089
300.082
300.076
304.304
301.934
301.527
301.273
301.083
300.933
300.811
300.71
300.626
300.554
300.493
300.441
300.395
300.356
300.322
300.292
300.266
300.243
300.222
300.204
300.188
300.174
300.162
300.15
300.14
300.131
300.123
300.116
300.109
300.103
300.098
300.093
300.089
300.085
300.081
300.078
300.075
300.072
300.07
300.068
300.066
300.064
300.062
300.061
300.06
300.059
300.058
300.057
300.056
300.056
300.056
300.056
300.056
300.056
300.056
300.057
300.058
300.06
300.061
300.063
300.066
300.069
300.072
300.076
300.081
300.086
300.091
300.097
300.102
300.108
300.112
300.114
300.113
300.111
300.108
300.103
300.097
300.09
300.082
300.077
304.832
302.412
301.853
301.521
301.281
301.095
300.946
300.823
300.721
300.635
300.562
300.499
300.446
300.4
300.36
300.325
300.295
300.269
300.246
300.226
300.209
300.193
300.179
300.167
300.157
300.147
300.139
300.131
300.124
300.118
300.113
300.108
300.104
300.1
300.096
300.093
300.09
300.088
300.086
300.084
300.082
300.081
300.079
300.078
300.078
300.077
300.077
300.076
300.077
300.077
300.077
300.078
300.079
300.081
300.083
300.085
300.087
300.09
300.093
300.096
300.1
300.104
300.108
300.112
300.116
300.12
300.123
300.126
300.129
300.13
300.131
300.131
300.13
300.127
300.123
300.119
300.113
300.107
300.1
300.094
305.219
302.596
301.98
301.614
301.353
301.152
300.992
300.862
300.754
300.663
300.586
300.521
300.465
300.417
300.375
300.339
300.307
300.28
300.256
300.235
300.217
300.2
300.186
300.173
300.162
300.152
300.143
300.135
300.127
300.121
300.115
300.11
300.105
300.101
300.097
300.094
300.091
300.088
300.086
300.084
300.082
300.08
300.079
300.077
300.076
300.076
300.075
300.075
300.075
300.075
300.075
300.076
300.077
300.079
300.08
300.082
300.085
300.087
300.091
300.094
300.098
300.103
300.107
300.112
300.116
300.121
300.125
300.128
300.131
300.133
300.135
300.135
300.133
300.131
300.127
300.121
300.115
300.108
300.1
300.093
305.616
302.752
302.081
301.687
301.407
301.195
301.027
300.891
300.779
300.685
300.605
300.538
300.48
300.43
300.387
300.35
300.317
300.289
300.264
300.242
300.223
300.206
300.191
300.178
300.166
300.156
300.146
300.138
300.13
300.123
300.117
300.112
300.107
300.102
300.098
300.094
300.091
300.088
300.086
300.083
300.081
300.079
300.078
300.077
300.075
300.074
300.074
300.073
300.073
300.073
300.074
300.074
300.075
300.076
300.078
300.08
300.082
300.085
300.088
300.092
300.096
300.101
300.106
300.111
300.116
300.121
300.126
300.13
300.134
300.137
300.138
300.138
300.137
300.134
300.129
300.124
300.117
300.109
300.1
300.093
305.793
302.832
302.137
301.729
301.44
301.222
301.05
300.91
300.795
300.699
300.618
300.55
300.491
300.44
300.396
300.358
300.325
300.296
300.27
300.248
300.228
300.211
300.196
300.182
300.17
300.159
300.149
300.14
300.132
300.125
300.119