/*--------------------------------*- C++ -*----------------------------------*\
| =========                 |                                                 |
| \\      /  F ield         | OpenFOAM: The Open Source CFD Toolbox           |
|  \\    /   O peration     | Version:  v1912                                 |
|   \\  /    A nd           | Website:  www.openfoam.com                      |
|    \\/     M anipulation  |                                                 |
\*---------------------------------------------------------------------------*/
FoamFile
{
    version     2.0;
    format      ascii;
    class       volVectorField;
    location    "935";
    object      U;
}
// * * * * * * * * * * * * * * * * * * * * * * * * * * * * * * * * * * * * * //

dimensions      [0 1 -1 0 0 0 0];


internalField   nonuniform List<vector> 
104000
(
(-0.0673548 0.00474311 0.0484555)
(-0.130349 0.0153164 0.0219046)
(-0.193962 0.0175422 0.00867415)
(-0.238417 0.019374 0.00072121)
(-0.274971 0.0205615 -0.00515483)
(-0.0807335 0.0227814 0.0475179)
(-0.144186 0.0340333 0.0252294)
(-0.208154 0.0377858 0.0133333)
(-0.251414 0.0434649 0.00597958)
(-0.287572 0.0488133 0.000660441)
(-0.0861013 0.0594559 0.0483662)
(-0.148849 0.0560721 0.0289481)
(-0.209886 0.0580712 0.0179501)
(-0.250231 0.0639649 0.0111099)
(-0.285371 0.0703178 0.00629942)
(-0.0902871 0.0873843 0.0570335)
(-0.142941 0.0594232 0.0432224)
(-0.196741 0.0531948 0.0327686)
(-0.234719 0.0634374 0.0248883)
(-0.26794 0.0745923 0.0194333)
(-0.051254 0.104289 0.0737271)
(-0.0428716 0.0239949 0.0711866)
(-0.0998833 0.0300685 0.074455)
(-0.153129 0.0433496 0.0712318)
(-0.198448 0.0510083 0.0656148)
(-0.0419771 -0.00201915 0.111111)
(-0.0954936 0.00877977 0.0710143)
(-0.158879 0.0107452 0.0418206)
(-0.204684 0.0125069 0.0192651)
(-0.243982 0.0138433 0.00131926)
(-0.0617211 0.010728 0.108576)
(-0.117789 0.0204389 0.0752613)
(-0.18052 0.0229493 0.0501903)
(-0.224756 0.0281893 0.0303368)
(-0.262908 0.0334975 0.0143823)
(-0.0698855 0.0464611 0.110926)
(-0.126117 0.038094 0.0839467)
(-0.184224 0.0368226 0.0627398)
(-0.224236 0.0406953 0.0455091)
(-0.260023 0.0461016 0.0313607)
(-0.0744619 0.0724734 0.123179)
(-0.119745 0.0344914 0.107274)
(-0.171092 0.0205292 0.0913696)
(-0.208703 0.027931 0.0756566)
(-0.240696 0.0376462 0.0620253)
(-0.042425 0.101011 0.138788)
(-0.0283097 0.0191794 0.138963)
(-0.073712 0.0135191 0.147997)
(-0.119308 0.0157092 0.148587)
(-0.162088 0.0162646 0.143646)
(-0.0261572 -0.00742505 0.168914)
(-0.0685485 0.00442601 0.11986)
(-0.12296 0.0064123 0.0804876)
(-0.164292 0.00817768 0.0468426)
(-0.202721 0.00963916 0.0184044)
(-0.0504892 0.00106326 0.165274)
(-0.0985635 0.0110204 0.123849)
(-0.152891 0.0126204 0.090593)
(-0.192589 0.0175151 0.06198)
(-0.228707 0.0227227 0.0378932)
(-0.06123 0.0382258 0.170065)
(-0.111145 0.0269762 0.137533)
(-0.161574 0.0233987 0.110375)
(-0.197102 0.0259639 0.0861998)
(-0.230172 0.0308689 0.065357)
(-0.0653905 0.0646907 0.186746)
(-0.10455 0.022595 0.168283)
(-0.150489 0.00512618 0.149514)
(-0.185713 0.011476 0.129134)
(-0.214865 0.0210147 0.110557)
(-0.0366614 0.0936645 0.203128)
(-0.0154696 0.0109728 0.200922)
(-0.0513686 0.00167112 0.216666)
(-0.0922782 0.0011848 0.223554)
(-0.135262 0.00130049 0.223091)
(-0.0147495 -0.0118179 0.212651)
(-0.0454239 0.00096717 0.161103)
(-0.0898464 0.00301363 0.116377)
(-0.12521 0.00474964 0.0755364)
(-0.161704 0.00638732 0.0394762)
(-0.0420371 -0.0069204 0.208274)
(-0.0822687 0.00352019 0.163695)
(-0.127471 0.004465 0.125786)
(-0.161643 0.00915214 0.0909974)
(-0.194814 0.0144941 0.0603105)
(-0.0547181 0.0314262 0.215484)
(-0.0980824 0.0181264 0.18132)
(-0.140753 0.0130239 0.150634)
(-0.171217 0.0154162 0.120536)
(-0.200922 0.0209005 0.0928935)
(-0.0577805 0.0581175 0.235446)
(-0.0901731 0.0137543 0.217825)
(-0.128805 -0.00602094 0.199353)
(-0.161991 0.000416457 0.174509)
(-0.189335 0.0111692 0.148783)
(-0.0318335 0.0864289 0.250092)
(-0.00485275 0.00324286 0.244557)
(-0.0348278 -0.00617828 0.266435)
(-0.0702341 -0.00654168 0.28048)
(-0.111474 -0.00609807 0.282769)
(-0.00626596 -0.0149582 0.246586)
(-0.0265059 -0.00162965 0.19638)
(-0.0619367 0.00015236 0.150751)
(-0.0915887 0.00149374 0.10755)
(-0.125699 0.0027982 0.0679673)
(-0.0352491 -0.0127741 0.242307)
(-0.0683047 -0.00238883 0.197846)
(-0.105554 -0.0025526 0.158832)
(-0.134914 0.00116209 0.121571)
(-0.165036 0.00557316 0.087721)
(-0.0492943 0.025913 0.252465)
(-0.0866093 0.0103586 0.219321)
(-0.122628 0.00319021 0.188666)
(-0.149306 0.00518099 0.155701)
(-0.176049 0.0102138 0.124732)
(-0.0512259 0.0521361 0.275419)
(-0.0773292 0.00634222 0.260325)
(-0.109843 -0.015171 0.244471)
(-0.141262 -0.00984504 0.220872)
(-0.167346 -0.000453817 0.194054)
(-0.0275398 0.0795637 0.288075)
(0.00221462 -0.0034037 0.278647)
(-0.0235031 -0.0119436 0.307396)
(-0.0561588 -0.0115236 0.331603)
(-0.0967265 -0.0115464 0.343774)
(-0.304037 0.0215316 -0.00966399)
(-0.328629 0.0219173 -0.0133112)
(-0.349154 0.0216295 -0.0161234)
(-0.366465 0.0205765 -0.0180328)
(-0.380955 0.0188014 -0.0190772)
(-0.392805 0.0164044 -0.0193388)
(-0.401699 0.0135506 -0.0189086)
(-0.406836 0.0104863 -0.0179053)
(-0.40747 0.00757783 -0.0164375)
(-0.401237 0.00443087 -0.0146277)
(-0.316817 0.0542398 -0.00316085)
(-0.341707 0.0587431 -0.00605054)
(-0.362837 0.0623717 -0.00819841)
(-0.380993 0.0647831 -0.00964037)
(-0.396425 0.0656231 -0.0103626)
(-0.409188 0.0643639 -0.0104492)
(-0.418792 0.0602615 -0.00998561)
(-0.424175 0.0524362 -0.0091136)
(-0.425091 0.0404686 -0.00797503)
(-0.419884 0.0227924 -0.00660757)
(-0.314184 0.0771068 0.00327718)
(-0.339239 0.0809612 0.00102758)
(-0.360481 0.0824938 -0.000546296)
(-0.378981 0.0812273 -0.00157254)
(-0.395381 0.0767165 -0.00205845)
(-0.410306 0.0684117 -0.00205703)
(-0.423755 0.0557264 -0.00158516)
(-0.434531 0.0384103 -0.000707888)
(-0.442519 0.0184603 0.000508497)
(-0.443953 -0.00415518 0.00228426)
(-0.297228 0.0835993 0.0171141)
(-0.324144 0.0905485 0.015234)
(-0.346381 0.0953241 0.0139455)
(-0.365943 0.0984216 0.0130836)
(-0.383474 0.0994473 0.0126622)
(-0.399507 0.0975404 0.0126611)
(-0.413616 0.0910835 0.0130942)
(-0.422653 0.0775092 0.0137787)
(-0.426807 0.056008 0.0141807)
(-0.43325 0.0161707 0.0150793)
(-0.230449 0.0696696 0.0647183)
(-0.249403 0.0737532 0.0625807)
(-0.261077 0.0747827 0.0603187)
(-0.266768 0.0728706 0.0578055)
(-0.268514 0.066479 0.0546732)
(-0.268779 0.0532452 0.050425)
(-0.27124 0.0298769 0.0447831)
(-0.275809 -0.00661031 0.0377685)
(-0.298576 -0.0530963 0.0307371)
(-0.399052 -0.111524 0.029003)
(-0.275604 0.0150745 -0.012112)
(-0.302554 0.0155304 -0.022412)
(-0.325932 0.0153932 -0.030232)
(-0.346165 0.0144783 -0.0357795)
(-0.363453 0.012877 -0.0391514)
(-0.377817 0.0106781 -0.0405325)
(-0.388866 0.00805147 -0.0401165)
(-0.395775 0.00523229 -0.038172)
(-0.397831 0.00259151 -0.0349817)
(-0.393028 -0.000142189 -0.030831)
(-0.29441 0.03937 0.00223659)
(-0.321792 0.044065 -0.00681894)
(-0.344792 0.047455 -0.0131083)
(-0.364812 0.0494489 -0.0173266)
(-0.38191 0.0497994 -0.0196495)
(-0.396051 0.0480528 -0.0202507)
(-0.406702 0.0435803 -0.0193398)
(-0.412815 0.0356325 -0.0172686)
(-0.414069 0.0239666 -0.0144582)
(-0.409469 0.00750136 -0.0110473)
(-0.290211 0.0538456 0.0208018)
(-0.317248 0.057956 0.0125695)
(-0.340171 0.0594839 0.00654455)
(-0.360053 0.0581046 0.00232519)
(-0.377407 0.0535135 -0.000191556)
(-0.392741 0.045188 -0.00111197)
(-0.406096 0.0327278 -0.000463783)
(-0.416403 0.0160073 0.00159797)
(-0.423397 -0.00316119 0.00476953)
(-0.425071 -0.0239233 0.00949946)
(-0.270305 0.0499447 0.0527501)
(-0.29894 0.0590415 0.0452747)
(-0.322247 0.0649242 0.0397143)
(-0.342433 0.0687419 0.0355436)
(-0.36008 0.0702264 0.032724)
(-0.375763 0.0685753 0.0311816)
(-0.389267 0.0623148 0.0310162)
(-0.397921 0.0489217 0.0319842)
(-0.401036 0.0279147 0.0329379)
(-0.410441 -0.00688279 0.0349266)
(-0.201098 0.0427624 0.138623)
(-0.221746 0.0489543 0.132132)
(-0.234013 0.0509513 0.126531)
(-0.239244 0.0500601 0.120768)
(-0.240053 0.0449277 0.11391)
(-0.239117 0.0334079 0.104609)
(-0.240782 0.0125622 0.0919653)
(-0.245399 -0.0202961 0.0761049)
(-0.267788 -0.0612195 0.0601973)
(-0.373119 -0.11536 0.0573052)
(-0.235787 0.0110696 -0.00435117)
(-0.264272 0.0115378 -0.021382)
(-0.289417 0.0114479 -0.034015)
(-0.311685 0.0106744 -0.0430519)
(-0.330894 0.00918364 -0.048603)
(-0.346973 0.00707708 -0.0509676)
(-0.359496 0.0045221 -0.0504746)
(-0.367667 0.00173485 -0.0475965)
(-0.370797 -0.000922904 -0.042892)
(-0.367295 -0.00355883 -0.0369096)
(-0.259959 0.0287531 0.0184784)
(-0.288326 0.0331878 0.00332699)
(-0.312953 0.0362766 -0.00752332)
(-0.334146 0.0376915 -0.0146901)
(-0.35236 0.0374368 -0.0187269)
(-0.36741 0.0351621 -0.0200147)
(-0.37879 0.0304048 -0.0188821)
(-0.385526 0.0225519 -0.015885)
(-0.387173 0.0114301 -0.0117763)
(-0.383284 -0.00357666 -0.0069558)
(-0.259227 0.039345 0.048395)
(-0.286427 0.0437888 0.0345112)
(-0.30983 0.0454418 0.0238976)
(-0.330289 0.0439985 0.0160046)
(-0.348112 0.0394102 0.0107855)
(-0.363674 0.0312821 0.00812284)
(-0.37696 0.0193881 0.00810498)
(-0.387016 0.00360168 0.0106081)
(-0.393272 -0.0146499 0.0150986)
(-0.395703 -0.033733 0.0213577)
(-0.242817 0.035292 0.095039)
(-0.271167 0.0451616 0.0822036)
(-0.294373 0.0510897 0.0723146)
(-0.314668 0.0544272 0.0643621)
(-0.332369 0.0551231 0.058451)
(-0.34792 0.0525258 0.0544828)
(-0.361095 0.0455311 0.0527459)
(-0.369741 0.0320416 0.0531895)
(-0.37196 0.0119446 0.054703)
(-0.383369 -0.0176888 0.0576815)
(-0.176551 0.0291985 0.213519)
(-0.198277 0.0367799 0.201703)
(-0.210834 0.0394266 0.192269)
(-0.216238 0.0390422 0.182319)
(-0.217235 0.0344449 0.170678)
(-0.216432 0.0237182 0.15515)
(-0.218193 0.00443749 0.134546)
(-0.223222 -0.0254419 0.110337)
(-0.244456 -0.0614857 0.0881363)
(-0.347638 -0.11226 0.0850669)
(-0.195174 0.00825826 0.00941259)
(-0.22667 0.00895239 -0.0142619)
(-0.253031 0.0088705 -0.0311901)
(-0.276629 0.00815766 -0.0433355)
(-0.296959 0.0067463 -0.0509821)
(-0.313949 0.00466739 -0.0544183)
(-0.327191 0.00213889 -0.0541083)
(-0.336001 -0.00062107 -0.0506864)
(-0.339794 -0.00328216 -0.0449239)
(-0.337397 -0.005819 -0.0376877)
(-0.225367 0.0211032 0.0345)
(-0.254483 0.0254122 0.013788)
(-0.280351 0.0280677 -0.00146736)
(-0.302943 0.0288748 -0.0116792)
(-0.321825 0.0279215 -0.0174093)
(-0.337278 0.0250912 -0.0194505)
(-0.348834 0.0201522 -0.0182831)
(-0.355737 0.0126861 -0.0145909)
(-0.357504 0.00258043 -0.00936866)
(-0.354096 -0.00996886 -0.00370743)
(-0.228846 0.0307003 0.0690966)
(-0.256536 0.0356947 0.0492248)
(-0.280812 0.0376539 0.0338772)
(-0.302167 0.0360844 0.0224039)
(-0.320399 0.0313196 0.0148283)
(-0.335846 0.0231704 0.0109235)
(-0.348443 0.0116971 0.0107058)
(-0.357569 -0.00307724 0.013925)
(-0.362591 -0.0198744 0.0198564)
(-0.365279 -0.0369946 0.0273913)
(-0.216208 0.0282952 0.12611)
(-0.244745 0.0387904 0.107125)
(-0.268502 0.0444139 0.0924587)
(-0.289596 0.0463422 0.0805938)
(-0.307701 0.0451652 0.0717201)
(-0.323153 0.0405409 0.065677)
(-0.335587 0.0320292 0.0628818)
(-0.343311 0.0184262 0.0633163)
(-0.344821 0.000488773 0.0653987)
(-0.356101 -0.0231512 0.0695821)
(-0.153526 0.0218407 0.265343)
(-0.177545 0.0307074 0.246809)
(-0.191531 0.0337537 0.232933)
(-0.198647 0.0329821 0.218962)
(-0.201163 0.0276154 0.202922)
(-0.201863 0.0160389 0.181706)
(-0.204545 -0.00319071 0.154155)
(-0.210487 -0.0302534 0.123854)
(-0.228572 -0.0609655 0.0987734)
(-0.322566 -0.105494 0.0955296)
(-0.158332 0.00467825 0.0332808)
(-0.189833 0.00561145 0.00366141)
(-0.217182 0.0060667 -0.0188119)
(-0.240485 0.00555733 -0.0342797)
(-0.260896 0.00438606 -0.043989)
(-0.277935 0.0024843 -0.0485144)
(-0.291225 9.81717e-05 -0.0485017)
(-0.300157 -0.00255153 -0.0448206)
(-0.304244 -0.00521582 -0.0385346)
(-0.302518 -0.00770559 -0.0312447)
(-0.194049 0.0117004 0.0583049)
(-0.222528 0.0154055 0.0334415)
(-0.247901 0.0176352 0.0144769)
(-0.270469 0.0180276 0.000940858)
(-0.289219 0.0169079 -0.00707822)
(-0.304105 0.0139513 -0.0102818)
(-0.315066 0.00923325 -0.00950405)
(-0.321533 0.00250382 -0.00566093)
(-0.322974 -0.00616762 -0.000257659)
(-0.319937 -0.0161958 0.00558851)
(-0.202314 0.020339 0.097952)
(-0.229341 0.0249933 0.0739946)
(-0.253195 0.026862 0.0550295)
(-0.274256 0.0249849 0.0400904)
(-0.291834 0.0201321 0.0298144)
(-0.306243 0.012305 0.0239995)
(-0.31751 0.00196102 0.022714)
(-0.325332 -0.0108568 0.0257175)
(-0.329303 -0.0253744 0.0316559)
(-0.331606 -0.0401753 0.0393305)
(-0.193955 0.0166369 0.169353)
(-0.222025 0.026061 0.146076)
(-0.245466 0.0303526 0.128714)
(-0.266576 0.0303061 0.113264)
(-0.284235 0.0272208 0.101491)
(-0.298608 0.021273 0.0931434)
(-0.309208 0.0129335 0.0888113)
(-0.314814 0.00176635 0.0884113)
(-0.317112 -0.0119015 0.0890784)
(-0.327531 -0.0310525 0.0922362)
(-0.13725 0.0162145 0.33893)
(-0.16123 0.0244962 0.317879)
(-0.175514 0.0270245 0.301995)
(-0.183711 0.0250202 0.281316)
(-0.187366 0.0183061 0.257217)
(-0.189138 0.00601385 0.22535)
(-0.192287 -0.0115402 0.18545)
(-0.201238 -0.0323797 0.142459)
(-0.218443 -0.0572883 0.109792)
(-0.300654 -0.096959 0.105685)
(-0.384155 0.000643646 -0.0129041)
(-0.362236 0.000606182 -0.0110939)
(-0.34404 0.000783237 -0.00970604)
(-0.328281 0.00150797 -0.00853083)
(-0.316004 0.00206693 -0.00760667)
(-0.306016 0.0024635 -0.00683696)
(-0.297929 0.00263801 -0.0061814)
(-0.291123 0.00264359 -0.00559216)
(-0.285252 0.00252163 -0.00504706)
(-0.28003 0.00231347 -0.00453013)
(-0.275277 0.00204854 -0.00403317)
(-0.270868 0.00174894 -0.00355139)
(-0.266721 0.00142963 -0.00308297)
(-0.262781 0.00110013 -0.00262684)
(-0.259011 0.000766374 -0.00218255)
(-0.255385 0.000430294 -0.00175049)
(-0.251885 9.00356e-05 -0.00133234)
(-0.24849 -0.000255696 -0.000930189)
(-0.245176 -0.000602614 -0.000543988)
(-0.24193 -0.000945705 -0.000172251)
(-0.238745 -0.00128342 0.000185274)
(-0.235609 -0.00161528 0.000527904)
(-0.232516 -0.00194231 0.000852261)
(-0.229445 -0.00226592 0.00115868)
(-0.226378 -0.00258526 0.00145231)
(-0.223306 -0.00289976 0.00173679)
(-0.220221 -0.00320955 0.00201383)
(-0.217117 -0.00351468 0.00228414)
(-0.213988 -0.00381531 0.00254814)
(-0.21083 -0.0041116 0.00280626)
(-0.207638 -0.00440375 0.00305881)
(-0.204406 -0.00469197 0.00330602)
(-0.201131 -0.0049765 0.00354808)
(-0.197809 -0.0052576 0.00378518)
(-0.194435 -0.00553558 0.00401753)
(-0.191005 -0.00581077 0.00424534)
(-0.187515 -0.00608349 0.0044688)
(-0.183961 -0.00635408 0.00468812)
(-0.180338 -0.00662291 0.0049035)
(-0.176641 -0.00689033 0.00511511)
(-0.172866 -0.00715669 0.00532312)
(-0.169008 -0.0074223 0.00552765)
(-0.165061 -0.00768744 0.00572881)
(-0.161022 -0.0079523 0.0059267)
(-0.156884 -0.00821692 0.00612138)
(-0.152644 -0.00848119 0.00631286)
(-0.148295 -0.00874473 0.00650113)
(-0.143836 -0.00900681 0.00668608)
(-0.139262 -0.00926621 0.00686749)
(-0.134574 -0.00952101 0.00704503)
(-0.129771 -0.00976845 0.00721817)
(-0.12486 -0.0100046 0.00738613)
(-0.11985 -0.0102242 0.00754782)
(-0.114755 -0.0104198 0.00770167)
(-0.109599 -0.0105823 0.00784555)
(-0.104414 -0.0106993 0.00797654)
(-0.0992444 -0.010756 0.00809077)
(-0.0941465 -0.0107345 0.00818329)
(-0.0891924 -0.0106151 0.00824803)
(-0.0844696 -0.0103779 0.00827786)
(-0.0800789 -0.0100067 0.00826488)
(-0.0761306 -0.00949453 0.00820102)
(-0.0727343 -0.00885146 0.0080791)
(-0.0699846 -0.00811201 0.0078946)
(-0.0679401 -0.00733861 0.0076483)
(-0.0666001 -0.00661465 0.00734904)
(-0.0658879 -0.00602456 0.00701527)
(-0.0656499 -0.00563138 0.00667444)
(-0.0656725 -0.00546462 0.00635849)
(-0.0657075 -0.00552666 0.0060965)
(-0.0654945 -0.0058088 0.0059071)
(-0.0647698 -0.00630477 0.00579409)
(-0.0632647 -0.00701347 0.00574573)
(-0.0606938 -0.0079396 0.00573787)
(-0.056728 -0.00908884 0.00573561)
(-0.0509755 -0.0104443 0.00568825)
(-0.0429988 -0.0119262 0.00551898)
(-0.0325703 -0.0132583 0.0051361)
(-0.019256 -0.0139287 0.00435225)
(-0.00712402 -0.0127126 0.00330555)
(-0.400355 0.000564511 -0.00576096)
(-0.373676 -0.00240758 -0.00541209)
(-0.354685 -0.00256694 -0.00518184)
(-0.338553 -0.000397863 -0.00482225)
(-0.326486 0.00144613 -0.00448956)
(-0.316734 0.0028678 -0.00413342)
(-0.308883 0.00369853 -0.00379445)
(-0.302248 0.00407037 -0.00347422)
(-0.296486 0.00407191 -0.00316903)
(-0.291314 0.00381199 -0.00287262)
(-0.286559 0.00337213 -0.00258381)
(-0.282101 0.00281432 -0.00230193)
(-0.277861 0.00218101 -0.00202819)
(-0.273783 0.00150262 -0.00176316)
(-0.269828 0.00079927 -0.00150649)
(-0.26597 8.48814e-05 -0.00125753)
(-0.262193 -0.000628481 -0.00101766)
(-0.258487 -0.00133731 -0.000785637)
(-0.254852 -0.00203873 -0.000560891)
(-0.251279 -0.00272958 -0.000344213)
(-0.247761 -0.00340892 -0.000135519)
(-0.244287 -0.0040771 6.52389e-05)
(-0.24085 -0.00473619 0.000257386)
(-0.237444 -0.00538752 0.000439284)
(-0.234054 -0.00603111 0.000611809)
(-0.230671 -0.00666669 0.00077761)
(-0.227288 -0.00729452 0.000938546)
(-0.223897 -0.00791506 0.00109557)
(-0.220493 -0.00852884 0.00124921)
(-0.21707 -0.00913633 0.00139985)
(-0.213624 -0.00973797 0.00154777)
(-0.210149 -0.0103342 0.00169317)
(-0.20664 -0.0109254 0.00183622)
(-0.203093 -0.0115121 0.00197704)
(-0.199504 -0.0120948 0.00211575)
(-0.195868 -0.0126739 0.00225243)
(-0.19218 -0.0132499 0.00238716)
(-0.188436 -0.0138234 0.00252001)
(-0.184631 -0.0143949 0.00265102)
(-0.180761 -0.0149649 0.0027802)
(-0.176819 -0.0155341 0.00290756)
(-0.172802 -0.0161028 0.00303308)
(-0.168704 -0.0166714 0.00315673)
(-0.164519 -0.0172403 0.00327847)
(-0.160241 -0.0178094 0.00339828)
(-0.155865 -0.0183785 0.00351613)
(-0.151386 -0.0189469 0.00363204)
(-0.146797 -0.0195134 0.00374599)
(-0.142095 -0.0200759 0.00385805)
(-0.137276 -0.0206312 0.00396829)
(-0.132339 -0.0211747 0.00407685)
(-0.127283 -0.0217 0.00418397)
(-0.122113 -0.0221985 0.00429)
(-0.116838 -0.022659 0.00439542)
(-0.11147 -0.0230673 0.00450083)
(-0.106031 -0.0234051 0.00460703)
(-0.100549 -0.0236506 0.00471489)
(-0.0950605 -0.0237775 0.00482539)
(-0.0896127 -0.0237565 0.00493954)
(-0.0842621 -0.0235569 0.00505825)
(-0.0790745 -0.0231494 0.00518198)
(-0.074124 -0.0225111 0.00531012)
(-0.0694914 -0.0216319 0.00544006)
(-0.0652634 -0.0205233 0.00556594)
(-0.0615294 -0.0192301 0.00567798)
(-0.0583726 -0.0178385 0.00576274)
(-0.0558548 -0.0164737 0.00580556)
(-0.053992 -0.0152869 0.00579608)
(-0.0527266 -0.0144287 0.00573453)
(-0.0519104 -0.014021 0.0056351)
(-0.0513115 -0.0141373 0.00552207)
(-0.0506402 -0.0148058 0.00541976)
(-0.049589 -0.0160202 0.00534075)
(-0.0478587 -0.0177708 0.00528387)
(-0.0451372 -0.0200611 0.00523773)
(-0.0410779 -0.0228585 0.00517582)
(-0.0352545 -0.0260022 0.00504071)
(-0.0274824 -0.0289393 0.00475729)
(-0.0169719 -0.0304439 0.00417501)
(-0.00650749 -0.0282597 0.00326675)
(-0.413702 -0.0358915 0.00279932)
(-0.371362 -0.0278606 0.000956323)
(-0.349755 -0.0195213 -0.000146207)
(-0.332709 -0.0112664 -0.000625283)
(-0.321359 -0.00549662 -0.0009766)
(-0.312381 -0.00154994 -0.00115679)
(-0.305244 0.000797608 -0.0012458)
(-0.299094 0.00203128 -0.00124936)
(-0.293639 0.00247866 -0.00119844)
(-0.28863 0.00240679 -0.00110799)
(-0.283952 0.00199397 -0.000995137)
(-0.279518 0.00136164 -0.000869383)
(-0.275282 0.000594458 -0.00073781)
(-0.27121 -0.000251504 -0.000605678)
(-0.267277 -0.00113895 -0.00047705)
(-0.263468 -0.00204283 -0.000354654)
(-0.25976 -0.00295203 -0.00023662)
(-0.25614 -0.00385772 -0.000122699)
(-0.252595 -0.00475576 -1.34273e-05)
(-0.249114 -0.00564486 9.0823e-05)
(-0.245686 -0.00652431 0.000190254)
(-0.242298 -0.0073944 0.000285205)
(-0.238942 -0.00825612 0.000375767)
(-0.235609 -0.00911122 0.00046198)
(-0.23229 -0.00996067 0.000544287)
(-0.228979 -0.0108044 0.000623505)
(-0.225667 -0.0116429 0.000700322)
(-0.222347 -0.0124768 0.000775169)
(-0.219015 -0.0133068 0.000848378)
(-0.215663 -0.0141334 0.00092023)
(-0.212288 -0.0149573 0.000990943)
(-0.208882 -0.0157788 0.00106068)
(-0.205443 -0.0165985 0.00112955)
(-0.201965 -0.0174168 0.00119763)
(-0.198443 -0.0182342 0.00126498)
(-0.194874 -0.0190513 0.00133162)
(-0.191254 -0.0198686 0.00139756)
(-0.187576 -0.0206866 0.00146278)
(-0.183838 -0.0215059 0.00152724)
(-0.180034 -0.0223272 0.00159089)
(-0.176159 -0.0231511 0.00165363)
(-0.172208 -0.023978 0.00171537)
(-0.168176 -0.0248086 0.00177602)
(-0.164057 -0.0256429 0.00183548)
(-0.159845 -0.0264812 0.00189367)
(-0.155533 -0.027323 0.00195058)
(-0.151116 -0.0281675 0.00200623)
(-0.146586 -0.0290133 0.0020607)
(-0.141937 -0.0298575 0.0021142)
(-0.137163 -0.0306959 0.00216708)
(-0.13226 -0.0315226 0.00221985)
(-0.127223 -0.0323292 0.00227326)
(-0.122054 -0.0331048 0.0023284)
(-0.116753 -0.0338351 0.00238671)
(-0.111329 -0.0345017 0.00245008)
(-0.105794 -0.0350821 0.00252089)
(-0.100167 -0.0355489 0.00260201)
(-0.0944756 -0.0358701 0.0026968)
(-0.088757 -0.0360103 0.00280897)
(-0.0830566 -0.0359331 0.00294236)
(-0.0774293 -0.035604 0.00310042)
(-0.0719383 -0.0349954 0.00328555)
(-0.066654 -0.0340907 0.00349807)
(-0.0616525 -0.0328921 0.00373488)
(-0.0570154 -0.0314313 0.00398866)
(-0.0528239 -0.0297802 0.00424679)
(-0.049156 -0.0280528 0.00449114)
(-0.0460785 -0.0264101 0.00470089)
(-0.0436285 -0.0250513 0.00485703)
(-0.0417861 -0.024194 0.00494943)
(-0.0404475 -0.0240317 0.00498101)
(-0.0394055 -0.0246965 0.00496626)
(-0.0383792 -0.0262236 0.00491757)
(-0.037073 -0.0286021 0.00484143)
(-0.0351778 -0.0318369 0.00474469)
(-0.0323652 -0.0358927 0.0046248)
(-0.0281961 -0.040544 0.00444199)
(-0.0224652 -0.0450772 0.00412707)
(-0.014225 -0.0475948 0.0035343)
(-0.00546375 -0.0447628 0.0025421)
(-0.396104 -0.0832 0.0139455)
(-0.347308 -0.0626018 0.00753155)
(-0.328982 -0.0413578 0.00475392)
(-0.315397 -0.0262938 0.00350889)
(-0.307693 -0.0163342 0.00253325)
(-0.301389 -0.009882 0.00187828)
(-0.296238 -0.00597168 0.00139583)
(-0.291471 -0.00373006 0.00106324)
(-0.286996 -0.00261917 0.000833541)
(-0.282683 -0.00224604 0.000682081)
(-0.278512 -0.00235862 0.000586402)
(-0.274464 -0.00278021 0.00052902)
(-0.270532 -0.00339827 0.000498197)
(-0.26671 -0.00413825 0.000485906)
(-0.262992 -0.00495192 0.000486189)
(-0.259369 -0.005809 0.000494695)
(-0.255832 -0.00668951 0.000507995)
(-0.252373 -0.00758033 0.000524024)
(-0.248983 -0.00847399 0.00054123)
(-0.24565 -0.00936658 0.000558514)
(-0.242367 -0.0102563 0.000575256)
(-0.239122 -0.0111427 0.000591078)
(-0.235907 -0.0120259 0.000605691)
(-0.232713 -0.0129067 0.000618889)
(-0.229532 -0.0137859 0.000630772)
(-0.226356 -0.0146643 0.000641704)
(-0.223177 -0.0155425 0.000652036)
(-0.219988 -0.0164215 0.000662017)
(-0.216783 -0.0173021 0.000671847)
(-0.213557 -0.0181849 0.000681688)
(-0.210303 -0.0190704 0.000691665)
(-0.207017 -0.0199594 0.000701863)
(-0.203693 -0.0208522 0.000712327)
(-0.200328 -0.0217494 0.000723072)
(-0.196916 -0.0226516 0.000734087)
(-0.193454 -0.023559 0.000745338)
(-0.189937 -0.0244724 0.000756767)
(-0.186362 -0.0253923 0.000768295)
(-0.182723 -0.0263192 0.000779818)
(-0.179016 -0.0272539 0.000791212)
(-0.175237 -0.0281969 0.00080233)
(-0.171381 -0.029149 0.000813019)
(-0.167442 -0.0301105 0.000823128)
(-0.163414 -0.031082 0.000832518)
(-0.159292 -0.0320637 0.000841089)
(-0.155068 -0.0330555 0.000848792)
(-0.150737 -0.034057 0.000855685)
(-0.146289 -0.0350672 0.000861847)
(-0.141718 -0.0360838 0.000867619)
(-0.137016 -0.037103 0.000873465)
(-0.132175 -0.0381189 0.000880083)
(-0.127189 -0.0391234 0.000888508)
(-0.122052 -0.0401057 0.000900168)
(-0.116764 -0.0410512 0.000916989)
(-0.111325 -0.0419415 0.000941481)
(-0.105741 -0.0427536 0.000976883)
(-0.100025 -0.0434593 0.00102723)
(-0.0941967 -0.0440256 0.00109731)
(-0.088284 -0.0444156 0.00119244)
(-0.0823255 -0.0445902 0.00131814)
(-0.0763704 -0.0445117 0.00147967)
(-0.070478 -0.0441461 0.00168146)
(-0.0647174 -0.0434679 0.00192599)
(-0.0591673 -0.0424634 0.00221216)
(-0.0539128 -0.0411475 0.00253526)
(-0.049037 -0.0395718 0.00288507)
(-0.0446212 -0.0378258 0.0032453)
(-0.0407388 -0.0360502 0.00359532)
(-0.0374489 -0.0344392 0.00391192)
(-0.034782 -0.0332408 0.00417479)
(-0.0327231 -0.0327251 0.00437064)
(-0.0311645 -0.0331412 0.00449801)
(-0.0299039 -0.034605 0.00455209)
(-0.0286961 -0.0371399 0.00452789)
(-0.0272638 -0.0407875 0.00443969)
(-0.0253091 -0.0455575 0.00430546)
(-0.0224118 -0.0512241 0.00410178)
(-0.0183258 -0.0570396 0.00376547)
(-0.0120326 -0.0606539 0.00315047)
(-0.00475078 -0.0576836 0.00208122)
(-0.350228 -0.216494 0.028523)
(-0.318737 -0.123505 0.0138677)
(-0.30331 -0.0758102 0.00897315)
(-0.296284 -0.0471172 0.00675116)
(-0.293 -0.0307147 0.00515829)
(-0.289877 -0.0207879 0.00408013)
(-0.28697 -0.0149349 0.00327562)
(-0.28376 -0.0115044 0.00269406)
(-0.280385 -0.00961885 0.00226509)
(-0.276853 -0.00870689 0.0019518)
(-0.273249 -0.00842393 0.00172098)
(-0.269621 -0.00854554 0.00155057)
(-0.266011 -0.00892862 0.00142314)
(-0.262444 -0.00947904 0.00132636)
(-0.258936 -0.0101358 0.00125102)
(-0.255496 -0.0108593 0.0011905)
(-0.252124 -0.0116243 0.00114011)
(-0.248818 -0.0124147 0.00109664)
(-0.245573 -0.0132205 0.00105773)
(-0.242382 -0.0140359 0.00102172)
(-0.239237 -0.0148578 0.000987511)
(-0.236128 -0.0156846 0.000954434)
(-0.233048 -0.0165159 0.000922031)
(-0.229987 -0.0173518 0.000890026)
(-0.226937 -0.0181928 0.000858338)
(-0.22389 -0.0190394 0.000827027)
(-0.220839 -0.0198923 0.000796185)
(-0.217776 -0.0207523 0.000765902)
(-0.214695 -0.0216199 0.000736267)
(-0.211589 -0.0224958 0.000707363)
(-0.208454 -0.0233804 0.000679248)
(-0.205284 -0.0242743 0.000651954)
(-0.202073 -0.025178 0.000625474)
(-0.198818 -0.0260919 0.000599775)
(-0.195515 -0.0270164 0.000574792)
(-0.192158 -0.027952 0.000550433)
(-0.188744 -0.0288991 0.000526582)
(-0.185269 -0.0298582 0.00050309)
(-0.181729 -0.0308299 0.000479782)
(-0.178119 -0.0318148 0.000456452)
(-0.174434 -0.0328136 0.000432869)
(-0.170671 -0.0338269 0.000408784)
(-0.166824 -0.0348552 0.000383939)
(-0.162887 -0.0358992 0.00035808)
(-0.158854 -0.0369592 0.000330973)
(-0.154719 -0.0380356 0.000302429)
(-0.150474 -0.039129 0.000272438)
(-0.146111 -0.040239 0.000240814)
(-0.14162 -0.0413638 0.000207988)
(-0.136992 -0.0425001 0.000174387)
(-0.132217 -0.0436427 0.000140691)
(-0.127286 -0.044784 0.000107962)
(-0.122189 -0.0459138 7.77593e-05)
(-0.116921 -0.0470187 5.22742e-05)
(-0.111478 -0.048081 3.44388e-05)
(-0.105859 -0.0490785 2.80144e-05)
(-0.100071 -0.0499839 3.76341e-05)
(-0.0941255 -0.0507644 6.87598e-05)
(-0.0880451 -0.0513835 0.000127596)
(-0.0818615 -0.051802 0.00022098)
(-0.075619 -0.0519807 0.000356051)
(-0.0693757 -0.0518833 0.000539517)
(-0.0632025 -0.0514795 0.000776529)
(-0.0571866 -0.0507459 0.00106827)
(-0.0514221 -0.0496857 0.00141363)
(-0.0460019 -0.0483331 0.00180463)
(-0.0410199 -0.0467552 0.00222729)
(-0.0365588 -0.0450712 0.00266206)
(-0.0326892 -0.0434563 0.00308521)
(-0.0294564 -0.042155 0.00347349)
(-0.0268857 -0.0414634 0.00380618)
(-0.0249272 -0.0417121 0.00407372)
(-0.0234471 -0.0430788 0.00425009)
(-0.0222508 -0.045619 0.00430678)
(-0.0210982 -0.0494188 0.00425612)
(-0.0197179 -0.0545476 0.00413003)
(-0.0177419 -0.0608139 0.00391577)
(-0.0148841 -0.0675116 0.00355308)
(-0.0101483 -0.0720083 0.0028922)
(-0.00412977 -0.0689467 0.00172634)
(-0.377266 -0.00364985 -0.0267797)
(-0.356766 -0.00280247 -0.0233614)
(-0.340642 -0.00193696 -0.0207242)
(-0.326884 -0.000637635 -0.0185347)
(-0.316527 0.000309727 -0.0168028)
(-0.308249 0.000996946 -0.0153449)
(-0.301688 0.00139647 -0.014088)
(-0.296208 0.00159327 -0.0129611)
(-0.291493 0.00164099 -0.0119155)
(-0.28727 0.00158956 -0.0109175)
(-0.283378 0.00147227 -0.00995155)
(-0.279704 0.00131338 -0.00900927)
(-0.276175 0.00112833 -0.00808719)
(-0.272743 0.00092696 -0.00718378)
(-0.269376 0.00071568 -0.00629864)
(-0.266052 0.000497882 -0.00543215)
(-0.262755 0.000274602 -0.00458614)
(-0.25947 4.67647e-05 -0.00376375)
(-0.256187 -0.000182966 -0.0029647)
(-0.252897 -0.000412377 -0.00218705)
(-0.249595 -0.000640352 -0.0014303)
(-0.246275 -0.000865781 -0.000694671)
(-0.242935 -0.00108693 1.76513e-05)
(-0.239583 -0.00130208 0.000703721)
(-0.236227 -0.00151235 0.0013661)
(-0.232865 -0.00172028 0.00200897)
(-0.229493 -0.00192624 0.0026329)
(-0.226107 -0.00213014 0.00324008)
(-0.222701 -0.00233207 0.00383206)
(-0.219271 -0.00253221 0.00440957)
(-0.215813 -0.00273071 0.00497344)
(-0.212322 -0.00292774 0.00552452)
(-0.208793 -0.00312341 0.00606352)
(-0.205224 -0.0033179 0.00659111)
(-0.201609 -0.0035114 0.00710788)
(-0.197944 -0.00370413 0.00761433)
(-0.194226 -0.00389629 0.0081109)
(-0.19045 -0.0040881 0.00859802)
(-0.186611 -0.00427979 0.00907614)
(-0.182706 -0.00447159 0.00954569)
(-0.178729 -0.00466369 0.010007)
(-0.174675 -0.00485628 0.0104605)
(-0.17054 -0.0050495 0.0109065)
(-0.16632 -0.00524339 0.0113451)
(-0.162008 -0.00543787 0.0117766)
(-0.157602 -0.00563271 0.012201)
(-0.153095 -0.00582742 0.0126184)
(-0.148487 -0.00602119 0.0130284)
(-0.143774 -0.00621274 0.0134306)
(-0.138955 -0.00640016 0.0138241)
(-0.134034 -0.00658075 0.0142079)
(-0.129017 -0.00675078 0.01458)
(-0.123913 -0.00690523 0.0149379)
(-0.118741 -0.00703751 0.0152781)
(-0.113525 -0.00713916 0.0155959)
(-0.1083 -0.00719968 0.0158848)
(-0.103113 -0.00720657 0.0161364)
(-0.0980233 -0.00714578 0.0163402)
(-0.0931055 -0.00700298 0.016484)
(-0.0884477 -0.00676599 0.0165539)
(-0.0841488 -0.00642884 0.0165355)
(-0.0803117 -0.00599729 0.0164163)
(-0.077031 -0.00549458 0.0161881)
(-0.0743766 -0.00496466 0.0158504)
(-0.0723742 -0.00446888 0.015415)
(-0.0709887 -0.00407364 0.0149086)
(-0.0701177 -0.00383166 0.0143726)
(-0.0696009 -0.00376902 0.0138593)
(-0.0692394 -0.00388644 0.0134237)
(-0.0688157 -0.00417377 0.0131135)
(-0.0681061 -0.00462499 0.0129598)
(-0.06688 -0.00524551 0.0129712)
(-0.0648954 -0.00605048 0.0131314)
(-0.0618873 -0.00706246 0.0134026)
(-0.05755 -0.00830749 0.0137269)
(-0.0515246 -0.00979872 0.014018)
(-0.0434039 -0.0115106 0.0141428)
(-0.0330196 -0.0132667 0.0139412)
(-0.0197811 -0.0146811 0.0131023)
(-0.0074585 -0.0149195 0.0117819)
(-0.39017 -0.0134003 -0.00887632)
(-0.364377 -0.0127823 -0.00882158)
(-0.347421 -0.0104332 -0.00893255)
(-0.333332 -0.00645012 -0.0087692)
(-0.323268 -0.00342391 -0.00856311)
(-0.315239 -0.00115281 -0.00824895)
(-0.308855 0.000292511 -0.00788913)
(-0.303455 0.00113176 -0.0074616)
(-0.298744 0.00152197 -0.00699185)