/*--------------------------------*- C++ -*----------------------------------*\
| =========                 |                                                 |
| \\      /  F ield         | OpenFOAM: The Open Source CFD Toolbox           |
|  \\    /   O peration     | Version:  v1912                                 |
|   \\  /    A nd           | Website:  www.openfoam.com                      |
|    \\/     M anipulation  |                                                 |
\*---------------------------------------------------------------------------*/
FoamFile
{
    version     2.0;
    format      ascii;
    class       volScalarField;
    location    "530";
    object      epsilon;
}
// * * * * * * * * * * * * * * * * * * * * * * * * * * * * * * * * * * * * * //

dimensions      [0 2 -3 0 0 0 0];


internalField   nonuniform List<scalar> 
12441
(
0.0102964
0.009085
0.0083271
0.00770263
0.00718364
0.00674894
0.00638218
0.0060707
0.00580468
0.00557601
0.00537861
0.00520477
0.0050534
0.00491657
0.00480681
0.0046919
0.00489141
0.0205608
0.278612
3.05503
20.9522
39.25
0.0101189
0.00892018
0.00818403
0.0075769
0.00707192
0.00664866
0.00629132
0.00598769
0.00572832
0.00550531
0.00531284
0.00514307
0.00499522
0.00486206
0.00475597
0.0046462
0.0048117
0.0203086
0.262335
3.0471
21.2422
40.2318
0.00989692
0.00871742
0.00800035
0.00740912
0.00691749
0.00650555
0.0061579
0.00586268
0.00561069
0.00539425
0.00520774
0.00504341
0.00490093
0.00477233
0.00467179
0.00456541
0.0046499
0.0183883
0.221857
3.01552
21.6209
41.3784
0.00967334
0.00851377
0.00781498
0.00723888
0.00675991
0.00635867
0.00602017
0.00573286
0.00548778
0.00527749
0.00509655
0.00493751
0.00479966
0.00467688
0.00458037
0.00448195
0.00450438
0.0160855
0.182529
2.99208
22.0883
42.5504
0.00942911
0.00828915
0.00760909
0.00704862
0.00658284
0.00619284
0.00586403
0.0055852
0.00534764
0.00514412
0.00496941
0.00481623
0.00468429
0.00456665
0.00447657
0.00438313
0.00435335
0.0140113
0.162321
2.99826
22.6065
43.6698
0.00922314
0.00809953
0.00743468
0.00688683
0.00643162
0.00605054
0.00572932
0.00545704
0.00522516
0.00502665
0.00485643
0.00470748
0.00457909
0.0044666
0.00437956
0.00429315
0.00427938
0.014093
0.181646
3.10504
23.2392
44.7472
0.00900247
0.00789592
0.00724753
0.00671341
0.00626977
0.00589856
0.00558585
0.00532099
0.00509567
0.00490307
0.00473823
0.00459436
0.00447113
0.0043636
0.00428021
0.00419929
0.00602857
0.0231071
0.287572
3.40804
24.0883
45.7945
0.00882402
0.00773127
0.00709571
0.0065722
0.00613739
0.00577358
0.00546713
0.0052076
0.00498686
0.00479822
0.00463686
0.00449619
0.0043756
0.00427384
0.00419712
0.00516048
0.0341853
0.0791229
0.60269
4.0498
25.2808
46.8732
0.00862987
0.00755206
0.00693102
0.00641963
0.00599503
0.00563994
0.00534098
0.005088
0.00487302
0.00468954
0.00453286
0.00439664
0.00428122
0.00414583
0.00540035
0.0267261
0.171697
0.293302
1.29295
5.18568
26.952
48.0153
0.00847519
0.00740917
0.00679912
0.00629678
0.00587969
0.00553087
0.00523718
0.00498865
0.00477747
0.00459723
0.00444338
0.00430987
0.00419554
0.00427181
0.0249492
0.144241
0.497086
0.765788
2.37665
6.8761
29.2006
49.2846
0.00830574
0.00725271
0.00665539
0.00616367
0.00575555
0.00541437
0.00512725
0.00488445
0.0046783
0.00450255
0.00435272
0.0042241
0.00408143
0.00943749
0.109261
0.398616
0.941723
1.42609
3.62748
9.01166
32.0535
50.6975
0.00817072
0.00712801
0.00654025
0.00605638
0.00565475
0.00531896
0.00503636
0.00479734
0.0045944
0.00442137
0.00427389
0.00414906
0.00415701
0.04712
0.292657
0.707259
1.34229
2.06711
4.78463
11.3664
35.4539
52.295
0.00802157
0.00699034
0.00641393
0.00593954
0.00554589
0.00521689
0.00494013
0.0047062
0.00450769
0.00433861
0.00419463
0.00403663
0.00833028
0.15328
0.511896
0.96032
1.63139
2.5675
5.73819
13.7189
39.2871
54.0597
0.00790069
0.0068787
0.00631086
0.00584348
0.00545564
0.00513146
0.00485874
0.0046282
0.00443258
0.00426594
0.00412409
0.00388159
0.035991
0.300812
0.687864
1.13324
1.82485
2.92495
6.49391
15.9206
43.4108
56.0037
0.00776929
0.00675734
0.00619952
0.00574051
0.0053597
0.00504152
0.00477393
0.00454784
0.00435609
0.00419288
0.00405403
0.004258
0.10474
0.434356
0.80977
1.24818
1.95522
3.17789
7.09406
17.901
47.688
58.0812
0.00766023
0.00665667
0.00610658
0.0056539
0.00527833
0.00496449
0.00470055
0.00447754
0.0042884
0.00412743
0.00399056
0.00937281
0.195637
0.533846
0.892172
1.32686
2.0465
3.36221
7.58059
19.6418
52.0003
60.2902
0.00754427
0.00654959
0.00600842
0.00556316
0.00519382
0.00488526
0.00462582
0.00440667
0.00422088
0.00406283
0.00392895
0.031102
0.280323
0.604275
0.949739
1.38322
2.11347
3.50268
7.98587
21.1529
56.2587
62.571
0.00744276
0.00645601
0.00592213
0.00548287
0.00511851
0.00481411
0.00455819
0.00434203
0.00415879
0.00400297
0.00387369
0.0748201
0.347215
0.654682
0.991853
1.42553
2.16506
3.61517
8.33302
22.4558
60.4006
64.9213
0.00734013
0.0063611
0.00583506
0.0054023
0.00504337
0.00474357
0.00449154
0.0042787
0.00409833
0.00394502
0.00380967
0.126971
0.397144
0.69218
1.02414
1.45876
2.20672
3.70972
8.6379
23.5752
64.3903
67.2818
0.00724551
0.00627396
0.00575476
0.00532766
0.00497345
0.0046776
0.00442893
0.00421898
0.00404109
0.00388995
0.0042715
0.174691
0.434454
0.721323
1.04998
1.48598
2.24197
3.79272
8.91124
24.5348
68.2116
69.6617
0.00715527
0.00619045
0.00567812
0.00525668
0.00490716
0.00461523
0.00436986
0.00416268
0.00398715
0.00383812
0.00977494
0.214069
0.46319
0.744931
1.07148
1.50918
2.27313
3.86824
9.1601
25.356
71.8683
72.0102
0.0070645
0.00610703
0.00560144
0.0051856
0.00484079
0.00455287
0.00431091
0.00410671
0.00393376
0.00378746
0.0270092
0.245551
0.48619
0.76476
1.09002
1.52971
2.30181
3.93872
9.38905
26.0575
75.3778
74.3523
0.00698519
0.00603341
0.00553371
0.00512268
0.00478182
0.00449717
0.00425794
0.004056
0.00388497
0.00374242
0.054079
0.270783
0.505305
0.781952
1.10654
1.54852
2.32917
4.00553
9.60096
26.656
78.7727
76.6493
0.00689871
0.00595403
0.00546083
0.00505525
0.00471902
0.00443831
0.00420248
0.00400351
0.00383507
0.00370258
0.0825446
0.291345
0.521721
0.797276
1.12172
1.56629
2.35594
4.06932
9.7977
27.1659
82.0963
78.9445
0.00683042
0.00589051
0.00540229
0.0050007
0.00466767
0.00438955
0.00415583
0.00395855
0.00379152
0.00368397
0.107609
0.308529
0.536216
0.811276
1.13603
1.58353
2.38257
4.13037
9.98048
27.6003
85.4048
81.212
0.00674474
0.00581215
0.00533065
0.00493477
0.00460663
0.00433273
0.00410267
0.00390861
0.00374442
0.00364446
0.128528
0.323294
0.549312
0.824343
1.14982
1.60054
2.40921
4.18881
10.1502
27.9704
88.7626
83.5114
0.00668558
0.0057568
0.00527936
0.00488664
0.00456099
0.00428906
0.00406057
0.00386774
0.00370461
0.00383365
0.146062
0.336309
0.561374
0.836764
1.16334
1.61754
2.43583
4.24476
10.3077
28.2862
92.2429
85.8273
0.00660187
0.00568039
0.00520967
0.00482271
0.00450203
0.00423442
0.00400969
0.00382019
0.00366005
0.00573103
0.161127
0.348041
0.57266
0.848748
1.17676
1.6346
2.46234
4.29834
10.4537
28.5559
95.9217
88.2307
0.00655218
0.00563365
0.00516608
0.00478149
0.00446256
0.00419624
0.00397248
0.00378366
0.00362446
0.0108773
0.174426
0.358809
0.583361
0.860444
1.19016
1.65174
2.48858
4.3497
10.5888
28.7868
99.876
90.7106
0.0064681
0.00555722
0.00509675
0.00471828
0.00440469
0.00414303
0.00392333
0.00373811
0.00358304
0.0199424
0.186432
0.36884
0.593618
0.871952
1.20358
1.6689
2.51446
4.39896
10.7138
28.9846
104.176
93.3406
0.00642586
0.00551706
0.00505889
0.00468204
0.00436955
0.00410863
0.00388943
0.00370451
0.0035519
0.0325335
0.197446
0.378295
0.603533
0.883335
1.21702
1.68603
2.53988
4.44624
10.8293
29.1544
108.883
96.1058
0.00634341
0.00544225
0.00499119
0.00462051
0.00431343
0.00405726
0.00384222
0.00366096
0.00351597
0.0473851
0.207662
0.387292
0.613178
0.894627
1.23046
1.70306
2.56479
4.49165
10.9361
29.3008
114.043
99.0732
0.0063097
0.00540987
0.00496029
0.00459047
0.00428378
0.0040277
0.00381256
0.00363108
0.00349482
0.0631197
0.217211
0.39592
0.622605
0.905839
1.24386
1.71992
2.58914
4.53523
11.0349
29.428
119.691
102.217
0.00622524
0.00533361
0.00489169
0.00452859
0.00422783
0.00397697
0.00376641
0.00358896
0.00347365
0.0786681
0.226186
0.404241
0.631845
0.916968
1.25719
1.73658
2.61289
4.57703
11.1264
29.5401
125.848
105.592
0.00619839
0.0053073
0.00486604
0.00450305
0.00420203
0.00395067
0.00373955
0.00356149
0.00347818
0.093393
0.234655
0.412301
0.640916
0.927997
1.27039
1.75298
2.63602
4.61705
11.2112
29.6412
132.526
109.157
0.00611141
0.0052292
0.00479621
0.0044405
0.00414592
0.00390023
0.00369406
0.00352034
0.00354666
0.106955
0.242665
0.420132
0.649822
0.938907
1.28342
1.76907
2.6585
4.65526
11.2901
29.7349
139.732
112.957
0.00608785
0.00520583
0.00477308
0.00441708
0.00412186
0.00387538
0.00366839
0.00349389
0.00614563
0.119187
0.250249
0.427753
0.658559
0.94967
1.29625
1.78483
2.68029
4.69161
11.3637
29.824
147.465
116.938
0.00599587
0.00512383
0.00470026
0.00435233
0.00406423
0.00382399
0.00362241
0.00345265
0.0244378
0.129953
0.257424
0.435173
0.667118
0.960257
1.30884
1.80023
2.70136
4.72604
11.4327
29.9104
155.711
121.137
0.00596755
0.00509635
0.00467356
0.00432576
0.00403738
0.00379667
0.00359462
0.00342489
0.043808
0.139004
0.264199
0.442394
0.67548
0.970636
1.32114
1.81521
2.72165
4.75843
11.4978
29.9944
164.416
125.495
0.00586288
0.00500345
0.00459144
0.00425309
0.00397303
0.00373963
0.00354392
0.00338449
0.0540515
0.146373
0.270579
0.44941
0.683627
0.980771
1.33312
1.82975
2.74113
4.78871
11.5597
30.0752
173.447
130.045
0.00582128
0.00496399
0.00455388
0.00421665
0.00393719
0.00370415
0.00350877
0.00333813
0.0595251
0.152325
0.276567
0.45621
0.691534
0.990625
1.34474
1.8438
2.75972
4.81677
11.6188
30.1514
182.536
134.727
0.00569966
0.00485645
0.00445885
0.00413232
0.00386215
0.00363722
0.00344892
0.00332997
0.0627597
0.157152
0.282169
0.462779
0.699178
1.00016
1.35596
1.85732
2.77736
4.84253
11.6753
30.2219
191.204
139.588
0.00561734
0.00478992
0.00440434
0.00408614
0.00382159
0.00360031
0.00341417
0.00357031
0.0648358
0.161094
0.287394
0.469095
0.706535
1.00932
1.36672
1.87026
2.79397
4.86594
11.729
30.2868
198.757
144.654
0.00525494
0.00446066
0.00411242
0.0038269
0.00358969
0.0033912
0.00322387
0.00367692
0.0662422
0.16433
0.292251
0.475136
0.713583
1.01806
1.37699
1.88255
2.80947
4.88702
11.7788
30.3474
204.391
150.447
95.0235
43.6721
26.5763
21.3407
22.1677
19.4208
18.9952
16.948
15.8468
15.2451
14.5024
13.6336
14.3125
16.4866
19.6116
22.5413
24.7673
27.2154
30.613
33.9444
36.4113
38.3163
39.2386
39.1982
38.9315
38.6268
38.2933
37.7543
36.7739
34.7429
32.6049
32.6172
34.7345
8.65298
3.00716
94.6475
43.6693
26.5884
21.5025
22.5386
19.722
19.3045
17.1867
16.061
15.4303
14.5977
13.7163
14.3915
16.5874
19.7621
22.7164
24.9509
27.3456
30.7025
34.168
36.9002
39.0483
40.1369
40.1224
39.7511
39.2924
38.8415
38.2465
37.2517
35.1648
32.938
32.9457
34.905
8.73613
3.00648
93.9266
43.6528
26.6122
21.8312
23.2784
20.3268
19.9101
17.6524
16.4855
15.7976
14.7972
13.8839
14.5499
16.7955
20.0627
23.0874
25.3597
27.648
30.9068
34.61
37.8477
40.496
41.9693
42.0601
41.5073
40.7271
40.0061
39.2678
38.2312
36.0303
33.6239
33.6089
35.0351
8.8487
3.00522
92.8104
43.6147
26.6513
22.342
24.3769
21.2353
20.7882
18.329
17.1116
16.3399
15.1256
14.1623
14.8114
17.1327
20.5628
23.7476
26.1232
28.2703
31.3356
35.3401
39.3051
42.7129
44.83
45.1785
44.415
43.1257
41.9228
40.9007
39.7704
37.3916
34.7044
34.6309
35.2764
9.00542
3.00356
91.3035
43.547
26.7112
23.0466
25.8172
22.4409
21.9155
19.2063
17.9315
17.051
15.6114
14.5849
15.2019
17.6188
21.308
24.8077
27.446
29.4809
32.2084
36.5097
41.3784
45.7951
48.8649
49.7267
48.8075
46.8068
44.8198
43.2839
41.9624
39.3272
36.2421
36.0519
35.7655
9.22156
3.00172
89.3553
43.4418
26.7999
23.9595
27.595
23.9459
23.2846
20.2871
18.9474
17.9336
16.2824
15.1856
15.7444
18.2603
22.3154
26.3557
29.5778
31.6991
33.9121
38.3866
44.2516
49.901
54.2797
56.0417
55.1665
52.2638
49.064
46.6399
44.9497
41.9496
38.326
37.9312
36.6337
9.51383
2.99997
87.0012
43.2917
26.929
25.1043
29.7238
25.7676
24.9075
21.5881
20.175
19.0046
17.1704
16.0022
16.4637
19.0615
23.583
28.4368
32.76
35.5042
37.0767
41.4117
48.2268
55.2839
61.3596
64.555
64.1507
60.2369
55.2334
51.319
48.9455
45.4167
41.0783
40.3505
38.0215
9.9012
2.99862
84.2135
43.089
27.1153
26.5144
32.2288
27.9358
26.8123
23.1384
21.6428
20.2954
18.3179
17.0844
17.4
20.0433
25.1154
31.0677
37.1763
41.5925
42.6661
46.2793
53.7795
62.3359
70.4966
75.7911
76.6042
71.7912
64.2203
57.864
54.2654
49.9483
44.6652
43.4181
40.0941
10.4058
2.99797
81.0699
42.826
27.3823
28.2295
35.137
30.4867
29.0384
24.9774
23.3904
21.8504
19.7831
18.5002
18.6179
21.2552
26.9451
34.2661
42.9138
50.6044
52.0254
54.0321
61.6207
71.6301
82.2094
90.3314
93.4784
88.3365
77.3452
67.0956
61.3682
55.846
49.3083
47.2737
43.0613
11.0539
2.99834
77.574
42.4947
27.7618
30.2887
38.4691
33.4562
31.6312
27.1529
25.4668
23.7263
21.6404
20.3395
20.2156
22.7839
29.1446
38.0681
49.9128
62.6534
66.5541
66.048
72.707
83.9118
97.0944
108.667
115.52
111.369
96.3579
80.1803
70.895
63.513
55.2972
52.0902
47.1975
11.8762
2.99996
73.8369
42.0864
28.2966
32.7245
42.233
36.8753
34.6375
29.7184
27.9271
25.9893
23.979
22.7111
22.329
24.7636
31.8433
42.5492
57.9177
76.5449
86.1515
83.4479
88.0004
99.9028
115.584
130.811
142.499
141.432
122.891
98.5204
83.6547
73.4536
62.9923
58.0695
52.8594
12.9078
3.00298
69.8857
41.5912
29.0418
35.5561
46.4202
40.7653
38.0999
32.7293
30.8287
28.7113
26.8943
25.7376
25.139
27.3883
35.2453
47.843
66.4769
89.5119
106.52
105.137
107.578
119.688
137.353
155.614
172.033
175.889
156.461
123.009
100.416
86.2002
72.7965
65.42
60.4841
14.1861
3.00735
65.8489
40.999
30.065
38.7854
51.0047
45.1366
42.0505
36.2382
34.2253
31.9648
30.4763
29.5334
28.8638
30.9239
39.6485
54.1589
75.0486
98.7078
120.166
125.637
129.095
141.678
160.524
180.233
199.224
207.276
191.036
152.001
121.23
102.055
85.0436
74.2973
70.5261
15.7459
3.0127
61.7626
40.2985
31.4436
42.3985
55.9444
49.9889
46.5092
40.2874
38.1592
35.811
34.7838
34.1756
33.7294
35.7119
45.4338
61.7484
83.2012
103.438
123.858
138.067
147.622
162.216
181.606
200.784
218.78
226.745
215.18
178.947
144.151
120.514
99.7184
84.6788
83.2488
17.6072
3.01827
57.7502
39.4794
33.2569
46.3714
61.1849
55.3146
51.4776
44.9036
42.6563
40.2868
39.8236
39.649
39.8833
42.1106
53.0129
70.8065
90.8226
105.338
121.359
141.214
159.185
177.457
197.149
214.287
228.198
230.971
220.932
194.55
164.418
139.482
115.958
96.1566
98.2755
19.7548
3.02273
53.8399
38.5336
35.5731
50.6766
66.67
61.087
56.9391
50.0966
47.7213
45.3944
45.5451
45.8139
47.2584
50.3378
62.5965
81.234
98.1628
106.75
118.055
139.687
164.22
186.193
205.859
220.118
228.376
223.283
210.775
194.626
176.417
155.165
131.567
107.708
113.985
22.1081
3.02411
50.1273
37.4609
38.4354
55.2742
72.3462
67.2614
62.8594
55.8591
53.3436
51.1006
51.8155
52.4001
55.4154
60.1442
73.7881
92.4021
105.641
109.454
117.127
138.379
166.118
190.077
208.809
219.543
221.723
208.944
192.724
183.237
177.811
163.721
143.269
117.667
127.371
24.491
3.01983
46.6135
36.2762
41.8476
60.1062
78.1627
73.7686
69.1838
62.165
59.4965
57.3543
58.493
59.1228
63.5686
70.4799
85.2079
103.111
113.497
114.382
119.728
139.76
167.852
191.444
207.859
214.324
210.475
191.803
173.152
167.247
170.833
163.738
148.251
124.184
135.197
26.6266
3.00686
43.349
35.0224
45.7538
65.1148
84.0577
80.5079
75.8341
68.9656
66.1489
64.1052
65.4886
65.801
70.9077
79.6775
94.9291
112.16
121.571
121.596
125.758
144.205
170.555
191.625
204.331
205.805
196.251
173.99
155.067
151.321
159.54
156.794
145.9
126.089
135.911
28.1795
2.98218
40.3033
33.7816
50.0216
70.2433
89.9564
87.3472
82.7053
76.1821
73.2611
71.3186
72.8017
72.5148
77.1219
86.4887
101.761
119.088
129.389
130.308
134.191
150.714
173.769
190.746
198.735
194.812
180.26
156.65
139.346
137.329
147.077
145.796
137.909
123.47
130.343
28.8442
2.94336
37.4893
32.6638
54.4775
75.4182
95.7745
94.134
89.6697
83.7021
80.7793
78.975
80.5218
79.5518
82.6192
91.0608
106.203
124.578
136.604
139.102
143.095
157.396
176.214
188.321
191.16
181.923
163.524
140.457
125.967
125.539
135.014
133.244
126.863
117.444
120.632
28.447
2.88916
34.8769
31.7882
58.9325
80.5519
101.424
100.716
96.5876
91.3835
88.6265
87.0539
88.7598
87.3232
88.3523
94.8173
109.906
129.963
143.365
146.686
150.317
162.163
176.605
183.89
181.697
167.726
146.946
125.816
114.627
115.603
123.841
120.661
114.914
109.441
108.855
27.0121
2.81991
32.4767
31.2709
63.214
85.5484
106.822
106.96
103.324
99.0703
96.7019
95.515
97.5903
96.1591
95.3485
99.5852
114.765
136.666
150.332
152.651
154.523
163.661
174.295
177.401
170.654
152.881
131.255
112.911
104.975
107.041
113.548
108.774
103.352
100.629
96.4427
24.7552
2.73746
30.2708
31.2135
67.196
90.3085
111.894
112.765
109.759
106.612
104.887
104.289
107.004
106.242
104.421
106.955
122.311
145.729
158.293
157.558
155.878
161.848
169.481
169.209
158.523
138.071
116.951
101.748
96.6816
99.4198
103.981
97.8543
92.7532
91.7286
84.2198
22.0032
2.6448
28.2673
31.6993
70.8109
94.7379
116.58
118.063
115.8
113.881
113.061
113.289
116.932
117.546
115.875
118.006
133.793
157.925
167.845
162.279
155.474
157.699
162.927
159.888
145.871
123.887
104.285
92.1986
89.4562
92.4105
95.0008
87.9528
83.261
83.0845
72.6368
19.0885
2.54541
26.4614
32.7923
74.0431
98.7584
120.837
122.82
121.386
120.788
121.121
122.428
127.28
129.949
129.614
133.208
150.124
173.742
179.247
167.442
154.528
152.475
155.521
150
133.213
110.764
93.307
84.0624
83.0521
85.7902
86.5323
79.03
74.81
74.8153
61.947
16.2717
2.44268
24.8623
34.5371
76.9116
102.32
124.646
127.037
126.492
127.284
128.996
131.644
137.984
143.288
145.361
152.437
171.928
193.589
192.5
173.222
153.767
147.173
147.961
139.978
120.966
98.9499
83.921
77.1118
77.2669
79.431
78.5598
71.0102
67.2551
66.9384
52.2981
13.7151
2.33952
23.4808
36.9584
79.4522
105.409
128.012
130.745
131.126
133.367
136.662
140.919
149.031
157.474
162.856
175.225
199.169
217.449
207.317
179.485
153.537
142.401
140.671
130.1
109.421
88.5373
75.9534
71.1232
71.9415
73.2808
71.1023
63.8058
60.4398
59.4496
43.7652
11.4926
2.23814
22.3333
40.0586
81.703
108.045
130.964
134
135.332
139.076
144.142
150.289
160.478
172.496
181.933
201.105
231.32
244.805
223.1
185.862
153.832
138.443
133.84
120.525
98.7659
79.4967
69.1971
65.8965
66.9595
67.3423
64.1874
57.3262
54.2277
52.3619
36.3622
9.6161
2.14005
21.4546
43.8109
83.6956
110.269
133.546
136.869
139.175
144.484
151.507
159.85
172.46
188.472
202.605
229.84
267.423
274.242
238.805
191.862
154.541
135.365
127.494
111.341
89.0974
71.7245
63.4459
61.2623
62.2433
61.6508
57.8342
51.4843
48.5143
45.7128
30.049
8.06156
2.04619
20.8892
48.1494
85.4539
112.135
135.813
139.429
142.736
149.691
158.875
169.77
185.22
205.657
225.085
261.53
306.585
303.818
253.05
196.852
155.353
133.055
121.558
102.596
80.4454
65.0763
58.5098
57.0848
57.7499
56.255
52.0439
46.1997
43.2288
39.5548
24.7448
6.78851
1.95702
20.7351
52.9605
86.9961
113.703
137.822
141.752
146.107
154.819
166.419
180.314
199.154
224.549
249.904
296.675
347.706
331.023
264.261
200.191
155.933
131.256
115.891
94.3226
72.7863
59.3952
54.2244
53.2592
53.4625
51.2011
46.7993
41.4023
38.3301
33.9392
20.3419
5.7522
1.87267
21.1259
58.083
88.3393
115.03
139.634
143.915
149.388
160.024
174.377
191.884
214.911
245.995
278.053
336.224
389.388
353.311
271.035
201.279
155.832
129.593
110.32
86.5511
66.0634
54.5258
50.4513
49.7094
49.3835
46.5235
42.0681
37.0331
33.7995
28.9018
16.7214
4.91015
1.79305
22.2957
63.3225
89.5031
116.174
141.311
145.992
152.693
165.5
183.091
205.105
233.552
271.478
311.288
381.5
429.124
367.982
272.316
199.714
154.704
127.65
104.683
79.309
60.1959
50.3258
47.0786
46.3827
45.5252
42.2399
37.8089
33.0449
29.6322
24.4552
13.7643
4.22511
1.71795
24.5223
68.4787
90.5104
117.184
142.914
148.066
156.161
171.513
193.067
220.958
256.835
303.481
352.446
433.649
463.03
372.868
267.648
195.302
152.22
125.034
98.8589
72.6202
55.0918
46.669
44.0168
43.2451
41.9034
38.3512
33.9759
29.4013
25.8294
20.5873
11.3595
3.66584
1.64706
28.1637
73.3754
91.3858
118.109
144.509
150.232
159.973
178.437
205.074
241.017
287.663
346.088
405.678
491.863
485.512
366.56
257.21
188.131
148.23
121.453
92.7963
66.5
50.654
43.4481
41.1975
40.2764
38.5308
34.8443
30.5242
26.0751
22.3919
17.2652
9.40827
3.20685
1.58007
33.4954
77.8839
92.1531
118.989
146.17
152.608
164.379
186.833
220.328
267.845
330.726
405.328
475.266
549.782
490.727
349.277
241.869
178.502
142.653
116.737
86.5201
60.9484
46.7875
40.5744
38.5697
37.4657
35.4141
31.6955
27.4117
23.0457
19.3159
14.4419
7.82583
2.82773
1.51665
40.701
81.9353
92.8339
119.868
147.99
155.361
169.749
197.577
240.816
305.62
392.89
487.561
559.966
592.248
474.708
322.755
222.954
166.927
135.583
110.846
80.1133
55.9471
43.4024
37.9773
36.0977
34.8077
32.5525
28.8747
24.6015
20.297
16.591
12.0629
6.54121
2.51222
1.4565
49.6321
85.5272
93.4472
120.791
150.088
158.732
176.66
212.103
269.879
360.866
480.946
589.991
639.926
599.648
438.258
290.149
202.039
154.021
127.166
103.842
73.6843
51.4587
40.4179
35.603
33.7586
32.2999
29.9376
26.3491
22.062
17.8154
14.2003
10.0712
5.49609
2.24753
1.39934
59.8743
88.7032
94.0107
121.815
152.642
163.104
186.065
232.876
313.209
441.85
589.551
680.484
673.142
562.276
387.169
254.928
180.607
140.457
117.68
95.8754
67.3378
47.4311
37.7634
33.4131
31.5409
29.9411
27.555
24.0849
19.7665
15.5879
12.1213
8.41187
4.64316
2.02355
1.34494
70.5911
91.5388
94.5429
123.019
155.931
169.124
199.643
264.336
379.954
550.04
678.269
701.183
631.55
490.233
330.138
220.24
159.89
126.875
107.427
87.1556
61.1558
43.802
35.3794
31.3818
29.4417
27.7307
25.3864
22.0497
17.6925
13.6013
10.3277
7.03415
3.94441
1.83231
1.29308
80.9187
94.1266
95.0663
124.526
160.434
177.975
220.568
314.612
479.706
653.001
686.069
632.375
536.019
405.399
274.731
188.163
140.745
113.861
96.7865
77.9445
55.1939
40.5065
33.2168
29.4937
27.4651
25.669
23.4114
20.2135
15.8207
11.8413
8.79105
5.89282
3.36944
1.6675
1.24357
89.3733
96.5747
95.6133
126.545
167.058
192.024
255.258
396.449
596.766
677.212
604.272
517.432
429.324
325.633
225.388
159.811
123.698
101.889
86.1397
68.5361
49.4836
37.48
31.2353
27.7404
25.6197
23.7582
21.6101
18.5489
14.1341
10.2924
7.48258
4.94855
2.89408
1.52414
1.19626
95.1437
99.0244
96.2395
129.471
177.712
216.472
316.468
510.222
645.62
593.119
482.675
405.497
337.555
258.432
183.442
135.41
108.913
91.2763
75.9088
59.2597
44.041
34.6621
29.4015
26.1172
23.9162
22.0021
19.9651
17.0317
12.6174
8.93808
6.37415
4.16775
2.49908
1.39823
1.15102
0.00337795
0.00250616
0.00228057
0.00217058
0.00213112
0.00213521
0.00216721
0.00371194
0.0669836
0.166332
0.295621
0.479389
0.718504
1.02408
1.38403
1.89091
2.81981
4.90075
11.812
30.3931
206.623
160.185
0.00334454
0.00224284
0.00184357
0.00160888
0.00148918
0.00145265
0.00148552
0.00373303
0.0673485
0.167417
0.297555
0.48173
0.721031
1.02703
1.38734
1.89476
2.82453
4.90731
11.8308
30.4274
207.53
170.332
0.00354058
0.00237586
0.00188231
0.00154516
0.00132422
0.00119462
0.00116466
0.00374878
0.0675877
0.168214
0.299067
0.483419
0.722615
1.02866
1.38899
1.89654
2.8266
4.91052
11.8431
30.4628
207.587
180.017
0.00367095
0.00251743
0.00200372
0.00162961
0.00135811
0.00116738
0.00103256
0.00376004
0.0677193
0.168743
0.300153
0.484446
0.723237
1.02897
1.38895
1.8962
2.82593
4.91023
11.8474
30.4999
206.857
189.11
0.00392269
0.00276387
0.00222602
0.00182147
0.00151347
0.00127939
0.000997319
0.00376761
0.0677537
0.169014
0.300811
0.484802
0.722884
1.02793
1.3872
1.89371
2.82245
4.90629
11.8423
30.5391
205.385
198.07
0.00406036
0.00292971
0.00239815
0.00199139
0.00167424
0.0014241
0.000985584
0.00377205
0.0676969
0.169037
0.301036
0.48448
0.721549
1.02556
1.38374
1.88906
2.81613
4.89858
11.8263
30.5803
203.204
207.067
0.00434059
0.0032079
0.00265903
0.00223256
0.00189479
0.00162315
0.00105413
0.00377372
0.0675525
0.168815
0.300828
0.483478
0.719231
1.02184
1.37856
1.88224
2.8069
4.88696
11.7982
30.6233
200.353
216.098
0.00447872
0.00337926
0.00284354
0.00242271
0.00208536
0.00180991
0.00118049
0.00377271
0.0673221
0.168351
0.300189
0.481801
0.715939
1.0168
1.37169
1.87323
2.79473
4.87132
11.7568
30.6673
196.882
225.102
0.00478414
0.00368454
0.0031341
0.00269595
0.00234064
0.00204729
0.00130499
0.00376886
0.0670067
0.16765
0.299125
0.479456
0.711688
1.01045
1.36314
1.86206
2.77957
4.85157
11.7013
30.7108
192.848
234.008
0.00490883
0.00384886
0.00331917
0.0028939
0.00254573
0.00225487
0.00139554
0.00376187
0.0666062
0.166714
0.297645
0.476458
0.706502
1.00282
1.35296
1.84874
2.76139
4.8276
11.6308
30.7515
188.31
242.731
0.00522948
0.00417114
0.00362951
0.00318948
0.00282567
0.00251915
0.00150958
0.00375139
0.06612
0.165547
0.295761
0.472826
0.700412
0.993954
1.34118
1.83331
2.74018
4.7993
11.545
30.7862
183.336
251.161
0.00533943
0.00432472
0.00380955
0.00338833
0.00303744
0.00273899
0.00162939
0.00373691
0.0655468
0.164155
0.293489
0.468585
0.693456
0.983892
1.32787
1.8158
2.7159
4.76658
11.4433
30.8108
177.991
259.163
0.00567217
0.0046608
0.0041362
0.00370235
0.00333765
0.00302523
0.00183373
0.00371788
0.0648835
0.162541
0.290847
0.463764
0.685677
0.972689
1.3131
1.79629
2.68854
4.72931
11.3255
30.8201
172.345
266.588
0.00575639
0.00479293
0.00430086
0.00389224
0.00354677
0.00324852
0.00211146
0.00369343
0.0641256
0.160709
0.287853
0.458398
0.677125
0.960406
1.29693
1.77484
2.65813
4.68738
11.1915
30.808
166.465
273.284
0.00609214
0.00513318
0.00463378
0.00421456
0.00385721
0.00354695
0.00251563
0.00366261
0.0632651
0.158662
0.284524
0.452523
0.667854
0.947108
1.27945
1.75155
2.62468
4.64064
11.0414
30.7674
160.415
279.102
0.00615229
0.00524299
0.0047799
0.00439038
0.00405707
0.00376592
0.00298167
0.00362362
0.0622899
0.156399
0.280877
0.446179
0.657919
0.932866
1.26074
1.72651
2.58825
4.58895
10.8753
30.6902
154.256
283.911
0.00648678
0.00558295
0.00511428
0.00471576
0.00437199
0.0040702
0.00349372
0.00357456
0.0611814
0.153915
0.276927
0.439408
0.647383
0.917754
1.2409
1.69984
2.54891
4.53214
10.6934
30.568
148.043
287.601
0.00651847
0.0056655
0.00523629
0.00487136
0.00455592
0.00427773
0.00389056
0.00351109
0.0599113
0.151198
0.272683
0.43225
0.636308
0.901849
1.22003
1.67167
2.50676
4.47006
10.4962
30.3917
141.823
290.089
0.00683901
0.00599231
0.00555932
0.00518723
0.00486314
0.00457615
0.00426724
0.00343363
0.058438
0.148224
0.268147
0.424744
0.624757
0.885228
1.19823
1.64211
2.46195
4.40255
10.2842
30.1525
135.639
291.319
0.0068536
0.00605579
0.00566212
0.00532447
0.00503026
0.00476892
0.00452303
0.00335086
0.0567003
0.144956
0.263313
0.416926
0.612797
0.867973
1.17558
1.6113
2.41461
4.32946
10.058
29.8414
129.522
291.261
0.00716009
0.00636927
0.00597332
0.0056299
0.00532826
0.00505917
0.00481805
0.00332358
0.054609
0.141332
0.258158
0.408822
0.600492
0.850165
1.1522
1.57939
2.36493
4.25069
9.81843
29.4505
123.502
289.901
0.00715673
0.00641255
0.00605539
0.00574679
0.00547612
0.00523425
0.00501899
0.00351844
0.0520374
0.137261
0.252638
0.400446
0.587901
0.831886
1.12818
1.5465
2.31311
4.16615
9.56637
28.9728
117.599
287.247
0.00744654
0.00670953
0.00635101
0.00603761
0.00576042
0.00551163
0.00528795
0.00401934
0.0488104
0.132607
0.246682
0.391794
0.57508
0.813217
1.10361
1.51278
2.25936
4.07581
9.30275
28.4029
111.827
283.316
0.00743064
0.00673706
0.0064156
0.00613617
0.00588975
0.00566852
0.00546749
0.0046304
0.0446974
0.127174
0.240174
0.382833
0.56207
0.794239
1.0786
1.47836
2.20392
3.9797
9.0286
27.7372
106.196
278.135
0.00770414
0.00701766
0.00669546
0.0064119
0.00615955
0.00593186
0.0057234
0.00522949
0.0394386
0.120681
0.232937
0.373491
0.548893
0.775031
1.05322
1.44339
2.14704
3.87794
8.74492
26.9748
100.711
271.739
0.00767679
0.00703044
0.00674331
0.00649247
0.00627031
0.00607007
0.00588572
0.00561219
0.0328536
0.112747
0.224713
0.363636
0.535536
0.755659
1.02758
1.40798
2.08899
3.77074
8.45277
26.1171
95.3717
264.17
0.00793327
0.00729364
0.00700605
0.00675148
0.00652376
0.00631738
0.00612689
0.00592029
0.0251297
0.102885
0.215124
0.353054
0.521939
0.736176
1.00176
1.37228
2.03004
3.65839
8.15314
25.1684
90.1761
255.481
0.00789956
0.0072964
0.00704127
0.00681747
0.00661852
0.00643866
0.00627227
0.00610797
0.0171888
0.0905761
0.203639
0.341414
0.507963
0.7166
0.975835
1.3364
1.97049
3.54132
7.847
24.1358
85.1174
245.737
0.00814114
0.0075442
0.00728869
0.00706134
0.00685702
0.0066711
0.00649881
0.00633439
0.0108176
0.0755063
0.18953
0.328223
0.493361
0.696892
0.949866
1.30047
1.91064
3.42011
7.53527
23.0291
80.1871
235.015
0.00810338
0.0075394
0.00731374
0.00711509
0.00693796
0.00677739
0.00662847
0.00648613
0.00740609
0.0580874
0.171877
0.312765
0.477734
0.676922
0.923876
1.2646
1.85083
3.29544
7.21887
21.8604
75.3736
223.412
0.00833019
0.00777186
0.00754582
0.00734376
0.00716142
0.00699491
0.00684017
0.00669349
0.00651488
0.0400377
0.149721
0.294023
0.460466
0.656418
0.897823
1.22887
1.79138
3.16821
6.89873
20.6439
70.6645
211.042
0.00829266
0.00776379
0.00756479
0.00738905
0.00723192
0.00708914
0.00695645
0.00682987
0.00658063
0.02428
0.122557
0.270624
0.440642
0.634907
0.871555
1.19333
1.73263
3.03943
6.57592
19.395
66.0461
198.04
0.00850596
0.00798222
0.00778282
0.00760383
0.0074417
0.00729312
0.00715466
0.00702336
0.00683946
0.0136855
0.0913736
0.240915
0.416931
0.611635
0.844749
1.15793
1.67487
2.91029
6.25169
18.1297
61.5065
184.556
0.00847101
0.00797345
0.00779839
0.00764335
0.00750436
0.00737778
0.0072599
0.00714735
0.00701899
0.00865022
0.0598162
0.203456
0.387457
0.585459
0.816829
1.1225
1.61836
2.78213
5.92765
16.8644
57.0364
170.758
0.00867161
0.00817868
0.0080032
0.00784509
0.00770134
0.00756918
0.00744566
0.0073283
0.00720887
0.00711425
0.0337088
0.158358
0.349778
0.554698
0.786871
1.08665
1.56319
2.65632
5.60578
15.615
52.6333
156.821
0.00864157
0.00817177
0.008018
0.00788145
0.00775873
0.00764671
0.00754217
0.00744216
0.00734182
0.00695272
0.0174099
0.109387
0.301324
0.516941
0.753463
1.04971
1.50928
2.53417
5.28857
14.3965
48.3029
142.927
0.00883155
0.0083659
0.00821165
0.00807215
0.00794487
0.00782745
0.00771738
0.0076125
0.00750967
0.0072021
0.0101977
0.0648384
0.241009
0.468971
0.71452
1.0106
1.45625
2.41679
4.97882
13.2227
44.0618
129.253
0.00880913
0.0083638
0.00822878