/*--------------------------------*- C++ -*----------------------------------*\
| =========                 |                                                 |
| \\      /  F ield         | OpenFOAM: The Open Source CFD Toolbox           |
|  \\    /   O peration     | Version:  v1912                                 |
|   \\  /    A nd           | Website:  www.openfoam.com                      |
|    \\/     M anipulation  |                                                 |
\*---------------------------------------------------------------------------*/
FoamFile
{
    version     2.0;
    format      ascii;
    class       volScalarField;
    location    "530";
    object      nut;
}
// * * * * * * * * * * * * * * * * * * * * * * * * * * * * * * * * * * * * * //

dimensions      [0 2 -1 0 0 0 0];


internalField   nonuniform List<scalar> 
12441
(
5.82185e-24
1.79047e-20
8.10469e-20
3.32533e-19
1.06828e-18
3.88828e-18
1.01057e-17
2.50058e-17
6.13866e-17
1.27541e-16
3.05686e-16
7.71938e-16
2.17745e-15
7.40306e-15
1.03466e-13
1.89511e-11
0.000193519
0.000926781
0.00298624
0.00260606
0.00364703
0.00775321
6.34179e-24
3.03335e-20
1.11726e-19
4.23929e-19
1.30205e-18
4.80716e-18
1.21983e-17
3.00106e-17
7.36119e-17
1.54465e-16
3.79836e-16
1.02989e-15
2.82326e-15
9.3754e-15
1.12861e-13
3.89995e-11
5.764e-05
0.00112308
0.00342048
0.00283754
0.00400965
0.00781733
6.36455e-24
3.58937e-20
1.20772e-19
4.48109e-19
1.37768e-18
4.90654e-18
1.29286e-17
3.20411e-17
8.05152e-17
1.71782e-16
4.17917e-16
1.11821e-15
2.77943e-15
7.66501e-15
5.34138e-14
6.57437e-12
1.10928e-05
0.000825257
0.00136624
0.00267762
0.00416291
0.0078909
6.31901e-24
3.76897e-20
1.18528e-19
4.29286e-19
1.32528e-18
4.71334e-18
1.2513e-17
3.13266e-17
7.84943e-17
1.73683e-16
4.23781e-16
1.15474e-15
2.60587e-15
8.47453e-15
3.84355e-14
1.54288e-12
1.62471e-06
0.000576626
0.00102004
0.00260218
0.00432565
0.0079647
6.28498e-24
4.38808e-20
1.29772e-19
4.58289e-19
1.40261e-18
4.77907e-18
1.30903e-17
3.2794e-17
8.42964e-17
1.87531e-16
4.54181e-16
1.28548e-15
3.01295e-15
4.07182e-14
2.46708e-13
2.29786e-12
1.39646e-07
0.0004082
0.00100288
0.0025903
0.00446586
0.00803394
6.23479e-24
4.12859e-20
1.20533e-19
4.29163e-19
1.34264e-18
4.6218e-18
1.27497e-17
3.23921e-17
8.28922e-17
1.92693e-16
4.76961e-16
1.44644e-15
4.52496e-15
1.32901e-12
1.18772e-11
5.10269e-11
4.58532e-07
0.000377343
0.0010725
0.00264717
0.00459163
0.00809948
6.19991e-24
5.02613e-20
1.37788e-19
4.75739e-19
1.46005e-18
4.79214e-18
1.35923e-17
3.44522e-17
9.06992e-17
2.11128e-16
5.20851e-16
2.00129e-15
2.49726e-14
4.14513e-11
6.56555e-10
9.37584e-09
1.87662e-05
0.000400752
0.00126246
0.00282924
0.00473525
0.00816218
6.15012e-24
4.34499e-20
1.23164e-19
4.4013e-19
1.40807e-18
4.72247e-18
1.35114e-17
3.48434e-17
9.13161e-17
2.23852e-16
5.72519e-16
5.43924e-15
6.08778e-13
2.25271e-09
8.40081e-08
4.98443e-06
0.000197148
0.000467295
0.00171397
0.00319796
0.00492179
0.00822577
6.11735e-24
5.57014e-20
1.46122e-19
4.99645e-19
1.55401e-18
4.95828e-18
1.46107e-17
3.75686e-17
1.02069e-16
2.50947e-16
6.45347e-16
6.13851e-14
2.58512e-11
7.41806e-08
1.04264e-05
0.000156406
0.000825086
0.000847039
0.00264534
0.00382322
0.00518257
0.00829204
6.07048e-24
4.43472e-20
1.25428e-19
4.56601e-19
1.50743e-18
4.95326e-18
1.47464e-17
3.87233e-17
1.04873e-16
2.75123e-16
7.48622e-16
1.68295e-12
1.08177e-09
4.43686e-06
0.000194407
0.000644015
0.00181789
0.00164156
0.00437546
0.00478186
0.00553017
0.00836448
6.04133e-24
6.02571e-20
1.53425e-19
5.25873e-19
1.6726e-18
5.20553e-18
1.60239e-17
4.2032e-17
1.19287e-16
3.17368e-16
8.92064e-16
5.23362e-11
5.49688e-08
8.28832e-05
0.000760625
0.00188798
0.00419272
0.0033772
0.0073929
0.00617695
0.00597774
0.00844366
5.99589e-24
4.46266e-20
1.27728e-19
4.76911e-19
1.63357e-18
5.28055e-18
1.6401e-17
4.40624e-17
1.25493e-16
3.6463e-16
1.1586e-15
1.45743e-09
3.24527e-06
0.000360037
0.00177115
0.00451993
0.00920283
0.00698026
0.0122071
0.00805813
0.00651497
0.00853143
5.97031e-24
6.41463e-20
1.60441e-19
5.53773e-19
1.81483e-18
5.54146e-18
1.7907e-17
4.82186e-17
1.46694e-16
4.44721e-16
1.69451e-15
3.52283e-08
7.30613e-05
0.00118948
0.0046788
0.0105865
0.01904
0.0137345
0.0190135
0.0104123
0.0071338
0.00862633
5.92632e-24
4.4323e-20
1.29662e-19
4.9928e-19
1.78306e-18
5.69146e-18
1.8531e-17
5.13805e-17
1.59842e-16
5.5915e-16
3.6013e-15
7.96713e-07
0.000359979
0.00329074
0.0109997
0.0220534
0.035696
0.0247459
0.0275028
0.0131191
0.00780342
0.00872852
5.90397e-24
6.75125e-20
1.66645e-19
5.82582e-19
1.97785e-18
5.93962e-18
2.02674e-17
5.67784e-17
1.96042e-16
7.78691e-16
1.65165e-14
1.52216e-05
0.00124184
0.00824419
0.0228224
0.0406291
0.0600972
0.0401774
0.0368531
0.0160244
0.00850491
0.00883515
5.86026e-24
4.39567e-20
1.3199e-19
5.24771e-19
1.95765e-18
6.18505e-18
2.12005e-17
6.16748e-17
2.28153e-16
1.21625e-15
3.02152e-13
0.000139781
0.0032983
0.0177681
0.0418041
0.0669223
0.0913655
0.0587085
0.0460436
0.0189316
0.00920275
0.00894576
5.8412e-24
7.05372e-20
1.73495e-19
6.15083e-19
2.17045e-18
6.43901e-18
2.33087e-17
6.93732e-17
3.0821e-16
2.30488e-15
1.2602e-11
0.000552733
0.00797135
0.0334063
0.0681176
0.100112
0.12647
0.07777
0.0541664
0.0217023
0.0098829
0.00905718
5.79722e-24
4.35001e-20
1.34485e-19
5.53103e-19
2.16052e-18
6.77106e-18
2.46164e-17
7.72246e-17
4.08439e-16
5.4455e-15
5.47973e-10
0.00149983
0.0167139
0.0559483
0.101126
0.137643
0.160705
0.0944573
0.0607492
0.0242135
0.0105186
0.00916919
5.7809e-24
7.32609e-20
1.80279e-19
6.49096e-19
2.38785e-18
7.01112e-18
2.71805e-17
8.90649e-17
6.61682e-16
1.69225e-14
4.40882e-08
0.00387462
0.0309833
0.0845387
0.138231
0.175688
0.189
0.106764
0.0657302
0.0264311
0.0111097
0.00927899
5.73633e-24
4.30514e-20
1.36864e-19
5.82372e-19
2.38673e-18
7.43762e-18
2.90052e-17
1.02309e-16
1.08035e-15
7.52694e-14
8.57807e-06
0.00865821
0.0512057
0.117789
0.17657
0.209771
0.207504
0.114219
0.0694035
0.0283233
0.0116423
0.00938714
5.72331e-24
7.57269e-20
1.86794e-19
6.83146e-19
2.62912e-18
7.67253e-18
3.2302e-17
1.22238e-16
2.19362e-15
7.80164e-13
0.000171662
0.0172707
0.0766944
0.153071
0.212081
0.236121
0.214872
0.117803
0.0721487
0.0299252
0.0121294
0.00949146
5.67792e-24
4.24326e-20
1.38566e-19
6.10895e-19
2.63497e-18
8.19273e-18
3.49374e-17
1.46454e-16
4.33986e-15
1.34054e-11
0.000703571
0.030675
0.105879
0.188166
0.241844
0.252458
0.212512
0.119127
0.074346
0.0312478
0.0125683
0.00959327
5.66758e-24
7.80204e-20
1.92463e-19
7.15452e-19
2.88973e-18
8.4178e-18
3.94307e-17
1.83572e-16
1.0275e-14
1.66096e-10
0.0019677
0.0490081
0.136791
0.220297
0.263209
0.25871
0.203774
0.119647
0.0762367
0.0323514
0.012983
0.00969106
5.62165e-24
4.19629e-20
1.39786e-19
6.37972e-19
2.90245e-18
9.03702e-18
4.34982e-17
2.31477e-16
2.24187e-14
1.55801e-09
0.00478367
0.0716471
0.167509
0.247754
0.275793
0.256586
0.192443
0.120186
0.0779804
0.0332655
0.0133806
0.00978684
5.61485e-24
8.02733e-20
1.97572e-19
7.45788e-19
3.17106e-18
9.26687e-18
5.02616e-17
3.0641e-16
5.6437e-14
1.37805e-08
0.0100695
0.0971526
0.19641
0.268984
0.280096
0.248962
0.181465
0.121007
0.0796293
0.0340657
0.0137938
0.00987966
5.56712e-24
4.17908e-20
1.40758e-19
6.63839e-19
3.19186e-18
9.99185e-18
5.71484e-17
4.08432e-16
1.30472e-13
3.19024e-07
0.0186619
0.124074
0.222261
0.283864
0.278242
0.238746
0.172384
0.122028
0.0812095
0.0347968
0.0142359
0.00997203
5.56282e-24
8.24823e-20
2.02092e-19
7.73992e-19
3.47276e-18
1.02318e-17
6.84569e-17
5.73328e-16
3.92517e-13
1.87805e-05
0.0307553
0.15087
0.244257
0.292604
0.272235
0.228257
0.165567
0.123078
0.0827009
0.0355419
0.0147433
0.0100634
5.51395e-24
4.18585e-20
1.41217e-19
6.87495e-19
3.50135e-18
1.10682e-17
8.13234e-17
8.10336e-16
1.82981e-12
0.000215722
0.046124
0.176474
0.262013
0.296431
0.264328
0.218849
0.16072
0.123998
0.0840901
0.0363433
0.0153286
0.0101564
5.51303e-24
8.46742e-20
2.05793e-19
7.99196e-19
3.79613e-18
1.13438e-17
1.02509e-16
1.20434e-15
1.28007e-11
0.000745399
0.0639798
0.199991
0.275537
0.296429
0.255891
0.211097
0.157343
0.124701
0.0853427
0.0372654
0.0160217
0.0102507
5.4619e-24
4.20336e-20
1.40962e-19
7.08387e-19
3.83343e-18
1.2304e-17
1.2882e-16
1.79562e-15
7.40863e-11
0.0015753
0.083594
0.220934
0.285145
0.294008
0.248014
0.205017
0.154972
0.125145
0.086439
0.0383203
0.0168227
0.0103488
5.46301e-24
8.68055e-20
2.08974e-19
8.21784e-19
4.14309e-18
1.26527e-17
1.72471e-16
2.80947e-15
3.56386e-10
0.00290509
0.104091
0.238948
0.29137
0.290079
0.241046
0.200394
0.153258
0.125338
0.087346
0.0395313
0.0177448
0.01045
5.41082e-24
4.22458e-20
1.39896e-19
7.26581e-19
4.19065e-18
1.37407e-17
2.30119e-16
4.38932e-15
1.3868e-09
0.00498124
0.124843
0.253991
0.294835
0.28555
0.235216
0.196922
0.15197
0.125301
0.0880464
0.040869
0.0187674
0.0105565
5.41503e-24
8.89173e-20
2.11411e-19
8.42369e-19
4.52256e-18
1.41929e-17
3.26388e-16
7.08333e-15
4.74641e-09
0.00814739
0.145182
0.266108
0.29618
0.280838
0.230391
0.194328
0.150967
0.125073
0.0885124
0.04232
0.0198828
0.010667
5.35937e-24
4.22783e-20
1.37806e-19
7.4285e-19
4.58473e-18
1.54528e-17
4.58228e-16
1.1295e-14
1.44523e-08
0.0127662
0.164728
0.275559
0.295984
0.276365
0.226511
0.192378
0.150171
0.124689
0.0887311
0.0438317
0.0210505
0.0107831
5.36553e-24
8.8457e-20
2.10337e-19
8.57225e-19
4.93651e-18
1.60476e-17
6.77963e-16
1.85066e-14
4.2811e-08
0.0192259
0.183141
0.28262
0.294741
0.272215
0.22336
0.190908
0.149544
0.124193
0.0886809
0.0453835
0.0222497
0.0109032
5.30582e-24
4.14856e-20
1.32572e-19
7.51594e-19
5.0099e-18
1.74617e-17
9.80417e-16
2.99166e-14
2.19928e-07
0.0280271
0.200378
0.287692
0.292846
0.268552
0.220853
0.189792
0.149073
0.12362
0.0883554
0.0469343
0.0234325
0.0110282
5.31236e-24
8.5263e-20
2.03824e-19
8.62058e-19
5.38102e-18
1.81863e-17
1.47467e-15
5.74573e-14
1.17894e-05
0.03982
0.216442
0.291123
0.290606
0.265328
0.218822
0.188955
0.148761
0.123009
0.087742
0.0484908
0.0245801
0.0111563
5.24588e-24
4.16146e-20
1.27322e-19
7.57669e-19
5.4824e-18
1.98559e-17
2.14223e-15
4.65002e-13
0.000254617
0.055595
0.231547
0.293316
0.288241
0.262622
0.217226
0.188344
0.148624
0.122395
0.0868456
0.0500499
0.0256549
0.0112883
5.24932e-24
5.37899e-20
1.54721e-19
7.99478e-19
5.76877e-18
2.06386e-17
3.20144e-15
2.31285e-11
0.00225446
0.0765534
0.245837
0.294584
0.285911
0.260363
0.215957
0.187941
0.148682
0.121817
0.0856692
0.051659
0.0266598
0.011422
5.17248e-24
4.32802e-20
1.1447e-19
7.24244e-19
5.94002e-18
2.35432e-17
4.66231e-15
1.03288e-09
0.0100426
0.103505
0.259503
0.295259
0.283714
0.258633
0.215026
0.187737
0.14896
0.121305
0.0842382
0.0533428
0.0275862
0.0115584
5.1659e-24
1.93951e-21
1.12091e-20
4.00644e-19
5.44897e-18
2.4437e-17
7.20681e-15
1.85025e-07
0.0290538
0.136471
0.272531
0.295581
0.281702
0.257376
0.214367
0.187748
0.149486
0.120891
0.0825814
0.0551413
0.0284721
0.0116955
5.07772e-24
1.71164e-20
4.4772e-20
4.17361e-19
5.46188e-18
3.62041e-17
1.80041e-14
5.7072e-05
0.0641217
0.174892
0.284862
0.295806
0.279881
0.256709
0.214044
0.187995
0.150287
0.120593
0.0807559
0.0569973
0.0293311
0.0118345
5.03896e-24
6.7202e-22
8.45914e-23
2.35239e-19
5.06613e-18
8.2813e-17
3.70761e-13
0.0015228
0.118624
0.217724
0.296219
0.296105
0.278219
0.256581
0.214011
0.188523
0.151386
0.120422
0.0788259
0.0587369
0.0301634
0.011976
4.83816e-24
2.10321e-19
4.58123e-19
1.02949e-18
7.26009e-18
9.13488e-16
7.18185e-12
0.0102276
0.194027
0.264315
0.306779
0.296809
0.27668
0.257103
0.214332
0.189354
0.152782
0.120308
0.0768713
0.0599159
0.0306638
0.0121338
0.00987657
0.0338786
0.039624
0.0147576
0.0106035
0.0101852
0.0101587
0.0106132
0.0106458
0.0113202
0.0166218
0.016191
0.0152371
0.0150788
0.0158653
0.0176485
0.0198524
0.0208784
0.0190566
0.0148802
0.0122465
0.0115535
0.0116111
0.0119888
0.0125315
0.0130377
0.0134596
0.0138939
0.0143905
0.0151945
0.0162081
0.0161951
0.015239
0.0611037
0.176139
0.00986353
0.0345043
0.0385937
0.0144136
0.0105314
0.0100872
0.0102691
0.0107526
0.0106974
0.0113612
0.0162845
0.0157816
0.0148765
0.014693
0.0154519
0.0172503
0.0196336
0.0210093
0.0193801
0.014983
0.0121108
0.0113204
0.0113295
0.0116852
0.0122433
0.012785
0.0132383
0.0136854
0.0141813
0.0149831
0.0160155
0.0160033
0.0151389
0.0604144
0.175902
0.00983842
0.0350957
0.0367999
0.0138248
0.010541
0.0100064
0.0105455
0.0110507
0.010845
0.0114741
0.0150957
0.0144327
0.0138008
0.0135504
0.0138502
0.015012
0.0169654
0.0185587
0.0178208
0.0141929
0.0116031
0.0108075
0.010758
0.0110757
0.0116547
0.0122615
0.0127818
0.0132627
0.013763
0.0145591
0.0156253
0.0156207
0.0150254
0.0594101
0.175365
0.00979929
0.0356413
0.0345192
0.0133113
0.0106874
0.0100392
0.0109524
0.0113799
0.0110666
0.0116753
0.0138141
0.0129531
0.0125747
0.0123907
0.0122992
0.0126513
0.0137746
0.0151928
0.0153216
0.0128655
0.0108211
0.0100709
0.00995084
0.0102041
0.0107873
0.0114712
0.0120917
0.0126336
0.0131482
0.0139335
0.0150432
0.0150593
0.0148343
0.0580183
0.174518
0.00974597
0.0360004
0.0319079
0.0128433
0.0108481
0.010096
0.0113477
0.0116233
0.0112538
0.0118492
0.0127314
0.0117048
0.0115841
0.0115868
0.0112291
0.0108292
0.0110219
0.0119459
0.012603
0.0112905
0.00985653
0.00917674
0.0089797
0.00913981
0.00968974
0.0104365
0.011179
0.0118131
0.012358
0.0131268
0.0142829
0.0143371
0.0145153
0.0561926
0.173367
0.00967615
0.0360488
0.0290876
0.0123275
0.0109234
0.0100886
0.0116136
0.0117091
0.0113142
0.0118707
0.0118198
0.0107008
0.010829
0.0110418
0.0105354
0.00955598
0.00893548
0.00924957
0.0100803
0.0096683
0.00878861
0.00819017
0.00792131
0.00796835
0.00843696
0.00920325
0.010067
0.0108225
0.0114193
0.012168
0.0133651
0.0134769
0.0140322
0.0539127
0.171924
0.00959042
0.0357024
0.0261865
0.0117289
0.0108864
0.0099891
0.0116994
0.011618
0.011208
0.0116768
0.0109714
0.00982357
0.010147
0.0105119
0.00994861
0.0086019
0.00738851
0.00714313
0.00790526
0.00810695
0.00767686
0.00716772
0.00684563
0.00677753
0.0071226
0.00784365
0.00879592
0.0096898
0.0103636
0.0110919
0.0123173
0.0125056
0.0133645
0.0511855
0.170207
0.00948687
0.0348954
0.0233363
0.011075
0.0107642
0.00981593
0.0116143
0.0113706
0.0109432
0.0112709
0.0101133
0.00897818
0.00941141
0.00984125
0.00928166
0.00776051
0.0061861
0.00551164
0.00607569
0.00664608
0.00656305
0.00615366
0.00580823
0.00564343
0.00584412
0.00645256
0.00742774
0.00845224
0.00922541
0.00993753
0.0111725
0.0114531
0.0125092
0.0480464
0.168237
0.00936733
0.0336118
0.0206497
0.0104227
0.0106052
0.00960879
0.0114003
0.0110079
0.0105537
0.0106979
0.00923214
0.00812991
0.00858669
0.00901067
0.00848817
0.00693922
0.00520133
0.00424896
0.00455853
0.00530196
0.0054803
0.00518263
0.00484875
0.00462173
0.00468593
0.00513452
0.00604744
0.00716022
0.00804296
0.00874624
0.00996858
0.0103514
0.0114815
0.0445592
0.166039
0.0092307
0.0318547
0.0182113
0.00983067
0.0104584
0.00941101
0.011113
0.0105794
0.0100861
0.0100201
0.00835037
0.00728499
0.00769554
0.00807476
0.00760394
0.00612704
0.00438092
0.00330081
0.00335646
0.00410702
0.00446508
0.00428484
0.00399449
0.00374655
0.00370705
0.00398432
0.00475579
0.00588051
0.00685957
0.0075602
0.00874674
0.00923403
0.0103158
0.0408136
0.163642
0.00908003
0.0296758
0.0160735
0.00934586
0.0103658
0.00926164
0.0108079
0.010134
0.00958796
0.00930129
0.00750375
0.00646749
0.00678042
0.00710295
0.00668884
0.0053466
0.00370931
0.00263771
0.00249559
0.00312223
0.00356471
0.00349118
0.00326534
0.00303415
0.00293715
0.0030683
0.00365183
0.00469463
0.00572535
0.00642189
0.00754976
0.00813471
0.00906333
0.0369209
0.161081
0.00891508
0.0271417
0.014266
0.00900153
0.0103618
0.00919322
0.0105366
0.00971734
0.00910415
0.00859845
0.00672769
0.0057049
0.00588202
0.00614641
0.00579084
0.00462016
0.00317594
0.00221977
0.00197062
0.00240686
0.00283161
0.00283262
0.00267587
0.00248702
0.00237818
0.00241301
0.00280878
0.00368774
0.00469689
0.00537362
0.00642044
0.0070868
0.0077896
0.0330074
0.1584
0.00874002
0.0243614
0.0128013
0.00881954
0.0104766
0.00923239
0.0103439
0.00936862
0.0086738
0.00795804
0.00605069
0.00502341
0.00503612
0.00523691
0.00494007
0.00396105
0.00276433
0.00198917
0.00172076
0.00197223
0.00230158
0.00233151
0.00223216
0.00209514
0.00200844
0.00200347
0.00225328
0.0029273
0.00383145
0.0044562
0.00539973
0.00612196
0.00656752
0.0292054
0.155652
0.00855535
0.0214524
0.0116828
0.00881399
0.010739
0.00940209
0.010267
0.00912095
0.00833012
0.00741572
0.00549379
0.00444414
0.00427447
0.00439539
0.00415535
0.00337526
0.00245082
0.00187971
0.00165318
0.0017673
0.00197064
0.00198873
0.00192619
0.00183678
0.00179013
0.00179316
0.00196041
0.00243976
0.00317417
0.00370519
0.00452429
0.00526887
0.00546888
0.0256438
0.152907
0.00836592
0.0185582
0.0109038
0.00899514
0.0111803
0.00972529
0.0103381
0.00900092
0.00809916
0.00699697
0.00507007
0.0039832
0.00362544
0.00364437
0.00345344
0.00286745
0.00220908
0.00183016
0.00167578
0.00170815
0.00179486
0.00177953
0.00173487
0.00168281
0.00168152
0.00172502
0.00187242
0.00220301
0.00274252
0.00314395
0.00382282
0.00455144
0.00455367
0.0224389
0.150257
0.00817267
0.015815
0.0104502
0.0093741
0.0118365
0.0102328
0.0105877
0.00903135
0.00800188
0.00671896
0.00478544
0.0036498
0.00311014
0.00300873
0.00285511
0.00244391
0.00201438
0.00179236
0.00171376
0.00171133
0.00171305
0.00166373
0.00162708
0.00160394
0.00164803
0.00175032
0.0019262
0.00216319
0.00252014
0.00277658
0.0033114
0.00398652
0.00385972
0.0196859
0.147812
0.00798033
0.013357
0.0103071
0.00997018
0.012752
0.0109683
0.0110502
0.00923597
0.00805597
0.00659366
0.0046453
0.00344849
0.00274034
0.00251081
0.00238095
0.00211022
0.00184901
0.00173658
0.00171982
0.00171474
0.00167068
0.0016017
0.00157334
0.00157659
0.0016669
0.00183657
0.00206926
0.00225856
0.00246671
0.00258651
0.00298978
0.00358127
0.0033966
0.0174508
0.145703
0.00778933
0.0112975
0.0104765
0.010816
0.0139832
0.0119945
0.0117703
0.00964597
0.00828173
0.00663177
0.00465398
0.00337912
0.00251712
0.002162
0.00204178
0.00186662
0.00170489
0.00165263
0.00167562
0.00168673
0.00163359
0.00156547
0.00155249
0.00158541
0.00172633
0.00196653
0.00226431
0.0024342
0.00253438
0.00254351
0.002842
0.0033316
0.00314785
0.015767
0.144077
0.00760307
0.0097092
0.0109961
0.0119573
0.0156024
0.0133959
0.0128074
0.0103049
0.00870505
0.00684765
0.00481934
0.0034421
0.00243462
0.00195836
0.00183002
0.00170368
0.00158245
0.00154835
0.00158888
0.00162479
0.0015902
0.00154174
0.00155338
0.00162288
0.0018222
0.00213298
0.00248791
0.00264853
0.00268041
0.00261382
0.00284197
0.00322312
0.0030816
0.0146398
0.143075
0.00742066
0.00860438
0.0119558
0.0134537
0.0176976
0.0152778
0.0142363
0.0112715
0.00936138
0.00726313
0.00515742
0.00363948
0.00248403
0.00188266
0.00172215
0.00160423
0.00148513
0.00144222
0.0014831
0.00154518
0.00154502
0.0015286
0.00157285
0.00168724
0.00195456
0.00233324
0.00272656
0.00287508
0.00287348
0.00276795
0.00296054
0.0032349
0.0031637
0.0140603
0.142825
0.00724378
0.00794252
0.0134939
0.0153843
0.0203707
0.0177601
0.0161432
0.0126171
0.0102957
0.00790895
0.0056943
0.00398173
0.00265969
0.00191236
0.00168705
0.00154714
0.00141413
0.0013534
0.00138586
0.00147029
0.00150904
0.00152954
0.00161211
0.00178009
0.00212487
0.00256517
0.00297273
0.00310061
0.00309526
0.00298421
0.00317077
0.00334429
0.00336733
0.0140218
0.143415
0.00707145
0.00765825
0.0157907
0.0178546
0.0237397
0.0209723
0.0186216
0.0144205
0.0115605
0.00882286
0.00646593
0.00448887
0.00296261
0.00202759
0.00169719
0.00151433
0.00136662
0.00129279
0.00131627
0.00141763
0.00149187
0.0015487
0.00167382
0.00190422
0.00233404
0.00282528
0.0032222
0.00332167
0.00333857
0.00324903
0.00345066
0.00353113
0.0036777
0.0145302
0.144885
0.00690537
0.00768401
0.0190469
0.0210141
0.0279482
0.0250567
0.0217722
0.0167615
0.01321
0.0100436
0.00751002
0.00519174
0.00340516
0.00221864
0.00173428
0.00149449
0.00133805
0.00126189
0.0012813
0.00139509
0.00149815
0.00158839
0.00176039
0.00206239
0.00258144
0.00310837
0.00347282
0.00354117
0.00360416
0.00355547
0.0037841
0.00378069
0.00409302
0.0156084
0.147223
0.00674534
0.00796558
0.0234581
0.0250811
0.0331838
0.0301794
0.0257065
0.0197172
0.0152942
0.0116015
0.00885215
0.00611968
0.00400632
0.0024909
0.00179396
0.00148585
0.00132581
0.00125671
0.00127789
0.0014014
0.00152729
0.00164878
0.00187363
0.00225646
0.00286435
0.00340829
0.00372424
0.00376567
0.00389743
0.00390113
0.00416085
0.0040853
0.00462364
0.0172952
0.15037
0.00659312
0.00845953
0.0291821
0.030363
0.0396867
0.0365331
0.030545
0.0233535
0.0178485
0.0135062
0.0104872
0.00728418
0.00478248
0.00286461
0.00188445
0.00149327
0.00133101
0.00127383
0.00130024
0.00143045
0.00157538
0.00172879
0.00201483
0.00248716
0.0031782
0.00371902
0.00397782
0.00400353
0.00422595
0.00428639
0.00457615
0.00444482
0.00529064
0.0196431
0.154232
0.00644962
0.00913632
0.0363096
0.0372529
0.0477316
0.0443053
0.0363906
0.0277051
0.0208763
0.0157315
0.0123651
0.00865552
0.00572236
0.00335963
0.00202482
0.0015265
0.00135806
0.00131301
0.00134404
0.00147531
0.00163742
0.00182713
0.00218519
0.00275381
0.00351705
0.00403578
0.00423669
0.00426372
0.00459769
0.00471329
0.00503027
0.00486654
0.00612448
0.0227129
0.1587
0.00631698
0.00997465
0.0448442
0.046188
0.057569
0.0535987
0.0432681
0.0327343
0.0243217
0.0182002
0.0143828
0.0101546
0.00676851
0.00396733
0.00223376
0.00159608
0.00141298
0.00137748
0.00140952
0.00153161
0.00170923
0.00194316
0.00238582
0.0030545
0.00387463
0.00435581
0.0045055
0.00455506
0.0050201
0.005185
0.00552827
0.00536457
0.00716412
0.0265684
0.163659
0.00619775
0.0109699
0.0547457
0.0575827
0.0693384
0.0643233
0.0510446
0.0382828
0.0280419
0.0207722
0.0163887
0.0116549
0.00782036
0.00463125
0.0025147
0.00171175
0.00150212
0.00147169
0.00149932
0.00159824
0.00178844
0.00207739
0.00261797
0.00338618
0.00424516
0.00467864
0.00479008
0.00488574
0.00549958
0.00570574
0.00607963
0.00595923
0.00845633
0.0312686
0.168999
0.00609509
0.0121327
0.0660125
0.0717573
0.0829755
0.0761057
0.0593636
0.0440374
0.0317911
0.0232452
0.0181961
0.0130028
0.0087568
0.00525922
0.00283893
0.00187574
0.00163066
0.00160033
0.00161782
0.00167755
0.00187504
0.00223162
0.00288269
0.00374518
0.00462428
0.00500605
0.00509698
0.00526297
0.00604153
0.00628117
0.00669817
0.00667647
0.0100553
0.0368601
0.174623
0.00601408
0.0135039
0.0787668
0.0888544
0.0981246
0.0882498
0.0676296
0.0495336
0.0352326
0.0253708
0.0196057
0.0140391
0.00945882
0.00575297
0.00315227
0.00207885
0.00180045
0.00176597
0.00176765
0.00177396
0.00197148
0.00240899
0.00318094
0.00412756
0.00500949
0.00534169
0.00543305
0.00569273
0.00665053
0.0069187
0.00740187
0.00754747
0.0120223
0.0433707
0.18045
0.00596079
0.0151516
0.0932302
0.108674
0.114042
0.0997545
0.07505
0.0541986
0.0379749
0.0268856
0.0204321
0.0146247
0.00983099
0.00603414
0.00339527
0.00229853
0.00200724
0.00196808
0.00194988
0.00189365
0.00208289
0.00261394
0.00351332
0.0045298
0.00540043
0.00569056
0.00580483
0.00617961
0.00733079
0.00762804
0.00821283
0.00860854
0.0144249
0.0508038
0.186411
0.00594609
0.0171831
0.109602
0.130408
0.129521
0.109398
0.080738
0.0574344
0.0396332
0.0275519
0.0205311
0.0146582
0.00981214
0.00605643
0.00352727
0.00250843
0.0022399
0.00220036
0.00216051
0.00204255
0.00221713
0.00285209
0.00388013
0.00494909
0.00579867
0.00605845
0.00621826
0.00672668
0.00808668
0.00842149
0.0091573
0.0099012
0.0173362
0.0591361
0.192456
0.00598322
0.0197286
0.12779
0.152399
0.142919
0.115913
0.0838646
0.0587239
0.0398991
0.0272028
0.0198255
0.0140937
0.00938421
0.00581225
0.00353501
0.00268716
0.00248296
0.00245149
0.00239165
0.00222524
0.00238469
0.00313012
0.00428122
0.00538373
0.00620755
0.00645141
0.00667812
0.00733554
0.00892335
0.00931437
0.0102658
0.0114725
0.0208338
0.0683186
0.198545
0.00609167
0.0229453
0.147149
0.172191
0.152411
0.118249
0.0838427
0.0577487
0.0386127
0.0257817
0.0183259
0.0129489
0.00857407
0.00533279
0.00343422
0.00282629
0.00272107
0.00270581
0.00262954
0.00244199
0.00259782
0.00345521
0.00471596
0.005833
0.00663155
0.00687525
0.00718789
0.00800643
0.00984725
0.0103252
0.0115735
0.0133754
0.0249984
0.0782803
0.204652
0.00628805
0.0269818
0.166327
0.187042
0.156437
0.115859
0.0804845
0.0544768
0.035808
0.0233654
0.0161405
0.0113129
0.00745645
0.00468759
0.00326073
0.00292872
0.00294288
0.00294827
0.00285977
0.00268833
0.00286905
0.00383439
0.00518298
0.00629699
0.00707591
0.00733516
0.00774937
0.00873845
0.0108667
0.011476
0.0131204
0.0156696
0.0299123
0.0889355
0.210766
0.00658505
0.0319808
0.183528
0.194762
0.154176
0.108883
0.0740738
0.049192
0.0317228
0.020162
0.013469
0.00934288
0.00615164
0.00397499
0.00305996
0.00300563
0.00314166
0.00316591
0.0030683
0.00295446
0.00320821
0.0042729
0.00567985
0.00677597
0.00754593
0.00783545
0.00836282
0.00952999
0.011992
0.0127923
0.0149522
0.0184221
0.0356587
0.100192
0.216884
0.00697682
0.0379942
0.196941
0.194366
0.145792
0.0981153
0.0653025
0.0424351
0.026754
0.0164805
0.0105834
0.00725865
0.00482088
0.00330439
0.00287341
0.00306926
0.00331432
0.00335127
0.00324757
0.00322934
0.00361925
0.00477235
0.00620244
0.00726979
0.00804663
0.00837935
0.00902701
0.0103792
0.0132363
0.0143041
0.0171212
0.0217085
0.0423208
0.111963
0.22302
0.00744499
0.0449229
0.205168
0.186207
0.132325
0.0847835
0.0551001
0.0348846
0.0213823
0.0126825
0.00779579
0.0053174
0.0036427
0.00276391
0.00273087
0.00312917
0.00345863
0.00350041
0.00339481
0.00350311
0.0040971
0.00532794
0.00674438
0.00777709
0.00858208
0.00896907
0.0097398
0.0112846
0.0146149
0.0160453
0.0196865
0.0256139
0.0499826
0.124173
0.229197
0.00795396
0.0522524
0.207249
0.171566
0.115316
0.0702307
0.0444209
0.0272174
0.016087
0.00913195
0.00541061
0.00376019
0.00276082
0.00239496
0.00264576
0.00318828
0.00357221
0.00361376
0.00351508
0.00377214
0.00462755
0.00592687
0.00729658
0.00829489
0.00915513
0.0096059
0.0104987
0.0122456
0.0161463
0.0180548
0.0227158
0.0302347
0.0587296
0.136771
0.235452
0.00846726
0.0589643
0.202583
0.152109
0.0963884
0.0556475
0.0340783
0.020009
0.0112876
0.00614655
0.00364798
0.00271615
0.00221863
0.00218987
0.00261608
0.0032435
0.00365122
0.00369239
0.00361647
0.0040389
0.00518966
0.00654765
0.00784742
0.00881838
0.00976687
0.0102905
0.0113019
0.0132637
0.0178519
0.0203767
0.0262858
0.0356802
0.0686507
0.149735
0.241835
0.00894498
0.063459
0.190812
0.129493
0.0769528
0.0419243
0.0246638
0.0136884
0.00731088
0.00394352
0.00255158
0.00214246
0.00195597
0.00211103
0.00262625
0.00328601
0.00369107
0.00373845
0.00371154
0.00431438
0.00576159
0.00716331
0.0083838
0.0093414
0.0104164
0.0110232
0.0121492
0.0143428
0.0197561
0.0230608
0.0304831
0.042074
0.0798415
0.163077
0.248405
0.0093615
0.0640721
0.171922
0.10525
0.0581294
0.0296538
0.0165617
0.00855053
0.00437476
0.00256465
0.0019746
0.00188507
0.00186773
0.00210681
0.0026536
0.00330525
0.00368592
0.00375137
0.00381215
0.00461539
0.00632634
0.00774638
0.00889327
0.00985709
0.0111005
0.0118034
0.0130428
0.0154904
0.0218872
0.0261626
0.0354047
0.0495562
0.0924066
0.176848
0.255232
0.0096768
0.0593582
0.146302
0.0808286
0.0408441
0.0192396
0.0100268
0.00478661
0.00253707
0.0018359
0.00170204
0.00178381
0.00185174
0.00212706
0.00267665
0.00329124
0.00363045
0.00372947
0.00393108
0.00496666
0.00687813
0.00827664
0.00936674
0.0103593
0.0118133
0.0126298
0.0139872
0.0167182
0.0242774
0.0297436
0.0411575
0.0582833
0.106463
0.191135
0.262389
0.00988074
0.0491409
0.11518
0.0575663
0.0258825
0.010955
0.0052251
0.00244386
0.00159091
0.00147798
0.00155567
0.00171083
0.00182454
0.0021302
0.00267752
0.00323356
0.00351784
0.00366612
0.00407519
0.005397
0.00742549
0.00874568
0.00980086
0.0108437
0.0125463
0.0134983
0.0149889
0.0180423
0.0269641
0.0338702
0.047856
0.0684287
0.122143
0.206066
0.269956
4.88219e-24
3.15038e-19
1.13966e-18
4.30006e-18
2.49148e-17
3.14284e-14
9.00588e-11
0.0385998
0.265565
0.300655
0.313861
0.297689
0.275621
0.258013
0.214873
0.190314
0.154156
0.120117
0.0754288
0.0601369
0.0302916
0.0121384
4.99583e-24
7.39247e-20
8.34496e-20
6.23253e-18
6.22216e-17
2.44757e-13
9.1943e-10
0.073489
0.314461
0.322694
0.31717
0.298068
0.274963
0.258872
0.215536
0.191198
0.155392
0.120041
0.0747427
0.0599227
0.0298678
0.0121859
5.10201e-24
2.76606e-19
8.77665e-19
8.89335e-18
1.2202e-16
9.25337e-13
9.28666e-09
0.115232
0.358188
0.340784
0.319337
0.298281
0.274447
0.259864
0.216432
0.192258
0.156857
0.120062
0.0744491
0.0593279
0.0293429
0.0123432
5.06173e-24
5.72568e-20
2.1477e-20
6.84914e-18
1.92168e-16
2.27532e-12
1.69456e-07
0.159291
0.395824
0.355366
0.321006
0.298496
0.274179
0.261058
0.217615
0.193468
0.158503
0.120189
0.0745372
0.0583852
0.028751
0.0125994
5.16567e-24
2.21308e-19
6.32275e-19
7.23155e-18
2.88213e-16
3.60924e-12
6.56144e-06
0.198788
0.427179
0.366923
0.322634
0.29884
0.274257
0.262428
0.21905
0.194811
0.160277
0.120425
0.0749734
0.0571674
0.028138
0.0129458
5.11382e-24
4.59225e-20
1.2068e-20
4.61593e-18
4.09807e-16
4.87191e-12
1.86825e-05
0.226257
0.452384
0.376004
0.3246
0.299456
0.27476
0.264055
0.220794
0.196267
0.162123
0.120764
0.0757207
0.0557336
0.0275138
0.0133996
5.22921e-24
1.78691e-19
4.73414e-19
4.63771e-18
5.80511e-16
5.06276e-12
3.45597e-05
0.238102
0.471803
0.383071
0.327115
0.300436
0.275755
0.265915
0.222813
0.197839
0.163987
0.121203
0.0767223
0.0541681
0.0269043
0.0139745
5.17002e-24
3.80397e-20
7.88097e-21
2.78027e-18
7.72313e-16
4.37696e-12
2.58513e-05
0.235369
0.485747
0.388556
0.330345
0.301889
0.27729
0.268096
0.225172
0.199529
0.165824
0.121727
0.0779272
0.0525281
0.0263072
0.0146884
5.29793e-24
1.4666e-19
3.69588e-19
2.86187e-18
9.86124e-16
2.88116e-12
2.74691e-05
0.221845
0.494495
0.392743
0.334323
0.303867
0.279397
0.27057
0.227835
0.201362
0.167606
0.122328
0.0792719
0.0508889
0.0257418
0.0155451
5.22337e-24
3.24408e-20
5.88776e-21
1.68699e-18
1.14797e-15
1.68915e-12
3.53498e-05
0.201121
0.498077
0.395845
0.339071
0.306439
0.282091
0.273417
0.230873
0.203363
0.169325
0.122987
0.080709
0.0492928
0.0251992
0.0165481
5.35773e-24
1.21933e-19
2.97414e-19
1.84247e-18
1.25244e-15
8.52627e-13
4.01909e-05
0.175565
0.496383
0.397894
0.344496
0.309623
0.285377
0.276597
0.234247
0.205576
0.170993
0.123694
0.082183
0.0477988
0.0246949
0.0176833
5.27102e-24
2.8427e-20
4.69199e-21
1.0806e-18
1.23886e-15
4.16505e-13
4.11401e-05
0.147359
0.489024
0.39884
0.350513
0.313459
0.289251
0.280177
0.238023