/*--------------------------------*- C++ -*----------------------------------*\
| =========                 |                                                 |
| \\      /  F ield         | OpenFOAM: The Open Source CFD Toolbox           |
|  \\    /   O peration     | Version:  v1912                                 |
|   \\  /    A nd           | Website:  www.openfoam.com                      |
|    \\/     M anipulation  |                                                 |
\*---------------------------------------------------------------------------*/
FoamFile
{
    version     2.0;
    format      ascii;
    class       volScalarField;
    location    "530";
    object      p;
}
// * * * * * * * * * * * * * * * * * * * * * * * * * * * * * * * * * * * * * //

dimensions      [0 2 -2 0 0 0 0];


internalField   nonuniform List<scalar> 
12441
(
9.07865
9.38354
10.2534
11.602
13.3476
15.5363
18.2655
21.6315
25.8196
30.9962
37.3586
45.114
54.6692
66.4572
81.842
101.481
129.759
165.352
223.169
286.039
376.808
438.613
9.07864
9.38353
10.2534
11.602
13.3476
15.5362
18.2654
21.6314
25.8195
30.9959
37.3582
45.1134
54.6682
66.4554
81.839
101.474
129.742
165.327
223.089
285.964
376.761
438.422
9.07862
9.38351
10.2534
11.6019
13.3475
15.5362
18.2653
21.6312
25.8192
30.9955
37.3575
45.1123
54.6663
66.4517
81.8331
101.46
129.717
165.27
222.922
285.785
376.633
438.075
9.0786
9.38349
10.2533
11.6019
13.3474
15.536
18.2651
21.6309
25.8187
30.9947
37.3564
45.1107
54.6634
66.4461
81.8243
101.439
129.683
165.183
222.745
285.51
376.4
437.536
9.07857
9.38345
10.2533
11.6018
13.3473
15.5359
18.2649
21.6305
25.8181
30.9938
37.3549
45.1084
54.6596
66.4387
81.8126
101.412
129.638
165.073
222.58
285.164
376.07
436.801
9.07853
9.38341
10.2532
11.6017
13.3472
15.5357
18.2646
21.63
25.8174
30.9926
37.3531
45.1057
54.6548
66.4294
81.7981
101.378
129.583
164.944
222.395
284.746
375.65
435.87
9.07848
9.38335
10.2532
11.6016
13.347
15.5354
18.2642
21.6294
25.8165
30.9912
37.3509
45.1024
54.6491
66.4182
81.7807
101.338
129.518
164.793
222.178
284.258
375.143
434.742
9.07843
9.38329
10.2531
11.6015
13.3468
15.5352
18.2638
21.6287
25.8154
30.9896
37.3483
45.0985
54.6424
66.4052
81.7606
101.291
129.446
164.621
221.941
283.713
374.554
433.416
9.07836
9.38322
10.253
11.6014
13.3466
15.5348
18.2633
21.6279
25.8143
30.9877
37.3454
45.0941
54.6347
66.3904
81.738
101.241
129.373
164.437
221.705
283.122
373.887
431.886
9.07829
9.38313
10.2529
11.6012
13.3464
15.5345
18.2628
21.627
25.8129
30.9856
37.3421
45.0891
54.6261
66.3739
81.7144
101.19
129.305
164.252
221.495
282.495
373.142
430.148
9.07821
9.38304
10.2528
11.601
13.3461
15.5341
18.2622
21.626
25.8114
30.9832
37.3384
45.0836
54.6165
66.356
81.6913
101.146
129.263
164.088
221.345
281.843
372.316
428.194
9.07813
9.38294
10.2526
11.6008
13.3458
15.5336
18.2615
21.6249
25.8098
30.9807
37.3343
45.0775
54.6061
66.3377
81.673
101.122
129.282
163.987
221.287
281.169
371.403
426.014
9.07803
9.38284
10.2525
11.6006
13.3455
15.5332
18.2608
21.6237
25.808
30.9778
37.3299
45.0709
54.595
66.3217
81.6712
101.146
129.419
163.999
221.33
280.465
370.395
423.597
9.07793
9.38272
10.2523
11.6004
13.3452
15.5326
18.26
21.6224
25.8061
30.9748
37.3252
45.0638
54.5841
66.3139
81.7057
101.255
129.727
164.17
221.445
279.715
369.281
420.929
9.07782
9.38259
10.2522
11.6001
13.3448
15.5321
18.2592
21.621
25.804
30.9715
37.32
45.0561
54.5751
66.3254
81.7996
101.477
130.232
164.504
221.566
278.891
368.053
417.998
9.0777
9.38246
10.252
11.5999
13.3444
15.5315
18.2582
21.6195
25.8017
30.968
37.3145
45.048
54.5718
66.3702
81.9715
101.824
130.91
164.941
221.615
277.968
366.701
414.789
9.07757
9.38231
10.2518
11.5996
13.344
15.5308
18.2573
21.6179
25.7994
30.9642
37.3086
45.0403
54.5811
66.4606
82.2264
102.281
131.679
165.372
221.532
276.928
365.218
411.288
9.07744
9.38216
10.2516
11.5993
13.3435
15.5302
18.2563
21.6162
25.7968
30.9602
37.3022
45.0343
54.6119
66.6015
82.5537
102.806
132.412
165.675
221.284
275.757
363.598
407.479
9.07729
9.38199
10.2514
11.599
13.343
15.5294
18.2552
21.6144
25.7942
30.9559
37.2954
45.0326
54.6714
66.789
82.9273
103.335
132.976
165.769
220.876
274.455
361.838
403.348
9.07714
9.38182
10.2512
11.5986
13.3425
15.5287
18.254
21.6125
25.7913
30.9514
37.2883
45.0396
54.7624
67.01
83.3104
103.794
133.267
165.638
220.331
273.024
359.935
398.878
9.07698
9.38164
10.2509
11.5983
13.342
15.5279
18.2528
21.6105
25.7884
30.9467
37.2812
45.0605
54.8809
67.2473
83.6611
104.12
133.253
165.325
219.681
271.471
357.887
394.053
9.07682
9.38145
10.2507
11.5979
13.3414
15.5271
18.2515
21.6084
25.7852
30.9416
37.2745
45.0993
55.0189
67.4806
83.9422
104.276
132.97
164.898
218.954
269.804
355.696
388.856
9.07664
9.38125
10.2504
11.5975
13.3409
15.5262
18.2502
21.6062
25.7819
30.9363
37.2696
45.1566
55.1649
67.6922
84.1273
104.259
132.506
164.42
218.171
268.031
353.363
383.269
9.07646
9.38104
10.2501
11.5971
13.3403
15.5253
18.2488
21.6039
25.7785
30.9307
37.2683
45.2295
55.3096
67.8657
84.2085
104.096
131.963
163.925
217.341
266.163
350.888
377.275
9.07627
9.38083
10.2498
11.5967
13.3396
15.5243
18.2474
21.6015
25.7749
30.9248
37.2733
45.3128
55.4428
67.9923
84.194
103.835
131.416
163.428
216.469
264.208
348.276
370.852
9.07607
9.3806
10.2495
11.5962
13.339
15.5233
18.2459
21.599
25.7711
30.9187
37.2867
45.4006
55.5593
68.0679
84.1049
103.524
130.91
162.925
215.557
262.176
345.529
363.98
9.07587
9.38037
10.2492
11.5958
13.3383
15.5223
18.2443
21.5964
25.7672
30.9124
37.3096
45.4872
55.6533
68.0967
83.9659
103.202
130.454
162.409
214.604
260.077
342.649
356.636
9.07565
9.38012
10.2489
11.5953
13.3376
15.5212
18.2427
21.5937
25.7631
30.9061
37.3415
45.5684
55.7242
68.0851
83.8008
102.891
130.042
161.874
213.609
257.919
339.637
348.795
9.07543
9.37987
10.2486
11.5948
13.3368
15.5201
18.241
21.5909
25.7589
30.9002
37.3803
45.641
55.7705
68.0437
83.6267
102.603
129.661
161.317
212.572
255.708
336.493
340.431
9.0752
9.37961
10.2482
11.5943
13.336
15.5189
18.2392
21.588
25.7544
30.8947
37.4233
45.703
55.7955
67.9809
83.4551
102.338
129.297
160.736
211.492
253.45
333.216
331.516
9.07496
9.37934
10.2479
11.5938
13.3352
15.5177
18.2374
21.585
25.7498
30.8899
37.4682
45.7532
55.8003
67.9058
83.291
102.092
128.941
160.132
210.369
251.146
329.801
322.019
9.07472
9.37906
10.2475
11.5932
13.3344
15.5165
18.2355
21.5819
25.745
30.8864
37.5133
45.7915
55.7901
67.8232
83.1364
101.859
128.586
159.507
209.203
248.797
326.24
311.906
9.07447
9.37877
10.2471
11.5927
13.3336
15.5152
18.2336
21.5787
25.7401
30.8848
37.5569
45.818
55.7666
67.7384
82.9904
101.637
128.23
158.86
207.995
246.403
322.526
301.143
9.0742
9.37847
10.2467
11.5921
13.3327
15.5139
18.2316
21.5754
25.7349
30.8859
37.5979
45.8337
55.7346
67.6527
82.8521
101.42
127.868
158.195
206.745
243.962
318.646
289.691
9.07394
9.37816
10.2463
11.5915
13.3318
15.5125
18.2295
21.5719
25.7296
30.8902
37.6355
45.8397
55.6952
67.5687
82.7191
101.206
127.502
157.513
205.453
241.475
314.59
277.512
9.07366
9.37785
10.2459
11.5909
13.3309
15.5111
18.2274
21.5684
25.7242
30.8988
37.6693
45.8375
55.6521
67.4858
82.5905
100.992
127.13
156.815
204.12
238.942
310.346
264.564
9.07337
9.37752
10.2455
11.5902
13.3299
15.5097
18.2253
21.5648
25.7186
30.9131
37.6996
45.8285
55.6053
67.4055
82.4643
100.779
126.752
156.102
202.747
236.367
305.901
250.802
9.07308
9.37719
10.245
11.5896
13.3289
15.5082
18.223
21.561
25.7134
30.9357
37.7267
45.8142
55.5578
67.3266
82.3402
100.564
126.368
155.376
201.335
233.754
301.245
236.18
9.07278
9.37685
10.2446
11.5889
13.3279
15.5067
18.2207
21.5571
25.7103
30.968
37.7511
45.7958
55.5086
67.2503
82.217
100.347
125.981
154.637
199.886
231.108
296.372
220.648
9.07247
9.37649
10.2441
11.5882
13.3269
15.5051
18.2184
21.5531
25.7143
31.011
37.7733
45.7744
55.4601
67.1756
82.0948
100.129
125.589
153.886
198.404
228.434
291.275
204.155
9.07215
9.37613
10.2436
11.5875
13.3258
15.5035
18.216
21.549
25.7331
31.065
37.7932
45.7512
55.4108
67.1038
81.9729
99.9107
125.193
153.124
196.891
225.739
285.952
186.644
9.07183
9.37576
10.2431
11.5868
13.3248
15.5019
18.2135
21.545
25.7743
31.1291
37.8106
45.7269
55.3625
67.0338
81.8518
99.6907
124.795
152.351
195.352
223.022
280.402
168.07
9.0715
9.37538
10.2426
11.586
13.3236
15.5002
18.2109
21.5424
25.8424
31.2016
37.8251
45.7026
55.3131
66.9671
81.7313
99.471
124.395
151.566
193.793
220.282
274.599
148.344
9.07116
9.375
10.2421
11.5853
13.3225
15.4985
18.2082
21.5462
25.9366
31.2793
37.8363
45.6788
55.2646
66.9032
81.6123
99.2514
123.993
150.765
192.22
217.507
268.463
126.721
-19.6718
-21.0786
-19.2661
-20.7245
-17.8384
-17.499
-15.2796
-14.5731
-12.5079
-11.0177
-8.78518
-8.04442
-9.27672
-11.5284
-8.42865
0.262598
8.10423
10.5141
9.17382
8.88272
9.35193
11.1231
11.0168
9.12536
7.67589
6.31638
5.28869
4.49058
3.7253
2.08335
0.219983
-0.197597
-3.62501
-3.94516
-0.69212
-19.6701
-21.0599
-19.2894
-20.7278
-17.8396
-17.4975
-15.28
-14.5728
-12.5081
-11.0174
-8.78651
-8.04512
-9.27486
-11.5237
-8.42335
0.268049
8.11079
10.5213
9.17838
8.88591
9.35479
11.1254
11.0194
9.12814
7.67841
6.31846
5.29034
4.4919
3.72645
2.08443
0.220238
-0.195276
-3.62511
-3.94604
-0.710354
-19.6666
-21.0425
-19.3228
-20.7341
-17.841
-17.4965
-15.2804
-14.5728
-12.5081
-11.0168
-8.78802
-8.04479
-9.27195
-11.5185
-8.41591
0.280193
8.12897
10.5431
9.19549
8.89555
9.36079
11.1305
11.0244
9.13297
7.68265
6.32196
5.29317
4.49428
3.72861
2.08637
0.221015
-0.192131
-3.62499
-3.94394
-0.728321
-19.6617
-21.0329
-19.3655
-20.7421
-17.8434
-17.4961
-15.2808
-14.5729
-12.5082
-11.0163
-8.78986
-8.04422
-9.26901
-11.5136
-8.40798
0.29564
8.15414
10.5757
9.22411
8.91202
9.37019
11.1383
11.0319
9.1401
7.68897
6.32721
5.29741
4.49783
3.73183
2.08933
0.222504
-0.188778
-3.62363
-3.93249
-0.743547
-19.6556
-21.0352
-19.4149
-20.7509
-17.8463
-17.4957
-15.2808
-14.5729
-12.5084
-11.0158
-8.79165
-8.04322
-9.26662
-11.5107
-8.40289
0.308712
8.17778
10.6082
9.25519
8.93125
9.38165
11.1481
11.0413
9.14907
7.69708
6.33408
5.30296
4.50244
3.73597
2.09321
0.224688
-0.185172
-3.61999
-3.91278
-0.755472
-19.6484
-21.0536
-19.4683
-20.7602
-17.849
-17.4947
-15.2803
-14.5731
-12.5086
-11.0156
-8.79321
-8.0418
-9.26481
-11.5097
-8.40098
0.31785
8.19654
10.6352
9.28305
8.95026
9.39396
11.1587
11.0517
9.15912
7.70645
6.3423
5.30968
4.50794
3.74086
2.09785
0.227492
-0.181287
-3.61352
-3.88559
-0.764245
-19.64
-21.0921
-19.5233
-20.7696
-17.8511
-17.493
-15.279
-14.5732
-12.509
-11.0158
-8.7946
-8.03991
-9.26332
-11.5101
-8.401
0.324037
8.21085
10.6562
9.30611
8.96772
9.40628
11.1695
11.0621
9.16938
7.71641
6.35142
5.31732
4.51416
3.7463
2.10306
0.230814
-0.17715
-3.60404
-3.8512
-0.770033
-19.6307
-21.1533
-19.5775
-20.7788
-17.8527
-17.4907
-15.2772
-14.5735
-12.5095
-11.0162
-8.79588
-8.03774
-9.26207
-11.5111
-8.40148
0.328827
8.22204
10.6724
9.32472
8.98337
9.41816
11.1797
11.0718
9.17899
7.72612
6.36083
5.32555
4.5209
3.7521
2.10863
0.234538
-0.172814
-3.59161
-3.81011
-0.772895
-19.6207
-21.2385
-19.6288
-20.7876
-17.8538
-17.4881
-15.275
-14.574
-12.5103
-11.0169
-8.79708
-8.03532
-9.26115
-11.5126
-8.40183
0.333167
8.23112
10.685
9.33966
8.99725
9.42923
11.1889
11.0801
9.18717
7.73476
6.36979
5.33388
4.5279
3.75807
2.11434
0.23852
-0.16834
-3.57645
-3.7633
-0.772841
-19.6102
-21.3477
-19.6757
-20.7957
-17.8547
-17.4857
-15.2727
-14.5748
-12.5113
-11.0181
-8.79818
-8.03285
-9.26071
-11.5146
-8.40196
0.337339
8.23834
10.6944
9.35138
9.00934
9.43915
11.1965
11.0866
9.19336
7.7416
6.37754
5.34173
4.53484
3.76398
2.11997
0.242597
-0.163791
-3.55902
-3.71215
-0.769799
-19.5994
-21.4793
-19.7171
-20.8033
-17.8555
-17.4836
-15.2708
-14.5759
-12.5126
-11.0196
-8.79921
-8.03033
-9.26078
-11.5173
-8.40225
0.341104
8.24362
10.7006
9.36001
9.01935
9.44748
11.2023
11.0909
9.19723
7.74618
6.38343
5.34849
4.54134
3.76962
2.12529
0.246588
-0.159233
-3.53991
-3.65834
-0.763641
-19.5887
-21.6302
-19.7525
-20.8103
-17.8563
-17.4823
-15.2693
-14.5774
-12.5143
-11.0217
-8.80021
-8.0279
-9.26139
-11.5206
-8.40286
0.344166
8.24671
10.7037
9.36554
9.02685
9.45376
11.206
11.0929
9.19874
7.74837
6.38714
5.35368
4.547
3.77474
2.13011
0.250306
-0.154735
-3.51988
-3.60375
-0.754108
-19.5783
-21.7957
-19.7818
-20.8169
-17.8573
-17.4819
-15.2687
-14.5795
-12.5166
-11.0243
-8.8013
-8.02556
-9.26248
-11.5245
-8.40392
0.346272
8.24765
10.7041
9.36816
9.03156
9.45764
11.2072
11.0926
9.19807
7.74835
6.38867
5.35705
4.55148
3.7791
2.13422
0.253562
-0.150365
-3.49968
-3.55029
-0.740836
-19.5686
-21.9697
-19.8054
-20.8233
-17.8587
-17.4826
-15.2692
-14.5824
-12.5195
-11.0276
-8.8026
-8.02349
-9.26403
-11.5285
-8.40522
0.347428
8.24672
10.7023
9.3683
9.03361
9.45912
11.2061
11.0902
9.19559
7.74653
6.38835
5.35867
4.55456
3.78249
2.13748
0.256189
-0.146185
-3.48001
-3.49985
-0.723292
-19.5597
-22.1449
-19.8238
-20.8297
-17.8605
-17.4846
-15.271
-14.5862
-12.5232
-11.0316
-8.80429
-8.02174
-9.26596
-11.5327
-8.40664
0.347705
8.24443
10.6989
9.3666
9.03347
9.4585
11.203
11.086
9.19166
7.74341
6.38665
5.35883
4.55627
3.78478
2.13978
0.258053
-0.142248
-3.46132
-3.4541
-0.700843
-19.5521
-22.3139
-19.838
-20.8361
-17.8631
-17.488
-15.2743
-14.591
-12.5278
-11.0367
-8.80658
-8.02056
-9.26829
-11.5365
-8.40794
0.347283
8.24122
10.6948
9.3637
9.03187
9.45638
11.1981
11.0801
9.18656
7.73941
6.38411
5.35799
4.55683
3.78598
2.14112
0.259085
-0.138588
-3.44381
-3.41444
-0.672777
-19.5457
-22.4696
-19.8489
-20.8427
-17.8667
-17.4932
-15.2793
-14.5972
-12.5337
-11.0428
-8.80969
-8.02007
-9.27097
-11.5399
-8.4091
0.346243
8.23749
10.6904
9.36018
9.02948
9.4534
11.1919
11.0728
9.18043
7.73477
6.38111
5.35655
4.55655
3.78626
2.14157
0.259294
-0.135205
-3.42734
-3.38189
-0.638518
-19.5408
-22.607
-19.8573
-20.8494
-17.8715
-17.5003
-15.2865
-14.605
-12.5411
-11.0503
-8.81386
-8.02052
-9.27405
-11.5428
-8.41005
0.3447
8.23331
10.6856
9.35627
9.02687
9.45011
11.1846
11.0642
9.17334
7.7296
6.37786
5.35483
4.55575
3.78584
2.14129
0.258773
-0.132059
-3.41157
-3.35696
-0.597814
-19.5373
-22.7237
-19.8642
-20.8567
-17.8778
-17.5098
-15.2961
-14.615
-12.5503
-11.0593
-8.81936
-8.02201
-9.27761
-11.5452
-8.41085
0.342675
8.22865
10.6804
9.35203
9.02433
9.44682
11.1765
11.0543
9.1653
7.72389
6.37443
5.35297
4.55464
3.78497
2.14046
0.257656
-0.129072
-3.39605
-3.3395
-0.55101
-19.5348
-22.8209
-19.8701
-20.8649
-17.8858
-17.5221
-15.3089
-14.6277
-12.5618
-11.0703
-8.82653
-8.02476
-9.28184
-11.5472
-8.41132
0.340275
8.22312
10.6741
9.3472
9.02196
9.44367
11.1675
11.0432
9.15633
7.71766
6.37082
5.35102
4.55338
3.78383
2.13925
0.256081
-0.12615
-3.38043
-3.32868
-0.499087
-19.5331
-22.9028
-19.8759
-20.8749
-17.8954
-17.5375
-15.3254
-14.644
-12.5764
-11.0838
-8.83579
-8.02887
-9.28702
-11.5491
-8.41142
0.337562
8.2164
10.6662
9.3415
9.01961
9.44057
11.1577
11.0308
9.14646
7.71092
6.36699
5.34896
4.55205
3.78253
2.13778
0.254165
-0.123211
-3.36449
-3.32327
-0.443577
-19.5316
-22.9734
-19.8833
-20.8877
-17.9069
-17.5567
-15.3464
-14.6648
-12.5949
-11.1004
-8.84775
-8.0347
-9.29364
-11.5512
-8.41094
0.334696
8.20807
10.6561
9.33458
9.01713
9.43744
11.1469
11.0172
9.13571
7.70371
6.36293
5.34676
4.55068
3.78115
2.13614
0.251995
-0.120194
-3.34818
-3.32192
-0.386192
-19.53
-23.0365
-19.8945
-20.9048
-17.9204
-17.5803
-15.373
-14.6913
-12.6182
-11.1208
-8.86295
-8.04249
-9.30236
-11.5542
-8.40999
0.331708
8.19792
10.6435
9.32625
9.01431
9.43414
11.1351
11.0022
9.12416
7.69609
6.35862
5.34442
4.5493
3.77972
2.13439
0.249631
-0.117059
-3.3315
-3.32347
-0.328531
-19.5279
-23.0952
-19.9115
-20.928
-17.9363
-17.6089
-15.4062
-14.7248
-12.6474
-11.1458
-8.88189
-8.05268
-9.31401
-11.5591
-8.40873
0.328568
8.18568
10.6281
9.31632
9.01102
9.43061
11.1223
10.986
9.11188
7.68814
6.35407
5.34193
4.54792
3.77824
2.13255
0.247121
-0.113776
-3.31456
-3.32701
-0.271762
-19.5249
-23.1521
-19.9349
-20.9593
-17.9552
-17.6436
-15.4473
-14.7666
-12.6835
-11.176
-8.90457
-8.06518
-9.3294
-11.5674
-8.40806
0.324925
8.17123
10.6099
9.30476
9.00718
9.4268
11.1084
10.9685
9.09895
7.6799
6.34931
5.33931
4.54653
3.77669
2.13063
0.244499
-0.11033
-3.29743
-3.33179
-0.216595
-19.5207
-23.2093
-19.964
-21.0008
-17.978
-17.6854
-15.4975
-14.8177
-12.7274
-11.2116
-8.93053
-8.07971
-9.34891
-11.5804
-8.40903
0.320245
8.15423
10.5888
9.29148
9.00279
9.42275
11.0935
10.9499
9.08547
7.67144
6.34437
5.33659
4.54513
3.77503
2.12863
0.241796
-0.106719
-3.28025
-3.33727
-0.163253
-19.5151
-23.2689
-19.9963
-21.054
-18.0056
-17.7351
-15.5579
-14.8787
-12.7794
-11.2522
-8.9584
-8.0949
-9.37222
-11.5996
-8.41317
0.313667
8.13445
10.5647
9.27651
8.99785
9.41847
11.0776
10.9303
9.07153
7.6628
6.33928
5.33381
4.5437
3.77327
2.12654
0.239039
-0.102958
-3.26311
-3.34296
-0.111659
-19.5078
-23.3325
-20.0289
-21.1197
-18.0385
-17.7929
-15.6284
-14.9493
-12.8388
-11.2967
-8.98631
-8.10925
-9.39813
-11.6247
-8.42121
0.304431
8.11146
10.5377
9.25979
8.9924
9.41405
11.0607
10.9097
9.05723
7.65404
6.33409
5.33099
4.54222
3.77134
2.12436
0.236257
-0.0990716
-3.24616
-3.34847
-0.0614898
-19.4987
-23.4022
-20.0592
-21.1974
-18.0771
-17.8577
-15.7076
-15.0273
-12.9036
-11.3428
-9.01156
-8.12033
-9.42495
-11.6543
-8.43315
0.291967
8.08504
10.5077
9.24136
8.98638
9.40948
11.043
10.8882
9.04263
7.64519
6.32885
5.32817
4.54067
3.76922
2.12208
0.233479
-0.0951019
-3.22951
-3.35346
-0.0123633
-19.4875
-23.4807
-20.0867
-21.2855
-18.1212
-17.9273
-15.7921
-15.1087
-12.9703
-11.3874
-9.03143
-8.12625
-9.45067
-11.6853
-8.44723
0.276466
8.05503
10.4747
9.22113
8.97976
9.40475
11.0244
10.866
9.02783
7.6363
6.32361
5.32535
4.53901
3.76688
2.11972
0.230737
-0.0910924
-3.21332
-3.35769
0.0361652
-19.4738
-23.5717
-20.1126
-21.3805
-18.1697
-17.9977
-15.8767
-15.1879
-13.0342
-11.4266
-9.0429
-8.12484
-9.4735
-11.7144
-8.46132
0.258626
8.02173
10.439
9.1992
8.97234
9.39968
11.0049
10.8431
9.01287
7.62743
6.31842
5.32256
4.53722
3.7643
2.11727
0.228059
-0.0870981
-3.19776
-3.36094
0.084479
-19.4573
-23.6811
-20.1392
-21.4767
-18.2207
-18.0638
-15.9544
-15.2581
-13.0897
-11.4565
-9.04377
-8.11528
-9.4918
-11.7381
-8.47275
0.239789
7.98556
10.4007
9.17558
8.96399
9.39409
10.9846
10.8196
8.99782
7.61861
6.31333
5.3198
4.53525
3.76142
2.11474
0.225478
-0.0831689
-3.183
-3.36306
0.132956
-19.4377
-23.817
-20.1679
-21.5654
-18.2712
-18.1194
-16.018
-15.3122
-13.1315
-11.4735
-9.0323
-8.09701
-9.50432
-11.7538
-8.48004
0.221093
7.94734
10.3603
9.15054
8.95451
9.38761
10.9632
10.7956
8.98273
7.60992
6.30838
5.31706
4.53311
3.75824
2.11215
0.223022
-0.0793657
-3.16927
-3.36389
0.181878
-19.4143
-23.99
-20.1984
-21.6364
-18.3175
-18.1589
-16.0611
-15.3446
-13.1552
-11.4753
-9.0084
-8.07118
-9.51004
-11.7597
-8.48197
0.203664
7.90763
10.318
9.12426
8.94387
9.37998
10.9407
10.771
8.96766
7.60141
6.30362
5.31435
4.53072
3.75472
2.10951
0.220728
-0.0757402
-3.1568
-3.36337
0.231517
-19.3863
-24.2131
-20.2271
-21.6804
-18.3558
-18.1782
-16.0797
-15.352
-13.1587
-11.4611
-8.97318
-8.03929
-9.50857
-11.7564
-8.47862
0.187894
7.86705
10.2744
9.09715
8.93204
9.37082
10.917
10.746
8.95267
7.59314
6.2991
5.31167
4.5281
3.75085
2.10684
0.218626
-0.0723621
-3.14586
-3.36139
0.282053
-19.3529
-24.5013
-20.2488
-21.6923
-18.3838
-18.1761
-16.073
-15.3346
-13.1423
-11.4323
-8.92965
-8.00412
-9.50065
-11.7451
-8.46985
0.174145
7.82574
10.2296
9.06933
8.91919
9.36003
10.8919
10.7206
8.93783
7.58519
6.29485
5.309
4.52519
3.74657
2.10416
0.216763
-0.0692907
-3.13677
-3.35793
0.333671
-19.3125
-24.8696
-20.2571
-21.6726
-18.4005
-18.1544
-16.0437
-15.2956
-13.1086
-11.3919
-8.88189
-7.96861
-9.48882
-11.7285
-8.45635
0.16217
7.78383
10.1835
9.04105
8.90541
9.34745
10.8655
10.6948
8.92322
7.57763
6.2909
5.30634
4.52199
3.74189
2.10147
0.215182
-0.0666119
-3.12986
-3.35292
0.386485
-19.262
-25.3286
-20.2456
-21.6264
-18.407
-18.1171
-15.997
-15.2406
-13.0621
-11.3443
-8.83502
-7.9369
-9.47691
-11.7084
-8.43812
0.151917
7.74095
10.1359
9.01216
8.89095
9.33331
10.8376
10.6688
8.90893
7.57054
6.28729
5.30367
4.51845
3.73674
2.09881
0.213947
-0.0643989
-3.12552
-3.34641
0.440654
-19.1993
-25.8726
-20.2067
-21.5613
-18.4051
-18.0696
-15.9395
-15.1759
-13.008
-11.2945
-8.79434
-7.91333
-9.46844
-11.686
-8.41574
0.142671
7.69665
10.0866
8.98274
8.87593
9.3178
10.8087
10.6426
8.89502
7.56395
6.28399
5.30096
4.51459
3.73115
2.09619
0.213117
-0.0627772
-3.12417
-3.3383
0.496321
-19.1251
-26.4621
-20.1316
-21.4845
-18.3972
-18.017
-15.877
-15.1074
-12.9513
-11.2481
-8.76497
-7.9013
-9.46477
-11.6607
-8.38938
0.133595
7.64987
10.0349
8.95292
8.86086
9.30145
10.7786
10.6162
8.88148
7.55788
6.28103
5.29823
4.51039
3.72504
2.09363
0.212766
-0.0618932
-3.12631
-3.32851
0.553683
-19.0332
-27.0117
-20.0119
-21.4013
-18.3851
-17.963
-15.8142
-15.0399
-12.8968
-11.2103
-8.7497
-7.90094
-9.465
-11.6325
-8.36059
0.12271
7.59978
9.98159
8.92375
8.84617
9.28427
10.7475
10.5896
8.8682
7.55231
6.27843
5.29553
4.50595
3.71845
2.09112
0.212931
-0.0619401
-3.13226
-3.31689
0.612563
-18.8965
-27.3899
-19.84
-21.315
-18.3688
-17.9096
-15.7542
-14.9767
-12.8499
-11.185
-8.74734
-7.90946
-9.467
-11.6015
-8.33163
0.108066
7.54635
9.92819
8.89658
8.83214
9.26565
10.7147
10.5622
8.85506
7.54738
6.27644
5.29306
4.50127
3.71123
2.08857
0.21365
-0.0627654
-3.14197
-3.30434
0.671743
-18.7231
-27.4381
-19.6095
-21.2277
-18.3479
-17.8575
-15.698
-14.9217
-12.816
-11.1716
-8.75321
-7.9223
-9.46881
-11.5704
-8.30718
0.0884627
7.49275
9.8788
8.87282
8.81706
9.24275
10.679
10.534
8.84241
7.54368
6.27552
5.29097
4.49625
3.70317
2.08587
0.215052
-0.0639326
-3.15528
-3.29224
0.730015
-18.8028
-27.027
-19.3145
-21.1431
-18.3253
-17.8094
-15.6465
-14.879
-12.7965
-11.1656
-8.76324
-7.93667
-9.47072
-11.5425
-8.28883
0.0671581
7.44416
9.83617
8.85045
8.79592
9.21137
10.6396
10.5068
8.8325
7.54305
6.27634
5.28872
4.48977
3.69331
2.08335
0.218068
-0.0671429
-3.17786
-3.27578
0.79802
9.07089
9.37469
10.2417
11.5847
13.3216
15.4971
18.2061
21.5674
26.0253
31.3384
37.8404
45.6597
55.2262
66.8595
81.5227
99.0827
123.682
150.128
190.997
215.31
263.393
104.984
9.07069
9.37446
10.2414
11.5842
13.3209
15.4961
18.2045
21.5998
26.0896
31.3742
37.8383
45.6443
55.1997
66.8312
81.4609
98.9612
123.457
149.659
190.112
213.713
259.52
102.026
9.07048
9.37422
10.2411
11.5838
13.3202
15.495
18.2029
21.6397
26.1449
31.4009
37.832
45.6272
55.1715
66.8034
81.3982
98.8365
123.224
149.172
189.206
212.055
255.488
103.684
9.07026
9.37397
10.2408
11.5833
13.3195
15.4939
18.2011
21.6797
26.1902
31.42
37.8237
45.6093
55.1444
66.7732
81.3343
98.7062
122.981
148.664
188.277
210.329
251.341
103.553
9.07002
9.3737
10.2404
11.5828
13.3187
15.4927
18.1993
21.7144
26.2266
31.433
37.8149
45.5911
55.1166
66.7425
81.2686
98.571
122.726
148.134
187.32
208.534
247.07
101.739
9.06978
9.37342
10.24
11.5822
13.3179
15.4915
18.1973
21.7379
26.2545
31.4408
37.8064
45.5731
55.0906
66.7097
81.2015
98.429
122.457
147.582
186.328
206.673
242.669
99.6721
9.06952
9.37312
10.2396
11.5816
13.317
15.4901
18.1953
21.7464
26.2743
31.4445
37.799
45.5556
55.0646
66.6768
81.1323
98.2808
122.172
147.006
185.295
204.745
238.145
97.7471
9.06924
9.37281
10.2392
11.581
13.3161
15.4887
18.1931
21.7404
26.2865
31.4448
37.7928
45.539
55.0408
66.6421
81.0614
98.1251
121.868
146.405
184.216
202.753
233.501
95.8014
9.06895
9.37248
10.2388
11.5804
13.3151
15.4872
18.1907
21.7236
26.2913
31.4422
37.788
45.5233
55.0172
66.6074
80.9881
97.9626
121.546
145.778
183.083
200.696
228.743
93.7366
9.06865
9.37213
10.2383
11.5797
13.3141
15.4856
18.1883
21.6995
26.289
31.4371
37.7847
45.5088
54.9958
66.571
80.9129
97.7921
121.202
145.122
181.89
198.574
223.874
91.577
9.06833
9.37176
10.2378
11.579
13.313
15.484
18.1858
21.6704
26.2792
31.4296
37.7824
45.4954
54.9746
66.5344
80.835
97.6145
120.838
144.437
180.631
196.387
218.899
89.3575
9.06799
9.37137
10.2373
11.5782
13.3119
15.4822
18.183
21.6382
26.2616
31.4195
37.7809
45.4832
54.9552
66.4961
80.7546
97.4289
120.451
143.721
179.302
194.133
213.824
87.089
9.06763
9.37096
10.2368
11.5774
13.3107
15.4803
18.1802
21.6047
26.2353
31.4064
37.7797
45.472
54.9357
66.4572
80.6711
97.2359
120.044
142.972
177.897
191.811
208.653
84.7755
9.06725
9.37053
10.2362
11.5766
13.3094
15.4783
18.1771
21.5718
26.1995
31.3895
37.7781
45.462
54.9178
66.4162
80.5844
97.0345
119.614
142.188
176.413
189.419
203.392
82.4257
9.06684
9.37007
10.2356
11.5757
13.3081
15.4762
18.1739
21.5413
26.1536
31.3679
37.7752
45.4527
54.8994
66.3741
80.4938
96.8252
119.162
141.369
174.847
186.957
198.045
80.0517
9.06642
9.36958
10.2349
11.5747
13.3066
15.474
18.1704
21.5146
26.0972
31.3403
37.7697
45.4441
54.8822
66.3292
80.3991
96.6066
118.688
140.512
173.196
184.423
192.617
77.6667
9.06597
9.36907
10.2342
11.5737
13.3051
15.4716
18.1668
21.4923
26.0308
31.3051
37.7603
45.4357
54.8642
66.2825
80.2995
96.379
118.192
139.617
171.459
181.814
187.112
75.2845
9.06549
9.36852
10.2335
11.5727
13.3035
15.4691
18.1629
21.4747
25.9559
31.2607
37.745
45.4268
54.8471
66.2323
80.1947
96.1409
117.673
138.682
169.636
179.131
181.535
72.9191
9.06498
9.36794
10.2327
11.5715
13.3018
15.4664
18.1588
21.4611
25.8755
31.2055
37.7213
45.4165
54.829
66.1794
80.0837
95.8924
117.129
137.706
167.724
176.37
175.89
70.5833
9.06445
9.36733
10.2319
11.5703
13.3
15.4636
18.1544
21.4505
25.7936
31.1383
37.6864
45.4034
54.8112
66.1222
79.966
95.6315
116.56
136.687
165.724
173.531
170.18
68.2875
9.06388
9.36668
10.2311
11.5691
13.2981
15.4606
18.1497
21.4417
25.7145
31.0589
37.6368
45.3849
54.7916
66.0616
79.8406
95.3583
115.964
135.624
163.636
170.612
164.41
66.0389
9.06328
9.36599
10.2301
11.5677
13.2961
15.4574
18.1448
21.4337
25.6424
30.9685
37.5686
45.358
54.771
65.996
79.7069
95.0708
115.34
134.515
161.458
167.612
158.586
63.8405
9.06264
9.36526
10.2292
11.5663
13.294
15.454
18.1395
21.4258
25.5806
30.8704
37.4788
45.3177
54.746
65.9261
79.5638
94.7689
114.686
133.359
159.191
164.528
152.713
61.6905
9.06196
9.36448
10.2281
11.5648
13.2917
15.4504
18.1338
21.4177
25.5304
30.7692
37.3655
45.2577
54.7154
65.8504
79.4109
94.4505
114
132.154
156.834
161.361
146.799
59.5821
9.06123
9.36366
10.227
11.5632
13.2893
15.4466
18.1278
21.4092
25.4912
30.6705
37.23
45.17
54.6727
65.7689
79.2469
94.1154
113.281
130.897
154.388
158.107
140.851
57.5035
9.06047
9.36278
10.2259
11.5615
13.2867
15.4426
18.1215
21.4
25.4608
30.5795
37.077
45.0466
54.6114
65.6786
79.0712
93.7617
112.528
129.587
151.851
154.765
134.879
55.4385
9.05965
9.36185
10.2246
11.5597
13.284
15.4383
18.1147
21.3902
25.4363
30.4994
36.9149
44.8817
54.5185
65.5768
78.8824
93.3891
111.738
128.223
149.223
151.334
128.895
53.3673
9.05879
9.36086
10.2233
11.5577
13.2811
15.4338
18.1076
21.3797
25.4152
30.4314
36.7538
44.6752
54.3798
65.4555
78.6784
92.9956
110.911
126.802
146.506
147.811
122.908
51.2676
9.05786
9.35981
10.2219
11.5557
13.278
15.4289
18.1
21.3684
25.3953
30.3746
36.6032
44.435
54.1779
65.304
78.4551
92.5805
110.047
125.322
143.699
144.196
116.934
49.1159
9.05688
9.35869
10.2204
11.5535
13.2747
15.4238
18.0919
21.3563
25.3756
30.3265
36.4693
44.1771
53.9026
65.1031
78.2053
92.1407
109.143
123.782
140.802
140.486
110.984
46.8889
9.05584
9.3575
10.2188
11.5512
13.2712
15.4184
18.0833
21.3435
25.3552
30.2842
36.3545
43.9206
53.5546
64.8306
77.9155
91.6728
108.2
122.181
137.818
136.681
105.074
44.5649
9.05473
9.35624
10.2171
11.5487
13.2675
15.4126
18.0742
21.3298
25.3336
30.2446
36.2572
43.6825
53.1529
64.4644
77.565
91.1685
107.215
120.516
134.747
132.78
99.2183
42.1246
9.05354
9.35489
10.2153
11.5461
13.2636
15.4064
18.0645
21.3152
25.3107
30.2055
36.1732
43.4728
52.7288
63.9953
77.1255
90.6158
106.186
118.788
131.591
128.785
93.4316
39.5527
9.05228
9.35345
10.2134
11.5433
13.2594
15.3998
18.0542
21.2997
25.2862
30.1653
36.0973
43.2931
52.3176
63.4356
76.568
89.9939
105.106
116.993
128.351
124.696
87.7285
36.8387
9.05093
9.35192
10.2114
11.5403
13.2549
15.3929
18.0432
21.2831
25.2602
30.1233
36.0246
43.1386
51.9448
62.8219
75.8753
89.2763
103.966
115.131
125.032
120.516
82.1235
33.9771
9.0495
9.35029
10.2092
11.5371
13.2501
15.3854
18.0315
21.2655
25.2325
30.0789
35.9514
43.0006
51.6208
62.2024
75.0569
88.4345
102.748
113.2
121.635
116.249
76.6307
30.9685
9.04797
9.34855
10.2069
11.5337
13.245
15.3775
18.0192
21.2468
25.203
30.0317
35.8755
42.8704
51.3413
61.6198
74.1537
87.4507
101.434
111.198
118.168
111.901
71.2635
27.8196
9.04634
9.34669
10.2044
11.5301
13.2396
15.3691
18.006
21.2268
25.1716
29.9815
35.7955
42.7406
51.0929
61.0966
73.2272
86.3293
100.001
109.122
114.637
107.482
66.0355
24.5428
9.04459
9.34471
10.2017
11.5263
13.2338
15.3601
17.9919
21.2055
25.1381
29.9283
35.7109
42.6063
50.8595
60.632
72.3356
85.1052
98.4379
106.97
111.056
103.001
60.9601
21.156
9.04273
9.34259
10.1989
11.5221
13.2276
15.3506
17.977
21.1828
25.1025
29.8716
35.6211
42.4652
50.6278
60.2091
71.5126
83.8343
96.7492
104.744
107.445
98.4751
56.0515
17.6825
9.04074
9.34033
10.1959
11.5178
13.221
15.3404
17.9611
21.1586
25.0645
29.8114
35.5258
42.3158
50.3886
59.8049
70.7597
82.5735
94.9613
102.449
103.829
93.9253
51.3254
14.1498
9.03862
9.33792
10.1927
11.5131
13.214
15.3295
17.9441
21.1328
25.0241
29.7474
35.4246
42.1575
50.1371
59.3992
70.0538
81.3576
93.1158
100.097
100.241
89.3804
46.7994
10.5898
9.03635
9.33535
10.1892
11.508
13.2065
15.3179
17.9261
21.1053
24.9811
29.6792
35.317
41.9897
49.8713
58.9782
69.3631
80.1912
91.2534
97.702
96.7183
84.8773
42.4939
7.03781
9.03392
9.33259
10.1855
11.5027
13.1984
15.3055
17.9068
21.076
24.9352
29.6067
35.2028
41.8116
49.5901
58.5352
68.6593
79.0537
89.3997
95.2738
93.2904
80.4594
38.4309
3.53284
9.03132
9.32965
10.1816
11.497
13.1898
15.2923
17.8863
21.0447
24.8863
29.5296
35.0814
41.6226
49.2927
58.0677
67.924
77.9135
87.5596
92.8107
89.969
76.1722
34.6333
0.116493
9.02854
9.3265
10.1774
11.4908
13.1807
15.2782
17.8644
21.0113
24.8342
29.4475
34.9525
41.422
48.978
57.5748
67.149
76.7405
85.7197
90.3014
86.735
72.0538
31.1214
-3.16805
9.02557
9.32314
10.1729
11.4843
13.1709
15.2631
17.841
20.9756
24.7787
29.3601
34.8154
41.2091
48.6448
57.0552
66.333
75.5149
83.8545
87.7362
83.5368
68.1212
27.9086
-6.27804
9.02239
9.31954
10.1681
11.4773
13.1604
15.2471
17.8161
20.9376
24.7195
29.2672
34.6699
40.9833
48.2923
56.5075
65.4765
74.2295
81.9363