/*--------------------------------*- C++ -*----------------------------------*\
| =========                 |                                                 |
| \\      /  F ield         | OpenFOAM: The Open Source CFD Toolbox           |
|  \\    /   O peration     | Version:  v1912                                 |
|   \\  /    A nd           | Website:  www.openfoam.com                      |
|    \\/     M anipulation  |                                                 |
\*---------------------------------------------------------------------------*/
FoamFile
{
    version     2.0;
    format      ascii;
    class       surfaceScalarField;
    location    "530";
    object      phi;
}
// * * * * * * * * * * * * * * * * * * * * * * * * * * * * * * * * * * * * * //

dimensions      [0 3 -1 0 0 0 0];
oriented        oriented;


internalField   nonuniform List<scalar> 
24588
(
6.81682e-05
1.99967e-08
6.81137e-05
5.49611e-08
6.8028e-05
8.53311e-08
6.79114e-05
1.16549e-07
6.77599e-05
1.51183e-07
6.75689e-05
1.90916e-07
6.73327e-05
2.36293e-07
6.7036e-05
2.97422e-07
6.66675e-05
3.68333e-07
6.62155e-05
4.52854e-07
6.56489e-05
5.65843e-07
6.49493e-05
7.05735e-07
6.41258e-05
8.35148e-07
6.29633e-05
1.15719e-06
6.14366e-05
1.44404e-06
5.9183e-05
2.33485e-06
5.62414e-05
2.93548e-06
5.13954e-05
4.847e-06
4.46522e-05
6.74284e-06
3.34325e-05
1.12192e-05
1.98289e-05
1.36038e-05
1.98287e-05
6.81685e-05
4.04638e-08
6.81136e-05
1.10484e-07
6.80279e-05
1.70519e-07
6.79114e-05
2.32906e-07
6.77601e-05
3.02193e-07
6.7569e-05
3.81866e-07
6.73329e-05
4.72486e-07
6.70362e-05
5.95035e-07
6.6668e-05
7.36339e-07
6.62157e-05
9.06246e-07
6.56475e-05
1.1331e-06
6.49536e-05
1.40656e-06
6.41306e-05
1.67243e-06
6.29561e-05
2.32871e-06
6.14172e-05
2.89624e-06
5.92541e-05
4.5755e-06
5.62566e-05
5.92224e-06
5.13644e-05
9.74023e-06
4.46983e-05
1.34079e-05
3.33361e-05
2.25806e-05
1.9794e-05
2.7146e-05
3.96225e-05
6.81685e-05
6.09309e-08
6.81136e-05
1.65996e-07
6.80279e-05
2.55739e-07
6.79114e-05
3.493e-07
6.776e-05
4.53232e-07
6.7569e-05
5.72789e-07
6.73328e-05
7.08699e-07
6.70361e-05
8.92647e-07
6.66678e-05
1.10442e-06
6.62158e-05
1.35927e-06
6.56473e-05
1.70073e-06
6.49524e-05
2.1087e-06
6.41354e-05
2.50224e-06
6.29632e-05
3.4935e-06
6.14176e-05
4.34852e-06
5.92869e-05
6.79874e-06
5.62524e-05
8.94353e-06
5.13851e-05
1.461e-05
4.46754e-05
2.01163e-05
3.33581e-05
3.3897e-05
1.98144e-05
4.069e-05
5.94368e-05
6.81685e-05
8.14006e-08
6.81136e-05
2.2149e-07
6.80279e-05
3.40918e-07
6.79114e-05
4.6566e-07
6.77601e-05
6.04233e-07
6.75691e-05
7.63745e-07
6.73329e-05
9.44907e-07
6.70361e-05
1.19023e-06
6.66679e-05
1.47248e-06
6.62156e-05
1.81261e-06
6.56477e-05
2.26776e-06
6.49529e-05
2.81045e-06
6.41272e-05
3.34241e-06
6.29546e-05
4.66376e-06
6.14142e-05
5.80614e-06
5.93063e-05
8.98011e-06
5.62764e-05
1.19617e-05
5.13997e-05
1.94879e-05
4.46658e-05
2.68486e-05
3.33881e-05
4.51737e-05
1.98486e-05
5.42295e-05
7.92852e-05
6.81685e-05
1.01865e-07
6.81136e-05
2.76962e-07
6.80279e-05
4.26133e-07
6.79114e-05
5.82067e-07
6.776e-05
7.55272e-07
6.7569e-05
9.54657e-07
6.73328e-05
1.18114e-06
6.70361e-05
1.48782e-06
6.66678e-05
1.84054e-06
6.62157e-05
2.26563e-06
6.56472e-05
2.83546e-06
6.49515e-05
3.51326e-06
6.41328e-05
4.1731e-06
6.29618e-05
5.82629e-06
6.14147e-05
7.25995e-06
5.9314e-05
1.11736e-05
5.63007e-05
1.49619e-05
5.1402e-05
2.43894e-05
4.46846e-05
3.35646e-05
3.34348e-05
5.64227e-05
1.98975e-05
6.77671e-05
9.91825e-05
6.81685e-05
1.22336e-07
6.81136e-05
3.32422e-07
6.80279e-05
5.11293e-07
6.79115e-05
6.98422e-07
6.77601e-05
9.06252e-07
6.75691e-05
1.14561e-06
6.73329e-05
1.41735e-06
6.70362e-05
1.78537e-06
6.6668e-05
2.20858e-06
6.62156e-05
2.71901e-06
6.5648e-05
3.40219e-06
6.49532e-05
4.21499e-06
6.41244e-05
5.01635e-06
6.29532e-05
6.99623e-06
6.14131e-05
8.72241e-06
5.93136e-05
1.33432e-05
5.63161e-05
1.79477e-05
5.14136e-05
2.9293e-05
4.47164e-05
4.026e-05
3.35015e-05
6.76366e-05
1.99633e-05
8.13054e-05
0.000119146
6.81685e-05
1.42801e-07
6.81136e-05
3.87858e-07
6.80279e-05
5.96497e-07
6.79114e-05
8.14839e-07
6.776e-05
1.05727e-06
6.75691e-05
1.33649e-06
6.73329e-05
1.65359e-06
6.70361e-05
2.08292e-06
6.66679e-05
2.57658e-06
6.62158e-05
3.17207e-06
6.5647e-05
3.9701e-06
6.49511e-05
4.91773e-06
6.41316e-05
5.84697e-06
6.29614e-05
8.15595e-06
6.14131e-05
1.01794e-05
5.93066e-05
1.55392e-05
5.63309e-05
2.09126e-05
5.14361e-05
3.41908e-05
4.47657e-05
4.69295e-05
3.35959e-05
7.88058e-05
2.0049e-05
9.48526e-05
0.000139194
6.81685e-05
1.63274e-07
6.81136e-05
4.43287e-07
6.8028e-05
6.81638e-07
6.79115e-05
9.31186e-07
6.77601e-05
1.20822e-06
6.75691e-05
1.52743e-06
6.7333e-05
1.88979e-06
6.70363e-05
2.38043e-06
6.66681e-05
2.94456e-06
6.62157e-05
3.62551e-06
6.56484e-05
4.53638e-06
6.49544e-05
5.61863e-06
6.41224e-05
6.69341e-06
6.29504e-05
9.32722e-06
6.14054e-05
1.16537e-05
5.92908e-05
1.7717e-05
5.63486e-05
2.38457e-05
5.14867e-05
3.90532e-05
4.48509e-05
5.35636e-05
3.37305e-05
8.99254e-05
2.01588e-05
0.000108424
0.000159353
6.81685e-05
1.83738e-07
6.81136e-05
4.98689e-07
6.80279e-05
7.66832e-07
6.79114e-05
1.04761e-06
6.77601e-05
1.35923e-06
6.75691e-05
1.71828e-06
6.73329e-05
2.12602e-06
6.70362e-05
2.67793e-06
6.66681e-05
3.31246e-06
6.62159e-05
4.07859e-06
6.56468e-05
5.10454e-06
6.49504e-05
6.32162e-06
6.41278e-05
7.5255e-06
6.29583e-05
1.0484e-05
6.13946e-05
1.31414e-05
5.92889e-05
1.98842e-05
5.6359e-05
2.6771e-05
5.15995e-05
4.38152e-05
4.49967e-05
6.01662e-05
3.39183e-05
0.000101004
2.02974e-05
0.000122046
0.00017965
6.81685e-05
2.04212e-07
6.81136e-05
5.54089e-07
6.8028e-05
8.51959e-07
6.79115e-05
1.16394e-06
6.77602e-05
1.51015e-06
6.75692e-05
1.9092e-06
6.73331e-05
2.36221e-06
6.70364e-05
2.97539e-06
6.66683e-05
3.68034e-06
6.62157e-05
4.53218e-06
6.56491e-05
5.67013e-06
6.49574e-05
7.02023e-06
6.41157e-05
8.38057e-06
6.29367e-05
1.16607e-05
6.13795e-05
1.46575e-05
5.93085e-05
2.19865e-05
5.63774e-05
2.96974e-05
5.17788e-05
4.84133e-05
4.5208e-05
6.67359e-05
3.41645e-05
0.000112046
2.04684e-05
0.000135742
0.000200118
6.81685e-05
2.24675e-07
6.81136e-05
6.09458e-07
6.8028e-05
9.3715e-07
6.79114e-05
1.28037e-06
6.77601e-05
1.66114e-06
6.75692e-05
2.10003e-06
6.7333e-05
2.59843e-06
6.70363e-05
3.27283e-06
6.66683e-05
4.04814e-06
6.62158e-05
4.98548e-06
6.56476e-05
6.23746e-06
6.49491e-05
7.72485e-06
6.40989e-05
9.23736e-06
6.29233e-05
1.28223e-05
6.13732e-05
1.61707e-05
5.93395e-05
2.40441e-05
5.64218e-05
3.26145e-05
5.19919e-05
5.28451e-05
4.5458e-05
7.327e-05
3.44608e-05
0.000123043
2.06733e-05
0.000149529
0.000220792
6.81685e-05
2.45148e-07
6.81136e-05
6.64827e-07
6.8028e-05
1.02227e-06
6.79115e-05
1.39669e-06
6.77602e-05
1.81203e-06
6.75693e-05
2.29092e-06
6.73331e-05
2.8346e-06
6.70365e-05
3.5702e-06
6.66686e-05
4.41588e-06
6.62155e-05
5.43951e-06
6.56502e-05
6.80189e-06
6.49558e-05
8.42549e-06
6.40731e-05
1.01301e-05
6.29059e-05
1.39875e-05
6.13722e-05
1.76947e-05
5.93697e-05
2.60539e-05
5.64775e-05
3.55046e-05
5.21885e-05
5.71332e-05
4.57103e-05
7.97475e-05
3.47897e-05
0.000133964
2.09109e-05
0.000163408
0.000241702
6.81685e-05
2.65608e-07
6.81136e-05
7.20164e-07
6.8028e-05
1.10746e-06
6.79115e-05
1.51312e-06
6.77601e-05
1.963e-06
6.75692e-05
2.48171e-06
6.73331e-05
3.07081e-06
6.70365e-05
3.86751e-06
6.66686e-05
4.78351e-06
6.62152e-05
5.89374e-06
6.56492e-05
7.36695e-06
6.49502e-05
9.1298e-06
6.40454e-05
1.10362e-05
6.29001e-05
1.51248e-05
6.13747e-05
1.92056e-05
5.93937e-05
2.80426e-05
5.6528e-05
3.83709e-05
5.23441e-05
6.13184e-05
4.5943e-05
8.6149e-05
3.51337e-05
0.000144773
2.11777e-05
0.000177365
0.00026288
6.81685e-05
2.86079e-07
6.81136e-05
7.75504e-07
6.8028e-05
1.19258e-06
6.79116e-05
1.62943e-06
6.77602e-05
2.11385e-06
6.75694e-05
2.67258e-06
6.73332e-05
3.30696e-06
6.70367e-05
4.16477e-06
6.6669e-05
5.15103e-06
6.62148e-05
6.34893e-06
6.56492e-05
7.93166e-06
6.49485e-05
9.83538e-06
6.40366e-05
1.19522e-05
6.2895e-05
1.62673e-05
6.13773e-05
2.07248e-05
5.94101e-05
3.00102e-05
5.65671e-05
4.12127e-05
5.24605e-05
6.54241e-05
4.61491e-05
9.24599e-05
3.548e-05
0.000155442
2.14689e-05
0.000191376
0.000284349
6.81685e-05
3.06535e-07
6.81136e-05
8.30807e-07
6.8028e-05
1.27778e-06
6.79115e-05
1.74586e-06
6.77602e-05
2.2648e-06
6.75693e-05
2.86334e-06
6.73331e-05
3.54315e-06
6.70367e-05
4.46196e-06
6.66692e-05
5.51829e-06
6.62139e-05
6.80492e-06
6.56455e-05
8.49929e-06
6.49353e-05
1.05491e-05
6.40296e-05
1.28563e-05
6.28909e-05
1.74014e-05
6.13795e-05
2.22294e-05
5.94208e-05
3.19726e-05
5.65954e-05
4.40388e-05
5.2548e-05
6.94725e-05
4.63294e-05
9.86789e-05
3.58207e-05
0.00016595
2.17799e-05
0.000205417
0.000306129
6.81685e-05
3.27002e-07
6.81137e-05
8.86116e-07
6.8028e-05
1.36289e-06
6.79116e-05
1.86216e-06
6.77603e-05
2.41562e-06
6.75694e-05
3.05418e-06
6.73334e-05
3.77928e-06
6.70369e-05
4.75913e-06
6.66697e-05
5.88528e-06
6.62133e-05
7.2623e-06
6.56379e-05
9.07384e-06
6.49271e-05
1.12627e-05
6.4024e-05
1.37609e-05
6.28875e-05
1.85398e-05
6.13812e-05
2.37388e-05
5.94275e-05
3.39254e-05
5.66155e-05
4.685e-05
5.26157e-05
7.34716e-05
4.64877e-05
0.000104807
3.61522e-05
0.000176286
2.21065e-05
0.000219462
0.000328235
6.81685e-05
3.47453e-07
6.81137e-05
9.41386e-07
6.8028e-05
1.4481e-06
6.79115e-05
1.97858e-06
6.77602e-05
2.56655e-06
6.75694e-05
3.2449e-06
6.73332e-05
4.01545e-06
6.70369e-05
5.05623e-06
6.66699e-05
6.25204e-06
6.62126e-05
7.72031e-06
6.56256e-05
9.66004e-06
6.49222e-05
1.19674e-05
6.40186e-05
1.46626e-05
6.28854e-05
1.96703e-05
6.13825e-05
2.52368e-05
5.94317e-05
3.58786e-05
5.66297e-05
4.96526e-05
5.26703e-05
7.74318e-05
4.6628e-05
0.000110849
3.64733e-05
0.00018644
2.24455e-05
0.000233491
0.00035068
6.81685e-05
3.67916e-07
6.81137e-05
9.96664e-07
6.80281e-05
1.53322e-06
6.79116e-05
2.09487e-06
6.77604e-05
2.71734e-06
6.75695e-05
3.43571e-06
6.73335e-05
4.25157e-06
6.70372e-05
5.35324e-06
6.66702e-05
6.61881e-06
6.62128e-05
8.17855e-06
6.56143e-05
1.02579e-05
6.49191e-05
1.26634e-05
6.40148e-05
1.55681e-05
6.2884e-05
2.08031e-05
6.13837e-05
2.67401e-05
5.94342e-05
3.7827e-05
5.66399e-05
5.24461e-05
5.27164e-05
8.13546e-05
4.67544e-05
0.000116811
3.67842e-05
0.00019641
2.27946e-05
0.00024748
0.000373475
6.81685e-05
3.88361e-07
6.81137e-05
1.0519e-06
6.8028e-05
1.61845e-06
6.79115e-05
2.21129e-06
6.77603e-05
2.86825e-06
6.75694e-05
3.62637e-06
6.73333e-05
4.48771e-06
6.70371e-05
5.65014e-06
6.66701e-05
6.98557e-06
6.62125e-05
8.63682e-06
6.56074e-05
1.08624e-05
6.49158e-05
1.33551e-05
6.40121e-05
1.64705e-05
6.28832e-05
2.19297e-05
6.13848e-05
2.82346e-05
5.94358e-05
3.97779e-05
5.66478e-05
5.52347e-05
5.27575e-05
8.52456e-05
4.68706e-05
0.000122698
3.70862e-05
0.000206195
2.31524e-05
0.000261414
0.000396627
6.81685e-05
4.08818e-07
6.81137e-05
1.10715e-06
6.80281e-05
1.70357e-06
6.79117e-05
2.32756e-06
6.77604e-05
3.019e-06
6.75696e-05
3.81714e-06
6.73336e-05
4.72379e-06
6.70374e-05
5.94701e-06
6.66705e-05
7.3523e-06
6.62091e-05
9.09906e-06
6.56068e-05
1.14643e-05
6.4913e-05
1.40492e-05
6.40104e-05
1.73741e-05
6.28828e-05
2.30591e-05
6.13859e-05
2.97344e-05
5.94369e-05
4.17258e-05
5.66545e-05
5.80165e-05
5.2796e-05
8.91035e-05
4.69798e-05
0.000128514
3.73812e-05
0.000215793
2.3518e-05
0.000275277
0.000420145
6.81685e-05
4.29256e-07
6.81137e-05
1.16235e-06
6.8028e-05
1.78881e-06
6.79115e-05
2.44398e-06
6.77603e-05
3.16989e-06
6.75695e-05
4.00776e-06
6.73335e-05
4.95985e-06
6.70373e-05
6.24391e-06
6.66708e-05
7.71854e-06
6.62003e-05
9.57014e-06
6.56113e-05
1.20531e-05
6.49108e-05
1.47496e-05
6.40094e-05
1.82744e-05
6.28827e-05
2.41839e-05
6.13871e-05
3.12267e-05
5.94381e-05
4.36763e-05
5.66609e-05
6.07942e-05
5.28337e-05
9.29314e-05
4.70845e-05
0.000134264
3.76712e-05
0.000225207
2.38914e-05
0.000289057
0.000444036
6.81685e-05
4.49708e-07
6.81137e-05
1.21756e-06
6.80281e-05
1.87394e-06
6.79117e-05
2.56022e-06
6.77605e-05
3.32061e-06
6.75698e-05
4.19848e-06
6.73338e-05
5.19581e-06
6.70375e-05
6.54096e-06
6.66718e-05
8.08407e-06
6.61904e-05
1.00524e-05
6.56164e-05
1.2627e-05
6.49092e-05
1.54569e-05
6.40088e-05
1.91758e-05
6.28829e-05
2.53115e-05
6.13885e-05
3.27237e-05
5.94398e-05
4.56241e-05
5.6668e-05
6.35654e-05
5.2872e-05
9.67268e-05
4.71868e-05
0.000139948
3.79585e-05
0.000234435
2.42729e-05
0.000302743
0.000468309
6.81685e-05
4.70138e-07
6.81137e-05
1.27273e-06
6.8028e-05
1.9592e-06
6.79116e-05
2.67664e-06
6.77604e-05
3.47147e-06
6.75696e-05
4.38905e-06
6.73338e-05
5.43173e-06
6.70373e-05
6.8381e-06
6.66723e-05
8.44875e-06
6.61828e-05
1.05424e-05
6.56191e-05
1.31907e-05
6.49082e-05
1.61678e-05
6.40085e-05
2.00746e-05
6.28833e-05
2.64349e-05
6.13903e-05
3.42137e-05
5.94423e-05
4.75736e-05
5.66763e-05
6.63319e-05
5.29116e-05
0.000100492
4.72884e-05
0.000145572
3.82455e-05
0.000243478
2.46631e-05
0.000316326
0.000492972
6.81685e-05
4.90584e-07
6.81137e-05
1.32792e-06
6.80281e-05
2.04433e-06
6.79117e-05
2.79287e-06
6.77606e-05
3.62215e-06
6.75699e-05
4.57973e-06
6.73341e-05
5.66755e-06
6.70376e-05
7.13531e-06
6.66732e-05
8.81298e-06
6.61787e-05
1.10377e-05
6.56199e-05
1.37495e-05
6.49075e-05
1.68803e-05
6.40085e-05
2.09746e-05
6.28841e-05
2.75608e-05
6.13926e-05
3.57077e-05
5.9446e-05
4.95191e-05
5.66863e-05
6.90911e-05
5.29532e-05
0.000104225
4.73905e-05
0.000151134
3.85345e-05
0.000252333
2.5063e-05
0.000329797
0.000518035
6.81685e-05
5.11006e-07
6.81137e-05
1.38305e-06
6.80281e-05
2.1296e-06
6.79116e-05
2.90928e-06
6.77604e-05
3.77299e-06
6.75697e-05
4.77025e-06
6.7334e-05
5.90337e-06
6.70375e-05
7.43241e-06
6.66732e-05
9.177e-06
6.61762e-05
1.1535e-05
6.56199e-05
1.43057e-05
6.49071e-05
1.7593e-05
6.40087e-05
2.18723e-05
6.28851e-05
2.86828e-05
6.13954e-05
3.71945e-05
5.94513e-05
5.14647e-05
5.66985e-05
7.18444e-05
5.29968e-05
0.000107927
4.74939e-05
0.000156638
3.88279e-05
0.000261
2.5474e-05
0.000343151
0.000543509
6.81685e-05
5.31445e-07
6.81137e-05
1.4382e-06
6.80281e-05
2.21474e-06
6.79118e-05
3.02548e-06
6.77606e-05
3.92363e-06
6.757e-05
4.96087e-06
6.73343e-05
6.13914e-06
6.7038e-05
7.72934e-06
6.66722e-05
9.54264e-06
6.61757e-05
1.20323e-05
6.56197e-05
1.48618e-05
6.4907e-05
1.83058e-05
6.40091e-05
2.2771e-05
6.28864e-05
2.9807e-05
6.1399e-05
3.86844e-05
5.94583e-05
5.34044e-05
5.67129e-05
7.45891e-05
5.30425e-05
0.000111597
4.75993e-05
0.00016208
3.9128e-05
0.000269471
2.58975e-05
0.000356381
0.000569406
6.81685e-05
5.51859e-07
6.81137e-05
1.4933e-06
6.80281e-05
2.30002e-06
6.79116e-05
3.14189e-06
6.77605e-05
4.07445e-06
6.75699e-05
5.15129e-06
6.73341e-05
6.37496e-06
6.70382e-05
8.0259e-06
6.66665e-05
9.91402e-06
6.61784e-05
1.25203e-05
6.56196e-05
1.54206e-05
6.4907e-05
1.90183e-05
6.40097e-05
2.36676e-05
6.28881e-05
3.09269e-05
6.14033e-05
4.01664e-05
5.94669e-05
5.53422e-05
5.67298e-05
7.73266e-05
5.30904e-05
0.000115237
4.77071e-05
0.000167464
3.94367e-05
0.000277741
2.63351e-05
0.000369483
0.000595741
6.81685e-05
5.72291e-07
6.81137e-05
1.54842e-06
6.80282e-05
2.38517e-06
6.79118e-05
3.25806e-06
6.77607e-05
4.22505e-06
6.75702e-05
5.34181e-06
6.73344e-05
6.6108e-06
6.70389e-05
8.32203e-06
6.66587e-05
1.02941e-05
6.61832e-05
1.29962e-05
6.56195e-05
1.59843e-05
6.49072e-05
1.97308e-05
6.40104e-05
2.45651e-05
6.28902e-05
3.20487e-05
6.14084e-05
4.16506e-05
5.94773e-05
5.72723e-05
5.67492e-05
8.00542e-05
5.31404e-05
0.000118845
4.78175e-05
0.000172787
3.9756e-05
0.000285803
2.67882e-05
0.000382451
0.00062253
6.81685e-05
5.92698e-07
6.81137e-05
1.60349e-06
6.80281e-05
2.47046e-06
6.79117e-05
3.37445e-06
6.77606e-05
4.37587e-06
6.75701e-05
5.53211e-06
6.73342e-05
6.84671e-06
6.70392e-05
8.61763e-06
6.6652e-05
1.06811e-05
6.61867e-05
1.34612e-05
6.56196e-05
1.65513e-05
6.49074e-05
2.04429e-05
6.40114e-05
2.54604e-05
6.28926e-05
3.3166e-05
6.14142e-05
4.31261e-05
5.94893e-05
5.91987e-05
5.6771e-05
8.2773e-05
5.31926e-05
0.000122424
4.79305e-05
0.000178049
4.0087e-05
0.000293646
2.72583e-05
0.00039528
0.000649788
6.81685e-05
6.13122e-07
6.81137e-05
1.65857e-06
6.80282e-05
2.55561e-06
6.79119e-05
3.49059e-06
6.77608e-05
4.52643e-06
6.75704e-05
5.72251e-06
6.73345e-05
7.08263e-06
6.70399e-05
8.91288e-06
6.66477e-05
1.1073e-05
6.61888e-05
1.39203e-05
6.56198e-05
1.71204e-05
6.49078e-05
2.1155e-05
6.40125e-05
2.63565e-05
6.28953e-05
3.42847e-05
6.14208e-05
4.4603e-05
5.95028e-05
6.11157e-05
5.67952e-05
8.548e-05
5.32471e-05
0.000125972
4.8046e-05
0.00018325
4.04309e-05
0.000301261
2.77466e-05
0.000407964
0.000677534
6.81685e-05
6.33521e-07
6.81137e-05
1.71361e-06
6.80281e-05
2.64091e-06
6.79117e-05
3.60696e-06
6.77606e-05
4.67722e-06
6.75703e-05
5.9127e-06
6.73344e-05
7.31856e-06
6.70401e-05
9.20777e-06
6.66449e-05
1.1468e-05
6.61902e-05
1.43747e-05
6.56201e-05
1.76905e-05
6.49083e-05
2.18667e-05
6.40137e-05
2.72504e-05
6.28984e-05
3.53984e-05
6.14281e-05
4.60704e-05
5.95177e-05
6.30276e-05
5.68219e-05
8.81762e-05
5.33038e-05
0.00012949
4.81639e-05
0.00018839
4.07878e-05
0.000308637
2.8254e-05
0.000420498
0.000705788
6.81684e-05
6.53939e-07
6.81137e-05
1.76866e-06
6.80282e-05
2.72606e-06
6.79119e-05
3.72307e-06
6.77609e-05
4.82774e-06
6.75706e-05
6.10301e-06
6.73348e-05
7.55442e-06
6.70406e-05
9.50255e-06
6.66434e-05
1.1865e-05
6.61913e-05
1.48269e-05
6.56204e-05
1.82614e-05
6.49088e-05
2.25784e-05
6.40151e-05
2.81448e-05
6.29018e-05
3.65133e-05
6.14359e-05
4.75387e-05
5.95338e-05
6.49287e-05
5.6851e-05
9.08584e-05
5.3363e-05
0.000132978
4.8284e-05
0.000193469
4.11579e-05
0.000315763
2.87813e-05
0.000432875
0.000734569
6.81685e-05
6.7433e-07
6.81137e-05
1.82367e-06
6.80282e-05
2.81137e-06
6.79117e-05
3.83942e-06
6.77607e-05
4.9785e-06
6.75704e-05
6.29313e-06
6.73347e-05
7.79019e-06
6.70406e-05
9.79722e-06
6.66424e-05
1.22629e-05
6.61922e-05
1.52768e-05
6.56208e-05
1.88328e-05
6.49094e-05
2.32898e-05
6.40166e-05
2.9037e-05
6.29054e-05
3.76228e-05
6.14444e-05
4.89969e-05
5.95513e-05
6.68233e-05
5.68827e-05
9.35275e-05
5.34248e-05
0.000136436
4.84064e-05
0.000198488
4.15409e-05
0.000322629
2.93287e-05
0.000445087
0.000763898
6.81684e-05
6.94741e-07
6.81138e-05
1.87868e-06
6.80283e-05
2.89652e-06
6.7912e-05
3.9555e-06
6.7761e-05
5.12896e-06
6.75708e-05
6.48338e-06
6.73352e-05
8.02581e-06
6.7041e-05
1.00921e-05
6.66421e-05
1.26616e-05
6.61931e-05
1.57257e-05
6.56213e-05
1.94046e-05
6.49101e-05
2.40011e-05
6.40183e-05
2.99295e-05
6.29093e-05
3.87334e-05
6.14533e-05
5.04553e-05
5.95699e-05
6.87056e-05
5.69168e-05
9.61801e-05
5.34893e-05
0.000139863
4.85311e-05
0.000203445
4.19362e-05
0.000329224
2.98964e-05
0.000457127
0.000793795
6.81685e-05
7.15124e-07
6.81137e-05
1.93366e-06
6.80282e-05
2.98183e-06
6.79118e-05
4.07184e-06
6.77608e-05
5.27966e-06
6.75706e-05
6.67346e-06
6.73352e-05
8.26123e-06
6.70408e-05
1.0387e-05
6.66417e-05
1.30605e-05
6.6194e-05
1.61732e-05
6.56219e-05
1.99767e-05
6.49109e-05
2.4712e-05
6.402e-05
3.08198e-05
6.29135e-05
3.98381e-05
6.14626e-05
5.19034e-05
5.95896e-05
7.05802e-05
5.69533e-05
9.88168e-05
5.35567e-05
0.00014326
4.86585e-05
0.000208344
4.23437e-05
0.000335538
3.04846e-05
0.000468986
0.000824279
6.81684e-05
7.35529e-07
6.81138e-05
1.98865e-06
6.80283e-05
3.06698e-06
6.79121e-05
4.18788e-06
6.77612e-05
5.43005e-06
6.75709e-05
6.8637e-06
6.73358e-05
8.49642e-06
6.70407e-05
1.06827e-05
6.66417e-05
1.34593e-05
6.61948e-05
1.662e-05
6.56224e-05
2.05492e-05
6.49117e-05
2.54229e-05
6.40218e-05
3.17103e-05
6.29178e-05
4.09438e-05
6.14724e-05
5.33512e-05
5.96104e-05
7.24411e-05
5.69923e-05
0.000101434
5.36273e-05
0.000146625
4.87888e-05
0.000213182
4.27632e-05
0.000341564
3.10933e-05
0.000480656
0.000855372
6.81684e-05
7.55907e-07
6.81138e-05
2.04359e-06
6.80282e-05
3.15228e-06
6.79119e-05
4.3042e-06
6.7761e-05
5.58068e-06
6.75707e-05
7.0538e-06
6.73359e-05
8.73121e-06
6.70367e-05
1.09825e-05
6.66436e-05
1.38523e-05
6.61957e-05
1.70678e-05
6.5623e-05
2.11218e-05
6.49125e-05
2.61334e-05
6.40238e-05
3.25984e-05
6.29223e-05
4.20434e-05
6.14826e-05
5.47881e-05
5.96322e-05
7.4293e-05
5.70336e-05
0.000104034
5.37011e-05
0.000149958
4.89225e-05
0.000217961
4.31948e-05
0.000347292
3.1723e-05
0.000492128
0.000887095
6.81684e-05
7.76306e-07
6.81138e-05
2.09855e-06
6.80283e-05
3.23742e-06
6.79121e-05
4.42023e-06
6.77613e-05
5.73094e-06
6.7571e-05
7.24416e-06
6.73369e-05
8.9653e-06
6.70243e-05
1.12957e-05
6.66511e-05
1.42254e-05
6.61964e-05
1.75225e-05
6.56237e-05
2.16946e-05
6.49134e-05
2.68438e-05
6.40257e-05
3.34867e-05
6.2927e-05
4.3144e-05
6.14931e-05
5.62245e-05
5.9655e-05
7.613e-05
5.70772e-05
0.000106611
5.37786e-05
0.000153256
4.90601e-05
0.000222679
4.36391e-05
0.000352713
3.23741e-05
0.000503393
0.000919469
6.81684e-05
7.96676e-07
6.81138e-05
2.15346e-06
6.80283e-05
3.32272e-06
6.79119e-05
4.53654e-06
6.77611e-05
5.88145e-06
6.75707e-05
7.4344e-06
6.73372e-05
9.19887e-06
6.70168e-05
1.16165e-05
6.66554e-05
1.45868e-05
6.61972e-05
1.79806e-05
6.56243e-05
2.22674e-05
6.49143e-05
2.75537e-05
6.40278e-05
3.43726e-05
6.29318e-05
4.42381e-05
6.1504e-05
5.76493e-05
5.96787e-05
7.79568e-05
5.7123e-05
0.000109167
5.38599e-05
0.00015652
4.9202e-05
0.000227338
4.40964e-05
0.000357818
3.30475e-05
0.000514442
0.000952517
6.81684e-05
8.17069e-07
6.81138e-05
2.20839e-06
6.80284e-05
3.40783e-06
6.79122e-05
4.65253e-06
6.77615e-05
6.03162e-06
6.75711e-05
7.62475e-06
6.73377e-05
9.43234e-06
6.70147e-05
1.194e-05
6.66565e-05
1.4945e-05
6.61979e-05
1.84393e-05
6.5625e-05
2.28403e-05
6.49152e-05
2.82636e-05
6.40299e-05
3.52587e-05
6.29367e-05
4.53332e-05
6.15152e-05
5.90735e-05
5.97032e-05
7.97676e-05
5.71709e-05
0.000111699
5.39454e-05
0.000159745
4.93481e-05
0.000231934
4.45667e-05
0.0003626
3.37435e-05
0.000525265
0.00098626
6.81684e-05
8.37437e-07
6.81138e-05
2.26327e-06
6.80283e-05
3.49312e-06
6.7912e-05
4.76879e-06
6.77612e-05
6.18212e-06
6.75711e-05
7.81469e-06
6.73357e-05
9.66774e-06
6.70138e-05
1.22622e-05
6.66568e-05
1.53021e-05
6.61985e-05
1.88975e-05
6.56256e-05
2.34132e-05
6.49161e-05
2.8973e-05
6.4032e-05
3.61421e-05
6.29417e-05
4.64213e-05
6.15267e-05
6.0485e-05
5.97285e-05
8.15675e-05
5.72206e-05
0.000114207
5.40353e-05
0.000162931
4.94983e-05
0.000236472
4.50485e-05
0.00036705
3.44614e-05
0.000535852
0.00102072
6.81684e-05
8.57823e-07
6.81138e-05
2.31816e-06
6.80284e-05
3.57826e-06
6.79123e-05
4.8847e-06
6.77613e-05
6.3326e-06
6.75725e-05
8.00345e-06
6.73223e-05
9.918e-06
6.70169e-05
1.25678e-05
6.66568e-05
1.56622e-05
6.6199e-05
1.93554e-05
6.56262e-05
2.3986e-05
6.49171e-05
2.96822e-05
6.40341e-05
3.70259e-05
6.29468e-05
4.75106e-05
6.15384e-05
6.18964e-05
5.97544e-05
8.33502e-05
5.7272e-05
0.000116689
5.41301e-05
0.000166072
4.96521e-05
0.000240949
4.55374e-05
0.000371164
3.51984e-05
0.000546191
0.00105592
6.81684e-05
8.78183e-07
6.81138e-05
2.37299e-06
6.80283e-05
3.66357e-06
6.79122e-05
5.00081e-06
6.77609e-05
6.48363e-06
6.75732e-05
8.19098e-06
6.73128e-05
1.01784e-05
6.70189e-05
1.28617e-05
6.66568e-05
1.60242e-05
6.61995e-05
1.98126e-05
6.56268e-05
2.45587e-05
6.4918e-05
3.0391e-05
6.40362e-05
3.79068e-05
6.2952e-05
4.85926e-05
6.15504e-05
6.32944e-05
5.9781e-05
8.51213e-05
5.73248e-05
0.000119146
5.42301e-05
0.000169167
4.98093e-05
0.000245371
4.6024e-05
0.000374949
3.59465e-05
0.000556269
0.00109187
6.81684e-05
8.98513e-07
6.81138e-05
2.42782e-06
6.80284e-05
3.74868e-06
6.79125e-05
5.11655e-06
6.77612e-05
6.63431e-06
6.75739e-05
8.37826e-06
6.73104e-05
1.04418e-05
6.70189e-05
1.31532e-05
6.66568e-05
1.63864e-05
6.61998e-05
2.02697e-05
6.56273e-05
2.51312e-05
6.49188e-05
3.10995e-05
6.40382e-05
3.87882e-05
6.29572e-05
4.96757e-05
6.15626e-05
6.46921e-05
5.9808e-05
8.68746e-05
5.73787e-05
0.000121574
5.43363e-05
0.000172209
4.9969e-05
0.000249738
4.65052e-05
0.000378413
3.67854e-05
0.000565988
0.00112865
5.83437e-07
-5.83415e-07
-1.71867e-06
2.30212e-06
-2.62746e-06
9.08802e-07
-2.679e-06
5.15757e-08
-2.19821e-06
-4.80721e-07
-1.62707e-06
-5.70966e-07
-1.34117e-06
-2.85716e-07
-1.2745e-06
-6.64508e-08
-1.3019e-06
2.87701e-08
-1.35935e-06
5.93869e-08
-1.52146e-06
1.82151e-07
-1.56512e-06
1.77671e-08
-1.39657e-06
-1.74704e-07
-8.01696e-07
-5.93515e-07
2.39751e-07
-1.03479e-06
1.59312e-06
-1.3471e-06
3.23524e-06
-1.64204e-06
5.40615e-06
-2.17218e-06
8.19584e-06
-2.79584e-06
1.1507e-05
-3.30916e-06
1.50835e-05
-3.57837e-06
1.86055e-05
-3.52063e-06
2.19255e-05
-3.31805e-06
2.50582e-05
-3.13427e-06
2.80655e-05
-3.00908e-06
3.10021e-05
-2.93552e-06
3.38779e-05
-2.87396e-06
3.66848e-05
-2.8075e-06
3.94741e-05
-2.7901e-06
4.22803e-05
-2.80746e-06
4.44203e-05
-2.14342e-06
4.69503e-05
-2.52644e-06
5.63342e-05
-9.38509e-06
6.61289e-05
-9.79462e-06
-1.87448e-06
6.14709e-07
-1.19808e-06
-1.6865e-06
4.60334e-06
-2.5828e-06
1.80511e-06
-2.64084e-06
1.09698e-07
-2.15507e-06
-9.66354e-07
-1.59775e-06
-1.12796e-06
-1.31264e-06
-5.70487e-07
-1.25385e-06
-1.24803e-07
-1.28131e-06
5.87867e-08
-1.33643e-06
1.18216e-07
-1.47976e-06
3.5811e-07
-1.50636e-06
4.9159e-10
-1.35876e-06
-3.3432e-07
-8.32944e-07
-1.1168e-06
1.6793e-07
-2.0224e-06
1.5646e-06
-2.73091e-06
3.27465e-06
-3.35184e-06
5.4609e-06
-4.36104e-06
8.20702e-06
-5.55417e-06
1.14591e-05
-6.55743e-06
1.50094e-05
-7.13203e-06
1.85612e-05
-7.06973e-06
2.19151e-05
-6.66814e-06
2.50624e-05
-6.28468e-06
2.80685e-05
-6.01848e-06
3.09957e-05
-5.86073e-06
3.38604e-05
-5.73525e-06
3.66594e-05
-5.60763e-06
3.9444e-05
-5.57613e-06
4.22518e-05
-5.61784e-06
4.44285e-05
-4.32637e-06
4.68376e-05
-4.92879e-06
5.6065e-05
-1.86147e-05
6.59944e-05
-1.97239e-05
-3.88272e-06
6.47266e-07
-1.84531e-06
-1.64837e-06
6.899e-06
-2.53315e-06
2.68991e-06
-2.58005e-06
1.56672e-07
-2.09534e-06
-1.45094e-06
-1.54645e-06
-1.67654e-06
-1.26894e-06
-8.477e-07
-1.21365e-06
-1.79706e-07
-1.24051e-06
8.79758e-08
-1.29002e-06
1.71128e-07
-1.41619e-06
5.17046e-07
-1.43604e-06
-2.47805e-08
-1.33668e-06
-4.45659e-07
-8.81935e-07
-1.56876e-06
1.07538e-07
-2.99845e-06
1.56897e-06
-4.17887e-06
3.34671e-06
-5.12942e-06
5.53706e-06
-6.55413e-06
8.23009e-06
-8.25969e-06
1.14288e-05
-9.75218e-06
1.49683e-05
-1.06751e-05
1.85515e-05
-1.06503e-05
2.19428e-05
-1.00556e-05
2.51048e-05
-9.44994e-06
2.81074e-05
-9.02453e-06
3.10245e-05
-8.7757e-06
3.3877e-05
-8.58425e-06
3.66653e-05
-8.39707e-06
3.94411e-05
-8.35334e-06
4.2247e-05
-8.42624e-06
4.44568e-05
-6.54256e-06
4.67591e-05
-7.2243e-06
5.5829e-05
-2.76867e-05
6.58671e-05
-2.97619e-05
-6.01648e-06
6.84158e-07
-2.52943e-06
-1.60628e-06
9.18945e-06
-2.47334e-06
3.55699e-06
-2.50086e-06
1.84279e-07
-2.01454e-06
-1.93713e-06
-1.47593e-06
-2.21481e-06
-1.20786e-06
-1.11546e-06
-1.15601e-06
-2.31129e-07
-1.18174e-06
1.16118e-07
-1.22686e-06
2.19868e-07
-1.33737e-06
6.55952e-07
-1.35453e-06
-5.00076e-08
-1.30782e-06
-5.06052e-07
-9.22012e-07
-1.95161e-06
6.22386e-08
-3.9668e-06
1.59468e-06
-5.69418e-06
3.4456e-06
-6.97997e-06
5.64096e-06
-8.75311e-06
8.28013e-06
-1.09143e-05
1.14287e-05
-1.28962e-05
1.49624e-05
-1.42126e-05
1.85804e-05
-1.42653e-05
2.20108e-05
-1.34816e-05
2.51887e-05
-1.26315e-05
2.81874e-05
-1.2027e-05
3.10924e-05
-1.16784e-05
3.39299e-05
-1.1418e-05
3.67037e-05
-1.11722e-05
3.9467e-05
-1.11181e-05
4.2267e-05
-1.1229e-05
4.45069e-05
-8.78909e-06
4.67146e-05
-9.4247e-06
5.5624e-05
-3.65983e-05
6.57458e-05
-3.98836e-05
-8.2685e-06
7.25388e-07
-3.25478e-06
-1.56011e-06
1.1475e-05
-2.40258e-06
4.39948e-06
-2.40325e-06
1.85033e-07
-1.91341e-06
-2.42686e-06
-1.3873e-06
-2.74061e-06
-1.1306e-06
-1.37189e-06
-1.08198e-06
-2.79391e-07
-1.10636e-06
1.42627e-07
-1.14686e-06
2.63651e-07
-1.24072e-06
7.75152e-07
-1.25827e-06
-7.26864e-08
-1.26857e-06
-5.0891e-07
-9.49489e-07
-2.2674e-06
3.68641e-08
-4.93796e-06
1.64936e-06
-7.28912e-06
3.58333e-06
-8.91372e-06
5.78667e-06
-1.09605e-05
8.36886e-06
-1.35135e-05
1.14669e-05
-1.59893e-05
1.49981e-05
-1.77479e-05
1.86545e-05
-1.79186e-05
2.21272e-05
-1.69498e-05
2.53225e-05
-1.58307e-05
2.83161e-05
-1.50247e-05
3.12059e-05
-1.45657e-05
3.40243e-05
-1.42324e-05
3.6779e-05
-1.39283e-05
3.9525e-05
-1.38656e-05
4.23144e-05
-1.40213e-05
4.4581e-05
-1.10625e-05
4.67045e-05
-1.15406e-05
5.54486e-05
-4.53444e-05
6.56296e-05
-5.00645e-05
-1.06326e-05
7.70889e-07
-4.02563e-06
-1.50967e-06
1.37555e-05
-2.31978e-06
5.20961e-06
-2.28666e-06
1.52011e-07
-1.79194e-06
-2.92145e-06
-1.28089e-06
-3.25132e-06
-1.03745e-06
-1.61504e-06
-9.91773e-07
-3.24622e-07
-1.01481e-06
1.67987e-07
-1.0498e-06
3.02312e-07
-1.12475e-06
8.72374e-07
-1.14487e-06
-9.16089e-08
-1.21535e-06
-4.53854e-07
-9.59648e-07
-2.51971e-06
3.70818e-08
-5.91651e-06
1.74153e-06
-8.97132e-06
3.77366e-06
-1.09453e-05
5.99196e-06
-1.31845e-05
8.5128e-06
-1.60567e-05
1.15563e-05
-1.90269e-05
1.50854e-05
-2.12815e-05
1.87844e-05
-2.16139e-05
2.23044e-05
-2.04643e-05
2.55199e-05
-1.90511e-05
2.85065e-05
-1.80161e-05
3.13759e-05
-1.74322e-05
3.41688e-05
-1.70208e-05
3.68977e-05
-1.66588e-05
3.96203e-05
-1.65899e-05
4.23933e-05
-1.67977e-05
4.46824e-05
-1.3359e-05
4.67302e-05
-1.358e-05
5.53018e-05
-5.39183e-05
6.55178e-05
-6.02804e-05
-1.31031e-05
8.20461e-07
-4.84605e-06
-1.45457e-06
1.60306e-05
-2.22337e-06
5.97842e-06
-2.14959e-06
7.83244e-08
-1.64928e-06
-3.42165e-06
-1.15605e-06
-3.74424e-06
-9.27712e-07
-1.84313e-06
-8.84633e-07
-3.67333e-07
-9.06345e-07
1.91753e-07
-9.34653e-07
3.34019e-07
-9.87939e-07
9.43633e-07
-1.0118e-06
-1.02809e-07
-1.14405e-06
-3.36069e-07
-9.4817e-07
-2.71179e-06
6.69823e-08
-6.91503e-06
1.87839e-06
-1.07609e-05
4.03127e-06
-1.3098e-05
6.27881e-06
-1.54386e-05
8.73416e-06
-1.85375e-05
1.17149e-05
-2.20007e-05
1.52399e-05
-2.48119e-05
1.89865e-05
-2.53565e-05
2.25615e-05
-2.40336e-05
2.58023e-05
-2.22974e-05
2.87795e-05
-2.09987e-05
3.16197e-05
-2.02689e-05
3.43765e-05
-1.97726e-05
3.70696e-05
-1.93536e-05
3.97605e-05
-1.92826e-05
4.25096e-05
-1.95504e-05
4.48157e-05
-1.56729e-05
4.67943e-05
-1.55495e-05
5.51837e-05
-6.231e-05
6.541e-05
-7.05066e-05
-1.56749e-05
8.73724e-07
-5.71973e-06
-1.3943e-06
1.82986e-05
-2.1114e-06
6.69555e-06
-1.98992e-06
-4.30408e-08
-1.48409e-06
-3.92735e-06
-1.01145e-06
-4.21651e-06
-7.99955e-07
-2.05432e-06
-7.58967e-07
-4.07842e-07
-7.79147e-07
2.14311e-07
-7.9921e-07
3.58031e-07
-8.27612e-07
9.88528e-07
-8.5519e-07
-1.11261e-07
-1.0496e-06
-1.59199e-07
-9.1079e-07
-2.84663e-06
1.3006e-07
-7.93506e-06
2.06684e-06
-1.267e-05
4.37296e-06
-1.54035e-05
6.67518e-06
-1.775e-05
9.06293e-06
-2.096e-05
1.19677e-05
-2.4897e-05
1.54833e-05
-2.83334e-05
1.92836e-05
-2.91518e-05
2.29255e-05
-2.76683e-05
2.6201e-05
-2.55797e-05