/*--------------------------------*- C++ -*----------------------------------*\
| =========                 |                                                 |
| \\      /  F ield         | OpenFOAM: The Open Source CFD Toolbox           |
|  \\    /   O peration     | Version:  v1912                                 |
|   \\  /    A nd           | Website:  www.openfoam.com                      |
|    \\/     M anipulation  |                                                 |
\*---------------------------------------------------------------------------*/
FoamFile
{
    version     2.0;
    format      ascii;
    class       volVectorField;
    location    "530";
    object      U;
}
// * * * * * * * * * * * * * * * * * * * * * * * * * * * * * * * * * * * * * //

dimensions      [0 1 -1 0 0 0 0];


internalField   nonuniform List<vector> 
12441
(
(29.9988 1.71685e-05 0)
(29.9853 5.21732e-05 0)
(29.9557 9.07483e-05 0)
(29.9109 0.000139333 0)
(29.8522 0.000203122 0)
(29.7775 0.000288367 0)
(29.6848 0.000400619 0)
(29.5689 0.000567018 0)
(29.425 0.000788861 0)
(29.2445 0.00109125 0)
(29.0281 0.00153307 0)
(28.7534 0.00213661 0)
(28.4031 0.00286847 0)
(28.0035 0.00445584 0)
(27.4084 0.00620633 0)
(26.6261 0.0113279 0)
(25.5909 0.0151456 0)
(23.9167 0.0316527 0)
(21.5561 0.0530373 0)
(17.857 0.0913966 0)
(12.0738 0.121978 0)
(5.78928 0.195936 0)
(29.9988 5.09942e-05 0)
(29.9852 0.000155815 0)
(29.9557 0.000270611 0)
(29.9109 0.000415658 0)
(29.8522 0.000606275 0)
(29.7774 0.000860711 0)
(29.6848 0.00119794 0)
(29.5689 0.00169594 0)
(29.4253 0.00236017 0)
(29.2442 0.00326381 0)
(29.0281 0.00458931 0)
(28.7555 0.00641652 0)
(28.4033 0.00855419 0)
(28.0034 0.0133844 0)
(27.4029 0.018688 0)
(26.6247 0.0336442 0)
(25.5943 0.048074 0)
(23.9172 0.0908595 0)
(21.5566 0.138566 0)
(17.8555 0.264448 0)
(12.0753 0.358399 0)
(5.79329 0.585209 0)
(29.9988 8.46751e-05 0)
(29.9852 0.000259351 0)
(29.9557 0.000449729 0)
(29.9109 0.000690821 0)
(29.8522 0.00100798 0)
(29.7774 0.00143246 0)
(29.6848 0.00199319 0)
(29.5689 0.00282305 0)
(29.4253 0.00392796 0)
(29.2442 0.00543687 0)
(29.0284 0.00764672 0)
(28.7552 0.010667 0)
(28.4029 0.0142451 0)
(28.0088 0.0223358 0)
(27.4052 0.0312499 0)
(26.6262 0.055051 0)
(25.5955 0.0817335 0)
(23.9219 0.148246 0)
(21.5602 0.221577 0)
(17.8552 0.435176 0)
(12.0813 0.591313 0)
(5.80159 0.972569 0)
(29.9988 0.00011878 0)
(29.9852 0.000363648 0)
(29.9557 0.000629768 0)
(29.9109 0.00096731 0)
(29.8522 0.00141146 0)
(29.7775 0.00200615 0)
(29.6848 0.00279121 0)
(29.5689 0.00395359 0)
(29.4253 0.00550047 0)
(29.2443 0.00761353 0)
(29.0283 0.0107113 0)
(28.7557 0.0149322 0)
(28.4032 0.0199467 0)
(28.0026 0.0313016 0)
(27.4046 0.0438125 0)
(26.6267 0.0765094 0)
(25.5978 0.114636 0)
(23.9268 0.208606 0)
(21.5689 0.329315 0)
(17.8597 0.613947 0)
(12.0938 0.828191 0)
(5.81462 1.36158 0)
(29.9988 0.00015295 0)
(29.9853 0.000467832 0)
(29.9557 0.000809611 0)
(29.9109 0.00124357 0)
(29.8522 0.00181459 0)
(29.7775 0.00257929 0)
(29.6848 0.00358858 0)
(29.5689 0.00508325 0)
(29.4253 0.00707164 0)
(29.2443 0.00978898 0)
(29.0285 0.0137749 0)
(28.7551 0.0191946 0)
(28.4028 0.0256509 0)
(28.0086 0.0402646 0)
(27.4064 0.0563854 0)
(26.6279 0.0977654 0)
(25.6001 0.14706 0)
(23.9315 0.269733 0)
(21.58 0.419894 0)
(17.8702 0.788906 0)
(12.1141 1.06486 0)
(5.83268 1.75186 0)
(29.9988 0.000187119 0)
(29.9853 0.000571951 0)
(29.9557 0.000989428 0)
(29.9109 0.00151984 0)
(29.8523 0.00221771 0)
(29.7775 0.00315247 0)
(29.6849 0.00438607 0)
(29.569 0.00621296 0)
(29.4254 0.00864305 0)
(29.2444 0.011965 0)
(29.0284 0.0168369 0)
(28.7559 0.0234599 0)
(28.4038 0.0313651 0)
(28.0016 0.0492079 0)
(27.4065 0.0689579 0)
(26.6289 0.118898 0)
(25.6027 0.179198 0)
(23.9358 0.330322 0)
(21.5927 0.508917 0)
(17.8874 0.962547 0)
(12.1438 1.30123 0)
(5.85619 2.14326 0)
(29.9988 0.000221285 0)
(29.9853 0.000676033 0)
(29.9557 0.00116924 0)
(29.9109 0.00179613 0)
(29.8522 0.00262083 0)
(29.7775 0.00372563 0)
(29.6849 0.00518357 0)
(29.569 0.00734265 0)
(29.4254 0.0102142 0)
(29.2444 0.0141408 0)
(29.0286 0.0199006 0)
(28.755 0.0277221 0)
(28.4033 0.0370803 0)
(28.009 0.058142 0)
(27.408 0.0815228 0)
(26.6303 0.139921 0)
(25.606 0.210633 0)
(23.9403 0.388361 0)
(21.6104 0.600076 0)
(17.9149 1.13628 0)
(12.1855 1.53771 0)
(5.88563 2.53607 0)
(29.9988 0.000255453 0)
(29.9853 0.000780089 0)
(29.9557 0.00134904 0)
(29.9109 0.00207241 0)
(29.8523 0.00302389 0)
(29.7775 0.00429875 0)
(29.6849 0.00598104 0)
(29.5691 0.00847218 0)
(29.4255 0.0117853 0)
(29.2446 0.0163171 0)
(29.0285 0.0229619 0)
(28.7564 0.0319838 0)
(28.4052 0.0428035 0)
(28.0007 0.067036 0)
(27.4083 0.0939247 0)
(26.6313 0.160523 0)
(25.6109 0.24361 0)
(23.9459 0.448296 0)
(21.6421 0.69227 0)
(17.96 1.30951 0)
(12.2427 1.77451 0)
(5.92164 2.93077 0)
(29.9988 0.00028962 0)
(29.9853 0.000884113 0)
(29.9557 0.00152883 0)
(29.9109 0.00234869 0)
(29.8523 0.00342695 0)
(29.7775 0.00487185 0)
(29.6849 0.00677852 0)
(29.5691 0.00960171 0)
(29.4255 0.0133562 0)
(29.2446 0.0184931 0)
(29.0287 0.0260251 0)
(28.7549 0.0362452 0)
(28.4035 0.0485198 0)
(28.0093 0.076028 0)
(27.4137 0.106442 0)
(26.6338 0.181434 0)
(25.6194 0.275052 0)
(23.9586 0.507617 0)
(21.7017 0.784142 0)
(18.0314 1.48193 0)
(12.3189 2.01195 0)
(5.96485 3.32791 0)
(29.9988 0.000323788 0)
(29.9853 0.00098811 0)
(29.9558 0.0017086 0)
(29.9109 0.00262496 0)
(29.8523 0.00382995 0)
(29.7776 0.0054449 0)
(29.685 0.00757597 0)
(29.5692 0.0107311 0)
(29.4256 0.0149269 0)
(29.2448 0.0206696 0)
(29.0285 0.0290857 0)
(28.7571 0.0405012 0)
(28.4078 0.0542586 0)
(28.001 0.0847606 0)
(27.418 0.119644 0)
(26.6341 0.202671 0)
(25.6327 0.307098 0)
(23.9881 0.564978 0)
(21.7917 0.875768 0)
(18.1323 1.65392 0)
(12.417 2.25047 0)
(6.01598 3.72806 0)
(29.9988 0.000357954 0)
(29.9853 0.00109207 0)
(29.9557 0.00188836 0)
(29.9109 0.00290123 0)
(29.8523 0.00423294 0)
(29.7776 0.00601792 0)
(29.685 0.00837339 0)
(29.5691 0.0118603 0)
(29.4256 0.0164973 0)
(29.2449 0.0228468 0)
(29.0287 0.0321453 0)
(28.7557 0.0447528 0)
(28.4033 0.060077 0)
(28.0003 0.0934315 0)
(27.421 0.132172 0)
(26.6347 0.22291 0)
(25.6517 0.340012 0)
(24.0364 0.62145 0)
(21.895 0.967229 0)
(18.2555 1.82549 0)
(12.5373 2.49046 0)
(6.07571 4.1319 0)
(29.9988 0.000392121 0)
(29.9853 0.00119601 0)
(29.9558 0.00206812 0)
(29.9109 0.0031775 0)
(29.8523 0.00463587 0)
(29.7776 0.00659088 0)
(29.685 0.00917078 0)
(29.5692 0.0129894 0)
(29.4258 0.0180675 0)
(29.2451 0.0250236 0)
(29.0284 0.0352041 0)
(28.7583 0.048999 0)
(28.4095 0.065924 0)
(27.9892 0.102353 0)
(27.4191 0.145792 0)
(26.6366 0.243351 0)
(25.6703 0.372435 0)
(24.0879 0.676001 0)
(21.9907 1.05766 0)
(18.3883 1.99608 0)
(12.6781 2.73209 0)
(6.14457 4.54009 0)
(29.9988 0.000426284 0)
(29.9853 0.00129992 0)
(29.9558 0.00224788 0)
(29.9109 0.00345376 0)
(29.8523 0.00503879 0)
(29.7776 0.00716382 0)
(29.685 0.00996815 0)
(29.5692 0.0141183 0)
(29.4258 0.0196373 0)
(29.2451 0.0272044 0)
(29.0282 0.0382468 0)
(28.7584 0.0532835 0)
(28.4102 0.0717706 0)
(27.9801 0.111461 0)
(27.4163 0.159538 0)
(26.6398 0.263208 0)
(25.6848 0.404145 0)
(24.1305 0.728485 0)
(22.0695 1.14665 0)
(18.5193 2.16501 0)
(12.8355 2.97521 0)
(6.22288 4.95324 0)
(29.9988 0.000460446 0)
(29.9853 0.0014038 0)
(29.9558 0.00242764 0)
(29.9109 0.00373 0)
(29.8524 0.00544166 0)
(29.7777 0.0077367 0)
(29.6851 0.0107655 0)
(29.5693 0.015247 0)
(29.4259 0.0212066 0)
(29.2454 0.0293885 0)
(29.0277 0.0413008 0)
(28.7605 0.0575496 0)
(28.4158 0.078151 0)
(27.9712 0.120653 0)
(27.4144 0.172792 0)
(26.6429 0.282378 0)
(25.6947 0.435237 0)
(24.1617 0.779368 0)
(22.132 1.23419 0)
(18.6416 2.33182 0)
(13.005 3.2195 0)
(6.31064 5.37188 0)
(29.9988 0.000494605 0)
(29.9853 0.00150765 0)
(29.9558 0.0026074 0)
(29.9109 0.00400625 0)
(29.8523 0.00584451 0)
(29.7776 0.00830955 0)
(29.6851 0.0115628 0)
(29.5693 0.0163753 0)
(29.426 0.0227756 0)
(29.2456 0.0315756 0)
(29.0269 0.0443619 0)
(28.7608 0.0616912 0)
(28.4124 0.0845645 0)
(27.9652 0.129539 0)
(27.4133 0.185811 0)
(26.6454 0.301332 0)
(25.7009 0.466022 0)
(24.1838 0.829189 0)
(22.1817 1.32041 0)
(18.7525 2.4962 0)
(13.1825 3.46452 0)
(6.40761 5.79646 0)
(29.9988 0.000528761 0)
(29.9853 0.00161146 0)
(29.9558 0.00278717 0)
(29.911 0.00428249 0)
(29.8524 0.0062473 0)
(29.7777 0.00888233 0)
(29.6852 0.0123601 0)
(29.5694 0.0175036 0)
(29.4261 0.0243424 0)
(29.246 0.0337713 0)
(29.0261 0.0474308 0)
(28.7599 0.065969 0)
(28.4083 0.0909622 0)
(27.9614 0.138244 0)
(27.4127 0.198732 0)
(26.6472 0.32022 0)
(25.7046 0.496643 0)
(24.1994 0.878295 0)
(22.2224 1.40539 0)
(18.8519 2.65797 0)
(13.3645 3.70985 0)
(6.51333 6.22731 0)
(29.9988 0.000562912 0)
(29.9853 0.00171525 0)
(29.9558 0.00296695 0)
(29.9109 0.00455872 0)
(29.8523 0.00665007 0)
(29.7777 0.00945508 0)
(29.6851 0.0131573 0)
(29.5694 0.0186317 0)
(29.4261 0.0259087 0)
(29.2461 0.0359683 0)
(29.0254 0.0505692 0)
(28.7566 0.0703165 0)
(28.4042 0.0972145 0)
(27.9592 0.14689 0)
(27.4124 0.211623 0)
(26.6487 0.339102 0)
(25.7067 0.527161 0)
(24.2106 0.926885 0)
(22.2568 1.48923 0)
(18.9409 2.81701 0)
(13.5485 3.95505 0)
(6.62728 6.66472 0)
(29.9988 0.00059706 0)
(29.9853 0.00181901 0)
(29.9558 0.00314673 0)
(29.911 0.00483493 0)
(29.8524 0.00705281 0)
(29.7778 0.0100277 0)
(29.6852 0.0139545 0)
(29.5695 0.0197594 0)
(29.4263 0.0274747 0)
(29.2463 0.038163 0)
(29.0256 0.0537357 0)
(28.7525 0.0747477 0)
(28.4015 0.103378 0)
(27.9579 0.155519 0)
(27.4122 0.224526 0)
(26.6499 0.357978 0)
(25.7077 0.557599 0)
(24.2189 0.975062 0)
(22.2873 1.57202 0)
(19.0212 2.97324 0)
(13.733 4.19976 0)
(6.74889 7.10889 0)
(29.9988 0.000631202 0)
(29.9853 0.00192274 0)
(29.9558 0.00332652 0)
(29.911 0.00511114 0)
(29.8523 0.0074555 0)
(29.7777 0.0106004 0)
(29.6852 0.0147517 0)
(29.5695 0.0208869 0)
(29.4264 0.0290405 0)
(29.2463 0.0403669 0)
(29.0261 0.0568963 0)
(28.749 0.0790614 0)
(28.3996 0.10951 0)
(27.9571 0.164141 0)
(27.4121 0.237424 0)
(26.6509 0.37686 0)
(25.7081 0.587977 0)
(24.2255 1.02289 0)
(22.3154 1.65379 0)
(19.0945 3.12662 0)
(13.9173 4.44364 0)
(6.87764 7.56001 0)
(29.9988 0.00066534 0)
(29.9853 0.00202643 0)
(29.9558 0.00350633 0)
(29.911 0.00538734 0)
(29.8524 0.00785816 0)
(29.7778 0.0111729 0)
(29.6853 0.0155488 0)
(29.5696 0.022014 0)
(29.4265 0.0306076 0)
(29.2465 0.0425802 0)
(29.0265 0.0601078 0)
(28.7465 0.0832928 0)
(28.3984 0.115633 0)
(27.9567 0.172773 0)
(27.4121 0.250325 0)
(26.6518 0.395743 0)
(25.7082 0.618308 0)
(24.2312 1.0704 0)
(22.3423 1.7346 0)
(19.1625 3.27712 0)
(14.1012 4.68641 0)
(7.01306 8.01823 0)
(29.9988 0.000699473 0)
(29.9853 0.0021301 0)
(29.9558 0.00368614 0)
(29.911 0.00566352 0)
(29.8524 0.00826079 0)
(29.7778 0.0117454 0)
(29.6853 0.0163459 0)
(29.5696 0.0231407 0)
(29.4265 0.032174 0)
(29.2469 0.0448096 0)
(29.0261 0.0633342 0)
(28.7447 0.087523 0)
(28.3976 0.121756 0)
(27.9565 0.181405 0)
(27.4122 0.263217 0)
(26.6527 0.414635 0)
(25.7082 0.648601 0)
(24.2365 1.11759 0)
(22.3689 1.81448 0)
(19.2268 3.42475 0)
(14.285 4.92783 0)
(7.15478 8.48371 0)
(29.9988 0.0007336 0)
(29.9853 0.00223374 0)
(29.9558 0.00386597 0)
(29.911 0.00593969 0)
(29.8525 0.00866338 0)
(29.7779 0.0123178 0)
(29.6854 0.0171426 0)
(29.5698 0.0242683 0)
(29.4265 0.0337357 0)
(29.2477 0.0470972 0)
(29.0247 0.0665455 0)
(28.7436 0.0917734 0)
(28.3971 0.127885 0)
(27.9564 0.19004 0)
(27.4124 0.276105 0)
(26.6537 0.433533 0)
(25.7086 0.678867 0)
(24.2421 1.16445 0)
(22.3958 1.89346 0)
(19.2885 3.5695 0)
(14.4694 5.16769 0)
(7.30252 8.95661 0)
(29.9988 0.000767721 0)
(29.9853 0.00233734 0)
(29.9558 0.0040458 0)
(29.911 0.00621585 0)
(29.8524 0.00906591 0)
(29.7778 0.0128901 0)
(29.6853 0.0179391 0)
(29.5698 0.0253962 0)
(29.4264 0.0352942 0)
(29.2483 0.0494294 0)
(29.0231 0.0697321 0)
(28.7429 0.0960556 0)
(28.3967 0.134016 0)
(27.9565 0.198671 0)
(27.4127 0.288985 0)
(26.6549 0.452438 0)
(25.7096 0.709108 0)
(24.2483 1.21093 0)
(22.4235 1.97156 0)
(19.3488 3.71138 0)
(14.6551 5.40582 0)
(7.45612 9.43707 0)
(29.9988 0.000801838 0)
(29.9853 0.00244091 0)
(29.9558 0.00422565 0)
(29.911 0.00649199 0)
(29.8525 0.00946842 0)
(29.7779 0.0134624 0)
(29.6855 0.0187355 0)
(29.57 0.0265246 0)
(29.4265 0.0368481 0)
(29.2489 0.0517935 0)
(29.0218 0.0728127 0)
(28.7424 0.100358 0)
(28.3965 0.140148 0)
(27.9566 0.207301 0)
(27.4132 0.301858 0)
(26.6564 0.471343 0)
(25.7113 0.739312 0)
(24.2552 1.25701 0)
(22.4519 2.04881 0)
(19.4086 3.85037 0)
(14.8433 5.64208 0)
(7.6155 9.9253 0)
(29.9988 0.000835947 0)
(29.9853 0.00254446 0)
(29.9558 0.0044055 0)
(29.911 0.00676812 0)
(29.8524 0.00987086 0)
(29.7779 0.0140346 0)
(29.6854 0.0195314 0)
(29.57 0.0276532 0)
(29.4265 0.038398 0)
(29.2489 0.0541392 0)
(29.0209 0.0758202 0)
(28.7422 0.104671 0)
(28.3964 0.14628 0)
(27.9569 0.215925 0)
(27.4138 0.314722 0)
(26.6582 0.490241 0)
(25.7141 0.769454 0)
(24.263 1.30267 0)
(22.4813 2.12522 0)
(19.4686 3.98643 0)
(15.035 5.87634 0)
(7.7807 10.4215 0)
(29.9988 0.000870051 0)
(29.9853 0.00264797 0)
(29.9558 0.00458537 0)
(29.9111 0.00704422 0)
(29.8525 0.0102733 0)
(29.778 0.0146067 0)
(29.6856 0.0203276 0)
(29.5701 0.0287804 0)
(29.4269 0.0399631 0)
(29.2487 0.0564643 0)
(29.0203 0.078799 0)
(28.742 0.108991 0)
(28.3964 0.15241 0)
(27.9572 0.224545 0)
(27.4146 0.327574 0)
(26.6605 0.509119 0)
(25.7178 0.799509 0)
(24.2718 1.34794 0)
(22.5116 2.2008 0)
(19.5295 4.11952 0)
(15.2317 6.10849 0)
(7.95183 10.9258 0)
(29.9988 0.000904148 0)
(29.9853 0.00275145 0)
(29.9558 0.00476524 0)
(29.911 0.00732031 0)
(29.8524 0.0106757 0)
(29.778 0.0151787 0)
(29.6855 0.0211237 0)
(29.57 0.0299083 0)
(29.4271 0.0415377 0)
(29.2478 0.0588839 0)
(29.02 0.0817865 0)
(28.7419 0.113313 0)
(28.3965 0.158537 0)
(27.9577 0.233159 0)
(27.4156 0.34041 0)
(26.6631 0.527961 0)
(25.7227 0.829462 0)
(24.2816 1.39281 0)
(22.5428 2.27555 0)
(19.5916 4.24955 0)
(15.4345 6.33845 0)
(8.12908 11.4387 0)
(29.9988 0.000938239 0)
(29.9853 0.0028549 0)
(29.9558 0.00494513 0)
(29.9111 0.00759637 0)
(29.8526 0.011078 0)
(29.778 0.0157505 0)
(29.6857 0.0219195 0)
(29.5701 0.031035 0)
(29.4277 0.0431237 0)
(29.2467 0.0612677 0)
(29.0198 0.0848005 0)
(28.7419 0.117636 0)
(28.3966 0.164661 0)
(27.9582 0.241766 0)
(27.4168 0.353222 0)
(26.6663 0.546755 0)
(25.7285 0.859306 0)
(24.2926 1.43731 0)
(22.5747 2.34947 0)
(19.6552 4.37641 0)
(15.6446 6.56612 0)
(8.31271 11.9602 0)
(29.9988 0.000972324 0)
(29.9853 0.00295832 0)
(29.9558 0.00512502 0)
(29.911 0.0078724 0)
(29.8525 0.0114803 0)
(29.778 0.0163221 0)
(29.6857 0.022716 0)
(29.57 0.0321569 0)
(29.4281 0.0447664 0)
(29.2454 0.0635086 0)
(29.0197 0.0878423 0)
(28.742 0.12196 0)
(28.3967 0.170781 0)
(27.9588 0.250363 0)
(27.4182 0.366006 0)
(26.6699 0.565488 0)
(25.7353 0.889041 0)
(24.3047 1.48143 0)
(22.6074 2.42256 0)
(19.7204 4.49996 0)
(15.8631 6.79141 0)
(8.50304 12.4908 0)
(29.9988 0.0010064 0)
(29.9853 0.00306171 0)
(29.9558 0.00530492 0)
(29.9111 0.0081484 0)
(29.8526 0.0118826 0)
(29.7781 0.0168935 0)
(29.6859 0.0235126 0)
(29.5702 0.0332777 0)
(29.4286 0.0464345 0)
(29.2444 0.0657245 0)
(29.0197 0.090904 0)
(28.7421 0.126282 0)
(28.397 0.176896 0)
(27.9595 0.258949 0)
(27.4199 0.378758 0)
(26.6739 0.584154 0)
(25.743 0.918662 0)
(24.3181 1.52518 0)
(22.6408 2.4948 0)
(19.7871 4.62004 0)
(16.0907 7.01422 0)
(8.70041 13.0308 0)
(29.9988 0.00104047 0)
(29.9854 0.00316506 0)
(29.9558 0.00548483 0)
(29.9111 0.00842438 0)
(29.8525 0.0122848 0)
(29.7781 0.0174648 0)
(29.6858 0.024309 0)
(29.5701 0.0343978 0)
(29.4288 0.0481141 0)
(29.2438 0.0679292 0)
(29.0198 0.0939768 0)
(28.7422 0.130604 0)
(28.3972 0.183007 0)
(27.9603 0.267521 0)
(27.4217 0.391473 0)
(26.6783 0.602746 0)
(25.7514 0.94816 0)
(24.3328 1.56857 0)
(22.6751 2.5662 0)
(19.8551 4.73649 0)
(16.3279 7.23446 0)
(8.90518 13.5806 0)
(29.9988 0.00107454 0)
(29.9854 0.00326839 0)
(29.9559 0.00566474 0)
(29.9111 0.00870033 0)
(29.8527 0.0126871 0)
(29.7782 0.0180359 0)
(29.686 0.0251054 0)
(29.5703 0.0355169 0)
(29.429 0.0498046 0)
(29.2434 0.0701123 0)
(29.0199 0.0970557 0)
(28.7424 0.134925 0)
(28.3975 0.189113 0)
(27.9612 0.276079 0)
(27.4237 0.404149 0)
(26.683 0.621259 0)
(25.7607 0.977525 0)
(24.3488 1.61158 0)
(22.7101 2.63676 0)
(19.9243 4.84913 0)
(16.5748 7.45202 0)
(9.11767 14.1406 0)
(29.9988 0.0011086 0)
(29.9854 0.00337168 0)
(29.9558 0.00584466 0)
(29.9111 0.00897625 0)
(29.8525 0.0130892 0)
(29.7782 0.018607 0)
(29.6859 0.0259016 0)
(29.5703 0.0366358 0)
(29.429 0.0515014 0)
(29.2434 0.0722803 0)
(29.0201 0.100138 0)
(28.7426 0.139245 0)
(28.3979 0.195212 0)
(27.9622 0.28462 0)
(27.4259 0.416785 0)
(26.688 0.639687 0)
(25.7707 1.00674 0)
(24.3662 1.65423 0)
(22.7461 2.70647 0)
(19.9946 4.95781 0)
(16.8313 7.66675 0)
(9.33822 14.7111 0)
(29.9988 0.00114266 0)
(29.9854 0.00347495 0)
(29.9559 0.00602458 0)
(29.9111 0.00925213 0)
(29.8527 0.0134913 0)
(29.7783 0.0191779 0)
(29.6861 0.026697 0)
(29.5706 0.037755 0)
(29.429 0.0532025 0)
(29.2435 0.0744361 0)
(29.0203 0.103224 0)
(28.7428 0.143564 0)
(28.3983 0.201306 0)
(27.9632 0.293144 0)
(27.4283 0.429378 0)
(26.6933 0.658025 0)
(25.7815 1.0358 0)
(24.385 1.69651 0)
(22.7831 2.77535 0)
(20.0659 5.06236 0)
(17.0974 7.87855 0)
(9.56712 15.2925 0)
(29.9988 0.0011767 0)
(29.9854 0.00357819 0)
(29.9559 0.00620449 0)
(29.9111 0.00952801 0)
(29.8526 0.0138932 0)
(29.7782 0.0197491 0)
(29.686 0.027492 0)
(29.5707 0.0388696 0)
(29.4287 0.0549054 0)
(29.2438 0.0765832 0)
(29.0205 0.106311 0)
(28.743 0.147882 0)
(28.3987 0.207393 0)
(27.9643 0.30165 0)
(27.4307 0.441927 0)
(26.6989 0.676265 0)
(25.793 1.06468 0)
(24.4052 1.73841 0)
(22.8212 2.84341 0)
(20.1384 5.16262 0)
(17.3725 8.08726 0)
(9.80462 15.8853 0)
(29.9988 0.00121075 0)
(29.9854 0.0036814 0)
(29.9559 0.00638441 0)
(29.9112 0.0098038 0)
(29.8527 0.0142953 0)
(29.7784 0.0203191 0)
(29.6862 0.0282904 0)
(29.5711 0.0399795 0)
(29.4284 0.0565215 0)
(29.2441 0.0787229 0)
(29.0208 0.109401 0)
(28.7432 0.152198 0)
(28.3992 0.213473 0)
(27.9654 0.310137 0)
(27.4333 0.454429 0)
(26.7047 0.694402 0)
(25.8051 1.09337 0)
(24.4268 1.77993 0)
(22.8607 2.91063 0)
(20.2122 5.25846 0)
(17.6567 8.29273 0)
(10.051 16.4899 0)
(29.9988 0.00124478 0)
(29.9854 0.00378458 0)
(29.9559 0.00656431 0)
(29.9111 0.0100796 0)
(29.8526 0.0146968 0)
(29.7783 0.0208912 0)
(29.6861 0.0290776 0)
(29.5713 0.0411557 0)
(29.4273 0.0578786 0)
(29.2445 0.0808654 0)
(29.0211 0.112492 0)
(28.7435 0.156513 0)
(28.3996 0.219545 0)
(27.9666 0.318603 0)
(27.436 0.466883 0)
(26.7108 0.712428 0)
(25.8178 1.12186 0)
(24.4499 1.82105 0)
(22.9018 2.97703 0)
(20.2875 5.34975 0)
(17.9499 8.49482 0)
(10.3064 17.1066 0)
(29.9988 0.00127882 0)
(29.9854 0.00388773 0)
(29.9559 0.00674421 0)
(29.9112 0.0103554 0)
(29.8528 0.0150986 0)
(29.7785 0.0214612 0)
(29.6861 0.0298751 0)
(29.5721 0.0422821 0)
(29.4252 0.0598495 0)
(29.2448 0.0830376 0)
(29.0213 0.115584 0)
(28.7438 0.160827 0)
(28.4001 0.22561 0)
(27.9678 0.32705 0)
(27.4388 0.479288 0)
(26.7171 0.730339 0)
(25.8312 1.15012 0)
(24.4742 1.86177 0)
(22.9446 3.04261 0)
(20.3644 5.43635 0)
(18.2523 8.69338 0)
(10.5711 17.7358 0)
(29.9988 0.00131285 0)
(29.9854 0.00399085 0)
(29.9559 0.00692411 0)
(29.9112 0.0106311 0)
(29.8526 0.0155004 0)
(29.7785 0.0220317 0)
(29.686 0.0306637 0)
(29.5724 0.0434738 0)
(29.4238 0.061675 0)
(29.2451 0.0852343 0)
(29.0216 0.118677 0)
(28.7441 0.165139 0)
(28.4006 0.231667 0)
(27.969 0.335476 0)
(27.4417 0.491641 0)
(26.7235 0.748128 0)
(25.8451 1.17815 0)
(24.4999 1.90206 0)
(22.9894 3.10734 0)
(20.4431 5.51812 0)
(18.5643 8.88824 0)
(10.8452 18.3781 0)
(29.9988 0.00134687 0)
(29.9854 0.00409394 0)
(29.9559 0.00710395 0)
(29.9112 0.010907 0)
(29.8528 0.0159008 0)
(29.7786 0.0226081 0)
(29.6862 0.0314285 0)
(29.5726 0.0446877 0)
(29.4232 0.0631939 0)
(29.2454 0.0874371 0)
(29.0219 0.121771 0)
(28.7443 0.169449 0)
(28.4011 0.237717 0)
(27.9703 0.343881 0)
(27.4447 0.503941 0)
(26.7302 0.76579 0)
(25.8596 1.20593 0)
(24.5269 1.94191 0)
(23.0366 3.17124 0)
(20.5233 5.59493 0)
(18.8861 9.07924 0)
(11.1292 19.0338 0)
(29.9988 0.00138089 0)
(29.9854 0.004197 0)
(29.9559 0.00728382 0)
(29.9112 0.0111825 0)
(29.8527 0.0163029 0)
(29.7785 0.0231734 0)
(29.6863 0.0322654 0)
(29.5717 0.0455567 0)
(29.4228 0.0646557 0)
(29.2456 0.0896371 0)
(29.0222 0.124864 0)
(28.7446 0.173758 0)
(28.4016 0.243758 0)
(27.9716 0.352262 0)
(27.4477 0.516184 0)
(26.7371 0.783321 0)
(25.8745 1.23346 0)
(24.555 1.98128 0)
(23.0865 3.23431 0)
(20.6045 5.66664 0)
(19.2168 9.26626 0)
(11.4231 19.7033 0)
(29.9988 0.0014149 0)
(29.9854 0.0043001 0)
(29.9559 0.00746371 0)
(29.9112 0.0114582 0)
(29.8529 0.0167043 0)
(29.7784 0.0237451 0)
(29.6876 0.0330704 0)
(29.5672 0.0469669 0)
(29.4226 0.0661498 0)
(29.2458 0.0918344 0)
(29.0224 0.127957 0)
(28.7449 0.178065 0)
(28.4022 0.249791 0)
(27.9729 0.360622 0)
(27.4508 0.528372 0)
(26.7441 0.800715 0)
(25.8899 1.2607 0)
(24.5841 2.02014 0)
(23.1395 3.29654 0)
(20.686 5.73317 0)
(19.5533 9.4493 0)
(11.7271 20.3879 0)
(29.9988 0.00144875 0)
(29.9854 0.00440312 0)
(29.9559 0.00764374 0)
(29.9112 0.0117338 0)
(29.8529 0.0171068 0)
(29.7781 0.0243116 0)
(29.6884 0.0339009 0)
(29.564 0.0484099 0)
(29.4224 0.067678 0)
(29.246 0.0940326 0)
(29.0227 0.13105 0)
(28.7452 0.182371 0)
(28.4027 0.255815 0)
(27.9742 0.368955 0)
(27.454 0.540498 0)
(26.7513 0.81797 0)
(25.9056 1.28767 0)
(24.6141 2.05845 0)
(23.196 3.35796 0)
(20.767 5.7945 0)
(19.8888 9.62805 0)
(12.041 21.095 0)
(29.9988 0.00148206 0)
(29.9854 0.00450529 0)
(29.9559 0.00782273 0)
(29.9112 0.0120081 0)
(29.8531 0.0175092 0)
(29.7782 0.0248665 0)
(29.6888 0.0347948 0)
(29.5629 0.0495546 0)
(29.4222 0.0692127 0)
(29.246 0.0962277 0)
(29.0229 0.134143 0)
(28.7454 0.186678 0)
(28.4032 0.261828 0)
(27.9755 0.377256 0)
(27.4572 0.552559 0)
(26.7586 0.835083 0)
(25.9216 1.31434 0)
(24.6449 2.09614 0)
(23.2565 3.41861 0)
(20.8478 5.85073 0)
(20.2118 9.80048 0)
(12.4509 21.8459 0)
(0.874845 -0.00584364 0)
(-0.415765 0.0217962 0)
(-1.12271 0.00794075 0)
(-1.19627 0.000399038 0)
(-1.15411 -0.00357943 0)
(-0.768986 -0.00392782 0)
(-0.655445 -0.0018155 0)
(-0.52168 -0.000384975 0)
(-0.601695 0.000169006 0)
(-0.542447 0.000318907 0)
(-0.657446 0.000878474 0)
(-0.682346 3.94923e-05 0)
(-0.695832 -0.000807853 0)
(-0.528447 -0.00225606 0)
(-0.162215 -0.00346411 0)
(0.39725 -0.00413965 0)
(1.03067 -0.00474949 0)
(1.84841 -0.00590603 0)
(2.95212 -0.00703736 0)
(4.31443 -0.00758925 0)
(5.87367 -0.00747801 0)
(7.46385 -0.00676474 0)
(8.96876 -0.00588654 0)
(10.3815 -0.00513989 0)
(11.7232 -0.00455455 0)
(13.0263 -0.00409995 0)
(14.3065 -0.00370723 0)
(15.5558 -0.00334547 0)
(16.7754 -0.00307019 0)
(18.0109 -0.00285016 0)
(19.2447 -0.00199684 0)
(19.8704 -0.00224024 0)
(21.5108 -0.00754949 0)
(28.3351 -0.00716023 0)
(29.9215 -0.00125202 0)
(0.885498 -0.0180323 0)
(-0.401162 0.0652373 0)
(-1.10716 0.023686 0)
(-1.17584 0.00129914 0)
(-1.13614 -0.0107267 0)
(-0.752653 -0.011672 0)
(-0.643531 -0.00544027 0)
(-0.510688 -0.00114159 0)
(-0.593729 0.000464005 0)
(-0.533649 0.000892924 0)
(-0.644976 0.00251141 0)
(-0.655402 0.000145879 0)
(-0.66761 -0.00201386 0)
(-0.5292 -0.00630886 0)
(-0.196308 -0.0103166 0)
(0.370047 -0.012605 0)
(1.03876 -0.0142638 0)
(1.87805 -0.0173315 0)
(2.96983 -0.0205011 0)
(4.30263 -0.0223291 0)
(5.84077 -0.0222842 0)
(7.43432 -0.0202815 0)
(8.95912 -0.0176505 0)
(10.383 -0.0153941 0)
(11.7257 -0.0136501 0)
(13.0258 -0.0122942 0)
(14.3011 -0.0111101 0)
(15.5458 -0.010021 0)
(16.7633 -0.00919624 0)
(17.9963 -0.00854877 0)
(19.2346 -0.00604821 0)
(19.8886 -0.0064789 0)
(21.3879 -0.0224565 0)
(28.2215 -0.0217607 0)
(29.9212 -0.00388443 0)
(0.898498 -0.0309037 0)
(-0.385295 0.108546 0)
(-1.08944 0.0392049 0)
(-1.14976 0.00218505 0)
(-1.10849 -0.0179517 0)
(-0.727856 -0.0192754 0)
(-0.623424 -0.00901219 0)
(-0.492291 -0.00179224 0)
(-0.576862 0.000800524 0)
(-0.514487 0.00145949 0)
(-0.623229 0.00405818 0)
(-0.620512 -0.000101146 0)
(-0.640757 -0.00316197 0)
(-0.538504 -0.00983658 0)
(-0.231708 -0.0167361 0)
(0.35326 -0.0211203 0)
(1.06162 -0.0239691 0)
(1.91949 -0.0286428 0)
(2.99454 -0.0336083 0)
(4.29681 -0.0366889 0)
(5.81919 -0.0369727 0)
(7.42012 -0.0339413 0)
(8.96555 -0.0295762 0)
(10.4013 -0.0257112 0)
(11.7447 -0.0227155 0)
(13.0409 -0.0204201 0)
(14.3111 -0.0184524 0)
(15.5502 -0.0166633 0)
(16.7639 -0.0153022 0)
(17.9929 -0.0142438 0)
(19.2338 -0.0101639 0)
(19.9154 -0.0105555 0)
(21.287 -0.0370518 0)
(28.1145 -0.0364543 0)
(29.9204 -0.00670186 0)
(0.914131 -0.0444857 0)
(-0.368348 0.151811 0)
(-1.06921 0.0544878 0)
(-1.11711 0.00282861 0)
(-1.07111 -0.0251749 0)
(-0.694217 -0.0267474 0)
(-0.595322 -0.0124757 0)
(-0.466607 -0.00241202 0)
(-0.551906 0.00110802 0)
(-0.48762 0.00196493 0)
(-0.594486 0.00543959 0)
(-0.579126 -0.000318642 0)
(-0.610614 -0.00385183 0)
(-0.545348 -0.0128847 0)
(-0.261823 -0.0232902 0)
(0.344557 -0.0303164 0)
(1.09573 -0.034322 0)
(1.97355 -0.0402071 0)
(3.0308 -0.0466469 0)
(4.30295 -0.0509375 0)
(5.81228 -0.0516734 0)
(7.42252 -0.0477373 0)
(8.98942 -0.0416333 0)
(10.4379 -0.0360788 0)
(11.782 -0.0317798 0)
(13.0737 -0.0285284 0)
(14.3378 -0.0257703 0)
(15.5698 -0.0232826 0)
(16.778 -0.0213902 0)
(18.0013 -0.0199345 0)
(19.243 -0.014343 0)
(19.9514 -0.0144383 0)
(21.2072 -0.0514062 0)
(28.0131 -0.0513299 0)
(29.9191 -0.0096884 0)
(0.932528 -0.058861 0)
(-0.350477 0.194973 0)
(-1.0462 0.0694102 0)
(-1.07747 0.00308711 0)
(-1.02444 -0.0324128 0)
(-0.651994 -0.0340479 0)
(-0.559914 -0.0157981 0)
(-0.434026 -0.00299377 0)
(-0.519386 0.00140254 0)
(-0.453717 0.00242617 0)
(-0.557925 0.00664045 0)
(-0.529837 -0.00052859 0)
(-0.575519 -0.00411002 0)
(-0.548052 -0.0154308 0)
(-0.284824 -0.0298293 0)
(0.346253 -0.0400065 0)
(1.14538 -0.0451881 0)
(2.04663 -0.0518788 0)
(3.08458 -0.059488 0)
(4.32537 -0.0649928 0)
(5.82291 -0.0663715 0)
(7.44404 -0.0616806 0)
(9.03387 -0.0538434 0)
(10.4964 -0.0465113 0)
(11.8413 -0.0408363 0)
(13.1274 -0.0365994 0)
(14.3837 -0.0330445 0)
(15.6066 -0.0298636 0)
(16.8072 -0.0274468 0)
(18.0229 -0.025611 0)
(19.2631 -0.0185773 0)
(19.9975 -0.018165 0)
(21.148 -0.0655048 0)
(27.9164 -0.0663143 0)
(29.9173 -0.0128338 0)
(0.95371 -0.0741213 0)
(-0.33179 0.238039 0)
(-1.02007 0.0838391 0)
(-1.03024 0.00285372 0)
(-0.968531 -0.0397097 0)
(-0.601191 -0.0411558 0)
(-0.517463 -0.018963 0)
(-0.394557 -0.0035399 0)
(-0.479471 0.00168202 0)
(-0.413028 0.00283842 0)
(-0.513052 0.00764326 0)
(-0.471846 -0.000709442 0)
(-0.534183 -0.00390004 0)
(-0.544654 -0.0174773 0)
(-0.298434 -0.036361 0)
(0.361102 -0.0501745 0)
(1.21519 -0.0565496 0)
(2.14638 -0.0635957 0)
(3.16389 -0.0720423 0)
(4.37045 -0.0788033 0)
(5.85576 -0.0810605 0)
(7.48905 -0.0757766 0)
(9.10407 -0.0662111 0)
(10.5828 -0.0570102 0)
(11.9287 -0.0498786 0)
(13.2072 -0.04462 0)
(14.4532 -0.0402596 0)
(15.6639 -0.0363915 0)
(16.8539 -0.0334596 0)
(18.0596 -0.0312613 0)
(19.2957 -0.0228588 0)
(20.0552 -0.0217544 0)
(21.1091 -0.0793381 0)
(27.824 -0.0813637 0)
(29.9149 -0.0161281 0)
(0.977535 -0.0903543 0)
(-0.312339 0.281008 0)
(-0.990407 0.0976321 0)
(-0.97447 0.00202322 0)
(-0.902998 -0.0470917 0)
(-0.54145 -0.0480428 0)
(-0.46774 -0.0219504 0)
(-0.347831 -0.00405323 0)
(-0.431862 0.00194727 0)
(-0.365215 0.0031924 0)
(-0.459285 0.00842362 0)
(-0.404363 -0.000838649 0)
(-0.485085 -0.00321487 0)
(-0.53312 -0.0190722 0)
(-0.300995 -0.042958 0)
(0.391186 -0.0608944 0)
(1.3095 -0.0684877 0)
(2.28164 -0.0753922 0)
(3.27928 -0.0842782 0)
(4.44709 -0.0923347 0)
(5.91775 -0.0957363 0)
(7.56414 -0.0900396 0)
(9.2077 -0.0787543 0)
(10.7062 -0.067586 0)
(12.054 -0.0589014 0)
(13.3216 -0.052572 0)
(14.5526 -0.047394 0)
(15.7466 -0.042847 0)
(16.922 -0.039413 0)
(18.1143 -0.0368723 0)
(19.343 -0.0271786 0)
(20.1261 -0.0252188 0)
(21.091 -0.0928893 0)
(27.7354 -0.0964452 0)
(29.9121 -0.0195637 0)
(1.00366 -0.10764 0)
(-0.292122 0.323864 0)
(-0.95671 0.110623 0)
(-0.908942 0.000484567 0)
(-0.827225 -0.0545637 0)
(-0.472203 -0.0546703 0)
(-0.410145 -0.0247367 0)
(-0.293169 -0.00453817 0)
(-0.375836 0.00219858 0)
(-0.309385 0.00347531 0)
(-0.395566 0.00896548 0)
(-0.326063 -0.000918431 0)
(-0.426072 -0.00205484 0)
(-0.511243 -0.020253 0)
(-0.291142 -0.0496961 0)
(0.438332 -0.0722923 0)
(1.43276 -0.0811661 0)
(2.46307 -0.0873731 0)
(3.44483 -0.0961858 0)
(4.56741 -0.105537 0)
(6.01867 -0.110383 0)
(7.67881 -0.104487 0)
(9.35555 -0.091501 0)
(10.8797 -0.078257 0)
(12.2315 -0.0678976 0)
(13.4843 -0.060427 0)
(14.6926 -0.0544132 0)
(15.8619 -0.0492007 0)
(17.0167 -0.0452857 0)
(18.1913 -0.0424269 0)
(19.4081 -0.0315255 0)
(20.2128 -0.0285666 0)
(21.0948 -0.10614 0)
(27.6506 -0.111524 0)
(29.9088 -0.0231339 0)
(1.03151 -0.12605 0)
(-0.27108 0.366569 0)
(-0.91835 0.122619 0)
(-0.832362 -0.00187768 0)
(-0.740634 -0.062116 0)
(-0.392893 -0.060999 0)
(-0.343881 -0.0273001 0)
(-0.229691 -0.00500188 0)
(-0.310335 0.00243172 0)
(-0.244185 0.00366923 0)
(-0.320211 0.00923485 0)
(-0.234886 -0.000952832 0)
(-0.354251 -0.00042011 0)
(-0.476325 -0.0210323 0)
(-0.266949 -0.0566309 0)
(0.505241 -0.0845164 0)
(1.59082 -0.0948241 0)
(2.70457 -0.099732 0)
(3.68019 -0.107791 0)
(4.74822 -0.118336 0)
(6.1722 -0.12497 0)
(7.84622 -0.11914 0)
(9.5622 -0.104496 0)
(11.121 -0.0890588 0)
(12.4825 -0.0768633 0)
(13.7162 -0.0681421 0)
(14.8893 -0.0612615 0)
(16.0208 -0.0554061 0)
(17.1455 -0.0510463 0)
(18.2963 -0.047902 0)
(19.4956 -0.0358836 0)
(20.3184 -0.0318029 0)
(21.1233 -0.119068 0)
(27.5699 -0.126559 0)
(29.905 -0.0268318 0)
(1.06024 -0.145639 0)
(-0.249095 0.409052 0)
(-0.874566 0.133401 0)
(-0.743625 -0.00517761 0)
(-0.642908 -0.0697245 0)
(-0.303198 -0.0669963 0)
(-0.26811 -0.0296257 0)
(-0.156416 -0.00545599 0)
(-0.234072 0.00263551 0)
(-0.167889 0.00374705 0)
(-0.230899 0.00919621 0)
(-0.128076 -0.000968961 0)
(-0.266026 0.00168264 0)
(-0.424899 -0.021411 0)
(-0.2253 -0.0638035 0)
(0.596283 -0.0977251 0)
(1.79172 -0.109777 0)
(3.02358 -0.112776 0)
(4.01293 -0.11917 0)
(5.01305 -0.130636 0)
(6.3972 -0.139445 0)
(8.08412 -0.134026 0)
(9.84645 -0.117805 0)
(11.4521 -0.100059 0)
(12.8346 -0.085813 0)
(14.0475 -0.0756603 0)
(15.1675 -0.0678514 0)
(16.2394 -0.0613881 0)
(17.3188 -0.0566474 0)
(18.4373 -0.0532658 0)
(19.6111 -0.0402305 0)
(20.4473 -0.0349295 0)
(21.1806 -0.131646 0)
(27.4939 -0.141505 0)
(29.9008 -0.0306498 0)
(1.08874 -0.166442 0)
(-0.225985 0.451207 0)