/*--------------------------------*- C++ -*----------------------------------*\
| =========                 |                                                 |
| \\      /  F ield         | OpenFOAM: The Open Source CFD Toolbox           |
|  \\    /   O peration     | Version:  v1912                                 |
|   \\  /    A nd           | Website:  www.openfoam.com                      |
|    \\/     M anipulation  |                                                 |
\*---------------------------------------------------------------------------*/
FoamFile
{
    version     2.0;
    format      ascii;
    class       volScalarField;
    location    "530";
    object      yPlus;
}
// * * * * * * * * * * * * * * * * * * * * * * * * * * * * * * * * * * * * * //

dimensions      [0 0 0 0 0 0 0];


internalField   uniform 0;

boundaryField
{
    inlet
    {
        type            calculated;
        value           uniform 0;
    }
    outlet
    {
        type            calculated;
        value           uniform 0;
    }
    lowerSymmetry
    {
        type            symmetryPlane;
    }
    obstical
    {
        type            calculated;
        value           nonuniform List<scalar> 
88
(
477.676
479.896
484.291
490.854
499.519
510.199
522.806
537.251
553.451
571.326
590.803
611.807
634.26
658.074
683.153
709.405
736.738
765.07
794.329
824.455
855.398
887.119
919.59
952.791
986.712
1021.35
1056.71
1092.8
1129.63
1167.22
1205.6
1244.78
1284.78
1325.64
1367.35
1409.96
1453.48
1497.93
1543.33
1589.71
1637.09
1685.54
1735.45
1790.78
87.8689
88.7993
89.9458
91.3333
92.9736
94.8686
97.0067
99.3592
101.878
104.494
107.116
109.636
111.926
113.847
115.26
116.027
116.03
115.182
113.433
110.778
107.263
102.978
98.0601
92.6921
87.1105
81.616
76.5856
72.4765
69.7952
69.005
70.3882
73.952
79.4638
86.5817
94.9817
104.432
114.823
126.178
138.773
152.968
169.164
187.677
208.801
233.362
)
;
    }
    obsticalTop
    {
        type            calculated;
        value           nonuniform List<scalar> 
20
(
53.4142
38.8437
47.1788
53.2534
56.0875
57.713
58.3074
57.989
57.0284
55.5561
53.546
50.8856
47.4773
43.1295
37.8117
30.8843
24.4574
14.9127
13.393
11.2956
)
;
    }
    top
    {
        type            calculated;
        value           uniform 0;
    }
    defaultFaces
    {
        type            empty;
    }
}


// ************************************************************************* //
