/*--------------------------------*- C++ -*----------------------------------*\
| =========                 |                                                 |
| \\      /  F ield         | OpenFOAM: The Open Source CFD Toolbox           |
|  \\    /   O peration     | Version:  v1912                                 |
|   \\  /    A nd           | Website:  www.openfoam.com                      |
|    \\/     M anipulation  |                                                 |
\*---------------------------------------------------------------------------*/
FoamFile
{
    version     2.0;
    format      ascii;
    class       volScalarField;
    location    "450";
    object      p;
}
// * * * * * * * * * * * * * * * * * * * * * * * * * * * * * * * * * * * * * //

dimensions      [0 2 -2 0 0 0 0];


internalField   nonuniform List<scalar> 
2000
(
-0.0458436
0.0715677
0.126148
0.119259
0.103431
0.0971243
0.0965184
0.0978685
0.0980868
0.097864
0.0980011
0.0976675
0.0973972
0.0973381
0.0973876
0.0973815
0.0973145
0.0972946
0.097296
0.0973059
0.0973163
0.0973179
0.0973085
0.0972891
0.0972648
0.0972388
0.0972135
0.0971893
0.0971651
0.0971385
0.0971079
0.0970738
0.0970373
0.0970004
0.0969649
0.0969331
0.0969069
0.0968874
0.0968744
0.0968663
0.0968601
0.0968526
0.0968402
0.0968195
0.0967882
0.0967447
0.0966895
0.0966258
0.096559
0.0964947
0.0964309
0.0963345
0.0960984
0.095494
0.0941759
0.0917674
0.0879823
0.0827526
0.0764995
0.0705883
0.067098
0.067143
0.0717363
0.0804849
0.0924047
0.106474
0.121847
0.137758
0.153337
0.167544
0.17936
0.187928
0.192407
0.191982
0.185838
0.173277
0.153146
0.125229
0.0837956
0.0415544
0.00740231
0.0925791
0.131397
0.118202
0.100461
0.0962604
0.0997956
0.102233
0.0994846
0.0962463
0.095803
0.0970965
0.0975467
0.0974177
0.0976012
0.0974603
0.0973191
0.0972254
0.0972065
0.0972075
0.0972332
0.097281
0.0972986
0.0972897
0.0972709
0.0972489
0.0972261
0.0972034
0.0971805
0.0971548
0.0971212
0.0970824
0.0970404
0.0969977
0.0969571
0.0969217
0.0968941
0.096876
0.0968684
0.0968697
0.0968769
0.0968852
0.0968887
0.0968809
0.0968556
0.0968089
0.0967404
0.0966561
0.0965736
0.0965226
0.0965178
0.0964891
0.0961799
0.095065
0.092406
0.0875507
0.080325
0.0712695
0.0619065
0.055224
0.0548953
0.0601887
0.0686353
0.0794646
0.0921802
0.106408
0.121589
0.136997
0.151768
0.16494
0.17553
0.182574
0.185164
0.182556
0.174058
0.159103
0.136758
0.107177
0.0663481
0.0294424
0.0584688
0.0922669
0.114959
0.113401
0.104203
0.100026
0.100062
0.0994261
0.0975268
0.0968474
0.0984236
0.0999979
0.0990018
0.096519
0.0956181
0.0964993
0.0973827
0.0975406
0.0973872
0.0973037
0.0972654
0.0972381
0.0972244
0.0972409
0.0972563
0.097256
0.0972374
0.097204
0.0971764
0.097146
0.0971162
0.0970798
0.0970363
0.0969898
0.0969449
0.0969062
0.0968784
0.0968646
0.0968667
0.0968851
0.0969184
0.0969609
0.097002
0.097027
0.0970246
0.096997
0.0969675
0.0969768
0.0970673
0.097259
0.0975128
0.0976413
0.0972698
0.0958203
0.0926471
0.0873368
0.0800759
0.0719776
0.0650037
0.0606863
0.0597527
0.0632325
0.0705068
0.0804382
0.092209
0.105333
0.119262
0.133222
0.146311
0.157578
0.166096
0.171018
0.171619
0.167324
0.157634
0.142185
0.120371
0.0927106
0.0564836
0.0249841
0.0834549
0.0934686
0.106019
0.110098
0.107405
0.104385
0.102724
0.100993
0.0993738
0.0985564
0.0983578
0.0982485
0.097896
0.0971674
0.0966274
0.0975734
0.0988203
0.0981005
0.0969533
0.096544
0.0965049
0.0966936
0.0969879
0.0972138
0.0973485
0.0974372
0.0974947
0.0974886
0.0974188
0.0973284
0.0972317
0.0971358
0.0970472
0.096975
0.0969123
0.09686
0.0968262
0.0968179
0.0968361
0.096884
0.0969619
0.0970623
0.0971661
0.0972447
0.0972773
0.0972659
0.0972507
0.0972933
0.0974495
0.0977233
0.098106
0.0983132
0.0980003
0.0966733
0.0938465
0.0892814
0.0832063
0.0763437
0.0697874
0.0654354
0.0643512
0.0672278
0.0736903
0.0827199
0.093458
0.105294
0.117593
0.129581
0.140416
0.149284
0.155437
0.158225
0.157103
0.151637
0.141454
0.126315
0.105816
0.0805598
0.0486571
0.0207853
0.0957946
0.099395
0.106915
0.110884
0.109755
0.107426
0.106044
0.105005
0.103702
0.102248
0.10089
0.0997934
0.0990555
0.0981944
0.0972168
0.0972475
0.0977996
0.0980046
0.0978455
0.0974103
0.0970897
0.0969904
0.0970578
0.0972528
0.0974586
0.097586
0.0975507
0.0973846
0.0972744
0.0971933
0.0971208
0.0970468
0.0969681
0.0969078
0.0968573
0.0968075
0.09679
0.096793
0.0968192
0.096885
0.096993
0.0971321
0.097275
0.0973791
0.0973987
0.0973144
0.0971591
0.0970622
0.0971329
0.0973449
0.0976169
0.0977502
0.0974045
0.0961334
0.0935358
0.0894568
0.0841556
0.0783771
0.0733022
0.0703145
0.0702241
0.0732588
0.0790863
0.086997
0.0962627
0.106257
0.116369
0.125938
0.134287
0.140775
0.144827
0.145938
0.143673
0.137673
0.127617
0.113307
0.0944201
0.0715348
0.0431608
0.0181595
0.104235
0.106069
0.110022
0.112192
0.111376
0.109768
0.108808
0.108131
0.10717
0.105976
0.104841
0.103842
0.102816
0.101477
0.100092
0.0993813
0.0992481
0.0991101
0.0985439
0.0976762
0.097073
0.0968788
0.0969767
0.0971912
0.0973658
0.0974708
0.0975342
0.0975587
0.0975099
0.0974248
0.0973199
0.0971983
0.0970667
0.096947
0.096818
0.0966821
0.0965936
0.0966033
0.096661
0.0967611
0.0969171
0.097116
0.0973228
0.0974929
0.0975881
0.0975998
0.0975678
0.09758
0.0976983
0.0978921
0.0980721
0.0980651
0.0975961
0.0963535
0.0941105
0.0908589
0.0869047
0.0828762
0.0796077
0.0779336
0.0783978
0.0811482
0.0859789
0.0924125
0.0998731
0.107809
0.115696
0.123003
0.129198
0.133772
0.136255
0.136224
0.133292
0.127124
0.117408
0.103941
0.0864167
0.0653615
0.0394285
0.0165197
0.111045
0.111868
0.113105
0.113442
0.112655
0.111669
0.111008
0.110467
0.109798
0.109039
0.108308
0.107579
0.106709
0.105589
0.104412
0.103552
0.103035
0.102434
0.101468
0.100379
0.0995741
0.0991433
0.0989618
0.0988784
0.0988008
0.0987144
0.0986186
0.0984811
0.0982873
0.0980884
0.0979076
0.0977383
0.0975725
0.0974402
0.0974707
0.0974739
0.0974463
0.0974875
0.0976024
0.0977812
0.0980226
0.0983088
0.0986055
0.098875
0.0990889
0.0992428
0.099363
0.0994979
0.0996805
0.0998881
0.100037
0.0999856
0.0995421
0.0985153
0.0967914
0.0944144
0.0916358
0.0889034
0.0867822
0.0858281
0.0864312
0.0887115
0.0925267
0.0975377
0.103313
0.109416
0.115422
0.120905
0.125434
0.128583
0.129945
0.129134
0.125791
0.119582
0.110192
0.0974062
0.0809075
0.0611702
0.0368862
0.0154797
0.116921
0.116867
0.115951
0.114742
0.113917
0.113399
0.112921
0.112449
0.112003
0.111562
0.111105
0.1106
0.109992
0.10924
0.108426
0.107728
0.107184
0.106555
0.10569
0.104744
0.103953
0.103394
0.103004
0.1027
0.102434
0.102187
0.101946
0.101694
0.101435
0.101198
0.100994
0.10082
0.100678
0.1006
0.100617
0.100625
0.100636
0.100714
0.100876
0.101105
0.101387
0.101704
0.102029
0.102334
0.102598
0.102816
0.103
0.103175
0.103352
0.103506
0.103566
0.103429
0.10297
0.102078
0.100702
0.0988994
0.0968648
0.0949188
0.0934545
0.0928531
0.0933859
0.0951453
0.0980413
0.101843
0.10624
0.110892
0.115452
0.119561
0.122852
0.124953
0.125496
0.124125
0.120494
0.114278
0.105156
0.0928957
0.0771602
0.0583658
0.0352159
0.0148017
0.122325
0.121335
0.118371
0.115827
0.11507
0.11498
0.114645
0.114234
0.113966
0.113745
0.11347
0.113137
0.11274
0.112253
0.111709
0.111213
0.110797
0.110324
0.109692
0.108978
0.108336
0.107838
0.107463
0.107157
0.106885
0.106626
0.106374
0.106121
0.105873
0.105642
0.105439
0.105267
0.105134
0.105047
0.105006
0.105011
0.105055
0.10515
0.105305
0.105515
0.105765
0.10604
0.10632
0.106583
0.106813
0.107002
0.107154
0.107276
0.107369
0.107407
0.10734
0.107096
0.106595
0.105773
0.104608
0.103158
0.101571
0.100079
0.0989631
0.0984951
0.0988746
0.100181
0.102364
0.10526
0.108633
0.112208
0.115689
0.118768
0.121123
0.122424
0.12234
0.120539
0.116695
0.110488
0.101592
0.0897545
0.0746073
0.0565043
0.0341474
0.0143422
0.127555
0.125367
0.120172
0.116528
0.116063
0.116388
0.116158
0.115832
0.115744
0.115708
0.115581
0.115383
0.115133
0.114815
0.114447
0.114104
0.113811
0.113477
0.113027
0.112507
0.112029
0.111655
0.111374
0.111145
0.110937
0.110736
0.110535
0.110334
0.110135
0.109947
0.109779
0.109638
0.109533
0.109467
0.10938
0.109382
0.109429
0.109508
0.109627
0.109787
0.109979
0.110188
0.110397
0.110591
0.110754
0.110878
0.110961
0.111004
0.111001
0.110931
0.110758
0.110431
0.109897
0.109117
0.108086
0.106856
0.105542
0.10432
0.1034
0.102986
0.103231
0.1042
0.105861
0.10809
0.110695
0.113448
0.116096
0.118368
0.119984
0.12065
0.120067
0.117931
0.113931
0.107754
0.0990663
0.0875921
0.0729201
0.0553398
0.033524
0.0140681
0.132793
0.128943
0.12125
0.116858
0.116949
0.117639
0.117466
0.117249
0.117349
0.117482
0.117488
0.11741
0.117282
0.11709
0.116849
0.116615
0.116408
0.116166
0.115836
0.115452
0.115096
0.11482
0.114616
0.114453
0.114304
0.114159
0.114013
0.113865
0.113717
0.113575
0.113446
0.113336
0.113248
0.113175
0.113108
0.113103
0.113136
0.113193
0.11328
0.113399
0.113543
0.113698
0.113851
0.113987
0.114095
0.114164
0.114191
0.114172
0.114099
0.113955
0.113712
0.113334
0.112785
0.112042
0.111109
0.110033
0.108906
0.107865
0.107074
0.106689
0.106828
0.107543
0.108808
0.110523
0.112529
0.114631
0.116612
0.118234
0.119251
0.119403
0.118421
0.116024
0.111918
0.105795
0.0973104
0.0861626
0.0718885
0.0547149
0.0332342
0.0139795
0.13816
0.13199
0.121575
0.116915
0.117781
0.118742
0.11859
0.118511
0.118795
0.119073
0.119197
0.119232
0.119215
0.119135
0.119002
0.118859
0.118723
0.118553
0.11831
0.118021
0.117751
0.117542
0.11739
0.11727
0.117163
0.117058
0.116951
0.116842
0.116732
0.116624
0.116524
0.116437
0.116365
0.116302
0.116255
0.116245
0.116267
0.116312
0.11638
0.116473
0.116583
0.116701
0.116815
0.116911
0.116979
0.117009
0.116994
0.11693
0.116807
0.116612
0.116322
0.115913
0.115359
0.114649
0.113792
0.112828
0.111835
0.110924
0.110221
0.10985
0.109901
0.110414
0.111365
0.112668
0.114191
0.115764
0.117197
0.118286
0.118811
0.118545
0.117244
0.114651
0.110483
0.104435
0.0961524
0.0853049
0.0713722
0.0545252
0.0332044
0.0140912
0.143732
0.134403
0.121183
0.116819
0.118581
0.119696
0.119561
0.119646
0.120098
0.120496
0.120724
0.120862
0.120946
0.120965
0.120928
0.120868
0.1208
0.120696
0.120527
0.120316
0.120115
0.119958
0.119846
0.119761
0.119685
0.119611
0.119534
0.119453
0.119371
0.119289
0.119211
0.119141
0.11908
0.119036
0.119
0.118988
0.119002
0.119037
0.119091
0.119163
0.119248
0.119339
0.119422
0.119488
0.119526
0.119525
0.119479
0.11938
0.11922
0.118986
0.118664
0.118233
0.117678
0.116994
0.116194
0.115315
0.114421
0.113603
0.112962
0.112593
0.112567
0.112912
0.113604
0.114569
0.115691
0.116825
0.117806
0.118455
0.118581
0.11798
0.116434
0.113701
0.10951
0.103555
0.0954679
0.0848956
0.0712585
0.0546831
0.0333787
0.0144081
0.149551
0.136065
0.12017
0.116687
0.119347
0.120504
0.120407
0.120673
0.121273
0.121769
0.12209
0.122321
0.122493
0.122598
0.122644
0.12266
0.122657
0.122613
0.122511
0.122367
0.122226
0.122118
0.122043
0.121989
0.121941
0.121893
0.121842
0.121786
0.121727
0.121667
0.121607
0.121552
0.121505
0.12147
0.12144
0.121427
0.121436
0.121463
0.121504
0.121559
0.121624
0.121692
0.121752
0.121794
0.121807
0.121781
0.121708
0.121581
0.121391
0.121127
0.120777
0.120328
0.119771
0.119106
0.118347
0.117529
0.116707
0.115953
0.11535
0.114972
0.114872
0.11507
0.115541
0.116221
0.117009
0.117781
0.118392
0.118686
0.118496
0.117639
0.115914
0.113093
0.108909
0.103055
0.0951509
0.0848257
0.0714436
0.0551048
0.033709
0.0149123
0.155624
0.136868
0.118683
0.116608
0.12006
0.121178
0.121158
0.121608
0.12233
0.12291
0.123313
0.123627
0.123876
0.124057
0.124176
0.124258
0.124314
0.124326
0.124282
0.124197
0.124109
0.124044
0.124004
0.123979
0.123958
0.123934
0.123905
0.123872
0.123834
0.123793
0.12375
0.123708
0.123672
0.123643
0.123619
0.123606
0.123611
0.123629
0.123659
0.1237
0.123749
0.123798
0.123838
0.123859
0.123851
0.123804
0.123708
0.123556
0.123338
0.123046
0.122671
0.122203
0.121639
0.120981
0.120247
0.119468
0.11869
0.117975
0.117386
0.116985
0.11681
0.116875
0.117156
0.117597
0.118111
0.11859
0.118909
0.118931
0.118505
0.117464
0.115619
0.112749
0.108593
0.10284
0.0951014
0.0849922
0.0718277
0.0557056
0.0341514
0.0155605
0.161932
0.136735
0.116898
0.116633
0.120698
0.121737
0.121836
0.12246
0.123281
0.123933
0.124412
0.124798
0.125116
0.125362
0.125545
0.125686
0.125794
0.125856
0.125864
0.125831
0.125789
0.125762
0.125753
0.125754
0.125757
0.125756
0.125748
0.125734
0.125716
0.125692
0.125663
0.125634
0.125607
0.125583
0.125563
0.125551
0.125551
0.125561
0.125581
0.125609
0.125641
0.125673
0.125694
0.125695
0.125666
0.125597
0.125477
0.125298
0.125051
0.124729
0.124324
0.123831
0.12325
0.122588
0.12186
0.121097
0.120339
0.119637
0.119043
0.118606
0.118356
0.118302
0.118424
0.118672
0.118972
0.119229
0.119331
0.119156
0.118565
0.117402
0.115484
0.112598
0.108481
0.102823
0.0952278
0.0853037
0.0723226
0.0564063
0.034668
0.016298
0.168421
0.135657
0.114995
0.11677
0.12124
0.122206
0.122457
0.123236
0.124136
0.124851
0.125398
0.125849
0.126227
0.12653
0.126769
0.126963
0.127118
0.127224
0.127277
0.127289
0.127288
0.127294
0.127312
0.127337
0.127361
0.127379
0.127389
0.127392
0.12739
0.127379
0.127361
0.127342
0.127321
0.127301
0.127282
0.127267
0.127259
0.127258
0.127264
0.127276
0.127289
0.127299
0.127298
0.127275
0.127221
0.127124
0.126975
0.126765
0.126484
0.126127
0.125688
0.125164
0.124558
0.123879
0.123143
0.122379
0.121622
0.120915
0.120303
0.119825
0.119507
0.119355
0.119352
0.119455
0.119598
0.119697
0.11965
0.119343
0.118646
0.117409
0.115454
0.112572
0.1085
0.102928
0.0954546
0.0856871
0.0728599
0.057141
0.0352249
0.0170742
0.175009
0.133654
0.113133
0.117002
0.12168
0.122609
0.123031
0.123937
0.124901
0.125673
0.126279
0.126786
0.127215
0.127568
0.127855
0.128093
0.128289
0.128433
0.128524
0.128573
0.128605
0.128638
0.128678
0.128721
0.128762
0.128794
0.128816
0.12883
0.128841
0.128836
0.128824
0.128808
0.128787
0.128764
0.128738
0.128713
0.128691
0.128673
0.128659
0.128648
0.128637
0.128621
0.128591
0.12854
0.128456
0.128328
0.128147
0.127903
0.127587
0.127194
0.12672
0.126165
0.125532
0.124833
0.124083
0.123309
0.122544
0.121824
0.12119
0.120675
0.120302
0.120077
0.119985
0.119987
0.120024
0.120018
0.119875
0.119487
0.118728
0.117452
0.115486
0.11262
0.108593
0.103097
0.0957265
0.0860909
0.0733925
0.057861
0.0357932
0.0178489
0.181604
0.130824
0.111424
0.117287
0.122019
0.12296
0.123552
0.124558
0.12557
0.126387
0.127042
0.127592
0.128061
0.128452
0.128776
0.129048
0.129275
0.129448
0.129567
0.129643
0.129699
0.129751
0.129805
0.129859
0.129908
0.129948
0.129976
0.129996
0.130005
0.129998
0.129984
0.129964
0.129936
0.129902
0.129863
0.129822
0.129781
0.129743
0.129706
0.12967
0.129632
0.129589
0.129532
0.129453
0.12934
0.129185
0.128974
0.1287
0.128355
0.127933
0.127431
0.12685
0.126195
0.125478
0.124715
0.123931
0.123156
0.122424
0.121771
0.121228
0.120816
0.120541
0.120389
0.120325
0.120295
0.120226
0.120026
0.119592
0.118802
0.117511
0.115548
0.112705
0.108722
0.103292
0.096007
0.0864826
0.0738922
0.0585348
0.0363511
0.0185945
0.188112
0.127298
0.109939
0.117575
0.122264
0.123256
0.123997
0.12507
0.12611
0.126958
0.127644
0.128223
0.128717
0.129133
0.12948
0.129774
0.13002
0.13021
0.130346
0.130439
0.130509
0.13057
0.130631
0.130689
0.13074
0.130781
0.130809
0.130826
0.130825
0.130815
0.130795
0.130766
0.130728
0.130681
0.130629
0.130572
0.130514
0.130456
0.130399
0.130343
0.130284
0.130219
0.130141
0.13004
0.129907
0.12973
0.129499
0.129204
0.128838
0.128396
0.127876
0.127278
0.126609
0.125881
0.125109
0.124317
0.123535
0.122793
0.122127
0.121564
0.121127
0.12082
0.120631
0.120527
0.120458
0.120352
0.120123
0.119667
0.118864
0.117572
0.115621
0.112803
0.108861
0.103488
0.0962751
0.0868443
0.0743452
0.0591461
0.0368842
0.0192959
0.194458
0.123235
0.108717
0.117828
0.122426
0.123479
0.124325
0.125431
0.126484
0.127347
0.12805
0.128643
0.12915
0.129579
0.129939
0.130244
0.1305
0.1307
0.130844
0.130945
0.131021
0.131086
0.131148
0.131206
0.131256
0.131295
0.131322
0.131331
0.131327
0.131312
0.131286
0.131249
0.131202
0.131146
0.131083
0.131015
0.130945
0.130875
0.130805
0.130735
0.130663
0.130584
0.130492
0.130378
0.130232
0.130042
0.129798
0.129492
0.129114
0.128661
0.12813
0.127524
0.126848
0.126113
0.125337
0.124541
0.123754
0.123006
0.122331
0.121757
0.121303
0.120976
0.120765
0.12064
0.120549
0.120425
0.120181
0.119717
0.118914
0.117629
0.115693
0.112901
0.108996
0.103672
0.0965201
0.0871685
0.0747473
0.0596886
0.037384
0.0199483
0.200641
0.118901
0.107785
0.118021
0.122509
0.123611
0.124518
0.125637
0.126693
0.127563
0.128274
0.128874
0.129387
0.129822
0.130187
0.130498
0.130759
0.130962
0.131111
0.131216
0.131294
0.131361
0.131423
0.13148
0.131529
0.131566
0.131589
0.131598
0.131591
0.131572
0.131542
0.1315
0.131448
0.131387
0.131318
0.131244
0.131167
0.131089
0.131012
0.130935
0.130856
0.13077
0.130671
0.13055
0.130397
0.130201
0.129951
0.129639
0.129256
0.128798
0.128263
0.127653
0.126974
0.126237
0.125459
0.124662
0.123872
0.123121
0.12244
0.121858
0.121395
0.121057
0.120834
0.120697
0.120595
0.120463
0.120215
0.119751
0.118953
0.117679
0.11576
0.112993
0.109121
0.103839
0.0967393
0.087455
0.0751012
0.0601642
0.0378472
0.0205557
0.206804
0.114813
0.10715
0.118138
0.122526
0.123659
0.124597
0.125722
0.126781
0.127655
0.128369
0.128972
0.129488
0.129925
0.130294
0.130607
0.13087
0.131075
0.131226
0.131332
0.131412
0.131479
0.131542
0.131599
0.131647
0.131682
0.131705
0.131714
0.131705
0.131684
0.131652
0.131609
0.131554
0.13149
0.131419
0.131342
0.131262
0.131182
0.131102
0.131021
0.130939
0.130851
0.130749
0.130625
0.130469
0.130271
0.130019
0.129704
0.12932
0.128861
0.128325
0.127714
0.127035
0.126298
0.125519
0.124721
0.123931
0.123178
0.122494
0.121908
0.121439
0.121094
0.120865
0.120722
0.120616
0.120481
0.120234
0.119774
0.118984
0.117722
0.115821
0.113077
0.109234
0.10399
0.0969369
0.0877115
0.0754179
0.0605858
0.0382798
0.021137
0.212901
0.111607
0.106754
0.118187
0.122506
0.123653
0.124604
0.125737
0.126799
0.127675
0.128391
0.128996
0.129514
0.129953
0.130323
0.130638
0.130901
0.131108
0.131259
0.131366
0.131446
0.131514
0.131576
0.131633
0.131681
0.131717
0.131739
0.131747
0.131739
0.131718
0.131686
0.131642
0.131587
0.131522
0.13145
0.131372
0.131292
0.13121
0.13113
0.131049
0.130966
0.130876
0.130774
0.130649
0.130493
0.130294
0.130042
0.129728
0.129343
0.128885
0.128349
0.127739
0.127061
0.126325
0.125547
0.12475
0.123959
0.123204
0.122519
0.121929
0.121457
0.121109
0.120876
0.12073
0.120623
0.120489
0.120245
0.119792
0.11901
0.117761
0.115878
0.113156
0.109342
0.104133
0.0971223
0.0879506
0.0757135
0.0609755
0.0386929
0.0217254
0.217628
0.109664
0.106529
0.118214
0.122484
0.123628
0.124588
0.125727
0.126792
0.127669
0.128387
0.128993
0.129511
0.129951
0.130321
0.130637
0.1309
0.131107
0.131259
0.131366
0.131446
0.131514
0.131577
0.131635
0.131683
0.131719
0.131742
0.13175
0.131741
0.13172
0.131688
0.131644
0.131588
0.131524
0.131452
0.131375
0.131294
0.131213
0.131132
0.131052
0.130969
0.13088
0.130777
0.130653
0.130497
0.130299
0.130047
0.129734
0.12935
0.128892
0.128358
0.12775
0.127072
0.126337
0.12556
0.124763
0.123972
0.123217
0.12253
0.121939
0.121464
0.121113
0.120879
0.120731
0.120625
0.120493
0.120252
0.119805
0.119032
0.117796
0.115928
0.113226
0.109437
0.10426
0.0972863
0.0881616
0.0759731
0.0613192
0.0390522
0.0222855
)
;

boundaryField
{
    inlet
    {
        type            zeroGradient;
    }
    outlet
    {
        type            fixedValue;
        value           uniform 0;
    }
    fixedWalls
    {
        type            zeroGradient;
    }
    frontAndBack
    {
        type            empty;
    }
}


// ************************************************************************* //
