/*--------------------------------*- C++ -*----------------------------------*\
| =========                 |                                                 |
| \\      /  F ield         | OpenFOAM: The Open Source CFD Toolbox           |
|  \\    /   O peration     | Version:  v1912                                 |
|   \\  /    A nd           | Website:  www.openfoam.com                      |
|    \\/     M anipulation  |                                                 |
\*---------------------------------------------------------------------------*/
FoamFile
{
    version     2.0;
    format      ascii;
    class       volVectorField;
    location    "450";
    object      U;
}
// * * * * * * * * * * * * * * * * * * * * * * * * * * * * * * * * * * * * * //

dimensions      [0 1 -1 0 0 0 0];


internalField   nonuniform List<vector> 
2000
(
(0.84616 0.187394 0)
(0.515132 0.124089 0)
(0.223446 0.0684421 0)
(0.0598043 0.0174441 6.19675e-20)
(-0.00455634 -0.023218 1.20859e-17)
(-0.0642152 -0.0384692 1.04393e-17)
(-0.077618 -0.0372463 0)
(-0.0716083 -0.0167136 0)
(-0.0590596 0.0115784 0)
(-0.0420867 0.0253109 2.37071e-17)
(-0.0415062 0.0107967 -1.45243e-17)
(-0.0273133 -0.000923952 -1.364e-17)
(-0.0160448 -0.00295748 0)
(-0.0193504 -0.00266936 0)
(-0.020894 -0.00199501 -1.08423e-17)
(-0.0153153 0.000814953 0)
(-0.00854272 0.00355798 9.76576e-18)
(-0.00786634 0.00646155 3.62917e-21)
(-0.00906754 0.00619218 9.43885e-18)
(-0.00990291 0.00494407 -4.65843e-18)
(-0.00990606 0.00293761 9.21064e-18)
(-0.00899529 0.00104328 0)
(-0.00728098 0.00015431 0)
(-0.00526569 -0.000194305 1.32331e-23)
(-0.00347735 -0.000343616 0)
(-0.00206626 -0.000419312 -4.52074e-18)
(-0.00110561 -0.00049148 0)
(-0.000528802 -0.00059799 4.53415e-18)
(-0.000156827 -0.000719009 0)
(0.000196686 -0.000778114 0)
(0.00056871 -0.000741749 0)
(0.000944569 -0.000669749 1.15278e-18)
(0.00131114 -0.000613089 0)
(0.00165853 -0.000596424 -5.84796e-19)
(0.00197268 -0.000619681 1.95136e-14)
(0.00222544 -0.000667698 1.94963e-14)
(0.00240075 -0.000722042 6.02795e-19)
(0.0024886 -0.000774007 -6.10293e-19)
(0.0024412 -0.000843308 0)
(0.00224464 -0.000936401 2.5107e-18)
(0.00188767 -0.0010415 0)
(0.0013413 -0.00114011 -2.59371e-18)
(0.00057569 -0.00121151 0)
(-0.000495193 -0.00124637 -5.37453e-18)
(-0.00193663 -0.00124589 2.72999e-18)
(-0.00378267 -0.00128516 0)
(-0.00614331 -0.00141059 0)
(-0.0091763 -0.00155361 -2.85878e-18)
(-0.0131869 -0.00142815 0)
(-0.0187589 -0.000461721 2.92938e-18)
(-0.0268319 0.00202901 0)
(-0.0386455 0.00634163 5.89649e-18)
(-0.0555431 0.0119294 -5.84474e-18)
(-0.0786096 0.0174275 5.72635e-18)
(-0.108174 0.021078 -2.7374e-18)
(-0.143419 0.0211051 0)
(-0.18236 0.0162314 2.34164e-18)
(-0.222156 0.00620503 -2.09349e-18)
(-0.259142 -0.00802869 -4.12318e-18)
(-0.28854 -0.0243304 3.36047e-18)
(-0.305428 -0.0394813 -3.31717e-18)
(-0.308101 -0.0501338 3.54537e-18)
(-0.30175 -0.05623 -4.03702e-18)
(-0.286808 -0.0591527 4.8383e-18)
(-0.264374 -0.0599532 -7.57261e-21)
(-0.235353 -0.059386 7.21939e-18)
(-0.200192 -0.057682 0)
(-0.159062 -0.0548469 0)
(-0.112191 -0.0508763 7.41448e-20)
(-0.0602664 -0.0458116 0)
(-0.00451237 -0.0395942 1.9841e-17)
(0.0548166 -0.0318764 0)
(0.118148 -0.0224974 1.98619e-17)
(0.184937 -0.0115886 -4.87233e-19)
(0.254452 0.00061685 1.71538e-17)
(0.328012 0.0138171 2.98511e-17)
(0.402096 0.0276334 7.34617e-19)
(0.48993 0.0416088 -1.01489e-17)
(0.555982 0.0540763 -6.5314e-18)
(0.713018 0.0648036 0)
(1.0153 0.210384 0)
(0.944633 0.194212 0)
(0.804473 0.179985 -3.53316e-18)
(0.654418 0.152316 7.29736e-18)
(0.509218 0.111172 0)
(0.36003 0.0683762 -7.30016e-18)
(0.216487 0.0293347 0)
(0.0821337 -0.00529198 0)
(-0.028278 -0.0180382 0)
(-0.0562773 -0.0188572 -1.73351e-17)
(-0.0668518 -0.0248641 1.57678e-17)
(-0.0720906 -0.0159646 1.44595e-17)
(-0.0641808 0.00608587 0)
(-0.0515675 0.0199045 6.32843e-18)
(-0.0554609 0.00880022 0)
(-0.0492698 -0.00388098 0)
(-0.0381046 -0.00462565 0)
(-0.0324578 -0.00132368 5.27608e-18)
(-0.0358313 0.000702503 -1.03553e-17)
(-0.0377241 0.000764888 -5.10277e-18)
(-0.0381951 0.000171792 0)
(-0.0369093 -0.000694143 0)
(-0.0340046 -0.00165135 0)
(-0.0306591 -0.00212053 -7.44373e-18)
(-0.0275023 -0.00196713 0)
(-0.0247726 -0.00133748 4.97207e-18)
(-0.0226727 -0.000502484 2.49312e-18)
(-0.0213424 0.000160865 0)
(-0.0208506 0.000382484 0)
(-0.02106 0.000323506 0)
(-0.0217753 0.000122773 0)
(-0.0227654 -6.98249e-05 -6.34477e-19)
(-0.0238767 -0.000219834 0)
(-0.0250398 -0.000307341 3.21011e-19)
(-0.0262596 -0.000304751 1.61672e-19)
(-0.0275982 -0.000195899 0)
(-0.0290984 9.17048e-06 0)
(-0.030782 0.000285505 6.64203e-19)
(-0.0326584 0.000610665 0)
(-0.0347789 0.000981679 -1.35628e-18)
(-0.037169 0.00141577 0)
(-0.0398559 0.00194047 -1.38781e-18)
(-0.0428674 0.00257773 0)
(-0.0462324 0.00332954 1.41778e-18)
(-0.0499641 0.0041932 1.43755e-18)
(-0.0540582 0.0051946 0)
(-0.0585001 0.00648211 0)
(-0.0632772 0.00837324 -2.97576e-18)
(-0.0683651 0.0113518 0)
(-0.0737086 0.0160058 1.26915e-20)
(-0.0792844 0.0228602 0)
(-0.0852316 0.0320288 0)
(-0.0918656 0.042805 0)
(-0.0994591 0.0536144 0)
(-0.107729 0.062287 6.01386e-18)
(-0.115229 0.0664755 0)
(-0.1196 0.0641759 -5.50799e-18)
(-0.118944 0.0544117 2.67477e-18)
(-0.112049 0.0380735 -2.34782e-18)
(-0.0952246 0.017963 -4.95661e-18)
(-0.0632698 -0.00416524 5.11222e-18)
(-0.0441026 -0.0299502 -5.63937e-18)
(-0.0191665 -0.050832 6.5924e-18)
(0.00900761 -0.0655636 0)
(0.0399238 -0.0757974 -1.30334e-17)
(0.0742292 -0.0830313 -9.69999e-18)
(0.112719 -0.0880844 0)
(0.155614 -0.0910357 5.74468e-18)
(0.202595 -0.0916227 1.25483e-17)
(0.253121 -0.0896279 0)
(0.306571 -0.0849382 0)
(0.362381 -0.0774971 0)
(0.420084 -0.0674132 0)
(0.479411 -0.054989 -1.35833e-17)
(0.540108 -0.0407384 5.92352e-18)
(0.603027 -0.0253156 -1.17477e-17)
(0.666574 -0.00966035 1.01465e-17)
(0.738534 0.00518965 -3.46362e-18)
(0.795605 0.0167691 0)
(0.911587 0.0222406 0)
(0.978489 0.201539 0)
(0.978854 0.193008 -2.79007e-18)
(0.969154 0.205115 3.48557e-18)
(0.939082 0.208537 -3.0644e-18)
(0.87803 0.194613 2.88896e-18)
(0.785599 0.168726 2.84705e-18)
(0.66934 0.138085 0)
(0.540997 0.106024 0)
(0.408202 0.0750637 0)
(0.285899 0.0459413 6.87743e-18)
(0.173812 0.0180399 0)
(0.0721966 -0.00635144 0)
(-0.0213593 -0.0139188 0)
(-0.0471081 -0.003739 -7.192e-18)
(-0.0514494 -0.0117694 0)
(-0.0599488 -0.018407 -6.04463e-18)
(-0.061098 -0.0116043 0)
(-0.0504222 0.00825999 5.86681e-18)
(-0.0479369 0.0158529 2.87177e-18)
(-0.0521791 0.012177 0)
(-0.0540989 0.00593331 -2.79082e-18)
(-0.0554885 -0.000260072 0)
(-0.0555796 -0.00440188 0)
(-0.0541837 -0.00605681 5.44842e-18)
(-0.052222 -0.00607072 0)
(-0.0507774 -0.00523178 1.36268e-18)
(-0.0504748 -0.0038135 -4.09182e-18)
(-0.0512809 -0.00191456 0)
(-0.0526731 3.08127e-06 0)
(-0.0542187 0.00141016 -6.83762e-19)
(-0.0559391 0.00233165 0)
(-0.0577856 0.00284819 2.01651e-22)
(-0.0596803 0.00308912 0)
(-0.0615694 0.00320155 6.92129e-19)
(-0.0634453 0.00333055 8.70131e-20)
(-0.0653596 0.00352072 0)
(-0.0673538 0.00377213 1.76523e-19)
(-0.06944 0.00407314 -3.56052e-19)
(-0.0716029 0.00442581 -3.59417e-19)
(-0.0738109 0.00483766 -7.26321e-19)
(-0.0760271 0.00532615 7.34592e-19)
(-0.0782253 0.00591705 7.42241e-19)
(-0.0803983 0.00663241 0)
(-0.082536 0.00747376 1.52404e-18)
(-0.0845652 0.00841864 -3.09351e-18)
(-0.086281 0.00946377 0)
(-0.0873161 0.0107018 -1.59824e-18)
(-0.0871768 0.0124276 3.24889e-18)
(-0.0852908 0.0151385 0)
(-0.080985 0.0193678 -1.6935e-18)
(-0.0735259 0.025573 1.7697e-18)
(-0.0623344 0.0339714 -1.83185e-18)
(-0.0470047 0.0437633 -1.89757e-18)
(-0.0274626 0.0534561 0)
(-0.00390055 0.0609433 -3.93508e-18)
(0.0236864 0.0638635 -1.88997e-18)
(0.0552582 0.0599928 1.6532e-18)
(0.0889083 0.0484961 1.54802e-18)
(0.123155 0.028236 2.6105e-18)
(0.155481 0.00180685 0)
(0.186209 -0.0244355 0)
(0.21441 -0.0464042 0)
(0.242888 -0.0645876 -1.33409e-18)
(0.274533 -0.0800537 0)
(0.310396 -0.0933806 3.25341e-18)
(0.350037 -0.10461 0)
(0.392578 -0.11348 -1.99869e-18)
(0.43717 -0.119589 -4.47424e-18)
(0.483034 -0.122543 0)
(0.529509 -0.122086 -2.47392e-18)
(0.576112 -0.118183 2.57538e-18)
(0.622575 -0.111053 0)
(0.668834 -0.101166 0)
(0.715067 -0.0891796 0)
(0.761505 -0.0759044 -5.39546e-18)
(0.809017 -0.0622499 0)
(0.856895 -0.0494041 -1.88132e-18)
(0.910079 -0.0384774 3.36379e-18)
(0.953058 -0.031876 0)
(1.0355 -0.0309716 3.92805e-19)
(0.970611 0.209118 0)
(0.963917 0.194768 1.52758e-18)
(0.96643 0.198518 0)
(0.977153 0.206413 1.69654e-18)
(0.982035 0.208892 -3.00799e-18)
(0.968293 0.204275 -1.34284e-18)
(0.930744 0.193734 0)
(0.870746 0.177885 0)
(0.791109 0.156589 0)
(0.69538 0.131345 1.35279e-18)
(0.589435 0.105427 1.3845e-18)
(0.480013 0.0807126 0)
(0.369222 0.0580272 0)
(0.26664 0.0376552 0)
(0.179605 0.0185821 0)
(0.100324 0.00270903 6.40535e-18)
(0.0295131 -0.00986896 -3.38845e-18)
(-0.0314889 -0.00952013 0)
(-0.0347405 0.000469409 -3.28148e-18)
(-0.0367954 0.00203736 1.61641e-18)
(-0.0371411 0.000883907 3.20647e-18)
(-0.0385253 -0.00175285 0)
(-0.0416566 -0.0043477 0)
(-0.04562 -0.0054724 -3.11585e-18)
(-0.0487573 -0.00442194 0)
(-0.0504252 -0.00155249 -1.54426e-18)
(-0.0515846 0.00197117 1.5451e-18)
(-0.053774 0.00449184 0)
(-0.0557367 0.00566506 0)
(-0.0578664 0.00620325 7.68358e-19)
(-0.0597605 0.00628271 0)
(-0.0613945 0.00604267 -7.71262e-19)
(-0.0627198 0.00562978 0)
(-0.0637179 0.00519106 -1.94953e-19)
(-0.0644992 0.00494243 -9.81502e-20)
(-0.0651128 0.00496022 -2.47344e-20)
(-0.0655294 0.00518801 -2.99836e-19)
(-0.0656433 0.00560489 4.04362e-19)
(-0.0653756 0.00611138 4.09599e-19)
(-0.0646463 0.00666264 1.2469e-18)
(-0.063366 0.00725999 -4.22376e-19)
(-0.0614557 0.00792435 4.29971e-19)
(-0.0588683 0.00866106 0)
(-0.0555795 0.00940759 8.99076e-19)
(-0.0515228 0.00999139 9.17213e-19)
(-0.0465229 0.0101235 0)
(-0.0402424 0.00948718 1.94268e-18)
(-0.0322527 0.00789224 1.00435e-18)
(-0.0222995 0.00561413 0)
(-0.00984907 0.00344939 -3.25731e-18)
(0.0063349 0.00198403 -2.22472e-18)
(0.0273838 0.00173161 1.10431e-18)
(0.0533447 0.00257744 2.15719e-18)
(0.0847499 0.00375811 0)
(0.121632 0.00388684 9.75883e-19)
(0.163193 0.00131509 2.68052e-18)
(0.208211 -0.00541048 1.5931e-18)
(0.254631 -0.0167924 -1.40304e-18)
(0.30203 -0.0317723 -6.48939e-19)
(0.348367 -0.0488983 0)
(0.393068 -0.0674129 0)
(0.436072 -0.086001 0)
(0.478199 -0.103577 1.74308e-18)
(0.520283 -0.119518 6.55441e-19)
(0.562351 -0.133395 0)
(0.603827 -0.144734 -1.57984e-18)
(0.644042 -0.153034 1.75186e-18)
(0.682512 -0.157885 -1.88235e-18)
(0.718979 -0.15907 -2.02648e-18)
(0.75341 -0.1566 1.25117e-19)
(0.785997 -0.150735 -2.41659e-18)
(0.817137 -0.141953 0)
(0.847366 -0.130902 0)
(0.877348 -0.118342 0)
(0.907686 -0.105113 0)
(0.93929 -0.0920899 0)
(0.971832 -0.0803275 3.66876e-18)
(1.00865 -0.0706766 -1.34272e-18)
(1.0389 -0.0650891 0)
(1.0961 -0.0633731 -4.23448e-19)
(0.972988 0.216082 0)
(0.965832 0.20181 1.87361e-18)
(0.959206 0.195604 2.49567e-19)
(0.96149 0.195551 1.90974e-18)
(0.97267 0.197544 0)
(0.985522 0.199245 -1.60965e-18)
(0.992499 0.199307 0)
(0.988452 0.196267 -3.63015e-19)
(0.970213 0.18905 0)
(0.93562 0.177587 -1.60804e-18)
(0.884712 0.162778 -1.24464e-18)
(0.81959 0.145694 -3.15813e-19)
(0.743279 0.126753 3.13463e-19)
(0.65805 0.106128 0)
(0.569126 0.0852927 3.13424e-19)
(0.479333 0.066254 0)
(0.393436 0.0502768 2.65624e-18)
(0.314057 0.0363704 -3.51567e-19)
(0.24694 0.024321 0)
(0.192071 0.0147458 -1.90181e-18)
(0.147223 0.00788806 0)
(0.109868 0.00333021 0)
(0.0788545 0.000727682 0)
(0.052721 -0.000770269 0)
(0.0309576 -0.00183188 -2.22354e-19)
(0.0140977 -0.00235451 0)
(0.000865573 -0.00167792 0)
(-0.00416192 0.000470147 1.15642e-19)
(-0.00635392 0.00197709 0)
(-0.00619512 0.00306932 0)
(-0.00466778 0.00375953 0)
(-0.00231335 0.00415476 -5.88099e-20)
(0.000393891 0.0043318 0)
(0.00385533 0.00422243 -2.68281e-19)
(0.00685305 0.00470638 0)
(0.0105068 0.00539081 3.01272e-20)
(0.0148038 0.00562419 1.51421e-19)
(0.0200638 0.00534326 3.03885e-20)
(0.0264323 0.00481933 -6.10246e-20)
(0.0340219 0.00411042 -4.90238e-19)
(0.0429892 0.00322347 -4.91391e-19)
(0.0535135 0.00220105 4.91949e-19)
(0.0657629 0.00107665 -1.23012e-19)
(0.0799304 -0.000163405 -9.80483e-19)
(0.0962175 -0.00158204 9.74986e-19)
(0.114674 -0.00329379 -1.21071e-19)
(0.13538 -0.0054654 0)
(0.158322 -0.00824579 -9.4527e-19)
(0.182999 -0.0116807 0)
(0.209731 -0.0157205 9.18876e-19)
(0.238706 -0.0200668 0)
(0.270068 -0.0245484 8.89933e-19)
(0.304045 -0.0290828 0)
(0.340925 -0.0337953 -2.09553e-19)
(0.380874 -0.0390911 -7.97064e-19)
(0.423744 -0.0456013 -7.41515e-19)
(0.468953 -0.0540047 1.72883e-19)
(0.515466 -0.064812 0)
(0.561901 -0.0783532 5.47912e-19)
(0.606843 -0.0941069 -1.38667e-19)
(0.649438 -0.111121 0)
(0.689283 -0.128092 1.38979e-19)
(0.72627 -0.143812 -5.42837e-19)
(0.760373 -0.15747 -5.98327e-19)
(0.791465 -0.168544 0)
(0.819367 -0.176633 1.49143e-18)
(0.844014 -0.181441 0)
(0.865563 -0.182827 1.83979e-18)
(0.884403 -0.18085 2.01415e-18)
(0.901114 -0.175763 2.17553e-18)
(0.916416 -0.16799 2.70715e-19)
(0.931107 -0.15809 0)
(0.945996 -0.146712 0)
(0.96187 -0.134553 0)
(0.979346 -0.122341 -2.69037e-19)
(0.999174 -0.110801 0)
(1.021 -0.100742 -1.67084e-18)
(1.0473 -0.0928197 1.64569e-18)
(1.06926 -0.0882769 1.03731e-19)
(1.11279 -0.0870318 4.49886e-20)
(0.974194 0.218515 -1.23404e-18)
(0.970935 0.206365 1.19437e-18)
(0.965119 0.198176 -2.82406e-19)
(0.96114 0.194117 0)
(0.962199 0.191949 0)
(0.968263 0.190553 0)
(0.977776 0.189896 0)
(0.988508 0.189497 1.25401e-18)
(0.997439 0.188329 0)
(1.00094 0.185385 -1.12105e-18)
(0.99578 0.179987 -1.39743e-18)
(0.979844 0.171941 3.204e-19)
(0.952675 0.161472 9.67789e-19)
(0.914331 0.148677 0)
(0.865635 0.133759 -1.47674e-18)
(0.808232 0.117853 0)
(0.746058 0.102472 -1.1805e-18)
(0.68364 0.0879755 2.95234e-19)
(0.622865 0.0743877 -1.23503e-18)
(0.565781 0.0621111 -9.51203e-19)
(0.513223 0.0513509 0)
(0.465537 0.0420928 0)
(0.422906 0.0342125 -6.83985e-19)
(0.385283 0.0276077 0)
(0.352537 0.0221413 -5.43217e-19)
(0.324462 0.0176319 0)
(0.300614 0.0137943 0)
(0.280794 0.0103757 -9.58329e-20)
(0.264869 0.0074344 0)
(0.252498 0.00500134 0)
(0.243367 0.00301916 0)
(0.237237 0.00139893 5.06736e-20)
(0.23383 3.19537e-05 2.05253e-19)
(0.233107 -0.00111247 1.29185e-19)
(0.23485 -0.00244983 0)
(0.239233 -0.00407188 0)
(0.246039 -0.00584948 -2.59253e-20)
(0.255002 -0.00780713 -1.29832e-19)
(0.266232 -0.00999025 5.16208e-20)
(0.279642 -0.0123936 0)
(0.295076 -0.0150087 0)
(0.312428 -0.0178285 -2.04838e-19)
(0.331642 -0.0208497 1.01086e-19)
(0.352682 -0.0240908 -4.04325e-19)
(0.375514 -0.0276108 4.00745e-19)
(0.400069 -0.0315027 9.81234e-20)
(0.426219 -0.0358687 0)
(0.453764 -0.040734 3.87307e-19)
(0.482491 -0.0459964 0)
(0.512261 -0.0515298 0)
(0.542954 -0.0571977 0)
(0.57449 -0.0628865 0)
(0.60686 -0.0685698 0)
(0.640085 -0.0743893 1.76105e-19)
(0.674115 -0.0806846 0)
(0.708723 -0.0879358 6.65343e-19)
(0.743429 -0.0966294 -1.52076e-19)
(0.7775 -0.107079 0)
(0.810038 -0.119244 5.82829e-19)
(0.840157 -0.132575 1.29149e-19)
(0.867165 -0.14622 5.72679e-19)
(0.890638 -0.159247 -1.34248e-19)
(0.910412 -0.170821 0)
(0.926545 -0.180333 -6.69137e-19)
(0.939242 -0.187388 0)
(0.948817 -0.19174 0)
(0.955722 -0.193275 -8.58439e-19)
(0.96056 -0.19202 0)
(0.964067 -0.188155 0)
(0.967047 -0.181993 -1.06505e-18)
(0.970317 -0.173951 -2.95459e-19)
(0.974656 -0.164523 0)
(0.980752 -0.154245 0)
(0.989201 -0.143673 0)
(1.00039 -0.13337 3.00591e-19)
(1.01481 -0.123884 -1.02776e-18)
(1.03193 -0.115802 -2.39487e-19)
(1.0538 -0.109601 -1.88044e-19)
(1.07231 -0.106017 -1.17482e-19)
(1.11063 -0.10515 -2.4007e-19)
(0.974501 0.219011 4.36038e-18)
(0.973757 0.208037 -4.18682e-18)
(0.971714 0.200428 0)
(0.96916 0.196215 -2.54012e-18)
(0.967055 0.192943 0)
(0.966168 0.18932 -2.23975e-18)
(0.967424 0.185829 0)
(0.971676 0.183022 2.98252e-18)
(0.978987 0.180748 -3.70318e-18)
(0.988297 0.178508 1.69091e-18)
(0.99771 0.175803 1.58074e-18)
(1.005 0.172186 0)
(1.00814 0.167303 -4.27501e-18)
(1.00548 0.160734 -2.72263e-18)
(0.995621 0.152135 3.82653e-18)
(0.97782 0.141812 0)
(0.953066 0.130632 1.17201e-18)
(0.923771 0.119341 0)
(0.891716 0.108125 1.16848e-18)
(0.858189 0.0969763 1.16835e-18)
(0.82423 0.0861019 0)
(0.790829 0.0757761 0)
(0.75886 0.066201 -6.40018e-19)
(0.728996 0.0574817 0)
(0.701677 0.049597 6.21672e-19)
(0.677128 0.0424627 0)
(0.655466 0.0359892 0)
(0.636718 0.0300973 0)
(0.620914 0.0247032 0)
(0.607997 0.0197268 0)
(0.597903 0.0150852 0)
(0.590582 0.0106958 0)
(0.585975 0.00647192 1.77245e-19)
(0.583979 0.00233619 -8.59597e-20)
(0.584422 -0.00185834 4.39743e-20)
(0.587326 -0.00617269 0)
(0.592581 -0.0105912 0)
(0.599954 -0.0150665 8.60199e-20)
(0.609277 -0.019616 -3.51498e-19)
(0.620383 -0.0242681 3.51422e-19)
(0.633093 -0.0290246 0)
(0.647244 -0.0338754 8.7447e-19)
(0.662695 -0.0388179 -7.02907e-19)
(0.679317 -0.0438682 -3.60014e-19)
(0.696978 -0.0490641 -3.42132e-19)
(0.71553 -0.0544548 0)
(0.734796 -0.0600767 0)
(0.754569 -0.0659184 -1.03937e-18)
(0.77464 -0.0719124 0)
(0.794831 -0.0779738 0)
(0.815006 -0.0840166 0)
(0.835078 -0.0899791 6.99701e-19)
(0.855007 -0.0958753 1.39541e-18)
(0.874766 -0.101834 0)
(0.89428 -0.108102 0)
(0.913362 -0.114985 -6.44698e-19)
(0.931666 -0.122759 0)
(0.948694 -0.131549 1.29348e-18)
(0.963857 -0.141241 6.87426e-19)
(0.976582 -0.151456 0)
(0.986448 -0.161626 7.03402e-19)
(0.993275 -0.171118 1.34648e-18)
(0.997145 -0.179341 1.41893e-18)
(0.998364 -0.185835 7.21599e-19)
(0.997394 -0.190307 -1.62904e-18)
(0.994795 -0.192609 1.7587e-18)
(0.991192 -0.192715 2.84866e-18)
(0.987266 -0.190707 0)
(0.983713 -0.186768 0)
(0.981207 -0.181169 1.19682e-18)
(0.980357 -0.174246 0)
(0.981687 -0.166379 2.49906e-18)
(0.985617 -0.157981 2.52992e-18)
(0.992483 -0.14948 0)
(1.00245 -0.141313 2.39762e-18)
(1.01583 -0.133907 -1.03879e-18)
(1.03196 -0.127704 0)
(1.05276 -0.123052 0)
(1.07039 -0.12041 0)
(1.1072 -0.119957 -1.92471e-19)
(0.974733 0.218938 -3.35886e-18)
(0.975458 0.208203 3.21538e-18)
(0.976057 0.201061 -6.24449e-18)
(0.975937 0.19737 2.87288e-18)
(0.974876 0.194465 0)
(0.973203 0.190793 2.53308e-18)
(0.971491 0.186593 -4.84884e-18)
(0.970478 0.182351 -4.49562e-18)
(0.971002 0.178145 -7.91881e-20)
(0.973718 0.17397 0)
(0.978827 0.169893 0)
(0.985995 0.165885 3.60012e-18)
(0.994405 0.161717 3.29483e-18)
(1.00289 0.15697 -3.28029e-18)
(1.01001 0.151253 -8.90478e-18)
(1.01433 0.144469 0)
(1.01495 0.136917 0)
(1.01191 0.1289 0)
(1.00569 0.120407 0)
(0.996757 0.111426 0)
(0.98562 0.102163 0)
(0.972908 0.0928937 0)
(0.959304 0.0838292 1.24152e-18)
(0.945437 0.0750827 -2.58968e-18)
(0.931826 0.0666873 0)
(0.918875 0.0586461 0)
(0.906899 0.0509569 0)
(0.89614 0.043594 0)
(0.886763 0.0364993 0)
(0.878874 0.02963 -6.63624e-19)
(0.872547 0.0229543 0)
(0.86783 0.0164333 0)
(0.864741 0.0100201 1.25381e-20)
(0.863229 0.00364761 0)
(0.863193 -0.00260983 -4.10146e-20)
(0.864559 -0.00878784 0)
(0.867217 -0.0149521 1.70522e-19)
(0.871016 -0.0211059 0)
(0.875827 -0.0272406 6.7191e-19)
(0.881532 -0.0333481 -3.30615e-19)
(0.888012 -0.0394123 -6.90064e-19)
(0.895151 -0.0454183 -6.67539e-19)
(0.90284 -0.051364 6.71383e-19)
(0.910976 -0.0572636 6.75436e-19)
(0.919454 -0.0631449 1.41141e-18)
(0.928156 -0.0690391 1.42021e-18)
(0.936948 -0.0749647 0)
(0.945689 -0.0809117 -7.46482e-19)
(0.954248 -0.086836 0)
(0.962523 -0.0926774 0)
(0.97046 -0.098381 -1.47533e-18)
(0.978041 -0.103923 -7.1821e-19)
(0.985284 -0.109341 5.03658e-20)
(0.992203 -0.114749 0)
(0.998776 -0.120333 0)
(1.0049 -0.126309 0)
(1.01034 -0.13286 1.48894e-18)
(1.01481 -0.140062 -1.3997e-18)
(1.01794 -0.147832 -1.39363e-18)
(1.01941 -0.155906 0)
(1.01905 -0.163879 -1.43927e-18)
(1.01685 -0.171285 9.27369e-20)
(1.01303 -0.177689 -1.59067e-18)
(1.00797 -0.18275 1.77084e-18)
(1.00213 -0.186253 -4.6407e-20)
(0.996043 -0.188093 -1.9928e-18)
(0.990224 -0.188255 -2.15492e-18)
(0.985193 -0.186799 0)
(0.98143 -0.183851 0)
(0.979364 -0.179602 0)
(0.979355 -0.174297 0)
(0.981696 -0.168224 -2.83624e-18)
(0.986615 -0.16171 -2.86939e-18)
(0.9943 -0.155109 0)
(1.00483 -0.148791 -2.71704e-18)
(1.01845 -0.143116 4.89612e-18)
(1.03454 -0.138445 0)
(1.05497 -0.135022 0)
(1.07224 -0.133182 0)
(1.10804 -0.132934 9.10671e-19)
(0.975035 0.218503 8.34988e-18)
(0.977128 0.207477 0)
(0.979624 0.200811 1.42925e-17)
(0.980943 0.197723 0)
(0.980749 0.195183 6.22122e-18)
(0.97984 0.191826 0)
(0.97866 0.187913 5.47947e-18)
(0.977188 0.183673 0)
(0.975612 0.179007 -5.04212e-18)
(0.974452 0.173915 0)
(0.974288 0.16857 8.89004e-18)
(0.975604 0.163136 -4.11516e-18)
(0.978696 0.157647 0)
(0.983585 0.152003 7.3136e-18)
(0.989925 0.146054 -1.87189e-19)
(0.997058 0.139719 -6.68676e-18)
(1.00412 0.133135 6.4807e-18)
(1.01043 0.126391 0)
(1.01561 0.119345 0)
(1.01942 0.111904 6.09141e-18)
(1.02171 0.104137 0)
(1.02255 0.0961829 -2.96391e-18)
(1.02214 0.0881597 0)
(1.02075 0.0801421 2.80789e-18)
(1.01865 0.0721748 0)
(1.01612 0.0642884 2.90053e-18)
(1.01336 0.0565022 0)
(1.01059 0.0488176 0)
(1.00795 0.041225 1.44986e-18)
(1.00556 0.0337237 6.97043e-19)
(1.00353 0.0263157 0)
(1.00192 0.0189938 0)
(1.00077 0.0117461 -1.0885e-18)
(1.00009 0.00455602 0)
(0.999822 -0.00248517 0)
(0.999935 -0.00942701 0)
(1.00039 -0.0163181 -1.77806e-19)
(1.00112 -0.0231468 0)
(1.00209 -0.0298823 -1.10524e-18)
(1.00324 -0.0365027 -7.51082e-19)
(1.00452 -0.0429931 7.26093e-19)
(1.0059 -0.0493445 0)
(1.00735 -0.0555577 0)
(1.00882 -0.0616445 1.55143e-18)
(1.01029 -0.0676253 -1.50809e-18)
(1.01171 -0.0735213 -1.52431e-18)
(1.01302 -0.0793445 0)
(1.01418 -0.0850888 -5.77781e-20)
(1.01515 -0.0907282 1.63649e-18)
(1.0159 -0.0962289 0)
(1.01645 -0.101568 1.6212e-18)
(1.01685 -0.106752 1.69541e-18)
(1.01715 -0.111831 -1.65796e-18)
(1.01741 -0.116907 0)
(1.01764 -0.122128 0)
(1.01777 -0.127652 0)
(1.01769 -0.13361 -1.67626e-18)
(1.01719 -0.14005 0)
(1.01605 -0.146905 0)
(1.01409 -0.153978 0)
(1.01121 -0.160971 3.67771e-18)
(1.00748 -0.167541 -1.81629e-18)
(1.00306 -0.17336 0)
(0.998252 -0.178157 -2.01969e-18)
(0.993407 -0.181744 -2.24062e-18)
(0.988893 -0.184006 4.65e-18)
(0.985066 -0.184894 -4.92363e-18)
(0.982257 -0.18442 -5.20203e-18)
(0.980761 -0.182654 0)
(0.980834 -0.179726 -5.71508e-18)
(0.982693 -0.175826 0)
(0.986526 -0.171195 0)
(0.992493 -0.166124 0)
(1.00076 -0.160937 5.98337e-18)
(1.01143 -0.155977 -5.7258e-18)
(1.02478 -0.151576 -7.97868e-18)
(1.04031 -0.148039 0)
(1.05989 -0.145536 3.5954e-18)
(1.07643 -0.144298 0)
(1.11066 -0.144109 -1.49866e-18)
(0.975434 0.217691 -9.47133e-18)
(0.979143 0.206091 -9.21931e-18)
(0.983424 0.200247 -1.64608e-17)
(0.985581 0.197999 0)
(0.985488 0.195683 -1.41454e-17)
(0.984789 0.19242 -6.73855e-18)
(0.984205 0.188734 0)
(0.983459 0.18473 1.20094e-17)
(0.982362 0.180206 1.12107e-17)
(0.981045 0.175111 0)
(0.97972 0.169535 -1.00541e-17)
(0.978627 0.163574 0)
(0.978082 0.157291 0)
(0.978417 0.150711 8.71594e-18)
(0.979853 0.143837 8.07786e-18)
(0.982453 0.136703 -1.8247e-19)
(0.986069 0.129519 1.84508e-19)
(0.990428 0.12244 0)
(0.995238 0.115368 0)
(1.00015 0.108184 -6.97987e-18)
(1.00484 0.100865 -7.0713e-18)
(1.00908 0.0934516 1.03647e-17)
(1.01277 0.0859869 3.45486e-18)
(1.01589 0.0785019 3.4269e-18)
(1.01847 0.0710148 0)
(1.02056 0.0635369 -3.27648e-18)
(1.02221 0.0560754 0)
(1.02348 0.0486326 0)
(1.02443 0.0412094 -3.31134e-18)
(1.02509 0.0338109 0)
(1.02552 0.0264445 0)
(1.02575 0.0191158 0)
(1.0258 0.0118305 8.21066e-19)
(1.02568 0.00460859 -4.27999e-19)
(1.02546 -0.00252095 2.13757e-19)
(1.0251 -0.00956378 0)
(1.02462 -0.0165254 0)
(1.02403 -0.0233893 0)
(1.02331 -0.0301309 8.34056e-19)
(1.02249 -0.0367329 8.39659e-19)
(1.02155 -0.0431853 -1.75348e-18)
(1.02053 -0.0494828 0)
(1.01944 -0.0556269 0)
(1.01829 -0.0616281 -3.54829e-18)
(1.0171 -0.067503 -1.82324e-18)
(1.01589 -0.0732693 0)
(1.01464 -0.0789387 0)
(1.01336 -0.0845118 1.83063e-18)
(1.01205 -0.089978 5.68253e-20)
(1.01074 -0.0953235 0)
(1.00946 -0.100544 0)
(1.00827 -0.105658 -1.92847e-18)
(1.00723 -0.110715 0)
(1.00638 -0.1158 0)
(1.00573 -0.121025 0)
(1.00523 -0.12651 0)
(1.00478 -0.132348 0)
(1.00424 -0.138572 -4.1595e-18)
(1.00344 -0.145129 0)
(1.00223 -0.151868 0)
(1.00056 -0.158563 1.63756e-19)
(0.998443 -0.164942 0)
(0.995993 -0.170731 0)
(0.993402 -0.175688 0)
(0.990902 -0.179623 1.00552e-17)
(0.988735 -0.182404 -5.26807e-18)
(0.987132 -0.183955 5.57036e-18)
(0.986309 -0.184254 1.28276e-20)
(0.986458 -0.183341 0)
(0.987758 -0.181314 6.44741e-18)
(0.990378 -0.17834 -6.56244e-18)
(0.994489 -0.174643 0)
(1.00027 -0.170506 0)
(1.00794 -0.166248 -1.43921e-19)
(1.01765 -0.162206 6.47279e-18)
(1.0298 -0.158701 5.96148e-18)
(1.04399 -0.155993 0)
(1.06212 -0.154211 -4.08092e-18)
(1.07752 -0.153406 0)
(1.1099 -0.153279 1.12942e-18)
(0.975986 0.216474 0)
(0.981692 0.204216 2.12373e-17)
(0.98777 0.199649 1.8843e-17)
(0.990443 0.198414 0)
(0.990124 0.19624 8.03878e-18)
(0.989274 0.19298 -7.77872e-18)
(0.988777 0.189397 0)
(0.988288 0.185472 -1.35795e-17)
(0.98762 0.18101 0)
(0.986865 0.17601 0)
(0.986058 0.170529 0)
(0.985169 0.164596 0)
(0.984236 0.158219 0)
(0.98338 0.151403 1.82877e-19)
(0.982746 0.144156 -9.53555e-18)
(0.982476 0.13653 -1.82311e-19)
(0.982713 0.128781 1.83735e-19)
(0.983555 0.121145 0)
(0.985 0.113601 0)
(0.986926 0.106078 0)
(0.989148 0.0985535 -2.02652e-19)
(0.991499 0.0910507 2.06545e-19)
(0.993867 0.0835947 -3.95629e-18)
(0.996179 0.0761958 -3.92544e-18)
(0.99838 0.0688515 0)
(1.00043 0.061554 -3.99064e-18)
(1.00228 0.0542957 3.9785e-18)
(1.00392 0.0470695 0)
(1.00534 0.0398696 1.92828e-18)
(1.00651 0.0326947 1.98628e-18)
(1.00743 0.0255487 0)
(1.0081 0.0184391 0)
(1.00852 0.0113729 1.00318e-18)
(1.00871 0.00438548 -1.48857e-20)
(1.00871 -0.00256337 -4.9495e-19)
(1.00852 -0.00943876 0)
(1.00816 -0.0162222 0)
(1.00764 -0.0229062 -1.01141e-18)
(1.00699 -0.0294786 0)
(1.00621 -0.0359273 -1.02242e-18)
(1.00533 -0.0422446 -5.87698e-20)
(1.00438 -0.0484277 0)
(1.0034 -0.0544796 2.09557e-18)
(1.00242 -0.0604102 4.17472e-18)
(1.00146 -0.0662337 2.08083e-18)
(1.00054 -0.0719646 0)
(0.999684 -0.0776134 -4.37076e-18)
(0.998892 -0.0831827 0)
(0.99818 -0.0886681 -2.18035e-18)
(0.997571 -0.0940635 0)
(0.997096 -0.0993706 0)
(0.996794 -0.104608 0)
(0.9967 -0.10982 0)
(0.996834 -0.115073 0)
(0.997188 -0.120458 -4.7586e-18)
(0.997716 -0.126065 4.79315e-18)
(0.998326 -0.131965 0)
(0.998898 -0.138182 4.72004e-18)
(0.999296 -0.144671 -4.91727e-18)
(0.999404 -0.151311 0)
(0.999152 -0.157913 -4.93139e-18)
(0.998532 -0.164244 0)
(0.997604 -0.170062 0)
(0.996481 -0.17514 0)
(0.995304 -0.179286 -5.72241e-18)
(0.994227 -0.182358 6.06474e-18)
(0.993401 -0.184262 -6.3337e-18)
(0.992975 -0.184959 1.32188e-17)
(0.993099 -0.184471 -6.87616e-18)
(0.993936 -0.18289 0)
(0.995671 -0.180376 7.40969e-18)
(0.998523 -0.177161 -7.45649e-18)
(1.00274 -0.173536 0)
(1.00863 -0.169831 -1.153e-19)
(1.01645 -0.166389 -7.09306e-18)
(1.02669 -0.163532 0)
(1.03907 -0.161471 0)
(1.05557 -0.160338 -4.55245e-18)
(1.06974 -0.159873 0)
(1.1007 -0.159992 -1.28004e-18)
(0.976761 0.214805 0)
(0.984936 0.202011 -1.22353e-17)
(0.992772 0.199206 -1.07156e-17)
(0.995651 0.198994 0)
(0.994985 0.196875 1.84471e-17)
(0.993961 0.193641 1.74197e-17)
(0.993395 0.190147 0)
(0.992836 0.186214 1.56816e-17)
(0.992172 0.181696 -1.48909e-17)
(0.991574 0.176675 0)
(0.991093 0.171217 0)
(0.99066 0.16533 0)
(0.990213 0.159005 0)
(0.989732 0.152225 -1.1331e-17)
(0.989207 0.144979 -1.11345e-17)
(0.988644 0.13729 1.02345e-17)
(0.988117 0.129393 -3.02958e-17)
(0.987749 0.121539 0)
(0.987621 0.113746 0)
(0.987735 0.105978 9.70944e-18)
(0.988043 0.0982351 1.89908e-17)
(0.988492 0.0905495 -9.29914e-18)
(0.989049 0.0829499 0)
(0.989696 0.0754474 0)
(0.99041 0.0680385 -4.66425e-18)
(0.991164 0.0607137 9.18986e-18)
(0.99193 0.0534624 -9.16794e-18)
(0.992681 0.0462743 0)
(0.993392 0.0391398 0)
(0.994041 0.0320531 -2.2636e-18)
(0.994608 0.0250141 0)
(0.99508 0.0180255 2.33331e-18)
(0.995447 0.0110959 -1.14325e-18)
(0.995724 0.00421971 -1.45231e-20)
(0.99591 -0.00261658 -7.29731e-21)
(0.995997 -0.00938161 0)
(0.995992 -0.0160595 0)
(0.995906 -0.0226475 -2.91289e-20)
(0.995749 -0.0291381 1.18407e-18)
(0.995532 -0.0355214 3.54339e-18)
(0.995275 -0.0417914 4.73757e-18)
(0.995002 -0.0479468 2.4161e-18)
(0.994739 -0.0539917 -2.37945e-18)
(0.994509 -0.0599348 -2.40201e-18)
(0.994334 -0.0657876 2.48279e-18)
(0.994231 -0.0715618 0)
(0.994212 -0.0772658 4.95522e-18)
(0.994284 -0.0829023 -5.12217e-18)
(0.994459 -0.088469 0)
(0.994748 -0.0939631 0)
(0.995173 -0.099388 0)
(0.995752 -0.104761 0)
(0.996502 -0.11012 0)
(0.997426 -0.115521 0)
(0.998503 -0.121035 5.37338e-18)
(0.999681 -0.126736 -1.09478e-17)
(1.00088 -0.132679 -5.5818e-18)
(1.00198 -0.138879 5.63171e-18)
(1.00286 -0.145296 5.54461e-18)
(1.00341 -0.151822 -5.77607e-18)
(1.00355 -0.15829 5.88445e-18)
(1.00323 -0.16449 0)
(1.00245 -0.170196 6.19773e-18)
(1.00126 -0.175188 -6.40481e-18)
(0.999735 -0.179275 0)
(0.997962 -0.182305 -1.37463e-17)
(0.996053 -0.184178 7.15038e-18)
(0.994143 -0.184854 -1.49467e-17)
(0.992403 -0.184358 7.78461e-18)
(0.99105 -0.182795 0)
(0.990353 -0.180345 8.25402e-18)
(0.990634 -0.177262 8.49438e-18)
(0.992258 -0.173857 -8.46067e-18)
(0.99564 -0.17048 -8.45052e-18)
(1.00114 -0.167473 8.13226e-18)
(1.00934 -0.165167 0)
(1.02001 -0.163711 0)
(1.03527 -0.163293 5.23981e-18)
(1.04861 -0.163179 0)
(1.07942 -0.16391 1.47709e-18)
(0.977833 0.212618 1.62221e-17)
(0.988995 0.199651 0)
(0.998473 0.19906 -2.41233e-17)
(1.00125 0.199736 2.18555e-17)
(1.00018 0.197594 -2.08413e-17)
(0.999034 0.194439 1.99888e-17)
(0.998405 0.191039 0)
(0.997731 0.187067 1.60147e-19)
(0.996956 0.182465 1.68118e-17)
(0.996292 0.177379 0)
(0.99581 0.171871 0)
(0.995466 0.165946 0)
(0.995218 0.159602 2.77317e-17)
(0.995039 0.152827 0)
(0.994889 0.145607 2.47103e-17)
(0.994716 0.137948 0)
(0.994512 0.130059 4.62164e-17)
(0.994315 0.12218 0)
(0.994169 0.114338 0)
(0.994075 0.106508 -2.21004e-17)
(0.994012 0.0986974 -1.08246e-17)
(0.993965 0.0909374 0)
(0.993938 0.083259 0)
(0.993947 0.0756767 0)
(0.994003 0.0681917 5.2666e-18)
(0.99411 0.0607989 -5.2499e-18)
(0.994263 0.0534906 -1.07896e-19)
(0.994457 0.0462582 0)
(0.994683 0.0390923 5.3466e-18)
(0.99493 0.0319869 0)
(0.995189 0.0249405 0)
(0.995449 0.0179531 -2.63742e-18)