/*--------------------------------*- C++ -*----------------------------------*\
| =========                 |                                                 |
| \\      /  F ield         | OpenFOAM: The Open Source CFD Toolbox           |
|  \\    /   O peration     | Version:  v1912                                 |
|   \\  /    A nd           | Website:  www.openfoam.com                      |
|    \\/     M anipulation  |                                                 |
\*---------------------------------------------------------------------------*/
FoamFile
{
    version     2.0;
    format      ascii;
    class       volScalarField;
    location    "300";
    object      alphat;
}
// * * * * * * * * * * * * * * * * * * * * * * * * * * * * * * * * * * * * * //

dimensions      [0 2 -1 0 0 0 0];


internalField   nonuniform List<scalar> 
4000
(
0.000362876
0.000200805
0.000147344
0.000131373
0.000122545
0.000116149
0.000108336
9.49525e-05
0.000117944
0.000334072
9.97543e-05
9.07517e-05
0.000107909
0.000116062
0.0001201
0.000128698
0.000137896
0.000155922
0.000242578
0.000328301
0.000419752
0.000375153
0.000321739
0.000270635
0.000163481
0.000154021
0.000154362
0.000152137
0.000149074
0.000221089
0.000146956
0.000152842
0.000153745
0.000156036
0.000156265
0.000194201
0.000288233
0.000336355
0.00039019
0.000430586
0.000454115
0.0004289
0.000384991
0.000327909
0.0002684
0.00019238
0.000178368
0.00017818
0.000185395
0.00019995
0.000190188
0.00018377
0.000178085
0.000176683
0.000210821
0.000284848
0.00034515
0.000401985
0.000441396
0.000464442
0.00047396
0.000457188
0.00042044
0.000364959
0.000314394
0.000268221
0.000229627
0.00018341
0.000198038
0.00020586
0.000205332
0.000200283
0.000189211
0.000236624
0.000277182
0.000326814
0.000380192
0.000434371
0.000468686
0.000483522
0.000487529
0.00047989
0.000455505
0.000416393
0.000366391
0.000319361
0.000279982
0.000249407
0.000220365
0.000198378
0.000199482
0.000226434
0.000257416
0.000290393
0.000335601
0.000382806
0.00043161
0.000469255
0.000491046
0.000496787
0.000498808
0.00050109
0.000492241
0.000474396
0.000453763
0.000429262
0.000398544
0.000364844
0.00032836
0.000296834
0.000304135
0.000341839
0.000381675
0.000418582
0.000446955
0.000469759
0.000489194
0.00050517
0.000512035
0.000507965
0.000509939
0.000523053
0.000529284
0.000529506
0.000526862
0.000520387
0.000509618
0.000494411
0.000475682
0.000453593
0.000458125
0.000484527
0.000505585
0.000522163
0.000533845
0.000540411
0.000542737
0.000541522
0.000533829
0.00051913
0.000522254
0.00054654
0.000565914
0.000579202
0.000588149
0.000591785
0.000589611
0.000581688
0.000567778
0.000546572
0.00055036
0.00057468
0.000590991
0.000600517
0.000603662
0.000600442
0.000591455
0.000577618
0.000557159
0.000531477
0.00053702
0.000573861
0.000604668
0.00062802
0.000645605
0.000656508
0.000660063
0.00065659
0.000644917
0.000622396
0.000626123
0.000651333
0.000665529
0.000670851
0.000668301
0.00065779
0.000640102
0.000616265
0.000584511
0.00054631
0.00055716
0.000606183
0.000646081
0.000676027
0.000699347
0.00071642
0.000727426
0.00073173
0.000726967
0.000705889
0.000709941
0.000732816
0.000739414
0.000736534
0.000726527
0.000710055
0.000686955
0.000656883
0.000616455
0.00056649
0.000201681
0.000178376
0.00016608
0.000166589
0.000166701
0.000151451
0.000151491
0.00012364
9.43899e-05
8.74172e-05
0.00010099
0.000132568
0.000147273
0.000146648
0.000153067
0.000168841
0.00016968
0.00017186
0.000206623
0.000245811
0.000374768
0.000412002
0.000386716
0.000391065
0.000371841
0.000375471
0.000412846
0.000428822
0.000454813
0.000485434
0.000477132
0.000450962
0.000422176
0.000402362
0.000381636
0.000377843
0.000401485
0.000406814
0.000442213
0.000388331
0.000428883
0.000576502
0.000512116
0.000445645
0.000413059
0.000423023
0.000473937
0.000456424
0.000496513
0.000547471
0.000542027
0.000490182
0.000450738
0.000474007
0.00042169
0.000427222
0.000471731
0.000549802
0.000594223
0.000440289
0.000457174
0.000647742
0.000658967
0.000554844
0.000469387
0.000429053
0.000418546
0.00045092
0.000475246
0.000521872
0.000519503
0.000479852
0.000448921
0.000418555
0.000434351
0.000485339
0.000576603
0.000674481
0.00065595
0.000467456
0.000479879
0.000663796
0.000686505
0.000628133
0.000528443
0.000455334
0.000407872
0.000387521
0.000399257
0.000499428
0.000500544
0.000399079
0.000389905
0.000413704
0.000467271
0.000547853
0.000654365
0.000706912
0.000678668
0.00048987
0.00050109
0.000688204
0.000719963
0.000682952
0.00060732
0.000521073
0.000456993
0.000407351
0.000371777
0.000369307
0.000371334
0.000377517
0.000417903
0.000473477
0.000543627
0.000638776
0.000713667
0.000746038
0.000707257
0.000511019
0.000523041
0.000718602
0.000767977
0.000770689
0.000742265
0.00067692
0.000581003
0.000499993
0.000446109
0.000415857
0.000420554
0.000457724
0.000517922
0.000614964
0.000719096
0.000778562
0.000804565
0.000795788
0.000739016
0.000533043
0.000546514
0.000745944
0.000817337
0.000865618
0.000898277
0.000899329
0.000861594
0.000787496
0.000690269
0.000597873
0.000609116
0.000717289
0.000826387
0.000900583
0.000939007
0.000936716
0.000899985
0.00084546
0.000766835
0.000556586
0.000573832
0.000753687
0.00085386
0.000933022
0.000993006
0.00102053
0.00100162
0.000949331
0.000862184
0.000749622
0.000760336
0.00088426
0.000982418
0.00104069
0.00105912
0.00102931
0.000964725
0.000879412
0.000772132
0.000584084
0.000606178
0.000661868
0.000709103
0.000746357
0.000776706
0.000800062
0.000816042
0.00082386
0.000820992
0.000801999
0.000806099
0.000827211
0.000832352
0.000826246
0.000811392
0.000788695
0.000758531
0.000721033
0.000673105
0.000616247
0.000147312
0.000166185
0.0001805
0.000194925
0.000184236
0.000158557
0.000157679
0.000154651
0.000145491
0.000142366
0.000147756
0.000153806
0.000152894
0.000154653
0.000166281
0.000194274
0.000189987
0.000179258
0.000171631
0.000155649
0.000321713
0.000386754
0.000419159
0.000451092
0.00043295
0.000421364
0.000462468
0.000493293
0.000534519
0.000575656
0.000566317
0.000522269
0.000480817
0.000449255
0.000430505
0.000442057
0.000460416
0.000428592
0.000406772
0.000335024
0.000385029
0.00051207
0.000498064
0.00047806
0.000477465
0.000502955
0.000527201
0.000524172
0.000569196
0.000629968
0.00062154
0.00055709
0.000515752
0.000525704
0.000500048
0.000485256
0.000501761
0.0005337
0.000549613
0.000400806
0.000420411
0.000658943
0.000668671
0.000591988
0.000531832
0.000509038
0.000517184
0.000542912
0.000560045
0.000616048
0.000612365
0.000554391
0.000534597
0.000512212
0.000513229
0.000550053
0.000621837
0.000701883
0.000672693
0.000432094
0.000455466
0.000686474
0.00074744
0.000695656
0.000606882
0.000539947
0.000500032
0.00048967
0.000525921
0.000627427
0.0006265
0.000520294
0.000488561
0.000504963
0.000552769
0.000629485
0.000726048
0.000771673
0.000704136
0.000466737
0.000492212
0.000719931
0.000789591
0.000762685
0.000672895
0.000585701
0.000518994
0.000472558
0.000449597
0.000473586
0.000470883
0.000450901
0.00047996
0.000533367
0.000607968
0.000704075
0.000797701
0.000820371
0.000742305
0.000503066
0.000529264
0.000767967
0.000863074
0.000870238
0.000805533
0.000705748
0.000607695
0.000523211
0.000457692
0.000425902
0.000429376
0.00046929
0.000543897
0.000640758
0.000748105
0.000851278
0.000911405
0.00089649
0.00079164
0.000539966
0.000565909
0.000817333
0.000961882
0.00104543
0.00107068
0.00101649
0.000926785
0.000815288
0.000693451
0.000590899
0.000601867
0.000724769
0.000862089
0.000983206
0.00107855
0.00112511
0.00109151
0.000996992
0.000841284
0.000576499
0.000604662
0.000853857
0.00108629
0.00129622
0.00144764
0.00153058
0.00151247
0.00143274
0.00128828
0.00112736
0.001146
0.00133164
0.00148973
0.00157589
0.0015891
0.00150132
0.00134073
0.00111987
0.000876641
0.000615414
0.000646087
0.000709107
0.00076304
0.000806878
0.000843354
0.000872195
0.000892475
0.000903246
0.000901941
0.000882493
0.000886669
0.000908543
0.000912392
0.00090346
0.000884289
0.000856076
0.000819697
0.000775504
0.000720791
0.000656469
0.000131421
0.000166256
0.000195416
0.000210992
0.000191586
0.000172972
0.000164073
0.000160261
0.000158727
0.000159784
0.000161074
0.000160146
0.000162043
0.000169846
0.000182764
0.000204624
0.000210248
0.000189454
0.000169481
0.000136992
0.000270867
0.000391361
0.000451316
0.000468166
0.000449445
0.000450286
0.000490555
0.00053253
0.000586338
0.000637618
0.000626268
0.000568859
0.000516086
0.000475703
0.000442897
0.000458776
0.000484441
0.000460967
0.000402306
0.000287864
0.000327906
0.000445653
0.000478111
0.00049227
0.000522673
0.00054376
0.000550165
0.000568023
0.000624151
0.000692586
0.000681015
0.000607344
0.000554642
0.00054268
0.000534091
0.000516241
0.000507207
0.000502879
0.000473214
0.000344951
0.00036486
0.000554788
0.000591997
0.000570139
0.000552044
0.000554167
0.000572507
0.000592263
0.000621612
0.000682497
0.000675336
0.000612018
0.000579398
0.00056166
0.000551721
0.000564099
0.000595319
0.000622355
0.000575739
0.00037766
0.00041641
0.000628104
0.000695628
0.000673006
0.000622594
0.00058113
0.000558517
0.000563553
0.000610212
0.000690066
0.000685381
0.00060092
0.000559012
0.000562078
0.000593418
0.000644344
0.000701647
0.000723038
0.000648295
0.000427647
0.000474443
0.000682939
0.000762633
0.000754804
0.000696176
0.000630992
0.000577387
0.000542294
0.000535818
0.00059171
0.000588881
0.000537617
0.000551243
0.000593706
0.000654748
0.000726903
0.000788743
0.000792609
0.000706182
0.000486079
0.00052955
0.00077067
0.000870195
0.000885294
0.00084139
0.000764924
0.000682261
0.000604766
0.000538532
0.000511353
0.000516434
0.000555094
0.000632436
0.000720071
0.000809083
0.000886645
0.000926652
0.000904796
0.000796872
0.00054064
0.000579229
0.000865589
0.0010454
0.00115042
0.00118659
0.00114968
0.00106478
0.000946504
0.000805971
0.000678026
0.00069217
0.000845664
0.00100316
0.00113158
0.00121959
0.00124989
0.00120286
0.00108547
0.000893237
0.000589994
0.000628025
0.000932999
0.00129621
0.00165118
0.00188322
0.00199124
0.00196859
0.00186233
0.00166903
0.00140375
0.00141939
0.00171404
0.00192624
0.00204199
0.00206611
0.00194997
0.00170503
0.00133672
0.000959554
0.00063896
0.000676035
0.000746357
0.000806882
0.000857429
0.000900452
0.000935444
0.00096141
0.000976244
0.000977427
0.000961104
0.000965005
0.000984239
0.000985722
0.000972711
0.000947832
0.00091346
0.000870439
0.000819433
0.000758059
0.000686378
0.000121829
0.000164463
0.000186771
0.000192206
0.00018292
0.000176441
0.000171834
0.000169599
0.00017084
0.000175615
0.00017594
0.000173227
0.000174796
0.00018016
0.000187546
0.000197566
0.000203989
0.000193218
0.000168757
0.00012699
0.000164002
0.000371725
0.000433149
0.000449731
0.000454046
0.000486682
0.000525278
0.000574422
0.000645453
0.000713591
0.000696147
0.000620857
0.000553757
0.000506574
0.000469714
0.000454045
0.000458944
0.000442199
0.000377649
0.000194589
0.000268079
0.000412981
0.000477529
0.000522659
0.000552231
0.000561898
0.000570113
0.000604292
0.000676169
0.000756433
0.000739217
0.00065137
0.000583686
0.000555602
0.000549906
0.000541134
0.000516813
0.000486642
0.000428832
0.00028478
0.00031424
0.000469287
0.000531791
0.000552058
0.000566367
0.000587123
0.000604912
0.000620892
0.000665567
0.000737411
0.000726051
0.000647767
0.000605151
0.000590139
0.000576759
0.000567471
0.000564919
0.000551503
0.000486169
0.000325457
0.000366331
0.000528354
0.000606842
0.000622596
0.000611443
0.000598268
0.000595711
0.000615789
0.000664092
0.000740468
0.000733808
0.000653976
0.000608393
0.000596268
0.000607029
0.000628013
0.000644106
0.0006276
0.000543575
0.000377345
0.000453643
0.000607232
0.000672847
0.00069616
0.000680225
0.000648167
0.000617353
0.000600843
0.000617584
0.000702633
0.00070231
0.000622302
0.000612837
0.000635836
0.000672135
0.000707926
0.000723951
0.000696885
0.000628518
0.000465926
0.000526833
0.000742226
0.000805485
0.000841358
0.000844233
0.000810303
0.000756465
0.000697317
0.000646119
0.000642658
0.000652766
0.000671316
0.000733529
0.000799936
0.000856205
0.00088756
0.000878591
0.000837367
0.000768883
0.000538034
0.00058816
0.000898251
0.00107063
0.00118655
0.00125425
0.00124876
0.00118778
0.00108089
0.000936826
0.000796373
0.000815251
0.000984139
0.00114601
0.00126126
0.00132155
0.00131899
0.00124053
0.00111336
0.000928335
0.000598816
0.000645624
0.000992997
0.00144763
0.00188321
0.00214312
0.00226493
0.00228649
0.0021971
0.00198237
0.00166523
0.00167921
0.00202567
0.00226151
0.00236107
0.0023413
0.00221466
0.00194386
0.00149333
0.00102234
0.000656469
0.000699369
0.000776722
0.000843373
0.000900461
0.000951574
0.000994128
0.00102623
0.00104682
0.0010537
0.00104564
0.00104928
0.00106026
0.00105594
0.0010372
0.00100634
0.000964339
0.000913196
0.000855594
0.000788068
0.000709384
0.000112366
0.000138204
0.000159522
0.000173589
0.000176609
0.000176782
0.000176619
0.000178636
0.000184447
0.000194053
0.000193462
0.000187087
0.000184994
0.000185514
0.000186735
0.000186717
0.000180845
0.000166461
0.000151144
0.000117385
0.000156445
0.000374842
0.000420619
0.000449958
0.000486774
0.00052217
0.000559196
0.00061437
0.000693642
0.00076216
0.000741808
0.000661712
0.000587556
0.000536691
0.000500344
0.000469362
0.000443377
0.000430549
0.000379473
0.000155314
0.000192713
0.000422607
0.000502899
0.000543762
0.000561985
0.0005707
0.000588706
0.00063241
0.000711054
0.000779434
0.000760742
0.000678634
0.000606136
0.000569835
0.000556378
0.000549814
0.000534171
0.000500239
0.00042089
0.000210292
0.000267864
0.000428892
0.000508943
0.000554116
0.000587093
0.000608506
0.000618434
0.000637095
0.000687988
0.000748785
0.000739391
0.000669942
0.000620968
0.000603225
0.000593143
0.000577122
0.000552644
0.00051456
0.000435146
0.00027574
0.000319216
0.000455228
0.000539849
0.00058107
0.000598243
0.000608036
0.000621669
0.00064916
0.000698128
0.000762349
0.000760623
0.000690411
0.000640932
0.000617867
0.000611161
0.000607397
0.000593761
0.000552259
0.000464828
0.000329947
0.000429281
0.000521014
0.000585626
0.000630944
0.000648146
0.000646961
0.000641461
0.000646687
0.000685544
0.000775913
0.000780587
0.000693598
0.000660232
0.000660446
0.000669158
0.000671195
0.000651914
0.00060287
0.000537167
0.000442838
0.000520429
0.000676885
0.000705696
0.000764874
0.000810277
0.000819896
0.000800977
0.000770252
0.000749368
0.000781631
0.000798999
0.000784137
0.000813747
0.000848013
0.00086561
0.000850597
0.000797912
0.000734189
0.000706093
0.000531368
0.000591822
0.000899326
0.00101644
0.00114963
0.00124873
0.0012846
0.00126045
0.00117587
0.00103869
0.000900447
0.000923907
0.00109118
0.0012452
0.00133637
0.00135753
0.0013127
0.00120318
0.00106076
0.000929933
0.000602002
0.000656543
0.00102053
0.00153059
0.00199123
0.00226492
0.00243396
0.00248421
0.00239121
0.00212645
0.00173622
0.00174782
0.00216215
0.00244811
0.0025541
0.00250821
0.00233683
0.00205572
0.00157861
0.00105098
0.000666913
0.00071644
0.000800078
0.000872215
0.000935449
0.000994124
0.001043
0.00108158
0.00110877
0.0011232
0.00112579
0.00112929
0.00112927
0.00111705
0.00109159
0.00105432
0.00100615
0.000947409
0.000883684
0.000810697
0.000725827
0.000112924
0.00011583
0.00014729
0.000164327
0.000171683
0.000176393
0.000181094
0.000188387
0.000199548
0.000215717
0.00021429
0.000201907
0.000194686
0.000189581
0.000185282
0.000179317
0.000168508
0.000154009
0.000137222
0.000110741
0.000160727
0.000411245
0.00046129
0.00048991
0.000525325
0.000559141
0.00059881
0.000656171
0.000725818
0.000770859
0.000753556
0.000694504
0.000626335
0.000573313
0.000536656
0.000506513
0.000475281
0.000448176
0.000399509
0.000156449
0.000179921
0.000473006
0.000526946
0.000550136
0.000570116
0.00058869
0.000614682
0.000660066
0.000712918
0.000698978
0.000693459
0.000687595
0.000632092
0.000591292
0.000569716
0.00055523
0.000541882
0.000523649
0.000469879
0.000175755
0.000229878
0.000418319
0.000517068
0.000572449
0.00060486
0.000618408
0.000628083
0.000650881
0.000683129
0.000636631
0.000645853
0.000673966
0.000635757
0.00061327
0.000603239
0.000590172
0.000561856
0.000512478
0.000418299
0.000234748
0.000279998
0.000407794
0.000499967
0.000558472
0.000595681
0.000621644
0.000644012
0.000672609
0.000703231
0.000648414
0.000667121
0.000704564
0.000665716
0.000637454
0.000618318
0.000597046
0.000562877
0.000505203
0.00041257
0.000287209
0.000398799
0.000457049
0.000518972
0.000577351
0.000617318
0.000641437
0.000658895
0.000683853
0.000723388
0.000698043
0.000721485
0.000737647
0.000697314
0.00067593
0.000660376
0.000635241
0.000592197
0.000530648
0.000469238
0.00041339
0.000509664
0.000581071
0.000607696
0.000682224
0.000756425
0.000800954
0.000816305
0.000820684
0.000832919
0.00082667
0.000857412
0.000876923
0.000869215
0.000864428
0.000844528
0.00079259
0.000710214
0.000630326
0.000603963
0.000519897
0.000589656
0.000861624
0.000926773
0.00106474
0.00118774
0.00126043
0.00126847
0.00120294
0.00107602
0.000939133
0.000968521
0.00113015
0.00127123
0.00134169
0.00133018
0.00124836
0.00111448
0.000966663
0.000891063
0.000598964
0.000660088
0.00100162
0.00151247
0.00196858
0.00228646
0.00248419
0.00253664
0.00239606
0.00201881
0.00144988
0.00147558
0.0020388
0.00243898
0.00259545
0.00255128
0.00235444
0.00203075
0.0015623
0.00103164
0.00066953
0.000727437
0.000816058
0.000892487
0.000961407
0.00102622
0.00108158
0.001127
0.00116209
0.00118786
0.00120828
0.00121165
0.00119341
0.00116937
0.00113569
0.00109147
0.00103689
0.000972198
0.000902803
0.000825553
0.000735869
0.000150136
0.000106112
0.000129207
0.000155754
0.00016885
0.000177861
0.00018782
0.00020159
0.000218043
0.000238029
0.000235553
0.00021913
0.000206455
0.000194699
0.000184779
0.000173889
0.000159812
0.00014384
0.000120607
0.000112182
0.000164147
0.000428758
0.000490973
0.000531591
0.000574291
0.000614182
0.000656025
0.000698302
0.000704973
0.000596909
0.000576949
0.000678481
0.000669286
0.000626583
0.000587898
0.000554774
0.000517034
0.000480848
0.000420623
0.00015869
0.000180135
0.000455812
0.000523645
0.000567812
0.000604316
0.000632432
0.00066005
0.000680368
0.000611472
0.00043651
0.000425783
0.00060357
0.00065869
0.000632369
0.000606257
0.00058352
0.000554485
0.000514854
0.00044863
0.000179103
0.000183179
0.000450761
0.000542623
0.000592118
0.00062083
0.00063704
0.00065084
0.000656357
0.000548402
0.000426339
0.000416663
0.000559323
0.00064923
0.000636069
0.000621145
0.00060482
0.000578245
0.000532624
0.000445529
0.000188265
0.00024957
0.000387497
0.000489588
0.000563484
0.000615721
0.000649091
0.000672571
0.000679373
0.000551832
0.000505214
0.000484236
0.000574036
0.000681242
0.000666256
0.000641792
0.000609445
0.000560001
0.000488852
0.000388987
0.000255245
0.000365308
0.000407475
0.000472565
0.00054226
0.000600794
0.000646647
0.000683836
0.000705739
0.000587572
0.000619616
0.000602043
0.000617803
0.00072248
0.00069777
0.000660821
0.000613312
0.000551364
0.000479233
0.000415756
0.000378151
0.000494483
0.000500073
0.000523247
0.000604752
0.00069728
0.000770219
0.000820667
0.000859834
0.000795517
0.000764217
0.000771197
0.000854275
0.000911561
0.000867218
0.000809381
0.000727413
0.000626055
0.000538402
0.000513389
0.000503619
0.000581727
0.000787591
0.00081532
0.000946483
0.00108085
0.00117584
0.00120292
0.00115197
0.00103344
0.000939949
0.000957459
0.00108726
0.00121438
0.00126708
0.00123614
0.00113282
0.000988225
0.000848024
0.000815234
0.000589687
0.000656601
0.000949355
0.00143276
0.00186232
0.00219706
0.00239118
0.00239604
0.00213632
0.00163616
0.00141715
0.00142176
0.00166696
0.00216909
0.00243739
0.00244385
0.00225412
0.0019157
0.00147631
0.000974322
0.000664489
0.000731749
0.000823888
0.00090326
0.000976244
0.00104682
0.00110878
0.0011621
0.00120896
0.00125676
0.00131996
0.00132181
0.0012621
0.00121545
0.00116932
0.00111688
0.00105562
0.00098524
0.000911821
0.00083177
0.000738865
0.000157697
0.000186622
0.000130474
0.000152596
0.000169979
0.000183479
0.000198666
0.000217612
0.000231146
0.000248129
0.000245512
0.000231092
0.000219171
0.000201976
0.0001868
0.000171654
0.000154862
0.000133571
0.000109307
0.000142504
0.000172035
0.000460785
0.000532015
0.000585548
0.000645258
0.000693455
0.000725569
0.000704789
0.000545607
0.00061175
0.000589224
0.000518348
0.000678988
0.000695154
0.000662699
0.000622988
0.000571631
0.000523417
0.00045151
0.000166059
0.000188829
0.00049498
0.000568625
0.000623916
0.00067619
0.000711081
0.000712854
0.000611412
0.00042049
0.00077316
0.000736615
0.000403031
0.000604404
0.000688643
0.000679531
0.000652506
0.000608471
0.000557649
0.000489908
0.000187277
0.000200319
0.000475161
0.00055979
0.000621488
0.000665548
0.00068793
0.000683064
0.000548367
0.000447021
0.00107185
0.00102548
0.000427506
0.000560264
0.000675244
0.000670999
0.000648209
0.000611533
0.000552306
0.000476275
0.00020051
0.000221022
0.000399497
0.000525936
0.000610173
0.000664022
0.000698048
0.000703181
0.000551808
0.000575815
0.00144595
0.00138402
0.000528326
0.000575038
0.00070614
0.000692094
0.000655437
0.00060193
0.00052068
0.000398705
0.000225548
0.000329229
0.000372032
0.00044963
0.000535785
0.000617537
0.000685506
0.000723365
0.000587558
0.000707101
0.00180069
0.00172711
0.000660935
0.00061875
0.000739357
0.000695854
0.000624804
0.000539936
0.000452021
0.00037675
0.000339608
0.000475815
0.000446217
0.000457744
0.000538543
0.000646102
0.000749339
0.00083289
0.000795498
0.000877107
0.00203333
0.00195973
0.000861179
0.000853477
0.000875206
0.000781558
0.000668392
0.000552429
0.000466668
0.000454675
0.000483053
0.000567815
0.0006904
0.000693517
0.000805981
0.000936802
0.00103865
0.00107599
0.00103342
0.00108462
0.00212731
0.00206529
0.00108836
0.00108499
0.00112461
0.00108256
0.00097358
0.000834836
0.000714926
0.000709184
0.000573813
0.000644948
0.00086225
0.00128833
0.001669
0.00198235
0.00212642
0.00201879
0.00163616
0.00150895
0.00202888
0.00198996
0.00150905
0.00166665
0.0020371
0.00215766
0.00201916
0.00170668
0.00132041
0.000878578
0.000650721
0.00072702
0.000821044
0.000901964
0.000977436
0.00105371
0.00112322
0.00118787
0.00125676
0.00134759
0.00146183
0.00146391
0.00135116
0.00126201
0.0011933
0.00112909
0.00106001
0.000983943
0.000908187
0.000826843
0.000732473
0.000123178
0.000183081
0.000140977
0.000157852
0.000176493
0.000193916
0.000215055
0.000237438
0.000247768
0.000257004
0.000254435
0.000245468
0.000235463
0.000214165
0.000192882
0.000173785
0.000154709
0.000134601
0.000142882
0.000164958
0.000166184
0.000487946
0.000575491
0.000637747
0.000713876
0.000762214
0.000770652
0.000596654
0.00061152
0.00040469
0.000395474
0.000589458
0.000578372
0.000754779
0.000743367
0.00069917
0.0006301
0.000568978
0.000485552
0.000187187
0.000194434
0.000545053
0.000629435
0.000692413
0.000756449
0.000779424
0.00069889
0.00043641
0.000773022
0.000591735
0.000580631
0.000736727
0.000427285
0.000696184
0.00076304
0.000742046
0.000683844
0.00062389
0.000542261
0.000196823
0.000207435
0.000521713
0.000615762
0.000682374
0.000737379
0.000748717
0.000636564
0.000426277
0.00107175
0.000791721
0.000784772
0.0010253
0.000417769
0.000649241
0.000742365
0.000728553
0.000676855
0.000613129
0.000520376
0.000207166
0.000200576
0.000499875
0.000627347
0.000690004
0.000740415
0.000762281
0.000648351
0.000505165
0.00144588
0.00102051
0.00102248
0.00138343
0.000485113
0.000670846
0.000764393
0.00073725
0.00068752
0.000627263
0.000503363
0.000200769
0.000299605
0.000370239
0.000473823
0.00059174
0.000702629
0.000775893
0.000697997
0.000619583
0.00180063
0.00127192
0.00128647
0.00172616
0.000603061
0.000725591
0.000785768
0.00070861
0.000595191
0.00047551
0.000373132
0.00030362
0.000453833
0.000416083
0.000426001
0.000511396
0.000642675
0.000781615
0.000826629
0.000764185
0.00203328
0.0015207
0.00155018
0.00195899
0.000772105
0.000859254
0.000801588
0.000655463
0.000518447
0.000429579
0.000418957
0.000457184
0.000546633
0.000598038
0.000590994
0.000678056
0.000796361
0.000900414
0.000939098
0.00093992
0.00212728
0.00170245
0.0017434
0.00206475
0.000957057
0.000966545
0.00092078
0.000811516
0.000688325
0.000597804
0.000604766
0.000549913
0.000622475
0.000749739
0.00112746
0.00140377
0.00166521
0.0017362
0.00144987
0.00141713
0.00202886
0.00183643
0.00187455
0.0019896
0.00142164
0.00147518
0.00174755
0.00167772
0.00141636
0.00114076
0.000758283
0.000625925
0.00070599
0.000802074
0.00088253
0.000961127
0.00104566
0.00112581
0.00120829
0.00131996
0.00146183
0.00148726
0.00151649
0.00146362
0.00132152
0.00121143
0.00112919
0.00104925
0.000964946
0.000886533
0.000805958
0.000709818
0.0001672
0.00013658
0.00013084
0.000155165
0.000175152
0.000192755
0.000213607
0.000235124
0.000245289
0.000254373
0.000256672
0.000247666
0.000237598
0.000215384
0.000193635
0.000174914
0.000158537
0.0001477
0.000182938
0.000135285
0.000181441
0.000484996
0.000567215
0.00062664
0.000696449
0.000741827
0.000753366
0.000576747
0.000589036
0.00039541
0.000404666
0.00061251
0.000601895
0.000773681
0.000764631
0.000717461
0.000642088
0.000579646
0.00049205
0.00017061
0.000194981
0.00054054
0.000621521
0.00068095
0.000739219
0.00076069
0.00069338
0.000425698
0.000736491
0.000580551
0.000591875
0.000771737
0.000440605
0.000704389
0.000784029
0.000761665
0.000697872
0.000634964
0.000550128
0.000197356
0.000206805
0.000519313
0.000612004
0.000675157
0.000725949
0.000739296
0.000645787
0.000416581
0.00102537
0.000784678
0.000791917
0.00106815
0.000428347
0.000641958
0.000753959
0.000742762
0.0006875
0.000621496
0.000527346
0.000208994
0.000201696
0.000500549
0.000626192
0.000685258
0.0007337
0.00076052
0.000667034
0.000484133
0.00138391
0.00102238
0.0010209
0.00144121
0.000507442
0.000653343
0.000767739
0.000746252
0.00069489
0.000633726
0.000508287
0.000203171
0.000305708
0.000371899
0.000471046
0.000588874
0.000702254
0.000780502
0.000721387
0.000601926
0.001727
0.00128636
0.00127266
0.00179667
0.000622487
0.00070388
0.000782524
0.000710104
0.000598067
0.000478734
0.000373885
0.000301088
0.000458233
0.000420689
0.000429458
0.000516479
0.000652766
0.000798948
0.000857347
0.000771106
0.00195962
0.00155008
0.00152182
0.00203049
0.000767366
0.000832245
0.00078747
0.00064821
0.000515411
0.000427831
0.000416182
0.000453896
0.000550435
0.000609249
0.000601959
0.000692217
0.000815262
0.000923897
0.000968501
0.000957409
0.00206519
0.00174331
0.00170363
0.00212591
0.000944254
0.000945297
0.000906837
0.000802003
0.000681565
0.000591828
0.000597149
0.000546959
0.00062623
0.000760426
0.00114606
0.00141941
0.00167923
0.00174785
0.00147559
0.00142172
0.00198988
0.00187449
0.00183731
0.00202853
0.00142007
0.00145643
0.00174339
0.00167257
0.00140958
0.00113028
0.000750612
0.000622942
0.000710024
0.000806146
0.000886702
0.000965026
0.0010493
0.00112929
0.00121165
0.0013218
0.00146388
0.00151645
0.00148739
0.0014611
0.00131954
0.00120837
0.00112627
0.00104638
0.000961971
0.000883357
0.000802782
0.000706607
0.000126076
0.000114255
0.000134198
0.000157293
0.00017238
0.00018614
0.000201322
0.00021891
0.000231055
0.000245505
0.000247711
0.000230852
0.000217959
0.000199609
0.000183998
0.000168954
0.000152709
0.000133421
0.000148227
0.00017919
0.000163669
0.000451256
0.000521481
0.000568889
0.000620859
0.000661546
0.000694277
0.000678326
0.000518263
0.000589429
0.00061256
0.000550431
0.000708528
0.000727657
0.000695611
0.000648857
0.000590329
0.000537944
0.000463955
0.000183075
0.000187194
0.000490442
0.000557172
0.000607277
0.000651346
0.000678562
0.000687516
0.000603514
0.000402975
0.000736696
0.000771772
0.000423015
0.000616438
0.00071672
0.000715045
0.000680678
0.000629027
0.000574472
0.000500701
0.000192022
0.000201135
0.000479815
0.000554194
0.000611864
0.000647664
0.000669858
0.000673898
0.000559272
0.000427443
0.00102526
0.00106817
0.000447902
0.000552022
0.000686246
0.000691468
0.000669437
0.000625498
0.000565367
0.000481577
0.000202409
0.000226672
0.000399105
0.000520198
0.000600806
0.000653876
0.000690319
0.000704479
0.000573974
0.000528248
0.00138338
0.00144123
0.000575469
0.000554688
0.000705709
0.000701076
0.000667455
0.000614149
0.000530537
0.00040363
0.000222769
0.000342253
0.000377671
0.000450922
0.000537584
0.000622247
0.000693521
0.000737565
0.000617741
0.000660842
0.0017261
0.00179668
0.000707867
0.000590591
0.000726144
0.000688464
0.000620227
0.000538038
0.000451664
0.000374168
0.000331917
0.000484559
0.000457769
0.000469328
0.000555101
0.000671288
0.000784078
0.000876853
0.000854206
0.000861084
0.00195893
0.00203049
0.0008786
0.00079881
0.000835831
0.000752662
0.000649577
0.000541499
0.000459562
0.000447277
0.000476655
0.000574747
0.000717392
0.000724821
0.000845674
0.000984128
0.00109116
0.00113012
0.00108723
0.0010883
0.00206467
0.00212592
0.00108805
0.00103927
0.00108288
0.00104658
0.000944703
0.000812255
0.000696823
0.00069192
0.000568413
0.000651409
0.000884315
0.00133168
0.00171406
0.00202569
0.00216217
0.00203886
0.001667
0.00150901
0.00198954
0.00202853
0.00151208
0.00164233
0.00202678
0.00213698
0.0019937
0.00167929
0.00129287
0.000863706
0.000645507
0.000732847
0.000827223
0.000908555
0.000984248
0.00106026
0.00112926
0.0011934
0.00126209
0.00135114
0.0014636
0.0014611
0.00134721
0.00125677
0.00118822
0.0011239
0.00105461
0.000978433
0.000902838
0.000821754
0.000727588
0.000107836
0.000122067
0.000144304
0.000162388
0.000173925
0.000184132
0.000194314
0.000206394
0.000219207
0.000235513
0.000237648
0.000217987
0.000202234
0.000189039
0.000178826
0.000168518
0.000155949
0.00013483
0.000101165
0.000137704
0.000158287
0.000420773
0.000480164
0.000515972
0.000553627
0.000587376
0.00062617
0.000669172
0.000678915
0.000578347
0.000601892
0.000708489
0.000699597
0.000656925
0.000615576
0.000577111
0.000535971
0.000496606
0.00043315
0.000165931
0.000179383
0.000450936
0.000515742
0.000554539
0.00058363
0.000606084
0.000632034
0.000658617
0.000604338
0.000427228
0.000440566
0.000616379
0.000682889
0.000662008
0.000634447
0.000606776
0.000571366
0.000528362
0.000461909
0.000182966
0.000189304
0.000448753
0.0005344
0.000579256
0.000605065
0.000620916
0.000635708
0.000649176
0.000560226
0.000417719
0.000428326
0.000551982
0.000658156
0.000652187
0.000638351
0.000622544
0.000594931
0.000547254
0.000456435
0.00018583
0.000257353
0.000389829
0.000488473
0.000558927
0.000608322