/*--------------------------------*- C++ -*----------------------------------*\
| =========                 |                                                 |
| \\      /  F ield         | OpenFOAM: The Open Source CFD Toolbox           |
|  \\    /   O peration     | Version:  v1912                                 |
|   \\  /    A nd           | Website:  www.openfoam.com                      |
|    \\/     M anipulation  |                                                 |
\*---------------------------------------------------------------------------*/
FoamFile
{
    version     2.0;
    format      ascii;
    class       volScalarField;
    location    "300";
    object      epsilon;
}
// * * * * * * * * * * * * * * * * * * * * * * * * * * * * * * * * * * * * * //

dimensions      [0 2 -3 0 0 0 0];


internalField   nonuniform List<scalar> 
4000
(
1.17593e-07
4.56786e-08
1.71214e-08
1.22322e-08
1.00792e-08
8.57747e-09
8.08816e-09
7.41273e-09
8.69482e-09
1.64675e-08
8.04976e-09
7.44778e-09
8.05622e-09
8.48168e-09
9.54984e-09
1.17802e-08
1.44244e-08
2.04322e-08
6.9437e-08
1.79172e-07
4.03903e-07
2.96896e-07
1.82119e-07
1.04643e-07
2.43367e-08
2.09952e-08
2.16351e-08
2.08916e-08
2.07073e-08
2.66299e-08
2.12598e-08
2.16355e-08
2.14232e-08
2.18704e-08
2.15611e-08
3.7038e-08
1.29358e-07
2.07167e-07
3.27942e-07
4.39668e-07
5.16937e-07
4.35231e-07
3.12081e-07
1.9141e-07
1.0469e-07
3.80462e-08
3.19676e-08
3.18095e-08
3.51722e-08
3.95616e-08
3.82612e-08
3.52523e-08
3.18793e-08
3.11613e-08
4.96155e-08
1.25414e-07
2.24529e-07
3.57119e-07
4.74826e-07
5.53785e-07
5.88894e-07
5.28114e-07
4.09882e-07
2.66771e-07
1.70297e-07
1.06017e-07
6.60859e-08
3.44702e-08
4.33775e-08
4.79546e-08
4.81763e-08
4.48171e-08
3.70727e-08
7.26167e-08
1.16819e-07
1.91429e-07
3.0157e-07
4.51937e-07
5.69353e-07
6.25754e-07
6.41579e-07
6.11483e-07
5.22333e-07
3.98749e-07
2.71102e-07
1.79796e-07
1.21618e-07
8.62728e-08
5.95539e-08
4.33847e-08
4.37899e-08
6.41991e-08
9.47007e-08
1.3545e-07
2.08137e-07
3.08453e-07
4.43373e-07
5.70833e-07
6.55283e-07
6.79048e-07
6.87519e-07
6.96757e-07
6.60169e-07
5.90833e-07
5.16779e-07
4.3729e-07
3.51972e-07
2.70002e-07
1.96454e-07
1.45551e-07
1.55375e-07
2.21113e-07
3.08374e-07
4.05767e-07
4.93624e-07
5.72885e-07
6.47163e-07
7.1329e-07
7.43358e-07
7.26109e-07
7.34797e-07
7.92786e-07
8.21432e-07
8.22686e-07
8.10583e-07
7.8156e-07
7.34483e-07
6.70802e-07
5.97437e-07
5.18227e-07
5.33482e-07
6.31177e-07
7.17022e-07
7.89522e-07
8.43086e-07
8.74069e-07
8.85211e-07
8.79439e-07
8.42705e-07
7.75174e-07
7.89503e-07
9.04838e-07
1.00479e-06
1.07759e-06
1.1287e-06
1.15037e-06
1.13829e-06
1.0933e-06
1.01686e-06
9.07336e-07
9.26367e-07
1.05475e-06
1.14665e-06
1.20224e-06
1.22039e-06
1.20029e-06
1.1468e-06
1.06803e-06
9.5845e-07
8.31971e-07
8.5862e-07
1.04788e-06
1.22625e-06
1.37432e-06
1.4937e-06
1.57141e-06
1.59769e-06
1.57299e-06
1.49087e-06
1.34042e-06
1.3651e-06
1.53667e-06
1.63848e-06
1.67697e-06
1.65685e-06
1.5791e-06
1.45459e-06
1.29774e-06
1.10706e-06
9.03801e-07
9.59266e-07
1.23586e-06
1.4969e-06
1.7155e-06
1.90001e-06
2.04331e-06
2.13961e-06
2.17855e-06
2.13702e-06
1.95699e-06
1.99146e-06
2.18967e-06
2.24805e-06
2.22059e-06
2.13019e-06
1.98769e-06
1.79928e-06
1.57271e-06
1.29947e-06
1.00806e-06
4.63511e-08
3.28836e-08
2.43864e-08
2.4497e-08
2.49866e-08
1.72888e-08
1.58875e-08
1.42478e-08
1.17512e-08
1.16522e-08
1.28833e-08
1.44021e-08
1.47158e-08
1.60486e-08
1.96401e-08
2.68903e-08
2.70739e-08
2.78762e-08
4.49248e-08
7.28853e-08
2.96263e-07
2.77547e-07
2.02605e-07
1.60356e-07
7.23444e-08
2.8322e-08
2.58499e-08
2.29543e-08
2.09314e-08
2.14614e-08
2.08538e-08
2.14551e-08
2.32529e-08
2.77494e-08
3.444e-08
1.08537e-07
1.88151e-07
2.36692e-07
3.27894e-07
3.23008e-07
4.35189e-07
4.76718e-07
3.25884e-07
2.111e-07
1.44631e-07
1.0494e-07
4.8135e-08
3.77454e-08
3.2292e-08
3.24807e-08
3.26927e-08
3.32125e-08
3.9138e-08
5.79906e-08
1.20624e-07
1.66454e-07
2.46209e-07
3.77367e-07
5.12619e-07
4.71209e-07
5.28086e-07
5.61209e-07
4.85143e-07
3.1623e-07
2.02174e-07
1.39065e-07
1.05895e-07
8.01807e-08
5.08139e-08
4.49027e-08
4.56555e-08
5.36705e-08
8.7313e-08
1.11879e-07
1.49502e-07
2.20998e-07
3.43658e-07
5.0991e-07
5.79191e-07
5.64672e-07
6.11453e-07
5.81499e-07
5.23298e-07
4.13355e-07
2.74478e-07
1.84977e-07
1.29912e-07
9.79034e-08
7.92928e-08
7.25055e-08
7.49564e-08
8.43369e-08
1.04846e-07
1.40832e-07
2.03353e-07
3.02744e-07
4.53879e-07
5.57245e-07
6.1116e-07
6.50324e-07
6.96733e-07
6.36159e-07
5.95472e-07
5.25315e-07
4.32027e-07
3.23691e-07
2.44477e-07
1.81867e-07
1.33278e-07
1.06559e-07
1.11183e-07
1.44974e-07
2.02015e-07
2.74938e-07
3.62164e-07
4.81442e-07
5.7163e-07
6.38684e-07
6.74301e-07
7.38688e-07
7.92753e-07
7.25422e-07
7.12048e-07
6.87859e-07
6.55083e-07
5.86188e-07
4.71232e-07
3.74114e-07
3.10093e-07
2.66331e-07
2.73866e-07
3.28107e-07
4.01376e-07
5.18999e-07
6.4354e-07
7.06384e-07
7.39747e-07
7.61495e-07
7.69275e-07
8.38798e-07
9.0479e-07
8.68301e-07
9.04345e-07
9.33698e-07
9.65841e-07
9.70765e-07
9.1777e-07
8.13794e-07
6.84283e-07
5.43006e-07
5.6127e-07
7.23329e-07
8.69693e-07
9.76968e-07
1.03282e-06
1.03074e-06
9.97511e-07
9.64773e-07
9.20642e-07
9.55404e-07
1.04782e-06
1.15008e-06
1.31712e-06
1.45938e-06
1.58691e-06
1.66781e-06
1.65983e-06
1.58068e-06
1.42975e-06
1.20107e-06
1.22404e-06
1.47906e-06
1.65991e-06
1.75887e-06
1.77131e-06
1.68851e-06
1.55332e-06
1.4001e-06
1.21766e-06
1.10461e-06
1.23584e-06
1.60941e-06
1.97999e-06
2.30961e-06
2.60402e-06
2.84717e-06
3.02249e-06
3.11163e-06
3.08059e-06
2.87286e-06
2.91827e-06
3.15216e-06
3.20931e-06
3.13714e-06
2.96916e-06
2.72548e-06
2.42359e-06
2.08098e-06
1.69239e-06
1.29821e-06
1.7139e-08
2.43908e-08
2.9835e-08
3.68673e-08
3.4243e-08
2.1973e-08
1.97774e-08
1.85422e-08
1.78379e-08
1.80687e-08
1.8465e-08
1.80089e-08
1.82735e-08
2.05239e-08
2.58518e-08
4.03381e-08
3.77874e-08
3.18918e-08
2.77644e-08
2.03825e-08
1.81986e-07
2.02678e-07
1.82229e-07
1.5453e-07
6.9872e-08
3.67311e-08
3.20573e-08
2.81383e-08
2.57232e-08
2.62366e-08
2.62358e-08
2.65508e-08
2.91043e-08
3.53076e-08
4.07487e-08
1.07447e-07
1.84981e-07
2.08482e-07
2.36453e-07
2.04787e-07
3.1205e-07
3.25875e-07
2.45619e-07
1.8102e-07
1.39438e-07
1.08772e-07
6.17823e-08
4.62121e-08
3.93165e-08
3.87237e-08
3.94068e-08
4.10513e-08
4.89342e-08
7.46664e-08
1.25197e-07
1.57191e-07
2.11463e-07
2.8796e-07
3.75978e-07
3.54002e-07
4.09821e-07
4.85141e-07
4.05206e-07
2.79816e-07
1.93907e-07
1.43896e-07
1.17962e-07
9.03672e-08
6.42693e-08
5.64163e-08
5.81755e-08
6.90168e-08
9.67382e-08
1.23288e-07
1.53431e-07
2.11685e-07
3.07666e-07
4.38794e-07
5.04586e-07
4.44701e-07
5.22248e-07
5.23308e-07
4.72025e-07
3.67643e-07
2.57668e-07
1.82932e-07
1.35865e-07
1.08943e-07
9.49204e-08
9.01667e-08
9.35562e-08
9.893e-08
1.14221e-07
1.44579e-07
1.96931e-07
2.7962e-07
3.98651e-07
4.99384e-07
5.51778e-07
5.6132e-07
6.60086e-07
5.95467e-07
5.28383e-07
4.41992e-07
3.40301e-07
2.55455e-07
1.94092e-07
1.48882e-07
1.15976e-07
1.00253e-07
1.03076e-07
1.23084e-07
1.6135e-07
2.12684e-07
2.80177e-07
3.72677e-07
4.7801e-07
5.65988e-07
6.3316e-07
7.0404e-07
8.21365e-07
7.12033e-07
6.59971e-07
5.82051e-07
4.85661e-07
3.96597e-07
3.14444e-07
2.4525e-07
1.93773e-07
1.60988e-07
1.65196e-07
2.04734e-07
2.63458e-07
3.43406e-07
4.33177e-07
5.27837e-07
6.27468e-07
7.06226e-07
7.56009e-07
8.7162e-07
1.00475e-06
9.04311e-07
9.40842e-07
9.27053e-07
8.5766e-07
7.17233e-07
6.35427e-07
5.36687e-07
4.29166e-07
3.26165e-07
3.3596e-07
4.55878e-07
5.78172e-07
6.87269e-07
7.89009e-07
9.30151e-07
9.97669e-07
1.00497e-06
9.58732e-07
1.06168e-06
1.22621e-06
1.31707e-06
1.64861e-06
1.97531e-06
2.24819e-06
2.43878e-06
2.39054e-06
2.17993e-06
1.79416e-06
1.25547e-06
1.29237e-06
1.89878e-06
2.33431e-06
2.56706e-06
2.59944e-06
2.39732e-06
2.10181e-06
1.74994e-06
1.39427e-06
1.29227e-06
1.4969e-06
1.97998e-06
2.46792e-06
2.9193e-06
3.33479e-06
3.69051e-06
3.95606e-06
4.1033e-06
4.08764e-06
3.83092e-06
3.88769e-06
4.18007e-06
4.23027e-06
4.10401e-06
3.84552e-06
3.487e-06
3.05967e-06
2.59003e-06
2.07881e-06
1.56982e-06
1.21946e-08
2.44591e-08
3.70508e-08
4.68907e-08
3.71874e-08
2.84335e-08
2.45299e-08
2.24782e-08
2.21191e-08
2.29917e-08
2.30329e-08
2.23905e-08
2.35694e-08
2.72199e-08
3.34237e-08
4.69884e-08
5.18098e-08
3.77479e-08
2.70117e-08
1.4283e-08
1.04615e-07
1.60718e-07
1.5472e-07
1.18362e-07
5.62603e-08
4.18388e-08
3.59509e-08
3.25546e-08
3.15136e-08
3.29769e-08
3.32885e-08
3.30352e-08
3.49866e-08
3.97004e-08
4.76851e-08
8.68208e-08
1.53022e-07
1.85407e-07
1.8872e-07
1.29105e-07
1.91331e-07
2.11151e-07
1.81048e-07
1.47356e-07
1.27607e-07
9.61836e-08
6.40444e-08
5.11447e-08
4.57948e-08
4.56245e-08
4.69144e-08
4.882e-08
5.56037e-08
7.32173e-08
1.10163e-07
1.38167e-07
1.70705e-07
2.12037e-07
2.46789e-07
2.24374e-07
2.66617e-07
3.16212e-07
2.79815e-07
2.15896e-07
1.66828e-07
1.35563e-07
1.14003e-07
8.89562e-08
7.1011e-08
6.41216e-08
6.68693e-08
7.56687e-08
9.41833e-08
1.18371e-07
1.41737e-07
1.80086e-07
2.3738e-07
3.06912e-07
3.39305e-07
2.95743e-07
3.98697e-07
4.13378e-07
3.67652e-07
2.93295e-07
2.21446e-07
1.68538e-07
1.33373e-07
1.12945e-07
1.01487e-07
9.39119e-08
9.73864e-08
1.04958e-07
1.17027e-07
1.40235e-07
1.79611e-07
2.38386e-07
3.16633e-07
3.93841e-07
4.43042e-07
4.30898e-07
5.90818e-07
5.25353e-07
4.41994e-07
3.57632e-07
2.79153e-07
2.16056e-07
1.69502e-07
1.36287e-07
1.14016e-07
1.05182e-07
1.08104e-07
1.20187e-07
1.461e-07
1.83319e-07
2.34112e-07
3.0219e-07
3.85e-07
4.73162e-07
5.62151e-07
6.34465e-07
8.22684e-07
6.87839e-07
5.82028e-07
4.74193e-07
3.88481e-07
3.19078e-07
2.59605e-07
2.07913e-07
1.64232e-07
1.35928e-07
1.39844e-07
1.74673e-07
2.25037e-07
2.83461e-07
3.47429e-07
4.19942e-07
5.09609e-07
6.21806e-07
7.3151e-07
8.74733e-07
1.07758e-06
9.33618e-07
9.26998e-07
8.38686e-07
7.71033e-07
7.20035e-07
6.66737e-07
5.78273e-07
4.5584e-07
3.24636e-07
3.34871e-07
4.89642e-07
6.33083e-07
7.33454e-07
7.92412e-07
8.38347e-07
9.08262e-07
9.90582e-07
9.89361e-07
1.13814e-06
1.37428e-06
1.45927e-06
1.97521e-06
2.56211e-06
3.00294e-06
3.31527e-06
3.45921e-06
3.32391e-06
2.84636e-06
2.07089e-06
2.10428e-06
2.96515e-06
3.5371e-06
3.706e-06
3.56084e-06
3.2206e-06
2.72628e-06
2.09498e-06
1.54346e-06
1.44664e-06
1.71548e-06
2.30958e-06
2.91929e-06
3.50435e-06
4.06051e-06
4.55496e-06
4.94791e-06
5.18401e-06
5.20619e-06
4.95269e-06
5.01631e-06
5.31874e-06
5.33812e-06
5.12492e-06
4.73793e-06
4.23803e-06
3.66509e-06
3.05659e-06
2.41899e-06
1.79482e-06
9.98158e-09
2.48032e-08
3.44578e-08
3.72513e-08
3.29043e-08
3.02728e-08
2.8134e-08
2.70593e-08
2.78057e-08
3.04722e-08
3.03555e-08
2.88418e-08
2.96608e-08
3.24062e-08
3.63878e-08
4.24049e-08
4.69246e-08
4.01676e-08
2.68379e-08
1.15492e-08
2.42975e-08
7.23977e-08
6.99599e-08
5.63143e-08
4.52869e-08
4.1703e-08
3.82137e-08
3.72988e-08
3.95399e-08
4.56577e-08
4.57906e-08
4.18317e-08
4.0699e-08
4.24013e-08
4.72317e-08
5.81675e-08
8.70539e-08
1.08239e-07
1.0969e-07
3.7893e-08
1.04456e-07
1.44624e-07
1.39466e-07
1.27618e-07
1.06617e-07
7.70763e-08
5.9861e-08
5.26946e-08
5.12699e-08
5.48158e-08
5.62122e-08
5.44918e-08
5.68016e-08
6.65703e-08
8.91025e-08
1.17916e-07
1.38461e-07
1.57949e-07
1.6748e-07
1.25843e-07
1.70102e-07
2.02129e-07
1.93892e-07
1.66834e-07
1.42184e-07
1.23897e-07
1.02871e-07
8.26267e-08
7.20296e-08
7.02604e-08
7.28676e-08
7.59417e-08
8.74494e-08
1.0718e-07
1.27685e-07
1.49809e-07
1.80146e-07
2.11469e-07
2.19443e-07
1.89401e-07
2.70944e-07
2.74439e-07
2.57664e-07
2.21457e-07
1.81664e-07
1.48724e-07
1.25721e-07
1.11055e-07
1.01367e-07
9.57062e-08
9.92746e-08
1.05138e-07
1.14233e-07
1.30723e-07
1.56843e-07
1.93689e-07
2.37207e-07
2.75467e-07
2.9422e-07
2.95412e-07
5.16646e-07
4.32058e-07
3.40315e-07
2.79163e-07
2.27613e-07
1.84668e-07
1.51557e-07
1.28729e-07
1.15243e-07
1.16527e-07
1.20287e-07
1.21422e-07
1.37378e-07
1.62877e-07
1.9877e-07
2.44746e-07
2.99348e-07
3.65099e-07
4.67414e-07
5.58575e-07
8.10518e-07
6.5509e-07
4.85682e-07
3.88479e-07
3.29238e-07
2.83264e-07
2.43414e-07
2.07061e-07
1.73748e-07
1.56198e-07
1.62062e-07
1.87281e-07
2.26661e-07
2.67233e-07
3.08882e-07
3.55152e-07
4.15289e-07
5.17799e-07
6.97606e-07
8.6233e-07
1.12866e-06
9.6577e-07
8.57636e-07
7.70996e-07
8.02943e-07
8.38894e-07
8.36811e-07
7.68115e-07
6.23607e-07
4.44422e-07
4.59264e-07
6.71423e-07
8.42708e-07
9.23363e-07
9.24008e-07
8.75502e-07
8.31043e-07
9.17934e-07
1.02223e-06
1.19033e-06
1.49368e-06
1.58679e-06
2.24803e-06
3.00285e-06
3.7945e-06
4.54078e-06
5.00742e-06
5.00751e-06
4.37308e-06
3.22763e-06
3.26649e-06
4.53551e-06
5.27216e-06
5.30889e-06
4.83957e-06
4.05539e-06
3.2065e-06
2.38433e-06
1.67625e-06
1.56934e-06
1.90001e-06
2.604e-06
3.3348e-06
4.06051e-06
4.79426e-06
5.46976e-06
6.02105e-06
6.39555e-06
6.52691e-06
6.38292e-06
6.45371e-06
6.65305e-06
6.56615e-06
6.217e-06
5.67367e-06
4.98894e-06
4.23406e-06
3.48081e-06
2.71879e-06
1.98203e-06
8.30929e-09
1.6498e-08
2.21128e-08
2.83245e-08
3.01819e-08
3.07118e-08
3.08528e-08
3.19102e-08
3.5094e-08
4.09243e-08
4.04544e-08
3.65819e-08
3.53772e-08
3.56286e-08
3.6248e-08
3.61479e-08
3.29462e-08
2.56325e-08
1.93186e-08
9.2881e-09
2.10499e-08
2.80933e-08
3.66436e-08
4.18436e-08
4.1688e-08
4.01972e-08
3.94513e-08
4.12902e-08
4.80448e-08
6.05808e-08
5.8924e-08
4.9099e-08
4.43413e-08
4.33547e-08
4.46944e-08
4.703e-08
4.71212e-08
4.0447e-08
3.42653e-08
2.11636e-08
3.78253e-08
1.04783e-07
1.0866e-07
9.6139e-08
7.70824e-08
6.31947e-08
5.53547e-08
5.23003e-08
5.55317e-08
6.55664e-08
6.50825e-08
5.73958e-08
5.59018e-08
6.06055e-08
7.14599e-08
8.91683e-08
1.10435e-07
1.25613e-07
1.20574e-07
4.96962e-08
1.05763e-07
1.39016e-07
1.43859e-07
1.35558e-07
1.23904e-07
1.07018e-07
8.84488e-08
7.50456e-08
7.04393e-08
7.64855e-08
7.79203e-08
7.4084e-08
7.9594e-08
9.3286e-08
1.10813e-07
1.27657e-07
1.417e-07
1.53273e-07
1.48759e-07
1.15311e-07
1.7958e-07
1.84909e-07
1.82907e-07
1.68538e-07
1.48727e-07
1.30409e-07
1.15294e-07
1.04356e-07
9.72062e-08
1.0052e-07
1.03927e-07
1.01472e-07
1.0735e-07
1.18556e-07
1.35572e-07
1.5651e-07
1.78452e-07
1.94058e-07
1.97685e-07
1.97741e-07
4.37272e-07
3.23709e-07
2.55459e-07
2.1606e-07
1.8467e-07
1.57596e-07
1.36222e-07
1.21928e-07
1.16626e-07
1.31855e-07
1.36644e-07
1.22928e-07
1.29528e-07
1.45721e-07
1.68877e-07
1.97727e-07
2.31054e-07
2.74119e-07
3.52092e-07
4.79628e-07
7.81605e-07
5.86272e-07
3.96613e-07
3.1907e-07
2.83256e-07
2.59973e-07
2.39909e-07
2.20578e-07
2.029e-07
2.09338e-07
2.18532e-07
2.21301e-07
2.43716e-07
2.64971e-07
2.84542e-07
3.06138e-07
3.41445e-07
4.23887e-07
6.30143e-07
8.31234e-07
1.15039e-06
9.70724e-07
7.17301e-07
7.20004e-07
8.38869e-07
9.54874e-07
1.01263e-06
9.68999e-07
7.98952e-07
5.81794e-07
6.02175e-07
8.56461e-07
1.05614e-06
1.11169e-06
1.04948e-06
9.17108e-07
7.80077e-07
7.72823e-07
1.02483e-06
1.21009e-06
1.57142e-06
1.66768e-06
2.43861e-06
3.31513e-06
4.54067e-06
5.65562e-06
6.38293e-06
6.45814e-06
5.5256e-06
4.03414e-06
4.07865e-06
5.68246e-06
6.72652e-06
6.70296e-06
5.98703e-06
4.83275e-06
3.54071e-06
2.58367e-06
1.75771e-06
1.64621e-06
2.0433e-06
2.84715e-06
3.69051e-06
4.55492e-06
5.46971e-06
6.3209e-06
7.05335e-06
7.60405e-06
7.9102e-06
7.97103e-06
8.0496e-06
8.04252e-06
7.7781e-06
7.25209e-06
6.52871e-06
5.66995e-06
4.73096e-06
3.83711e-06
2.96114e-06
2.12388e-06
7.89871e-09
1.34793e-08
1.92918e-08
2.4406e-08
2.79129e-08
3.07417e-08
3.35765e-08
3.78288e-08
4.48429e-08
5.6372e-08
5.51838e-08
4.62549e-08
4.14561e-08
3.82028e-08
3.55763e-08
3.22263e-08
2.6962e-08
2.039e-08
1.54442e-08
8.18378e-09
2.19936e-08
2.57632e-08
3.19573e-08
3.59255e-08
3.81816e-08
3.94356e-08
4.15044e-08
4.73687e-08
6.19348e-08
9.2978e-08
8.74039e-08
6.05192e-08
4.94096e-08
4.48705e-08
4.32806e-08
4.22321e-08
3.96407e-08
3.50273e-08
2.72526e-08
2.15441e-08
3.19267e-08
4.81217e-08
6.16463e-08
6.40021e-08
5.98678e-08
5.53642e-08
5.24245e-08
5.37054e-08
6.48666e-08
9.58746e-08
9.13448e-08
6.43652e-08
5.62472e-08
5.64346e-08
6.05415e-08
6.64335e-08
7.29855e-08
7.40949e-08
5.75338e-08
3.03636e-08
6.58713e-08
1.05851e-07
1.1791e-07
1.14e-07
1.02888e-07
8.8457e-08
7.6179e-08
6.96474e-08
7.5858e-08
1.16141e-07
1.11887e-07
7.73912e-08
7.34318e-08
8.08307e-08
9.32155e-08
1.07002e-07
1.18038e-07
1.2277e-07
1.1098e-07
7.12547e-08
1.21478e-07
1.29845e-07
1.35837e-07
1.33373e-07
1.25728e-07
1.15297e-07
1.04583e-07
9.64267e-08
9.96297e-08
1.54245e-07
1.50176e-07
1.02747e-07
9.96182e-08
1.07314e-07
1.18434e-07
1.30323e-07
1.39301e-07
1.42692e-07
1.37654e-07
1.31074e-07
3.52143e-07
2.44553e-07
1.94116e-07
1.69511e-07
1.5156e-07
1.36221e-07
1.23845e-07
1.16821e-07
1.25374e-07
2.10256e-07
2.0863e-07
1.30869e-07
1.23367e-07
1.31657e-07
1.45359e-07
1.61759e-07
1.80948e-07
2.08388e-07
2.67193e-07
3.9131e-07
7.34566e-07
4.71383e-07
3.14494e-07
2.5961e-07
2.43404e-07
2.39902e-07
2.38806e-07
2.38133e-07
2.47142e-07
3.47e-07
3.56119e-07
2.69932e-07
2.64116e-07
2.64595e-07
2.63337e-07
2.6372e-07
2.78229e-07
3.36029e-07
5.06396e-07
7.79053e-07
1.13834e-06
9.17758e-07
6.35411e-07
6.66697e-07
8.36765e-07
1.0126e-06
1.11813e-06
1.08201e-06
8.75425e-07
7.00595e-07
7.24938e-07
9.33305e-07
1.16792e-06
1.21652e-06
1.10625e-06
9.13185e-07
7.21729e-07
6.77e-07
9.6752e-07
1.19257e-06
1.59768e-06
1.6597e-06
2.39047e-06
3.45899e-06
5.00712e-06
6.38269e-06
7.29846e-06
7.23344e-06
5.68138e-06
4.13954e-06
4.2083e-06
5.78533e-06
7.43937e-06
7.58363e-06
6.69734e-06
5.2968e-06
3.6842e-06
2.54164e-06
1.74407e-06
1.66656e-06
2.13957e-06
3.02246e-06
3.95602e-06
4.94782e-06
6.02095e-06
7.05331e-06
7.98463e-06
8.75927e-06
9.36018e-06
9.85713e-06
9.9442e-06
9.49604e-06
8.92815e-06
8.17275e-06
7.24917e-06
6.2106e-06
5.11585e-06
4.09425e-06
3.12866e-06
2.21426e-06
8.9804e-09
1.14922e-08
1.66848e-08
2.20315e-08
2.67393e-08
3.16547e-08
3.76897e-08
4.67064e-08
5.89213e-08
7.60243e-08
7.34901e-08
5.93445e-08
4.96028e-08
4.14945e-08
3.54031e-08
2.96034e-08
2.33413e-08
1.78085e-08
1.32025e-08
8.00475e-09
2.18004e-08
2.29558e-08
2.79863e-08
3.25445e-08
3.72915e-08
4.12858e-08
4.73674e-08
6.0748e-08
9.09162e-08
1.51252e-07
1.37412e-07
8.33929e-08
5.99721e-08
4.93962e-08
4.42888e-08
4.06922e-08
3.48914e-08
2.8948e-08
2.30303e-08
2.16268e-08
3.18942e-08
3.78399e-08
4.62005e-08
5.11504e-08
5.27218e-08
5.23268e-08
5.37157e-08
6.39969e-08
1.02352e-07
2.70421e-07
2.49578e-07
9.40169e-08
6.36458e-08
5.62624e-08
5.58676e-08
5.66908e-08
5.54561e-08
4.8803e-08
3.88465e-08
3.16852e-08
3.43525e-08
8.01473e-08
9.02721e-08
8.89405e-08
8.26429e-08
7.50544e-08
6.96469e-08
7.50786e-08
1.32162e-07
5.201e-07
4.77373e-07
1.21282e-07
7.61561e-08
7.34515e-08
7.95397e-08
8.72111e-08
9.35967e-08
9.5712e-08
8.58636e-08
3.6415e-08
8.62104e-08
9.78552e-08
1.08922e-07
1.12946e-07
1.11061e-07
1.04355e-07
9.64226e-08
9.80957e-08
1.83407e-07
9.38938e-07
8.33715e-07
1.67148e-07
9.99739e-08
9.96313e-08
1.07251e-07
1.13908e-07
1.16314e-07
1.13e-07
1.03088e-07
9.24763e-08
2.70382e-07
1.82009e-07
1.48934e-07
1.36304e-07
1.28731e-07
1.21923e-07
1.16817e-07
1.22878e-07
2.44689e-07
1.45971e-06
1.31993e-06
2.28967e-07
1.2739e-07
1.23315e-07
1.29242e-07
1.36676e-07
1.44784e-07
1.59001e-07
1.97695e-07
3.00012e-07
6.70926e-07
3.74174e-07
2.45288e-07
2.07921e-07
2.07052e-07
2.20566e-07
2.38126e-07
2.67907e-07
4.34369e-07
1.87273e-06
1.75382e-06
4.44651e-07
2.94726e-07
2.63167e-07
2.41682e-07
2.23791e-07
2.21684e-07
2.59426e-07
3.95494e-07
7.08584e-07
1.09336e-06
8.13892e-07
5.36704e-07
5.78247e-07
7.68058e-07
9.68942e-07
1.08198e-06
1.01844e-06
9.15878e-07
2.12664e-06
2.04312e-06
9.60785e-07
1.09259e-06
1.16411e-06
1.04808e-06
8.3215e-07
6.22872e-07
5.69096e-07
8.57495e-07
1.13861e-06
1.57296e-06
1.58056e-06
2.1799e-06
3.3236e-06
5.00706e-06
6.45781e-06
7.23335e-06
6.50128e-06
4.73296e-06
6.67843e-06
6.55306e-06
4.89783e-06
6.66721e-06
7.43783e-06
6.71833e-06
5.25714e-06
3.51641e-06
2.3092e-06
1.64779e-06
1.63002e-06
2.17852e-06
3.11163e-06
4.10326e-06
5.18391e-06
6.39546e-06
7.60402e-06
8.75927e-06
9.8668e-06
1.10886e-05
1.28516e-05
1.29107e-05
1.12355e-05
1.00307e-05
8.92645e-06
7.77364e-06
6.55879e-06
5.32898e-06
4.22119e-06
3.20176e-06
2.2425e-06
1.10451e-08
1.50296e-08
1.6303e-08
2.15257e-08
2.74366e-08
3.47074e-08
4.45609e-08
5.87847e-08
7.0369e-08
8.63795e-08
8.32964e-08
6.96446e-08
5.93658e-08
4.63744e-08
3.67377e-08
2.88759e-08
2.20631e-08
1.67242e-08
1.211e-08
9.28474e-09
2.26138e-08
2.17641e-08
2.58268e-08
3.14778e-08
3.95613e-08
4.8079e-08
6.19459e-08
9.08974e-08
1.51492e-07
9.52324e-07
8.60013e-07
1.38389e-07
8.33014e-08
6.04821e-08
4.91512e-08
4.20718e-08
3.32744e-08
2.66127e-08
2.17283e-08
2.26942e-08
3.55176e-08
3.23847e-08
3.92319e-08
4.57861e-08
5.13049e-08
5.55743e-08
6.48877e-08
1.02349e-07
3.36711e-07
3.52562e-06
3.28389e-06
3.10065e-07
9.40719e-08
6.44836e-08
5.7522e-08
5.47087e-08
4.91241e-08
4.12698e-08
3.31975e-08
3.56729e-08
4.3568e-08
5.06132e-08
6.41694e-08
7.10063e-08
7.20552e-08
7.04511e-08
7.58594e-08
1.3216e-07
7.09113e-07
7.34277e-06
6.90621e-06
6.45517e-07
1.21437e-07
7.75969e-08
7.42475e-08
7.59954e-08
7.55418e-08
6.86007e-08
5.32795e-08
4.42954e-08
5.96303e-08
7.92254e-08
9.48974e-08
1.01501e-07
1.01376e-07
9.72021e-08
9.96239e-08
1.83405e-07
1.4328e-06
1.26711e-05
1.19201e-05
1.21894e-06
1.67366e-07
1.03011e-07
1.01636e-07
1.05103e-07
1.04645e-07
9.82436e-08
8.35197e-08
6.34081e-08
1.96996e-07
1.3346e-07
1.16051e-07
1.1404e-07
1.15243e-07
1.16619e-07
1.25369e-07
2.44688e-07
2.21197e-06
1.80235e-05
1.68738e-05
1.92477e-06
2.29196e-07
1.3114e-07
1.23112e-07
1.21432e-07
1.19922e-07
1.22189e-07
1.42672e-07
2.16325e-07
5.97609e-07
3.10188e-07
1.93826e-07
1.64251e-07
1.73746e-07
2.0289e-07
2.47133e-07
4.34363e-07
2.86296e-06
2.11514e-05
1.97033e-05
2.56736e-06
4.44193e-07
2.6905e-07
2.19957e-07
1.85674e-07
1.7282e-07
2.02097e-07
3.23748e-07
6.25406e-07
1.01692e-06
6.84395e-07
4.29209e-07
4.55835e-07
6.23561e-07
7.98893e-07
8.75382e-07
9.15858e-07
3.15158e-06
2.00629e-05
1.87243e-05
2.90742e-06
9.58501e-07
9.28421e-07
8.4894e-07
6.63405e-07
4.8292e-07
4.49227e-07
7.13616e-07
1.0495e-06
1.49087e-06
1.42965e-06
1.7942e-06
2.8461e-06
4.37264e-06
5.52525e-06
5.68122e-06
4.73295e-06
6.46342e-06
1.58172e-05
1.51552e-05
6.35589e-06
4.89572e-06
5.78423e-06
5.67115e-06
4.52201e-06
2.9579e-06
1.88027e-06
1.47157e-06
1.53143e-06
2.13706e-06
3.08064e-06
4.08763e-06
5.20612e-06
6.52686e-06
7.91019e-06
9.36018e-06
1.10886e-05
1.3675e-05
1.74593e-05
1.75404e-05
1.37902e-05
1.12337e-05
9.49338e-06
8.03791e-06
6.64684e-06
5.31236e-06
4.17384e-06
3.14701e-06
2.18583e-06
1.48617e-08
1.53755e-08
1.73872e-08
2.28323e-08
3.02945e-08
4.05546e-08
5.59917e-08
7.57422e-08
8.6222e-08
9.60392e-08
9.26505e-08
8.31974e-08
7.3394e-08
5.52714e-08
4.06617e-08
3.0405e-08
2.26186e-08
1.71534e-08
1.39173e-08
1.21615e-08
2.64099e-08
2.34186e-08
2.65109e-08
3.30035e-08
4.577e-08
6.06801e-08
9.30169e-08
1.51187e-07
9.51997e-07
1.36359e-06
1.30631e-06
8.58969e-07
1.3688e-07
8.70876e-08
5.90329e-08
4.6306e-08
3.37677e-08
2.6823e-08
2.24751e-08
2.44127e-08
3.95923e-08
3.29038e-08
3.86297e-08
4.56074e-08
5.48514e-08
6.56153e-08
9.59038e-08
2.70358e-07
3.52483e-06
2.99436e-06
2.96133e-06
3.27978e-06
2.49178e-07
9.15784e-08
6.54893e-08
5.68983e-08
4.76472e-08
4.00279e-08
3.33226e-08
3.96245e-08
4.82102e-08
4.4778e-08
5.63486e-08
6.41316e-08
7.02822e-08
7.64989e-08
1.16149e-07
5.20056e-07
7.34198e-06
5.17216e-06
5.27221e-06
6.89769e-06
4.76839e-07
1.12454e-07
7.85774e-08
7.35435e-08
6.74639e-08
5.87708e-08
4.62081e-08
4.85269e-08
4.38696e-08
7.23543e-08
9.01456e-08
9.39321e-08
9.57162e-08
1.00521e-07
1.5424e-07
9.38871e-07
1.26705e-05
8.01577e-06
8.38423e-06
1.19037e-05
8.32519e-07
1.50968e-07
1.04838e-07
1.00068e-07
9.78237e-08
9.39029e-08
7.56717e-08
4.37996e-08
1.46804e-07
1.06974e-07
1.00393e-07
1.05224e-07
1.16537e-07
1.31861e-07
2.10256e-07
1.45967e-06
1.80229e-05
1.13143e-05
1.20672e-05
1.68482e-05
1.31803e-06
2.0975e-07
1.37989e-07
1.21555e-07
1.08906e-07
1.03106e-07
1.10267e-07
1.53099e-07
5.18502e-07
2.66449e-07
1.61062e-07
1.35963e-07
1.56213e-07
2.09335e-07
3.46989e-07
1.87266e-06
2.11508e-05
1.45214e-05
1.57315e-05
1.96776e-05
1.7531e-06
3.57158e-07
2.19236e-07
1.62338e-07
1.39312e-07
1.63517e-07
2.70775e-07
5.3028e-07
9.07419e-07
5.43181e-07
3.2624e-07
3.24663e-07
4.4441e-07
5.81761e-07
7.0056e-07
2.12656e-06
2.00625e-05
1.6124e-05
1.76481e-05
1.87036e-05
2.04059e-06
7.23004e-07
5.99839e-07
4.56821e-07
3.32356e-07
3.32353e-07
5.54308e-07
9.24062e-07
1.34051e-06
1.20097e-06
1.25554e-06
2.07074e-06
3.22738e-06
4.03394e-06
4.13942e-06
6.67825e-06
1.5817e-05
1.66985e-05
1.81034e-05
1.51433e-05
6.54914e-06
4.20672e-06
4.08003e-06
3.26566e-06
2.10142e-06
1.28644e-06
1.22232e-06
1.36354e-06
1.95712e-06
2.87296e-06
3.83097e-06
4.95267e-06
6.38289e-06
7.97101e-06
9.85709e-06
1.28515e-05
1.74592e-05
1.83806e-05
1.95106e-05
1.75345e-05
1.29056e-05
9.94065e-06
8.04784e-06
6.45213e-06
5.01443e-06
3.88519e-06
2.9163e-06
1.99014e-06
1.11113e-08
1.32047e-08
1.68236e-08
2.26062e-08
3.00531e-08
4.01243e-08
5.4926e-08
7.33344e-08
8.32205e-08
9.26313e-08
9.5227e-08
8.55872e-08
7.54921e-08
5.62791e-08
4.11371e-08
3.06843e-08
2.30539e-08
1.82134e-08
1.6505e-08
1.64057e-08
2.36691e-08
2.19145e-08
2.63557e-08
3.33458e-08
4.59194e-08
5.9007e-08
8.74249e-08
1.37352e-07
8.59801e-07
1.30618e-06
1.35813e-06
9.43848e-07
1.49795e-07
9.24203e-08
6.07364e-08
4.62736e-08
3.3567e-08
2.72597e-08
2.44428e-08
2.7494e-08
3.86099e-08
3.26524e-08
3.92888e-08
4.68994e-08
5.62287e-08
6.51009e-08
9.13417e-08
2.49498e-07
3.28344e-06
2.96102e-06
2.98449e-06
3.48926e-06
2.67714e-07
9.61829e-08
6.62705e-08
5.56785e-08
4.64276e-08
3.94876e-08
3.38528e-08
4.10856e-08
4.82532e-08
4.55606e-08
5.81044e-08
6.68563e-08
7.28604e-08
7.79076e-08
1.11854e-07
4.77238e-07
6.90577e-06
5.27166e-06
5.15932e-06
7.26759e-06
5.15114e-07
1.17024e-07
7.74731e-08
7.11405e-08
6.48736e-08
5.72249e-08
4.58491e-08
4.95241e-08
4.424e-08
7.4871e-08
9.35084e-08
9.73662e-08
9.92532e-08
1.039e-07
1.5012e-07
8.33484e-07
1.19196e-05
8.38343e-06
8.00361e-06
1.25621e-05
9.34219e-07
1.5569e-07
1.01757e-07
9.67133e-08
9.47134e-08
9.14481e-08
7.43032e-08
4.53496e-08
1.56291e-07
1.11514e-07
1.03178e-07
1.08113e-07
1.20267e-07
1.36611e-07
2.08556e-07
1.31959e-06
1.68733e-05
1.20662e-05
1.13072e-05
1.79096e-05
1.45613e-06
2.12684e-07
1.33874e-07
1.18009e-07
1.06034e-07
1.00889e-07
1.07563e-07
1.47311e-07
5.33667e-07
2.73955e-07
1.6525e-07
1.39866e-07
1.62061e-07
2.18504e-07
3.56049e-07
1.7535e-06
1.97026e-05
1.57305e-05
1.45211e-05
2.1051e-05
1.86951e-06
3.49952e-07
2.11884e-07
1.57995e-07
1.36563e-07
1.60654e-07
2.65359e-07
5.18343e-07
9.2646e-07
5.61427e-07
3.36033e-07
3.34908e-07
4.59281e-07
6.02181e-07
7.24924e-07
2.0429e-06
1.87237e-05
1.76473e-05
1.61242e-05
1.99887e-05
2.12663e-06
7.06887e-07
5.88221e-07
4.4932e-07
3.26979e-07
3.26181e-07
5.41354e-07
9.08975e-07
1.36523e-06
1.22393e-06
1.29243e-06
2.10417e-06
3.26644e-06
4.0787e-06
4.2083e-06
6.55288e-06
1.51548e-05
1.81029e-05
1.66917e-05
1.57748e-05
6.67442e-06
4.15614e-06
4.05531e-06
3.24634e-06
2.08375e-06
1.26313e-06
1.20465e-06
1.34405e-06
1.99155e-06
2.91831e-06
3.88773e-06
5.01632e-06
6.45373e-06
8.0496e-06
9.9441e-06
1.29105e-05
1.754e-05
1.95102e-05
1.83772e-05
1.74438e-05
1.28478e-05
9.86472e-06
7.98487e-06
6.39892e-06
4.96789e-06
3.84328e-06
2.88185e-06
1.96325e-06
8.40318e-09
1.22705e-08
1.68389e-08
2.21699e-08
2.8547e-08
3.63478e-08
4.61386e-08
5.93079e-08
6.96422e-08
8.32172e-08
8.56227e-08
6.95361e-08
5.8508e-08
4.4908e-08
3.53634e-08
2.79629e-08
2.18461e-08
1.68684e-08
1.39548e-08
1.17183e-08
2.22243e-08
2.14799e-08
2.64498e-08
3.3113e-08
4.18769e-08
4.91113e-08
6.05048e-08
8.33584e-08
1.38353e-07
8.59028e-07
9.44065e-07
1.49327e-07
9.01799e-08
6.18675e-08
4.83252e-08
4.00858e-08
3.20349e-08
2.64589e-08
2.24859e-08
2.37129e-08
3.53471e-08
3.29914e-08
4.09855e-08
4.88277e-08
5.44928e-08
5.7392e-08
6.43525e-08
9.39846e-08
3.10005e-07
3.27999e-06
3.48966e-06
3.31852e-07
1.02197e-07
6.53261e-08
5.61225e-08
5.19357e-08
4.64971e-08
4.00508e-08
3.33086e-08
3.71346e-08
4.47586e-08
5.35359e-08
6.89329e-08
7.5629e-08
7.59141e-08
7.40602e-08
7.7366e-08
1.21235e-07
6.454e-07
6.89799e-06
7.26803e-06
7.01972e-07
1.32374e-07
7.64319e-08
7.0999e-08
7.26569e-08
7.17347e-08
6.51163e-08
5.1958e-08
4.52431e-08
6.42131e-08
8.43004e-08
9.88818e-08
1.04914e-07
1.05099e-07
1.01438e-07
1.02714e-07
1.67086e-07
1.21874e-06
1.19041e-05
1.25625e-05
1.41884e-06
1.83866e-07
1.00258e-07
9.78379e-08
1.02164e-07
1.02621e-07
9.62594e-08
8.0526e-08
6.07217e-08
2.21502e-07
1.45105e-07
1.23106e-07
1.20166e-07
1.2139e-07
1.22894e-07
1.3083e-07
2.28894e-07
1.92447e-06
1.68485e-05
1.791e-05
2.20008e-06
2.4573e-07
1.26341e-07
1.17462e-07
1.1592e-07
1.14578e-07
1.16675e-07
1.34661e-07
2.00146e-07
6.31256e-07
3.28122e-07
2.04738e-07
1.74659e-07
1.87251e-07
2.2126e-07
2.69882e-07
4.44556e-07
2.56704e-06
1.96778e-05
2.10513e-05
2.85325e-06
4.36095e-07
2.49137e-07
2.04729e-07
1.75199e-07
1.65176e-07
1.94326e-07
3.10914e-07
6.0017e-07
1.05483e-06
7.23423e-07
4.55906e-07
4.8963e-07
6.71393e-07
8.56434e-07
9.33304e-07
9.60759e-07
2.9072e-06
1.87035e-05
1.99889e-05
3.14694e-06
9.22735e-07
8.84402e-07
8.08636e-07
6.31931e-07
4.61345e-07
4.31761e-07
6.86594e-07
1.01983e-06
1.53677e-06
1.47898e-06
1.8988e-06
2.96501e-06
4.53548e-06
5.68254e-06
5.78567e-06
4.89796e-06
6.35567e-06
1.51432e-05
1.57749e-05
6.46655e-06
4.75417e-06
5.71056e-06
5.56206e-06
4.40603e-06
2.87158e-06
1.80767e-06
1.434e-06
1.4949e-06
2.18968e-06
3.15214e-06
4.18006e-06
5.31873e-06
6.65303e-06
8.04249e-06
9.496e-06
1.12353e-05
1.379e-05
1.75342e-05
1.74438e-05
1.36712e-05
1.10942e-05
9.37275e-06
7.92751e-06
6.54548e-06
5.22327e-06
4.10041e-06
3.08942e-06
2.14264e-06
7.72014e-09
1.33871e-08
1.8041e-08
2.34621e-08
2.94027e-08
3.52314e-08
4.14177e-08
4.9611e-08
5.9383e-08
7.34272e-08
7.55472e-08
5.85314e-08
4.67144e-08
3.80881e-08
3.22807e-08
2.73354e-08
2.24944e-08
1.76052e-08
1.19176e-08
8.84892e-09
2.15945e-08
2.31563e-08
2.91604e-08
3.50689e-08
4.06834e-08
4.43214e-08
4.93896e-08
5.99509e-08
8.32823e-08
1.36882e-07
1.49838e-07
9.01808e-08
6.0599e-08
4.75329e-08
4.16335e-08
3.78167e-08
3.31455e-08
2.86796e-08
2.37485e-08
2.24965e-08
3.17986e-08
3.90516e-08
4.89199e-08
5.55996e-08
5.67831e-08
5.58835e-08
5.62312e-08
6.36262e-08
9.40467e-08
2.49155e-07
2.67747e-07
1.02192e-07