/*--------------------------------*- C++ -*----------------------------------*\
| =========                 |                                                 |
| \\      /  F ield         | OpenFOAM: The Open Source CFD Toolbox           |
|  \\    /   O peration     | Version:  v1912                                 |
|   \\  /    A nd           | Website:  www.openfoam.com                      |
|    \\/     M anipulation  |                                                 |
\*---------------------------------------------------------------------------*/
FoamFile
{
    version     2.0;
    format      ascii;
    class       volScalarField;
    location    "300";
    object      k;
}
// * * * * * * * * * * * * * * * * * * * * * * * * * * * * * * * * * * * * * //

dimensions      [0 2 -2 0 0 0 0];


internalField   nonuniform List<scalar> 
4000
(
1.64138e-05
9.90869e-06
4.89184e-06
3.89708e-06
3.40924e-06
3.03237e-06
2.90978e-06
3.07087e-06
3.5921e-06
4.35232e-06
3.64301e-06
3.06383e-06
2.84178e-06
2.96202e-06
3.26757e-06
3.77584e-06
4.33417e-06
5.49469e-06
1.27265e-05
2.37118e-05
3.98884e-05
3.24149e-05
2.34743e-05
1.63843e-05
6.1402e-06
5.55348e-06
5.71015e-06
5.66385e-06
5.82383e-06
6.47508e-06
6.0255e-06
5.81249e-06
5.66972e-06
5.69988e-06
5.64789e-06
8.28961e-06
1.87948e-05
2.56851e-05
3.47811e-05
4.23098e-05
4.71005e-05
4.20075e-05
3.37047e-05
2.43741e-05
1.63072e-05
8.38519e-06
7.37463e-06
7.36556e-06
7.92038e-06
8.52994e-06
8.37429e-06
7.89659e-06
7.35449e-06
7.21955e-06
9.96731e-06
1.83928e-05
2.70864e-05
3.68534e-05
4.45196e-05
4.93128e-05
5.13577e-05
4.77682e-05
4.03567e-05
3.0333e-05
2.2501e-05
1.63895e-05
1.19917e-05
7.74301e-06
9.06368e-06
9.69321e-06
9.70354e-06
9.22982e-06
8.1532e-06
1.27375e-05
1.74946e-05
2.43244e-05
3.29336e-05
4.30873e-05
5.02283e-05
5.34795e-05
5.43686e-05
5.26596e-05
4.74158e-05
3.96044e-05
3.06199e-05
2.32654e-05
1.79282e-05
1.42539e-05
1.11554e-05
9.0791e-06
9.12549e-06
1.17156e-05
1.51596e-05
1.92664e-05
2.5677e-05
3.34035e-05
4.25336e-05
5.03233e-05
5.51515e-05
5.6467e-05
5.6928e-05
5.744e-05
5.54118e-05
5.14621e-05
4.70562e-05
4.20955e-05
3.6372e-05
3.04809e-05
2.46753e-05
2.02398e-05
2.10885e-05
2.66732e-05
3.32984e-05
4.00298e-05
4.56524e-05
5.04292e-05
5.47005e-05
5.83585e-05
5.99796e-05
5.90419e-05
5.95041e-05
6.25963e-05
6.40922e-05
6.41545e-05
6.35139e-05
6.19814e-05
5.94573e-05
5.59646e-05
5.1802e-05
4.71116e-05
4.80294e-05
5.37306e-05
5.8508e-05
6.2401e-05
6.52065e-05
6.68049e-05
6.7378e-05
6.70863e-05
6.52035e-05
6.16684e-05
6.24177e-05
6.83564e-05
7.32965e-05
7.67886e-05
7.91888e-05
8.01917e-05
7.96221e-05
7.7505e-05
7.38463e-05
6.84401e-05
6.93914e-05
7.56619e-05
8.00024e-05
8.25795e-05
8.34221e-05
8.25151e-05
8.00536e-05
7.63503e-05
7.1037e-05
6.46403e-05
6.6005e-05
7.53746e-05
8.36947e-05
9.02959e-05
9.54444e-05
9.87181e-05
9.98056e-05
9.87669e-05
9.52953e-05
8.87703e-05
8.98517e-05
9.72271e-05
0.000101483
0.00010308
0.00010227
9.9058e-05
9.37904e-05
8.69273e-05
7.81934e-05
6.83037e-05
7.10609e-05
8.41257e-05
9.55817e-05
0.000104666
0.000112034
0.000117588
0.000121243
0.0001227
0.000121131
0.000114227
0.000115553
0.000123099
0.00012529
0.000124284
0.000120903
0.000115463
0.000108057
9.87916e-05
8.6995e-05
7.3453e-05
9.99054e-06
7.67558e-06
6.17378e-06
6.1655e-06
6.25586e-06
4.8003e-06
4.22944e-06
3.76559e-06
4.37674e-06
4.51172e-06
4.16541e-06
3.77484e-06
4.09218e-06
4.59327e-06
5.32742e-06
6.55112e-06
6.58985e-06
6.73791e-06
9.42622e-06
1.31272e-05
3.23695e-05
3.28605e-05
2.71872e-05
2.4323e-05
1.5887e-05
1.00226e-05
1.00106e-05
9.62817e-06
9.5373e-06
9.9408e-06
9.73957e-06
9.53952e-06
9.60259e-06
1.0231e-05
1.11278e-05
1.9694e-05
2.67384e-05
3.01967e-05
3.70509e-05
3.44401e-05
4.20054e-05
5.09771e-05
3.97515e-05
2.98312e-05
2.37492e-05
2.04539e-05
1.46739e-05
1.27473e-05
1.22843e-05
1.29304e-05
1.29141e-05
1.23933e-05
1.29025e-05
1.6065e-05
2.19032e-05
2.59356e-05
3.31689e-05
4.43376e-05
5.36735e-05
4.42922e-05
4.77673e-05
5.86035e-05
5.4972e-05
4.07388e-05
2.9955e-05
2.37368e-05
2.04525e-05
1.84668e-05
1.51002e-05
1.48775e-05
1.49668e-05
1.55925e-05
1.92167e-05
2.10207e-05
2.47682e-05
3.18535e-05
4.3303e-05
5.70116e-05
5.99112e-05
4.99544e-05
5.26592e-05
6.03958e-05
5.82666e-05
4.95433e-05
3.70262e-05
2.82075e-05
2.23704e-05
1.89296e-05
1.72992e-05
1.85049e-05
1.88247e-05
1.78274e-05
1.96457e-05
2.34591e-05
2.99658e-05
3.95997e-05
5.29891e-05
6.10163e-05
6.2608e-05
5.48759e-05
5.74395e-05
6.43268e-05
6.36562e-05
5.82317e-05
4.97923e-05
3.9914e-05
3.24771e-05
2.64456e-05
2.16326e-05
1.92965e-05
1.97436e-05
2.27267e-05
2.82277e-05
3.50616e-05
4.31332e-05
5.39225e-05
6.21e-05
6.71103e-05
6.71383e-05
5.97301e-05
6.25949e-05
7.0193e-05
7.1892e-05
7.07837e-05
6.77798e-05
6.12257e-05
5.08367e-05
4.20219e-05
3.61391e-05
3.23403e-05
3.29747e-05
3.76518e-05
4.42984e-05
5.49053e-05
6.6126e-05
7.20943e-05
7.50028e-05
7.56821e-05
7.3304e-05
6.50019e-05
6.83544e-05
7.82404e-05
8.35797e-05
8.73942e-05
9.05428e-05
9.08206e-05
8.64284e-05
7.77962e-05
6.67884e-05
5.53696e-05
5.68207e-05
6.99901e-05
8.23789e-05
9.11648e-05
9.57229e-05
9.55172e-05
9.21087e-05
8.78008e-05
8.16866e-05
7.08848e-05
7.53727e-05
9.05016e-05
0.000103087
0.000113427
0.000122019
0.000126805
0.000125315
0.000119053
0.000107907
9.22241e-05
9.37571e-05
0.000111128
0.000124091
0.000131483
0.000133123
0.000128142
0.000118992
0.000107865
9.4258e-05
7.80755e-05
8.41246e-05
0.000100311
0.000115163
0.000127603
0.000138216
0.000146676
0.000152621
0.000155592
0.000154545
0.000147505
0.000149036
0.000156908
0.000158819
0.000156453
0.00015084
0.000142489
0.000131776
0.000119055
0.000103737
8.69366e-05
4.89776e-06
6.17272e-06
6.99665e-06
7.9216e-06
7.76567e-06
5.76985e-06
5.27184e-06
4.80609e-06
4.73808e-06
4.9192e-06
4.79527e-06
4.76892e-06
5.01245e-06
5.48965e-06
6.3939e-06
8.58879e-06
8.22043e-06
7.35269e-06
6.7087e-06
5.48422e-06
2.34679e-05
2.71967e-05
2.68349e-05
2.56298e-05
1.68514e-05
1.2074e-05
1.18041e-05
1.14129e-05
1.13604e-05
1.19181e-05
1.18195e-05
1.1416e-05
1.14745e-05
1.22096e-05
1.28681e-05
2.11847e-05
2.83805e-05
2.90861e-05
3.01807e-05
2.54898e-05
3.37109e-05
3.97524e-05
3.40254e-05
2.85987e-05
2.50577e-05
2.27022e-05
1.75231e-05
1.51128e-05
1.45257e-05
1.51687e-05
1.5201e-05
1.46877e-05
1.54289e-05
1.92221e-05
2.43017e-05
2.68493e-05
3.16942e-05
3.81605e-05
4.42463e-05
3.66356e-05
4.03583e-05
5.49727e-05
5.06385e-05
3.95914e-05
3.12236e-05
2.62961e-05
2.39919e-05
2.15116e-05
1.84336e-05
1.81167e-05
1.83413e-05
1.9007e-05
2.20853e-05
2.44101e-05
2.72742e-05
3.31857e-05
4.25531e-05
5.39833e-05
5.66384e-05
4.26287e-05
4.74172e-05
5.82681e-05
5.77488e-05
4.91795e-05
3.84516e-05
3.05509e-05
2.53316e-05
2.24439e-05
2.17113e-05
2.31265e-05
2.35374e-05
2.20438e-05
2.29543e-05
2.62606e-05
3.20757e-05
4.07979e-05
5.23206e-05
6.03544e-05
6.05987e-05
4.97686e-05
5.54119e-05
6.36564e-05
6.28006e-05
5.64514e-05
4.65237e-05
3.75995e-05
3.08454e-05
2.57757e-05
2.21909e-05
2.11794e-05
2.1409e-05
2.28923e-05
2.70425e-05
3.27354e-05
4.01235e-05
4.98081e-05
6.00421e-05
6.62524e-05
6.66541e-05
5.78568e-05
6.40902e-05
7.18912e-05
7.33774e-05
6.91959e-05
6.08072e-05
5.14257e-05
4.24767e-05
3.48022e-05
2.89326e-05
2.54416e-05
2.58753e-05
3.01131e-05
3.67781e-05
4.55894e-05
5.53416e-05
6.51785e-05
7.35273e-05
7.73625e-05
7.52139e-05
6.66889e-05
7.32935e-05
8.35771e-05
9.2484e-05
9.57069e-05
9.31546e-05
8.29923e-05
7.45715e-05
6.42673e-05
5.30004e-05
4.26503e-05
4.3683e-05
5.5837e-05
6.85881e-05
7.98825e-05
8.96708e-05
9.94497e-05
0.000101452
9.73152e-05
8.73106e-05
7.60459e-05
8.36913e-05
0.000103083
0.000130085
0.000155539
0.000175353
0.000187778
0.000184783
0.000171728
0.000147728
0.000115578
0.000118221
0.000154482
0.00018118
0.000195443
0.000197524
0.000184396
0.000163172
0.00013608
0.000107471
8.668e-05
9.55793e-05
0.000115161
0.000133367
0.000149158
0.000162979
0.000174351
0.000182593
0.000187073
0.000186576
0.000178658
0.000180394
0.000189352
0.000190895
0.000187111
0.000179201
0.000167908
0.000153912
0.000137742
0.000118971
9.86679e-05
3.89293e-06
6.14675e-06
7.93185e-06
9.41935e-06
8.17123e-06
6.79008e-06
6.14832e-06
5.73018e-06
5.63378e-06
5.84162e-06
5.79792e-06
5.73506e-06
5.98638e-06
6.59898e-06
7.57785e-06
9.52135e-06
1.01482e-05
8.22661e-06
6.56557e-06
4.30351e-06
1.64114e-05
2.43695e-05
2.56537e-05
2.28514e-05
1.54073e-05
1.33118e-05
1.28814e-05
1.27705e-05
1.31878e-05
1.40758e-05
1.40126e-05
1.33028e-05
1.30391e-05
1.33328e-05
1.41085e-05
1.93898e-05
2.64686e-05
2.84324e-05
2.68098e-05
1.8772e-05
2.43867e-05
2.98415e-05
2.86037e-05
2.61679e-05
2.50691e-05
2.21946e-05
1.82242e-05
1.65471e-05
1.64179e-05
1.72656e-05
1.73596e-05
1.67207e-05
1.70519e-05
1.93513e-05
2.3556e-05
2.59488e-05
2.86151e-05
3.17721e-05
3.3259e-05
2.70713e-05
3.03363e-05
4.074e-05
3.95922e-05
3.41205e-05
2.9498e-05
2.66256e-05
2.48121e-05
2.22946e-05
2.04111e-05
2.03273e-05
2.06486e-05
2.0907e-05
2.26914e-05
2.50473e-05
2.71748e-05
3.09884e-05
3.65651e-05
4.25169e-05
4.29897e-05
3.251e-05
3.96095e-05
4.95466e-05
4.91802e-05
4.32076e-05
3.61046e-05
3.04213e-05
2.65236e-05
2.45121e-05
2.4181e-05
2.4747e-05
2.51147e-05
2.44032e-05
2.48513e-05
2.7285e-05
3.17368e-05
3.81096e-05
4.58401e-05
5.18974e-05
5.21177e-05
4.17398e-05
5.14653e-05
5.82353e-05
5.64512e-05
5.05214e-05
4.28636e-05
3.58949e-05
3.04072e-05
2.642e-05
2.40174e-05
2.424e-05
2.45131e-05
2.46993e-05
2.75791e-05
3.20663e-05
3.80626e-05
4.55725e-05
5.35871e-05
5.95474e-05
6.12619e-05
5.39863e-05
6.4154e-05
7.0782e-05
6.91934e-05
6.29979e-05
5.55871e-05
4.80274e-05
4.09022e-05
3.44537e-05
2.88908e-05
2.56108e-05
2.6105e-05
3.02491e-05
3.66566e-05
4.39125e-05
5.15457e-05
5.9332e-05
6.68197e-05
7.29316e-05
7.42295e-05
6.68465e-05
7.67855e-05
8.73876e-05
9.57018e-05
9.54945e-05
9.29875e-05
8.8438e-05
8.18764e-05
7.18711e-05
5.88725e-05
4.55653e-05
4.67535e-05
6.24928e-05
7.74148e-05
8.85311e-05
9.5561e-05
9.95192e-05
0.000101619
0.000100813
9.13897e-05
7.96494e-05
9.02914e-05
0.000113419
0.000155532
0.000199923
0.000231139
0.000249702
0.000253567
0.000241719
0.000211731
0.000165618
0.000167857
0.000218965
0.000253562
0.000267286
0.0002636
0.000243574
0.000209564
0.000162665
0.000118298
9.34459e-05
0.000104663
0.000127599
0.000149156
0.000168459
0.000185822
0.000200589
0.000211933
0.000218589
0.000219181
0.000211978
0.00021376
0.000222298
0.000222879
0.000216949
0.000205926
0.000191207
0.000173582
0.000153809
0.000131609
0.000107876
3.40005e-06
6.18252e-06
7.74489e-06
8.18682e-06
7.52508e-06
7.09426e-06
6.74536e-06
6.55085e-06
6.65164e-06
7.08612e-06
7.05267e-06
6.83767e-06
6.98529e-06
7.41673e-06
8.02177e-06
8.89819e-06
9.50891e-06
8.56e-06
6.49979e-06
3.72522e-06
6.1517e-06
1.58929e-05
1.686e-05
1.54145e-05
1.3911e-05
1.38177e-05
1.37447e-05
1.4202e-05
1.55036e-05
1.75236e-05
1.73295e-05
1.56392e-05
1.45675e-05
1.42203e-05
1.44539e-05
1.5779e-05
1.94202e-05
2.12684e-05
1.9799e-05
8.4189e-06
1.63111e-05
2.37541e-05
2.50627e-05
2.50709e-05
2.35531e-05
2.01977e-05
1.79319e-05
1.73228e-05
1.80775e-05
1.97748e-05
1.97941e-05
1.82917e-05
1.76779e-05
1.86721e-05
2.14939e-05
2.4534e-05
2.5991e-05
2.69525e-05
2.60647e-05
1.84323e-05
2.25003e-05
2.99537e-05
3.12228e-05
2.94991e-05
2.75723e-05
2.61957e-05
2.42264e-05
2.19986e-05
2.12681e-05
2.21129e-05
2.23443e-05
2.15449e-05
2.23454e-05
2.44298e-05
2.63663e-05
2.83375e-05
3.10157e-05
3.32113e-05
3.17663e-05
2.41524e-05
3.06242e-05
3.70252e-05
3.84514e-05
3.61058e-05
3.24015e-05
2.89922e-05
2.65927e-05
2.5406e-05
2.52094e-05
2.58703e-05
2.62285e-05
2.5478e-05
2.56134e-05
2.71304e-05
2.9991e-05
3.39069e-05
3.80076e-05
4.0433e-05
3.88881e-05
3.24645e-05
4.70591e-05
4.97965e-05
4.65246e-05
4.28643e-05
3.82577e-05
3.36339e-05
2.97314e-05
2.70275e-05
2.59213e-05
2.77977e-05
2.82341e-05
2.67074e-05
2.81967e-05
3.12782e-05
3.55321e-05
4.047e-05
4.52653e-05
4.90471e-05
5.27038e-05
4.95884e-05
6.35143e-05
6.77809e-05
6.08083e-05
5.55862e-05
5.12597e-05
4.6576e-05
4.17074e-05
3.69222e-05
3.25476e-05
3.07724e-05
3.15889e-05
3.44427e-05
3.96205e-05
4.4939e-05
4.9995e-05
5.45887e-05
5.87354e-05
6.40302e-05
7.12006e-05
6.62061e-05
7.9186e-05
9.05365e-05
9.31502e-05
9.29835e-05
9.75562e-05
9.94832e-05
9.68773e-05
8.85113e-05
7.42264e-05
5.77644e-05
5.94065e-05
7.89315e-05
9.54581e-05
0.000104865
0.000107411
0.00010447
9.87166e-05
9.8283e-05
9.46991e-05
8.20574e-05
9.54398e-05
0.000122009
0.000175342
0.000231134
0.000277161
0.00031165
0.000328766
0.000322216
0.000285985
0.00022516
0.000227433
0.000294365
0.000335406
0.000343974
0.000327111
0.000291276
0.000242665
0.000183413
0.000127248
9.8649e-05
0.00011203
0.000138212
0.000162976
0.000185821
0.000207558
0.000226591
0.000241531
0.000251403
0.000254795
0.000250993
0.000252812
0.000258035
0.000255833
0.000246733
0.000232187
0.000213144
0.000191088
0.000167711
0.000142256
0.000115243
3.0581e-06
4.7303e-06
5.6353e-06
6.77927e-06
7.09151e-06
7.16324e-06
7.17857e-06
7.32918e-06
7.79694e-06
8.64043e-06
8.57238e-06
8.02557e-06
7.85468e-06
7.89571e-06
7.99206e-06
7.98307e-06
7.499e-06
6.33927e-06
5.20611e-06
3.22574e-06
5.57078e-06
9.9723e-06
1.20402e-05
1.33056e-05
1.38152e-05
1.40511e-05
1.44085e-05
1.54527e-05
1.77164e-05
2.0861e-05
2.02946e-05
1.74929e-05
1.56633e-05
1.48021e-05
1.4511e-05
1.44187e-05
1.40311e-05
1.2815e-05
1.10629e-05
5.59076e-06
8.36727e-06
2.04378e-05
2.2687e-05
2.21882e-05
2.01995e-05
1.8432e-05
1.75211e-05
1.76526e-05
1.92915e-05
2.19542e-05
2.16075e-05
1.91613e-05
1.78711e-05
1.80426e-05
1.93602e-05
2.15009e-05
2.35888e-05
2.43492e-05
2.18806e-05
9.97558e-06
1.63912e-05
2.37348e-05
2.62918e-05
2.66249e-05
2.61966e-05
2.47826e-05
2.27134e-05
2.12356e-05
2.13813e-05
2.32484e-05
2.33166e-05
2.1639e-05
2.15936e-05
2.30416e-05
2.49047e-05
2.63718e-05
2.71942e-05
2.72959e-05
2.47303e-05
1.73505e-05
2.32733e-05
2.82051e-05
3.05482e-05
3.0421e-05
2.89923e-05
2.73647e-05
2.60118e-05
2.52856e-05
2.53093e-05
2.68985e-05
2.73178e-05
2.57149e-05
2.54837e-05
2.62978e-05
2.79731e-05
2.99679e-05
3.16428e-05
3.18258e-05
2.94699e-05
2.48329e-05
4.21025e-05
3.99172e-05
3.75992e-05
3.58945e-05
3.36337e-05
3.10392e-05
2.87304e-05
2.7287e-05
2.74717e-05
3.10761e-05
3.17278e-05
2.83674e-05
2.84158e-05
3.01493e-05
3.26746e-05
3.54136e-05
3.77307e-05
3.95199e-05
4.22755e-05
4.47913e-05
6.19849e-05
6.12323e-05
5.14259e-05
4.80255e-05
4.65746e-05
4.48797e-05
4.2605e-05
4.00504e-05
3.7875e-05
3.92825e-05
4.05779e-05
4.04608e-05
4.32694e-05
4.60692e-05
4.82419e-05
4.961e-05
5.07479e-05
5.42368e-05
6.4844e-05
6.45948e-05
8.01904e-05
9.08167e-05
8.29939e-05
8.84339e-05
9.94806e-05
0.000107635
0.000109769
0.000103679
8.84543e-05
7.02641e-05
7.24033e-05
9.38597e-05
0.000111381
0.000118424
0.000116001
0.000106654
9.41815e-05
8.80189e-05
9.48955e-05
8.29524e-05
9.87138e-05
0.000126795
0.000187766
0.000249695
0.000311645
0.000360506
0.000386852
0.000381705
0.000332905
0.000256977
0.000259228
0.000340382
0.000394134
0.000401951
0.000376524
0.000326575
0.000262205
0.000196285
0.000132107
0.000101833
0.000117584
0.000146671
0.000174347
0.000200586
0.000226589
0.000249488
0.000268364
0.000282111
0.000289589
0.000291022
0.000292897
0.000292778
0.000286376
0.000273368
0.000254923
0.000232087
0.000205728
0.000178944
0.00015057
0.000120664
3.07263e-06
4.44091e-06
5.11061e-06
6.09438e-06
6.71871e-06
7.16068e-06
7.58395e-06
8.20066e-06
9.18121e-06
1.07018e-05
1.05533e-05
9.38256e-06
8.72411e-06
8.26484e-06
7.88415e-06
7.37785e-06
6.53169e-06
5.36837e-06
4.44229e-06
3.01877e-06
5.70805e-06
1.00041e-05
1.17713e-05
1.28662e-05
1.37364e-05
1.44052e-05
1.5296e-05
1.71087e-05
2.05814e-05
2.59971e-05
2.49192e-05
1.99007e-05
1.70736e-05
1.55657e-05
1.47901e-05
1.41926e-05
1.33158e-05
1.21409e-05
1.01045e-05
5.65743e-06
7.35388e-06
1.46624e-05
1.74896e-05
1.82119e-05
1.79318e-05
1.75227e-05
1.74235e-05
1.82761e-05
2.08806e-05
2.51464e-05
2.44464e-05
2.04273e-05
1.83062e-05
1.77352e-05
1.80317e-05
1.86477e-05
1.93073e-05
1.91119e-05
1.59327e-05
7.10366e-06
1.19959e-05
2.04505e-05
2.39843e-05
2.48111e-05
2.42284e-05
2.27145e-05
2.12426e-05
2.06767e-05
2.21113e-05
2.64194e-05
2.61161e-05
2.2183e-05
2.09848e-05
2.16249e-05
2.30334e-05
2.44109e-05
2.50174e-05
2.43661e-05
2.09336e-05
1.25901e-05
1.79331e-05
2.2367e-05
2.53283e-05
2.65231e-05
2.65933e-05
2.6012e-05
2.52128e-05
2.474e-05
2.57164e-05
3.07287e-05
3.07523e-05
2.61383e-05
2.50171e-05
2.54104e-05
2.62936e-05
2.71062e-05
2.72128e-05
2.60945e-05
2.31628e-05
1.88623e-05
3.63985e-05
3.24874e-05
3.08476e-05
3.04075e-05
2.97311e-05
2.87299e-05
2.77609e-05
2.74637e-05
2.92588e-05
3.72185e-05
3.76876e-05
3.01836e-05
2.84969e-05
2.89879e-05
3.01098e-05
3.11555e-05
3.18169e-05
3.23203e-05
3.44135e-05
3.90841e-05
5.94624e-05
5.08505e-05
4.2481e-05
4.09017e-05
4.17056e-05
4.26038e-05
4.29056e-05
4.29493e-05
4.40649e-05
5.20097e-05
5.36588e-05
4.72554e-05
4.65482e-05
4.64727e-05
4.58326e-05
4.44379e-05
4.32076e-05
4.47293e-05
5.37476e-05
6.18487e-05
7.96217e-05
8.6427e-05
7.45705e-05
8.18729e-05
9.68735e-05
0.000109766
0.000115687
0.000110795
9.42302e-05
7.87371e-05
8.13324e-05
9.97074e-05
0.000118328
0.000124102
0.000117863
0.000103757
8.71622e-05
7.86217e-05
9.02488e-05
8.21379e-05
9.98013e-05
0.000125306
0.000184778
0.000253558
0.000328754
0.000386844
0.00041795
0.000404336
0.000328883
0.000237846
0.000241915
0.000333481
0.000413676
0.000430928
0.000401569
0.000343116
0.000265783
0.00019365
0.000130368
0.000102657
0.000121238
0.000152615
0.000182588
0.000211929
0.000241527
0.000268362
0.000291451
0.000309965
0.000323941
0.000335259
0.000337198
0.000327034
0.000313909
0.000295992
0.000273297
0.000246569
0.0002167
0.00018682
0.000156175
0.000124049
3.1414e-06
4.61799e-06
4.95217e-06
5.71271e-06
6.52007e-06
7.29574e-06
8.18083e-06
9.42603e-06
1.1005e-05
1.30604e-05
1.2775e-05
1.10733e-05
9.82647e-06
8.72657e-06
7.84902e-06
6.95471e-06
5.90806e-06
4.88955e-06
4.19507e-06
3.10015e-06
5.60637e-06
9.65971e-06
1.13938e-05
1.27641e-05
1.42003e-05
1.54528e-05
1.71088e-05
1.99938e-05
2.45837e-05
2.91802e-05
2.73436e-05
2.30959e-05
1.94477e-05
1.70753e-05
1.56606e-05
1.4582e-05
1.30318e-05
1.14418e-05
9.55754e-06
5.67865e-06
7.31992e-06
1.27498e-05
1.5099e-05
1.65424e-05
1.73265e-05
1.76582e-05
1.82784e-05
2.02597e-05
2.42985e-05
3.33605e-05
3.16548e-05
2.31363e-05
1.98802e-05
1.8313e-05
1.78684e-05
1.76594e-05
1.70256e-05
1.53889e-05
1.28123e-05
7.31411e-06
7.73297e-06
1.84627e-05
2.14956e-05
2.22902e-05
2.20004e-05
2.12367e-05
2.06764e-05
2.15602e-05
2.61558e-05
4.57089e-05
4.32974e-05
2.53028e-05
2.1596e-05
2.0993e-05
2.15897e-05
2.23095e-05
2.25987e-05
2.19294e-05
1.89937e-05
8.05102e-06
1.42639e-05
1.89267e-05
2.24406e-05
2.45116e-05
2.54063e-05
2.52849e-05
2.4739e-05
2.50797e-05
3.0914e-05
6.68537e-05
6.16782e-05
3.00965e-05
2.53517e-05
2.50289e-05
2.54891e-05
2.55989e-05
2.47971e-05
2.28384e-05
1.94614e-05
1.49407e-05
3.05054e-05
2.64582e-05
2.57799e-05
2.64208e-05
2.70267e-05
2.72857e-05
2.74628e-05
2.86127e-05
3.68443e-05
9.22949e-05
8.65388e-05
3.65423e-05
2.94739e-05
2.84998e-05
2.83962e-05
2.81343e-05
2.74563e-05
2.68249e-05
2.78589e-05
3.27222e-05
5.59702e-05
4.20275e-05
3.48058e-05
3.44539e-05
3.69204e-05
4.00484e-05
4.29482e-05
4.66201e-05
5.70831e-05
0.000116101
0.000112879
5.98524e-05
5.03463e-05
4.64109e-05
4.29727e-05
3.92048e-05
3.61991e-05
3.63118e-05
4.37816e-05
5.80524e-05
7.75051e-05
7.78041e-05
6.42701e-05
7.18697e-05
8.85073e-05
0.000103675
0.000110793
0.000105172
9.44489e-05
0.000137222
0.000135747
9.92207e-05
0.000111843
0.000117945
0.000110558
9.43198e-05
7.6224e-05
6.74998e-05
8.12549e-05
7.96318e-05
9.87626e-05
0.000119044
0.000171725
0.000241707
0.000322199
0.000381692
0.000404333
0.000361923
0.000270213
0.000298711
0.00029637
0.000277429
0.000369282
0.000413511
0.000393571
0.000334405
0.000252153
0.000179412
0.000123138
0.000101137
0.000122695
0.000155587
0.000187068
0.000218584
0.000251399
0.000282109
0.000309964
0.000335532
0.00036265
0.0004001
0.000401294
0.00036581
0.000339205
0.00031387
0.00028627
0.000255649
0.000222634
0.000190629
0.000158575
0.000125085
3.24344e-06
4.8079e-06
5.06392e-06
5.68186e-06
6.64068e-06
7.76158e-06
9.14744e-06
1.09865e-05
1.23831e-05
1.42153e-05
1.38873e-05
1.23189e-05
1.10749e-05
9.3932e-06
8.03617e-06
6.83071e-06
5.70801e-06
4.88665e-06
4.49289e-06
3.32135e-06
5.67026e-06
9.70187e-06
1.14132e-05
1.31861e-05
1.55118e-05
1.77268e-05
2.05848e-05
2.45806e-05
2.79167e-05
7.41034e-05
6.91171e-05
2.60056e-05
2.30918e-05
1.99053e-05
1.75189e-05
1.57156e-05
1.33848e-05
1.14599e-05
9.64997e-06
5.83543e-06
7.81063e-06
1.22915e-05
1.44997e-05
1.64114e-05
1.80836e-05
1.93009e-05
2.08848e-05
2.42976e-05
3.65253e-05
0.000160291
0.000151017
3.43219e-05
2.31588e-05
2.04624e-05
1.91968e-05
1.83458e-05
1.67864e-05
1.47254e-05
1.23697e-05
7.8881e-06
9.02356e-06
1.50702e-05
1.84138e-05
2.04078e-05
2.12716e-05
2.1383e-05
2.21111e-05
2.61548e-05
5.4646e-05
0.000272369
0.000258395
5.09994e-05
2.53401e-05
2.22337e-05
2.16805e-05
2.15603e-05
2.08812e-05
1.89138e-05
1.54809e-05
9.14761e-06
1.11471e-05
1.72885e-05
2.17072e-05
2.41816e-05
2.52098e-05
2.53079e-05
2.57149e-05
3.09132e-05
8.81486e-05
0.00041558
0.000394382
7.79122e-05
3.01422e-05
2.62011e-05
2.57669e-05
2.55018e-05
2.43866e-05
2.1976e-05
1.77344e-05
1.16168e-05
2.46608e-05
2.16358e-05
2.21941e-05
2.4018e-05
2.59201e-05
2.74701e-05
2.92577e-05
3.68438e-05
0.000121359
0.000553109
0.000524174
0.000109483
3.65881e-05
3.0249e-05
2.84334e-05
2.67601e-05
2.4723e-05
2.28341e-05
2.25197e-05
2.62916e-05
5.18069e-05
3.61437e-05
2.8936e-05
2.88916e-05
3.25465e-05
3.78732e-05
4.40633e-05
5.70821e-05
0.000153782
0.000636729
0.00060337
0.000144327
5.97931e-05
4.71311e-05
4.02709e-05
3.42195e-05
3.0016e-05
2.98356e-05
3.72778e-05
5.34068e-05
7.38471e-05
6.67978e-05
5.30055e-05
5.88732e-05
7.42233e-05
8.84499e-05
9.42266e-05
9.44471e-05
0.000179453
0.000634356
0.000603868
0.000172667
9.90021e-05
9.92086e-05
9.30867e-05
7.80483e-05
6.16747e-05
5.50604e-05
6.9133e-05
7.54129e-05
9.52916e-05
0.0001079
0.00014773
0.000211722
0.000285967
0.000332891
0.000328876
0.000270212
0.00030323
0.000550134
0.000533329
0.000300703
0.000277354
0.000333334
0.000339716
0.000293489
0.000218258
0.000153101
0.000110498
9.70061e-05
0.000121126
0.000154539
0.000186571
0.000219177
0.000254791
0.000289587
0.000323939
0.000362649
0.000417015
0.000490756
0.000492237
0.000419313
0.000365765
0.000326971
0.000292667
0.000257882
0.000222129
0.00018917
0.00015674
0.000122955
2.85972e-06
4.97328e-06
5.18958e-06
5.85799e-06
7.07596e-06
8.61155e-06
1.06644e-05
1.30287e-05
1.41952e-05
1.52554e-05
1.49103e-05
1.38768e-05
1.27634e-05
1.05598e-05
8.59681e-06
7.08171e-06
5.8793e-06
5.22545e-06
4.9446e-06
3.46094e-06
5.52945e-06
1.0423e-05
1.20169e-05
1.40902e-05
1.75531e-05
2.08852e-05
2.60062e-05
2.91728e-05
7.40779e-05
7.21007e-05
6.97813e-05
6.90918e-05
2.73217e-05
2.48962e-05
2.034e-05
1.74721e-05
1.41643e-05
1.20183e-05
1.0163e-05
6.01425e-06
8.24767e-06
1.30225e-05
1.51422e-05
1.72577e-05
1.97813e-05
2.19639e-05
2.51506e-05
3.3354e-05
0.000160259
0.000129217
0.000127315
0.000150941
3.16837e-05
2.45256e-05
2.17092e-05
1.99535e-05
1.75273e-05
1.53392e-05
1.30397e-05
8.3804e-06
9.61073e-06
1.48482e-05
1.80999e-05
2.03258e-05
2.21155e-05
2.32499e-05
2.64191e-05
4.57042e-05
0.000272342
0.00019646
0.000197502
0.00025822
4.33312e-05
2.62507e-05
2.34619e-05
2.24865e-05
2.07631e-05
1.84454e-05
1.5063e-05
9.70259e-06
9.04197e-06
1.84763e-05
2.31197e-05
2.47472e-05
2.58704e-05
2.68974e-05
3.07269e-05
6.68486e-05
0.000415559
0.000277699
0.000284299
0.000394028
6.16902e-05
3.09192e-05
2.75042e-05
2.63927e-05
2.52074e-05
2.35969e-05
1.89642e-05
9.04822e-06
2.02145e-05
1.93033e-05
2.11852e-05
2.42418e-05
2.77978e-05
3.10759e-05
3.72177e-05
9.22918e-05
0.000553091
0.000368356
0.000382586
0.000523616
8.65451e-05
3.78958e-05
3.1987e-05
2.85061e-05
2.47293e-05
2.15066e-05
1.96843e-05
2.08384e-05
4.71149e-05
3.23428e-05
2.5445e-05
2.56124e-05
3.07728e-05
3.92814e-05
5.20078e-05
0.000116097
0.000636713
0.000456332
0.000479529
0.000602836
0.000112917
5.37945e-05
4.07069e-05
3.16785e-05
2.61034e-05
2.57484e-05
3.27245e-05
4.78329e-05
6.84421e-05
5.53836e-05
4.26581e-05
4.55686e-05
5.77638e-05
7.02613e-05
7.87339e-05
0.000137217
0.000634344
0.000508805
0.000538643
0.000603421
0.000135637
8.11501e-05
7.21503e-05
5.91221e-05
4.64551e-05
4.33055e-05
5.62658e-05
6.92707e-05
8.87674e-05
9.22177e-05
0.000115587
0.000165613
0.00022515
0.000256969
0.000237842
0.000298705
0.000550126
0.000537806
0.000565725
0.000533047
0.000296266
0.000241853
0.000259278
0.00022733
0.000167581
0.000117691
9.35579e-05
8.97711e-05
0.000114223
0.0001475
0.000178655
0.000211975
0.00025099
0.000291019
0.000335256
0.000400096
0.000490753
0.000507901
0.000528369
0.000492097
0.000401161
0.0003371
0.000292847
0.00025277
0.000213706
0.000180314
0.00014896
0.000115489
3.31094e-06
4.80404e-06
5.12442e-06
5.83745e-06
7.04722e-06
8.54558e-06
1.0524e-05
1.27537e-05
1.38744e-05
1.49057e-05
1.51802e-05
1.4136e-05
1.30019e-05
1.06852e-05
8.66056e-06
7.11799e-06
5.92921e-06
5.30771e-06
5.08793e-06
2.93351e-06
5.87698e-06
1.00249e-05
1.18972e-05
1.40392e-05
1.7364e-05
2.0315e-05
2.49243e-05
2.73357e-05
6.90962e-05
6.97699e-05
7.19695e-05
7.38169e-05
2.91531e-05
2.59653e-05
2.09236e-05
1.76917e-05
1.42559e-05
1.22272e-05
1.07048e-05
5.77837e-06
8.25411e-06
1.28918e-05
1.51709e-05
1.73529e-05
1.97963e-05
2.16108e-05
2.44457e-05
3.16469e-05
0.000150991
0.000127297
0.000129039
0.00015931
3.33451e-05
2.52828e-05
2.21348e-05
1.99953e-05
1.74772e-05
1.53726e-05
1.32685e-05
8.45637e-06
9.66283e-06
1.49421e-05
1.83229e-05
2.06419e-05
2.23406e-05
2.3313e-05
2.61108e-05
4.32865e-05
0.000258369
0.000197477
0.000196267
0.000270478
4.55958e-05
2.66312e-05
2.34763e-05
2.23274e-05
2.05157e-05
1.83193e-05
1.51024e-05
9.78793e-06
9.1121e-06
1.88064e-05
2.3525e-05
2.51073e-05
2.62226e-05
2.73118e-05
3.07443e-05
6.16622e-05
0.000394356
0.000284268
0.000277574
0.000413053
6.68222e-05
3.09916e-05
2.71559e-05
2.6102e-05
2.49324e-05
2.33971e-05
1.88732e-05
9.24902e-06
2.11193e-05
1.9763e-05
2.14149e-05
2.4511e-05
2.8229e-05
3.17215e-05
3.76784e-05
8.65179e-05
0.000524145
0.00038255
0.000368389
0.000550651
9.23848e-05
3.75911e-05
3.14422e-05
2.81155e-05
2.44582e-05
2.13404e-05
1.94448e-05
2.02975e-05
4.80354e-05
3.29802e-05
2.58792e-05
2.61061e-05
3.15877e-05
4.05736e-05
5.36513e-05
0.000112861
0.000603339
0.000479493
0.000456543
0.000634668
0.000116242
5.24113e-05
3.96678e-05
3.10795e-05
2.57687e-05
2.54701e-05
3.22881e-05
4.7118e-05
6.93928e-05
5.68339e-05
4.36912e-05
4.67582e-05
5.94086e-05
7.24035e-05
8.13308e-05
0.000135736
0.00060384
0.000538613
0.000509033
0.000632886
0.000137544
7.93595e-05
7.09084e-05
5.82908e-05
4.58512e-05
4.26875e-05
5.52559e-05
6.85199e-05
8.98488e-05
9.37516e-05
0.000118228
0.000167855
0.000227432
0.000259231
0.000241916
0.000296361
0.00053331
0.000565704
0.000537862
0.0005493
0.000298926
0.000238879
0.00025819
0.000226312
0.000166477
0.000116086
9.24115e-05
8.89164e-05
0.00011555
0.000149032
0.000180393
0.000213758
0.000252811
0.000292895
0.000337194
0.000401287
0.000492225
0.000528355
0.000507897
0.000490398
0.00039996
0.000335386
0.000291323
0.000251383
0.000212385
0.000179019
0.000147788
0.000114448
3.21413e-06
4.37509e-06
4.84007e-06
5.72069e-06
6.81163e-06
7.99476e-06
9.36154e-06
1.10631e-05
1.23153e-05
1.38776e-05
1.41386e-05
1.23006e-05
1.09627e-05
9.18912e-06
7.82919e-06
6.69227e-06
5.73661e-06
5.13062e-06
4.85448e-06
3.42217e-06
5.76657e-06
9.58596e-06
1.14117e-05
1.33225e-05
1.56516e-05
1.74966e-05
1.98972e-05
2.30888e-05
2.59999e-05
6.90914e-05
7.38283e-05
2.78283e-05
2.45399e-05
2.05938e-05
1.77938e-05
1.56537e-05
1.33481e-05
1.15984e-05
9.92817e-06
5.87773e-06
7.84778e-06
1.23405e-05
1.46707e-05
1.67187e-05
1.82908e-05
1.91602e-05
2.04244e-05
2.3131e-05
3.43157e-05
0.000150941
0.000159323
3.63659e-05
2.43764e-05
2.10079e-05
1.94452e-05
1.82518e-05
1.66023e-05
1.47202e-05
1.2533e-05
8.04014e-06
9.21322e-06
1.5574e-05
1.89901e-05
2.08975e-05
2.15385e-05
2.16337e-05
2.21778e-05
2.52963e-05
5.09901e-05
0.000258219
0.000270491
5.44187e-05
2.6265e-05
2.22447e-05
2.15176e-05
2.1418e-05
2.05745e-05
1.86361e-05
1.53682e-05
9.25359e-06
1.17237e-05
1.78244e-05
2.20359e-05
2.43949e-05
2.54708e-05
2.57084e-05
2.61321e-05
3.0089e-05
7.78987e-05
0.000394025
0.000413063
8.76795e-05
3.10364e-05
2.58426e-05
2.54432e-05
2.53681e-05
2.43884e-05
2.19519e-05
1.75155e-05
1.12921e-05
2.67101e-05
2.27407e-05
2.28937e-05
2.46954e-05
2.67019e-05
2.83614e-05
3.01771e-05
3.65344e-05
0.000109466
0.000523611
0.00055066
0.000121075
3.70221e-05
2.94276e-05
2.76275e-05
2.60504e-05
2.41224e-05
2.23014e-05
2.17937e-05
2.49651e-05
5.37342e-05
3.76545e-05
3.0114e-05
3.02475e-05
3.44388e-05
4.0455e-05
4.72486e-05
5.9843e-05
0.000144309
0.000602826
0.000634674
0.000153642
5.73282e-05
4.43261e-05
3.81327e-05
3.27721e-05
2.90534e-05
2.90332e-05
3.62345e-05
5.197e-05
7.5662e-05
6.99992e-05
5.5841e-05
6.24926e-05
7.8929e-05
9.38569e-05
9.97058e-05
9.92177e-05
0.000172655
0.000603407
0.000632891
0.000179602
9.50841e-05
9.50266e-05
8.93374e-05
7.50425e-05
5.94645e-05
5.32959e-05
6.69891e-05
7.39916e-05
9.72246e-05
0.000111125
0.000154484
0.000218961
0.000294365
0.000340386
0.000333495
0.000277436
0.000300693
0.000533036
0.000549301
0.00030361
0.000271344
0.000330382
0.000334837
0.000287888
0.000213333
0.000148553
0.000108159
9.54609e-05
0.000123096
0.000156905
0.00018935
0.000222297
0.000258034
0.000292777
0.000327033
0.000365806
0.000419306
0.000492088
0.000490399
0.000416883
0.000362731
0.000324198
0.000289986
0.000255259
0.000219645
0.000186949
0.000154823
0.000121329
3.02776e-06
4.18672e-06
4.91548e-06
5.95834e-06
6.95221e-06
7.82817e-06
8.71103e-06
9.82229e-06
1.10744e-05
1.27649e-05
1.30046e-05
1.09636e-05
9.43468e-06
8.23531e-06
7.36862e-06
6.58053e-06
5.77056e-06
5.02209e-06
4.68317e-06
3.27124e-06
5.67052e-06
9.59453e-06
1.14853e-05
1.30526e-05
1.45645e-05
1.56593e-05
1.70685e-05
1.94422e-05
2.30874e-05
2.73213e-05
2.91569e-05
2.45391e-05
1.99827e-05
1.71454e-05
1.55316e-05
1.43335e-05
1.29287e-05
1.15803e-05
9.88789e-06
5.76934e-06
7.33499e-06
1.28846e-05
1.54227e-05
1.70473e-05
1.76736e-05
1.78674e-05
1.83026e-05
1.98757e-05
2.31542e-05