/*--------------------------------*- C++ -*----------------------------------*\
| =========                 |                                                 |
| \\      /  F ield         | OpenFOAM: The Open Source CFD Toolbox           |
|  \\    /   O peration     | Version:  v1912                                 |
|   \\  /    A nd           | Website:  www.openfoam.com                      |
|    \\/     M anipulation  |                                                 |
\*---------------------------------------------------------------------------*/
FoamFile
{
    version     2.0;
    format      ascii;
    class       volScalarField;
    location    "300";
    object      nut;
}
// * * * * * * * * * * * * * * * * * * * * * * * * * * * * * * * * * * * * * //

dimensions      [0 2 -1 0 0 0 0];


internalField   nonuniform List<scalar> 
4000
(
0.000206195
0.000193447
0.00012579
0.000111742
0.000103784
9.64822e-05
9.42132e-05
0.000114495
0.00013356
0.000103528
0.000148382
0.000113434
9.02174e-05
9.30971e-05
0.000100623
0.000108922
0.000117208
0.000132988
0.000209928
0.000282425
0.000354534
0.000318513
0.000272316
0.000230881
0.000139426
0.000132207
0.000135637
0.000138196
0.000147413
0.000141698
0.000153698
0.00014054
0.000135046
0.000133696
0.000133151
0.00016698
0.00024577
0.000286606
0.000331996
0.000366437
0.000386238
0.000364901
0.000327609
0.000279341
0.00022861
0.000166325
0.000153114
0.000153496
0.000160522
0.000165524
0.00016496
0.000159197
0.0001527
0.000150538
0.000180211
0.000242768
0.000294085
0.000342283
0.000375674
0.000395203
0.000403104
0.00038886
0.000357614
0.000310408
0.000267572
0.000228034
0.000195838
0.000156537
0.000170446
0.000176338
0.000175902
0.000171075
0.000161378
0.000201082
0.000235797
0.000278175
0.000323693
0.000369711
0.000398802
0.000411352
0.000414657
0.000408143
0.000387384
0.000354022
0.000311255
0.000270947
0.000237859
0.000211951
0.000188063
0.000170998
0.000171152
0.000192418
0.000218406
0.000246639
0.000285089
0.000325564
0.000367231
0.000399275
0.000417761
0.000422602
0.000424238
0.000426177
0.000418593
0.000403416
0.00038563
0.000364707
0.000338274
0.000309692
0.000278936
0.000253302
0.000257604
0.000289586
0.000323603
0.000355412
0.00037999
0.000399521
0.000416113
0.000429719
0.000435563
0.000432078
0.000433679
0.00044482
0.00045007
0.000450259
0.000447901
0.000442388
0.000433182
0.000420219
0.000404244
0.000385459
0.000389168
0.000411657
0.000429675
0.000443876
0.000453891
0.00045953
0.000461564
0.000460579
0.000454056
0.000441539
0.000444124
0.000464761
0.000481209
0.000492474
0.000500026
0.00050311
0.000501252
0.000494497
0.000482657
0.000464618
0.000467812
0.00048848
0.000502364
0.0005105
0.000513221
0.000510532
0.000502943
0.000491226
0.000473851
0.000452003
0.000456662
0.000487958
0.000514115
0.000533936
0.000548884
0.000558144
0.000561125
0.000558134
0.00054821
0.000529097
0.000532266
0.00055365
0.0005657
0.000570248
0.000568135
0.000559259
0.000544273
0.000524043
0.000497062
0.000464578
0.000473767
0.000515384
0.000549286
0.00057473
0.000594548
0.000609027
0.000618332
0.000621963
0.000617934
0.000600055
0.000603445
0.000622837
0.000628448
0.000626041
0.000617592
0.000603643
0.000584048
0.000558512
0.000524162
0.000481701
0.000193803
0.000161245
0.000140669
0.000139658
0.000140964
0.000119954
0.000101333
8.95693e-05
0.00014671
0.000157224
0.000121208
8.90462e-05
0.000102416
0.000118317
0.000130056
0.000143641
0.000144359
0.000146575
0.000178005
0.000212787
0.0003183
0.000350151
0.000328339
0.000332042
0.000313995
0.00031921
0.000348902
0.000363468
0.000391107
0.000414407
0.00040939
0.000381738
0.000356895
0.000339491
0.000323593
0.000321615
0.000341986
0.00034672
0.000376796
0.00033049
0.000364902
0.000490604
0.000436403
0.0003794
0.000350979
0.0003588
0.000402598
0.000387448
0.00042058
0.00046328
0.000459114
0.000416211
0.000382817
0.000400541
0.00035795
0.0003637
0.000402162
0.000468838
0.000505787
0.0003747
0.000388866
0.000550762
0.000560604
0.000472341
0.000399444
0.000364644
0.000355517
0.000382785
0.000403857
0.000443639
0.000441579
0.000407698
0.000380644
0.000355457
0.000369306
0.000413209
0.00049108
0.000573688
0.000557746
0.000397736
0.000408158
0.000564556
0.000583892
0.000534427
0.000449525
0.000387128
0.000346691
0.000329403
0.000339671
0.000425057
0.000425491
0.000339156
0.000331303
0.000351692
0.000397414
0.000466178
0.00055677
0.000601297
0.000577226
0.000416751
0.000426185
0.000585411
0.000612439
0.000580954
0.000516483
0.000442957
0.000388292
0.000346096
0.000316009
0.000314492
0.000315542
0.000320645
0.000354986
0.000402413
0.00046234
0.000543549
0.000607172
0.00063465
0.00060163
0.000434678
0.000444818
0.00061128
0.000653273
0.000655556
0.00063117
0.000575537
0.000493586
0.000424806
0.000379057
0.000353436
0.000357327
0.000388864
0.000440015
0.000522762
0.000611522
0.000662221
0.000684408
0.000676958
0.00062866
0.000453354
0.000464758
0.000634504
0.0006952
0.000736209
0.000763914
0.00076471
0.000732523
0.000669338
0.000586691
0.000508136
0.000517706
0.000609509
0.000702278
0.000765626
0.000798455
0.000796629
0.000765467
0.000719142
0.000652309
0.000473327
0.000487957
0.000640952
0.000726144
0.000793428
0.000844388
0.000867696
0.000851505
0.000807006
0.000732968
0.00063733
0.000646333
0.000751462
0.000834909
0.000884598
0.000900441
0.000875229
0.000820388
0.000747895
0.000656678
0.000496663
0.000515377
0.000562691
0.00060284
0.00063449
0.000660263
0.00068006
0.000693591
0.000700214
0.000697777
0.000681616
0.000685012
0.000702947
0.00070735
0.000702224
0.000689671
0.00067044
0.000644847
0.000613009
0.000572278
0.000523968
0.000125966
0.000140595
0.000147672
0.000153189
0.0001585
0.000136359
0.000126473
0.000112115
0.000113267
0.000120533
0.000112078
0.000113656
0.000123743
0.000132151
0.000142326
0.000164585
0.000160947
0.000152565
0.000145892
0.000132805
0.000272367
0.000328449
0.000355653
0.000382578
0.000365771
0.000357198
0.000391186
0.000416614
0.000451547
0.00048725
0.000479229
0.000441768
0.000407151
0.000379993
0.00036573
0.000375919
0.000391883
0.000365212
0.000346702
0.000285544
0.000327763
0.000436433
0.000424217
0.000406641
0.000405271
0.000426442
0.0004473
0.000444814
0.000482996
0.000534762
0.000527732
0.000472957
0.000437824
0.000445369
0.000424545
0.000412743
0.000427531
0.000455133
0.000468634
0.000341227
0.000357697
0.000560619
0.000569546
0.000504163
0.000452495
0.000432492
0.000439167
0.00046087
0.00047584
0.000523597
0.000520433
0.0004711
0.000453788
0.000434971
0.000436347
0.000468227
0.000529695
0.000597724
0.000572175
0.000367771
0.00038747
0.000583911
0.000635863
0.000592084
0.000516429
0.000459197
0.000425068
0.000416139
0.000446947
0.000533846
0.000532952
0.000442066
0.00041517
0.000429286
0.000470197
0.000535736
0.000618009
0.000656487
0.00059897
0.000397139
0.000418647
0.000612448
0.00067177
0.000648899
0.000572438
0.000498071
0.000441179
0.000401626
0.00038214
0.000402691
0.000400199
0.000383195
0.000407913
0.000453464
0.000517138
0.000599114
0.000678762
0.000697972
0.000631513
0.000427911
0.000450081
0.000653272
0.000734247
0.000740358
0.000685203
0.000600142
0.000516416
0.000444475
0.000388799
0.000361857
0.000364766
0.000398624
0.000462073
0.000544706
0.000636327
0.000724356
0.000775441
0.00076271
0.000673461
0.000459221
0.000481191
0.000695183
0.000818198
0.000889251
0.000910617
0.000864287
0.00078763
0.000692631
0.000589082
0.000501938
0.000511186
0.000615515
0.000732289
0.000835639
0.000917198
0.000956966
0.000928485
0.000848109
0.000715615
0.00049023
0.00051409
0.000726118
0.000923796
0.00110227
0.00123093
0.00130124
0.0012855
0.00121754
0.00109472
0.000957601
0.00097329
0.00113116
0.00126563
0.0013392
0.00135084
0.0012765
0.00114009
0.000952371
0.00074555
0.000523272
0.000549261
0.000602823
0.000648651
0.000685894
0.000716866
0.000741319
0.000758487
0.000767591
0.000766446
0.000749863
0.000753346
0.000771969
0.000775286
0.00076777
0.000751567
0.000727672
0.000696807
0.000659277
0.000612783
0.000558142
0.000111848
0.000139025
0.000152825
0.000170293
0.000161593
0.000145936
0.000138695
0.000131467
0.000129144
0.000133579
0.000131353
0.000132207
0.000136843
0.000143982
0.000154625
0.00017364
0.000178901
0.000161359
0.000143627
0.000116699
0.000231707
0.00033256
0.000382819
0.000397059
0.000379748
0.000381186
0.000415395
0.000450864
0.000496692
0.000540727
0.000530866
0.000482115
0.000437356
0.000402983
0.000375685
0.000389733
0.000412052
0.000392412
0.000342777
0.000245653
0.000279746
0.000379568
0.000406717
0.000418227
0.000443247
0.000460933
0.000466721
0.000481822
0.000529741
0.000588042
0.000578116
0.000515408
0.000470634
0.000460311
0.000453327
0.000438604
0.000431704
0.000428471
0.000403398
0.00029396
0.000310656
0.000472395
0.000504185
0.000485319
0.000469419
0.000470653
0.000486021
0.00050288
0.000528021
0.000579961
0.000573846
0.000519888
0.00049203
0.000477
0.000468912
0.00047991
0.000506912
0.000530093
0.00049021
0.000321635
0.000354158
0.000534468
0.000592089
0.000572871
0.000529785
0.000494198
0.000474723
0.000478781
0.000518538
0.000586905
0.000582907
0.000510647
0.000474958
0.000477786
0.000504704
0.000548314
0.000597277
0.000615479
0.000551782
0.000363889
0.000403476
0.000580984
0.000648891
0.000642328
0.000592351
0.00053671
0.000490933
0.000460953
0.000455333
0.000502767
0.000500264
0.000456831
0.000468544
0.000504816
0.00055695
0.000618541
0.000671277
0.000674463
0.000600856
0.00041343
0.000450254
0.000655543
0.000740335
0.000753251
0.000715847
0.000650615
0.000579993
0.000513845
0.000457409
0.000434291
0.000438576
0.000471458
0.000537393
0.000612247
0.000688273
0.000754451
0.000788525
0.000769873
0.000677916
0.000459753
0.00049244
0.000736161
0.00088921
0.000978589
0.0010093
0.000977612
0.00090491
0.00080393
0.000684315
0.000575592
0.00058748
0.000717835
0.000851982
0.000961748
0.00103718
0.00106324
0.00102325
0.000923396
0.00075977
0.000501661
0.000533898
0.000793371
0.00110222
0.001404
0.00160119
0.00169265
0.00167283
0.00158204
0.0014175
0.00119206
0.00120509
0.00145528
0.00163592
0.00173495
0.00175622
0.00165794
0.00144979
0.00113671
0.000816027
0.000543254
0.000574696
0.000634465
0.000685882
0.000728825
0.000765347
0.000795011
0.000816994
0.000829529
0.000830477
0.000816549
0.000819804
0.000836192
0.000837515
0.000826555
0.00080552
0.000776397
0.000739888
0.000696576
0.000644434
0.000583544
0.000104235
0.000138697
0.00015667
0.000161931
0.000154886
0.000149625
0.000145553
0.000142732
0.000143208
0.000148305
0.000147473
0.000145893
0.000148057
0.00015277
0.000159158
0.000168046
0.000173422
0.000164178
0.000141675
0.000108142
0.000140175
0.000313995
0.000365687
0.000379739
0.000384581
0.000412044
0.00044493
0.000486684
0.00054711
0.000605308
0.000590253
0.000526219
0.000469273
0.000429219
0.000398089
0.000385229
0.000389909
0.000376123
0.000321634
0.000168343
0.000229233
0.000351139
0.000405352
0.000443272
0.000468286
0.000476348
0.000483452
0.00051252
0.000573664
0.00064204
0.000627311
0.000552608
0.000495157
0.000471355
0.000466642
0.000459417
0.000439099
0.000413927
0.000365079
0.000242981
0.00026786
0.000399498
0.000452508
0.000469434
0.000481213
0.000498474
0.000513482
0.000527124
0.000565181
0.000626359
0.000616654
0.000550112
0.000513879
0.000501153
0.000490006
0.000482424
0.000480597
0.000469427
0.000413862
0.000277191
0.000311524
0.000449566
0.000516432
0.000529794
0.00052012
0.000508655
0.000506243
0.000523091
0.00056425
0.000629371
0.000623664
0.000555669
0.000516873
0.000506761
0.000516127
0.00053421
0.000548096
0.000534127
0.000462598
0.000321094
0.000385777
0.000516534
0.000572436
0.000592349
0.000578741
0.000551321
0.000524925
0.000510714
0.000524739
0.000596807
0.000596443
0.000528699
0.000520862
0.00054059
0.000571655
0.000602275
0.000616023
0.000593004
0.000534842
0.000396206
0.000447943
0.000631184
0.000685199
0.00071583
0.000718264
0.000689246
0.000643166
0.000592542
0.000548733
0.00054562
0.000554152
0.000570092
0.000623312
0.000680141
0.000728287
0.000755152
0.000747639
0.000712608
0.000654033
0.000457472
0.000500007
0.000763865
0.000910557
0.00100926
0.00106676
0.00106178
0.00100939
0.00091794
0.000795148
0.00067572
0.00069159
0.000835117
0.000973175
0.00107184
0.00112373
0.00112193
0.00105536
0.000947082
0.000789564
0.000509108
0.000548839
0.000844322
0.00123086
0.00160116
0.00182202
0.00192507
0.00194268
0.00186602
0.00168322
0.00141365
0.00142517
0.00171945
0.00192041
0.00200582
0.00198987
0.00188286
0.00165282
0.0012698
0.000869368
0.000558099
0.000594504
0.000660226
0.000716839
0.000765333
0.000808724
0.000844808
0.000871998
0.000889419
0.000895195
0.000888276
0.000891311
0.000900696
0.000897106
0.000881285
0.000855173
0.000819561
0.000776163
0.000727255
0.000669898
0.000603057
0.000101293
0.000122064
0.000129251
0.000146032
0.000149959
0.000150368
0.000150322
0.000151504
0.000155904
0.000164184
0.000163486
0.000158463
0.000156955
0.00015748
0.00015859
0.000158672
0.000153619
0.000141101
0.000126268
0.000100826
0.000132686
0.000318589
0.000356051
0.00038079
0.000412047
0.000442043
0.000473611
0.000520479
0.000587958
0.00064651
0.000629087
0.00056091
0.000497968
0.000454833
0.000424016
0.000397851
0.000376018
0.000365422
0.000321458
0.000132921
0.000166582
0.000358774
0.00042631
0.000460877
0.000476397
0.000483846
0.000499128
0.000536235
0.00060316
0.000661601
0.000645636
0.000575724
0.000514186
0.000483425
0.000472064
0.0004666
0.000453471
0.000424793
0.000357362
0.000180217
0.000228628
0.000364709
0.00043246
0.000470643
0.00049848
0.000516512
0.000524948
0.000540814
0.000584113
0.000635987
0.000627945
0.000568841
0.000527245
0.000512215
0.000503749
0.000490318
0.000469706
0.000437495
0.000370013
0.000234962
0.000271457
0.000387204
0.000459182
0.000494186
0.00050865
0.000516793
0.000528174
0.000551408
0.000593076
0.000647804
0.000646256
0.0005865
0.000544462
0.000524996
0.000519463
0.000516431
0.000504978
0.000469753
0.000395392
0.000280674
0.000364844
0.000443004
0.000498056
0.00053669
0.00055131
0.000550197
0.000545354
0.000549606
0.000582398
0.000659174
0.00066303
0.00058916
0.000561046
0.000561402
0.000568972
0.000570843
0.000554524
0.000512785
0.00045684
0.000376466
0.000442413
0.000575578
0.000600123
0.000650579
0.000689224
0.00069729
0.000680953
0.000654475
0.000636308
0.000663427
0.000678121
0.000665776
0.000691383
0.000720884
0.000736114
0.00072354
0.000678824
0.000624568
0.000600542
0.000451766
0.000503087
0.000764676
0.000864238
0.000977563
0.00106176
0.00109195
0.0010709
0.000998394
0.000881373
0.000763731
0.000783496
0.00092575
0.00105717
0.00113536
0.00115397
0.00111628
0.00102338
0.000902224
0.000790826
0.000511782
0.000558093
0.000867629
0.00130117
0.00169263
0.00192506
0.00206818
0.00211015
0.00203044
0.00180511
0.00147326
0.00148282
0.00183501
0.00207845
0.00216931
0.00213116
0.00198616
0.00174757
0.00134208
0.000893613
0.000566938
0.000608982
0.000680019
0.000741285
0.000794991
0.000844801
0.000886264
0.000918955
0.000941973
0.000954157
0.000956268
0.000959179
0.000959238
0.000948948
0.000927417
0.000895842
0.000855
0.000805153
0.000751052
0.000689069
0.000616979
0.000107574
0.00013168
0.000121847
0.000136964
0.000145549
0.000150114
0.000154169
0.000159999
0.00016918
0.000182849
0.000181637
0.000171288
0.000165233
0.000160922
0.00015725
0.000152017
0.00014241
0.000127206
0.000114998
0.000100219
0.000133328
0.00034962
0.000390231
0.000414707
0.000444771
0.000473579
0.000507349
0.00055614
0.000615544
0.000654201
0.000639411
0.000588958
0.000530982
0.000485984
0.000454873
0.000429264
0.000402563
0.000378736
0.000337179
0.000133707
0.000152448
0.00040208
0.000446574
0.000466398
0.000483388
0.000499131
0.000521168
0.000559747
0.000604934
0.000593597
0.000588827
0.000583466
0.000536211
0.000501612
0.000483351
0.000471091
0.000459672
0.000443672
0.000397097
0.000149573
0.000196613
0.000355597
0.000439081
0.000485991
0.000513486
0.000524948
0.000533116
0.000552461
0.000580057
0.000540881
0.000548632
0.000572256
0.000539721
0.000520682
0.000512236
0.000501208
0.000477205
0.000435234
0.000355372
0.000200212
0.000238262
0.000346763
0.000425047
0.000474705
0.000506238
0.00052817
0.000547046
0.000571274
0.000597412
0.00055096
0.000566757
0.000598451
0.000565429
0.000541513
0.000525372
0.00050741
0.000478447
0.000429478
0.00035078
0.000244294
0.000338603
0.000388418
0.00044119
0.000490915
0.000524906
0.000545341
0.000560053
0.000581085
0.000614538
0.000592941
0.000612721
0.000626538
0.000592433
0.000574425
0.000561329
0.000540064
0.000503507
0.000451148
0.00039891
0.000351335
0.000433208
0.000493696
0.000516439
0.000579969
0.000643136
0.000680935
0.000693786
0.000697164
0.000707103
0.000701588
0.000727662
0.000744546
0.000738337
0.000734609
0.000717926
0.000673917
0.000603893
0.000535859
0.000513416
0.000441912
0.000501226
0.000732509
0.00078763
0.000904888
0.00100937
0.00107088
0.00107725
0.00102107
0.000912859
0.000796406
0.000821239
0.000958679
0.00107896
0.00113941
0.00113017
0.00106102
0.000947382
0.000821748
0.000757643
0.000509152
0.00056108
0.000851443
0.00128546
0.00167281
0.00194266
0.00211013
0.00215407
0.00203415
0.00171345
0.00122994
0.00125158
0.00173004
0.00207027
0.00220381
0.00216701
0.00200037
0.00172565
0.0013279
0.000877035
0.000569107
0.000618289
0.000693548
0.000758454
0.000816973
0.000871987
0.000918949
0.000957454
0.000987187
0.001009
0.00102625
0.00102907
0.00101365
0.000993318
0.000964791
0.000927307
0.00088102
0.00082612
0.000767214
0.000701627
0.000625457
9.88992e-05
0.000167012
0.000132286
0.000133316
0.000143086
0.000151336
0.000159814
0.000171208
0.000184992
0.000201931
0.000199864
0.000185958
0.000175199
0.000165173
0.000156614
0.000147048
0.000134589
0.000120824
0.000119968
0.000108059
0.00012976
0.000365829
0.000417477
0.000450555
0.000486659
0.000520544
0.000556165
0.000592244
0.000598268
0.000506662
0.000489699
0.000575684
0.000567581
0.000531234
0.000498382
0.000470293
0.000438062
0.000407015
0.000356972
0.000134196
0.000151197
0.000386632
0.000444113
0.000481494
0.000512477
0.000536303
0.000559778
0.000577229
0.000519163
0.000370398
0.000361338
0.000512416
0.000558872
0.000536466
0.000514342
0.000495085
0.000470436
0.000436728
0.000380315
0.000151953
0.000156667
0.000382777
0.000460667
0.00050277
0.000527106
0.000540804
0.000552445
0.000557226
0.000465877
0.00036154
0.000353434
0.000475099
0.00055117
0.000539994
0.000527414
0.000513629
0.000491077
0.000452199
0.000378141
0.000160201
0.000212404
0.000329466
0.000416099
0.000478757
0.000523076
0.000551383
0.000571254
0.000577081
0.000468962
0.000428406
0.000410666
0.000487723
0.000578589
0.000565886
0.00054519
0.000517762
0.000475786
0.000415424
0.000330661
0.000217247
0.000309755
0.000346153
0.000401618
0.000460919
0.000510676
0.000549574
0.000581068
0.000599637
0.000499308
0.000525207
0.000510638
0.000524884
0.000613739
0.0005928
0.000561513
0.000521221
0.000468601
0.000407305
0.000353326
0.00032121
0.000420224
0.00042485
0.000444498
0.000513831
0.000592511
0.000654447
0.000697149
0.00073014
0.000675147
0.000647802
0.000653859
0.000725082
0.000774033
0.000736633
0.000687677
0.000618128
0.000531988
0.000457432
0.0004362
0.000428046
0.000494471
0.000669392
0.000692668
0.000803934
0.000917923
0.000998373
0.00102106
0.000977477
0.000876594
0.000796881
0.000811727
0.000922191
0.00103039
0.0010755
0.00104962
0.000962158
0.000839512
0.000720545
0.000692962
0.000501233
0.000558096
0.000806953
0.00121752
0.00158202
0.00186598
0.00203041
0.00203414
0.00181333
0.00138843
0.00120246
0.00120633
0.0014143
0.00184084
0.00206905
0.00207505
0.00191442
0.00162732
0.00125454
0.000828177
0.000564768
0.000621917
0.000700165
0.000767558
0.000829508
0.000889404
0.000941963
0.000987183
0.00102691
0.00106743
0.00112104
0.00112258
0.00107192
0.00103237
0.000993258
0.000948792
0.000896824
0.00083711
0.000774797
0.000706842
0.000627947
8.57207e-05
0.000138422
0.000141563
0.000134979
0.000144656
0.000156214
0.000169
0.000184797
0.00019612
0.000210544
0.000208378
0.000196111
0.000185947
0.000171235
0.000158208
0.000145425
0.000132906
0.000128505
0.00015002
0.000106931
0.00012796
0.000389236
0.000453931
0.00049713
0.000547388
0.000588234
0.000615632
0.00059824
0.000463002
0.00051896
0.00049993
0.00043982
0.000576112
0.000589594
0.00056198
0.000528339
0.000484572
0.000444134
0.000385717
0.000135043
0.000154587
0.000419868
0.000482303
0.000529419
0.00057366
0.000603284
0.000604979
0.000519146
0.000356594
0.000655882
0.000625032
0.000341926
0.000513114
0.000584396
0.000576592
0.000553683
0.000516252
0.000472876
0.000414817
0.000156982
0.000168202
0.000403845
0.000475554
0.000527882
0.000565168
0.000584109
0.000580033
0.00046585
0.000379003
0.000909282
0.0008701
0.000362631
0.00047589
0.000573354
0.000569768
0.00055051
0.000519476
0.000469322
0.000404831
0.000170019
0.000187544
0.000339543
0.000446887
0.000518494
0.000564217
0.000593035
0.000597377
0.000468941
0.000488078
0.0012267
0.00117435
0.000448199
0.000488569
0.000599786
0.00058792
0.000556888
0.000511476
0.00044242
0.000338911
0.000191545
0.000277844
0.000315672
0.000382006
0.00045526
0.000524686
0.00058236
0.000614515
0.000499297
0.000599246
0.00152765
0.00146548
0.000560482
0.000525671
0.000627955
0.000591014
0.000530745
0.000458716
0.000384041
0.00031991
0.000287588
0.000404204
0.000379039
0.000388784
0.000457381
0.0005487
0.000636277
0.000707078
0.000675134
0.000743427
0.0017251
0.00166292
0.000730216
0.000724392
0.000743061
0.000663569
0.000567594
0.000469196
0.000396416
0.000386309
0.000410463
0.00048264
0.000586759
0.000589136
0.000684338
0.000795142
0.00088135
0.000912835
0.000876579
0.000919634
0.00180516
0.00175275
0.000922901
0.00092032
0.000954105
0.00091863
0.0008264
0.000708894
0.000607373
0.000602766
0.000487697
0.000548166
0.000732926
0.00109473
0.0014175
0.00168318
0.00180507
0.00171342
0.00138842
0.00128033
0.00172206
0.00168916
0.00128038
0.00141415
0.00172885
0.00183149
0.00171433
0.00144943
0.00112196
0.000746743
0.000553024
0.000617874
0.000697718
0.000766411
0.000830456
0.000895175
0.000954142
0.00100899
0.00106743
0.00114451
0.0012415
0.00124323
0.00114749
0.00107183
0.00101354
0.000959064
0.000900467
0.000835924
0.000771638
0.000702592
0.000622469
4.95246e-05
0.000144777
0.000139405
0.000135266
0.000148748
0.000164576
0.000182808
0.0002017
0.000210332
0.000218092
0.000215956
0.000208311
0.000199762
0.000181575
0.000163581
0.000148448
0.00013754
0.000143264
0.000158106
8.8643e-05
0.000104193
0.000417512
0.000490231
0.000541394
0.000605854
0.000646955
0.000654387
0.000506623
0.000518781
0.000343114
0.000335486
0.000500171
0.000490818
0.000640547
0.000630742
0.000593328
0.000534725
0.00048464
0.000413602
0.000133349
0.00015463
0.000463861
0.000534196
0.000587725
0.000642047
0.000661695
0.000593615
0.000370339
0.000655766
0.000501852
0.000492624
0.000625194
0.000362579
0.00059114
0.000647681
0.000629771
0.000580275
0.000529036
0.000459236
0.000159517
0.000172431
0.000443125
0.000523255
0.000579786
0.000626311
0.000635959
0.000540835
0.000361496
0.000909201
0.000671612
0.000665874
0.000870002
0.000354382
0.000551501
0.00063048
0.000618786
0.000575114
0.000521026
0.000441922
0.000174596
0.000167728
0.00042463
0.000533655
0.000586788
0.000629307
0.00064775
0.000550912
0.000428373
0.00122664
0.000865856
0.000867621
0.00117385
0.000411415
0.00056992
0.000649413
0.000626492
0.000584594
0.000533669
0.000427739
0.000168228
0.000250513
0.000313494
0.00040235
0.000502643
0.000596758
0.000659136
0.000592914
0.000525188
0.0015276
0.00107933
0.00109167
0.00146459
0.00051145
0.000616202
0.000667335
0.000601655
0.000505374
0.00040374
0.000316254
0.00025527
0.00038531
0.000353334
0.00036179
0.000434231
0.000545582
0.000663399
0.000701558
0.000647779
0.00172506
0.00129061
0.00131553
0.00166214
0.000654573
0.000729219
0.000680246
0.000556355
0.000440197
0.000364906
0.000355943
0.000388321
0.000464602
0.00050823
0.000502006
0.000575629
0.000675725
0.000763713
0.00079638
0.000796854
0.00180513
0.00144501
0.0014796
0.0017521
0.000811417
0.000819746
0.000781059
0.000688646
0.000584393
0.000507842
0.00051402
0.000467348
0.00052903
0.000637293
0.000957694
0.00119208
0.00141363
0.00147325
0.00122993
0.00120244
0.00172204
0.00155889
0.00159109
0.0016887
0.0012062
0.00125141
0.00148289
0.00142424
0.00120276
0.000969036
0.000644492
0.00053192
0.000599974
0.000681551
0.000749835
0.000816529
0.000888257
0.000956252
0.00102624
0.00112103
0.00124149
0.00126311
0.00128779
0.00124294
0.00112228
0.00102883
0.000959059
0.000891234
0.000819699
0.00075316
0.000684782
0.000603167
8.8793e-05
0.0001573
0.000140479
0.000135663
0.000148727
0.000163802
0.000181481
0.00019962
0.000208182
0.000215869
0.000217791
0.00021013
0.000201537
0.000182583
0.000164097
0.000148607
0.000137244
0.000139208
0.00014116
4.72088e-05
0.000131332
0.000412733
0.000483345
0.000531968
0.000590943
0.000629469
0.000639517
0.000489631
0.000499751
0.00033541
0.000343241
0.00051958
0.000510637
0.00065654
0.000648731
0.00060876
0.000544903
0.000493597
0.00042194
0.000109299
0.000158813
0.000458096
0.000527226
0.000577857
0.000627265
0.00064565
0.000588813
0.000361274
0.000624906
0.000492538
0.000502131
0.000654624
0.000373797
0.000598127
0.000665383
0.000646265
0.000592121
0.000538612
0.000468049
0.000156646
0.000174151
0.000441041
0.000520025
0.000573585
0.000616512
0.000627854
0.00054857
0.000353355
0.000869984
0.000665776
0.00067196
0.000905974
0.000363236
0.00054544
0.000640252
0.000630672
0.000583912
0.000527806
0.000447715
0.000174104
0.000168914
0.000425147
0.000532659
0.000582684
0.000623517
0.000646141
0.000566676
0.000410566
0.00117424
0.000867513
0.00086639
0.00122234
0.000430165
0.000555224
0.000652242
0.00063402
0.000590691
0.000538758
0.000431447
0.00016977
0.000256842
0.000315226
0.000400026
0.000500134
0.000596333
0.000662926
0.00061264
0.000510524
0.00146536
0.00109156
0.00108019
0.00152374
0.000527525
0.000597967
0.000664618
0.000602863
0.000507742
0.000406262
0.000316364
0.000251705
0.000389131
0.00035733
0.000364755
0.000438547
0.000554114
0.000678064
0.000727602
0.00065377
0.0016628
0.00131542
0.00129183
0.00172212
0.000650493
0.000706454
0.000668374
0.000550234
0.000437615
0.000363422
0.000353584
0.000385477
0.000467783
0.000517803
0.000511269
0.000587534
0.000691612
0.000783492
0.000821221
0.000811677
0.00175265
0.00147951
0.00144629
0.00180347
0.000800636
0.000801845
0.000769303
0.000680593
0.00057866
0.00050279
0.000507597
0.000464862
0.000532184
0.000646315
0.000973372
0.00120511
0.00142518
0.00148284
0.00125159
0.00120629
0.00168909
0.00159101
0.00155985
0.00172146
0.00120492
0.00123569
0.00147945
0.00141991
0.00119703
0.00096019
0.000638019
0.00052941
0.000603376
0.00068497
0.000753328
0.000819789
0.000891297
0.000959165
0.00102905
0.00112256
0.0012432
0.00128775
0.00126332
0.00124079
0.00112059
0.00102624
0.000956587
0.000888805
0.000817181
0.000750482
0.000682104
0.000600455
0.000110643
0.000140396
0.000125208
0.000132855
0.00014628
0.000158262
0.000170951
0.000185729
0.000196001
0.000208285
0.00021012
0.000195834
0.00018487
0.000169226
0.000155999
0.000144148
0.000135575
0.000140445
0.000151986
8.99463e-05
0.000134664
0.000385019
0.000443117
0.000482405
0.000526485
0.00056101
0.000588896
0.00057557
0.000439739
0.00050013
0.00051962
0.000466742
0.000601003
0.000616954
0.000589665
0.000550155
0.000500562
0.000457581
0.000394522
0.000131122
0.000156813
0.000415442
0.000472621
0.000515204
0.000552547
0.000575693
0.000583412
0.000512357
0.000341869
0.000625154
0.00065466
0.000358662
0.000523293
0.000608024
0.000606357
0.00057728
0.000533523
0.000486921
0.00042442
0.000156672
0.000170683
0.000407754
0.000470836
0.000519688
0.000549987
0.000568749
0.000572178
0.000475038
0.000362565
0.000869953
0.000906005
0.000379682
0.000469026
0.000582667
0.000586916
0.000568228
0.000531094
0.000480023
0.000409106
0.000170338
0.00019264
0.00033919
0.000441966
0.000510515
0.000555555
0.000586398
0.000598362
0.000487659
0.000448119
0.0011738
0.00122236
0.000487646
0.000471504
0.000599513
0.000595495
0.000566921
0.00052164
0.000450552
0.000342886
0.000188993
0.000289878
0.000320752
0.000383172
0.000456766
0.000528621
0.000589074
0.000626454
0.000524821
0.00056039
0.00146453
0.00152375
0.00059967
0.000502002
0.000616894
0.000584828
0.000526878
0.000457067
0.000383644
0.00031744
0.00028026
0.00041166
0.000388902
0.000398642
0.000471444
0.00057005
0.000665709
0.000744468
0.000725009
0.000730123
0.00166207
0.00172213
0.000744604
0.000678263
0.000709779
0.000639231
0.000551722
0.00045993
0.000390391
0.000380057
0.000405017
0.000488444
0.000609587
0.000615565
0.000717847
0.000835101
0.000925723
0.00095865
0.000922161
0.000922841
0.00175202
0.00180348
0.000922526
0.000881823
0.000918932
0.000888293
0.000802025
0.000689814
0.000592088
0.000588235
0.000483148
0.000553589
0.000751458
0.00113117
0.00145528
0.00171945
0.00183503
0.00173009
0.00141433
0.00128034
0.00168864
0.00172146
0.00128293
0.00139383
0.00172027
0.00181415
0.00169294
0.00142639
0.00109872
0.000734203
0.000548634
0.000622799
0.000702926
0.000771955
0.000836183
0.000900692
0.000959236
0.00101364
0.00107191
0.00114747
0.00124292
0.00124079
0.0011441
0.00106738
0.00100925
0.000954687
0.000895905
0.000831268
0.000767119
0.000698295
0.000618335
0.000106871
0.000117843
0.000120535
0.000136184
0.000147945
0.000156543
0.00016489
0.000175021
0.000185874
0.00019972
0.000201474
0.000184825
0.000171493
0.000160255
0.000151382
0.000142574
0.000133231
0.000128935
0.000165629
0.000108837
0.000134013
0.000357784
0.000407129
0.000437238
0.00046926
0.000497935
0.000530882
0.000567462
0.000576022
0.000490793
0.000510627
0.000600958
0.000593043
0.000556598
0.00052147
0.000488947
0.000453865
0.000420835
0.000370521
0.000133162
0.000152277
0.000382602
0.000437598
0.000470414
0.000495076
0.000514142
0.000536155
0.000558794
0.000513049
0.000362533
0.000373764
0.000523239
0.000579249
0.000561272
0.000537848
0.000514448
0.000484331
0.000447838
0.000391696
0.000153351
0.000161389
0.000380821
0.000453626
0.000491878
0.000513773
0.00052717
0.000539658
0.000551108
0.000475851
0.00035434
0.000363222
0.00046899
0.000558759
0.000553526
0.000541782
0.000528374