/*--------------------------------*- C++ -*----------------------------------*\
| =========                 |                                                 |
| \\      /  F ield         | OpenFOAM: The Open Source CFD Toolbox           |
|  \\    /   O peration     | Version:  v1912                                 |
|   \\  /    A nd           | Website:  www.openfoam.com                      |
|    \\/     M anipulation  |                                                 |
\*---------------------------------------------------------------------------*/
FoamFile
{
    version     2.0;
    format      ascii;
    class       surfaceScalarField;
    location    "300";
    object      phi;
}
// * * * * * * * * * * * * * * * * * * * * * * * * * * * * * * * * * * * * * //

dimensions      [0 3 -1 0 0 0 0];
oriented        oriented;


internalField   nonuniform List<scalar> 
11200
(
0.000397938
-0.000440972
0.000412405
-0.000306745
0.000589625
0.000116405
-0.000888551
0.000726611
-0.000145231
-0.00111744
0.000361076
-0.000131992
-0.000828424
-0.000249739
-3.82025e-05
-0.000575956
-0.000213411
-3.81457e-05
-0.000431412
-0.000180927
3.73697e-05
-0.000338968
-0.00024541
0.000152229
-0.000218012
-0.000375864
0.000253681
0.000175522
-0.000475387
7.63025e-05
0.000355761
-0.000420413
0.000248171
0.000429393
-0.00023114
0.000148405
0.000533936
-0.000162961
6.18305e-05
0.000731277
-0.000205784
8.10258e-06
0.00105897
-0.000273485
-5.52601e-05
0.00128474
-0.000186018
-3.97092e-05
0.00098287
0.000474507
-0.000172535
0.000355633
0.000774748
-0.000147596
-0.000473622
0.000643494
0.000185387
-0.00101198
0.000538596
0.00250077
-0.0054375
0.00249782
0.00319338
-0.00228794
0.00218471
0.00207509
0.000282028
0.001563
-9.47049e-05
0.00148068
0.0010508
-0.00136196
0.00082843
0.000189797
-0.00131223
-0.000126132
-0.000135287
-0.000965492
-0.000247328
-0.000278628
-0.000639676
-0.000258591
-0.000314215
-0.000377736
-0.000365438
-0.000267862
8.88127e-05
-0.000549608
-0.000393615
0.000378755
-0.000394305
-0.000322702
0.000785088
-0.000293193
-0.000342424
0.00115998
-0.00026012
-0.000277891
0.00145182
-0.000278527
-0.000220479
0.00124104
4.96035e-05
-0.000112283
-0.000394568
0.00100124
0.000448603
-0.00259551
0.00141681
0.00125824
-0.00347714
-7.64385e-05
0.00173237
-0.00245102
-0.00268461
0.00230278
-0.0059272
0.00246724
0.00159266
-0.00862258
0.00159257
0.00276812
-0.00504248
0.00157883
0.00296676
-0.00129305
0.00137664
0.00211411
0.00121492
0.00111911
0.000302264
0.00173892
0.000902377
-0.00114596
0.000917296
0.000405153
-0.00140721
0.000215057
-0.000201311
-0.0010085
-0.000354844
-0.000302893
-0.000500978
-0.000311606
-0.000562894
5.96558e-05
-0.000353288
-0.000757887
0.000632978
-0.000258251
-0.000708753
0.00115421
-0.000307659
-0.00050659
0.00149424
-0.000373857
-0.000227238
0.000969704
0.000310955
-6.54404e-05
-0.000680455
0.00113337
0.000566368
-0.00237008
0.00172349
0.000967159
-0.00311704
0.000944276
0.00121935
-0.00277654
-0.00188576
0.00146863
-0.00155844
-0.00556782
0.00166443
-0.00908479
0.00159903
0.000921508
-0.0104658
0.000921789
0.00169266
-0.00701474
0.00120122
0.00256922
-0.00341272
0.00124358
0.00293513
-0.000316471
0.00116587
0.00249536
0.0011115
0.0010679
0.00141846
0.00120517
0.00079025
1.68997e-05
0.000954309
0.000661685
-0.000702484
0.000328281
3.89627e-05
-0.000526289
6.38446e-05
-0.000552793
7.52331e-05
-7.33175e-05
-0.000880561
0.000685643
-2.0553e-05
-0.000848987
0.000791619
0.000103089
-0.000518009
-7.52053e-05
0.000354531
0.000137833
-0.00154955
0.00101419
0.000771585
-0.00250235
0.00118179
0.000904632
-0.00283202
0.000907753
0.00114536
-0.00236198
-0.000760515
0.00123435
-0.00155065
-0.0039893
0.00129201
-0.000871471
-0.00748428
0.00123696
-0.0108626
0.000906479
0.000424928
-0.0113161
0.000425202
0.000558361
-0.00816168
0.00101365
0.000988899
-0.00516167
0.00131867
0.00179948
-0.00264195
0.00151535
0.00242772
-0.00100319
0.00148675
0.00246666
-0.000166292
0.00133265
0.00209225
0.000185426
0.00114217
0.00125751
0.00033483
0.000826923
0.0004036
0.000452212
0.000464343
4.53966e-05
0.000424177
-0.000140751
-0.000333805
0.00046769
-0.000110241
-0.00123901
0.000458864
0.000548966
-0.00207872
0.000270785
0.000923514
-0.00235201
3.05984e-05
0.00125661
-0.00216455
-0.000461137
0.00145504
-0.00147834
-0.00137202
0.00159305
-0.00071546
-0.00309583
0.00157202
-0.000419445
-0.00562223
0.00133673
-0.000381929
-0.00854442
0.0010226
-0.0116417
0.00039728
1.65551e-05
-0.0113495
1.67383e-05
-0.00039368
-0.00862241
0.000871219
-0.000590168
-0.00628817
0.00132318
-0.000460598
-0.00447135
0.00169995
-0.000156687
-0.00325484
0.00194779
0.000121007
-0.00238756
0.00194358
0.000296004
-0.00177622
0.0017863
0.000293059
-0.00125911
0.00159625
0.000167954
-0.000860186
0.00143657
-6.75303e-05
-0.000602591
0.00126141
-0.000229105
-0.000658752
0.00128748
-0.000246094
-0.00100963
0.00148521
-0.000152921
-0.00147508
0.00165231
7.01773e-05
-0.00204299
0.00184992
0.000373373
-0.00274447
0.00197964
0.000667903
-0.00362178
0.00195474
0.00074727
-0.00485595
0.00168039
0.000474683
-0.00665711
0.00130743
9.68644e-06
-0.00894198
0.000862625
-0.0116182
-1.38166e-05
-0.000358807
-0.0106317
-0.000358784
-0.00116027
-0.00846194
0.000641094
-0.00172984
-0.00680624
0.0010877
-0.00193217
-0.00566579
0.00139678
-0.00187608
-0.00493035
0.00161944
-0.00161473
-0.00441619
0.00176737
-0.00121579
-0.00398902
0.00181386
-0.000736137
-0.00353744
0.00179863
-0.00027856
-0.00311804
0.00180009
-1.678e-05
-0.00272554
0.00186073
0.000275097
-0.00280451
0.0018535
0.000775371
-0.00329772
0.00178743
0.00128674
-0.00377059
0.00178373
0.0017119
-0.00424418
0.00177562
0.00197449
-0.00470384
0.00169643
0.00203188
-0.00522882
0.00154951
0.00180905
-0.00597055
0.00133739
0.00120584
-0.00710018
0.00104636
0.000373248
-0.00872579
0.00061649
-0.010855
-0.000389913
-0.000779668
-0.00907216
-0.000779762
-0.00191942
-0.00746982
0.000147446
-0.002711
-0.00646521
0.000450331
-0.00303135
-0.0059122
0.000566532
-0.00295488
-0.00561114
0.000604028
-0.00256843
-0.0054329
0.000629999
-0.00195715
-0.0052671
0.000666507
-0.00120577
-0.00504444
0.000755162
-0.000470831
-0.00477855
0.000925026
1.35738e-05
-0.00444249
0.00123191
0.000513325
-0.00450026
0.00119534
0.00126398
-0.00490592
0.000856963
0.00202938
-0.0052075
0.000671081
0.00265427
-0.00544998
0.000580673
0.00304174
-0.00563247
0.000541052
0.00311248
-0.00581867
0.000519047
0.00277504
-0.00612465
0.000491547
0.00195855
-0.00667445
0.0003908
0.000793598
-0.00766548
0.000104706
-0.00924716
-0.000814178
-0.00147968
-0.00611275
-0.00147983
-0.00294961
-0.00512506
-0.000875085
-0.00386131
-0.00473015
-0.000823596
-0.00420939
-0.00464643
-0.000917981
-0.00407452
-0.00466965
-0.00107673
-0.00355576
-0.00474007
-0.00121199
-0.00274487
-0.00480009
-0.00127831
-0.00172382
-0.00480355
-0.0012624
-0.000678878
-0.00474156
-0.00108251
2.04023e-05
-0.00460586
-0.000536613
0.000740109
-0.00463652
-0.00058418
0.00179924
-0.0048107
-0.00115491
0.00283109
-0.00489009
-0.00134958
0.00365096
-0.00489697
-0.00137304
0.00416967
-0.00484613
-0.00130514
0.00429747
-0.00478109
-0.00116541
0.00393371
-0.00476178
-0.000999147
0.00299987
-0.00484598
-0.000894616
0.00150408
-0.00523769
-0.000931928
-0.00621907
-0.00152388
-0.00305636
-0.00305657
-0.0048943
-0.00328729
-0.00579374
-0.0038309
-0.00608009
-0.00436036
-0.00584131
-0.00490877
-0.00515814
-0.00542362
-0.00407676
-0.00588188
-0.00264952
-0.00623126
-0.0010564
-0.00633523
2.31558e-05
-0.00568608
0.00114408
-0.00575807
0.00275823
-0.00642524
0.00420062
-0.0063327
0.00529136
-0.00598783
0.00597584
-0.00553066
0.00620712
-0.00501242
0.0059027
-0.00445738
0.00497562
-0.00391888
0.00310001
-0.00336197
-0.00311894
0.000109636
0.000604227
-0.000299886
-0.000145782
0.000511978
-0.000140558
-0.000512823
0.000410725
-0.000188057
-0.000674667
0.000127334
-9.6547e-05
-0.000469026
-0.000246763
3.50197e-06
-0.000280718
-0.000266135
4.18608e-05
-0.00018708
-0.000165787
0.000112986
-0.000166611
-9.04871e-05
0.000222067
1.89691e-05
-0.000270291
0.000335
9.59275e-05
-0.000209335
0.000213502
0.00020775
-0.000177741
0.000298216
0.000208934
-8.64254e-05
0.000239369
0.00026778
-0.000162435
0.000164694
0.000413402
-0.000221793
8.20447e-05
0.000664557
-0.000299511
-7.3303e-06
0.000777281
-0.000158863
7.07289e-06
0.000557705
0.000194137
-0.000147857
0.000164011
0.000456813
-0.000211856
-0.000151354
0.00064198
-0.000144159
0.000717377
-0.000336589
0.00218597
-0.00228337
0.00319863
0.00270019
-0.000521578
0.0027037
0.00189508
0.000909893
0.0018689
0.000392551
0.0014713
0.00120971
-0.000686817
0.000760309
0.000263139
-0.000902582
-2.02362e-06
-0.00018384
-0.000630853
-0.000424802
-0.000293032
-0.000334728
-0.000338501
-0.000356823
-0.000140212
-0.000314264
-0.000421909
3.37284e-05
-0.000272532
-0.000509178
0.000231024
-0.00025874
-0.00043661
0.000493425
-0.000317569
-0.000373956
0.000739499
-0.000360728
-0.000327604
0.000947474
-0.00042195
-0.000228822
0.0004858
0.000149298
-9.87576e-05
-0.000898372
0.0010025
0.00067107
-0.0024175
0.00141916
0.00155243
-0.00306065
0.000611392
0.00222081
-0.00228103
-0.000919964
0.00308641
-0.00260443
0.00350888
0.00157926
-0.00504118
0.00277079
0.00268138
-0.00272712
0.00268243
0.00291487
-0.000201851
0.00225488
0.00235107
0.00139662
0.00175778
0.00118366
0.0015473
0.00128432
-8.30345e-05
0.000982239
0.000689307
-0.00065292
9.81305e-05
-0.000157348
-0.000535431
-0.000331052
-0.000423983
-0.00026175
-0.000456216
-0.000694321
6.30305e-05
-0.000440152
-0.000912534
0.000396157
-0.000428948
-0.000872099
0.000651985
-0.000459323
-0.000621958
0.000671107
-0.000298065
-0.000309497
-0.000103925
0.000198764
8.93566e-05
-0.00150706
0.0011519
0.000967152
-0.00261123
0.00160035
0.00147323
-0.00313383
0.00121821
0.00194255
-0.00279132
-0.000706578
0.00244371
-0.0016224
-0.00327798
0.00285321
-0.00548013
0.00285248
0.001201
-0.00701415
0.00169379
0.00224023
-0.00480604
0.00224086
0.00308548
-0.00213161
0.0023282
0.0033192
0.000255907
0.00207289
0.00290133
0.00128212
0.00175124
0.00209758
0.0012629
0.00131424
0.00109258
0.00086908
0.000893718
0.000267099
0.000288473
0.00024401
-5.3182e-05
-0.0001998
-0.000490251
7.95724e-05
-0.000509006
-0.000945876
0.000194527
-0.000485405
-0.000908766
-0.000228886
-0.000159383
-0.000394981
-0.00118311
0.000351443
0.000442564
-0.0022328
0.000932281
0.00108767
-0.00297546
0.0013102
0.00148899
-0.00332575
0.0012187
0.00187705
-0.00299733
-3.39316e-05
0.00215747
-0.00216666
-0.00261135
0.00236628
-0.00119538
-0.00525072
0.00223852
-0.00739248
0.00162356
0.00101338
-0.00816145
0.000559042
0.00165661
-0.00609278
0.0016571
0.00226751
-0.00362573
0.00220205
0.00291527
-0.00122543
0.00234908
0.00319951
0.00028743
0.00219741
0.00299281
0.000881185
0.00192111
0.00248994
0.000927858
0.00158549
0.00168128
0.000781061
0.00114195
0.000801156
0.000593064
0.000550448
6.3197e-05
0.000316621
-0.000229364
-0.000718417
0.000352259
-0.000166693
-0.00166796
0.000653264
0.000685582
-0.00249018
0.00081403
0.00128294
-0.00295778
0.000920524
0.00173563
-0.00307542
0.000815171
0.00206742
-0.0027046
0.000129236
0.00231114
-0.00206703
-0.00151334
0.00241351
-0.0015746
-0.003971
0.00220406
-0.00100425
-0.00641337
0.00161494
-0.00845985
0.000460436
0.00087101
-0.00862242
-0.000393328
0.00111006
-0.00657087
0.00111032
0.00115656
-0.00433771
0.00198892
0.00134522
-0.00220696
0.00249306
0.00160863
-0.000709213
0.0026813
0.00170019
0.00018531
0.00254822
0.0014967
0.000626459
0.00229125
0.00106594
0.00085298
0.00195501
0.000536536
0.000963676
0.00159509
-2.32195e-05
0.000995261
0.00114207
-0.000556899
0.000986105
0.00118712
-0.00103042
0.000941316
0.0016704
-0.0014132
0.000807722
0.00204093
-0.00156975
0.000543946
0.00238246
-0.00142793
2.76419e-05
0.00262474
-0.00116496
-0.00090296
0.00272363
-0.0010459
-0.00243548
0.00248338
-0.0010678
-0.00459839
0.00195679
-0.000868771
-0.00681322
0.00106351
-0.00887052
-0.000471805
0.000641037
-0.00846202
-0.0011602
0.000542489
-0.00637376
0.000542439
0.000214685
-0.00446797
0.00154568
2.22174e-05
-0.00281104
0.00219316
-3.15046e-05
-0.00162647
0.00259024
3.78821e-05
-0.000821386
0.00270455
9.75558e-05
-0.000257293
0.0026378
6.34061e-05
0.000198493
0.00248678
8.21197e-06
0.000491342
0.00232699
-3.02417e-06
0.000696947
0.0021695
-2.37385e-06
0.000660068
0.0021781
-2.52788e-05
0.00040866
0.00234227
-1.83937e-05
8.72676e-05
0.00249663
7.1957e-05
-0.000392577
0.00262132
0.000129012
-0.000990948
0.00265769
5.23875e-05
-0.00180157
0.00252469
-0.000159686
-0.00300703
0.00212104
-0.000517303
-0.00467622
0.00148192
-0.000636959
-0.00656324
0.000486239
-0.00867341
-0.00122389
0.000147551
-0.00746987
-0.00191959
-0.000302144
-0.00547432
-0.000302485
-0.000843257
-0.00405885
0.000582003
-0.0011309
-0.00304025
0.00108291
-0.0011758
-0.00234049
0.00136237
-0.00106213
-0.00185484
0.00154917
-0.000800333
-0.0014349
0.00158165
-0.000466512
-0.00103267
0.00165161
-0.000138893
-0.000700146
0.00178782
3.2638e-05
-0.000233464
0.00198956
0.00021567
-0.000292646
0.00196371
0.000556033
-0.000795337
0.00171958
0.000891529
-0.00113604
0.00155824
0.00114461
-0.00154707
0.00148172
0.00124968
-0.00197299
0.00141781
0.00119935
-0.00247008
0.00123781
0.000898209
-0.00318349
0.000969138
0.000336235
-0.00421025
0.000486889
-0.000130072
-0.00561918
-0.000372889
-0.00763436
-0.00198313
-0.000874894
-0.00512507
-0.00294991
-0.00181634
-0.00359135
-0.00181676
-0.00251177
-0.00282665
-0.00136072
-0.0028266
-0.00241651
-0.00122741
-0.00278339
-0.00217947
-0.00128164
-0.00246455
-0.0020347
-0.00135173
-0.00196751
-0.00192294
-0.00128816
-0.00135314
-0.0018035
-0.00110696
-0.000677872
-0.00170647
-0.000752708
9.32186e-05
-0.00151633
-2.63846e-05
0.000827712
-0.00152846
-8.42823e-05
0.00147749
-0.00173817
-0.000862736
0.00208558
-0.00184542
-0.00124874
0.00258182
-0.00197368
-0.00144285
0.0028931
-0.00209511
-0.00149438
0.00292605
-0.00224721
-0.00142127
0.0025951
-0.00249237
-0.00135931
0.00187671
-0.00290919
-0.00147716
0.000911084
-0.00367818
-0.00190704
-0.00522305
-0.00302385
-0.0032871
-0.00489466
-0.00508277
-0.0050831
-0.00601166
-0.00572891
-0.00633179
-0.00645706
-0.00616726
-0.00725316
-0.00558698
-0.00803903
-0.00463134
-0.00876092
-0.00331657
-0.00935006
-0.00173757
-0.00962134
8.12061e-05
-0.00902193
0.00190115
-0.009107
0.00348101
-0.00974354
0.00479906
-0.00949632
0.0057553
-0.00891781
0.00633064
-0.00820115
0.00648319
-0.00741219
0.00614186
-0.0066084
0.00518177
-0.00586787
0.00334506
-0.00520323
-0.0049968
-0.000146752
0.000724588
-0.00087858
-0.000188104
0.000408229
-0.000508299
-0.000258186
0.000138063
-0.000256465
-0.000283067
-7.75866e-05
5.45025e-06
-3.94213e-05
-0.000333844
9.30453e-05
9.13386e-05
-0.000277241
0.000187676
0.00013288
-0.000220779
0.000293087
0.000126106
-0.000162194
0.000393714
0.000126782
-0.000135156
0.000468658
3.13623e-05
-0.000141256
0.000446506
-1.7701e-05
-0.000129266
0.000479759
-7.68695e-05
-0.000155327
0.000452505
-7.98251e-05
-0.000194325
0.000359307
-1.95185e-06
-0.000236065
0.000239544
0.000189028
-0.000320801
0.000123725
0.000367986
-0.000274534
0.000103363
0.00031174
-4.12663e-05
-5.03085e-05
0.000194839
0.00022063
-0.000315347
0.000139351
0.000455188
-0.000540235
0.000771028
-0.000969933
0.00156221
0.000280101
0.00207969
0.0018659
0.000908944
0.00189815
0.00126652
0.00133671
0.00126906
0.000264611
0.00132534
0.000808225
-0.000378944
0.000485869
8.90403e-05
-0.000493682
-0.000159995
-0.000184585
-0.000308068
-0.000471837
-0.000232091
-0.000119457
-0.000425197
-0.000279396
-1.09959e-05
-0.000360587
-0.000303034
7.10573e-06
-0.000320572
-0.000345992
6.74818e-05
-0.000312476
-0.000314587
0.000180842
-0.00036436
-0.000280334
0.000349306
-0.000433365
-0.000257808
0.000530702
-0.000474852
-0.0001707
0.000231364
-3.27853e-05
-8.67406e-05
-0.000649095
0.000763491
0.000512539
-0.00172415
0.00138723
0.00119832
-0.00220075
0.00117747
0.00173976
-0.00171103
0.000611033
0.00244077
-5.35503e-05
0.00262255
0.00137586
-0.00129315
0.00296771
0.00225376
-0.000201773
0.00291475
0.00244705
0.000950643
0.00244726
0.00206994
0.00153887
0.00192081
0.00118192
0.00132803
0.00133029
0.000290659
0.000744233
0.000677725
-0.000234577
-6.53061e-05
-3.99586e-05
-0.000224873
-0.000513898
-0.00034462
-0.000108394
-0.00059474
-0.000577683
3.23205e-05
-0.000614279
-0.000760826
0.000178604
-0.000612151
-0.000719832
0.00026222
-0.000592512
-0.000477933
0.000177221
-0.000479628
-0.000177878
-0.000507603
4.5688e-05
0.000254095
-0.00151912
0.000925421
0.00102041
-0.00233143
0.00143589
0.00161298
-0.00267436
0.00149547
0.00217703
-0.00239013
0.000624992
0.00271186
-0.00142451
-0.000678256
0.00317684
-0.00179611
0.00317055
0.00124298
-0.00341231
0.0025698
0.00232754
-0.00213123
0.0030853
0.0030859
-0.000565828
0.00308576
0.00323249
0.000777158
0.00268766
0.00285792
0.00126921
0.00218468
0.00216787
0.00111647
0.00163229
0.00126962
0.000674309
0.00105147
0.000545223
6.25379e-05
0.000390876
0.000152276
-0.000452685
-0.00024038
4.20114e-05
-0.000766684
-0.000683875
-0.000105631
-0.000761418
-0.000612379
-0.000617591
-0.000424686
-5.09014e-05
-0.0014378
0.000125739
0.000657317
-0.00236132
0.000740981
0.00131582
-0.00298822
0.00118025
0.00186105
-0.0033063
0.00126584
0.00236504
-0.00307514
0.000610886
0.00281079
-0.00229024
-0.000936327
0.00314282
-0.00124228
-0.00255179
0.00306418
-0.00385557
0.00244069
0.00131833
-0.00516169
0.000989522
0.00220157
-0.00362567
0.00226773
0.00295729
-0.00207703
0.00295745
0.00346783
-0.000411342
0.00302706
0.00353516
0.000644578
0.00275504
0.00321345
0.00100252
0.00235711
0.00265402
0.000906046
0.00191323
0.00184204
0.000640617
0.00137576
0.000933655
0.000311212
0.000694576
3.80518e-05
-1.7275e-05
-8.34978e-05
-0.000902303
1.52126e-07
1.20819e-05
-0.00186799
0.0003496
0.000876699
-0.0026948
0.000670956
0.00156421
-0.00323596
0.000923686
0.00209365
-0.00350091
0.000993376
0.0025189
-0.00337035
0.000573393
0.00287278
-0.0028416
-0.000582785
0.00307825
-0.00215523
-0.00232896
0.00291031
-0.00131765
-0.00390599
0.00213145
-0.0054938
0.000780825
0.00132297
-0.00628849
-0.000589916
0.00198873
-0.00433792
0.00115672
0.00233164
-0.00276282
0.00233178
0.00260966
-0.00112509
0.00292889
0.00275538
0.000109367
0.00307106
0.0026288
0.00078404
0.00289359
0.00223831
0.00100573
0.00258219
0.00162434
0.00103025
0.00217935
0.000854785
0.000988376
0.00168733
4.72903e-06
0.000962088
0.00101221
-0.000846736
0.00096734
0.00107085
-0.00159892
0.000989641
0.00178215
-0.00219423
0.00102322
0.00228354
-0.00255583
0.000980305
0.00268707
-0.00264489
0.00072565
0.00298132
-0.00249212
2.45017e-05
0.00311965
-0.00225243
-0.00124983
0.00291076
-0.00195865
-0.00293124
0.00226536
-0.00131765
-0.00453747
0.00105408
-0.00655145
-0.000731815
0.00108762
-0.00680654
-0.00172978
0.00154577
-0.00446823
0.000214597
0.0016024
-0.00287612
0.00160229
0.00154938
-0.00136776
0.00248868
0.00146826
-0.000201719
0.00298223
0.00133942
0.00053283
0.00308435
0.00111071
0.00088961
0.00298237
0.000759797
0.00109181
0.00277559
0.000363904
0.00117963
0.00253092
3.60916e-06
0.00124649
0.00224459
-0.000349286
0.00123407
0.00226344
-0.000725642
0.00114793
0.00255972
-0.00105561
0.00105184
0.00279755
-0.00126963
0.0008336
0.00298183
-0.00139639
0.000451958
0.00305808
-0.001484
-0.000290642
0.00292754
-0.00155393
-0.00147356
0.00241491
-0.00151723
-0.00300719
0.00152137
-0.00107092
-0.00463067
0.00013331
-0.00702529
-0.00182073
0.000450415
-0.00646538
-0.00271116
0.000582363
-0.00405902
-0.000843633
0.000455065
-0.00262158
0.00045455
0.000325455
-0.00146391
0.00130824
0.000307806
-0.000595108
0.00177276
0.000332665
-1.77626e-06
0.00205813
0.000323176
0.000363262
0.00211662
0.00029236
0.000630168
0.0021431
0.000223048
0.000828573
0.00220707
2.80079e-05
0.00111511
0.00231477
-0.000165983
0.00108907
0.00230156
-0.000227757
0.000768096
0.00216033
-0.000258271
0.000572549
0.00206752
-0.00026149
0.00030031
0.002018
-0.000239329
-7.44843e-05
0.00192207
-0.000259958
-0.000676157
0.00164405
-0.000394513
-0.00155347
0.00118378
-0.000531951
-0.00272786
0.000345283
-0.000417188
-0.00418626
-0.000931747
-0.00663044
-0.00279493
-0.00082342
-0.00473022
-0.00386161
-0.00136028
-0.00282672
-0.00251225
-0.00171431
-0.00191365
-0.00171487
-0.00180804
-0.00136226
-0.00123576
-0.00167135
-0.00101414
-0.000999944
-0.00134916
-0.000776875
-0.000899597
-0.000911213
-0.000553393
-0.000810343
-0.000463342
-0.000343762
-0.000581924
-3.95654e-05
-0.000189543
-0.000159612
8.61563e-05
0.000327165
0.000634437
0.000212309
0.000309433
0.000568084
0.000623861
-0.000206907
-0.000299971
0.00106116
-0.000368069
-0.000745757
0.00148601
-0.00058226
-0.000985206
0.00179363
-0.000807116
-0.00106934
0.00192356
-0.00105208
-0.00117518
0.00181718
-0.00141057
-0.00139565
0.00144076
-0.00197375
-0.00185452
0.000872219
-0.00290081
-0.00262359
-0.00482695
-0.00395487
-0.00383076
-0.00579413
-0.00572863
-0.006012
-0.0066855
-0.00668581
-0.00700196
-0.00750306
-0.00684047
-0.00842908
-0.00627
-0.0093867
-0.0053052
-0.0102795
-0.00393885
-0.0110606
-0.00222174
-0.0115284
9.90684e-05
-0.011016
0.00240678
-0.0111056
0.00412589
-0.0116698
0.00549255
-0.0112311
0.00645484
-0.0104624
0.00702109
-0.00957451
0.00717136
-0.00861452
0.00683533
-0.00768286
0.00584756
-0.00685371
0.00390393
-0.0061602
-0.0059197
-0.00013221
0.000358879
-0.00110652
-9.29651e-05
0.000125913
-0.000675352
9.38161e-06
-7.7746e-05
-0.000283075
0.000143033
-0.00027085
0.000141987
0.000337188
-0.00044124
0.000340899
0.000412103
-0.000305516
0.000419214
0.000417453
-0.000248086
0.000533729
0.000352804
-0.000198329
0.000657491
0.000225608
-0.000175769
0.00077344
5.4738e-07
-0.000170702
0.000842779
-0.000217454
-0.000167736
0.000863829
-0.000370987
-0.000183733
0.000787702
-0.000439973
-0.000214188
0.000641978
-0.000416625
-0.000279351
0.000496353
-0.000302278
-0.000364329
0.000374413
-7.09571e-05
-0.000420987
0.000292688
4.14793e-05
-0.000223285
5.91955e-05
0.000132938
-4.19988e-05
-0.000366942
0.000164786
0.000187809
-0.000759526
0.000458931
-0.00126473
0.00104766
0.00147682
-8.73255e-05
0.00120658
0.00147118
0.000392382
0.00080618
0.00132535
0.000265764
0.000246763
0.000847008
0.000249387
-0.000115653
2.46111e-05
-1.4163e-05
-0.000107005
-0.000421616
-7.61099e-05
1.93339e-05
-0.000536897
-7.10755e-05
0.00010192
-0.000488005
-7.26505e-05
8.77953e-05
-0.000417113
-4.91078e-05
-3.62171e-05
-0.000363068
-3.14829e-05
-0.000141355
-0.00036436
-1.44345e-05
-0.000155234
-0.000439949
-1.08203e-05
-6.62647e-05
-0.000532343
-2.79698e-05
6.12251e-05
-0.000579919
3.10457e-06
-7.9202e-05
-0.00032484
1.46344e-05
-0.000549503
0.000303579
0.000257955
-0.0011946
0.00108348
0.000536381
-0.00154099
0.00138842
0.000654967
-0.0012455
0.00141508
0.000917895
0.00140294
0.000432897
0.00111769
0.00121375
0.00211233
0.00175697
0.00139708
0.00234935
0.0019208
0.00153929
0.00206947
0.00164015
0.00140785
0.00163999
0.000964366
0.000986806
0.00104346
0.000387185
0.000316541
0.000516784
5.16089e-05
-0.000340481
9.83236e-05
-3.47444e-06
-0.000676816
-0.000101463
-2.15992e-06
-0.000731063
-0.000266194
-1.8123e-05
-0.000703536
-0.000405119
-3.50753e-05
-0.000721247
-0.00034621
-6.08837e-05
-0.000776285
-0.000115441
-0.000182909
-0.000694848
0.000107203
-0.000640345
-0.000256853
0.000388729
-0.00131195
0.000498717
0.000868298
-0.00193516
0.00113121
0.00140839
-0.00215063
0.00152976
0.00194614
-0.0019043
0.00150448
0.00234926
-0.001184
0.00124105
0.0026302
0.000998757
0.00239045
0.00116517
-0.000316414
0.00293423
0.00207248
0.000256608
0.00331801
0.0026878
0.000777594
0.00323176
0.0028088
0.00116573
0.00280843
0.0025317
0.0011691
0.00227953
0.00193079
0.000849969
0.00170007
0.00120331
0.000336713
0.0011018
0.000608765
-0.000267607
0.000576143
0.000232285
-0.000716214
0.000121216
-9.1354e-06
-0.000892024
-0.000254046
-0.000289049
-0.000908053
-0.000145693
-0.000747918
-0.000725209
0.000356964
-0.00141999
-0.000232972
0.000867288
-0.00217016
0.000394723
0.00141416
-0.00271535
0.000912073
0.00199274
-0.00294803
0.00121774
0.0025111
-0.00274892
0.00115437
0.002987
-0.00208641
0.000641494
0.00334308
-0.00118082
4.49637e-05
0.00335446
-0.000611961
0.00287023
0.00151492
-0.00264225
0.00179988
0.00234874
-0.00122531
0.00291512
0.00302697
-0.000411232
0.0034676
0.00342104
0.000377547
0.00342094
0.00343775
0.000831013
0.00307656
0.0031301
0.000889734
0.00262531
0.00256609
0.000670361
0.00214383
0.00177049
0.000330596
0.0015733
0.00086807
-5.85124e-05
0.000939212
-4.89708e-06
-0.00039937
0.00029647
-0.000915193
-0.000401024
0.000415154
-0.00186225
-5.07796e-05
0.00114892
-0.00266839
0.000340033
0.00179697
-0.00321204
0.000680151
0.0023516
-0.00348385
0.000897634
0.002805
-0.00342445
0.000818198
0.00321281
-0.00300327
0.000320913
0.0034904
-0.00235263
-0.000531676
0.00343264
-0.00154489
-0.00139993
0.00276832
-0.00293673
0.00156043
0.00169971
-0.00447192
-0.000460565
0.00249289
-0.00220752
0.00134534
0.00292881
-0.0011253
0.00260966
0.00319871
-0.000162308
0.00319865
0.00327175
0.000521552
0.0033075
0.00307952
0.000853885
0.00312174
0.0026346
0.000891855
0.00280567
0.00194872
0.000798462
0.00239726
0.0010536
0.000668429
0.00185515
1.58047e-05
0.000518764
0.00113127
-0.00103696
0.000518404
0.00120344
-0.0019414
0.000665418
0.00196987
-0.0026244
0.000790236
0.00251603
-0.00305495
0.000878536
0.00291911
-0.00322505
0.000835569
0.00321354
-0.00314307
0.000498912
0.00335714
-0.00289211
-0.00020127
0.00318221
-0.00248727
-0.00119774
0.00252677
-0.00170115
-0.00233515
0.00120324
-0.00473035
-0.000639337
0.00139661
-0.00566635
-0.00193205
0.00219319
-0.00281169
2.20332e-05
0.00248889
-0.00136805
0.00154921
0.00251858
-0.000221812
0.00251828
0.00242887
0.00053851
0.00305473
0.00222302
0.000926425
0.00321739
0.00186357
0.00106725
0.0031661
0.00134083
0.00111067
0.00298566
0.000713818
0.0010878
0.00273793
1.45203e-05
0.00107603
0.00238583
-0.000685885
0.00107039
0.00241105
-0.00130857
0.00107269
0.00277455
-0.00182409
0.00108919
0.00301382
-0.00217747
0.00103924
0.00317446
-0.00238185
0.000895494
0.00320271
-0.00247755
0.000508097
0.00301439
-0.00245793
-0.000260516
0.00245494
-0.00216979
-0.00143466
0.00147054
-0.00137097
-0.00293548
-6.47831e-05
-0.00588581
-0.00203603
0.00056658
-0.00591254
-0.00303146
0.00108322
-0.00304065
-0.00113126
0.00130886
-0.0014641
0.000324853
0.00133802
-0.000280375
0.00133735
0.00129596
0.000429528
0.00192332
0.00124207
0.000792279
0.00224558
0.00110723
0.000952863
0.00236522
0.000878743
0.0010778
0.00240378
0.000556062
0.00116079
0.00245599
3.8851e-05
0.00138759
0.00251956
-0.00048943
0.00139089
0.00250856
-0.000817995
0.00114023
0.00242079
-0.00104448
0.00104316
0.00233973
-0.00117879
0.000917839
0.0022737
-0.00124079
0.000749372
0.00213037
-0.00128228
0.000385381
0.00180857
-0.00125077
-0.000333114
0.00122529
-0.0010264
-0.00153398
0.000220733
-0.000521796
-0.00314839
-0.00122301
-0.00607685
-0.00312544
-0.000917824
-0.00464657
-0.00420965
-0.00122698
-0.00241666
-0.00282704
-0.00123509
-0.00136235
-0.00180862
-0.00102233
-0.00070603
-0.00102311
-0.000698818
-0.000254997
-0.000639366
-0.000426976
5.66678e-05
-0.000436397
-0.000218752
0.000283036
-0.000349408
-2.89374e-05
0.00050276
-0.000197457
0.000124967
0.000711357
0.00013508
8.39997e-05
0.00138613
0.000676088
5.23682e-05
0.00137052
0.000619441
0.000206712
0.00068896
-3.4944e-06
0.00037925
0.000489958
-0.000365276
0.000574191
0.000269042
-0.000531304
0.000840722
3.71787e-05
-0.000623517
0.00115307
-0.000278369
-0.000823564
0.00134937
-0.000734221
-0.0011905
0.00131948
-0.00140535
-0.00195275
0.000976252
-0.00248045
-0.00294787
-0.00474223
-0.00431299
-0.00436024
-0.00608044
-0.00645681
-0.0063321
-0.00750276
-0.00700226
-0.00785583
-0.00785614
-0.00771573
-0.00882439
-0.00715184
-0.00989415
-0.00617293
-0.0109756
-0.00473639
-0.0119946
-0.0028126
-0.0127411
0.000113061
-0.0125557
0.003019
-0.0126412
0.00493724
-0.0128992
0.00637328
-0.0121773
0.00734995
-0.01117
0.00790604
-0.0100934
0.00803442
-0.00902124
0.00766484
-0.00804737
0.00658958
-0.00718362
0.00444411
-0.00649498
-0.00621769
-3.43772e-05
-0.00024595
-0.000827167
3.94356e-06
-0.000236635
-0.000479271
9.34838e-05
-0.000330559
-4.31533e-05
0.00033985
-0.000443813
0.000338256
0.000516825
-0.000355156
0.000519287
0.000617997
-0.000317104
0.000635875
0.000636955
-0.000268451
0.000782373
0.000552209
-0.000232439
0.000973813
0.000340585
-0.000210972
0.0011949
-4.19292e-05
-0.000201661
0.00142561
-0.000423829
-0.000201163
0.00144586
-0.000649501
-0.000221651
0.00123486
-0.000733807
-0.000264571
0.00099143
-0.000696596
-0.000332527
0.000792235
-0.000560605
-0.000404745
0.000643518
-0.00031752
-0.000486105
0.000535707
-0.000122875
-0.000419834
0.000283946
-2.09225e-05
-0.00027198
-0.000198234
3.54216e-05
-0.000154412
-0.000662243
-0.000172483
-0.0010577
0.000181677
0.000825767
-0.00134225
0.000257022
0.000761893
-0.000682698
8.58964e-05
0.000484317
-0.000378851
-1.81214e-05
2.35225e-05
-0.000112834
-1.01137e-05
-0.00036995
-7.04243e-06
0.000133746
-0.000631418
9.38593e-05
0.00026332
-0.000631977
0.000161563
0.000302242
-0.000589337
0.000244395
0.000178447
-0.000504861
0.000367555
-0.000118585
-0.000430341
0.000493608
-0.000381861
-0.000460199
0.000507912
-0.000467943
-0.000581695
0.000435751
-0.000395164
-0.00068774
0.000322984
-0.000254274
-0.000728543
0.000258417
-0.000184141
-0.000643657
0.000183213
-0.000297809
-0.000258887
0.000143941
-0.000542861
0.000307636
5.32552e-05
-0.000691139
0.000773321
-0.00024366
-0.000462958
0.00101286
-0.000478373
0.00101164
-0.00121462
0.000900406
0.00173679
0.000300059
0.00128393
0.00154749
0.00118054
0.00133019
0.00132794
0.00118043
0.00104312
0.000986728
0.000964043
0.000633287
0.000449536
0.000633491
0.000330756
-0.000181628
0.000369235
0.000203018
-0.00064175
0.000235784
0.000162064
-0.000853916
0.000204101
7.4827e-05
-0.000871629
0.000187858
-8.22628e-05
-0.000828448
0.000150246
-0.000222564
-0.000884743
0.000218806
-0.000306662
-0.00097533
0.000362483
-0.000377209
-0.000923115
0.000413098
-0.000582972
-0.000623703
0.000489671
-0.000976767
-4.99546e-05
0.000668139
-0.00141128
0.00061986
0.000963725
-0.00160539
0.0011366
0.00131092
-0.00145804
0.0014494
0.00152525
-0.000952174
0.00162185
0.00151487
0.00175092