/*--------------------------------*- C++ -*----------------------------------*\
| =========                 |                                                 |
| \\      /  F ield         | OpenFOAM: The Open Source CFD Toolbox           |
|  \\    /   O peration     | Version:  v1912                                 |
|   \\  /    A nd           | Website:  www.openfoam.com                      |
|    \\/     M anipulation  |                                                 |
\*---------------------------------------------------------------------------*/
FoamFile
{
    version     2.0;
    format      ascii;
    class       volVectorField;
    location    "300";
    object      U;
}
// * * * * * * * * * * * * * * * * * * * * * * * * * * * * * * * * * * * * * //

dimensions      [0 1 -1 0 0 0 0];


internalField   nonuniform List<vector> 
4000
(
(0.00267513 0.00969994 0.00269339)
(0.000763458 0.00961546 0.000859429)
(-0.00278164 0.00291193 -0.000286427)
(-0.00443695 -0.00118461 -0.000322787)
(-0.00421778 -0.00127725 -0.000211193)
(-0.0026853 -0.000710107 -0.000175845)
(-0.00178125 -0.000733528 -0.000121816)
(-0.00106023 -0.00134166 -0.0002577)
(-0.00160336 -0.00232106 -0.000454744)
(-0.000164186 -0.00442985 -0.00163787)
(0.00158974 -0.00242655 -0.000726717)
(0.000978267 -0.00130259 -0.000354801)
(0.0015982 -0.000596509 -4.26542e-05)
(0.00245437 -0.000670905 -6.35526e-05)
(0.00358618 -0.000908115 -0.00025643)
(0.00496004 -0.00159485 -0.000227227)
(0.00493358 -0.000817541 -0.000433524)
(0.00311942 0.00365719 -0.000332906)
(-0.000592524 0.010316 0.00128401)
(-0.00351111 0.00578232 0.00367432)
(0.00659298 -0.0162047 0.00658617)
(0.012412 -0.00484769 0.00617866)
(0.0119273 0.00284571 0.00487656)
(0.00573253 0.00501024 0.0033992)
(-0.00595153 -6.18581e-05 6.09206e-05)
(-0.00550038 -0.00123453 -0.000568683)
(-0.0047878 -0.000789536 -0.000959499)
(-0.00303245 -0.000963491 -0.00102026)
(-0.00187668 -0.00152659 -0.00127773)
(-0.000644288 -0.00157516 -0.00187451)
(0.000710874 -0.00170395 -0.00144348)
(0.00218735 -0.00119351 -0.00107553)
(0.00394446 -0.000806075 -0.000932173)
(0.00540009 -0.000992495 -0.000863177)
(0.00601575 -0.00140167 -0.000622724)
(0.00437996 0.000975114 0.00073505)
(-0.00825501 0.00532401 0.00396969)
(-0.0135235 0.00241379 0.00518138)
(-0.0127628 -0.00572165 0.00631666)
(-0.00626906 -0.0176084 0.00632356)
(0.00350435 -0.0293977 0.00350236)
(0.0088401 -0.0153012 0.00373285)
(0.0126986 -0.00120284 0.00355929)
(0.0111989 0.00624427 0.00315659)
(0.00589986 0.0064893 0.00252958)
(-0.00344151 0.000814596 0.000382791)
(-0.0058846 -0.00144752 -0.000920817)
(-0.00506639 -0.00146365 -0.00124736)
(-0.00300596 -0.00154213 -0.00205438)
(-0.00107597 -0.00146212 -0.00274124)
(0.00149665 -0.00146402 -0.00248655)
(0.00367493 -0.00113069 -0.00187151)
(0.00547925 -0.00146411 -0.0010705)
(0.00628113 -0.00132944 -0.000635244)
(0.0015054 0.0023195 0.00100377)
(-0.00694245 0.00668162 0.00264924)
(-0.0123313 0.00550507 0.00340734)
(-0.0127212 -0.00366964 0.00369696)
(-0.00879742 -0.0174633 0.00391708)
(-0.00338797 -0.0314123 0.0034565)
(0.0018927 -0.039373 0.0018926)
(0.00528352 -0.0251088 0.00268194)
(0.00804509 -0.00980737 0.00297753)
(0.0122089 0.00326913 0.00302223)
(0.0115405 0.00727449 0.00290717)
(0.00804216 0.00596231 0.00210436)
(0.0037148 0.00340482 0.00187561)
(-0.00338828 -0.0011626 -0.00107163)
(-0.00255351 -0.00168637 -0.00245766)
(-0.00125481 -0.00164713 -0.00337905)
(0.00192357 -0.00154439 -0.00329921)
(0.00311511 -0.00168757 -0.00239589)
(0.00343267 -0.00115777 -0.000868865)
(-0.00431883 0.00397359 0.00218946)
(-0.00826684 0.00634077 0.00242782)
(-0.0114936 0.00699388 0.0031307)
(-0.0114617 0.00170421 0.00326674)
(-0.00714268 -0.0121462 0.00309017)
(-0.00500076 -0.0271072 0.0027755)
(-0.00181417 -0.0410689 0.00185983)
(0.0008551 -0.0443869 0.000855307)
(0.00232881 -0.0311066 0.00222211)
(0.00219051 -0.0177238 0.00306861)
(0.00537248 -0.00626689 0.00407354)
(0.00902979 0.00144863 0.00434774)
(0.0103603 0.00416705 0.00400776)
(0.00946355 0.00452039 0.0035501)
(0.00702307 0.00386828 0.00263531)
(0.00337449 0.00286581 0.00165364)
(0.00023595 0.00174333 -0.000220088)
(0.00018116 0.00207789 -0.000172526)
(-0.00324967 0.00322962 0.0018726)
(-0.00704859 0.0040931 0.00293458)
(-0.00936311 0.00447956 0.00391791)
(-0.00950568 0.0034252 0.00440482)
(-0.00776586 6.48272e-05 0.00464958)
(-0.0040605 -0.00812257 0.00413213)
(-0.0013578 -0.0198079 0.00304911)
(-0.00204077 -0.0327944 0.00223983)
(-0.000807654 -0.0458186 0.000806894)
(-2.14353e-05 -0.0461234 -2.11964e-05)
(-0.000172388 -0.0341341 0.00170824)
(-0.00281715 -0.0234359 0.00256851)
(-0.00214378 -0.0148042 0.00364836)
(-0.00146031 -0.00932229 0.00457313)
(-3.35824e-05 -0.00534101 0.0049733)
(0.000981495 -0.00258307 0.0048051)
(0.00136043 -0.000415258 0.00455497)
(0.00114714 0.00133768 0.00440609)
(0.00018593 0.00221739 0.00414607)
(-0.000689816 0.00209694 0.0041703)
(-0.00117646 0.000878412 0.00443328)
(-0.0010073 -0.00123595 0.00453601)
(-0.000178431 -0.00379142 0.00476115)
(0.000852605 -0.00693008 0.0047791)
(0.00232404 -0.0108784 0.00435169)
(0.00291505 -0.0165155 0.0034415)
(0.00328497 -0.0250562 0.00244176)
(0.000363051 -0.0355062 0.0016636)
(4.05934e-05 -0.047291 -8.17595e-05)
(-0.000966126 -0.0447994 -0.000966129)
(-0.00241711 -0.0349222 0.000693712)
(-0.00661659 -0.0269087 0.00106978)
(-0.0074642 -0.0210606 0.00137791)
(-0.00793467 -0.0171727 0.00157152)
(-0.0071282 -0.0144931 0.00169429)
(-0.00577689 -0.0124299 0.00170622)
(-0.00398625 -0.010386 0.00178438)
(-0.00186199 -0.00864064 0.00218951)
(-0.000430309 -0.0071646 0.00312203)
(0.000310591 -0.00749049 0.00297888)
(0.00195129 -0.00940879 0.00191461)
(0.00420181 -0.0113743 0.0014652)
(0.00612986 -0.013478 0.00138291)
(0.0075315 -0.0157487 0.00132179)
(0.00834005 -0.018516 0.00123191)
(0.00784199 -0.0224473 0.00110207)
(0.00687682 -0.0282482 0.00088357)
(0.00252332 -0.036106 0.000596032)
(0.000979879 -0.0457797 -0.00104585)
(-0.00233678 -0.0403192 -0.00233698)
(-0.00482243 -0.0329081 -0.00116292)
(-0.0101666 -0.0277066 -0.00148971)
(-0.0117721 -0.0244935 -0.00195312)
(-0.0123836 -0.0225771 -0.00249587)
(-0.0112855 -0.0213137 -0.00299766)
(-0.00923221 -0.020223 -0.00347034)
(-0.00647595 -0.0190004 -0.00377444)
(-0.00311717 -0.017781 -0.00361423)
(-0.00075354 -0.0164225 -0.00252659)
(0.000865744 -0.016689 -0.00266696)
(0.00333478 -0.0183843 -0.00384289)
(0.00672979 -0.0197976 -0.00404249)
(0.00955611 -0.0211271 -0.00374853)
(0.0116401 -0.0223077 -0.00328443)
(0.0127294 -0.0236035 -0.00276825)
(0.0120724 -0.0255391 -0.00218995)
(0.0103853 -0.028723 -0.0016781)
(0.00491778 -0.0338374 -0.00129668)
(0.0023653 -0.0411239 -0.0024386)
(-0.00481608 -0.0304448 -0.00481635)
(-0.00855657 -0.0257621 -0.00425378)
(-0.0145701 -0.0235168 -0.00514056)
(-0.0165338 -0.0227585 -0.0061137)
(-0.0170266 -0.0226509 -0.0071091)
(-0.0155596 -0.0228457 -0.00800827)
(-0.0128408 -0.0230131 -0.00878112)
(-0.00916511 -0.0229103 -0.00936129)
(-0.00451981 -0.0224838 -0.00945066)
(-0.00124266 -0.0216139 -0.00830116)
(0.00141692 -0.0217754 -0.00842187)
(0.00481402 -0.0228433 -0.00963149)
(0.00948379 -0.0233617 -0.00957872)
(0.0132097 -0.0235203 -0.00901648)
(0.0159481 -0.0234029 -0.00824525)
(0.0174019 -0.0232389 -0.00733446)
(0.016862 -0.023371 -0.00631884)
(0.0148282 -0.0241345 -0.00532491)
(0.00870146 -0.0263593 -0.00441723)
(0.00488369 -0.0309996 -0.00495481)
(-0.0096723 -0.0185402 -0.00967245)
(-0.0163272 -0.0148446 -0.0107359)
(-0.0223157 -0.013367 -0.0127018)
(-0.0241982 -0.0128462 -0.0145212)
(-0.0243244 -0.0125298 -0.016359)
(-0.0223644 -0.0122128 -0.0180763)
(-0.0187943 -0.011709 -0.0196292)
(-0.0137624 -0.0108773 -0.0208446)
(-0.00714993 -0.00975189 -0.0212456)
(-0.00231407 -0.00859214 -0.0189268)
(0.00255207 -0.00871415 -0.0191892)
(0.00755599 -0.00999072 -0.0215512)
(0.0142286 -0.0111543 -0.021181)
(0.0193149 -0.0120046 -0.0199756)
(0.0229078 -0.0125257 -0.0184216)
(0.0248577 -0.0128524 -0.0166897)
(0.0246801 -0.0131759 -0.0148275)
(0.0227119 -0.0136974 -0.0129782)
(0.0165804 -0.015172 -0.0109707)
(0.00979818 -0.0188661 -0.0098701)
(0.000867215 0.00970815 0.000816164)
(0.000450666 0.00412734 0.000477538)
(-0.001522 -0.000481606 -0.000704337)
(-0.00267892 -0.00263651 -0.000600982)
(-0.00252061 -0.00159841 -5.29892e-06)
(-0.00155872 -0.000715176 2.73565e-05)
(-0.000907902 -0.000299034 0.000250607)
(-2.90313e-05 -0.000291307 0.000337029)
(0.000264931 -0.0015672 0.000736628)
(4.05724e-05 -0.00172936 0.00172723)
(1.97198e-05 -0.00111628 0.000523989)
(0.000337156 -0.000276115 0.000371943)
(0.000901289 -0.00039039 0.000450816)
(0.00130639 -0.0005047 0.0002254)
(0.00229824 -0.000935071 -0.000103005)
(0.00302538 -0.00201973 -7.08581e-05)
(0.00295629 -0.00249596 -0.000768045)
(0.00153039 0.000220986 -0.000693718)
(-0.00039627 0.00584742 0.000579479)
(-0.00125606 0.0104318 0.00085519)
(0.00618109 -0.00480712 0.0124079)
(0.0107658 0.000855107 0.0107665)
(0.0102172 0.00401295 0.0075682)
(0.00556553 0.00459891 0.00502521)
(-0.00222659 8.80403e-05 0.00126896)
(-0.00362569 -0.00185456 -0.000624039)
(-0.00329209 -0.00139979 -0.00116319)
(-0.00191441 -0.000905125 -0.00135299)
(-0.000941709 -0.00113388 -0.001644)
(-0.000190935 -0.000817246 -0.00184052)
(0.000469446 -0.000892926 -0.0018384)
(0.0015142 -0.000834451 -0.0014616)
(0.00243001 -0.0010367 -0.00123001)
(0.00354769 -0.00157513 -0.000925821)
(0.00382894 -0.00175552 -0.000354024)
(0.000334824 0.00153895 0.00274785)
(-0.00785918 0.00485566 0.00612876)
(-0.0120846 0.00367025 0.00863263)
(-0.0116067 4.12801e-05 0.0117001)
(-0.0062326 -0.00530535 0.0128535)
(0.00373564 -0.0152993 0.00884276)
(0.00882555 -0.00615766 0.00882484)
(0.0122259 0.00309082 0.00765932)
(0.0111901 0.00687444 0.00602816)
(0.00746968 0.00584327 0.00461586)
(0.00215346 0.00228576 0.00263962)
(-0.00276088 -0.00206562 -0.000768986)
(-0.00242986 -0.00210247 -0.00142193)
(-0.00176245 -0.0017015 -0.00260884)
(-0.00042474 -0.00139098 -0.00353149)
(0.000951853 -0.00132327 -0.00331926)
(0.00229869 -0.00168362 -0.00236901)
(0.00273541 -0.00209698 -0.00105681)
(0.00264842 -0.00175577 -1.84659e-05)
(-0.00360133 0.00332782 0.00342617)
(-0.00850419 0.00622918 0.00512876)
(-0.0123656 0.0062786 0.0066042)
(-0.0128095 0.000999931 0.00821127)
(-0.0090823 -0.00851297 0.00931801)
(-0.00381795 -0.0171692 0.00905229)
(0.00268217 -0.0251048 0.00528483)
(0.00701243 -0.0159353 0.00701286)
(0.0107483 -0.00506325 0.00723618)
(0.013656 0.00423507 0.006529)
(0.0129549 0.00661208 0.00571397)
(0.0101714 0.00538587 0.00431631)
(0.00664932 0.00296023 0.00320717)
(0.00230741 -0.000364653 0.00106528)
(-0.000223936 -0.00228224 -0.00208761)
(-4.85762e-05 -0.00253673 -0.00378157)
(0.000691082 -0.002506 -0.00366149)
(0.000706958 -0.00229152 -0.00192443)
(-0.0025276 -9.65568e-05 0.00165219)
(-0.00719309 0.0033611 0.00378901)
(-0.0106239 0.00577145 0.00489029)
(-0.0131409 0.00661529 0.00611926)
(-0.0135344 0.00332132 0.00683986)
(-0.010203 -0.00710082 0.00746202)
(-0.00694512 -0.0179358 0.00717877)
(-0.0026913 -0.0267294 0.00522053)
(0.00222187 -0.0311048 0.00232984)
(0.00587684 -0.0226382 0.00587759)
(0.00737098 -0.0122991 0.00748589)
(0.0104676 -0.00241155 0.00797208)
(0.0128347 0.00359821 0.00746529)
(0.0127649 0.00493168 0.00659146)
(0.0112119 0.00421437 0.00553654)
(0.00863899 0.00282151 0.00401486)
(0.00495303 0.00109878 0.00207483)
(0.0017023 -0.00110351 -0.000762988)
(-0.00118017 -0.000907747 -0.000568512)
(-0.00483799 0.00148434 0.00250034)
(-0.00865333 0.00310715 0.00447972)
(-0.0112214 0.0043869 0.0060717)
(-0.0124499 0.00491443 0.00715048)
(-0.0121654 0.00312239 0.00795335)
(-0.00943821 -0.00375077 0.00831358)
(-0.0068174 -0.0139295 0.00761779)
(-0.00578753 -0.0241227 0.00590136)
(-0.00221851 -0.0324357 0.00215105)
(0.00170793 -0.0341333 -0.000171666)
(0.00501371 -0.0260447 0.00501456)
(0.00400957 -0.016628 0.00765711)
(0.00495358 -0.00743047 0.00931337)
(0.00579806 -0.00119795 0.0100636)
(0.0070066 0.0023803 0.00956102)
(0.00665449 0.00366601 0.00861926)
(0.00532986 0.00407888 0.00746793)
(0.00326805 0.00431773 0.00635987)
(0.00108629 0.00435309 0.00509248)
(-0.00127738 0.00438784 0.00525336)
(-0.00323442 0.00435665 0.00665001)
(-0.0051034 0.00400796 0.00781361)
(-0.00621229 0.0034032 0.00901255)
(-0.00640739 0.00184968 0.00992612)
(-0.00492484 -0.00201314 0.0102886)
(-0.00439228 -0.00840086 0.00934093)
(-0.00369914 -0.0177849 0.00763395)
(-0.00499082 -0.0271299 0.00496524)
(-0.00169613 -0.0351864 -0.000366488)
(0.000693629 -0.0349223 -0.00241676)
(0.00383086 -0.0266742 0.00383148)
(0.000825648 -0.0182567 0.00683817)
(0.000559887 -0.0105029 0.00872629)
(-0.000311952 -0.00501089 0.00997339)
(-7.29965e-05 -0.00152651 0.0106493)
(0.000396124 0.000708153 0.0107326)
(0.000409718 0.00218067 0.0103796)
(0.000153315 0.00295987 0.00991257)
(3.8591e-05 0.00328355 0.00949079)
(-7.56467e-05 0.00317355 0.00953807)
(-6.39227e-05 0.00270637 0.0100171)
(-0.000201307 0.0018168 0.0104902)
(1.88553e-05 0.000201217 0.0106969)
(0.000557922 -0.0023005 0.0104516)
(0.00061768 -0.00575126 0.00975611)
(-0.000289093 -0.0113554 0.00851191)
(-0.000647959 -0.019189 0.00667463)
(-0.00381735 -0.0275339 0.00370573)
(-0.000654356 -0.0358528 -0.00259873)
(-0.00116278 -0.0329083 -0.00482239)
(0.00126613 -0.0244166 0.00126617)
(-0.00315895 -0.0175074 0.00387825)
(-0.00398181 -0.0119589 0.00506575)
(-0.00491287 -0.00792847 0.00567418)
(-0.00458836 -0.00501811 0.00605794)
(-0.00385264 -0.00267136 0.00648352)
(-0.00257853 -0.00049273 0.00718447)
(-0.00108944 0.00100187 0.00808839)
(-9.87746e-05 0.00218395 0.00921857)
(0.000358363 0.0020217 0.00908562)
(0.00143615 0.000631292 0.00779427)
(0.00295935 -0.000950768 0.00679103)
(0.00419438 -0.00315994 0.00610178)
(0.0049014 -0.00554791 0.00564769)
(0.00519754 -0.00853892 0.00527142)
(0.00423802 -0.0126424 0.00469942)
(0.00335185 -0.0182256 0.00358006)
(-0.0011863 -0.0250631 0.00103963)
(0.00123593 -0.0336715 -0.00501538)
(-0.00425353 -0.0257622 -0.00855672)
(-0.00442124 -0.0189646 -0.00442161)
(-0.00950986 -0.0151918 -0.00319929)
(-0.0108815 -0.0131138 -0.00312849)
(-0.0115862 -0.0120443 -0.00360031)
(-0.0106872 -0.0115773 -0.0040441)
(-0.00900978 -0.0113127 -0.00416718)
(-0.00677867 -0.0111141 -0.00389845)
(-0.0039736 -0.0109548 -0.00297911)
(-0.00159774 -0.00985632 -0.000744109)
(0.00229888 -0.00999301 -0.000928035)
(0.00450585 -0.0111847 -0.00330049)
(0.00724982 -0.0113719 -0.00434219)
(0.00948165 -0.011618 -0.00467877)
(0.011145 -0.0119214 -0.00456169)
(0.0120092 -0.0124248 -0.00410183)
(0.0112537 -0.013539 -0.00359252)
(0.00980819 -0.0156523 -0.00360344)
(0.00461568 -0.019444 -0.00473066)
(0.00435983 -0.0262801 -0.00879517)
(-0.0107358 -0.0148444 -0.0163274)
(-0.0170064 -0.00903499 -0.0170067)
(-0.0231689 -0.00623608 -0.0194286)
(-0.0250962 -0.00456235 -0.0220191)
(-0.0254606 -0.00327679 -0.0247953)
(-0.0238637 -0.00208523 -0.0274805)
(-0.0207766 -0.000798716 -0.0299323)
(-0.0162802 0.000735264 -0.0318862)
(-0.01003 0.00240781 -0.0326855)
(-0.00439427 0.00434079 -0.0303639)
(0.00504888 0.00419921 -0.0306716)
(0.0106756 0.00222914 -0.0331118)
(0.0169461 0.000553317 -0.0323919)
(0.0214524 -0.000980455 -0.0304724)
(0.0245329 -0.00227673 -0.0280372)
(0.026099 -0.00347746 -0.0253394)
(0.0256684 -0.00477558 -0.0225316)
(0.0236443 -0.00646245 -0.0198948)
(0.0173225 -0.00927662 -0.0174053)
(0.0109124 -0.0151344 -0.0166658)
(-0.00029035 0.00290283 -0.00275689)
(-0.000702903 -0.000499317 -0.00150748)
(-0.000918608 -0.00283605 -0.000934305)
(-0.00107814 -0.00315682 -0.000226677)
(-0.000939635 -0.00178205 6.40301e-05)
(0.000229284 -0.000776632 0.000369591)
(0.000368156 -0.000440825 0.0007786)
(0.00059477 -0.000302497 0.00108335)
(0.000583327 -0.000364224 0.00107289)
(0.000317932 -0.000515515 0.000996128)
(-7.54614e-05 -0.000407729 0.0010791)
(-0.000242539 -0.000393476 0.00126194)
(-0.000348861 -0.00040859 0.00100117)
(-0.000272651 -0.000476941 0.000553394)
(0.000449745 -0.00104376 7.8467e-05)
(0.001214 -0.00225658 0.0001902)
(0.00146371 -0.00347999 -0.000428037)
(0.000960518 -0.00227583 -0.0010093)
(0.000637615 0.000223973 -0.00148472)
(0.000308768 0.00355213 -0.00312612)
(0.00487667 0.00284124 0.0119492)
(0.00756452 0.00400767 0.0102331)
(0.0070675 0.00450184 0.0070804)
(0.00353689 0.00362019 0.00452472)
(-0.00137282 -0.000782684 0.00082004)
(-0.00192307 -0.00214955 -0.000851628)
(-0.00177772 -0.00167831 -0.0011905)
(-0.000801608 -0.00114685 -0.00145351)
(-0.000237896 -0.000902054 -0.00161506)
(3.35158e-05 -0.000768912 -0.00184746)
(0.000108536 -0.000739107 -0.00170494)
(0.000465365 -0.000899513 -0.00150362)
(0.000986465 -0.00124785 -0.00136829)
(0.00188592 -0.00189087 -0.00091156)
(0.00211383 -0.00219438 -0.000490153)
(5.09614e-05 0.000661766 0.00260573)
(-0.00549444 0.00419187 0.0060971)
(-0.00868414 0.00441918 0.00875934)
(-0.00855009 0.00365263 0.0121827)
(-0.00510587 0.00248472 0.0136493)
(0.00355958 -0.00120909 0.0127072)
(0.00765742 0.00308987 0.0122287)
(0.0101276 0.00611354 0.0101303)
(0.00945067 0.00673282 0.00786279)
(0.00689859 0.00469911 0.0055612)
(0.00289199 0.00135113 0.002976)
(-0.000702775 -0.00231096 -0.000455592)
(-0.00102697 -0.00265163 -0.00177074)
(-0.000764862 -0.00213811 -0.00278407)
(-0.000159596 -0.00185739 -0.00359975)
(0.00044658 -0.00184688 -0.00346271)
(0.00100436 -0.00218206 -0.00246351)
(0.00103183 -0.00267143 -0.00123062)
(0.000288587 -0.00193832 0.000731373)
(-0.00438746 0.00243721 0.00426209)
(-0.00792425 0.00532604 0.00653152)
(-0.010573 0.00674739 0.00877601)
(-0.0108696 0.00503904 0.011065)
(-0.00799458 0.00102236 0.0130458)
(-0.00357289 -0.00349649 0.013034)
(0.00297698 -0.00980462 0.00804837)
(0.00723489 -0.0050614 0.0107493)
(0.0112246 0.00139172 0.0112254)
(0.0132288 0.00564896 0.00993307)
(0.0126098 0.00607841 0.00820279)
(0.0102281 0.00453104 0.00612515)
(0.00714908 0.00208015 0.00402189)
(0.00321914 -0.00114646 0.00117138)
(0.00106438 -0.00280465 -0.00159121)
(0.000334402 -0.00325945 -0.00348996)
(1.63581e-05 -0.00325827 -0.00330338)
(-0.00107164 -0.00273609 -0.00100184)
(-0.00379182 -0.000789449 0.00216157)
(-0.00797525 0.00251339 0.00496104)
(-0.0108856 0.00494531 0.00694017)
(-0.0130201 0.00628657 0.00880556)
(-0.0133913 0.00518751 0.0103136)
(-0.0110034 -0.000288685 0.0113291)
(-0.00719041 -0.00689775 0.0105314)
(-0.00298126 -0.0116346 0.00748209)
(0.00306818 -0.0177219 0.00219254)
(0.00748487 -0.0122976 0.00737197)
(0.0101829 -0.00621003 0.0101835)
(0.0132037 0.00042733 0.0108353)
(0.014475 0.00398662 0.0100746)
(0.0138063 0.00445668 0.00871911)
(0.0119259 0.00332314 0.00710466)
(0.00930337 0.00163037 0.00510893)
(0.00556185 -0.000578068 0.00242605)
(0.00214787 -0.00274114 -0.000911431)
(-0.00184719 -0.00268582 -0.000612655)
(-0.00562269 -0.000378801 0.00306833)
(-0.00945394 0.00180049 0.00576308)
(-0.0121098 0.00347054 0.00777119)
(-0.0137951 0.00454422 0.00933312)
(-0.0142101 0.00376698 0.0105213)
(-0.0126673 -0.00040753 0.0110362)
(-0.00982993 -0.00741635 0.0100678)
(-0.00747449 -0.0136635 0.00701394)
(-0.00304834 -0.0192549 0.00156812)
(0.0025684 -0.0234358 -0.00281559)
(0.00765628 -0.0166273 0.00401063)
(0.00847615 -0.0104128 0.00847668)
(0.00991867 -0.00375415 0.0108947)
(0.0109269 0.00125367 0.0116594)
(0.0110846 0.00373001 0.0110452)
(0.0099758 0.00420595 0.00987062)
(0.00796378 0.00386281 0.00833124)
(0.00503696 0.00342916 0.00655574)
(0.00196712 0.00311033 0.00423067)
(-0.00194867 0.00318503 0.00444474)
(-0.00497622 0.00352084 0.00689804)
(-0.00783444 0.0039226 0.00871875)
(-0.00975274 0.00418512 0.0102727)
(-0.0107184 0.00357737 0.0113848)
(-0.010393 0.000916419 0.0118492)
(-0.00951876 -0.00428423 0.0108259)
(-0.00825358 -0.0111931 0.0082602)
(-0.00765184 -0.0175215 0.00369289)
(-0.00251037 -0.0245747 -0.00325599)
(0.00106999 -0.0269093 -0.0066155)
(0.0068376 -0.0182571 0.000826298)
(0.00600341 -0.0118275 0.00600404)
(0.00649327 -0.0054981 0.00941142)
(0.00595598 -0.000740418 0.011503)
(0.00572536 0.0021306 0.0119704)
(0.00503295 0.00341212 0.0115377)
(0.00386744 0.00394432 0.0107336)
(0.00222287 0.00405847 0.00985535)
(0.000772506 0.00409081 0.00889114)
(-0.000748332 0.00405689 0.00895122)
(-0.00212789 0.00396049 0.0099523)
(-0.0036938 0.0038034 0.0108084)
(-0.0047696 0.00319654 0.0115125)
(-0.00542622 0.00179252 0.0118281)
(-0.005665 -0.00110405 0.0112226)
(-0.00627469 -0.00595836 0.00907904)
(-0.00583391 -0.0124054 0.00567204)
(-0.00678807 -0.0189659 0.00051692)
(-0.000968191 -0.0278822 -0.00694048)
(-0.00148952 -0.0277072 -0.0101661)
(0.00387819 -0.0175083 -0.00315901)
(0.0014556 -0.0110574 0.00145574)
(0.00174357 -0.00508194 0.00441837)
(0.00101751 -0.000260938 0.00618402)
(0.00141768 0.0030196 0.00755695)
(0.00132082 0.00474913 0.00772816)
(0.00125509 0.00591432 0.00786916)
(0.00110843 0.00650631 0.00824131)
(0.000633072 0.00694437 0.00884286)
(-0.000414323 0.00689853 0.00876918)
(-0.000860181 0.00640745 0.00800643)
(-0.000994791 0.00579457 0.00753028)
(-0.00106164 0.00457226 0.00730358)
(-0.00111664 0.00274154 0.00692281)
(-0.000759401 -0.000587307 0.00559997)
(-0.00149177 -0.00545589 0.00388066)
(-0.00120716 -0.0115209 0.000994141)
(-0.0037216 -0.018087 -0.00349515)
(0.00160694 -0.0284882 -0.0104775)
(-0.00514042 -0.0235171 -0.0145701)
(-0.00319895 -0.0151922 -0.00951032)
(-0.00698681 -0.0108885 -0.00698727)
(-0.00705766 -0.00826993 -0.00586476)
(-0.0072147 -0.00679955 -0.00573333)
(-0.00618851 -0.00603567 -0.00577968)
(-0.00455381 -0.00543143 -0.00495972)
(-0.00275462 -0.00507894 -0.00350258)
(-0.00084428 -0.00495279 -0.00124106)
(0.000295981 -0.0029698 0.00300053)
(0.00039732 -0.00307619 0.00267165)
(0.00152228 -0.00516542 -0.00184022)
(0.00336924 -0.00529998 -0.00420514)
(0.0051417 -0.00566173 -0.00568019)
(0.00668883 -0.0062449 -0.00639064)
(0.00769206 -0.00703777 -0.00634454)
(0.00750218 -0.00855381 -0.00646118)
(0.0073664 -0.0112304 -0.00751995)
(0.00347062 -0.0156021 -0.0099295)
(0.00527363 -0.0240267 -0.0149209)
(-0.0127018 -0.013367 -0.0223159)
(-0.0194284 -0.00623613 -0.0231693)
(-0.0258749 -0.00283986 -0.0258751)
(-0.0277779 -0.000667092 -0.0290535)
(-0.0281376 0.00102302 -0.0326005)
(-0.0265853 0.00258864 -0.036175)
(-0.0235169 0.00422762 -0.0394615)
(-0.0189328 0.00611352 -0.0422108)
(-0.0123914 0.00813138 -0.043637)
(-0.00583679 0.010228 -0.0411573)
(0.00661436 0.010113 -0.0415265)
(0.0131179 0.00799454 -0.0441646)
(0.0196844 0.00598043 -0.0428573)
(0.0242638 0.00410093 -0.040159)
(0.0273208 0.00245566 -0.0368939)
(0.0288444 0.000883065 -0.0333143)
(0.0284247 -0.00082007 -0.0297428)
(0.0264324 -0.0030126 -0.0265139)
(0.0198191 -0.00644204 -0.0237275)
(0.0129279 -0.0136493 -0.0227904)
(-0.000333075 -0.00120387 -0.00439169)
(-0.000602258 -0.00265204 -0.00267395)
(-0.000187098 -0.00315499 -0.00109167)
(0.000418597 -0.0027158 0.000386136)
(0.000779347 -0.00187657 0.000794595)
(0.00162156 -0.000912479 0.00115613)
(0.00169172 -0.000501978 0.00161161)
(0.00160793 -0.000361069 0.00204683)
(0.00120355 -0.000395303 0.00235822)
(0.000546957 -0.000477402 0.00244653)
(-0.000525943 -0.000459631 0.00252674)
(-0.00124949 -0.000388417 0.00238153)
(-0.00173185 -0.000356615 0.00192007)
(-0.00178904 -0.000622652 0.00138981)
(-0.00151522 -0.00132153 0.000958323)
(-0.000591039 -0.00237639 0.000772977)
(-0.000164642 -0.00319528 0.000135345)
(0.000372169 -0.00348135 -0.00145918)
(0.000727173 -0.00252096 -0.00287793)
(0.000411894 -0.000893318 -0.00484596)
(0.00339451 0.00499359 0.00574398)
(0.00502127 0.00459989 0.00557306)
(0.00451724 0.0036246 0.00354595)
(0.00220504 0.00133175 0.00221402)
(-0.000348215 -0.00220584 -1.34053e-05)
(-0.000528241 -0.00233653 -0.000546757)
(-0.000248584 -0.00181941 -0.000663785)
(0.00029857 -0.00133289 -0.000820257)
(0.000462039 -0.00103767 -0.00086341)
(0.000169156 -0.000876813 -0.000934679)
(-0.000436282 -0.000855151 -0.000869564)
(-0.000678047 -0.00107432 -0.000776289)
(-0.000529521 -0.00149205 -0.000707093)
(0.00013248 -0.00210394 -0.000408153)
(0.000118421 -0.00245548 -0.000138106)
(-0.000664492 -0.00100379 0.00157215)
(-0.00377371 0.00252674 0.00376723)
(-0.00605909 0.00419005 0.00554539)
(-0.00607913 0.00483167 0.00794867)
(-0.00392483 0.00527312 0.00837273)
(0.00315528 0.00623722 0.0111974)
(0.00602647 0.00687659 0.011187)
(0.00786186 0.00673454 0.00945042)
(0.00742929 0.00531097 0.00742841)
(0.0056346 0.00287683 0.00508526)
(0.00234345 -0.000582511 0.00248472)
(0.000612313 -0.0028019 0.000186843)
(-3.38589e-05 -0.00296643 -0.000954364)
(-3.56808e-05 -0.00251017 -0.00180918)
(-2.48318e-05 -0.00213713 -0.00246399)
(-0.000109793 -0.00219873 -0.00228506)
(-0.000131769 -0.0027131 -0.00131816)
(-0.000371751 -0.00319844 -0.000153824)
(-0.00122444 -0.00262246 0.0013856)
(-0.00387138 0.000465341 0.00396523)
(-0.00683009 0.00365035 0.00636473)
(-0.00854003 0.00599732 0.00861621)
(-0.00863777 0.00676383 0.0106847)
(-0.00644402 0.00628091 0.012488)
(-0.00329003 0.00546117 0.0124752)
(0.00302133 0.00327228 0.0122111)
(0.00652843 0.00423935 0.0136541)
(0.00993311 0.00565116 0.0132272)
(0.0114427 0.00610872 0.011442)
(0.0110141 0.00510762 0.00924986)
(0.00919964 0.00317321 0.00691345)
(0.0063378 0.000508484 0.00443529)
(0.00337201 -0.00223123 0.0019613)
(0.00152703 -0.00346531 -0.000279058)
(0.000442745 -0.00363666 -0.00197241)
(-0.00051228 -0.00371472 -0.00159794)
(-0.00192332 -0.00357021 0.000649028)
(-0.00410259 -0.00203998 0.00309022)
(-0.007387 0.000918517 0.00560477)
(-0.0100195 0.00357437 0.00793625)
(-0.0116847 0.00550585 0.01009)
(-0.0118562 0.00632203 0.0120632)
(-0.0100239 0.00523547 0.013608)
(-0.00657437 0.00348322 0.0137418)
(-0.00310725 0.00218541 0.0117626)
(0.00407341 -0.00626563 0.00537623)
(0.00797087 -0.0024082 0.010469)
(0.0108349 0.000428613 0.0132042)
(0.0132429 0.00313716 0.0132433)
(0.0140795 0.00420096 0.0119413)
(0.0134096 0.00363603 0.0101612)
(0.0116253 0.00212985 0.00823408)
(0.008957 0.000136172 0.00595569)
(0.00527643 -0.00212555 0.00320048)
(0.00192139 -0.0035705 0.000354723)
(-0.0019726 -0.00360397 0.000822964)
(-0.00560175 -0.0020825 0.00400557)
(-0.00937777 0.000208395 0.00679512)
(-0.0120166 0.00220986 0.00900818)
(-0.0136752 0.00373638 0.0108416)
(-0.0141799 0.00419238 0.0124398)
(-0.0131528 0.00286382 0.0134583)
(-0.0107506 -0.000208577 0.0129716)
(-0.00811287 -0.0032715 0.00975092)
(-0.00412898 -0.00741973 0.00435312)
(0.00364836 -0.0148044 -0.00214208)
(0.00931203 -0.00743024 0.00495494)
(0.0108939 -0.00375375 0.00991984)
(0.0124073 -7.91456e-05 0.0124079)
(0.0131652 0.00255641 0.0129002)
(0.0129742 0.00364516 0.0121417)
(0.011666 0.00347936 0.0108401)
(0.00943116 0.00278967 0.00916431)
(0.00613949 0.00200794 0.00703833)
(0.0025433 0.000964189 0.00406042)
(-0.00243297 0.000978886 0.00431989)
(-0.00610972 0.00202705 0.00745482)
(-0.00940704 0.00279834 0.00961166)
(-0.0116081 0.00347631 0.0112777)
(-0.0128302 0.00361736 0.0125002)
(-0.0129271 0.00247469 0.0130916)
(-0.0122027 -0.000251917 0.0123289)
(-0.0108118 -0.00406597 0.00960611)
(-0.00938002 -0.00796115 0.00445248)
(-0.00356296 -0.0159314 -0.00282443)
(0.0013777 -0.0210616 -0.0074629)
(0.00872512 -0.0105045 0.000560612)
(0.00941093 -0.00549829 0.00649416)
(0.0102831 -0.00156329 0.0102834)
(0.00995214 0.00126606 0.0122894)
(0.00944404 0.00280831 0.0127307)
(0.00833369 0.00324799 0.0123463)
(0.00658295 0.00315936 0.0115019)
(0.00415059 0.00282354 0.0104508)
(0.00163877 0.00249376 0.00912212)
(-0.00152593 0.00248092 0.00920965)
(-0.00403829 0.00277145 0.0105795)
(-0.00643987 0.00306982 0.0116001)
(-0.00815869 0.00313119 0.0123648)
(-0.00925041 0.0026792 0.0126564)
(-0.00976752 0.00115024 0.0121117)
(-0.0101467 -0.00170623 0.0100104)
(-0.00929536 -0.00576362 0.00617159)
(-0.00867106 -0.0109915 0.000211817)
(-0.00121288 -0.0220271 -0.0078702)
(-0.00195333 -0.0244948 -0.0117714)
(0.00506539 -0.0119606 -0.00398164)
(0.00441856 -0.00508275 0.00174377)
(0.00567253 0.000479079 0.00567228)
(0.0052527 0.00386371 0.00780891)
(0.00514424 0.00555562 0.00885463)
(0.0047799 0.00635085 0.00913763)
(0.00405523 0.0069009 0.00918681)
(0.0029867 0.00717867 0.00933765)
(0.00144162 0.00755138 0.00961977)
(-0.00114086 0.00751239 0.00957812)
(-0.00274384 0.00712998 0.00918509)
(-0.00380877 0.00686024 0.00891979)
(-0.00452311 0.00628437 0.0087667)
(-0.00490452 0.00546594 0.00838156)
(-0.00504549 0.00376973 0.00734093)
(-0.00544817 0.000332117 0.00519589)
(-0.00416127 -0.00533716 0.00131712)
(-0.00486802 -0.0124398 -0.00435199)
(0.00211429 -0.0252802 -0.0121366)
(-0.00611377 -0.0227592 -0.0165336)
(-0.00312825 -0.0131146 -0.0108816)
(-0.00586411 -0.00827035 -0.00705782)
(-0.00442745 -0.00513196 -0.00442798)
(-0.00348986 -0.00320899 -0.00268165)
(-0.00205177 -0.00227811 -0.00160215)
(-0.00129312 -0.00207311 -0.00145716)
(-0.000510673 -0.0020509 -0.000927573)
(0.000351588 -0.00219229 0.000389529)
(0.000511074 -0.000132854 0.00269575)
(0.00016921 -8.60349e-05 0.0024687)
(0.000384507 -0.00229685 -0.000175616)
(0.00118419 -0.0021816 -0.00157601)
(0.00190503 -0.00220078 -0.00216769)
(0.00261942 -0.00244732 -0.00235957)
(0.00406041 -0.00339135 -0.0034595)
(0.00490937 -0.00532626 -0.00509308)
(0.00628458 -0.0085227 -0.00763899)
(0.00345228 -0.0134675 -0.0113549)
(0.00627213 -0.0232594 -0.0169351)
(-0.0145213 -0.0128463 -0.0241982)
(-0.022019 -0.0045624 -0.0250963)
(-0.0290532 -0.000667097 -0.0277781)
(-0.0311476 0.00179964 -0.0311478)
(-0.0315933 0.00367663 -0.0350017)
(-0.0301146 0.00541109 -0.0390518)
(-0.0270442 0.0072428 -0.0428537)
(-0.0223486 0.00935876 -0.0462877)
(-0.0153292 0.0116996 -0.0485173)
(-0.00758675 0.0143492 -0.0467933)
(0.00846943 0.0141897 -0.0471445)
(0.0161251 0.0115915 -0.0491276)
(0.0231484 0.00924368 -0.0470072)
(0.0278434 0.00713341 -0.043624)
(0.0309005 0.0053106 -0.0398425)
(0.0323331 0.00357165 -0.0357726)
(0.0318344 0.00168365 -0.0318981)
(0.0296653 -0.000805248 -0.0284867)
(0.0224632 -0.00474439 -0.0257287)
(0.0147832 -0.013125 -0.0247342)
(-0.00024668 -0.00129657 -0.00414262)
(-2.89226e-05 -0.00156218 -0.00250944)
(8.37842e-05 -0.00176956 -0.000975427)
(0.000813544 -0.00188807 0.000767089)
(0.00173754 -0.0012616 0.00174092)
(0.00233747 -0.000759475 0.00213773)
(0.00258402 -0.000462628 0.00263684)
(0.00248285 -0.000352223 0.00322756)
(0.00191462 -0.000395878 0.00384193)