/*--------------------------------*- C++ -*----------------------------------*\
| =========                 |                                                 |
| \\      /  F ield         | OpenFOAM: The Open Source CFD Toolbox           |
|  \\    /   O peration     | Version:  v1912                                 |
|   \\  /    A nd           | Website:  www.openfoam.com                      |
|    \\/     M anipulation  |                                                 |
\*---------------------------------------------------------------------------*/
FoamFile
{
    version     2.0;
    format      ascii;
    class       volScalarField;
    location    "240";
    object      epsilon;
}
// * * * * * * * * * * * * * * * * * * * * * * * * * * * * * * * * * * * * * //

dimensions      [0 2 -3 0 0 0 0];


internalField   nonuniform List<scalar> 
12441
(
0.0102961
0.00908474
0.00832689
0.0077025
0.0071836
0.00674903
0.0063824
0.00607113
0.00580528
0.00557686
0.00537956
0.00521017
0.00504596
0.004921
0.00479839
0.0046919
0.0047961
0.0193716
0.26404
2.98022
20.9577
39.25
0.0101184
0.00891972
0.00818363
0.00757659
0.00707171
0.00664858
0.00629137
0.00598798
0.00572878
0.00550607
0.00531369
0.00514888
0.00498727
0.00486604
0.00474669
0.0046449
0.00474864
0.0191256
0.248813
2.97304
21.2496
40.2318
0.00989643
0.00871695
0.00799993
0.00740876
0.00691721
0.00650538
0.00615785
0.00586285
0.00561101
0.00539485
0.00520841
0.00504915
0.00489213
0.00477678
0.00466219
0.00456508
0.00461898
0.0173706
0.211207
2.94356
21.6308
41.3784
0.00967283
0.00851329
0.00781453
0.00723849
0.00675958
0.00635845
0.00602004
0.00573294
0.005488
0.005278
0.00509711
0.00494288
0.00479211
0.00468045
0.00457172
0.00448064
0.00449116
0.0152503
0.174132
2.92217
22.0993
42.5504
0.00942864
0.00828869
0.00760865
0.00704822
0.00658248
0.00619256
0.00586382
0.00558517
0.00534772
0.00514448
0.00496979
0.00482139
0.00467551
0.00457042
0.00446702
0.0043824
0.00434782
0.0133453
0.155325
2.92978
22.6155
43.6698
0.00922265
0.00809905
0.00743422
0.00688641
0.00643123
0.00605022
0.00572907
0.00545697
0.00522519
0.00502697
0.00485675
0.00471236
0.00457219
0.00446972
0.0043719
0.00429199
0.00427406
0.0135493
0.175133
3.03534
23.2399
44.7472
0.00900202
0.00789547
0.00724708
0.00671298
0.00626936
0.00589819
0.00558553
0.00532082
0.00509559
0.00490325
0.0047384
0.00459897
0.0044626
0.00436667
0.00427236
0.00419904
0.00602915
0.0227004
0.279882
3.33018
24.0689
45.7945
0.00882354
0.0077308
0.00709524
0.00657175
0.00613696
0.00577321
0.00546681
0.00520743
0.00498678
0.0047984
0.00463703
0.00450066
0.0043695
0.00427509
0.00419274
0.00517271
0.0346116
0.079583
0.589106
3.9477
25.2198
46.8732
0.00862944
0.00755162
0.00693057
0.00641918
0.00599458
0.00563952
0.00534059
0.00508775
0.00487284
0.00468961
0.00453289
0.00440075
0.00427266
0.00414447
0.00540106
0.0272178
0.178796
0.301748
1.2653
5.0304
26.8166
48.0153
0.00847472
0.00740871
0.00679865
0.00629632
0.00587925
0.00553046
0.00523681
0.00498842
0.0047773
0.00459733
0.00444343
0.00431396
0.0041905
0.00427481
0.0254358
0.152657
0.544192
0.812918
2.34208
6.63448
28.9486
49.2846
0.00830532
0.00725227
0.00665494
0.00616322
0.00575509
0.00541391
0.00512682
0.00488414
0.00467804
0.00450253
0.00435265
0.00422768
0.00407399
0.00955338
0.116612
0.452861
1.10497
1.57903
3.63051
8.66686
31.6411
50.6975
0.00817027
0.00712755
0.00653979
0.00605592
0.00565429
0.00531852
0.00503595
0.00479706
0.00459416
0.00442139
0.00427386
0.00415236
0.00415529
0.0493045
0.336689
0.875084
1.68304
2.38854
4.87889
10.9284
34.8451
52.295
0.00802118
0.00698992
0.00641349
0.00593908
0.00554541
0.00521642
0.00493968
0.00470585
0.00450739
0.00433853
0.0041945
0.00403851
0.0083947
0.171916
0.644573
1.28104
2.1512
3.06972
5.95096
13.2168
38.4597
54.0597
0.00790025
0.00687825
0.00631039
0.00584302
0.00545516
0.00513101
0.00485831
0.00462788
0.0044323
0.0042659
0.00412401
0.00388312
0.0377043
0.368047
0.934978
1.59625
2.49108
3.58299
6.82746
15.3895
42.3579
56.0037
0.00776891
0.00675693
0.00619909
0.00574005
0.00535922
0.00504104
0.00477346
0.00454747
0.00435575
0.00419276
0.00405386
0.00427109
0.117793
0.575437
1.16447
1.82567
2.73292
3.95912
7.53973
17.3733
46.4161
58.0812
0.00765979
0.00665623
0.00610612
0.00565343
0.00527785
0.00496403
0.0047001
0.00447718
0.00428808
0.00412733
0.00399043
0.00957674
0.239017
0.752472
1.33544
1.9929
2.90847
4.23951
8.12755
19.1437
50.526
60.2902
0.00754391
0.0065492
0.006008
0.00556272
0.00519335
0.00488478
0.00462535
0.00440629
0.00422052
0.00406267
0.00392877
0.0332555
0.369031
0.89214
1.46356
2.11811
3.04042
4.45648
8.6245
20.7047
54.6054
62.571
0.00744234
0.00645558
0.00592167
0.0054824
0.00511802
0.00481363
0.00455771
0.00434164
0.00415845
0.00400282
0.00387358
0.0858384
0.485396
1.00072
1.56223
2.21511
3.14366
4.63205
9.05557
22.0726
58.595
64.9213
0.00733979
0.00636073
0.00583465
0.00540187
0.00504291
0.00474309
0.00449106
0.00427831
0.00409797
0.00394481
0.00381027
0.157344
0.581805
1.08677
1.64083
2.29299
3.22782
4.78063
9.43835
23.2681
62.4606
67.2818
0.0072451
0.00627354
0.00575431
0.00532719
0.00497296
0.00467711
0.00442844
0.00421857
0.00404072
0.00388975
0.00429151
0.231639
0.660228
1.15701
1.70558
2.35777
3.2993
4.9116
9.78484
24.3115
66.186
69.6617
0.00715494
0.00619008
0.00567773
0.00525626
0.00490671
0.00461477
0.00436939
0.00416229
0.00398679
0.00383789
0.0101103
0.300052
0.724892
1.21617
1.76067
2.41354
3.3625
5.03096
10.103
25.2221
69.7739
72.0102
0.00706411
0.00610661
0.00560099
0.00518513
0.00484029
0.00455236
0.00431041
0.00410627
0.00393336
0.00378724
0.029629
0.360047
0.779629
1.26747
1.809
2.4632
3.42051
5.1424
10.3978
26.0168
73.2396
74.3523
0.00698489
0.00603307
0.00553333
0.00512227
0.00478139
0.00449671
0.00425748
0.00405561
0.0038846
0.00374222
0.0640378
0.412149
0.827286
1.31316
1.85265
2.50883
3.47557
5.24792
10.6724
26.7108
76.614
76.6493
0.00689833
0.00595361
0.00546038
0.00505478
0.00471851
0.00443779
0.00420196
0.00400306
0.00383465
0.00370254
0.105328
0.45771
0.869889
1.35481
1.89317
2.552
3.52919
5.34851
10.9288
27.3174
79.938
78.9445
0.00683013
0.00589019
0.00540194
0.00500032
0.00466726
0.00438912
0.00415539
0.00395817
0.00379116
0.00368431
0.146373
0.498214
0.90885
1.39364
1.93172
2.59386
3.58226
5.44459
11.1682
27.8488
83.2657
81.212
0.00674437
0.00581174
0.00533021
0.00493429
0.00460611
0.0043322
0.00410213
0.00390814
0.00374398
0.00364634
0.184368
0.534959
0.945182
1.43054
1.96917
2.63524
3.6352
5.53638
11.3916
28.3156
86.6592
83.5114
0.0066853
0.00575649
0.00527902
0.00488628
0.0045606
0.00428865
0.00406014
0.00386737
0.00370425
0.00385352
0.219135
0.568961
0.979624
1.46621
2.00618
2.67666
3.68807
5.62411
11.5995
28.7269
90.1901
85.8273
0.0066015
0.00567999
0.00520923
0.00482223
0.00450151
0.00423387
0.00400914
0.00381969
0.00365959
0.00588769
0.251363
0.600986
1.01274
1.50117
2.04319
2.7184
3.74076
5.70802
11.7928
29.0905
93.9325
88.2307
0.00655192
0.00563335
0.00516577
0.00478115
0.00446219
0.00419585
0.00397207
0.0037833
0.00362412
0.0116533
0.281818
0.631597
1.04495
1.53584
2.0805
2.76057
3.79315
5.78842
11.972
29.413
97.9623
90.7106
0.00646775
0.00555683
0.00509631
0.0047178
0.00440415
0.00414247
0.00392276
0.0037376
0.00358259
0.0226301
0.311107
0.661212
1.07661
1.57049
2.11826
2.80316
3.84515
5.86559
12.138
29.6997
102.348
93.3406
0.0064256
0.00551678
0.00505859
0.00468172
0.0043692
0.00410825
0.00388904
0.00370416
0.00355164
0.0395527
0.339646
0.690146
1.10795
1.60533
2.15654
2.84615
3.89676
5.93984
12.2914
29.9551
107.152
96.1058
0.00634306
0.00544186
0.00499075
0.00462002
0.00431289
0.00405669
0.00384163
0.00366044
0.00351569
0.0620908
0.367706
0.718637
1.13918
1.64047
2.19534
2.88946
3.94798
6.01145
12.4331
30.1831
112.419
99.0732
0.00630946
0.0054096
0.00496001
0.00459017
0.00428346
0.00402735
0.00381219
0.00363075
0.00349494
0.0892687
0.39545
0.746866
1.17044
1.67599
2.23463
2.93307
3.99889
6.0807
12.5638
30.3875
118.184
102.217
0.0062249
0.00533322
0.00489124
0.00452808
0.00422727
0.00397638
0.00376581
0.00358842
0.00347399
0.119857
0.422971
0.774967
1.20182
1.71191
2.27438
2.97694
4.04956
6.14782
12.6844
30.5721
124.468
105.592
0.00619816
0.00530705
0.00486578
0.00450277
0.00420172
0.00395034
0.00373919
0.00356116
0.00347947
0.152722
0.450304
0.803036
1.23338
1.74822
2.31452
3.02108
4.10012
6.21305
12.7958
30.7404
131.285
109.157
0.00611108
0.00522881
0.00479575
0.00443998
0.00414533
0.00389962
0.00369343
0.00351977
0.00355363
0.186845
0.477437
0.831133
1.26513
1.78491
2.35502
3.06547
4.15066
6.27659
12.8988
30.8959
138.641
112.957
0.00608762
0.00520558
0.00477283
0.0044168
0.00412155
0.00387504
0.00366802
0.00349355
0.00647043
0.221272
0.504308
0.859283
1.29707
1.82193
2.39583
3.11013
4.20129
6.33864
12.9944
31.0412
146.536
116.938
0.00599554
0.00512343
0.00469979
0.00435179
0.00406361
0.00382333
0.00362174
0.00345203
0.0320254
0.254937
0.530815
0.887484
1.32917
1.85921
2.43691
3.15509
4.25212
6.39936
13.0836
31.1777
154.955
121.137
0.00596733
0.00509611
0.0046733
0.00432546
0.00403704
0.00379629
0.0035942
0.00342461
0.0744308
0.286247
0.556821
0.915706
1.36137
1.89671
2.4782
3.20034
4.30324
6.45892
13.1675
31.3057
163.844
125.495
0.00586255
0.00500304
0.00459093
0.00425249
0.00397234
0.00373887
0.00354313
0.00338447
0.106007
0.313968
0.582178
0.943892
1.39359
1.93433
2.51966
3.2459
4.35473
6.51747
13.2472
31.4241
173.07
130.045
0.00582105
0.00496372
0.00455357
0.00421628
0.00393676
0.00370364
0.0035082
0.00337344
0.126545
0.337913
0.60675
0.971964
1.42575
1.97197
2.56122
3.29176
4.40663
6.57519
13.3237
31.5311
182.36
134.727
0.00569935
0.00485603
0.0044583
0.00413164
0.00386134
0.00363631
0.00344795
0.00403503
0.140287
0.358417
0.630423
0.999822
1.45775
2.00952
2.60281
3.33788
4.45896
6.63223
13.3979
31.6253
191.231
139.588
0.00561714
0.00478963
0.00440397
0.00408569
0.00382104
0.00359966
0.00341351
0.00546295
0.149887
0.375945
0.653117
1.02735
1.4895
2.04682
2.64433
3.38421
4.5117
6.68881
13.4702
31.707
198.981
144.654
0.00525457
0.00446012
0.0041118
0.00382624
0.00358898
0.00339045
0.00322355
0.00624275
0.1568
0.390905
0.674769
1.0544
1.52088
2.0837
2.68565
3.43066
4.5648
6.74523
13.5406
31.7778
204.798
150.447
95.0235
73.0426
48.2754
37.7938
32.725
26.7083
25.3353
22.8444
21.5175
21.1466
22.0696
22.6452
24.8583
29.2334
31.8724
33.6908
36.1539
37.3605
37.5572
37.0078
36.1953
35.5835
35.2613
35.2225
35.4735
37.9593
38.9936
8.15051
4.5831
4.48378
4.70721
4.84236
4.82502
4.40968
3.83989
94.6475
73.3166
48.7501
38.8079
33.8612
27.4798
26.071
23.4227
22.0139
21.5259
22.2707
22.9455
25.4224
30.274
32.9712
34.1815
36.271
37.6126
37.9566
37.5882
36.9315
36.3141
35.8637
35.6692
35.8247
38.2608
40.2404
8.22909
4.58142
4.47951
4.70216
4.83621
4.81837
4.40306
3.83438
93.9266
73.755
49.6514
40.8248
36.094
28.9896
27.4558
24.4816
22.9196
22.2552
22.6695
23.4656
26.4844
32.5041
35.4113
35.3875
36.5625
37.9507
38.5673
38.6248
38.3788
37.8238
37.1348
36.588
36.4645
38.6591
40.2766
8.32
4.57793
4.47095
4.69207
4.82393
4.80509
4.38983
3.82337
92.8104
74.3171
51.0101
43.9153
39.389
31.2312
29.4364
25.9951
24.2465
23.3503
23.3114
24.276
28.1788
36.2112
39.8525
37.923
37.3252
38.4748
39.4656
40.2108
40.6722
40.3061
39.2918
38.1679
37.5346
39.3501
39.7485
8.43428
4.57284
4.45811
4.67695
4.80554
4.78522
4.37004
3.80691
91.3035
74.9652
52.8662
48.0994
43.6894
34.1965
31.9837
27.97
26.0095
24.8152
24.2642
25.4727
30.6189
41.6247
47.1354
42.7208
39.1299
39.425
40.7911
42.4958
44.0057
44.0324
42.6476
40.6804
39.2177
40.5279
39.1898
8.58654
4.56645
4.441
4.65682
4.78106
4.75879
4.34372
3.78503
89.3553
75.6657
55.2666
53.3338
48.9365
37.8905
35.1029
30.4442
28.2491
26.6792
25.5988
27.1576
33.8729
48.6457
57.8056
50.933
42.8524
41.2838
42.8177
45.7288
48.6609
49.3794
47.6524
44.5262
41.7717
42.4124
38.9804
8.79424
4.55918
4.41965
4.63168
4.7505
4.72584
4.31092
3.75778
87.0012
76.388
58.2594
59.4732
55.0561
42.3292
38.8318
33.4854
31.0394
29.0064
27.4044
29.4519
37.9951
56.7291
71.3466
63.5287
49.5965
44.8466
46.0507
50.3245
55.0566
56.8686
54.9476
50.3054
45.5767
45.2833
39.4035
9.07804
4.5515
4.39405
4.60155
4.7139
4.68644
4.27169
3.72523
84.2135
77.1035
61.8855
66.2049
61.9149
47.5118
43.2232
37.1832
34.4883
31.9092
29.81
32.5256
43.0586
64.9635
85.3508
80.0987
60.3809
51.1744
51.3114
56.9537
63.8228
67.2168
65.4232
58.9087
51.2022
49.5236
40.7265
9.46319
4.54399
4.36424
4.56647
4.67128
4.64064
4.22612
3.68746
81.0699
77.7836
66.1721
73.033
69.29
53.3829
48.3166
41.6331
38.7307
35.5504
33.0092
36.6346
49.2009
72.253
95.8845
96.9586
75.1406
61.3002
59.7244
66.6128
75.8681
81.3633
80.2318
71.5996
59.4898
55.6699
43.2817
9.98156
4.53728
4.33025
4.52646
4.62272
4.58856
4.17431
3.64457
77.574
78.3981
71.1375
79.407
76.8844
59.8068
54.1071
46.9124
43.9029
40.1443
37.2819
42.1216
56.4395
77.7617
100.128
107.842
91.0147
75.3412
72.3752
80.5067
92.2931
100.317
100.568
89.9224
71.5977
64.4446
47.5492
10.6738
4.53198
4.29211
4.48159
4.56826
4.5303
4.11638
3.59669
73.8369
78.9127
76.8125
84.97
84.3945
66.5725
60.5143
53.0401
50.1063
45.9374
42.9808
49.3788
64.533
81.2952
98.7117
109.561
102.656
91.0463
89.2089
99.3066
113.757
124.432
126.746
114.924
88.795
76.6797
54.237
11.5906
4.52864
4.24987
4.43192
4.50803
4.46603
4.05251
3.54398
69.8857
79.2843
83.2635
89.7254
91.5987
73.4466
67.3716
59.9355
57.3418
53.1573
50.5016
58.6572
72.8034
83.3728
94.6188
104.989
106.949
104.026
107.482
121.451
138.888
151.762
156.172
144.853
111.45
92.8906
64.3018
12.7893
4.52752
4.2036
4.37756
4.44215
4.39592
3.98289
3.48662
65.8489
79.4559
90.5652
93.9739
98.4118
80.2546
74.4496
67.3889
65.4293
61.8941
60.1282
69.7316
80.3629
84.864
90.6126
98.9045
105.867
111.49
122.586
142.23
162.938
176.865
181.983
172.414
136.729
112.164
78.6858
14.3198
4.52827
4.15336
4.31862
4.37078
4.3202
3.90776
3.42481
61.7626
79.3473
98.6829
98.1015
104.88
86.949
81.5262
75.089
73.9855
71.9377
71.7708
81.4198
86.5931
86.4958
88.222
94.3171
103.336
114.638
132.145
156.925
180.084
193.347
196.601
187.629
157.161
130.776
97.2746
16.1875
4.52956
4.09923
4.25525
4.29412
4.23914
3.8274
3.35882
57.7502
78.8498
107.02
102.403
111.126
93.6275
88.4816
82.6999
82.5061
82.6523
84.6529
92.0269
91.4689
88.6442
87.9613
92.3051
101.991
116.413
137.597
164.847
188.125
198.735
197.841
186.871
165.216
143.019
116.951
18.2907
4.52866
4.04129
4.18762
4.2124
4.15303
3.74213
3.28892
53.8399
77.8378
114.485
107.02
117.314
100.47
95.3355
90.0142
90.5632
93.113
97.2691
100.451
95.3752
91.3585
89.7824
92.9947
102.853
118.894
141.488
168.352
188.981
195.144
189.146
174.94
160.388
145.534
131.198
20.3692
4.52129
3.97963
4.11593
4.1259
4.06222
3.65231
3.21542
50.1273
76.2085
119.752
111.965
123.602
107.642
102.239
97.0504
97.9652
102.478
108.06
106.923
99.0163
94.5925
93.3041
96.077
105.991
122.792
145.246
169.595
185.438
186.019
175.204
158.525
148.149
139.923
134.699
22.0517
4.50226
3.91435
4.0404
4.03493
3.96707
3.55834
3.13864
46.6135
73.9495
122.124
117.132
130.102
115.291
109.413
104.042
104.857
110.426
116.48
112.367
103.131
98.4039
98.0158
101.033
111.014
127.911
148.987
169.318
179.129
173.871
159.327
141.837
133.966
130.177
128.111
23.0117
4.46664
3.84557
3.96128
3.93982
3.868
3.46065
3.05894
43.349
71.2054
122.1
122.379
136.864
123.492
117.067
111.325
111.629
117.281
123.201
118.011
108.52
103.124
103.469
107.188
117.277
133.621
152.161
167.358
170.663
160.137
143.347
126.638
120.713
119.425
115.966
23.0995
4.41111
3.77347
3.87884
3.84093
3.76542
3.35969
2.97669
40.3033
68.3082
120.949
127.584
143.87
132.228
125.336
119.219
118.778
123.817
129.539
124.822
115.873
109.317
109.537
113.942
124.091
139.204
154.097
163.372
160.338
145.728
128.231
113.4
109.278
109.139
102.232
22.3591
4.33468
3.69823
3.79336
3.73867
3.65979
3.25595
2.89229
37.4893
65.7514
119.761
132.712
151.051
141.391
134.246
127.932
126.736
130.881
136.742
133.727
125.953
117.742
116.5
120.96
130.905
144.09
154.352
157.273
148.59
131.388
114.494
102.087
99.6288
99.7083
88.9394
20.9684
4.23868
3.62012
3.70514
3.63344
3.55158
3.14991
2.80611
34.8769
64.0722
119.069
137.768
158.305
150.804
143.724
137.528
135.808
139.152
145.747
145.36
139.463
129.25
125.007
128.357
137.503
147.984
152.782
149.309
136.052
117.749
102.37
92.4859
91.4421
91.0548
76.807
19.1618
4.12624
3.53943
3.61448
3.52568
3.44126
3.04208
2.71856
32.4767
63.42
119.095
142.751
165.517
160.26
153.614
147.931
146.07
149.048
157.097
160.381
157.246
144.825
135.883
136.564
143.973
150.866
149.551
139.995
123.435
105.281
91.9017
84.3403
84.359
82.9851
65.9863
17.1665
4.00141
3.45647
3.52172
3.41581
3.32931
2.93296
2.63003
30.2708
63.8371
119.697
147.621
172.562
169.548
163.721
158.977
157.498
160.747
171.068
179.194
180.026
165.498
150.051
146.213
150.612
152.899
145.007
129.968
111.371
94.2485
82.9948
77.3939
78.0711
75.3379
56.4435
15.1633
3.86844
3.37159
3.42717
3.30428
3.21621
2.82304
2.54091
28.2673
65.1622
120.672
152.306
179.32
178.475
173.835
170.455
169.971
174.268
187.782
202.3
208.547
192.233
168.382
157.872
157.715
154.313
139.614
119.862
100.321
84.7288
75.475
71.4117
72.3414
68.027
48.0981
13.2733
3.73117
3.28513
3.33115
3.19154
3.10241
2.71281
2.45155
26.4614
66.9677
121.853
156.717
185.683
186.889
183.766
182.163
183.347
189.542
207.353
230.045
243.206
225.451
191.546
171.998
165.494
155.299
133.804
110.203
90.5401
76.6564
69.1343
66.188
67
61.0397
40.8607
11.5637
3.59278
3.19744
3.234
3.07803
2.98837
2.60273
2.36232
24.8623
68.6084
123.129
160.765
191.565
194.685
193.365
193.935
197.493
206.538
229.945
262.922
284.142
264.636
219.47
188.647
173.929
155.941
127.94
101.357
82.1064
69.882
63.7626
61.5512
61.9372
54.4121
34.6364
10.0606
3.45566
3.10885
3.13601
2.96416
2.87453
2.49324
2.27354
23.4808
69.4997
124.433
164.387
196.918
201.821
202.546
205.673
212.334
225.276
255.78
301.14
330.592
307.891
250.876
207.329
182.733
156.163
122.217
93.5081
74.9666
64.2187
59.1671
57.3636
57.0923
48.2031
29.3255
8.76378
3.32146
3.01967
3.03752
2.85035
2.76128
2.38475
2.18553
22.3333
69.5044
125.726
167.547
201.729
208.313
211.29
217.349
227.848
245.812
285.071
344.651
380.723
351.974
282.991
226.645
191.213
155.733
116.703
86.693
68.9908
59.4741
55.1807
53.5207
52.443
42.4697
24.8248
7.6581
3.19127
2.93019
2.93881
2.737
2.64902
2.27764
2.09856
21.4546
69.0502
126.981
170.246
206.021
214.223
219.641
229.005
244.085
268.234
317.943
392.569
431.074
392.472
312.208
244.556
198.405
154.329
111.343
80.835
64.0091
55.4682
51.6655
49.9476
47.9935
37.2522
21.0313
6.72165
3.06568
2.8407
2.84017
2.62448
2.53809
2.17225
2.0129
20.8892
68.822
128.175
172.504
209.843
219.639
227.685
240.733
261.132
292.636
354.362
443.283
477.243
424.782
334.913
258.74
203.214
151.651
106.06
75.7979
59.8446
52.042
48.5115
46.5954
43.7639
32.5672
17.8464
5.93075
2.94498
2.75144
2.74188
2.51314
2.42882
2.06889
1.92876
20.7351
69.3694
129.28
174.362
213.263
224.669
235.546
252.675
279.134
319.133
394.133
494.195
514.528
445.235
348.582
267.482
204.828
147.535
100.777
71.4173
56.3262
49.0607
45.6348
43.4357
39.7793
28.408
15.1791
5.26275
2.8292
2.66263
2.64418
2.40328
2.32149
1.96783
1.84635
21.1259
70.9389
130.268
175.871
216.36
229.431
243.375
265.021
298.293
347.902
436.967
542.298
539.394
452.173
352.161
269.883
202.857
142.012
95.4717
67.5336
53.3001
46.413
42.9738
40.4553
36.0625
24.7489
12.9476
4.69732
2.71826
2.5745
2.54733
2.29521
2.21637
1.86931
1.76583
22.2957
73.5114
131.12
177.084
219.222
234.056
251.364
278.035
318.936
379.314
482.568
584.077
549.717
445.944
346.18
266.07
197.435
135.268
90.1393
64.0017
50.6313
44.0099
40.4854
37.6504
32.629
21.5511
11.0808
4.21689
2.61195
2.48722
2.45155
2.18919
2.11368
1.77354
1.68736
24.5223
76.9034
131.821
178.058
221.947
238.693
259.763
292.11
341.624
414.12
530.607
615.987
545.076
428.377
332.108
256.752
189.004
127.572
84.7995
60.7031
48.2077
41.7824
38.1411
35.022
29.4845
18.7693
9.5175
3.80663
2.51006
2.40096
2.35705
2.08546
2.01362
1.68067
1.61106
28.1637
80.8582
132.369
178.845
224.645
243.532
268.941
307.893
367.382
453.743
580.206
633.951
525.952
401.85
311.882
243.054
178.197
119.201
79.4636
57.5441
45.9391
39.6792
35.9231
32.5711
26.625
16.3558
8.20586
3.45422
2.41234
2.31589
2.26401
1.98423
1.91637
1.59086
1.53703
33.4954
85.109
132.766
179.492
227.445
248.836
279.475
326.49
398.045
500.45
628.571
633.972
493.831
368.856
287.361
226.097
165.64
110.399
74.1469
54.4583
43.7589
37.6646
33.8202
30.2967
24.0382
14.2642
7.10257
3.1495
2.31855
2.23213
2.17264
1.88569
1.82208
1.50422
1.46536
40.701
89.4223
133.018
180.048
230.517
255.007
292.341
349.862
436.805
556.921
668.693
612.602
450.887
331.741
260.242
206.977
151.924
101.365
68.8589
51.4022
41.6217
35.7153
31.8251
28.1935
21.7055
12.4515
6.17163
2.88415
2.22845
2.14982
2.0831
1.79003
1.73089
1.42087
1.39612
49.6321
93.6252
133.13
180.567
234.106
262.703
309.244
381.481
488.635
623.401
688.218
569.21
400.459
292.793
231.957
186.595
137.534
92.2635
63.6197
48.3546
39.502
33.8182
29.9323
26.2523
19.6046
10.879
5.38327
2.65139
2.14182
2.06907
1.99556
1.69741
1.64291
1.34087
1.32938
59.8743
97.6189
133.109
181.119
238.591
273.065
333.241
427.242
559.155
689.9
673.291
507.017
346.485
254.125
203.785
165.769
122.892
83.23
58.4557
45.3131
37.3894
31.968
28.1369
24.4605
17.7114
9.51291
4.71305
2.44568
2.0585
1.99001
1.91018
1.60797
1.55824
1.26431
1.26517
70.5911
101.374
132.96
181.811
244.604
288.142
369.777
495.486
646.3
727.408
617.688
433.363
293.107
217.588
176.794
145.165
108.338
74.3847
53.4079
42.2921
35.2858
30.1648
26.4345
22.8033
16.0021
8.32404
4.1409
2.26252
1.97831
1.91276
1.82713
1.52186
1.47698
1.19123
1.20356
80.9187
104.911
132.689
182.816
253.277
311.735
427.758
589.773
718.712
700.264
528.93
356.957
243.589
184.526
151.871
125.383
94.1699
65.8355
48.5235
39.3183
33.2015
28.4127
24.8222
21.2659
14.4541
7.28748
3.65042
2.09825
1.90111
1.83743
1.74655
1.43921
1.3992
1.12168
1.14457
89.3733
108.292
132.305
184.442
266.748
350.809
515.714
679.334
713.063
602.654
425.016
285.442
200.055
155.733
129.642
106.909
80.6279
57.676
43.8556
36.4264
31.1529
26.7192
23.2989
19.8349
13.0472
6.38207
3.22818
1.94986
1.82679
1.76416
1.66862
1.36014
1.32498
1.05569
1.08822
95.1437
111.62
131.82
187.278
289.262
415.459
611.765
680.652
605.624
468.829
324.88
223.43
163.247
131.38
110.433
90.1375
67.9263
49.9857
39.451
33.6526
29.1591
25.0937
21.8664
18.5005
11.7646
5.58991
2.86319
1.81493
1.75526
1.69306
1.59346
1.28475
1.25435
0.993263
1.03455
0.00337758
0.00250182
0.00227189
0.00215788
0.00211507
0.00211756
0.00215078
0.00648374
0.160608
0.400449
0.690133
1.07403
1.5437
2.11035
2.71569
3.46471
4.60419
6.7874
13.5915
31.8271
207.157
160.092
0.00334407
0.00224126
0.00183969
0.00160167
0.00147789
0.00143755
0.0014692
0.0065913
0.1625
0.405609
0.698956
1.08513
1.5562
2.12457
2.73164
3.48308
4.62649
6.81283
13.6248
31.8649
208.167
170.189
0.00354021
0.0023756
0.00188161
0.00154314
0.0013198
0.001187
0.00115575
0.00665822
0.16375
0.409353
0.705807
1.09348
1.56507
2.13419
2.74228
3.49569
4.64304
6.83347
13.6532
31.9051
208.327
179.835
0.00367048
0.00251727
0.00200381
0.00162959
0.00135737
0.00116508
0.00103125
0.00669791
0.164442
0.411759
0.710653
1.099
1.57022
2.13912
2.7475
3.50239
4.65363
6.84907
13.6754
31.9486
207.7
188.892
0.00392236
0.00276406
0.0022268
0.00182276
0.00151499
0.00128056
0.00100117
0.00671692
0.164628
0.412878
0.713467
1.10164
1.57158
2.1393
2.74723
3.50309
4.65809
6.85939
13.6898
31.9962
206.331
197.822
0.00405991
0.00292967
0.00239868
0.00199256
0.00167606
0.00142633
0.000991603
0.0067187
0.16434
0.412749
0.714235
1.10137
1.56912
2.13472
2.74145
3.49772
4.65627
6.86417
13.6949
32.0483
204.25
206.798
0.0043403
0.00320818
0.00266005
0.0022344
0.0018975
0.00162655
0.00106183
0.00670486
0.163602
0.411404
0.712964
1.0982
1.56285
2.12541
2.73017
3.48625
4.64802
6.86315
13.6892
32.105
201.498
215.821
0.0044783
0.00337924
0.00284413
0.00242408
0.00208765
0.00181313
0.00118914
0.00667556
0.162429
0.408881
0.70969
1.09217
1.55284
2.11145
2.71345
3.46868
4.63322
6.85606
13.6713
32.1657
198.122
224.829
0.00478389
0.00368489
0.00313526
0.00269804
0.00234379
0.00205141
0.00131423
0.00663006
0.160837
0.40522
0.704475
1.08334
1.53917
2.09295
2.69142
3.44504
4.61176
6.8426
13.6401
32.2294
194.179
233.754
0.00490844
0.00384885
0.00331976
0.00289531
0.00254818
0.00225844
0.00140415
0.00656705
0.158838
0.40047
0.697405
1.07184
1.52199
2.07005
2.66421
3.41541
4.58353
6.8225
13.5944
32.2939
189.728
242.512
0.00522927
0.00417154
0.00363075
0.00319172
0.00282906
0.00252367
0.00151797
0.00648499
0.156447
0.394687
0.688589
1.05778
1.50148
2.04298
2.63203
3.37991
4.54846
6.79545
13.5332
32.3564
184.834
250.994
0.00533906
0.0043247
0.00381011
0.00338973
0.00303993
0.0027427
0.00163681
0.00638167
0.153673
0.387934
0.678154
1.04136
1.47785
2.01194
2.5951
3.33869
4.50647
6.76112
13.4556
32.4129
179.565
259.068
0.005672
0.00466125
0.0041375
0.00370471
0.00334123
0.00303002
0.00184117
0.00625438
0.150525
0.380276
0.666236
1.02275
1.45134
1.97722
2.55371
3.29195
4.45755
6.71919
13.3609
32.4583
173.991
266.586
0.00575605
0.00479289
0.00430135
0.00389354
0.00354918
0.0032522
0.00211852
0.00609904
0.147005
0.371781
0.652979
1.00217
1.42222
1.9391
2.50816
3.23995
4.40171
6.66929
13.2486
32.4865
168.176
273.394
0.00609201
0.00513366
0.0046351
0.00421693
0.00386083
0.00355181
0.00252368
0.00591076
0.143104
0.362509
0.638524
0.979839
1.39076
1.8979
2.45878
3.18298
4.339
6.61108
13.1179
32.4904
162.189
279.346
0.00615199
0.00524293
0.00478032
0.00439156
0.00405932
0.00376944
0.00298966
0.00568215
0.138804
0.352512
0.623008
0.955994
1.35725
1.85393
2.40593
3.12137
4.26957
6.54416
12.9685
32.4618
156.087
284.307
0.00648669
0.00558344
0.0051156
0.00471811
0.00437558
0.00407502
0.00350263
0.0054051
0.134065
0.341827
0.606554
0.930866
1.322
1.80755
2.34998
3.0555
4.19359
6.46819
12.8002
32.3919
149.928
288.168
0.0065182
0.00566542
0.00523662
0.00487237
0.00455794
0.00428097
0.00389765
0.00506818
0.128822
0.330466
0.589265
0.90468
1.2853
1.7591
2.2913
2.98577
4.11133
6.3828
12.6127
32.2713
143.76
290.842
0.00683897
0.0059928
0.00556058
0.00518946
0.00486655
0.00458073
0.00427458
0.0046719
0.122977
0.318406
0.57122
0.877648
1.24746
1.70891
2.23029
2.9126
4.02312
6.28769
12.406
32.0904
137.624
292.271
0.00685336
0.0060557
0.00566239
0.00532533
0.00503204
0.00477184
0.00452824
0.0042387
0.116393
0.305582
0.55246
0.84996
1.20875
1.65734
2.16732
2.83643
3.92934
6.18258
12.1801
31.8397
131.556
292.418
0.00716008
0.00636976
0.00597453
0.00563201
0.00533149
0.00506349
0.00482419
0.00387658
0.108882
0.291869
0.532978
0.821771
1.16946
1.6047
2.10278
2.7577
3.83046
6.0673
11.9355
31.51
125.584
291.27
0.00715652
0.00641246
0.00605558
0.00574751
0.00547766
0.00523683
0.00502327
0.00380883
0.100206
0.277071
0.512706
0.793192
1.12984
1.55133
2.03703
2.67686
3.72696
5.94172
11.6724
31.093
119.729
288.826
0.00744657
0.00671001
0.00635214
0.00603959
0.00576343
0.00551564
0.0052935
0.00414385
0.0900961
0.2609
0.491492
0.764271
1.09011
1.49755
1.97042
2.59435
3.61939
5.80587
11.3915
30.5819
114.007
285.101
0.00743047
0.00673697
0.00641574
0.00613676
0.00589106
0.00567077
0.00547121
0.00467599
0.0783059
0.242972
0.469079
0.73497
1.05045
1.44363
1.90331
2.51061
3.50835
5.65989
11.0933
29.9713
108.427
280.117
0.00770419
0.00701812
0.00669653
0.00641373
0.00616235
0.00593558
0.00572847
0.0052481
0.0647622
0.222805
0.445078
0.705141
1.01096
1.38986
1.83601
2.42606
3.39443
5.50407
10.7788
29.2582
102.995
273.904
0.00767665
0.00703036
0.0067434
0.00649295
0.00627141
0.00607201
0.00588894
0.0056212
0.0498531
0.199864
0.418939
0.674485
0.971669
1.33646
1.76884
2.3411
3.27828
5.33883
10.4489
28.4419
97.7109
266.503
0.00793334
0.00729409
0.00700705
0.00675318
0.00652633
0.00632079
0.00613149
0.00592772
0.0347836
0.173697
0.389933
0.642511
0.932446
1.28362
1.70207
2.25612
3.16054
5.16482
10.1044
27.5246
92.5712
257.961
0.00789945
0.00729633
0.00704134
0.00681785
0.00661945
0.00644033
0.00627505
0.00611273
0.0215909
0.144228
0.357158
0.60849
0.892984
1.23142
1.63596
2.1715
3.04189
4.9828
9.74654
26.5111
87.5683
248.34
0.00814124
0.00754464
0.00728963
0.00706291
0.00685939
0.00667423
0.00650299
0.00633991
0.012415
0.112234
0.319615
0.5714
0.852721
1.1798
1.5707
2.08756
2.92299
4.79379
9.37634
25.4092
82.6925
237.717
0.00810329
0.00753934
0.0073138
0.00711541
0.00693875
0.00677883
0.00663088
0.00648984
0.0079009
0.0798942
0.276453
0.529894
0.810775
1.12848
1.50639
2.00462
2.80454
4.59896
8.99499
24.2294
77.9297
226.187
0.0083303
0.00777229
0.0075467
0.00734522
0.0071636
0.00699778
0.00684396
0.0066983
0.00665534
0.0507643
0.227513
0.482317
0.765857
1.07687
1.44297
1.92292
2.68722
4.39975
8.60381
22.9846
73.2649
213.863
0.0082926
0.00776374
0.00756484
0.00738933
0.00723261
0.0070904
0.00695857
0.00683307
0.00661658
0.0285176
0.174239
0.426893
0.716197
1.02399
1.38016
1.84257
2.57169
4.19778
8.20428
21.6892
68.6809
200.881
0.00850609
0.00798263
0.00778365
0.00760519
0.00744371
0.00729576
0.00715812
0.0070277
0.00685122
0.0150713
0.120665
0.36229
0.659483
0.96831
1.31729
1.76354
2.45854
3.99491
7.79823
20.3594
64.1617
187.392
0.00847097
0.00797343
0.00779844
0.0076436
0.00750497
0.0073789
0.00726178
0.00715019
0.00702434
0.00905974
0.0733366
0.288858
0.592949
0.907677
1.25322
1.68548
2.3482
3.79314
7.38792
19.012
59.6937
173.565
0.00867174
0.00817907
0.00800399
0.00784635
0.0077032
0.00757161
0.00744883
0.00733224
0.00721393
0.00723377
0.0387066
0.210473
0.51388
0.839202
1.18619
1.60765
2.24086
3.59455
6.97616
17.664
55.2697
159.577
0.00864155
0.00817176
0.00801807
0.00788169
0.0077593
0.00764773
0.00754387
0.0074447
0.00734539
0.00698835
0.0189621
0.135686
0.421043
0.759261
1.11364
1.52879
2.13634
3.40112
6.56637
16.3325
50.891
145.611
0.0088317
0.00836628
0.0082124
0.00807334
0.0079466
0.00782971
0.0077203
0.00761612
0.007514
0.0072149
0.0106374
0.0755457
0.317429
0.663994
1.03212
1.44693
2.0339
3.21444
6.1625
15.0337
46.5713
131.846
0.00880913
0.00836382
0.00822887
0.0081088
0.00800074
0.00790198
0.00780979
0.00772153
0.00763412
0.00745832
0.00808554
0.0370248
0.213064
0.550878
0.937165
1.35927
1.93215
3.03551
5.76875
13.7828
42.3358
118.452