/*--------------------------------*- C++ -*----------------------------------*\
| =========                 |                                                 |
| \\      /  F ield         | OpenFOAM: The Open Source CFD Toolbox           |
|  \\    /   O peration     | Version:  v1912                                 |
|   \\  /    A nd           | Website:  www.openfoam.com                      |
|    \\/     M anipulation  |                                                 |
\*---------------------------------------------------------------------------*/
FoamFile
{
    version     2.0;
    format      ascii;
    class       volScalarField;
    location    "240";
    object      nut;
}
// * * * * * * * * * * * * * * * * * * * * * * * * * * * * * * * * * * * * * //

dimensions      [0 2 -1 0 0 0 0];


internalField   nonuniform List<scalar> 
12441
(
5.82202e-24
1.79052e-20
8.10489e-20
3.32538e-19
1.06829e-18
3.88823e-18
1.01053e-17
2.5004e-17
6.13803e-17
1.27522e-16
3.05632e-16
7.71139e-16
2.18066e-15
7.39641e-15
1.03647e-13
1.89511e-11
0.000197365
0.000983674
0.00315106
0.00267148
0.00364608
0.00775321
6.34211e-24
3.03351e-20
1.11732e-19
4.23946e-19
1.30209e-18
4.80722e-18
1.21982e-17
3.00091e-17
7.3606e-17
1.54444e-16
3.79775e-16
1.02873e-15
2.82776e-15
9.36772e-15
1.13082e-13
3.90105e-11
5.84055e-05
0.00119255
0.00360637
0.00290822
0.00400825
0.00781733
6.36487e-24
3.58956e-20
1.20779e-19
4.4813e-19
1.37773e-18
4.90666e-18
1.29287e-17
3.20402e-17
8.05107e-17
1.71763e-16
4.17863e-16
1.11694e-15
2.78443e-15
7.65786e-15
5.35238e-14
6.57484e-12
1.11671e-05
0.000873606
0.00143513
0.00274308
0.00416101
0.0078909
6.31934e-24
3.76919e-20
1.18534e-19
4.2931e-19
1.32535e-18
4.71351e-18
1.25132e-17
3.13262e-17
7.84912e-17
1.73666e-16
4.23735e-16
1.15348e-15
2.60997e-15
8.46808e-15
3.85082e-14
1.54334e-12
1.6295e-06
0.000608207
0.00106923
0.00266443
0.00432349
0.0079647
6.2853e-24
4.38833e-20
1.29779e-19
4.58315e-19
1.40269e-18
4.77929e-18
1.30908e-17
3.27941e-17
8.42951e-17
1.87518e-16
4.54146e-16
1.28411e-15
3.0186e-15
4.06846e-14
2.47236e-13
2.29824e-12
1.39823e-07
0.000428571
0.00104804
0.00265085
0.00446409
0.00803394
6.23513e-24
4.12883e-20
1.2054e-19
4.2919e-19
1.34272e-18
4.62204e-18
1.27503e-17
3.23925e-17
8.28917e-17
1.92681e-16
4.76929e-16
1.44495e-15
4.53179e-15
1.32808e-12
1.1898e-11
5.10407e-11
4.59102e-07
0.000392485
0.00111239
0.00270796
0.00459149
0.00809948
6.20022e-24
5.02642e-20
1.37796e-19
4.7577e-19
1.46015e-18
4.79244e-18
1.35931e-17
3.44532e-17
9.07006e-17
2.1112e-16
5.20832e-16
1.99928e-15
2.50203e-14
4.14221e-11
6.57761e-10
9.37639e-09
1.87644e-05
0.000407932
0.00129714
0.00289539
0.00473908
0.00816218
6.15045e-24
4.34525e-20
1.23173e-19
4.4016e-19
1.40817e-18
4.72278e-18
1.35122e-17
3.48445e-17
9.13177e-17
2.23844e-16
5.72499e-16
5.43385e-15
6.09627e-13
2.25206e-09
8.40958e-08
4.97265e-06
0.000194719
0.000464593
0.00175349
0.00328066
0.00493369
0.00822577
6.11765e-24
5.57046e-20
1.46132e-19
4.9968e-19
1.55413e-18
4.95865e-18
1.46118e-17
3.75704e-17
1.02073e-16
2.50943e-16
6.45343e-16
6.13278e-14
2.59031e-11
7.4205e-08
1.0425e-05
0.000153581
0.000792327
0.00082333
0.00270316
0.00394124
0.00520874
0.00829204
6.07081e-24
4.43501e-20
1.25437e-19
4.56634e-19
1.50755e-18
4.95363e-18
1.47475e-17
3.87252e-17
1.04877e-16
2.75118e-16
7.48614e-16
1.68135e-12
1.08307e-09
4.43375e-06
0.000190688
0.000608512
0.00166053
0.00154639
0.00444005
0.00495601
0.00557832
0.00836448
6.04163e-24
6.02607e-20
1.53436e-19
5.25912e-19
1.67273e-18
5.20597e-18
1.60252e-17
4.20347e-17
1.19294e-16
3.17369e-16
8.92078e-16
5.22918e-11
5.50692e-08
8.18778e-05
0.000712677
0.00166183
0.00357328
0.00305011
0.00738675
0.00642269
0.00605565
0.00844366
5.99623e-24
4.46295e-20
1.27737e-19
4.76947e-19
1.63371e-18
5.28098e-18
1.64024e-17
4.4065e-17
1.25499e-16
3.64628e-16
1.1586e-15
1.45627e-09
3.24661e-06
0.000344085
0.00153952
0.00365309
0.00733961
0.00604091
0.0119712
0.00838109
0.00662879
0.00853143
5.97061e-24
6.41501e-20
1.60452e-19
5.53815e-19
1.81498e-18
5.54196e-18
1.79087e-17
4.82222e-17
1.46704e-16
4.44728e-16
1.69456e-15
3.52119e-08
7.25005e-05
0.00106054
0.00371573
0.00793613
0.0144392
0.0114875
0.0183337
0.0108079
0.00728726
0.00862633
5.92665e-24
4.4326e-20
1.29672e-19
4.9932e-19
1.78322e-18
5.69196e-18
1.85327e-17
5.13841e-17
1.59852e-16
5.59155e-16
3.60138e-15
7.96399e-07
0.000343621
0.00268959
0.0080925
0.0156567
0.0261492
0.0202011
0.0261592
0.0135718
0.00799739
0.00872852
5.90426e-24
6.75166e-20
1.66657e-19
5.82628e-19
1.97803e-18
5.94019e-18
2.02694e-17
5.6783e-17
1.96057e-16
7.78715e-16
1.65172e-14
1.51749e-05
0.00110423
0.00622294
0.0158706
0.0277775
0.0429956
0.0322494
0.0346748
0.0165112
0.00873795
0.00883515
5.86059e-24
4.39597e-20
1.32e-19
5.24814e-19
1.95783e-18
6.18563e-18
2.12025e-17
6.16797e-17
2.2817e-16
1.21628e-15
3.02162e-13
0.000136805
0.00269968
0.0126057
0.0279281
0.0445563
0.0642879
0.0465597
0.042945
0.0194241
0.00947127
0.00894576
5.84148e-24
7.05414e-20
1.73507e-19
6.15132e-19
2.17064e-18
6.43964e-18
2.33111e-17
6.93792e-17
3.08236e-16
2.30497e-15
1.26026e-11
0.00051694
0.0060552
0.0226272
0.044203
0.0653777
0.0879123
0.0611252
0.0501554
0.0221721
0.0101821
0.00905718
5.79754e-24
4.35031e-20
1.34496e-19
5.5315e-19
2.16072e-18
6.77174e-18
2.4619e-17
7.72314e-17
4.08474e-16
5.44571e-15
5.47988e-10
0.00130731
0.0119559
0.0366018
0.0642045
0.0885804
0.110679
0.073721
0.055902
0.0246339
0.0108428
0.00916919
5.78117e-24
7.32653e-20
1.80292e-19
6.49149e-19
2.38807e-18
7.01183e-18
2.71834e-17
8.90731e-17
6.61741e-16
1.69234e-14
4.40814e-08
0.00312668
0.0211495
0.0538439
0.0862782
0.11177
0.129211
0.0828481
0.0601558
0.02678
0.0114529
0.00927899
5.73666e-24
4.30543e-20
1.36875e-19
5.82423e-19
2.38696e-18
7.4384e-18
2.90085e-17
1.02319e-16
1.08045e-15
7.52732e-14
8.53807e-06
0.0065296
0.0336952
0.073434
0.108699
0.132208
0.141005
0.0881993
0.0632072
0.0285835
0.0119986
0.00938714
5.72357e-24
7.57313e-20
1.86807e-19
6.832e-19
2.62936e-18
7.6733e-18
3.23054e-17
1.2225e-16
2.19382e-15
7.80211e-13
0.000165968
0.0123216
0.0490059
0.0937593
0.129064
0.147645
0.145259
0.0905767
0.0654154
0.030084
0.0124935
0.00949146
5.67824e-24
4.24355e-20
1.38577e-19
6.1095e-19
2.63524e-18
8.19364e-18
3.49415e-17
1.4647e-16
4.3403e-15
1.34062e-11
0.000641362
0.0209202
0.066028
0.113534
0.145724
0.156783
0.143009
0.0912428
0.0671335
0.0312967
0.0129352
0.00959327
5.66783e-24
7.80249e-20
1.92476e-19
7.15509e-19
2.88999e-18
8.41865e-18
3.9435e-17
1.83589e-16
1.0276e-14
1.66104e-10
0.00166169
0.0321984
0.083552
0.131182
0.157208
0.159683
0.13656
0.0913217
0.0685831
0.0322851
0.0133488
0.00969106
5.62196e-24
4.19658e-20
1.39798e-19
6.38032e-19
2.90276e-18
9.03807e-18
4.35036e-17
2.31503e-16
2.24212e-14
1.55802e-09
0.00374893
0.0456053
0.100465
0.145798
0.163409
0.15748
0.128467
0.0914416
0.0699096
0.033081
0.0137419
0.00978684
5.61509e-24
8.02778e-20
1.97585e-19
7.45845e-19
3.17134e-18
9.26778e-18
5.02669e-17
3.0644e-16
5.64423e-14
1.37793e-08
0.00740286
0.0601638
0.115881
0.156583
0.164722
0.151989
0.120692
0.0917985
0.0711607
0.0337617
0.0141481
0.00987966
5.56743e-24
4.17937e-20
1.4077e-19
6.63903e-19
3.19222e-18
9.99307e-18
5.7156e-17
4.08482e-16
1.30487e-13
3.18859e-07
0.0130098
0.0749823
0.129171
0.163576
0.162468
0.145005
0.114246
0.0923261
0.0723603
0.0343727
0.0145814
0.00997203
5.56306e-24
8.24867e-20
2.02105e-19
7.74049e-19
3.47306e-18
1.02328e-17
6.84641e-17
5.73384e-16
3.92555e-13
1.86836e-05
0.0204996
0.0891783
0.139972
0.166989
0.157863
0.137939
0.109351
0.0928922
0.073491
0.0349966
0.0150789
0.0100634
5.51426e-24
4.18614e-20
1.41229e-19
6.87563e-19
3.50176e-18
1.10697e-17
8.13346e-17
8.10441e-16
1.83004e-12
0.000209982
0.029566
0.102199
0.148157
0.167599
0.152237
0.131597
0.105793
0.093375
0.0745417
0.0356754
0.0156532
0.0101564
5.51325e-24
8.46786e-20
2.05805e-19
7.99253e-19
3.79645e-18
1.13448e-17
1.02519e-16
1.20445e-15
1.28019e-11
0.000695757
0.0395991
0.113615
0.153823
0.166072
0.146383
0.126306
0.103229
0.093706
0.0754824
0.0364719
0.0163347
0.0102507
5.4622e-24
4.20366e-20
1.40974e-19
7.0846e-19
3.8339e-18
1.23056e-17
1.28838e-16
1.79587e-15
7.40955e-11
0.0013882
0.0500941
0.123242
0.157223
0.163237
0.14092
0.122059
0.101341
0.0938537
0.0762966
0.0373976
0.017123
0.0103488
5.46322e-24
8.68099e-20
2.08987e-19
8.21841e-19
4.14343e-18
1.26539e-17
1.72488e-16
2.80974e-15
3.56413e-10
0.00238954
0.0605108
0.130976
0.158717
0.159617
0.136031
0.118711
0.0998927
0.093821
0.0769559
0.0384747
0.0180314
0.01045
5.41111e-24
4.22488e-20
1.39908e-19
7.26658e-19
4.19118e-18
1.37427e-17
2.30154e-16
4.38995e-15
1.38691e-09
0.00380147
0.070505
0.136883
0.158698
0.155724
0.131836
0.116066
0.0987266
0.0936224
0.0774455
0.0396743
0.0190385
0.0105565
5.41524e-24
8.89217e-20
2.11423e-19
8.42424e-19
4.5229e-18
1.41941e-17
3.2642e-16
7.08398e-15
4.74625e-09
0.00576082
0.0797451
0.141066
0.15755
0.151788
0.128242
0.113952
0.0977458
0.0932842
0.0777413
0.0409836
0.0201363
0.010667
5.35966e-24
4.22814e-20
1.37818e-19
7.42932e-19
4.58534e-18
1.54551e-17
4.58301e-16
1.12967e-14
1.44508e-08
0.0083791
0.0880896
0.143738
0.15561
0.148032
0.125206
0.112223
0.0968945
0.0928309
0.0778322
0.0423521
0.0212838
0.0107831
5.36572e-24
8.84611e-20
2.10348e-19
8.57278e-19
4.93687e-18
1.60489e-17
6.78027e-16
1.85083e-14
4.27951e-08
0.0117571
0.0954352
0.145105
0.15316
0.144498
0.122597
0.110774
0.0961437
0.0922907
0.0776991
0.0437607
0.0224599
0.0109032
5.30611e-24
4.14887e-20
1.32585e-19
7.51682e-19
5.0106e-18
1.74645e-17
9.80584e-16
2.99215e-14
2.19497e-07
0.0160434
0.101845
0.145426
0.150417
0.141265
0.120359
0.109529
0.0954813
0.0916871
0.0773359
0.0451705
0.0236169
0.0110282
5.31255e-24
8.5267e-20
2.03835e-19
8.62111e-19
5.38141e-18
1.81878e-17
1.47482e-15
5.74629e-14
1.11976e-05
0.0214489
0.107403
0.144922
0.147548
0.138301
0.118392
0.108437
0.0949052
0.0910465
0.0767309
0.0465894
0.024736
0.0111563
5.24618e-24
4.16179e-20
1.27335e-19
7.57764e-19
5.48323e-18
1.98593e-17
2.14262e-15
4.65084e-13
0.000194292
0.0283392
0.112291
0.143826
0.14467
0.13564
0.11667
0.107465
0.0944203
0.090391
0.0758872
0.0480154
0.02578
0.0112883
5.24951e-24
5.37925e-20
1.5473e-19
7.99533e-19
5.76925e-18
2.06407e-17
3.20181e-15
2.31304e-11
0.00132691
0.037175
0.116644
0.142319
0.141863
0.13324
0.115128
0.106599
0.094036
0.0897453
0.074806
0.049495
0.0267527
0.011422
5.17277e-24
4.32838e-20
1.14482e-19
7.24346e-19
5.94106e-18
2.35479e-17
4.66333e-15
1.03289e-09
0.00512057
0.0482542
0.120609
0.14058
0.139176
0.131136
0.113768
0.105829
0.0937643
0.0891288
0.0735074
0.0510531
0.0276463
0.0115584
5.16609e-24
1.93962e-21
1.12099e-20
4.00679e-19
5.44957e-18
2.44404e-17
7.20798e-15
1.83088e-07
0.0136665
0.0615189
0.124224
0.138737
0.136635
0.129293
0.112551
0.105163
0.0936182
0.0885608
0.072014
0.0527286
0.0284995
0.0116955
5.07799e-24
1.71179e-20
4.47776e-20
4.1743e-19
5.46304e-18
3.62132e-17
1.80091e-14
4.70994e-05
0.0286858
0.0766835
0.127501
0.136917
0.134239
0.127766
0.111508
0.104608
0.0936096
0.0880509
0.0703728
0.054468
0.0293269
0.0118345
5.03914e-24
6.7206e-22
8.45984e-23
2.35265e-19
5.06686e-18
8.28279e-17
3.70833e-13
0.000995224
0.0513126
0.0932957
0.130346
0.135204
0.131972
0.126524
0.110612
0.104186
0.093749
0.0876036
0.0686362
0.0561059
0.0301295
0.011976
4.8385e-24
2.10347e-19
4.58193e-19
1.02966e-18
7.26152e-18
9.13692e-16
7.18256e-12
0.00602398
0.0819694
0.111113
0.13287
0.133749
0.129816
0.125616
0.109893
0.103907
0.0940319
0.0871648
0.0668698
0.057219
0.0306029
0.0121338
0.00987657
0.020256
0.0218136
0.00833304
0.00718272
0.00740611
0.00761654
0.00787379
0.00784023
0.00816104
0.0109225
0.00974787
0.00877301
0.00850394
0.00976219
0.011808
0.0136
0.0152089
0.0155331
0.0136485
0.0123196
0.0124408
0.0129208
0.013342
0.0137531
0.0132669
0.0132179
0.0643585
0.115466
0.117735
0.112267
0.109087
0.109703
0.119902
0.137941
0.00986353
0.0205516
0.0210491
0.00798622
0.00700985
0.00723948
0.00760385
0.00788982
0.00780462
0.00814398
0.0106739
0.00943391
0.00842149
0.00805045
0.00926146
0.0114642
0.013506
0.0152744
0.0156763
0.0136197
0.0121006
0.0121727
0.0126795
0.013144
0.0135852
0.0131297
0.0127781
0.0636061
0.115309
0.117619
0.112187
0.109019
0.109668
0.119869
0.137922
0.00983842
0.0207718
0.0197241
0.00739283
0.0067983
0.00701626
0.00764725
0.00796812
0.00780051
0.00814474
0.00985355
0.00853941
0.0075818
0.00700175
0.00784702
0.00979406
0.0117672
0.0135204
0.0142812
0.0127177
0.0114425
0.011571
0.0121585
0.0127322
0.0132665
0.0129174
0.012696
0.0625959
0.114938
0.117328
0.111972
0.108831
0.109554
0.119755
0.137839
0.00979929
0.0209169
0.0180353
0.00677218
0.00661419
0.00682605
0.00773462
0.00802392
0.00781007
0.00817007
0.0089633
0.00755668
0.00660953
0.00586242
0.00634604
0.00792231
0.00964058
0.0111632
0.0121653
0.0113071
0.0104574
0.0106723
0.0113534
0.0120784
0.0127647
0.0125718
0.0127532
0.0612646
0.114351
0.116865
0.111625
0.108524
0.109358
0.119559
0.13769
0.00974597
0.0209125
0.0161218
0.00615381
0.00641041
0.00662533
0.00777554
0.00798143
0.0077586
0.00814184
0.00819125
0.00670184
0.00575137
0.00490443
0.00507622
0.00628842
0.00773085
0.00893282
0.0099513
0.0097001
0.00926806
0.0095441
0.0102888
0.0111723
0.0120592
0.0120534
0.012785
0.0595486
0.113561
0.116245
0.111158
0.10811
0.109092
0.119295
0.137489
0.00967615
0.0206966
0.0141052
0.00553796
0.00615964
0.00637577
0.00770357
0.00780261
0.00758874
0.00797939
0.0075181
0.00598356
0.00503341
0.00414481
0.00406711
0.00494483
0.00616748
0.00710213
0.00798372
0.00811597
0.00799226
0.00827669
0.00902295
0.0100292
0.0111424
0.0113409
0.0126712
0.0573967
0.112585
0.115494
0.110593
0.107609
0.108774
0.118981
0.137253
0.00959042
0.0202337
0.0121041
0.00495091
0.00587741
0.00608079
0.00750425
0.00749016
0.00728501
0.00765051
0.00687422
0.00533747
0.00439682
0.00353209
0.00328842
0.0038504
0.00488034
0.00565508
0.00636474
0.00667114
0.00672455
0.00696798
0.00764447
0.00869735
0.0100253
0.0104338
0.0123296
0.0547774
0.111447
0.114645
0.109957
0.107047
0.108427
0.118641
0.137008
0.00948687
0.0195011
0.0102249
0.00443543
0.00560316
0.00577154
0.0072046
0.00707569
0.00686727
0.00716869
0.0062145
0.00471588
0.00380315
0.00303634
0.00273123
0.00301005
0.00380876
0.00447964
0.00505201
0.00540046
0.00553028
0.00570681
0.00625864
0.00726075
0.00874346
0.00935387
0.0117126
0.0516824
0.110172
0.113734
0.109279
0.106453
0.108076
0.118303
0.136779
0.00936733
0.0185059
0.00854493
0.00402871
0.00537788
0.00548752
0.00685163
0.00660407
0.00637362
0.00657526
0.00553301
0.00410555
0.00324925
0.00265074
0.00238531
0.00245239
0.00297055
0.00350759
0.0039709
0.00430062
0.00445114
0.00456265
0.00496827
0.00583087
0.00736316
0.00814742
0.0108069
0.0481306
0.108784
0.112798
0.108591
0.105858
0.107748
0.117997
0.136597
0.0092307
0.0172665
0.00710708
0.00374977
0.00523286
0.00526457
0.00649669
0.00612336
0.00585066
0.00592213
0.00484699
0.00351774
0.0027564
0.00236588
0.0022133
0.00216284
0.00240251
0.00274493
0.0030865
0.00336942
0.00351752
0.00358411
0.00385653
0.00452755
0.0059812
0.00688544
0.00963756
0.0441736
0.107306
0.111873
0.107924
0.105292
0.107471
0.117752
0.136492
0.00908003
0.015827
0.00592125
0.00359937
0.00518728
0.00513013
0.0061863
0.00567809
0.00534391
0.00526224
0.00418634
0.00297464
0.00234609
0.00216365
0.00215775
0.00207642
0.00209276
0.00221758
0.00241006
0.00262363
0.00275758
0.00280297
0.00297777
0.00345361
0.00471357
0.00565931
0.00827434
0.0399044
0.105761
0.110994
0.107307
0.104786
0.107273
0.117598
0.136492
0.00891508
0.0142381
0.0049759
0.00356709
0.00525115
0.00510255
0.00595866
0.0053064
0.00489467
0.0046442
0.00358278
0.0025032
0.00203106
0.00201912
0.00215708
0.00210539
0.00197409
0.00191005
0.001953
0.00208355
0.00219328
0.00223397
0.00235342
0.00267177
0.00367092
0.00456906
0.00683441
0.0354691
0.104173
0.110193
0.106768
0.104368
0.107178
0.117565
0.136626
0.00874002
0.0125704
0.00424966
0.00364005
0.00542977
0.00519246
0.0058424
0.00503795
0.00453716
0.00410988
0.00306682
0.00212756
0.00180881
0.0019083
0.00216158
0.00216902
0.00195963
0.00176112
0.0016868
0.00174213
0.00182353
0.00186766
0.00196894
0.00219016
0.00292644
0.00370235
0.00547057
0.0310726
0.102575
0.109497
0.106333
0.104065
0.107213
0.11768
0.136922
0.00855535
0.0108952
0.00372252
0.00380932
0.00572832
0.00540547
0.00585714
0.00489365
0.0042964
0.00369159
0.00266258
0.00186541
0.00166497
0.00181474
0.00213998
0.00220975
0.0019733
0.00169606
0.00154951
0.00155493
0.00161541
0.00166852
0.00177928
0.00196556
0.002492
0.00310905
0.00433661
0.0269707
0.101017
0.108929
0.106023
0.103901
0.107399
0.117969
0.137404
0.00836592
0.00929192
0.00338839
0.00407329
0.00615572
0.00574565
0.00601461
0.00488723
0.00418733
0.0034105
0.00238514
0.00171613
0.0015808
0.00173127
0.00208134
0.00219959
0.00196718
0.00165605
0.00147802
0.00146326
0.00151876
0.00158901
0.0017288
0.00192971
0.00232254
0.00278585
0.00353721
0.0234325
0.0995703
0.108511
0.105857
0.103896
0.107756
0.118456
0.138096
0.00817267
0.00782921
0.00324712
0.00443885
0.00672669
0.00622168
0.00632352
0.00502632
0.0042165
0.00327562
0.00224072
0.0016646
0.00154107
0.00165778
0.00199059
0.00213483
0.00192252
0.00160928
0.00142994
0.00141994
0.0014886
0.00158742
0.00177086
0.00201815
0.00234663
0.00268539
0.00309453
0.0206691
0.0983341
0.108258
0.10585
0.104069
0.108303
0.119163
0.139018
0.00798033
0.00656572
0.00330815
0.00492201
0.00746392
0.00685371
0.00679395
0.00531593
0.0043866
0.00328792
0.00222744
0.00169001
0.00153366
0.00159643
0.00188294
0.0020295
0.0018429
0.00154795
0.00138687
0.00139912
0.00149662
0.00163665
0.00187511
0.00218344
0.00249472
0.00274251
0.00296064
0.0187673
0.0974197
0.108183
0.106015
0.104437
0.109054
0.120109
0.140188
0.00778933
0.00554205
0.00358991
0.00555023
0.0084008
0.00767469
0.00744253
0.00576345
0.0046991
0.00344448
0.0023371
0.00177794
0.00155151
0.00154849
0.00177498
0.00190502
0.00174302
0.00147783
0.00134655
0.00139228
0.00153075
0.00172368
0.0020254
0.00239564
0.00271225
0.00289748
0.00306038
0.0176915
0.0969312
0.108298
0.106362
0.105012
0.110026
0.121313
0.141624
0.00760307
0.00477547
0.00412051
0.0063622
0.00958248
0.00873321
0.00829643
0.00638391
0.0051584
0.00374288
0.00256176
0.00191925
0.0015908
0.0015131
0.00167899
0.00178272
0.00164037
0.001409
0.00131318
0.00140001
0.00158919
0.0018449
0.00221425
0.00263742
0.00296247
0.00310755
0.00332678
0.0173502
0.0969445
0.108609
0.106899
0.105808
0.111229
0.122792
0.143339
0.00742066
0.00425527
0.00494466
0.00740713
0.0110656
0.0100922
0.00939411
0.0072026
0.00577403
0.00418356
0.0028985
0.00211434
0.0016533
0.00148951
0.00159989
0.00167667
0.00154853
0.00135005
0.00129152
0.00142545
0.00167444
0.0020008
0.00243763
0.00289854
0.00322417
0.00334894
0.00371639
0.0176587
0.0974979
0.109121
0.107632
0.106833
0.112675
0.12456
0.145347
0.00724378
0.00394566
0.00613818
0.00874266
0.0129162
0.0118242
0.0107828
0.00825498
0.00656232
0.00477235
0.00335313
0.00236866
0.00174463
0.001479
0.00153793
0.00159341
0.00147569
0.00130655
0.00128479
0.00147144
0.00178957
0.00219231
0.0026916
0.0031722
0.00348761
0.00361351
0.00421036
0.0185636
0.0985926
0.109838
0.108566
0.108098
0.114374
0.126632
0.147659
0.00707145
0.0037995
0.00781549
0.0104394
0.0152097
0.0140066
0.0125144
0.00958201
0.00754424
0.00551961
0.00393774
0.00269664
0.00187686
0.00148744
0.00149217
0.00153327
0.00142487
0.00128145
0.00129503
0.00153967
0.00193656
0.00241863
0.00297088
0.00345335
0.00375076
0.00390385
0.00480884
0.0200397
0.100201
0.110761
0.109705
0.109611
0.116334
0.129021
0.150286
0.00690537
0.0037888
0.0101098
0.0125935
0.0180373
0.0167233
0.0146443
0.0112253
0.00874532
0.0064363
0.00466531
0.0031128
0.00206476
0.00152559
0.00146475
0.0014956
0.00139715
0.00127683
0.0013239
0.00163092
0.00211545
0.00267648
0.00326891
0.00373841
0.0040165
0.00422932
0.0055248
0.0220807
0.102276
0.11189
0.111052
0.111379
0.118566
0.13174
0.153237
0.00674534
0.00389481
0.013169
0.0153436
0.0215173
0.0200722
0.0172336
0.0132226
0.0101852
0.00752684
0.00553707
0.0036283
0.00232379
0.00160976
0.00146232
0.00148094
0.00139342
0.001295
0.00137369
0.00174516
0.00232419
0.00296014
0.0035787
0.00402553
0.00429081
0.00460308
0.00637922
0.02469
0.104761
0.113223
0.11261
0.11341
0.121075
0.134802
0.156518
0.00659312
0.00411529
0.0171242
0.0188865
0.0258012
0.024167
0.0203475
0.0156025
0.0118724
0.00878015
0.00653039
0.00423248
0.00265729
0.00175849
0.00149734
0.00149377
0.0014165
0.00133959
0.00144795
0.00188201
0.00255851
0.00326233
0.00389408
0.0043148
0.00458159
0.00504046
0.00739822
0.0278731
0.107599
0.11476
0.114379
0.115711
0.12387
0.138217
0.160137
0.00644962
0.00447382
0.0220633
0.0234757
0.0310623
0.0291167
0.0240378
0.0183705
0.0137911
0.0101612
0.00759007
0.00488938
0.00304967
0.00198503
0.00158695
0.00154198
0.00147092
0.00141567
0.0015522
0.00204121
0.00281261
0.0035753
0.00421059
0.00460842
0.00489798
0.00555798
0.00861137
0.0316324
0.110736
0.116497
0.116362
0.118287
0.126957
0.141997
0.164099
0.00631698
0.00502118
0.0280116
0.0293966
0.0374585
0.0349746
0.0283043
0.0214842
0.0158862
0.0116005
0.00863076
0.00553409
0.00346263
0.00228529
0.00174988
0.0016379
0.00156384
0.00153012
0.00169405
0.00222394
0.00308014
0.00389228
0.00452622
0.00491042
0.00524987
0.00617297
0.0100509
0.0359635
0.114125
0.118432
0.118559
0.121146
0.130341
0.146151
0.168408
0.00619775
0.00583353
0.034956
0.0369236
0.0450755
0.0416704
0.0330457
0.0248242
0.0180483
0.0129938
0.00954893
0.00609467
0.00385247
0.00263571
0.00199641
0.0017953
0.0017042
0.00169148
0.00188355
0.00243393
0.00335592
0.00420854
0.00484154
0.00522637
0.0056476
0.00690329
0.011751
0.0408535
0.117729
0.120563
0.120971
0.124291
0.134029
0.15069
0.173067
0.00609509
0.00699265
0.0428983
0.0462735
0.0538685
0.0489557
0.0380225
0.0281784
0.0201117
0.0142121
0.0102433
0.00650785
0.00418453
0.00300493
0.00232057
0.00202604
0.00190259
0.00190995
0.00213252
0.00267892
0.00363751
0.00452241
0.00515962
0.00556288
0.00610162
0.00776746
0.013748
0.0462805
0.121516
0.122884
0.123596
0.127728
0.138026
0.155622
0.178075
0.00601408
0.00856796
0.0519165
0.0575512
0.063606
0.0563837
0.0428534
0.0312519
0.0218694
0.0151193
0.0106346
0.00674014
0.00444566
0.00336906
0.00270009
0.00233121
0.00216707
0.00219545
0.00245346
0.00297065
0.00392682
0.00483555
0.00548555
0.00592715
0.00662239
0.00878456
0.0160794
0.0522137
0.125462
0.125393
0.126435
0.131461
0.142335
0.160956
0.183434
0.00596079
0.0106004
0.0621562
0.0706424
0.0738094
0.0633249
0.0470491
0.0337014
0.0231043
0.0155975
0.0106796
0.00678498
0.00463665
0.0037151
0.00310809
0.00269898
0.0024995
0.00255469
0.00285612
0.0033241
0.00423083
0.00515313
0.00582605
0.00632643
0.00722005
0.00997457
0.018784
0.0586155
0.12955
0.128083
0.129485
0.135492
0.14696
0.166699
0.189143
0.00594609
0.0131185
0.0737543
0.0850396
0.0837033
0.0690236
0.0500811
0.0351912
0.0236291
0.0155671
0.0103743
0.00666026
0.00476572
0.0040356
0.00351841
0.00310431
0.00288984
0.00298568
0.00334298
0.00375395
0.00456174
0.00548335
0.00618871
0.00676752
0.00790436
0.0113583
0.0219014
0.0654437
0.133766
0.130949
0.132744
0.139825
0.151907
0.172861
0.1952
0.00598322
0.0161533
0.0866588
0.0996783
0.0922371
0.0727084
0.0514775
0.0354584
0.0233243
0.0150036
0.00975067
0.00639313
0.00483749
0.00432184
0.00390869
0.00351783
0.00331746
0.00347459
0.00390373
0.00427011
0.00493582
0.00583706
0.0065815
0.00725621
0.00868435
0.012958
0.025471
0.0726532
0.138099
0.133983
0.136213
0.144464
0.157181
0.179453
0.201606
0.00609167
0.019765
0.100445
0.112963
0.0982444
0.0737577
0.0509309
0.034375
0.0221664
0.0139408
0.00886935
0.00601864
0.00485524
0.00456213
0.00425706
0.00390885
0.00375307
0.00399495
0.00451301
0.00487052
0.00537117
0.00622654
0.00701196
0.00779673
0.00956831
0.014797
0.0295312
0.0801992
0.142542
0.137179
0.13989
0.149415
0.16279
0.186488
0.208362
0.00628805
0.024026
0.114203
0.123097
0.100731
0.0718701
0.0483847
0.0319861
0.0202367
0.0124669
0.00781264
0.00557356
0.00482134
0.00474528
0.00454616
0.00425324
0.00416738
0.00451355
0.00513344
0.00553733
0.00588352
0.00666439
0.00748641
0.00839113
0.0105635
0.0169004
0.0341187
0.0880386
0.14709
0.14053
0.143778
0.154688
0.168745
0.193984
0.215475
0.00658505
0.0290213
0.126705
0.12862
0.0991778
0.0671687
0.0440611
0.0285088
0.0177078
0.0107096
0.00667786
0.00510049
0.00474489
0.00486538
0.00476348
0.00453293
0.00453468
0.00499663
0.00572355
0.00623572
0.00648056
0.00716112
0.00800898
0.00903878
0.011676
0.0192949
0.0392678
0.0961334
0.151739
0.144032
0.147883
0.160295
0.175063
0.201968
0.222957
0.00697682
0.0347688
0.136697
0.128849
0.0936951
0.0601731
0.038409
0.0242833
0.014809
0.00882049
0.00556854
0.0046408
0.00463964
0.0049252
0.00490693
0.00474141
0.00483961
0.00541861
0.00624809
0.00692242
0.00715598
0.00772255
0.00858058
0.00973596
0.0129109
0.0220088
0.0450096
0.104453
0.156489
0.147683
0.152216
0.166259
0.181767
0.210475
0.230825
0.00744499
0.0411616
0.143188
0.123968
0.084951
0.0516536
0.0319941
0.0197003
0.0117883
0.00695975
0.00458041
0.00423204
0.00452394
0.00493432
0.00498139
0.00487956
0.00507567
0.00576443
0.00668436
0.00755426
0.00788608
0.00834609
0.00919784
0.0104759
0.0142726
0.0250727
0.0513729
0.112976
0.161345
0.151488
0.156795
0.17261
0.18889
0.21955
0.239109
0.00795396
0.0477329
0.145473
0.11477
0.0739304
0.0424351
0.025376
0.0151329
0.00888507
0.00528619
0.00378108
0.00389746
0.00441174
0.00490494
0.00499887
0.00495766
0.00524764
0.00603266
0.00702613
0.00810073
0.0086319
0.00901848
0.00985266
0.0112494
0.0157649
0.0285201
0.0583855
0.121695
0.166317
0.155458
0.161645
0.179392
0.196471
0.229252
0.247845
0.00846726
0.053579
0.143079
0.102304
0.061666
0.0332386
0.0190276
0.0109063
0.00632273
0.00393659
0.00319427
0.00364543
0.0043103
0.0048453
0.00497025
0.004988
0.00536599
0.00623118
0.00728051
0.00854569
0.00934652
0.00971477
0.0105323
0.0120459
0.0173931
0.0323886
0.0660771
0.130619
0.171421
0.159612
0.1668
0.186656
0.204562
0.239654
0.257082
0.00894498
0.0573025
0.13568
0.087619
0.0490559
0.0246072
0.013316
0.00730261
0.004298
0.00298195
0.00280183
0.00346651
0.00421447
0.0047562
0.00490416
0.00498544
0.00544745
0.00637651
0.00746558
0.00889106
0.00998574
0.0104018
0.0112207
0.0128555
0.0191648
0.0367225
0.0744828
0.139779
0.176684
0.163981
0.172303
0.194469
0.213224
0.250839
0.266881
0.0093615
0.0574857
0.123175
0.0716913
0.036821
0.0169299
0.0085398
0.00456125
0.00291994
0.00239155
0.00256123
0.00333953
0.00410995
0.00462863
0.00480031
0.0049602
0.00550893
0.0064879
0.00760382
0.00914953
0.0105169
0.0110436
0.0119009
0.0136708
0.0210928
0.0415758
0.0836483
0.149227
0.182141
0.168604
0.178205
0.202907
0.222526
0.262904
0.277308
0.0096768
0.0529356
0.105729
0.0554564
0.0255797
0.0105312
0.00496287
0.00279339
0.00212328
0.00206303
0.0024199
0.00323357
0.00397389
0.00444763
0.00465346
0.00491986
0.00556975
0.00658836
0.00772128
0.00934475
0.0109253
0.0116099
0.0125574
0.0144881
0.0231968
0.0470162
0.0936336
0.159038
0.187837
0.173529
0.184562
0.21205
0.232542
0.27595
0.288439
0.00988074
0.0435957
0.084091
0.0397973
0.0159012
0.00570805
0.00270296
0.00183194
0.00169598
0.0018698
0.00231126
0.00310494
0.0037727
0.00419022
0.00444766
0.00485765
0.0056405
0.00669451
0.00784118
0.00950372
0.0112152
0.0120805
0.0131782
0.015308
0.0255052
0.0531298
0.104517
0.169313
0.193827
0.178809
0.191433
0.221984
0.24335
0.290082
0.300349
4.88274e-24
3.15584e-19
1.14402e-18
4.32537e-18
2.51038e-17
3.16903e-14
9.07471e-11
0.0220983
0.110757
0.124881
0.134443
0.132873
0.128286
0.125206
0.109508
0.103867
0.0944119
0.0867291
0.065553
0.0574274
0.0302135
0.0121455
4.99654e-24
7.39768e-20
8.36255e-20
6.26058e-18
6.26971e-17
2.47327e-13
9.29643e-10
0.0416211
0.130329
0.133194
0.135024
0.132324
0.127398
0.12514
0.109467
0.10401
0.0948688
0.086466
0.0649012
0.0572194
0.0297765
0.0121961
5.10254e-24
2.76636e-19
8.77994e-19
8.90502e-18
1.22428e-16
9.31281e-13
9.35825e-09
0.0648791
0.147842
0.140037
0.135311
0.131868
0.126716
0.125252
0.109625
0.104307
0.0954915
0.0862762
0.0645788
0.056646
0.0292386
0.0123557
5.06237e-24
5.72603e-20
2.14761e-20
6.84923e-18
1.92273e-16
2.2798e-12
1.69672e-07
0.0894219
0.163005
0.145632
0.135581
0.131579
0.126286
0.125575
0.110012
0.104744
0.0962513
0.0861657
0.0645741
0.0557378
0.0286343
0.012614
5.16611e-24
2.21293e-19
6.32052e-19
7.22645e-18
2.87923e-16
3.60592e-12
6.53618e-06
0.111503
0.175808
0.150202
0.136028
0.131511
0.126151
0.126097
0.110608
0.105312
0.0971161
0.0861357
0.0648556
0.054564
0.028009
0.012962
5.11437e-24
4.59231e-20
1.20653e-20
4.61323e-18
4.09361e-16
4.8643e-12
1.85691e-05
0.127026
0.186351
0.153989
0.136812
0.131727
0.126346
0.126857
0.111446
0.106001
0.0980525
0.0861825
0.0653893
0.0531807
0.0273728
0.0134169
5.22957e-24
1.78675e-19
4.73233e-19
4.63389e-18
5.79681e-16
5.05217e-12
3.43092e-05
0.134012
0.194811
0.157188
0.138023
0.132266
0.126904
0.127845
0.112507
0.106814
0.0990301
0.0863032
0.066124
0.0516682
0.0267514
0.0139925
5.17051e-24
3.80399e-20
7.87935e-21
2.77871e-18
7.71463e-16
4.36919e-12
2.56633e-05
0.133019
0.201328
0.159983
0.139732
0.133176
0.127845
0.129106
0.113828
0.107754
0.100024
0.086489
0.0670143
0.0500811
0.0261426
0.0147062
5.29821e-24
1.46646e-19
3.69452e-19
2.85965e-18
9.84799e-16
2.87537e-12
2.72759e-05
0.126108
0.206013
0.162488
0.141956
0.134482
0.129189
0.130628
0.115394
0.108837
0.101018
0.0867331
0.0680039
0.0484911
0.0255654
0.015562
5.22379e-24
3.24409e-20
5.88672e-21
1.68617e-18
1.14686e-15
1.68648e-12
3.51331e-05
0.11521
0.20886
0.164788
0.144712
0.13622
0.130946
0.132455
0.117244
0.110079
0.102011
0.0870251
0.0690515
0.0469384
0.025011
0.0165631
5.35795e-24
1.21921e-19
2.97312e-19
1.84118e-18
1.25094e-15
8.51101e-13
3.99687e-05
0.101559
0.209789
0.166893
0.147967
0.138401
0.133123
0.134571
0.119364
0.111507
0.103013
0.0873594
0.0701091
0.0454791
0.0244947
0.017695
5.27139e-24
2.84272e-20
4.6913e-21
1.08015e-18
1.23784e-15
4.15942e-13
4.09534e-05
0.0862888
0.208585
0.16877
0.151694
0.141049
0.135726
0.137014
0.121793
0.113144
0.104047
0.0877291
0.07115
0.0441362
0.0240033
0.0189423
5.41236e-24
1.02856e-19
2.48084e-19
1.26216e-18
1.14709e-15
1.89066e-13
3.4806e-05
0.070342
0.204971
0.170305
0.155814