/*--------------------------------*- C++ -*----------------------------------*\
| =========                 |                                                 |
| \\      /  F ield         | OpenFOAM: The Open Source CFD Toolbox           |
|  \\    /   O peration     | Version:  v1912                                 |
|   \\  /    A nd           | Website:  www.openfoam.com                      |
|    \\/     M anipulation  |                                                 |
\*---------------------------------------------------------------------------*/
FoamFile
{
    version     2.0;
    format      ascii;
    class       volScalarField;
    location    "240";
    object      p;
}
// * * * * * * * * * * * * * * * * * * * * * * * * * * * * * * * * * * * * * //

dimensions      [0 2 -2 0 0 0 0];


internalField   nonuniform List<scalar> 
12441
(
8.48777
8.77889
9.61081
10.9027
12.5816
14.7025
17.3509
20.6328
24.7446
29.8466
36.1453
43.9162
53.6131
65.2751
81.1812
100.948
128.911
163.514
219.567
281.698
373.136
437.491
8.48776
8.77888
9.6108
10.9027
12.5816
14.7024
17.3509
20.6327
24.7445
29.8463
36.145
43.9156
53.6121
65.2734
81.1781
100.941
128.896
163.49
219.485
281.622
373.086
437.291
8.48775
8.77886
9.61078
10.9027
12.5816
14.7023
17.3508
20.6325
24.7442
29.8459
36.1443
43.9144
53.6101
65.2699
81.1721
100.927
128.871
163.435
219.314
281.44
372.95
436.93
8.48773
8.77883
9.61074
10.9026
12.5815
14.7022
17.3506
20.6322
24.7437
29.8452
36.1432
43.9126
53.6071
65.2648
81.163
100.907
128.839
163.349
219.135
281.161
372.705
436.369
8.4877
8.7788
9.6107
10.9025
12.5814
14.7021
17.3503
20.6318
24.7431
29.8442
36.1417
43.9101
53.6031
65.2579
81.151
100.881
128.797
163.243
218.969
280.811
372.36
435.603
8.48766
8.77876
9.61064
10.9025
12.5813
14.7019
17.35
20.6313
24.7424
29.843
36.1399
43.9071
53.5981
65.2492
81.1359
100.848
128.746
163.118
218.782
280.387
371.921
434.634
8.48761
8.7787
9.61057
10.9024
12.5811
14.7016
17.3497
20.6307
24.7415
29.8416
36.1377
43.9034
53.5921
65.2388
81.1179
100.809
128.685
162.971
218.563
279.894
371.393
433.461
8.48756
8.77864
9.61049
10.9022
12.5809
14.7014
17.3492
20.63
24.7405
29.84
36.1352
43.8992
53.5852
65.2267
81.097
100.765
128.618
162.804
218.325
279.343
370.779
432.082
8.4875
8.77857
9.6104
10.9021
12.5807
14.701
17.3488
20.6292
24.7393
29.8381
36.1323
43.8943
53.5772
65.213
81.0735
100.716
128.549
162.624
218.087
278.748
370.084
430.492
8.48743
8.7785
9.61029
10.9019
12.5805
14.7007
17.3482
20.6283
24.738
29.8359
36.129
43.8888
53.5682
65.1976
81.0488
100.668
128.483
162.44
217.874
278.119
369.311
428.686
8.48735
8.77841
9.61018
10.9018
12.5802
14.7003
17.3476
20.6273
24.7365
29.8336
36.1254
43.8827
53.5583
65.1809
81.024
100.623
128.433
162.27
217.713
277.466
368.455
426.657
8.48727
8.77831
9.61005
10.9016
12.58
14.6999
17.3469
20.6262
24.7349
29.831
36.1214
43.876
53.5474
65.1638
81.0022
100.591
128.424
162.146
217.631
276.794
367.512
424.395
8.48718
8.77821
9.60992
10.9014
12.5797
14.6994
17.3462
20.625
24.7331
29.8282
36.1171
43.8687
53.5358
65.1482
80.9914
100.59
128.494
162.106
217.637
276.093
366.473
421.891
8.48708
8.7781
9.60977
10.9012
12.5793
14.6989
17.3454
20.6238
24.7312
29.8251
36.1123
43.8608
53.5242
65.1382
81.004
100.643
128.678
162.185
217.701
275.345
365.328
419.131
8.48698
8.77798
9.6096
10.9009
12.579
14.6983
17.3446
20.6224
24.7291
29.8218
36.1073
43.8524
53.5139
65.1406
81.0534
100.765
128.992
162.384
217.764
274.523
364.069
416.103
8.48686
8.77785
9.60943
10.9007
12.5786
14.6977
17.3437
20.6209
24.7269
29.8182
36.1018
43.8436
53.5074
65.1639
81.1496
100.961
129.417
162.656
217.756
273.602
362.686
412.795
8.48674
8.77771
9.60925
10.9004
12.5782
14.6971
17.3427
20.6193
24.7245
29.8144
36.0959
43.8351
53.5092
65.2142
81.2937
101.221
129.895
162.914
217.622
272.563
361.171
409.19
8.48661
8.77756
9.60905
10.9001
12.5777
14.6964
17.3417
20.6176
24.722
29.8104
36.0896
43.8277
53.5239
65.2942
81.478
101.517
130.339
163.067
217.336
271.394
359.52
405.277
8.48648
8.77741
9.60885
10.8998
12.5773
14.6957
17.3406
20.6158
24.7194
29.8061
36.0829
43.8234
53.5557
65.3993
81.6851
101.807
130.657
163.051
216.9
270.094
357.728
401.039
8.48633
8.77724
9.60863
10.8995
12.5768
14.695
17.3394
20.6139
24.7166
29.8016
36.0759
43.8246
53.6047
65.5221
81.8926
102.046
130.783
162.856
216.337
268.667
355.793
396.462
8.48618
8.77707
9.6084
10.8991
12.5763
14.6942
17.3382
20.612
24.7136
29.7968
36.0688
43.8342
53.6684
65.6501
82.0745
102.195
130.694
162.517
215.678
267.119
353.715
391.531
8.48602
8.77689
9.60816
10.8988
12.5757
14.6934
17.337
20.6099
24.7105
29.7917
36.0621
43.8542
53.7401
65.7732
82.2097
102.231
130.42
162.087
214.947
265.458
351.495
386.228
8.48585
8.7767
9.6079
10.8984
12.5752
14.6925
17.3356
20.6077
24.7072
29.7864
36.0565
43.8841
53.8144
65.8785
82.2827
102.156
130.021
161.615
214.163
263.695
349.134
380.537
8.48568
8.7765
9.60764
10.898
12.5746
14.6916
17.3342
20.6054
24.7038
29.7808
36.0533
43.9215
53.8836
65.9598
82.2908
101.989
129.566
161.129
213.334
261.837
346.634
374.44
8.4855
8.77629
9.60736
10.8976
12.574
14.6907
17.3328
20.6031
24.7003
29.7749
36.0539
43.9627
53.9447
66.0095
82.2391
101.759
129.109
160.637
212.466
259.895
343.998
367.918
8.48531
8.77607
9.60707
10.8972
12.5734
14.6897
17.3313
20.6006
24.6965
29.7688
36.0593
44.0041
53.9921
66.0291
82.1422
101.498
128.677
160.138
211.559
257.878
341.229
360.949
8.48511
8.77585
9.60677
10.8967
12.5727
14.6886
17.3297
20.598
24.6926
29.7625
36.0696
44.0425
54.0262
66.0183
82.0145
101.23
128.279
159.627
210.614
255.796
338.33
353.513
8.48491
8.77562
9.60646
10.8963
12.572
14.6876
17.3281
20.5953
24.6886
29.7563
36.0841
44.0755
54.0436
65.985
81.8714
100.968
127.907
159.098
209.629
253.656
335.301
345.584
8.4847
8.77538
9.60614
10.8958
12.5713
14.6865
17.3264
20.5926
24.6844
29.7502
36.1012
44.1018
54.0477
65.932
81.7221
100.72
127.554
158.55
208.605
251.465
332.144
337.138
8.48448
8.77512
9.60581
10.8953
12.5706
14.6853
17.3246
20.5897
24.68
29.7443
36.1191
44.1204
54.037
65.868
81.5743
100.484
127.21
157.981
207.54
249.228
328.856
328.145
8.48425
8.77487
9.60546
10.8948
12.5698
14.6842
17.3228
20.5867
24.6754
29.7389
36.1363
44.1313
54.0162
65.7948
81.4298
100.259
126.868
157.391
206.435
246.946
325.433
318.577
8.48401
8.7746
9.6051
10.8943
12.569
14.6829
17.321
20.5836
24.6707
29.734
36.1518
44.1344
53.9848
65.7187
81.2907
100.042
126.525
156.782
205.29
244.621
321.868
308.399
8.48377
8.77432
9.60473
10.8937
12.5682
14.6817
17.319
20.5804
24.6658
29.7299
36.165
44.1305
53.9476
65.6392
81.1552
99.8283
126.178
156.154
204.105
242.252
318.151
297.579
8.48352
8.77404
9.60435
10.8932
12.5673
14.6804
17.317
20.5771
24.6607
29.7268
36.1752
44.12
53.9036
65.5605
81.0237
99.6165
125.824
155.509
202.88
239.838
314.273
286.078
8.48327
8.77374
9.60396
10.8926
12.5665
14.679
17.315
20.5737
24.6555
29.725
36.1823
44.1041
53.8572
65.4804
80.8938
99.4048
125.465
154.848
201.617
237.38
310.221
273.858
8.483
8.77344
9.60356
10.892
12.5656
14.6777
17.3129
20.5702
24.6501
29.7247
36.1864
44.0835
53.8069
65.4022
80.7657
99.1917
125.098
154.172
200.315
234.878
305.983
260.877
8.48273
8.77313
9.60314
10.8914
12.5647
14.6763
17.3107
20.5666
24.6446
29.7263
36.1878
44.0592
53.7562
65.3231
80.6376
98.9766
124.724
153.482
198.975
232.335
301.549
247.091
8.48245
8.77281
9.60271
10.8907
12.5637
14.6748
17.3085
20.5629
24.6393
29.731
36.1869
44.032
53.7032
65.2458
80.5098
98.7588
124.344
152.778
197.599
229.756
296.907
232.456
8.48216
8.77248
9.60228
10.8901
12.5628
14.6733
17.3062
20.5591
24.635
29.7393
36.184
44.0027
53.6509
65.1677
80.3808
98.5383
123.957
152.062
196.189
227.145
292.051
216.921
8.48187
8.77215
9.60183
10.8894
12.5618
14.6718
17.3038
20.5551
24.6338
29.7514
36.1796
43.9719
53.5971
65.0912
80.2516
98.3148
123.565
151.334
194.747
224.51
286.975
200.435
8.48156
8.7718
9.60136
10.8888
12.5607
14.6702
17.3014
20.551
24.6386
29.7671
36.1738
43.9401
53.5444
65.0139
80.1208
98.0887
123.167
150.594
193.276
221.853
281.677
182.944
8.48125
8.77145
9.60089
10.8881
12.5597
14.6686
17.2989
20.5471
24.6522
29.786
36.1666
43.9078
53.49
64.9386
79.9897
97.86
122.763
149.843
191.781
219.176
276.155
164.401
8.48094
8.77108
9.60041
10.8874
12.5586
14.6669
17.2964
20.5439
24.6764
29.8073
36.1579
43.8754
53.4366
64.8625
79.8569
97.629
122.355
149.08
190.265
216.478
270.385
144.718
8.48061
8.77071
9.59991
10.8866
12.5575
14.6653
17.2937
20.5441
24.7104
29.8298
36.1475
43.8431
53.3817
64.7893
79.7244
97.3962
121.942
148.302
188.736
213.745
264.285
123.158
-17.7394
-28.4884
-32.2308
-23.5618
-17.2839
-13.5789
-11.5285
-10.3498
-10.5225
-11.4621
-11.6812
-7.22364
2.12775
11.5114
16.5059
15.1547
13.2515
13.7908
15.2249
15.0078
13.6345
11.2313
9.24108
7.45186
6.07809
4.97993
-0.847709
-2.55659
6.46902
8.25702
5.83338
3.99483
2.75077
1.49293
0.674598
-17.7609
-28.4926
-32.2566
-23.559
-17.2787
-13.5756
-11.5283
-10.3496
-10.5213
-11.4595
-11.6758
-7.21991
2.13141
11.5177
16.5182
15.1717
13.2672
13.8009
15.2293
15.0106
13.6377
11.2345
9.24394
7.45442
6.08096
4.98587
-0.847772
-2.58914
6.45075
8.25595
5.83373
3.99498
2.75079
1.49294
0.674601
-17.7958
-28.5173
-32.3037
-23.5551
-17.2715
-13.5703
-11.5271
-10.3485
-10.5194
-11.457
-11.6712
-7.21606
2.13814
11.5304
16.5399
15.2015
13.3002
13.8309
15.249
15.0212
13.6445
11.2402
9.24873
7.45846
6.08498
4.99225
-0.850099
-2.6171
6.43267
8.25514
5.83414
3.99515
2.75083
1.49297
0.674609
-17.8448
-28.5702
-32.3722
-23.5531
-17.2635
-13.5638
-11.5249
-10.3469
-10.5173
-11.4547
-11.6674
-7.21234
2.14693
11.546
16.5652
15.2366
13.343
13.8757
15.283
15.0396
13.6552
11.249
9.25598
7.46439
6.09003
4.99995
-0.854062
-2.62867
6.41566
8.25451
5.8346
3.99535
2.75088
1.49302
0.674623
-17.9072
-28.6552
-32.4591
-23.555
-17.2538
-13.5557
-11.5211
-10.3446
-10.515
-11.4528
-11.6656
-7.21063
2.15527
11.5608
16.5877
15.2668
13.3805
13.9189
15.32
15.0614
13.6688
11.2603
9.26566
7.4724
6.09646
5.00921
-0.857139
-2.62291
6.40071
8.25413
5.83512
3.99557
2.75094
1.49308
0.674642
-17.982
-28.7762
-32.5606
-23.5603
-17.2417
-13.5457
-11.5155
-10.3417
-10.5125
-11.4518
-11.6662
-7.21125
2.1621
11.5733
16.6062
15.2901
13.4086
13.9529
15.3525
15.0828
13.6836
11.2735
9.27738
7.48243
6.10444
5.02022
-0.85658
-2.60072
6.38797
8.25396
5.83568
3.99581
2.75101
1.49315
0.674664
-18.0676
-28.9354
-32.6726
-23.5693
-17.2272
-13.5342
-11.5081
-10.3384
-10.5101
-11.4521
-11.6692
-7.21392
2.16735
11.5834
16.6211
15.3081
13.429
13.9776
15.3784
15.1021
13.6983
11.2873
9.29039
7.49413
6.11393
5.03301
-0.850296
-2.56305
6.37737
8.25401
5.83629
3.99606
2.75109
1.49322
0.674688
-18.1627
-29.1329
-32.7909
-23.5825
-17.2115
-13.5218
-11.4994
-10.3349
-10.5078
-11.4538
-11.6745
-7.21799
2.17108
11.5904
16.6322
15.3221
13.4445
13.9955
15.3981
15.1184
13.712
11.3007
9.30365
7.50685
6.12469
5.04743
-0.837212
-2.51079
6.36884
8.25423
5.83693
3.99631
2.75116
1.4933
0.674711
-18.2657
-29.3658
-32.9111
-23.6006
-17.1962
-13.5097
-11.4901
-10.3314
-10.5059
-11.4572
-11.6818
-7.22312
2.17307
11.5939
16.6387
15.3319
13.4561
14.0087
15.4128
15.1314
13.7235
11.3124
9.31598
7.51963
6.13628
5.06318
-0.817144
-2.44516
6.36234
8.25462
5.83761
3.99655
2.75123
1.49338
0.674731
-18.3751
-29.629
-33.0294
-23.6236
-17.1825
-13.4986
-11.481
-10.3281
-10.5044
-11.4622
-11.6909
-7.22884
2.17315
11.5936
16.6404
15.3369
13.4636
14.0176
15.4227
15.1407
13.7321
11.3214
9.32623
7.53134
6.14803
5.07976
-0.790704
-2.36786
6.35796
8.25513
5.83831
3.99678
2.75128
1.49344
0.674746
-18.4892
-29.9143
-33.143
-23.6508
-17.1715
-13.4894
-11.4727
-10.3254
-10.5035
-11.4686
-11.7012
-7.23503
2.17135
11.5904
16.6379
15.3375
13.4667
14.0223
15.4281
15.1458
13.7372
11.3272
9.33354
7.54094
6.15912
5.09655
-0.759282
-2.28125
6.35585
8.25575
5.83903
3.99699
2.7513
1.49349
0.674754
-18.6062
-30.2116
-33.2499
-23.6811
-17.1639
-13.4827
-11.466
-10.3233
-10.5032
-11.4762
-11.7121
-7.24148
2.1681
11.5852
16.6326
15.3344
13.4661
14.023
15.4288
15.1466
13.7384
11.3294
9.33754
7.54774
6.1687
5.11285
-0.725021
-2.18848
6.35645
8.25643
5.83977
3.99718
2.75131
1.49352
0.674753
-18.7244
-30.5093
-33.3489
-23.7127
-17.1601
-13.4788
-11.4612
-10.322
-10.5038
-11.4849
-11.7231
-7.24822
2.16391
11.5792
16.6259
15.3289
13.4629
14.0206
15.4257
15.1432
13.7359
11.3284
9.33841
7.55158
6.17614
5.12808
-0.69055
-2.09359
6.36031
8.25718
5.84052
3.99732
2.75128
1.49353
0.674742
-18.8418
-30.7949
-33.4392
-23.7437
-17.1602
-13.4781
-11.4588
-10.3218
-10.5053
-11.4943
-11.7335
-7.25503
2.15941
11.573
16.6187
15.3222
13.4581
14.0163
15.4197
15.1365
13.7304
11.3248
9.33672
7.55281
6.18123
5.14189
-0.658397
-2.00146
6.36829
8.25793
5.84127
3.99743
2.75122
1.49352
0.674718
-18.9566
-31.0561
-33.5196
-23.772
-17.164
-13.4806
-11.4588
-10.3228
-10.5079
-11.5044
-11.7434
-7.26182
2.15495
11.5667
16.6115
15.3149
13.4526
14.0111
15.4118
15.1273
13.7223
11.3193
9.33325
7.5521
6.18425
5.15428
-0.63021
-1.91755
6.38129
8.25872
5.84203
3.99749
2.75112
1.49347
0.674681
-19.0665
-31.2822
-33.5895
-23.7956
-17.1713
-13.4868
-11.4612
-10.3251
-10.5116
-11.5152
-11.7527
-7.26825
2.15086
11.5602
16.6039
15.307
13.447
14.0057
15.4027
15.1161
13.7123
11.3123
9.32866
7.55015
6.18581
5.16552
-0.606211
-1.84709
6.40019
8.25949
5.84279
3.99751
2.75097
1.49339
0.674628
-19.1693
-31.4651
-33.6485
-23.8123
-17.1826
-13.4966
-11.466
-10.3286
-10.5166
-11.5267
-11.7618
-7.27433
2.1471
11.5531
16.5953
15.2984
13.4414
14.0003
15.3927
15.1033
13.7006
11.3042
9.32339
7.54753
6.18657
5.1761
-0.58535
-1.79374
6.42524
8.26029
5.84354
3.99747
2.75078
1.49327
0.674561
-19.2625
-31.6017
-33.6972
-23.8207
-17.1987
-13.5101
-11.4733
-10.3337
-10.523
-11.5393
-11.7711
-7.28004
2.14369
11.545
16.5849
15.2886
13.4357
13.995
15.3818
15.0889
13.6874
11.2951
9.31763
7.54457
6.18699
5.18646
-0.566042
-1.7582
6.45609
8.26106
5.84427
3.99738
2.75055
1.49311
0.674478
-19.3437
-31.6938
-33.7376
-23.8214
-17.2198
-13.5275
-11.4832
-10.3403
-10.531
-11.5533
-11.7813
-7.28581
2.1403
11.5355
16.5722
15.2773
13.4298
13.9895
15.3699
15.073
13.6726
11.2851
9.31146
7.5414
6.18735
5.19703
-0.54694
-1.73816
6.49149
8.26186
5.845
3.99723
2.75026
1.49292
0.674379
-19.4105
-31.7462
-33.7721
-23.816
-17.2449
-13.549
-11.496
-10.3487
-10.5407
-11.5694
-11.7931
-7.29214
2.13663
11.5243
16.5564
15.264
13.4236
13.9838
15.3569
15.0555
13.6563
11.2743
9.30489
7.53805
6.18776
5.20803
-0.527288
-1.72953
6.52991
8.26263
5.84569
3.99701
2.74993
1.49268
0.674263
-19.4615
-31.7652
-33.8028
-23.8064
-17.2733
-13.5747
-11.512
-10.3593
-10.5527
-11.5884
-11.8079
-7.30013
2.13194
11.5109
16.5373
15.2485
13.4169
13.9776
15.3427
15.0363
13.6386
11.2627
9.29796
7.53453
6.18826
5.21959
-0.506845
-1.72811
6.56968
8.26344
5.84636
3.99674
2.74955
1.49241
0.674131
-19.4978
-31.7566
-33.8284
-23.7942
-17.304
-13.6049
-11.5319
-10.3725
-10.5674
-11.6111
-11.8269
-7.31092
2.12543
11.4949
16.5144
15.2307
13.4095
13.9708
15.3271
15.0156
13.6196
11.2505
9.29069
7.53082
6.18889
5.23168
-0.485675
-1.73057
6.60963
8.26423
5.847
3.9964
2.74912
1.49209
0.673983
-19.5226
-31.7231
-33.8447
-23.7802
-17.3359
-13.6398
-11.556
-10.3889
-10.5854
-11.6387
-11.8522
-7.32628
2.11586
11.4757
16.4876
15.2103
13.4012
13.9632
15.31
14.9933
13.5994
11.2376
9.28313
7.52694
6.18965
5.24424
-0.463935
-1.73466
6.64891
8.26505
5.8476
3.99599
2.74863
1.49174
0.67382
-19.5375
-31.6647
-33.8467
-23.7644
-17.3684
-13.6796
-11.585
-10.409
-10.6072
-11.6719
-11.885
-7.3475
2.10223
11.4523
16.4567
15.1875
13.392
13.9546
15.2914
14.9695
13.578
11.2243
9.27532
7.5229
6.19056
5.25714
-0.4418
-1.73888
6.68725
8.26587
5.84816
3.99551
2.7481
1.49134
0.673641
-19.5415
-31.5836
-33.8244
-23.746
-17.4004
-13.7249
-11.6197
-10.433
-10.6333
-11.7119
-11.9268
-7.37592
2.08368
11.4242
16.4215
15.1622
13.3817
13.9447
15.271
14.9443
13.5558
11.2106
9.26731
7.51875
6.19162
5.27027
-0.419415
-1.7423
6.7246
8.26676
5.84867
3.99495
2.74752
1.4909
0.673447
-19.5336
-31.4833
-33.7622
-23.7228
-17.4316
-13.7763
-11.6606
-10.4613
-10.6642
-11.7589
-11.9775
-7.41121
2.06051
11.3906
16.3813
15.1343
13.3702
13.9333
15.2486
14.9176
13.5327
11.1966
9.25915
7.51454
6.19285
5.28346
-0.396924
-1.74413
6.76126
8.26765
5.84913
3.99432
2.74688
1.49041
0.673238
-19.5135
-31.3684
-33.6429
-23.691
-17.4613
-13.8338
-11.7079
-10.4934
-10.6995
-11.8132
-12.0366
-7.45238
2.03383
11.3519
16.3358
15.1035
13.3572
13.9202
15.2241
14.8894
13.509
11.1824
9.25089
7.5103
6.19424
5.29662
-0.374446
-1.74381
6.79748
8.26865
5.84955
3.99361
2.7462
1.48989
0.673017
-19.4809
-31.2453
-33.4547
-23.6457
-17.4891
-13.8973
-11.7606
-10.5277
-10.7383
-11.8733
-12.1012
-7.49626
2.00597
11.3089
16.2844
15.0691
13.3423
13.905
15.1971
14.8597
13.4845
11.168
9.24256
7.50608
6.19577
5.30954
-0.35213
-1.74078
6.83375
8.26971
5.8499
3.99282
2.74546
1.48933
0.672782
-19.4363
-31.1218
-33.1975
-23.5812
-17.5147
-13.9649
-11.8159
-10.5616
-10.7785
-11.9376
-12.1684
-7.53971
1.97896
11.2636
16.2276
15.0308
13.325
13.8873
15.1674
14.8282
13.4594
11.1535
9.23424
7.50193
6.19742
5.32213
-0.330105
-1.73468
6.87033
8.27091
5.85021
3.99195
2.74468
1.48873
0.672535
-19.3819
-31.0068
-32.8832
-23.4926
-17.5386
-14.034
-11.8693
-10.5908
-10.8167
-12.0024
-12.2331
-7.57864
1.95462
11.2172
16.1662
14.9883
13.3048
13.8668
15.1349
14.7948
13.4335
11.1388
9.22595
7.4979
6.19916
5.33417
-0.308555
-1.72508
6.90769
8.27222
5.85045
3.99099
2.74385
1.48809
0.672277
-19.3215
-30.9089
-32.5294
-23.3774
-17.5616
-14.1002
-11.9144
-10.6101
-10.8492
-12.0647
-12.2914
-7.61067
1.9333
11.1707
16.1017
14.942
13.2816
13.8433
15.0997
14.7595
13.4069
11.1241
9.21776
7.49402
6.20095
5.34555
-0.287642
-1.71175
6.94603
8.27375
5.85064
3.98995
2.74298
1.48741
0.672009
-19.2604
-30.8369
-32.154
-23.2384
-17.5856
-14.1581
-11.9441
-10.614
-10.8718
-12.1202
-12.338
-7.63381
1.91494
11.1241
16.0351
14.8926
13.2553
13.8169
15.0618
14.7225
13.3796
11.1093
9.20972
7.49033
6.20275
5.35604
-0.267612
-1.69436
6.98577
8.27545
5.85077
3.98881
2.74205
1.4867
0.67173
-19.2043
-30.8003
-31.7728
-23.0857
-17.6126
-14.2018
-11.9514
-10.5981
-10.8814
-12.1659
-12.3703
-7.64837
1.89869
11.0773
15.9674
14.8413
13.2265
13.7877
15.0215
14.6837
13.3517
11.0945
9.20188
7.48686
6.20451
5.36551
-0.24867
-1.67279
7.02701
8.27743
5.85085
3.98759
2.74108
1.48595
0.671444
-19.1585
-30.8115
-31.4018
-22.9378
-17.6453
-14.2262
-11.9316
-10.5596
-10.8764
-12.1986
-12.3859
-7.65455
1.88448
11.0299
15.8985
14.7888
13.1959
13.7562
14.9795
14.6437
13.3231
11.0798
9.1943
7.48363
6.2062
5.37367
-0.231129
-1.64678
7.07011
8.27964
5.85087
3.98627
2.74007
1.48517
0.671148
-19.127
-30.8874
-31.0587
-22.8182
-17.6855
-14.2279
-11.883
-10.499
-10.8573
-12.2166
-12.3857
-7.65381
1.87209
10.982
15.8287
14.7358
13.1639
13.7229
14.936
14.6028
13.2941
11.0651
9.18704
7.48068
6.20775
5.3804
-0.215244
-1.61626
7.11512
8.2822
5.85084
3.98485
2.73901
1.48435
0.670845
-19.1113
-31.0499
-30.7603
-22.7494
-17.7343
-14.2069
-11.8078
-10.42
-10.8262
-12.2187
-12.3719
-7.64627
1.86217
10.933
15.7574
14.6823
13.131
13.6883
14.8918
14.5615
13.2649
11.0507
9.18016
7.47804
6.20913
5.38535
-0.201402
-1.58101
7.16236
8.28506
5.85074
3.98333
2.73789
1.48349
0.670534
-19.1103
-31.3245
-30.518
-22.7459
-17.7914
-14.1661
-11.712
-10.329
-10.7859
-12.2062
-12.3489
-7.63269
1.85459
10.8831
15.6845
14.6284
13.0974
13.6526
14.847
14.5203
13.2357
11.0366
9.17371
7.47571
6.21029
5.38837
-0.189895
-1.54102
7.21182
8.28832
5.85059
3.9817
2.73674
1.48259
0.670215
-19.1195
-31.7351
-30.3354
-22.8118
-17.8556
-14.1108
-11.6039
-10.2337
-10.7393
-12.1828
-12.3203
-7.61268
1.8494
10.8313
15.6089
14.5734
13.0634
13.6165
14.8023
14.4795
13.2071
11.023
9.16772
7.4737
6.21117
5.38903
-0.181182
-1.49603
7.26381
8.29193
5.85037
3.97996
2.73552
1.48165
0.669887
-19.1327
-32.2905
-30.2077
-22.9411
-17.9243
-14.0472
-11.4924
-10.1407
-10.6895
-12.1548
-12.2886
-7.58706
1.84524
10.7765
15.53
14.5174
13.0292
13.5802
14.7575
14.4395
13.1792
11.0099
9.16223
7.47201
6.21172
5.38715
-0.175559
-1.44598
7.31838
8.296
5.8501
3.97809
2.73425
1.48066
0.66955
-19.1426
-32.9658
-30.126
-23.1225
-17.9949
-13.981
-11.3853
-10.0545
-10.6415
-12.1281
-12.2538
-7.55632
1.8404
10.7168
15.4467
14.4603
12.9955
13.5441
14.7129
14.4
13.1522
10.9975
9.15721
7.47064
6.21192
5.38223
-0.173441
-1.39046
7.37581
8.30046
5.84973
3.97607
2.73291
1.47962
0.669202
-19.1409
-33.6793
-30.0789
-23.3413
-18.0641
-13.9166
-11.2875
-9.97882
-10.6026
-12.1057
-12.2161
-7.52318
1.8316
10.6511
15.3599
14.4038
12.9631
13.5082
14.6678
14.3608
13.126
10.9857
9.15268
7.46965
6.21185
5.3743
-0.174933
-1.32981
7.43564
8.30537
5.84928
3.97391
2.73151
1.47852
0.668843
-19.1163
-34.2776
-30.0542
-23.5814
-18.1277
-13.8564
-11.202
-9.91954
-10.577
-12.0867
-12.1761
-7.49095
1.81632
10.5796
15.2723
14.35
12.9323
13.4712
14.6211
14.3211
13.1003
10.9746
9.14884
7.46933
6.21182
5.36332
-0.180636
-1.26607
7.49653
8.3104
5.84874
3.97159
2.73002
1.47735
0.668465
-19.0652
-34.5513
-30.0381
-23.8258
-18.1805
-13.8005
-11.1324
-9.88158
-10.5632
-12.0701
-12.1382
-7.4651
1.79372
10.5075
15.1901
14.3009
12.9005
13.4296
14.5707
14.2802
13.0753
10.9648
9.14635
7.47022
6.21222
5.34953
-0.191957
-1.20229
7.55727
8.31572
5.84814
3.96911
2.72845
1.4761
0.668067
-19.0641
-34.3296
-30.0178
-24.0633
-18.2212
-13.7498
-11.0839
-9.8637
-10.5583
-12.058
-12.1066
-7.44678
1.76917
10.4419
15.1168
14.2531
12.8607
13.3784
14.516
14.2398
13.0536
10.9584
9.14662
7.47237
6.21127
5.32587
-0.213334
-1.12258
7.63259
8.32356
5.84728
3.96624
2.72675
1.47478
0.667666
8.48035
8.77042
9.59951
10.886
12.5567
14.6639
17.2916
20.5541
24.7426
29.8463
36.1376
43.8183
53.3413
64.7351
79.6222
97.2141
121.62
147.684
187.544
211.582
259.247
101.49
8.48016
8.7702
9.59922
10.8856
12.556
14.6629
17.2901
20.5705
24.7658
29.8554
36.1285
43.8002
53.3118
64.7015
79.5509
97.0821
121.385
147.228
186.678
210.008
255.398
98.5809
8.47996
8.76997
9.59892
10.8852
12.5553
14.6619
17.2884
20.5912
24.7853
29.8608
36.1178
43.7817
53.2842
64.6658
79.4774
96.9459
121.141
146.754
185.79
208.374
251.391
100.275
8.47975
8.76973
9.59859
10.8847
12.5546
14.6607
17.2867
20.6123
24.8008
29.8632
36.1065
43.7628
53.2545
64.6309
79.403
96.805
120.887
146.261
184.878
206.673
247.271
100.178
8.47953
8.76947
9.59825
10.8842
12.5539
14.6596
17.2849
20.6307
24.8128
29.8633
36.0952
43.7439
53.2264
64.5928
79.3256
96.6587
120.621
145.747
183.935
204.903
243.028
98.3976
8.47929
8.7692
9.59789
10.8837
12.5531
14.6583
17.283
20.6432
24.8216
29.8616
36.0842
43.7251
53.1968
64.5553
79.2469
96.5064
120.343
145.211
182.957
203.068
238.657
96.3612
8.47904
8.76892
9.59751
10.8831
12.5523
14.657
17.281
20.6477
24.8274
29.8585
36.0739
43.7066
53.169
64.5146
79.1647
96.3477
120.049
144.651
181.939
201.167
234.163
94.4648
8.47878
8.76862
9.59711
10.8825
12.5514
14.6556
17.2789
20.6445
24.8303
29.8541
36.0641
43.6884
53.1399
64.4744
79.0808
96.1821
119.739
144.067
180.873
199.203
229.551
92.5462
8.47851
8.76831
9.59669
10.8819
12.5504
14.6542
17.2766
20.6353
24.8305
29.8489
36.0551
43.6705
53.1124
64.4312
78.9931
96.0094
119.412
143.458
179.755
197.175
224.826
90.5071
8.47821
8.76797
9.59624
10.8813
12.5495
14.6526
17.2743
20.622
24.8279
29.8427
36.0468
43.6531
53.0836
64.3882
78.9033
95.8292
119.066
142.821
178.578
195.083
219.992
88.372
8.47791
8.76762
9.59577
10.8806
12.5484
14.651
17.2718
20.6057
24.8224
29.8358
36.039
43.636
53.0563
64.3422
78.8093
95.6411
118.701
142.155
177.337
192.926
215.052
86.1757
8.47758
8.76725
9.59527
10.8798
12.5473
14.6492
17.2691
20.5875
24.8138
29.8278
36.0315
43.6193
53.0275
64.2962
78.7125
95.4451
118.316
141.458
176.029
190.703
210.014
83.9292
8.47724
8.76685
9.59474
10.8791
12.5462
14.6474
17.2663
20.5681
24.8017
29.8188
36.0243
43.6029
52.9999
64.2468
78.6111
95.2405
117.911
140.73
174.648
188.414
204.88
81.6367
8.47687
8.76644
9.59418
10.8783
12.5449
14.6454
17.2633
20.5487
24.7854
29.8082
36.0169
43.5867
52.9706
64.1971
78.5063
95.0273
117.484
139.968
173.191
186.055
199.657
79.3069
8.47649
8.766
9.59359
10.8774
12.5436
14.6434
17.2602
20.5302
24.7646
29.7956
36.009
43.5707
52.9422
64.1436
78.3962
94.8048
117.037
139.171
171.656
183.628
194.35
76.9521
8.47608
8.76553
9.59297
10.8765
12.5423
14.6412
17.2568
20.5133
24.739
29.7804
35.9999
43.5547
52.912
64.0892
78.2819
94.5725
116.568
138.337
170.041
181.128
188.963
74.5856
8.47565
8.76504
9.59231
10.8755
12.5408
14.6389
17.2533
20.4984
24.7083
29.7617
35.9891
43.5386
52.8825
64.0306
78.1614
94.3298
116.076
137.465
168.343
178.556
183.5
72.2214
8.4752
8.76452
9.59161
10.8745
12.5393
14.6364
17.2495
20.4858
24.6731
29.7386
35.9755
43.5219
52.8508
63.9705
78.0359
94.0761
115.56
136.554
166.563
175.91
177.966
69.8734
8.47471
8.76396
9.59086
10.8734
12.5376
14.6338
17.2455
20.4751
24.6343
29.7103
35.958
43.5043
52.8196
63.9057
77.9031
93.8104
115.02
135.601
164.699
173.188
172.364
67.5544
8.4742
8.76338
9.59008
10.8723
12.5359
14.631
17.2413
20.466
24.5936
29.6759
35.935
43.4849
52.786
63.8387
77.7642
93.5322
114.455
134.606
162.751
170.389
166.699
65.2748
8.47366
8.76276
9.58924
10.871
12.5341
14.6281
17.2368
20.4578
24.5528
29.6349
35.9047
43.4626
52.7523
63.7663
77.6168
93.2405
113.861
133.567
160.718
167.511
160.976
63.0417
8.47308
8.7621
9.58835
10.8698
12.5321
14.625
17.232
20.4499
24.5138
29.5876
35.865
43.4356
52.7155
63.6911
77.462
92.9343
113.239
132.481
158.599
164.553
155.199
60.8578
8.47247
8.7614
9.58741
10.8684
12.5301
14.6217
17.2269
20.4421
24.4785
29.535
35.8139
43.4014
52.6771
63.61
77.2974
92.6127
112.587
131.348
156.395
161.513
149.376
58.7211
8.47182
8.76065
9.58642
10.8669
12.5279
14.6182
17.2215
20.434
24.4477
29.4791
35.7499
43.3565
52.633
63.5252
77.124
92.2747
111.902
130.165
154.103
158.39
143.512
56.6244
8.47113
8.75987
9.58536
10.8654
12.5256
14.6145
17.2157
20.4254
24.4212
29.4222
35.6731
43.2965
52.583
63.4333
76.9395
91.9194
111.184
128.93
151.724
155.182
137.616
54.5558
8.4704
8.75903
9.58423
10.8637
12.5231
14.6105
17.2096
20.4162
24.3982
29.3669
35.585
43.2165
52.5202
63.3359
76.7446
91.5457
110.43
127.641
149.257
151.888
131.698
52.4984
8.46962
8.75814
9.58303
10.862
12.5205
14.6063
17.2031
20.4065
24.3776
29.3149
35.4892
43.1126
52.4402
63.2279
76.5367
91.1525
109.64
126.296
146.702
148.506
125.769
50.4323
8.46879
8.75719
9.58176
10.8601
12.5177
14.6019
17.1962
20.396
24.3581
29.2671
35.3903
42.9837
52.3316
63.1078
76.316
90.739
108.812
124.894
144.058
145.034
119.841
48.3348
8.46791
8.75619
9.58041
10.8582
12.5147
14.5972
17.1888
20.3849
24.3389
29.2234
35.2931
42.8326
52.1865
62.9657
76.0781
90.3036
107.945
123.432
141.325
141.472
113.926
46.1822
8.46697
8.75512
9.57897
10.8561
12.5116
14.5922
17.181
20.373
24.3193
29.1831
35.2011
42.6667
51.9954
62.7931
75.8198
89.8447
107.038
121.908
138.504
137.816
108.038
43.951
8.46598
8.75398
9.57743
10.8538
12.5082
14.5868
17.1727
20.3604
24.299
29.1448
35.116
42.4957
51.7584
62.5731
75.5309
89.3592
106.089
120.322
135.594
134.067
102.192
41.6193
8.46492
8.75277
9.5758
10.8515
12.5046
14.5812
17.1638
20.3469
24.2775
29.1071
35.0375
42.3287
51.4828
62.2931
75.1996
88.8422
105.097
118.671
132.596
130.225
96.4019
39.1681
8.46378
8.75148
9.57407
10.8489
12.5008
14.5751
17.1545
20.3325
24.2548
29.0688
34.9641
42.1719
51.1858
61.9433
74.8058
88.2848
104.06
116.953
129.512
126.289
90.6824
36.5823
8.46258
8.7501
9.57221
10.8462
12.4967
14.5687
17.1445
20.3173
24.2305
29.0292
34.8934
42.027
50.8861
61.5298
74.3309
87.6735
102.974
115.169
126.343
122.261
85.0478
33.8518
8.46129
8.74864
9.57024
10.8434
12.4924
14.5619
17.1338
20.301
24.2047
28.9877
34.8229
41.8922
50.5994
61.0706
73.7603
86.9898
101.83
113.315
123.09
118.144
79.5118
30.972
8.45992
8.74707
9.56814
10.8403
12.4878
14.5546
17.1225
20.2836
24.1772
28.9438
34.7507
41.7636
50.3329
60.5942
73.0973
86.2138
100.618
111.391
119.757
113.94
74.0874
27.9443
8.45846
8.74541
9.5659
10.837
12.4829
14.5469
17.1105
20.2652
24.148
28.8972
34.6753
41.6365
50.0858
60.1259
72.3638
85.3309
99.3229
109.395
116.349
109.655
68.7872
24.7765
8.4569
8.74363
9.5635
10.8335
12.4776
14.5387
17.0977
20.2455
24.1169
28.8477
34.5959
41.5071
49.8514
59.6815
71.5967
84.3411
97.931
107.324
112.872
105.297
63.6228
21.4822
8.45524
8.74174
9.56095
10.8298
12.4721
14.5299
17.084
20.2245
24.0837
28.795
34.512
41.3724
49.6214
59.2626
70.8326
83.2636
96.4322
105.178
109.336
100.874
58.6062
18.0808
8.45346
8.73971
9.55823
10.8258
12.4661
14.5205
17.0695
20.2022
24.0484
28.739
34.4229
41.2306
49.3878
58.8608
70.0947
82.1329
94.8281
102.96
105.759
96.4006
53.7497
14.5967
8.45156
8.73755
9.55532
10.8216
12.4597
14.5106
17.054
20.1783
24.0108
28.6795
34.3282
41.0808
49.1453
58.463
69.3863
80.9854
93.1347
100.674
102.164
91.8961
49.0669
11.0584
8.44953
8.73524
9.55221
10.8171
12.4529
14.4999
17.0375
20.1529
23.9708
28.6161
34.2277
40.9221
48.8904
58.057
68.6953
79.8453
91.3784
98.3319
98.5793
87.3862
44.5736
7.49844
8.44736
8.73278
9.54889
10.8122
12.4456
14.4886
17.0199
20.1258
23.9281
28.5486
34.1208
40.7537
48.6213
57.6339
68.0023
78.7179
89.5861
95.9432
95.0382
82.9044
40.2885
3.95259
8.44504
8.73014
9.54534
10.8071
12.4379
14.4765
17.0011
20.0969
23.8827
28.4769
34.0073
40.5751
48.3369
57.1889
67.2892
77.5913
87.7765
93.5147
91.569
78.4909
36.2325
0.459494
8.44256
8.72733
9.54155
10.8015
12.4295
14.4636
16.9811
20.0661
23.8342
28.4005
33.8866
40.3856
48.0363
56.7196
66.5438
76.4454
85.9544
91.044
88.1846
74.1881
32.4276
-2.93989
8.43991
8.72432
9.5375
10.7956
12.4207
14.4498
16.9597
20.0332
23.7826
28.3191
33.7583
40.1845
47.7182
56.2248
65.7601
75.2602
84.1118
88.5224
84.8725
70.0323
28.8943
-6.20348
8.43707
8.72109
9.53316
10.7893
12.4112
14.435
16.9369
19.9981
23.7276
28.2326
33.622
39.9711
47.3817
55.7031
64.9364
74.0226
82.2312
85.9424
81.5933
66.0417
25.6465
-9.2898
8.43403
8.71765
9.52852
10.7825
12.401
14.4193
16.9126
19.9606
23.6689
28.1404
33.4771
39.7447
47.0259
55.1531
64.0726
72.7271
80.2939
83.3009
78.2958
62.2044
22.6854
-12.1608
8.43078
8.71396
9.52356
10.7753
12.3902
14.4025
16.8866
19.9206
23.6064
28.0423
33.3232
39.5047
46.6497
54.5734
63.168
71.3739
78.2876
80.5956
74.9413
58.4771
19.9914
-14.7857
8.4273
8.71001
9.51824
10.7676
12.3786
14.3846
16.8589
19.878
23.5398
27.9379
33.1597
39.2502