/*--------------------------------*- C++ -*----------------------------------*\
| =========                 |                                                 |
| \\      /  F ield         | OpenFOAM: The Open Source CFD Toolbox           |
|  \\    /   O peration     | Version:  v1912                                 |
|   \\  /    A nd           | Website:  www.openfoam.com                      |
|    \\/     M anipulation  |                                                 |
\*---------------------------------------------------------------------------*/
FoamFile
{
    version     2.0;
    format      ascii;
    class       surfaceScalarField;
    location    "240";
    object      phi;
}
// * * * * * * * * * * * * * * * * * * * * * * * * * * * * * * * * * * * * * //

dimensions      [0 3 -1 0 0 0 0];
oriented        oriented;


internalField   nonuniform List<scalar> 
24588
(
6.81688e-05
1.91208e-08
6.81167e-05
5.25433e-08
6.80347e-05
8.16383e-08
6.79228e-05
1.11793e-07
6.77765e-05
1.45467e-07
6.75921e-05
1.84181e-07
6.73623e-05
2.29664e-07
6.70712e-05
2.9123e-07
6.67106e-05
3.60319e-07
6.62559e-05
4.54722e-07
6.5701e-05
5.5416e-07
6.49728e-05
6.98837e-07
6.41864e-05
8.84378e-07
6.2957e-05
1.13887e-06
6.14799e-05
1.47034e-06
5.91961e-05
2.31004e-06
5.63359e-05
2.85932e-06
5.16547e-05
4.68105e-06
4.50638e-05
6.59079e-06
3.39312e-05
1.11328e-05
2.02067e-05
1.37245e-05
2.02067e-05
6.81691e-05
3.86975e-08
6.81166e-05
1.05618e-07
6.80346e-05
1.63155e-07
6.79229e-05
2.23393e-07
6.77767e-05
2.90503e-07
6.75924e-05
3.68184e-07
6.73628e-05
4.59076e-07
6.70715e-05
5.82697e-07
6.67109e-05
7.20638e-07
6.62562e-05
9.09395e-07
6.57e-05
1.10947e-06
6.49647e-05
1.40084e-06
6.42048e-05
1.75225e-06
6.29438e-05
2.31093e-06
6.14647e-05
2.94261e-06
5.92658e-05
4.53426e-06
5.63576e-05
5.76599e-06
5.16254e-05
9.4131e-06
4.51075e-05
1.31084e-05
3.38337e-05
2.2407e-05
2.01634e-05
2.73948e-05
4.037e-05
6.81691e-05
5.82795e-08
6.81166e-05
1.58703e-07
6.80346e-05
2.44693e-07
6.79228e-05
3.35032e-07
6.77767e-05
4.35603e-07
6.75923e-05
5.52204e-07
6.73628e-05
6.88497e-07
6.70715e-05
8.7417e-07
6.67109e-05
1.08084e-06
6.62558e-05
1.36456e-06
6.57005e-05
1.66389e-06
6.49647e-05
2.10211e-06
6.42031e-05
2.62824e-06
6.29525e-05
3.45481e-06
6.14679e-05
4.41997e-06
5.92984e-05
6.73345e-06
5.63562e-05
8.7063e-06
5.16457e-05
1.41234e-05
4.50819e-05
1.96718e-05
3.38525e-05
3.36368e-05
2.01827e-05
4.10648e-05
6.05526e-05
6.81691e-05
7.78565e-08
6.81166e-05
2.11742e-07
6.80346e-05
3.26202e-07
6.79229e-05
4.46624e-07
6.77768e-05
5.80605e-07
6.75924e-05
7.36207e-07
6.73629e-05
9.17921e-07
6.70716e-05
1.16564e-06
6.67109e-05
1.44115e-06
6.62562e-05
1.81927e-06
6.56997e-05
2.21937e-06
6.49654e-05
2.80313e-06
6.42008e-05
3.49938e-06
6.29421e-05
4.62831e-06
6.14591e-05
5.89661e-06
5.93189e-05
8.89759e-06
5.63799e-05
1.16436e-05
5.16612e-05
1.88418e-05
4.50696e-05
2.62631e-05
3.38797e-05
4.48271e-05
2.02157e-05
5.47288e-05
8.07682e-05
6.81691e-05
9.74357e-08
6.81166e-05
2.64787e-07
6.80346e-05
4.0773e-07
6.79228e-05
5.58267e-07
6.77767e-05
7.25689e-07
6.75923e-05
9.20233e-07
6.73628e-05
1.14735e-06
6.70715e-05
1.4571e-06
6.6711e-05
1.80135e-06
6.62558e-05
2.27443e-06
6.57006e-05
2.77373e-06
6.49656e-05
3.50414e-06
6.42e-05
4.38033e-06
6.29543e-05
5.76668e-06
6.14657e-05
7.37813e-06
5.93259e-05
1.10672e-05
5.64047e-05
1.45629e-05
5.16618e-05
2.35844e-05
4.50868e-05
3.28376e-05
3.3924e-05
5.59903e-05
2.02635e-05
6.83895e-05
0.000101032
6.81691e-05
1.17011e-07
6.81166e-05
3.17786e-07
6.80346e-05
4.89222e-07
6.79229e-05
6.69843e-07
6.77768e-05
8.7063e-07
6.75925e-05
1.10423e-06
6.73629e-05
1.37678e-06
6.70716e-05
1.74856e-06
6.6711e-05
2.16169e-06
6.62564e-05
2.72903e-06
6.56996e-05
3.32952e-06
6.49664e-05
4.20438e-06
6.4198e-05
5.25187e-06
6.29407e-05
6.94413e-06
6.14544e-05
8.85897e-06
5.93256e-05
1.32187e-05
5.64204e-05
1.74663e-05
5.16711e-05
2.83335e-05
4.51171e-05
3.93913e-05
3.39878e-05
6.71199e-05
2.03278e-05
8.20495e-05
0.000121359
6.81691e-05
1.3659e-07
6.81166e-05
3.70797e-07
6.80346e-05
5.70737e-07
6.79229e-05
7.81483e-07
6.77768e-05
1.01567e-06
6.75924e-05
1.28825e-06
6.73628e-05
1.60621e-06
6.70716e-05
2.03997e-06
6.6711e-05
2.52189e-06
6.6256e-05
3.1841e-06
6.57008e-05
3.88381e-06
6.49665e-05
4.90579e-06
6.41981e-05
6.13489e-06
6.29573e-05
8.07519e-06
6.14652e-05
1.03453e-05
5.93186e-05
1.53941e-05
5.64347e-05
2.03487e-05
5.1688e-05
3.30801e-05
4.51614e-05
4.59173e-05
3.4077e-05
7.82047e-05
2.04112e-05
9.57155e-05
0.000141771
6.81691e-05
1.56165e-07
6.81166e-05
4.23761e-07
6.80346e-05
6.52212e-07
6.79229e-05
8.93037e-07
6.77769e-05
1.16054e-06
6.75926e-05
1.47223e-06
6.7363e-05
1.83564e-06
6.70717e-05
2.3314e-06
6.67111e-05
2.88223e-06
6.62566e-05
3.63851e-06
6.56995e-05
4.43996e-06
6.49677e-05
5.60513e-06
6.41962e-05
7.00392e-06
6.29408e-05
9.25678e-06
6.14475e-05
1.18358e-05
5.93049e-05
1.75573e-05
5.6451e-05
2.32011e-05
5.17277e-05
3.78032e-05
4.52324e-05
5.24124e-05
3.42007e-05
8.92366e-05
2.05169e-05
0.000109399
0.000162287
6.81691e-05
1.75744e-07
6.81166e-05
4.7674e-07
6.80346e-05
7.33716e-07
6.79229e-05
1.00467e-06
6.77768e-05
1.30552e-06
6.75925e-05
1.65623e-06
6.73629e-05
2.06505e-06
6.70717e-05
2.62277e-06
6.67112e-05
3.24242e-06
6.62563e-05
4.09341e-06
6.57013e-05
4.99411e-06
6.49682e-05
6.30667e-06
6.41937e-05
7.89412e-06
6.29487e-05
1.0393e-05
6.14441e-05
1.33352e-05
5.93045e-05
1.97174e-05
5.64496e-05
2.60553e-05
5.18075e-05
4.24452e-05
4.5342e-05
5.88777e-05
3.43671e-05
0.000100212
2.06487e-05
0.000123118
0.000182936
6.81691e-05
1.95317e-07
6.81167e-05
5.29668e-07
6.80346e-05
8.15179e-07
6.7923e-05
1.1162e-06
6.7777e-05
1.45033e-06
6.75926e-05
1.84019e-06
6.73631e-05
2.29446e-06
6.70719e-05
2.91414e-06
6.67112e-05
3.60277e-06
6.62571e-05
4.54749e-06
6.56993e-05
5.55095e-06
6.49697e-05
7.00444e-06
6.41866e-05
8.76515e-06
6.29214e-05
1.15919e-05
6.14141e-05
1.48448e-05
5.93171e-05
2.18254e-05
5.64385e-05
2.89331e-05
5.19253e-05
4.69583e-05
4.54924e-05
6.53105e-05
3.45791e-05
0.000111125
2.08094e-05
0.000136887
0.000203745
6.81691e-05
2.14894e-07
6.81166e-05
5.82617e-07
6.80346e-05
8.96678e-07
6.79229e-05
1.22782e-06
6.77769e-05
1.59527e-06
6.75925e-05
2.02418e-06
6.7363e-05
2.52385e-06
6.70718e-05
3.20545e-06
6.67113e-05
3.96299e-06
6.6257e-05
5.00186e-06
6.5701e-05
6.10608e-06
6.49706e-05
7.70518e-06
6.41732e-05
9.6728e-06
6.29144e-05
1.27599e-05
6.13989e-05
1.63569e-05
5.93285e-05
2.39045e-05
5.64349e-05
3.18265e-05
5.20608e-05
5.13323e-05
4.56687e-05
7.17025e-05
3.48302e-05
0.000121964
2.09999e-05
0.000150718
0.000224745
6.81691e-05
2.34463e-07
6.81167e-05
6.35512e-07
6.80347e-05
9.78137e-07
6.7923e-05
1.33933e-06
6.7777e-05
1.74001e-06
6.75927e-05
2.20811e-06
6.73632e-05
2.75323e-06
6.70721e-05
3.49676e-06
6.67113e-05
4.32345e-06
6.6258e-05
5.45514e-06
6.56982e-05
6.66485e-06
6.49712e-05
8.40305e-06
6.41516e-05
1.05624e-05
6.29081e-05
1.39634e-05
6.13823e-05
1.78871e-05
5.93391e-05
2.5951e-05
5.6445e-05
3.47202e-05
5.21896e-05
5.55877e-05
4.58498e-05
7.80423e-05
3.51079e-05
0.000132706
2.12193e-05
0.000164606
0.000245964
6.81691e-05
2.54036e-07
6.81167e-05
6.88431e-07
6.80346e-05
1.05964e-06
6.79229e-05
1.45094e-06
6.77769e-05
1.88492e-06
6.75926e-05
2.39208e-06
6.73631e-05
2.98257e-06
6.7072e-05
3.78799e-06
6.67113e-05
4.6839e-06
6.62584e-05
5.90806e-06
6.56982e-05
7.22423e-06
6.49709e-05
9.10451e-06
6.4125e-05
1.14948e-05
6.29141e-05
1.51307e-05
6.13744e-05
1.94228e-05
5.93469e-05
2.79815e-05
5.64613e-05
3.76059e-05
5.22952e-05
5.97537e-05
4.60207e-05
8.43167e-05
3.53989e-05
0.000143328
2.14645e-05
0.000178541
0.000267429
6.81691e-05
2.736e-07
6.81167e-05
7.41291e-07
6.80347e-05
1.1411e-06
6.7923e-05
1.56243e-06
6.77771e-05
2.0296e-06
6.75928e-05
2.576e-06
6.73634e-05
3.2119e-06
6.70723e-05
4.0792e-06
6.67113e-05
5.04459e-06
6.62594e-05
6.35991e-06
6.5694e-05
7.78876e-06
6.49673e-05
9.80825e-06
6.41066e-05
1.23881e-05
6.29146e-05
1.63137e-05
6.13684e-05
2.09729e-05
5.93526e-05
2.99978e-05
5.64775e-05
4.04808e-05
5.23767e-05
6.38545e-05
4.61753e-05
9.05182e-05
3.56932e-05
0.00015381
2.17317e-05
0.000192502
0.000289161
6.81691e-05
2.93169e-07
6.81167e-05
7.94181e-07
6.80346e-05
1.22261e-06
6.79229e-05
1.67404e-06
6.7777e-05
2.17448e-06
6.75927e-05
2.75996e-06
6.73632e-05
3.44118e-06
6.70723e-05
4.37032e-06
6.67113e-05
5.40528e-06
6.626e-05
6.81124e-06
6.56909e-05
8.35711e-06
6.49624e-05
1.05184e-05
6.40924e-05
1.32978e-05
6.29125e-05
1.74748e-05
6.1365e-05
2.25172e-05
5.93557e-05
3.20085e-05
5.64905e-05
4.33461e-05
5.2439e-05
6.7906e-05
4.63127e-05
9.66443e-05
3.59846e-05
0.000164138
2.2017e-05
0.00020647
0.000311178
6.81691e-05
3.12726e-07
6.81167e-05
8.47008e-07
6.80347e-05
1.30407e-06
6.79231e-05
1.7855e-06
6.77771e-05
2.31912e-06
6.75929e-05
2.94385e-06
6.73635e-05
3.67045e-06
6.70726e-05
4.66142e-06
6.67114e-05
5.76612e-06
6.62607e-05
7.26193e-06
6.56849e-05
8.93208e-06
6.49611e-05
1.12286e-05
6.40811e-05
1.4182e-05
6.29086e-05
1.86487e-05
6.13627e-05
2.40663e-05
5.93573e-05
3.40138e-05
5.65e-05
4.62032e-05
5.24877e-05
7.19183e-05
4.6435e-05
0.000102697
3.62701e-05
0.000174303
2.23171e-05
0.000220423
0.000333495
6.81691e-05
3.32288e-07
6.81167e-05
8.99868e-07
6.80347e-05
1.38559e-06
6.7923e-05
1.89711e-06
6.7777e-05
2.46398e-06
6.75927e-05
3.1278e-06
6.73634e-05
3.89966e-06
6.70725e-05
4.9524e-06
6.67114e-05
6.12691e-06
6.62615e-05
7.71192e-06
6.5676e-05
9.5169e-06
6.49646e-05
1.19321e-05
6.40725e-05
1.50932e-05
6.29054e-05
1.98058e-05
6.13612e-05
2.56076e-05
5.93577e-05
3.60181e-05
5.65067e-05
4.90544e-05
5.25274e-05
7.58976e-05
4.65448e-05
0.000108679
3.65483e-05
0.000184299
2.26292e-05
0.000234342
0.000356124
6.81691e-05
3.51838e-07
6.81167e-05
9.52661e-07
6.80347e-05
1.46706e-06
6.79231e-05
2.00855e-06
6.77772e-05
2.60857e-06
6.7593e-05
3.31167e-06
6.73637e-05
4.12887e-06
6.70728e-05
5.24336e-06
6.67116e-05
6.48783e-06
6.62623e-05
8.16121e-06
6.56672e-05
1.01113e-05
6.49685e-05
1.26261e-05
6.40662e-05
1.59918e-05
6.29028e-05
2.09731e-05
6.13602e-05
2.71528e-05
5.93576e-05
3.80205e-05
5.65113e-05
5.19005e-05
5.25614e-05
7.98475e-05
4.6645e-05
0.000114596
3.68197e-05
0.000194125
2.29514e-05
0.000248211
0.000379075
6.81691e-05
3.71393e-07
6.81167e-05
1.00549e-06
6.80347e-05
1.5486e-06
6.7923e-05
2.12015e-06
6.7777e-05
2.75342e-06
6.75928e-05
3.49559e-06
6.73635e-05
4.35802e-06
6.70728e-05
5.53418e-06
6.67117e-05
6.84861e-06
6.62622e-05
8.61081e-06
6.56619e-05
1.07111e-05
6.497e-05
1.33161e-05
6.40619e-05
1.69108e-05
6.29009e-05
2.21269e-05
6.13596e-05
2.86917e-05
5.9357e-05
4.00237e-05
5.65148e-05
5.47429e-05
5.25923e-05
8.377e-05
4.67385e-05
0.00012045
3.70852e-05
0.000203778
2.32825e-05
0.000262013
0.000402358
6.81691e-05
3.90934e-07
6.81167e-05
1.05825e-06
6.80347e-05
1.63008e-06
6.79231e-05
2.23157e-06
6.77773e-05
2.89797e-06
6.75931e-05
3.67942e-06
6.73638e-05
4.58718e-06
6.70731e-05
5.82499e-06
6.6712e-05
7.20947e-06
6.62585e-05
9.06428e-06
6.56618e-05
1.13073e-05
6.49696e-05
1.40068e-05
6.40588e-05
1.78163e-05
6.28995e-05
2.32904e-05
6.13593e-05
3.02342e-05
5.93566e-05
4.20262e-05
5.65179e-05
5.75814e-05
5.26221e-05
8.76658e-05
4.68278e-05
0.000126244
3.73465e-05
0.00021326
2.36221e-05
0.000275738
0.00042598
6.81691e-05
4.1048e-07
6.81167e-05
1.11105e-06
6.80347e-05
1.71163e-06
6.7923e-05
2.34316e-06
6.77771e-05
3.0428e-06
6.75929e-05
3.8633e-06
6.73636e-05
4.8163e-06
6.70731e-05
6.11562e-06
6.67122e-05
7.57013e-06
6.62501e-05
9.52643e-06
6.56667e-05
1.18905e-05
6.49686e-05
1.47044e-05
6.40567e-05
1.87365e-05
6.28986e-05
2.44426e-05
6.13595e-05
3.17711e-05
5.93565e-05
4.40297e-05
5.65214e-05
6.04166e-05
5.26524e-05
9.15348e-05
4.6915e-05
0.000131981
3.76054e-05
0.000222569
2.39701e-05
0.000289373
0.00044995
6.81691e-05
4.30012e-07
6.81167e-05
1.16378e-06
6.80347e-05
1.79312e-06
6.79232e-05
2.45455e-06
6.77774e-05
3.18731e-06
6.75932e-05
4.0471e-06
6.7364e-05
5.04543e-06
6.70735e-05
6.40625e-06
6.67125e-05
7.93075e-06
6.62409e-05
9.99802e-06
6.56724e-05
1.24588e-05
6.49675e-05
1.54087e-05
6.40551e-05
1.96436e-05
6.28981e-05
2.56038e-05
6.136e-05
3.33112e-05
5.93571e-05
4.60324e-05
5.6526e-05
6.32476e-05
5.26842e-05
9.53766e-05
4.70019e-05
0.000137663
3.78641e-05
0.000231707
2.43269e-05
0.00030291
0.000474277
6.81691e-05
4.49551e-07
6.81167e-05
1.21655e-06
6.80347e-05
1.87469e-06
6.7923e-05
2.56614e-06
6.77772e-05
3.33212e-06
6.7593e-05
4.23095e-06
6.73638e-05
5.2745e-06
6.70734e-05
6.6967e-06
6.67128e-05
8.29107e-06
6.62344e-05
1.04766e-05
6.56764e-05
1.30168e-05
6.49666e-05
1.61185e-05
6.40541e-05
2.05628e-05
6.28979e-05
2.6755e-05
6.1361e-05
3.4846e-05
5.93587e-05
4.80352e-05
5.65321e-05
6.60742e-05
5.27182e-05
9.91904e-05
4.70899e-05
0.000143292
3.81248e-05
0.000240672
2.46933e-05
0.000316342
0.00049897
6.81691e-05
4.69073e-07
6.81167e-05
1.26924e-06
6.80348e-05
1.95619e-06
6.79232e-05
2.6775e-06
6.77774e-05
3.47658e-06
6.75933e-05
4.4147e-06
6.73641e-05
5.50357e-06
6.70738e-05
6.98717e-06
6.67132e-05
8.65139e-06
6.62307e-05
1.0959e-05
6.56784e-05
1.3569e-05
6.49658e-05
1.68307e-05
6.40535e-05
2.147e-05
6.28981e-05
2.79143e-05
6.13626e-05
3.63834e-05
5.93616e-05
5.0036e-05
5.65403e-05
6.88955e-05
5.27549e-05
0.000102976
4.71799e-05
0.000148867
3.83895e-05
0.000249463
2.50704e-05
0.000329661
0.00052404
6.81691e-05
4.88602e-07
6.81167e-05
1.32198e-06
6.80347e-05
2.03777e-06
6.79231e-05
2.78908e-06
6.77772e-05
3.62139e-06
6.75931e-05
4.59851e-06
6.73639e-05
5.73257e-06
6.70738e-05
7.2774e-06
6.67134e-05
9.0116e-06
6.6229e-05
1.14435e-05
6.56793e-05
1.41186e-05
6.49653e-05
1.75447e-05
6.40532e-05
2.2388e-05
6.28987e-05
2.90642e-05
6.13649e-05
3.79152e-05
5.93662e-05
5.20352e-05
5.65508e-05
7.1711e-05
5.27944e-05
0.000106732
4.72727e-05
0.000154388
3.86606e-05
0.000258075
2.54594e-05
0.000342862
0.0005495
6.81691e-05
5.08114e-07
6.81167e-05
1.37464e-06
6.80348e-05
2.11928e-06
6.79233e-05
2.90042e-06
6.77775e-05
3.76581e-06
6.75935e-05
4.78221e-06
6.73643e-05
5.96159e-06
6.70743e-05
7.56757e-06
6.67121e-05
9.37344e-06
6.62289e-05
1.19268e-05
6.56797e-05
1.46678e-05
6.49649e-05
1.82592e-05
6.40532e-05
2.32948e-05
6.28996e-05
3.02216e-05
6.1368e-05
3.94487e-05
5.93725e-05
5.40304e-05
5.65638e-05
7.45197e-05
5.28366e-05
0.000110459
4.73687e-05
0.000159856
3.89401e-05
0.000266503
2.58619e-05
0.00035594
0.000575361
6.8169e-05
5.27635e-07
6.81167e-05
1.42735e-06
6.80347e-05
2.20088e-06
6.79231e-05
3.01199e-06
6.77773e-05
3.9106e-06
6.75932e-05
4.96596e-06
6.73641e-05
6.19056e-06
6.70744e-05
7.85739e-06
6.67073e-05
9.7403e-06
6.62324e-05
1.24018e-05
6.56798e-05
1.52204e-05
6.49647e-05
1.89743e-05
6.40535e-05
2.42115e-05
6.2901e-05
3.13696e-05
6.13719e-05
4.09759e-05
5.93806e-05
5.60222e-05
5.65793e-05
7.7321e-05
5.28816e-05
0.000114157
4.74683e-05
0.00016527
3.92301e-05
0.000274742
2.62793e-05
0.000368891
0.000601641
6.81691e-05
5.47136e-07
6.81168e-05
1.47997e-06
6.80348e-05
2.28239e-06
6.79233e-05
3.12329e-06
6.77776e-05
4.05499e-06
6.75936e-05
5.14959e-06
6.73645e-05
6.41956e-06
6.7075e-05
8.14706e-06
6.67003e-05
1.01147e-05
6.62377e-05
1.28644e-05
6.568e-05
1.57781e-05
6.49646e-05
1.96894e-05
6.4054e-05
2.51175e-05
6.29028e-05
3.25246e-05
6.13766e-05
4.25039e-05
5.93904e-05
5.80082e-05
5.65975e-05
8.01138e-05
5.29291e-05
0.000117825
4.75715e-05
0.000170627
3.95321e-05
0.000282781
2.67133e-05
0.00038171
0.000628354
6.8169e-05
5.66647e-07
6.81167e-05
1.53265e-06
6.80348e-05
2.364e-06
6.79231e-05
3.23484e-06
6.77773e-05
4.19977e-06
6.75934e-05
5.33328e-06
6.73643e-05
6.64849e-06
6.70751e-05
8.43638e-06
6.66948e-05
1.04947e-05
6.62419e-05
1.33175e-05
6.56801e-05
1.63399e-05
6.49647e-05
2.04049e-05
6.40547e-05
2.60326e-05
6.2905e-05
3.36699e-05
6.13822e-05
4.40247e-05
5.94019e-05
5.9989e-05
5.66182e-05
8.28975e-05
5.29793e-05
0.000121464
4.76783e-05
0.000175928
3.98476e-05
0.000290612
2.71651e-05
0.000394392
0.000655519
6.81691e-05
5.86138e-07
6.81168e-05
1.58524e-06
6.80348e-05
2.44553e-06
6.79234e-05
3.34612e-06
6.77777e-05
4.34411e-06
6.75938e-05
5.51684e-06
6.73647e-05
6.87745e-06
6.70756e-05
8.7256e-06
6.66916e-05
1.08785e-05
6.62446e-05
1.37644e-05
6.56804e-05
1.69041e-05
6.49649e-05
2.11201e-05
6.40557e-05
2.69374e-05
6.29076e-05
3.48217e-05
6.13886e-05
4.55457e-05
5.94149e-05
6.19625e-05
5.66415e-05
8.56708e-05
5.3032e-05
0.000125074
4.77884e-05
0.000181172
4.01772e-05
0.000298223
2.76361e-05
0.000406933
0.000683155
6.8169e-05
6.0564e-07
6.81167e-05
1.63789e-06
6.80348e-05
2.52714e-06
6.79232e-05
3.45765e-06
6.77774e-05
4.48888e-06
6.75935e-05
5.70046e-06
6.73645e-05
7.1063e-06
6.70756e-05
9.01459e-06
6.66895e-05
1.12644e-05
6.62466e-05
1.42073e-05
6.56806e-05
1.74701e-05
6.49653e-05
2.18355e-05
6.40569e-05
2.78508e-05
6.29107e-05
3.59634e-05
6.13957e-05
4.70586e-05
5.94293e-05
6.39293e-05
5.66672e-05
8.84329e-05
5.30874e-05
0.000128653
4.79018e-05
0.000186357
4.05214e-05
0.000305603
2.81271e-05
0.000419328
0.000711282
6.81691e-05
6.25121e-07
6.81168e-05
1.69044e-06
6.80349e-05
2.60867e-06
6.79234e-05
3.5689e-06
6.77778e-05
4.63317e-06
6.7594e-05
5.88396e-06
6.7365e-05
7.33514e-06
6.70761e-05
9.30361e-06
6.66885e-05
1.16518e-05
6.62482e-05
1.46476e-05
6.5681e-05
1.80373e-05
6.49657e-05
2.25505e-05
6.40582e-05
2.87539e-05
6.29141e-05
3.71114e-05
6.14035e-05
4.85712e-05
5.94451e-05
6.58875e-05
5.66955e-05
9.11824e-05
5.31454e-05
0.000132203
4.80181e-05
0.000191485
4.08801e-05
0.000312741
2.86388e-05
0.000431569
0.000739921
6.8169e-05
6.44613e-07
6.81168e-05
1.74307e-06
6.80348e-05
2.6903e-06
6.79232e-05
3.68041e-06
6.77775e-05
4.77791e-06
6.75937e-05
6.06754e-06
6.73648e-05
7.5638e-06
6.7076e-05
9.59253e-06
6.66879e-05
1.20397e-05
6.62496e-05
1.5086e-05
6.56814e-05
1.86055e-05
6.49663e-05
2.32656e-05
6.40598e-05
2.96653e-05
6.29179e-05
3.82488e-05
6.14119e-05
5.0075e-05
5.94622e-05
6.78377e-05
5.67263e-05
9.39184e-05
5.32062e-05
0.000135723
4.81374e-05
0.000196554
4.12528e-05
0.000319626
2.91715e-05
0.00044365
0.000769093
6.81691e-05
6.64085e-07
6.81168e-05
1.79559e-06
6.80349e-05
2.77182e-06
6.79235e-05
3.79162e-06
6.77779e-05
4.92214e-06
6.75941e-05
6.25098e-06
6.73654e-05
7.79242e-06
6.70764e-05
9.88164e-06
6.6688e-05
1.24279e-05
6.62508e-05
1.55232e-05
6.56819e-05
1.91744e-05
6.49671e-05
2.39803e-05
6.40616e-05
3.05665e-05
6.2922e-05
3.93923e-05
6.1421e-05
5.15779e-05
5.94805e-05
6.9778e-05
5.67595e-05
9.66393e-05
5.32699e-05
0.000139213
4.82595e-05
0.000201564
4.16391e-05
0.000326246
2.97253e-05
0.000455564
0.000798818
6.8169e-05
6.83569e-07
6.81168e-05
1.84818e-06
6.80348e-05
2.85345e-06
6.79233e-05
3.90312e-06
6.77776e-05
5.06686e-06
6.75938e-05
6.43452e-06
6.73653e-05
8.02081e-06
6.70762e-05
1.01708e-05
6.6688e-05
1.2816e-05
6.6252e-05
1.59592e-05
6.56825e-05
1.97439e-05
6.49679e-05
2.46949e-05
6.40635e-05
3.14756e-05
6.29265e-05
4.05245e-05
6.14306e-05
5.30717e-05
5.95e-05
7.1709e-05
5.67953e-05
9.93441e-05
5.33366e-05
0.000142672
4.83848e-05
0.000206516
4.20386e-05
0.000332593
3.03002e-05
0.000467302
0.000829118
6.81691e-05
7.03032e-07
6.81168e-05
1.90067e-06
6.80349e-05
2.93498e-06
6.79235e-05
4.01428e-06
6.7778e-05
5.21101e-06
6.75943e-05
6.61793e-06
6.73659e-05
8.24911e-06
6.70763e-05
1.04605e-05
6.66885e-05
1.32036e-05
6.62531e-05
1.63947e-05
6.56831e-05
2.03138e-05
6.49688e-05
2.5409e-05
6.40657e-05
3.23745e-05
6.29312e-05
4.1663e-05
6.14408e-05
5.45641e-05
5.95207e-05
7.36289e-05
5.68334e-05
0.000102031
5.34064e-05
0.000146099
4.85135e-05
0.000211409
4.24511e-05
0.000338655
3.08966e-05
0.000478857
0.000860015
6.8169e-05
7.22509e-07
6.81168e-05
1.95324e-06
6.80349e-05
3.01661e-06
6.79233e-05
4.12576e-06
6.77777e-05
5.35566e-06
6.7594e-05
6.80145e-06
6.73658e-05
8.47713e-06
6.70735e-05
1.07529e-05
6.6691e-05
1.35859e-05
6.62542e-05
1.68315e-05
6.56838e-05
2.08842e-05
6.49699e-05
2.61229e-05
6.4068e-05
3.32811e-05
6.29363e-05
4.27897e-05
6.14515e-05
5.60467e-05
5.95425e-05
7.55383e-05
5.6874e-05
0.0001047
5.34795e-05
0.000149493
4.86459e-05
0.000216242
4.28768e-05
0.000344424
3.15146e-05
0.000490219
0.000891529
6.81691e-05
7.41963e-07
6.81168e-05
2.00569e-06
6.8035e-05
3.09812e-06
6.79236e-05
4.23688e-06
6.77782e-05
5.49972e-06
6.75945e-05
6.98482e-06
6.73664e-05
8.70511e-06
6.70653e-05
1.10541e-05
6.66993e-05
1.39518e-05
6.62552e-05
1.72756e-05
6.56846e-05
2.14549e-05
6.49711e-05
2.68362e-05
6.40705e-05
3.41774e-05
6.29417e-05
4.39228e-05
6.14627e-05
5.75278e-05
5.95654e-05
7.74355e-05
5.69169e-05
0.000107348
5.35562e-05
0.000152854
4.87825e-05
0.000221016
4.3316e-05
0.000349891
3.21548e-05
0.00050138
0.000923684
6.8169e-05
7.61432e-07
6.81168e-05
2.05824e-06
6.80349e-05
3.17975e-06
6.79234e-05
4.34834e-06
6.77779e-05
5.64433e-06
6.75942e-05
7.16824e-06
6.73661e-05
8.93301e-06
6.70584e-05
1.13619e-05
6.67063e-05
1.43039e-05
6.62562e-05
1.77257e-05
6.56854e-05
2.20257e-05
6.49723e-05
2.75493e-05
6.40731e-05
3.50814e-05
6.29473e-05
4.50436e-05
6.14745e-05
5.89983e-05
5.95894e-05
7.9321e-05
5.69621e-05
0.000109976
5.36367e-05
0.000156179
4.89236e-05
0.000225729
4.37691e-05
0.000355045
3.28179e-05
0.000512331
0.000956502
6.81691e-05
7.80877e-07
6.81169e-05
2.11065e-06
6.8035e-05
3.26126e-06
6.79237e-05
4.45941e-06
6.77783e-05
5.78833e-06
6.75948e-05
7.35146e-06
6.73666e-05
9.16105e-06
6.70563e-05
1.16723e-05
6.67091e-05
1.46511e-05
6.62571e-05
1.81777e-05
6.56862e-05
2.25966e-05
6.49737e-05
2.82616e-05
6.40759e-05
3.59748e-05
6.29533e-05
4.61708e-05
6.14868e-05
6.04671e-05
5.96144e-05
8.11932e-05
5.70094e-05
0.000112581
5.37211e-05
0.000159468
4.9069e-05
0.000230381
4.4236e-05
0.000359878
3.35043e-05
0.000523063
0.000990006
6.8169e-05
8.00341e-07
6.81168e-05
2.16317e-06
6.8035e-05
3.34287e-06
6.79235e-05
4.5708e-06
6.7778e-05
5.93287e-06
6.75946e-05
7.53466e-06
6.73651e-05
9.39032e-06
6.70562e-05
1.19812e-05
6.67102e-05
1.49971e-05
6.62579e-05
1.863e-05
6.56871e-05
2.31675e-05
6.49752e-05
2.89736e-05
6.40789e-05
3.68767e-05
6.29595e-05
4.72845e-05
6.14996e-05
6.1924e-05
5.96404e-05
8.30528e-05
5.70587e-05
0.000115162
5.38099e-05
0.000162716
4.92185e-05
0.000234972
4.47151e-05
0.000364382
3.42135e-05
0.000533565
0.00102422
6.8169e-05
8.19782e-07
6.81169e-05
2.21556e-06
6.8035e-05
3.42439e-06
6.79238e-05
4.68185e-06
6.77784e-05
6.07693e-06
6.75953e-05
7.71743e-06
6.7357e-05
9.62848e-06
6.70619e-05
1.22764e-05
6.67108e-05
1.53482e-05
6.62586e-05
1.90821e-05
6.5688e-05
2.37381e-05
6.49767e-05
2.96846e-05
6.40819e-05
3.77666e-05
6.2966e-05
4.84055e-05
6.15129e-05
6.33797e-05
5.96675e-05
8.4898e-05
5.711e-05
0.00011772
5.39033e-05
0.000165923
4.93717e-05
0.000239504
4.5202e-05
0.000368551
3.49422e-05
0.000543825
0.00105916
6.8169e-05
8.39235e-07
6.81168e-05
2.26803e-06
6.8035e-05
3.50601e-06
6.79235e-05
4.79322e-06
6.7778e-05
6.2216e-06
6.75952e-05
7.90005e-06
6.73489e-05
9.87453e-06
6.70672e-05
1.25581e-05
6.6711e-05
1.57043e-05
6.62592e-05
1.95339e-05
6.56889e-05
2.43085e-05
6.49783e-05
3.03953e-05
6.40851e-05
3.86655e-05
6.29727e-05
4.95122e-05
6.15268e-05
6.48226e-05
5.96955e-05
8.67297e-05
5.7163e-05
0.000120252
5.40018e-05
0.000169084
4.9528e-05
0.000243978
4.56871e-05
0.000372392
3.56826e-05
0.000553829
0.00109484
6.8169e-05
8.58621e-07
6.81169e-05
2.32037e-06
6.80351e-05
3.58747e-06
6.79239e-05
4.90412e-06
6.77786e-05
6.36542e-06
6.7596e-05
8.08232e-06
6.73468e-05
1.01236e-05
6.70687e-05
1.28362e-05
6.67112e-05
1.60618e-05
6.62598e-05
1.99853e-05
6.56898e-05
2.48784e-05
6.49799e-05
3.1105e-05
6.40884e-05
3.95521e-05
6.29797e-05
5.06259e-05
6.15411e-05
6.62638e-05
5.97244e-05
8.85462e-05
5.72172e-05
0.000122759
5.41065e-05
0.000172195
4.96866e-05
0.000248398
4.6167e-05
0.000375912
3.65139e-05
0.000563482
0.00113136
-5.8968e-06
5.89678e-06
-1.05083e-05
4.61151e-06
-1.10522e-05
5.43862e-07
-8.52073e-06
-2.53166e-06
-6.16554e-06
-2.35493e-06
-4.91385e-06
-1.25249e-06
-4.37276e-06
-5.41835e-07
-4.23862e-06
-1.35453e-07
-4.1098e-06
-1.36662e-07
-3.93858e-06
-1.8183e-07
-3.61347e-06
-3.87668e-07
-2.69618e-06
-8.36063e-07
-9.78678e-07
-1.69646e-06
1.35966e-06
-2.34216e-06
4.37087e-06
-3.01966e-06
8.12236e-06
-3.75782e-06
1.24559e-05
-4.33555e-06
1.69156e-05
-4.45961e-06
2.10596e-05
-4.1418e-06
2.47571e-05
-3.69744e-06
2.81792e-05
-3.4202e-06
3.14928e-05
-3.31467e-06
3.47935e-05
-3.30074e-06
3.82398e-05
-3.44599e-06
4.17759e-05
-3.53292e-06
4.75932e-05
-5.81967e-06
5.73315e-05
-9.74305e-06
6.46783e-05
-7.3466e-06
6.65121e-05
-1.83221e-06
6.68087e-05
-2.9772e-07
6.69703e-05
-1.61633e-07
6.71595e-05
-1.89259e-07
6.73264e-05
-1.66917e-07
6.7464e-05
-1.37606e-07
-6.58704e-08
-5.7875e-06
1.16842e-05
-1.03706e-05
9.19454e-06
-1.09262e-05
1.09936e-06
-8.40656e-06
-5.05152e-06
-6.05742e-06
-4.70358e-06
-4.80059e-06
-2.51086e-06
-4.2431e-06
-1.10075e-06
-4.09312e-06
-2.8803e-07
-3.97566e-06
-2.68843e-07
-3.88914e-06
-2.88725e-07
-3.69737e-06
-6.78167e-07
-2.85881e-06
-1.53908e-06
-1.09863e-06
-3.41531e-06
1.40153e-06
-4.84953e-06
4.50341e-06
-6.13837e-06
8.16514e-06
-7.43254e-06
1.23377e-05
-8.51222e-06
1.67142e-05
-8.83579e-06
2.08644e-05
-8.28771e-06
2.46019e-05
-7.43483e-06
2.80554e-05
-6.86993e-06
3.13792e-05
-6.64053e-06
3.46686e-05
-6.59036e-06
3.80808e-05
-6.85753e-06
4.15482e-05
-6.99443e-06
4.70635e-05
-1.13395e-05
5.67787e-05
-1.94671e-05
6.45252e-05
-1.50926e-05
6.65057e-05
-3.80992e-06
6.68155e-05
-6.09528e-07
6.69734e-05
-3.19674e-07
6.71609e-05
-3.76756e-07
6.73275e-05
-3.33591e-07
6.7465e-05
-2.75144e-07
-1.31736e-07
-5.67356e-06
1.73578e-05
-1.02119e-05
1.37328e-05
-1.07557e-05
1.64309e-06
-8.2299e-06
-7.57761e-06
-5.89108e-06
-7.04194e-06
-4.63573e-06
-3.7677e-06
-4.0704e-06
-1.66737e-06
-3.92298e-06
-4.37749e-07
-3.85182e-06
-3.53786e-07
-3.87343e-06
-2.85931e-07
-3.7953e-06
-8.57615e-07
-2.98373e-06
-2.2082e-06
-1.11439e-06
-5.24142e-06
1.55024e-06
-7.52263e-06
4.70242e-06
-9.309e-06
8.23576e-06
-1.09798e-05
1.22349e-05
-1.25156e-05
1.65339e-05
-1.31345e-05
2.06991e-05
-1.24486e-05
2.44815e-05
-1.12171e-05
2.79706e-05
-1.03553e-05
3.13075e-05
-9.97944e-06
3.4586e-05
-9.86903e-06
3.79643e-05
-1.02352e-05
4.13718e-05
-1.03959e-05
4.66091e-05
-1.65812e-05
5.62817e-05
-2.91482e-05
6.43788e-05
-2.31893e-05
6.64996e-05
-5.92804e-06
6.68223e-05
-9.34158e-07
6.69768e-05
-4.7426e-07
6.71625e-05
-5.6247e-07
6.73288e-05
-4.9991e-07
6.74661e-05
-4.12514e-07
-1.97517e-07
-5.54397e-06
2.29017e-05
-1.00284e-05
1.82171e-05
-1.05376e-05
2.15229e-06
-7.98989e-06
-1.01257e-05
-5.67182e-06
-9.35954e-06
-4.43164e-06
-5.00949e-06
-3.8705e-06
-2.22991e-06
-3.73476e-06
-5.76122e-07
-3.71418e-06
-3.88767e-07
-3.84131e-06
-1.79303e-07
-3.86708e-06
-9.15371e-07
-3.06648e-06
-2.87632e-06
-1.0687e-06
-7.18838e-06
1.77565e-06
-1.03765e-05
4.98103e-06
-1.25373e-05
8.37025e-06
-1.4387e-05
1.21694e-05
-1.63202e-05
1.63724e-05
-1.73372e-05
2.05531e-05
-1.66238e-05
2.43909e-05
-1.50548e-05
2.79241e-05
-1.38842e-05
3.12777e-05
-1.33353e-05
3.4547e-05
-1.31386e-05
3.78918e-05
-1.35794e-05
4.12437e-05
-1.37415e-05
4.6232e-05
-2.15744e-05
5.58438e-05
-3.87687e-05
6.42384e-05
-3.15834e-05
6.64935e-05
-8.18044e-06
6.68293e-05
-1.272e-06
6.69805e-05
-6.25558e-07
6.71644e-05
-7.46429e-07
6.73303e-05
-6.65804e-07
6.74674e-05
-5.49622e-07
-2.6315e-07
-5.39854e-06
2.83002e-05
-9.81693e-06
2.26355e-05
-1.02645e-05
2.59975e-06
-7.68162e-06
-1.27089e-05
-5.39912e-06
-1.16416e-05
-4.18864e-06
-6.22153e-06
-3.64298e-06
-2.77679e-06
-3.52494e-06
-6.96439e-07
-3.55696e-06
-3.69987e-07
-3.78588e-06
3.05766e-08
-3.90503e-06
-8.72644e-07
-3.09706e-06
-3.55436e-06
-9.44675e-07
-9.28723e-06
2.10407e-06
-1.34371e-05
5.37086e-06
-1.58302e-05
8.59846e-06
-1.76345e-05
1.21614e-05
-1.98891e-05
1.62386e-05
-2.1414e-05
2.04304e-05
-2.08097e-05
2.43346e-05
-1.89588e-05
2.79213e-05
-1.74663e-05
3.12953e-05
-1.67119e-05
3.45564e-05
-1.63999e-05
3.78668e-05
-1.6889e-05
4.11653e-05
-1.70335e-05
4.59301e-05
-2.63442e-05
5.54623e-05
-4.83091e-05
6.41033e-05
-4.02239e-05
6.64873e-05
-1.05619e-05
6.68365e-05
-1.6231e-06
6.69845e-05
-7.73708e-07
6.71667e-05
-9.28614e-07
6.7332e-05
-8.31176e-07
6.74687e-05
-6.86357e-07
-3.28566e-07
-5.23675e-06
3.35369e-05
-9.57371e-06
2.69724e-05
-9.92757e-06
2.9535e-06
-7.29865e-06
-1.53382e-05
-5.07056e-06
-1.38692e-05
-3.90463e-06
-7.3892e-06
-3.3848e-06
-3.29805e-06
-3.28813e-06
-7.95946e-07
-3.37344e-06
-2.99384e-07
-3.69922e-06
3.34597e-07
-3.89863e-06
-7.35583e-07
-3.06091e-06
-4.26609e-06
-7.21439e-07
-1.15625e-05
2.5645e-06
-1.6736e-05
5.90685e-06
-1.92054e-05
8.95705e-06
-2.07114e-05
1.22446e-05
-2.31846e-05
1.61566e-05
-2.53256e-05
2.03463e-05
-2.49913e-05
2.43251e-05
-2.29373e-05
2.79744e-05
-2.111e-05
3.13719e-05
-2.01125e-05
3.46239e-05
-1.96521e-05
3.78963e-05
-2.01606e-05
4.11406e-05
-2.02706e-05
4.5701e-05
-3.09102e-05
5.51325e-05
-5.77494e-05
6.3973e-05
-4.90638e-05
6.64809e-05
-1.30672e-05
6.68438e-05
-1.98801e-06
6.69889e-05
-9.18943e-07
6.71693e-05
-1.10907e-06
6.7334e-05
-9.95958e-07
6.74703e-05
-8.22626e-07
-3.93701e-07
-5.05785e-06
3.85947e-05
-9.29385e-06
3.12083e-05
-9.51729e-06
3.17683e-06
-6.83352e-06
-1.80224e-05
-4.68196e-06
-1.60203e-05
-3.5751e-06
-8.49777e-06
-3.09063e-06
-3.78374e-06
-3.01729e-06
-8.71787e-07
-3.15562e-06
-1.74769e-07
-3.57252e-06
7.30639e-07
-3.83623e-06
-5.23758e-07
-2.94176e-06
-5.04147e-06
-3.77163e-07
-1.40606e-05
3.18821e-06
-2.0317e-05
6.62976e-06
-2.26831e-05
9.49021e-06
-2.36019e-05
1.24624e-05
-2.61653e-05
1.61648e-05
-2.90275e-05
2.03291e-05
-2.9147e-05
2.43849e-05
-2.69928e-05
2.81044e-05
-2.48233e-05
3.15276e-05
-2.35394e-05
3.47664e-05
-2.28912e-05
3.79928e-05
-2.3386e-05
4.11777e-05
-2.34478e-05
4.55444e-05
-3.52828e-05
5.4851e-05
-6.70647e-05
6.38473e-05
-5.80596e-05
6.64743e-05
-1.56917e-05
6.68511e-05
-2.36671e-06
6.69935e-05
-1.06144e-06
6.71722e-05
-1.28776e-06
6.73362e-05
-1.16004e-06
6.74719e-05
-9.58314e-07
-4.58483e-07
-4.86089e-06
4.34556e-05
-8.97175e-06
3.53191e-05
-9.025e-06
3.22993e-06
-6.28102e-06
-2.07668e-05
-4.22931e-06
-1.80716e-05
-3.1944e-06
-9.5346e-06
-2.75368e-06
-4.22601e-06
-2.70402e-06
-9.24726e-07
-2.89415e-06
-6.7494e-10
-3.39548e-06
1.20717e-06
-3.70432e-06
-2.5728e-07
-2.72053e-06
-5.90222e-06
1.10329e-07
-1.68103e-05
4.00238e-06
-2.42254e-05
7.57997e-06
-2.63052e-05
1.02492e-05
-2.63109e-05
1.28676e-05
-2.87954e-05
1.63143e-05
-3.24734e-05
2.04219e-05
-3.32428e-05
2.45492e-05
-3.11198e-05
2.83447e-05
-2.8611e-05
3.17952e-05
-2.69943e-05
3.50129e-05
-2.61093e-05