/*--------------------------------*- C++ -*----------------------------------*\
| =========                 |                                                 |
| \\      /  F ield         | OpenFOAM: The Open Source CFD Toolbox           |
|  \\    /   O peration     | Version:  v1912                                 |
|   \\  /    A nd           | Website:  www.openfoam.com                      |
|    \\/     M anipulation  |                                                 |
\*---------------------------------------------------------------------------*/
FoamFile
{
    version     2.0;
    format      ascii;
    class       volScalarField;
    location    "240";
    object      yPlus;
}
// * * * * * * * * * * * * * * * * * * * * * * * * * * * * * * * * * * * * * //

dimensions      [0 0 0 0 0 0 0];


internalField   uniform 0;

boundaryField
{
    inlet
    {
        type            calculated;
        value           uniform 0;
    }
    outlet
    {
        type            calculated;
        value           uniform 0;
    }
    lowerSymmetry
    {
        type            symmetryPlane;
    }
    obstical
    {
        type            calculated;
        value           nonuniform List<scalar> 
88
(
487.024
489.189
493.563
500.138
508.848
519.6
532.301
546.857
563.178
581.174
600.759
621.849
644.353
668.179
693.23
719.412
746.638
774.829
803.916
833.841
864.558
896.031
928.233
961.148
994.767
1029.09
1064.11
1099.86
1136.34
1173.57
1211.57
1250.36
1289.98
1330.43
1371.74
1413.93
1457.03
1501.05
1546.03
1591.98
1638.92
1686.93
1736.4
1791.27
123.625
122.265
121.211
120.599
120.414
120.629
121.208
122.118
123.324
124.796
126.505
128.428
130.547
132.846
135.316
137.954
140.768
143.776
147.009
150.497
154.246
158.166
162.152
166.121
169.981
173.65
177.068
180.204
183.055
185.613
187.796
189.365
189.851
188.542
184.558
177.023
165.238
148.751
127.274
100.511
68.0611
31.4323
42.9467
91.0838
)
;
    }
    obsticalTop
    {
        type            calculated;
        value           nonuniform List<scalar> 
20
(
53.2776
38.54
46.9851
53.1372
56.023
57.6948
58.3328
58.0708
57.167
55.756
53.8178
51.2479
47.9579
43.7713
38.657
31.9818
25.6892
16.306
14.6562
10.5689
)
;
    }
    top
    {
        type            calculated;
        value           uniform 0;
    }
    defaultFaces
    {
        type            empty;
    }
}


// ************************************************************************* //
