# Solver information
# Time        	U_solver      	Ux_initial    	Ux_final      	Ux_iters      	Uy_initial    	Uy_final      	Uy_iters      	U_converged   	p_solver      	p_initial     	p_final       	p_iters       	p_converged   
1             	smoothSolver	1.000000e+00	4.769520e-02	3	1.000000e+00	5.472360e-02	2	false	GAMG	1.000000e+00	8.163850e-02	12	true
2             	smoothSolver	1.875390e-02	1.612560e-03	7	4.469090e-01	4.330890e-02	11	false	GAMG	1.211160e-03	8.098250e-05	7	true
3             	smoothSolver	9.168440e-03	8.500000e-04	7	2.718760e-01	2.642180e-02	11	false	GAMG	1.106530e-03	9.233140e-05	5	true
4             	smoothSolver	5.570880e-03	5.547990e-04	7	1.908440e-01	1.860050e-02	11	false	GAMG	1.080490e-03	8.921590e-05	7	true
5             	smoothSolver	3.801250e-03	3.599680e-04	7	1.315640e-01	1.281090e-02	11	false	GAMG	1.182250e-03	8.737880e-05	5	true
6             	smoothSolver	2.843360e-03	2.698230e-04	7	1.010400e-01	9.746230e-03	11	false	GAMG	1.034970e-03	5.710950e-05	7	true
7             	smoothSolver	2.288240e-03	2.107040e-04	7	8.220120e-02	7.939900e-03	11	false	GAMG	9.909860e-04	9.460470e-05	5	true
8             	smoothSolver	1.937010e-03	1.771260e-04	7	6.967340e-02	6.670160e-03	11	false	GAMG	9.362510e-04	7.188930e-05	5	true
9             	smoothSolver	1.697210e-03	1.511630e-04	7	6.082120e-02	5.867990e-03	11	false	GAMG	8.939980e-04	8.397190e-05	5	true
10            	smoothSolver	1.565720e-03	1.325020e-04	7	5.371990e-02	5.158340e-03	11	false	GAMG	9.412570e-04	6.670160e-05	4	true
11            	smoothSolver	1.456420e-03	1.203730e-04	7	4.925790e-02	4.772920e-03	11	false	GAMG	8.938640e-04	5.384160e-05	5	true
12            	smoothSolver	1.353970e-03	1.350430e-04	6	4.480950e-02	4.343840e-03	11	false	GAMG	1.014780e-03	5.600650e-05	3	true
13            	smoothSolver	1.264940e-03	1.259640e-04	6	4.211960e-02	4.116580e-03	11	false	GAMG	8.992800e-04	5.821420e-05	3	true
14            	smoothSolver	1.187210e-03	9.572150e-05	7	3.980060e-02	3.919010e-03	11	false	GAMG	8.584010e-04	7.023300e-05	3	true
15            	smoothSolver	1.113360e-03	9.073070e-05	7	3.765880e-02	3.729790e-03	11	false	GAMG	8.062030e-04	7.083380e-05	3	true
16            	smoothSolver	1.050660e-03	8.676050e-05	7	3.573970e-02	3.556710e-03	11	false	GAMG	8.447390e-04	7.426690e-05	3	true
17            	smoothSolver	9.854240e-04	8.208700e-05	7	3.398550e-02	2.771870e-03	12	false	GAMG	7.439070e-04	7.033810e-05	3	true
18            	smoothSolver	9.347450e-04	7.930480e-05	7	3.244570e-02	2.661280e-03	12	false	GAMG	8.028220e-04	6.972680e-05	3	true
19            	smoothSolver	8.819020e-04	7.524140e-05	7	3.104720e-02	2.558180e-03	12	false	GAMG	7.628080e-04	7.349780e-05	3	true
20            	smoothSolver	8.457100e-04	7.325110e-05	7	2.974660e-02	2.464810e-03	12	false	GAMG	7.703500e-04	6.847590e-05	3	true
21            	smoothSolver	8.052790e-04	6.944260e-05	7	2.855610e-02	2.376080e-03	12	false	GAMG	7.563620e-04	7.104260e-05	3	true
22            	smoothSolver	7.752150e-04	6.792220e-05	7	2.742780e-02	2.292870e-03	12	false	GAMG	7.688430e-04	7.155980e-05	3	true
23            	smoothSolver	7.376910e-04	6.425520e-05	7	2.639470e-02	2.214170e-03	12	false	GAMG	6.956230e-04	6.356150e-05	4	true
24            	smoothSolver	7.087350e-04	6.254980e-05	7	2.536860e-02	2.133810e-03	12	false	GAMG	6.617360e-04	6.463950e-05	3	true
25            	smoothSolver	6.799380e-04	6.003760e-05	7	2.449320e-02	2.066000e-03	12	false	GAMG	6.285120e-04	4.841630e-05	4	true
26            	smoothSolver	6.570570e-04	5.892330e-05	7	2.371200e-02	2.005940e-03	12	false	GAMG	5.972770e-04	5.227790e-05	4	true
27            	smoothSolver	6.288110e-04	5.592360e-05	7	2.291710e-02	1.943330e-03	12	false	GAMG	6.170080e-04	5.735770e-05	4	true
28            	smoothSolver	6.102350e-04	5.535760e-05	7	2.225820e-02	1.890860e-03	12	false	GAMG	5.651860e-04	5.269690e-05	4	true
29            	smoothSolver	5.846430e-04	5.252750e-05	7	2.155650e-02	1.835550e-03	12	false	GAMG	5.989360e-04	3.885250e-05	5	true
30            	smoothSolver	5.703740e-04	5.253720e-05	7	2.098090e-02	1.788170e-03	12	false	GAMG	5.519150e-04	3.799870e-05	5	true
31            	smoothSolver	5.463860e-04	4.980120e-05	7	2.036880e-02	1.740030e-03	12	false	GAMG	5.817820e-04	5.607510e-05	4	true
32            	smoothSolver	5.351470e-04	5.017950e-05	7	1.987600e-02	1.700130e-03	12	false	GAMG	5.268400e-04	5.164060e-05	4	true
33            	smoothSolver	5.131190e-04	4.753550e-05	7	1.935260e-02	1.659310e-03	12	false	GAMG	5.612410e-04	5.098590e-05	4	true
34            	smoothSolver	5.045740e-04	4.831960e-05	7	1.890290e-02	1.622690e-03	12	false	GAMG	5.026010e-04	3.885540e-05	5	true
35            	smoothSolver	4.832790e-04	4.561860e-05	7	1.846490e-02	1.588120e-03	12	false	GAMG	4.838710e-04	4.792920e-05	4	true
36            	smoothSolver	4.780070e-04	4.697790e-05	7	1.804520e-02	1.555330e-03	12	false	GAMG	4.755620e-04	3.555900e-05	5	true
37            	smoothSolver	4.561870e-04	4.391710e-05	7	1.769280e-02	1.526770e-03	12	false	GAMG	4.612030e-04	4.568220e-05	4	true
38            	smoothSolver	4.539720e-04	3.699050e-05	8	1.730330e-02	1.497210e-03	12	false	GAMG	4.620270e-04	3.612230e-05	4	true
39            	smoothSolver	4.289390e-04	4.182240e-05	7	1.685760e-02	1.460490e-03	12	false	GAMG	4.272950e-04	3.815480e-05	5	true
40            	smoothSolver	4.268680e-04	3.506510e-05	8	1.644980e-02	1.429130e-03	12	false	GAMG	4.146540e-04	3.281180e-05	4	true
41            	smoothSolver	4.046330e-04	3.999300e-05	7	1.618850e-02	1.408930e-03	12	false	GAMG	4.049350e-04	3.998950e-05	4	true
42            	smoothSolver	4.023470e-04	3.343160e-05	8	1.571580e-02	1.370540e-03	12	false	GAMG	3.817490e-04	2.993790e-05	4	true
43            	smoothSolver	3.825620e-04	3.099550e-05	8	1.551860e-02	1.355920e-03	12	false	GAMG	3.523580e-04	2.858700e-05	4	true
44            	smoothSolver	3.770260e-04	3.139060e-05	8	1.499170e-02	1.311840e-03	12	false	GAMG	3.348410e-04	2.623050e-05	4	true
45            	smoothSolver	3.608430e-04	2.955330e-05	8	1.478620e-02	1.296680e-03	12	false	GAMG	3.129590e-04	2.729160e-05	4	true
46            	smoothSolver	3.560090e-04	2.996740e-05	8	1.440050e-02	1.263550e-03	12	false	GAMG	3.119030e-04	2.496500e-05	4	true
47            	smoothSolver	3.416010e-04	2.837340e-05	8	1.420060e-02	1.249130e-03	12	false	GAMG	2.879630e-04	2.409560e-05	4	true
48            	smoothSolver	3.362610e-04	2.858490e-05	8	1.385040e-02	1.218940e-03	12	false	GAMG	2.736610e-04	2.159570e-05	4	true
49            	smoothSolver	3.235090e-04	2.722680e-05	8	1.363020e-02	1.202040e-03	12	false	GAMG	2.613820e-04	2.097800e-05	4	true
50            	smoothSolver	3.178140e-04	2.726450e-05	8	1.331230e-02	1.174670e-03	12	false	GAMG	2.481920e-04	1.969860e-05	4	true
51            	smoothSolver	3.065990e-04	2.612720e-05	8	1.309130e-02	1.157180e-03	12	false	GAMG	2.348250e-04	1.978610e-05	4	true
52            	smoothSolver	3.008200e-04	2.605680e-05	8	1.281290e-02	1.133170e-03	12	false	GAMG	2.343370e-04	1.932670e-05	4	true
53            	smoothSolver	2.909400e-04	2.510090e-05	8	1.259410e-02	1.115360e-03	12	false	GAMG	2.213830e-04	2.011020e-05	4	true
54            	smoothSolver	2.852390e-04	2.494220e-05	8	1.234510e-02	1.093980e-03	12	false	GAMG	2.231100e-04	2.006170e-05	4	true
55            	smoothSolver	2.763230e-04	2.411060e-05	8	1.212670e-02	1.075710e-03	12	false	GAMG	2.223860e-04	2.066320e-05	4	true
56            	smoothSolver	2.705770e-04	2.387740e-05	8	1.189460e-02	1.055720e-03	12	false	GAMG	2.187760e-04	2.021120e-05	4	true
57            	smoothSolver	2.624190e-04	2.313840e-05	8	1.167700e-02	1.037290e-03	12	false	GAMG	2.237180e-04	2.069250e-05	4	true
58            	smoothSolver	2.566530e-04	2.284880e-05	8	1.145450e-02	1.018230e-03	12	false	GAMG	2.163640e-04	1.972780e-05	4	true
59            	smoothSolver	2.491810e-04	2.218990e-05	8	1.124010e-02	9.999290e-04	12	false	GAMG	2.128600e-04	2.029410e-05	4	true
60            	smoothSolver	2.435040e-04	2.186540e-05	8	1.102770e-02	9.817560e-04	12	false	GAMG	2.026590e-04	1.923940e-05	4	true
61            	smoothSolver	2.366660e-04	2.127460e-05	8	1.081990e-02	9.640630e-04	12	false	GAMG	2.006830e-04	1.940770e-05	4	true
62            	smoothSolver	2.310460e-04	2.092890e-05	8	1.061610e-02	9.465520e-04	12	false	GAMG	1.946940e-04	1.816920e-05	4	true
63            	smoothSolver	2.246840e-04	2.038500e-05	8	1.041390e-02	9.291930e-04	12	false	GAMG	1.927190e-04	1.801000e-05	4	true
64            	smoothSolver	2.192830e-04	2.003650e-05	8	1.021780e-02	9.123220e-04	12	false	GAMG	1.924750e-04	1.700870e-05	4	true
65            	smoothSolver	2.134150e-04	1.953780e-05	8	1.002200e-02	8.954110e-04	12	false	GAMG	1.914880e-04	1.695530e-05	4	true
66            	smoothSolver	2.082520e-04	1.918060e-05	8	9.832060e-03	8.790140e-04	12	false	GAMG	1.983010e-04	1.636460e-05	4	true
67            	smoothSolver	2.027500e-04	1.871980e-05	8	9.642150e-03	8.625700e-04	12	false	GAMG	1.979590e-04	1.589850e-05	4	true
68            	smoothSolver	1.977450e-04	1.835240e-05	8	9.456140e-03	8.463600e-04	12	false	GAMG	1.974890e-04	1.494590e-05	4	true
69            	smoothSolver	1.925130e-04	1.791510e-05	8	9.267890e-03	8.300460e-04	12	false	GAMG	1.976710e-04	1.419310e-05	4	true
70            	smoothSolver	1.876990e-04	1.755060e-05	8	9.088590e-03	8.141750e-04	12	false	GAMG	1.965260e-04	1.340840e-05	4	true
71            	smoothSolver	1.827190e-04	1.713510e-05	8	8.904020e-03	7.980620e-04	12	false	GAMG	1.955890e-04	1.313670e-05	4	true
72            	smoothSolver	1.780860e-04	1.677190e-05	8	8.725500e-03	7.823050e-04	12	false	GAMG	1.858860e-04	1.253670e-05	4	true
73            	smoothSolver	1.733680e-04	1.637690e-05	8	8.543500e-03	7.662920e-04	12	false	GAMG	1.835100e-04	1.232770e-05	4	true
74            	smoothSolver	1.688980e-04	1.601520e-05	8	8.363750e-03	7.505570e-04	12	false	GAMG	1.799140e-04	1.172710e-05	4	true
75            	smoothSolver	1.644000e-04	1.563890e-05	8	8.183560e-03	7.346840e-04	12	false	GAMG	1.732850e-04	1.154890e-05	4	true
76            	smoothSolver	1.601110e-04	1.528340e-05	8	8.003740e-03	7.190360e-04	12	false	GAMG	1.699040e-04	1.121940e-05	4	true
77            	smoothSolver	1.557840e-04	1.491860e-05	8	7.822780e-03	7.031910e-04	12	false	GAMG	1.645390e-04	1.151960e-05	4	true
78            	smoothSolver	1.516640e-04	1.457720e-05	8	7.643480e-03	6.875330e-04	12	false	GAMG	1.613980e-04	1.166590e-05	4	true
79            	smoothSolver	1.476130e-04	1.423220e-05	8	7.464550e-03	6.719000e-04	12	false	GAMG	1.553220e-04	1.227680e-05	4	true
80            	smoothSolver	1.436910e-04	1.390180e-05	8	7.288550e-03	6.564500e-04	12	false	GAMG	1.582150e-04	1.270780e-05	4	true
81            	smoothSolver	1.398150e-04	1.356530e-05	8	7.110670e-03	6.409140e-04	12	false	GAMG	1.605040e-04	1.295490e-05	4	true
82            	smoothSolver	1.359940e-04	1.323710e-05	8	6.932860e-03	6.253320e-04	12	false	GAMG	1.616040e-04	1.359450e-05	4	true
83            	smoothSolver	1.322480e-04	1.290790e-05	8	6.754580e-03	6.096980e-04	12	false	GAMG	1.640830e-04	1.368590e-05	4	true
84            	smoothSolver	1.285280e-04	1.258550e-05	8	6.576930e-03	5.940600e-04	12	false	GAMG	1.632440e-04	1.416710e-05	4	true
85            	smoothSolver	1.249190e-04	1.226470e-05	8	6.402090e-03	5.784910e-04	12	false	GAMG	1.604660e-04	1.439200e-05	4	true
86            	smoothSolver	1.213400e-04	1.195180e-05	8	6.227800e-03	5.629540e-04	12	false	GAMG	1.586460e-04	1.506680e-05	3	true
87            	smoothSolver	1.178230e-04	1.163370e-05	8	6.049020e-03	5.469890e-04	12	false	GAMG	1.557510e-04	1.545820e-05	4	true
88            	smoothSolver	1.143460e-04	1.133090e-05	8	5.876560e-03	5.315090e-04	12	false	GAMG	1.557850e-04	1.488660e-05	3	true
89            	smoothSolver	1.109860e-04	1.103320e-05	8	5.701060e-03	5.158340e-04	12	false	GAMG	1.567690e-04	1.035760e-05	5	true
90            	smoothSolver	1.077410e-04	1.075610e-05	8	5.534170e-03	5.008780e-04	12	false	GAMG	1.563780e-04	1.141690e-05	3	true
91            	smoothSolver	1.043730e-04	1.043150e-05	8	5.352610e-03	4.846020e-04	12	false	GAMG	1.582090e-04	1.422920e-05	3	true
92            	smoothSolver	1.010220e-04	8.229830e-06	9	5.173720e-03	4.685220e-04	12	false	GAMG	1.882070e-04	1.196620e-05	5	true
93            	smoothSolver	9.837340e-05	8.074410e-06	9	5.031370e-03	4.557950e-04	12	false	GAMG	1.796950e-04	1.474830e-05	3	true
94            	smoothSolver	9.502190e-05	7.820880e-06	9	4.854120e-03	4.399180e-04	12	false	GAMG	1.766830e-04	1.523680e-05	3	true
95            	smoothSolver	9.179030e-05	7.559510e-06	9	4.675300e-03	4.237600e-04	12	false	GAMG	1.764500e-04	1.576600e-05	3	true
96            	smoothSolver	8.850810e-05	7.309100e-06	9	4.494240e-03	4.074720e-04	12	false	GAMG	1.711240e-04	1.623380e-05	3	true
97            	smoothSolver	8.549030e-05	7.075040e-06	9	4.329650e-03	3.925430e-04	12	false	GAMG	1.698850e-04	1.501520e-05	3	true
98            	smoothSolver	8.236340e-05	6.840960e-06	9	4.164470e-03	3.775660e-04	12	false	GAMG	1.626940e-04	1.432180e-05	3	true
99            	smoothSolver	7.939010e-05	6.606690e-06	9	4.007440e-03	3.631970e-04	12	false	GAMG	1.592210e-04	1.321190e-05	3	true
100           	smoothSolver	7.631280e-05	6.371540e-06	9	3.843890e-03	3.481600e-04	12	false	GAMG	1.538700e-04	1.253230e-05	3	true
101           	smoothSolver	7.347960e-05	6.150840e-06	9	3.698480e-03	3.347420e-04	12	false	GAMG	1.501510e-04	1.154050e-05	3	true
102           	smoothSolver	7.051060e-05	5.923630e-06	9	3.542430e-03	3.203020e-04	12	false	GAMG	1.469190e-04	1.089320e-05	3	true
103           	smoothSolver	6.777620e-05	5.704610e-06	9	3.407110e-03	3.077230e-04	12	false	GAMG	1.468240e-04	1.096660e-05	3	true
104           	smoothSolver	6.503690e-05	5.493980e-06	9	3.260550e-03	2.941090e-04	12	false	GAMG	1.433830e-04	1.040040e-05	3	true
105           	smoothSolver	6.249090e-05	5.277420e-06	9	3.138580e-03	2.827180e-04	12	false	GAMG	1.422170e-04	1.134190e-05	3	true
106           	smoothSolver	6.000590e-05	5.090370e-06	9	3.006360e-03	2.703720e-04	12	false	GAMG	1.391980e-04	1.065370e-05	3	true
107           	smoothSolver	5.755290e-05	4.874670e-06	9	2.900930e-03	2.605340e-04	12	false	GAMG	1.362330e-04	1.243590e-05	3	true
108           	smoothSolver	5.525830e-05	4.710300e-06	9	2.783180e-03	2.494850e-04	12	false	GAMG	1.361600e-04	1.104910e-05	3	true
109           	smoothSolver	5.283790e-05	4.487990e-06	9	2.691820e-03	2.409170e-04	12	false	GAMG	1.342410e-04	1.188900e-05	4	true
110           	smoothSolver	5.088220e-05	4.364600e-06	9	2.601690e-03	2.323790e-04	12	false	GAMG	1.354210e-04	8.809490e-06	4	true
111           	smoothSolver	4.846850e-05	4.127020e-06	9	2.525030e-03	2.251430e-04	12	false	GAMG	1.352690e-04	8.611940e-06	4	true
112           	smoothSolver	4.652010e-05	3.994310e-06	9	2.428860e-03	2.160630e-04	12	false	GAMG	1.355660e-04	8.738930e-06	4	true
113           	smoothSolver	4.430370e-05	3.776630e-06	9	2.367880e-03	2.102930e-04	12	false	GAMG	1.344130e-04	8.425930e-06	4	true
114           	smoothSolver	4.268080e-05	3.686600e-06	9	2.289350e-03	2.027960e-04	12	false	GAMG	1.375090e-04	8.502430e-06	4	true
115           	smoothSolver	4.059020e-05	3.467080e-06	9	2.255020e-03	1.995010e-04	12	false	GAMG	1.409170e-04	8.315660e-06	4	true
116           	smoothSolver	3.917980e-05	3.391600e-06	9	2.181150e-03	1.925220e-04	12	false	GAMG	1.445210e-04	8.984150e-06	4	true
117           	smoothSolver	3.713760e-05	3.162500e-06	9	2.152500e-03	1.898570e-04	12	false	GAMG	1.445480e-04	8.497960e-06	4	true
118           	smoothSolver	3.601850e-05	3.126550e-06	9	2.089780e-03	1.840420e-04	12	false	GAMG	1.455610e-04	8.901820e-06	4	true
119           	smoothSolver	3.403100e-05	2.899940e-06	9	2.082060e-03	1.833310e-04	12	false	GAMG	1.470300e-04	8.422400e-06	4	true
120           	smoothSolver	3.307300e-05	2.875130e-06	9	2.016990e-03	1.776220e-04	12	false	GAMG	1.454300e-04	8.888210e-06	4	true
121           	smoothSolver	3.121490e-05	2.659580e-06	9	2.014280e-03	1.774980e-04	12	false	GAMG	1.457590e-04	8.376670e-06	4	true
122           	smoothSolver	3.045960e-05	2.653880e-06	9	1.952610e-03	1.723700e-04	12	false	GAMG	1.446680e-04	8.946900e-06	4	true
123           	smoothSolver	2.871070e-05	2.455940e-06	9	1.963620e-03	1.734930e-04	12	false	GAMG	1.431340e-04	8.336150e-06	4	true
124           	smoothSolver	2.804670e-05	2.451520e-06	9	1.899210e-03	1.681930e-04	12	false	GAMG	1.421820e-04	9.062910e-06	4	true
125           	smoothSolver	2.653060e-05	2.284170e-06	9	1.910440e-03	1.692560e-04	12	false	GAMG	1.395730e-04	8.660220e-06	4	true
126           	smoothSolver	2.590010e-05	2.284720e-06	9	1.849480e-03	1.643040e-04	12	false	GAMG	1.393660e-04	1.008910e-05	4	true
127           	smoothSolver	2.464880e-05	2.163760e-06	9	1.862970e-03	1.656030e-04	12	false	GAMG	1.381180e-04	9.429660e-06	4	true
128           	smoothSolver	2.399290e-05	2.148530e-06	9	1.807050e-03	1.611320e-04	12	false	GAMG	1.375750e-04	1.181880e-05	4	true
129           	smoothSolver	2.310740e-05	2.081870e-06	9	1.819000e-03	1.622280e-04	12	false	GAMG	1.354790e-04	1.083930e-05	4	true
130           	smoothSolver	2.232820e-05	2.032700e-06	9	1.767020e-03	1.580720e-04	12	false	GAMG	1.350560e-04	8.537160e-06	5	true
131           	smoothSolver	2.183760e-05	2.018910e-06	9	1.790340e-03	1.601240e-04	12	false	GAMG	1.337070e-04	1.183140e-05	4	true
132           	smoothSolver	2.096900e-05	1.951450e-06	9	1.723540e-03	1.545890e-04	12	false	GAMG	1.338310e-04	8.750330e-06	5	true
133           	smoothSolver	2.084650e-05	1.997830e-06	9	1.749310e-03	1.568370e-04	12	false	GAMG	1.318240e-04	9.406860e-06	5	true
134           	smoothSolver	1.988340e-05	1.900430e-06	9	1.668730e-03	1.500470e-04	12	false	GAMG	1.318070e-04	1.071310e-05	5	true
135           	smoothSolver	2.012460e-05	2.004480e-06	9	1.705500e-03	1.531600e-04	12	false	GAMG	1.325720e-04	1.142350e-05	5	true
136           	smoothSolver	1.890630e-05	1.858500e-06	9	1.620950e-03	1.460760e-04	12	false	GAMG	1.343190e-04	1.285930e-05	5	true
137           	smoothSolver	1.959180e-05	1.653270e-06	10	1.660130e-03	1.492520e-04	12	false	GAMG	1.346080e-04	1.114680e-05	5	true
138           	smoothSolver	1.733300e-05	1.710490e-06	9	1.588300e-03	1.434070e-04	12	false	GAMG	1.304560e-04	1.016170e-05	5	true
139           	smoothSolver	1.797130e-05	1.520850e-06	10	1.585120e-03	1.427850e-04	12	false	GAMG	1.276320e-04	1.013990e-05	5	true
140           	smoothSolver	1.622930e-05	1.327790e-06	10	1.520440e-03	1.374800e-04	12	false	GAMG	1.230900e-04	9.422840e-06	5	true
141           	smoothSolver	1.640060e-05	1.394420e-06	10	1.509920e-03	1.363820e-04	12	false	GAMG	1.173160e-04	1.116230e-05	4	true
142           	smoothSolver	1.451390e-05	1.445550e-06	9	1.457860e-03	1.320990e-04	12	false	GAMG	1.134120e-04	1.114810e-05	4	true
143           	smoothSolver	1.517710e-05	1.300110e-06	10	1.447610e-03	1.307860e-04	12	false	GAMG	1.112750e-04	1.082960e-05	4	true
144           	smoothSolver	1.366120e-05	1.132160e-06	10	1.403440e-03	1.272250e-04	12	false	GAMG	1.064150e-04	6.501070e-06	5	true
145           	smoothSolver	1.397240e-05	1.206780e-06	10	1.386700e-03	1.255010e-04	12	false	GAMG	1.010170e-04	9.056300e-06	4	true
146           	smoothSolver	1.248480e-05	1.037810e-06	10	1.333010e-03	1.208590e-04	12	false	GAMG	9.785270e-05	5.094100e-06	5	true
147           	smoothSolver	1.283230e-05	1.114730e-06	10	1.317480e-03	1.191650e-04	12	false	GAMG	9.364630e-05	9.290680e-06	3	true
148           	smoothSolver	1.149080e-05	9.542420e-07	10	1.272370e-03	1.153060e-04	12	false	GAMG	9.284190e-05	8.691790e-06	3	true
149           	smoothSolver	1.161970e-05	1.004810e-06	10	1.241720e-03	1.123380e-04	12	false	GAMG	8.839560e-05	8.168860e-06	3	true
150           	smoothSolver	1.071530e-05	8.994800e-07	10	1.206270e-03	1.091470e-04	12	false	GAMG	8.645440e-05	7.549410e-06	3	true
151           	smoothSolver	1.072900e-05	9.304710e-07	10	1.176810e-03	1.062190e-04	12	false	GAMG	8.230200e-05	7.304530e-06	3	true
152           	smoothSolver	9.999810e-06	8.457430e-07	10	1.144380e-03	1.032460e-04	12	false	GAMG	8.087010e-05	6.440460e-06	3	true
153           	smoothSolver	9.914800e-06	8.577190e-07	10	1.114920e-03	1.004510e-04	12	false	GAMG	7.785170e-05	6.186290e-06	3	true
154           	smoothSolver	9.374290e-06	9.739760e-07	9	1.084170e-03	9.750930e-05	12	false	GAMG	7.779140e-05	5.326760e-06	3	true
155           	smoothSolver	9.209200e-06	9.683230e-07	9	1.054400e-03	9.494480e-05	12	false	GAMG	7.444400e-05	6.104760e-06	3	true
156           	smoothSolver	8.940480e-06	9.398560e-07	9	1.020820e-03	9.160900e-05	12	false	GAMG	7.334600e-05	5.807730e-06	3	true
157           	smoothSolver	8.805950e-06	9.369540e-07	9	9.949860e-04	8.955120e-05	12	false	GAMG	7.097470e-05	6.541990e-06	3	true
158           	smoothSolver	8.563130e-06	9.073050e-07	9	9.640500e-04	8.645710e-05	12	false	GAMG	7.152760e-05	6.498230e-06	3	true
159           	smoothSolver	8.416340e-06	8.979670e-07	9	9.433940e-04	8.497060e-05	12	false	GAMG	6.970870e-05	4.776210e-06	4	true
160           	smoothSolver	8.342210e-06	8.964790e-07	9	9.122230e-04	8.184600e-05	12	false	GAMG	6.961110e-05	5.531360e-06	3	true
161           	smoothSolver	8.046590e-06	8.510890e-07	9	8.964520e-04	8.088000e-05	12	false	GAMG	6.855480e-05	4.593400e-06	4	true
162           	smoothSolver	8.204110e-06	8.904150e-07	9	8.635820e-04	7.749220e-05	12	false	GAMG	6.821880e-05	5.227300e-06	4	true
163           	smoothSolver	7.822910e-06	8.378750e-07	9	8.567180e-04	7.732000e-05	12	false	GAMG	6.531430e-05	5.370690e-06	4	true
164           	smoothSolver	8.130160e-06	8.999320e-07	9	8.201580e-04	7.355830e-05	12	false	GAMG	6.489430e-05	5.750040e-06	4	true
165           	smoothSolver	7.577020e-06	9.978970e-07	8	8.156420e-04	7.364170e-05	12	false	GAMG	6.288570e-05	4.803150e-06	4	true
166           	smoothSolver	7.629990e-06	8.368890e-07	9	7.776090e-04	6.970940e-05	12	false	GAMG	6.224830e-05	5.636100e-06	3	true
167           	smoothSolver	6.967850e-06	8.848320e-07	8	7.617920e-04	6.886310e-05	12	false	GAMG	5.990170e-05	4.177670e-06	4	true
168           	smoothSolver	7.343680e-06	9.861980e-07	8	7.339950e-04	6.603470e-05	12	false	GAMG	5.968250e-05	5.084090e-06	3	true
169           	smoothSolver	6.504580e-06	8.194790e-07	8	7.153040e-04	6.466340e-05	12	false	GAMG	5.626750e-05	4.467460e-06	3	true
170           	smoothSolver	6.694640e-06	8.741610e-07	8	6.947620e-04	6.260150e-05	12	false	GAMG	5.519480e-05	3.697380e-06	3	true
171           	smoothSolver	6.153710e-06	9.441410e-07	7	6.792860e-04	6.116440e-05	12	false	GAMG	5.409550e-05	4.949970e-06	3	true
172           	smoothSolver	6.599160e-06	8.723490e-07	8	6.656070e-04	5.959620e-05	12	false	GAMG	5.514250e-05	4.642220e-06	3	true
173           	smoothSolver	5.937500e-06	9.122870e-07	7	6.517260e-04	5.826370e-05	12	false	GAMG	5.445190e-05	4.684290e-06	3	true
174           	smoothSolver	6.270260e-06	8.268160e-07	8	6.364020e-04	5.648860e-05	12	false	GAMG	5.433020e-05	4.417160e-06	3	true
175           	smoothSolver	5.663710e-06	8.700360e-07	7	6.234060e-04	5.522730e-05	12	false	GAMG	5.285730e-05	4.595980e-06	3	true
176           	smoothSolver	5.977750e-06	9.701580e-07	7	6.081750e-04	5.353570e-05	12	false	GAMG	5.421320e-05	4.965360e-06	3	true
177           	smoothSolver	5.439350e-06	8.375420e-07	7	5.979860e-04	5.258400e-05	12	false	GAMG	5.450050e-05	3.230430e-06	4	true
178           	smoothSolver	5.999710e-06	9.997900e-07	7	5.825200e-04	5.092030e-05	12	false	GAMG	5.467320e-05	3.375280e-06	4	true
179           	smoothSolver	5.263290e-06	8.169990e-07	7	5.771450e-04	5.044900e-05	12	false	GAMG	5.448090e-05	4.596380e-06	4	true
180           	smoothSolver	6.140040e-06	8.603030e-07	8	5.574590e-04	4.857250e-05	12	false	GAMG	5.602190e-05	3.616440e-06	4	true
181           	smoothSolver	5.100210e-06	9.838700e-07	6	5.484500e-04	4.774710e-05	12	false	GAMG	5.304860e-05	4.433480e-06	3	true
182           	smoothSolver	5.142740e-06	8.345080e-07	7	5.223950e-04	4.533000e-05	12	false	GAMG	5.247100e-05	4.538200e-06	3	true
183           	smoothSolver	4.717050e-06	8.916290e-07	6	5.124610e-04	4.426010e-05	12	false	GAMG	5.132800e-05	4.926380e-06	3	true
184           	smoothSolver	4.931190e-06	9.884640e-07	6	4.935340e-04	4.279830e-05	12	false	GAMG	5.162410e-05	3.654670e-06	3	true
185           	smoothSolver	4.517800e-06	8.526320e-07	6	4.820850e-04	4.167820e-05	12	false	GAMG	5.007420e-05	2.911460e-06	3	true
186           	smoothSolver	4.513450e-06	8.690960e-07	6	4.660590e-04	4.032140e-05	12	false	GAMG	4.972640e-05	3.118020e-06	3	true
187           	smoothSolver	4.283700e-06	9.772660e-07	5	4.558680e-04	3.922010e-05	12	false	GAMG	4.914110e-05	2.828700e-06	3	true
188           	smoothSolver	4.367760e-06	8.296740e-07	6	4.404170e-04	3.796700e-05	12	false	GAMG	4.949350e-05	3.205120e-06	3	true
189           	smoothSolver	4.116980e-06	9.265500e-07	5	4.324170e-04	3.698400e-05	12	false	GAMG	4.803350e-05	2.800250e-06	3	true
190           	smoothSolver	4.187830e-06	9.572290e-07	5	4.181400e-04	3.573490e-05	12	false	GAMG	4.868500e-05	3.729370e-06	3	true
191           	smoothSolver	3.987380e-06	8.851200e-07	5	4.129550e-04	3.499810e-05	12	false	GAMG	4.775670e-05	4.079500e-06	3	true
192           	smoothSolver	4.189460e-06	9.665530e-07	5	3.994380e-04	3.387540e-05	12	false	GAMG	4.911540e-05	4.529220e-06	3	true
193           	smoothSolver	3.962180e-06	8.793140e-07	5	3.943530e-04	3.326820e-05	12	false	GAMG	4.935570e-05	2.681880e-06	4	true
194           	smoothSolver	4.267450e-06	9.969880e-07	5	3.822460e-04	3.224830e-05	12	false	GAMG	4.926730e-05	2.848890e-06	4	true
195           	smoothSolver	4.007470e-06	9.060520e-07	5	3.798580e-04	3.216140e-05	12	false	GAMG	4.953100e-05	4.058960e-06	4	true
196           	smoothSolver	4.577100e-06	9.062370e-07	6	3.692180e-04	3.114610e-05	12	false	GAMG	5.186670e-05	3.401710e-06	4	true
197           	smoothSolver	3.947820e-06	8.917570e-07	5	3.598680e-04	3.025630e-05	12	false	GAMG	4.915740e-05	4.608070e-06	3	true
198           	smoothSolver	4.089920e-06	9.233780e-07	5	3.479050e-04	2.872700e-05	12	false	GAMG	5.108450e-05	4.411010e-06	4	true
199           	smoothSolver	4.031240e-06	9.306540e-07	5	3.440950e-04	2.900310e-05	12	false	GAMG	5.110250e-05	4.473110e-06	4	true
200           	smoothSolver	4.587290e-06	9.084060e-07	6	3.385740e-04	2.832090e-05	12	false	GAMG	5.298930e-05	4.806760e-06	4	true
201           	smoothSolver	4.018110e-06	9.349440e-07	5	3.285690e-04	2.758690e-05	12	false	GAMG	5.150800e-05	3.723120e-06	4	true
202           	smoothSolver	4.257170e-06	9.901950e-07	5	3.171210e-04	2.621330e-05	12	false	GAMG	5.272100e-05	4.796570e-06	5	true
203           	smoothSolver	4.473350e-06	9.043710e-07	6	3.247330e-04	2.766100e-05	12	false	GAMG	5.405500e-05	5.317640e-06	5	true
204           	smoothSolver	4.134460e-06	9.572620e-07	5	3.023690e-04	2.527940e-05	12	false	GAMG	5.365950e-05	4.238990e-06	4	true
205           	smoothSolver	3.849960e-06	8.903020e-07	5	2.934350e-04	2.430460e-05	12	false	GAMG	5.192430e-05	4.719960e-06	4	true
206           	smoothSolver	4.734210e-06	9.616710e-07	6	2.935040e-04	2.462250e-05	12	false	GAMG	5.450600e-05	4.795920e-06	5	true
207           	smoothSolver	4.090400e-06	9.994990e-07	5	2.852970e-04	2.393190e-05	12	false	GAMG	5.239810e-05	5.113700e-06	5	true
208           	smoothSolver	4.334770e-06	8.546540e-07	6	2.718630e-04	2.273510e-05	12	false	GAMG	5.409710e-05	4.074360e-06	6	true
209           	smoothSolver	4.136020e-06	8.327740e-07	6	2.711160e-04	2.274120e-05	12	false	GAMG	5.128160e-05	3.836310e-06	4	true
210           	smoothSolver	3.232610e-06	8.162390e-07	4	2.478090e-04	2.032960e-05	12	false	GAMG	4.894780e-05	3.357130e-06	3	true
211           	smoothSolver	3.161120e-06	8.355960e-07	4	2.362020e-04	2.308060e-05	11	false	GAMG	4.621880e-05	3.427500e-06	3	true
212           	smoothSolver	2.885280e-06	8.510260e-07	3	2.265850e-04	2.183070e-05	11	false	GAMG	4.690470e-05	3.013090e-06	3	true
213           	smoothSolver	3.034420e-06	9.840460e-07	3	2.196320e-04	2.115020e-05	11	false	GAMG	4.598830e-05	2.868240e-06	4	true
214           	smoothSolver	3.311800e-06	8.814310e-07	4	2.132620e-04	2.117680e-05	11	false	GAMG	4.739360e-05	3.030160e-06	4	true
215           	smoothSolver	3.182060e-06	8.913150e-07	4	2.070870e-04	2.021330e-05	11	false	GAMG	4.490150e-05	2.970900e-06	3	true
216           	smoothSolver	2.650200e-06	7.869550e-07	3	1.968480e-04	1.901290e-05	11	false	GAMG	4.446560e-05	4.183960e-06	2	true
217           	smoothSolver	2.727220e-06	8.511310e-07	3	1.891960e-04	1.804140e-05	11	false	GAMG	4.451130e-05	3.335900e-06	3	true
218           	smoothSolver	2.800320e-06	8.796360e-07	3	1.809400e-04	1.756030e-05	11	false	GAMG	4.614260e-05	4.275170e-06	3	true
219           	smoothSolver	2.982480e-06	8.234070e-07	4	1.779250e-04	1.715500e-05	11	false	GAMG	4.610070e-05	3.113030e-06	3	true
220           	smoothSolver	2.627870e-06	8.407950e-07	3	1.685960e-04	1.636560e-05	11	false	GAMG	4.556420e-05	4.248930e-06	2	true
221           	smoothSolver	2.609200e-06	8.361690e-07	3	1.604170e-04	1.516960e-05	11	false	GAMG	4.452110e-05	2.762130e-06	3	true
222           	smoothSolver	2.695970e-06	8.833760e-07	3	1.530650e-04	1.506250e-05	11	false	GAMG	4.531020e-05	3.328840e-06	3	true
223           	smoothSolver	2.882990e-06	8.168940e-07	4	1.500580e-04	1.463610e-05	11	false	GAMG	4.467200e-05	2.855140e-06	3	true
224           	smoothSolver	2.556600e-06	8.578780e-07	3	1.417940e-04	1.395000e-05	11	false	GAMG	4.431360e-05	2.370840e-06	3	true
225           	smoothSolver	2.589070e-06	8.629270e-07	3	1.337550e-04	1.283770e-05	11	false	GAMG	4.483490e-05	3.542340e-06	3	true
226           	smoothSolver	2.744570e-06	9.636040e-07	3	1.311770e-04	1.075410e-05	12	false	GAMG	4.673620e-05	3.916660e-06	3	true
227           	smoothSolver	2.827140e-06	8.204460e-07	4	1.275510e-04	1.252740e-05	11	false	GAMG	4.610750e-05	3.020360e-06	3	true
228           	smoothSolver	2.539670e-06	8.865860e-07	3	1.187170e-04	1.174050e-05	11	false	GAMG	4.558250e-05	2.626810e-06	3	true
229           	smoothSolver	2.506310e-06	8.608330e-07	3	1.104790e-04	1.068880e-05	11	false	GAMG	4.488450e-05	3.824360e-06	3	true
230           	smoothSolver	2.757710e-06	8.086450e-07	4	1.123910e-04	9.216850e-06	12	false	GAMG	4.566490e-05	3.494780e-06	3	true