/*--------------------------------*- C++ -*----------------------------------*\
| =========                 |                                                 |
| \\      /  F ield         | OpenFOAM: The Open Source CFD Toolbox           |
|  \\    /   O peration     | Version:  v1912                                 |
|   \\  /    A nd           | Website:  www.openfoam.com                      |
|    \\/     M anipulation  |                                                 |
\*---------------------------------------------------------------------------*/
FoamFile
{
    version     2.0;
    format      ascii;
    class       volScalarField;
    location    "480";
    object      p;
}
// * * * * * * * * * * * * * * * * * * * * * * * * * * * * * * * * * * * * * //

dimensions      [0 2 -2 0 0 0 0];


internalField   nonuniform List<scalar> 
2000
(
-0.031985
0.0729004
0.0879017
0.0917279
0.0935688
0.0945983
0.0952584
0.0957085
0.0960408
0.0962863
0.0964727
0.0966174
0.0967288
0.0968137
0.0968763
0.0969177
0.0969377
0.0969379
0.0969167
0.0968728
0.0968065
0.0967197
0.0966149
0.0964953
0.0963657
0.0962322
0.0961012
0.0959778
0.0958646
0.0957625
0.0956707
0.0955878
0.0955123
0.0954429
0.0953784
0.095318
0.095261
0.0952069
0.0951552
0.0951056
0.0950577
0.095011
0.0949654
0.0949205
0.094876
0.0948314
0.0947864
0.0947403
0.0946928
0.0946432
0.0945914
0.0945374
0.0944812
0.0944223
0.0943594
0.0942898
0.0942086
0.0941072
0.0939733
0.0937951
0.0935689
0.093305
0.0930269
0.0926851
0.0919327
0.0906469
0.0875982
0.0815988
0.0782118
0.0838876
0.0992196
0.121742
0.147954
0.17332
0.192227
0.200675
0.193737
0.169493
0.118333
0.0672667
0.0014598
0.0712035
0.0879214
0.0915505
0.093454
0.094528
0.0952106
0.0956707
0.0960114
0.0962634
0.0964539
0.0966021
0.0967161
0.0968031
0.0968674
0.0969108
0.0969325
0.0969341
0.0969146
0.0968721
0.0968068
0.096721
0.0966168
0.0964972
0.096367
0.0962326
0.0961008
0.095977
0.0958639
0.0957622
0.0956709
0.0955883
0.095513
0.0954435
0.0953788
0.0953182
0.095261
0.0952067
0.0951549
0.0951051
0.095057
0.0950102
0.0949645
0.0949195
0.0948748
0.0948301
0.0947849
0.0947386
0.0946907
0.0946407
0.0945886
0.0945343
0.094478
0.0944193
0.0943566
0.0942871
0.0942059
0.0941033
0.0939663
0.0937833
0.0935505
0.0932814
0.0930146
0.0927085
0.0921676
0.0903127
0.084567
0.0760977
0.0739985
0.0826343
0.0997281
0.122794
0.148919
0.173618
0.191901
0.199579
0.191237
0.165474
0.113014
0.0610375
0.0236985
0.0696555
0.0880627
0.0917547
0.0934269
0.0944761
0.0951768
0.0956399
0.0959865
0.0962436
0.0964366
0.0965871
0.0967031
0.0967913
0.0968566
0.0969022
0.0969249
0.0969275
0.0969095
0.0968687
0.0968049
0.09672
0.0966161
0.0964962
0.0963651
0.0962294
0.0960963
0.0959716
0.0958586
0.0957574
0.0956669
0.0955851
0.0955104
0.0954413
0.0953768
0.0953162
0.0952591
0.0952048
0.095153
0.0951033
0.0950552
0.0950084
0.0949627
0.0949177
0.0948731
0.0948285
0.0947834
0.094737
0.0946888
0.0946385
0.0945859
0.0945314
0.0944755
0.0944176
0.094356
0.0942881
0.0942101
0.0941107
0.0939747
0.0937879
0.0935418
0.09326
0.0930281
0.0929111
0.0924348
0.087599
0.0759647
0.068039
0.0699737
0.0809837
0.0990176
0.1224
0.148376
0.172691
0.190189
0.196532
0.186814
0.160082
0.107374
0.0566054
0.0310215
0.0669812
0.088044
0.0921771
0.093605
0.0944781
0.0951626
0.0956257
0.0959692
0.096231
0.0964234
0.0965745
0.0966914
0.0967797
0.096844
0.096892
0.096915
0.0969167
0.0969
0.0968618
0.0968
0.0967162
0.0966132
0.0964939
0.0963628
0.0962266
0.0960927
0.0959674
0.0958541
0.0957529
0.0956626
0.0955813
0.0955069
0.0954381
0.0953739
0.0953135
0.0952565
0.0952023
0.0951506
0.0951009
0.0950529
0.0950062
0.0949606
0.0949158
0.0948715
0.0948272
0.0947824
0.0947362
0.0946881
0.0946375
0.0945845
0.0945297
0.094474
0.0944171
0.0943569
0.0942919
0.0942196
0.0941261
0.0939847
0.0937765
0.0935113
0.09327
0.0932391
0.0937477
0.0927734
0.0832484
0.068948
0.0643805
0.0684494
0.0803148
0.0985772
0.121781
0.14733
0.17082
0.187098
0.191944
0.180938
0.153539
0.101273
0.0521907
0.0384045
0.0659643
0.0868824
0.0924572
0.0938416
0.0946454
0.0951901
0.0956398
0.0959552
0.0962304
0.0964147
0.0965653
0.0966818
0.0967692
0.0968295
0.0968813
0.0969038
0.0969013
0.0968848
0.0968507
0.0967921
0.0967095
0.0966071
0.0964893
0.0963606
0.0962262
0.0960931
0.0959676
0.0958536
0.0957518
0.0956612
0.0955797
0.0955054
0.0954366
0.0953724
0.0953121
0.0952551
0.095201
0.0951494
0.0950998
0.0950519
0.0950054
0.0949598
0.0949152
0.0948711
0.0948271
0.0947827
0.0947369
0.0946891
0.0946386
0.0945853
0.0945299
0.0944736
0.0944187
0.0943657
0.0943096
0.0942371
0.0941177
0.093913
0.0936262
0.0933928
0.0935603
0.0945823
0.0962118
0.0939504
0.0809357
0.0671757
0.0639637
0.0680901
0.0801806
0.0982965
0.12104
0.145764
0.167988
0.182684
0.185884
0.173696
0.145985
0.0949092
0.0480035
0.0478315
0.0675326
0.0855212
0.092132
0.0940313
0.0948189
0.0954057
0.0956741
0.0959617
0.0962425
0.0964101
0.0965655
0.0966753
0.0967641
0.0968153
0.0968722
0.0968949
0.0968829
0.0968642
0.0968365
0.096783
0.0967001
0.096596
0.0964796
0.0963561
0.0962282
0.0960999
0.0959764
0.095862
0.0957587
0.0956663
0.0955834
0.0955079
0.0954385
0.0953738
0.0953131
0.0952559
0.0952017
0.09515
0.0951005
0.0950527
0.0950062
0.0949609
0.0949164
0.0948726
0.094829
0.0947849
0.0947393
0.0946914
0.0946409
0.094588
0.0945348
0.0944855
0.0944457
0.094415
0.0943674
0.0942297
0.0939114
0.0934249
0.0929969
0.0931447
0.0945443
0.0973939
0.0999126
0.0961637
0.0818491
0.068511
0.0641172
0.0688237
0.0807871
0.0983237
0.120271
0.143744
0.164244
0.17704
0.178553
0.165413
0.137802
0.0885902
0.0440485
0.0563293
0.0700309
0.0850196
0.0917425
0.0940798
0.0950603
0.0956082
0.0958131
0.0961085
0.0962284
0.0964203
0.0965711
0.0966691
0.0967733
0.0968025
0.0968655
0.0968942
0.0968657
0.0968392
0.0968209
0.0967757
0.09669
0.0965788
0.0964612
0.0963454
0.0962299
0.0961126
0.0959953
0.0958823
0.0957773
0.095682
0.0955961
0.0955183
0.0954472
0.0953814
0.0953199
0.0952622
0.0952076
0.0951559
0.0951065
0.0950589
0.0950129
0.0949683
0.094925
0.0948823
0.0948396
0.0947955
0.0947485
0.0946981
0.0946458
0.0945956
0.0945577
0.0945486
0.094578
0.0946149
0.0945452
0.0941686
0.0933408
0.0922932
0.0917477
0.0926581
0.09574
0.100316
0.103096
0.0984675
0.0844821
0.070376
0.0655494
0.0704763
0.0818868
0.0986366
0.119468
0.141243
0.159633
0.170355
0.170275
0.156487
0.129369
0.0825041
0.0403834
0.0630821
0.0726984
0.085408
0.0918745
0.0942713
0.0954158
0.0959416
0.0960808
0.0962271
0.0963568
0.096531
0.0965384
0.0966704
0.0967958
0.0967822
0.0968606
0.0969112
0.0968535
0.0968085
0.0968058
0.0967756
0.0966837
0.096556
0.0964309
0.0963239
0.0962276
0.0961291
0.0960237
0.0959148
0.0958083
0.0957091
0.0956192
0.0955384
0.0954652
0.0953981
0.095336
0.095278
0.0952236
0.0951723
0.0951232
0.0950762
0.0950317
0.0949898
0.0949498
0.0949102
0.0948684
0.0948211
0.0947657
0.0947039
0.0946447
0.0946056
0.0946162
0.0947121
0.0948905
0.0950338
0.0948711
0.094079
0.092562
0.0909642
0.0905002
0.0920306
0.0961275
0.101434
0.104172
0.0999137
0.0866834
0.0726878
0.0677841
0.0724937
0.0834335
0.0992994
0.11862
0.138283
0.154318
0.162953
0.161479
0.147358
0.121055
0.0767999
0.0370727
0.0686646
0.0756301
0.0864146
0.0925312
0.0948677
0.0960199
0.096586
0.0966669
0.0965755
0.0965705
0.0966202
0.0966404
0.0967855
0.0967872
0.0967436
0.0968669
0.0969417
0.0968384
0.0967697
0.0967966
0.0967903
0.096686
0.0965286
0.0963866
0.0962891
0.0962191
0.0961466
0.0960572
0.0959536
0.0958455
0.0957419
0.0956478
0.0955641
0.0954897
0.0954222
0.0953602
0.0953025
0.0952488
0.0951984
0.0951508
0.0951063
0.0950657
0.0950297
0.0949968
0.0949634
0.0949232
0.0948685
0.0947947
0.0947082
0.0946326
0.0946086
0.0946907
0.0949296
0.0952894
0.0955372
0.095256
0.0941453
0.0922885
0.0906161
0.0902468
0.091766
0.0959318
0.101358
0.104158
0.100057
0.0878455
0.0751077
0.0706346
0.0751474
0.0855751
0.100271
0.117684
0.134958
0.148571
0.15524
0.152618
0.138438
0.113162
0.0715692
0.0341521
0.0735494
0.0787905
0.087822
0.0935117
0.0958334
0.0969676
0.0975705
0.0976615
0.0974556
0.0971999
0.0969744
0.0968664
0.0968817
0.0968546
0.096843
0.0969334
0.0969367
0.0967941
0.0967424
0.0968008
0.0968123
0.0966897
0.0964956
0.0963348
0.0962506
0.0962104
0.0961632
0.0960869
0.0959858
0.0958744
0.0957661
0.0956686
0.0955838
0.0955099
0.0954436
0.0953826
0.0953263
0.0952747
0.0952269
0.095182
0.0951405
0.0951048
0.0950762
0.0950524
0.0950259
0.0949853
0.0949173
0.0948144
0.0946889
0.0945839
0.0945625
0.094691
0.0950218
0.0954849
0.0957758
0.0954348
0.0942902
0.0924419
0.0907024
0.0902914
0.0919002
0.0958655
0.100708
0.102917
0.0990429
0.0887822
0.0782261
0.0744302
0.0785707
0.0881783
0.1014
0.116662
0.131451
0.14272
0.147624
0.144093
0.13005
0.105896
0.0668586
0.0316231
0.0779284
0.0819996
0.0894869
0.094688
0.09702
0.0981858
0.0988356
0.0989914
0.0988003
0.0984408
0.0980207
0.0976354
0.0973371
0.0971334
0.0970254
0.0970072
0.0969893
0.0968759
0.0967993
0.0968212
0.0968018
0.0966544
0.096453
0.0963025
0.0962336
0.0962059
0.0961687
0.0960963
0.0959935
0.0958781
0.0957666
0.0956681
0.0955846
0.095513
0.095449
0.0953898
0.0953347
0.0952846
0.0952384
0.0951943
0.0951531
0.0951188
0.0950941
0.0950753
0.0950522
0.09501
0.0949325
0.0948126
0.0946684
0.0945529
0.094531
0.0946646
0.0950108
0.0954952
0.0958097
0.0955123
0.0943953
0.0926373
0.0910544
0.0907867
0.0924075
0.0959322
0.0999942
0.101705
0.0984454
0.090316
0.0819088
0.0788031
0.0824698
0.091025
0.102583
0.115609
0.127967
0.137072
0.140438
0.136196
0.122401
0.0993648
0.0626765
0.0294559
0.0819056
0.0851571
0.0913411
0.0960186
0.0983326
0.0995523
0.100271
0.100526
0.100421
0.100105
0.0996658
0.0991553
0.0986432
0.098175
0.0977763
0.0974857
0.0972833
0.097086
0.0969334
0.0968865
0.0968476
0.0967116
0.0965067
0.0963298
0.0962343
0.0961913
0.0961463
0.096071
0.095969
0.095857
0.0957501
0.0956563
0.0955764
0.0955071
0.0954444
0.0953856
0.0953307
0.0952806
0.0952344
0.0951903
0.0951493
0.0951157
0.0950927
0.095076
0.0950547
0.0950133
0.0949353
0.0948137
0.0946663
0.0945448
0.0945201
0.0946585
0.0950002
0.0954556
0.0957339
0.0954538
0.0944604
0.0929947
0.0917769
0.0917245
0.0933007
0.0963445
0.0996348
0.10092
0.0983212
0.0921339
0.0857681
0.0834503
0.086617
0.0939418
0.103733
0.114577
0.124681
0.131853
0.133895
0.129086
0.115577
0.09359
0.0590045
0.0276029
0.0855679
0.0882419
0.0933484
0.097494
0.0997456
0.101005
0.101791
0.102152
0.102165
0.101957
0.101603
0.10114
0.100614
0.100052
0.0994857
0.0989665
0.098499
0.0980501
0.0976671
0.0974063
0.0972037
0.0969673
0.0967002
0.0964758
0.0963394
0.0962653
0.0962008
0.0961145
0.0960049
0.0958855
0.0957706
0.0956688
0.095582
0.0955076
0.0954416
0.0953812
0.0953257
0.0952752
0.0952275
0.0951825
0.0951424
0.0951103
0.0950879
0.0950717
0.095052
0.095015
0.0949473
0.0948456
0.0947306
0.0946537
0.0946817
0.0948696
0.0952331
0.0956775
0.0959583
0.0957821
0.0950483
0.0939931
0.0931999
0.0933692
0.0948431
0.0973692
0.0999211
0.100853
0.0988972
0.0943913
0.0897725
0.0881096
0.0906938
0.0967119
0.104775
0.113616
0.12171
0.127186
0.128085
0.122803
0.109576
0.0885374
0.0558082
0.0260117
0.0889867
0.091249
0.0954657
0.0990978
0.101258
0.102538
0.103369
0.103817
0.103945
0.103858
0.103623
0.103274
0.102842
0.102347
0.101808
0.101255
0.100694
0.100119
0.0995693
0.0990913
0.0986561
0.0982106
0.0977644
0.0973785
0.0970906
0.096881
0.096705
0.0965324
0.0963573
0.0961882
0.0960352
0.0959039
0.0957946
0.0957035
0.095626
0.0955584
0.0954997
0.0954438
0.0953896
0.0953447
0.0953126
0.0952951
0.0952934
0.0953044
0.0953196
0.0953274
0.0953182
0.0952931
0.0952734
0.0953035
0.0954377
0.0957144
0.0961299
0.0965943
0.096917
0.0968891
0.0964535
0.0958143
0.0954152
0.0957537
0.0970485
0.0990389
0.100931
0.101579
0.100151
0.0969378
0.0936311
0.0924241
0.0944293
0.0992168
0.105702
0.112768
0.119104
0.1231
0.123002
0.117309
0.104341
0.084145
0.0530482
0.0246356
0.0922198
0.0941747
0.0976462
0.100802
0.102862
0.104156
0.105015
0.105526
0.105749
0.105769
0.105646
0.105415
0.1051
0.10472
0.104291
0.103825
0.10333
0.102803
0.102266
0.101745
0.101231
0.1007
0.100162
0.0996609
0.0992302
0.0988642
0.0985363
0.0982265
0.0979309
0.0976561
0.0974102
0.0971973
0.0970174
0.0968671
0.0967421
0.0966394
0.096557
0.0964973
0.0964599
0.0964413
0.0964394
0.0964576
0.0964979
0.0965576
0.0966293
0.0967042
0.0967762
0.0968484
0.096939
0.0970818
0.0973144
0.0976586
0.0980982
0.0985563
0.0988956
0.0989792
0.0987805
0.0984567
0.0983208
0.0987046
0.09974
0.101211
0.10254
0.102948
0.10189
0.0995831
0.0971901
0.0962712
0.0977497
0.101444
0.106535
0.112054
0.116862
0.119564
0.118586
0.112531
0.0997956
0.0803464
0.0506875
0.0234395
0.095316
0.0970206
0.0998518
0.102578
0.104545
0.105852
0.106732
0.107294
0.107597
0.107707
0.107678
0.107545
0.107333
0.107061
0.106742
0.106387
0.106001
0.105584
0.105148
0.104705
0.104254
0.103782
0.103296
0.102822
0.102385
0.101987
0.101615
0.101257
0.100913
0.100588
0.100291
0.100027
0.0997965
0.0995997
0.0994345
0.0992999
0.0991961
0.0991324
0.0991049
0.0990954
0.0991007
0.099127
0.0991775
0.0992498
0.0993384
0.099437
0.099542
0.0996568
0.0997946
0.0999778
0.10023
0.100559
0.100947
0.101335
0.101629
0.101744
0.10167
0.101517
0.101497
0.101826
0.102584
0.103611
0.104496
0.104711
0.103892
0.102192
0.100409
0.0996571
0.100678
0.103434
0.107313
0.111487
0.114962
0.116523
0.114764
0.108389
0.0958671
0.0770853
0.0486964
0.0224026
0.098319
0.0997914
0.102053
0.104403
0.106292
0.107613
0.108512
0.109119
0.109496
0.109691
0.109747
0.109699
0.109574
0.10939
0.109162
0.1089
0.10861
0.108294
0.10796
0.107615
0.10726
0.106889
0.106504
0.106122
0.10576
0.105422
0.105098
0.104784
0.104476
0.104182
0.103907
0.103656
0.103432
0.103235
0.103065
0.102923
0.10281
0.102728
0.102672
0.102635
0.102618
0.102623
0.102653
0.102704
0.102771
0.102852
0.102942
0.103046
0.103172
0.103335
0.103547
0.103811
0.10411
0.104402
0.104624
0.104724
0.104697
0.104619
0.104629
0.104871
0.105393
0.106076
0.106634
0.106702
0.106033
0.104732
0.103351
0.102683
0.103311
0.105264
0.108086
0.111079
0.113377
0.113925
0.11147
0.104817
0.0924999
0.0743238
0.047055
0.0215224
0.101269
0.102489
0.104222
0.106255
0.108093
0.109428
0.110344
0.110993
0.111443
0.111721
0.11186
0.111894
0.111851
0.111749
0.111601
0.111417
0.111205
0.110969
0.110716
0.110451
0.110176
0.109889
0.109593
0.109297
0.109013
0.108744
0.108486
0.108233
0.107985
0.107744
0.107517
0.107306
0.107115
0.106942
0.10679
0.106657
0.106544
0.106446
0.106365
0.106306
0.10627
0.106254
0.106257
0.106277
0.106312
0.106359
0.106417
0.106488
0.10658
0.1067
0.106857
0.10705
0.107264
0.10747
0.107626
0.107698
0.107684
0.107635
0.107643
0.107801
0.108138
0.108568
0.108888
0.108845
0.108269
0.107231
0.106111
0.105471
0.105751
0.107006
0.108895
0.110836
0.112084
0.111725
0.108653
0.10177
0.0896627
0.072048
0.0457568
0.0208173
0.104207
0.105111
0.106334
0.108123
0.10994
0.111289
0.112217
0.112909
0.113431
0.113791
0.114013
0.114131
0.114171
0.114151
0.114083
0.113977
0.11384
0.113678
0.113496
0.1133
0.113091
0.112871
0.112642
0.112411
0.112187
0.11197
0.11176
0.111553
0.111349
0.111148
0.110956
0.110775
0.110607
0.110451
0.110309
0.110179
0.110061
0.109955
0.109865
0.109796
0.109747
0.109713
0.109693
0.109689
0.109697
0.109718
0.10975
0.109795
0.109858
0.109945
0.110058
0.110196
0.110348
0.110492
0.110599
0.110647
0.110635
0.110595
0.110589
0.110675
0.11087
0.11111
0.111254
0.111124
0.110603
0.109736
0.108779
0.108123
0.108087
0.108724
0.109775
0.110766
0.111067
0.1099
0.106292
0.0992355
0.0873564
0.0702741
0.0448122
0.0203297
0.107177
0.107643
0.108362
0.109995
0.11183
0.113189
0.114125
0.114858
0.11545
0.115887
0.116188
0.116387
0.11651
0.116573
0.116587
0.116561
0.116503
0.116418
0.116311
0.116187
0.116048
0.115896
0.115734
0.115567
0.1154
0.115236
0.115074
0.114912
0.114749
0.114588
0.11443
0.11428
0.114137
0.114002
0.113876
0.113759
0.113648
0.113546
0.113455
0.113378
0.113312
0.113258
0.113216
0.113185
0.113165
0.113156
0.113158
0.113172
0.113201
0.113248
0.113315
0.1134
0.113494
0.113581
0.113641
0.113659
0.113633
0.113585
0.113552
0.11357
0.113647
0.113737
0.113741
0.113536
0.113041
0.112278
0.111414
0.110707
0.110375
0.110451
0.110743
0.110873
0.110327
0.108449
0.104394
0.0972353
0.085616
0.069049
0.0442524
0.020124
0.110229
0.110054
0.110282
0.111866
0.113754
0.115123
0.116073
0.116856
0.117519
0.118035
0.118414
0.118693
0.118897
0.11904
0.119133
0.119183
0.1192
0.119189
0.119153
0.119096
0.119021
0.118931
0.118827
0.118715
0.118598
0.118478
0.118354
0.118226
0.118093
0.117958
0.117822
0.117689
0.117556
0.117426
0.117304
0.117188
0.117079
0.116975
0.116879
0.116791
0.116712
0.116642
0.116583
0.116533
0.116493
0.116463
0.116443
0.116434
0.116439
0.116458
0.116493
0.11654
0.116594
0.116642
0.11667
0.116668
0.116633
0.116576
0.116518
0.11648
0.116462
0.116432
0.116321
0.116048
0.115554
0.114847
0.114023
0.113237
0.112619
0.112185
0.111793
0.111158
0.109873
0.107403
0.103007
0.0958267
0.0845047
0.0684423
0.0441301
0.0202717
0.113427
0.112277
0.112098
0.113753
0.115693
0.11705
0.118009
0.118841
0.119572
0.120161
0.120617
0.120978
0.121267
0.121497
0.121678
0.121816
0.121921
0.121996
0.122046
0.122073
0.122079
0.122069
0.122043
0.122005
0.121957
0.121901
0.121838
0.121766
0.121683
0.121593
0.121502
0.121409
0.121309
0.121201
0.121092
0.120983
0.120874
0.120766
0.12066
0.120558
0.120461
0.12037
0.120285
0.120208
0.120139
0.120079
0.120027
0.119986
0.119955
0.119936
0.119928
0.119928
0.119932
0.119931
0.119915
0.119875
0.119808
0.119717
0.119611
0.119497
0.119372
0.119214
0.118978
0.118614
0.11808
0.117371
0.116529
0.11563
0.114737
0.11385
0.112871
0.111597
0.10972
0.106802
0.102189
0.0950724
0.0840815
0.0685175
0.0445215
0.0208185
0.116861
0.114157
0.113784
0.11573
0.117751
0.119089
0.120073
0.120966
0.121761
0.122411
0.122929
0.123352
0.123703
0.123995
0.124235
0.124432
0.124594
0.124725
0.124827
0.124905
0.124961
0.124997
0.125015
0.125017
0.125006
0.124983
0.124949
0.124903
0.12484
0.124763
0.124681
0.124598
0.124513
0.124425
0.124333
0.124237
0.124137
0.124036
0.123934
0.123834
0.123736
0.123641
0.123551
0.123465
0.123385
0.123311
0.123244
0.123183
0.123129
0.123081
0.123039
0.122999
0.122958
0.12291
0.122847
0.122764
0.122655
0.122517
0.12235
0.122153
0.12192
0.121636
0.121277
0.120813
0.120215
0.119469
0.11858
0.117568
0.116453
0.115224
0.113816
0.112093
0.109821
0.106634
0.101937
0.0949592
0.0843173
0.0692556
0.0454886
0.0217614
0.120712
0.115584
0.115092
0.117474
0.119587
0.120899
0.121921
0.122902
0.123797
0.12455
0.125176
0.125711
0.126176
0.126582
0.126936
0.127247
0.127521
0.12776
0.127969
0.128149
0.128302
0.128431
0.128538
0.128623
0.12869
0.128737
0.128768
0.12878
0.128782
0.128774
0.128749
0.128706
0.128645
0.128567
0.128473
0.128363
0.12824
0.128105
0.12796
0.127806
0.127646
0.127481
0.127313
0.127144
0.126975
0.126807
0.126641
0.126479
0.12632
0.126163
0.126009
0.125855
0.125698
0.125536
0.125362
0.125173
0.124961
0.124722
0.124451
0.12414
0.123784
0.123373
0.122893
0.122326
0.12165
0.120846
0.1199
0.118804
0.117554
0.116136
0.114505
0.112562
0.110114
0.10684
0.102178
0.0953851
0.0850792
0.0704957
0.0470202
0.0230051
0.124828
0.117412
0.116826
0.119578
0.121736
0.122945
0.123885
0.124809
0.125652
0.126355
0.126939
0.127438
0.127872
0.128249
0.128576
0.128864
0.129118
0.129339
0.129529
0.12969
0.129825
0.129934
0.130019
0.130082
0.130124
0.130146
0.130148
0.130131
0.130097
0.130045
0.129973
0.12988
0.12977
0.129643
0.1295
0.129342
0.129172
0.12899
0.128798
0.1286
0.128396
0.128189
0.12798
0.127772
0.127566
0.127364
0.127166
0.126973
0.126786
0.126603
0.126423
0.126246
0.126068
0.125886
0.125697
0.125493
0.125271
0.125023
0.124742
0.124423
0.124059
0.12364
0.123156
0.12259
0.121923
0.121134
0.120204
0.119119
0.11787
0.116443
0.114798
0.112848
0.110419
0.107216
0.1027
0.0961572
0.0862187
0.0721683
0.0492453
0.0254055
)
;

boundaryField
{
    inlet
    {
        type            zeroGradient;
    }
    outlet
    {
        type            fixedValue;
        value           uniform 0;
    }
    fixedWalls
    {
        type            zeroGradient;
    }
    frontAndBack
    {
        type            empty;
    }
}


// ************************************************************************* //
