/*--------------------------------*- C++ -*----------------------------------*\
| =========                 |                                                 |
| \\      /  F ield         | OpenFOAM: The Open Source CFD Toolbox           |
|  \\    /   O peration     | Version:  v1912                                 |
|   \\  /    A nd           | Website:  www.openfoam.com                      |
|    \\/     M anipulation  |                                                 |
\*---------------------------------------------------------------------------*/
FoamFile
{
    version     2.0;
    format      ascii;
    class       surfaceScalarField;
    location    "480";
    object      phi;
}
// * * * * * * * * * * * * * * * * * * * * * * * * * * * * * * * * * * * * * //

dimensions      [0 3 -1 0 0 0 0];
oriented        oriented;


internalField   nonuniform List<scalar> 
3895
(
1.84643e-05
0.000371284
-4.74292e-05
6.58936e-05
-3.31726e-05
-1.42566e-05
-2.45207e-05
-8.65194e-06
-1.92503e-05
-5.27043e-06
-1.58441e-05
-3.40617e-06
-1.3587e-05
-2.25712e-06
-1.20511e-05
-1.53599e-06
-1.07774e-05
-1.27363e-06
-9.72376e-06
-1.05368e-06
-8.83221e-06
-8.91563e-07
-7.99228e-06
-8.39959e-07
-7.17626e-06
-8.16062e-07
-6.33513e-06
-8.41133e-07
-5.40881e-06
-9.26302e-07
-4.35915e-06
-1.04961e-06
-3.20569e-06
-1.15342e-06
-1.8846e-06
-1.32105e-06
-3.71049e-07
-1.51357e-06
1.27355e-06
-1.64461e-06
2.96756e-06
-1.69403e-06
4.66559e-06
-1.69792e-06
6.31504e-06
-1.64928e-06
7.82751e-06
-1.51213e-06
9.10158e-06
-1.27375e-06
1.00541e-05
-9.52146e-07
1.06539e-05
-5.99454e-07
1.09317e-05
-2.77479e-07
1.0962e-05
-3.00339e-08
1.0833e-05
1.29392e-07
1.06215e-05
2.11775e-07
1.03807e-05
2.41616e-07
1.01387e-05
2.42968e-07
9.90703e-06
2.32893e-07
9.68754e-06
2.21154e-07
9.47864e-06
2.10198e-07
9.27915e-06
2.01477e-07
9.08791e-06
1.92261e-07
8.90595e-06
1.83712e-07
8.73311e-06
1.73151e-07
8.57102e-06
1.62961e-07
8.4194e-06
1.50955e-07
8.28031e-06
1.38685e-07
8.15574e-06
1.23094e-07
8.05096e-06
1.03295e-07
7.97121e-06
7.80877e-08
7.92086e-06
4.86362e-08
7.89975e-06
1.99405e-08
7.90076e-06
-1.85919e-09
7.90953e-06
-9.04489e-09
7.90972e-06
-7.51257e-11
7.89454e-06
1.53821e-08
7.88113e-06
1.41629e-08
7.91672e-06
-3.47655e-08
8.06603e-06
-1.47858e-07
8.40857e-06
-3.41412e-07
9.05309e-06
-6.43245e-07
1.00528e-05
-9.99276e-07
1.131e-05
-1.2568e-06
1.25656e-05
-1.25558e-06
1.34674e-05
-9.01765e-07
1.38653e-05
-3.97359e-07
1.56867e-05
-1.82085e-06
2.01799e-05
-4.49253e-06
1.50339e-05
5.14647e-06
-2.92628e-05
4.42973e-05
-0.000111999
8.27369e-05
-0.0001835
7.1501e-05
-0.000214273
3.07731e-05
-0.00020941
-4.86306e-06
-0.000184743
-2.46682e-05
-0.000149254
-3.54889e-05
-0.000105332
-4.39217e-05
-5.58545e-05
-4.9477e-05
-8.51276e-07
-5.50031e-05
5.52715e-05
-5.61236e-05
0.000103865
-4.85942e-05
0.000151479
-4.76141e-05
0.000188764
-3.72843e-05
-6.33591e-05
0.000236351
0.000524681
3.93401e-05
0.000262904
-4.12015e-05
6.62851e-05
-4.20865e-05
-7.767e-06
-3.66906e-05
-1.06664e-05
-3.17336e-05
-8.36312e-06
-2.81337e-05
-5.85709e-06
-2.5621e-05
-4.04871e-06
-2.35072e-05
-3.38752e-06
-2.16832e-05
-2.87772e-06
-2.00965e-05
-2.47827e-06
-1.85857e-05
-2.35092e-06
-1.70981e-05
-2.30368e-06
-1.55669e-05
-2.37232e-06
-1.39142e-05
-2.57898e-06
-1.20759e-05
-2.88773e-06
-1.00834e-05
-3.14569e-06
-7.85895e-06
-3.54535e-06
-5.3492e-06
-4.02321e-06
-2.61458e-06
-4.37915e-06
2.55116e-07
-4.5636e-06
3.18446e-06
-4.62697e-06
6.11858e-06
-4.58284e-06
8.98322e-06
-4.37593e-06
1.16596e-05
-3.94917e-06
1.40141e-05
-3.3056e-06
1.59448e-05
-2.52932e-06
1.74128e-05
-1.74459e-06
1.84426e-05
-1.05902e-06
1.91015e-05
-5.28712e-07
1.94732e-05
-1.5877e-07
1.96397e-05
7.68651e-08
1.96682e-05
2.16605e-07
1.96059e-05
2.97977e-07
1.94817e-05
3.48135e-07
1.93132e-05
3.81865e-07
1.91117e-05
4.05669e-07
1.88861e-05
4.20419e-07
1.86443e-05
4.27367e-07
1.83924e-05
4.26066e-07
1.81365e-05
4.18969e-07
1.78803e-05
4.06194e-07
1.76283e-05
3.88829e-07
1.73855e-05
3.63104e-07
1.71603e-05
3.25508e-07
1.69619e-05
2.73274e-07
1.67985e-05
2.09217e-07
1.66726e-05
1.436e-07
1.65759e-05
9.36088e-08
1.64872e-05
7.92625e-08
1.63777e-05
1.09702e-07
1.62266e-05
1.67304e-07
1.60415e-05
2.01183e-07
1.58652e-05
1.44342e-07
1.57517e-05
-3.05914e-08
1.57595e-05
-3.45022e-07
1.59544e-05
-8.33933e-07
1.6311e-05
-1.35219e-06
1.67645e-05
-1.7066e-06
1.7306e-05
-1.794e-06
1.78207e-05
-1.41426e-06
1.77974e-05
-3.73119e-07
1.74659e-05
-1.49002e-06
2.85153e-06
1.01207e-05
-5.47817e-05
6.27792e-05
-0.000145866
0.000135381
-0.000213815
0.000150687
-0.00022719
8.4876e-05
-0.000206005
9.58712e-06
-0.000176354
-3.45148e-05
-0.000141642
-5.93821e-05
-9.8601e-05
-7.85303e-05
-4.88549e-05
-9.36673e-05
7.50592e-06
-0.000105836
6.50701e-05
-0.000112566
0.000119208
-0.000110262
0.000170897
-0.000100283
0.000217547
-9.42639e-05
0.000263649
-8.3386e-05
-0.000113117
0.000350324
0.000564105
0.000204328
0.0004089
4.91688e-05
0.000221445
-2.73109e-05
6.87126e-05
-3.93046e-05
1.32735e-06
-3.84865e-05
-9.18128e-06
-3.5187e-05
-9.15659e-06
-3.27538e-05
-6.48199e-06
-3.07104e-05
-5.43092e-06
-2.88847e-05
-4.70341e-06
-2.73114e-05
-4.05156e-06
-2.58214e-05
-3.84096e-06
-2.43716e-05
-3.75357e-06
-2.29103e-05
-3.83363e-06
-2.13792e-05
-4.11e-06
-1.96815e-05
-4.58537e-06
-1.78815e-05
-4.94563e-06
-1.58997e-05
-5.52711e-06
-1.36293e-05
-6.29372e-06
-1.11015e-05
-6.90703e-06
-8.40692e-06
-7.25817e-06
-5.58337e-06
-7.45034e-06
-2.62595e-06
-7.53977e-06
4.41596e-07
-7.44268e-06
3.52083e-06
-7.02741e-06
6.47904e-06
-6.2628e-06
9.19004e-06
-5.2393e-06
1.15636e-05
-4.11727e-06
1.35617e-05
-3.05622e-06
1.51885e-05
-2.15473e-06
1.64795e-05
-1.44853e-06
1.74854e-05
-9.27394e-07
1.8256e-05
-5.51827e-07
1.88343e-05
-2.77613e-07
1.92549e-05
-6.98766e-08
1.9546e-05
9.38705e-08
1.97298e-05
2.24227e-07
1.98255e-05
3.27479e-07
1.98477e-05
4.06613e-07
1.98095e-05
4.65901e-07
1.97199e-05
5.08419e-07
1.95869e-05
5.38964e-07
1.94151e-05
5.58862e-07
1.92105e-05
5.65753e-07
1.89796e-05
5.53866e-07
1.87307e-05
5.19664e-07
1.84716e-05
4.66233e-07
1.8207e-05
4.06719e-07
1.79336e-05
3.66252e-07
1.76368e-05
3.76084e-07
1.72904e-05
4.561e-07
1.68655e-05
5.92805e-07
1.63401e-05
7.27278e-07
1.56882e-05
7.97962e-07
1.48057e-05
8.53245e-07
1.34643e-05
9.98311e-07
1.13651e-05
1.26579e-06
8.32685e-06
1.6861e-06
4.80682e-06
1.81308e-06
2.03293e-06
9.79394e-07
9.15024e-07
-2.96566e-07
-4.12293e-07
9.54384e-07
-1.30934e-05
1.11916e-05
-5.61856e-05
5.32134e-05
-0.000125519
0.000132113
-0.000182266
0.000192128
-0.000187182
0.000155603
-0.000152189
4.98843e-05
-0.000120831
-2.17708e-05
-9.20062e-05
-6.33406e-05
-5.7225e-05
-9.41641e-05
-1.56625e-05
-0.000120093
3.32646e-05
-0.000142594
8.53617e-05
-0.000157933
0.000136138
-0.000163343
0.000183935
-0.000158059
0.000228528
-0.000144877
0.000267939
-0.000133675
0.000307512
-0.000122959
-0.000149222
0.000400008
0.000553846
0.000331993
0.000476915
0.000198794
0.000354643
6.36561e-05
0.000203851
-1.28817e-05
7.78651e-05
-3.38809e-05
1.18179e-05
-3.64863e-05
-6.55122e-06
-3.55178e-05
-7.45048e-06
-3.4408e-05
-6.54079e-06
-3.31085e-05
-6.00287e-06
-3.20226e-05
-5.13756e-06
-3.10094e-05
-4.85419e-06
-3.00495e-05
-4.71347e-06
-2.91302e-05
-4.75301e-06
-2.82411e-05
-4.99905e-06
-2.72115e-05
-5.61488e-06
-2.61729e-05
-5.98407e-06
-2.50529e-05
-6.647e-06
-2.36615e-05
-7.68512e-06
-2.19934e-05
-8.5751e-06
-2.01394e-05
-9.11207e-06
-1.81136e-05
-9.47599e-06
-1.58498e-05
-9.80327e-06
-1.32985e-05
-9.9934e-06
-1.04939e-05
-9.83118e-06
-7.55925e-06
-9.19656e-06
-4.6491e-06
-8.14838e-06
-1.89504e-06
-6.87018e-06
6.17021e-07
-5.56707e-06
2.85436e-06
-4.39074e-06
4.8143e-06
-3.40672e-06
6.50663e-06
-2.61737e-06
7.95235e-06
-1.99449e-06
9.17585e-06
-1.49775e-06
1.02016e-05
-1.09185e-06
1.10518e-05
-7.52805e-07
1.17457e-05
-4.66105e-07
1.2299e-05
-2.23202e-07
1.27258e-05
-1.81491e-08
1.30376e-05
1.54829e-07
1.32434e-05
3.02137e-07
1.33486e-05
4.32075e-07
1.33546e-05
5.49926e-07
1.32607e-05
6.56056e-07
1.30645e-05
7.45979e-07
1.27635e-05
8.16896e-07
1.23561e-05
8.70108e-07
1.18452e-05
9.14907e-07
1.12376e-05
9.7195e-07
1.05393e-05
1.07302e-06
9.74236e-06
1.25236e-06
8.8024e-06
1.53273e-06
7.60229e-06
1.92845e-06
5.88684e-06
2.51569e-06
3.14117e-06
3.60192e-06
-1.57028e-06
5.71281e-06
-9.23755e-06
8.93515e-06
-1.92775e-05
1.17277e-05
-2.90798e-05
1.16171e-05
-3.61729e-05
8.07416e-06
-4.08844e-05
4.41622e-06
-4.8326e-05
8.39653e-06
-6.98659e-05
3.27311e-05
-0.000108676
9.20233e-05
-0.000145564
0.000169001
-0.000148148
0.000194712
-0.000107313
0.000114768
-6.28008e-05
5.37393e-06
-3.85269e-05
-4.60446e-05
-9.91293e-06
-9.1956e-05
2.53266e-05
-0.000129405
6.77318e-05
-0.000162498
0.00011432
-0.000189182
0.000161456
-0.000205067
0.000206022
-0.000207909
0.000246516
-0.000198553
0.000283015
-0.000181376
0.000314516
-0.000165176
0.000345579
-0.000154022
-0.000173952
0.000415382
0.000528212
0.000404235
0.000488062
0.000330691
0.000428186
0.000210209
0.000324333
8.73942e-05
0.00020068
6.20311e-06
9.30089e-05
-2.47911e-05
2.4443e-05
-3.17026e-05
-5.38998e-07
-3.40954e-05
-4.14799e-06
-3.42984e-05
-5.79995e-06
-3.43048e-05
-5.13113e-06
-3.41414e-05
-5.01768e-06
-3.39614e-05
-4.89343e-06
-3.38215e-05
-4.89292e-06
-3.38298e-05
-4.99071e-06
-3.36858e-05
-5.75889e-06
-3.3639e-05
-6.03084e-06
-3.36633e-05
-6.62267e-06
-3.34502e-05
-7.89824e-06
-3.2958e-05
-9.06745e-06
-3.23091e-05
-9.76101e-06
-3.15039e-05
-1.0281e-05
-3.04025e-05
-1.09045e-05
-2.88692e-05
-1.15263e-05
-2.68845e-05
-1.18154e-05
-2.45529e-05
-1.15276e-05
-2.20366e-05
-1.06642e-05
-1.94877e-05
-9.41859e-06
-1.70173e-05
-8.03712e-06
-1.46943e-05
-6.71315e-06
-1.25522e-05
-5.54796e-06
-1.0602e-05
-4.56623e-06
-8.84567e-06
-3.74889e-06
-7.28046e-06
-3.06058e-06
-5.90068e-06
-2.46887e-06
-4.69951e-06
-1.9512e-06
-3.66964e-06
-1.4931e-06
-2.80542e-06
-1.08517e-06
-2.10212e-06
-7.19575e-07
-1.55748e-06
-3.89234e-07
-1.16997e-06
-8.5596e-08
-9.4345e-07
2.03842e-07
-8.8812e-07
4.92151e-07
-1.02291e-06
7.87607e-07
-1.37396e-06
1.09374e-06
-1.97129e-06
1.41122e-06
-2.83872e-06
1.73514e-06
-3.97817e-06
2.05295e-06
-5.35956e-06
2.35266e-06
-6.93287e-06
2.64599e-06
-8.6792e-06
2.99855e-06
-1.07245e-05
3.57792e-06
-1.35439e-05
4.74805e-06
-1.81696e-05
7.14137e-06
-2.60484e-05
1.14806e-05
-3.82055e-05
1.78691e-05
-5.39974e-05
2.47261e-05
-7.0767e-05
2.84965e-05
-8.50077e-05
2.58575e-05
-9.43333e-05
1.73994e-05
-9.91016e-05
9.18411e-06
-0.000103323
1.26175e-05
-0.00011289
4.22978e-05
-0.000123985
0.000103119
-0.000117958
0.000162973
-7.85167e-05
0.000155271
-1.36887e-05
4.99419e-05
9.01527e-06
-1.73273e-05
3.90995e-05
-7.61284e-05
7.14113e-05
-0.000124268
0.000109045
-0.000167039
0.000151335
-0.000204788
0.000194887
-0.000232734
0.00023625
-0.000246429
0.000273192
-0.000244851
0.000305081
-0.000230442
0.000332561
-0.000208856
0.000355561
-0.000188176
0.000377435
-0.000175897
-0.000188973
0.000416474
0.000501486
0.000433793
0.000470743
0.000415043
0.000446936
0.00034514
0.000394236
0.00023739
0.00030843
0.000123579
0.00020682
3.46018e-05
0.000113421
-1.05195e-05
4.45822e-05
-2.40925e-05
9.42504e-06
-2.97531e-05
-1.39328e-07
-3.25094e-05
-2.37491e-06
-3.39612e-05
-3.56587e-06
-3.5032e-05
-3.82275e-06
-3.58537e-05
-4.07117e-06
-3.69128e-05
-3.93164e-06
-3.77173e-05
-4.95434e-06
-3.86908e-05
-5.05735e-06
-3.99573e-05
-5.35616e-06
-4.10423e-05
-6.81326e-06
-4.18595e-05
-8.25026e-06
-4.26192e-05
-9.00135e-06
-4.3338e-05
-9.56211e-06
-4.37927e-05
-1.04497e-05
-4.37424e-05
-1.15763e-05
-4.30999e-05
-1.24577e-05
-4.19472e-05
-1.26799e-05
-4.04473e-05
-1.21637e-05
-3.87591e-05
-1.11064e-05
-3.70018e-05
-9.79398e-06
-3.52531e-05
-8.46131e-06
-3.35589e-05
-7.24146e-06
-3.19466e-05
-6.17747e-06
-3.04357e-05
-5.25845e-06
-2.90417e-05
-4.45291e-06
-2.7778e-05
-3.73086e-06
-2.66564e-05
-3.07116e-06
-2.56883e-05
-2.45969e-06
-2.48867e-05
-1.88577e-06
-2.42665e-05
-1.33909e-06
-2.38453e-05
-8.10495e-07
-2.36434e-05
-2.87943e-07
-2.3688e-05
2.47093e-07
-2.40134e-05
8.15924e-07
-2.46681e-05
1.44032e-06
-2.57143e-05
2.13789e-06
-2.72116e-05
2.90677e-06
-2.91977e-05
3.71955e-06
-3.16691e-05
4.52317e-06
-3.45877e-05
5.27028e-06
-3.79316e-05
5.98894e-06
-4.1796e-05
6.86214e-06
-4.65226e-05
8.30388e-06
-5.28113e-05
1.10364e-05
-6.16767e-05
1.60066e-05
-7.40048e-05
2.38086e-05
-8.97032e-05
3.35671e-05
-0.000107065
4.20877e-05
-0.000123052
4.44842e-05
-0.000134404
3.7209e-05
-0.000139152
2.21479e-05
-0.00013733
7.36313e-06
-0.000130616
5.90346e-06
-0.000120025
3.1706e-05
-0.000100565
8.36587e-05
-6.0178e-05
0.000122586
8.22249e-06
8.68716e-05
5.07316e-05
7.43473e-06
8.63193e-05
-5.29138e-05
0.000118782
-0.000108591
0.000154752
-0.000160239
0.000194832
-0.000207119
0.000235878
-0.000245835
0.000274291
-0.000271147
0.000307676
-0.000279814
0.000335201
-0.000272375
0.000357341
-0.000252583
0.000375318
-0.000226833
0.000389697
-0.000202555
0.000402632
-0.000188832
-0.000195768
0.000414535
0.000476699
0.000440084
0.000445195
0.000454053
0.000432966
0.000435063
0.000413226
0.00037397
0.000369522
0.000279842
0.000300948
0.000174336
0.000218927
8.05043e-05
0.000138414
1.70784e-05
7.2851e-05
-1.16708e-05
2.86099e-05
-2.11334e-05
7.08766e-06
-2.72691e-05
2.56972e-06
-3.09834e-05
-1.08442e-07
-3.33699e-05
-1.68468e-06
-3.58898e-05
-1.41179e-06
-3.77643e-05
-3.07978e-06
-3.9688e-05
-3.1336e-06
-4.21899e-05
-2.85434e-06
-4.45718e-05
-4.43139e-06
-4.66571e-05
-6.16504e-06
-4.88408e-05
-6.81772e-06
-5.12226e-05
-7.18032e-06
-5.3489e-05
-8.18317e-06
-5.52719e-05
-9.79319e-06
-5.64099e-05
-1.13194e-05
-5.69661e-05
-1.21234e-05
-5.70987e-05
-1.20308e-05
-5.69528e-05
-1.12522e-05
-5.66286e-05
-1.0118e-05
-5.61891e-05
-8.90067e-06
-5.56754e-05
-7.7548e-06
-5.51211e-05
-6.73133e-06
-5.45591e-05
-5.81972e-06
-5.40236e-05
-4.9876e-06
-5.35483e-05
-4.20533e-06
-5.31653e-05
-3.45331e-06
-5.29061e-05
-2.71815e-06
-5.28042e-05
-1.98693e-06
-5.28983e-05
-1.2447e-06
-5.32332e-05
-4.75296e-07
-5.38513e-05
3.29802e-07
-5.47912e-05
1.18656e-06
-5.61133e-05
2.13724e-06
-5.79005e-05
3.2266e-06
-6.02396e-05
4.47599e-06
-6.32029e-05
5.86912e-06
-6.68203e-05
7.33615e-06
-7.10568e-05
8.75914e-06
-7.58141e-05
1.00272e-05
-8.09779e-05
1.11523e-05
-8.651e-05
1.23938e-05
-9.25428e-05
1.43362e-05
-9.9422e-05
1.7915e-05
-0.000107609
2.41927e-05
-0.000117304
3.35027e-05
-0.000127847
4.41094e-05
-0.000137488
5.17281e-05
-0.000144073
5.10688e-05
-0.000145865
3.89999e-05
-0.000142115
1.83971e-05
-0.000133054
-1.69865e-06
-0.000117119
-1.00319e-05
-9.06097e-05
5.19538e-06
-4.83844e-05
4.14321e-05
1.6726e-05
5.74757e-05
8.04912e-05
2.31069e-05
0.000123297
-3.53698e-05
0.000163197
-9.28135e-05
0.000202771
-0.000148164
0.000243484
-0.000200952
0.000283511
-0.000247146
0.000319626
-0.000281951
0.000349534
-0.000301055
0.00037255
-0.000302829
0.000389321
-0.000289146
0.000401265
-0.000264527
0.000409962
-0.000235531
0.000416245
-0.000208838
0.000421209
-0.000193796
-0.00019585
0.000413776
0.000452671
0.000438595
0.000420376
0.000464388
0.000407173
0.000477906
0.000399708
0.000463827
0.000383601
0.000415005
0.000349769
0.000336447
0.000297486
0.000241733
0.000233127
0.000148212
0.000166372
7.04566e-05
0.000106366
1.84482e-05
5.9096e-05
-6.21022e-06
2.72281e-05
-1.57505e-05
9.4318e-06
-2.25516e-05
5.11636e-06
-2.8053e-05
4.08961e-06
-3.15613e-05
4.28536e-07
-3.46245e-05
-7.03431e-08
-3.84577e-05
9.78792e-07
-4.21075e-05
-7.81613e-07
-4.52429e-05
-3.0297e-06
-4.86138e-05
-3.44687e-06
-5.25301e-05
-3.26407e-06
-5.65928e-05
-4.12034e-06
-6.02833e-05
-6.10256e-06
-6.33666e-05
-8.236e-06
-6.59022e-05
-9.58763e-06
-6.8051e-05
-9.88193e-06
-6.99279e-05
-9.37528e-06
-7.15846e-05
-8.46119e-06
-7.30426e-05
-7.44253e-06
-7.43201e-05
-6.47708e-06
-7.54458e-05
-5.60531e-06
-7.64604e-05
-4.80458e-06
-7.74122e-05
-4.0351e-06
-7.83509e-05
-3.26593e-06
-7.93228e-05
-2.48059e-06
-8.03717e-05
-1.66857e-06
-8.15401e-05
-8.1793e-07
-8.28665e-05
8.21004e-08
-8.43765e-05
1.03486e-06
-8.61012e-05
2.05435e-06
-8.80908e-05
3.17564e-06
-9.03997e-05
4.44539e-06
-9.30859e-05
5.91185e-06
-9.62028e-05
7.59184e-06
-9.97737e-05
9.43912e-06
-0.000103762
1.1324e-05
-0.000108047
1.3043e-05
-0.000112412
1.4392e-05
-0.000116581
1.53203e-05
-0.000120284
1.6096e-05
-0.000123318
1.73693e-05
-0.000125533
2.01296e-05
-0.000126762
2.54202e-05
-0.000126648
3.33888e-05
-0.000124429
4.18895e-05
-0.000118816
4.6114e-05
-0.000109269
4.15204e-05
-9.65493e-05
2.62788e-05
-8.24878e-05
4.33349e-06
-7.04564e-05
-1.37318e-05
-5.55867e-05
-2.49031e-05
-2.7207e-05
-2.3186e-05
2.82369e-05
-1.40125e-05
9.61613e-05
-1.04483e-05
0.000156477
-3.72082e-05
0.000206872
-8.5763e-05
0.000253604
-0.000139545
0.000297606
-0.000192167
0.000337553
-0.000240899
0.000371606
-0.000281199
0.000398045
-0.00030839
0.000416409
-0.000319418
0.000427602
-0.000314023
0.000433364
-0.000294907
0.000435635
-0.000266799
0.000436037
-0.000235933
0.000435338
-0.000208138
0.000433771
-0.00019223
-0.000190735
0.000414443
0.000427976
0.000437331
0.000397488
0.000463446
0.000381058
0.000489422
0.000373733
0.000505103
0.00036792
0.000499091
0.000355781
0.000465085
0.000331492
0.000404461
0.000293751
0.000325086
0.000245747
0.000238298
0.000193153
0.000155647
0.000141747
8.6515e-05
9.63603e-05
3.59322e-05
6.00146e-05
7.12445e-06
3.39241e-05
-6.04993e-06
1.7264e-05
-1.35598e-05
7.93841e-06
-1.9985e-05
6.35497e-06
-2.60344e-05
7.02822e-06
-3.10479e-05
4.23188e-06
-3.51056e-05
1.02791e-06
-3.94074e-05
8.54802e-07
-4.44949e-05
1.8235e-06
-4.99782e-05
1.36304e-06
-5.52558e-05
-8.24785e-07
-6.00338e-05
-3.45788e-06
-6.43825e-05
-5.23882e-06
-6.84755e-05
-5.78893e-06
-7.23757e-05
-5.4751e-06
-7.60546e-05
-4.7824e-06
-7.94697e-05
-4.02744e-06
-8.26049e-05
-3.34185e-06
-8.54771e-05
-2.73287e-06
-8.81279e-05
-2.15347e-06
-9.06092e-05
-1.55337e-06
-9.29709e-05
-9.03648e-07
-9.52522e-05
-1.98707e-07
-9.74759e-05
5.55769e-07
-9.96562e-05
1.36281e-06
-0.000101811
2.23732e-06
-0.000103966
3.18955e-06
-0.000106134
4.22274e-06
-0.000108312
5.35279e-06
-0.000110492
6.62508e-06
-0.000112671
8.08977e-06
-0.000114836
9.75574e-06
-0.000116946
1.15488e-05
-0.000118913
1.329e-05
-0.000120577
1.4707e-05
-0.000121695
1.55092e-05
-0.000121925
1.55501e-05
-0.000120857
1.50276e-05
-0.000118038
1.45492e-05
-0.000112903
1.49937e-05
-0.000104785
1.73005e-05
-9.29742e-05
2.15772e-05
-7.71378e-05
2.60516e-05
-5.63934e-05
2.53678e-05
-3.09944e-05
1.61194e-05
-5.62431e-06
9.06228e-07
1.44331e-05
-1.57263e-05
3.58768e-05
-3.51771e-05
6.16857e-05
-5.07132e-05
9.7354e-05
-5.88553e-05
0.000145732
-6.23915e-05
0.000205084
-6.98004e-05
0.000262769
-9.48925e-05
0.000313919
-0.000136913
0.000359254
-0.00018488
0.000398338
-0.00023125
0.000429628
-0.000272189
0.000452081
-0.000303652
0.000465553
-0.000321863
0.000471067
-0.000324932
0.00047057
-0.000313525
0.000466329
-0.000290666
0.000460362
-0.000260832
0.000454047
-0.000229618
0.000447862
-0.000201953
0.000441394
-0.000185762
-0.000181835
0.000415603
0.000402121
0.000438131
0.00037496
0.000461828
0.000357361
0.000488331
0.000347229
0.000514803
0.000341448
0.000534014
0.00033657
0.000537512
0.000327995
0.000519509
0.000311754
0.000478917
0.000286339
0.000419246
0.000252824
0.000346981
0.000214012
0.000269982
0.000173359
0.000195737
0.000134259
0.00013045
9.92113e-05
7.79469e-05
6.9767e-05
3.91911e-05
4.66943e-05
1.53929e-05
3.01532e-05
3.29652e-06
1.91246e-05
-4.39617e-06
1.19245e-05
-1.13248e-05
7.95647e-06
-1.77981e-05
7.32792e-06
-2.40679e-05
8.09334e-06
-3.03052e-05
7.60048e-06
-3.63719e-05
5.24212e-06
-4.2208e-05
2.37843e-06
-4.79265e-05
4.79687e-07
-5.35524e-05
-1.63173e-07
-5.90011e-05
-2.65335e-08
-6.41477e-05
3.64063e-07
-6.88955e-05
7.20179e-07
-7.32121e-05
9.7478e-07
-7.71158e-05
1.17101e-06
-8.06523e-05
1.38337e-06
-8.38727e-05
1.66756e-06
-8.68179e-05
2.04223e-06
-8.95128e-05
2.49704e-06
-9.19682e-05
3.01182e-06
-9.4182e-05
3.5773e-06
-9.61449e-05
4.20062e-06
-9.78378e-05
4.88258e-06
-9.92206e-05
5.60533e-06
-0.00010023
6.36181e-06
-0.000100792
7.18604e-06
-0.000100834
8.13063e-06
-0.000100284
9.20447e-06
-9.90626e-05
1.03268e-05
-9.70827e-05
1.13094e-05
-9.42418e-05
1.18655e-05
-9.04082e-05
1.16748e-05
-8.53556e-05
1.04964e-05
-7.87444e-05
8.41458e-06
-7.01731e-05
5.97597e-06
-5.88992e-05
3.71804e-06
-4.39252e-05
2.32485e-06
-2.40378e-05
1.68819e-06
2.4057e-06
-3.93922e-07
3.29827e-05
-5.21137e-06
6.41246e-05
-1.50243e-05
9.52546e-05
-3.02249e-05
0.000127926
-4.83988e-05
0.000161185
-6.84365e-05
0.000197054
-8.65833e-05
0.000238041
-9.98427e-05
0.00028526
-0.000109611
0.000337207
-0.000121747
0.000387142
-0.000144827
0.000430293
-0.000180063
0.000465613
-0.0002202
0.000492463
-0.0002581
0.000509981
-0.000289707
0.000518127
-0.000311799
0.000517956
-0.000321692
0.000511411
-0.000318388
0.000500886
-0.000303
0.000488669
-0.000278448
0.000476499
-0.000248662
0.000465336
-0.000218455
0.000455267
-0.000191884
0.000445451
-0.000175946
-0.000170348
0.000416574
0.000375295
0.000440011
0.000351522
0.000462633
0.00033474
0.000486578
0.000323284
0.000512833
0.000315193
0.000539694
0.000309708
0.000562449
0.00030524
0.000575076
0.000299127
0.000572575
0.000288841
0.000552494
0.000272905
0.000515301
0.000251205
0.000463902
0.000224758
0.000402769
0.000195393
0.000336904
0.000165076
0.00027113
0.000135541
0.000209482
0.000108342
0.000155117
8.45181e-05
0.000109926
6.43159e-05
7.40468e-05
4.78038e-05
4.69404e-05
3.50629e-05
2.84741e-05
2.57942e-05
1.72004e-05
1.93671e-05
9.86042e-06
1.49406e-05
3.34251e-06
1.17602e-05
-3.74463e-06
9.46576e-06
-1.11886e-05
7.92371e-06
-1.83859e-05
7.034e-06
-2.49724e-05
6.55988e-06
-3.08299e-05
6.22142e-06
-3.59644e-05
5.85456e-06
-4.04283e-05
5.43876e-06
-4.42952e-05
5.03822e-06
-4.76383e-05
4.72713e-06
-5.05151e-05
4.54522e-06
-5.29584e-05
4.48656e-06
-5.4977e-05
4.51688e-06
-5.65586e-05
4.59437e-06
-5.76725e-05
4.69207e-06
-5.82859e-05
4.81422e-06
-5.83547e-05
4.95141e-06
-5.78042e-05
5.05423e-06
-5.65232e-05
5.07975e-06
-5.43755e-05
5.03697e-06
-5.12179e-05
4.97167e-06
-4.68991e-05
4.8844e-06
-4.12643e-05
4.69099e-06
-3.41796e-05
4.22391e-06
-2.55519e-05
3.23708e-06
-1.53608e-05
1.48258e-06
-3.7303e-06
-1.13601e-06
9.32386e-06
-4.64187e-06
2.44312e-05
-9.13336e-06
4.23948e-05
-1.4247e-05
6.42626e-05
-1.9544e-05
9.09655e-05
-2.50153e-05
0.000122187
-3.16159e-05
0.000157417
-4.04421e-05
0.000195126
-5.2734e-05
0.000233752
-6.88512e-05
0.00027285
-8.74972e-05
0.000311509
-0.000107096
0.00034994
-0.000125014
0.000389193
-0.000139096
0.000429802
-0.00015022
0.000470643
-0.000162589
0.000507707
-0.000181891
0.000537184
-0.00020954
0.000557712
-0.000240728
0.000569113
-0.000269501
0.000571517
-0.000292111
0.000565806
-0.000306088
0.000553749
-0.000309635
0.000537635
-0.000302274
0.000519794
-0.000285158
0.000502162
-0.000260815
0.000486
-0.000232501
0.000471801
-0.000204256
0.000459283
-0.000179366
0.000447382
-0.000164046
-0.000157173
0.000417187
0.000347856
0.000441803
0.000326907
0.000464911
0.000311632
0.00048762
0.000300575
0.00051125
0.000291563
0.00053672
0.000284239
0.000563341
0.000278619
0.000588461
0.000274006
0.000608206
0.000269096
0.000618689
0.000262422
0.000617096
0.000252797
0.000602226
0.000239628
0.000574574
0.000223045
0.000535961
0.000203689
0.000489025
0.000182477
0.000436837
0.00016053
0.000382467
0.000138888
0.000328565
0.000118217
0.000277282
9.90874e-05
0.000230278
8.20669e-05
0.000188695
6.73768e-05
0.000153162
5.49e-05
0.000123677
4.44258e-05
9.96563e-05
3.57812e-05
8.02952e-05
2.88269e-05
6.48536e-05
2.33653e-05
5.27458e-05
1.91418e-05
4.34055e-05
1.59e-05
3.62231e-05
1.34037e-05
3.06216e-05
1.1456e-05
2.61529e-05
9.90757e-06
2.25372e-05
8.65424e-06
1.96428e-05
7.62209e-06
1.74372e-05
6.75174e-06
1.59381e-05
5.98682e-06
1.518e-05
5.27621e-06
1.52087e-05
4.56682e-06
1.60511e-05
3.85051e-06
1.76986e-05
3.16703e-06
2.01895e-05
2.46045e-06
2.36237e-05
1.61938e-06
2.80984e-05
6.04129e-07
3.37323e-05
-5.98064e-07
4.07331e-05
-2.03021e-06
4.93713e-05
-3.75471e-06
5.99087e-05
-5.84705e-06
7.25537e-05
-8.42158e-06
8.74282e-05
-1.16379e-05
0.000104583
-1.56723e-05
0.000124091
-2.0645e-05
0.000146038
-2.6589e-05
0.000170378
-3.34746e-05
0.000197204
-4.10736e-05
0.000226747
-4.90872e-05
0.000259198
-5.74667e-05
0.00029428
-6.66979e-05
0.000331357
-7.7519e-05
0.00036928
-9.06576e-05
0.000406702
-0.000106273
0.000442636
-0.000123432
0.000476167
-0.000140628
0.000507107
-0.000155954
0.000536033
-0.000168023
0.000563363
-0.00017755
0.000588391
-0.000187616
0.000608649
-0.000202148
0.000621494
-0.000222385
0.000625947
-0.00024518
0.000622343
-0.000265897
0.000611531
-0.000281298
0.000594897
-0.000289455
0.000574381
-0.000289119
0.000552115
-0.000280008
0.000530014
-0.000263057
0.000509482
-0.000240284
0.000491275
-0.000214295
0.000475493
-0.000188473
0.000461591
-0.000165465
0.000448463
-0.000150918
-0.000142883
0.00041755
0.000320054
0.00044308
0.000301377
0.00046718
0.000287532
0.000490256
0.0002775
0.000512826
0.000268992
0.000535823
0.000261243
0.000560061
0.00025438
0.000585566
0.000248501
0.000611231
0.000243431
0.000634962
0.000238691
0.000654196
0.000233563
0.000666538
0.000227285
0.000670287
0.000219296
0.000664656
0.000209321
0.000649744
0.000197389
0.000626448
0.000183826
0.000596221
0.000169115
0.000560726
0.000153713
0.000521702
0.000138111
0.000480906
0.000122863
0.000439906
0.000108377
0.000399973
9.48333e-05
0.000362083
8.23158e-05
0.000326937
7.09266e-05
0.000294998
6.07665e-05
0.000266507
5.18557e-05
0.000241532
4.41174e-05
0.000220012
3.74201e-05
0.000201795
3.162e-05
0.000186668
2.65839e-05
0.000174381
2.21943e-05
0.000164687
1.83481e-05
0.000157358
1.49509e-05
0.000152197
1.19132e-05
0.000149036
9.14836e-06
0.000147737
6.57522e-06
0.000148188
4.11561e-06
0.00015029
1.7493e-06
0.000154032
-5.75074e-07
0.000159464
-2.97153e-06
0.000166611
-5.52769e-06
0.000175525
-8.31087e-06
0.000186302
-1.13748e-05
0.00019904
-1.47686e-05
0.000213829
-1.85438e-05
0.000230742
-2.27608e-05
0.000249818
-2.74975e-05
0.00027103
-3.28502e-05
0.000294272
-3.89138e-05
0.000319367
-4.57404e-05
0.000346088
-5.33108e-05
0.000374145
-6.15312e-05
0.000403274
-7.02024e-05
0.000433285
-7.90989e-05
0.000463988
-8.81692e-05
0.00049499
-9.77005e-05
0.00052566
-0.000108189
0.000555077
-0.000120075
0.000582176
-0.000133372
0.000606104
-0.000147359
0.000626302
-0.000160826
0.000642788
-0.000172441
0.000656151
-0.000181385
0.000666912
-0.000188311
0.000674786
-0.000195491
0.00067833
-0.000205692
0.000675872
-0.000219927
0.00066685
-0.000236158
0.000651857
-0.000250904
0.00063201
-0.000261451
0.000608745
-0.00026619
0.000583754
-0.000264128
0.000558718
-0.000254972
0.000535013
-0.000239351
0.000513534
-0.000218805
0.000494645
-0.000195405
0.000478202
-0.00017203
0.000463544
-0.000150806
0.000449638
-0.000137012
-0.000127763
0.000417795
0.000292006
0.000443943
0.000275229
0.000468854
0.00026262
0.000492791
0.000253563
0.0005158
0.000245983
0.000538159
0.000238884
0.000560429
0.00023211
0.000583242
0.000225689
0.000606976
0.000219697
0.000631469
0.000214198
0.000655916
0.000209116
0.000679005
0.000204197
0.000699211
0.00019909
0.000715101
0.000193431
0.000725565
0.000186925
0.00072997
0.000179421
0.000728178
0.000170907
0.000720444
0.000161447
0.00070735
0.000151204
0.000689754
0.000140459
0.000668647
0.000129484
0.000645018
0.000118463
0.000619794
0.00010754
0.000593838
9.68823e-05
0.000567935
8.66703e-05
0.000542754
7.70364e-05
0.000518833
6.80384e-05
0.000496578
5.96753e-05
0.000476281
5.19163e-05
0.000458144
4.47207e-05
0.000442294
3.80444e-05
0.000428802
3.18404e-05
0.000417696
2.60571e-05
0.000408973
2.06363e-05
0.000402606
1.5515e-05
0.000398557
1.06247e-05
0.000396771
5.90219e-06
0.000397271
1.24878e-06
0.000400124
-3.42825e-06
0.00040531
-8.15676e-06
0.000412754
-1.29724e-05
0.000422362
-1.79191e-05
0.000434026
-2.30385e-05
0.000447625
-2.83673e-05
0.000463023
-3.3942e-05
0.000480065
-3.98028e-05
0.000498565
-4.59979e-05
0.000518295
-5.25805e-05
0.000538975
-5.95939e-05
0.00056028
-6.70456e-05
0.000581855
-7.48865e-05
0.000603332
-8.30082e-05
0.00062438
-9.12498e-05
0.000644738
-9.94572e-05
0.000664176
-0.000107607
0.000682373
-0.000115898
0.000698861
-0.000124677
0.00071301
-0.000134224
0.000724145
-0.000144507
0.000731784
-0.000154999
0.000735784
-0.000164826
0.000736441
-0.000173098
0.000734428
-0.000179373
0.000730337
-0.00018422
0.000724139
-0.000189292
0.000714991
-0.000196544
0.000701827
-0.000206762
0.000684298
-0.000218629
0.000662961
-0.000229567
0.000638823
-0.000237314
0.000613061
-0.000240428
0.000586935
-0.000238002
0.000561629
-0.000229667
0.000538059
-0.00021578
0.000516762
-0.000197508
0.00049788
-0.000176524
0.000481177
-0.000155327
0.000465996
-0.000135625
0.000451438
-0.000122455
-0.000111887
0.000417993
0.000263762
0.000444593
0.00024863
0.000470041
0.000237172
0.000494645
0.000228959
0.000518424
0.000222203
0.000541355
0.000215953
0.000563522
0.000209943
0.000585181
0.000204029
0.000606738
0.000198141
0.0006286
0.000192337
0.000650997
0.000186719
0.000673854
0.00018134
0.000696768
0.000176176
0.000719072
0.000171128
0.000739954
0.000166042
0.000758613
0.000160762
0.000774369
0.000155151
0.000786722
0.000149093
0.000795397
0.00014253
0.000800366
0.00013549
0.000801812
0.000128038
0.000800049
0.000120225
0.000795485
0.000112104
0.000788595
0.000103772
0.000779906
9.53595e-05
0.000769954
8.69888e-05
0.000759249
7.87432e-05
0.000748255
7.06697e-05
0.000737377
6.27936e-05
0.000726967
5.51307e-05
0.000717321
4.76911e-05
0.000708683
4.04783e-05
0.000701252
3.34882e-05
0.000695181
2.67071e-05
0.000690583
2.01127e-05
0.000687534
1.36742e-05
0.00068608
7.35654e-06
0.000686224
1.1042e-06
0.000687918
-5.12177e-06
0.000691097
-1.13357e-05
0.000695681
-1.7557e-05
0.000701567
-2.38053e-05
0.000708626
-3.00977e-05
0.000716707
-3.64483e-05
0.000725638
-4.28723e-05
0.000735224
-4.93892e-05
0.00074525
-5.60237e-05
0.000755471
-6.2802e-05
0.000765618
-6.97407e-05
0.000775402
-7.68303e-05
0.000784537
-8.40214e-05
0.000792756
-9.1227e-05
0.000799843
-9.83374e-05
0.000805651
-0.000105265
0.000810062
-0.000112018
0.000812916
-0.000118752
0.000813956
-0.000125717
0.000812839
-0.000133107
0.000809225
-0.000140893
0.000802943
-0.000148717
0.0007941
-0.000155983
0.000783112
-0.000162111
0.000770607
-0.000166868
0.000757093
-0.000170706
0.000742597
-0.000174797
0.000726556