/*--------------------------------*- C++ -*----------------------------------*\
| =========                 |                                                 |
| \\      /  F ield         | OpenFOAM: The Open Source CFD Toolbox           |
|  \\    /   O peration     | Version:  v1912                                 |
|   \\  /    A nd           | Website:  www.openfoam.com                      |
|    \\/     M anipulation  |                                                 |
\*---------------------------------------------------------------------------*/
FoamFile
{
    version     2.0;
    format      ascii;
    class       volVectorField;
    location    "480";
    object      U;
}
// * * * * * * * * * * * * * * * * * * * * * * * * * * * * * * * * * * * * * //

dimensions      [0 1 -1 0 0 0 0];


internalField   nonuniform List<vector> 
2000
(
(0.545548 0.0934285 0)
(-0.240565 0.00952697 -1.26863e-16)
(-0.0990034 0.00949586 -1.90814e-16)
(-0.0570252 0.00762563 -4.86729e-16)
(-0.0413046 0.00622357 0)
(-0.031295 0.00484499 0)
(-0.0252177 0.00391023 0)
(-0.021127 0.00329589 3.90391e-16)
(-0.0181478 0.00276804 -4.14726e-16)
(-0.0157111 0.00235075 4.37667e-16)
(-0.0137606 0.00201543 -4.59176e-16)
(-0.0121012 0.00171462 0)
(-0.0105963 0.00144946 4.99911e-16)
(-0.00919036 0.00120363 1.42841e-20)
(-0.00779031 0.000961302 0)
(-0.00632937 0.00071495 -2.82963e-16)
(-0.00479392 0.000486033 0)
(-0.00317006 0.00024869 0)
(-0.00139083 5.11478e-06 -3.3086e-16)
(0.000515279 -0.000218776 0)
(0.00246069 -0.000409397 3.26051e-16)
(0.00437495 -0.000572025 -6.21549e-16)
(0.0062117 -0.000700767 0)
(0.00790225 -0.000780034 2.85278e-16)
(0.00935089 -0.000802597 2.76136e-16)
(0.0104641 -0.000771726 0)
(0.011188 -0.000704095 0)
(0.0115339 -0.000622257 1.32584e-16)
(0.0115731 -0.00054388 0)
(0.0114041 -0.000476583 0)
(0.0111243 -0.00041997 2.682e-16)
(0.0108044 -0.000369593 1.35225e-16)
(0.0104855 -0.000321106 2.72888e-16)
(0.010186 -0.000272127 0)
(0.00991037 -0.000222362 0)
(0.00965672 -0.000172637 -6.99153e-17)
(0.00942219 -0.000123664 0)
(0.00920489 -7.62525e-05 -2.67966e-23)
(0.00900392 -3.03599e-05 -1.78178e-17)
(0.00881955 1.36694e-05 0)
(0.00865176 5.63215e-05 0)
(0.00850119 9.73222e-05 1.80713e-17)
(0.00836793 0.00013697 3.62696e-17)
(0.00825397 0.0001747 0)
(0.00816253 0.000210617 7.2894e-17)
(0.00809939 0.000244989 0)
(0.0080699 0.000279049 7.29765e-17)
(0.00807723 0.000314637 -2.91529e-16)
(0.00811856 0.000353755 -1.45388e-16)
(0.00818331 0.000397656 -2.89668e-16)
(0.00825482 0.000445209 0)
(0.00831913 0.000492089 1.4354e-16)
(0.00837947 0.000532222 0)
(0.00847114 0.000561363 0)
(0.00865759 0.000582393 0)
(0.00902148 0.000597536 -3.9326e-21)
(0.00968353 0.000604325 -3.84689e-21)
(0.0107576 0.000628121 0)
(0.0122398 0.000712426 0)
(0.0139408 0.000897524 0)
(0.0155197 0.00121357 0)
(0.016544 0.00158663 0)
(0.0177683 0.00151947 1.39894e-20)
(0.0238872 -4.18447e-05 -1.89583e-16)
(0.0283631 -0.00216804 0)
(0.015523 0.00437464 0)
(-0.0937626 0.0119891 6.05694e-17)
(-0.224456 -0.00516879 -7.46696e-17)
(-0.302865 -0.030672 0)
(-0.32374 -0.0452828 0)
(-0.305902 -0.0479555 0)
(-0.268641 -0.0446853 0)
(-0.210879 -0.037764 0)
(-0.135632 -0.0282068 2.40388e-16)
(-0.046756 -0.0179283 0)
(0.0528999 -0.0046711 -4.12698e-16)
(0.150001 0.0144256 0)
(0.278371 0.0365354 -3.39062e-16)
(0.352466 0.0558155 0)
(0.574736 0.0893364 8.57907e-17)
(0.890142 0.137811 0)
(0.259319 0.0566382 4.2264e-17)
(-0.0989879 0.0128711 0)
(-0.0904316 0.00588266 2.31074e-16)
(-0.0755649 0.00791557 -2.47304e-16)
(-0.0613147 0.00744812 0)
(-0.051234 0.00658868 0)
(-0.0442922 0.00588806 -3.49815e-16)
(-0.0390435 0.0050748 0)
(-0.0346224 0.00439063 0)
(-0.0309748 0.00381257 4.23472e-16)
(-0.0278094 0.003229 0)
(-0.0249136 0.00268081 2.33782e-16)
(-0.0221998 0.0021362 2.83395e-20)
(-0.0195321 0.00156548 0)
(-0.0168113 0.000968328 0)
(-0.0140083 0.000413345 0)
(-0.0111228 -0.000182018 0)
(-0.00803411 -0.000801275 0)
(-0.00474904 -0.00135104 3.64728e-16)
(-0.00138646 -0.00179246 0)
(0.00195354 -0.00213999 4.02728e-16)
(0.00523878 -0.00239228 0)
(0.00841448 -0.00251784 -3.27555e-16)
(0.0113822 -0.00249064 0)
(0.0140136 -0.0023105 1.4241e-16)
(0.0161879 -0.00201736 0)
(0.0178397 -0.00167608 -1.31947e-16)
(0.0189795 -0.00134778 1.29252e-16)
(0.0196792 -0.00106947 0)
(0.020037 -0.000851822 -1.26011e-16)
(0.0201526 -0.000685814 0)
(0.0201112 -0.000554283 -1.24797e-16)
(0.0199752 -0.000441235 0)
(0.0197832 -0.000335594 0)
(0.0195569 -0.000233075 0)
(0.0193093 -0.000131963 -3.1529e-17)
(0.0190496 -3.42796e-05 -3.17024e-17)
(0.0187852 6.0348e-05 1.59469e-17)
(0.0185228 0.000149965 0)
(0.0182677 0.000236268 0)
(0.0180244 0.000318103 -1.62663e-17)
(0.0177961 0.000396542 4.18991e-22)
(0.017587 0.000469248 3.29704e-17)
(0.017403 0.000535095 0)
(0.0172531 0.000593457 -6.67724e-17)
(0.0171468 0.00064637 0)
(0.017091 0.00070021 1.34815e-16)
(0.0170843 0.000763302 0)
(0.0171127 0.000844995 1.35305e-16)
(0.0171494 0.0009474 0)
(0.0171654 0.00105912 -1.35337e-16)
(0.017149 0.00115373 0)
(0.0171276 0.00119935 -1.35847e-16)
(0.0171584 0.00118248 0)
(0.0173107 0.00108511 -4.03253e-16)
(0.0176737 0.000869805 -5.27456e-16)
(0.0182622 0.000593023 0)
(0.0189958 0.000434821 0)
(0.0198229 0.00060358 0)
(0.0207638 0.00122616 0)
(0.0215767 0.00198065 0)
(0.0223313 0.000462995 2.349e-16)
(0.0231568 -0.00266125 0)
(-0.0126901 0.0141702 0)
(-0.128064 0.0420808 -4.1254e-17)
(-0.265123 0.0392609 0)
(-0.332754 -0.000578494 -2.19972e-17)
(-0.317859 -0.0407537 0)
(-0.282547 -0.0626658 0)
(-0.247283 -0.0721248 0)
(-0.192777 -0.073263 5.97834e-17)
(-0.121476 -0.068803 0)
(-0.0341141 -0.0592079 -2.59753e-16)
(0.0651975 -0.0452988 0)
(0.175673 -0.0239123 1.93606e-16)
(0.284646 0.00436191 -1.49321e-16)
(0.420221 0.0364684 3.12266e-18)
(0.508607 0.0653712 0)
(0.747482 0.101961 -3.06816e-17)
(0.985878 0.168645 5.63523e-18)
(0.660305 0.10588 0)
(0.228234 0.0499783 0)
(-0.0347964 0.00934368 0)
(-0.0737775 0.00386992 4.17448e-16)
(-0.0727861 0.00493091 0)
(-0.0634182 0.00533122 0)
(-0.0559857 0.00534252 0)
(-0.0505006 0.00484253 0)
(-0.0456827 0.00427881 0)
(-0.0416749 0.00382469 -1.76982e-16)
(-0.038199 0.00325043 0)
(-0.0350346 0.00267887 -1.92484e-16)
(-0.0321171 0.00207782 3.99674e-16)
(-0.0293199 0.00141515 0)
(-0.0265314 0.000682994 0)
(-0.0237164 2.45647e-05 0)
(-0.0209068 -0.000712252 0)
(-0.0179273 -0.00151724 2.4231e-16)
(-0.0147246 -0.00222927 -2.56153e-16)
(-0.0114018 -0.00278067 0)
(-0.00804789 -0.00320252 2.98961e-16)
(-0.0046706 -0.003516 0)
(-0.00126133 -0.00368468 0)
(0.00214664 -0.00365001 -1.83836e-16)
(0.00544155 -0.00339843 -3.38094e-16)
(0.00847384 -0.00297837 0)
(0.0111236 -0.00247513 0)
(0.0133338 -0.00197395 -7.40653e-21)
(0.0151072 -0.00152915 0)
(0.0164861 -0.00116479 0)
(0.0175345 -0.000881519 0)
(0.0183182 -0.000662679 0)
(0.0188925 -0.000486328 0)
(0.0193021 -0.000334525 0)
(0.0195806 -0.00019632 0)
(0.0197545 -6.71722e-05 3.11717e-17)
(0.0198455 5.40026e-05 -3.09981e-17)
(0.0198711 0.000167351 0)
(0.0198452 0.000273061 -3.85834e-18)
(0.0197791 0.000371963 3.86035e-18)
(0.019681 0.000464842 0)
(0.0195571 0.000551836 6.20756e-17)
(0.0194118 0.000630429 -3.11706e-17)
(0.0192503 0.000697094 0)
(0.0190796 0.000749142 1.26168e-16)
(0.0189075 0.00078796 0)
(0.0187404 0.000820864 0)
(0.0185798 0.000861762 0)
(0.0184171 0.000927861 0)
(0.0182316 0.00102938 0)
(0.0179935 0.00115629 0)
(0.0176729 0.00126881 -1.3231e-16)
(0.0172465 0.00130813 1.34138e-16)
(0.0166534 0.00124142 0)
(0.0157433 0.00105534 1.39831e-16)
(0.0142064 0.000730401 2.90101e-16)
(0.0115236 0.0003415 0)
(0.00770606 0.000136642 0)
(0.00366046 0.00020679 0)
(0.000798403 0.000106762 0)
(-0.00014563 -0.00117465 0)
(-0.00141517 -0.00381844 2.80017e-16)
(-0.0290654 0.0130196 1.06001e-16)
(-0.108208 0.0518012 0)
(-0.219372 0.0825175 1.0215e-18)
(-0.279348 0.0655734 -1.97233e-17)
(-0.245303 0.0113891 5.22967e-17)
(-0.190134 -0.0297275 0)
(-0.15903 -0.0528714 0)
(-0.116202 -0.0656321 0)
(-0.0588281 -0.0724793 -7.54072e-17)
(0.0147792 -0.0741821 -8.68174e-17)
(0.102753 -0.0695424 0)
(0.200126 -0.0569912 0)
(0.304856 -0.0355791 0)
(0.409299 -0.00805806 1.0356e-16)
(0.532613 0.0220539 8.12629e-17)
(0.620673 0.0481597 -4.83416e-17)
(0.832667 0.0726361 0)
(0.995539 0.193712 -5.41124e-18)
(0.876314 0.150544 0)
(0.571931 0.100585 -1.46645e-17)
(0.238054 0.0475309 -3.05625e-17)
(0.00702089 0.0105516 -1.75722e-16)
(-0.0555903 0.00211267 0)
(-0.0641381 0.00224031 -1.37981e-16)
(-0.0596533 0.00343881 0)
(-0.0558776 0.00359282 0)
(-0.0518251 0.00325643 0)
(-0.0483227 0.00313612 1.5977e-16)
(-0.0453284 0.00270592 0)
(-0.0426095 0.00226771 0)
(-0.0401873 0.00175491 -1.73766e-16)
(-0.0379609 0.00115553 0)
(-0.0358045 0.000407 0)
(-0.0336802 -0.000215648 0)
(-0.0316783 -0.00096213 0)
(-0.0295481 -0.00186968 -1.87554e-16)
(-0.0271608 -0.00268729 1.91185e-16)
(-0.0246166 -0.00330111 0)
(-0.0220002 -0.00378136 -2.04708e-16)
(-0.0192671 -0.00418799 0)
(-0.0163274 -0.00447296 0)
(-0.0131576 -0.00453449 1.22368e-16)
(-0.00984808 -0.00432248 2.20969e-21)
(-0.00655733 -0.00387408 0)
(-0.00343831 -0.00328869 0)
(-0.000596514 -0.00267708 -2.00969e-16)
(0.00190962 -0.00211972 0)
(0.00406837 -0.00165275 0)
(0.00590554 -0.00127883 0)
(0.00745877 -0.000982216 -8.97484e-17)
(0.0087637 -0.00074091 0)
(0.00985246 -0.000536154 0)
(0.010754 -0.000355744 0)
(0.0114923 -0.000193824 -3.99719e-17)
(0.0120872 -4.74458e-05 3.92225e-17)
(0.012556 8.45074e-05 1.93269e-17)
(0.0129129 0.000203641 4.75721e-18)
(0.0131694 0.000311291 -4.69899e-18)
(0.0133337 0.000410494 -1.8635e-17)
(0.0134098 0.000502162 -3.70795e-17)
(0.0133977 0.000584137 3.70157e-17)
(0.0132944 0.000651266 0)
(0.0130954 0.000699381 -7.46115e-17)
(0.0127963 0.000728305 0)
(0.0123941 0.00074468 7.63712e-17)
(0.0118907 0.00076376 0)
(0.0112922 0.000807036 0)
(0.0106016 0.00089302 0)
(0.00980001 0.00101974 0)
(0.00881353 0.00114083 1.68765e-16)
(0.00745166 0.00116931 0)
(0.00528608 0.00108151 1.86404e-16)
(0.00162102 0.00106918 0)
(-0.00490643 0.00148853 0)
(-0.0155946 0.00209697 0)
(-0.0282155 0.00166912 0)
(-0.0391703 -0.000809081 0)
(-0.0465023 -0.0044481 0)
(-0.0525354 -0.00473513 -1.33274e-16)
(-0.0666416 0.0071184 -9.05312e-17)
(-0.103157 0.0397639 -1.0127e-16)
(-0.166916 0.0850718 0)
(-0.218869 0.105371 2.31247e-17)
(-0.194574 0.0667295 1.51286e-18)
(-0.110339 0.00320466 -4.83781e-17)
(-0.069996 -0.0295908 0)
(-0.0354543 -0.0540757 -6.3368e-17)
(0.0114649 -0.0700598 0)
(0.0739329 -0.0809141 5.62566e-17)
(0.150909 -0.0861026 5.14549e-17)
(0.23884 -0.0831858 0)
(0.33277 -0.0710686 0)
(0.430766 -0.0500125 -4.27983e-17)
(0.527671 -0.0230896 3.80144e-17)
(0.638089 0.00619335 3.06527e-17)
(0.721224 0.0300142 4.08319e-17)
(0.905108 0.0499125 0)
(0.982496 0.203759 0)
(0.958308 0.177885 -7.06258e-18)
(0.807091 0.1458 1.56342e-19)
(0.547891 0.0992791 3.20735e-17)
(0.266837 0.0508412 -6.62249e-20)
(0.0550453 0.0151848 0)
(-0.0338303 0.000824749 1.68336e-16)
(-0.0499518 0.00163106 1.67658e-16)
(-0.0535773 0.00193177 0)
(-0.0528951 0.00211567 0)
(-0.0510008 0.00227425 1.53954e-16)
(-0.0492962 0.00203917 0)
(-0.0475259 0.00182054 0)
(-0.0460394 0.00144926 -1.59673e-16)
(-0.044753 0.00103649 0)
(-0.0435689 0.000322434 0)
(-0.0424511 -0.000178457 0)
(-0.0416045 -0.000835805 0)
(-0.0406854 -0.00180566 0)
(-0.0394786 -0.00271378 -1.55275e-16)
(-0.0381125 -0.00336798 0)
(-0.0366865 -0.00389577 7.82719e-17)
(-0.0350949 -0.0044266 0)
(-0.033154 -0.0049098 -8.03271e-17)
(-0.030773 -0.00518219 8.2793e-17)
(-0.028016 -0.00512549 8.68588e-17)
(-0.0250495 -0.00474848 9.27131e-17)
(-0.0220539 -0.00416059 0)
(-0.0191699 -0.00349955 1.09389e-16)
(-0.0164851 -0.0028727 5.98347e-17)
(-0.0140386 -0.00233142 0)
(-0.0118377 -0.00188508 0)
(-0.0098755 -0.0015218 7.74508e-17)
(-0.00813961 -0.00122082 0)
(-0.00661666 -0.000963706 -9.0205e-17)
(-0.00529359 -0.000738503 4.83463e-17)
(-0.00415822 -0.000538515 1.03122e-16)
(-0.00320023 -0.000360525 0)
(-0.00241132 -0.00020253 -5.75962e-17)
(-0.00178524 -6.24989e-05 7.47255e-18)
(-0.00131925 6.26588e-05 -7.68688e-18)
(-0.00101217 0.000178096 6.2071e-17)
(-0.000868516 0.000287094 0)
(-0.000902397 0.000388398 -1.21829e-16)
(-0.00114041 0.000478436 -5.94265e-17)
(-0.00161538 0.000555134 1.14679e-16)
(-0.00236238 0.000618625 0)
(-0.00340532 0.00067104 -1.03396e-16)
(-0.00473858 0.000716042 0)
(-0.00632004 0.000759384 0)
(-0.00810171 0.000802173 -8.37687e-17)
(-0.0101098 0.00083236 0)
(-0.0125987 0.000870524 0)
(-0.0163338 0.00111999 0)
(-0.0228461 0.00207334 -1.93345e-16)
(-0.0339693 0.00411212 0)
(-0.0504176 0.00660016 -5.66242e-17)
(-0.0705794 0.00769293 0)
(-0.0905848 0.0056079 0)
(-0.106534 0.000578207 0)
(-0.116581 -0.0039069 -3.71784e-17)
(-0.122246 -0.000903114 6.96991e-17)
(-0.129469 0.0182637 0)
(-0.145307 0.0568312 3.93519e-17)
(-0.164872 0.0978726 0)
(-0.155075 0.101545 0)
(-0.0801081 0.0492523 8.9055e-17)
(0.0113022 0.000869588 -1.43601e-16)
(0.044867 -0.0320482 0)
(0.0828888 -0.0583622 8.47825e-17)
(0.137363 -0.0781822 0)
(0.207128 -0.0927414 -2.1907e-19)
(0.287564 -0.100226 0)
(0.373878 -0.0981825 -3.48215e-17)
(0.461772 -0.0859363 3.46743e-17)
(0.550273 -0.0646057 3.48031e-17)
(0.636522 -0.0378517 -6.25563e-17)
(0.732769 -0.00934962 -2.66114e-17)
(0.807614 0.0123123 0)
(0.964314 0.0287929 0)
(0.971696 0.20536 5.34655e-18)
(0.971935 0.187852 6.97113e-18)
(0.923209 0.173678 9.44832e-18)
(0.781084 0.144605 -4.54977e-20)
(0.560015 0.102726 1.60329e-17)
(0.316578 0.0585892 0)
(0.1189 0.0228756 0)
(-0.0031831 0.00310255 -1.36307e-16)
(-0.0310536 0.000503122 0)
(-0.0438449 0.00159536 1.80508e-16)
(-0.0466563 0.00141203 -3.33017e-16)
(-0.048242 0.00160827 0)
(-0.0481889 0.00144214 0)
(-0.0482349 0.00119297 1.56576e-16)
(-0.0481489 0.001103 0)
(-0.0481389 0.000397867 -7.57127e-17)
(-0.048153 6.939e-05 0)
(-0.0486129 -0.000368045 0)
(-0.049084 -0.00135383 0)
(-0.0492419 -0.00234103 0)
(-0.0492928 -0.0029902 0)
(-0.0493934 -0.0035132 -6.60793e-21)
(-0.0493722 -0.00415772 0)
(-0.048932 -0.00488336 9.34146e-21)
(-0.0478972 -0.00544726 -6.38493e-17)
(-0.0462995 -0.00563991 -6.46785e-17)
(-0.0443064 -0.00542436 -6.65294e-17)
(-0.0421103 -0.004911 0)
(-0.0398651 -0.00426036 -1.0879e-16)
(-0.0376715 -0.00360554 5.13496e-21)
(-0.0355849 -0.00302099 -3.99882e-17)
(-0.0336324 -0.00252925 0)
(-0.0318279 -0.00212217 0)
(-0.0301802 -0.00177996 0)
(-0.0286967 -0.00148432 4.75406e-17)
(-0.0273839 -0.00122304 -2.46616e-17)
(-0.0262487 -0.000989053 -2.55096e-17)
(-0.0252989 -0.000778071 0)
(-0.0245452 -0.000585974 1.35029e-17)
(-0.0240012 -0.000408481 -3.45146e-18)
(-0.0236838 -0.000240862 3.51152e-18)
(-0.0236162 -7.86504e-05 -1.40628e-17)
(-0.0238276 8.30262e-05 0)
(-0.0243578 0.000250513 2.70669e-17)
(-0.0252706 0.000429014 2.62185e-17)
(-0.0266379 0.000617864 -7.5487e-17)
(-0.0285238 0.00080602 0)
(-0.0309613 0.000967507 0)
(-0.0339372 0.0010703 0)
(-0.0374169 0.00110497 3.97558e-17)
(-0.0414262 0.00112583 -2.1361e-21)
(-0.0461789 0.0013086 0)
(-0.0522234 0.00202605 0)
(-0.0605583 0.00383039 0)
(-0.0724948 0.0071365 8.91035e-17)
(-0.0889536 0.0115839 0)
(-0.109338 0.0154851 3.06477e-17)
(-0.130947 0.0161104 0)
(-0.149785 0.0113908 0)
(-0.16236 0.00245818 0)
(-0.166806 -0.00505909 2.75222e-17)
(-0.162934 -0.00229802 0)
(-0.152569 0.0188166 0)
(-0.137901 0.0565499 0)
(-0.113886 0.0884268 0)
(-0.0608625 0.0785546 0)
(0.0466468 0.0215931 -8.4257e-17)
(0.107309 -0.00920229 -6.21059e-19)
(0.150252 -0.0415336 0)
(0.201777 -0.0695623 -2.61308e-17)
(0.267817 -0.0920492 0)
(0.344024 -0.108603 -2.5416e-17)
(0.42455 -0.116641 2.62188e-17)
(0.505025 -0.113989 7.04759e-19)
(0.582843 -0.100698 -2.90084e-17)
(0.658703 -0.0787195 -2.77316e-17)
(0.731835 -0.0521288 5.27661e-17)
(0.813131 -0.0246033 2.15044e-17)
(0.877781 -0.00489239 0)
(1.0095 0.00937724 -6.54982e-18)
(0.968276 0.206736 -5.50206e-18)
(0.964507 0.190018 -7.61112e-18)
(0.958378 0.184646 0)
(0.90784 0.17236 -1.02505e-17)
(0.784609 0.146492 0)
(0.598315 0.109878 0)
(0.388999 0.0700235 -2.23962e-17)
(0.199229 0.035159 3.86539e-17)
(0.0620281 0.0108521 0)
(-0.00982959 0.00103782 -1.84756e-16)
(-0.0248013 0.000667862 3.3054e-16)
(-0.0370232 0.00204773 -9.73614e-17)
(-0.0407052 0.00120378 0)
(-0.0441848 0.00124739 8.52355e-17)
(-0.0459599 0.00147219 0)
(-0.0474854 0.000585762 7.80329e-17)
(-0.048805 0.000468357 0)
(-0.0506374 0.00044834 0)
(-0.0525706 -0.00052016 0)
(-0.0541278 -0.00160433 0)
(-0.0556591 -0.00216714 0)
(-0.057466 -0.00256227 -6.13758e-17)
(-0.0593139 -0.00324628 0)
(-0.0607687 -0.00420946 5.65376e-17)
(-0.061561 -0.00510241 0)
(-0.0616919 -0.00559211 5.39376e-17)
(-0.0613271 -0.00558169 0)
(-0.0606514 -0.00518545 -2.72432e-17)
(-0.0598033 -0.00459223 5.54075e-17)
(-0.0588705 -0.00396192 -2.82477e-17)
(-0.0579055 -0.00338657 2.88193e-17)
(-0.0569433 -0.00289681 2.93903e-17)
(-0.0560144 -0.00248622 0)
(-0.0551493 -0.00213467 0)
(-0.0543788 -0.00182328 0)
(-0.0537329 -0.00153916 -1.57095e-17)
(-0.05324 -0.00127373 7.9579e-18)
(-0.0529295 -0.00101955 0)
(-0.0528351 -0.000769111 0)
(-0.0529979 -0.000516901 0)
(-0.0534655 -0.000260464 0)
(-0.0542757 8.27952e-06 0)
(-0.0554699 0.000307745 0)
(-0.0571342 0.000657169 -7.55149e-18)
(-0.0593625 0.00106671 1.45194e-17)
(-0.0622532 0.00152818 -2.74912e-21)
(-0.0658813 0.00200742 0)
(-0.0702675 0.00244743 0)
(-0.075359 0.00279829 -2.34459e-17)
(-0.0810533 0.00307677 -2.21011e-17)
(-0.0872721 0.0034333 2.08012e-17)
(-0.0940561 0.00420739 0)
(-0.101656 0.00595315 0)
(-0.110586 0.00930515 -1.63396e-17)
(-0.121465 0.0144761 -2.89928e-17)
(-0.13441 0.0204874 0)
(-0.148298 0.0247687 2.32224e-17)
(-0.160705 0.0239133 0)
(-0.168836 0.0158584 -2.21853e-17)
(-0.170836 0.00304682 0)
(-0.165772 -0.00720437 0)
(-0.151797 -0.00659223 0)
(-0.126314 0.0116109 0)
(-0.0872453 0.0421948 -3.33761e-17)
(-0.0311121 0.0620578 3.40038e-17)
(0.0518961 0.0415362 0)
(0.141879 0.00624578 2.42883e-17)
(0.205725 -0.0269544 4.04379e-17)
(0.263953 -0.0589119 -1.04904e-17)
(0.330985 -0.0870412 -9.48556e-18)
(0.405899 -0.110383 0)
(0.482943 -0.126803 0)
(0.557289 -0.133484 -4.27741e-17)
(0.62656 -0.128999 2.33621e-17)
(0.690464 -0.11419 0)
(0.751454 -0.091571 4.8854e-17)
(0.810343 -0.0653387 -2.36627e-17)
(0.876991 -0.0390352 -2.01477e-17)
(0.931052 -0.0209997 0)
(1.04123 -0.00841152 1.21992e-17)
(0.969334 0.209541 7.15207e-18)
(0.958641 0.191562 7.83737e-18)
(0.95776 0.186538 0)
(0.951739 0.183046 0)
(0.908345 0.172229 0)
(0.808164 0.150511 0)
(0.657215 0.119746 1.42053e-17)
(0.479855 0.084879 -1.87962e-17)
(0.304628 0.0517976 -1.3949e-17)
(0.158269 0.0254813 0)
(0.0546117 0.00790423 -4.75103e-17)
(-0.00226152 0.0017109 9.75175e-17)
(-0.0145325 0.000584734 -1.29552e-16)
(-0.0279125 0.00233189 -1.10154e-16)
(-0.0343261 0.00231604 -9.82633e-17)
(-0.0381978 0.000890251 0)
(-0.0418693 0.00118086 0)
(-0.0453919 0.00170452 0)
(-0.048838 0.000649967 0)
(-0.0517328 -0.000596566 0)
(-0.0546143 -0.000938682 6.68173e-17)
(-0.0580583 -0.0010064 0)
(-0.0618081 -0.00160318 2.98044e-17)
(-0.0652804 -0.00276955 0)
(-0.0681155 -0.00399795 0)
(-0.0702955 -0.00478104 0)
(-0.0719945 -0.00495765 -2.4485e-17)
(-0.0733752 -0.00466911 2.41295e-17)
(-0.0745289 -0.0041454 -2.39382e-17)
(-0.0754996 -0.00357092 0)
(-0.0763146 -0.00304555 2.37452e-17)
(-0.0770045 -0.00259768 -2.36677e-17)
(-0.0776103 -0.0022152 0)
(-0.0781809 -0.00187317 0)
(-0.0787682 -0.00155025 0)
(-0.0794212 -0.0012333 1.17244e-17)
(-0.080185 -0.000914347 -5.84522e-18)
(-0.081103 -0.000586401 0)
(-0.0822198 -0.000242776 0)
(-0.0835745 0.000121835 -7.12961e-19)
(-0.0851795 0.000514362 6.98648e-19)
(-0.0870867 0.000951426 0)
(-0.0893567 0.00146015 0)
(-0.0920504 0.00206778 5.09396e-18)
(-0.0952388 0.00278383 -9.80551e-18)
(-0.0989816 0.00358536 9.40406e-18)
(-0.103299 0.00440642 0)
(-0.108132 0.00514604 0)
(-0.113324 0.00571223 1.65104e-17)
(-0.118623 0.00610824 -1.58923e-17)
(-0.123741 0.00652972 0)
(-0.128399 0.00741926 0)
(-0.132356 0.00944159 0)
(-0.135467 0.0132637 1.36908e-17)
(-0.137632 0.0189116 1.30519e-17)
(-0.138443 0.0249051 0)
(-0.136799 0.0280583 -1.21687e-17)
(-0.131246 0.0250091 1.26239e-17)
(-0.120775 0.0145671 2.90398e-17)
(-0.106304 0.000327478 0)
(-0.0909482 -0.0119068 0)
(-0.0730911 -0.018553 0)
(-0.0457857 -0.0128696 0)
(-0.00155779 0.00581381 6.75185e-17)
(0.0668847 0.0176219 -4.17541e-17)
(0.158477 0.00396687 0)
(0.247762 -0.0224061 -1.32877e-17)
(0.324878 -0.0524293 -8.85898e-18)
(0.398173 -0.0818053 7.47128e-18)
(0.473235 -0.108753 1.45673e-17)
(0.547528 -0.13082 7.6001e-18)
(0.61667 -0.144947 0)
(0.678108 -0.148822 2.74144e-17)
(0.731857 -0.141889 9.79467e-18)
(0.779695 -0.125574 0)
(0.825338 -0.102637 -2.22974e-17)
(0.870495 -0.0771338 0)
(0.924006 -0.052345 -8.49917e-18)
(0.968397 -0.0358275 1.10159e-17)
(1.0612 -0.0246643 -5.77145e-18)
(0.971383 0.212451 -7.34934e-18)
(0.958981 0.194273 4.35857e-18)
(0.951674 0.186527 4.87154e-18)
(0.954313 0.184189 -5.09995e-18)
(0.951023 0.181237 5.17652e-18)
(0.918922 0.172543 0)
(0.844266 0.155545 -5.77263e-18)
(0.728656 0.130889 0)
(0.584822 0.101821 -5.05048e-20)
(0.431763 0.0721745 0)
(0.287577 0.0455284 0)
(0.166677 0.0246774 0)
(0.0787749 0.00999003 4.04753e-17)
(0.0197982 0.00331157 0)
(-0.00255207 0.0020893 1.26794e-16)
(-0.0112595 0.00116884 1.40422e-16)
(-0.0222925 0.00280441 6.00175e-17)
(-0.0295285 0.00360757 0)
(-0.0345939 0.00197507 -4.71936e-17)
(-0.0389269 0.000626329 0)
(-0.0433191 0.0007225 -8.14067e-17)
(-0.0482229 0.00115574 -3.74785e-17)
(-0.0535658 0.00072429 -3.44952e-17)
(-0.0587613 -0.000635445 3.16602e-17)
(-0.0634467 -0.00216736 0)
(-0.0675935 -0.00315702 -2.68048e-17)
(-0.0713747 -0.00342827 5.09274e-17)
(-0.0749051 -0.00319276 0)
(-0.0781965 -0.00273055 0)
(-0.0812204 -0.0022372 0)
(-0.0839658 -0.00180219 -1.12787e-17)
(-0.0864517 -0.00143729 0)
(-0.0887236 -0.0011167 0)
(-0.0908412 -0.000808536 -1.06319e-17)
(-0.0928643 -0.00049141 0)
(-0.0948436 -0.000156777 0)
(-0.0968153 0.000197979 0)
(-0.0987982 0.00057763 0)
(-0.100814 0.000990871 0)
(-0.102886 0.00144466 1.18615e-18)
(-0.105048 0.00194821 -1.15546e-18)
(-0.107301 0.00251897 0)
(-0.109644 0.00318719 0)
(-0.112078 0.0039844 0)
(-0.114608 0.0049168 0)
(-0.117222 0.00594109 0)
(-0.119871 0.00695159 7.83871e-18)
(-0.122445 0.00778992 0)
(-0.124734 0.00830042 0)
(-0.126427 0.00844513 7.45919e-18)
(-0.127117 0.0084349 0)
(-0.126281 0.00876019 0)
(-0.123237 0.010094 0)
(-0.117266 0.0130564 -1.57149e-17)
(-0.107814 0.0175453 -1.61057e-17)
(-0.0944159 0.0219366 -1.69673e-17)
(-0.0763483 0.0232188 2.16029e-20)
(-0.0535973 0.0195984 -2.48386e-17)
(-0.0264563 0.0114634 4.39711e-17)
(0.0046763 0.00135734 -5.69898e-17)
(0.033422 -0.00980841 0)
(0.0627507 -0.0187587 0)
(0.0992481 -0.0225717 0)
(0.150511 -0.0216191 0)
(0.219515 -0.0203217 0)
(0.304782 -0.0298023 0)
(0.392349 -0.0518344 -8.90447e-18)
(0.473087 -0.0794043 0)
(0.547821 -0.106805 0)
(0.617826 -0.131276 1.67177e-19)
(0.680982 -0.150049 -6.44792e-18)
(0.734872 -0.160461 0)
(0.779139 -0.160977 -1.61809e-17)
(0.815708 -0.151696 -9.13919e-18)
(0.847711 -0.134343 0)
(0.879443 -0.111656 9.6144e-18)
(0.912845 -0.0873591 0)
(0.955676 -0.0643833 5.40627e-19)
(0.992203 -0.0493283 -1.09167e-17)
(1.07198 -0.0394735 -2.45568e-18)
(0.972814 0.214632 0)
(0.962627 0.197522 -9.12707e-18)
(0.951189 0.187736 -1.01234e-17)
(0.948304 0.183243 5.26347e-18)
(0.952941 0.181292 -5.27525e-18)
(0.953177 0.178801 0)
(0.933894 0.172415 5.32548e-18)
(0.884663 0.160008 0)
(0.803212 0.14158 6.0084e-18)
(0.695149 0.118745 0)
(0.571037 0.093963 -4.08338e-18)
(0.442903 0.0695545 5.10889e-18)
(0.322169 0.0476955 -6.75636e-18)
(0.216524 0.029961 -9.46705e-18)
(0.132716 0.0167188 -1.41035e-17)
(0.0713067 0.00772132 -4.47913e-17)
(0.029101 0.00379474 -3.64096e-17)
(0.00766747 0.00362891 0)
(-0.000147754 0.00292466 -1.1709e-20)
(-0.00851627 0.00212876 7.59009e-17)
(-0.0173583 0.00306157 0)
(-0.0246181 0.00406897 1.06425e-16)
(-0.0311249 0.0035786 -4.71106e-17)
(-0.0372047 0.00191571 -2.15629e-17)
(-0.0430429 0.000247708 0)
(-0.0488567 -0.000727675 1.78192e-17)
(-0.0545184 -0.000983757 -1.63884e-17)
(-0.0599104 -0.000784831 0)
(-0.0649509 -0.0004239 1.43086e-17)
(-0.0695491 -7.86293e-05 0)
(-0.0736792 0.000193356 -2.57388e-17)
(-0.0773669 0.000407734 0)
(-0.0806704 0.000606913 0)
(-0.0836574 0.000826965 1.15018e-17)
(-0.086387 0.00108401 5.58713e-18)
(-0.0888991 0.00137717 0)
(-0.0912137 0.0017006 0)
(-0.0933458 0.00205698 0)
(-0.0952988 0.00245575 0)
(-0.0970655 0.0028999 -9.19871e-19)
(-0.0986181 0.0033857 9.0107e-19)
(-0.0999022 0.00392059 0)
(-0.10085 0.00453335 0)
(-0.101392 0.00525459 0)
(-0.101457 0.00608108 0)
(-0.100971 0.00694742 -4.52706e-18)
(-0.0998534 0.00771452 -9.0584e-18)
(-0.0980084 0.00818247 0)
(-0.0952877 0.00815374 0)
(-0.0914607 0.00755849 1.94758e-17)
(-0.0862155 0.00658115 0)
(-0.0790673 0.00561417 0)
(-0.0691071 0.00515179 1.26393e-17)
(-0.055194 0.00573567 2.94153e-17)
(-0.0364802 0.0073891 0)
(-0.012829 0.00898757 2.61002e-17)
(0.0162326 0.00843642 -4.49321e-17)
(0.0515948 0.00384331 -2.73927e-17)
(0.0902974 -0.00387267 -1.9455e-17)
(0.129824 -0.0135604 1.35737e-17)
(0.171884 -0.025172 1.04494e-17)
(0.217398 -0.0354162 0)
(0.268523 -0.0415267 -7.74341e-18)
(0.328455 -0.04419 0)
(0.398825 -0.047789 5.64407e-18)
(0.477412 -0.0596688 -4.35071e-18)
(0.556373 -0.0810773 9.69015e-18)
(0.628789 -0.106398 2.78486e-18)
(0.692746 -0.130557 0)
(0.748015 -0.150916 -7.99597e-18)
(0.79357 -0.165271 0)
(0.828897 -0.171645 0)
(0.85534 -0.169098 3.88033e-18)
(0.876001 -0.158113 0)
(0.89459 -0.140476 0)
(0.91534 -0.118714 -5.24998e-19)
(0.93992 -0.0961106 -8.53372e-18)
(0.974993 -0.0752031 7.7993e-18)
(1.00583 -0.0616278 0)
(1.07654 -0.0530132 4.79105e-18)
(0.973494 0.216084 0)
(0.966341 0.200512 4.77828e-18)
(0.955362 0.190159 5.24117e-18)
(0.94753 0.183717 0)
(0.946948 0.179822 2.79141e-18)
(0.951909 0.177609 0)
(0.955412 0.175373 0)
(0.947864 0.170894 0)
(0.921027 0.162529 0)
(0.870878 0.149775 0)
(0.798324 0.133188 3.01846e-18)
(0.708056 0.113981 -3.34297e-18)
(0.606894 0.0938088 1.89686e-18)
(0.502256 0.0740417 4.53075e-18)
(0.400723 0.0558071 5.54293e-18)
(0.307827 0.0401476 3.51475e-18)
(0.226813 0.0275545 0)
(0.160039 0.0179726 0)
(0.108383 0.0110525 1.67665e-17)
(0.0694583 0.00657738 -2.34387e-17)
(0.0414961 0.00456207 0)
(0.0240715 0.00446186 -4.28837e-17)
(0.0142334 0.00475131 8.19416e-17)
(0.00736279 0.00433473 -7.06559e-17)
(0.000401119 0.00336597 0)
(-0.00785744 0.00260657 3.96413e-17)
(-0.0160453 0.00235065 -3.23811e-17)
(-0.0233474 0.00238196 0)
(-0.0296647 0.00244217 -2.39568e-17)
(-0.0350908 0.00242625 0)
(-0.0397281 0.00235226 1.98136e-17)
(-0.0436873 0.00227822 -9.2657e-18)
(-0.0470731 0.00225303 0)
(-0.0499698 0.00229774 0)
(-0.0524332 0.00240715 -8.04247e-18)
(-0.0544894 0.00256287 0)
(-0.0561366 0.00274655 0)
(-0.0573603 0.00295026 1.84946e-18)
(-0.0581485 0.00317442 -9.10139e-19)
(-0.0584715 0.00341061 4.50657e-19)
(-0.0582595 0.00364315 -4.49521e-19)
(-0.0574066 0.00387133 9.04615e-19)
(-0.0557898 0.00412241 -1.83892e-18)
(-0.0532718 0.00443378 0)
(-0.0496934 0.00481201 0)
(-0.0448875 0.0052088 1.26044e-17)
(-0.0387082 0.00551436 0)
(-0.0310482 0.00556288 0)
(-0.0218122 0.00517384 1.29576e-17)
(-0.0108475 0.0042202 -3.50094e-17)
(0.00212039 0.00267199 0)
(0.0174218 0.000608668 -1.37216e-17)
(0.0354004 -0.0017311 -2.89156e-17)
(0.0569549 -0.00397938 0)
(0.0832182 -0.00600497 1.07298e-17)
(0.115534 -0.00852094 1.65688e-17)
(0.153853 -0.0121125 0)
(0.197555 -0.0179179 1.48409e-17)
(0.245241 -0.0265251 0)
(0.295299 -0.0372402 0)
(0.347269 -0.0489358 -5.63818e-18)
(0.400888 -0.0594839 0)
(0.456725 -0.0672336 4.81622e-18)
(0.516279 -0.0727833 0)
(0.580379 -0.0792478 -3.93481e-18)
(0.647196 -0.0910593 4.90212e-18)
(0.711478 -0.109143 -2.64802e-18)
(0.767913 -0.129944 -3.5797e-18)
(0.8143 -0.149436 0)
(0.85056 -0.1651 2.47681e-18)
(0.877005 -0.175092 -2.798e-18)
(0.894647 -0.177966 0)
(0.905871 -0.173202 9.39671e-20)
(0.914201 -0.161454 -3.87448e-18)
(0.923241 -0.144387 -4.15532e-18)
(0.936691 -0.124197 -1.32498e-17)
(0.955661 -0.10369 8.59007e-18)
(0.985807 -0.0850176 0)
(1.01302 -0.0729585 0)
(1.07781 -0.0655082 -3.44459e-18)
(0.973784 0.217058 0)
(0.968874 0.20288 0)
(0.960387 0.192781 0)
(0.951937 0.185617 -7.24181e-19)
(0.946661 0.180063 -2.87644e-18)
(0.9463 0.175986 0)
(0.95051 0.173198 7.11667e-19)
(0.95589 0.170799 0)
(0.956707 0.167489 0)
(0.947002 0.162079 6.82306e-19)
(0.922557 0.153856 0)
(0.881793 0.142737 -7.07844e-19)
(0.82564 0.129208 2.20333e-18)
(0.757034 0.114038 7.95447e-19)
(0.679854 0.0981135 -8.69955e-19)
(0.598381 0.0823738 -9.51518e-19)
(0.516647 0.0675195 0)
(0.438002 0.053939 0)
(0.365112 0.0420399 0)
(0.299659 0.0321086 0)
(0.242478 0.0241271 0)
(0.194093 0.0179071 0)
(0.154492 0.0132196 -6.3138e-18)
(0.122824 0.00982511 5.73495e-18)
(0.0977338 0.00746669 -2.30901e-18)
(0.0778563 0.00591648 0)
(0.0622911 0.00499526 0)
(0.0503591 0.00451085 0)
(0.0413352 0.00426631 -4.34874e-18)
(0.0344628 0.00410243 0)
(0.0291041 0.00393464 0)
(0.0248234 0.00374932 1.1981e-17)
(0.0213799 0.00356845 0)
(0.0186754 0.00341505 0)
(0.0167002 0.00329357 3.70144e-18)
(0.0154757 0.00319215 0)
(0.0150534 0.00308754 0)
(0.0154786 0.00297907 -3.90199e-18)
(0.0166952 0.00289318 9.50714e-19)
(0.0187059 0.00280748 0)
(0.0216297 0.00265857 0)
(0.025614 0.00241919 -7.87891e-19)
(0.0307147 0.00209236 2.83957e-18)
(0.0370706 0.00168588 0)
(0.0449858 0.00119115 0)
(0.0547651 0.000573899 -3.749e-18)
(0.0666936 -0.000236673 0)
(0.0810203 -0.00135424 0)
(0.0979311 -0.00291408 -4.73008e-18)
(0.117586 -0.00501782 0)
(0.14015 -0.00774566 0)
(0.165803 -0.0111428 2.92808e-18)
(0.194669 -0.0150646 2.52824e-18)
(0.226971 -0.0192584 0)
(0.263064 -0.0236377 -4.83417e-18)
(0.303299 -0.028551 -3.38666e-18)
(0.34756 -0.0345733 -7.41032e-19)
(0.395207 -0.0423809 -2.57145e-18)
(0.445089 -0.0521951 0)
(0.495832 -0.0633388 0)
(0.546372 -0.0747561 0)
(0.596044 -0.0850152 0)
(0.644982 -0.093017 8.76331e-19)
(0.694066 -0.0991993 -8.39284e-19)
(0.743795 -0.105801 -7.80252e-19)
(0.792812 -0.115822 -1.37266e-18)
(0.837523 -0.130177 6.28733e-19)
(0.874188 -0.146546 1.7048e-18)
(0.901261 -0.161627 -5.92338e-19)
(0.919212 -0.17311 6.28523e-19)
(0.929298 -0.179537 2.72714e-18)
(0.933379 -0.17994 0)
(0.934151 -0.174067 3.51213e-18)
(0.934904 -0.162557 3.90975e-18)