/*--------------------------------*- C++ -*----------------------------------*\
| =========                 |                                                 |
| \\      /  F ield         | OpenFOAM: The Open Source CFD Toolbox           |
|  \\    /   O peration     | Version:  v1912                                 |
|   \\  /    A nd           | Website:  www.openfoam.com                      |
|    \\/     M anipulation  |                                                 |
\*---------------------------------------------------------------------------*/
FoamFile
{
    version     2.0;
    format      ascii;
    class       volScalarField;
    location    "900";
    object      p;
}
// * * * * * * * * * * * * * * * * * * * * * * * * * * * * * * * * * * * * * //

dimensions      [0 2 -2 0 0 0 0];


internalField   nonuniform List<scalar> 
2000
(
-0.0459866
0.0714247
0.126005
0.119117
0.103288
0.0969832
0.096378
0.0977267
0.0979441
0.0977228
0.0978629
0.0975397
0.0972822
0.0972264
0.0972842
0.0973058
0.0972627
0.0972412
0.0972356
0.0972392
0.0972429
0.0972363
0.0972148
0.0971801
0.0971387
0.0970969
0.0970602
0.0970297
0.0970034
0.0969784
0.0969528
0.0969259
0.0968976
0.0968682
0.0968377
0.096807
0.0967765
0.0967468
0.096718
0.0966905
0.0966646
0.0966407
0.0966195
0.0966013
0.0965867
0.0965757
0.0965684
0.0965657
0.0965691
0.0965782
0.0965831
0.0965412
0.096334
0.0957194
0.0943366
0.0917974
0.0878155
0.0823448
0.0758565
0.0697794
0.0662173
0.0662745
0.0709335
0.079775
0.0918244
0.106069
0.121661
0.137812
0.153617
0.168004
0.179938
0.188554
0.193017
0.192518
0.186261
0.173574
0.153325
0.125309
0.0838166
0.0415337
0.00726056
0.092437
0.131255
0.11806
0.100318
0.0961204
0.0996619
0.102102
0.0993476
0.0961038
0.0956663
0.0969665
0.0974145
0.0972825
0.0975068
0.0974085
0.0972846
0.097182
0.0971473
0.097136
0.0971538
0.0971939
0.0972008
0.0971771
0.0971418
0.0971044
0.0970693
0.0970382
0.0970119
0.0969872
0.0969595
0.0969305
0.096901
0.0968713
0.0968412
0.0968106
0.0967805
0.0967519
0.0967246
0.0966985
0.096674
0.0966518
0.0966321
0.0966151
0.0966002
0.0965872
0.0965764
0.0965711
0.0965845
0.0966396
0.0967395
0.0967966
0.0965306
0.0953847
0.0925902
0.0874887
0.0799323
0.0705292
0.0609185
0.0542004
0.053934
0.0592753
0.0677568
0.0786594
0.0915012
0.105917
0.121339
0.137007
0.15202
0.165382
0.176092
0.18318
0.185747
0.183061
0.174452
0.159378
0.136925
0.107256
0.0663769
0.0294316
0.0583284
0.0921264
0.114818
0.113261
0.104062
0.0998874
0.0999257
0.0992883
0.0973824
0.0966977
0.0982878
0.0998863
0.098906
0.0964465
0.0955524
0.0964262
0.0973108
0.0974864
0.097327
0.097222
0.0971635
0.0971268
0.0971078
0.0971197
0.0971272
0.0971161
0.0970857
0.0970412
0.0970059
0.0969719
0.0969463
0.0969229
0.0968995
0.0968769
0.0968547
0.0968308
0.096804
0.0967756
0.0967472
0.0967208
0.0966982
0.0966803
0.0966663
0.096653
0.0966418
0.0966483
0.0967043
0.0968414
0.0970882
0.0974541
0.0978793
0.0981422
0.0978302
0.0963289
0.0929713
0.0873502
0.0797028
0.0712412
0.0640103
0.0595775
0.0586227
0.0621371
0.0694666
0.079477
0.0913846
0.104718
0.118905
0.133136
0.146467
0.157921
0.166557
0.171523
0.172109
0.167754
0.157977
0.142435
0.120535
0.0928052
0.0565319
0.0249901
0.0833156
0.0933294
0.105879
0.109959
0.107266
0.104247
0.102586
0.100854
0.0992318
0.0984146
0.0982277
0.0981301
0.0977855
0.0970907
0.0965664
0.0975105
0.0987643
0.0980262
0.0968677
0.0964656
0.0964148
0.0965878
0.0968758
0.0970995
0.0972287
0.0973064
0.0973494
0.0973254
0.0972408
0.0971425
0.0970484
0.0969688
0.0969107
0.0968801
0.0968629
0.0968451
0.0968192
0.0967919
0.0967665
0.0967444
0.0967285
0.0967205
0.0967173
0.0967124
0.0967072
0.0967307
0.0968418
0.0970697
0.0974533
0.0979877
0.0986327
0.0990355
0.0988164
0.097444
0.094421
0.0895298
0.0830566
0.0758117
0.0689679
0.0644046
0.0632169
0.0660844
0.0725921
0.081711
0.0925985
0.104644
0.117188
0.12942
0.14047
0.149501
0.155758
0.158593
0.15747
0.151968
0.141729
0.126526
0.105966
0.0806553
0.0487092
0.0207986
0.0956562
0.0992567
0.106777
0.110747
0.109618
0.107289
0.105908
0.104869
0.103567
0.102116
0.100765
0.099677
0.0989503
0.0981128
0.0971502
0.0971795
0.0977337
0.0979481
0.0977993
0.0973478
0.0970074
0.0968933
0.0969507
0.0971298
0.0973208
0.0974333
0.09739
0.0972067
0.097077
0.0969785
0.0969039
0.0968514
0.0968195
0.0968248
0.0968511
0.0968701
0.096873
0.0968553
0.0968238
0.0967899
0.0967603
0.0967374
0.0967171
0.0966856
0.0966311
0.0965636
0.0965533
0.096739
0.0971126
0.0976459
0.0982376
0.0986197
0.0983945
0.0970856
0.0942901
0.0898821
0.0841788
0.0780009
0.0725944
0.0693711
0.0691564
0.0721629
0.0780295
0.0860323
0.0954411
0.105621
0.11594
0.125711
0.134237
0.140864
0.145011
0.146174
0.143926
0.137916
0.127832
0.113485
0.0945569
0.0716309
0.0432167
0.0181786
0.104097
0.105931
0.109885
0.112055
0.11124
0.109632
0.108674
0.107998
0.107039
0.105848
0.104719
0.103729
0.102717
0.101395
0.10002
0.0993124
0.0991823
0.0990525
0.0984872
0.0976029
0.0969864
0.0967823
0.0968703
0.0970764
0.0972451
0.097337
0.0973751
0.0973671
0.0972873
0.0971796
0.0970738
0.0969836
0.0969157
0.0968843
0.0968431
0.0967957
0.0967555
0.0967295
0.0967023
0.0966782
0.0966665
0.0966701
0.096686
0.0967076
0.0967344
0.096789
0.0969296
0.0972238
0.0976619
0.0981863
0.0986745
0.0988934
0.0985187
0.0972218
0.0947856
0.0912355
0.0869291
0.0825551
0.078999
0.0771215
0.0774705
0.0801852
0.0850432
0.0915531
0.0991292
0.10721
0.115256
0.122721
0.129058
0.133748
0.13632
0.136347
0.133449
0.127293
0.117572
0.104089
0.0865397
0.0654544
0.0394854
0.0165404
0.110908
0.111731
0.112969
0.113306
0.11252
0.111535
0.110876
0.110337
0.109669
0.108913
0.108189
0.107469
0.10661
0.105502
0.104335
0.103481
0.102967
0.102369
0.1014
0.1003
0.0994848
0.0990446
0.0988536
0.0987616
0.0986739
0.0985699
0.0984487
0.0982844
0.0980674
0.0978541
0.0976768
0.0975366
0.0974247
0.0973674
0.0975168
0.0975895
0.0975886
0.0975986
0.0976332
0.0976872
0.0977633
0.0978651
0.097992
0.098141
0.0983146
0.0985285
0.0988129
0.0991963
0.0996661
0.100159
0.100556
0.100678
0.1003
0.099223
0.0973429
0.0947315
0.0916787
0.0886747
0.0863204
0.0851927
0.0856876
0.0879212
0.091741
0.0967969
0.102649
0.108852
0.114973
0.120576
0.125218
0.128468
0.129913
0.129168
0.12587
0.119691
0.110315
0.0975295
0.0810198
0.0612613
0.0369451
0.0155019
0.116785
0.11673
0.115815
0.114607
0.113783
0.113266
0.11279
0.112319
0.111876
0.111439
0.110987
0.11049
0.109891
0.10915
0.108344
0.107652
0.107111
0.106483
0.105616
0.104662
0.103862
0.103293
0.102894
0.10258
0.102301
0.102037
0.101776
0.101503
0.101226
0.10098
0.100784
0.100641
0.100554
0.100551
0.100645
0.100704
0.100727
0.10077
0.100852
0.100964
0.101104
0.101272
0.101468
0.101688
0.101935
0.102213
0.102537
0.102912
0.103318
0.103696
0.103948
0.103945
0.103543
0.10262
0.101133
0.0991608
0.0969229
0.0947695
0.0931194
0.0923703
0.0928005
0.0945015
0.0973783
0.101194
0.105633
0.110349
0.11499
0.11919
0.122574
0.124763
0.125387
0.124086
0.120512
0.114339
0.105246
0.0930009
0.0772656
0.0584573
0.0352777
0.0148261
0.122189
0.1212
0.118236
0.115692
0.114937
0.114848
0.114514
0.114106
0.113841
0.113623
0.113354
0.113028
0.112639
0.112161
0.111624
0.111133
0.11072
0.110247
0.109613
0.108893
0.108242
0.107736
0.107351
0.107035
0.106751
0.106478
0.106209
0.10594
0.105679
0.105444
0.10525
0.105106
0.105018
0.104991
0.104995
0.105037
0.105088
0.105152
0.105242
0.105359
0.1055
0.105662
0.105845
0.106047
0.106265
0.106502
0.10676
0.107034
0.107302
0.107516
0.107602
0.107469
0.107022
0.106189
0.104953
0.103383
0.101646
0.0999936
0.098726
0.0981284
0.0984078
0.099646
0.10179
0.104676
0.108064
0.111676
0.115212
0.11836
0.120791
0.122172
0.122166
0.12044
0.116662
0.11051
0.101657
0.0898474
0.0747102
0.0565992
0.0342137
0.0143703
0.127419
0.125232
0.120037
0.116394
0.11593
0.116257
0.116028
0.115705
0.11562
0.115588
0.115466
0.115274
0.115032
0.114721
0.11436
0.114021
0.11373
0.113396
0.112944
0.112419
0.111933
0.11155
0.111261
0.111022
0.110804
0.110589
0.110375
0.110161
0.109953
0.109763
0.109604
0.109486
0.109415
0.109388
0.109344
0.109373
0.109423
0.109476
0.109542
0.109628
0.109732
0.109852
0.109984
0.110127
0.11028
0.110439
0.110604
0.110765
0.110902
0.110976
0.110931
0.110703
0.110224
0.10945
0.108377
0.107062
0.105635
0.104285
0.103237
0.102705
0.102852
0.103745
0.105354
0.107553
0.110153
0.11292
0.115602
0.117925
0.119604
0.120342
0.119837
0.117779
0.113854
0.107745
0.0991129
0.0876778
0.0730243
0.0554408
0.0335962
0.0141013
0.132658
0.128808
0.121115
0.116725
0.116816
0.117508
0.117336
0.117122
0.117225
0.117362
0.117373
0.117302
0.11718
0.116995
0.11676
0.11653
0.116325
0.116083
0.115751
0.115361
0.114999
0.114715
0.114503
0.11433
0.114171
0.114014
0.113856
0.113698
0.113543
0.1134
0.11328
0.113189
0.113129
0.113088
0.113054
0.113069
0.113103
0.113139
0.113183
0.113241
0.113312
0.113393
0.113482
0.113575
0.113671
0.113767
0.113857
0.113933
0.113975
0.113953
0.113822
0.113535
0.113044
0.11232
0.111365
0.110229
0.109015
0.10787
0.106968
0.106475
0.106517
0.107151
0.108352
0.110022
0.112004
0.114103
0.116099
0.117757
0.118826
0.119045
0.118139
0.115826
0.111804
0.10576
0.0973435
0.0862455
0.0719975
0.0548244
0.0333134
0.0140189
0.138024
0.131855
0.121441
0.116782
0.117649
0.118612
0.118462
0.118385
0.118672
0.118953
0.119083
0.119124
0.119114
0.11904
0.118912
0.118773
0.118639
0.118468
0.118222
0.117929
0.117653
0.117436
0.117275
0.117147
0.11703
0.116914
0.116797
0.116679
0.116563
0.116455
0.116363
0.116292
0.116244
0.116208
0.116188
0.116194
0.116218
0.116245
0.116276
0.116317
0.116366
0.11642
0.116477
0.116534
0.116588
0.116636
0.116672
0.116686
0.116661
0.116572
0.116384
0.116062
0.115569
0.114888
0.114024
0.113021
0.111962
0.110964
0.110164
0.109692
0.109647
0.110074
0.110951
0.112197
0.113679
0.115232
0.116666
0.117776
0.118345
0.11814
0.116917
0.114412
0.110338
0.104381
0.0961766
0.0853882
0.0714882
0.0546443
0.033291
0.0141377
0.143597
0.134269
0.121049
0.116686
0.118449
0.119566
0.119432
0.11952
0.119976
0.120377
0.12061
0.120754
0.120844
0.120869
0.120836
0.12078
0.120714
0.120609
0.120437
0.120222
0.120015
0.119851
0.119732
0.119638
0.119553
0.119468
0.119382
0.119293
0.119206
0.119124
0.119053
0.118997
0.118956
0.118936
0.118923
0.118925
0.118941
0.118962
0.118984
0.119011
0.119042
0.119076
0.119108
0.119136
0.119158
0.119168
0.119162
0.119128
0.119053
0.118915
0.118687
0.11834
0.11785
0.117205
0.116412
0.115509
0.114566
0.113675
0.112947
0.112483
0.112362
0.112616
0.113225
0.11412
0.115189
0.116288
0.117256
0.117916
0.118076
0.117534
0.116067
0.113429
0.10934
0.103485
0.0954865
0.0849814
0.0713823
0.0548121
0.0334725
0.0144618
0.149416
0.135931
0.120036
0.116554
0.119215
0.120374
0.120279
0.120548
0.12115
0.121651
0.121976
0.122212
0.12239
0.122501
0.122552
0.122571
0.122569
0.122525
0.12242
0.122273
0.122126
0.12201
0.121928
0.121866
0.121809
0.121752
0.121691
0.121628
0.121565
0.121504
0.121451
0.121409
0.12138
0.121365
0.121355
0.121356
0.121367
0.121382
0.121396
0.121412
0.121429
0.121445
0.121456
0.121461
0.121455
0.121435
0.121393
0.12132
0.121205
0.121027
0.120767
0.120402
0.119914
0.119295
0.118556
0.117728
0.116869
0.116056
0.115374
0.114905
0.11471
0.114811
0.115192
0.115791
0.116514
0.117238
0.117824
0.118121
0.11796
0.11716
0.115516
0.112794
0.108719
0.102974
0.0951664
0.0849149
0.0715749
0.0552428
0.033809
0.0149727
0.15549
0.136734
0.118549
0.116475
0.119929
0.121048
0.12103
0.121483
0.122208
0.122792
0.1232
0.123519
0.123774
0.123959
0.124083
0.124168
0.124225
0.124237
0.12419
0.124102
0.124008
0.123936
0.123889
0.123856
0.123826
0.123794
0.123756
0.123716
0.123674
0.123633
0.123595
0.123564
0.123544
0.123534
0.123528
0.123529
0.123536
0.123545
0.123553
0.123559
0.123563
0.123564
0.123558
0.123542
0.123512
0.123464
0.123391
0.123285
0.123133
0.122921
0.122632
0.122248
0.121757
0.121155
0.120451
0.119674
0.118871
0.118105
0.117445
0.116956
0.116684
0.116648
0.116831
0.117181
0.11762
0.118042
0.118328
0.118345
0.117944
0.116958
0.115196
0.11243
0.108389
0.102751
0.0951152
0.0850847
0.0719653
0.0558512
0.0342561
0.0156262
0.161797
0.136601
0.116764
0.1165
0.120567
0.121608
0.121708
0.122335
0.12316
0.123815
0.124299
0.12469
0.125013
0.125264
0.125451
0.125596
0.125705
0.125766
0.125771
0.125735
0.125688
0.125654
0.125638
0.125632
0.125626
0.125617
0.125601
0.12558
0.125558
0.125533
0.125508
0.125489
0.125477
0.125471
0.125468
0.125468
0.125472
0.125476
0.125476
0.125473
0.125465
0.12545
0.125426
0.125389
0.125336
0.12526
0.125156
0.125016
0.124828
0.124581
0.124261
0.123854
0.12335
0.12275
0.122062
0.121312
0.120538
0.119793
0.119132
0.118608
0.118259
0.1181
0.118118
0.118268
0.118484
0.118676
0.118739
0.118554
0.117986
0.116877
0.115044
0.112264
0.108267
0.102729
0.0952406
0.0853987
0.0724649
0.0565577
0.034776
0.0163678
0.168287
0.135522
0.114861
0.116637
0.121109
0.122077
0.12233
0.123111
0.124015
0.124734
0.125285
0.125741
0.126124
0.126433
0.126676
0.126872
0.127028
0.127134
0.127184
0.127192
0.127186
0.127185
0.127197
0.127214
0.12723
0.12724
0.127242
0.127238
0.127232
0.127221
0.127207
0.127196
0.127189
0.127186
0.127182
0.12718
0.127177
0.127172
0.127162
0.127145
0.127121
0.127087
0.127041
0.126978
0.126896
0.126789
0.12665
0.126472
0.126246
0.12596
0.125604
0.125168
0.124644
0.124033
0.123345
0.122601
0.121835
0.121091
0.120414
0.11985
0.119432
0.119172
0.11906
0.11906
0.119113
0.119142
0.119051
0.118732
0.118055
0.116872
0.115003
0.112229
0.108279
0.10283
0.0954665
0.0857836
0.0730052
0.0572964
0.0353351
0.0171471
0.174875
0.133519
0.112999
0.11687
0.121549
0.12248
0.122903
0.123813
0.12478
0.125555
0.126166
0.126678
0.127112
0.12747
0.127761
0.128002
0.128198
0.128342
0.12843
0.128476
0.128502
0.12853
0.128563
0.128599
0.128631
0.128656
0.12867
0.128678
0.128684
0.128679
0.128669
0.128661
0.128653
0.128645
0.128635
0.128623
0.128608
0.128587
0.12856
0.128523
0.128476
0.128417
0.128342
0.12825
0.128135
0.127993
0.127818
0.127601
0.127337
0.127013
0.126622
0.126156
0.125608
0.124982
0.124285
0.123537
0.122768
0.122014
0.121318
0.120717
0.120243
0.119907
0.119702
0.119598
0.119541
0.119462
0.119273
0.11887
0.118131
0.116909
0.115028
0.112271
0.108369
0.102997
0.0957373
0.086188
0.0735395
0.0580186
0.0359045
0.017924
0.181469
0.13069
0.111291
0.117154
0.121888
0.122831
0.123425
0.124434
0.125449
0.12627
0.126929
0.127484
0.127958
0.128354
0.128682
0.128957
0.129184
0.129357
0.129473
0.129546
0.129596
0.129642
0.12969
0.129737
0.129778
0.12981
0.129831
0.129845
0.129849
0.129841
0.12983
0.129816
0.1298
0.129781
0.129758
0.12973
0.129697
0.129657
0.129608
0.129548
0.129476
0.129391
0.129289
0.129167
0.129022
0.128849
0.128641
0.128393
0.128096
0.127742
0.127323
0.126832
0.126265
0.125624
0.124917
0.124163
0.123387
0.122623
0.121909
0.121281
0.120767
0.120379
0.120113
0.11994
0.119815
0.119671
0.119424
0.118974
0.118202
0.116964
0.115087
0.112353
0.108494
0.103189
0.0960166
0.0865795
0.0740395
0.0586936
0.0364627
0.0186712
0.187978
0.127164
0.109806
0.117443
0.122133
0.123127
0.12387
0.124946
0.125989
0.126841
0.127531
0.128115
0.128614
0.129034
0.129385
0.129682
0.129929
0.130119
0.130252
0.130342
0.130406
0.130462
0.130516
0.130566
0.13061
0.130643
0.130664
0.130675
0.13067
0.130658
0.130641
0.130619
0.130591
0.130559
0.130522
0.130479
0.130429
0.130371
0.130303
0.130224
0.130132
0.130025
0.129901
0.129758
0.12959
0.129394
0.129164
0.128893
0.128574
0.1282
0.127762
0.127255
0.126675
0.126024
0.125311
0.124551
0.123769
0.122997
0.122271
0.121624
0.121084
0.120663
0.120359
0.120146
0.11998
0.119799
0.11952
0.119048
0.118263
0.117024
0.115157
0.112449
0.108631
0.103383
0.0962832
0.0869402
0.074492
0.0593048
0.0369956
0.0193739
0.194323
0.123101
0.108584
0.117696
0.122295
0.12335
0.124198
0.125307
0.126363
0.12723
0.127937
0.128535
0.129047
0.12948
0.129844
0.130152
0.130409
0.130607
0.13075
0.130847
0.130918
0.130977
0.131033
0.131084
0.131127
0.131158
0.131177
0.13118
0.131172
0.131155
0.131132
0.131102
0.131065
0.131024
0.130976
0.130922
0.13086
0.13079
0.130709
0.130617
0.130512
0.130392
0.130254
0.130097
0.129916
0.129706
0.129463
0.129179
0.128847
0.128461
0.128013
0.127497
0.126911
0.126255
0.125538
0.124775
0.12399
0.123213
0.122478
0.12182
0.121263
0.120823
0.120497
0.120261
0.120073
0.119873
0.11958
0.119099
0.118313
0.11708
0.115229
0.112546
0.108764
0.103565
0.0965266
0.087263
0.0748929
0.0598467
0.0374948
0.0200275
0.200506
0.118767
0.107652
0.117889
0.122378
0.123482
0.124391
0.125513
0.126572
0.127446
0.128161
0.128766
0.129284
0.129723
0.130092
0.130406
0.130667
0.13087
0.131016
0.131117
0.131191
0.131252
0.131308
0.131358
0.1314
0.131429
0.131445
0.131447
0.131436
0.131415
0.131387
0.131352
0.131311
0.131264
0.131211
0.13115
0.131082
0.131005
0.130917
0.130818
0.130706
0.130578
0.130434
0.13027
0.130082
0.129865
0.129615
0.129325
0.128988
0.128597
0.128144
0.127625
0.127036
0.126378
0.12566
0.124896
0.124109
0.123329
0.122589
0.121923
0.121358
0.120906
0.120568
0.12032
0.120122
0.119913
0.119616
0.119134
0.118352
0.11713
0.115295
0.112636
0.108887
0.10373
0.0967439
0.0875479
0.0752455
0.0603214
0.0379572
0.0206361
0.20667
0.114679
0.107017
0.118006
0.122396
0.12353
0.12447
0.125598
0.12666
0.127538
0.128256
0.128864
0.129385
0.129827
0.130199
0.130515
0.130778
0.130983
0.131131
0.131234
0.131309
0.13137
0.131427
0.131477
0.131517
0.131546
0.13156
0.131563
0.13155
0.131528
0.131498
0.131461
0.131417
0.131368
0.131312
0.131248
0.131177
0.131097
0.131007
0.130905
0.130789
0.130659
0.130512
0.130345
0.130154
0.129935
0.129683
0.12939
0.129051
0.128658
0.128205
0.127685
0.127095
0.126438
0.125719
0.124955
0.124168
0.123386
0.122644
0.121974
0.121402
0.120945
0.1206
0.120346
0.120144
0.119933
0.119636
0.119158
0.118384
0.117173
0.115356
0.112719
0.109
0.10388
0.0969399
0.0878026
0.0755606
0.0607419
0.0383889
0.0212187
0.212767
0.111473
0.106621
0.118055
0.122376
0.123524
0.124477
0.125613
0.126678
0.127558
0.128278
0.128888
0.129411
0.129854
0.130228
0.130545
0.13081
0.131015
0.131164
0.131268
0.131343
0.131405
0.131461
0.131511
0.131551
0.13158
0.131595
0.131597
0.131584
0.131562
0.131531
0.131494
0.13145
0.1314
0.131343
0.131279
0.131207
0.131126
0.131035
0.130932
0.130816
0.130685
0.130537
0.13037
0.130178
0.129959
0.129706
0.129414
0.129075
0.128682
0.128229
0.127709
0.127121
0.126464
0.125747
0.124983
0.124195
0.123413
0.122669
0.121996
0.121421
0.120961
0.120612
0.120356
0.120153
0.119942
0.119649
0.119176
0.118411
0.117213
0.115412
0.112798
0.109106
0.104022
0.0971237
0.0880402
0.0758547
0.0611306
0.0388015
0.0218087
0.217494
0.109531
0.106395
0.118082
0.122353
0.123499
0.124462
0.125603
0.126671
0.127553
0.128274
0.128885
0.129408
0.129852
0.130226
0.130544
0.130809
0.131015
0.131164
0.131268
0.131343
0.131406
0.131462
0.131512
0.131553
0.131582
0.131597
0.131599
0.131586
0.131564
0.131533
0.131496
0.131452
0.131402
0.131345
0.131281
0.131209
0.131129
0.131038
0.130935
0.130819
0.130689
0.130541
0.130374
0.130183
0.129964
0.129711
0.129419
0.129081
0.128689
0.128237
0.127719
0.127131
0.126476
0.125759
0.124996
0.124209
0.123426
0.122681
0.122006
0.12143
0.120966
0.120616
0.120359
0.120155
0.119947
0.119656
0.11919
0.118433
0.117247
0.115462
0.112867
0.1092
0.104147
0.0972862
0.0882499
0.0761132
0.0614735
0.0391605
0.0223705
)
;

boundaryField
{
    inlet
    {
        type            zeroGradient;
    }
    outlet
    {
        type            fixedValue;
        value           uniform 0;
    }
    fixedWalls
    {
        type            zeroGradient;
    }
    frontAndBack
    {
        type            empty;
    }
}


// ************************************************************************* //
