/*--------------------------------*- C++ -*----------------------------------*\
| =========                 |                                                 |
| \\      /  F ield         | OpenFOAM: The Open Source CFD Toolbox           |
|  \\    /   O peration     | Version:  v1912                                 |
|   \\  /    A nd           | Website:  www.openfoam.com                      |
|    \\/     M anipulation  |                                                 |
\*---------------------------------------------------------------------------*/
FoamFile
{
    version     2.0;
    format      ascii;
    class       surfaceScalarField;
    location    "900";
    object      phi;
}
// * * * * * * * * * * * * * * * * * * * * * * * * * * * * * * * * * * * * * //

dimensions      [0 3 -1 0 0 0 0];
oriented        oriented;


internalField   nonuniform List<scalar> 
3895
(
0.000814746
0.00038143
0.000499361
0.000315385
0.000251565
0.000247796
6.4863e-05
0.000186702
-6.21962e-05
0.000127059
-0.000127327
6.51304e-05
-0.000137639
1.0312e-05
-0.000113632
-2.40064e-05
-9.03514e-05
-2.32809e-05
-8.49475e-05
-5.4039e-06
-6.61299e-05
-1.88176e-05
-4.4746e-05
-2.13839e-05
-4.0465e-05
-4.28104e-06
-4.86704e-05
8.20537e-06
-4.57111e-05
-2.95926e-06
-3.20512e-05
-1.366e-05
-2.51391e-05
-6.91205e-06
-2.59213e-05
7.8219e-07
-2.89427e-05
3.02135e-06
-3.04866e-05
1.54396e-06
-2.91857e-05
-1.3009e-06
-2.4901e-05
-4.28473e-06
-1.85819e-05
-6.31904e-06
-1.19792e-05
-6.60276e-06
-6.20592e-06
-5.77326e-06
-1.90391e-06
-4.30201e-06
8.39467e-07
-2.74338e-06
2.45009e-06
-1.61063e-06
3.5083e-06
-1.05821e-06
4.42187e-06
-9.1357e-07
5.3172e-06
-8.95327e-07
6.16836e-06
-8.5116e-07
6.95539e-06
-7.87031e-07
7.64199e-06
-6.86607e-07
8.15475e-06
-5.12759e-07
8.42755e-06
-2.72793e-07
8.40406e-06
2.34882e-08
8.00419e-06
3.9986e-07
7.23539e-06
7.68799e-07
6.05664e-06
1.17875e-06
4.38929e-06
1.66736e-06
2.12531e-06
2.26397e-06
-8.59783e-07
2.98509e-06
-4.69183e-06
3.83204e-06
-9.48827e-06
4.79644e-06
-1.53987e-05
5.9104e-06
-2.27517e-05
7.35297e-06
-3.22481e-05
9.49641e-06
-4.52094e-05
1.29613e-05
-6.37844e-05
1.8575e-05
-9.08743e-05
2.70899e-05
-0.000129512
3.86382e-05
-0.000182024
5.25119e-05
-0.000249336
6.73115e-05
-0.000330101
8.07656e-05
-0.000419873
8.97713e-05
-0.000511301
9.14286e-05
-0.000595479
8.41773e-05
-0.000663528
6.80494e-05
-0.000706696
4.31673e-05
-0.00071405
7.35464e-06
-0.000696131
-1.79188e-05
-0.00065723
-3.89017e-05
-0.000600947
-5.62828e-05
-0.000531209
-6.97374e-05
-0.000451077
-8.01327e-05
-0.000362543
-8.85333e-05
-0.000267153
-9.53904e-05
-0.000166503
-0.00010065
-6.22758e-05
-0.000104227
4.35782e-05
-0.000105854
0.000149107
-0.000105529
0.000252746
-0.000103639
0.000353142
-0.000100396
0.000449407
-9.6265e-05
0.000541459
-9.20526e-05
0.000629544
-8.80843e-05
0.000716783
-8.72397e-05
0.00080352
-8.67369e-05
-0.000107515
0.00108795
0.000349294
0.00104738
0.000355946
0.000933278
0.000361903
0.000775747
0.000344233
0.000598431
0.000304375
0.000410383
0.000253178
0.000221248
0.000199447
5.3877e-05
0.000143365
-6.04247e-05
9.10208e-05
-0.000110188
4.43598e-05
-0.000131882
2.87639e-06
-0.000123968
-2.92982e-05
-0.000105671
-2.2578e-05
-0.000107783
1.03175e-05
-0.000103375
-7.36771e-06
-9.07478e-05
-2.62868e-05
-7.67534e-05
-2.09064e-05
-7.88637e-05
2.89242e-06
-8.71295e-05
1.12872e-05
-9.26296e-05
7.04402e-06
-9.45845e-05
6.5401e-07
-9.09589e-05
-7.91032e-06
-8.48061e-05
-1.24718e-05
-7.8069e-05
-1.33398e-05
-7.15066e-05
-1.23357e-05
-6.58489e-05
-9.9597e-06
-6.1714e-05
-6.87834e-06
-5.95606e-05
-3.76402e-06
-5.92654e-05
-1.3534e-06
-6.03207e-05
1.41745e-07
-6.25423e-05
1.32628e-06
-6.52427e-05
1.84918e-06
-6.81155e-05
2.08578e-06
-7.10824e-05
2.28032e-06
-7.42743e-05
2.67907e-06
-7.78409e-05
3.29385e-06
-8.18944e-05
4.07701e-06
-8.64804e-05
4.98585e-06
-9.1704e-05
5.99239e-06
-9.76066e-05
7.08133e-06
-0.000104193
8.25331e-06
-0.000111451
9.52272e-06
-0.000119366
1.08997e-05
-0.000127901
1.23667e-05
-0.000136979
1.38747e-05
-0.000146479
1.54102e-05
-0.0001563
1.71745e-05
-0.000166454
1.96507e-05
-0.000177072
2.35793e-05
-0.000188303
2.98059e-05
-0.00020037
3.9157e-05
-0.000213601
5.18685e-05
-0.000228022
6.69326e-05
-0.000242772
8.20618e-05
-0.000255656
9.36499e-05
-0.000262802
9.69172e-05
-0.000259395
8.80212e-05
-0.00024131
6.60924e-05
-0.000207312
3.40516e-05
-0.000166333
2.18843e-06
-0.000119691
-3.92871e-05
-6.7661e-05
-6.9949e-05
-1.30413e-05
-9.35214e-05
4.32235e-05
-0.000112548
0.000102723
-0.000129237
0.000166656
-0.000144066
0.000234918
-0.000156796
0.000306484
-0.000166956
0.000379836
-0.000174002
0.000453214
-0.000177605
0.000525096
-0.000177737
0.00059425
-0.000174683
0.000659607
-0.000168995
0.000720593
-0.000161382
0.000777044
-0.000152716
0.000829061
-0.00014407
0.000877503
-0.000136527
0.000922396
-0.000132132
0.000966454
-0.000130796
-0.000142121
0.000975282
0.000305926
0.00102604
0.000305187
0.00106097
0.000326974
0.00105862
0.000346584
0.00101217
0.00035082
0.000925048
0.000340304
0.000805752
0.000318743
0.000661765
0.000287352
0.000504928
0.000247857
0.000345843
0.000203445
0.000190168
0.000158552
4.70571e-05
0.000113812
-4.98375e-05
7.43166e-05
-8.5985e-05
4.64649e-05
-0.00010587
1.25174e-05
-0.000113875
-1.82822e-05
-0.000101871
-3.29101e-05
-9.15495e-05
-7.42896e-06
-9.90003e-05
1.8738e-05
-0.000108457
1.65003e-05
-0.000114963
7.16028e-06
-0.0001196
-3.27299e-06
-0.000121681
-1.03907e-05
-0.000120591
-1.443e-05
-0.000118974
-1.39528e-05
-0.000118716
-1.02182e-05
-0.000120412
-5.18155e-06
-0.000124235
5.83159e-08
-0.000128313
2.72473e-06
-0.000132822
4.65103e-06
-0.000137341
5.84552e-06
-0.000141919
6.4267e-06
-0.000146436
6.60327e-06
-0.000150804
6.64819e-06
-0.000155087
6.96196e-06
-0.000159448
7.65441e-06
-0.000163984
8.61296e-06
-0.000168674
9.67649e-06
-0.000173441
1.07595e-05
-0.000178197
1.18369e-05
-0.000182843
1.28992e-05
-0.000187273
1.39532e-05
-0.000191368
1.49942e-05
-0.000194933
1.59319e-05
-0.000197612
1.65536e-05
-0.000198754
1.65525e-05
-0.000197341
1.57609e-05
-0.000192401
1.4711e-05
-0.000182944
1.41219e-05
-0.000167905
1.47671e-05
-0.000145906
1.71579e-05
-0.000116228
2.21913e-05
-7.8026e-05
2.87301e-05
-3.06854e-05
3.47212e-05
2.55057e-05
3.74588e-05
8.79891e-05
3.44338e-05
0.000152236
2.37739e-05
0.000212003
6.32584e-06
0.00026667
-2.06157e-05
0.000318688
-4.98295e-05
0.00036117
-8.1769e-05
0.000402407
-0.000111185
0.000445822
-0.000136937
0.000492968
-0.000159694
0.000543346
-0.000179615
0.000595597
-0.000196316
0.000648021
-0.00020922
0.000698922
-0.000217857
0.000746901
-0.000221981
0.000790936
-0.00022164
0.000830402
-0.000217203
0.00086503
-0.00020931
0.000894847
-0.000198812
0.000920149
-0.000186684
0.000941408
-0.000173975
0.000959126
-0.000161788
0.000973903
-0.000151303
0.000985612
-0.000143842
0.00099532
-0.000140503
-0.000144955
0.000857109
0.000271374
0.000897355
0.000264941
0.000950164
0.000274165
0.00100471
0.000292042
0.00104637
0.000309153
0.00106531
0.000321372
0.00105664
0.000327411
0.00101794
0.000326054
0.000949552
0.000316241
0.00085508
0.000297917
0.000740895
0.000272737
0.000611932
0.000242776
0.000476494
0.000209754
0.000348327
0.000174632
0.000223535
0.00013731
0.000102247
0.000103006
-1.42918e-07
6.94796e-05
-5.1633e-05
4.40611e-05
-6.28829e-05
2.99879e-05
-6.47469e-05
1.83643e-05
-6.70967e-05
9.51008e-06
-7.30021e-05
2.63246e-06
-8.0465e-05
-2.9278e-06
-8.89903e-05
-5.90469e-06
-9.63424e-05
-6.60066e-06
-0.000101845
-4.71543e-06
-0.000106807
-2.1976e-07
-0.000112172
5.42312e-06
-0.000117755
8.30757e-06
-0.000122894
9.79012e-06
-0.000127256
1.02082e-05
-0.000130774
9.94451e-06
-0.000133519
9.34779e-06
-0.000135326
8.45583e-06
-0.000136526
8.16153e-06
-0.000137223
8.35157e-06
-0.000137476
8.86593e-06
-0.000136979
9.17895e-06
-0.000135569
9.35003e-06
-0.000133125
9.39326e-06
-0.0001295
9.27354e-06
-0.000124518
8.97154e-06
-0.000118029
8.50475e-06
-0.000109853
7.75645e-06
-9.97498e-05
6.45029e-06
-8.75092e-05
4.312e-06
-7.21337e-05
3.85288e-07
-5.39402e-05
-3.48247e-06
-3.16844e-05
-8.1338e-06
-3.87951e-06
-1.30378e-05
3.07467e-05
-1.74683e-05
7.41988e-05
-2.12608e-05
0.000127269
-2.43401e-05
0.00018932
-2.73297e-05
0.000258265
-3.14862e-05
0.000331109
-3.84105e-05
0.000404487
-4.96035e-05
0.000476791
-6.59784e-05
0.000543736
-8.7561e-05
0.000606014
-0.000112107
0.000662112
-0.000137867
0.000713715
-0.000162789
0.000762119
-0.000185341
0.000807235
-0.00020481
0.000848318
-0.000220698
0.000884512
-0.00023251
0.00091514
-0.000239848
0.000939824
-0.000242542
0.00095855
-0.000240707
0.00097164
-0.00023473
0.000979675
-0.000225237
0.000983398
-0.000213033
0.000983616
-0.000199031
0.000981114
-0.000184182
0.000976581
-0.000169441
0.000970526
-0.000155734
0.000963247
-0.000144024
0.000954576
-0.000135171
0.000944374
-0.0001303
-0.000130393
0.000759397
0.000238011
0.000790536
0.000233802
0.000828351
0.000236349
0.000874985
0.000245408
0.000927002
0.000257137
0.000978871
0.000269503
0.00102441
0.000281869
0.00105755
0.000292918
0.00107319
0.000300602
0.00106786
0.000303245
0.00104042
0.000300179
0.000991565
0.00029163
0.000923239
0.00027808
0.00083886
0.000259011
0.000741525
0.000234645
0.000636636
0.000207896
0.000532151
0.000173964
0.0004339
0.000142312
0.000348943
0.000114945
0.000276027
9.12797e-05
0.000213744
7.17936e-05
0.000160424
5.59521e-05
0.000114127
4.33697e-05
7.45231e-05
3.36987e-05
4.17028e-05
2.62196e-05
1.65742e-05
2.04131e-05
3.16316e-07
1.60382e-05
-7.31125e-06
1.30507e-05
-9.55077e-06
1.05471e-05
-8.32827e-06
8.56762e-06
-5.01062e-06
6.89057e-06
-4.46707e-07
5.3806e-06
4.94946e-06
3.95162e-06
1.08507e-05
2.5546e-06
1.72557e-05
1.75657e-06
2.47767e-05
8.30569e-07
3.39855e-05
-3.42875e-07
4.48221e-05
-1.6577e-06
5.75635e-05
-3.39141e-06
7.24963e-05
-5.53949e-06
8.99002e-05
-8.13034e-06
0.000110068
-1.11966e-05
0.000133325
-1.47522e-05
0.000159916
-1.88343e-05
0.000189892
-2.35254e-05
0.000223136
-2.89322e-05
0.000258615
-3.50934e-05
0.000296826
-4.16939e-05
0.000337326
-4.86342e-05
0.000379959
-5.56706e-05
0.000424963
-6.24719e-05
0.000472554
-6.88516e-05
0.000523109
-7.48952e-05
0.000576785
-8.10065e-05
0.000633232
-8.79328e-05
0.000691427
-9.66054e-05
0.000749688
-0.000107865
0.00080583
-0.00012212
0.000857428
-0.000139159
0.000903303
-0.000157982
0.000942675
-0.000177239
0.000975396
-0.00019551
0.00100157
-0.000211511
0.00102113
-0.000224377
0.00103403
-0.000233599
0.0010404
-0.000238871
0.00104062
-0.00024007
0.00103537
-0.000237293
0.00102552
-0.000230859
0.00101207
-0.000221281
0.000996046
-0.000209212
0.000978406
-0.000195393
0.000959974
-0.000180599
0.00094139
-0.000165598
0.000923081
-0.000151131
0.000905237
-0.00013789
0.000887794
-0.000126581
0.000870379
-0.000117756
0.000852352
-0.000112274
-0.000110269
0.000672433
0.000206414
0.000702275
0.000203961
0.000733372
0.000205252
0.000767839
0.00021094
0.000806614
0.000218362
0.000850036
0.000226081
0.000897301
0.000234604
0.000946031
0.000244188
0.000992641
0.000253992
0.00103305
0.000262834
0.00106349
0.000269743
0.00108117
0.000273948
0.00108444
0.000274805
0.00107207
0.000271381
0.0010437
0.000263017
0.00100103
0.000250564
0.000949033
0.000225964
0.000891656
0.000199688
0.0008319
0.000174702
0.000772154
0.000151025
0.00071462
0.000129328
0.000660583
0.00010999
0.000610847
9.31057e-05
0.000566002
7.8543e-05
0.000526254
6.59678e-05
0.000491583
5.50847e-05
0.000461959
4.56616e-05
0.000437596
3.74142e-05
0.000418145
2.99977e-05
0.000403377
2.33355e-05
0.000392971
1.72967e-05
0.000386586
1.17654e-05
0.000383953
6.58552e-06
0.000385265
1.2426e-06
0.000390211
-3.19036e-06
0.000398877
-7.83547e-06
0.000411088
-1.25532e-05
0.000426736
-1.73055e-05
0.000445568
-2.22236e-05
0.000467383
-2.73542e-05
0.000491967
-3.27144e-05
0.000519089
-3.83191e-05
0.000548515
-4.41781e-05
0.000579983
-5.03024e-05
0.000613168
-5.67099e-05
0.000647644
-6.34081e-05
0.000682911
-7.03606e-05
0.000718644
-7.74272e-05
0.000754457
-8.44468e-05
0.000790038
-9.12524e-05
0.000825245
-9.76785e-05
0.00086005
-0.000103657
0.000894457
-0.000109302
0.000928389
-0.000114938
0.000961534
-0.000121077
0.000993242
-0.000128314
0.00102252
-0.000137148
0.00104819
-0.00014779
0.00106907
-0.000160037
0.00108431
-0.000173215
0.0010934
-0.000186329
0.0010962
-0.000198318
0.00109294
-0.000208243
0.001084
-0.000215443
0.00106996
-0.000219554
0.00105152
-0.000220434
0.00102956
-0.000218109
0.00100503
-0.000212767
0.000978918
-0.000204744
0.000952133
-0.000194496
0.000925474
-0.000182553
0.000899571
-0.00016949
0.000874866
-0.000155894
0.000851608
-0.00014234
0.000829859
-0.000129383
0.000809503
-0.000117534
0.000790244
-0.000107321
0.000771567
-9.90796e-05
0.000752837
-9.35434e-05
-9.02666e-05
0.000594386
0.000177665
0.00062317
0.000175177
0.000652323
0.000176099
0.000682115
0.000181149
0.000712924
0.000187552
0.000745613
0.000193392
0.000781181
0.000199036
0.000820193
0.000205175
0.000862411
0.000211774
0.000906707
0.000218538
0.000951215
0.000225234
0.00099366
0.000231504
0.00103171
0.000236754
0.00106298
0.000240113
0.0010853
0.000240697
0.00109753
0.000238336
0.00109977
0.000223725
0.00109369
0.000205768
0.00108082
0.000187563
0.00106267
0.000169175
0.00104092
0.000151083
0.00101711
0.000133799
0.000992585
0.000117631
0.000968436
0.000102692
0.00094545
8.8954e-05
0.000924205
7.63296e-05
0.000905152
6.4715e-05
0.000888609
5.39571e-05
0.000874711
4.38958e-05
0.000863593
3.44525e-05
0.000855331
2.55589e-05
0.000849965
1.71318e-05
0.000847483
9.06733e-06
0.000847315
1.41051e-06
0.0008502
-6.07513e-06
0.000855616
-1.32517e-05
0.00086339
-2.03271e-05
0.000873378
-2.72931e-05
0.000885329
-3.41747e-05
0.000898976
-4.1002e-05
0.000914048
-4.77856e-05
0.000930255
-5.45263e-05
0.000947298
-6.12214e-05
0.000964864
-6.7868e-05
0.000982616
-7.44623e-05
0.0010002
-8.09899e-05
0.00101725
-8.74088e-05
0.00103345
-9.36302e-05
0.00104854
-9.95426e-05
0.00106234
-0.000105048
0.00107474
-0.000110079
0.00108573
-0.000114648
0.00109532
-0.00011889
0.00110346
-0.000123077
0.00110997
-0.000127589
0.00111449
-0.000132836
0.00111648
-0.000139139
0.0011153
-0.00014661
0.00111033
-0.000155069
0.00110115
-0.000164028
0.0010876
-0.000172783
0.00106986
-0.000180578
0.00104837
-0.000186747
0.00102373
-0.000190809
0.000996671
-0.000192494
0.000967945
-0.000191707
0.000938325
-0.000188488
0.000908546
-0.000182988
0.000879261
-0.000175459
0.000850998
-0.000166233
0.000824144
-0.000155699
0.000798941
-0.000144287
0.000775492
-0.000132444
0.000753775
-0.000120623
0.000733663
-0.000109271
0.00071492
-9.87909e-05
0.000697216
-8.96173e-05
0.000680049
-8.19124e-05
0.000662951
-7.64452e-05
-7.20486e-05
0.000525111
0.000151816
0.000551936
0.000148352
0.000579146
0.000148889
0.000606467
0.000153827
0.000634006
0.000160013
0.000661953
0.000165445
0.000690628
0.000170362
0.000720605
0.000175198
0.000752535
0.000179845
0.000786873
0.000184199
0.000823722
0.000188386
0.00086273
0.000192496
0.00090308
0.000196403
0.000943486
0.000199707
0.000982309
0.000201875
0.00101803
0.000202617
0.00104832
0.000193431
0.00107278
0.000181313
0.00109162
0.000168724
0.00110524
0.000155556
0.00111427
0.000142046
0.00111951
0.000128562
0.00112176
0.00011538
0.00112179
0.000102658
0.00112029
9.04553e-05
0.00111784
7.87808e-05
0.00111494
6.7617e-05
0.00111198
5.69212e-05
0.00110923
4.66385e-05
0.00110695
3.67386e-05
0.0011053
2.72074e-05
0.00110441
1.80231e-05
0.0011043
9.1739e-06
0.00110491
8.00887e-07
0.00110635
-7.51124e-06
0.00110843
-1.53322e-05
0.00111103
-2.29319e-05
0.00111406
-3.03178e-05
0.00111737
-3.74843e-05
0.0011208
-4.44401e-05
0.00112421
-5.11885e-05
0.00112741
-5.77245e-05
0.00113023
-6.40412e-05
0.00113249
-7.01326e-05
0.00113402
-7.59922e-05
0.00113464
-8.16067e-05
0.00113418
-8.69471e-05
0.00113251
-9.19627e-05
0.00112956
-9.6593e-05
0.0011253
-0.000100793
0.00111978
-0.000104552
0.00111305
-0.000107922
0.0011052
-0.00011104
0.00109625
-0.000114128
0.00108614
-0.000117476
0.00107468
-0.000121375
0.00106158
-0.000126044
0.00104652
-0.000131548
0.0010292
-0.000137747
0.00100946
-0.000144292
0.000987362
-0.000150682
0.000963147
-0.000156363
0.000937234
-0.000160835
0.000910136
-0.000163711
0.000882392
-0.00016475
0.000854524
-0.00016384
0.000827009
-0.000160973
0.000800252
-0.000156231
0.000774567
-0.000149774
0.000750173
-0.000141839
0.000727193
-0.00013272
0.000705667
-0.000122761
0.000685565
-0.000112342
0.000666798
-0.000101856
0.000649227
-9.17006e-05
0.000632658
-8.22221e-05
0.000616837
-7.37955e-05
0.000601369
-6.64446e-05
0.000585928
-6.10045e-05
-5.55604e-05
0.00046394
0.000128551
0.000488639
0.000123652
0.00051348
0.000124049
0.000538159
0.000129148
0.000563122
0.00013505
0.000588445
0.000140122
0.00061397
0.000144837
0.000639764
0.000149404
0.000666083
0.000153526
0.000693245
0.000157037
0.00072161
0.00016002
0.00075152
0.000162587
0.00078317
0.000164753
0.000816474
0.000166403
0.000850999
0.000167349
0.000886112
0.000167504
0.000919682
0.000159861
0.000950825
0.00015017
0.00097917
0.000140379
0.00100445
0.000130275
0.00102659
0.000119904
0.0010457
0.000109455
0.00106199
9.9089e-05
0.00107575
8.8901e-05
0.00108727
7.89323e-05
0.00109686
6.91957e-05
0.00110478
5.96927e-05
0.00111129
5.04149e-05
0.00111658
4.13476e-05
0.00112083
3.24898e-05
0.00112418
2.38563e-05
0.00112674
1.54625e-05
0.00112859
7.32612e-06
0.00112978
-3.9685e-07
0.00113029
-8.02081e-06
0.00113017
-1.52052e-05
0.00112937
-2.21399e-05
0.00112789
-2.88369e-05
0.0011257
-3.52881e-05
0.00112275
-4.1491e-05
0.001119
-4.74446e-05
0.00111443
-5.31447e-05
0.00110897
-5.85859e-05
0.0011026
-6.37644e-05
0.00109529
-6.86767e-05
0.00108699
-7.33154e-05
0.00107771
-7.76646e-05
0.00106745
-8.16981e-05
0.00105624
-8.53872e-05
0.00104417
-8.87171e-05
0.00103132
-9.17035e-05
0.0010178
-9.44086e-05
0.00100372
-9.69535e-05
0.000989107
-9.95182e-05
0.000973951
-0.00010232
0.00095815
-0.000105574
0.00094154
-0.000109433
0.000923934
-0.000113942
0.000905179
-0.000118991
0.000885208
-0.000124321
0.000864078
-0.000129552
0.000841968
-0.000134253
0.000819149
-0.000138016
0.000795941
-0.000140503
0.000772666
-0.000141475
0.000749619
-0.000140793
0.00072705
-0.000138404
0.000705154
-0.000134335
0.000684072
-0.000128692
0.00066389
-0.000121656
0.000644646
-0.000113475
0.000626343
-0.000104459
0.000608959
-9.49573e-05
0.000592446
-8.53429e-05
0.000576734
-7.59889e-05
0.000561719
-6.72071e-05
0.000547242
-5.93182e-05
0.000533038
-5.22409e-05
0.000518826
-4.67919e-05
-4.04933e-05
0.000410014
0.000107501
0.000432754
0.000100912
0.000455183
0.00010162
0.000477152
0.000107179
0.000499455
0.000112747
0.000522203
0.000117374
0.000545203
0.000121836
0.00056844
0.000126167
0.00059194
0.000130026
0.000615686
0.00013329
0.000639722
0.000135985
0.000664189
0.000138119
0.000689281
0.000139662
0.000715152
0.000140532
0.000741864
0.000140638
0.000769388
0.00013998
0.000796434
0.000132815
0.000822522
0.000124082
0.000847429
0.000115472
0.000870887
0.000106816
0.000892682
9.81092e-05
0.000912688
8.94489e-05
0.000930854
8.09227e-05
0.000947184
7.2571e-05
0.000961717
6.44003e-05
0.00097451
5.64025e-05
0.000985636
4.85667e-05
0.00099517
4.08812e-05
0.00100318
3.33351e-05
0.00100974
2.593e-05
0.00101492
1.8682e-05
0.00101877
1.16135e-05
0.00102134
4.75266e-06
0.00102278
-1.83505e-06
0.00102302
-8.26352e-06
0.00102222
-1.44064e-05
0.00102039
-2.03115e-05
0.00101756
-2.60036e-05
0.00101375
-3.14799e-05
0.00100899
-3.67347e-05
0.00100332
-4.17657e-05
0.000996742
-4.65708e-05
0.000989303
-5.1147e-05
0.00098103
-5.54921e-05
0.000971958
-5.9604e-05
0.00096212
-6.34781e-05
0.000951561
-6.7105e-05
0.000940333
-7.04702e-05
0.000928505
-7.35597e-05
0.00091616
-7.63718e-05
0.000903386
-7.89295e-05
0.000890269
-8.12918e-05
0.000876877
-8.35609e-05
0.000863238
-8.58798e-05
0.000849335
-8.84166e-05
0.000835094
-9.13329e-05
0.000820404
-9.47437e-05
0.000805139
-9.86765e-05
0.000789192
-0.000103044
0.000772511
-0.00010764
0.000755119
-0.00011216
0.000737114
-0.000116248
0.00071865
-0.000119553
0.000699912
-0.000121764
0.000681082
-0.000122646
0.000662328
-0.000122039
0.000643788
-0.000119864
0.000625573
-0.000116119
0.000607762
-0.000110882
0.000590417
-0.000104311
0.000573579
-9.66379e-05
0.000557283
-8.81623e-05
0.000541554
-7.92286e-05
0.000526412
-7.02009e-05
0.00051186
-6.14364e-05
0.000497874
-5.32217e-05
0.000484371
-4.58143e-05
0.000471196
-3.90663e-05
0.000458034
-3.36302e-05
-2.67943e-05
0.000362528
8.82933e-05
0.000383496
7.99438e-05
0.000403597
8.15192e-05
0.000423064
8.77118e-05
0.00044288
9.29311e-05
0.000463078
9.71768e-05
0.000483524
0.00010139
0.000504297
0.000105394
0.00052542
0.000108903
0.000546805
0.000111905
0.000568367
0.000114423
0.000590058
0.000116428
0.000611865
0.000117854
0.000633785
0.000118612
0.000655814
0.000118608
0.000677971
0.000117824
0.000699347
0.000111438
0.00071975
0.000103679
0.00073919
9.60327e-05
0.000757603
8.84032e-05
0.000774911
8.08012e-05
0.000791052
7.33076e-05
0.000805983
6.59912e-05
0.000819676
5.88784e-05
0.000832111
5.19652e-05
0.000843278
4.52352e-05
0.000853176
3.86695e-05
0.000861806
3.22505e-05
0.000869178
2.59636e-05
0.000875303
1.98045e-05
0.000880203
1.37823e-05
0.000883905
7.91187e-06
0.000886453
2.20441e-06
0.00088792
-3.30195e-06
0.000888323
-8.66622e-06
0.000887749
-1.38332e-05
0.000886238
-1.87999e-05
0.00088382
-2.35862e-05
0.000880535
-2.81946e-05
0.000876421
-3.26206e-05
0.000871517
-3.68615e-05
0.000865862
-4.09157e-05
0.000859496
-4.47813e-05
0.00085246
-4.84559e-05
0.000844793
-5.19371e-05
0.000836536
-5.52207e-05
0.00082773
-5.82994e-05
0.000818423
-6.11634e-05
0.000808669
-6.38055e-05
0.000798526
-6.6229e-05
0.000788055
-6.84581e-05
0.000777309
-7.05458e-05
0.000766326
-7.25785e-05
0.00075512
-7.46737e-05
0.00074367
-7.6966e-05
0.00073192
-7.9583e-05
0.00071979
-8.26136e-05
0.000707189
-8.60762e-05
0.000694041
-8.9896e-05
0.0006803
-9.38992e-05
0.000665968
-9.78283e-05
0.000651095
-0.000101375
0.000635766
-0.000104224
0.000620087
-0.000106085
0.000604166
-0.000106725
0.000588105
-0.000105978
0.000571995
-0.000103754
0.000555918
-0.000100042
0.00053995
-9.49144e-05
0.000524168
-8.85283e-05
0.00050865
-8.11198e-05
0.000493478
-7.29904e-05
0.000478734
-6.44848e-05
0.000464494
-5.59608e-05
0.000450814
-4.7756e-05
0.000437724
-4.01323e-05
0.000425183
-3.32727e-05
0.000413121
-2.7005e-05
0.000401148
-2.1657e-05
-1.46617e-05
0.000320758
7.05686e-05
0.000340087
6.06147e-05
0.000357962
6.3644e-05
0.000375206
7.04679e-05
0.000392819
7.53176e-05
0.00041069
7.93065e-05
0.000428757
8.33231e-05
0.000447162
8.69892e-05
0.000465939
9.01263e-05
0.000485023
9.28205e-05
0.000504347
9.50997e-05
0.000523846
9.69281e-05
0.000543446
9.82545e-05
0.000563056
9.90021e-05
0.000582581
9.90828e-05
0.000601945
9.84601e-05
0.000620301
9.30824e-05
0.000637492
8.64874e-05
0.000653584
7.99408e-05
0.000668602
7.33852e-05
0.00068256
6.68436e-05
0.000695474
6.03934e-05
0.000707364
5.41016e-05
0.000718245
4.79972e-05
0.00072813
4.20801e-05
0.000737028
3.63369e-05
0.000744947
3.0751e-05
0.000751891
2.5306e-05
0.000757868
1.99868e-05
0.000762885
1.47874e-05
0.000766955
9.71274e-06
0.000770093
4.77349e-06
0.000772337
-3.93063e-08
0.000773718
-4.68277e-06
0.000774258
-9.20653e-06
0.000773998
-1.35737e-05
0.000772973
-1.7775e-05
0.000771209
-2.1822e-05
0.000768734
-2.57196e-05
0.000765579
-2.94649e-05
0.000761772
-3.30551e-05
0.000757345
-3.64885e-05
0.000752327
-3.97632e-05
0.000746748
-4.28771e-05
0.000740638
-4.58271e-05
0.000734026
-4.86091e-05
0.000726944
-5.1217e-05
0.000719425
-5.3644e-05
0.000711505
-5.5886e-05
0.000703225
-5.7949e-05
0.000694624
-5.98567e-05
0.000685735
-6.16567e-05
0.00067658
-6.34242e-05
0.000667165
-6.52582e-05
0.000657469
-6.72706e-05
0.000647452
-6.95657e-05
0.000637052
-7.22141e-05
0.000626203
-7.52264e-05
0.00061484
-7.85337e-05
0.000602923
-8.19818e-05
0.000590436
-8.53414e-05
0.000577396
-8.83352e-05
0.000563844
-9.06717e-05
0.000549839
-9.20798e-05
0.000535449
-9.23356e-05
0.000520752
-9.12802e-05
0.000505829
-8.88307e-05
0.000490773
-8.49861e-05
0.00047569
-7.98317e-05
0.000460699
-7.35373e-05
0.000445928
-6.63488e-05
0.000431508
-5.85706e-05
0.000417565
-5.0541e-05
0.000404205
-4.26012e-05
0.000391507
-3.50584e-05
0.000379521
-2.81463e-05
0.000368213
-2.19645e-05
0.000357571
-1.63632e-05
0.000347122
-1.12079e-05
-4.42078e-06
0.000284047
5.3995e-05
0.000301804
4.28575e-05
0.000317587
4.78611e-05
0.000332893
5.51619e-05
0.000348559
5.96515e-05
0.000364356
6.35097e-05
0.00038032
6.73584e-05
0.000396611
7.06988e-05
0.000413236
7.35008e-05
0.000430146
7.59107e-05
0.000447302
7.79438e-05
0.000464664
7.95663e-05
0.000482171
8.07472e-05
0.000499741
8.14325e-05
0.000517271
8.1552e-05
0.000534662
8.10698e-05
0.000551105
7.66394e-05
0.000566422
7.11705e-05
0.000580652
6.57102e-05
0.000593821
6.02161e-05
0.000605953
5.47114e-05
0.000617081
4.92655e-05
0.000627242
4.39407e-05
0.000636473
3.87666e-05
0.000644806
3.37469e-05
0.00065227
2.8873e-05
0.000658888
2.41328e-05
0.000664681
1.95134e-05
0.000669666
1.50017e-05
0.00067386
1.05931e-05
0.00067728
6.29272e-06
0.000679947
2.10629e-06
0.000681876
-1.9676e-06
0.000683098
-5.90519e-06
0.000683622
-9.73081e-06
0.000683477
-1.34279e-05
0.000682688
-1.69861e-05
0.000681277
-2.04111e-05
0.000679265
-2.37078e-05
0.000676675
-2.68748e-05
0.000673529
-2.99092e-05
0.00066985
-3.28093e-05
0.00066566
-3.5573e-05
0.000660981
-3.81982e-05
0.000655835
-4.06815e-05
0.000650245
-4.30188e-05
0.000644232
-4.52045e-05
0.000637821
-4.72328e-05
0.000631036
-4.91013e-05
0.000623904
-5.08165e-05
0.000616448
-5.24004e-05
0.000608687
-5.38957e-05
0.00060063
-5.53679e-05
0.000592275
-5.69026e-05
0.000583599
-5.85947e-05
0.000574564
-6.05309e-05
0.000565118
-6.27679e-05
0.000555201
-6.53089e-05
0.000544754
-6.8087e-05
0.000533732
-7.09597e-05
0.000522108
-7.37175e-05
0.000509879
-7.61067e-05
0.000497068
-7.78602e-05
0.000483718
-7.87299e-05
0.000469896
-7.85138e-05
0.000455691
-7.7075e-05
0.000441214
-7.43533e-05
0.000426598
-7.03706e-05
0.000411998
-6.5232e-05
0.000397581
-5.91201e-05
0.000383516
-5.22834e-05
0.000369962
-4.50166e-05
0.000357057
-3.76361e-05
0.000344907
-3.04516e-05
0.000333577
-2.37284e-05
0.000323101
-1.767e-05
0.000313427
-1.22903e-05
0.000304579
-7.51508e-06
0.000296026
-2.65502e-06
3.64449e-06
0.000251798
3.82832e-05
0.000267991
2.66645e-05
0.000281861
3.39914e-05
0.000295501
4.15218e-05
0.000309433
4.57198e-05
0.00032339
4.95522e-05
0.000337519
5.32298e-05
0.00035196
5.62579e-05
0.000366692
5.87689e-05
0.00038167
6.09327e-05
0.000396868
6.27456e-05
0.000412256
6.41785e-05
0.000427787
6.52162e-05
0.000443398
6.5821e-05
0.000459011
6.59389e-05
0.00047454
6.55414e-05
0.000489254
6.19247e-05
0.00050298
5.74452e-05
0.000515738
5.29518e-05
0.000527543
4.84116e-05
0.000538408
4.38458e-05
0.000548359
3.93148e-05
0.000557425
3.48744e-05
0.00056564
3.05522e-05
0.000573034
2.6353e-05
0.000579636
2.22704e-05
0.000585474
1.82955e-05
0.000590569
1.44182e-05
0.000594944
1.06265e-05
0.000598619
6.91826e-06
0.000601612
3.29959e-06
0.000603943
-2.24676e-07
0.000605628
-3.65312e-06
0.000606695
-6.9714e-06
0.000607154
-1.01898e-05
0.000607027
-1.33014e-05
0.000606338
-1.62967e-05
0.000605104
-1.91776e-05
0.000603344
-2.19477e-05
0.000601075
-2.46059e-05
0.000598315
-2.71494e-05
0.000595081
-2.95753e-05
0.000591389
-3.18811e-05
0.000587255
-3.40639e-05
0.000582693
-3.61194e-05
0.000577717
-3.80427e-05
0.00057234
-3.98278e-05
0.000566576
-4.14688e-05
0.000560438
-4.29635e-05
0.00055394
-4.43178e-05
0.000547091
-4.55517e-05
0.000539899
-4.67038e-05
0.000532363
-4.78323e-05
0.000524473
-4.90124e-05
0.000516205
-5.03263e-05
0.000507522
-5.18478e-05
0.000498376
-5.36222e-05
0.000488714
-5.56469e-05
0.000478484
-5.78567e-05
0.000467643
-6.01192e-05
0.00045617
-6.22437e-05
0.000444064
-6.40015e-05
0.000431359
-6.51548e-05
0.000418116
-6.54871e-05
0.000404431
-6.48283e-05
0.000390428
-6.30729e-05
0.000376264
-6.01892e-05
0.000362116
-5.62221e-05
0.000348174
-5.12902e-05
0.000334631
-4.55773e-05
0.000321667
-3.93193e-05
0.000309435
-3.27848e-05
0.000298052
-2.62531e-05
0.000287592
-1.99915e-05
0.00027808
-1.42167e-05
0.000269517
-9.10681e-06
0.000261819
-4.59244e-06
0.000255036
-7.321e-07
0.00024863
3.75107e-06
9.42738e-06
0.000223468
2.31975e-05
0.000238065
1.2068e-05
0.000250245
2.18105e-05
0.00026246
2.93075e-05
0.000274839
3.33406e-05
0.000287177
3.72144e-05
0.000299706
4.07001e-05
0.00031253
4.34339e-05
0.000325606
4.56933e-05
0.000338896
4.76424e-05
0.00035238
4.92613e-05
0.000366029
5.05295e-05
0.000379802
5.14436e-05
0.000393646
5.19771e-05
0.000407498
5.20873e-05
0.000421286
5.17527e-05
0.000434366
4.88448e-05
0.00044658
4.52314e-05
0.000457947
4.15851e-05
0.000468477
3.78811e-05
0.000478183
3.41402e-05
0.000487081
3.04169e-05
0.000495194
2.67615e-05
0.000502546
2.31994e-05
0.000509164
1.97355e-05
0.00051507
1.63643e-05
0.000520286
1.30791e-05
0.000524833
9.87181e-06
0.00052873
6.72963e-06
0.000531995
3.6535e-06
0.000534645
6.49004e-07
0.000536701
-2.28086e-06
0.00053818
-5.13189e-06
0.000539102
-7.89314e-06
0.00053948
-1.05677e-05
0.00053933
-1.31515e-05
0.000538669
-1.56359e-05
0.000537511
-1.80197e-05
0.000535868
-2.03047e-05
0.000533751
-2.24893e-05
0.000531172
-2.45696e-05
0.000528138
-2.65417e-05
0.000524659
-2.84021e-05
0.000520742
-3.01468e-05
0.000516393
-3.1771e-05
0.00051162
-3.3269e-05
0.000506427
-3.46349e-05
0.000500821
-3.58634e-05
0.000494811
-3.69527e-05
0.000488402
-3.79094e-05
0.000481603
-3.87527e-05
0.000474418
-3.95185e-05
0.000466846
-4.02603e-05
0.000458879
-4.10453e-05
0.000450498
-4.1946e-05
0.000441676
-4.30256e-05
0.000432375
-4.43209e-05
0.000422553
-4.58253e-05
0.000412173
-4.74766e-05
0.000401208
-4.91545e-05
0.000389654
-5.06891e-05
0.000377533
-5.18804e-05
0.000364902
-5.25243e-05
0.000351855
-5.244e-05
0.000338519
-5.14925e-05
0.000325053
-4.96069e-05
0.00031164
-4.67755e-05
0.000298474
-4.30569e-05
0.000285755
-3.85707e-05
0.000273666
-3.34882e-05
0.000262365
-2.80186e-05
0.000251974
-2.23933e-05
0.000242567
-1.68465e-05
0.000234176
-1.16003e-05
0.000226782
-6.82301e-06
0.000220352
-2.67664e-06
0.000214771
9.88774e-07
0.000210102
3.93723e-06
0.000205881
7.97137e-06
1.30109e-05
0.00019856
8.56662e-06
0.000211521
-8.92925e-07
0.000222268
1.1064e-05
0.00023325
1.8325e-05