/*--------------------------------*- C++ -*----------------------------------*\
| =========                 |                                                 |
| \\      /  F ield         | OpenFOAM: The Open Source CFD Toolbox           |
|  \\    /   O peration     | Version:  v1912                                 |
|   \\  /    A nd           | Website:  www.openfoam.com                      |
|    \\/     M anipulation  |                                                 |
\*---------------------------------------------------------------------------*/
FoamFile
{
    version     2.0;
    format      ascii;
    class       volVectorField;
    location    "900";
    object      U;
}
// * * * * * * * * * * * * * * * * * * * * * * * * * * * * * * * * * * * * * //

dimensions      [0 1 -1 0 0 0 0];


internalField   nonuniform List<vector> 
2000
(
(0.84616 0.187394 0)
(0.515133 0.124089 0)
(0.223448 0.0684415 0)
(0.0598068 0.0174443 6.19506e-20)
(-0.00455617 -0.0232232 1.20692e-17)
(-0.0642033 -0.0384872 1.04243e-17)
(-0.0776009 -0.0372471 0)
(-0.0715949 -0.016659 0)
(-0.0590606 0.0117118 0)
(-0.0421582 0.0254666 2.36714e-17)
(-0.0415844 0.0109778 -1.45025e-17)
(-0.0273671 -0.000621417 -1.36206e-17)
(-0.0163176 -0.00266723 0)
(-0.0200716 -0.00264042 0)
(-0.0219063 -0.00226992 -1.08205e-17)
(-0.0168724 0.000848268 0)
(-0.0105729 0.00349402 9.74047e-18)
(-0.00962146 0.00623764 3.09566e-21)
(-0.0106296 0.00612812 9.41608e-18)
(-0.0113958 0.00488879 -4.64745e-18)
(-0.0112575 0.00278257 9.18822e-18)
(-0.0100657 0.000805008 0)
(-0.00791465 -0.000198702 0)
(-0.00539657 -0.000629127 -7.24102e-23)
(-0.00310285 -0.000794202 0)
(-0.00127646 -0.000813155 -4.51744e-18)
(-5.39837e-05 -0.000750267 0)
(0.000643066 -0.000669973 4.52671e-18)
(0.00104153 -0.00065589 0)
(0.00133193 -0.000662142 0)
(0.00160817 -0.000587589 0)
(0.00188528 -0.000476249 1.14961e-18)
(0.00214717 -0.000386093 0)
(0.00238291 -0.000346354 -5.83483e-19)
(0.00257953 -0.00034513 1.94732e-14)
(0.00271229 -0.000361103 1.94596e-14)
(0.00277405 -0.000396905 6.01742e-19)
(0.00271031 -0.000490369 -6.09237e-19)
(0.00252371 -0.000632518 0)
(0.00221319 -0.000791241 2.50617e-18)
(0.00175869 -0.000942938 0)
(0.00112591 -0.00107454 -2.58879e-18)
(0.000272608 -0.00117272 0)
(-0.000859065 -0.00122076 -5.35918e-18)
(-0.00232116 -0.00123844 2.72291e-18)
(-0.00415379 -0.00131442 0)
(-0.00644504 -0.00149577 0)
(-0.00935396 -0.00169355 -2.85705e-18)
(-0.0132029 -0.00159941 0)
(-0.0186059 -0.000622708 2.93391e-18)
(-0.0265414 0.00193372 0)
(-0.0382926 0.00636153 5.91235e-18)
(-0.0552442 0.0121086 -5.86059e-18)
(-0.0785308 0.0177793 5.7383e-18)
(-0.108495 0.021492 -2.73985e-18)
(-0.144233 0.0213962 0)
(-0.183647 0.0162767 2.32866e-18)
(-0.223809 0.00598057 -2.07253e-18)
(-0.260975 -0.00845458 -4.07859e-18)
(-0.290312 -0.0248037 3.30365e-18)
(-0.306949 -0.0398237 -3.26078e-18)
(-0.309356 -0.0503022 3.48911e-18)
(-0.302902 -0.0563114 -3.98225e-18)
(-0.287834 -0.0592037 4.7893e-18)
(-0.265278 -0.0600132 -1.08866e-20)
(-0.236086 -0.0594761 7.18251e-18)
(-0.200683 -0.0577976 0)
(-0.159245 -0.0549694 0)
(-0.11203 -0.0509827 7.55081e-20)
(-0.0597735 -0.0458785 0)
(-0.00373281 -0.0395934 1.98963e-17)
(0.0558946 -0.0317892 0)
(0.119398 -0.0223176 1.98786e-17)
(0.186291 -0.0113323 -4.8779e-19)
(0.255835 0.000926381 1.71613e-17)
(0.329344 0.0141575 2.98568e-17)
(0.403322 0.0279864 7.34267e-19)
(0.490965 0.0419588 -1.01463e-17)
(0.556887 0.0544203 -6.52926e-18)
(0.713506 0.0651371 0)
(1.0153 0.210384 0)
(0.944633 0.194211 0)
(0.804475 0.179983 -3.52908e-18)
(0.654422 0.152313 7.28858e-18)
(0.509224 0.111169 0)
(0.360042 0.0683704 -7.28956e-18)
(0.216493 0.0293252 0)
(0.0821323 -0.00530893 0)
(-0.0282879 -0.0180399 0)
(-0.0562034 -0.0189155 -1.73111e-17)
(-0.0667325 -0.0249882 1.57485e-17)
(-0.0718835 -0.0159767 1.44454e-17)
(-0.0637616 0.00640359 0)
(-0.0508838 0.02072 6.32367e-18)
(-0.05451 0.00998893 0)
(-0.0483043 -0.0029397 0)
(-0.0376344 -0.00402736 0)
(-0.0329309 -0.00109714 5.27062e-18)
(-0.0367017 0.000899414 -1.03376e-17)
(-0.0388883 0.000901383 -5.09201e-18)
(-0.0395823 7.15657e-05 0)
(-0.0384905 -0.00112576 0)
(-0.0357725 -0.00235071 0)
(-0.032528 -0.00294044 -7.41414e-18)
(-0.0293664 -0.00274063 0)
(-0.0265536 -0.00194211 4.95155e-18)
(-0.0243334 -0.000880545 2.48324e-18)
(-0.0228736 -9.72713e-07 0)
(-0.0222394 0.000370301 0)
(-0.0222957 0.000401765 0)
(-0.0228644 0.000225841 0)
(-0.0237177 3.67386e-05 -6.32806e-19)
(-0.0246845 -0.000117998 0)
(-0.0257055 -0.000207196 3.20298e-19)
(-0.0268003 -0.000193945 1.61365e-19)
(-0.0280377 -6.16363e-05 0)
(-0.029459 0.000171485 0)
(-0.0310895 0.000473792 6.62843e-19)
(-0.0329906 0.000825848 0)
(-0.0351787 0.00122528 -1.35271e-18)
(-0.0376687 0.00167932 0)
(-0.0404666 0.0022012 -1.38261e-18)
(-0.0435801 0.00280084 0)
(-0.0470153 0.00347293 1.41377e-18)
(-0.0507655 0.00420587 1.43132e-18)
(-0.0548058 0.00503845 0)
(-0.0591122 0.00615451 0)
(-0.0636836 0.00792613 -2.9725e-18)
(-0.0685138 0.0108671 0)
(-0.07357 0.0155756 1.44983e-20)
(-0.0788722 0.0225792 0)
(-0.0846184 0.0320004 0)
(-0.091165 0.043126 0)
(-0.098821 0.0543061 0)
(-0.107311 0.0632157 6.02495e-18)
(-0.115103 0.0674059 0)
(-0.119769 0.0648977 -5.47964e-18)
(-0.119377 0.0548063 2.65173e-18)
(-0.112499 0.0381169 -2.30938e-18)
(-0.0952318 0.0176398 -4.88049e-18)
(-0.0633784 -0.00487445 5.02907e-18)
(-0.0452982 -0.0308278 -5.55001e-18)
(-0.0200097 -0.0514416 6.49976e-18)
(0.00791247 -0.066084 0)
(0.0388587 -0.076355 -1.29534e-17)
(0.0733084 -0.0837194 -9.66555e-18)
(0.112034 -0.0889058 0)
(0.155224 -0.0919229 5.74054e-18)
(0.202515 -0.0924816 1.25601e-17)
(0.25333 -0.0903727 0)
(0.307018 -0.0855018 0)
(0.363003 -0.0778448 0)
(0.420814 -0.0675361 0)
(0.48019 -0.0549065 -1.36112e-17)
(0.540882 -0.0404882 5.93341e-18)
(0.603745 -0.0249418 -1.17635e-17)
(0.667199 -0.00920319 1.01565e-17)
(0.739025 0.00569357 -3.46647e-18)
(0.79598 0.0173049 0)
(0.911716 0.022799 0)
(0.978489 0.201538 0)
(0.978854 0.193006 -2.78587e-18)
(0.969154 0.205111 3.48155e-18)
(0.939083 0.208532 -3.06057e-18)
(0.878034 0.194606 2.88516e-18)
(0.785605 0.168719 2.84322e-18)
(0.669349 0.138081 0)
(0.541012 0.106021 0)
(0.40822 0.0750633 0)
(0.285943 0.0459344 6.86678e-18)
(0.173879 0.0180211 0)
(0.0721777 -0.00640541 0)
(-0.0214749 -0.0141535 0)
(-0.046911 -0.00385629 -7.18465e-18)
(-0.0508324 -0.0116814 0)
(-0.0586949 -0.0181546 -6.05127e-18)
(-0.0592962 -0.0112554 0)
(-0.0481135 0.00906178 5.87632e-18)
(-0.0464822 0.0164825 2.87287e-18)
(-0.0509055 0.0125876 0)
(-0.0532636 0.00614969 -2.78985e-18)
(-0.0550521 -0.000291337 0)
(-0.0556694 -0.00469652 0)
(-0.0547699 -0.00653075 5.43603e-18)
(-0.0532203 -0.00660797 0)
(-0.0520424 -0.00572801 1.35817e-18)
(-0.051842 -0.00422243 -4.07723e-18)
(-0.0526352 -0.00223429 0)
(-0.0539924 -0.000223129 0)
(-0.0554654 0.00124019 -6.81591e-19)
(-0.0570643 0.00218853 0)
(-0.0587702 0.00271158 1.46942e-22)
(-0.0605084 0.00295393 0)
(-0.0622348 0.00307905 6.90837e-19)
(-0.0639567 0.00324876 8.68996e-20)
(-0.0657478 0.00351698 0)
(-0.0676664 0.00386919 1.7635e-19)
(-0.0697259 0.00426716 -3.55611e-19)
(-0.0719082 0.00470488 -3.58788e-19)
(-0.0741809 0.0051846 -7.24507e-19)
(-0.0765053 0.00571194 7.3206e-19)
(-0.0788421 0.00629607 7.3975e-19)
(-0.0811607 0.00694137 0)
(-0.0834236 0.00763131 1.517e-18)
(-0.0855245 0.00833747 -3.07732e-18)
(-0.0872098 0.00907904 0)
(-0.0880704 0.0100289 -1.59246e-18)
(-0.0876373 0.0115777 3.24683e-18)
(-0.0853805 0.0142002 0)
(-0.0806455 0.0184759 -1.69779e-18)
(-0.0727271 0.0248887 1.78152e-18)
(-0.0611142 0.0336906 -1.84751e-18)
(-0.0454433 0.0439837 -1.91522e-18)
(-0.0256733 0.054215 0)
(-0.00201209 0.0621646 -3.94022e-18)
(0.025591 0.0653126 -1.88411e-18)
(0.0570445 0.0613808 1.63579e-18)
(0.0905223 0.0495364 1.53024e-18)
(0.124456 0.0288 2.56705e-18)
(0.156282 0.00197999 0)
(0.18643 -0.0244072 0)
(0.214141 -0.0463983 0)
(0.242353 -0.0646736 -1.31494e-18)
(0.274001 -0.0803391 0)
(0.310019 -0.0939403 3.2261e-18)
(0.349865 -0.10545 0)
(0.392608 -0.114533 -1.99037e-18)
(0.437373 -0.12074 -4.46797e-18)
(0.483369 -0.12366 0)
(0.529926 -0.123055 -2.4759e-18)
(0.576564 -0.118924 2.57947e-18)
(0.623023 -0.111526 0)
(0.669247 -0.101371 0)
(0.715424 -0.0891434 0)
(0.761791 -0.0756739 -5.4076e-18)
(0.809224 -0.0618768 0)
(0.857016 -0.0489352 -1.88448e-18)
(0.910112 -0.0379529 3.36802e-18)
(0.953011 -0.0313118 0)
(1.03535 -0.0303862 3.93173e-19)
(0.970611 0.209117 0)
(0.963917 0.194765 1.52516e-18)
(0.96643 0.198514 0)
(0.977152 0.206407 1.69442e-18)
(0.982034 0.208884 -3.00405e-18)
(0.968293 0.204266 -1.34096e-18)
(0.930748 0.193726 0)
(0.870757 0.177878 0)
(0.79113 0.156581 0)
(0.695411 0.131331 1.35094e-18)
(0.58948 0.10541 1.38272e-18)
(0.48005 0.0807 0)
(0.369265 0.0579965 0)
(0.266647 0.0376064 0)
(0.17965 0.0185393 0)
(0.100391 0.0026721 6.40033e-18)
(0.0300552 -0.00993327 -3.38706e-18)
(-0.0310552 -0.0093804 0)
(-0.0328209 0.00101045 -3.28256e-18)
(-0.0347028 0.00246094 1.61833e-18)
(-0.0346426 0.00136479 3.21079e-18)
(-0.0358992 -0.00129481 0)
(-0.0391082 -0.00397517 0)
(-0.0434917 -0.00523291 -3.11983e-18)
(-0.0472064 -0.00435464 0)
(-0.0495037 -0.00166081 -1.54373e-18)
(-0.0511846 0.00172667 1.54328e-18)
(-0.0536893 0.00423981 0)
(-0.0558274 0.00541057 0)
(-0.0580765 0.00595592 7.66914e-19)
(-0.060024 0.00602546 0)
(-0.0616535 0.00576057 -7.69979e-19)
(-0.062917 0.00532677 0)
(-0.0637992 0.00489446 -1.94762e-19)
(-0.0644302 0.00470105 -9.81167e-20)
(-0.0649 0.00482775 -2.47506e-20)
(-0.0652221 0.00521657 -2.99878e-19)
(-0.0652934 0.00579689 4.04179e-19)
(-0.0650306 0.00646417 4.09187e-19)
(-0.0643616 0.00715495 1.24478e-18)
(-0.0631997 0.00784983 -4.21192e-19)
(-0.0614545 0.00853986 4.28514e-19)
(-0.0590635 0.00920228 0)
(-0.0559779 0.00976738 8.92601e-19)
(-0.0520908 0.0100643 9.1391e-19)
(-0.0471134 0.00979907 0)
(-0.0405827 0.00860806 1.93755e-18)
(-0.0325739 0.00642008 1.00121e-18)
(-0.0223946 0.00394422 0)
(-0.00980029 0.00179742 -3.26597e-18)
(0.00666019 0.000550762 -2.23406e-18)
(0.0280385 0.000783221 1.10769e-18)
(0.0542569 0.00231393 2.16876e-18)
(0.0859129 0.00426019 0)
(0.123023 0.00509417 9.80737e-19)
(0.164739 0.00302558 2.68103e-18)
(0.209776 -0.00349189 1.58516e-18)
(0.256036 -0.0149537 -1.38932e-18)
(0.303015 -0.0302115 -6.42041e-19)
(0.348949 -0.0476591 0)
(0.393318 -0.0665061 0)
(0.436115 -0.0854473 0)
(0.478202 -0.103409 1.71713e-18)
(0.520381 -0.119758 6.47418e-19)
(0.562593 -0.134023 0)
(0.60419 -0.145672 -1.56842e-18)
(0.644471 -0.154158 1.74406e-18)
(0.682945 -0.159056 -1.87729e-18)
(0.719359 -0.160153 -2.02448e-18)
(0.753698 -0.157495 1.26924e-19)
(0.786173 -0.151377 -2.42133e-18)
(0.817197 -0.14232 0)
(0.847319 -0.131006 0)
(0.877211 -0.118218 0)
(0.907476 -0.104808 0)
(0.939026 -0.0916548 0)
(0.971527 -0.0798065 3.67618e-18)
(1.00831 -0.0701073 -1.34529e-18)
(1.03854 -0.0644863 0)
(1.09574 -0.0627651 -4.23912e-19)
(0.972988 0.216082 0)
(0.965831 0.201808 1.87093e-18)
(0.959206 0.1956 2.49251e-19)
(0.961489 0.195546 1.90736e-18)
(0.972668 0.197536 0)
(0.985519 0.199235 -1.60758e-18)
(0.992497 0.199295 0)
(0.988452 0.196253 -3.62562e-19)
(0.970218 0.189033 0)
(0.935631 0.177562 -1.60591e-18)
(0.884731 0.162749 -1.24306e-18)
(0.819618 0.145667 -3.15461e-19)
(0.743324 0.126729 3.13148e-19)
(0.658088 0.106111 0)
(0.569157 0.0852833 3.13204e-19)
(0.47934 0.0662428 0)
(0.393491 0.0502675 2.65453e-18)
(0.3141 0.0363409 -3.51348e-19)
(0.247072 0.0242755 0)
(0.192396 0.0147271 -1.89961e-18)
(0.147776 0.0079267 0)
(0.110714 0.0034136 0)
(0.0798811 0.000826988 0)
(0.0539905 -0.000612502 0)
(0.0324758 -0.00158133 -2.21693e-19)
(0.0157011 -0.00202848 0)
(0.00281228 -0.00139432 0)
(-0.00264403 0.000672432 1.15601e-19)
(-0.00512884 0.00208816 0)
(-0.00517419 0.00307502 0)
(-0.00384081 0.00363927 0)
(-0.00157937 0.00390224 -5.87588e-20)
(0.0010141 0.00398223 0)
(0.00447786 0.0037986 -2.67944e-19)
(0.00750855 0.00429602 0)
(0.0111623 0.0051638 3.01126e-20)
(0.015562 0.00571514 1.51339e-19)
(0.0208748 0.00567107 3.03821e-20)
(0.0272836 0.00530701 -6.09671e-20)
(0.0348615 0.00475654 -4.89094e-19)
(0.0437804 0.00400016 -4.89693e-19)
(0.0542588 0.00300866 4.89596e-19)
(0.0664908 0.00176879 -1.2214e-19)
(0.0806653 0.000259235 -9.73361e-19)
(0.0969898 -0.00156858 9.67327e-19)
(0.115448 -0.00377271 -1.19987e-19)
(0.136238 -0.00644828 0)
(0.158865 -0.00967606 -9.40785e-19)
(0.183454 -0.0134168 0)
(0.210082 -0.0175276 9.20035e-19)
(0.238777 -0.0216788 0)
(0.269763 -0.0257507 8.97122e-19)
(0.303358 -0.0297177 0)
(0.339914 -0.0337906 -2.11889e-19)
(0.379648 -0.0384788 -8.046e-19)
(0.422431 -0.0445112 -7.46246e-19)
(0.467665 -0.0526333 1.7336e-19)
(0.514276 -0.0633729 0)
(0.560851 -0.0770196 5.43037e-19)
(0.605964 -0.0930296 -1.37204e-19)
(0.648754 -0.110404 0)
(0.688824 -0.127784 1.37166e-19)
(0.726055 -0.143921 -5.35076e-19)
(0.760388 -0.157968 -5.91031e-19)
(0.791653 -0.169365 0)
(0.819643 -0.177676 1.48094e-18)
(0.844288 -0.18258 0)
(0.865761 -0.183939 1.83548e-18)
(0.884479 -0.18183 2.01293e-18)
(0.901047 -0.176535 2.17703e-18)
(0.91621 -0.168515 2.70926e-19)
(0.930782 -0.15836 0)
(0.945582 -0.146745 0)
(0.961397 -0.134386 0)
(0.978841 -0.122018 -2.6963e-19)
(0.998661 -0.110367 0)
(1.02049 -0.100235 -1.67452e-18)
(1.04681 -0.0922722 1.64906e-18)
(1.06879 -0.0877038 1.03952e-19)
(1.11238 -0.0864591 4.50735e-20)
(0.974194 0.218514 -1.23247e-18)
(0.970935 0.206364 1.19288e-18)
(0.965119 0.198172 -2.82049e-19)
(0.961139 0.194112 0)
(0.962197 0.191942 0)
(0.96826 0.190544 0)
(0.977772 0.189885 0)
(0.988502 0.189481 1.2525e-18)
(0.997432 0.188308 0)
(1.00093 0.185358 -1.11978e-18)
(0.995773 0.179955 -1.39589e-18)
(0.979839 0.171905 3.20051e-19)
(0.952675 0.161434 9.66921e-19)
(0.914336 0.148646 0)
(0.865647 0.133742 -1.4757e-18)
(0.80825 0.117845 0)
(0.746068 0.102471 -1.17972e-18)
(0.683644 0.0879749 2.95065e-19)
(0.622835 0.0743866 -1.23426e-18)
(0.565746 0.0621136 -9.50452e-19)
(0.513195 0.0513548 0)
(0.465533 0.0420969 0)
(0.422938 0.0342211 -6.83189e-19)
(0.385362 0.0276199 0)
(0.352672 0.0221583 -5.42439e-19)
(0.324656 0.0176579 0)
(0.30091 0.0138509 0)
(0.281206 0.010471 -9.56003e-20)
(0.265399 0.00755381 0)
(0.253149 0.00510473 0)
(0.244104 0.0030573 0)
(0.237989 0.001334 5.05407e-20)
(0.234492 -0.000140501 2.04872e-19)
(0.23365 -0.00135974 1.29081e-19)
(0.235238 -0.00277144 0)
(0.239353 -0.00435626 0)
(0.245961 -0.00599585 -2.59612e-20)
(0.254901 -0.0077259 -1.30023e-19)
(0.266126 -0.00964142 5.1658e-20)
(0.279562 -0.0118057 0)
(0.295115 -0.0142563 0)
(0.312702 -0.0170207 -2.03934e-19)
(0.332241 -0.0201212 1.00428e-19)
(0.35365 -0.0235857 -4.00827e-19)
(0.376828 -0.0274542 3.96824e-19)
(0.401633 -0.0317731 9.7136e-20)
(0.427876 -0.0365648 0)
(0.455329 -0.0417212 3.85145e-19)
(0.483827 -0.0471211 0)
(0.513233 -0.0526231 0)
(0.54345 -0.0580709 0)
(0.574471 -0.0633704 0)
(0.606371 -0.0685553 0)
(0.639231 -0.07385 1.78015e-19)
(0.673037 -0.079682 0)
(0.707574 -0.086607 6.69104e-19)
(0.742347 -0.0951593 -1.52395e-19)
(0.77659 -0.105662 0)
(0.809364 -0.118047 5.79759e-19)
(0.839749 -0.131717 1.27712e-19)
(0.867027 -0.145766 5.67021e-19)
(0.890748 -0.159205 -1.32436e-19)
(0.910726 -0.17116 0)
(0.926996 -0.180995 -6.62978e-19)
(0.939746 -0.188288 0)
(0.94929 -0.192775 0)
(0.956093 -0.194337 -8.54386e-19)
(0.960783 -0.193011 0)
(0.964122 -0.188996 0)
(0.96694 -0.182632 -1.06422e-18)
(0.970071 -0.174364 -2.95719e-19)
(0.974302 -0.164709 0)
(0.980324 -0.154225 0)
(0.988729 -0.143479 0)
(0.999901 -0.13304 3.01263e-19)
(1.01432 -0.123457 -1.02992e-18)
(1.03145 -0.115311 -2.4002e-19)
(1.05335 -0.109075 -1.88453e-19)
(1.07188 -0.105469 -1.17734e-19)
(1.11026 -0.104604 -2.4056e-19)
(0.974501 0.21901 4.35506e-18)
(0.973757 0.208036 -4.18175e-18)
(0.971714 0.200425 0)
(0.969159 0.196211 -2.53712e-18)
(0.967053 0.192937 0)
(0.966166 0.189312 -2.23711e-18)
(0.967419 0.185818 0)
(0.971669 0.183008 2.97913e-18)
(0.978978 0.18073 -3.69899e-18)
(0.988283 0.178484 1.68898e-18)
(0.99769 0.175773 1.57902e-18)
(1.00497 0.172151 0)
(1.00811 0.167265 -4.27124e-18)
(1.00544 0.160699 -2.7205e-18)
(0.995587 0.15211 3.82385e-18)
(0.977795 0.141797 0)
(0.953044 0.130626 1.17126e-18)
(0.923752 0.119347 0)
(0.891693 0.108147 1.16774e-18)
(0.858157 0.097006 1.16745e-18)
(0.824182 0.0861328 0)
(0.790759 0.0758058 0)
(0.75877 0.0662295 -6.39352e-19)
(0.728887 0.0575094 0)
(0.701554 0.0496283 6.20908e-19)
(0.677006 0.0425006 0)
(0.655363 0.0360312 0)
(0.636655 0.030133 0)
(0.620911 0.0247168 0)
(0.608067 0.0197001 0)
(0.598045 0.0150056 0)
(0.590776 0.0105649 0)
(0.586184 0.00630714 1.77041e-19)
(0.584148 0.00216869 -8.59111e-20)
(0.584449 -0.00199496 4.39876e-20)
(0.587189 -0.0062206 0)
(0.592276 -0.0104965 0)
(0.599511 -0.0148322 8.61758e-20)
(0.608742 -0.0192691 -3.51763e-19)
(0.619829 -0.0238452 3.51272e-19)
(0.632621 -0.0285834 0)
(0.646953 -0.0334974 8.70993e-19)
(0.662656 -0.0385969 -6.98864e-19)
(0.679556 -0.043891 -3.5775e-19)
(0.697469 -0.0493881 -3.39068e-19)
(0.716192 -0.055088 0)
(0.735509 -0.060963 0)
(0.755199 -0.066939 -1.03515e-18)
(0.775073 -0.072927 0)
(0.794981 -0.0788355 0)
(0.814831 -0.0845835 0)
(0.834591 -0.0901437 7.04128e-19)
(0.854277 -0.0955908 1.40573e-18)
(0.873904 -0.101124 0)
(0.893415 -0.107055 0)
(0.912618 -0.113738 -6.4795e-19)
(0.931143 -0.121473 0)
(0.948453 -0.130381 1.2919e-18)
(0.963916 -0.140318 6.85882e-19)
(0.976923 -0.15086 0)
(0.987024 -0.161392 6.99607e-19)
(0.994019 -0.171239 1.33513e-18)
(0.99798 -0.179776 1.40692e-18)
(0.999213 -0.18652 7.14799e-19)
(0.998186 -0.191161 -1.61741e-18)
(0.995468 -0.193544 1.74806e-18)
(0.991707 -0.193643 2.83493e-18)
(0.987605 -0.191551 0)
(0.983879 -0.187469 0)
(0.981217 -0.181689 1.19585e-18)
(0.980238 -0.174566 0)
(0.981468 -0.166501 2.49947e-18)
(0.985324 -0.157921 2.53189e-18)
(0.992139 -0.149265 0)
(1.00208 -0.140976 2.40158e-18)
(1.01543 -0.133483 -1.04064e-18)
(1.03156 -0.127222 0)
(1.05237 -0.12254 0)
(1.07001 -0.119882 0)
(1.10687 -0.119436 -1.92956e-19)
(0.974733 0.218938 -3.35484e-18)
(0.975458 0.208201 3.21156e-18)
(0.976056 0.201058 -6.23729e-18)
(0.975936 0.197366 2.86949e-18)
(0.974875 0.19446 0)
(0.9732 0.190786 2.5301e-18)
(0.971487 0.186584 -4.84332e-18)
(0.970473 0.182339 -4.49044e-18)
(0.970994 0.17813 -7.92479e-20)
(0.973704 0.17395 0)
(0.978806 0.169868 0)
(0.985964 0.165856 3.59677e-18)
(0.994363 0.161685 3.29197e-18)
(1.00283 0.15694 -3.27777e-18)
(1.00995 0.151228 -8.89853e-18)
(1.01427 0.144451 0)
(1.01489 0.136908 0)
(1.01186 0.128902 0)
(1.00564 0.120422 0)
(0.996716 0.111451 0)
(0.985583 0.102194 0)
(0.97287 0.09293 0)
(0.959261 0.0838688 1.24016e-18)
(0.945387 0.075125 -2.58667e-18)
(0.931771 0.066733 0)
(0.91882 0.0586926 0)
(0.906853 0.0509963 0)
(0.89611 0.0436151 0)
(0.886756 0.0364908 0)
(0.878891 0.0295812 -6.62323e-19)
(0.87258 0.0228598 0)
(0.86786 0.016298 0)
(0.864737 0.00985963 1.25908e-20)
(0.863159 0.00348192 0)
(0.863032 -0.00271216 -4.10335e-20)
(0.864307 -0.0087823 0)
(0.866895 -0.0148153 1.70684e-19)
(0.870667 -0.020841 0)
(0.875502 -0.0268719 6.72089e-19)
(0.881286 -0.0329198 -3.30362e-19)
(0.887896 -0.0389912 -6.88449e-19)
(0.8952 -0.0450861 -6.64685e-19)
(0.903063 -0.0512009 6.67364e-19)
(0.911348 -0.0573311 6.70557e-19)
(0.919912 -0.0634702 1.40244e-18)
(0.928613 -0.0696049 1.41175e-18)
(0.937304 -0.0757065 0)
(0.945854 -0.0817245 -7.44491e-19)
(0.95416 -0.0875974 0)
(0.962161 -0.093268 0)
(0.969843 -0.0987006 -1.48021e-18)
(0.977232 -0.103907 -7.229e-19)
(0.984378 -0.108974 4.80638e-20)
(0.991318 -0.114068 0)
(0.998028 -0.119421 0)
(1.00438 -0.12528 0)
(1.01012 -0.131841 1.49111e-18)
(1.0149 -0.139174 -1.39752e-18)
(1.01833 -0.147167 -1.38769e-18)
(1.02004 -0.155524 0)
(1.01986 -0.163801 -1.42791e-18)
(1.01776 -0.171497 9.4716e-20)
(1.01398 -0.178151 -1.57707e-18)
(1.00889 -0.183404 1.75839e-18)
(1.00297 -0.187031 -4.71792e-20)
(0.996755 -0.188923 -1.9807e-18)
(0.990796 -0.189067 -2.1444e-18)
(0.985619 -0.187529 0)
(0.981716 -0.184451 0)
(0.979522 -0.180038 0)
(0.9794 -0.174551 0)
(0.981643 -0.168296 -2.83655e-18)
(0.986476 -0.161614 -2.87151e-18)
(0.994088 -0.154868 0)
(1.00456 -0.148436 -2.72152e-18)
(1.01813 -0.14268 4.90544e-18)
(1.03419 -0.137959 0)
(1.05461 -0.134513 0)
(1.07187 -0.132661 0)
(1.10771 -0.132428 9.12908e-19)
(0.975035 0.218502 8.34082e-18)
(0.977127 0.207476 0)
(0.979623 0.200809 1.42762e-17)
(0.980942 0.19772 0)
(0.980747 0.195178 6.21409e-18)
(0.979838 0.19182 0)
(0.978655 0.187904 5.47323e-18)
(0.977181 0.183662 0)
(0.975604 0.178993 -5.03688e-18)
(0.974439 0.173897 0)
(0.97427 0.168549 8.88138e-18)
(0.975577 0.163112 -4.11132e-18)
(0.978659 0.157621 0)
(0.983537 0.151978 7.30794e-18)
(0.989866 0.146033 -1.87029e-19)
(0.996991 0.139703 -6.68224e-18)
(1.00405 0.133126 6.47638e-18)
(1.01036 0.12639 0)
(1.01554 0.119355 0)
(1.01936 0.111923 6.08665e-18)
(1.02167 0.104163 0)
(1.02251 0.0962155 -2.96106e-18)
(1.02211 0.0881969 0)
(1.02073 0.0801827 2.80456e-18)
(1.01865 0.0722169 0)
(1.01612 0.0643277 2.89649e-18)
(1.01338 0.0565316 0)
(1.01062 0.0488283 0)
(1.00799 0.0412081 1.44735e-18)
(1.00561 0.033672 6.95673e-19)
(1.00356 0.026228 0)
(1.00192 0.0188787 0)
(1.00071 0.0116244 -1.08744e-18)
(0.99997 0.00446305 0)
(0.999647 -0.00251434 0)
(0.999717 -0.00936523 0)
(1.00016 -0.0161531 -1.7796e-19)
(1.00093 -0.0228886 0)
(1.00198 -0.0295625 -1.10489e-18)
(1.00324 -0.0361693 -7.5015e-19)
(1.00467 -0.042705 7.24239e-19)
(1.00619 -0.0491633 0)
(1.00775 -0.0555361 0)
(1.00928 -0.0618156 1.54363e-18)
(1.01074 -0.0679933 -1.49858e-18)
(1.01207 -0.0740568 -1.51542e-18)
(1.01322 -0.0799854 0)
(1.01415 -0.0857481 -5.79295e-20)
(1.01486 -0.0913095 1.63494e-18)
(1.01536 -0.0966439 0)
(1.01572 -0.101749 1.62675e-18)
(1.01599 -0.10666 1.70153e-18)
(1.01627 -0.111465 -1.66724e-18)
(1.0166 -0.116306 0)
(1.017 -0.121361 0)
(1.01738 -0.126814 0)
(1.01757 -0.1328 -1.67846e-18)
(1.01734 -0.13936 0)
(1.01645 -0.146408 0)
(1.01469 -0.153719 0)
(1.01196 -0.160966 3.66027e-18)
(1.00831 -0.167778 -1.8039e-18)
(1.00392 -0.173805 0)
(0.999098 -0.178764 -2.00551e-18)
(0.994203 -0.182455 -2.22762e-18)
(0.989614 -0.184759 4.6231e-18)
(0.985697 -0.185628 -4.89814e-18)
(0.982788 -0.185078 -5.179e-18)
(0.981188 -0.183189 0)
(0.981153 -0.180105 -5.69964e-18)
(0.982904 -0.176029 0)
(0.986627 -0.171221 0)
(0.992486 -0.165985 0)
(1.00065 -0.160658 5.98703e-18)
(1.01123 -0.15559 -5.73307e-18)
(1.0245 -0.151115 -7.99346e-18)
(1.03998 -0.147536 0)
(1.05953 -0.14502 3.60491e-18)
(1.07605 -0.143777 0)
(1.11034 -0.143617 -1.50294e-18)
(0.975434 0.21769 -9.46104e-18)
(0.979143 0.20609 -9.20953e-18)
(0.983423 0.200245 -1.64423e-17)
(0.98558 0.197996 0)
(0.985486 0.195678 -1.41293e-17)
(0.984786 0.192413 -6.73106e-18)
(0.9842 0.188726 0)
(0.983452 0.184719 1.19965e-17)
(0.982353 0.180193 1.11987e-17)
(0.981033 0.175095 0)
(0.979702 0.169516 -1.00443e-17)
(0.978603 0.163553 0)
(0.97805 0.15727 0)
(0.978376 0.150691 8.70926e-18)
(0.979804 0.14382 8.07208e-18)
(0.982396 0.13669 -1.82317e-19)
(0.986006 0.129512 1.84342e-19)
(0.990362 0.12244 0)
(0.995174 0.115376 0)
(1.0001 0.1082 -6.97442e-18)
(1.00479 0.100888 -7.06523e-18)
(1.00904 0.0934788 1.03549e-17)
(1.01274 0.0860179 3.45131e-18)
(1.01588 0.0785353 3.42306e-18)
(1.01848 0.0710485 0)
(1.02058 0.0635673 -3.27192e-18)
(1.02225 0.0560967 0)
(1.02353 0.0486378 0)
(1.02448 0.0411916 -3.30584e-18)
(1.02513 0.0337658 0)
(1.02554 0.0263734 0)
(1.02573 0.0190282 0)
(1.02572 0.0117451 8.20277e-19)
(1.02556 0.0045536 -4.27695e-19)
(1.02529 -0.0025277 2.13694e-19)
(1.02491 -0.00950309 0)
(1.02445 -0.0163887 0)
(1.02392 -0.0231868 0)
(1.0233 -0.0298895 8.33648e-19)
(1.0226 -0.0364904 8.38535e-19)
(1.02179 -0.0429855 -1.74974e-18)
(1.02088 -0.0493696 0)
(1.01987 -0.0556371 0)
(1.01875 -0.0617826 -3.53174e-18)
(1.01752 -0.0678008 -1.81504e-18)
(1.0162 -0.0736841 0)
(1.01478 -0.0794206 0)
(1.01328 -0.084994 1.82601e-18)
(1.01175 -0.0903878 5.63389e-20)
(1.01023 -0.0955948 0)
(1.00878 -0.100628 0)
(1.0075 -0.105528 -1.93539e-18)
(1.00644 -0.110375 0)
(1.00565 -0.115282 0)
(1.00513 -0.120387 0)
(1.00482 -0.125827 0)
(1.00459 -0.1317 0)
(1.00427 -0.138033 -4.16043e-18)
(1.00367 -0.144757 0)
(1.00265 -0.151703 0)
(1.00112 -0.158619 1.66875e-19)
(0.999096 -0.165211 0)
(0.996709 -0.171185 0)
(0.994148 -0.176286 0)
(0.991651 -0.180314 9.99412e-18)
(0.989463 -0.183129 -5.23732e-18)
(0.987818 -0.184656 5.54115e-18)
(0.986931 -0.184876 1.45105e-20)
(0.986998 -0.183835 0)
(0.988196 -0.181648 6.42981e-18)
(0.990697 -0.178494 -6.54743e-18)
(0.994679 -0.174617 0)
(1.00033 -0.170313 0)
(1.00786 -0.165917 -1.45771e-19)
(1.01746 -0.161773 6.48168e-18)
(1.02952 -0.158205 5.97299e-18)
(1.04364 -0.155468 0)
(1.06175 -0.153686 -4.092e-18)
(1.07714 -0.152887 0)
(1.10959 -0.152805 1.1328e-18)
(0.975986 0.216474 0)
(0.981692 0.204215 2.12151e-17)
(0.987769 0.199647 1.88221e-17)
(0.990441 0.198411 0)
(0.990122 0.196236 8.02968e-18)
(0.989271 0.192974 -7.7703e-18)
(0.988772 0.189389 0)
(0.988281 0.185463 -1.35649e-17)
(0.987611 0.180999 0)
(0.986852 0.175995 0)
(0.98604 0.170512 0)
(0.985145 0.164577 0)
(0.984206 0.1582 0)
(0.983343 0.151386 1.82805e-19)
(0.982702 0.144142 -9.52869e-18)
(0.982426 0.13652 -1.82176e-19)
(0.98266 0.128777 1.83588e-19)
(0.9835 0.121146 0)
(0.984945 0.113609 0)
(0.986875 0.106092 0)
(0.989103 0.0985725 -2.0255e-19)
(0.991464 0.0910735 2.06472e-19)
(0.993843 0.0836202 -3.95222e-18)
(0.996167 0.0762228 -3.92106e-18)
(0.998381 0.0688781 0)
(1.00044 0.0615772 -3.98554e-18)
(1.00231 0.0543109 3.97304e-18)
(1.00396 0.0470713 0)
(1.00538 0.0398534 1.92523e-18)
(1.00654 0.0326582 1.9834e-18)
(1.00744 0.025494 0)
(1.00807 0.0183746 0)
(1.00845 0.0113127 1.00224e-18)
(1.0086 0.00434578 -1.48536e-20)
(1.00856 -0.00256154 -4.94771e-19)
(1.00836 -0.00938119 0)
(1.00802 -0.0161064 0)
(1.00756 -0.022743 -1.01108e-18)
(1.00699 -0.0292908 0)
(1.00631 -0.0357457 -1.02111e-18)
(1.00554 -0.042104 -5.90252e-20)
(1.00469 -0.048362 0)
(1.00378 -0.0545158 2.08854e-18)
(1.00282 -0.0605616 4.15779e-18)
(1.00182 -0.0664955 2.07155e-18)
(1.00082 -0.0723123 0)
(0.999818 -0.0780045 -4.3565e-18)
(0.998852 -0.0835624 0)
(0.997954 -0.0889777 -2.17799e-18)
(0.997168 -0.0942504 0)
(0.996548 -0.0993966 0)
(0.996148 -0.104455 0)
(0.996014 -0.109493 0)
(0.996172 -0.114603 0)
(0.996609 -0.119894 -4.77323e-18)
(0.997266 -0.125472 4.80546e-18)
(0.998038 -0.131412 0)
(0.998787 -0.137734 4.72126e-18)
(0.999364 -0.144381 -4.91411e-18)
(0.999639 -0.151212 0)
(0.999534 -0.158019 -4.91274e-18)
(0.999038 -0.164549 0)
(0.998209 -0.17054 0)
(0.997159 -0.175751 0)
(0.996027 -0.17998 -5.68807e-18)
(0.994966 -0.183077 6.0295e-18)
(0.994124 -0.184947 -6.29839e-18)
(0.993647 -0.185553 1.31532e-17)
(0.993687 -0.184927 -6.84571e-18)
(0.994409 -0.183173 0)
(0.996005 -0.18047 7.39336e-18)
(0.998704 -0.177069 -7.44439e-18)
(1.00277 -0.173277 0)
(1.00851 -0.16944 -1.16986e-19)
(1.01621 -0.165905 -7.10205e-18)
(1.02637 -0.162999 0)
(1.0387 -0.160925 0)
(1.05519 -0.159809 -4.56667e-18)
(1.06938 -0.159363 0)
(1.10045 -0.159548 -1.28502e-18)
(0.976761 0.214804 0)
(0.984936 0.20201 -1.22227e-17)
(0.992771 0.199204 -1.07038e-17)
(0.995649 0.198991 0)
(0.994983 0.196871 1.84266e-17)
(0.993957 0.193635 1.74006e-17)
(0.993389 0.19014 0)
(0.992829 0.186205 1.56653e-17)
(0.992161 0.181685 -1.4876e-17)
(0.99156 0.176662 0)
(0.991075 0.171202 0)
(0.990636 0.165313 0)
(0.990183 0.158988 0)
(0.989696 0.15221 -1.13223e-17)
(0.989165 0.144966 -1.11266e-17)
(0.988598 0.137281 1.02274e-17)
(0.988069 0.12939 -3.02749e-17)
(0.9877 0.121541 0)
(0.987573 0.113754 0)
(0.987691 0.105991 9.70182e-18)
(0.988004 0.098252 1.89747e-17)
(0.98846 0.0905694 -9.2905e-18)
(0.989026 0.0829717 0)
(0.989683 0.07547 0)
(0.990409 0.0680601 -4.65889e-18)
(0.991175 0.0607316 9.17835e-18)
(0.991952 0.0534731 -9.15566e-18)
(0.992711 0.046274 0)
(0.993424 0.0391252 0)
(0.994064 0.0320233 -2.26031e-18)
(0.994613 0.0249717 0)
(0.995056 0.0179775 2.33064e-18)
(0.995387 0.0110536 -1.14211e-18)
(0.995628 0.00419676 -1.44926e-20)
(0.995786 -0.00260474 -7.26947e-21)
(0.995863 -0.00932672 0)
(0.995874 -0.0159617 0)
(0.995831 -0.0225166 -2.90267e-20)
(0.995741 -0.0289932 1.1832e-18)
(0.995609 -0.035388 3.53897e-18)
(0.995442 -0.0416973 4.72858e-18)
(0.995252 -0.0479181 2.41016e-18)
(0.99505 -0.0540475 -2.37149e-18)
(0.994848 -0.0600827 -2.39288e-18)
(0.994657 -0.0660202 2.4737e-18)
(0.994491 -0.071856 0)
(0.994365 -0.0775844 4.93915e-18)
(0.994299 -0.0831988 -5.11002e-18)
(0.994317 -0.0886949 0)
(0.99445 -0.0940754 0)
(0.994735 -0.0993569 0)
(0.995208 -0.104575 0)
(0.995897 -0.109786 0)
(0.996809 -0.115069 0)
(0.997926 -0.120513 5.38997e-18)
(0.99919 -0.126201 -1.09758e-17)
(1.00051 -0.132195 -5.5922e-18)
(1.00176 -0.138504 5.63686e-18)
(1.0028 -0.145077 5.54104e-18)
(1.00352 -0.15179 -5.76784e-18)
(1.00382 -0.158457 5.86908e-18)
(1.00364 -0.164847 0)
(1.00299 -0.170717 6.16922e-18)
(1.0019 -0.175832 -6.37095e-18)
(1.00044 -0.179988 0)
(0.998688 -0.183028 -1.36656e-17)
(0.996756 -0.184849 7.11035e-18)
(0.994778 -0.185415 -1.48688e-17)
(0.992928 -0.184763 7.75075e-18)
(0.991432 -0.183012 0)
(0.990572 -0.180364 8.23055e-18)
(0.990686 -0.177091 8.48238e-18)
(0.992154 -0.173524 -8.45523e-18)
(0.995405 -0.170024 -8.45556e-18)
(1.00081 -0.166942 8.14411e-18)
(1.00895 -0.164605 0)
(1.01961 -0.163156 0)
(1.03491 -0.162773 5.25641e-18)
(1.0483 -0.162694 0)
(1.07927 -0.16351 1.48277e-18)
(0.977833 0.212617 1.62072e-17)
(0.988995 0.19965 0)
(0.998472 0.199058 -2.40966e-17)
(1.00125 0.199733 2.18307e-17)
(1.00018 0.19759 -2.08182e-17)
(0.99903 0.194434 1.99673e-17)
(0.998399 0.191033 0)
(0.997724 0.187058 1.60212e-19)
(0.996946 0.182455 1.67949e-17)
(0.996278 0.177367 0)
(0.995792 0.171857 0)
(0.995442 0.165931 0)
(0.995188 0.159586 2.77095e-17)
(0.995003 0.152813 0)
(0.994848 0.145595 2.46925e-17)
(0.994672 0.13794 0)
(0.994464 0.130056 4.61844e-17)
(0.994268 0.122182 0)
(0.994123 0.114345 0)
(0.994033 0.10652 -2.20831e-17)
(0.993976 0.0987125 -1.08154e-17)
(0.993935 0.0909551 0)
(0.993917 0.083278 0)
(0.993935 0.0756959 0)
(0.994001 0.0682095 5.26056e-18)
(0.994118 0.0608129 -5.24345e-18)
(0.994282 0.053498 -1.07978e-19)
(0.994483 0.0462562 0)
(0.99471 0.0390787 5.33942e-18)
(0.994951 0.0319617 0)
(0.995195 0.0249066 0)
(0.995431 0.0179168 -2.63436e-18)