/*--------------------------------*- C++ -*----------------------------------*\
| =========                 |                                                 |
| \\      /  F ield         | OpenFOAM: The Open Source CFD Toolbox           |
|  \\    /   O peration     | Version:  v1912                                 |
|   \\  /    A nd           | Website:  www.openfoam.com                      |
|    \\/     M anipulation  |                                                 |
\*---------------------------------------------------------------------------*/
FoamFile
{
    version     2.0;
    format      ascii;
    class       volScalarField;
    location    "500";
    object      k;
}
// * * * * * * * * * * * * * * * * * * * * * * * * * * * * * * * * * * * * * //

dimensions      [0 2 -2 0 0 0 0];


internalField   nonuniform List<scalar> 
10000
(
0.00210246
0.0020607
0.00202105
0.00198684
0.0019592
0.00193879
0.00192599
0.00192092
0.0019234
0.00193305
0.00194929
0.00197136
0.00199832
0.00202908
0.00206238
0.00209693
0.00213149
0.00216507
0.00219645
0.0022219
0.00209854
0.00205658
0.00201686
0.00198258
0.00195484
0.00193429
0.00192132
0.00191604
0.00191832
0.00192776
0.00194382
0.00196573
0.00199257
0.00202323
0.00205649
0.00209103
0.00212563
0.00215929
0.00219076
0.00221203
0.00208919
0.00204711
0.00200729
0.00197284
0.00194484
0.00192394
0.00191055
0.00190481
0.00190659
0.00191557
0.00193118
0.00195272
0.00197927
0.00200974
0.00204289
0.00207744
0.00211213
0.00214597
0.00217767
0.00219555
0.00207403
0.00203192
0.00199197
0.00195727
0.00192887
0.00190744
0.00189339
0.00188691
0.00188792
0.00189613
0.00191105
0.00193198
0.00195804
0.00198817
0.00202115
0.00205569
0.00209052
0.00212464
0.0021567
0.00217258
0.0020528
0.00201072
0.00197064
0.00193564
0.00190675
0.00188462
0.0018697
0.00186223
0.00186219
0.00186935
0.00188328
0.00190334
0.0019287
0.00195833
0.00199102
0.00202549
0.00206048
0.00209495
0.00212749
0.00214277
0.00202526
0.00198327
0.00194309
0.00190777
0.00187831
0.00185537
0.00183942
0.00183073
0.00182937
0.0018352
0.00184785
0.00186676
0.00189116
0.00192007
0.00195232
0.00198664
0.00202175
0.00205662
0.00208973
0.00210566
0.00199116
0.00194934
0.0019091
0.00187348
0.00184343
0.00181961
0.00180249
0.00179241
0.0017895
0.00179372
0.0018048
0.00182226
0.00184541
0.00187335
0.00190495
0.00193898
0.00197414
0.00200938
0.00204313
0.0020607
0.00195026
0.00190866
0.00186845
0.00183257
0.00180196
0.00177724
0.00175888
0.00174728
0.00174264
0.001745
0.00175421
0.0017699
0.00179149
0.00181816
0.00184885
0.00188238
0.00191745
0.00195301
0.0019874
0.00200735
0.00190228
0.00186098
0.00182086
0.00178483
0.00175373
0.00172814
0.00170855
0.00169536
0.00168884
0.00168914
0.00169621
0.00170982
0.00172951
0.00175455
0.00178401
0.00181676
0.00185153
0.00188727
0.00192225
0.00194503
0.00184695
0.00180599
0.00176606
0.00172999
0.00169852
0.00167218
0.00165142
0.00163664
0.00162819
0.00162628
0.001631
0.00164222
0.00165964
0.00168268
0.00171052
0.00174214
0.0017763
0.001812
0.00184744
0.00187323
0.00178393
0.00174338
0.00170374
0.00166776
0.00163609
0.00160916
0.00158736
0.00157111
0.00156075
0.00155657
0.00155877
0.00156735
0.00158216
0.00160279
0.00162858
0.00165862
0.00169179
0.00172712
0.00176278
0.00179147
0.00171291
0.0016728
0.00163356
0.00159781
0.00156614
0.00153883
0.00151623
0.00149867
0.00148653
0.00148014
0.00147975
0.00148552
0.00149743
0.00151525
0.00153851
0.00156649
0.00159816
0.00163266
0.00166819
0.00169942
0.00163354
0.0015939
0.00155518
0.00151981
0.00148833
0.00146091
0.00143777
0.0014192
0.00140552
0.00139708
0.00139418
0.00139707
0.00140588
0.00142056
0.00144083
0.00146618
0.00149578
0.00152889
0.00156378
0.00159692
0.00154551
0.00150631
0.00146824
0.0014334
0.00140231
0.00137505
0.00135171
0.00133248
0.00131762
0.00130742
0.00130223
0.00130234
0.00130799
0.00131931
0.0013362
0.0013584
0.00138528
0.00141631
0.00144991
0.00148409
0.00144853
0.0014097
0.00137239
0.00133826
0.00130777
0.00128093
0.00125774
0.00123825
0.00122263
0.00121112
0.00120401
0.00120162
0.00120426
0.00121216
0.00122544
0.00124404
0.00126758
0.0012958
0.00132731
0.00136144
0.0013424
0.0013038
0.00126733
0.0012341
0.00120443
0.00117828
0.00115557
0.00113624
0.00112035
0.00110803
0.00109952
0.0010951
0.00109508
0.00109977
0.00110941
0.00112415
0.00114386
0.00116856
0.00119715
0.00122996
0.00122711
0.00118852
0.00115291
0.00112074
0.00109212
0.00106694
0.00104503
0.00102627
0.0010106
0.000998042
0.000988735
0.000982886
0.000980767
0.000982694
0.00098897
0.000999883
0.00101552
0.00103615
0.00106102
0.00109126
0.00110292
0.00106407
0.00102922
0.000998227
0.000970882
0.000946948
0.000926182
0.000908374
0.000893381
0.000881137
0.000871667
0.000865081
0.000861571
0.0008614
0.000864866
0.000872318
0.000883975
0.000900316
0.000920927
0.000947454
0.000970581
0.000931222
0.000896956
0.000867119
0.00084119
0.000818741
0.000799414
0.00078292
0.000769036
0.000757612
0.00074858
0.000741949
0.000737812
0.000736344
0.000737781
0.00074245
0.000750619
0.000762871
0.000779058
0.000801131
0.000831574
0.000791604
0.000757756
0.000728985
0.000704486
0.000683637
0.000665945
0.000651026
0.000638579
0.000628382
0.000620286
0.000614214
0.000610162
0.000608206
0.000608488
0.000611257
0.000616745
0.000625532
0.000637632
0.000655051
0.00068855
0.00064816
0.000614782
0.000587056
0.000563955
0.000544692
0.00052866
0.000515386
0.000504501
0.000495723
0.000488841
0.000483711
0.000480252
0.000478449
0.000478347
0.000480093
0.000483835
0.000490061
0.000498831
0.000512003
0.000545749
0.000505623
0.000473232
0.000446885
0.000425353
0.000407722
0.000393306
0.000381578
0.000372135
0.000364664
0.000358925
0.000354739
0.000351978
0.000350569
0.000350483
0.000351776
0.000354502
0.000359016
0.000365352
0.000375052
0.000409254
0.000370731
0.000340496
0.000316457
0.000297165
0.000281596
0.000269009
0.000258857
0.000250737
0.000244341
0.000239439
0.000235856
0.000233463
0.000232173
0.00023193
0.000232738
0.000234597
0.00023774
0.000242161
0.000249028
0.00028647
0.000251508
0.000225162
0.000204865
0.000188959
0.000176332
0.000166223
0.000158095
0.000151565
0.000146353
0.000142257
0.000139126
0.000136853
0.000135365
0.000134612
0.000134589
0.000135284
0.00013685
0.000139281
0.000143371
0.000184379
0.000155134
0.000134396
0.000119156
0.000107636
9.87303e-05
9.17254e-05
8.6145e-05
8.1662e-05
7.80468e-05
7.51355e-05
7.28105e-05
7.09871e-05
6.9607e-05
6.86299e-05
6.80433e-05
6.78343e-05
6.80842e-05
6.87963e-05
7.04195e-05
0.000107199
8.52563e-05
7.09894e-05
6.11811e-05
5.41374e-05
4.89024e-05
4.49049e-05
4.17874e-05
3.93164e-05
3.73347e-05
3.57336e-05
3.44363e-05
3.33878e-05
3.25492e-05
3.18928e-05
3.14049e-05
3.1073e-05
3.09275e-05
3.09686e-05
3.13845e-05
5.50139e-05
4.07051e-05
3.24246e-05
2.72036e-05
2.36921e-05
2.12115e-05
1.93917e-05
1.80176e-05
1.69568e-05
1.61244e-05
1.54637e-05
1.49359e-05
1.45137e-05
1.41781e-05
1.39153e-05
1.37179e-05
1.35795e-05
1.351e-05
1.351e-05
1.3646e-05
2.41575e-05
1.63619e-05
1.24731e-05
1.02672e-05
8.896e-06
7.98575e-06
7.35212e-06
6.8958e-06
6.55932e-06
6.30752e-06
6.11786e-06
5.97537e-06
5.86982e-06
5.79424e-06
5.74372e-06
5.71578e-06
5.7084e-06
5.7257e-06
5.7689e-06
5.86166e-06
8.73186e-06
5.34691e-06
3.9395e-06
3.23644e-06
2.84082e-06
2.60066e-06
2.44822e-06
2.34961e-06
2.28629e-06
2.24742e-06
2.22626e-06
2.2185e-06
2.22127e-06
2.2327e-06
2.25154e-06
2.27734e-06
2.30983e-06
2.35089e-06
2.40175e-06
2.47115e-06
2.49779e-06
1.37995e-06
1.00678e-06
8.49204e-07
7.74595e-07
7.38819e-07
7.23975e-07
7.21679e-07
7.27567e-07
7.39177e-07
7.55035e-07
7.74225e-07
7.96168e-07
8.20518e-07
8.47084e-07
8.7591e-07
9.07105e-07
9.41528e-07
9.79943e-07
1.02561e-06
5.53579e-07
2.80491e-07
2.11184e-07
1.89975e-07
1.85509e-07
1.88607e-07
1.95835e-07
2.05673e-07
2.17361e-07
2.30486e-07
2.44812e-07
2.602e-07
2.76575e-07
2.93907e-07
3.12202e-07
3.31536e-07
3.52017e-07
3.74009e-07
3.97907e-07
4.24923e-07
9.78409e-08
4.73542e-08
3.87979e-08
3.87139e-08
4.15611e-08
4.58789e-08
5.11577e-08
5.71852e-08
6.38626e-08
7.11418e-08
7.90002e-08
8.74302e-08
9.64347e-08
1.06027e-07
1.16229e-07
1.27087e-07
1.38663e-07
1.51108e-07
1.64609e-07
1.79621e-07
1.53104e-08
7.49457e-09
6.99502e-09
7.94456e-09
9.50776e-09
1.14866e-08
1.38222e-08
1.64978e-08
1.9512e-08
2.28702e-08
2.65814e-08
3.0657e-08
3.51103e-08
3.99572e-08
4.52171e-08
5.09178e-08
5.70949e-08
6.38165e-08
7.11723e-08
7.93427e-08
2.4756e-09
1.28281e-09
1.38777e-09
1.80024e-09
2.39772e-09
3.16027e-09
4.08996e-09
5.19538e-09
6.48758e-09
7.97866e-09
9.68136e-09
1.16089e-08
1.3775e-08
1.61945e-08
1.88835e-08
2.18613e-08
2.51513e-08
2.87892e-08
3.28218e-08
3.73282e-08
4.69504e-10
2.61004e-10
3.23906e-10
4.74005e-10
6.94808e-10
9.89727e-10
1.36671e-09
1.83526e-09
2.40562e-09
3.08847e-09
3.89484e-09
4.83612e-09
5.92406e-09
7.17096e-09
8.58989e-09
1.01954e-08
1.20042e-08
1.40379e-08
1.6324e-08
1.89022e-08
1.10113e-10
6.50663e-11
9.0616e-11
1.46979e-10
2.33851e-10
3.56053e-10
5.19884e-10
7.32391e-10
1.00115e-09
1.33416e-09
1.73985e-09
2.22702e-09
2.80486e-09
3.48305e-09
4.27182e-09
5.18227e-09
6.22674e-09
7.41993e-09
8.77953e-09
1.03285e-08
3.18773e-11
1.97262e-11
3.01482e-11
5.328e-11
9.08139e-11
1.46261e-10
2.23895e-10
3.28529e-10
4.65445e-10
6.40363e-10
8.59422e-10
1.12917e-09
1.45657e-09
1.84901e-09
2.31439e-09
2.86121e-09
3.49879e-09
4.23777e-09
5.09049e-09
6.07179e-09
1.11233e-11
7.11691e-12
1.17131e-11
2.22246e-11
4.01239e-11
6.77428e-11
1.07913e-10
1.63892e-10
2.39348e-10
3.38344e-10
4.65338e-10
6.25177e-10
8.23104e-10
1.06477e-09
1.35624e-09
1.70412e-09
2.11558e-09
2.59865e-09
3.16242e-09
3.81736e-09
4.5494e-12
2.98159e-12
5.20573e-12
1.0477e-11
1.98471e-11
3.48624e-11
5.74299e-11
8.97977e-11
1.34555e-10
1.94636e-10
2.73324e-10
3.74252e-10
5.01414e-10
6.59171e-10
8.52267e-10
1.08587e-09
1.36565e-09
1.69784e-09
2.08946e-09
2.54835e-09
2.12543e-12
1.41757e-12
2.59524e-12
5.48592e-12
1.08203e-11
1.96513e-11
3.33029e-11
5.33722e-11
8.17384e-11
1.20573e-10
1.72348e-10
2.39847e-10
3.26169e-10
4.34744e-10
5.69342e-10
7.34103e-10
9.3357e-10
1.17276e-09
1.45725e-09
1.79319e-09
1.10954e-12
7.49686e-13
1.42626e-12
3.14142e-12
6.41064e-12
1.19759e-11
2.07892e-11
3.40227e-11
5.3082e-11
7.96194e-11
1.15546e-10
1.63043e-10
2.24573e-10
3.02887e-10
4.01043e-10
5.22423e-10
6.70757e-10
8.50167e-10
1.06521e-09
1.32091e-09
6.35456e-13
4.33597e-13
8.51228e-13
1.94099e-12
4.07689e-12
7.80101e-12
1.38221e-11
2.30285e-11
3.65038e-11
5.55408e-11
8.16555e-11
1.166e-10
1.62372e-10
2.21231e-10
2.95706e-10
3.88616e-10
5.03084e-10
6.42572e-10
8.10904e-10
1.01229e-09
3.93311e-13
2.70409e-13
5.44797e-13
1.27929e-12
2.7539e-12
5.37855e-12
9.69821e-12
1.64072e-11
2.63646e-11
4.0609e-11
6.0373e-11
8.70959e-11
1.22437e-10
1.68286e-10
2.2678e-10
3.00309e-10
3.91542e-10
5.03442e-10
6.39286e-10
8.02679e-10
2.59854e-13
1.79716e-13
3.69969e-13
8.90777e-13
1.95835e-12
3.89257e-12
7.1252e-12
1.22141e-11
1.98582e-11
3.09125e-11
4.64019e-11
6.75349e-11
9.57163e-11
1.32559e-10
1.79899e-10
2.39802e-10
3.14587e-10
4.06833e-10
5.19402e-10
6.55443e-10
1.81409e-13
1.26056e-13
2.64237e-13
6.49998e-13
1.4551e-12
2.93639e-12
5.44515e-12
9.44091e-12
1.55058e-11
2.43592e-11
3.6871e-11
5.40757e-11
7.71847e-11
1.07599e-10
1.46921e-10
1.96967e-10
2.5978e-10
3.37644e-10
4.33096e-10
5.48934e-10
1.32708e-13
9.2566e-14
1.97022e-13
4.93685e-13
1.12259e-12
2.29523e-12
4.30431e-12
7.53683e-12
1.24879e-11
1.97745e-11
3.0149e-11
4.45122e-11
6.39263e-11
8.96267e-11
1.23034e-10
1.65767e-10
2.19653e-10
2.8674e-10
3.6931e-10
4.69884e-10
1.01028e-13
7.06878e-14
1.52421e-13
3.88071e-13
8.94479e-13
1.84974e-12
3.5029e-12
6.18639e-12
1.03291e-11
1.64695e-11
2.5269e-11
3.75243e-11
5.41805e-11
7.63423e-11
1.05287e-10
1.42473e-10
1.89557e-10
2.484e-10
3.21076e-10
4.09887e-10
7.95798e-14
5.58237e-14
1.21714e-13
3.1421e-13
7.32825e-13
1.53052e-12
2.92317e-12
5.20129e-12
8.7425e-12
1.40242e-11
2.16361e-11
3.22929e-11
4.68461e-11
6.62962e-11
9.18042e-11
1.24703e-10
1.66507e-10
2.18924e-10
2.83866e-10
3.63453e-10
6.4551e-14
4.5378e-14
9.9887e-14
2.6099e-13
6.15001e-13
1.2956e-12
2.49297e-12
4.46493e-12
7.5488e-12
1.21735e-11
1.88719e-11
2.82925e-11
4.12119e-11
5.85462e-11
8.1362e-11
1.10888e-10
1.48525e-10
1.95856e-10
2.54655e-10
3.26896e-10
5.37027e-14
3.78196e-14
8.39375e-14
2.21638e-13
5.26998e-13
1.11865e-12
2.16656e-12
3.90266e-12
6.63211e-12
1.0745e-11
1.6728e-11
2.51765e-11
3.68058e-11
5.24626e-11
7.31364e-11
9.99701e-11
1.3427e-10
1.77516e-10
2.3137e-10
2.97683e-10
4.56681e-14
3.22101e-14
7.19998e-14
1.91878e-13
4.59856e-13
9.82641e-13
1.91408e-12
3.46529e-12
5.91547e-12
9.62312e-12
1.50375e-11
2.27099e-11
3.33055e-11
4.76139e-11
6.65604e-11
9.12166e-11
1.2281e-10
1.62735e-10
2.12559e-10
2.74031e-10
3.95829e-14
2.79542e-14
6.28755e-14
1.68924e-13
4.07669e-13
8.76237e-13
1.71545e-12
3.1195e-12
5.34638e-12
8.72867e-12
1.36847e-11
2.07296e-11
3.04864e-11
4.36975e-11
6.12344e-11
8.41089e-11
1.13483e-10
1.50678e-10
1.97181e-10
2.54658e-10
3.48835e-14
2.46626e-14
5.57733e-14
1.50914e-13
3.66443e-13
7.91699e-13
1.55685e-12
2.84221e-12
4.88823e-12
8.00606e-12
1.25883e-11
1.91197e-11
2.81885e-11
4.04969e-11
5.68714e-11
7.82734e-11
1.05809e-10
1.40738e-10
1.84481e-10
2.3863e-10
3.11917e-14
2.20735e-14
5.01554e-14
1.36568e-13
3.33404e-13
7.23608e-13
1.42856e-12
2.61703e-12
4.51492e-12
7.41541e-12
1.16895e-11
1.77966e-11
2.62953e-11
3.7854e-11
5.32609e-11
7.34348e-11
9.94341e-11
1.32466e-10
1.73895e-10
2.2525e-10
2.82483e-14
2.0007e-14
4.56493e-14
1.24989e-13
3.06598e-13
6.68115e-13
1.32359e-12
2.43217e-12
4.20752e-12
6.92771e-12
1.09455e-11
1.66988e-11
2.47211e-11
3.5652e-11
5.02471e-11
6.93887e-11
9.40944e-11
1.25527e-10
1.65001e-10
2.13993e-10
2.587e-14
1.83356e-14
4.1989e-14
1.15532e-13
2.84601e-13
6.22397e-13
1.23682e-12
2.2789e-12
3.95195e-12
6.52125e-12
1.03241e-11
1.578e-11
2.3401e-11
3.3802e-11
4.77109e-11
6.59784e-11
8.95872e-11
1.19661e-10
1.57474e-10
2.04455e-10
2.39268e-14
1.69689e-14
3.89845e-14
1.07732e-13
2.66383e-13
5.84398e-13
1.16448e-12
2.15078e-12
3.73781e-12
6.17994e-12
9.80121e-12
1.50054e-11
2.22862e-11
3.22374e-11
4.55628e-11
6.30858e-11
8.57593e-11
1.14674e-10
1.51066e-10
1.96325e-10
2.23217e-14
1.58392e-14
3.64927e-14
1.01234e-13
2.51151e-13
5.52531e-13
1.10365e-12
2.04279e-12
3.55693e-12
5.89108e-12
9.35791e-12
1.43477e-11
2.13382e-11
3.09049e-11
4.37308e-11
6.06159e-11
8.24867e-11
1.10405e-10
1.45575e-10
1.89354e-10
2.09855e-14
1.48981e-14
3.44107e-14
9.57853e-14
2.38335e-13
5.25643e-13
1.05221e-12
1.95126e-12
3.40333e-12
5.64536e-12
8.98022e-12
1.37864e-11
2.05281e-11
2.97649e-11
4.21616e-11
5.84979e-11
7.96776e-11
1.06737e-10
1.40854e-10
1.83353e-10
1.98623e-14
1.41066e-14
3.26551e-14
9.11744e-14
2.27458e-13
5.02768e-13
1.00834e-12
1.87308e-12
3.27191e-12
5.43481e-12
8.65612e-12
1.33042e-11
1.98313e-11
2.87831e-11
4.08087e-11
5.66701e-11
7.72511e-11
1.03566e-10
1.36768e-10
1.78156e-10
1.89138e-14
1.34379e-14
3.11683e-14
8.7258e-14
2.18196e-13
4.83245e-13
9.70839e-13
1.80611e-12
3.15917e-12
5.25393e-12
8.37735e-12
1.2889e-11
1.92305e-11
2.79358e-11
3.96402e-11
5.50899e-11
7.51514e-11
1.0082e-10
1.33227e-10
1.7365e-10
1.81051e-14
1.28675e-14
2.98975e-14
8.39016e-14
2.1024e-13
4.66442e-13
9.38503e-13
1.74829e-12
3.0617e-12
5.09736e-12
8.13576e-12
1.25287e-11
1.87088e-11
2.71994e-11
3.86236e-11
5.37141e-11
7.33221e-11
9.84257e-11
1.30138e-10
1.69716e-10
1.74148e-14
1.23804e-14
2.88104e-14
8.10233e-14
2.03403e-13
4.51978e-13
9.10625e-13
1.69837e-12
2.97745e-12
4.96187e-12
7.9265e-12
1.22164e-11
1.82561e-11
2.65598e-11
3.774e-11
5.25174e-11
7.17298e-11
9.63403e-11
1.27446e-10
1.66285e-10
1.68196e-14
1.19602e-14
2.78711e-14
7.8531e-14
1.97472e-13
4.3941e-13
8.86371e-13
1.65489e-12
2.90398e-12
4.84361e-12
7.74367e-12
1.19432e-11
1.786e-11
2.59997e-11
3.69657e-11
5.14681e-11
7.03327e-11
9.45096e-11
1.25081e-10
1.6327e-10
1.63073e-14
1.15986e-14
2.70613e-14
7.63783e-14
1.9234e-13
4.28521e-13
8.65331e-13
1.61713e-12
2.84012e-12
4.74071e-12
7.58446e-12
1.17052e-11
1.75145e-11
2.55109e-11
3.62896e-11
5.05512e-11
6.91112e-11
9.29082e-11
1.23012e-10
1.60631e-10
1.58615e-14
1.12837e-14
2.63555e-14
7.44988e-14
1.87853e-13
4.18988e-13
8.4689e-13
1.58401e-12
2.78404e-12
4.65028e-12
7.44445e-12
1.14958e-11
1.72103e-11
2.50802e-11
3.56935e-11
4.97425e-11
6.80333e-11
9.14944e-11
1.21184e-10
1.58298e-10
1.5475e-14
1.10107e-14
2.57426e-14
7.28641e-14
1.83945e-13
4.10677e-13
8.30795e-13
1.55507e-12
2.73501e-12
4.57118e-12
7.32188e-12
1.13123e-11
1.69436e-11
2.47025e-11
3.51704e-11
4.90324e-11
6.70866e-11
9.0252e-11
1.19577e-10
1.56247e-10
1.51362e-14
1.07713e-14
2.52049e-14
7.1428e-14
1.80508e-13
4.03359e-13
8.16612e-13
1.52955e-12
2.69174e-12
4.50131e-12
7.21357e-12
1.11501e-11
1.67077e-11
2.43682e-11
3.47073e-11
4.84035e-11
6.62476e-11
8.91506e-11
1.18152e-10
1.54427e-10
1.48396e-14
1.05617e-14
2.47334e-14
7.01671e-14
1.77487e-13
3.9692e-13
8.04125e-13
1.50706e-12
2.6536e-12
4.43967e-12
7.11796e-12
1.10068e-11
1.64993e-11
2.40727e-11
3.42977e-11
4.7847e-11
6.5505e-11
8.81755e-11
1.1689e-10
1.52815e-10
1.45785e-14
1.03772e-14
2.43181e-14
6.90553e-14
1.74821e-13
3.91233e-13
7.93085e-13
1.48717e-12
2.61983e-12
4.38509e-12
7.03324e-12
1.08798e-11
1.63144e-11
2.38105e-11
3.39341e-11
4.7353e-11
6.48455e-11
8.73091e-11
1.15768e-10
1.51382e-10
1.43507e-14
1.02161e-14
2.39553e-14
6.8083e-14
1.72487e-13
3.86251e-13
7.83409e-13
1.46972e-12
2.5902e-12
4.33716e-12
6.95883e-12
1.07681e-11
1.61519e-11
2.35799e-11
3.36143e-11
4.69181e-11
6.42648e-11
8.65461e-11
1.1478e-10
1.50119e-10
1.41515e-14
1.00753e-14
2.36378e-14
6.72314e-14
1.70441e-13
3.81881e-13
7.74915e-13
1.4544e-12
2.56416e-12
4.29504e-12
6.89339e-12
1.06699e-11
1.60089e-11
2.33769e-11
3.33326e-11
4.6535e-11
6.37531e-11
8.58735e-11
1.13909e-10
1.49005e-10
1.39749e-14
9.95044e-15
2.33563e-14
6.64756e-14
1.68624e-13
3.77997e-13
7.67363e-13
1.44077e-12
2.54099e-12
4.25752e-12
6.8351e-12
1.05824e-11
1.58814e-11
2.31959e-11
3.30813e-11
4.61933e-11
6.32965e-11
8.52732e-11
1.13131e-10
1.48011e-10
1.38183e-14
9.83967e-15
2.31063e-14
6.5804e-14
1.67008e-13
3.74542e-13
7.60641e-13
1.42863e-12
2.52035e-12
4.2241e-12
6.78314e-12
1.05044e-11
1.57677e-11
2.30344e-11
3.28571e-11
4.58882e-11
6.28888e-11
8.47371e-11
1.12436e-10
1.47122e-10
1.36795e-14
9.74151e-15
2.28846e-14
6.52082e-14
1.65574e-13
3.71473e-13
7.54668e-13
1.41784e-12
2.50199e-12
4.19436e-12
6.73689e-12
1.0435e-11
1.56664e-11
2.28905e-11
3.26573e-11
4.56163e-11
6.25254e-11
8.42591e-11
1.11817e-10
1.4633e-10
1.35565e-14
9.65451e-15
2.26881e-14
6.46795e-14
1.64301e-13
3.68748e-13
7.49361e-13
1.40825e-12
2.48567e-12
4.16791e-12
6.69575e-12
1.03732e-11
1.55763e-11
2.27625e-11
3.24794e-11
4.53742e-11
6.22016e-11
8.38332e-11
1.11265e-10
1.45624e-10
1.34474e-14
9.57729e-15
2.25136e-14
6.42098e-14
1.63169e-13
3.66324e-13
7.44639e-13
1.39972e-12
2.47114e-12
4.14436e-12
6.65911e-12
1.03181e-11
1.54959e-11
2.26483e-11
3.23208e-11
4.51582e-11
6.19129e-11
8.34532e-11
1.10772e-10
1.44993e-10
1.33504e-14
9.50871e-15
2.23586e-14
6.37923e-14
1.62163e-13
3.64168e-13
7.40438e-13
1.39212e-12
2.4582e-12
4.12338e-12
6.62646e-12
1.0269e-11
1.54243e-11
2.25465e-11
3.21794e-11
4.49656e-11
6.16553e-11
8.31142e-11
1.10332e-10
1.4443e-10
1.32641e-14
9.44767e-15
2.22205e-14
6.34204e-14
1.61266e-13
3.62246e-13
7.36691e-13
1.38534e-12
2.44666e-12
4.10466e-12
6.59732e-12
1.02252e-11
1.53604e-11
2.24556e-11
3.20531e-11
4.47936e-11
6.14251e-11
8.28112e-11
1.09939e-10
1.43927e-10
1.31874e-14
9.39336e-15
2.20977e-14
6.30893e-14
1.60467e-13
3.60533e-13
7.33352e-13
1.3793e-12
2.43636e-12
4.08797e-12
6.57132e-12
1.01861e-11
1.53034e-11
2.23745e-11
3.19403e-11
4.46399e-11
6.12195e-11
8.25406e-11
1.09588e-10
1.43478e-10
1.3119e-14
9.34498e-15
2.19882e-14
6.27942e-14
1.59755e-13
3.59006e-13
7.30373e-13
1.37391e-12
2.42718e-12
4.07306e-12
6.54811e-12
1.01512e-11
1.52524e-11
2.2302e-11
3.18395e-11
4.45026e-11
6.10358e-11
8.22987e-11
1.09274e-10
1.43076e-10
1.3058e-14
9.3018e-15
2.18905e-14
6.25305e-14
1.59118e-13
3.57641e-13
7.2771e-13
1.36909e-12
2.41896e-12
4.05973e-12
6.52735e-12
1.012e-11
1.52068e-11
2.22371e-11
3.17493e-11
4.43797e-11
6.08713e-11
8.20821e-11
1.08993e-10
1.42716e-10
1.30038e-14
9.26347e-15
2.18037e-14
6.22964e-14
1.58553e-13
3.56427e-13
7.25343e-13
1.36481e-12
2.41165e-12
4.04787e-12
6.50888e-12
1.00922e-11
1.51662e-11
2.21794e-11
3.1669e-11
4.42703e-11
6.07248e-11
8.18893e-11
1.08743e-10
1.42396e-10
1.2955e-14
9.22894e-15
2.17255e-14
6.20854e-14
1.58043e-13
3.55334e-13
7.23209e-13
1.36094e-12
2.40507e-12
4.03717e-12
6.49221e-12
1.00671e-11
1.51296e-11
2.21273e-11
3.15965e-11
4.41715e-11
6.05926e-11
8.17152e-11
1.08517e-10
1.42107e-10
1.29123e-14
9.19868e-15
2.1657e-14
6.19004e-14
1.57596e-13
3.54375e-13
7.21336e-13
1.35755e-12
2.39928e-12
4.02779e-12
6.47758e-12
1.00451e-11
1.50974e-11
2.20815e-11
3.15329e-11
4.40847e-11
6.04764e-11
8.15621e-11
1.08318e-10
1.41852e-10
1.28729e-14
9.17082e-15
2.15939e-14
6.17301e-14
1.57185e-13
3.53491e-13
7.19611e-13
1.35443e-12
2.39395e-12
4.01913e-12
6.4641e-12
1.00248e-11
1.50678e-11
2.20393e-11
3.14742e-11
4.40047e-11
6.03694e-11
8.14211e-11
1.08135e-10
1.41618e-10
1.28394e-14
9.14711e-15
2.15402e-14
6.1585e-14
1.56834e-13
3.52738e-13
7.18141e-13
1.35176e-12
2.38941e-12
4.01175e-12
6.4526e-12
1.00075e-11
1.50425e-11
2.20033e-11
3.14241e-11
4.39364e-11
6.02779e-11
8.13006e-11
1.07979e-10
1.41417e-10
1.28072e-14
9.12432e-15
2.14885e-14
6.14456e-14
1.56497e-13
3.52014e-13
7.16728e-13
1.3492e-12
2.38504e-12
4.00467e-12
6.44155e-12
9.99084e-12
1.50182e-11
2.19687e-11
3.1376e-11
4.38708e-11
6.01901e-11
8.11849e-11
1.07829e-10
1.41225e-10
1.27812e-14
9.10592e-15
2.14468e-14
6.13329e-14
1.56225e-13
3.51429e-13
7.15585e-13
1.34713e-12
2.38151e-12
3.99893e-12
6.4326e-12
9.97737e-12
1.49985e-11
2.19407e-11
3.1337e-11
4.38176e-11
6.01188e-11
8.1091e-11
1.07707e-10
1.41068e-10
1.27545e-14
9.08702e-15
2.1404e-14
6.12172e-14
1.55945e-13
3.50829e-13
7.14412e-13
1.34501e-12
2.37789e-12
3.99304e-12
6.42342e-12
9.96355e-12
1.49783e-11
2.1912e-11
3.1297e-11
4.37631e-11
6.00459e-11
8.09949e-11
1.07582e-10
1.40909e-10
1.27347e-14
9.07302e-15
2.13723e-14
6.11314e-14
1.55737e-13
3.50383e-13
7.13542e-13
1.34343e-12
2.37519e-12
3.98866e-12
6.4166e-12
9.95327e-12
1.49633e-11
2.18906e-11
3.12672e-11
4.37225e-11
5.99914e-11
8.09231e-11
1.07489e-10
1.40789e-10
1.27121e-14
9.05699e-15
2.13359e-14
6.10333e-14
1.555e-13
3.49873e-13
7.12547e-13
1.34163e-12
2.37212e-12
3.98367e-12
6.40882e-12
9.94156e-12
1.49462e-11
2.18662e-11
3.12333e-11
4.36763e-11
5.99296e-11
8.08416e-11
1.07383e-10
1.40654e-10
1.26972e-14
9.04646e-15
2.1312e-14
6.09687e-14
1.55344e-13
3.49538e-13
7.1189e-13
1.34044e-12
2.37009e-12
3.98037e-12
6.40367e-12
9.9338e-12
1.49348e-11
2.185e-11
3.12108e-11
4.36456e-11
5.98884e-11
8.07874e-11
1.07313e-10
1.40563e-10
1.26772e-14
9.03232e-15
2.128e-14
6.08821e-14
1.55135e-13
3.49088e-13
7.11013e-13
1.33885e-12
2.36737e-12
3.97596e-12
6.39681e-12
9.92348e-12
1.49198e-11
2.18286e-11
3.1181e-11
4.36049e-11
5.9834e-11
8.07157e-11
1.07219e-10
1.40444e-10
1.26649e-14
9.02359e-15
2.12602e-14
6.08286e-14
1.55005e-13
3.4881e-13
7.10469e-13
1.33786e-12
2.36569e-12
3.97323e-12
6.39254e-12
9.91705e-12
1.49104e-11
2.18152e-11
3.11623e-11
4.35795e-11
5.97999e-11
8.06707e-11
1.07161e-10
1.40369e-10
1.26529e-14
9.01515e-15
2.12411e-14
6.07769e-14
1.5488e-13
3.48541e-13
7.09944e-13
1.33691e-12
2.36407e-12
3.97059e-12
6.38842e-12
9.91085e-12
1.49013e-11
2.18023e-11
3.11444e-11
4.3555e-11
5.97671e-11
8.06275e-11
1.07105e-10
1.40297e-10
1.26422e-14
9.00755e-15
2.12238e-14
6.07303e-14
1.54767e-13
3.48299e-13
7.09471e-13
1.33605e-12
2.3626e-12
3.96821e-12
6.38471e-12
9.90526e-12
1.48931e-11
2.17907e-11
3.11282e-11
4.35329e-11
5.97375e-11
8.05885e-11
1.07054e-10
1.40232e-10
1.26314e-14
8.99993e-15
2.12066e-14
6.06836e-14
1.54655e-13
3.48057e-13
7.08997e-13
1.33519e-12
2.36114e-12
3.96583e-12
6.38101e-12
9.89968e-12
1.4885e-11
2.17791e-11
3.1112e-11
4.35109e-11
5.9708e-11
8.05497e-11
1.07004e-10
1.40168e-10
1.26242e-14
8.99477e-15
2.11949e-14
6.0652e-14
1.54578e-13
3.47892e-13
7.08676e-13
1.33461e-12
2.36014e-12
3.96421e-12
6.37848e-12
9.89588e-12
1.48794e-11
2.17711e-11
3.1101e-11
4.34959e-11
5.96879e-11
8.05231e-11
1.06969e-10
1.40124e-10
1.25863e-14
8.96797e-15
2.11342e-14
6.04881e-14
1.54182e-13
3.47042e-13
7.07018e-13
1.33161e-12
2.35503e-12
3.95592e-12
6.36557e-12
9.87648e-12
1.48511e-11
2.17309e-11
3.10451e-11
4.34198e-11
5.95862e-11
8.03894e-11
1.06796e-10
1.39902e-10
0.00752973
0.00756608
0.00703645
0.00671173
0.00649809
0.00631899
0.00616149
0.0060252
0.00590766
0.00580516
0.00571447
0.00563318
0.00555959
0.00549243
0.00543072
0.0053737
0.00532077
0.00527142
0.00522523
0.00518185
0.00514099
0.00510241
0.00506587
0.0050312
0.00499823
0.00496681
0.00493682
0.00490815
0.00488069
0.00485436
0.00482907
0.00480476
0.00478136
0.00475881
0.00473705
0.00471604
0.00469574
0.00467609
0.00465708
0.00463865
0.00462079
0.00460345
0.00458662
0.00457026
0.00455436
0.0045389
0.00452385
0.00450919
0.00449491
0.00448099
0.00446742
0.00445418
0.00444125
0.00442863
0.0044163
0.00440426
0.00439248
0.00438096
0.00436969
0.00435866
0.00434787
0.00433729
0.00432693
0.00431678
0.00430682
0.00429706
0.00428749
0.00427809
0.00426887
0.00425981
0.00425092
0.00424218
0.0042336
0.00422513
0.00421686
0.00420853
0.00420079
0.00419175
0.0041863
0.00417411
0.00264851
0.00347812
0.00461
0.00539572
0.00571577
0.00579872
0.00580153
0.0057787
0.00574458
0.00570407
0.00566022
0.00561514
0.00557018
0.00552611
0.00548336
0.00544215
0.00540255
0.00536457
0.00532818
0.00529331
0.00525989
0.00522784
0.0051971
0.00516756
0.00513918
0.00511187
0.00508557
0.00506023
0.00503578
0.00501217
0.00498936
0.00496731
0.00494596
0.00492529
0.00490525
0.00488582
0.00486696
0.00484865
0.00483086
0.00481356
0.00479673
0.00478035
0.0047644
0.00474886
0.00473372
0.00471895
0.00470454
0.00469048
0.00467676
0.00466335
0.00465025
0.00463745
0.00462493
0.00461268
0.0046007
0.00458898
0.00457749
0.00456625
0.00455523
0.00454443
0.00453385
0.00452347
0.00451329
0.0045033
0.00449349
0.00448387
0.00447442
0.00446514
0.00445603
0.00444707
0.00443827
0.00442962
0.00442111
0.00441275
0.00440451
0.00439644
0.00438839
0.00438076
0.00437271
0.00436311
0.00202742
0.00194511
0.00221479
0.00278194
0.0033999
0.00389135
0.00422874
0.00445133
0.00459872
0.00469668
0.00476115
0.00480252
0.00482774
0.0048416
0.00484735
0.0048473
0.00484303
0.00483571
0.00482617
0.004815
0.00480267
0.0047895
0.00477575
0.00476161
0.00474723
0.00473271
0.00471815
0.00470361
0.00468915
0.00467479
0.00466057
0.00464652
0.00463265
0.00461898
0.00460551
0.00459225
0.0045792
0.00456637
0.00455376
0.00454136
0.00452918
0.00451722
0.00450546
0.00449392
0.00448258
0.00447144
0.0044605
0.00444975
0.0044392
0.00442883
0.00441864
0.00440863
0.0043988
0.00438913
0.00437964
0.0043703
0.00436112
0.0043521
0.00434323
0.0043345
0.00432591
0.00431746
0.00430915
0.00430097
0.00429291
0.00428499
0.00427718
0.00426949
0.00426193
0.00425447
0.00424713
0.00423989
0.00423276
0.00422574
0.0042188
0.00421201
0.0042052
0.00419866
0.00419241
0.00418295
0.00200613
0.00182019
0.00173128
0.00181771
0.00208796
0.00247208
0.00287316
0.00322599
0.00350965
0.00372883
0.00389592
0.00402299
0.00411979
0.00419371
0.00425026
0.00429352
0.00432652
0.00435153
0.00437024
0.00438398
0.00439372
0.00440026
0.0044042
0.00440603
0.00440612
0.00440478
0.00440228
0.0043988
0.00439452
0.00438957
0.00438408
0.00437813
0.00437181
0.00436518
0.00435831
0.00435123
0.004344
0.00433664
0.00432918
0.00432166
0.00431408
0.00430648
0.00429887
0.00429126
0.00428365
0.00427608
0.00426853
0.00426103
0.00425357
0.00424616
0.00423881
0.00423152
0.00422428
0.00421712
0.00421002
0.004203
0.00419604
0.00418915
0.00418234
0.0041756
0.00416893
0.00416233
0.0041558
0.00414934
0.00414296
0.00413664
0.0041304
0.00412422
0.00411812
0.00411209
0.00410612
0.00410023
0.0040944
0.00408864
0.00408293
0.00407734
0.00407169
0.00406629
0.00406113
0.00405315
0.00200899
0.0018473
0.00170841
0.00163167
0.00164735
0.00176949
0.00198481
0.00225589
0.00253968
0.00280476
0.0030361
0.00323065
0.00339134
0.00352313
0.00363106
0.00371957
0.00379234
0.00385236
0.00390199
0.00394313
0.00397729
0.00400567
0.00402924
0.00404878
0.00406493
0.00407821
0.00408906
0.00409782
0.0041048
0.00411024
0.00411436
0.00411733
0.0041193
0.0041204
0.00412075
0.00412044
0.00411955
0.00411815
0.00411631
0.00411408
0.00411151
0.00410864
0.00410551
0.00410215
0.00409858
0.00409485
0.00409096
0.00408694
0.0040828
0.00407857
0.00407426
0.00406987
0.00406543
0.00406093
0.0040564
0.00405183
0.00404724
0.00404263
0.004038
0.00403337
0.00402873
0.00402408
0.00401945
0.00401482
0.00401019
0.00400558
0.00400098
0.0039964
0.00399184
0.0039873
0.00398278
0.00397829
0.00397382
0.00396939
0.00396496
0.00396062
0.00395619
0.00395197
0.00394792
0.00394146
0.00199972
0.00186749
0.00173756
0.0016306
0.00156275
0.00154777
0.00159546
0.00170707
0.00187216
0.00207111
0.00228217
0.00248786
0.00267753
0.00284654
0.00299417
0.00312176
0.00323147
0.00332565
0.00340653
0.00347609
0.00353602
0.00358778
0.00363257
0.00367142
0.00370518
0.00373455
0.00376013
0.00378244
0.00380189
0.00381886
0.00383364
0.00384651
0.0038577
0.00386739
0.00387575
0.00388295
0.0038891
0.00389432
0.0038987
0.00390234
0.00390531
0.00390767
0.0039095
0.00391084
0.00391174
0.00391224
0.00391238
0.00391221
0.00391173
0.003911
0.00391003
0.00390884
0.00390745
0.00390589
0.00390416
0.00390229
0.00390029
0.00389817
0.00389593
0.0038936
0.00389118
0.00388868
0.0038861
0.00388346
0.00388076
0.003878
0.00387519
0.00387234
0.00386946
0.00386654
0.00386359
0.00386062
0.00385763
0.00385463
0.0038516
0.0038486
0.0038455
0.00384254
0.0038397
0.00383475
0.00197787
0.00186988
0.00175696
0.00165225
0.0015653
0.00150382
0.00147475
0.00148408
0.0015353
0.00162738
0.00175385
0.00190403
0.00206597
0.00222912
0.0023859
0.00253182
0.00266479
0.00278439
0.00289112
0.00298593
0.00306999
0.00314448
0.0032105
0.00326907
0.00332112
0.00336742
0.00340868
0.00344551
0.00347843
0.0035079
0.00353431
0.003558
0.00357928
0.0035984
0.00361559
0.00363106
0.00364498
0.0036575
0.00366876
0.00367888
0.00368797
0.00369613
0.00370344