/*--------------------------------*- C++ -*----------------------------------*\
| =========                 |                                                 |
| \\      /  F ield         | OpenFOAM: The Open Source CFD Toolbox           |
|  \\    /   O peration     | Version:  v1912                                 |
|   \\  /    A nd           | Website:  www.openfoam.com                      |
|    \\/     M anipulation  |                                                 |
\*---------------------------------------------------------------------------*/
FoamFile
{
    version     2.0;
    format      ascii;
    class       volScalarField;
    location    "500";
    object      p;
}
// * * * * * * * * * * * * * * * * * * * * * * * * * * * * * * * * * * * * * //

dimensions      [0 2 -2 0 0 0 0];


internalField   nonuniform List<scalar> 
10000
(
0.00215398
0.00215653
0.00216396
0.00217581
0.0021918
0.00221219
0.00223748
0.00226825
0.00230522
0.00234935
0.0024019
0.00246482
0.00254018
0.002633
0.00274514
0.00289717
0.00307194
0.00340557
0.00365131
0.00603302
0.00215398
0.00215653
0.00216396
0.00217581
0.0021918
0.00221218
0.00223747
0.00226824
0.00230521
0.00234934
0.00240189
0.0024648
0.00254016
0.00263298
0.00274511
0.00289711
0.00307191
0.00340516
0.00365703
0.00536853
0.00215398
0.00215652
0.00216395
0.0021758
0.00219179
0.00221218
0.00223746
0.00226823
0.0023052
0.00234933
0.00240187
0.00246478
0.00254013
0.00263293
0.00274506
0.00289701
0.00307181
0.00340456
0.00365935
0.00514576
0.00215397
0.00215652
0.00216394
0.00217579
0.00219178
0.00221216
0.00223745
0.00226822
0.00230518
0.0023493
0.00240184
0.00246474
0.00254008
0.00263286
0.00274496
0.00289684
0.00307164
0.00340367
0.0036598
0.00513172
0.00215396
0.0021565
0.00216393
0.00217578
0.00219176
0.00221214
0.00223743
0.00226819
0.00230515
0.00234927
0.0024018
0.00246468
0.00254001
0.00263276
0.00274483
0.0028966
0.00307139
0.00340244
0.00365967
0.00511482
0.00215395
0.00215649
0.00216391
0.00217576
0.00219174
0.00221212
0.0022374
0.00226816
0.00230511
0.00234922
0.00240174
0.0024646
0.00253991
0.00263262
0.00274466
0.00289628
0.00307105
0.00340085
0.00365897
0.00507308
0.00215393
0.00215647
0.00216388
0.00217573
0.00219171
0.00221209
0.00223736
0.00226811
0.00230506
0.00234915
0.00240166
0.0024645
0.00253978
0.00263244
0.00274444
0.00289587
0.00307062
0.00339888
0.00365764
0.0050235
0.00215391
0.00215644
0.00216385
0.0021757
0.00219168
0.00221205
0.00223731
0.00226806
0.00230499
0.00234908
0.00240156
0.00246438
0.00253963
0.00263223
0.00274416
0.00289536
0.00307007
0.0033965
0.00365573
0.00497254
0.00215388
0.00215641
0.00216382
0.00217566
0.00219163
0.002212
0.00223726
0.00226799
0.00230492
0.00234898
0.00240145
0.00246424
0.00253944
0.00263197
0.00274383
0.00289475
0.0030694
0.00339367
0.0036533
0.00492019
0.00215385
0.00215637
0.00216377
0.00217561
0.00219158
0.00221194
0.00223719
0.00226792
0.00230482
0.00234887
0.00240131
0.00246406
0.00253923
0.00263166
0.00274344
0.00289403
0.00306858
0.00339036
0.00365034
0.00486592
0.0021538
0.00215632
0.00216371
0.00217556
0.00219152
0.00221187
0.00223711
0.00226783
0.00230472
0.00234874
0.00240115
0.00246386
0.00253897
0.0026313
0.00274297
0.00289318
0.00306761
0.00338653
0.00364686
0.00480968
0.00215376
0.00215626
0.00216365
0.00217549
0.00219145
0.00221179
0.00223702
0.00226772
0.00230459
0.00234859
0.00240097
0.00246363
0.00253867
0.00263088
0.00274243
0.00289218
0.00306647
0.00338215
0.0036428
0.0047516
0.0021537
0.00215619
0.00216357
0.00217541
0.00219136
0.00221169
0.00223691
0.00226759
0.00230444
0.00234842
0.00240076
0.00246336
0.00253833
0.0026304
0.00274181
0.00289104
0.00306513
0.00337716
0.00363813
0.00469176
0.00215363
0.00215611
0.00216348
0.00217532
0.00219126
0.00221158
0.00223678
0.00226745
0.00230427
0.00234821
0.00240051
0.00246304
0.00253793
0.00262984
0.00274108
0.00288973
0.00306358
0.00337153
0.00363279
0.00463026
0.00215355
0.00215602
0.00216338
0.00217521
0.00219115
0.00221145
0.00223664
0.00226728
0.00230408
0.00234798
0.00240023
0.00246269
0.00253747
0.00262921
0.00274026
0.00288823
0.00306179
0.00336521
0.0036267
0.00456721
0.00215345
0.00215591
0.00216326
0.00217509
0.00219102
0.00221131
0.00223647
0.00226709
0.00230385
0.00234771
0.0023999
0.00246228
0.00253696
0.00262848
0.00273931
0.00288653
0.00305973
0.00335817
0.00361977
0.00450273
0.00215334
0.00215578
0.00216312
0.00217494
0.00219086
0.00221114
0.00223628
0.00226687
0.0023036
0.00234741
0.00239953
0.00246181
0.00253636
0.00262766
0.00273823
0.00288461
0.00305736
0.00335037
0.00361191
0.00443697
0.00215321
0.00215564
0.00216296
0.00217478
0.00219069
0.00221094
0.00223606
0.00226662
0.00230331
0.00234706
0.00239911
0.00246128
0.00253569
0.00262672
0.002737
0.00288244
0.00305465
0.00334176
0.00360297
0.00437014
0.00215306
0.00215547
0.00216277
0.00217459
0.00219049
0.00221072
0.00223581
0.00226633
0.00230297
0.00234667
0.00239863
0.00246069
0.00253493
0.00262566
0.00273561
0.00288
0.00305156
0.00333233
0.00359283
0.00430244
0.00215289
0.00215529
0.00216257
0.00217438
0.00219027
0.00221047
0.00223553
0.00226601
0.0023026
0.00234622
0.00239809
0.00246001
0.00253407
0.00262447
0.00273402
0.00287726
0.00304803
0.00332204
0.00358133
0.00423415
0.00215269
0.00215507
0.00216233
0.00217414
0.00219001
0.00221019
0.00223521
0.00226564
0.00230218
0.00234572
0.00239749
0.00245924
0.0025331
0.00262313
0.00273223
0.0028742
0.00304402
0.00331087
0.00356829
0.00416556
0.00215246
0.00215482
0.00216206
0.00217386
0.00218972
0.00220987
0.00223485
0.00226523
0.0023017
0.00234516
0.0023968
0.00245839
0.002532
0.00262162
0.00273021
0.0028708
0.00303946
0.0032988
0.00355355
0.00409701
0.0021522
0.00215454
0.00216176
0.00217355
0.00218939
0.00220951
0.00223444
0.00226477
0.00230117
0.00234452
0.00239603
0.00245742
0.00253077
0.00261993
0.00272794
0.00286702
0.00303429
0.0032858
0.00353692
0.00402879
0.0021519
0.00215422
0.00216142
0.0021732
0.00218902
0.0022091
0.00223398
0.00226425
0.00230057
0.00234381
0.00239517
0.00245634
0.00252939
0.00261805
0.00272538
0.00286284
0.00302846
0.00327185
0.00351829
0.00396119
0.00215155
0.00215386
0.00216103
0.0021728
0.0021886
0.00220864
0.00223347
0.00226367
0.00229989
0.00234301
0.0023942
0.00245513
0.00252784
0.00261594
0.00272252
0.00285821
0.0030219
0.00325693
0.00349755
0.00389443
0.00215115
0.00215345
0.0021606
0.00217234
0.00218812
0.00220811
0.00223289
0.00226301
0.00229913
0.00234211
0.00239311
0.00245377
0.0025261
0.00261357
0.00271929
0.00285309
0.00301453
0.00324097
0.00347463
0.00382863
0.0021507
0.00215299
0.00216011
0.00217183
0.00218758
0.00220752
0.00223223
0.00226226
0.00229826
0.00234109
0.00239188
0.00245223
0.00252414
0.00261092
0.00271567
0.00284741
0.00300626
0.0032239
0.00344951
0.00376384
0.00215019
0.00215246
0.00215955
0.00217125
0.00218696
0.00220685
0.00223148
0.00226141
0.00229729
0.00233994
0.00239049
0.0024505
0.00252192
0.00260794
0.0027116
0.00284111
0.00299701
0.00320567
0.00342222
0.00370007
0.00214961
0.00215186
0.00215892
0.00217059
0.00218626
0.00220609
0.00223063
0.00226046
0.00229618
0.00233864
0.00238892
0.00244855
0.00251943
0.0026046
0.00270703
0.00283413
0.00298672
0.00318622
0.00339284
0.00363729
0.00214894
0.00215118
0.00215822
0.00216985
0.00218547
0.00220523
0.00222968
0.00225938
0.00229494
0.00233717
0.00238714
0.00244635
0.00251663
0.00260085
0.00270191
0.00282642
0.00297533
0.00316552
0.00336144
0.00357546
0.00214819
0.00215042
0.00215742
0.00216901
0.00218458
0.00220426
0.0022286
0.00225815
0.00229353
0.00233551
0.00238515
0.00244387
0.00251348
0.00259666
0.00269619
0.00281792
0.00296277
0.00314352
0.00332815
0.00351453
0.00214735
0.00214956
0.00215652
0.00216806
0.00218357
0.00220317
0.00222738
0.00225678
0.00229195
0.00233365
0.0023829
0.0024411
0.00250995
0.00259199
0.00268983
0.00280857
0.00294899
0.0031202
0.00329308
0.00345445
0.00214639
0.00214858
0.0021555
0.00216699
0.00218244
0.00220193
0.00222601
0.00225523
0.00229016
0.00233155
0.00238038
0.00243798
0.002506
0.00258678
0.00268276
0.0027983
0.00293394
0.00309554
0.00325635
0.00339516
0.0021453
0.00214748
0.00215436
0.00216579
0.00218116
0.00220054
0.00222447
0.00225349
0.00228816
0.0023292
0.00237756
0.0024345
0.00250159
0.00258099
0.00267493
0.00278706
0.00291759
0.00306953
0.00321811
0.00333661
0.00214408
0.00214625
0.00215308
0.00216444
0.00217971
0.00219897
0.00222273
0.00225153
0.00228591
0.00232656
0.00237439
0.00243061
0.00249668
0.00257457
0.00266628
0.00277479
0.00289989
0.00304216
0.00317849
0.00327877
0.00214271
0.00214486
0.00215164
0.00216292
0.00217809
0.00219721
0.00222078
0.00224933
0.00228339
0.0023236
0.00237085
0.00242626
0.00249121
0.00256745
0.00265676
0.00276142
0.00288081
0.00301345
0.00313762
0.0032216
0.00214116
0.00214329
0.00215002
0.00216122
0.00217627
0.00219524
0.0022186
0.00224687
0.00228056
0.0023203
0.0023669
0.00242143
0.00248514
0.0025596
0.0026463
0.00274692
0.00286034
0.00298341
0.00309566
0.00316506
0.00213942
0.00214153
0.0021482
0.0021593
0.00217423
0.00219302
0.00221615
0.00224411
0.0022774
0.0023166
0.0023625
0.00241605
0.00247841
0.00255094
0.00263484
0.00273122
0.00283846
0.00295207
0.00305273
0.00310916
0.00213747
0.00213956
0.00214616
0.00215716
0.00217194
0.00219053
0.0022134
0.00224103
0.00227387
0.00231249
0.0023576
0.00241009
0.00247098
0.00254142
0.00262234
0.00271429
0.00281518
0.00291948
0.00300896
0.00305386
0.00213528
0.00213735
0.00214387
0.00215475
0.00216937
0.00218775
0.00221033
0.00223758
0.00226993
0.0023079
0.00235215
0.00240348
0.00246278
0.00253099
0.00260875
0.00269608
0.00279049
0.00288567
0.00296448
0.00299917
0.00213283
0.00213487
0.00214132
0.00215206
0.0021665
0.00218464
0.00220691
0.00223374
0.00226555
0.00230281
0.00234612
0.00239618
0.00245376
0.00251958
0.002594
0.00267658
0.00276442
0.00285072
0.00291941
0.00294509
0.00213008
0.00213209
0.00213845
0.00214905
0.00216329
0.00218117
0.00220308
0.00222946
0.00226067
0.00229715
0.00233943
0.00238813
0.00244386
0.00250715
0.00257806
0.00265575
0.002737
0.00281468
0.00287387
0.00289162
0.00212701
0.00212899
0.00213525
0.00214569
0.00215971
0.00217729
0.00219882
0.00222469
0.00225525
0.00229088
0.00233205
0.00237927
0.00243303
0.00249363
0.00256088
0.00263359
0.00270825
0.00277764
0.00282795
0.00283876
0.00212357
0.00212552
0.00213168
0.00214194
0.00215571
0.00217297
0.00219408
0.00221939
0.00224924
0.00228395
0.00232391
0.00236955
0.0024212
0.00247897
0.00254244
0.00261009
0.00267822
0.00273967
0.00278176
0.00278653
0.00211974
0.00212165
0.00212769
0.00213776
0.00215126
0.00216816
0.0021888
0.00221352
0.00224259
0.00227629
0.00231496
0.0023589
0.00240832
0.00246314
0.00252271
0.00258526
0.00264697
0.00270085
0.00273538
0.00273492
0.00211546
0.00211733
0.00212324
0.0021331
0.0021463
0.00216282
0.00218295
0.00220701
0.00223524
0.00226786
0.00230513
0.00234727
0.00239434
0.00244609
0.00250167
0.00255911
0.00261454
0.00266127
0.00268889
0.00268394
0.00211069
0.00211252
0.00211829
0.00212791
0.0021408
0.00215688
0.00217646
0.00219981
0.00222713
0.00225859
0.00229437
0.0023346
0.0023792
0.00242779
0.00247932
0.00253168
0.00258102
0.00262102
0.00264237
0.00263359
0.00210538
0.00210716
0.00211279
0.00212215
0.00213468
0.0021503
0.00216928
0.00219186
0.0022182
0.00224842
0.00228262
0.00232083
0.00236287
0.0024082
0.00245564
0.00250299
0.00254646
0.00258018
0.00259589
0.00258387
0.00209948
0.00210121
0.00210667
0.00211576
0.0021279
0.00214302
0.00216135
0.0021831
0.00220839
0.00223728
0.00226981
0.00230592
0.00234531
0.00238732
0.00243066
0.00247309
0.00251095
0.00253883
0.00254949
0.00253477
0.00209292
0.0020946
0.00209988
0.00210867
0.0021204
0.00213497
0.0021526
0.00217347
0.00219763
0.00222512
0.0022559
0.00228981
0.00232647
0.00236512
0.00240439
0.00244202
0.00247455
0.00249705
0.00250322
0.00248628
0.00208566
0.00208727
0.00209236
0.00210082
0.0021121
0.00212609
0.00214298
0.00216289
0.00218587
0.00221188
0.00224082
0.00227247
0.00230634
0.00234161
0.00237685
0.00240985
0.00243735
0.00245493
0.00245714
0.00243838
0.00207761
0.00207916
0.00208404
0.00209215
0.00210295
0.00211632
0.0021324
0.00215131
0.00217303
0.00219749
0.00222453
0.00225384
0.0022849
0.00231678
0.00234807
0.00237663
0.00239942
0.00241252
0.00241126
0.00239107
0.00206871
0.00207019
0.00207485
0.00208258
0.00209287
0.00210557
0.0021208
0.00213865
0.00215906
0.0021819
0.00220698
0.00223391
0.00226212
0.00229066
0.00231811
0.00234242
0.00236084
0.00236989
0.00236562
0.00234431
0.00205888
0.00206028
0.00206471
0.00207204
0.00208178
0.00209378
0.00210812
0.00212485
0.00214389
0.00216506
0.00218812
0.00221265
0.00223802
0.00226326
0.00228699
0.0023073
0.00232168
0.00232709
0.00232023
0.00229809
0.00204805
0.00204937
0.00205355
0.00206046
0.00206962
0.00208087
0.00209427
0.00210984
0.00212746
0.00214692
0.00216793
0.00219003
0.00221258
0.00223461
0.00225478
0.00227133
0.00228201
0.00228418
0.00227511
0.00225237
0.00203613
0.00203737
0.00204128
0.00204775
0.0020563
0.00206677
0.00207919
0.00209356
0.00210971
0.00212742
0.00214636
0.00216606
0.00218583
0.00220474
0.00222153
0.00223457
0.00224188
0.0022412
0.00223025
0.00220713
0.00202305
0.0020242
0.00202783
0.00203383
0.00204174
0.0020514
0.00206282
0.00207594
0.0020906
0.00210654
0.00212341
0.00214071
0.00215778
0.0021737
0.0021873
0.0021971
0.00220136
0.00219817
0.00218567
0.00216233
0.00200871
0.00200977
0.00201311
0.00201862
0.00202588
0.0020347
0.00204508
0.00205693
0.00207008
0.00208424
0.00209905
0.00211401
0.00212845
0.00214152
0.00215213
0.00215896
0.00216049
0.00215513
0.00214134
0.00211794
0.00199303
0.001994
0.00199704
0.00200205
0.00200862
0.00201659
0.0020259
0.00203648
0.00204811
0.0020605
0.00207328
0.00208595
0.00209787
0.00210825
0.00211608
0.00212021
0.00211932
0.00211208
0.00209726
0.00207392
0.00197593
0.0019768
0.00197954
0.00198403
0.00198991
0.001997
0.00200525
0.00201453
0.00202465
0.00203529
0.00204608
0.00205655
0.00206608
0.00207394
0.00207922
0.0020809
0.00207788
0.00206905
0.00205341
0.00203024
0.00195732
0.00195809
0.00196052
0.00196449
0.00196967
0.00197588
0.00198305
0.00199105
0.00199967
0.0020086
0.00201748
0.00202584
0.00203311
0.00203862
0.00204158
0.00204108
0.0020362
0.00202603
0.00200976
0.00198685
0.00193713
0.0019378
0.00193991
0.00194335
0.00194783
0.00195316
0.00195926
0.00196601
0.00197316
0.00198044
0.00198747
0.00199384
0.001999
0.00200236
0.00200321
0.00200078
0.0019943
0.00198301
0.00196629
0.00194372
0.00191527
0.00191584
0.00191763
0.00192056
0.00192433
0.0019288
0.00193385
0.00193936
0.0019451
0.00195079
0.00195608
0.00196057
0.00196379
0.00196519
0.00196415
0.00196004
0.00195219
0.00194
0.00192297
0.00190079
0.00189169
0.00189216
0.00189364
0.00189604
0.00189913
0.00190274
0.00190678
0.0019111
0.00191548
0.00191966
0.00192332
0.00192608
0.00192751
0.00192714
0.00192444
0.00191886
0.00190987
0.00189696
0.00187976
0.00185803
0.00186631
0.00186668
0.00186786
0.00186976
0.00187218
0.00187497
0.00187803
0.00188121
0.00188431
0.00188707
0.00188921
0.00189038
0.00189021
0.00188826
0.00188411
0.00187728
0.00186734
0.00185389
0.00183663
0.00181539
0.00183909
0.00183937
0.00184025
0.00184167
0.00184345
0.00184545
0.00184758
0.00184969
0.00185159
0.00185304
0.00185378
0.00185352
0.0018519
0.00184858
0.00184317
0.00183529
0.00182459
0.00181075
0.00179353
0.00177281
0.00180998
0.00181018
0.00181078
0.00181174
0.00181291
0.00181417
0.00181543
0.00181654
0.00181733
0.00181759
0.00181707
0.00181552
0.00181263
0.00180812
0.00180164
0.0017929
0.0017816
0.00176751
0.00175043
0.00173026
0.00177897
0.00177908
0.00177942
0.00177994
0.00178055
0.00178113
0.00178158
0.00178178
0.00178156
0.00178073
0.00177909
0.00177641
0.00177243
0.00176689
0.00175954
0.00175011
0.00173837
0.00172414
0.00170726
0.00168769
0.00174604
0.00174607
0.00174616
0.00174629
0.00174637
0.00174633
0.00174605
0.00174542
0.00174429
0.00174251
0.00173989
0.00173623
0.00173131
0.00172493
0.00171686
0.00170689
0.00169486
0.0016806
0.001664
0.00164503
0.00171118
0.00171114
0.00171101
0.00171078
0.00171039
0.00170978
0.00170885
0.00170748
0.00170557
0.00170295
0.00169948
0.00169499
0.0016893
0.00168223
0.0016736
0.00166325
0.00165104
0.00163685
0.0016206
0.00160225
0.00167441
0.00167431
0.00167399
0.00167343
0.00167263
0.00167152
0.00167001
0.00166801
0.00166541
0.00166209
0.00165791
0.00165274
0.00164642
0.00163881
0.00162977
0.00161917
0.00160689
0.00159285
0.00157699
0.00155929
0.00163576
0.00163561
0.00163512
0.00163428
0.00163312
0.00163158
0.00162958
0.00162704
0.00162387
0.00161996
0.0016152
0.00160948
0.00160267
0.00159467
0.00158535
0.00157461
0.00156237
0.00154856
0.00153314
0.0015161
0.00159528
0.00159508
0.00159445
0.00159337
0.0015919
0.00159
0.0015876
0.00158462
0.00158098
0.0015766
0.00157138
0.00156525
0.00155809
0.00154981
0.00154033
0.00152956
0.00151745
0.00150394
0.001489
0.00147263
0.00155302
0.00155278
0.00155203
0.00155077
0.00154905
0.00154686
0.00154413
0.00154079
0.00153679
0.00153204
0.0015265
0.00152006
0.00151266
0.00150423
0.0014947
0.001484
0.0014721
0.00145894
0.00144452
0.00142883
0.00150906
0.00150879
0.00150794
0.00150652
0.00150461
0.00150219
0.00149922
0.00149562
0.00149134
0.00148634
0.00148057
0.00147394
0.00146642
0.00145794
0.00144845
0.00143791
0.00142627
0.00141353
0.00139965
0.00138465
0.00146346
0.00146317
0.00146225
0.00146073
0.00145867
0.00145609
0.00145293
0.00144915
0.0014447
0.00143954
0.00143363
0.00142692
0.00141937
0.00141093
0.00140157
0.00139126
0.00137996
0.00136766
0.00135436
0.00134006
0.00141633
0.00141603
0.00141506
0.00141346
0.0014113
0.00140862
0.00140535
0.00140146
0.00139691
0.00139168
0.00138572
0.00137902
0.00137152
0.00136321
0.00135405
0.00134403
0.00133311
0.00132131
0.0013086
0.001295
0.00136776
0.00136744
0.00136645
0.0013648
0.0013626
0.00135986
0.00135654
0.00135261
0.00134804
0.0013428
0.00133688
0.00133026
0.0013229
0.00131478
0.00130589
0.0012962
0.00128572
0.00127443
0.00126234
0.00124945
0.00131784
0.00131753
0.00131653
0.00131486
0.00131265
0.0013099
0.00130659
0.00130267
0.00129813
0.00129296
0.00128715
0.00128067
0.0012735
0.00126564
0.00125707
0.00124777
0.00123775
0.00122701
0.00121554
0.00120336
0.00126669
0.00126638
0.00126538
0.00126374
0.00126154
0.00125883
0.00125556
0.0012517
0.00124726
0.00124222
0.00123656
0.00123028
0.00122336
0.0012158
0.00120759
0.00119872
0.0011892
0.00117902
0.00116818
0.00115671
0.00121441
0.0012141
0.00121313
0.00121151
0.00120937
0.00120672
0.00120353
0.00119979
0.00119548
0.00119061
0.00118516
0.00117912
0.0011725
0.00116528
0.00115747
0.00114905
0.00114004
0.00113043
0.00112024
0.00110947
0.00116109
0.00116079
0.00115985
0.00115829
0.00115622
0.00115366
0.00115059
0.00114699
0.00114285
0.00113819
0.00113298
0.00112723
0.00112093
0.00111409
0.0011067
0.00109876
0.00109027
0.00108125
0.00107169
0.00106161
0.00110684
0.00110655
0.00110565
0.00110416
0.00110217
0.00109973
0.0010968
0.00109337
0.00108944
0.00108501
0.00108007
0.00107463
0.00106869
0.00106224
0.00105529
0.00104783
0.00103989
0.00103145
0.00102253
0.00101313
0.00105175
0.00105147
0.00105062
0.0010492
0.00104732
0.00104501
0.00104224
0.001039
0.00103529
0.00103111
0.00102647
0.00102136
0.00101579
0.00100975
0.00100325
0.000996293
0.000988884
0.00098103
0.000972738
0.000964016
0.000995892
0.000995637
0.000994833
0.000993503
0.000991738
0.000989566
0.00098697
0.000983934
0.000980461
0.000976555
0.000972218
0.000967451
0.000962256
0.000956636
0.000950594
0.000944135
0.000937264
0.000929988
0.000922313
0.000914249
0.000939352
0.000939115
0.000938366
0.000937126
0.000935483
0.000933461
0.000931044
0.000928222
0.000924995
0.000921368
0.000917345
0.000912927
0.000908116
0.000902917
0.000897332
0.000891367
0.000885027
0.000878319
0.000871249
0.000863826
0.000882189
0.000881969
0.000881277
0.000880131
0.000878612
0.000876744
0.000874512
0.000871907
0.00086893
0.000865586
0.000861879
0.000857811
0.000853385
0.000848603
0.000843471
0.000837993
0.000832175
0.000826022
0.000819541
0.00081274
0.000824448
0.000824247
0.000823612
0.00082256
0.000821167
0.000819454
0.000817409
0.000815022
0.000812295
0.000809234
0.000805841
0.00080212
0.000798073
0.000793703
0.000789016
0.000784014
0.000778705
0.000773092
0.000767182
0.000760981
0.000766163
0.00076598
0.000765402
0.000764445
0.000763177
0.000761618
0.000759758
0.000757586
0.000755107
0.000752324
0.000749241
0.00074586
0.000742185
0.000738218
0.000733963
0.000729426
0.000724609
0.000719519
0.000714161
0.000708541
0.000707347
0.000707181
0.000706659
0.000705795
0.00070465
0.000703243
0.000701564
0.000699604
0.000697366
0.000694856
0.000692075
0.000689026
0.000685712
0.000682135
0.000678301
0.000674211
0.000669871
0.000665286
0.000660459
0.000655396
0.000647992
0.000647844
0.000647377
0.000646603
0.000645579
0.000644319
0.000642816
0.000641062
0.00063906
0.000636813
0.000634325
0.000631598
0.000628634
0.000625435
0.000622006
0.000618349
0.000614469
0.000610368
0.000606053
0.000601526
0.000588067
0.000587935
0.000587521
0.000586835
0.000585927
0.00058481
0.000583477
0.000581922
0.000580147
0.000578155
0.00057595
0.000573532
0.000570904
0.000568069
0.000565029
0.000561788
0.000558348
0.000554713
0.000550887
0.000546874
0.000527512
0.000527397
0.000527034
0.000526433
0.000525637
0.000524658
0.00052349
0.000522127
0.000520572
0.000518826
0.000516894
0.000514775
0.000512472
0.000509987
0.000507323
0.000504482
0.000501467
0.00049828
0.000494926
0.000491407
0.00046623
0.00046613
0.000465816
0.000465296
0.000464607
0.00046376
0.00046275
0.000461571
0.000460225
0.000458715
0.000457043
0.00045521
0.000453217
0.000451067
0.000448762
0.000446304
0.000443694
0.000440936
0.000438033
0.000434986
0.000404093
0.000404009
0.000403743
0.000403303
0.00040272
0.000402002
0.000401146
0.000400146
0.000399005
0.000397725
0.000396307
0.000394753
0.000393063
0.000391239
0.000389283
0.000387197
0.000384983
0.000382642
0.000380177
0.00037759
0.000340901
0.00034083
0.000340607
0.00034024
0.000339754
0.000339158
0.000338446
0.000337615
0.000336668
0.000335604
0.000334427
0.000333136
0.000331733
0.000330219
0.000328595
0.000326863
0.000325024
0.000323081
0.000321034
0.000318886
0.000276444
0.00027639
0.000276217
0.000275929
0.000275546
0.000275074
0.000274511
0.000273853
0.000273102
0.000272259
0.000271324
0.000270299
0.000269185
0.000267982
0.000266691
0.000265314
0.000263852
0.000262305
0.000260676
0.000258966
0.00021032
0.000210273
0.000210134
0.000209908
0.000209612
0.000209249
0.000208817
0.000208314
0.000207741
0.000207099
0.000206388
0.000205609
0.000204763
0.000203851
0.000202873
0.00020183
0.000200723
0.000199553
0.000198321
0.000197028
0.000142291
0.000142272
0.000142194
0.000142057
0.00014187
0.000141638
0.000141359
0.000141033
0.00014066
0.00014024
0.000139774
0.000139262
0.000138705
0.000138103
0.000137456
0.000136766
0.000136033
0.000135257
0.000134439
0.000133581
7.14333e-05
7.13987e-05
7.13273e-05
7.1231e-05
7.11147e-05
7.09772e-05
7.08166e-05
7.06328e-05
7.04262e-05
7.01973e-05
6.99463e-05
6.96733e-05
6.93784e-05
6.9062e-05
6.87242e-05
6.83653e-05
6.79857e-05
6.75855e-05
6.71651e-05
6.67248e-05
0.00503984
0.00305475
0.00237587
0.00221755
0.0020689
0.00190993
0.00177317
0.00166155
0.00156866
0.00148836
0.0014169
0.00135234
0.00129345
0.00123926
0.00118898
0.00114206
0.00109805
0.00105661
0.00101745
0.000980307
0.000944988
0.000911312
0.000879132
0.000848315
0.000818747
0.000790328
0.000762971
0.000736597
0.000711137
0.000686527
0.000662713
0.000639644
0.000617274
0.000595561
0.000574469
0.000553963
0.000534012
0.000514585
0.000495658
0.000477205
0.000459205
0.000441636
0.000424478
0.000407716
0.000391331
0.000375309
0.000359635
0.000344298
0.000329284
0.000314584
0.000300187
0.000286085
0.00027227
0.000258734
0.00024547
0.000232475
0.000219744
0.000207272
0.000195058
0.000183102
0.000171403
0.000159962
0.000148784
0.000137877
0.000127249
0.000116911
0.000106882
9.7186e-05
8.7861e-05
7.89384e-05
7.05214e-05
6.25854e-05
5.56148e-05
4.87735e-05
4.54841e-05
3.71354e-05
5.17512e-05
1.19167e-05
0.000145297
-0.000193615
0.00509454
0.00310954
0.00241244
0.00223841
0.00208107
0.00191847
0.00178018
0.00166762
0.00157393
0.00149296
0.00142096
0.00135596
0.00129672
0.00124223
0.0011917
0.00114457
0.00110038
0.00105878
0.00101947
0.000982209
0.000946779
0.000913004
0.000880733
0.000849835
0.000820193
0.000791707
0.000764287
0.000737856
0.000712343
0.000687685
0.000663825
0.000640714
0.000618305
0.000596556
0.000575429
0.000554891
0.000534909
0.000515454
0.0004965
0.000478022
0.000459998
0.000442406
0.000425227
0.000408443
0.000392039
0.000375998
0.000360307
0.000344952
0.000329923
0.000315207
0.000300796
0.00028668
0.000272851
0.000259301
0.000246025
0.000233018
0.000220275
0.000207792
0.000195568
0.000183601
0.000171892
0.000160442
0.000149255
0.000138338
0.000127701
0.000117355
0.000107318
9.76145e-05
8.8282e-05
7.93522e-05
7.09283e-05
6.29855e-05
5.60088e-05
4.91608e-05
4.58675e-05
3.75095e-05
5.21287e-05
1.22857e-05
0.000145685
-0.000193405
0.00507732
0.00311998
0.00242869
0.00225307
0.00209402
0.00192981
0.00178997
0.00167609
0.00158134
0.0014995
0.00142679
0.00136122
0.00130149
0.00124658
0.00119571
0.00114828
0.00110383
0.001062
0.00102249
0.000985048
0.000949456
0.000915536
0.000883134
0.000852116
0.000822365
0.000793779
0.000766268
0.000739752
0.000714161
0.00068943
0.000665503
0.000642329
0.000619862
0.000598058
0.00057688
0.000556294
0.000536266
0.000516769
0.000497774
0.000479258
0.000461198
0.000443571
0.00042636
0.000409546
0.000393112
0.000377043
0.000361325
0.000345945
0.000330891
0.000316152
0.000301718
0.000287581
0.000273731
0.000260162
0.000246867
0.000233842
0.000221081
0.000208582
0.000196341
0.000184358
0.000172634
0.000161169
0.000149968
0.000139038
0.000128388
0.000118029
0.00010798
9.82646e-05
8.89207e-05
7.99799e-05
7.15455e-05
6.35924e-05
5.66063e-05
4.97477e-05
4.64491e-05
3.80735e-05
5.27069e-05
1.28146e-05
0.000146361
-0.000193207
0.00503978
0.00312463
0.00243809
0.00225962
0.002101
0.00193796
0.00179839
0.00168404
0.00158856
0.00150602
0.00143268
0.00136657
0.00130639
0.0012511
0.00119989
0.00115216
0.00110745
0.0010654
0.00102568
0.000988057
0.000952301
0.000918232
0.000885695
0.000854554
0.00082469
0.000796
0.000768393
0.000741789
0.000716116
0.000691309
0.000667311
0.000644071
0.000621542
0.00059968
0.000578448
0.00055781
0.000537734
0.000518191
0.000499154
0.000480597
0.000462498
0.000444835
0.000427589
0.000410742
0.000394277
0.000378178
0.000362431
0.000347024
0.000331944
0.00031718
0.000302722
0.000288561
0.00027469
0.0002611
0.000247784
0.000234739
0.00022196
0.000209442
0.000197183
0.000185184
0.000173443
0.000161963
0.000150747
0.000139802
0.000129138
0.000118765
0.000108703
9.89745e-05
8.96182e-05
8.06653e-05
7.22194e-05
6.42549e-05
5.72583e-05
5.03883e-05
4.70817e-05
3.86903e-05
5.33249e-05
1.34031e-05
0.000147118
-0.000193069
0.00499875
0.00313236
0.00244904
0.00226596
0.0021059
0.001943
0.00180396
0.00169002
0.00159463
0.00151188
0.00143821
0.00137173
0.00131119
0.00125557
0.00120407
0.00115608
0.00111113
0.00106887
0.00102896
0.000991159
0.000955244
0.000921031
0.000888361
0.000857098
0.000827122
0.000798329
0.000770626
0.000743932
0.000718176
0.000693292
0.000669222
0.000645914
0.000623321
0.000601399
0.000580111
0.00055942
0.000539295
0.000519705
0.000500622
0.000482023
0.000463884
0.000446183
0.000428901
0.000412019
0.000395521
0.000379391
0.000363614
0.000348178
0.000333071
0.00031828
0.000303797
0.000289613
0.000275718
0.000262105
0.000248768
0.000235703
0.000222903
0.000210366
0.000198089
0.000186072
0.000174314
0.000162817
0.000151584
0.000140624
0.000129945
0.000119557
0.000109481
9.97391e-05
9.03696e-05
8.14039e-05
7.29455e-05
6.49688e-05
5.79604e-05
5.10785e-05
4.77605e-05
3.93571e-05
5.39742e-05
1.40598e-05
0.00014791
-0.000192923
0.00495625
0.00313964
0.00245913
0.00227196
0.0021105
0.00194715
0.00180789
0.00169404
0.00159888
0.00151634
0.00144276
0.00137623
0.00131555
0.00125975
0.00120806
0.00115987
0.00111474
0.0010723
0.00103223
0.00099428
0.000958224
0.00092388
0.000891088
0.000859712
0.00082963
0.000800737
0.000772942
0.000746162
0.000720325
0.000695364
0.000671223
0.000647847
0.000625191
0.00060321
0.000581865
0.000561121
0.000540945
0.000521307
0.000502179
0.000483536
0.000465356
0.000447616
0.000430296
0.000413379
0.000396847
0.000380684
0.000364877
0.000349411
0.000334275
0.000319457
0.000304948
0.000290738
0.000276819
0.000263183
0.000249824
0.000236736
0.000223916
0.000211359
0.000199062
0.000187026
0.00017525
0.000163735
0.000152486
0.000141509
0.000130814
0.000120411
0.00011032
0.000100563
9.11796e-05
8.22002e-05
7.37284e-05
6.57388e-05
5.87173e-05
5.18231e-05
4.84899e-05
4.00787e-05
5.46575e-05
1.47935e-05
0.000148719
-0.000192725
0.00491205
0.00314573
0.00246799
0.00227692
0.00211443
0.0019509
0.0018114
0.00169727
0.00160197
0.00151946
0.00144601
0.00137963
0.00131906
0.00126329
0.00121156
0.00116331
0.00111808
0.00107553
0.00103535
0.00099729
0.000961126
0.000926677
0.000893785
0.000862313
0.00083214
0.00080316
0.000775282
0.000748424
0.000722512
0.000697481
0.000673273
0.000649834
0.000627117
0.000605078
0.000583679
0.000562883
0.000542657
0.000522972
0.0005038
0.000485114
0.000466893
0.000449114
0.000431757
0.000414804
0.000398238
0.000382043
0.000366204
0.000350708
0.000335543
0.000320698
0.000306162
0.000291926
0.000277982
0.000264322
0.00025094
0.000237831
0.000224989
0.000212411
0.000200095
0.000188039
0.000176244
0.000164711
0.000153444
0.00014245
0.000131738
0.00012132
0.000111213
0.000101441
9.20426e-05
8.30489e-05
7.45629e-05
6.65596e-05
5.95239e-05
5.2617e-05
4.92647e-05
4.08506e-05
5.53677e-05
1.56041e-05
0.000149516
-0.000192447
0.00486626
0.00315135
0.00247634
0.00228122
0.00211771
0.00195412
0.00181451
0.0017002
0.00160468
0.00152197
0.00144843
0.00138208
0.0013216
0.00126595
0.00121432
0.00116613
0.00112093
0.00107837
0.00103816
0.00100005
0.000963823
0.00092931
0.00089635
0.000864809
0.000834568
0.000805521
0.000777577
0.000750654
0.00072468
0.000699589
0.000675322
0.000651827
0.000629056
0.000606966
0.000585516
0.000564672
0.000544401
0.000524672
0.000505457
0.000486731
0.000468471
0.000450654
0.000433262
0.000416274