/*--------------------------------*- C++ -*----------------------------------*\
| =========                 |                                                 |
| \\      /  F ield         | OpenFOAM: The Open Source CFD Toolbox           |
|  \\    /   O peration     | Version:  v1912                                 |
|   \\  /    A nd           | Website:  www.openfoam.com                      |
|    \\/     M anipulation  |                                                 |
\*---------------------------------------------------------------------------*/
FoamFile
{
    version     2.0;
    format      ascii;
    class       surfaceScalarField;
    location    "500";
    object      phi;
}
// * * * * * * * * * * * * * * * * * * * * * * * * * * * * * * * * * * * * * //

dimensions      [0 3 -1 0 0 0 0];
oriented        oriented;


internalField   nonuniform List<scalar> 
19800
(
2.29239e-07
3.80307e-13
2.29238e-07
1.24309e-12
2.29235e-07
2.21668e-12
2.29232e-07
3.19116e-12
2.29228e-07
4.18849e-12
2.29223e-07
5.2675e-12
2.29216e-07
6.46525e-12
2.29208e-07
7.81513e-12
2.29199e-07
9.35863e-12
2.29188e-07
1.11771e-11
2.29175e-07
1.3332e-11
2.29158e-07
1.60839e-11
2.29139e-07
1.93206e-11
2.29115e-07
2.4488e-11
2.29086e-07
2.88983e-11
2.29041e-07
4.52342e-11
2.29005e-07
3.5874e-11
2.28824e-07
1.80621e-10
2.29265e-07
-4.41117e-10
1.28267e-08
2.16439e-07
2.42236e-07
7.8605e-13
2.42234e-07
2.56039e-12
2.42232e-07
4.55877e-12
2.42229e-07
6.56247e-12
2.42224e-07
8.61413e-12
2.42219e-07
1.08335e-11
2.42212e-07
1.32969e-11
2.42204e-07
1.6073e-11
2.42194e-07
1.92475e-11
2.42182e-07
2.2987e-11
2.42168e-07
2.74195e-11
2.42151e-07
3.30764e-11
2.4213e-07
3.97396e-11
2.42105e-07
5.03455e-11
2.42074e-07
5.94739e-11
2.42026e-07
9.28568e-11
2.41988e-07
7.44738e-11
2.41804e-07
3.64084e-10
2.42082e-07
-7.1893e-10
1.25907e-08
2.42318e-07
2.5597e-07
1.21572e-12
2.55968e-07
3.95322e-12
2.55966e-07
7.03352e-12
2.55962e-07
1.01247e-11
2.55958e-07
1.32905e-11
2.55952e-07
1.67148e-11
2.55944e-07
2.05155e-11
2.55936e-07
2.47986e-11
2.55925e-07
2.96965e-11
2.55913e-07
3.54658e-11
2.55898e-07
4.2305e-11
2.5588e-07
5.10305e-11
2.55858e-07
6.13162e-11
2.55831e-07
7.76592e-11
2.55799e-07
9.1803e-11
2.55749e-07
1.43036e-10
2.55707e-07
1.1614e-10
2.55523e-07
5.47775e-10
2.55667e-07
-8.62428e-10
1.20368e-08
2.56221e-07
2.70482e-07
1.67083e-12
2.70481e-07
5.426e-12
2.70478e-07
9.64838e-12
2.70474e-07
1.38884e-11
2.70469e-07
1.82316e-11
2.70463e-07
2.29293e-11
2.70456e-07
2.8143e-11
2.70446e-07
3.40183e-11
2.70435e-07
4.07371e-11
2.70422e-07
4.86508e-11
2.70406e-07
5.80332e-11
2.70387e-07
6.99995e-11
2.70365e-07
8.41154e-11
2.70336e-07
1.06507e-10
2.70302e-07
1.25994e-10
2.70249e-07
1.95837e-10
2.70203e-07
1.61469e-10
2.70022e-07
7.29148e-10
2.70057e-07
-8.97559e-10
1.16459e-08
2.70448e-07
2.85818e-07
2.15303e-12
2.85816e-07
6.98341e-12
2.85813e-07
1.24112e-11
2.85809e-07
1.78651e-11
2.85804e-07
2.34525e-11
2.85797e-07
2.94955e-11
2.85789e-07
3.62021e-11
2.8578e-07
4.37597e-11
2.85768e-07
5.24024e-11
2.85754e-07
6.25815e-11
2.85737e-07
7.46512e-11
2.85717e-07
9.00397e-11
2.85693e-07
1.08206e-10
2.85663e-07
1.3697e-10
2.85627e-07
1.62164e-10
2.85571e-07
2.51321e-10
2.85522e-07
2.11059e-10
2.85344e-07
9.06708e-10
2.85292e-07
-8.45823e-10
1.13601e-08
2.85578e-07
3.02022e-07
2.66412e-12
3.02021e-07
8.63047e-12
3.02018e-07
1.53303e-11
3.02014e-07
2.20666e-11
3.02008e-07
2.89686e-11
3.02001e-07
3.64332e-11
3.01993e-07
4.47172e-11
3.01982e-07
5.40521e-11
3.0197e-07
6.47273e-11
3.01955e-07
7.72995e-11
3.01938e-07
9.22084e-11
3.01917e-07
1.1121e-10
3.01891e-07
1.3366e-10
3.01859e-07
1.69131e-10
3.01821e-07
2.00437e-10
3.01762e-07
3.09544e-10
3.01708e-07
2.65489e-10
3.01535e-07
1.07968e-09
3.01414e-07
-7.24826e-10
1.11512e-08
3.01623e-07
3.19146e-07
3.20605e-12
3.19144e-07
1.03725e-11
3.19141e-07
1.84144e-11
3.19137e-07
2.65054e-11
3.19131e-07
3.47967e-11
3.19123e-07
4.37631e-11
3.19114e-07
5.37136e-11
3.19104e-07
6.4926e-11
3.19091e-07
7.77486e-11
3.19075e-07
9.28484e-11
3.19056e-07
1.10757e-10
3.19034e-07
1.33572e-10
3.19007e-07
1.60553e-10
3.18973e-07
2.03079e-10
3.18933e-07
2.40944e-10
3.18872e-07
3.70559e-10
3.18812e-07
3.25292e-10
3.18644e-07
1.24788e-09
3.18468e-07
-5.48993e-10
1.10042e-08
3.18615e-07
3.3724e-07
3.78097e-12
3.37238e-07
1.22153e-11
3.37235e-07
2.16727e-11
3.3723e-07
3.11948e-11
3.37224e-07
4.09539e-11
3.37217e-07
5.15072e-11
3.37207e-07
6.32182e-11
3.37196e-07
7.6414e-11
3.37182e-07
9.15048e-11
3.37165e-07
1.09274e-10
3.37146e-07
1.30352e-10
3.37122e-07
1.57191e-10
3.37094e-07
1.88965e-10
3.37058e-07
2.38903e-10
3.37015e-07
2.83826e-10
3.36951e-07
4.34423e-10
3.36886e-07
3.90938e-10
3.36722e-07
1.41164e-09
3.36503e-07
-3.30235e-10
1.09091e-08
3.36598e-07
3.56361e-07
4.39127e-12
3.56359e-07
1.41649e-11
3.56355e-07
2.51149e-11
3.5635e-07
3.61485e-11
3.56344e-07
4.74588e-11
3.56336e-07
5.96884e-11
3.56325e-07
7.32592e-11
3.56313e-07
8.85499e-11
3.56299e-07
1.06037e-10
3.56281e-07
1.26625e-10
3.56261e-07
1.5105e-10
3.56236e-07
1.82135e-10
3.56206e-07
2.1898e-10
3.56168e-07
2.76696e-10
3.56123e-07
3.29227e-10
3.56056e-07
5.01198e-10
3.55984e-07
4.62818e-10
3.55824e-07
1.57168e-09
3.55572e-07
-7.83569e-11
1.08576e-08
3.55624e-07
3.76565e-07
5.0396e-12
3.76563e-07
1.62281e-11
3.76559e-07
2.87511e-11
3.76554e-07
4.13812e-11
3.76547e-07
5.43305e-11
3.76538e-07
6.83311e-11
3.76528e-07
8.38663e-11
3.76515e-07
1.0137e-10
3.765e-07
1.21387e-10
3.76481e-07
1.44952e-10
3.76459e-07
1.72913e-10
3.76433e-07
2.08475e-10
3.76401e-07
2.50687e-10
3.76362e-07
3.16554e-10
3.76313e-07
3.773e-10
3.76244e-07
5.70954e-10
3.76165e-07
5.41241e-10
3.76008e-07
1.72902e-09
3.75731e-07
1.98745e-10
1.08421e-08
3.75746e-07
3.97915e-07
5.72894e-12
3.97913e-07
1.84121e-11
3.97909e-07
3.25922e-11
3.97903e-07
4.69081e-11
3.97896e-07
6.15893e-11
3.97887e-07
7.74608e-11
3.97876e-07
9.50709e-11
3.97862e-07
1.14911e-10
3.97846e-07
1.376e-10
3.97826e-07
1.64307e-10
3.97803e-07
1.96003e-10
3.97776e-07
2.36284e-10
3.97742e-07
2.84176e-10
3.977e-07
3.58575e-10
3.97649e-07
4.28203e-10
3.97576e-07
6.4377e-10
3.97491e-07
6.26438e-10
3.97335e-07
1.88476e-09
3.97039e-07
4.9496e-10
1.08553e-08
3.97026e-07
4.20475e-07
6.46266e-12
4.20473e-07
2.07248e-11
4.20469e-07
3.66494e-11
4.20463e-07
5.27453e-11
4.20455e-07
6.92564e-11
4.20445e-07
8.71043e-11
4.20434e-07
1.06906e-10
4.20419e-07
1.29213e-10
4.20402e-07
1.54724e-10
4.20382e-07
1.84747e-10
4.20357e-07
2.20386e-10
4.20328e-07
2.6564e-10
4.20293e-07
3.19544e-10
4.20248e-07
4.02861e-10
4.20194e-07
4.82095e-10
4.20119e-07
7.19737e-10
4.20026e-07
7.18574e-10
4.19871e-07
2.04002e-09
4.1956e-07
8.05847e-10
1.08899e-08
4.19526e-07
4.44314e-07
7.2446e-12
4.44312e-07
2.31748e-11
4.44308e-07
4.09345e-11
4.44301e-07
5.89094e-11
4.44293e-07
7.73543e-11
4.44283e-07
9.72897e-11
4.44271e-07
1.19405e-10
4.44256e-07
1.44318e-10
4.44238e-07
1.72808e-10
4.44216e-07
2.0633e-10
4.4419e-07
2.46133e-10
4.44159e-07
2.96624e-10
4.44122e-07
3.5689e-10
4.44075e-07
4.49515e-10
4.44018e-07
5.39142e-10
4.43939e-07
7.98954e-10
4.4384e-07
8.1777e-10
4.43684e-07
2.19573e-09
4.43361e-07
1.12849e-09
1.09394e-08
4.43312e-07
4.69505e-07
8.07913e-12
4.69503e-07
2.57719e-11
4.69498e-07
4.54602e-11
4.69492e-07
6.54177e-11
4.69483e-07
8.59063e-11
4.69472e-07
1.08047e-10
4.69459e-07
1.32606e-10
4.69443e-07
1.60268e-10
4.69424e-07
1.91904e-10
4.69401e-07
2.29117e-10
4.69374e-07
2.73316e-10
4.69342e-07
3.29317e-10
4.69302e-07
3.9632e-10
4.69253e-07
4.98643e-10
4.69193e-07
5.99508e-10
4.6911e-07
8.81526e-10
4.69004e-07
9.24138e-10
4.68847e-07
2.35257e-09
4.68514e-07
1.46128e-09
1.09974e-08
4.68456e-07
4.96125e-07
8.9712e-12
4.96122e-07
2.85269e-11
4.96117e-07
5.02395e-11
4.9611e-07
7.22884e-11
4.96101e-07
9.49368e-11
4.9609e-07
1.19406e-10
4.96076e-07
1.46546e-10
4.96059e-07
1.77111e-10
4.96039e-07
2.12065e-10
4.96015e-07
2.53171e-10
4.95986e-07
3.02009e-10
4.95952e-07
3.63808e-10
4.9591e-07
4.3794e-10
4.95858e-07
5.50353e-10
4.95794e-07
6.63362e-10
4.95708e-07
9.67549e-10
4.95595e-07
1.0378e-09
4.95436e-07
2.5109e-09
4.95094e-07
1.80365e-09
1.1059e-08
4.95032e-07
5.24253e-07
9.92638e-12
5.2425e-07
3.14516e-11
5.24245e-07
5.52865e-11
5.24238e-07
7.954e-11
5.24228e-07
1.04471e-10
5.24216e-07
1.31401e-10
5.24202e-07
1.61264e-10
5.24184e-07
1.94892e-10
5.24163e-07
2.33349e-10
5.24137e-07
2.7856e-10
5.24107e-07
3.32293e-10
5.2407e-07
4.00186e-10
5.24027e-07
4.81862e-10
5.23972e-07
6.04757e-10
5.23905e-07
7.30874e-10
5.23815e-07
1.05711e-09
5.23694e-07
1.15894e-09
5.23534e-07
2.67075e-09
5.23182e-07
2.15578e-09
1.11199e-08
5.23121e-07
5.53976e-07
1.09507e-11
5.53973e-07
3.45593e-11
5.53968e-07
6.06158e-11
5.5396e-07
8.7192e-11
5.5395e-07
1.14536e-10
5.53937e-07
1.44065e-10
5.53922e-07
1.76802e-10
5.53903e-07
2.13662e-10
5.53881e-07
2.55815e-10
5.53854e-07
3.05352e-10
5.53822e-07
3.64248e-10
5.53784e-07
4.38543e-10
5.53737e-07
5.28201e-10
5.5368e-07
6.61963e-10
5.53609e-07
8.02217e-10
5.53516e-07
1.15029e-09
5.53387e-07
1.28777e-09
5.53226e-07
2.83185e-09
5.52863e-07
2.51821e-09
1.11771e-08
5.52806e-07
5.85385e-07
1.20503e-11
5.85381e-07
3.78642e-11
5.85376e-07
6.62433e-11
5.85368e-07
9.52641e-11
5.85357e-07
1.2516e-10
5.85344e-07
1.57433e-10
5.85327e-07
1.93204e-10
5.85307e-07
2.33472e-10
5.85284e-07
2.79523e-10
5.85256e-07
3.33619e-10
5.85222e-07
3.97961e-10
5.85181e-07
4.78976e-10
5.85132e-07
5.77074e-10
5.85072e-07
7.22085e-10
5.84997e-07
8.77563e-10
5.849e-07
1.24712e-09
5.84763e-07
1.42454e-09
5.84601e-07
2.99379e-09
5.84228e-07
2.89151e-09
1.12288e-08
5.84176e-07
6.18574e-07
1.32311e-11
6.1857e-07
4.13811e-11
6.18564e-07
7.21855e-11
6.18556e-07
1.03777e-10
6.18545e-07
1.3637e-10
6.18531e-07
1.71542e-10
6.18513e-07
2.10513e-10
6.18492e-07
2.54377e-10
6.18467e-07
3.04538e-10
6.18438e-07
3.63434e-10
6.18402e-07
4.33516e-10
6.18359e-07
5.2158e-10
6.18308e-07
6.28599e-10
6.18245e-07
7.85235e-10
6.18165e-07
9.57081e-10
6.18065e-07
1.34765e-09
6.1792e-07
1.56949e-09
6.17757e-07
3.15614e-09
6.17373e-07
3.27594e-09
1.12739e-08
6.17328e-07
6.53645e-07
1.44977e-11
6.53641e-07
4.51238e-11
6.53635e-07
7.84602e-11
6.53626e-07
1.12753e-10
6.53614e-07
1.48196e-10
6.53599e-07
1.86431e-10
6.53581e-07
2.28778e-10
6.53559e-07
2.7643e-10
6.53532e-07
3.30924e-10
6.53501e-07
3.94875e-10
6.53463e-07
4.71005e-10
6.53419e-07
5.66458e-10
6.53364e-07
6.82897e-10
6.53298e-07
8.5153e-10
6.53214e-07
1.04093e-09
6.5311e-07
1.45193e-09
6.52957e-07
1.7228e-09
6.52794e-07
3.31869e-09
6.52399e-07
3.67103e-09
1.13123e-08
6.52361e-07
6.90704e-07
1.58532e-11
6.907e-07
4.91043e-11
6.90693e-07
8.50857e-11
6.90684e-07
1.22214e-10
6.90671e-07
1.6067e-10
6.90656e-07
2.0214e-10
6.90637e-07
2.48045e-10
6.90613e-07
2.99691e-10
6.90585e-07
3.58749e-10
6.90552e-07
4.2802e-10
6.90513e-07
5.10517e-10
6.90466e-07
6.13711e-10
6.90408e-07
7.40084e-10
6.90339e-07
9.2109e-10
6.9025e-07
1.12924e-09
6.90142e-07
1.56008e-09
6.89981e-07
1.88442e-09
6.89818e-07
3.48167e-09
6.89414e-07
4.07515e-09
1.13444e-08
6.89381e-07
7.29864e-07
1.7298e-11
7.2986e-07
5.33313e-11
7.29853e-07
9.20814e-11
7.29843e-07
1.32186e-10
7.2983e-07
1.73825e-10
7.29814e-07
2.18709e-10
7.29793e-07
2.68366e-10
7.29769e-07
3.24218e-10
7.29739e-07
3.88083e-10
7.29704e-07
4.62949e-10
7.29663e-07
5.52144e-10
7.29613e-07
6.63446e-10
7.29553e-07
8.00274e-10
7.2948e-07
9.94049e-10
7.29387e-07
1.22211e-09
7.29275e-07
1.67226e-09
7.29105e-07
2.05405e-09
7.28941e-07
3.64588e-09
7.28531e-07
4.48501e-09
1.13718e-08
7.28504e-07
7.71245e-07
1.8831e-11
7.71241e-07
5.78108e-11
7.71233e-07
9.9467e-11
7.71223e-07
1.42698e-10
7.71209e-07
1.87695e-10
7.71191e-07
2.36182e-10
7.7117e-07
2.89793e-10
7.71144e-07
3.50073e-10
7.71113e-07
4.18999e-10
7.71076e-07
4.99747e-10
7.71033e-07
5.95981e-10
7.7098e-07
7.15771e-10
7.70917e-07
8.63576e-10
7.7084e-07
1.07055e-09
7.70743e-07
1.31959e-09
7.70626e-07
1.78878e-09
7.70449e-07
2.23097e-09
7.70283e-07
3.81278e-09
7.69872e-07
4.89521e-09
1.13967e-08
7.69847e-07
8.14972e-07
2.04504e-11
8.14967e-07
6.25469e-11
8.14959e-07
1.07263e-10
8.14948e-07
1.53779e-10
8.14934e-07
2.02317e-10
8.14915e-07
2.54607e-10
8.14893e-07
3.12382e-10
8.14865e-07
3.77324e-10
8.14833e-07
4.51573e-10
8.14794e-07
5.38502e-10
8.14748e-07
6.42128e-10
8.14693e-07
7.70804e-10
8.14626e-07
9.301e-10
8.14546e-07
1.15077e-09
8.14444e-07
1.42167e-09
8.14323e-07
1.91007e-09
8.1414e-07
2.41412e-09
8.13968e-07
3.98431e-09
8.13565e-07
5.2984e-09
1.14216e-08
8.1354e-07
8.61178e-07
2.21553e-11
8.61173e-07
6.75449e-11
8.61165e-07
1.15491e-10
8.61153e-07
1.65462e-10
8.61137e-07
2.17733e-10
8.61118e-07
2.74032e-10
8.61094e-07
3.36194e-10
8.61065e-07
4.06042e-10
8.61031e-07
4.85888e-10
8.6099e-07
5.79312e-10
8.60942e-07
6.90692e-10
8.60884e-07
8.28672e-10
8.60814e-07
9.99967e-10
8.6073e-07
1.23488e-09
8.60623e-07
1.52836e-09
8.60497e-07
2.03656e-09
8.60309e-07
2.60236e-09
8.60131e-07
4.16226e-09
8.59742e-07
5.68715e-09
1.14486e-08
8.59715e-07
9.10003e-07
2.39464e-11
9.09998e-07
7.28122e-11
9.09989e-07
1.24172e-10
9.09977e-07
1.77782e-10
9.09961e-07
2.33984e-10
9.0994e-07
2.94508e-10
9.09915e-07
3.61289e-10
9.09885e-07
4.36299e-10
9.09849e-07
5.22031e-10
9.09806e-07
6.22276e-10
9.09755e-07
7.41784e-10
9.09694e-07
8.89505e-10
9.09621e-07
1.0733e-09
9.09532e-07
1.32305e-09
9.09421e-07
1.63969e-09
9.09289e-07
2.1686e-09
9.09097e-07
2.79479e-09
9.08911e-07
4.34754e-09
9.08542e-07
6.05642e-09
1.14788e-08
9.08512e-07
9.61597e-07
2.5826e-11
9.61592e-07
7.83588e-11
9.61582e-07
1.3333e-10
9.61569e-07
1.90771e-10
9.61552e-07
2.51112e-10
9.61531e-07
3.16087e-10
9.61504e-07
3.87732e-10
9.61472e-07
4.68171e-10
9.61434e-07
5.60087e-10
9.61389e-07
6.67491e-10
9.61335e-07
7.95515e-10
9.61272e-07
9.53425e-10
9.61195e-07
1.15023e-09
9.61102e-07
1.41544e-09
9.60986e-07
1.75571e-09
9.60848e-07
2.30634e-09
9.60652e-07
2.99081e-09
9.6046e-07
4.54003e-09
9.60112e-07
6.404e-09
1.15118e-08
9.60079e-07
1.01612e-06
2.7798e-11
1.01611e-06
8.41966e-11
1.0161e-06
1.42987e-10
1.01609e-06
2.04464e-10
1.01607e-06
2.6916e-10
1.01605e-06
3.38822e-10
1.01602e-06
4.15584e-10
1.01598e-06
5.01731e-10
1.01594e-06
6.00142e-10
1.0159e-06
7.15055e-10
1.01584e-06
8.51989e-10
1.01577e-06
1.02055e-09
1.01569e-06
1.23086e-09
1.0156e-06
1.51216e-09
1.01548e-06
1.87645e-09
1.01533e-06
2.44977e-09
1.01513e-06
3.18993e-09
1.01493e-06
4.73887e-09
1.01461e-06
6.7294e-09
1.15464e-08
1.01457e-06
1.07373e-06
2.98667e-11
1.07372e-06
9.03386e-11
1.07371e-06
1.53166e-10
1.0737e-06
2.18894e-10
1.07368e-06
2.88172e-10
1.07365e-06
3.62765e-10
1.07362e-06
4.4491e-10
1.07359e-06
5.37053e-10
1.07355e-06
6.42278e-10
1.0735e-06
7.6506e-10
1.07344e-06
9.11308e-10
1.07337e-06
1.09098e-09
1.07328e-06
1.31529e-09
1.07318e-06
1.61327e-09
1.07305e-06
2.00189e-09
1.07291e-06
2.59877e-09
1.0727e-06
3.39171e-09
1.0725e-06
4.94287e-09
1.0722e-06
7.0328e-09
1.15808e-08
1.07216e-06
1.1346e-06
3.2037e-11
1.1346e-06
9.67984e-11
1.13459e-06
1.63892e-10
1.13457e-06
2.34095e-10
1.13455e-06
3.0819e-10
1.13452e-06
3.87971e-10
1.13449e-06
4.75772e-10
1.13446e-06
5.74212e-10
1.13441e-06
6.8658e-10
1.13436e-06
8.17599e-10
1.1343e-06
9.73569e-10
1.13422e-06
1.16481e-09
1.13414e-06
1.40361e-09
1.13403e-06
1.71884e-09
1.1339e-06
2.13202e-09
1.13375e-06
2.75314e-09
1.13354e-06
3.59564e-09
1.13333e-06
5.15067e-09
1.13305e-06
7.3147e-09
1.16134e-08
1.13302e-06
1.19893e-06
3.4314e-11
1.19892e-06
1.0359e-10
1.19891e-06
1.75187e-10
1.1989e-06
2.50103e-10
1.19888e-06
3.29259e-10
1.19885e-06
4.14492e-10
1.19882e-06
5.08235e-10
1.19878e-06
6.13279e-10
1.19873e-06
7.3313e-10
1.19868e-06
8.72758e-10
1.19861e-06
1.03886e-09
1.19853e-06
1.24213e-09
1.19844e-06
1.49587e-09
1.19833e-06
1.82889e-09
1.1982e-06
2.26674e-09
1.19804e-06
2.91258e-09
1.19783e-06
3.80119e-09
1.19762e-06
5.36081e-09
1.19736e-06
7.57574e-09
1.16425e-08
1.19733e-06
1.26691e-06
3.67029e-11
1.2669e-06
1.10728e-10
1.26689e-06
1.87076e-10
1.26687e-06
2.66951e-10
1.26685e-06
3.51424e-10
1.26682e-06
4.42382e-10
1.26679e-06
5.42362e-10
1.26674e-06
6.54326e-10
1.2667e-06
7.82004e-10
1.26664e-06
9.30623e-10
1.26657e-06
1.10727e-09
1.26649e-06
1.32302e-09
1.26639e-06
1.59214e-09
1.26628e-06
1.9434e-09
1.26614e-06
2.40594e-09
1.26597e-06
3.07674e-09
1.26577e-06
4.00776e-09
1.26556e-06
5.57181e-09
1.26532e-06
7.81661e-09
1.16669e-08
1.26529e-06
1.33873e-06
3.92089e-11
1.33873e-06
1.18227e-10
1.33871e-06
1.99582e-10
1.3387e-06
2.84673e-10
1.33867e-06
3.74727e-10
1.33864e-06
4.71694e-10
1.33861e-06
5.78213e-10
1.33856e-06
6.97423e-10
1.33851e-06
8.33279e-10
1.33845e-06
9.91268e-10
1.33838e-06
1.17887e-09
1.3383e-06
1.40753e-09
1.3382e-06
1.69242e-09
1.33808e-06
2.06234e-09
1.33793e-06
2.54945e-09
1.33777e-06
3.24517e-09
1.33756e-06
4.21472e-09
1.33735e-06
5.78217e-09
1.33713e-06
8.03805e-09
1.16851e-08
1.33711e-06
1.41464e-06
4.18371e-11
1.41463e-06
1.261e-10
1.41461e-06
2.12728e-10
1.4146e-06
3.03304e-10
1.41457e-06
3.99212e-10
1.41454e-06
5.02479e-10
1.4145e-06
6.15847e-10
1.41446e-06
7.42635e-10
1.4144e-06
8.87024e-10
1.41434e-06
1.05476e-09
1.41427e-06
1.25371e-09
1.41418e-06
1.49571e-09
1.41407e-06
1.79673e-09
1.41395e-06
2.18561e-09
1.4138e-06
2.69703e-09
1.41363e-06
3.41734e-09
1.41342e-06
4.42137e-09
1.41321e-06
5.9904e-09
1.41301e-06
8.24081e-09
1.16962e-08
1.413e-06
1.49484e-06
4.45925e-11
1.49483e-06
1.34363e-10
1.49482e-06
2.26539e-10
1.4948e-06
3.22875e-10
1.49477e-06
4.24921e-10
1.49474e-06
5.34786e-10
1.4947e-06
6.55322e-10
1.49465e-06
7.90023e-10
1.4946e-06
9.433e-10
1.49453e-06
1.12117e-09
1.49445e-06
1.33185e-09
1.49436e-06
1.58756e-09
1.49425e-06
1.90502e-09
1.49412e-06
2.31307e-09
1.49397e-06
2.84841e-09
1.4938e-06
3.59266e-09
1.49359e-06
4.62696e-09
1.49339e-06
6.19506e-09
1.4932e-06
8.42558e-09
1.16994e-08
1.4932e-06
1.57959e-06
4.74803e-11
1.57958e-06
1.43028e-10
1.57957e-06
2.41035e-10
1.57955e-06
3.43419e-10
1.57952e-06
4.51892e-10
1.57949e-06
5.68662e-10
1.57945e-06
6.96687e-10
1.5794e-06
8.3964e-10
1.57934e-06
1.00216e-09
1.57927e-06
1.19052e-09
1.57919e-06
1.41331e-09
1.57909e-06
1.68308e-09
1.57898e-06
2.01721e-09
1.57885e-06
2.44455e-09
1.57869e-06
3.00321e-09
1.57851e-06
3.77044e-09
1.57831e-06
4.83071e-09
1.57811e-06
6.39476e-09
1.57794e-06
8.59307e-09
1.16941e-08
1.57795e-06
1.66915e-06
5.0505e-11
1.66914e-06
1.52109e-10
1.66912e-06
2.56238e-10
1.6691e-06
3.64964e-10
1.66907e-06
4.80163e-10
1.66904e-06
6.04147e-10
1.669e-06
7.39988e-10
1.66894e-06
8.91533e-10
1.66888e-06
1.06365e-09
1.66881e-06
1.26286e-09
1.66873e-06
1.49809e-09
1.66863e-06
1.78222e-09
1.66851e-06
2.1332e-09
1.66837e-06
2.57978e-09
1.66822e-06
3.16103e-09
1.66804e-06
3.94995e-09
1.66784e-06
5.03178e-09
1.66764e-06
6.58821e-09
1.66749e-06
8.7439e-09
1.16799e-08
1.66751e-06
1.76378e-06
5.36709e-11
1.76377e-06
1.61619e-10
1.76376e-06
2.72166e-10
1.76374e-06
3.87537e-10
1.76371e-06
5.09766e-10
1.76367e-06
6.41279e-10
1.76362e-06
7.85264e-10
1.76357e-06
9.45738e-10
1.7635e-06
1.12779e-09
1.76343e-06
1.33819e-09
1.76334e-06
1.58618e-09
1.76324e-06
1.88492e-09
1.76312e-06
2.25281e-09
1.76298e-06
2.71847e-09
1.76282e-06
3.32136e-09
1.76264e-06
4.13037e-09
1.76244e-06
5.2293e-09
1.76226e-06
6.77421e-09
1.76212e-06
8.87865e-09
1.16567e-08
1.76214e-06
1.86378e-06
5.69821e-11
1.86377e-06
1.71567e-10
1.86376e-06
2.88837e-10
1.86373e-06
4.1116e-10
1.8637e-06
5.40729e-10
1.86366e-06
6.80088e-10
1.86362e-06
8.32543e-10
1.86356e-06
1.00228e-09
1.86349e-06
1.19459e-09
1.86341e-06
1.4165e-09
1.86332e-06
1.67751e-09
1.86322e-06
1.99105e-09
1.86309e-06
2.37584e-09
1.86295e-06
2.86024e-09
1.86279e-06
3.48365e-09
1.86261e-06
4.31083e-09
1.86242e-06
5.4224e-09
1.86224e-06
6.95165e-09
1.86212e-06
8.99786e-09
1.16245e-08
1.86215e-06
1.96945e-06
6.04418e-11
1.96944e-06
1.81963e-10
1.96942e-06
3.06264e-10
1.9694e-06
4.35851e-10
1.96937e-06
5.73074e-10
1.96933e-06
7.20595e-10
1.96928e-06
8.81843e-10
1.96922e-06
1.06116e-09
1.96915e-06
1.26405e-09
1.96907e-06
1.49775e-09
1.96897e-06
1.77201e-09
1.96886e-06
2.10045e-09
1.96874e-06
2.50201e-09
1.96859e-06
3.00465e-09
1.96843e-06
3.64725e-09
1.96825e-06
4.49042e-09
1.96806e-06
5.61018e-09
1.9679e-06
7.11956e-09
1.96779e-06
9.10202e-09
1.15833e-08
1.96783e-06
2.08111e-06
6.40527e-11
2.0811e-06
1.92815e-10
2.08108e-06
3.24459e-10
2.08106e-06
4.61624e-10
2.08102e-06
6.06813e-10
2.08098e-06
7.62811e-10
2.08093e-06
9.33167e-10
2.08087e-06
1.12238e-09
2.0808e-06
1.33613e-09
2.08071e-06
1.58186e-09
2.08062e-06
1.86954e-09
2.0805e-06
2.21292e-09
2.08037e-06
2.63098e-09
2.08023e-06
3.1512e-09
2.08006e-06
3.81147e-09
2.07989e-06
4.66819e-09
2.0797e-06
5.79172e-09
2.07955e-06
7.27709e-09
2.07946e-06
9.19155e-09
1.15334e-08
2.07951e-06
2.1991e-06
6.78165e-11
2.19909e-06
2.04126e-10
2.19907e-06
3.43425e-10
2.19905e-06
4.88485e-10
2.19901e-06
6.41951e-10
2.19897e-06
8.06735e-10
2.19892e-06
9.86502e-10
2.19885e-06
1.18589e-09
2.19878e-06
1.41077e-09
2.19869e-06
1.66874e-09
2.19859e-06
1.96994e-09
2.19847e-06
2.32817e-09
2.19834e-06
2.76237e-09
2.1982e-06
3.2993e-09
2.19803e-06
3.97554e-09
2.19786e-06
4.84315e-09
2.19768e-06
5.96616e-09
2.19754e-06
7.42351e-09
2.19746e-06
9.26689e-09
1.1475e-08
2.19752e-06
2.32379e-06
7.17338e-11
2.32377e-06
2.15899e-10
2.32375e-06
3.63165e-10
2.32373e-06
5.16431e-10
2.32369e-06
6.78481e-10
2.32364e-06
8.5235e-10
2.32359e-06
1.04182e-09
2.32352e-06
1.25166e-09
2.32345e-06
1.48788e-09
2.32336e-06
1.75825e-09
2.32325e-06
2.07298e-09
2.32314e-06
2.4459e-09
2.323e-06
2.89571e-09
2.32285e-06
3.44833e-09
2.32269e-06
4.13864e-09
2.32252e-06
5.01432e-09
2.32235e-06
6.13263e-09
2.32222e-06
7.5582e-09
2.32216e-06
9.32841e-09
1.14086e-08
2.32222e-06
2.45554e-06
7.58041e-11
2.45552e-06
2.2813e-10
2.4555e-06
3.83672e-10
2.45547e-06
5.45451e-10
2.45544e-06
7.16384e-10
2.45539e-06
8.99623e-10
2.45533e-06
1.09906e-09
2.45526e-06
1.31958e-09
2.45518e-06
1.56733e-09
2.45509e-06
1.85018e-09
2.45499e-06
2.1784e-09
2.45487e-06
2.5657e-09
2.45473e-06
3.03046e-09
2.45458e-06
3.59755e-09
2.45442e-06
4.29989e-09
2.45426e-06
5.1807e-09
2.4541e-06
6.2903e-09
2.45398e-06
7.68067e-09
2.45393e-06
9.37648e-09
1.13344e-08
2.454e-06
2.59476e-06
8.00251e-11
2.59474e-06
2.40813e-10
2.59472e-06
4.04931e-10
2.59469e-06
5.75522e-10
2.59465e-06
7.55624e-10
2.5946e-06
9.485e-10
2.59454e-06
1.15814e-09
2.59447e-06
1.38955e-09
2.59439e-06
1.64896e-09
2.5943e-06
1.94431e-09
2.59419e-06
2.28586e-09
2.59407e-06
2.68714e-09
2.59393e-06
3.16603e-09
2.59379e-06
3.74622e-09
2.59363e-06
4.45839e-09
2.59347e-06
5.34131e-09
2.59332e-06
6.43841e-09
2.59321e-06
7.79053e-09
2.59317e-06
9.41149e-09
1.12529e-08
2.59326e-06
2.74187e-06
8.43932e-11
2.74186e-06
2.53936e-10
2.74183e-06
4.26922e-10
2.7418e-06
6.06609e-10
2.74176e-06
7.96148e-10
2.74171e-06
9.98907e-10
2.74165e-06
1.21897e-09
2.74158e-06
1.46141e-09
2.7415e-06
1.73255e-09
2.7414e-06
2.04035e-09
2.74129e-06
2.39498e-09
2.74117e-06
2.80971e-09
2.74103e-06
3.30175e-09
2.74088e-06
3.89349e-09
2.74073e-06
4.61319e-09
2.74058e-06
5.49518e-09
2.74044e-06
6.57624e-09
2.74034e-06
7.8875e-09
2.74032e-06
9.43379e-09
1.11644e-08
2.74041e-06
2.89732e-06
8.89022e-11
2.89731e-06
2.67479e-10
2.89729e-06
4.49611e-10
2.89725e-06
6.38659e-10
2.89721e-06
8.37883e-10
2.89716e-06
1.05074e-09
2.8971e-06
1.28139e-09
2.89702e-06
1.53498e-09
2.89694e-06
1.81786e-09
2.89684e-06
2.13795e-09
2.89673e-06
2.50531e-09
2.89661e-06
2.93281e-09
2.89647e-06
3.4369e-09
2.89633e-06
4.03851e-09
2.89618e-06
4.76334e-09
2.89603e-06
5.64139e-09
2.89591e-06
6.70316e-09
2.89582e-06
7.9714e-09
2.89581e-06
9.44376e-09
1.10692e-08
2.89591e-06
3.06159e-06
9.3544e-11
3.06158e-06
2.81419e-10
3.06155e-06
4.72952e-10
3.06152e-06
6.71607e-10
3.06148e-06
8.80733e-10
3.06142e-06
1.10387e-09
3.06136e-06
1.34524e-09
3.06129e-06
1.61002e-09
3.0612e-06
1.90456e-09
3.0611e-06
2.23673e-09
3.06099e-06
2.61634e-09
3.06087e-06
3.0558e-09
3.06073e-06
3.57071e-09
3.06059e-06
4.18037e-09
3.06045e-06
4.90788e-09
3.06031e-06
5.77906e-09
3.06019e-06
6.8186e-09
3.06012e-06
8.04212e-09
3.06012e-06
9.44178e-09
1.09677e-08
3.06023e-06
3.23517e-06
9.83079e-11
3.23516e-06
2.95721e-10
3.23513e-06
4.9689e-10
3.2351e-06
7.05365e-10
3.23506e-06
9.24578e-10
3.235e-06
1.15813e-09
3.23494e-06
1.41029e-09
3.23486e-06
1.68624e-09
3.23477e-06
1.99231e-09
3.23467e-06
2.33621e-09
3.23456e-06
2.72749e-09
3.23444e-06
3.178e-09
3.23431e-06
3.70233e-09
3.23417e-06
4.31814e-09
3.23403e-06
5.04588e-09
3.2339e-06
5.90738e-09
3.2338e-06
6.92208e-09
3.23374e-06
8.09966e-09
3.23376e-06
9.42823e-09
1.08602e-08
3.23386e-06
3.41859e-06
1.0318e-10
3.41858e-06
3.10344e-10
3.41855e-06
5.2135e-10
3.41852e-06
7.39827e-10
3.41848e-06
9.6927e-10
3.41842e-06
1.21333e-09
3.41835e-06
1.47629e-09
3.41828e-06
1.76333e-09
3.41819e-06
2.08069e-09
3.41809e-06
2.43589e-09
3.41798e-06
2.83813e-09
3.41786e-06
3.29862e-09
3.41773e-06
3.8309e-09
3.4176e-06
4.45088e-09
3.41747e-06
5.17641e-09
3.41735e-06
6.02561e-09
3.41726e-06
7.0132e-09
3.41721e-06
8.14405e-09
3.41724e-06
9.40349e-09
1.07468e-08
3.41735e-06
3.61242e-06
1.08143e-10
3.6124e-06
3.25236e-10
3.61238e-06
5.46245e-10
3.61234e-06
7.74862e-10
3.61229e-06
1.01463e-09
3.61224e-06
1.26923e-09
3.61217e-06
1.54295e-09
3.61209e-06
1.8409e-09
3.61201e-06
2.16922e-09
3.61191e-06
2.53519e-09
3.6118e-06
2.94757e-09
3.61168e-06
3.41689e-09
3.61155e-06
3.95552e-09
3.61143e-06
4.57766e-09
3.61131e-06
5.29861e-09
3.6112e-06
6.13306e-09
3.61112e-06
7.09166e-09
3.61109e-06
8.17542e-09
3.61112e-06
9.36796e-09
1.0628e-08
3.61124e-06
3.81723e-06
1.13178e-10
3.81721e-06
3.40335e-10
3.81719e-06
5.71469e-10
3.81715e-06
8.10316e-10
3.8171e-06
1.06045e-09
3.81705e-06
1.32556e-09
3.81698e-06
1.60991e-09
3.8169e-06
1.91853e-09
3.81682e-06
2.25738e-09
3.81672e-06
2.63346e-09
3.81661e-06
3.05507e-09
3.81649e-06
3.53194e-09
3.81637e-06
4.07527e-09
3.81625e-06
4.69754e-09
3.81614e-06
5.41164e-09
3.81605e-06
6.22914e-09
3.81598e-06
7.15724e-09
3.81596e-06
8.19393e-09
3.81601e-06
9.32202e-09
1.05038e-08
3.81613e-06
4.03365e-06
1.18258e-10
4.03363e-06
3.5557e-10
4.03361e-06
5.96898e-10
4.03357e-06
8.46008e-10
4.03353e-06
1.10649e-09
4.03347e-06
1.38202e-09
4.0334e-06
1.67678e-09
4.03333e-06
1.99572e-09
4.03324e-06
2.34459e-09
4.03314e-06
2.73005e-09
4.03304e-06
3.15985e-09
4.03293e-06
3.64291e-09
4.03281e-06
4.18926e-09
4.0327e-06
4.80966e-09
4.0326e-06
5.51475e-09
4.03251e-06
6.31337e-09
4.03246e-06
7.20979e-09
4.03245e-06
8.19979e-09
4.03251e-06
9.26605e-09
1.03746e-08
4.03264e-06
4.26234e-06
1.23358e-10
4.26233e-06
3.70854e-10
4.2623e-06
6.22387e-10
4.26226e-06
8.81733e-10
4.26222e-06
1.15247e-09
4.26216e-06
1.43823e-09
4.2621e-06
1.74314e-09
4.26202e-06
2.07197e-09
4.26193e-06
2.43022e-09
4.26184e-06
2.8242e-09
4.26174e-06
3.26108e-09
4.26163e-06
3.74892e-09
4.26153e-06
4.29656e-09
4.26142e-06
4.91314e-09
4.26133e-06
5.60725e-09
4.26126e-06
6.38531e-09
4.26122e-06
7.24925e-09
4.26123e-06
8.19326e-09
4.26129e-06
9.20041e-09
1.02403e-08
4.26142e-06
4.504e-06
1.28445e-10
4.50399e-06
3.86092e-10
4.50396e-06
6.47776e-10
4.50392e-06
9.17256e-10
4.50388e-06
1.19808e-09
4.50382e-06
1.49383e-09
4.50376e-06
1.80849e-09
4.50368e-06
2.14668e-09
4.5036e-06
2.51361e-09
4.50351e-06
2.91517e-09
4.50341e-06
3.35792e-09
4.50331e-06
3.84908e-09
4.50321e-06
4.3963e-09
4.50312e-06
5.00722e-09
4.50304e-06
5.68854e-09
4.50298e-06
6.44466e-09
4.50295e-06
7.27563e-09
4.50297e-06
8.17462e-09
4.50304e-06
9.12548e-09
1.01013e-08
4.50318e-06
4.75936e-06
1.33482e-10
4.75935e-06
4.01176e-10
4.75932e-06
6.7288e-10
4.75929e-06
9.52318e-10
4.75924e-06
1.24298e-09
4.75919e-06
1.54836e-09
4.75912e-06
1.87232e-09
4.75905e-06
2.21924e-09
4.75897e-06
2.59405e-09
4.75888e-06
3.00217e-09
4.75879e-06
3.44954e-09
4.7587e-06
3.94252e-09
4.75861e-06
4.48765e-09
4.75852e-06
5.09116e-09
4.75845e-06
5.75811e-09
4.75841e-06
6.49118e-09
4.75839e-06
7.289e-09
4.75842e-06
8.14419e-09
4.75851e-06
9.04159e-09
9.95755e-09
4.75865e-06
5.0292e-06
1.3843e-10
5.02918e-06
4.15985e-10
5.02916e-06
6.975e-10
5.02913e-06
9.86634e-10
5.02908e-06
1.2868e-09
5.02903e-06
1.60138e-09
5.02897e-06
1.93407e-09
5.0289e-06
2.28902e-09
5.02882e-06
2.67081e-09
5.02874e-06
3.0844e-09
5.02865e-06
3.53508e-09
5.02857e-06
4.0284e-09
5.02848e-06
4.56984e-09
5.02841e-06
5.16433e-09
5.02835e-06
5.81553e-09
5.02832e-06
6.52472e-09
5.02832e-06
7.28951e-09
5.02836e-06
8.10228e-09
5.02845e-06
8.94908e-09
9.80926e-09
5.0286e-06
5.31434e-06
1.43245e-10
5.31432e-06
4.30391e-10
5.3143e-06
7.21417e-10
5.31426e-06
1.0199e-09
5.31422e-06
1.32914e-09
5.31417e-06
1.65239e-09
5.31411e-06
1.99316e-09
5.31405e-06
2.35534e-09
5.31397e-06
2.74315e-09
5.3139e-06
3.16105e-09
5.31382e-06
3.61374e-09
5.31374e-06
4.10593e-09
5.31367e-06
4.64214e-09
5.31361e-06
5.22617e-09
5.31356e-06
5.86047e-09
5.31354e-06
6.54524e-09
5.31355e-06
7.27734e-09
5.31361e-06
8.04925e-09
5.31371e-06
8.84826e-09
9.65649e-09
5.31386e-06
5.61564e-06
1.47882e-10
5.61563e-06
4.44254e-10
5.6156e-06
7.444e-10
5.61557e-06
1.05178e-09
5.61553e-06
1.36958e-09
5.61548e-06
1.70089e-09
5.61543e-06
2.049e-09
5.61536e-06
2.41753e-09
5.6153e-06
2.81031e-09
5.61523e-06
3.23135e-09
5.61516e-06
3.68471e-09
5.61509e-06
4.17437e-09
5.61503e-06
4.70393e-09
5.61498e-06
5.27623e-09
5.61494e-06
5.89271e-09
5.61494e-06
6.55273e-09
5.61496e-06
7.25273e-09
5.61502e-06
7.98544e-09
5.61513e-06
8.73945e-09
9.49934e-09
5.61529e-06
5.93403e-06
1.5229e-10
5.93401e-06
4.57427e-10
5.93399e-06
7.66205e-10
5.93396e-06
1.08194e-09
5.93392e-06
1.40768e-09
5.93388e-06
1.74633e-09
5.93383e-06
2.10097e-09
5.93377e-06
2.4749e-09
5.93371e-06
2.87159e-09
5.93364e-06
3.29455e-09
5.93358e-06
3.74728e-09
5.93352e-06
4.23305e-09
5.93347e-06
4.75467e-09
5.93343e-06
5.31414e-09
5.93341e-06
5.9121e-09
5.93342e-06
6.5473e-09
5.93346e-06
7.21596e-09
5.93353e-06
7.91122e-09
5.93365e-06
8.62293e-09
9.33786e-09
5.93381e-06
6.27046e-06
1.56419e-10
6.27045e-06
4.6976e-10
6.27043e-06
7.86581e-10
6.2704e-06
1.11004e-09
6.27037e-06
1.44301e-09
6.27033e-06
1.78821e-09
6.27028e-06
2.14847e-09
6.27023e-06
2.52679e-09
6.27017e-06
2.92627e-09
6.27012e-06
3.34995e-09
6.27006e-06
3.80078e-09
6.27001e-06
4.28139e-09
6.26997e-06
4.79392e-09
6.26995e-06
5.33965e-09
6.26994e-06
5.91861e-09
6.26996e-06
6.52912e-09
6.27001e-06
7.16735e-09
6.27009e-06
7.82695e-09
6.27022e-06
8.49898e-09
9.17215e-09
6.27038e-06
6.62598e-06
1.60219e-10
6.62596e-06
4.811e-10
6.62595e-06
8.05278e-10
6.62592e-06
1.13572e-09