/*--------------------------------*- C++ -*----------------------------------*\
| =========                 |                                                 |
| \\      /  F ield         | OpenFOAM: The Open Source CFD Toolbox           |
|  \\    /   O peration     | Version:  v1912                                 |
|   \\  /    A nd           | Website:  www.openfoam.com                      |
|    \\/     M anipulation  |                                                 |
\*---------------------------------------------------------------------------*/
FoamFile
{
    version     2.0;
    format      ascii;
    class       volVectorField;
    location    "500";
    object      U;
}
// * * * * * * * * * * * * * * * * * * * * * * * * * * * * * * * * * * * * * //

dimensions      [0 1 -1 0 0 0 0];


internalField   nonuniform List<vector> 
10000
(
(1 1.92374e-08 0)
(0.999996 6.24307e-08 0)
(0.999989 1.11162e-07 0)
(0.999977 1.59905e-07 0)
(0.999961 2.09803e-07 0)
(0.999941 2.63805e-07 0)
(0.999915 3.23757e-07 0)
(0.999884 3.91329e-07 0)
(0.999847 4.686e-07 0)
(0.999802 5.59646e-07 0)
(0.999749 6.67539e-07 0)
(0.999686 8.0535e-07 0)
(0.999609 9.67412e-07 0)
(0.999518 1.2263e-06 0)
(0.999395 1.44698e-06 0)
(0.999266 2.26629e-06 0)
(0.999 1.79272e-06 0)
(0.998955 9.11369e-06 0)
(0.997408 -2.35444e-05 0)
(1.00286 0.00066379 0)
(1 5.86281e-08 0)
(0.999996 1.90563e-07 0)
(0.999989 3.39276e-07 0)
(0.999977 4.88215e-07 0)
(0.999961 6.40705e-07 0)
(0.999941 8.05696e-07 0)
(0.999915 9.88845e-07 0)
(0.999884 1.19526e-06 0)
(0.999847 1.43129e-06 0)
(0.999802 1.70938e-06 0)
(0.999749 2.03896e-06 0)
(0.999686 2.45975e-06 0)
(0.999609 2.95502e-06 0)
(0.999518 3.74469e-06 0)
(0.999395 4.42122e-06 0)
(0.999266 6.91379e-06 0)
(0.999 5.50437e-06 0)
(0.998952 2.74836e-05 0)
(0.997462 -6.23184e-05 0)
(1.00132 0.0013506 0)
(1 1.00207e-07 0)
(0.999996 3.2582e-07 0)
(0.999989 5.79821e-07 0)
(0.999977 8.34569e-07 0)
(0.999961 1.09545e-06 0)
(0.999941 1.37765e-06 0)
(0.999915 1.69087e-06 0)
(0.999884 2.04386e-06 0)
(0.999847 2.44751e-06 0)
(0.999802 2.923e-06 0)
(0.999749 3.48664e-06 0)
(0.999686 4.2059e-06 0)
(0.999609 5.05337e-06 0)
(0.999518 6.40143e-06 0)
(0.999395 7.5641e-06 0)
(0.999266 1.18016e-05 0)
(0.999001 9.50454e-06 0)
(0.998946 4.58949e-05 0)
(0.997543 -8.2926e-05 0)
(1.00013 0.00135279 0)
(1 1.44442e-07 0)
(0.999996 4.69087e-07 0)
(0.999989 8.34263e-07 0)
(0.999977 1.20082e-06 0)
(0.999961 1.57627e-06 0)
(0.999941 1.98237e-06 0)
(0.999915 2.43309e-06 0)
(0.999884 2.94102e-06 0)
(0.999847 3.52186e-06 0)
(0.999802 4.20603e-06 0)
(0.999749 5.01714e-06 0)
(0.999686 6.05181e-06 0)
(0.999609 7.27188e-06 0)
(0.999518 9.20916e-06 0)
(0.999395 1.08896e-05 0)
(0.999266 1.69513e-05 0)
(0.999002 1.38454e-05 0)
(0.998937 6.4179e-05 0)
(0.997637 -9.05323e-05 0)
(0.999266 0.0012025 0)
(1 1.91355e-07 0)
(0.999996 6.2065e-07 0)
(0.999989 1.10321e-06 0)
(0.999977 1.5879e-06 0)
(0.999961 2.08443e-06 0)
(0.999941 2.62146e-06 0)
(0.999915 3.21749e-06 0)
(0.999884 3.88915e-06 0)
(0.999847 4.65724e-06 0)
(0.999803 5.56191e-06 0)
(0.999749 6.63455e-06 0)
(0.999686 8.00241e-06 0)
(0.999609 9.61652e-06 0)
(0.999518 1.2175e-05 0)
(0.999396 1.44077e-05 0)
(0.999265 2.23681e-05 0)
(0.999004 1.85833e-05 0)
(0.998925 8.21489e-05 0)
(0.997734 -8.89696e-05 0)
(0.99864 0.00113944 0)
(1 2.41069e-07 0)
(0.999996 7.80928e-07 0)
(0.999989 1.38737e-06 0)
(0.999977 1.99688e-06 0)
(0.999961 2.62135e-06 0)
(0.999941 3.29674e-06 0)
(0.999915 4.04629e-06 0)
(0.999884 4.89094e-06 0)
(0.999847 5.85686e-06 0)
(0.999803 6.99448e-06 0)
(0.999749 8.34345e-06 0)
(0.999686 1.00631e-05 0)
(0.999609 1.20939e-05 0)
(0.999518 1.53067e-05 0)
(0.999396 1.81298e-05 0)
(0.999265 2.80563e-05 0)
(0.999007 2.37775e-05 0)
(0.998913 9.96834e-05 0)
(0.997831 -7.991e-05 0)
(0.998195 0.001119 0)
(1 2.93776e-07 0)
(0.999996 9.50441e-07 0)
(0.999989 1.6876e-06 0)
(0.999977 2.42897e-06 0)
(0.999961 3.18863e-06 0)
(0.999941 4.0102e-06 0)
(0.999915 4.92196e-06 0)
(0.999884 5.94936e-06 0)
(0.999847 7.12429e-06 0)
(0.999803 8.50796e-06 0)
(0.99975 1.01489e-05 0)
(0.999686 1.224e-05 0)
(0.999609 1.47115e-05 0)
(0.999518 1.86126e-05 0)
(0.999396 2.20687e-05 0)
(0.999265 3.40212e-05 0)
(0.99901 2.94846e-05 0)
(0.998899 0.000116735 0)
(0.997922 -6.46887e-05 0)
(0.997888 0.00110582 0)
(1 3.49689e-07 0)
(0.999996 1.12975e-06 0)
(0.999989 2.00481e-06 0)
(0.999977 2.88546e-06 0)
(0.999961 3.78799e-06 0)
(0.999941 4.764e-06 0)
(0.999915 5.84712e-06 0)
(0.999884 7.06758e-06 0)
(0.999847 8.46331e-06 0)
(0.999803 1.01069e-05 0)
(0.99975 1.20563e-05 0)
(0.999686 1.45393e-05 0)
(0.999609 1.7477e-05 0)
(0.999518 2.21018e-05 0)
(0.999396 2.62382e-05 0)
(0.999265 4.02682e-05 0)
(0.999013 3.5755e-05 0)
(0.998886 0.000133314 0)
(0.998005 -4.46125e-05 0)
(0.997687 0.00109467 0)
(1 4.09043e-07 0)
(0.999996 1.31947e-06 0)
(0.999989 2.33995e-06 0)
(0.999977 3.36773e-06 0)
(0.999961 4.42122e-06 0)
(0.999941 5.5604e-06 0)
(0.999915 6.82455e-06 0)
(0.999884 8.24895e-06 0)
(0.999847 9.87791e-06 0)
(0.999803 1.17959e-05 0)
(0.99975 1.40712e-05 0)
(0.999686 1.69678e-05 0)
(0.99961 2.03988e-05 0)
(0.999518 2.57834e-05 0)
(0.999397 3.06526e-05 0)
(0.999265 4.68034e-05 0)
(0.999017 4.26321e-05 0)
(0.998873 0.000149478 0)
(0.998078 -2.07985e-05 0)
(0.997568 0.00108731 0)
(1 4.72094e-07 0)
(0.999996 1.52022e-06 0)
(0.999989 2.69401e-06 0)
(0.999977 3.8772e-06 0)
(0.999961 5.09019e-06 0)
(0.999941 6.40176e-06 0)
(0.999915 7.85714e-06 0)
(0.999884 9.49695e-06 0)
(0.999847 1.13723e-05 0)
(0.999803 1.35801e-05 0)
(0.99975 1.61996e-05 0)
(0.999687 1.95325e-05 0)
(0.99961 2.34854e-05 0)
(0.999518 2.96669e-05 0)
(0.999397 3.53269e-05 0)
(0.999265 5.36332e-05 0)
(0.999021 5.0151e-05 0)
(0.998861 0.000165319 0)
(0.99814 5.8677e-06 0)
(0.997509 0.00108404 0)
(1 5.39135e-07 0)
(0.999996 1.73273e-06 0)
(0.999989 3.06806e-06 0)
(0.999977 4.41537e-06 0)
(0.999961 5.79691e-06 0)
(0.999941 7.29059e-06 0)
(0.999915 8.94796e-06 0)
(0.999884 1.08153e-05 0)
(0.999847 1.29508e-05 0)
(0.999803 1.54646e-05 0)
(0.99975 1.84477e-05 0)
(0.999687 2.22405e-05 0)
(0.99961 2.67459e-05 0)
(0.999519 3.3762e-05 0)
(0.999398 4.02766e-05 0)
(0.999264 6.07652e-05 0)
(0.999025 5.83384e-05 0)
(0.998851 0.000180944 0)
(0.998192 3.46975e-05 0)
(0.997495 0.00108413 0)
(1 6.10493e-07 0)
(0.999996 1.95775e-06 0)
(0.999989 3.4632e-06 0)
(0.999977 4.98382e-06 0)
(0.999961 6.54344e-06 0)
(0.999941 8.2295e-06 0)
(0.999915 1.01002e-05 0)
(0.999884 1.22078e-05 0)
(0.999847 1.46181e-05 0)
(0.999803 1.74548e-05 0)
(0.99975 2.0822e-05 0)
(0.999687 2.50996e-05 0)
(0.99961 3.01896e-05 0)
(0.999519 3.80789e-05 0)
(0.999398 4.55178e-05 0)
(0.999265 6.82081e-05 0)
(0.99903 6.72139e-05 0)
(0.998844 0.00019647 0)
(0.998235 6.51726e-05 0)
(0.997512 0.00108671 0)
(1 6.86544e-07 0)
(0.999996 2.19611e-06 0)
(0.999989 3.88059e-06 0)
(0.999977 5.58418e-06 0)
(0.999961 7.33199e-06 0)
(0.999941 9.22126e-06 0)
(0.999915 1.13173e-05 0)
(0.999884 1.36785e-05 0)
(0.999847 1.63789e-05 0)
(0.999803 1.95566e-05 0)
(0.99975 2.33292e-05 0)
(0.999687 2.81175e-05 0)
(0.99961 3.38265e-05 0)
(0.999519 4.26278e-05 0)
(0.999399 5.10667e-05 0)
(0.999265 7.59716e-05 0)
(0.999034 7.67914e-05 0)
(0.998838 0.000212001 0)
(0.99827 9.69327e-05 0)
(0.997549 0.00109106 0)
(1 7.67716e-07 0)
(0.999996 2.44876e-06 0)
(0.999989 4.32148e-06 0)
(0.999977 6.21818e-06 0)
(0.999961 8.16486e-06 0)
(0.999941 1.02688e-05 0)
(0.999915 1.26027e-05 0)
(0.999884 1.52318e-05 0)
(0.999847 1.82385e-05 0)
(0.999803 2.17758e-05 0)
(0.99975 2.59766e-05 0)
(0.999687 3.13025e-05 0)
(0.999611 3.76668e-05 0)
(0.99952 4.74193e-05 0)
(0.9994 5.694e-05 0)
(0.999265 8.4066e-05 0)
(0.999039 8.70819e-05 0)
(0.998835 0.000227619 0)
(0.9983 0.00012976 0)
(0.997599 0.00109654 0)
(1 8.54492e-07 0)
(0.999996 2.71672e-06 0)
(0.999989 4.78715e-06 0)
(0.999977 6.88761e-06 0)
(0.999961 9.04445e-06 0)
(0.999941 1.13751e-05 0)
(0.999915 1.39603e-05 0)
(0.999885 1.6872e-05 0)
(0.999847 2.0202e-05 0)
(0.999803 2.41187e-05 0)
(0.99975 2.87714e-05 0)
(0.999688 3.46632e-05 0)
(0.999611 4.1721e-05 0)
(0.99952 5.24639e-05 0)
(0.999401 6.31544e-05 0)
(0.999266 9.25015e-05 0)
(0.999043 9.8097e-05 0)
(0.998833 0.000243377 0)
(0.998327 0.000163556 0)
(0.997656 0.00110257 0)
(1 9.47409e-07 0)
(0.999996 3.00112e-06 0)
(0.999989 5.27894e-06 0)
(0.999977 7.59431e-06 0)
(0.999961 9.97329e-06 0)
(0.999941 1.25434e-05 0)
(0.999915 1.53938e-05 0)
(0.999885 1.86039e-05 0)
(0.999848 2.22751e-05 0)
(0.999803 2.65918e-05 0)
(0.999751 3.17215e-05 0)
(0.999688 3.82082e-05 0)
(0.999612 4.60003e-05 0)
(0.999521 5.77728e-05 0)
(0.999402 6.9727e-05 0)
(0.999267 0.000101288 0)
(0.999048 0.000109851 0)
(0.998834 0.000259291 0)
(0.998351 0.000198312 0)
(0.997716 0.00110869 0)
(1 1.04703e-06 0)
(0.999997 3.30322e-06 0)
(0.999989 5.79828e-06 0)
(0.999977 8.34015e-06 0)
(0.999961 1.0954e-05 0)
(0.999941 1.3777e-05 0)
(0.999916 1.69074e-05 0)
(0.999885 2.04323e-05 0)
(0.999848 2.44636e-05 0)
(0.999804 2.9202e-05 0)
(0.999751 3.48349e-05 0)
(0.999688 4.19469e-05 0)
(0.999612 5.05158e-05 0)
(0.999521 6.3357e-05 0)
(0.999404 7.66748e-05 0)
(0.999268 0.000110432 0)
(0.999053 0.000122365 0)
(0.998836 0.000275347 0)
(0.998375 0.000234074 0)
(0.997778 0.00111453 0)
(1 1.15393e-06 0)
(0.999997 3.62437e-06 0)
(0.999989 6.34662e-06 0)
(0.999977 9.12704e-06 0)
(0.999961 1.19891e-05 0)
(0.999941 1.50793e-05 0)
(0.999916 1.85052e-05 0)
(0.999885 2.23622e-05 0)
(0.999848 2.67733e-05 0)
(0.999804 3.19562e-05 0)
(0.999751 3.81199e-05 0)
(0.999689 4.58884e-05 0)
(0.999613 5.52792e-05 0)
(0.999522 6.92274e-05 0)
(0.999405 8.40152e-05 0)
(0.999269 0.000119941 0)
(0.999058 0.000135662 0)
(0.998839 0.000291505 0)
(0.9984 0.000270907 0)
(0.99784 0.00111985 0)
(1 1.26858e-06 0)
(0.999997 3.96595e-06 0)
(0.999989 6.92553e-06 0)
(0.999977 9.95693e-06 0)
(0.999961 1.30814e-05 0)
(0.999941 1.64539e-05 0)
(0.999916 2.01914e-05 0)
(0.999885 2.43988e-05 0)
(0.999848 2.92105e-05 0)
(0.999804 3.48616e-05 0)
(0.999752 4.15848e-05 0)
(0.999689 5.00424e-05 0)
(0.999613 6.0302e-05 0)
(0.999523 7.53952e-05 0)
(0.999407 9.17649e-05 0)
(0.999271 0.000129817 0)
(0.999064 0.000149769 0)
(0.998844 0.000307719 0)
(0.998425 0.000308858 0)
(0.997903 0.00112452 0)
(1 1.39134e-06 0)
(0.999997 4.32929e-06 0)
(0.999989 7.53664e-06 0)
(0.999977 1.08318e-05 0)
(0.999961 1.42338e-05 0)
(0.999941 1.79043e-05 0)
(0.999916 2.19706e-05 0)
(0.999885 2.65472e-05 0)
(0.999848 3.17811e-05 0)
(0.999804 3.79252e-05 0)
(0.999752 4.5238e-05 0)
(0.99969 5.44179e-05 0)
(0.999614 6.55953e-05 0)
(0.999524 8.18706e-05 0)
(0.999408 9.99392e-05 0)
(0.999273 0.000140064 0)
(0.99907 0.000164704 0)
(0.99885 0.000323952 0)
(0.998452 0.000347914 0)
(0.997967 0.00112851 0)
(1 1.52242e-06 0)
(0.999997 4.71558e-06 0)
(0.999989 8.18169e-06 0)
(0.999977 1.17539e-05 0)
(0.999962 1.54493e-05 0)
(0.999941 1.94346e-05 0)
(0.999916 2.38476e-05 0)
(0.999885 2.88132e-05 0)
(0.999849 3.44919e-05 0)
(0.999805 4.11546e-05 0)
(0.999752 4.90881e-05 0)
(0.99969 5.90245e-05 0)
(0.999615 7.117e-05 0)
(0.999525 8.86639e-05 0)
(0.99941 0.00010855 0)
(0.999275 0.000150685 0)
(0.999076 0.00018047 0)
(0.998857 0.000340198 0)
(0.998479 0.00038795 0)
(0.998032 0.00113191 0)
(1 1.66192e-06 0)
(0.999997 5.12576e-06 0)
(0.999989 8.86258e-06 0)
(0.999978 1.27255e-05 0)
(0.999962 1.6731e-05 0)
(0.999941 2.10489e-05 0)
(0.999916 2.58276e-05 0)
(0.999886 3.12033e-05 0)
(0.999849 3.73506e-05 0)
(0.999805 4.45589e-05 0)
(0.999753 5.31456e-05 0)
(0.999691 6.3874e-05 0)
(0.999616 7.70386e-05 0)
(0.999526 9.57882e-05 0)
(0.999413 0.000117609 0)
(0.999278 0.000161693 0)
(0.999083 0.000197043 0)
(0.998865 0.000356505 0)
(0.998508 0.000428688 0)
(0.998097 0.00113491 0)
(1 1.8099e-06 0)
(0.999997 5.56057e-06 0)
(0.999989 9.58125e-06 0)
(0.999978 1.37493e-05 0)
(0.999962 1.80822e-05 0)
(0.999941 2.27516e-05 0)
(0.999916 2.7916e-05 0)
(0.999886 3.3724e-05 0)
(0.999849 4.03652e-05 0)
(0.999806 4.81479e-05 0)
(0.999754 5.74221e-05 0)
(0.999692 6.89805e-05 0)
(0.999617 8.32172e-05 0)
(0.999528 0.000103264 0)
(0.999415 0.000127131 0)
(0.999281 0.000173122 0)
(0.999091 0.000214383 0)
(0.998875 0.000373008 0)
(0.998539 0.000469686 0)
(0.998163 0.00113782 0)
(1 1.96645e-06 0)
(0.999997 6.02065e-06 0)
(0.999989 1.03397e-05 0)
(0.999978 1.48282e-05 0)
(0.999962 1.95063e-05 0)
(0.999942 2.45463e-05 0)
(0.999917 3.01171e-05 0)
(0.999886 3.63801e-05 0)
(0.99985 4.35412e-05 0)
(0.999806 5.19281e-05 0)
(0.999754 6.19251e-05 0)
(0.999693 7.43537e-05 0)
(0.999619 8.9716e-05 0)
(0.99953 0.000111108 0)
(0.999418 0.000137123 0)
(0.999285 0.000185019 0)
(0.9991 0.000232414 0)
(0.998886 0.000389913 0)
(0.99857 0.000510348 0)
(0.998229 0.00114089 0)
(1 2.13169e-06 0)
(0.999997 6.50662e-06 0)
(0.999989 1.11402e-05 0)
(0.999978 1.59653e-05 0)
(0.999962 2.1007e-05 0)
(0.999942 2.64376e-05 0)
(0.999917 3.24358e-05 0)
(0.999886 3.91771e-05 0)
(0.99985 4.68843e-05 0)
(0.999807 5.5905e-05 0)
(0.999755 6.66593e-05 0)
(0.999694 7.99976e-05 0)
(0.99962 9.65351e-05 0)
(0.999532 0.000119324 0)
(0.999421 0.000147564 0)
(0.999289 0.000197404 0)
(0.999108 0.000250993 0)
(0.998899 0.000407385 0)
(0.998603 0.00054991 0)
(0.998295 0.00114415 0)
(1 2.30576e-06 0)
(0.999997 7.01927e-06 0)
(0.999989 1.19849e-05 0)
(0.999978 1.71644e-05 0)
(0.999962 2.25889e-05 0)
(0.999942 2.84309e-05 0)
(0.999917 3.48791e-05 0)
(0.999887 4.21233e-05 0)
(0.99985 5.04039e-05 0)
(0.999807 6.00895e-05 0)
(0.999756 7.16369e-05 0)
(0.999695 8.59259e-05 0)
(0.999621 0.000103687 0)
(0.999534 0.000127927 0)
(0.999425 0.000158451 0)
(0.999294 0.000210308 0)
(0.999118 0.000269997 0)
(0.998913 0.000425525 0)
(0.998635 0.000587713 0)
(0.998359 0.00114743 0)
(1 2.48884e-06 0)
(0.999997 7.55954e-06 0)
(0.999989 1.28763e-05 0)
(0.999978 1.8429e-05 0)
(0.999962 2.42568e-05 0)
(0.999942 3.05324e-05 0)
(0.999917 3.74544e-05 0)
(0.999887 4.52277e-05 0)
(0.999851 5.41113e-05 0)
(0.999808 6.44953e-05 0)
(0.999757 7.6874e-05 0)
(0.999696 9.21582e-05 0)
(0.999623 0.000111193 0)
(0.999536 0.000136946 0)
(0.999428 0.000169806 0)
(0.999299 0.00022378 0)
(0.999128 0.000289389 0)
(0.998928 0.000444403 0)
(0.998669 0.000623478 0)
(0.998421 0.00115076 0)
(1 2.68118e-06 0)
(0.999997 8.12852e-06 0)
(0.99999 1.38167e-05 0)
(0.999978 1.97626e-05 0)
(0.999962 2.6015e-05 0)
(0.999942 3.27474e-05 0)
(0.999917 4.01683e-05 0)
(0.999887 4.84984e-05 0)
(0.999851 5.80157e-05 0)
(0.999808 6.91329e-05 0)
(0.999757 8.23826e-05 0)
(0.999697 9.87083e-05 0)
(0.999625 0.000119068 0)
(0.999538 0.000146398 0)
(0.999432 0.000181639 0)
(0.999304 0.000237834 0)
(0.999138 0.000309137 0)
(0.998944 0.000463986 0)
(0.998703 0.000657108 0)
(0.998482 0.00115419 0)
(1 2.88309e-06 0)
(0.999997 8.72741e-06 0)
(0.99999 1.48085e-05 0)
(0.999978 2.11686e-05 0)
(0.999962 2.78678e-05 0)
(0.999942 3.50812e-05 0)
(0.999918 4.30271e-05 0)
(0.999888 5.19423e-05 0)
(0.999852 6.21251e-05 0)
(0.999809 7.40111e-05 0)
(0.999759 8.81721e-05 0)
(0.999698 0.000105586 0)
(0.999627 0.000127322 0)
(0.999541 0.000156289 0)
(0.999436 0.000193949 0)
(0.999311 0.000252458 0)
(0.99915 0.000329184 0)
(0.998962 0.000484159 0)
(0.998738 0.000688556 0)
(0.998542 0.00115763 0)
(1 3.09498e-06 0)
(0.999997 9.35747e-06 0)
(0.99999 1.58537e-05 0)
(0.999978 2.26503e-05 0)
(0.999962 2.98194e-05 0)
(0.999943 3.75388e-05 0)
(0.999918 4.60367e-05 0)
(0.999888 5.55667e-05 0)
(0.999852 6.64475e-05 0)
(0.99981 7.91389e-05 0)
(0.99976 9.42519e-05 0)
(0.9997 0.0001128 0)
(0.999629 0.000135961 0)
(0.999544 0.000166626 0)
(0.999441 0.000206731 0)
(0.999318 0.000267634 0)
(0.999162 0.000349476 0)
(0.998982 0.000504784 0)
(0.998774 0.000717837 0)
(0.998601 0.00116094 0)
(1 3.31732e-06 0)
(0.999997 1.00201e-05 0)
(0.99999 1.69549e-05 0)
(0.999978 2.42109e-05 0)
(0.999963 3.1874e-05 0)
(0.999943 4.01254e-05 0)
(0.999918 4.92034e-05 0)
(0.999889 5.93785e-05 0)
(0.999853 7.09907e-05 0)
(0.999811 8.45248e-05 0)
(0.999761 0.000100631 0)
(0.999702 0.00012036 0)
(0.999632 0.000144992 0)
(0.999548 0.00017741 0)
(0.999447 0.000219978 0)
(0.999325 0.000283334 0)
(0.999175 0.000369961 0)
(0.999003 0.000525718 0)
(0.998811 0.000745002 0)
(0.99866 0.00116398 0)
(1 3.55058e-06 0)
(0.999997 1.07166e-05 0)
(0.99999 1.81142e-05 0)
(0.999978 2.58539e-05 0)
(0.999963 3.4036e-05 0)
(0.999943 4.28464e-05 0)
(0.999919 5.25334e-05 0)
(0.999889 6.33849e-05 0)
(0.999854 7.57628e-05 0)
(0.999812 9.01772e-05 0)
(0.999762 0.000107318 0)
(0.999704 0.000128272 0)
(0.999634 0.000154422 0)
(0.999552 0.000188643 0)
(0.999452 0.000233681 0)
(0.999334 0.000299525 0)
(0.999189 0.00039058 0)
(0.999025 0.000546813 0)
(0.998849 0.000770115 0)
(0.998718 0.0011666 0)
(1 3.79529e-06 0)
(0.999997 1.14484e-05 0)
(0.99999 1.93341e-05 0)
(0.999978 2.75826e-05 0)
(0.999963 3.63097e-05 0)
(0.999943 4.5707e-05 0)
(0.999919 5.60329e-05 0)
(0.99989 6.7593e-05 0)
(0.999855 8.07714e-05 0)
(0.999813 9.61041e-05 0)
(0.999764 0.00011432 0)
(0.999706 0.000136545 0)
(0.999637 0.000164253 0)
(0.999556 0.000200321 0)
(0.999459 0.000247823 0)
(0.999343 0.000316167 0)
(0.999205 0.000411271 0)
(0.999049 0.000567919 0)
(0.998888 0.000793248 0)
(0.998775 0.00116866 0)
(1 4.05195e-06 0)
(0.999997 1.22171e-05 0)
(0.99999 2.06169e-05 0)
(0.999978 2.94006e-05 0)
(0.999963 3.86995e-05 0)
(0.999944 4.87124e-05 0)
(0.99992 5.9708e-05 0)
(0.99989 7.20094e-05 0)
(0.999856 8.60237e-05 0)
(0.999814 0.000102313 0)
(0.999766 0.000121644 0)
(0.999708 0.000145182 0)
(0.999641 0.000174486 0)
(0.999561 0.000212437 0)
(0.999466 0.000262386 0)
(0.999354 0.000333211 0)
(0.999221 0.000431969 0)
(0.999074 0.000588884 0)
(0.998928 0.000814474 0)
(0.998831 0.00117007 0)
(1 4.32109e-06 0)
(0.999997 1.30239e-05 0)
(0.99999 2.19649e-05 0)
(0.999979 3.13111e-05 0)
(0.999963 4.12097e-05 0)
(0.999944 5.18677e-05 0)
(0.99992 6.35644e-05 0)
(0.999891 7.66406e-05 0)
(0.999857 9.15263e-05 0)
(0.999816 0.00010881 0)
(0.999768 0.000129296 0)
(0.999711 0.000154187 0)
(0.999645 0.000185121 0)
(0.999566 0.00022498 0)
(0.999474 0.000277343 0)
(0.999365 0.000350601 0)
(0.999239 0.000452599 0)
(0.999101 0.000609564 0)
(0.998968 0.000833866 0)
(0.998886 0.00117072 0)
(1 4.60319e-06 0)
(0.999997 1.38704e-05 0)
(0.99999 2.33805e-05 0)
(0.999979 3.33173e-05 0)
(0.999964 4.38443e-05 0)
(0.999944 5.51776e-05 0)
(0.999921 6.76074e-05 0)
(0.999892 8.14922e-05 0)
(0.999858 9.72849e-05 0)
(0.999817 0.0001156 0)
(0.99977 0.000137279 0)
(0.999714 0.00016356 0)
(0.999649 0.00019615 0)
(0.999572 0.000237935 0)
(0.999482 0.000292662 0)
(0.999377 0.000368272 0)
(0.999257 0.000473087 0)
(0.999129 0.000629815 0)
(0.999009 0.000851492 0)
(0.998941 0.00117055 0)
(1 4.89874e-06 0)
(0.999997 1.47578e-05 0)
(0.99999 2.48657e-05 0)
(0.999979 3.54222e-05 0)
(0.999964 4.66071e-05 0)
(0.999945 5.86465e-05 0)
(0.999921 7.18419e-05 0)
(0.999893 8.65694e-05 0)
(0.999859 0.000103304 0)
(0.999819 0.000122688 0)
(0.999772 0.000145595 0)
(0.999718 0.000173298 0)
(0.999653 0.000207566 0)
(0.999579 0.000251279 0)
(0.999491 0.000308305 0)
(0.999391 0.000386155 0)
(0.999277 0.000493349 0)
(0.999158 0.000649503 0)
(0.99905 0.000867417 0)
(0.998995 0.00116952 0)
(1 5.2082e-06 0)
(0.999997 1.56874e-05 0)
(0.99999 2.64226e-05 0)
(0.999979 3.76286e-05 0)
(0.999964 4.95016e-05 0)
(0.999945 6.22785e-05 0)
(0.999922 7.62722e-05 0)
(0.999894 9.18762e-05 0)
(0.999861 0.000109588 0)
(0.999821 0.000130074 0)
(0.999775 0.000154242 0)
(0.999721 0.000183395 0)
(0.999659 0.000219353 0)
(0.999586 0.000264985 0)
(0.999501 0.000324225 0)
(0.999405 0.00040417 0)
(0.999298 0.000513301 0)
(0.999188 0.000668504 0)
(0.999092 0.000881704 0)
(0.999048 0.00116759 0)
(1 5.53196e-06 0)
(0.999997 1.66604e-05 0)
(0.99999 2.80529e-05 0)
(0.999979 3.99391e-05 0)
(0.999965 5.25309e-05 0)
(0.999946 6.60768e-05 0)
(0.999923 8.09017e-05 0)
(0.999895 9.74156e-05 0)
(0.999862 0.000116138 0)
(0.999823 0.00013776 0)
(0.999778 0.000163218 0)
(0.999725 0.000193843 0)
(0.999664 0.000231493 0)
(0.999593 0.000279019 0)
(0.999512 0.000340371 0)
(0.99942 0.000422234 0)
(0.99932 0.000532856 0)
(0.999219 0.000686701 0)
(0.999135 0.000894406 0)
(0.9991 0.00116476 0)
(1 5.8704e-06 0)
(0.999997 1.76778e-05 0)
(0.99999 2.97583e-05 0)
(0.99998 4.23556e-05 0)
(0.999965 5.56973e-05 0)
(0.999947 7.0044e-05 0)
(0.999924 8.57325e-05 0)
(0.999896 0.000103189 0)
(0.999864 0.000122955 0)
(0.999826 0.000145742 0)
(0.999781 0.000172515 0)
(0.99973 0.000204627 0)
(0.99967 0.000243962 0)
(0.999602 0.00029334 0)
(0.999524 0.000356681 0)
(0.999437 0.000440258 0)
(0.999343 0.000551923 0)
(0.999251 0.000703991 0)
(0.999177 0.000905575 0)
(0.999152 0.00116104 0)
(1 6.2238e-06 0)
(0.999997 1.87403e-05 0)
(0.99999 3.15399e-05 0)
(0.99998 4.48797e-05 0)
(0.999965 5.90027e-05 0)
(0.999947 7.41819e-05 0)
(0.999925 9.07659e-05 0)
(0.999898 0.000109197 0)
(0.999866 0.000130035 0)
(0.999829 0.000154015 0)
(0.999785 0.000182122 0)
(0.999735 0.000215728 0)
(0.999677 0.000256729 0)
(0.999611 0.000307901 0)
(0.999537 0.000373089 0)
(0.999454 0.000458148 0)
(0.999367 0.000570412 0)
(0.999284 0.000720283 0)
(0.99922 0.000915256 0)
(0.999202 0.00115643 0)
(1 6.59238e-06 0)
(0.999997 1.98487e-05 0)
(0.999991 3.33985e-05 0)
(0.99998 4.75124e-05 0)
(0.999966 6.24481e-05 0)
(0.999948 7.84908e-05 0)
(0.999926 9.60014e-05 0)
(0.999899 0.000115437 0)
(0.999868 0.000137375 0)
(0.999832 0.00016257 0)
(0.999789 0.000192025 0)
(0.99974 0.000227122 0)
(0.999684 0.000269759 0)
(0.999621 0.000322649 0)
(0.99955 0.000389522 0)
(0.999473 0.000475807 0)
(0.999393 0.000588234 0)
(0.999318 0.000735497 0)
(0.999263 0.000923493 0)
(0.999252 0.00115097 0)
(1 6.97626e-06 0)
(0.999997 2.10031e-05 0)
(0.999991 3.53345e-05 0)
(0.99998 5.02539e-05 0)
(0.999966 6.60332e-05 0)
(0.999949 8.297e-05 0)
(0.999927 0.000101437 0)
(0.999901 0.000121905 0)
(0.999871 0.000144968 0)
(0.999835 0.000171395 0)
(0.999793 0.000202205 0)
(0.999746 0.000238781 0)
(0.999692 0.000283007 0)
(0.999632 0.000337521 0)
(0.999564 0.0004059 0)
(0.999492 0.000493136 0)
(0.999419 0.000605301 0)
(0.999352 0.000749565 0)
(0.999306 0.000930326 0)
(0.999301 0.00114469 0)
(1 7.37544e-06 0)
(0.999997 2.22036e-05 0)
(0.999991 3.73476e-05 0)
(0.999981 5.31035e-05 0)
(0.999967 6.97568e-05 0)
(0.99995 8.7617e-05 0)
(0.999928 0.000107068 0)
(0.999903 0.000128593 0)
(0.999873 0.000152801 0)
(0.999838 0.000180474 0)
(0.999798 0.000212637 0)
(0.999753 0.000250669 0)
(0.999701 0.000296425 0)
(0.999643 0.00035245 0)
(0.99958 0.000422137 0)
(0.999513 0.000510035 0)
(0.999446 0.000621528 0)
(0.999387 0.000762432 0)
(0.999348 0.000935793 0)
(0.999348 0.00113762 0)
(1 7.78978e-06 0)
(0.999997 2.34497e-05 0)
(0.999991 3.94368e-05 0)
(0.999981 5.60596e-05 0)
(0.999968 7.36161e-05 0)
(0.999951 9.24275e-05 0)
(0.99993 0.000112888 0)
(0.999905 0.000135493 0)
(0.999876 0.000160862 0)
(0.999842 0.000189784 0)
(0.999803 0.00022329 0)
(0.999759 0.000262743 0)
(0.99971 0.000309956 0)
(0.999655 0.000367362 0)
(0.999596 0.000438145 0)
(0.999534 0.000526406 0)
(0.999474 0.000636835 0)
(0.999422 0.000774054 0)
(0.999391 0.000939931 0)
(0.999395 0.00112979 0)
(1 8.21898e-06 0)
(0.999997 2.47403e-05 0)
(0.999991 4.16003e-05 0)
(0.999981 5.91192e-05 0)
(0.999968 7.76068e-05 0)
(0.999952 9.73951e-05 0)
(0.999932 0.000118888 0)
(0.999907 0.00014259 0)
(0.999879 0.00016913 0)
(0.999846 0.000199301 0)
(0.999809 0.00023413 0)
(0.999767 0.000274956 0)
(0.99972 0.000323536 0)
(0.999668 0.000382178 0)
(0.999613 0.00045383 0)
(0.999556 0.000542151 0)
(0.999502 0.000651147 0)
(0.999457 0.000784397 0)
(0.999433 0.000942778 0)
(0.999441 0.00112125 0)
(1 8.66253e-06 0)
(0.999997 2.60741e-05 0)
(0.999991 4.38355e-05 0)
(0.999982 6.2278e-05 0)
(0.999969 8.17226e-05 0)
(0.999953 0.000102511 0)
(0.999933 0.000125055 0)
(0.99991 0.000149868 0)
(0.999883 0.000177582 0)
(0.999851 0.000208993 0)
(0.999815 0.000245114 0)
(0.999775 0.000287253 0)
(0.99973 0.000337097 0)
(0.999682 0.000396811 0)
(0.999631 0.000469098 0)
(0.999579 0.000557174 0)
(0.999531 0.000664398 0)
(0.999493 0.000793439 0)
(0.999474 0.000944371 0)
(0.999485 0.00111203 0)
(1 9.11974e-06 0)
(0.999997 2.74487e-05 0)
(0.999992 4.61383e-05 0)
(0.999982 6.55302e-05 0)
(0.99997 8.5955e-05 0)
(0.999954 0.000107763 0)
(0.999935 0.000131374 0)
(0.999913 0.000157305 0)
(0.999886 0.000186191 0)
(0.999856 0.000218823 0)
(0.999822 0.000256195 0)
(0.999784 0.000299573 0)
(0.999742 0.000350562 0)
(0.999696 0.000411174 0)
(0.999649 0.000483853 0)
(0.999603 0.000571386 0)
(0.99956 0.000676525 0)
(0.999528 0.000801166 0)
(0.999515 0.000944747 0)
(0.999529 0.00110216 0)
(1 9.58964e-06 0)
(0.999998 2.88613e-05 0)
(0.999992 4.85038e-05 0)
(0.999983 6.8868e-05 0)
(0.999971 9.02934e-05 0)
(0.999956 0.000113138 0)
(0.999937 0.000137825 0)
(0.999916 0.000164876 0)
(0.99989 0.000194923 0)
(0.999861 0.000228747 0)
(0.999829 0.000267317 0)
(0.999793 0.000311848 0)
(0.999753 0.000363851 0)
(0.999712 0.000425175 0)
(0.999669 0.000497999 0)
(0.999627 0.000584701 0)
(0.99959 0.000687478 0)
(0.999564 0.00080757 0)
(0.999555 0.000943946 0)
(0.999571 0.00109168 0)
(1 1.0071e-05 0)
(0.999998 3.03082e-05 0)
(0.999992 5.09253e-05 0)
(0.999983 7.22818e-05 0)
(0.999972 9.47243e-05 0)
(0.999957 0.000118616 0)
(0.99994 0.000144385 0)
(0.999919 0.00017255 0)
(0.999894 0.000203739 0)
(0.999867 0.000238717 0)
(0.999836 0.000278421 0)
(0.999802 0.000324005 0)
(0.999766 0.000376878 0)
(0.999727 0.00043872 0)
(0.999689 0.000511443 0)
(0.999652 0.000597042 0)
(0.99962 0.000697211 0)
(0.999599 0.000812656 0)
(0.999594 0.000942006 0)
(0.999613 0.0010806 0)
(1 1.05623e-05 0)
(0.999998 3.17846e-05 0)
(0.999992 5.3395e-05 0)
(0.999984 7.57597e-05 0)
(0.999973 9.92314e-05 0)
(0.999959 0.000124177 0)
(0.999942 0.000151025 0)
(0.999922 0.000180292 0)
(0.999899 0.000212595 0)
(0.999873 0.000248679 0)
(0.999844 0.00028944 0)
(0.999813 0.000335967 0)
(0.999779 0.000389556 0)
(0.999744 0.000451714 0)
(0.999709 0.000524095 0)
(0.999677 0.000608336 0)
(0.99965 0.000705691 0)
(0.999634 0.00081643 0)
(0.999633 0.000938966 0)
(0.999653 0.00106896 0)
(1 1.10617e-05 0)
(0.999998 3.3285e-05 0)
(0.999993 5.5903e-05 0)
(0.999985 7.92876e-05 0)
(0.999974 0.000103795 0)
(0.999961 0.000129795 0)
(0.999945 0.000157714 0)
(0.999926 0.000188061 0)
(0.999904 0.000221442 0)
(0.999879 0.000258571 0)
(0.999852 0.000300303 0)
(0.999823 0.000347649 0)
(0.999792 0.000401792 0)
(0.999761 0.000464064 0)
(0.99973 0.000535871 0)
(0.999702 0.00061852 0)
(0.99968 0.00071289 0)
(0.999668 0.000818907 0)
(0.99967 0.000934865 0)
(0.999691 0.00105679 0)
(1 1.15668e-05 0)
(0.999998 3.48025e-05 0)
(0.999993 5.84379e-05 0)
(0.999985 8.28487e-05 0)
(0.999975 0.000108394 0)
(0.999963 0.000135441 0)
(0.999947 0.000164414 0)
(0.999929 0.000195813 0)
(0.999909 0.000230223 0)
(0.999886 0.000268328 0)
(0.999861 0.000310932 0)
(0.999834 0.000358967 0)
(0.999806 0.000413496 0)
(0.999778 0.000475679 0)
(0.999751 0.000546689 0)
(0.999727 0.00062754 0)
(0.99971 0.00071879 0)
(0.999701 0.000820107 0)
(0.999707 0.000929741 0)
(0.999729 0.00104409 0)
(1 1.20753e-05 0)
(0.999998 3.63294e-05 0)
(0.999993 6.09863e-05 0)
(0.999986 8.64236e-05 0)
(0.999977 0.000113 0)
(0.999965 0.000141082 0)
(0.99995 0.000171085 0)
(0.999933 0.000203496 0)
(0.999914 0.000238878 0)
(0.999893 0.000277879 0)
(0.99987 0.000321248 0)
(0.999846 0.000369833 0)
(0.999821 0.000424577 0)
(0.999796 0.000486473 0)
(0.999772 0.000556479 0)
(0.999753 0.000635349 0)
(0.999739 0.000723381 0)
(0.999734 0.000820053 0)
(0.999742 0.000923633 0)
(0.999764 0.00103089 0)
(1 1.25839e-05 0)
(0.999998 3.78565e-05 0)
(0.999994 6.35329e-05 0)
(0.999987 8.99903e-05 0)
(0.999978 0.000117586 0)
(0.999967 0.00014668 0)
(0.999953 0.00017768 0)
(0.999938 0.000211055 0)
(0.99992 0.000247342 0)
(0.999901 0.00028715 0)
(0.99988 0.000331167 0)
(0.999858 0.000380157 0)
(0.999835 0.000434943 0)
(0.999814 0.000496363 0)
(0.999794 0.000565175 0)
(0.999778 0.000641912 0)
(0.999768 0.000726661 0)
(0.999766 0.000818773 0)
(0.999776 0.000916577 0)
(0.999799 0.0010172 0)
(1 1.30894e-05 0)
(0.999998 3.93736e-05 0)
(0.999994 6.60603e-05 0)
(0.999988 9.35241e-05 0)
(0.999979 0.000122118 0)
(0.999969 0.000152195 0)
(0.999956 0.000184149 0)
(0.999942 0.00021843 0)
(0.999926 0.000255547 0)
(0.999908 0.000296063 0)
(0.999889 0.000340605 0)
(0.99987 0.000389852 0)
(0.99985 0.000444511 0)
(0.999832 0.000505273 0)
(0.999815 0.00057272 0)
(0.999803 0.0006472 0)
(0.999796 0.000728633 0)
(0.999797 0.000816296 0)
(0.999808 0.000908608 0)
(0.999832 0.00100304 0)
(1 1.35879e-05 0)
(0.999998 4.08694e-05 0)
(0.999995 6.85495e-05 0)
(0.999989 9.69978e-05 0)
(0.999981 0.000126561 0)
(0.999971 0.000157581 0)
(0.99996 0.000190438 0)
(0.999947 0.000225559 0)
(0.999932 0.00026342 0)
(0.999916 0.000304538 0)
(0.999899 0.000349477 0)
(0.999882 0.000398831 0)
(0.999865 0.000453198 0)
(0.99985 0.000513134 0)
(0.999836 0.00057907 0)
(0.999827 0.000651195 0)
(0.999823 0.00072931 0)
(0.999827 0.000812654 0)
(0.99984 0.000899761 0)
(0.999863 0.000988416 0)
(1 1.40753e-05 0)
(0.999998 4.23313e-05 0)
(0.999995 7.09793e-05 0)
(0.99999 0.000100382 0)
(0.999982 0.000130875 0)
(0.999974 0.000162791 0)
(0.999963 0.00019649 0)
(0.999951 0.000232376 0)
(0.999938 0.000270887 0)
(0.999924 0.000312495 0)
(0.99991 0.0003577 0)
(0.999895 0.000407013 0)
(0.99988 0.000460931 0)
(0.999868 0.000519888 0)
(0.999857 0.000584184 0)
(0.999851 0.000653886 0)
(0.99985 0.000728707 0)
(0.999855 0.000807882 0)
(0.999869 0.000890069 0)
(0.999893 0.000973343 0)
(1 1.45472e-05 0)
(0.999999 4.37459e-05 0)
(0.999996 7.33274e-05 0)
(0.999991 0.000103644 0)
(0.999984 0.000135021 0)
(0.999976 0.000167775 0)
(0.999967 0.000202247 0)
(0.999956 0.000238812 0)
(0.999945 0.000277873 0)
(0.999932 0.000319855 0)
(0.99992 0.000365192 0)
(0.999907 0.000414319 0)
(0.999895 0.000467641 0)
(0.999885 0.000525483 0)
(0.999878 0.000588037 0)
(0.999874 0.000655273 0)
(0.999875 0.000726847 0)
(0.999883 0.000802014 0)
(0.999898 0.000879562 0)
(0.999921 0.000957828 0)
(1 1.49987e-05 0)
(0.999999 4.50988e-05 0)
(0.999996 7.55697e-05 0)
(0.999992 0.000106751 0)
(0.999986 0.000138954 0)
(0.999979 0.00017248 0)
(0.99997 0.000207646 0)
(0.999961 0.0002448 0)
(0.999951 0.000284306 0)
(0.999941 0.00032654 0)
(0.99993 0.000371878 0)
(0.99992 0.000420681 0)
(0.99991 0.000473269 0)
(0.999902 0.000529878 0)
(0.999897 0.000590609 0)