/*--------------------------------*- C++ -*----------------------------------*\
| =========                 |                                                 |
| \\      /  F ield         | OpenFOAM: The Open Source CFD Toolbox           |
|  \\    /   O peration     | Version:  v1912                                 |
|   \\  /    A nd           | Website:  www.openfoam.com                      |
|    \\/     M anipulation  |                                                 |
\*---------------------------------------------------------------------------*/
FoamFile
{
    version     2.0;
    format      ascii;
    class       volScalarField;
    location    "75";
    object      p;
}
// * * * * * * * * * * * * * * * * * * * * * * * * * * * * * * * * * * * * * //

dimensions      [0 2 -2 0 0 0 0];


internalField   nonuniform List<scalar> 
2000
(
-0.0266042
0.0908078
0.145386
0.138494
0.122658
0.116336
0.115743
0.117149
0.117416
0.117205
0.117335
0.116892
0.116414
0.116177
0.116015
0.115685
0.115282
0.114979
0.11456
0.113672
0.112222
0.110425
0.108572
0.106807
0.105161
0.103912
0.103323
0.103691
0.10507
0.107457
0.110337
0.113343
0.116098
0.118329
0.1199
0.120755
0.120065
0.118088
0.115012
0.11098
0.105751
0.0978043
0.0836499
0.0600427
0.0267571
-0.0112653
-0.0453456
-0.0674467
-0.0740713
-0.0658581
-0.0437062
-0.0114724
0.0274329
0.0701558
0.114263
0.157592
0.198278
0.234715
0.265965
0.29149
0.31129
0.325756
0.335133
0.339681
0.339849
0.336074
0.328737
0.318154
0.304583
0.288276
0.26956
0.248836
0.226511
0.203039
0.178586
0.152157
0.123646
0.0933641
0.0593104
0.0254018
0.0266211
0.111803
0.150623
0.137425
0.11967
0.115415
0.118885
0.121334
0.118719
0.115667
0.115259
0.116464
0.116761
0.116407
0.116114
0.115407
0.114848
0.11463
0.1145
0.113987
0.112862
0.111143
0.109036
0.106853
0.104677
0.102619
0.101228
0.101079
0.102474
0.105059
0.108588
0.112396
0.115964
0.118968
0.121184
0.122339
0.12195
0.120119
0.11633
0.111471
0.104391
0.0907696
0.0623456
0.0129477
-0.0520672
-0.112631
-0.147475
-0.15299
-0.136607
-0.107712
-0.0721045
-0.0314935
0.0126458
0.0587422
0.104964
0.149444
0.191229
0.227937
0.259048
0.284107
0.303202
0.316673
0.324924
0.328404
0.32757
0.32287
0.314681
0.303281
0.28888
0.271731
0.252201
0.230746
0.207841
0.183687
0.158492
0.132477
0.105201
0.076682
0.0457833
0.0172103
0.0776643
0.111465
0.134158
0.132595
0.123382
0.119177
0.119204
0.118617
0.11686
0.11642
0.118052
0.119408
0.118176
0.115417
0.114013
0.114027
0.114248
0.114004
0.113976
0.114423
0.114941
0.114561
0.112758
0.109981
0.105757
0.100725
0.0960885
0.0934563
0.0939005
0.0969764
0.102884
0.110272
0.117653
0.123931
0.128437
0.130773
0.131523
0.130301
0.126408
0.119101
0.10505
0.0775176
0.0303244
-0.0354102
-0.106105
-0.159888
-0.181987
-0.176288
-0.152186
-0.122052
-0.086109
-0.0455159
-0.00131608
0.0450399
0.0916381
0.136424
0.177557
0.213461
0.243362
0.267046
0.284799
0.297141
0.304602
0.307658
0.306736
0.30219
0.294254
0.28305
0.268724
0.251638
0.232423
0.211813
0.190416
0.168586
0.145949
0.122787
0.0983631
0.0725463
0.0439131
0.0177882
0.102632
0.112647
0.125195
0.12927
0.126571
0.123549
0.121912
0.120247
0.118745
0.11808
0.117917
0.117775
0.117323
0.116187
0.115114
0.1148
0.113786
0.111957
0.111877
0.114576
0.118012
0.120063
0.119421
0.115189
0.107653
0.097338
0.0866162
0.0791564
0.0781776
0.0819964
0.0924664
0.106412
0.120617
0.132924
0.142177
0.147866
0.149813
0.149116
0.144395
0.134131
0.115049
0.0806518
0.0284396
-0.0374176
-0.103171
-0.151262
-0.171862
-0.166802
-0.146891
-0.120131
-0.0877891
-0.0498921
-0.00745059
0.0375816
0.0828193
0.125925
0.16498
0.198681
0.226454
0.248359
0.264844
0.276459
0.283674
0.286868
0.286321
0.282144
0.274286
0.262665
0.247467
0.229441
0.209786
0.189653
0.169754
0.150204
0.130621
0.110508
0.0889613
0.0657264
0.0393109
0.0157244
0.114958
0.118558
0.126075
0.13004
0.128907
0.126578
0.125211
0.12421
0.122973
0.121595
0.12026
0.119137
0.118235
0.116919
0.115188
0.113715
0.112221
0.111425
0.112691
0.116408
0.120807
0.123639
0.12352
0.118899
0.108799
0.0938029
0.0773389
0.0646327
0.059535
0.0665725
0.0827735
0.103518
0.124277
0.142324
0.156281
0.165659
0.17045
0.168429
0.161705
0.148955
0.127326
0.0931538
0.0452152
-0.0121295
-0.0683988
-0.111352
-0.134023
-0.139707
-0.129737
-0.109407
-0.0810834
-0.0458427
-0.00556885
0.0370977
0.0794497
0.119214
0.154797
0.185331
0.2106
0.230864
0.246569
0.258108
0.265743
0.269635
0.269772
0.265875
0.257506
0.244391
0.226959
0.206797
0.18609
0.166527
0.148797
0.132612
0.116999
0.100745
0.0825726
0.0620613
0.037472
0.0155575
0.123387
0.125219
0.129169
0.131334
0.130511
0.128898
0.127939
0.127274
0.126336
0.125162
0.124007
0.122905
0.121625
0.119798
0.117592
0.11558
0.114044
0.113524
0.114503
0.117366
0.121644
0.125389
0.125939
0.120837
0.109031
0.0915965
0.0723426
0.0571733
0.051829
0.0613922
0.0810604
0.10566
0.130068
0.150794
0.166286
0.176092
0.179911
0.178885
0.171418
0.15668
0.133207
0.0995309
0.055768
0.00558643
-0.0437129
-0.0836517
-0.109031
-0.117806
-0.111309
-0.093143
-0.0663623
-0.0331634
0.00411782
0.0428586
0.0806531
0.115725
0.147031
0.174157
0.197148
0.216293
0.231864
0.243971
0.252583
0.257561
0.258503
0.254592
0.24486
0.2288
0.207348
0.183584
0.161208
0.142487
0.127749
0.115898
0.104959
0.0930174
0.0783291
0.0603044
0.036842
0.0159596
0.130188
0.131008
0.13224
0.13257
0.131774
0.130778
0.13011
0.129564
0.128889
0.128109
0.127313
0.126436
0.125286
0.123696
0.1218
0.119983
0.11859
0.117963
0.118514
0.120628
0.123769
0.125993
0.124955
0.118951
0.107327
0.0911068
0.0740007
0.0617277
0.0595532
0.0689712
0.0875288
0.110057
0.132608
0.152956
0.169526
0.180815
0.184866
0.181554
0.171355
0.154392
0.130116
0.0978476
0.0582338
0.0144963
-0.0277313
-0.0621722
-0.0835633
-0.0907808
-0.0850073
-0.0687214
-0.0445754
-0.0149805
0.0176902
0.0511374
0.0834745
0.113468
0.140526
0.164541
0.185693
0.204215
0.220168
0.233355
0.243438
0.249961
0.252036
0.248085
0.236338
0.215947
0.188693
0.160025
0.135665
0.118289
0.107457
0.100792
0.0950276
0.0875899
0.0762486
0.0603218
0.0372826
0.0169098
0.136056
0.135998
0.135076
0.133858
0.133022
0.13249
0.131997
0.131507
0.131035
0.130546
0.129995
0.129319
0.128429
0.127246
0.125833
0.124423
0.123307
0.122778
0.12316
0.124567
0.126349
0.126998
0.124825
0.118636
0.10815
0.0945926
0.0811234
0.0721194
0.0714437
0.0803122
0.0966717
0.116567
0.136639
0.15447
0.168305
0.176581
0.179758
0.176245
0.166327
0.149893
0.126872
0.0975075
0.0629838
0.0260729
-0.00881423
-0.0369823
-0.0548132
-0.0610738
-0.0563318
-0.0424068
-0.0216681
0.00352965
0.0310424
0.0590279
0.0860928
0.111397
0.134632
0.1559
0.175514
0.193724
0.210438
0.225193
0.237347
0.246088
0.249937
0.246296
0.232279
0.206526
0.171993
0.137468
0.111113
0.0955801
0.0892993
0.0882175
0.0877214
0.0846469
0.0763137
0.0620449
0.0387774
0.018463
0.141453
0.14046
0.137488
0.134933
0.134162
0.134055
0.133697
0.133259
0.13295
0.132662
0.132275
0.131759
0.131083
0.130196
0.129135
0.128073
0.127253
0.126908
0.127208
0.128085
0.128974
0.128805
0.126381
0.120866
0.112226
0.101622
0.0915453
0.0852839
0.0855411
0.0930914
0.10634
0.122346
0.138484
0.152902
0.164279
0.171635
0.174273
0.171179
0.162243
0.147509
0.127181
0.101797
0.0726188
0.0420634
0.0134272
-0.00991878
-0.0252554
-0.0313017
-0.0282916
-0.0175478
-0.000940807
0.0195727
0.0421889
0.0653682
0.0879426
0.109223
0.129051
0.147752
0.165908
0.183941
0.201717
0.218512
0.233325
0.244944
0.251253
0.24846
0.232342
0.200805
0.158197
0.117371
0.0892162
0.0758664
0.0743712
0.0786952
0.0831089
0.0839486
0.0781452
0.0651066
0.0410739
0.0204917
0.146677
0.144486
0.139282
0.135625
0.135144
0.135448
0.135191
0.134829
0.134689
0.134573
0.134321
0.133932
0.133406
0.132711
0.131882
0.131062
0.130459
0.130244
0.13049
0.131063
0.131486
0.130951
0.128577
0.123813
0.116774
0.108472
0.10084
0.0962722
0.0966902
0.102736
0.113339
0.126393
0.139858
0.152124
0.161895
0.16826
0.170541
0.168084
0.16062
0.148161
0.130946
0.109589
0.0852907
0.0599282
0.0357918
0.0154217
0.00101794
-0.00603441
-0.0054575
0.00202316
0.015
0.0317789
0.0506812
0.070222
0.0892464
0.107087
0.123719
0.139801
0.156387
0.174264
0.193322
0.212502
0.230323
0.245188
0.254379
0.252905
0.235237
0.198339
0.14791
0.101054
0.0714189
0.0602391
0.0631902
0.0722587
0.0808812
0.0849889
0.081197
0.0690407
0.0438828
0.022846
0.151911
0.148056
0.140354
0.135948
0.136021
0.136687
0.136481
0.136222
0.136262
0.136305
0.136178
0.135904
0.135503
0.134953
0.134289
0.133636
0.133169
0.133023
0.133223
0.133614
0.133779
0.133061
0.130792
0.126603
0.120678
0.113897
0.107793
0.104203
0.104616
0.109617
0.118489
0.129632
0.141337
0.15213
0.160816
0.166559
0.168746
0.166865
0.160663
0.15015
0.135579
0.117523
0.0969244
0.0751468
0.0539348
0.0352506
0.0210401
0.0128788
0.0115024
0.0166132
0.0270619
0.0412543
0.0575173
0.0743228
0.0904464
0.105183
0.118643
0.131924
0.146748
0.164425
0.184872
0.206547
0.227363
0.245426
0.257486
0.257579
0.239203
0.198273
0.141377
0.0893814
0.0586203
0.0492446
0.0557774
0.0685762
0.0805086
0.0871698
0.084906
0.0733922
0.0469366
0.0253894
0.157274
0.151099
0.140674
0.135999
0.136845
0.137779
0.137592
0.137465
0.137682
0.137863
0.137848
0.137684
0.137398
0.136974
0.136444
0.135919
0.135549
0.135444
0.135607
0.135878
0.135882
0.135074
0.132923
0.129169
0.12402
0.118243
0.113106
0.110101
0.110457
0.114702
0.122348
0.132149
0.142642
0.15248
0.160541
0.165985
0.168206
0.166773
0.161487
0.152397
0.13977
0.124119
0.106206
0.0870697
0.0679816
0.0504634
0.0363052
0.0272686
0.0244623
0.0279047
0.0365981
0.0489691
0.0633023
0.0779912
0.0916975
0.103621
0.11397
0.124337
0.137255
0.154652
0.176438
0.200453
0.223923
0.244762
0.259266
0.260837
0.242732
0.199778
0.138523
0.082573
0.0509183
0.0427207
0.0516735
0.0670725
0.0813891
0.0899291
0.0887839
0.0777723
0.0500041
0.0280046
0.162843
0.153509
0.140278
0.135898
0.137638
0.138724
0.13855
0.138583
0.138964
0.139259
0.139344
0.139282
0.139099
0.138785
0.13837
0.137951
0.13766
0.137591
0.137731
0.137925
0.137836
0.137
0.134981
0.131582
0.12701
0.12194
0.117446
0.114784
0.115013
0.11863
0.125336
0.134152
0.143807
0.153034
0.160729
0.166036
0.168357
0.167308
0.162737
0.154724
0.143559
0.129735
0.113906
0.0968212
0.0793525
0.0626744
0.0484637
0.0386675
0.0347309
0.0369282
0.0443428
0.0553727
0.0682466
0.0812872
0.093036
0.102548
0.110056
0.117615
0.128609
0.145618
0.168516
0.1945
0.220089
0.243055
0.259384
0.261938
0.245003
0.202227
0.138943
0.0801883
0.0476428
0.0398995
0.0501126
0.0670864
0.0829678
0.0928193
0.0924698
0.0818928
0.0529059
0.0306008
0.168659
0.155168
0.139261
0.13576
0.138398
0.139524
0.139386
0.139597
0.140121
0.140511
0.140685
0.140715
0.140623
0.140403
0.140085
0.139755
0.139532
0.139494
0.139625
0.139775
0.139643
0.138823
0.136944
0.133848
0.12973
0.125183
0.12113
0.11865
0.118685
0.121746
0.127691
0.135759
0.144822
0.15366
0.161162
0.166453
0.168934
0.168248
0.164273
0.157124
0.147117
0.134753
0.120588
0.105144
0.0889629
0.0728977
0.0585178
0.0479605
0.0430078
0.0441651
0.0505548
0.0605232
0.0722589
0.0840532
0.0943529
0.102034
0.107245
0.112382
0.121597
0.138103
0.161726
0.18919
0.216351
0.24085
0.258257
0.261211
0.245922
0.205185
0.141929
0.0813144
0.0476989
0.0397482
0.0502714
0.0680121
0.084814
0.0955387
0.0957419
0.0855733
0.0555219
0.0331122
0.17473
0.155968
0.137771
0.135678
0.139106
0.140191
0.140128
0.140521
0.141164
0.141635
0.141889
0.142001
0.141989
0.14185
0.141614
0.141359
0.141191
0.141182
0.141312
0.141442
0.141298
0.14052
0.138783
0.135951
0.132198
0.128046
0.124293
0.121885
0.121689
0.124242
0.129553
0.13704
0.14569
0.154305
0.161747
0.167111
0.16979
0.169443
0.165977
0.159536
0.150472
0.139296
0.1265
0.11243
0.0973104
0.0816637
0.0669465
0.0555204
0.0495401
0.049735
0.0552349
0.0643232
0.0751737
0.0860937
0.0954752
0.102001
0.105633
0.108929
0.116662
0.132501
0.156536
0.184993
0.2133
0.238886
0.256746
0.259533
0.245832
0.208356
0.146603
0.0848401
0.0499305
0.041273
0.0514372
0.0693772
0.0866384
0.0979184
0.0984981
0.0887276
0.0577868
0.0354919
0.181036
0.155833
0.135983
0.135699
0.13974
0.140745
0.140799
0.141363
0.142103
0.142644
0.142972
0.143156
0.143214
0.143146
0.142979
0.142787
0.142666
0.142682
0.142816
0.142941
0.142806
0.142086
0.140486
0.137883
0.134427
0.130579
0.127029
0.124623
0.124172
0.126255
0.131022
0.138052
0.146426
0.154943
0.162418
0.167914
0.17081
0.170774
0.16774
0.161882
0.153598
0.143402
0.131767
0.118871
0.104607
0.0891535
0.0738908
0.0614684
0.0544379
0.0537258
0.0584399
0.0667995
0.0769835
0.0873471
0.0962636
0.102239
0.104986
0.107068
0.11369
0.128895
0.153042
0.182094
0.211245
0.237606
0.255517
0.257754
0.245161
0.211518
0.152138
0.0897736
0.0533682
0.0436808
0.053086
0.0708605
0.0882752
0.0998901
0.100722
0.0913389
0.0596804
0.0377055
0.187524
0.154753
0.134077
0.135833
0.140278
0.141209
0.141414
0.142131
0.142948
0.143551
0.143945
0.144194
0.144314
0.144307
0.1442
0.144061
0.14398
0.144017
0.144159
0.144288
0.144174
0.143518
0.142048
0.139645
0.136434
0.132823
0.129409
0.126958
0.126236
0.127879
0.132171
0.138841
0.14704
0.155548
0.163123
0.168787
0.171903
0.172147
0.169475
0.164093
0.156443
0.147065
0.136397
0.124445
0.110778
0.0952848
0.0793469
0.0659234
0.0579152
0.0563954
0.0604381
0.0682116
0.0779085
0.0879397
0.0966861
0.10252
0.104911
0.106319
0.112213
0.126895
0.150976
0.180346
0.210134
0.237075
0.254889
0.256607
0.244286
0.21446
0.157874
0.0953404
0.0572965
0.0463835
0.0548701
0.0722722
0.0896491
0.101451
0.102451
0.0934356
0.0612148
0.0397275
0.194111
0.152749
0.132213
0.136063
0.140714
0.141608
0.141982
0.142825
0.143705
0.144362
0.144816
0.145121
0.145294
0.145338
0.145282
0.145187
0.145138
0.145194
0.145344
0.145481
0.145394
0.144804
0.143451
0.141219
0.138205
0.134774
0.131445
0.128912
0.127919
0.129159
0.133048
0.139444
0.147541
0.156097
0.163809
0.169654
0.172979
0.173465
0.171084
0.166076
0.158921
0.150171
0.140224
0.128925
0.115592
0.0999335
0.0833764
0.0691228
0.0603181
0.0581335
0.0616252
0.0689355
0.0782725
0.0880941
0.0968037
0.1027
0.105057
0.106188
0.111675
0.125981
0.149914
0.17943
0.209701
0.237097
0.25481
0.255754
0.243543
0.216968
0.163256
0.101005
0.061321
0.0490347
0.0565835
0.0735127
0.0907432
0.102636
0.103747
0.0950714
0.062423
0.0415417
0.200704
0.149918
0.130503
0.136345
0.141051
0.141955
0.142499
0.143441
0.144367
0.145069
0.14557
0.14592
0.146133
0.146218
0.1462
0.146138
0.146114
0.146182
0.146339
0.146485
0.146424
0.14589
0.144635
0.142536
0.13968
0.136355
0.133063
0.130432
0.129197
0.130109
0.133687
0.139885
0.147936
0.156566
0.164417
0.170429
0.173932
0.174609
0.172446
0.167705
0.160886
0.152553
0.143057
0.132134
0.118957
0.103148
0.0861717
0.0713584
0.0619857
0.0592915
0.062344
0.0692886
0.0783489
0.0880149
0.0967151
0.102729
0.105218
0.106323
0.111632
0.125686
0.149457
0.179014
0.209637
0.237376
0.255055
0.255385
0.243083
0.218882
0.167851
0.106383
0.0652238
0.0515053
0.0581068
0.0745402
0.0915738
0.103495
0.104682
0.0963108
0.0633486
0.0431415
0.207212
0.146391
0.129017
0.136632
0.141294
0.142248
0.14294
0.143948
0.144902
0.145634
0.146166
0.146545
0.146785
0.146895
0.146902
0.146862
0.146851
0.146928
0.147088
0.147242
0.1472
0.146707
0.145519
0.143507
0.14074
0.137478
0.13419
0.131474
0.130066
0.130756
0.134131
0.140206
0.14824
0.156936
0.164899
0.171039
0.174673
0.175483
0.173464
0.168891
0.162264
0.154158
0.144893
0.13415
0.121043
0.105168
0.0879951
0.0728833
0.0631546
0.0600931
0.0628051
0.0694636
0.0783076
0.0878434
0.0965198
0.102636
0.105312
0.106532
0.111803
0.125683
0.149308
0.178838
0.209687
0.23765
0.255359
0.255363
0.242869
0.220143
0.171453
0.111066
0.0687667
0.053708
0.0594081
0.0753483
0.0921684
0.104085
0.105325
0.0972211
0.0640407
0.0445332
0.213557
0.142326
0.127793
0.136884
0.141453
0.142469
0.143265
0.144306
0.145272
0.14602
0.146569
0.146962
0.147216
0.14734
0.147361
0.147332
0.14733
0.14741
0.147573
0.147731
0.147701
0.147231
0.146079
0.144112
0.141386
0.138152
0.134857
0.132089
0.130587
0.131159
0.134427
0.140437
0.148465
0.157203
0.165236
0.171456
0.17517
0.176062
0.174126
0.169642
0.16311
0.155105
0.145932
0.135255
0.122181
0.106312
0.0891045
0.0738847
0.0639635
0.0606541
0.0631133
0.069555
0.0782336
0.0876603
0.0962955
0.10247
0.105318
0.106737
0.11204
0.125807
0.149242
0.178728
0.209686
0.237761
0.255527
0.255438
0.242795
0.220829
0.174019
0.114778
0.0717867
0.055557
0.0604772
0.0759554
0.0925684
0.104462
0.105738
0.0978687
0.0645512
0.0457377
0.219739
0.137992
0.12686
0.137075
0.141536
0.1426
0.143457
0.14451
0.14548
0.146234
0.14679
0.14719
0.147451
0.147582
0.147609
0.147586
0.147589
0.147673
0.147838
0.147999
0.147974
0.147512
0.146373
0.144422
0.141711
0.138484
0.135184
0.132395
0.130857
0.131387
0.134614
0.140597
0.148622
0.157377
0.165442
0.171701
0.175457
0.176391
0.174498
0.170056
0.163565
0.155596
0.146446
0.135776
0.122714
0.106881
0.0897191
0.0745008
0.064497
0.0610332
0.0633154
0.0696009
0.0781593
0.0875007
0.0960876
0.102281
0.105264
0.106879
0.112245
0.125921
0.149181
0.178586
0.209559
0.237661
0.255478
0.255446
0.242764
0.221113
0.175695
0.117436
0.0741745
0.0570012
0.061314
0.0763886
0.0928153
0.104679
0.105985
0.0983217
0.0649385
0.0467947
0.225902
0.133904
0.126225
0.137191
0.141552
0.142647
0.143535
0.144595
0.145566
0.146323
0.146883
0.147286
0.14755
0.147684
0.147714
0.147695
0.147701
0.147788
0.147956
0.148119
0.148094
0.147633
0.146494
0.144541
0.141835
0.138606
0.135304
0.132512
0.130971
0.131498
0.134722
0.140701
0.148722
0.157479
0.165552
0.171824
0.175596
0.176547
0.174674
0.170251
0.163779
0.155819
0.146666
0.135982
0.122916
0.107117
0.0900175
0.0748432
0.0648181
0.0612666
0.063434
0.0696145
0.0780912
0.0873715
0.0959168
0.102113
0.10518
0.10693
0.112347
0.125947
0.14906
0.178376
0.20929
0.237378
0.25524
0.255341
0.242744
0.221211
0.176756
0.119211
0.0759253
0.058124
0.0619383
0.0766868
0.0929564
0.104796
0.106129
0.0986467
0.0652566
0.0477717
0.231999
0.130697
0.125828
0.13724
0.141532
0.14264
0.143541
0.144608
0.145583
0.146343
0.146904
0.147309
0.147573
0.147709
0.147741
0.147723
0.147732
0.147822
0.147992
0.148156
0.148131
0.147667
0.146523
0.144562
0.141853
0.138621
0.135317
0.132528
0.130997
0.131537
0.134773
0.14076
0.148783
0.157538
0.165609
0.171881
0.175655
0.176611
0.174744
0.170329
0.163866
0.15591
0.14675
0.136051
0.122977
0.107197
0.090145
0.0750109
0.0649835
0.0613839
0.0634811
0.0695955
0.0780197
0.0872635
0.0957864
0.101986
0.105092
0.106897
0.112319
0.12584
0.14884
0.178071
0.208925
0.236998
0.254936
0.255201
0.242729
0.221332
0.177509
0.120438
0.0771128
0.0589058
0.0623253
0.0768555
0.0930198
0.104861
0.106239
0.0989406
0.0655879
0.0487838
0.236725
0.128754
0.125602
0.137267
0.141509
0.142615
0.143525
0.144598
0.145575
0.146336
0.146899
0.147303
0.147568
0.147704
0.147736
0.14772
0.14773
0.147823
0.147995
0.14816
0.148133
0.147665
0.146515
0.144548
0.141831
0.138595
0.135292
0.132508
0.130987
0.13154
0.13479
0.140789
0.148816
0.157571
0.165638
0.171907
0.175679
0.176634
0.174771
0.170361
0.163903
0.155949
0.146786
0.13608
0.123003
0.107237
0.0902109
0.0750952
0.0650596
0.0614244
0.0634733
0.0695424
0.0779373
0.0871654
0.0956894
0.101896
0.105021
0.106827
0.112204
0.125628
0.148531
0.177725
0.208543
0.236604
0.254656
0.255099
0.242731
0.221555
0.178175
0.121365
0.0779267
0.0594292
0.0625577
0.0769135
0.0930288
0.104895
0.106323
0.099218
0.0658896
0.0497777
)
;

boundaryField
{
    inlet
    {
        type            zeroGradient;
    }
    outlet
    {
        type            fixedValue;
        value           uniform 0;
    }
    fixedWalls
    {
        type            zeroGradient;
    }
    frontAndBack
    {
        type            empty;
    }
}


// ************************************************************************* //
