/*--------------------------------*- C++ -*----------------------------------*\
| =========                 |                                                 |
| \\      /  F ield         | OpenFOAM: The Open Source CFD Toolbox           |
|  \\    /   O peration     | Version:  v1912                                 |
|   \\  /    A nd           | Website:  www.openfoam.com                      |
|    \\/     M anipulation  |                                                 |
\*---------------------------------------------------------------------------*/
FoamFile
{
    version     2.0;
    format      ascii;
    class       volVectorField;
    location    "75";
    object      U;
}
// * * * * * * * * * * * * * * * * * * * * * * * * * * * * * * * * * * * * * //

dimensions      [0 1 -1 0 0 0 0];


internalField   nonuniform List<vector> 
2000
(
(0.846158 0.187399 0)
(0.515117 0.1241 0)
(0.223406 0.0684541 0)
(0.0597597 0.0174538 6.27024e-20)
(-0.00461567 -0.0231457 1.43314e-17)
(-0.0644408 -0.0383888 1.25068e-17)
(-0.0778433 -0.0375217 0)
(-0.0716739 -0.0177143 0)
(-0.0588222 0.00969443 0)
(-0.0404858 0.0236567 2.84521e-17)
(-0.0397905 0.00945209 -1.74706e-17)
(-0.0259722 -0.00292179 -1.63775e-17)
(-0.0138577 -0.00538453 0)
(-0.013501 -0.00475042 0)
(-0.0137033 -0.00305733 -1.30058e-17)
(-0.00380266 -0.00521784 0)
(0.00849993 -0.00850208 1.15258e-17)
(0.0201782 -0.0110186 1.79842e-20)
(0.0319914 -0.0131241 1.07384e-17)
(0.0452115 -0.0144856 -5.1679e-18)
(0.0582174 -0.0143548 9.97823e-18)
(0.0680933 -0.0121122 0)
(0.0730421 -0.00796538 0)
(0.0715 -0.00307057 1.05142e-21)
(0.0650067 0.00191958 0)
(0.0564632 0.0058439 -4.48706e-18)
(0.0485407 0.00724063 0)
(0.0432255 0.00557837 4.57586e-18)
(0.0422986 0.00153625 0)
(0.0464892 -0.00379611 0)
(0.0546258 -0.00864871 0)
(0.0651517 -0.0112446 1.21741e-18)
(0.0762741 -0.0108935 0)
(0.0860658 -0.00806682 -6.35964e-19)
(0.0930869 -0.00377518 2.1335e-14)
(0.0969668 0.000544806 2.1455e-14)
(0.0968494 0.00212226 6.59281e-19)
(0.0928544 -0.00144457 -6.6538e-19)
(0.0836398 -0.00511909 0)
(0.0629376 0.00398053 2.63679e-18)
(0.0218388 0.0316921 0)
(-0.0509745 0.0711095 -2.22555e-18)
(-0.156301 0.103826 0)
(-0.280803 0.115022 -1.71732e-18)
(-0.406809 0.0998265 4.40292e-19)
(-0.516128 0.06364 0)
(-0.594952 0.0188767 0)
(-0.637744 -0.021874 1.00238e-18)
(-0.64789 -0.052583 0)
(-0.637599 -0.0730086 -1.34788e-18)
(-0.613841 -0.0854976 0)
(-0.578467 -0.0926004 -3.79566e-19)
(-0.534096 -0.0960377 -9.59837e-19)
(-0.482468 -0.0968162 2.62126e-18)
(-0.424944 -0.0954732 -2.20164e-18)
(-0.362784 -0.0923987 0)
(-0.297133 -0.0879333 4.68619e-18)
(-0.229284 -0.0819981 -6.18105e-18)
(-0.16069 -0.0748811 -1.59592e-17)
(-0.0927446 -0.0667539 1.95751e-17)
(-0.0266086 -0.0576164 -2.33294e-17)
(0.038369 -0.0473312 2.45714e-17)
(0.102339 -0.0362558 -2.36565e-17)
(0.164663 -0.0246929 2.30838e-17)
(0.224838 -0.0127665 -4.23709e-19)
(0.28277 -0.0005889 2.06024e-17)
(0.338536 0.0117725 0)
(0.392207 0.0243349 0)
(0.4437 0.0371655 4.87287e-19)
(0.492696 0.0502943 0)
(0.538674 0.0636418 1.55452e-17)
(0.581014 0.076952 0)
(0.619313 0.0899998 1.32394e-17)
(0.653827 0.102964 -6.10347e-19)
(0.683904 0.115368 1.08179e-17)
(0.7098 0.126035 1.81941e-17)
(0.732487 0.134546 6.22894e-19)
(0.756838 0.141068 -6.1122e-18)
(0.77647 0.145711 -4.00083e-18)
(0.823795 0.146904 0)
(1.0153 0.210395 0)
(0.944629 0.194243 0)
(0.804443 0.18003 -4.08651e-18)
(0.654353 0.152366 8.47965e-18)
(0.509122 0.111238 0)
(0.359897 0.068459 -8.74865e-18)
(0.216457 0.0294567 0)
(0.0821204 -0.00515692 0)
(-0.0283887 -0.0185746 0)
(-0.0571803 -0.0190494 -2.07971e-17)
(-0.0675686 -0.0240982 1.8908e-17)
(-0.0732778 -0.0155275 1.72968e-17)
(-0.0666458 0.0045581 0)
(-0.0563875 0.0155174 7.54435e-18)
(-0.0614726 0.00374702 0)
(-0.0604363 -0.00852982 0)
(-0.0572091 -0.0127642 0)
(-0.0541572 -0.0142773 6.03685e-18)
(-0.0519461 -0.0183019 -1.17991e-17)
(-0.0456655 -0.0226672 -5.81105e-18)
(-0.0362199 -0.0224604 0)
(-0.0267656 -0.0158949 0)
(-0.0215291 -0.00536346 0)
(-0.0208889 0.00527389 -8.24626e-18)
(-0.0251058 0.0132526 0)
(-0.0325855 0.0164747 5.14964e-18)
(-0.0406227 0.0141447 2.44598e-18)
(-0.0464581 0.00714463 0)
(-0.0482159 -0.00243589 0)
(-0.0451047 -0.0131455 0)
(-0.0369505 -0.0229274 0)
(-0.023905 -0.0293459 -7.36438e-19)
(-0.00735468 -0.0306106 0)
(0.00945714 -0.0265689 3.80476e-19)
(0.0231082 -0.0190706 1.9928e-19)
(0.0309451 -0.0101504 0)
(0.030291 -0.000193587 0)
(0.0200117 0.0167273 8.17883e-19)
(-0.00027945 0.0488333 0)
(-0.0366114 0.0998144 -1.38483e-18)
(-0.0941783 0.165351 0)
(-0.171744 0.229046 -8.50025e-19)
(-0.260849 0.268302 0)
(-0.346207 0.267816 7.32349e-19)
(-0.410043 0.226187 -7.05893e-19)
(-0.43545 0.154521 0)
(-0.419149 0.0714379 0)
(-0.382999 -0.00461122 3.42816e-18)
(-0.352288 -0.0633046 0)
(-0.320278 -0.104483 -6.0811e-19)
(-0.283222 -0.133341 0)
(-0.243766 -0.154209 0)
(-0.200118 -0.169687 0)
(-0.151803 -0.180877 0)
(-0.099035 -0.187962 6.29937e-18)
(-0.0431389 -0.190723 0)
(0.0153022 -0.188773 -1.29871e-17)
(0.0752582 -0.182151 7.52694e-18)
(0.135151 -0.17191 -7.79542e-18)
(0.19419 -0.159083 -1.7199e-17)
(0.251681 -0.144505 1.77761e-17)
(0.307232 -0.128613 -1.80986e-17)
(0.360625 -0.111657 1.82095e-17)
(0.411795 -0.0938853 0)
(0.460882 -0.0756008 -2.64184e-17)
(0.508206 -0.0571124 -1.75471e-17)
(0.554175 -0.038555 0)
(0.599104 -0.0197418 7.75687e-18)
(0.642976 -0.000240898 1.57582e-17)
(0.685338 0.0203042 0)
(0.72543 0.0418767 0)
(0.7626 0.064022 0)
(0.796523 0.0859841 0)
(0.826878 0.107038 -1.11887e-17)
(0.854818 0.126778 4.494e-18)
(0.882662 0.144441 -8.5486e-18)
(0.910014 0.159196 7.02919e-18)
(0.938444 0.17065 -2.36391e-18)
(0.96221 0.179016 0)
(0.998842 0.182403 0)
(0.97849 0.201551 0)
(0.978859 0.193047 -3.36622e-18)
(0.969156 0.205179 4.03133e-18)
(0.939067 0.208622 -3.59076e-18)
(0.877991 0.194713 3.41185e-18)
(0.785522 0.168815 3.38001e-18)
(0.669233 0.138132 0)
(0.540776 0.10602 0)
(0.407909 0.0749051 0)
(0.285033 0.0456511 8.27828e-18)
(0.172235 0.0175571 0)
(0.0707976 -0.0063246 0)
(-0.0210317 -0.0119282 0)
(-0.0480648 -0.00286915 -8.58602e-18)
(-0.0563273 -0.00692114 0)
(-0.0680949 -0.00936617 -7.08751e-18)
(-0.0767992 -0.00543501 0)
(-0.0839121 -0.00310077 6.58926e-18)
(-0.0937243 -0.0118329 3.15135e-18)
(-0.10099 -0.0217319 0)
(-0.10325 -0.0227093 -3.11568e-18)
(-0.1032 -0.014252 0)
(-0.104653 0.000455156 0)
(-0.109692 0.0167516 5.75358e-18)
(-0.119825 0.0300141 0)
(-0.133938 0.0367367 1.22825e-18)
(-0.148814 0.0346275 -3.54259e-18)
(-0.160355 0.0234481 0)
(-0.165927 0.00523433 0)
(-0.164932 -0.0156789 -5.42816e-19)
(-0.157575 -0.0357321 0)
(-0.145011 -0.049835 -1.88475e-20)
(-0.128045 -0.0543391 0)
(-0.106692 -0.047719 8.23071e-19)
(-0.0825458 -0.0315278 1.16874e-19)
(-0.0609552 -0.00997578 0)
(-0.0479475 0.0146836 2.58899e-19)
(-0.0449288 0.047116 -5.04098e-19)
(-0.0510668 0.0964405 -4.68382e-19)
(-0.0645921 0.164699 -8.25307e-19)
(-0.0832976 0.24263 6.73407e-19)
(-0.103205 0.311123 5.14089e-19)
(-0.11874 0.346448 0)
(-0.123376 0.331526 -1.51315e-19)
(-0.111752 0.263173 2.3945e-18)
(-0.0795569 0.152682 0)
(-0.0330526 0.0278571 3.05205e-18)
(-0.00601378 -0.0470328 -5.9882e-18)
(0.00901942 -0.0940936 0)
(0.0304332 -0.128639 1.82874e-18)
(0.0539556 -0.156767 -1.39327e-18)
(0.0826332 -0.181532 7.36615e-19)
(0.117213 -0.203748 6.77173e-20)
(0.157538 -0.22248 0)
(0.202483 -0.236248 -2.69098e-18)
(0.250261 -0.243809 -1.74393e-18)
(0.299037 -0.244343 2.56217e-18)
(0.347165 -0.238353 2.62536e-18)
(0.393414 -0.226852 6.32708e-18)
(0.437171 -0.211421 0)
(0.478217 -0.19363 0)
(0.516597 -0.174553 0)
(0.552564 -0.154782 -3.70026e-18)
(0.586637 -0.134768 0)
(0.619658 -0.115039 8.11867e-18)
(0.65271 -0.0960253 0)
(0.686839 -0.0776901 -3.70887e-18)
(0.722644 -0.0592765 -7.73371e-18)
(0.759842 -0.0395588 0)
(0.797201 -0.0176208 -3.27258e-18)
(0.833058 0.00650882 3.07783e-18)
(0.866033 0.0318572 0)
(0.89548 0.0568802 0)
(0.921676 0.0799349 0)
(0.945238 0.100121 -4.70903e-18)
(0.967186 0.116966 0)
(0.988257 0.130407 -1.51787e-18)
(1.01123 0.140337 2.49506e-18)
(1.03005 0.147602 0)
(1.06646 0.151795 3.00692e-19)
(0.970611 0.209128 0)
(0.96392 0.194803 1.85644e-18)
(0.96644 0.198581 0)
(0.977169 0.206505 1.98526e-18)
(0.982047 0.209009 -3.55228e-18)
(0.968275 0.204394 -1.60345e-18)
(0.930653 0.193825 0)
(0.870499 0.177931 0)
(0.79064 0.156617 0)
(0.694522 0.131422 1.61516e-18)
(0.587969 0.105537 1.65626e-18)
(0.477911 0.0808006 0)
(0.366097 0.0583891 0)
(0.263492 0.0386173 0)
(0.176069 0.0208818 0)
(0.097712 0.00640105 7.57386e-18)
(0.0285035 -0.00394091 -3.89352e-18)
(-0.0205657 -0.00578807 0)
(-0.0339991 -0.0110464 -3.82141e-18)
(-0.0487774 -0.017523 1.88414e-18)
(-0.0633353 -0.0171252 3.69684e-18)
(-0.0765303 -0.00761699 0)
(-0.0874962 0.0083354 0)
(-0.0997546 0.0260386 -3.30606e-18)
(-0.115421 0.0403446 0)
(-0.134006 0.0465193 -1.36062e-18)
(-0.152271 0.0415009 1.23882e-18)
(-0.165697 0.0252758 0)
(-0.170716 0.0008353 0)
(-0.167813 -0.0265857 6.03048e-19)
(-0.159299 -0.0499142 0)
(-0.147564 -0.0662977 -7.36513e-19)
(-0.136723 -0.0758812 0)
(-0.127594 -0.0774901 -2.11802e-19)
(-0.117234 -0.0678551 -1.24288e-19)
(-0.101755 -0.0440606 -3.77617e-20)
(-0.0811059 -0.0062119 -4.4517e-19)
(-0.0587652 0.0423888 5.63313e-19)
(-0.0360575 0.100382 5.37442e-19)
(-0.0127973 0.16885 1.53522e-18)
(0.0153471 0.241779 -3.68908e-19)
(0.0518266 0.30274 2.4771e-19)
(0.0976889 0.330175 0)
(0.150948 0.310721 -1.5507e-19)
(0.205893 0.244103 -8.16571e-19)
(0.256476 0.146478 0)
(0.289793 0.0499226 -2.5933e-18)
(0.301184 -0.0287842 -1.07222e-18)
(0.30441 -0.0880045 0)
(0.313339 -0.134855 2.36263e-18)
(0.331243 -0.174523 1.12274e-18)
(0.357507 -0.209944 -3.0068e-19)
(0.390481 -0.241207 -5.57982e-20)
(0.427762 -0.266471 0)
(0.466585 -0.283661 4.73325e-19)
(0.504441 -0.291596 2.21901e-18)
(0.539491 -0.290288 1.96895e-18)
(0.570696 -0.280861 -2.38055e-18)
(0.597778 -0.26523 -1.27647e-18)
(0.621063 -0.245717 0)
(0.641192 -0.224374 0)
(0.658869 -0.20248 0)
(0.674929 -0.180796 5.47682e-18)
(0.69066 -0.160134 1.80872e-18)
(0.707925 -0.141387 0)
(0.728758 -0.124968 -3.70515e-18)
(0.754718 -0.110195 3.90027e-18)
(0.78622 -0.0950136 -3.52945e-18)
(0.821918 -0.0766969 -3.36056e-18)
(0.858893 -0.0535354 3.26414e-19)
(0.893971 -0.0258959 -3.30696e-18)
(0.925095 0.00418972 0)
(0.951777 0.0340896 0)
(0.974728 0.0615149 0)
(0.99497 0.084927 0)
(1.01393 0.103691 0)
(1.03237 0.117951 3.12649e-18)
(1.05298 0.12793 -1.14816e-18)
(1.0699 0.134945 0)
(1.10293 0.13881 -3.23108e-19)
(0.972988 0.216092 0)
(0.965833 0.201842 2.24531e-18)
(0.959212 0.195659 2.93582e-19)
(0.961504 0.195635 2.24073e-18)
(0.972694 0.197657 0)
(0.985544 0.199386 -1.90035e-18)
(0.992487 0.199475 0)
(0.988347 0.196468 -4.28227e-19)
(0.969931 0.189323 0)
(0.935077 0.178019 -1.91601e-18)
(0.883757 0.163414 -1.48763e-18)
(0.818051 0.146513 -3.75355e-19)
(0.740794 0.127771 3.72474e-19)
(0.654845 0.107491 0)
(0.565595 0.0872465 3.69547e-19)
(0.476714 0.0688714 0)
(0.393398 0.0525315 3.04402e-18)
(0.319449 0.0368217 -4.00654e-19)
(0.254414 0.0191376 0)
(0.192633 0.00187832 -2.29144e-18)
(0.135563 -0.00747836 0)
(0.0929472 -0.00341064 0)
(0.0693495 0.0123578 0)
(0.0561397 0.0347132 0)
(0.0477063 0.0565329 -2.27808e-19)
(0.0403229 0.068539 0)
(0.0325839 0.0634981 0)
(0.0239354 0.0389308 6.80667e-20)
(0.0152905 0.00120383 0)
(0.0130055 -0.0383358 0)
(0.013789 -0.0682501 0)
(0.0162129 -0.0837122 -5.68888e-20)
(0.0202496 -0.0845287 0)
(0.0251008 -0.0752813 -3.4341e-19)
(0.0262122 -0.062807 0)
(0.0219796 -0.0495631 4.63231e-20)
(0.0179142 -0.0305997 2.53618e-19)
(0.020917 0.00218668 5.2803e-20)
(0.0366962 0.049899 -9.58213e-20)
(0.0702424 0.108505 -6.03003e-19)
(0.120948 0.168864 -4.71455e-19)
(0.186734 0.216625 3.1059e-19)
(0.262948 0.235922 -4.23548e-20)
(0.341092 0.217186 1.54579e-19)
(0.410577 0.16193 -5.46222e-19)
(0.46227 0.0838531 8.03134e-20)
(0.492081 0.00357164 0)
(0.507818 -0.0628271 9.90341e-19)
(0.520284 -0.115259 0)
(0.539157 -0.161031 -6.91313e-19)
(0.566163 -0.204356 0)
(0.598434 -0.244702 -2.71054e-19)
(0.632123 -0.279026 0)
(0.663745 -0.304171 -5.50191e-20)
(0.690752 -0.318246 -4.42777e-19)
(0.711774 -0.321004 -6.73526e-19)
(0.726529 -0.313584 2.10821e-19)
(0.735548 -0.298079 0)
(0.739912 -0.277181 1.28916e-18)
(0.740969 -0.253668 -3.41351e-19)
(0.739998 -0.229665 0)
(0.738079 -0.206413 4.13085e-19)
(0.736557 -0.18499 -1.87471e-18)
(0.737683 -0.166894 -1.96062e-18)
(0.744395 -0.153374 0)
(0.759182 -0.144285 4.02749e-18)
(0.783289 -0.13749 0)
(0.816275 -0.128768 3.81882e-18)
(0.855155 -0.113272 3.64118e-18)
(0.894776 -0.0886785 3.44615e-18)
(0.930325 -0.0565957 3.56257e-19)
(0.959508 -0.0211389 0)
(0.98273 0.0133384 0)
(1.0016 0.0439843 0)
(1.01802 0.069219 -2.51849e-19)
(1.03416 0.0885538 0)
(1.05089 0.102537 -1.43908e-18)
(1.07094 0.111775 1.40052e-18)
(1.08781 0.118272 9.38855e-20)
(1.12203 0.122059 4.13861e-20)
(0.974194 0.218524 -1.45311e-18)
(0.970937 0.206396 1.40383e-18)
(0.965123 0.198228 -3.32213e-19)
(0.961148 0.194194 0)
(0.962215 0.192056 0)
(0.968288 0.190697 0)
(0.977802 0.190093 0)
(0.988516 0.189771 1.4749e-18)
(0.997392 0.188727 0)
(1.00081 0.185987 -1.31719e-18)
(0.995517 0.180867 -1.64636e-18)
(0.979387 0.173171 3.80424e-19)
(0.95191 0.163086 1.13615e-18)
(0.913201 0.150592 0)
(0.864349 0.135877 -1.72881e-18)
(0.807412 0.119827 0)
(0.746652 0.103175 -1.35687e-18)
(0.685802 0.0862609 3.37386e-19)
(0.625632 0.0700296 -1.44527e-18)
(0.565933 0.0561662 -1.15449e-18)
(0.505577 0.0454982 0)
(0.445262 0.0382577 0)
(0.389938 0.0362403 -8.87635e-19)
(0.347071 0.0419303 0)
(0.322294 0.0537073 -5.80312e-19)
(0.315433 0.0637263 0)
(0.322228 0.0631304 0)
(0.337223 0.0479053 -5.52928e-20)
(0.352467 0.0202209 0)
(0.358969 -0.0132252 0)
(0.354529 -0.0441515 0)
(0.338899 -0.0672968 4.70093e-20)
(0.314752 -0.0806341 2.42516e-19)
(0.289076 -0.0825021 1.80462e-19)
(0.268419 -0.0716755 0)
(0.255614 -0.0491552 0)
(0.247317 -0.0202065 -4.71848e-20)
(0.24084 0.00768124 -2.37153e-19)
(0.238839 0.0352579 8.64411e-20)
(0.249353 0.0657259 0)
(0.280069 0.0980744 0)
(0.332579 0.124579 -1.79148e-19)
(0.401426 0.134332 4.4126e-20)
(0.476065 0.119916 -3.48767e-20)
(0.545258 0.0822108 -1.18478e-19)
(0.601463 0.0308742 -8.24871e-20)
(0.644395 -0.0235638 0)
(0.679891 -0.0787248 -3.22915e-19)
(0.713493 -0.133433 0)
(0.748166 -0.186638 0)
(0.782626 -0.235842 0)
(0.813357 -0.277466 0)
(0.8371 -0.308365 0)
(0.852082 -0.326821 5.42899e-20)
(0.858131 -0.332766 0)
(0.856276 -0.327489 6.44825e-19)
(0.848188 -0.313144 -2.19373e-19)
(0.835732 -0.292366 0)
(0.820694 -0.268033 1.21122e-18)
(0.804594 -0.242797 3.70605e-19)
(0.788523 -0.218472 1.57255e-18)
(0.773439 -0.196302 -4.57335e-19)
(0.761142 -0.17811 0)
(0.754795 -0.166254 -1.99061e-18)
(0.757612 -0.161726 0)
(0.771162 -0.162936 0)
(0.795846 -0.165992 -1.95995e-18)
(0.831258 -0.164428 0)
(0.873614 -0.150993 0)
(0.915517 -0.123074 -1.4948e-18)
(0.950579 -0.0845204 -3.97337e-19)
(0.97674 -0.0423053 0)
(0.995435 -0.00260774 0)
(1.00923 0.0311968 0)
(1.02135 0.0575307 2.77865e-19)
(1.0346 0.0764141 -9.23584e-19)
(1.04996 0.0890941 -2.10747e-19)
(1.07037 0.0967477 -1.64845e-19)
(1.08807 0.10224 -1.03041e-19)
(1.12606 0.105469 -2.34244e-19)
(0.974501 0.219019 5.10514e-18)
(0.973759 0.208066 -4.89748e-18)
(0.971719 0.200478 0)
(0.969169 0.19629 -2.96545e-18)
(0.967069 0.193047 0)
(0.966188 0.189461 -2.6193e-18)
(0.967449 0.186021 0)
(0.971711 0.183296 3.48804e-18)
(0.979037 0.18115 -4.33734e-18)
(0.988383 0.179111 1.99016e-18)
(0.997878 0.176691 1.8617e-18)
(1.0053 0.173441 0)
(1.00864 0.168962 -5.00626e-18)
(1.00621 0.162707 -3.17336e-18)
(0.996629 0.154173 4.45092e-18)
(0.979187 0.143353 0)
(0.954803 0.130779 1.34728e-18)
(0.925301 0.117469 0)
(0.89179 0.104603 1.36647e-18)
(0.854845 0.0934439 1.41153e-18)
(0.814911 0.0850588 0)
(0.773002 0.0798553 0)
(0.731332 0.0774022 -7.66337e-19)
(0.693694 0.0764682 0)
(0.665311 0.0751131 6.78857e-19)
(0.650756 0.070202 0)
(0.650178 0.0576132 0)
(0.658297 0.0341463 0)
(0.66857 0.00226582 0)
(0.674384 -0.0284418 0)
(0.673514 -0.0506783 0)
(0.667561 -0.0606932 0)
(0.657241 -0.0588579 2.21555e-19)
(0.640555 -0.049074 -1.25432e-19)
(0.614638 -0.0364524 7.25449e-20)
(0.581201 -0.0235891 0)
(0.547667 -0.0086193 0)
(0.521345 0.0114906 1.67535e-19)
(0.507114 0.0343278 -6.23748e-19)
(0.50634 0.0558486 5.55626e-19)
(0.520867 0.0730654 0)
(0.55235 0.0828459 8.61654e-19)
(0.599306 0.081114 -4.20382e-19)
(0.656012 0.0645554 -1.06095e-19)
(0.715045 0.0329445 1.20862e-19)
(0.771096 -0.0113432 0)
(0.822102 -0.0645262 0)
(0.867929 -0.12119 7.64529e-19)
(0.908536 -0.176349 0)
(0.942373 -0.2263 0)
(0.967003 -0.268159 0)
(0.980455 -0.299668 -2.8361e-20)
(0.982291 -0.319514 2.75458e-19)
(0.973748 -0.327618 0)
(0.95721 -0.32504 0)
(0.935437 -0.313584 -6.96178e-19)
(0.910913 -0.295378 0)
(0.885487 -0.272711 2.13672e-18)
(0.860338 -0.247994 1.19259e-18)
(0.836062 -0.22339 0)
(0.812917 -0.20046 1.5984e-18)
(0.791637 -0.180937 3.76296e-18)
(0.774506 -0.167764 4.10844e-18)
(0.764907 -0.163684 2.22934e-18)
(0.764795 -0.168394 -4.48475e-18)
(0.774014 -0.178911 4.44518e-18)
(0.793899 -0.191113 6.37951e-18)
(0.827248 -0.196844 0)
(0.870522 -0.185234 0)
(0.913146 -0.152957 1.67422e-18)
(0.946748 -0.106927 0)
(0.969575 -0.0575422 2.36669e-18)
(0.983825 -0.012763 2.16261e-18)
(0.993413 0.0235067 0)
(1.00273 0.0499457 2.04108e-18)
(1.01484 0.0673662 -9.34273e-19)
(1.03057 0.0778666 0)
(1.05315 0.083217 0)
(1.07309 0.0872318 0)
(1.11725 0.0893538 -2.4021e-19)
(0.974733 0.218946 -3.92189e-18)
(0.97546 0.20823 3.75251e-18)
(0.976063 0.201109 -7.26251e-18)
(0.975949 0.197443 3.3539e-18)
(0.974895 0.194566 0)
(0.973227 0.190931 2.96229e-18)
(0.971521 0.186782 -5.65952e-18)
(0.970519 0.182613 -5.2629e-18)
(0.971068 0.178521 -7.7129e-20)
(0.973847 0.174517 0)
(0.979098 0.170683 0)
(0.986524 0.166985 4.19432e-18)
(0.995343 0.163158 3.84951e-18)
(1.00438 0.15869 -3.78557e-18)
(1.01211 0.153019 -1.03023e-17)
(1.01694 0.145796 0)
(1.01765 0.137168 0)
(1.01381 0.127772 0)
(1.00557 0.118433 0)
(0.993452 0.110278 0)
(0.978497 0.104479 0)
(0.962197 0.101342 0)
(0.946121 0.0998028 1.51865e-18)
(0.931926 0.0977503 -2.90922e-18)
(0.921644 0.0925646 0)
(0.917146 0.0815108 0)
(0.918532 0.062667 0)
(0.92332 0.0365905 0)
(0.926448 0.00717918 0)
(0.92308 -0.0197446 -5.37814e-19)
(0.912468 -0.038984 0)
(0.896369 -0.0485316 0)
(0.877102 -0.0487553 9.09251e-21)
(0.85732 -0.0404096 0)
(0.838843 -0.0242511 -7.09608e-20)
(0.820595 -0.00320513 0)
(0.801436 0.0174016 3.02884e-19)
(0.782891 0.0342291 0)
(0.768777 0.0468609 1.14819e-18)
(0.763576 0.0555503 -5.2515e-19)
(0.770378 0.0595415 -8.77126e-19)
(0.790381 0.056833 -6.73157e-19)
(0.822737 0.0448042 4.18716e-19)
(0.864615 0.0212512 1.42938e-19)
(0.912555 -0.0142502 4.10988e-20)
(0.961541 -0.0593651 -2.95913e-19)
(1.00686 -0.109382 0)
(1.04474 -0.159512 9.36578e-20)
(1.07209 -0.205826 0)
(1.08689 -0.245373 0)
(1.08852 -0.276158 1.24096e-19)
(1.07791 -0.297083 3.03511e-20)
(1.05742 -0.308 1.46973e-19)
(1.03027 -0.309629 0)
(0.999836 -0.303264 0)
(0.968884 -0.290373 0)
(0.939121 -0.272372 1.87177e-18)
(0.911111 -0.250762 -2.39486e-18)
(0.88455 -0.227322 -2.84967e-18)
(0.858714 -0.2039 0)
(0.833155 -0.182321 -3.79578e-18)
(0.808707 -0.16529 -1.36858e-19)
(0.787909 -0.156653 -4.63495e-18)
(0.773267 -0.158557 4.86776e-18)
(0.764552 -0.169089 5.74782e-21)
(0.760908 -0.185778 -5.01186e-18)
(0.768165 -0.206939 -4.7259e-18)
(0.795388 -0.222147 0)
(0.838237 -0.213823 0)
(0.880817 -0.177267 0)
(0.912605 -0.123564 0)
(0.932542 -0.0671809 -2.71943e-18)
(0.943678 -0.0179615 -2.45505e-18)
(0.951323 0.0197182 0)
(0.960577 0.0452567 -2.29923e-18)
(0.974321 0.0603613 4.36684e-18)
(0.993001 0.0680345 0)
(1.02017 0.0705534 0)
(1.04414 0.0727506 0)
(1.09723 0.0733563 1.04391e-18)
(0.975035 0.21851 9.62628e-18)
(0.97713 0.207503 0)
(0.979631 0.200857 1.66014e-17)
(0.980958 0.197792 0)
(0.980773 0.195281 7.24738e-18)
(0.979876 0.191962 0)
(0.978707 0.188099 6.39539e-18)
(0.977249 0.183929 0)
(0.975702 0.179365 -5.85602e-18)
(0.974599 0.174418 0)
(0.974559 0.169269 1.03357e-17)
(0.976107 0.164074 -4.79463e-18)
(0.979585 0.158845 0)
(0.985034 0.153413 8.48061e-18)
(0.992048 0.147504 -1.87594e-19)
(0.999776 0.140873 -7.67353e-18)
(1.00698 0.133577 7.4259e-18)
(1.01259 0.125988 0)
(1.01613 0.118668 0)
(1.01774 0.112439 7.11995e-18)
(1.01828 0.108026 0)
(1.01898 0.105408 -3.47098e-18)
(1.02103 0.103529 0)
(1.02509 0.100473 3.12874e-18)
(1.03123 0.0938235 0)
(1.03875 0.081324 2.73746e-18)
(1.04592 0.0619945 0)
(1.05003 0.0370906 0)
(1.04763 0.0103749 1.21533e-18)
(1.03689 -0.0131242 5.72938e-19)
(1.01912 -0.0292985 0)
(0.997616 -0.036475 0)
(0.975781 -0.0348936 -1.41506e-18)
(0.956207 -0.0259275 0)
(0.940781 -0.0115717 0)
(0.930961 0.00585619 0)
(0.927038 0.0238811 -3.11471e-19)
(0.927637 0.0391324 0)
(0.93178 0.049268 -1.6986e-18)
(0.940169 0.0531644 -1.03177e-18)
(0.954386 0.0501881 8.88915e-19)
(0.975742 0.0396106 0)
(1.00455 0.0203913 0)
(1.0396 -0.00825323 7.3547e-19)
(1.0771 -0.0457102 -4.15358e-20)
(1.11219 -0.0891382 3.02118e-19)
(1.14026 -0.134288 0)
(1.15771 -0.177073 -3.48707e-19)
(1.16262 -0.214382 -2.0421e-19)
(1.15495 -0.244336 0)
(1.13633 -0.266185 -1.36923e-19)
(1.10954 -0.28 3.42297e-19)
(1.07798 -0.286376 -5.00171e-19)
(1.0449 -0.286161 0)
(1.01292 -0.280172 0)
(0.983534 -0.269 0)
(0.956941 -0.253065 -2.10352e-18)
(0.932192 -0.233039 0)
(0.907651 -0.210286 0)
(0.881759 -0.186816 0)
(0.853974 -0.165217 7.87885e-18)
(0.82546 -0.1492 -4.66585e-18)
(0.798545 -0.142816 0)
(0.774208 -0.146904 -5.57666e-18)
(0.750152 -0.158732 -5.94202e-18)
(0.726481 -0.179152 1.17255e-17)
(0.71663 -0.211153 -1.07513e-17)
(0.736786 -0.239547 -9.15299e-18)
(0.778744 -0.236082 0)
(0.819978 -0.195261 -5.648e-18)
(0.849166 -0.134249 0)
(0.866582 -0.0715767 0)
(0.876086 -0.0190408 0)
(0.884446 0.0188439 4.30949e-18)
(0.896647 0.0425222 -4.70915e-18)
(0.914923 0.0546616 -7.37475e-18)
(0.939116 0.0591123 0)
(0.973214 0.0584868 4.05919e-18)
(1.0029 0.0586717 0)
(1.06755 0.0574553 -1.96667e-18)
(0.975434 0.217698 -1.09191e-17)
(0.979146 0.206116 -1.06037e-17)
(0.983433 0.20029 -1.908e-17)
(0.985599 0.198064 0)
(0.985517 0.195777 -1.64684e-17)
(0.984833 0.19255 -7.83375e-18)
(0.984268 0.188914 0)
(0.983548 0.184979 1.39592e-17)
(0.982489 0.180551 1.30534e-17)
(0.981236 0.175584 0)
(0.980024 0.170172 -1.16889e-17)
(0.979125 0.164402 0)
(0.978888 0.158315 0)
(0.979668 0.151883 1.00387e-17)
(0.981652 0.145027 9.30214e-18)
(0.984762 0.13768 -1.87488e-19)
(0.988549 0.13003 1.94184e-19)
(0.992433 0.122468 0)
(0.996087 0.115434 0)
(0.999634 0.109459 -8.14559e-18)
(1.00372 0.104916 -8.20636e-18)
(1.00932 0.101645 1.19936e-17)
(1.0173 0.0987382 3.89003e-18)
(1.02782 0.0946115 3.71005e-18)
(1.0401 0.08733 0)
(1.05226 0.0752342 -3.09205e-18)
(1.06157 0.0578008 0)
(1.06503 0.0364917 0)
(1.06056 0.0145205 -2.87479e-18)
(1.04788 -0.00424646 0)
(1.029 -0.0169327 0)
(1.00723 -0.0225639 0)
(0.985904 -0.0216913 1.07007e-18)
(0.967817 -0.0155376 -5.98105e-19)
(0.955366 -0.00542877 3.22739e-19)
(0.950694 0.00724622 0)
(0.954605 0.0206394 0)
(0.966254 0.0321717 0)
(0.983706 0.0394548 1.23056e-18)
(1.00523 0.0407135 1.12252e-18)
(1.02995 0.0348362 -2.02781e-18)
(1.05755 0.0210922 0)
(1.08743 -0.000992289 0)
(1.11762 -0.0310785 -1.83602e-18)
(1.14527 -0.0673461 -6.77104e-19)
(1.1671 -0.106581 0)
(1.18025 -0.145084 0)
(1.18298 -0.179775 -2.52988e-19)
(1.17513 -0.208843 2.79217e-19)
(1.15801 -0.231675 0)
(1.13399 -0.248416 0)
(1.10594 -0.25951 -3.88312e-19)
(1.07656 -0.265421 0)
(1.048 -0.266471 0)
(1.02158 -0.262711 0)
(0.997628 -0.253867 0)
(0.975418 -0.239545 0)
(0.953266 -0.219856 -5.11964e-18)
(0.929024 -0.196108 0)
(0.901017 -0.170872 0)
(0.868994 -0.147684 -3.83618e-19)
(0.834329 -0.130926 0)
(0.79881 -0.124168 0)
(0.761832 -0.126708 0)
(0.719314 -0.136196 2.81111e-17)
(0.673374 -0.15948 -1.38078e-17)
(0.646501 -0.205333 1.2381e-17)
(0.660047 -0.249984 6.22999e-20)
(0.699168 -0.251491 0)
(0.735942 -0.205924 6.67543e-18)
(0.760707 -0.138485 -4.53631e-18)
(0.775743 -0.070967 0)
(0.785298 -0.0167724 0)
(0.797123 0.0199931 -3.3e-19)
(0.815077 0.0409714 5.42438e-18)
(0.840439 0.0497336 5.64158e-18)
(0.872245 0.0508103 0)
(0.915105 0.0469156 -4.61248e-18)
(0.951711 0.0449966 0)
(1.03003 0.0417064 1.51976e-18)
(0.975986 0.216481 0)
(0.981696 0.204238 2.43851e-17)
(0.98778 0.199689 2.18143e-17)
(0.990462 0.198476 0)
(0.990158 0.196329 9.35317e-18)
(0.989326 0.193104 -9.01647e-18)
(0.988853 0.189569 0)
(0.988398 0.18571 -1.57838e-17)
(0.987781 0.181337 0)
(0.987103 0.176454 0)
(0.986418 0.171118 0)
(0.985716 0.165347 0)
(0.985055 0.159127 0)
(0.984561 0.152419 1.80083e-19)
(0.984349 0.145174 -1.09233e-17)
(0.984455 0.137383 -1.85805e-19)
(0.984803 0.129319 1.90016e-19)
(0.985273 0.121423 0)
(0.985855 0.114077 0)
(0.986818 0.107645 0)
(0.988786 0.102335 -1.54926e-19)
(0.992616 0.0979521 1.43435e-19)
(0.999028 0.0937459 -4.46053e-18)
(1.00813 0.088476 -4.26081e-18)
(1.01907 0.0807032 0)
(1.02995 0.0692794 -3.92629e-18)
(1.03811 0.0540017 3.76356e-18)
(1.04088 0.036141 0)
(1.03675 0.0181282 1.72631e-18)
(1.0257 0.00282464 1.91046e-18)
(1.00937 -0.00768092 0)
(0.990468 -0.01271 0)
(0.971825 -0.0126971 1.24952e-18)
(0.955969 -0.00862503 -8.47624e-22)
(0.945156 -0.00169157 -7.3087e-19)
(0.941292 0.00684471 0)
(0.945543 0.0155672 0)
(0.958019 0.0227456 -1.46271e-18)
(0.977549 0.0265548 0)
(1.00219 0.0253648 -1.30767e-18)
(1.02994 0.0178791 -7.6101e-20)
(1.05894 0.00330398 0)
(1.08734 -0.0184571 1.79571e-18)
(1.11357 -0.0466165 2.57333e-18)
(1.13577 -0.0793421 7.61369e-19)
(1.15216 -0.113748 0)
(1.16138 -0.146728 -9.42152e-19)
(1.1627 -0.175942 0)
(1.15618 -0.20029 -5.71825e-20)
(1.14285 -0.219678 0)
(1.12442 -0.234451 0)
(1.10278 -0.244948 0)
(1.0796 -0.251316 0)
(1.0561 -0.253456 0)
(1.03297 -0.250948 -3.35924e-18)
(1.01035 -0.243004 4.00524e-18)
(0.987646 -0.228701 0)
(0.963434 -0.207789 5.77994e-18)
(0.935817 -0.181689 -6.45278e-18)
(0.903363 -0.153625 0)
(0.865971 -0.127959 -9.97076e-18)
(0.824856 -0.109355 0)
(0.781229 -0.100452 0)
(0.733048 -0.099015 0)
(0.67427 -0.10412 -1.72528e-17)
(0.609382 -0.130555 1.70986e-17)
(0.568992 -0.192639 -1.47671e-17)
(0.575184 -0.254219 2.37645e-17)
(0.607212 -0.259257 -8.97663e-18)
(0.635585 -0.208472 0)
(0.654059 -0.136085 5.61327e-18)
(0.666929 -0.0658806 -3.90055e-18)
(0.678113 -0.0120343 0)
(0.695674 0.0222926 -1.96398e-19)
(0.721522 0.0399535 -6.23623e-18)
(0.75577 0.0451819 0)
(0.796529 0.0429555 0)
(0.849268 0.0358238 -5.94468e-18)
(0.893377 0.0317903 0)
(0.986738 0.026184 -2.10582e-18)
(0.976761 0.214811 0)
(0.98494 0.202032 -1.40256e-17)
(0.992782 0.199243 -1.24004e-17)
(0.995673 0.199052 0)
(0.995022 0.196959 2.14179e-17)
(0.994019 0.193759 2.02204e-17)
(0.993481 0.190311 0)
(0.992961 0.186439 1.81674e-17)
(0.992355 0.182004 -1.72324e-17)
(0.991845 0.177089 0)
(0.991498 0.17176 0)
(0.991258 0.166015 0)
(0.991077 0.159822 0)
(0.990929 0.153132 -1.3018e-17)
(0.990766 0.145885 -1.27013e-17)
(0.990498 0.138073 1.16941e-17)
(0.990029 0.129969 -3.45242e-17)
(0.989327 0.122004 0)
(0.988495 0.114503 0)
(0.987855 0.107732 1.11113e-17)
(0.987997 0.101804 2.17684e-17)
(0.989674 0.0965008 -1.06097e-17)
(0.993522 0.0911862 0)
(0.999701 0.0848939 0)
(1.0076 0.0765758 -4.85025e-18)
(1.01575 0.0654826 9.13819e-18)
(1.02206 0.0516283 -8.79595e-18)
(1.02438 0.0360814 0)
(1.02133 0.0207644 0)
(1.01261 0.00791268 -2.1748e-18)
(0.999299 -0.000886344 0)
(0.983393 -0.00519347 2.62066e-18)
(0.967221 -0.00551556 -1.42116e-18)
(0.953007 -0.00283993 -2.33928e-21)
(0.942711 0.00171204 7.38534e-23)
(0.937933 0.00707861 0)
(0.939836 0.012178 0)
(0.948912 0.0157683 -2.41501e-21)
(0.964728 0.0165159 1.61368e-18)
(0.985968 0.0131402 4.55492e-18)
(1.01072 0.00454786 5.57542e-18)
(1.03688 -0.00998866 2.56288e-18)
(1.06267 -0.0307243 -2.04454e-18)
(1.08682 -0.0571664 -1.5895e-18)
(1.10813 -0.0876049 1.40492e-18)
(1.12574 -0.11926 0)
(1.1387 -0.149178 1.06502e-18)
(1.14583 -0.175224 -1.20921e-18)
(1.14613 -0.196583 0)
(1.13945 -0.213449 0)
(1.12647 -0.226313 0)
(1.1083 -0.235478 0)
(1.08604 -0.240941 0)
(1.06068 -0.242437 0)
(1.03314 -0.239384 3.78944e-18)
(1.00426 -0.230781 -9.0159e-18)
(0.974511 -0.215386 -5.13276e-18)
(0.943607 -0.19266 5.91373e-18)
(0.910377 -0.164079 7.49255e-18)
(0.87356 -0.133359 -8.62683e-18)
(0.832646 -0.105411 1.08156e-17)
(0.788172 -0.08495 0)
(0.740871 -0.0734847 1.61862e-17)
(0.687546 -0.0673574 -1.91674e-17)
(0.619828 -0.0675591 0)
(0.54384 -0.0977058 -4.15787e-17)
(0.49492 -0.176045 1.70886e-17)
(0.4905 -0.252347 -2.73595e-17)
(0.509869 -0.258988 1.04853e-17)
(0.526663 -0.20323 0)
(0.537693 -0.128046 5.35342e-18)
(0.548777 -0.0576043 4.75894e-18)
(0.562805 -0.00594296 -4.88089e-18)
(0.587428 0.0249452 -6.23574e-18)
(0.622229 0.0389759 7.31005e-18)
(0.666148 0.0407544 0)
(0.716298 0.0354757 0)
(0.779261 0.0252607 6.8349e-18)
(0.830793 0.019176 0)
(0.939812 0.0109867 2.37763e-18)
(0.977833 0.212623 1.83333e-17)
(0.988999 0.19967 0)
(0.998484 0.199095 -2.79386e-17)
(1.00128 0.19979 2.54234e-17)
(1.00022 0.197672 -2.41974e-17)
(0.999097 0.194551 2.31483e-17)
(0.998499 0.191194 0)
(0.997869 0.187279 1.57877e-19)
(0.997157 0.182754 1.94549e-17)
(0.996586 0.177764 0)
(0.996242 0.172371 0)
(0.996094 0.16657 0)
(0.99611 0.160341 3.18102e-17)
(0.996254 0.153643 0)
(0.996444 0.146428 2.82471e-17)
(0.996537 0.138685 0)
(0.996377 0.130675 5.2576e-17)
(0.995893 0.122793 0)
(0.99517 0.115309 0)
(0.994497 0.108408 -2.52249e-17)
(0.994388 0.102129 -1.23637e-17)
(0.995472 0.0962297 0)
(0.998279 0.090152 0)
(1.00296 0.0831153 0)
(1.00907 0.0743405 5.4974e-18)
(1.0155 0.063355 -5.27097e-18)
(1.02063 0.050331 -1.76186e-19)
(1.02274 0.0362669 0)
(1.02047 0.0228234 5.12812e-18)
(1.01335 0.0118124 0)
(1.00202 0.00440794 0)
(0.988011 0.000773269 -2.95998e-18)
(0.973313 0.000270532 1.63137e-18)
(0.959975 0.0019309 -3.40255e-21)
(0.949827 0.00476727 4.61323e-19)
(0.944347 0.00788421 0)
(0.944543 0.0103905 0)
(0.950867 0.0113151 1.89327e-18)
(0.96311 0.00964398 -1.83415e-18)
(0.980394 0.00440897 -3.48233e-18)
(1.00131 -0.00527537 -3.23757e-18)
(1.02427 -0.0201623 -2.93283e-18)
(1.04781 -0.040674 0)
(1.07086 -0.0664532 0)
(1.09296 -0.0959098 -1.57446e-18)
(1.11376 -0.126294 -2.82553e-18)