/*--------------------------------*- C++ -*----------------------------------*\
| =========                 |                                                 |
| \\      /  F ield         | OpenFOAM: The Open Source CFD Toolbox           |
|  \\    /   O peration     | Version:  v1912                                 |
|   \\  /    A nd           | Website:  www.openfoam.com                      |
|    \\/     M anipulation  |                                                 |
\*---------------------------------------------------------------------------*/
FoamFile
{
    version     2.0;
    format      ascii;
    class       volScalarField;
    location    "100";
    object      nut;
}
// * * * * * * * * * * * * * * * * * * * * * * * * * * * * * * * * * * * * * //

dimensions      [0 2 -1 0 0 0 0];


internalField   nonuniform List<scalar> 
10000
(
9.9992e-05
9.99748e-05
9.99558e-05
9.99345e-05
9.99106e-05
9.98836e-05
9.98527e-05
9.98171e-05
9.97757e-05
9.97268e-05
9.96684e-05
9.95975e-05
9.95094e-05
9.93978e-05
9.92462e-05
9.90521e-05
9.86749e-05
9.84873e-05
9.58307e-05
0.000101347
9.9992e-05
9.99748e-05
9.99558e-05
9.99345e-05
9.99106e-05
9.98836e-05
9.98527e-05
9.98171e-05
9.97757e-05
9.97268e-05
9.96684e-05
9.95975e-05
9.95094e-05
9.93977e-05
9.92461e-05
9.90519e-05
9.86749e-05
9.84857e-05
9.58358e-05
0.000101784
9.9992e-05
9.99748e-05
9.99558e-05
9.99345e-05
9.99106e-05
9.98836e-05
9.98527e-05
9.98171e-05
9.97757e-05
9.97268e-05
9.96684e-05
9.95975e-05
9.95093e-05
9.93975e-05
9.92458e-05
9.90514e-05
9.86749e-05
9.84821e-05
9.58505e-05
0.000101932
9.9992e-05
9.99748e-05
9.99558e-05
9.99345e-05
9.99106e-05
9.98836e-05
9.98527e-05
9.98171e-05
9.97757e-05
9.97268e-05
9.96684e-05
9.95974e-05
9.95091e-05
9.93972e-05
9.92454e-05
9.90506e-05
9.86749e-05
9.84762e-05
9.58783e-05
0.000101831
9.9992e-05
9.99748e-05
9.99558e-05
9.99345e-05
9.99106e-05
9.98836e-05
9.98527e-05
9.98171e-05
9.97757e-05
9.97268e-05
9.96683e-05
9.95973e-05
9.95089e-05
9.93969e-05
9.92448e-05
9.90496e-05
9.8675e-05
9.84679e-05
9.59215e-05
0.00010153
9.9992e-05
9.99748e-05
9.99558e-05
9.99345e-05
9.99106e-05
9.98836e-05
9.98527e-05
9.98171e-05
9.97756e-05
9.97267e-05
9.96683e-05
9.95972e-05
9.95087e-05
9.93964e-05
9.92442e-05
9.90483e-05
9.86753e-05
9.84571e-05
9.59807e-05
0.000101076
9.9992e-05
9.99748e-05
9.99558e-05
9.99345e-05
9.99107e-05
9.98836e-05
9.98527e-05
9.98171e-05
9.97756e-05
9.97267e-05
9.96682e-05
9.9597e-05
9.95084e-05
9.9396e-05
9.92436e-05
9.90469e-05
9.86759e-05
9.84436e-05
9.60556e-05
0.000100513
9.9992e-05
9.99748e-05
9.99558e-05
9.99345e-05
9.99107e-05
9.98836e-05
9.98527e-05
9.98171e-05
9.97756e-05
9.97267e-05
9.96681e-05
9.95969e-05
9.95082e-05
9.93955e-05
9.92429e-05
9.90454e-05
9.86769e-05
9.84277e-05
9.61445e-05
9.98805e-05
9.9992e-05
9.99748e-05
9.99558e-05
9.99346e-05
9.99107e-05
9.98836e-05
9.98527e-05
9.98171e-05
9.97756e-05
9.97267e-05
9.96681e-05
9.95968e-05
9.95079e-05
9.9395e-05
9.92422e-05
9.90437e-05
9.86783e-05
9.84096e-05
9.62449e-05
9.92178e-05
9.9992e-05
9.99748e-05
9.99558e-05
9.99346e-05
9.99107e-05
9.98836e-05
9.98527e-05
9.98171e-05
9.97756e-05
9.97267e-05
9.9668e-05
9.95967e-05
9.95077e-05
9.93945e-05
9.92416e-05
9.90421e-05
9.86802e-05
9.83899e-05
9.63535e-05
9.85556e-05
9.9992e-05
9.99748e-05
9.99558e-05
9.99346e-05
9.99107e-05
9.98836e-05
9.98528e-05
9.98171e-05
9.97756e-05
9.97267e-05
9.9668e-05
9.95966e-05
9.95075e-05
9.93941e-05
9.92411e-05
9.90404e-05
9.86825e-05
9.8369e-05
9.64667e-05
9.7922e-05
9.9992e-05
9.99748e-05
9.99558e-05
9.99346e-05
9.99107e-05
9.98837e-05
9.98528e-05
9.98172e-05
9.97757e-05
9.97267e-05
9.9668e-05
9.95965e-05
9.95073e-05
9.93938e-05
9.92406e-05
9.90389e-05
9.86854e-05
9.83477e-05
9.65807e-05
9.73371e-05
9.9992e-05
9.99748e-05
9.99558e-05
9.99346e-05
9.99107e-05
9.98837e-05
9.98528e-05
9.98172e-05
9.97757e-05
9.97267e-05
9.9668e-05
9.95965e-05
9.95072e-05
9.93935e-05
9.92403e-05
9.90374e-05
9.86886e-05
9.83266e-05
9.66922e-05
9.68174e-05
9.9992e-05
9.99748e-05
9.99558e-05
9.99346e-05
9.99107e-05
9.98837e-05
9.98528e-05
9.98172e-05
9.97757e-05
9.97267e-05
9.9668e-05
9.95965e-05
9.95072e-05
9.93933e-05
9.92402e-05
9.90362e-05
9.86923e-05
9.83067e-05
9.67979e-05
9.63713e-05
9.9992e-05
9.99749e-05
9.99558e-05
9.99346e-05
9.99108e-05
9.98837e-05
9.98529e-05
9.98173e-05
9.97758e-05
9.97268e-05
9.96681e-05
9.95965e-05
9.95072e-05
9.93932e-05
9.92402e-05
9.90351e-05
9.86963e-05
9.82885e-05
9.68959e-05
9.60045e-05
9.9992e-05
9.99749e-05
9.99559e-05
9.99347e-05
9.99108e-05
9.98838e-05
9.98529e-05
9.98173e-05
9.97758e-05
9.97269e-05
9.96682e-05
9.95966e-05
9.95073e-05
9.93932e-05
9.92404e-05
9.90344e-05
9.87004e-05
9.82726e-05
9.69844e-05
9.57156e-05
9.9992e-05
9.99749e-05
9.99559e-05
9.99347e-05
9.99108e-05
9.98838e-05
9.9853e-05
9.98174e-05
9.97759e-05
9.97269e-05
9.96683e-05
9.95967e-05
9.95074e-05
9.93933e-05
9.92407e-05
9.9034e-05
9.87048e-05
9.82597e-05
9.70628e-05
9.55021e-05
9.9992e-05
9.99749e-05
9.99559e-05
9.99347e-05
9.99109e-05
9.98839e-05
9.9853e-05
9.98175e-05
9.9776e-05
9.97271e-05
9.96684e-05
9.95969e-05
9.95076e-05
9.93936e-05
9.92412e-05
9.90339e-05
9.87093e-05
9.82498e-05
9.71312e-05
9.53568e-05
9.99921e-05
9.99749e-05
9.99559e-05
9.99347e-05
9.99109e-05
9.98839e-05
9.98531e-05
9.98175e-05
9.97761e-05
9.97272e-05
9.96686e-05
9.95971e-05
9.95079e-05
9.93939e-05
9.92419e-05
9.90342e-05
9.87139e-05
9.82434e-05
9.71905e-05
9.52731e-05
9.99921e-05
9.99749e-05
9.99559e-05
9.99348e-05
9.99109e-05
9.9884e-05
9.98532e-05
9.98176e-05
9.97762e-05
9.97273e-05
9.96688e-05
9.95973e-05
9.95083e-05
9.93944e-05
9.92427e-05
9.90349e-05
9.87185e-05
9.82402e-05
9.72417e-05
9.52416e-05
9.99921e-05
9.99749e-05
9.99559e-05
9.99348e-05
9.9911e-05
9.9884e-05
9.98532e-05
9.98177e-05
9.97764e-05
9.97275e-05
9.9669e-05
9.95977e-05
9.95087e-05
9.9395e-05
9.92438e-05
9.9036e-05
9.87233e-05
9.82403e-05
9.72867e-05
9.52548e-05
9.99921e-05
9.99749e-05
9.9956e-05
9.99348e-05
9.9911e-05
9.98841e-05
9.98533e-05
9.98179e-05
9.97765e-05
9.97277e-05
9.96693e-05
9.9598e-05
9.95092e-05
9.93957e-05
9.9245e-05
9.90375e-05
9.87282e-05
9.82435e-05
9.73268e-05
9.53038e-05
9.99921e-05
9.99749e-05
9.9956e-05
9.99349e-05
9.99111e-05
9.98842e-05
9.98534e-05
9.9818e-05
9.97767e-05
9.9728e-05
9.96696e-05
9.95984e-05
9.95098e-05
9.93965e-05
9.92464e-05
9.90395e-05
9.87334e-05
9.82494e-05
9.73641e-05
9.53826e-05
9.99921e-05
9.9975e-05
9.9956e-05
9.99349e-05
9.99112e-05
9.98843e-05
9.98535e-05
9.98181e-05
9.97769e-05
9.97282e-05
9.96699e-05
9.95989e-05
9.95105e-05
9.93975e-05
9.9248e-05
9.90419e-05
9.87389e-05
9.82579e-05
9.73998e-05
9.54836e-05
9.99921e-05
9.9975e-05
9.99561e-05
9.9935e-05
9.99112e-05
9.98844e-05
9.98537e-05
9.98183e-05
9.97771e-05
9.97285e-05
9.96703e-05
9.95994e-05
9.95113e-05
9.93986e-05
9.92498e-05
9.90447e-05
9.87449e-05
9.82687e-05
9.74357e-05
9.56028e-05
9.99921e-05
9.9975e-05
9.99561e-05
9.9935e-05
9.99113e-05
9.98845e-05
9.98538e-05
9.98185e-05
9.97774e-05
9.97288e-05
9.96708e-05
9.96001e-05
9.95121e-05
9.93999e-05
9.92518e-05
9.9048e-05
9.87514e-05
9.82816e-05
9.74724e-05
9.57344e-05
9.99921e-05
9.9975e-05
9.99561e-05
9.99351e-05
9.99114e-05
9.98846e-05
9.9854e-05
9.98187e-05
9.97777e-05
9.97292e-05
9.96713e-05
9.96008e-05
9.95131e-05
9.94013e-05
9.92541e-05
9.90518e-05
9.87586e-05
9.82966e-05
9.75114e-05
9.58759e-05
9.99921e-05
9.9975e-05
9.99562e-05
9.99352e-05
9.99115e-05
9.98847e-05
9.98542e-05
9.9819e-05
9.9778e-05
9.97296e-05
9.96719e-05
9.96015e-05
9.95142e-05
9.9403e-05
9.92567e-05
9.9056e-05
9.87666e-05
9.83134e-05
9.75526e-05
9.60232e-05
9.99921e-05
9.99751e-05
9.99562e-05
9.99352e-05
9.99116e-05
9.98849e-05
9.98544e-05
9.98192e-05
9.97783e-05
9.97301e-05
9.96725e-05
9.96024e-05
9.95155e-05
9.94048e-05
9.92596e-05
9.90609e-05
9.87753e-05
9.8332e-05
9.75972e-05
9.61749e-05
9.99921e-05
9.99751e-05
9.99563e-05
9.99353e-05
9.99117e-05
9.9885e-05
9.98546e-05
9.98195e-05
9.97787e-05
9.97306e-05
9.96732e-05
9.96034e-05
9.95169e-05
9.94069e-05
9.92628e-05
9.90662e-05
9.87851e-05
9.83525e-05
9.76446e-05
9.63281e-05
9.99921e-05
9.99751e-05
9.99564e-05
9.99354e-05
9.99119e-05
9.98852e-05
9.98548e-05
9.98198e-05
9.97792e-05
9.97312e-05
9.9674e-05
9.96045e-05
9.95185e-05
9.94092e-05
9.92664e-05
9.90722e-05
9.87958e-05
9.83748e-05
9.76956e-05
9.64822e-05
9.99921e-05
9.99752e-05
9.99564e-05
9.99355e-05
9.9912e-05
9.98854e-05
9.98551e-05
9.98202e-05
9.97796e-05
9.97319e-05
9.96749e-05
9.96058e-05
9.95202e-05
9.94118e-05
9.92704e-05
9.90789e-05
9.88077e-05
9.83989e-05
9.77496e-05
9.66349e-05
9.99922e-05
9.99752e-05
9.99565e-05
9.99356e-05
9.99122e-05
9.98857e-05
9.98554e-05
9.98206e-05
9.97802e-05
9.97326e-05
9.96759e-05
9.96071e-05
9.95222e-05
9.94147e-05
9.92749e-05
9.90862e-05
9.88207e-05
9.84251e-05
9.78069e-05
9.67863e-05
9.99922e-05
9.99753e-05
9.99566e-05
9.99358e-05
9.99124e-05
9.98859e-05
9.98558e-05
9.98211e-05
9.97808e-05
9.97335e-05
9.9677e-05
9.96087e-05
9.95244e-05
9.94179e-05
9.92798e-05
9.90943e-05
9.88349e-05
9.8453e-05
9.78666e-05
9.69347e-05
9.99922e-05
9.99753e-05
9.99567e-05
9.99359e-05
9.99126e-05
9.98862e-05
9.98562e-05
9.98216e-05
9.97815e-05
9.97344e-05
9.96783e-05
9.96104e-05
9.95268e-05
9.94215e-05
9.92853e-05
9.91032e-05
9.88504e-05
9.84829e-05
9.79292e-05
9.70804e-05
9.99922e-05
9.99754e-05
9.99568e-05
9.99361e-05
9.99128e-05
9.98865e-05
9.98566e-05
9.98222e-05
9.97823e-05
9.97354e-05
9.96796e-05
9.96123e-05
9.95295e-05
9.94255e-05
9.92913e-05
9.9113e-05
9.88672e-05
9.85146e-05
9.79936e-05
9.7222e-05
9.99922e-05
9.99754e-05
9.99569e-05
9.99363e-05
9.99131e-05
9.98869e-05
9.98571e-05
9.98228e-05
9.97831e-05
9.97365e-05
9.96812e-05
9.96144e-05
9.95325e-05
9.94299e-05
9.9298e-05
9.91237e-05
9.88854e-05
9.85482e-05
9.80601e-05
9.73602e-05
9.99922e-05
9.99755e-05
9.9957e-05
9.99365e-05
9.99134e-05
9.98873e-05
9.98576e-05
9.98235e-05
9.97841e-05
9.97378e-05
9.96829e-05
9.96168e-05
9.95359e-05
9.94347e-05
9.93053e-05
9.91352e-05
9.8905e-05
9.85835e-05
9.81276e-05
9.74937e-05
9.99923e-05
9.99756e-05
9.99572e-05
9.99367e-05
9.99137e-05
9.98877e-05
9.98582e-05
9.98243e-05
9.97851e-05
9.97392e-05
9.96848e-05
9.96194e-05
9.95395e-05
9.944e-05
9.93133e-05
9.91479e-05
9.89259e-05
9.86206e-05
9.81965e-05
9.76234e-05
9.99923e-05
9.99757e-05
9.99573e-05
9.99369e-05
9.9914e-05
9.98882e-05
9.98588e-05
9.98252e-05
9.97863e-05
9.97407e-05
9.96869e-05
9.96223e-05
9.95436e-05
9.94458e-05
9.9322e-05
9.91614e-05
9.89482e-05
9.86591e-05
9.82658e-05
9.77482e-05
9.99923e-05
9.99758e-05
9.99575e-05
9.99372e-05
9.99144e-05
9.98887e-05
9.98596e-05
9.98261e-05
9.97875e-05
9.97425e-05
9.96892e-05
9.96255e-05
9.9548e-05
9.94522e-05
9.93315e-05
9.91761e-05
9.89718e-05
9.86991e-05
9.83356e-05
9.78688e-05
9.99924e-05
9.99759e-05
9.99577e-05
9.99375e-05
9.99149e-05
9.98893e-05
9.98604e-05
9.98272e-05
9.9789e-05
9.97444e-05
9.96918e-05
9.96289e-05
9.95529e-05
9.94592e-05
9.93417e-05
9.91917e-05
9.89967e-05
9.87402e-05
9.84052e-05
9.79846e-05
9.99924e-05
9.9976e-05
9.99579e-05
9.99378e-05
9.99153e-05
9.989e-05
9.98613e-05
9.98284e-05
9.97905e-05
9.97464e-05
9.96946e-05
9.96328e-05
9.95582e-05
9.94667e-05
9.93528e-05
9.92085e-05
9.90229e-05
9.87826e-05
9.84747e-05
9.80961e-05
9.99924e-05
9.99761e-05
9.99582e-05
9.99382e-05
9.99159e-05
9.98907e-05
9.98622e-05
9.98297e-05
9.97923e-05
9.97488e-05
9.96977e-05
9.9637e-05
9.9564e-05
9.94749e-05
9.93647e-05
9.92261e-05
9.90502e-05
9.88257e-05
9.85433e-05
9.82028e-05
9.99925e-05
9.99763e-05
9.99584e-05
9.99386e-05
9.99164e-05
9.98915e-05
9.98633e-05
9.98311e-05
9.97942e-05
9.97513e-05
9.97011e-05
9.96416e-05
9.95703e-05
9.94838e-05
9.93774e-05
9.92449e-05
9.90786e-05
9.88696e-05
9.86114e-05
9.83054e-05
9.99925e-05
9.99764e-05
9.99587e-05
9.99391e-05
9.99171e-05
9.98924e-05
9.98645e-05
9.98327e-05
9.97963e-05
9.9754e-05
9.97047e-05
9.96465e-05
9.95771e-05
9.94933e-05
9.93909e-05
9.92646e-05
9.91079e-05
9.89139e-05
9.86782e-05
9.84034e-05
9.99926e-05
9.99766e-05
9.9959e-05
9.99395e-05
9.99178e-05
9.98934e-05
9.98658e-05
9.98344e-05
9.97985e-05
9.97571e-05
9.97088e-05
9.9652e-05
9.95845e-05
9.95034e-05
9.94053e-05
9.92853e-05
9.91381e-05
9.89586e-05
9.8744e-05
9.84974e-05
9.99926e-05
9.99768e-05
9.99594e-05
9.99401e-05
9.99186e-05
9.98944e-05
9.98672e-05
9.98363e-05
9.9801e-05
9.97604e-05
9.97131e-05
9.96578e-05
9.95924e-05
9.95143e-05
9.94204e-05
9.93067e-05
9.9169e-05
9.90033e-05
9.88082e-05
9.8587e-05
9.99927e-05
9.9977e-05
9.99598e-05
9.99407e-05
9.99194e-05
9.98956e-05
9.98688e-05
9.98384e-05
9.98038e-05
9.97639e-05
9.97179e-05
9.96641e-05
9.96008e-05
9.95258e-05
9.94363e-05
9.9329e-05
9.92006e-05
9.90481e-05
9.8871e-05
9.86727e-05
9.99928e-05
9.99772e-05
9.99602e-05
9.99413e-05
9.99203e-05
9.98969e-05
9.98705e-05
9.98407e-05
9.98067e-05
9.97678e-05
9.9723e-05
9.96708e-05
9.96098e-05
9.9538e-05
9.94529e-05
9.9352e-05
9.92325e-05
9.90925e-05
9.8932e-05
9.87543e-05
9.99929e-05
9.99775e-05
9.99606e-05
9.9942e-05
9.99213e-05
9.98983e-05
9.98723e-05
9.98431e-05
9.98099e-05
9.9772e-05
9.97284e-05
9.96781e-05
9.96194e-05
9.95508e-05
9.94703e-05
9.93756e-05
9.92648e-05
9.91365e-05
9.89913e-05
9.88321e-05
9.99929e-05
9.99778e-05
9.99611e-05
9.99428e-05
9.99224e-05
9.98998e-05
9.98743e-05
9.98457e-05
9.98134e-05
9.97765e-05
9.97343e-05
9.96857e-05
9.96295e-05
9.95642e-05
9.94882e-05
9.93997e-05
9.92972e-05
9.918e-05
9.90488e-05
9.89062e-05
9.9993e-05
9.99781e-05
9.99617e-05
9.99436e-05
9.99236e-05
9.99014e-05
9.98765e-05
9.98486e-05
9.98171e-05
9.97813e-05
9.97406e-05
9.96939e-05
9.96402e-05
9.95782e-05
9.95067e-05
9.94242e-05
9.93297e-05
9.92228e-05
9.91044e-05
9.89768e-05
9.99931e-05
9.99784e-05
9.99623e-05
9.99445e-05
9.99249e-05
9.99031e-05
9.98789e-05
9.98516e-05
9.9821e-05
9.97864e-05
9.97472e-05
9.97024e-05
9.96513e-05
9.95927e-05
9.95256e-05
9.9449e-05
9.9362e-05
9.92647e-05
9.91579e-05
9.90437e-05
9.99932e-05
9.99787e-05
9.99629e-05
9.99455e-05
9.99263e-05
9.9905e-05
9.98814e-05
9.98549e-05
9.98253e-05
9.97919e-05
9.97542e-05
9.97115e-05
9.96629e-05
9.96077e-05
9.95449e-05
9.94739e-05
9.93942e-05
9.93058e-05
9.92096e-05
9.91074e-05
9.99933e-05
9.99791e-05
9.99636e-05
9.99466e-05
9.99278e-05
9.99071e-05
9.9884e-05
9.98584e-05
9.98298e-05
9.97977e-05
9.97616e-05
9.97209e-05
9.96749e-05
9.9623e-05
9.95646e-05
9.94989e-05
9.94259e-05
9.93457e-05
9.92592e-05
9.91678e-05
9.99935e-05
9.99795e-05
9.99643e-05
9.99477e-05
9.99294e-05
9.99092e-05
9.98869e-05
9.98621e-05
9.98346e-05
9.98038e-05
9.97693e-05
9.97307e-05
9.96873e-05
9.96387e-05
9.95844e-05
9.95239e-05
9.94573e-05
9.93846e-05
9.93068e-05
9.92251e-05
9.99936e-05
9.998e-05
9.99651e-05
9.99489e-05
9.99311e-05
9.99115e-05
9.989e-05
9.98661e-05
9.98396e-05
9.98101e-05
9.97773e-05
9.97408e-05
9.97e-05
9.96547e-05
9.96043e-05
9.95488e-05
9.9488e-05
9.94223e-05
9.93523e-05
9.92793e-05
9.99937e-05
9.99804e-05
9.9966e-05
9.99502e-05
9.99329e-05
9.9914e-05
9.98932e-05
9.98702e-05
9.98448e-05
9.98168e-05
9.97857e-05
9.97512e-05
9.9713e-05
9.96708e-05
9.96243e-05
9.95733e-05
9.9518e-05
9.94587e-05
9.93959e-05
9.93306e-05
9.99939e-05
9.99809e-05
9.99669e-05
9.99516e-05
9.99349e-05
9.99166e-05
9.98965e-05
9.98745e-05
9.98503e-05
9.98236e-05
9.97942e-05
9.97618e-05
9.97261e-05
9.9687e-05
9.96441e-05
9.95975e-05
9.95473e-05
9.94938e-05
9.94374e-05
9.93791e-05
9.99941e-05
9.99814e-05
9.99678e-05
9.9953e-05
9.99369e-05
9.99193e-05
9.99001e-05
9.9879e-05
9.9856e-05
9.98307e-05
9.9803e-05
9.97727e-05
9.97394e-05
9.97032e-05
9.96638e-05
9.96213e-05
9.95758e-05
9.95275e-05
9.9477e-05
9.94248e-05
9.99942e-05
9.9982e-05
9.99688e-05
9.99545e-05
9.9939e-05
9.99221e-05
9.99037e-05
9.98837e-05
9.98619e-05
9.9838e-05
9.9812e-05
9.97836e-05
9.97528e-05
9.97193e-05
9.96832e-05
9.96445e-05
9.96033e-05
9.95598e-05
9.95145e-05
9.9468e-05
9.99944e-05
9.99826e-05
9.99698e-05
9.99561e-05
9.99412e-05
9.99251e-05
9.99075e-05
9.98885e-05
9.98679e-05
9.98454e-05
9.98211e-05
9.97946e-05
9.97661e-05
9.97353e-05
9.97023e-05
9.96671e-05
9.96298e-05
9.95907e-05
9.95502e-05
9.95086e-05
9.99946e-05
9.99832e-05
9.99709e-05
9.99577e-05
9.99435e-05
9.99281e-05
9.99115e-05
9.98935e-05
9.9874e-05
9.98529e-05
9.98302e-05
9.98057e-05
9.97793e-05
9.97511e-05
9.9721e-05
9.9689e-05
9.96554e-05
9.96202e-05
9.95839e-05
9.95468e-05
9.99948e-05
9.99838e-05
9.99721e-05
9.99594e-05
9.99458e-05
9.99312e-05
9.99155e-05
9.98985e-05
9.98802e-05
9.98605e-05
9.98394e-05
9.98167e-05
9.97924e-05
9.97665e-05
9.97391e-05
9.97102e-05
9.96798e-05
9.96483e-05
9.96158e-05
9.95826e-05
9.9995e-05
9.99845e-05
9.99732e-05
9.99612e-05
9.99483e-05
9.99344e-05
9.99195e-05
9.99036e-05
9.98864e-05
9.98681e-05
9.98485e-05
9.98276e-05
9.98053e-05
9.97816e-05
9.97567e-05
9.97305e-05
9.97032e-05
9.96749e-05
9.96458e-05
9.96162e-05
9.99952e-05
9.99851e-05
9.99744e-05
9.9963e-05
9.99507e-05
9.99376e-05
9.99236e-05
9.99087e-05
9.98927e-05
9.98757e-05
9.98575e-05
9.98383e-05
9.98179e-05
9.97963e-05
9.97737e-05
9.975e-05
9.97255e-05
9.97001e-05
9.96741e-05
9.96477e-05
9.99954e-05
9.99858e-05
9.99756e-05
9.99648e-05
9.99532e-05
9.99409e-05
9.99278e-05
9.99138e-05
9.98989e-05
9.98832e-05
9.98664e-05
9.98487e-05
9.98301e-05
9.98105e-05
9.979e-05
9.97687e-05
9.97466e-05
9.97239e-05
9.97006e-05
9.96771e-05
9.99956e-05
9.99865e-05
9.99769e-05
9.99666e-05
9.99557e-05
9.99442e-05
9.99319e-05
9.99189e-05
9.99051e-05
9.98905e-05
9.98751e-05
9.9859e-05
9.9842e-05
9.98242e-05
9.98056e-05
9.97864e-05
9.97666e-05
9.97462e-05
9.97255e-05
9.97045e-05
9.99959e-05
9.99872e-05
9.99781e-05
9.99685e-05
9.99582e-05
9.99474e-05
9.9936e-05
9.99239e-05
9.99112e-05
9.98978e-05
9.98836e-05
9.98689e-05
9.98534e-05
9.98373e-05
9.98205e-05
9.98032e-05
9.97855e-05
9.97672e-05
9.97487e-05
9.973e-05
9.99961e-05
9.99879e-05
9.99794e-05
9.99703e-05
9.99607e-05
9.99507e-05
9.994e-05
9.99289e-05
9.99171e-05
9.99048e-05
9.98919e-05
9.98784e-05
9.98643e-05
9.98498e-05
9.98347e-05
9.98191e-05
9.98032e-05
9.97869e-05
9.97704e-05
9.97536e-05
9.99963e-05
9.99886e-05
9.99806e-05
9.99721e-05
9.99632e-05
9.99538e-05
9.9944e-05
9.99337e-05
9.99229e-05
9.99116e-05
9.98998e-05
9.98875e-05
9.98748e-05
9.98616e-05
9.98481e-05
9.98341e-05
9.98198e-05
9.98053e-05
9.97905e-05
9.97756e-05
9.99965e-05
9.99893e-05
9.99818e-05
9.99739e-05
9.99656e-05
9.99569e-05
9.99479e-05
9.99384e-05
9.99285e-05
9.99181e-05
9.99074e-05
9.98963e-05
9.98848e-05
9.98729e-05
9.98607e-05
9.98481e-05
9.98354e-05
9.98224e-05
9.98092e-05
9.97959e-05
9.99967e-05
9.999e-05
9.9983e-05
9.99757e-05
9.9968e-05
9.996e-05
9.99516e-05
9.99429e-05
9.99338e-05
9.99244e-05
9.99147e-05
9.99046e-05
9.98942e-05
9.98835e-05
9.98725e-05
9.98613e-05
9.98498e-05
9.98382e-05
9.98265e-05
9.98146e-05
9.9997e-05
9.99907e-05
9.99842e-05
9.99774e-05
9.99703e-05
9.99629e-05
9.99552e-05
9.99472e-05
9.9939e-05
9.99304e-05
9.99216e-05
9.99124e-05
9.99031e-05
9.98934e-05
9.98836e-05
9.98735e-05
9.98633e-05
9.98529e-05
9.98425e-05
9.98319e-05
9.99972e-05
9.99913e-05
9.99853e-05
9.9979e-05
9.99725e-05
9.99657e-05
9.99587e-05
9.99514e-05
9.99438e-05
9.99361e-05
9.99281e-05
9.99198e-05
9.99114e-05
9.99027e-05
9.98939e-05
9.98849e-05
9.98758e-05
9.98665e-05
9.98572e-05
9.98478e-05
9.99974e-05
9.9992e-05
9.99864e-05
9.99806e-05
9.99746e-05
9.99684e-05
9.9962e-05
9.99553e-05
9.99485e-05
9.99414e-05
9.99342e-05
9.99268e-05
9.99192e-05
9.99114e-05
9.99035e-05
9.98955e-05
9.98873e-05
9.98791e-05
9.98707e-05
9.98624e-05
9.99976e-05
9.99926e-05
9.99875e-05
9.99821e-05
9.99766e-05
9.9971e-05
9.99651e-05
9.99591e-05
9.99529e-05
9.99465e-05
9.994e-05
9.99333e-05
9.99264e-05
9.99195e-05
9.99124e-05
9.99052e-05
9.98979e-05
9.98906e-05
9.98832e-05
9.98757e-05
9.99978e-05
9.99932e-05
9.99885e-05
9.99836e-05
9.99786e-05
9.99734e-05
9.99681e-05
9.99626e-05
9.9957e-05
9.99513e-05
9.99454e-05
9.99394e-05
9.99332e-05
9.9927e-05
9.99207e-05
9.99143e-05
9.99078e-05
9.99012e-05
9.98946e-05
9.9888e-05
9.9998e-05
9.99939e-05
9.99896e-05
9.99852e-05
9.99806e-05
9.99759e-05
9.99711e-05
9.99661e-05
9.9961e-05
9.99558e-05
9.99505e-05
9.99451e-05
9.99397e-05
9.99341e-05
9.99284e-05
9.99227e-05
9.99169e-05
9.99111e-05
9.99052e-05
9.98993e-05
9.99983e-05
9.99946e-05
9.99908e-05
9.99868e-05
9.99827e-05
9.99785e-05
9.99741e-05
9.99696e-05
9.99651e-05
9.99604e-05
9.99556e-05
9.99508e-05
9.99459e-05
9.99409e-05
9.99358e-05
9.99307e-05
9.99256e-05
9.99204e-05
9.99152e-05
9.99099e-05
9.99986e-05
9.99956e-05
9.99923e-05
9.99888e-05
9.99852e-05
9.99814e-05
9.99775e-05
9.99735e-05
9.99694e-05
9.99652e-05
9.9961e-05
9.99566e-05
9.99523e-05
9.99478e-05
9.99433e-05
9.99387e-05
9.99342e-05
9.99295e-05
9.99249e-05
9.99202e-05
9.99989e-05
9.99965e-05
9.99938e-05
9.9991e-05
9.9988e-05
9.99847e-05
9.99814e-05
9.99779e-05
9.99743e-05
9.99706e-05
9.99668e-05
9.9963e-05
9.9959e-05
9.99551e-05
9.99511e-05
9.9947e-05
9.9943e-05
9.99389e-05
9.99347e-05
9.99306e-05
9.99991e-05
9.99973e-05
9.99952e-05
9.9993e-05
9.99906e-05
9.99881e-05
9.99854e-05
9.99825e-05
9.99795e-05
9.99763e-05
9.99731e-05
9.99698e-05
9.99664e-05
9.9963e-05
9.99595e-05
9.99559e-05
9.99524e-05
9.99488e-05
9.99451e-05
9.99415e-05
9.99993e-05
9.99979e-05
9.99964e-05
9.99947e-05
9.99929e-05
9.9991e-05
9.99889e-05
9.99867e-05
9.99844e-05
9.99819e-05
9.99794e-05
9.99767e-05
9.9974e-05
9.99712e-05
9.99683e-05
9.99653e-05
9.99623e-05
9.99593e-05
9.99563e-05
9.99532e-05
9.99995e-05
9.99984e-05
9.99972e-05
9.9996e-05
9.99947e-05
9.99932e-05
9.99917e-05
9.99901e-05
9.99884e-05
9.99866e-05
9.99847e-05
9.99827e-05
9.99807e-05
9.99785e-05
9.99764e-05
9.99741e-05
9.99718e-05
9.99695e-05
9.99672e-05
9.99648e-05
9.99996e-05
9.99988e-05
9.99979e-05
9.9997e-05
9.9996e-05
9.99949e-05
9.99938e-05
9.99926e-05
9.99914e-05
9.99901e-05
9.99887e-05
9.99873e-05
9.99858e-05
9.99843e-05
9.99827e-05
9.99811e-05
9.99795e-05
9.99779e-05
9.99762e-05
9.99745e-05
9.99997e-05
9.99991e-05
9.99984e-05
9.99977e-05
9.9997e-05
9.99962e-05
9.99954e-05
9.99945e-05
9.99936e-05
9.99927e-05
9.99917e-05
9.99907e-05
9.99896e-05
9.99885e-05
9.99874e-05
9.99863e-05
9.99852e-05
9.9984e-05
9.99828e-05
9.99816e-05
9.99998e-05
9.99993e-05
9.99988e-05
9.99983e-05
9.99977e-05
9.99972e-05
9.99966e-05
9.99959e-05
9.99953e-05
9.99946e-05
9.99939e-05
9.99932e-05
9.99924e-05
9.99916e-05
9.99908e-05
9.999e-05
9.99892e-05
9.99884e-05
9.99876e-05
9.99867e-05
9.99998e-05
9.99995e-05
9.99991e-05
9.99987e-05
9.99983e-05
9.99979e-05
9.99975e-05
9.9997e-05
9.99965e-05
9.9996e-05
9.99955e-05
9.9995e-05
9.99945e-05
9.99939e-05
9.99933e-05
9.99928e-05
9.99922e-05
9.99916e-05
9.9991e-05
9.99904e-05
9.99999e-05
9.99996e-05
9.99994e-05
9.99991e-05
9.99988e-05
9.99985e-05
9.99982e-05
9.99978e-05
9.99975e-05
9.99971e-05
9.99968e-05
9.99964e-05
9.9996e-05
9.99956e-05
9.99952e-05
9.99948e-05
9.99944e-05
9.9994e-05
9.99936e-05
9.99932e-05
9.99999e-05
9.99997e-05
9.99995e-05
9.99993e-05
9.99991e-05
9.99989e-05
9.99987e-05
9.99985e-05
9.99982e-05
9.9998e-05
9.99977e-05
9.99975e-05
9.99972e-05
9.99969e-05
9.99967e-05
9.99964e-05
9.99961e-05
9.99958e-05
9.99955e-05
9.99952e-05
9.99999e-05
9.99998e-05
9.99997e-05
9.99996e-05
9.99994e-05
9.99993e-05
9.99991e-05
9.9999e-05
9.99988e-05
9.99987e-05
9.99985e-05
9.99983e-05
9.99981e-05
9.99979e-05
9.99978e-05
9.99976e-05
9.99974e-05
9.99972e-05
9.9997e-05
9.99968e-05
0.0001
9.99999e-05
9.99998e-05
9.99997e-05
9.99997e-05
9.99996e-05
9.99995e-05
9.99994e-05
9.99993e-05
9.99992e-05
9.99991e-05
9.9999e-05
9.99989e-05
9.99987e-05
9.99986e-05
9.99985e-05
9.99984e-05
9.99983e-05
9.99981e-05
9.9998e-05
0.0001
0.0001
9.99999e-05
9.99999e-05
9.99999e-05
9.99998e-05
9.99998e-05
9.99997e-05
9.99997e-05
9.99996e-05
9.99996e-05
9.99995e-05
9.99994e-05
9.99994e-05
9.99993e-05
9.99993e-05
9.99992e-05
9.99991e-05
9.99991e-05
9.9999e-05
0.0001
0.0001
0.0001
0.0001
0.0001
0.0001
0.0001
0.0001
0.0001
0.0001
0.0001
9.99999e-05
9.99999e-05
9.99999e-05
9.99999e-05
9.99999e-05
9.99998e-05
9.99998e-05
9.99998e-05
9.99998e-05
0.0001
0.0001
0.0001
0.0001
0.0001
0.0001
0.0001
0.0001
0.0001
0.0001
0.0001
0.0001
0.0001
0.0001
0.0001
0.0001
0.0001
0.0001
0.0001
0.0001
0.0001
0.0001
0.0001
0.0001
0.0001
0.0001
0.0001
0.0001
0.0001
0.000100001
0.000100001
0.000100001
0.000100001
0.000100001
0.000100001
0.000100001
0.000100001
0.000100001
0.000100001
0.000100001
0.0001
0.0001
0.0001
0.0001
0.0001
0.0001
0.0001
0.000100001
0.000100001
0.000100001
0.000100001
0.000100001
0.000100001
0.000100001
0.000100001
0.000100001
0.000100001
0.000100001
0.000100001
0.000100001
0.0001
0.0001
0.0001
0.0001
0.0001
0.000100001
0.000100001
0.000100001
0.000100001
0.000100001
0.000100001
0.000100001
0.000100001
0.000100001
0.000100001
0.000100001
0.000100002
0.000100002
0.000100002
0.000100002
5.04757e-06
2.63042e-11
2.49592e-06
4.76195e-06
4.9779e-06
4.9448e-06
4.8706e-06
4.80172e-06
4.74105e-06
4.68859e-06
4.64318e-06
4.60333e-06
4.56774e-06
4.53545e-06
4.50586e-06
4.47844e-06
4.45284e-06
4.42881e-06
4.40617e-06
4.38476e-06
4.36447e-06
4.34522e-06
4.32691e-06
4.30947e-06
4.29284e-06
4.27694e-06
4.26173e-06
4.24716e-06
4.23317e-06
4.21973e-06
4.20679e-06
4.19432e-06
4.1823e-06
4.17069e-06
4.15946e-06
4.1486e-06
4.1381e-06
4.12793e-06
4.1181e-06
4.1086e-06
4.09943e-06
4.0906e-06
4.08207e-06
4.07383e-06
4.06582e-06
4.05793e-06
4.04998e-06
4.04174e-06
4.03301e-06
4.02347e-06
4.01272e-06
4.00048e-06
3.98658e-06
3.97091e-06
3.95336e-06
3.93414e-06
3.91364e-06
3.89234e-06
3.87073e-06
3.84941e-06
3.82884e-06
3.80942e-06
3.79138e-06
3.77482e-06
3.75967e-06
3.74583e-06
3.73326e-06
3.72178e-06
3.71122e-06
3.70143e-06
3.69233e-06
3.68381e-06
3.67575e-06
3.66804e-06
3.66075e-06
3.65363e-06
3.64707e-06
3.63979e-06
3.63488e-06
3.62621e-06
1.29136e-05
1.48635e-06
6.70092e-07
4.2155e-06
5.24755e-06
5.40375e-06
5.42817e-06
5.44987e-06
5.46543e-06
5.47455e-06
5.47947e-06
5.48178e-06
5.48236e-06
5.48161e-06
5.47987e-06
5.47723e-06
5.47373e-06
5.46945e-06
5.46449e-06
5.45897e-06
5.453e-06
5.44668e-06
5.44011e-06
5.43335e-06
5.42647e-06
5.41951e-06
5.41249e-06
5.40545e-06
5.39842e-06
5.3914e-06
5.38442e-06
5.37748e-06
5.37059e-06
5.36375e-06
5.35697e-06
5.35023e-06
5.34352e-06
5.33681e-06
5.33004e-06
5.32313e-06
5.31597e-06
5.30841e-06
5.30029e-06
5.29144e-06
5.28175e-06
5.27126e-06
5.26012e-06
5.2487e-06
5.23766e-06
5.22818e-06
5.22151e-06
5.21907e-06
5.22214e-06
5.23209e-06
5.24905e-06
5.27228e-06
5.29992e-06
5.3296e-06
5.35858e-06
5.38463e-06
5.40632e-06
5.42306e-06
5.43495e-06
5.44256e-06
5.44666e-06
5.44782e-06
5.44682e-06
5.44426e-06
5.4406e-06
5.43614e-06
5.4312e-06
5.42598e-06
5.42062e-06
5.41514e-06
5.40964e-06
5.40425e-06
5.39885e-06
5.39356e-06
5.38897e-06
5.3821e-06
2.2722e-05
6.12854e-06
4.15812e-06
5.42128e-06
6.584e-06
7.15211e-06
7.41907e-06
7.59438e-06
7.7364e-06
7.85761e-06
7.96212e-06
8.05301e-06
8.1328e-06
8.20359e-06
8.26688e-06
8.32354e-06
8.37409e-06
8.4191e-06
8.45915e-06
8.49478e-06
8.52648e-06
8.55474e-06
8.57998e-06
8.60256e-06
8.62279e-06
8.64093e-06
8.6572e-06
8.67181e-06
8.68494e-06
8.69674e-06
8.70731e-06
8.71679e-06
8.72528e-06
8.73286e-06
8.73959e-06
8.74554e-06
8.75074e-06
8.75524e-06
8.75903e-06
8.76211e-06
8.76444e-06
8.76594e-06
8.76657e-06
8.76622e-06
8.76486e-06
8.76258e-06
8.75953e-06
8.75603e-06
8.75263e-06
8.75021e-06
8.74974e-06
8.75232e-06
8.75893e-06
8.7706e-06
8.78759e-06
8.80949e-06
8.8351e-06
8.86277e-06
8.89049e-06
8.91648e-06
8.93946e-06
8.9587e-06
8.97406e-06
8.98576e-06
8.99431e-06
9.0001e-06
9.00372e-06
9.00564e-06
9.00628e-06
9.00592e-06
9.00483e-06
9.00324e-06
9.00126e-06
8.99899e-06
8.99648e-06
8.99396e-06
8.99107e-06
8.98841e-06
8.98637e-06
8.98035e-06
3.12922e-05
1.18612e-05
7.27368e-06
7.0707e-06
7.79094e-06
8.4488e-06
8.89228e-06
9.20777e-06
9.46167e-06
9.68085e-06
9.87475e-06
1.00481e-05
1.02046e-05
1.03472e-05
1.04779e-05
1.05978e-05
1.07076e-05
1.0808e-05
1.08998e-05
1.09838e-05
1.10608e-05
1.11314e-05
1.11965e-05
1.12564e-05
1.13119e-05
1.13633e-05
1.1411e-05
1.14553e-05
1.14966e-05
1.15351e-05
1.15711e-05
1.16047e-05
1.16363e-05
1.16658e-05
1.16934e-05
1.17194e-05
1.17437e-05
1.17664e-05
1.17877e-05
1.18076e-05
1.18261e-05
1.18434e-05
1.18592e-05
1.18738e-05
1.18872e-05
1.18993e-05
1.19104e-05
1.19206e-05
1.19302e-05
1.19398e-05
1.19498e-05
1.19608e-05
1.19734e-05
1.19881e-05
1.2005e-05
1.20241e-05
1.20446e-05
1.20659e-05
1.2087e-05
1.2107e-05
1.21253e-05
1.21415e-05
1.21555e-05
1.21675e-05
1.21775e-05
1.21859e-05
1.21929e-05
1.21988e-05
1.22037e-05
1.22079e-05
1.22114e-05
1.22145e-05
1.22171e-05
1.22194e-05
1.22213e-05
1.22232e-05
1.22243e-05
1.22262e-05
1.22269e-05
1.22271e-05
3.88068e-05
1.75674e-05
1.12687e-05
9.24461e-06
9.19921e-06
9.63203e-06
1.00872e-05
1.04768e-05
1.08114e-05
1.11084e-05
1.13774e-05
1.16236e-05
1.18513e-05
1.20634e-05
1.22618e-05
1.24472e-05
1.26197e-05
1.27801e-05
1.29291e-05
1.30674e-05
1.31959e-05
1.33155e-05
1.34272e-05
1.35315e-05
1.36291e-05
1.37208e-05
1.38069e-05
1.3888e-05
1.39646e-05
1.40369e-05
1.41052e-05
1.417e-05
1.42314e-05
1.42897e-05
1.4345e-05
1.43976e-05
1.44475e-05
1.44951e-05
1.45403e-05
1.45833e-05
1.46242e-05
1.46631e-05
1.47001e-05
1.47352e-05
1.47685e-05
1.48002e-05
1.48303e-05
1.48589e-05
1.48863e-05
1.49128e-05
1.49385e-05
1.49638e-05
1.49889e-05
1.50141e-05
1.50396e-05
1.50651e-05
1.50907e-05
1.51158e-05
1.51402e-05
1.51635e-05
1.51856e-05
1.52062e-05
1.52254e-05
1.52432e-05
1.52598e-05
1.52753e-05
1.52898e-05
1.53034e-05
1.53162e-05
1.53282e-05
1.53397e-05
1.53506e-05
1.53609e-05
1.53708e-05
1.53801e-05
1.53893e-05
1.53974e-05
1.54065e-05
1.54127e-05
1.54236e-05
4.54857e-05
2.3282e-05
1.55598e-05
1.2456e-05
1.10477e-05
1.0974e-05
1.12526e-05
1.16029e-05
1.19524e-05
1.22853e-05
1.25992e-05
1.28958e-05
1.31783e-05
1.34485e-05
1.37068e-05
1.39525e-05
1.4185e-05
1.44042e-05
1.46105e-05
1.48043e-05
1.49864e-05
1.51577e-05
1.53189e-05
1.5471e-05
1.56146e-05
1.57505e-05
1.58792e-05
1.60013e-05
1.61174e-05
1.62278e-05
1.6333e-05
1.64334e-05
1.65292e-05
1.66208e-05
1.67084e-05
1.67922e-05
1.68725e-05
1.69493e-05
1.7023e-05
1.70936e-05
1.71613e-05
1.72262e-05
1.72885e-05
1.73482e-05
1.74056e-05
1.74606e-05
1.75135e-05
1.75643e-05
1.76133e-05
1.76605e-05
1.77061e-05
1.77503e-05
1.77932e-05
1.78351e-05
1.78759e-05
1.79156e-05
1.79543e-05
1.79918e-05
1.8028e-05
1.80628e-05
1.80962e-05
1.81283e-05
1.8159e-05
1.81886e-05
1.8217e-05
1.82443e-05
1.82706e-05
1.8296e-05
1.83205e-05
1.83441e-05
1.8367e-05
1.83891e-05