/*--------------------------------*- C++ -*----------------------------------*\
| =========                 |                                                 |
| \\      /  F ield         | OpenFOAM: The Open Source CFD Toolbox           |
|  \\    /   O peration     | Version:  v1912                                 |
|   \\  /    A nd           | Website:  www.openfoam.com                      |
|    \\/     M anipulation  |                                                 |
\*---------------------------------------------------------------------------*/
FoamFile
{
    version     2.0;
    format      ascii;
    class       volScalarField;
    location    "100";
    object      nuTilda;
}
// * * * * * * * * * * * * * * * * * * * * * * * * * * * * * * * * * * * * * //

dimensions      [0 2 -1 0 0 0 0];


internalField   nonuniform List<scalar> 
10000
(
9.9992e-05
9.99748e-05
9.99558e-05
9.99345e-05
9.99106e-05
9.98836e-05
9.98527e-05
9.98171e-05
9.97757e-05
9.97268e-05
9.96684e-05
9.95976e-05
9.95095e-05
9.93978e-05
9.92462e-05
9.90521e-05
9.86749e-05
9.84873e-05
9.58307e-05
0.000101347
9.9992e-05
9.99748e-05
9.99558e-05
9.99345e-05
9.99106e-05
9.98836e-05
9.98527e-05
9.98171e-05
9.97757e-05
9.97268e-05
9.96684e-05
9.95975e-05
9.95094e-05
9.93977e-05
9.92461e-05
9.90519e-05
9.8675e-05
9.84857e-05
9.58358e-05
0.000101784
9.9992e-05
9.99748e-05
9.99558e-05
9.99345e-05
9.99106e-05
9.98836e-05
9.98527e-05
9.98171e-05
9.97757e-05
9.97268e-05
9.96684e-05
9.95975e-05
9.95093e-05
9.93975e-05
9.92458e-05
9.90514e-05
9.86749e-05
9.84821e-05
9.58505e-05
0.000101932
9.9992e-05
9.99748e-05
9.99558e-05
9.99345e-05
9.99107e-05
9.98836e-05
9.98527e-05
9.98171e-05
9.97757e-05
9.97268e-05
9.96684e-05
9.95974e-05
9.95091e-05
9.93972e-05
9.92454e-05
9.90506e-05
9.86749e-05
9.84763e-05
9.58784e-05
0.000101831
9.9992e-05
9.99748e-05
9.99558e-05
9.99345e-05
9.99107e-05
9.98836e-05
9.98527e-05
9.98171e-05
9.97757e-05
9.97268e-05
9.96683e-05
9.95973e-05
9.95089e-05
9.93969e-05
9.92449e-05
9.90496e-05
9.8675e-05
9.84679e-05
9.59215e-05
0.00010153
9.9992e-05
9.99748e-05
9.99558e-05
9.99345e-05
9.99107e-05
9.98836e-05
9.98527e-05
9.98171e-05
9.97757e-05
9.97268e-05
9.96683e-05
9.95972e-05
9.95087e-05
9.93965e-05
9.92442e-05
9.90484e-05
9.86753e-05
9.84571e-05
9.59807e-05
0.000101076
9.9992e-05
9.99748e-05
9.99558e-05
9.99346e-05
9.99107e-05
9.98836e-05
9.98527e-05
9.98171e-05
9.97757e-05
9.97267e-05
9.96682e-05
9.9597e-05
9.95085e-05
9.9396e-05
9.92436e-05
9.90469e-05
9.86759e-05
9.84436e-05
9.60556e-05
0.000100513
9.9992e-05
9.99748e-05
9.99558e-05
9.99346e-05
9.99107e-05
9.98836e-05
9.98527e-05
9.98171e-05
9.97756e-05
9.97267e-05
9.96681e-05
9.95969e-05
9.95082e-05
9.93955e-05
9.92429e-05
9.90454e-05
9.86769e-05
9.84277e-05
9.61445e-05
9.98805e-05
9.9992e-05
9.99748e-05
9.99558e-05
9.99346e-05
9.99107e-05
9.98836e-05
9.98527e-05
9.98171e-05
9.97756e-05
9.97267e-05
9.96681e-05
9.95968e-05
9.95079e-05
9.9395e-05
9.92422e-05
9.90438e-05
9.86783e-05
9.84097e-05
9.62449e-05
9.92178e-05
9.9992e-05
9.99748e-05
9.99558e-05
9.99346e-05
9.99107e-05
9.98836e-05
9.98528e-05
9.98171e-05
9.97756e-05
9.97267e-05
9.9668e-05
9.95967e-05
9.95077e-05
9.93946e-05
9.92416e-05
9.90421e-05
9.86802e-05
9.83899e-05
9.63535e-05
9.85556e-05
9.9992e-05
9.99748e-05
9.99558e-05
9.99346e-05
9.99107e-05
9.98837e-05
9.98528e-05
9.98172e-05
9.97757e-05
9.97267e-05
9.9668e-05
9.95966e-05
9.95075e-05
9.93941e-05
9.92411e-05
9.90405e-05
9.86826e-05
9.8369e-05
9.64667e-05
9.7922e-05
9.9992e-05
9.99748e-05
9.99558e-05
9.99346e-05
9.99107e-05
9.98837e-05
9.98528e-05
9.98172e-05
9.97757e-05
9.97267e-05
9.9668e-05
9.95965e-05
9.95074e-05
9.93938e-05
9.92406e-05
9.90389e-05
9.86854e-05
9.83477e-05
9.65807e-05
9.73371e-05
9.9992e-05
9.99749e-05
9.99558e-05
9.99346e-05
9.99107e-05
9.98837e-05
9.98528e-05
9.98172e-05
9.97757e-05
9.97267e-05
9.9668e-05
9.95965e-05
9.95073e-05
9.93935e-05
9.92403e-05
9.90374e-05
9.86887e-05
9.83267e-05
9.66922e-05
9.68174e-05
9.99921e-05
9.99749e-05
9.99558e-05
9.99346e-05
9.99108e-05
9.98837e-05
9.98528e-05
9.98172e-05
9.97757e-05
9.97267e-05
9.9668e-05
9.95965e-05
9.95072e-05
9.93933e-05
9.92402e-05
9.90362e-05
9.86923e-05
9.83067e-05
9.6798e-05
9.63714e-05
9.99921e-05
9.99749e-05
9.99559e-05
9.99346e-05
9.99108e-05
9.98838e-05
9.98529e-05
9.98173e-05
9.97758e-05
9.97268e-05
9.96681e-05
9.95965e-05
9.95072e-05
9.93932e-05
9.92402e-05
9.90352e-05
9.86963e-05
9.82885e-05
9.68959e-05
9.60045e-05
9.99921e-05
9.99749e-05
9.99559e-05
9.99347e-05
9.99108e-05
9.98838e-05
9.98529e-05
9.98173e-05
9.97759e-05
9.97269e-05
9.96682e-05
9.95966e-05
9.95073e-05
9.93932e-05
9.92404e-05
9.90344e-05
9.87005e-05
9.82726e-05
9.69844e-05
9.57156e-05
9.99921e-05
9.99749e-05
9.99559e-05
9.99347e-05
9.99108e-05
9.98838e-05
9.9853e-05
9.98174e-05
9.97759e-05
9.9727e-05
9.96683e-05
9.95967e-05
9.95074e-05
9.93934e-05
9.92407e-05
9.9034e-05
9.87048e-05
9.82597e-05
9.70629e-05
9.55021e-05
9.99921e-05
9.99749e-05
9.99559e-05
9.99347e-05
9.99109e-05
9.98839e-05
9.9853e-05
9.98175e-05
9.9776e-05
9.97271e-05
9.96684e-05
9.95969e-05
9.95077e-05
9.93936e-05
9.92412e-05
9.90339e-05
9.87093e-05
9.82499e-05
9.71313e-05
9.53568e-05
9.99921e-05
9.99749e-05
9.99559e-05
9.99347e-05
9.99109e-05
9.98839e-05
9.98531e-05
9.98176e-05
9.97761e-05
9.97272e-05
9.96686e-05
9.95971e-05
9.95079e-05
9.93939e-05
9.92419e-05
9.90342e-05
9.87139e-05
9.82434e-05
9.71906e-05
9.52731e-05
9.99921e-05
9.99749e-05
9.99559e-05
9.99348e-05
9.9911e-05
9.9884e-05
9.98532e-05
9.98176e-05
9.97762e-05
9.97274e-05
9.96688e-05
9.95974e-05
9.95083e-05
9.93944e-05
9.92428e-05
9.90349e-05
9.87185e-05
9.82402e-05
9.72418e-05
9.52416e-05
9.99921e-05
9.99749e-05
9.9956e-05
9.99348e-05
9.9911e-05
9.9884e-05
9.98532e-05
9.98177e-05
9.97764e-05
9.97275e-05
9.9669e-05
9.95977e-05
9.95087e-05
9.9395e-05
9.92438e-05
9.9036e-05
9.87233e-05
9.82404e-05
9.72867e-05
9.52549e-05
9.99921e-05
9.99749e-05
9.9956e-05
9.99348e-05
9.99111e-05
9.98841e-05
9.98533e-05
9.98179e-05
9.97765e-05
9.97277e-05
9.96693e-05
9.9598e-05
9.95092e-05
9.93957e-05
9.9245e-05
9.90375e-05
9.87282e-05
9.82435e-05
9.73268e-05
9.53039e-05
9.99921e-05
9.9975e-05
9.9956e-05
9.99349e-05
9.99111e-05
9.98842e-05
9.98534e-05
9.9818e-05
9.97767e-05
9.9728e-05
9.96696e-05
9.95984e-05
9.95098e-05
9.93965e-05
9.92464e-05
9.90395e-05
9.87334e-05
9.82494e-05
9.73641e-05
9.53826e-05
9.99921e-05
9.9975e-05
9.9956e-05
9.99349e-05
9.99112e-05
9.98843e-05
9.98536e-05
9.98182e-05
9.97769e-05
9.97282e-05
9.96699e-05
9.95989e-05
9.95105e-05
9.93975e-05
9.9248e-05
9.90419e-05
9.8739e-05
9.82579e-05
9.73998e-05
9.54836e-05
9.99921e-05
9.9975e-05
9.99561e-05
9.9935e-05
9.99112e-05
9.98844e-05
9.98537e-05
9.98183e-05
9.97771e-05
9.97285e-05
9.96703e-05
9.95995e-05
9.95113e-05
9.93986e-05
9.92498e-05
9.90447e-05
9.87449e-05
9.82687e-05
9.74357e-05
9.56028e-05
9.99921e-05
9.9975e-05
9.99561e-05
9.9935e-05
9.99113e-05
9.98845e-05
9.98538e-05
9.98185e-05
9.97774e-05
9.97289e-05
9.96708e-05
9.96001e-05
9.95122e-05
9.93999e-05
9.92518e-05
9.9048e-05
9.87515e-05
9.82816e-05
9.74724e-05
9.57344e-05
9.99921e-05
9.9975e-05
9.99562e-05
9.99351e-05
9.99114e-05
9.98846e-05
9.9854e-05
9.98187e-05
9.97777e-05
9.97292e-05
9.96713e-05
9.96008e-05
9.95131e-05
9.94014e-05
9.92541e-05
9.90518e-05
9.87586e-05
9.82966e-05
9.75114e-05
9.58759e-05
9.99921e-05
9.99751e-05
9.99562e-05
9.99352e-05
9.99115e-05
9.98847e-05
9.98542e-05
9.9819e-05
9.9778e-05
9.97297e-05
9.96719e-05
9.96016e-05
9.95143e-05
9.9403e-05
9.92567e-05
9.9056e-05
9.87666e-05
9.83134e-05
9.75526e-05
9.60232e-05
9.99921e-05
9.99751e-05
9.99563e-05
9.99352e-05
9.99116e-05
9.98849e-05
9.98544e-05
9.98192e-05
9.97783e-05
9.97301e-05
9.96725e-05
9.96024e-05
9.95155e-05
9.94048e-05
9.92596e-05
9.90609e-05
9.87754e-05
9.83321e-05
9.75972e-05
9.61749e-05
9.99921e-05
9.99751e-05
9.99563e-05
9.99353e-05
9.99118e-05
9.98851e-05
9.98546e-05
9.98195e-05
9.97787e-05
9.97307e-05
9.96732e-05
9.96034e-05
9.95169e-05
9.94069e-05
9.92628e-05
9.90662e-05
9.87851e-05
9.83525e-05
9.76446e-05
9.63281e-05
9.99921e-05
9.99752e-05
9.99564e-05
9.99354e-05
9.99119e-05
9.98852e-05
9.98549e-05
9.98199e-05
9.97792e-05
9.97312e-05
9.9674e-05
9.96045e-05
9.95185e-05
9.94092e-05
9.92664e-05
9.90722e-05
9.87958e-05
9.83748e-05
9.76957e-05
9.64822e-05
9.99922e-05
9.99752e-05
9.99564e-05
9.99355e-05
9.9912e-05
9.98855e-05
9.98551e-05
9.98202e-05
9.97797e-05
9.97319e-05
9.96749e-05
9.96058e-05
9.95202e-05
9.94118e-05
9.92704e-05
9.90789e-05
9.88077e-05
9.8399e-05
9.77496e-05
9.66349e-05
9.99922e-05
9.99752e-05
9.99565e-05
9.99356e-05
9.99122e-05
9.98857e-05
9.98554e-05
9.98206e-05
9.97802e-05
9.97326e-05
9.96759e-05
9.96072e-05
9.95222e-05
9.94147e-05
9.92749e-05
9.90862e-05
9.88207e-05
9.84251e-05
9.78069e-05
9.67863e-05
9.99922e-05
9.99753e-05
9.99566e-05
9.99358e-05
9.99124e-05
9.98859e-05
9.98558e-05
9.98211e-05
9.97808e-05
9.97335e-05
9.9677e-05
9.96087e-05
9.95244e-05
9.9418e-05
9.92798e-05
9.90943e-05
9.88349e-05
9.8453e-05
9.78666e-05
9.69347e-05
9.99922e-05
9.99753e-05
9.99567e-05
9.99359e-05
9.99126e-05
9.98862e-05
9.98562e-05
9.98216e-05
9.97815e-05
9.97344e-05
9.96783e-05
9.96104e-05
9.95268e-05
9.94215e-05
9.92853e-05
9.91033e-05
9.88504e-05
9.84829e-05
9.79292e-05
9.70804e-05
9.99922e-05
9.99754e-05
9.99568e-05
9.99361e-05
9.99128e-05
9.98866e-05
9.98566e-05
9.98222e-05
9.97823e-05
9.97354e-05
9.96797e-05
9.96123e-05
9.95295e-05
9.94255e-05
9.92914e-05
9.9113e-05
9.88673e-05
9.85146e-05
9.79936e-05
9.7222e-05
9.99922e-05
9.99755e-05
9.99569e-05
9.99363e-05
9.99131e-05
9.98869e-05
9.98571e-05
9.98228e-05
9.97831e-05
9.97365e-05
9.96812e-05
9.96145e-05
9.95325e-05
9.94299e-05
9.9298e-05
9.91237e-05
9.88855e-05
9.85482e-05
9.80601e-05
9.73602e-05
9.99923e-05
9.99755e-05
9.99571e-05
9.99365e-05
9.99134e-05
9.98873e-05
9.98576e-05
9.98235e-05
9.97841e-05
9.97378e-05
9.96829e-05
9.96168e-05
9.95359e-05
9.94347e-05
9.93053e-05
9.91353e-05
9.8905e-05
9.85835e-05
9.81276e-05
9.74938e-05
9.99923e-05
9.99756e-05
9.99572e-05
9.99367e-05
9.99137e-05
9.98877e-05
9.98582e-05
9.98243e-05
9.97851e-05
9.97392e-05
9.96848e-05
9.96194e-05
9.95395e-05
9.944e-05
9.93133e-05
9.91479e-05
9.89259e-05
9.86206e-05
9.81965e-05
9.76234e-05
9.99923e-05
9.99757e-05
9.99574e-05
9.99369e-05
9.99141e-05
9.98882e-05
9.98589e-05
9.98252e-05
9.97863e-05
9.97408e-05
9.96869e-05
9.96223e-05
9.95436e-05
9.94458e-05
9.9322e-05
9.91614e-05
9.89482e-05
9.86591e-05
9.82658e-05
9.77482e-05
9.99923e-05
9.99758e-05
9.99575e-05
9.99372e-05
9.99144e-05
9.98888e-05
9.98596e-05
9.98262e-05
9.97876e-05
9.97425e-05
9.96892e-05
9.96255e-05
9.9548e-05
9.94522e-05
9.93315e-05
9.91761e-05
9.89719e-05
9.86991e-05
9.83356e-05
9.78688e-05
9.99924e-05
9.99759e-05
9.99577e-05
9.99375e-05
9.99149e-05
9.98894e-05
9.98604e-05
9.98272e-05
9.9789e-05
9.97444e-05
9.96918e-05
9.9629e-05
9.95529e-05
9.94592e-05
9.93417e-05
9.91917e-05
9.89967e-05
9.87403e-05
9.84052e-05
9.79846e-05
9.99924e-05
9.9976e-05
9.99579e-05
9.99378e-05
9.99153e-05
9.989e-05
9.98613e-05
9.98284e-05
9.97905e-05
9.97465e-05
9.96946e-05
9.96328e-05
9.95582e-05
9.94667e-05
9.93528e-05
9.92085e-05
9.90229e-05
9.87826e-05
9.84747e-05
9.80961e-05
9.99924e-05
9.99761e-05
9.99582e-05
9.99382e-05
9.99159e-05
9.98907e-05
9.98623e-05
9.98297e-05
9.97923e-05
9.97488e-05
9.96977e-05
9.9637e-05
9.9564e-05
9.94749e-05
9.93647e-05
9.92262e-05
9.90502e-05
9.88257e-05
9.85434e-05
9.82029e-05
9.99925e-05
9.99763e-05
9.99584e-05
9.99386e-05
9.99165e-05
9.98915e-05
9.98633e-05
9.98312e-05
9.97942e-05
9.97513e-05
9.97011e-05
9.96416e-05
9.95703e-05
9.94838e-05
9.93774e-05
9.92449e-05
9.90786e-05
9.88696e-05
9.86114e-05
9.83054e-05
9.99925e-05
9.99765e-05
9.99587e-05
9.99391e-05
9.99171e-05
9.98924e-05
9.98645e-05
9.98327e-05
9.97963e-05
9.97541e-05
9.97048e-05
9.96466e-05
9.95771e-05
9.94933e-05
9.93909e-05
9.92646e-05
9.91079e-05
9.89139e-05
9.86782e-05
9.84034e-05
9.99926e-05
9.99766e-05
9.99591e-05
9.99396e-05
9.99178e-05
9.98934e-05
9.98658e-05
9.98345e-05
9.97986e-05
9.97571e-05
9.97088e-05
9.9652e-05
9.95845e-05
9.95035e-05
9.94053e-05
9.92853e-05
9.91381e-05
9.89586e-05
9.8744e-05
9.84974e-05
9.99927e-05
9.99768e-05
9.99594e-05
9.99401e-05
9.99186e-05
9.98945e-05
9.98672e-05
9.98364e-05
9.9801e-05
9.97604e-05
9.97131e-05
9.96578e-05
9.95924e-05
9.95143e-05
9.94204e-05
9.93067e-05
9.9169e-05
9.90033e-05
9.88082e-05
9.8587e-05
9.99927e-05
9.9977e-05
9.99598e-05
9.99407e-05
9.99194e-05
9.98956e-05
9.98688e-05
9.98384e-05
9.98038e-05
9.9764e-05
9.97179e-05
9.96641e-05
9.96008e-05
9.95258e-05
9.94363e-05
9.9329e-05
9.92006e-05
9.90481e-05
9.8871e-05
9.86727e-05
9.99928e-05
9.99773e-05
9.99602e-05
9.99413e-05
9.99204e-05
9.98969e-05
9.98705e-05
9.98407e-05
9.98067e-05
9.97678e-05
9.9723e-05
9.96708e-05
9.96099e-05
9.9538e-05
9.94529e-05
9.9352e-05
9.92325e-05
9.90925e-05
9.8932e-05
9.87543e-05
9.99929e-05
9.99775e-05
9.99607e-05
9.9942e-05
9.99214e-05
9.98983e-05
9.98723e-05
9.98431e-05
9.98099e-05
9.9772e-05
9.97284e-05
9.96781e-05
9.96194e-05
9.95508e-05
9.94703e-05
9.93756e-05
9.92648e-05
9.91366e-05
9.89913e-05
9.88322e-05
9.99929e-05
9.99778e-05
9.99612e-05
9.99428e-05
9.99225e-05
9.98998e-05
9.98744e-05
9.98457e-05
9.98134e-05
9.97765e-05
9.97343e-05
9.96857e-05
9.96295e-05
9.95642e-05
9.94882e-05
9.93997e-05
9.92972e-05
9.918e-05
9.90488e-05
9.89062e-05
9.9993e-05
9.99781e-05
9.99617e-05
9.99436e-05
9.99236e-05
9.99014e-05
9.98765e-05
9.98486e-05
9.98171e-05
9.97813e-05
9.97406e-05
9.96939e-05
9.96402e-05
9.95782e-05
9.95067e-05
9.94242e-05
9.93297e-05
9.92228e-05
9.91044e-05
9.89768e-05
9.99931e-05
9.99784e-05
9.99623e-05
9.99446e-05
9.99249e-05
9.99032e-05
9.98789e-05
9.98517e-05
9.9821e-05
9.97865e-05
9.97472e-05
9.97025e-05
9.96513e-05
9.95927e-05
9.95256e-05
9.9449e-05
9.9362e-05
9.92648e-05
9.9158e-05
9.90438e-05
9.99932e-05
9.99787e-05
9.99629e-05
9.99455e-05
9.99263e-05
9.9905e-05
9.98814e-05
9.98549e-05
9.98253e-05
9.97919e-05
9.97542e-05
9.97115e-05
9.96629e-05
9.96077e-05
9.9545e-05
9.94739e-05
9.93942e-05
9.93058e-05
9.92096e-05
9.91074e-05
9.99934e-05
9.99791e-05
9.99636e-05
9.99466e-05
9.99278e-05
9.99071e-05
9.98841e-05
9.98584e-05
9.98298e-05
9.97977e-05
9.97616e-05
9.97209e-05
9.96749e-05
9.9623e-05
9.95646e-05
9.9499e-05
9.9426e-05
9.93458e-05
9.92592e-05
9.91678e-05
9.99935e-05
9.99795e-05
9.99643e-05
9.99477e-05
9.99294e-05
9.99092e-05
9.98869e-05
9.98621e-05
9.98346e-05
9.98038e-05
9.97693e-05
9.97307e-05
9.96873e-05
9.96387e-05
9.95844e-05
9.9524e-05
9.94573e-05
9.93846e-05
9.93068e-05
9.92251e-05
9.99936e-05
9.998e-05
9.99651e-05
9.99489e-05
9.99311e-05
9.99116e-05
9.989e-05
9.98661e-05
9.98396e-05
9.98101e-05
9.97773e-05
9.97408e-05
9.97e-05
9.96547e-05
9.96043e-05
9.95488e-05
9.9488e-05
9.94223e-05
9.93524e-05
9.92793e-05
9.99938e-05
9.99804e-05
9.9966e-05
9.99502e-05
9.99329e-05
9.9914e-05
9.98932e-05
9.98702e-05
9.98448e-05
9.98168e-05
9.97857e-05
9.97512e-05
9.9713e-05
9.96708e-05
9.96243e-05
9.95733e-05
9.9518e-05
9.94587e-05
9.93959e-05
9.93306e-05
9.99939e-05
9.99809e-05
9.99669e-05
9.99516e-05
9.99349e-05
9.99166e-05
9.98965e-05
9.98745e-05
9.98503e-05
9.98236e-05
9.97942e-05
9.97618e-05
9.97262e-05
9.9687e-05
9.96441e-05
9.95975e-05
9.95473e-05
9.94938e-05
9.94374e-05
9.93791e-05
9.99941e-05
9.99815e-05
9.99678e-05
9.9953e-05
9.99369e-05
9.99193e-05
9.99001e-05
9.9879e-05
9.9856e-05
9.98307e-05
9.9803e-05
9.97727e-05
9.97394e-05
9.97032e-05
9.96638e-05
9.96213e-05
9.95758e-05
9.95275e-05
9.9477e-05
9.94248e-05
9.99942e-05
9.9982e-05
9.99688e-05
9.99545e-05
9.9939e-05
9.99221e-05
9.99038e-05
9.98837e-05
9.98619e-05
9.9838e-05
9.9812e-05
9.97836e-05
9.97528e-05
9.97193e-05
9.96832e-05
9.96445e-05
9.96033e-05
9.95598e-05
9.95146e-05
9.9468e-05
9.99944e-05
9.99826e-05
9.99699e-05
9.99561e-05
9.99412e-05
9.99251e-05
9.99076e-05
9.98885e-05
9.98679e-05
9.98454e-05
9.98211e-05
9.97947e-05
9.97661e-05
9.97353e-05
9.97023e-05
9.96671e-05
9.96298e-05
9.95908e-05
9.95502e-05
9.95086e-05
9.99946e-05
9.99832e-05
9.99709e-05
9.99577e-05
9.99435e-05
9.99281e-05
9.99115e-05
9.98935e-05
9.9874e-05
9.98529e-05
9.98302e-05
9.98057e-05
9.97793e-05
9.97511e-05
9.9721e-05
9.9689e-05
9.96554e-05
9.96203e-05
9.95839e-05
9.95468e-05
9.99948e-05
9.99838e-05
9.99721e-05
9.99594e-05
9.99459e-05
9.99312e-05
9.99155e-05
9.98985e-05
9.98802e-05
9.98605e-05
9.98394e-05
9.98167e-05
9.97924e-05
9.97666e-05
9.97391e-05
9.97102e-05
9.96798e-05
9.96483e-05
9.96158e-05
9.95826e-05
9.9995e-05
9.99845e-05
9.99732e-05
9.99612e-05
9.99483e-05
9.99344e-05
9.99195e-05
9.99036e-05
9.98865e-05
9.98681e-05
9.98485e-05
9.98276e-05
9.98053e-05
9.97817e-05
9.97567e-05
9.97305e-05
9.97032e-05
9.96749e-05
9.96459e-05
9.96162e-05
9.99952e-05
9.99852e-05
9.99744e-05
9.9963e-05
9.99507e-05
9.99376e-05
9.99236e-05
9.99087e-05
9.98927e-05
9.98757e-05
9.98575e-05
9.98383e-05
9.98179e-05
9.97963e-05
9.97737e-05
9.97501e-05
9.97255e-05
9.97001e-05
9.96741e-05
9.96477e-05
9.99954e-05
9.99858e-05
9.99757e-05
9.99648e-05
9.99532e-05
9.99409e-05
9.99278e-05
9.99138e-05
9.98989e-05
9.98832e-05
9.98664e-05
9.98488e-05
9.98301e-05
9.98105e-05
9.979e-05
9.97687e-05
9.97466e-05
9.97239e-05
9.97007e-05
9.96771e-05
9.99957e-05
9.99865e-05
9.99769e-05
9.99666e-05
9.99557e-05
9.99442e-05
9.99319e-05
9.99189e-05
9.99051e-05
9.98905e-05
9.98752e-05
9.9859e-05
9.9842e-05
9.98242e-05
9.98057e-05
9.97864e-05
9.97666e-05
9.97463e-05
9.97255e-05
9.97045e-05
9.99959e-05
9.99872e-05
9.99781e-05
9.99685e-05
9.99583e-05
9.99474e-05
9.9936e-05
9.99239e-05
9.99112e-05
9.98978e-05
9.98837e-05
9.98689e-05
9.98534e-05
9.98373e-05
9.98206e-05
9.98033e-05
9.97855e-05
9.97673e-05
9.97487e-05
9.973e-05
9.99961e-05
9.99879e-05
9.99794e-05
9.99703e-05
9.99607e-05
9.99507e-05
9.994e-05
9.99289e-05
9.99171e-05
9.99048e-05
9.98919e-05
9.98784e-05
9.98644e-05
9.98498e-05
9.98347e-05
9.98192e-05
9.98032e-05
9.97869e-05
9.97704e-05
9.97536e-05
9.99963e-05
9.99887e-05
9.99806e-05
9.99721e-05
9.99632e-05
9.99538e-05
9.9944e-05
9.99337e-05
9.99229e-05
9.99116e-05
9.98998e-05
9.98876e-05
9.98748e-05
9.98617e-05
9.98481e-05
9.98341e-05
9.98198e-05
9.98053e-05
9.97905e-05
9.97756e-05
9.99965e-05
9.99893e-05
9.99818e-05
9.99739e-05
9.99656e-05
9.9957e-05
9.99479e-05
9.99384e-05
9.99285e-05
9.99182e-05
9.99074e-05
9.98963e-05
9.98848e-05
9.98729e-05
9.98607e-05
9.98482e-05
9.98354e-05
9.98224e-05
9.98092e-05
9.97959e-05
9.99968e-05
9.999e-05
9.9983e-05
9.99757e-05
9.9968e-05
9.996e-05
9.99516e-05
9.99429e-05
9.99338e-05
9.99244e-05
9.99147e-05
9.99046e-05
9.98942e-05
9.98835e-05
9.98725e-05
9.98613e-05
9.98499e-05
9.98382e-05
9.98265e-05
9.98147e-05
9.9997e-05
9.99907e-05
9.99842e-05
9.99774e-05
9.99703e-05
9.99629e-05
9.99552e-05
9.99472e-05
9.9939e-05
9.99304e-05
9.99216e-05
9.99124e-05
9.99031e-05
9.98934e-05
9.98836e-05
9.98735e-05
9.98633e-05
9.9853e-05
9.98425e-05
9.98319e-05
9.99972e-05
9.99914e-05
9.99853e-05
9.9979e-05
9.99725e-05
9.99657e-05
9.99587e-05
9.99514e-05
9.99439e-05
9.99361e-05
9.99281e-05
9.99198e-05
9.99114e-05
9.99027e-05
9.98939e-05
9.98849e-05
9.98758e-05
9.98665e-05
9.98572e-05
9.98478e-05
9.99974e-05
9.9992e-05
9.99864e-05
9.99806e-05
9.99746e-05
9.99684e-05
9.9962e-05
9.99553e-05
9.99485e-05
9.99415e-05
9.99342e-05
9.99268e-05
9.99192e-05
9.99114e-05
9.99035e-05
9.98955e-05
9.98873e-05
9.98791e-05
9.98708e-05
9.98624e-05
9.99976e-05
9.99926e-05
9.99875e-05
9.99822e-05
9.99767e-05
9.9971e-05
9.99651e-05
9.99591e-05
9.99529e-05
9.99465e-05
9.994e-05
9.99333e-05
9.99265e-05
9.99195e-05
9.99124e-05
9.99052e-05
9.9898e-05
9.98906e-05
9.98832e-05
9.98757e-05
9.99978e-05
9.99932e-05
9.99885e-05
9.99836e-05
9.99786e-05
9.99734e-05
9.99681e-05
9.99626e-05
9.9957e-05
9.99513e-05
9.99454e-05
9.99394e-05
9.99333e-05
9.9927e-05
9.99207e-05
9.99143e-05
9.99078e-05
9.99012e-05
9.98946e-05
9.9888e-05
9.9998e-05
9.99939e-05
9.99896e-05
9.99852e-05
9.99806e-05
9.99759e-05
9.99711e-05
9.99661e-05
9.9961e-05
9.99558e-05
9.99506e-05
9.99452e-05
9.99397e-05
9.99341e-05
9.99284e-05
9.99227e-05
9.99169e-05
9.99111e-05
9.99052e-05
9.98993e-05
9.99983e-05
9.99947e-05
9.99908e-05
9.99869e-05
9.99827e-05
9.99785e-05
9.99741e-05
9.99697e-05
9.99651e-05
9.99604e-05
9.99557e-05
9.99508e-05
9.99459e-05
9.99409e-05
9.99359e-05
9.99308e-05
9.99256e-05
9.99204e-05
9.99152e-05
9.99099e-05
9.99986e-05
9.99956e-05
9.99923e-05
9.99888e-05
9.99852e-05
9.99814e-05
9.99775e-05
9.99735e-05
9.99694e-05
9.99652e-05
9.9961e-05
9.99567e-05
9.99523e-05
9.99478e-05
9.99433e-05
9.99388e-05
9.99342e-05
9.99295e-05
9.99249e-05
9.99202e-05
9.99989e-05
9.99965e-05
9.99939e-05
9.9991e-05
9.9988e-05
9.99848e-05
9.99814e-05
9.99779e-05
9.99743e-05
9.99706e-05
9.99668e-05
9.9963e-05
9.99591e-05
9.99551e-05
9.99511e-05
9.99471e-05
9.9943e-05
9.99389e-05
9.99348e-05
9.99306e-05
9.99991e-05
9.99973e-05
9.99953e-05
9.9993e-05
9.99907e-05
9.99881e-05
9.99854e-05
9.99825e-05
9.99795e-05
9.99764e-05
9.99731e-05
9.99698e-05
9.99664e-05
9.9963e-05
9.99595e-05
9.99559e-05
9.99524e-05
9.99488e-05
9.99451e-05
9.99415e-05
9.99993e-05
9.99979e-05
9.99964e-05
9.99947e-05
9.99929e-05
9.9991e-05
9.99889e-05
9.99867e-05
9.99844e-05
9.99819e-05
9.99794e-05
9.99767e-05
9.9974e-05
9.99712e-05
9.99683e-05
9.99653e-05
9.99623e-05
9.99593e-05
9.99563e-05
9.99532e-05
9.99995e-05
9.99984e-05
9.99973e-05
9.9996e-05
9.99947e-05
9.99932e-05
9.99917e-05
9.99901e-05
9.99884e-05
9.99866e-05
9.99847e-05
9.99827e-05
9.99807e-05
9.99786e-05
9.99764e-05
9.99741e-05
9.99719e-05
9.99695e-05
9.99672e-05
9.99648e-05
9.99996e-05
9.99988e-05
9.99979e-05
9.9997e-05
9.9996e-05
9.99949e-05
9.99938e-05
9.99926e-05
9.99914e-05
9.99901e-05
9.99887e-05
9.99873e-05
9.99858e-05
9.99843e-05
9.99828e-05
9.99812e-05
9.99795e-05
9.99779e-05
9.99762e-05
9.99745e-05
9.99997e-05
9.99991e-05
9.99984e-05
9.99977e-05
9.9997e-05
9.99962e-05
9.99954e-05
9.99945e-05
9.99936e-05
9.99927e-05
9.99917e-05
9.99907e-05
9.99896e-05
9.99886e-05
9.99874e-05
9.99863e-05
9.99852e-05
9.9984e-05
9.99828e-05
9.99816e-05
9.99998e-05
9.99993e-05
9.99988e-05
9.99983e-05
9.99977e-05
9.99972e-05
9.99966e-05
9.99959e-05
9.99953e-05
9.99946e-05
9.99939e-05
9.99932e-05
9.99924e-05
9.99916e-05
9.99909e-05
9.99901e-05
9.99892e-05
9.99884e-05
9.99876e-05
9.99867e-05
9.99998e-05
9.99995e-05
9.99991e-05
9.99987e-05
9.99983e-05
9.99979e-05
9.99975e-05
9.9997e-05
9.99965e-05
9.9996e-05
9.99955e-05
9.9995e-05
9.99945e-05
9.99939e-05
9.99934e-05
9.99928e-05
9.99922e-05
9.99916e-05
9.9991e-05
9.99904e-05
9.99999e-05
9.99996e-05
9.99994e-05
9.99991e-05
9.99988e-05
9.99985e-05
9.99982e-05
9.99978e-05
9.99975e-05
9.99971e-05
9.99968e-05
9.99964e-05
9.9996e-05
9.99956e-05
9.99952e-05
9.99948e-05
9.99944e-05
9.9994e-05
9.99936e-05
9.99932e-05
9.99999e-05
9.99997e-05
9.99996e-05
9.99994e-05
9.99992e-05
9.99989e-05
9.99987e-05
9.99985e-05
9.99982e-05
9.9998e-05
9.99977e-05
9.99975e-05
9.99972e-05
9.99969e-05
9.99967e-05
9.99964e-05
9.99961e-05
9.99958e-05
9.99955e-05
9.99952e-05
9.99999e-05
9.99998e-05
9.99997e-05
9.99996e-05
9.99994e-05
9.99993e-05
9.99991e-05
9.9999e-05
9.99988e-05
9.99987e-05
9.99985e-05
9.99983e-05
9.99981e-05
9.9998e-05
9.99978e-05
9.99976e-05
9.99974e-05
9.99972e-05
9.9997e-05
9.99968e-05
0.0001
9.99999e-05
9.99998e-05
9.99998e-05
9.99997e-05
9.99996e-05
9.99995e-05
9.99994e-05
9.99993e-05
9.99992e-05
9.99991e-05
9.9999e-05
9.99989e-05
9.99988e-05
9.99986e-05
9.99985e-05
9.99984e-05
9.99983e-05
9.99982e-05
9.9998e-05
0.0001
0.0001
9.99999e-05
9.99999e-05
9.99999e-05
9.99998e-05
9.99998e-05
9.99997e-05
9.99997e-05
9.99996e-05
9.99996e-05
9.99995e-05
9.99995e-05
9.99994e-05
9.99993e-05
9.99993e-05
9.99992e-05
9.99991e-05
9.99991e-05
9.9999e-05
0.0001
0.0001
0.0001
0.0001
0.0001
0.0001
0.0001
0.0001
0.0001
0.0001
0.0001
0.0001
9.99999e-05
9.99999e-05
9.99999e-05
9.99999e-05
9.99999e-05
9.99998e-05
9.99998e-05
9.99998e-05
0.0001
0.0001
0.0001
0.0001
0.0001
0.0001
0.0001
0.0001
0.0001
0.0001
0.0001
0.0001
0.0001
0.0001
0.0001
0.0001
0.0001
0.0001
0.0001
0.0001
0.0001
0.0001
0.0001
0.0001
0.0001
0.0001
0.0001
0.0001
0.0001
0.000100001
0.000100001
0.000100001
0.000100001
0.000100001
0.000100001
0.000100001
0.000100001
0.000100001
0.000100001
0.000100001
0.0001
0.0001
0.0001
0.0001
0.0001
0.0001
0.000100001
0.000100001
0.000100001
0.000100001
0.000100001
0.000100001
0.000100001
0.000100001
0.000100001
0.000100001
0.000100001
0.000100001
0.000100001
0.000100001
0.0001
0.0001
0.0001
0.0001
0.0001
0.000100001
0.000100001
0.000100001
0.000100001
0.000100001
0.000100001
0.000100001
0.000100001
0.000100001
0.000100001
0.000100001
0.000100002
0.000100002
0.000100002
0.000100002
5.05238e-06
4.23976e-08
2.51517e-06
4.76735e-06
4.98284e-06
4.94981e-06
4.87576e-06
4.80703e-06
4.74649e-06
4.69415e-06
4.64885e-06
4.6091e-06
4.5736e-06
4.5414e-06
4.51188e-06
4.48454e-06
4.45901e-06
4.43505e-06
4.41247e-06
4.39112e-06
4.37089e-06
4.35169e-06
4.33344e-06
4.31605e-06
4.29947e-06
4.28362e-06
4.26846e-06
4.25393e-06
4.23999e-06
4.22659e-06
4.21369e-06
4.20127e-06
4.18928e-06
4.17771e-06
4.16652e-06
4.1557e-06
4.14523e-06
4.1351e-06
4.1253e-06
4.11583e-06
4.1067e-06
4.09789e-06
4.0894e-06
4.08119e-06
4.0732e-06
4.06534e-06
4.05742e-06
4.04922e-06
4.04052e-06
4.03101e-06
4.0203e-06
4.00811e-06
3.99426e-06
3.97865e-06
3.96117e-06
3.94203e-06
3.92161e-06
3.90039e-06
3.87887e-06
3.85764e-06
3.83716e-06
3.81783e-06
3.79986e-06
3.78338e-06
3.7683e-06
3.75452e-06
3.74201e-06
3.73058e-06
3.72007e-06
3.71033e-06
3.70127e-06
3.69279e-06
3.68477e-06
3.6771e-06
3.66984e-06
3.66276e-06
3.65623e-06
3.64899e-06
3.64411e-06
3.63548e-06
1.29144e-05
1.53664e-06
8.19541e-07
4.22238e-06
5.252e-06
5.40795e-06
5.43233e-06
5.45399e-06
5.46953e-06
5.47864e-06
5.48355e-06
5.48586e-06
5.48643e-06
5.48569e-06
5.48395e-06
5.48131e-06
5.47782e-06
5.47355e-06
5.46859e-06
5.46308e-06
5.45712e-06
5.45081e-06
5.44425e-06
5.4375e-06
5.43063e-06
5.42368e-06
5.41667e-06
5.40964e-06
5.40262e-06
5.39561e-06
5.38864e-06
5.38171e-06
5.37483e-06
5.36801e-06
5.36124e-06
5.35451e-06
5.34781e-06
5.34111e-06
5.33435e-06
5.32745e-06
5.3203e-06
5.31275e-06
5.30465e-06
5.29581e-06
5.28614e-06
5.27567e-06
5.26455e-06
5.25315e-06
5.24212e-06
5.23266e-06
5.226e-06
5.22357e-06
5.22663e-06
5.23656e-06
5.25349e-06
5.27669e-06
5.30428e-06
5.33391e-06
5.36285e-06
5.38885e-06
5.41051e-06
5.42722e-06
5.4391e-06
5.44669e-06
5.45079e-06
5.45194e-06
5.45095e-06
5.44839e-06
5.44474e-06
5.44029e-06
5.43536e-06
5.43014e-06
5.42479e-06
5.41931e-06
5.41383e-06
5.40844e-06
5.40306e-06
5.39777e-06
5.39319e-06
5.38632e-06
2.27222e-05
6.1318e-06
4.16518e-06
5.42544e-06
6.58682e-06
7.15451e-06
7.4213e-06
7.5965e-06
7.73845e-06
7.85959e-06
7.96405e-06
8.0549e-06
8.13465e-06
8.20542e-06
8.26868e-06
8.32531e-06
8.37584e-06
8.42083e-06
8.46086e-06
8.49648e-06
8.52816e-06
8.55641e-06
8.58165e-06
8.60421e-06
8.62444e-06
8.64257e-06
8.65884e-06
8.67344e-06
8.68657e-06
8.69836e-06
8.70893e-06
8.7184e-06
8.7269e-06
8.73447e-06
8.7412e-06
8.74714e-06
8.75234e-06
8.75684e-06
8.76063e-06
8.76371e-06
8.76603e-06
8.76754e-06
8.76816e-06
8.76782e-06
8.76646e-06
8.76418e-06
8.76112e-06
8.75763e-06
8.75423e-06
8.75181e-06
8.75134e-06
8.75392e-06
8.76053e-06
8.7722e-06
8.78918e-06
8.81107e-06
8.83668e-06
8.86433e-06
8.89204e-06
8.91802e-06
8.94099e-06
8.96023e-06
8.97558e-06
8.98728e-06
8.99582e-06
9.00162e-06
9.00524e-06
9.00716e-06
9.00779e-06
9.00743e-06
9.00635e-06
9.00475e-06
9.00278e-06
9.00051e-06
8.998e-06
8.99548e-06
8.99259e-06
8.98993e-06
8.98789e-06
8.98187e-06
3.12924e-05
1.18621e-05
7.27599e-06
7.07315e-06
7.79296e-06
8.45052e-06
8.89383e-06
9.20922e-06
9.46304e-06
9.68216e-06
9.87601e-06
1.00493e-05
1.02058e-05
1.03483e-05
1.0479e-05
1.05989e-05
1.07086e-05
1.0809e-05
1.09008e-05
1.09848e-05
1.10618e-05
1.11324e-05
1.11974e-05
1.12574e-05
1.13129e-05
1.13642e-05
1.14119e-05
1.14562e-05
1.14975e-05
1.1536e-05
1.1572e-05
1.16057e-05
1.16372e-05
1.16667e-05
1.16943e-05
1.17203e-05
1.17445e-05
1.17673e-05
1.17886e-05
1.18085e-05
1.1827e-05
1.18442e-05
1.18601e-05
1.18747e-05
1.1888e-05
1.19002e-05
1.19112e-05
1.19214e-05
1.19311e-05
1.19407e-05
1.19507e-05
1.19617e-05
1.19743e-05
1.1989e-05
1.20059e-05
1.20249e-05
1.20455e-05
1.20668e-05
1.20879e-05
1.21079e-05
1.21261e-05
1.21424e-05
1.21564e-05
1.21683e-05
1.21784e-05
1.21867e-05
1.21938e-05
1.21996e-05
1.22046e-05
1.22087e-05
1.22123e-05
1.22153e-05
1.2218e-05
1.22202e-05
1.22221e-05
1.2224e-05
1.22252e-05
1.2227e-05
1.22277e-05
1.2228e-05
3.88068e-05
1.75678e-05
1.12697e-05
9.24605e-06
9.20066e-06
9.63335e-06
1.00884e-05
1.04779e-05
1.08124e-05
1.11094e-05
1.13784e-05
1.16245e-05
1.18521e-05
1.20643e-05
1.22627e-05
1.2448e-05
1.26205e-05
1.27809e-05
1.29298e-05
1.30681e-05
1.31966e-05
1.33162e-05
1.34278e-05
1.35321e-05
1.36298e-05
1.37214e-05
1.38076e-05
1.38887e-05
1.39652e-05
1.40375e-05
1.41058e-05
1.41706e-05
1.4232e-05
1.42903e-05
1.43456e-05
1.43982e-05
1.44481e-05
1.44957e-05
1.45409e-05
1.45839e-05
1.46248e-05
1.46637e-05
1.47006e-05
1.47357e-05
1.47691e-05
1.48007e-05
1.48308e-05
1.48595e-05
1.48869e-05
1.49133e-05
1.49391e-05
1.49643e-05
1.49894e-05
1.50147e-05
1.50401e-05
1.50657e-05
1.50912e-05
1.51163e-05
1.51407e-05
1.51641e-05
1.51861e-05
1.52067e-05
1.52259e-05
1.52437e-05
1.52604e-05
1.52758e-05
1.52903e-05
1.53039e-05
1.53167e-05
1.53288e-05
1.53402e-05
1.53511e-05
1.53614e-05
1.53713e-05
1.53806e-05
1.53898e-05
1.53979e-05
1.5407e-05
1.54133e-05
1.54241e-05
4.54858e-05
2.32822e-05
1.55603e-05
1.24568e-05
1.10487e-05
1.0975e-05
1.12536e-05
1.16038e-05
1.19533e-05
1.22861e-05
1.26e-05
1.28966e-05
1.3179e-05
1.34492e-05
1.37074e-05
1.39531e-05
1.41856e-05
1.44048e-05
1.46111e-05
1.48049e-05
1.4987e-05
1.51582e-05
1.53195e-05
1.54715e-05
1.56151e-05
1.5751e-05
1.58797e-05
1.60018e-05
1.61178e-05
1.62283e-05
1.63335e-05
1.64338e-05
1.65297e-05
1.66213e-05
1.67088e-05
1.67926e-05
1.68729e-05
1.69497e-05
1.70234e-05
1.7094e-05
1.71617e-05
1.72266e-05
1.72889e-05
1.73486e-05
1.7406e-05
1.7461e-05
1.75139e-05
1.75647e-05
1.76137e-05
1.76609e-05
1.77065e-05
1.77507e-05
1.77936e-05
1.78355e-05
1.78763e-05
1.7916e-05
1.79547e-05
1.79922e-05
1.80283e-05
1.80632e-05
1.80966e-05
1.81287e-05
1.81594e-05
1.8189e-05
1.82173e-05
1.82447e-05
1.8271e-05
1.82964e-05
1.83208e-05
1.83445e-05
1.83674e-05
1.83895e-05