/*--------------------------------*- C++ -*----------------------------------*\
| =========                 |                                                 |
| \\      /  F ield         | OpenFOAM: The Open Source CFD Toolbox           |
|  \\    /   O peration     | Version:  v1912                                 |
|   \\  /    A nd           | Website:  www.openfoam.com                      |
|    \\/     M anipulation  |                                                 |
\*---------------------------------------------------------------------------*/
FoamFile
{
    version     2.0;
    format      ascii;
    class       volScalarField;
    location    "100";
    object      p;
}
// * * * * * * * * * * * * * * * * * * * * * * * * * * * * * * * * * * * * * //

dimensions      [0 2 -2 0 0 0 0];


internalField   nonuniform List<scalar> 
10000
(
0.00230501
0.00230797
0.002316
0.00232829
0.0023449
0.00236616
0.0023926
0.00242471
0.00246319
0.00250911
0.00256362
0.0026293
0.00270663
0.00280433
0.00291643
0.00308089
0.0032431
0.00361668
0.00382457
0.00575585
0.00230501
0.00230796
0.002316
0.00232828
0.00234489
0.00236616
0.0023926
0.00242471
0.00246318
0.0025091
0.00256361
0.00262929
0.00270663
0.00280432
0.00291642
0.00308084
0.0032431
0.00361633
0.00382454
0.00567779
0.00230501
0.00230796
0.002316
0.00232828
0.00234489
0.00236615
0.00239259
0.0024247
0.00246318
0.00250909
0.0025636
0.00262928
0.00270661
0.0028043
0.00291639
0.00308077
0.00324304
0.00361584
0.00382404
0.00553725
0.002305
0.00230795
0.00231599
0.00232827
0.00234488
0.00236614
0.00239258
0.00242469
0.00246316
0.00250908
0.00256359
0.00262926
0.00270658
0.00280425
0.00291634
0.00308065
0.00324294
0.00361509
0.00382313
0.00545455
0.00230499
0.00230794
0.00231597
0.00232826
0.00234487
0.00236613
0.00239256
0.00242467
0.00246314
0.00250906
0.00256356
0.00262922
0.00270654
0.00280419
0.00291626
0.00308047
0.00324278
0.00361404
0.00382208
0.00540018
0.00230498
0.00230792
0.00231596
0.00232824
0.00234485
0.00236611
0.00239254
0.00242465
0.00246312
0.00250903
0.00256352
0.00262917
0.00270648
0.0028041
0.00291616
0.00308023
0.00324256
0.00361268
0.00382091
0.00535146
0.00230496
0.0023079
0.00231594
0.00232822
0.00234483
0.00236608
0.00239252
0.00242462
0.00246308
0.00250899
0.00256347
0.00262911
0.00270641
0.00280398
0.00291601
0.00307991
0.00324226
0.00361096
0.00381952
0.005302
0.00230493
0.00230788
0.00231591
0.00232819
0.0023448
0.00236605
0.00239248
0.00242458
0.00246304
0.00250893
0.00256341
0.00262903
0.00270631
0.00280383
0.00291583
0.00307951
0.00324188
0.00360885
0.00381785
0.00525154
0.0023049
0.00230785
0.00231588
0.00232816
0.00234476
0.00236601
0.00239244
0.00242453
0.00246298
0.00250887
0.00256333
0.00262892
0.00270619
0.00280364
0.0029156
0.00307902
0.00324141
0.00360631
0.00381581
0.00519957
0.00230487
0.00230781
0.00231583
0.00232812
0.00234471
0.00236596
0.00239238
0.00242447
0.00246291
0.00250879
0.00256323
0.0026288
0.00270603
0.00280341
0.00291533
0.00307842
0.00324081
0.0036033
0.00381335
0.00514608
0.00230482
0.00230776
0.00231578
0.00232806
0.00234466
0.0023659
0.00239232
0.0024244
0.00246283
0.00250869
0.00256312
0.00262865
0.00270585
0.00280314
0.00291499
0.0030777
0.00324009
0.00359978
0.00381039
0.00509069
0.00230477
0.0023077
0.00231572
0.002328
0.0023446
0.00236583
0.00239224
0.00242431
0.00246273
0.00250857
0.00256298
0.00262846
0.00270563
0.0028028
0.00291458
0.00307684
0.00323922
0.00359569
0.00380687
0.00503362
0.00230471
0.00230764
0.00231565
0.00232793
0.00234452
0.00236575
0.00239215
0.0024242
0.00246261
0.00250843
0.00256281
0.00262825
0.00270536
0.00280241
0.0029141
0.00307583
0.00323817
0.00359099
0.00380269
0.00497471
0.00230464
0.00230756
0.00231557
0.00232785
0.00234443
0.00236565
0.00239204
0.00242408
0.00246247
0.00250827
0.00256261
0.00262799
0.00270505
0.00280194
0.00291352
0.00307465
0.00323693
0.00358562
0.0037978
0.00491425
0.00230455
0.00230746
0.00231547
0.00232775
0.00234432
0.00236554
0.00239191
0.00242393
0.0024623
0.00250807
0.00256237
0.00262769
0.00270468
0.00280139
0.00291285
0.00307327
0.00323546
0.00357953
0.00379211
0.00485216
0.00230445
0.00230735
0.00231536
0.00232763
0.0023442
0.0023654
0.00239176
0.00242376
0.00246211
0.00250784
0.0025621
0.00262734
0.00270425
0.00280075
0.00291206
0.00307167
0.00323374
0.00357267
0.00378555
0.0047887
0.00230433
0.00230723
0.00231522
0.00232749
0.00234405
0.00236524
0.00239158
0.00242356
0.00246188
0.00250758
0.00256178
0.00262693
0.00270374
0.00280001
0.00291115
0.00306984
0.00323172
0.00356499
0.00377801
0.00472385
0.00230419
0.00230708
0.00231507
0.00232734
0.00234388
0.00236506
0.00239138
0.00242333
0.00246162
0.00250727
0.00256141
0.00262645
0.00270316
0.00279915
0.00291008
0.00306774
0.00322938
0.00355644
0.00376943
0.00465786
0.00230403
0.00230691
0.00231489
0.00232716
0.00234369
0.00236485
0.00239114
0.00242307
0.00246132
0.00250691
0.00256098
0.0026259
0.00270248
0.00279817
0.00290885
0.00306534
0.00322666
0.00354695
0.00375968
0.00459076
0.00230385
0.00230672
0.00231469
0.00232695
0.00234347
0.0023646
0.00239087
0.00242276
0.00246097
0.0025065
0.00256048
0.00262527
0.0027017
0.00279703
0.00290744
0.00306262
0.00322353
0.00353649
0.00374868
0.0045228
0.00230364
0.00230649
0.00231445
0.00232671
0.00234321
0.00236433
0.00239056
0.00242241
0.00246057
0.00250603
0.00255992
0.00262455
0.0027008
0.00279574
0.00290581
0.00305954
0.00321993
0.00352501
0.00373632
0.00445404
0.0023034
0.00230624
0.00231418
0.00232643
0.00234291
0.00236401
0.00239021
0.00242201
0.00246011
0.00250548
0.00255927
0.00262372
0.00269977
0.00279426
0.00290394
0.00305607
0.00321579
0.00351246
0.0037225
0.00438473
0.00230312
0.00230594
0.00231387
0.00232611
0.00234258
0.00236364
0.0023898
0.00242155
0.00245958
0.00250486
0.00255852
0.00262278
0.0026986
0.00279258
0.00290181
0.00305217
0.00321108
0.0034988
0.00370711
0.00431498
0.00230281
0.00230561
0.00231352
0.00232575
0.00234219
0.00236322
0.00238934
0.00242103
0.00245898
0.00250415
0.00255767
0.0026217
0.00269726
0.00279068
0.00289938
0.0030478
0.00320571
0.003484
0.00369005
0.00424504
0.00230245
0.00230523
0.00231312
0.00232534
0.00234176
0.00236274
0.00238881
0.00242043
0.00245829
0.00250335
0.0025567
0.00262048
0.00269573
0.00278852
0.00289661
0.00304292
0.00319962
0.00346801
0.00367123
0.00417502
0.00230204
0.0023048
0.00231267
0.00232488
0.00234126
0.0023622
0.00238821
0.00241975
0.00245751
0.00250243
0.0025556
0.00261909
0.00269399
0.00278609
0.00289347
0.00303749
0.00319273
0.00345081
0.00365055
0.00410517
0.00230157
0.00230431
0.00231215
0.00232435
0.00234069
0.00236159
0.00238753
0.00241898
0.00245663
0.00250139
0.00255435
0.00261752
0.00269203
0.00278334
0.00288993
0.00303145
0.00318498
0.00343239
0.00362795
0.0040356
0.00230104
0.00230376
0.00231157
0.00232374
0.00234005
0.00236089
0.00238675
0.00241811
0.00245562
0.00250021
0.00255294
0.00261574
0.0026898
0.00278026
0.00288592
0.00302477
0.00317628
0.00341271
0.00360336
0.00396653
0.00230043
0.00230313
0.00231091
0.00232306
0.00233933
0.0023601
0.00238587
0.00241712
0.00245449
0.00249887
0.00255133
0.00261374
0.00268729
0.0027768
0.0028814
0.00301739
0.00316655
0.00339176
0.00357673
0.00389806
0.00229975
0.00230242
0.00231017
0.00232229
0.0023385
0.0023592
0.00238488
0.002416
0.0024532
0.00249736
0.00254952
0.00261148
0.00268445
0.00277293
0.00287633
0.00300926
0.00315573
0.00336953
0.00354806
0.00383036
0.00229897
0.00230161
0.00230932
0.00232141
0.00233757
0.00235819
0.00238376
0.00241474
0.00245175
0.00249566
0.00254748
0.00260894
0.00268126
0.0027686
0.00287065
0.00300033
0.00314372
0.00334601
0.00351734
0.0037635
0.00229809
0.00230071
0.00230837
0.00232043
0.00233653
0.00235705
0.0023825
0.00241332
0.00245012
0.00249374
0.00254519
0.00260609
0.00267768
0.00276377
0.0028643
0.00299053
0.00313046
0.0033212
0.0034846
0.00369761
0.0022971
0.00229969
0.0023073
0.00231931
0.00233534
0.00235576
0.00238107
0.00241171
0.00244828
0.00249158
0.0025426
0.00260289
0.00267367
0.0027584
0.00285722
0.00297983
0.00311589
0.00329508
0.00344988
0.0036327
0.00229598
0.00229854
0.0023061
0.00231806
0.00233401
0.00235432
0.00237947
0.00240991
0.0024462
0.00248915
0.0025397
0.0025993
0.00266918
0.00275243
0.00284936
0.00296814
0.00309994
0.00326768
0.00341329
0.00356886
0.00229472
0.00229724
0.00230475
0.00231664
0.00233251
0.00235268
0.00237766
0.00240788
0.00244388
0.00248643
0.00253645
0.0025953
0.00266417
0.00274582
0.00284066
0.00295543
0.00308257
0.00323898
0.00337491
0.00350606
0.00229329
0.00229578
0.00230322
0.00231505
0.00233082
0.00235085
0.00237564
0.0024056
0.00244127
0.00248338
0.00253281
0.00259083
0.00265858
0.0027385
0.00283104
0.00294162
0.00306372
0.003209
0.00333489
0.00344432
0.00229169
0.00229414
0.00230152
0.00231327
0.00232892
0.00234879
0.00237336
0.00240304
0.00243835
0.00247997
0.00252875
0.00258586
0.00265238
0.00273042
0.00282046
0.00292668
0.00304338
0.00317775
0.00329334
0.00338361
0.00228989
0.0022923
0.0022996
0.00231126
0.00232679
0.00234648
0.00237081
0.00240018
0.00243508
0.00247616
0.00252421
0.00258032
0.00264549
0.00272153
0.00280884
0.00291053
0.00302151
0.00314525
0.00325045
0.00332391
0.00228786
0.00229024
0.00229745
0.00230901
0.00232441
0.00234389
0.00236795
0.00239698
0.00243142
0.0024719
0.00251916
0.00257418
0.00263787
0.00271175
0.00279613
0.00289314
0.00299812
0.00311153
0.00320636
0.00326515
0.00228558
0.00228792
0.00229504
0.00230649
0.00232173
0.002341
0.00236476
0.00239339
0.00242734
0.00246716
0.00251355
0.00256737
0.00262946
0.00270103
0.00278228
0.00287446
0.00297321
0.00307662
0.00316125
0.00320732
0.00228303
0.00228533
0.00229235
0.00230367
0.00231873
0.00233775
0.00236119
0.0023894
0.00242279
0.00246189
0.00250731
0.00255985
0.00262019
0.00268931
0.00276723
0.00285446
0.00294679
0.00304057
0.00311529
0.00315035
0.00228017
0.00228242
0.00228934
0.00230052
0.00231538
0.00233413
0.0023572
0.00238494
0.00241773
0.00245603
0.00250041
0.00255154
0.00261002
0.00267652
0.00275093
0.00283309
0.0029189
0.00300342
0.00306862
0.00309421
0.00227696
0.00227918
0.00228597
0.00229699
0.00231164
0.00233009
0.00235276
0.00237998
0.0024121
0.00244953
0.00249278
0.0025424
0.00259886
0.00266262
0.00273335
0.00281035
0.00288957
0.00296523
0.00302139
0.00303885
0.00227338
0.00227554
0.00228222
0.00229305
0.00230746
0.00232558
0.00234781
0.00237447
0.00240586
0.00244234
0.00248436
0.00253236
0.00258668
0.00264754
0.00271444
0.00278622
0.00285885
0.00292607
0.00297375
0.00298424
0.00226937
0.00227149
0.00227803
0.00228866
0.0023028
0.00232056
0.00234231
0.00236835
0.00239894
0.00243441
0.00247509
0.00252135
0.0025734
0.00263123
0.00269417
0.0027607
0.00282679
0.002886
0.00292579
0.00293035
0.0022649
0.00226696
0.00227335
0.00228377
0.00229762
0.00231497
0.0023362
0.00236157
0.0023913
0.00242565
0.00246491
0.00250932
0.00255897
0.00261366
0.00267253
0.0027338
0.00279346
0.00284512
0.00287764
0.00287715
0.00225991
0.00226192
0.00226815
0.00227833
0.00229185
0.00230877
0.00232943
0.00235406
0.00238286
0.00241602
0.00245376
0.00249621
0.00254333
0.00259477
0.0026495
0.00270553
0.00275893
0.00280348
0.00282938
0.00282461
0.00225435
0.0022563
0.00226237
0.00227228
0.00228545
0.00230189
0.00232193
0.00234577
0.00237356
0.00240545
0.00244156
0.00248195
0.00252644
0.00257454
0.00262508
0.00267593
0.00272326
0.00276119
0.00278108
0.0027727
0.00224817
0.00225006
0.00225594
0.00226557
0.00227834
0.00229428
0.00231364
0.00233663
0.00236334
0.00239387
0.00242826
0.00246649
0.00250826
0.00255294
0.00259927
0.00264503
0.00268653
0.00271831
0.0027328
0.00272141
0.0022413
0.00224313
0.00224881
0.00225812
0.00227048
0.00228586
0.0023045
0.00232657
0.00235213
0.00238121
0.0024138
0.00244977
0.00248874
0.00252996
0.00257208
0.00261287
0.00264882
0.00267492
0.0026846
0.00267069
0.00223368
0.00223544
0.00224091
0.00224988
0.00226178
0.00227656
0.00229443
0.00231552
0.00233986
0.00236742
0.00239812
0.00243175
0.00246785
0.00250558
0.00254354
0.00257952
0.00261022
0.0026311
0.0026365
0.00262053
0.00222523
0.00222692
0.00223217
0.00224078
0.00225218
0.00226632
0.00228336
0.00230341
0.00232646
0.00235242
0.00238116
0.00241238
0.00244557
0.00247981
0.00251367
0.00254502
0.00257079
0.00258691
0.00258856
0.0025709
0.00221589
0.00221749
0.00222251
0.00223073
0.0022416
0.00225505
0.00227122
0.00229017
0.00231186
0.00233615
0.00236286
0.00239163
0.00242187
0.00245265
0.00248252
0.00250945
0.0025306
0.00254241
0.00254077
0.00252177
0.00220557
0.00220709
0.00221185
0.00221965
0.00222997
0.00224269
0.00225793
0.00227573
0.002296
0.00231856
0.00234319
0.00236947
0.00239676
0.00242412
0.00245013
0.00247285
0.00248975
0.00249767
0.00249317
0.0024731
0.00219419
0.00219562
0.00220011
0.00220747
0.00221719
0.00222915
0.00224342
0.00226001
0.0022788
0.0022996
0.0023221
0.00234587
0.00237024
0.00239424
0.00241653
0.00243531
0.00244828
0.00245272
0.00244576
0.00242487
0.00218166
0.002183
0.00218721
0.00219411
0.0022032
0.00221434
0.0022276
0.00224294
0.00226022
0.0022792
0.00229955
0.00232081
0.00234229
0.00236305
0.0023818
0.00239688
0.00240626
0.0024076
0.00239854
0.00237704
0.00216789
0.00216914
0.00217305
0.00217946
0.0021879
0.0021982
0.00221041
0.00222447
0.00224019
0.00225733
0.00227553
0.0022943
0.00231295
0.00233058
0.00234597
0.00235762
0.00236375
0.00236236
0.00235151
0.00232958
0.0021528
0.00215395
0.00215755
0.00216346
0.00217121
0.00218065
0.00219177
0.00220451
0.00221866
0.00223395
0.00225
0.00226632
0.00228223
0.00229686
0.0023091
0.0023176
0.00232079
0.00231701
0.00230465
0.00228246
0.00213629
0.00213734
0.00214063
0.00214601
0.00215305
0.0021616
0.00217162
0.00218302
0.00219559
0.00220903
0.00222296
0.00223688
0.00225016
0.00226195
0.00227126
0.00227687
0.00227744
0.00227157
0.00225797
0.00223563
0.00211827
0.00211921
0.00212218
0.00212702
0.00213334
0.00214098
0.00214988
0.00215994
0.00217093
0.00218254
0.00219439
0.00220601
0.00221676
0.00222589
0.00223248
0.00223547
0.00223372
0.00222605
0.00221143
0.00218907
0.00209865
0.00209949
0.00210212
0.00210642
0.00211201
0.00211873
0.00212651
0.00213522
0.00214464
0.00215446
0.0021643
0.0021737
0.00218207
0.00218872
0.00219282
0.00219346
0.00218966
0.00218046
0.00216502
0.00214273
0.00207734
0.00207807
0.00208037
0.00208412
0.00208897
0.00209477
0.00210144
0.00210883
0.00211671
0.00212479
0.0021327
0.00213999
0.00214613
0.00215048
0.00215232
0.00215086
0.00214528
0.00213479
0.00211872
0.00209658
0.00205426
0.00205489
0.00205686
0.00206005
0.00206418
0.00206907
0.00207463
0.00208073
0.00208712
0.00209352
0.00209959
0.0021049
0.00210897
0.00211122
0.00211103
0.00210772
0.0021006
0.00208904
0.00207249
0.00205059
0.00202934
0.00202987
0.0020315
0.00203415
0.00203756
0.00204155
0.00204605
0.00205089
0.00205585
0.00206066
0.00206499
0.00206846
0.00207062
0.00207098
0.00206898
0.00206405
0.00205563
0.00204319
0.0020263
0.0020047
0.00200251
0.00200293
0.00200424
0.00200637
0.00200907
0.0020122
0.00201566
0.0020193
0.0020229
0.00202621
0.00202893
0.0020307
0.00203113
0.00202978
0.00202619
0.00201987
0.00201035
0.00199722
0.00198013
0.00195888
0.00197371
0.00197403
0.00197503
0.00197664
0.00197867
0.00198097
0.00198345
0.00198595
0.00198828
0.00199019
0.00199142
0.00199165
0.00199053
0.00198767
0.0019827
0.00197519
0.00196477
0.00195111
0.00193393
0.00191308
0.00194289
0.00194312
0.00194382
0.00194494
0.00194633
0.00194785
0.0019494
0.00195084
0.00195199
0.00195262
0.0019525
0.00195134
0.00194884
0.00194468
0.00193851
0.00193002
0.00191888
0.00190483
0.00188767
0.00186726
0.00191003
0.00191017
0.00191059
0.00191125
0.00191203
0.00191282
0.00191351
0.00191398
0.00191405
0.00191352
0.00191219
0.0019098
0.0019061
0.00190081
0.00189365
0.00188435
0.00187265
0.00185836
0.00184129
0.00182137
0.0018751
0.00187515
0.00187531
0.00187555
0.00187577
0.00187589
0.0018758
0.00187538
0.00187448
0.00187292
0.00187052
0.00186706
0.00186233
0.00185609
0.00184811
0.00183817
0.00182607
0.00181165
0.00179477
0.00177537
0.00183809
0.00183807
0.001838
0.00183785
0.00183757
0.00183708
0.00183629
0.00183507
0.00183331
0.00183085
0.00182753
0.00182316
0.00181756
0.00181054
0.00180191
0.00179149
0.00177912
0.00176467
0.00174805
0.0017292
0.00179903
0.00179894
0.00179865
0.00179816
0.00179743
0.0017964
0.00179499
0.00179309
0.00179059
0.00178735
0.00178324
0.00177811
0.0017718
0.00176416
0.00175503
0.00174427
0.00173176
0.00171739
0.00170109
0.00168283
0.00175793
0.00175778
0.00175731
0.00175651
0.00175539
0.0017539
0.00175196
0.00174947
0.00174633
0.00174245
0.0017377
0.00173195
0.00172508
0.00171697
0.00170748
0.00169651
0.00168396
0.00166976
0.00165384
0.00163619
0.00171484
0.00171464
0.00171402
0.00171296
0.00171151
0.00170963
0.00170724
0.00170425
0.0017006
0.00169619
0.00169092
0.0016847
0.00167741
0.00166896
0.00165924
0.00164818
0.0016357
0.00162174
0.00160625
0.00158923
0.00166982
0.00166958
0.00166882
0.00166756
0.00166583
0.00166363
0.00166087
0.0016575
0.00165344
0.00164861
0.00164296
0.00163638
0.0016288
0.00162014
0.00161031
0.00159927
0.00158694
0.00157329
0.00155828
0.00154192
0.00162294
0.00162266
0.0016218
0.00162037
0.00161842
0.00161597
0.00161293
0.00160926
0.00160489
0.00159977
0.00159383
0.00158702
0.00157927
0.00157051
0.00156068
0.00154974
0.00153765
0.00152437
0.00150989
0.00149419
0.00157428
0.00157398
0.00157304
0.00157147
0.00156937
0.00156672
0.00156348
0.00155959
0.00155501
0.00154969
0.00154359
0.00153665
0.00152883
0.00152007
0.00151034
0.00149959
0.0014878
0.00147495
0.00146102
0.00144601
0.00152393
0.00152361
0.00152262
0.00152096
0.00151875
0.00151598
0.0015126
0.00150858
0.00150387
0.00149844
0.00149227
0.0014853
0.0014775
0.00146883
0.00145928
0.00144879
0.00143737
0.00142499
0.00141164
0.00139734
0.00147199
0.00147167
0.00147064
0.00146893
0.00146665
0.00146381
0.00146036
0.00145628
0.00145152
0.00144607
0.0014399
0.00143299
0.0014253
0.0014168
0.00140749
0.00139734
0.00138633
0.00137445
0.00136172
0.00134812
0.00141858
0.00141825
0.00141721
0.00141548
0.00141317
0.00141031
0.00140685
0.00140276
0.00139803
0.00139262
0.00138654
0.00137975
0.00137224
0.00136399
0.00135498
0.0013452
0.00133465
0.00132332
0.00131121
0.00129834
0.0013638
0.00136347
0.00136243
0.00136071
0.00135841
0.00135557
0.00135215
0.00134812
0.00134346
0.00133816
0.00133223
0.00132563
0.00131836
0.0013104
0.00130174
0.00129239
0.00128233
0.00127157
0.00126011
0.00124795
0.00130776
0.00130743
0.00130641
0.00130472
0.00130247
0.00129969
0.00129634
0.00129241
0.00128788
0.00128275
0.00127701
0.00127065
0.00126366
0.00125605
0.00124779
0.00123889
0.00122935
0.00121918
0.00120837
0.00119693
0.00125057
0.00125025
0.00124926
0.00124762
0.00124544
0.00124274
0.00123951
0.00123571
0.00123135
0.00122643
0.00122093
0.00121485
0.00120819
0.00120095
0.00119312
0.00118471
0.00117571
0.00116613
0.00115598
0.00114526
0.00119234
0.00119203
0.00119108
0.0011895
0.00118741
0.00118483
0.00118173
0.00117811
0.00117395
0.00116926
0.00116403
0.00115827
0.00115197
0.00114513
0.00113776
0.00112984
0.0011214
0.00111242
0.00110293
0.00109292
0.00113316
0.00113287
0.00113197
0.00113047
0.00112848
0.00112603
0.0011231
0.00111966
0.00111573
0.0011113
0.00110637
0.00110095
0.00109503
0.00108861
0.0010817
0.0010743
0.00106641
0.00105804
0.0010492
0.0010399
0.00107313
0.00107286
0.00107201
0.0010706
0.00106872
0.00106642
0.00106366
0.00106044
0.00105675
0.0010526
0.00104798
0.00104291
0.00103739
0.0010314
0.00102497
0.00101808
0.00101075
0.00100299
0.000994798
0.000986184
0.00101233
0.00101208
0.00101128
0.00100997
0.00100822
0.00100607
0.0010035
0.00100049
0.000997058
0.000993196
0.00098891
0.000984202
0.000979073
0.000973528
0.000967569
0.000961202
0.000954432
0.000947264
0.000939707
0.000931767
0.000950834
0.000950599
0.000949861
0.00094864
0.000947022
0.000945032
0.000942654
0.000939876
0.0009367
0.000933133
0.000929177
0.000924835
0.000920109
0.000915002
0.000909518
0.000903663
0.000897441
0.000890858
0.000883922
0.000876639
0.000888688
0.000888473
0.000887795
0.000886672
0.000885186
0.000883358
0.000881174
0.000878624
0.000875711
0.00087244
0.000868814
0.000864836
0.000860509
0.000855835
0.00085082
0.000845467
0.000839782
0.00083377
0.000827438
0.000820793
0.000825929
0.000825733
0.000825115
0.000824092
0.000822737
0.000821071
0.000819081
0.000816759
0.000814106
0.000811128
0.000807829
0.000804211
0.000800276
0.000796028
0.000791471
0.000786609
0.000781447
0.00077599
0.000770243
0.000764214
0.000762582
0.000762405
0.000761845
0.00076092
0.000759694
0.000758188
0.00075639
0.000754291
0.000751894
0.000749204
0.000746224
0.000742957
0.000739405
0.000735571
0.000731459
0.000727074
0.000722418
0.000717497
0.000712316
0.000706881
0.000698632
0.000698473
0.000697972
0.000697143
0.000696045
0.000694695
0.000693083
0.000691203
0.000689056
0.000686647
0.000683979
0.000681053
0.000677873
0.000674441
0.00067076
0.000666835
0.000662669
0.000658265
0.00065363
0.000648766
0.000634058
0.000633917
0.000633471
0.000632735
0.00063176
0.000630562
0.000629132
0.000627463
0.000625557
0.00062342
0.000621052
0.000618457
0.000615635
0.000612591
0.000609326
0.000605844
0.000602149
0.000598243
0.00059413
0.000589816
0.000568787
0.000568663
0.000568273
0.000567628
0.000566773
0.000565721
0.000564466
0.000563002
0.000561332
0.000559457
0.000557381
0.000555104
0.00055263
0.00054996
0.000547097
0.000544044
0.000540803
0.000537378
0.00053377
0.000529985
0.000502729
0.000502622
0.000502282
0.000501723
0.000500983
0.000500073
0.000498986
0.000497719
0.000496273
0.000494651
0.000492853
0.000490882
0.000488739
0.000486428
0.000483949
0.000481306
0.0004785
0.000475534
0.00047241
0.000469132
0.000435737
0.000435646
0.000435359
0.000434885
0.000434258
0.000433486
0.000432563
0.000431488
0.000430263
0.000428887
0.000427363
0.000425691
0.000423873
0.000421912
0.000419808
0.000417564
0.000415182
0.000412663
0.00041001
0.000407225
0.000367604
0.000367528
0.000367288
0.000366893
0.000366371
0.000365729
0.000364963
0.000364069
0.000363049
0.000361905
0.000360638
0.000359249
0.00035774
0.000356111
0.000354365
0.000352502
0.000350523
0.000348431
0.000346227
0.000343914
0.000298101
0.000298043
0.000297856
0.000297545
0.000297133
0.000296626
0.00029602
0.000295313
0.000294505
0.000293597
0.000292591
0.000291488
0.000290288
0.000288993
0.000287604
0.000286122
0.000284548
0.000282883
0.000281129
0.000279287
0.000226797
0.000226746
0.000226596
0.000226353
0.000226034
0.000225643
0.000225177
0.000224635
0.000224017
0.000223326
0.000222562
0.000221725
0.000220815
0.000219833
0.000218778
0.000217654
0.00021646
0.000215199
0.000213871
0.000212479
0.000153436
0.000153415
0.000153332
0.000153182
0.000152981
0.000152735
0.000152438
0.000152086
0.00015168
0.000151225
0.000150723
0.000150175
0.000149579
0.000148934
0.000148238
0.000147494
0.000146701
0.000145863
0.000144981
0.000144055
7.70166e-05
7.69792e-05
7.69026e-05
7.67969e-05
7.66685e-05
7.65211e-05
7.63513e-05
7.61545e-05
7.59284e-05
7.56772e-05
7.54038e-05
7.51104e-05
7.47948e-05
7.4456e-05
7.4092e-05
7.37038e-05
7.32915e-05
7.28573e-05
7.24012e-05
7.1925e-05
0.00545904
0.00351824
0.00232512
0.00247598
0.00258833
0.00233822
0.0020965
0.00192866
0.00179075
0.00167846
0.00158398
0.00150206
0.0014317
0.00136557
0.00130547
0.00124947
0.00119869
0.00115005
0.00110432
0.00106102
0.0010203
0.000981821
0.000945067
0.000909875
0.000875801
0.00084391
0.000813397
0.000784003
0.000755342
0.000728186
0.00070212
0.000676802
0.000652052
0.000628278
0.000605458
0.00058323
0.0005618
0.000540735
0.000520458
0.000500529
0.000481282
0.000462289
0.000443949
0.000425885
0.000408392
0.000391078
0.000374334
0.000357786
0.000341745
0.000325982
0.000310763
0.000295692
0.000281214
0.000266902
0.000253131
0.000239329
0.00022576
0.000212552
0.000199602
0.000186724
0.000173613
0.000161222
0.000149045
0.000137221
0.000125397
0.000114367
0.00010381
9.37075e-05
8.38627e-05
7.46687e-05
6.5985e-05
5.80416e-05
5.13039e-05
4.43839e-05
4.15625e-05
3.21505e-05
5.02145e-05
3.6628e-06
0.000150532
-0.00021526
0.00550869
0.00314955
0.00236625
0.00258921
0.00261633
0.00233672
0.00209491
0.00192987
0.00179308
0.00168096
0.00158637
0.00150429
0.00143377
0.0013675
0.00130728
0.00125116
0.00120026
0.00115152
0.00110569
0.00106231
0.00102151
0.000982963
0.000946145
0.000910897
0.00087677
0.00084483
0.000814273
0.000784838
0.000756141
0.00072895
0.000702852
0.000677504
0.000652727
0.000628927
0.000606083
0.000583832
0.000562381
0.000541297
0.000521002
0.000501056
0.000481792
0.000462784
0.00044443
0.000426354
0.000408849
0.000391525
0.000374772
0.000358215
0.000342166
0.000326394
0.000311167
0.000296087
0.000281595
0.000267268
0.000253478
0.000239656
0.000226066
0.000212841
0.00019988
0.000186998
0.000173889
0.000161503
0.000149333
0.000137514
0.000125694
0.000114664
0.000104105
9.39999e-05
8.41497e-05
7.49497e-05
6.62593e-05
5.83089e-05
5.15639e-05
4.4638e-05
4.18104e-05
3.23938e-05
5.04463e-05
3.91478e-06
0.000150743
-0.000215118
0.00544497
0.00311328
0.00244496
0.00263213
0.00262222
0.00233962
0.00209952
0.00193531
0.00179867
0.00168635
0.00159144
0.00150902
0.00143817
0.00137162
0.00131113
0.00125476
0.00120365
0.0011547
0.00110868
0.00106513
0.00102418
0.000985487
0.00094854
0.000913174
0.00087894
0.0008469
0.000816251
0.000786731
0.000757956
0.000730692
0.000704525
0.000679114
0.000654279
0.000630424
0.000607528
0.000585228
0.000563732
0.000542604
0.000522269
0.000502285
0.000482985
0.000463944
0.000445559
0.000427453
0.000409919
0.000392569
0.00037579
0.000359209
0.000343136
0.000327341
0.000312089
0.000296983
0.000282464
0.000268108
0.000254288
0.000240437
0.000226822
0.000213576
0.0002006
0.000187709
0.000174596
0.000162207
0.000150035
0.000138214
0.000126389
0.000115352
0.000104783
9.4667e-05
8.48047e-05
7.55919e-05
6.68889e-05
5.89257e-05
5.21682e-05
4.52293e-05
4.23944e-05
3.29589e-05
5.10219e-05
4.43842e-06
0.000151404
-0.000214877
0.00539222
0.00315467
0.00248184
0.00263308
0.00262128
0.0023455
0.0021066
0.0019422
0.00180533
0.00169269
0.00159742
0.00151462
0.00144341
0.00137654
0.00131576
0.00125913
0.00120775
0.00115857
0.00111234
0.00106859
0.00102746
0.000988601
0.000951502
0.000915996
0.000881636
0.000849476
0.000818715
0.000789094
0.000760226
0.000732874
0.000706624
0.000681136
0.00065623
0.000632309
0.000609349
0.00058699
0.000565437
0.000544257
0.000523873
0.000503842
0.000484497
0.000465414
0.00044699
0.000428846
0.000411277
0.000393893
0.000377083
0.000360471
0.000344367
0.000328541
0.000313258
0.000298121
0.000283568
0.000269178
0.000255324
0.000241442
0.000227797
0.000214527
0.000201533
0.000188629
0.000175509
0.000163114
0.000150936
0.000139108
0.000127275
0.000116227
0.000105646
9.5516e-05
8.56386e-05
7.64103e-05
6.76925e-05
5.9714e-05
5.29408e-05
4.59863e-05
4.31417e-05
3.36847e-05
5.17526e-05
5.11908e-06
0.000152262
-0.000214591
0.0053508
0.00317215
0.00249172
0.00263122
0.00262099
0.00235007
0.00211254
0.00194827
0.00181126
0.00169836
0.00160279
0.00151971
0.00144822
0.00138111
0.00132011
0.00126325
0.00121166
0.00116227
0.00111586
0.00107194
0.00103065
0.00099164
0.000954403
0.00091877
0.000884294
0.000852024
0.00082116
0.000791444
0.000762489
0.000735055
0.000708726
0.000683165
0.000658194
0.000634209
0.000611188
0.000588772
0.000567165
0.000545935
0.000525502
0.000505426
0.000486037
0.000466914
0.00044845
0.00043027
0.000412666
0.000395249
0.000378406
0.000361763
0.000345629
0.000329772
0.000314458
0.000299289
0.000284702
0.000270279
0.000256392
0.000242478
0.000228805
0.00021551
0.000202496
0.000189578
0.000176448
0.000164044
0.000151858
0.000140022
0.000128182
0.000117121
0.000106528
9.63846e-05
8.64931e-05
7.72499e-05
6.8518e-05
6.05247e-05
5.37362e-05
4.67666e-05
4.391e-05
3.44362e-05
5.24926e-05
5.84354e-06
0.000153133
-0.00021431
0.00530825
0.00317795
0.00250128
0.00263269
0.00261977
0.0023524
0.00211691
0.00195324
0.0018163
0.00170325
0.00160748
0.00152421
0.00145252
0.00138525
0.00132409
0.00126707
0.00121531
0.00116577
0.00111921
0.00107514
0.00103371
0.000994575
0.000957218
0.000921474
0.000886897
0.000854526
0.000823569
0.000793766
0.000764734
0.000737223
0.000710821
0.000685193
0.000660161
0.000636117
0.000613038
0.000590569
0.00056891
0.000547632
0.000527154
0.000507034
0.000487603
0.00046844
0.00044994
0.000431724
0.000414084
0.000396635
0.000379761
0.000363088
0.000346922
0.000331035
0.00031569
0.00030049
0.000285869
0.000271413
0.000257494
0.00024355
0.000229848
0.000216528
0.000203494
0.000190561
0.000177422
0.000165007
0.000152812
0.000140969
0.00012912
0.000118047
0.00010744
9.72845e-05
8.73789e-05
7.8121e-05
6.93752e-05
6.13673e-05
5.45623e-05
4.75787e-05
4.47068e-05
3.5222e-05
5.32448e-05
6.62659e-06
0.000154002
-0.000213988
0.00526186
0.00318521
0.00251472
0.00263458
0.00261716
0.00235346
0.00212023
0.00195727
0.00182054
0.00170744
0.00161156
0.00152818
0.00145636
0.001389
0.00132773
0.00127061
0.00121872
0.00116906
0.00112239
0.0010782
0.00103666
0.000997419
0.000959959
0.00092412
0.000889455
0.000856996
0.000825955
0.000796076
0.000766973
0.000739393
0.000712924
0.000687234
0.000662146
0.000638046
0.000614914
0.000592394
0.000570686
0.000549363
0.000528842
0.00050868
0.000489207
0.000470007
0.000451471
0.00043322
0.000415545
0.000398064
0.00038116
0.000364456
0.000348259
0.000332343
0.000316967
0.000301737
0.000287082
0.000272594
0.000258644
0.000244671
0.000230942
0.000217598
0.000204544
0.000191595
0.000178446
0.000166018
0.000153812
0.000141958
0.000130101
0.000119013
0.000108393
9.8224e-05
8.83041e-05
7.90309e-05
7.0271e-05
6.22484e-05
5.54266e-05
4.84286e-05
4.55378e-05
3.60476e-05
5.40154e-05
7.47482e-06
0.000154856
-0.000213588
0.00521303
0.00319489
0.00252957
0.00263584
0.00261369
0.00235388
0.00212283
0.00196054
0.00182407
0.00171099
0.00161505
0.00153161
0.00145971
0.00139231
0.001331
0.00127381
0.00122185
0.00117211
0.00112536
0.00108109
0.00103947
0.00100014
0.000962595
0.000926679
0.000891943
0.000859408
0.000828293
0.000798348
0.000769185
0.000741543
0.000715013
0.000689268
0.000664131
0.000639981
0.000616799
0.000594232
0.000572478
0.000551113
0.000530551
0.000510351
0.000490839
0.000471603
0.000453032
0.000434748
0.00041704
0.000399528
0.000382594
0.000365861
0.000349634