/*--------------------------------*- C++ -*----------------------------------*\
| =========                 |                                                 |
| \\      /  F ield         | OpenFOAM: The Open Source CFD Toolbox           |
|  \\    /   O peration     | Version:  v1912                                 |
|   \\  /    A nd           | Website:  www.openfoam.com                      |
|    \\/     M anipulation  |                                                 |
\*---------------------------------------------------------------------------*/
FoamFile
{
    version     2.0;
    format      ascii;
    class       surfaceScalarField;
    location    "100";
    object      phi;
}
// * * * * * * * * * * * * * * * * * * * * * * * * * * * * * * * * * * * * * //

dimensions      [0 3 -1 0 0 0 0];
oriented        oriented;


internalField   nonuniform List<scalar> 
19800
(
2.29239e-07
4.27216e-13
2.29237e-07
1.34559e-12
2.29235e-07
2.3243e-12
2.29232e-07
3.3091e-12
2.29227e-07
4.34001e-12
2.29222e-07
5.44774e-12
2.29215e-07
6.65288e-12
2.29207e-07
7.99098e-12
2.29198e-07
9.46812e-12
2.29187e-07
1.12345e-11
2.29173e-07
1.32663e-11
2.29157e-07
1.59497e-11
2.29138e-07
1.88649e-11
2.29114e-07
2.40737e-11
2.29086e-07
2.7966e-11
2.29042e-07
4.44557e-11
2.29006e-07
3.58396e-11
2.28838e-07
1.6809e-10
2.29089e-07
-2.50244e-10
5.91009e-09
2.23201e-07
2.42236e-07
8.80713e-13
2.42234e-07
2.76796e-12
2.42232e-07
4.77598e-12
2.42228e-07
6.79943e-12
2.42224e-07
8.92509e-12
2.42218e-07
1.12031e-11
2.42211e-07
1.36798e-11
2.42202e-07
1.64294e-11
2.42192e-07
1.95042e-11
2.42181e-07
2.31377e-11
2.42166e-07
2.73182e-11
2.4215e-07
3.28259e-11
2.42129e-07
3.89011e-11
2.42104e-07
4.95631e-11
2.42074e-07
5.76784e-11
2.42028e-07
9.12198e-11
2.41988e-07
7.47152e-11
2.41816e-07
3.4063e-10
2.42011e-07
-4.43634e-10
8.34688e-09
2.39702e-07
2.5597e-07
1.36187e-12
2.55968e-07
4.27391e-12
2.55965e-07
7.3715e-12
2.55962e-07
1.04951e-11
2.55957e-07
1.37767e-11
2.55951e-07
1.72975e-11
2.55943e-07
2.11354e-11
2.55934e-07
2.53887e-11
2.55924e-07
3.01254e-11
2.55911e-07
3.57525e-11
2.55896e-07
4.22509e-11
2.55878e-07
5.07688e-11
2.55857e-07
6.0152e-11
2.5583e-07
7.66074e-11
2.55798e-07
8.93418e-11
2.55749e-07
1.40762e-10
2.55707e-07
1.16472e-10
2.55531e-07
5.1617e-10
2.55657e-07
-5.67828e-10
9.47869e-09
2.5454e-07
2.70482e-07
1.86986e-12
2.70481e-07
5.86352e-12
2.70478e-07
1.01095e-11
2.70474e-07
1.43943e-11
2.70469e-07
1.89014e-11
2.70462e-07
2.37352e-11
2.70454e-07
2.90032e-11
2.70445e-07
3.48466e-11
2.70434e-07
4.13927e-11
2.7042e-07
4.9128e-11
2.70404e-07
5.80573e-11
2.70385e-07
6.97579e-11
2.70363e-07
8.27293e-11
2.70334e-07
1.05278e-10
2.70301e-07
1.22869e-10
2.70249e-07
1.92917e-10
2.70203e-07
1.62218e-10
2.70026e-07
6.9226e-10
2.70079e-07
-6.18478e-10
1.01152e-08
2.69535e-07
2.85817e-07
2.40928e-12
2.85816e-07
7.5473e-12
2.85813e-07
1.30093e-11
2.85809e-07
1.85244e-11
2.85803e-07
2.43247e-11
2.85796e-07
3.05531e-11
2.85788e-07
3.73548e-11
2.85778e-07
4.48933e-11
2.85766e-07
5.33108e-11
2.85752e-07
6.32996e-11
2.85735e-07
7.48598e-11
2.85715e-07
8.99566e-11
2.85691e-07
1.06671e-10
2.85661e-07
1.35695e-10
2.85625e-07
1.58644e-10
2.8557e-07
2.48075e-10
2.8552e-07
2.11874e-10
2.85345e-07
8.66865e-10
2.85327e-07
-5.9878e-10
1.03614e-08
2.85073e-07
3.02022e-07
2.9785e-12
3.0202e-07
9.32373e-12
3.02017e-07
1.60664e-11
3.02013e-07
2.28792e-11
3.02007e-07
3.0051e-11
3.02e-07
3.77508e-11
3.01991e-07
4.61592e-11
3.01981e-07
5.54884e-11
3.01968e-07
6.59534e-11
3.01953e-07
7.83216e-11
3.01935e-07
9.26308e-11
3.01914e-07
1.11315e-10
3.01888e-07
1.32107e-10
3.01856e-07
1.67925e-10
3.01818e-07
1.96513e-10
3.0176e-07
3.05983e-10
3.01705e-07
2.6676e-10
3.01533e-07
1.03897e-09
3.01449e-07
-5.12482e-10
1.05278e-08
3.01343e-07
3.19146e-07
3.58381e-12
3.19144e-07
1.12072e-11
3.19141e-07
1.93067e-11
3.19136e-07
2.74951e-11
3.1913e-07
3.61123e-11
3.19122e-07
4.53762e-11
3.19113e-07
5.55109e-11
3.19102e-07
6.67511e-11
3.19088e-07
7.93154e-11
3.19072e-07
9.42307e-11
3.19054e-07
1.11524e-10
3.19031e-07
1.34042e-10
3.19004e-07
1.59064e-10
3.1897e-07
2.02108e-10
3.18929e-07
2.36955e-10
3.18869e-07
3.6711e-10
3.18808e-07
3.26496e-10
3.18639e-07
1.20763e-09
3.18498e-07
-3.70233e-10
1.05456e-08
3.18461e-07
3.3724e-07
4.22197e-12
3.37238e-07
1.31926e-11
3.37235e-07
2.27199e-11
3.3723e-07
3.23579e-11
3.37223e-07
4.2509e-11
3.37215e-07
5.34199e-11
3.37206e-07
6.53575e-11
3.37194e-07
7.86116e-11
3.37179e-07
9.34882e-11
3.37163e-07
1.11086e-10
3.37143e-07
1.31486e-10
3.37119e-07
1.58041e-10
3.3709e-07
1.87696e-10
3.37054e-07
2.38293e-10
3.37011e-07
2.79743e-10
3.36947e-07
4.31116e-10
3.36881e-07
3.92611e-10
3.36715e-07
1.37323e-09
3.36525e-07
-1.76666e-10
1.05955e-08
3.36515e-07
3.5636e-07
4.90111e-12
3.56358e-07
1.52988e-11
3.56355e-07
2.6339e-11
3.5635e-07
3.75142e-11
3.56343e-07
4.92801e-11
3.56334e-07
6.19423e-11
3.56324e-07
7.58178e-11
3.56311e-07
9.12214e-11
3.56296e-07
1.08456e-10
3.56278e-07
1.28926e-10
3.56257e-07
1.527e-10
3.56232e-07
1.83573e-10
3.56201e-07
2.18016e-10
3.56163e-07
2.76643e-10
3.56117e-07
3.25439e-10
3.5605e-07
4.98555e-10
3.55978e-07
4.64328e-10
3.55815e-07
1.53565e-09
3.55584e-07
5.48057e-11
1.05774e-08
3.55578e-07
3.76565e-07
5.61684e-12
3.76563e-07
1.75179e-11
3.76559e-07
3.0149e-11
3.76553e-07
4.29429e-11
3.76546e-07
5.64236e-11
3.76537e-07
7.0927e-11
3.76526e-07
8.68221e-11
3.76513e-07
1.04486e-10
3.76497e-07
1.24327e-10
3.76478e-07
1.47815e-10
3.76456e-07
1.75093e-10
3.76429e-07
2.10499e-10
3.76396e-07
2.50202e-10
3.76356e-07
3.17192e-10
3.76307e-07
3.73757e-10
3.76237e-07
5.69033e-10
3.76158e-07
5.43263e-10
3.75998e-07
1.69628e-09
3.75734e-07
3.21751e-10
1.0622e-08
3.75719e-07
3.97915e-07
6.37962e-12
3.97912e-07
1.98747e-11
3.97908e-07
3.41923e-11
3.97902e-07
4.8704e-11
3.97895e-07
6.39869e-11
3.97885e-07
8.04503e-11
3.97874e-07
9.85167e-11
3.9786e-07
1.18596e-10
3.97843e-07
1.41073e-10
3.97823e-07
1.67796e-10
3.97799e-07
1.9888e-10
3.97771e-07
2.3914e-10
3.97736e-07
2.84251e-10
3.97693e-07
3.60135e-10
3.97642e-07
4.25316e-10
3.97569e-07
6.43172e-10
3.97482e-07
6.28191e-10
3.97323e-07
1.85527e-09
3.97034e-07
6.10214e-10
1.06256e-08
3.97006e-07
4.20475e-07
7.18281e-12
4.20472e-07
2.23552e-11
4.20468e-07
3.84451e-11
4.20462e-07
5.47641e-11
4.20454e-07
7.19624e-11
4.20444e-07
9.04823e-11
4.20432e-07
1.10808e-10
4.20417e-07
1.33419e-10
4.20399e-07
1.58826e-10
4.20378e-07
1.88936e-10
4.20353e-07
2.23962e-10
4.20323e-07
2.69297e-10
4.20286e-07
3.2037e-10
4.20241e-07
4.05473e-10
4.20186e-07
4.79796e-10
4.20109e-07
7.2056e-10
4.20016e-07
7.20906e-10
4.19857e-07
2.01468e-09
4.19549e-07
9.22322e-10
1.06924e-08
4.19507e-07
4.44314e-07
8.03935e-12
4.44312e-07
2.49913e-11
4.44307e-07
4.29597e-11
4.44301e-07
6.11975e-11
4.44292e-07
8.04068e-11
4.44282e-07
1.01117e-10
4.44269e-07
1.2387e-10
4.44253e-07
1.49188e-10
4.44234e-07
1.77543e-10
4.44212e-07
2.11286e-10
4.44185e-07
2.50589e-10
4.44153e-07
3.01357e-10
4.44115e-07
3.58539e-10
4.44067e-07
4.53438e-10
4.44009e-07
5.37851e-10
4.43928e-07
8.01867e-10
4.43828e-07
8.19778e-10
4.43668e-07
2.17436e-09
4.43345e-07
1.24443e-09
1.07226e-08
4.4329e-07
4.69505e-07
8.94096e-12
4.69502e-07
2.77638e-11
4.69498e-07
4.77056e-11
4.69491e-07
6.79606e-11
4.69482e-07
8.93088e-11
4.69471e-07
1.12314e-10
4.69457e-07
1.37591e-10
4.6944e-07
1.65736e-10
4.6942e-07
1.97379e-10
4.69397e-07
2.34914e-10
4.69369e-07
2.78644e-10
4.69335e-07
3.35069e-10
4.69294e-07
3.98994e-10
4.69244e-07
5.04004e-10
4.69182e-07
5.99133e-10
4.69098e-07
8.86683e-10
4.6899e-07
9.26752e-10
4.68829e-07
2.33654e-09
4.68494e-07
1.58305e-09
1.08085e-08
4.6843e-07
4.96124e-07
9.90354e-12
4.96121e-07
3.0714e-11
4.96116e-07
5.27472e-11
4.96109e-07
7.51461e-11
4.961e-07
9.87361e-11
4.96088e-07
1.24189e-10
4.96073e-07
1.52174e-10
4.96056e-07
1.8335e-10
4.96035e-07
2.18279e-10
4.9601e-07
2.59885e-10
4.9598e-07
3.084e-10
4.95945e-07
3.70892e-10
4.95902e-07
4.41695e-10
4.95848e-07
5.57449e-10
4.95783e-07
6.64291e-10
4.95695e-07
9.75651e-10
4.9558e-07
1.03987e-09
4.95416e-07
2.50034e-09
4.95073e-07
1.92424e-09
1.08569e-08
4.95002e-07
5.24253e-07
1.0916e-11
5.2425e-07
3.3813e-11
5.24244e-07
5.80422e-11
5.24237e-07
8.26927e-11
5.24227e-07
1.0867e-10
5.24214e-07
1.36683e-10
5.24199e-07
1.67483e-10
5.2418e-07
2.01815e-10
5.24158e-07
2.4042e-10
5.24132e-07
2.86262e-10
5.241e-07
3.39735e-10
5.24063e-07
4.0851e-10
5.24017e-07
4.86915e-10
5.23961e-07
6.13701e-10
5.23892e-07
7.33019e-10
5.238e-07
1.06844e-09
5.23678e-07
1.16134e-09
5.23511e-07
2.6681e-09
5.23161e-07
2.27891e-09
1.09515e-08
5.23085e-07
5.53976e-07
1.19974e-11
5.53973e-07
3.71127e-11
5.53967e-07
6.36683e-11
5.53959e-07
9.07128e-11
5.53949e-07
1.19189e-10
5.53935e-07
1.49934e-10
5.53919e-07
1.83751e-10
5.539e-07
2.21467e-10
5.53876e-07
2.63737e-10
5.53848e-07
3.14124e-10
5.53815e-07
3.72941e-10
5.53775e-07
4.48455e-10
5.53727e-07
5.34597e-10
5.53668e-07
6.73089e-10
5.53595e-07
8.05932e-10
5.53499e-07
1.1656e-09
5.53369e-07
1.28896e-09
5.532e-07
2.83805e-09
5.52843e-07
2.63189e-09
1.10064e-08
5.52766e-07
5.85384e-07
1.31346e-11
5.85381e-07
4.05759e-11
5.85375e-07
6.95732e-11
5.85367e-07
9.91302e-11
5.85355e-07
1.30269e-10
5.85341e-07
1.63868e-10
5.85324e-07
2.00825e-10
5.85304e-07
2.42055e-10
5.85279e-07
2.88429e-10
5.8525e-07
3.43535e-10
5.85214e-07
4.07892e-10
5.85173e-07
4.9036e-10
5.85122e-07
5.85042e-10
5.8506e-07
7.35504e-10
5.84983e-07
8.82756e-10
5.84882e-07
1.26689e-09
5.84745e-07
1.42515e-09
5.84572e-07
3.01266e-09
5.84211e-07
2.99706e-09
1.11012e-08
5.84134e-07
6.18574e-07
1.43497e-11
6.1857e-07
4.42679e-11
6.18564e-07
7.58507e-11
6.18555e-07
1.08081e-10
6.18543e-07
1.42004e-10
6.18528e-07
1.78654e-10
6.1851e-07
2.18965e-10
6.18488e-07
2.6397e-10
6.18462e-07
3.14424e-10
6.18431e-07
3.74594e-10
6.18394e-07
4.44893e-10
6.1835e-07
5.34821e-10
6.18297e-07
6.38182e-10
6.18231e-07
8.01325e-10
6.1815e-07
9.64028e-10
6.18045e-07
1.37265e-09
6.179e-07
1.56751e-09
6.17724e-07
3.18926e-09
6.17359e-07
3.35723e-09
1.11571e-08
6.17283e-07
6.53644e-07
1.56269e-11
6.5364e-07
4.81376e-11
6.53634e-07
8.24332e-11
6.53624e-07
1.17467e-10
6.53612e-07
1.54359e-10
6.53596e-07
1.94188e-10
6.53577e-07
2.37996e-10
6.53554e-07
2.86912e-10
6.53527e-07
3.41939e-10
6.53494e-07
4.07352e-10
6.53455e-07
4.83829e-10
6.53408e-07
5.81425e-10
6.53352e-07
6.94345e-10
6.53283e-07
8.70398e-10
6.53197e-07
1.04959e-09
6.53088e-07
1.48289e-09
6.52936e-07
1.7186e-09
6.52756e-07
3.37076e-09
6.52389e-07
3.72866e-09
1.12475e-08
6.52315e-07
6.90704e-07
1.69914e-11
6.90699e-07
5.22649e-11
6.90692e-07
8.94309e-11
6.90683e-07
1.27447e-10
6.90669e-07
1.67441e-10
6.90653e-07
2.1067e-10
6.90633e-07
2.58209e-10
6.90609e-07
3.11323e-10
6.90579e-07
3.70897e-10
6.90545e-07
4.41932e-10
6.90504e-07
5.25009e-10
6.90455e-07
6.30821e-10
6.90395e-07
7.53457e-10
6.90323e-07
9.43148e-10
6.90232e-07
1.13988e-09
6.90119e-07
1.59766e-09
6.89959e-07
1.87587e-09
6.89776e-07
3.55373e-09
6.89408e-07
4.09184e-09
1.13003e-08
6.89336e-07
7.29864e-07
1.84255e-11
7.2986e-07
5.65867e-11
7.29852e-07
9.67637e-11
7.29842e-07
1.37905e-10
7.29828e-07
1.81207e-10
7.29811e-07
2.27976e-10
7.29789e-07
2.79409e-10
7.29764e-07
3.3687e-10
7.29733e-07
4.01528e-10
7.29697e-07
4.78374e-10
7.29653e-07
5.68324e-10
7.29601e-07
6.82565e-10
7.29539e-07
8.15859e-10
7.29463e-07
1.01939e-09
7.29368e-07
1.2348e-09
7.29249e-07
1.71724e-09
7.29082e-07
2.04186e-09
7.28896e-07
3.74168e-09
7.28528e-07
4.46475e-09
1.13843e-08
7.28458e-07
7.71244e-07
1.9957e-11
7.7124e-07
6.12003e-11
7.71232e-07
1.04561e-10
7.71221e-07
1.49027e-10
7.71206e-07
1.95783e-10
7.71188e-07
2.46339e-10
7.71166e-07
3.01913e-10
7.71139e-07
3.64036e-10
7.71106e-07
4.33765e-10
7.71068e-07
5.1683e-10
7.71022e-07
6.14088e-10
7.70968e-07
7.37338e-10
7.70902e-07
8.81481e-10
7.70822e-07
1.09957e-09
7.70722e-07
1.33466e-09
7.70599e-07
1.84127e-09
7.70424e-07
2.21389e-09
7.70236e-07
3.93035e-09
7.69869e-07
4.82585e-09
1.14339e-08
7.69802e-07
8.14971e-07
2.15661e-11
8.14966e-07
6.60255e-11
8.14958e-07
1.12724e-10
8.14946e-07
1.6067e-10
8.14931e-07
2.11111e-10
8.14912e-07
2.65605e-10
8.14888e-07
3.2551e-10
8.1486e-07
3.92458e-10
8.14825e-07
4.67832e-10
8.14785e-07
5.57317e-10
8.14737e-07
6.62204e-10
8.1468e-07
7.94685e-10
8.1461e-07
9.50655e-10
8.14526e-07
1.18349e-09
8.14421e-07
1.43948e-09
8.14293e-07
1.97048e-09
8.14112e-07
2.39434e-09
8.13921e-07
4.1241e-09
8.13557e-07
5.19416e-09
1.15108e-08
8.13493e-07
8.61177e-07
2.3283e-11
8.61172e-07
7.11768e-11
8.61163e-07
1.21403e-10
8.61151e-07
1.7305e-10
8.61135e-07
2.27336e-10
8.61114e-07
2.86039e-10
8.61089e-07
3.50541e-10
8.61059e-07
4.22655e-10
8.61023e-07
5.03678e-10
8.60981e-07
6.00021e-10
8.6093e-07
7.12983e-10
8.6087e-07
8.55301e-10
8.60797e-07
1.02333e-09
8.60709e-07
1.27162e-09
8.60599e-07
1.54941e-09
8.60466e-07
2.10404e-09
8.60278e-07
2.58041e-09
8.60084e-07
4.3179e-09
8.59726e-07
5.54674e-09
1.15556e-08
8.59665e-07
9.10003e-07
2.50861e-11
9.09997e-07
7.65596e-11
9.09988e-07
1.30484e-10
9.09975e-07
1.86002e-10
9.09958e-07
2.44385e-10
9.09936e-07
3.07464e-10
9.0991e-07
3.76777e-10
9.09879e-07
4.54242e-10
9.09841e-07
5.41515e-10
9.09796e-07
6.44934e-10
9.09742e-07
7.66333e-10
9.09679e-07
9.18729e-10
9.09602e-07
1.09979e-09
9.0951e-07
1.36371e-09
9.09395e-07
1.66456e-09
9.09257e-07
2.24311e-09
9.09063e-07
2.77422e-09
9.08866e-07
4.51688e-09
9.08515e-07
5.90346e-09
1.16249e-08
9.08457e-07
9.61596e-07
2.70075e-11
9.61591e-07
8.23079e-11
9.61581e-07
1.40137e-10
9.61567e-07
1.99765e-10
9.61549e-07
2.6243e-10
9.61527e-07
3.30177e-10
9.61499e-07
4.04586e-10
9.61466e-07
4.87755e-10
9.61426e-07
5.81328e-10
9.61378e-07
6.92271e-10
9.61322e-07
8.22567e-10
9.61256e-07
9.8564e-10
9.61175e-07
1.18003e-09
9.61079e-07
1.46023e-09
9.60959e-07
1.78484e-09
9.60816e-07
2.3863e-09
9.60615e-07
2.97292e-09
9.60417e-07
4.7152e-09
9.60074e-07
6.24077e-09
1.16653e-08
9.60019e-07
1.01612e-06
2.90247e-11
1.01611e-06
8.8308e-11
1.0161e-06
1.50231e-10
1.01608e-06
2.14157e-10
1.01607e-06
2.81373e-10
1.01604e-06
3.53974e-10
1.01601e-06
4.33719e-10
1.01598e-06
5.22808e-10
1.01594e-06
6.23285e-10
1.01589e-06
7.42003e-10
1.01583e-06
8.81585e-10
1.01576e-06
1.05562e-09
1.01567e-06
1.26427e-09
1.01557e-06
1.56094e-09
1.01545e-06
1.91048e-09
1.0153e-06
2.53532e-09
1.01509e-06
3.17823e-09
1.01489e-06
4.91868e-09
1.01456e-06
6.57848e-09
1.17264e-08
1.01451e-06
1.07373e-06
3.11708e-11
1.07372e-06
9.47129e-11
1.07371e-06
1.60954e-10
1.07369e-06
2.29438e-10
1.07367e-06
3.01414e-10
1.07365e-06
3.79183e-10
1.07362e-06
4.64566e-10
1.07358e-06
5.59946e-10
1.07354e-06
6.67416e-10
1.07348e-06
7.94372e-10
1.07342e-06
9.43706e-10
1.07335e-06
1.12929e-09
1.07326e-06
1.35251e-09
1.07315e-06
1.66628e-09
1.07302e-06
2.04118e-09
1.07287e-06
2.6882e-09
1.07266e-06
3.38723e-09
1.07246e-06
5.12069e-09
1.07214e-06
6.89317e-09
1.17607e-08
1.07209e-06
1.1346e-06
3.34219e-11
1.13459e-06
1.01391e-10
1.13458e-06
1.7216e-10
1.13457e-06
2.45408e-10
1.13455e-06
3.22429e-10
1.13452e-06
4.05575e-10
1.13449e-06
4.96859e-10
1.13445e-06
5.98778e-10
1.1344e-06
7.1384e-10
1.13435e-06
8.49315e-10
1.13428e-06
1.00881e-09
1.13421e-06
1.20627e-09
1.13411e-06
1.4449e-09
1.134e-06
1.77597e-09
1.13387e-06
2.17723e-09
1.13371e-06
2.84706e-09
1.1335e-06
3.60141e-09
1.13329e-06
5.32764e-09
1.13299e-06
7.20479e-09
1.18125e-08
1.13294e-06
1.19893e-06
3.5812e-11
1.19892e-06
1.08516e-10
1.19891e-06
1.84059e-10
1.19889e-06
2.62345e-10
1.19887e-06
3.44652e-10
1.19884e-06
4.335e-10
1.19881e-06
5.31014e-10
1.19877e-06
6.39835e-10
1.19872e-06
7.62654e-10
1.19866e-06
9.07094e-10
1.19859e-06
1.07723e-09
1.19851e-06
1.28709e-09
1.19842e-06
1.54151e-09
1.1983e-06
1.89036e-09
1.19816e-06
2.31805e-09
1.198e-06
3.00933e-09
1.19778e-06
3.81777e-09
1.19758e-06
5.53206e-09
1.19729e-06
7.49093e-09
1.184e-08
1.19725e-06
1.2669e-06
3.83174e-11
1.2669e-06
1.15938e-10
1.26688e-06
1.96482e-10
1.26687e-06
2.80037e-10
1.26684e-06
3.67925e-10
1.26681e-06
4.62716e-10
1.26678e-06
5.66735e-10
1.26674e-06
6.82757e-10
1.26668e-06
8.1389e-10
1.26662e-06
9.67625e-10
1.26655e-06
1.1488e-09
1.26647e-06
1.37145e-09
1.26637e-06
1.64231e-09
1.26625e-06
2.00923e-09
1.2661e-06
2.46404e-09
1.26594e-06
3.17753e-09
1.26572e-06
4.0375e-09
1.26551e-06
5.74068e-09
1.26524e-06
7.77057e-09
1.18811e-08
1.2652e-06
1.33873e-06
4.09719e-11
1.33873e-06
1.23848e-10
1.33871e-06
2.09663e-10
1.33869e-06
2.98777e-10
1.33867e-06
3.92515e-10
1.33864e-06
4.93592e-10
1.3386e-06
6.04462e-10
1.33856e-06
7.28054e-10
1.3385e-06
8.67708e-10
1.33844e-06
1.03119e-09
1.33836e-06
1.22386e-09
1.33828e-06
1.45979e-09
1.33817e-06
1.74742e-09
1.33805e-06
2.13278e-09
1.3379e-06
2.61429e-09
1.33773e-06
3.34855e-09
1.3375e-06
4.25747e-09
1.3373e-06
5.94533e-09
1.33704e-06
8.02288e-09
1.18992e-08
1.33701e-06
1.41463e-06
4.3751e-11
1.41463e-06
1.32076e-10
1.41461e-06
2.23413e-10
1.41459e-06
3.18338e-10
1.41457e-06
4.18234e-10
1.41453e-06
5.25861e-10
1.4145e-06
6.43876e-10
1.41445e-06
7.75368e-10
1.41439e-06
9.24071e-10
1.41432e-06
1.09764e-09
1.41425e-06
1.3022e-09
1.41415e-06
1.55181e-09
1.41405e-06
1.85673e-09
1.41392e-06
2.26079e-09
1.41376e-06
2.76937e-09
1.41359e-06
3.52507e-09
1.41337e-06
4.47895e-09
1.41316e-06
6.15286e-09
1.41292e-06
8.26638e-09
1.19272e-08
1.4129e-06
1.49484e-06
4.66877e-11
1.49483e-06
1.4083e-10
1.49482e-06
2.37981e-10
1.4948e-06
3.39017e-10
1.49477e-06
4.45375e-10
1.49473e-06
5.59892e-10
1.49469e-06
6.85433e-10
1.49464e-06
8.25163e-10
1.49458e-06
9.83206e-10
1.49451e-06
1.16726e-09
1.49443e-06
1.38418e-09
1.49434e-06
1.64782e-09
1.49422e-06
1.97034e-09
1.49409e-06
2.39318e-09
1.49393e-06
2.92803e-09
1.49375e-06
3.70347e-09
1.49353e-06
4.69872e-09
1.49333e-06
6.35465e-09
1.49311e-06
8.48252e-09
1.19343e-08
1.49309e-06
1.57959e-06
4.97599e-11
1.57958e-06
1.4993e-10
1.57957e-06
2.53168e-10
1.57954e-06
3.60594e-10
1.57952e-06
4.7372e-10
1.57948e-06
5.95436e-10
1.57944e-06
7.28785e-10
1.57939e-06
8.77147e-10
1.57932e-06
1.04496e-09
1.57925e-06
1.23992e-09
1.57917e-06
1.4695e-09
1.57907e-06
1.74764e-09
1.57895e-06
2.08796e-09
1.57881e-06
2.52995e-09
1.57865e-06
3.09082e-09
1.57847e-06
3.8866e-09
1.57825e-06
4.91781e-09
1.57805e-06
6.55728e-09
1.57785e-06
8.68782e-09
1.19469e-08
1.57784e-06
1.66915e-06
5.29979e-11
1.66914e-06
1.59598e-10
1.66912e-06
2.69235e-10
1.6691e-06
3.83365e-10
1.66907e-06
5.03584e-10
1.66903e-06
6.32848e-10
1.66899e-06
7.74392e-10
1.66893e-06
9.31716e-10
1.66887e-06
1.10961e-09
1.66879e-06
1.31582e-09
1.6687e-06
1.55847e-09
1.6686e-06
1.85136e-09
1.66848e-06
2.20965e-09
1.66834e-06
2.67057e-09
1.66817e-06
3.25611e-09
1.66799e-06
4.07018e-09
1.66777e-06
5.13294e-09
1.66758e-06
6.7518e-09
1.66739e-06
8.86624e-09
1.19394e-08
1.66739e-06
1.76378e-06
5.63806e-11
1.76377e-06
1.69629e-10
1.76376e-06
2.85958e-10
1.76373e-06
4.07092e-10
1.7637e-06
5.34717e-10
1.76366e-06
6.71856e-10
1.76361e-06
8.2189e-10
1.76356e-06
9.88581e-10
1.76349e-06
1.17695e-09
1.76341e-06
1.39484e-09
1.76332e-06
1.6508e-09
1.76321e-06
1.95885e-09
1.76309e-06
2.3351e-09
1.76294e-06
2.81522e-09
1.76277e-06
3.4248e-09
1.76259e-06
4.25734e-09
1.76238e-06
5.34556e-09
1.76219e-06
6.94485e-09
1.76202e-06
9.03339e-09
1.19346e-08
1.76203e-06
1.86378e-06
5.99349e-11
1.86377e-06
1.80253e-10
1.86375e-06
3.03603e-10
1.86373e-06
4.32067e-10
1.8637e-06
5.6743e-10
1.86366e-06
7.12801e-10
1.86361e-06
8.71692e-10
1.86355e-06
1.04808e-09
1.86348e-06
1.24721e-09
1.86339e-06
1.47708e-09
1.8633e-06
1.74664e-09
1.86319e-06
2.07e-09
1.86306e-06
2.46412e-09
1.86291e-06
2.9629e-09
1.86274e-06
3.5947e-09
1.86255e-06
4.44328e-09
1.86235e-06
5.55213e-09
1.86216e-06
7.12758e-09
1.86202e-06
9.17561e-09
1.19113e-08
1.86203e-06
1.96945e-06
6.36414e-11
1.96944e-06
1.91255e-10
1.96942e-06
3.21941e-10
1.9694e-06
4.58044e-10
1.96936e-06
6.01469e-10
1.96932e-06
7.55399e-10
1.96927e-06
9.23466e-10
1.96921e-06
1.10993e-09
1.96913e-06
1.32019e-09
1.96905e-06
1.56241e-09
1.96895e-06
1.84579e-09
1.96883e-06
2.18472e-09
1.9687e-06
2.59656e-09
1.96855e-06
3.114e-09
1.96838e-06
3.76701e-09
1.96819e-06
4.63117e-09
1.96799e-06
5.7545e-09
1.96782e-06
7.30625e-09
1.96769e-06
9.3066e-09
1.18883e-08
1.96771e-06
2.08111e-06
6.75221e-11
2.0811e-06
2.0287e-10
2.08108e-06
3.41227e-10
2.08105e-06
4.85305e-10
2.08102e-06
6.37125e-10
2.08097e-06
7.99962e-10
2.08092e-06
9.77554e-10
2.08086e-06
1.17439e-09
2.08078e-06
1.39604e-09
2.08069e-06
1.65081e-09
2.08059e-06
1.94819e-09
2.08047e-06
2.3026e-09
2.08034e-06
2.73186e-09
2.08018e-06
3.26697e-09
2.08001e-06
3.93908e-09
2.07983e-06
4.81574e-09
2.07963e-06
5.9489e-09
2.07946e-06
7.47238e-09
2.07935e-06
9.41494e-09
1.18483e-08
2.07938e-06
2.1991e-06
7.15602e-11
2.19909e-06
2.14866e-10
2.19907e-06
3.61226e-10
2.19904e-06
5.1359e-10
2.19901e-06
6.74133e-10
2.19896e-06
8.46196e-10
2.1989e-06
1.03364e-09
2.19884e-06
1.24118e-09
2.19876e-06
1.47454e-09
2.19867e-06
1.74216e-09
2.19856e-06
2.05368e-09
2.19844e-06
2.42367e-09
2.1983e-06
2.86998e-09
2.19815e-06
3.42247e-09
2.19798e-06
4.1123e-09
2.19779e-06
5.00042e-09
2.1976e-06
6.13755e-09
2.19745e-06
7.63216e-09
2.19735e-06
9.51258e-09
1.18072e-08
2.19739e-06
2.32379e-06
7.57708e-11
2.32377e-06
2.27474e-10
2.32375e-06
3.82168e-10
2.32372e-06
5.43159e-10
2.32368e-06
7.12736e-10
2.32364e-06
8.94367e-10
2.32358e-06
1.09195e-09
2.32351e-06
1.31048e-09
2.32343e-06
1.55572e-09
2.32333e-06
1.83632e-09
2.32323e-06
2.16193e-09
2.3231e-06
2.54726e-09
2.32296e-06
3.00996e-09
2.32281e-06
3.57851e-09
2.32263e-06
4.2836e-09
2.32245e-06
5.1798e-09
2.32227e-06
6.31646e-09
2.32213e-06
7.7779e-09
2.32204e-06
9.59014e-09
1.17513e-08
2.3221e-06
2.45554e-06
8.01399e-11
2.45552e-06
2.4046e-10
2.4555e-06
4.03826e-10
2.45547e-06
5.73745e-10
2.45543e-06
7.52687e-10
2.45538e-06
9.44167e-10
2.45532e-06
1.15221e-09
2.45525e-06
1.38198e-09
2.45516e-06
1.63939e-09
2.45507e-06
1.93309e-09
2.45496e-06
2.27289e-09
2.45483e-06
2.67337e-09
2.45469e-06
3.15196e-09
2.45453e-06
3.7358e-09
2.45436e-06
4.45454e-09
2.45419e-06
5.35705e-09
2.45402e-06
6.48823e-09
2.45388e-06
7.91526e-09
2.45381e-06
9.6575e-09
1.16932e-08
2.45387e-06
2.59476e-06
8.46742e-11
2.59474e-06
2.54033e-10
2.59472e-06
4.26392e-10
2.59469e-06
6.05567e-10
2.59465e-06
7.94159e-10
2.59459e-06
9.95795e-10
2.59453e-06
1.21454e-09
2.59446e-06
1.45576e-09
2.59437e-06
1.7254e-09
2.59427e-06
2.03223e-09
2.59416e-06
2.38596e-09
2.59403e-06
2.80109e-09
2.59389e-06
3.2946e-09
2.59373e-06
3.8921e-09
2.59357e-06
4.62185e-09
2.5934e-06
5.52708e-09
2.59323e-06
6.64882e-09
2.59311e-06
8.0377e-09
2.59306e-06
9.7072e-09
1.16228e-08
2.59312e-06
2.74187e-06
8.93629e-11
2.74185e-06
2.67975e-10
2.74183e-06
4.4965e-10
2.7418e-06
6.38366e-10
2.74176e-06
8.36914e-10
2.7417e-06
1.04895e-09
2.74164e-06
1.27867e-09
2.74156e-06
1.5315e-09
2.74147e-06
1.81356e-09
2.74137e-06
2.13348e-09
2.74126e-06
2.50107e-09
2.74113e-06
2.93042e-09
2.74099e-06
3.43808e-09
2.74083e-06
4.04806e-09
2.74067e-06
4.7869e-09
2.7405e-06
5.69267e-09
2.74035e-06
6.80075e-09
2.74024e-06
8.15012e-09
2.7402e-06
9.74685e-09
1.15493e-08
2.74027e-06
2.89732e-06
9.42029e-11
2.89731e-06
2.82454e-10
2.89728e-06
4.73742e-10
2.89725e-06
6.72296e-10
2.89721e-06
8.81043e-10
2.89715e-06
1.10372e-09
2.89709e-06
1.34458e-09
2.89701e-06
1.60915e-09
2.89692e-06
1.90357e-09
2.89681e-06
2.23644e-09
2.8967e-06
2.61742e-09
2.89657e-06
3.06023e-09
2.89643e-06
3.58079e-09
2.89627e-06
4.20133e-09
2.89611e-06
4.9465e-09
2.89596e-06
5.84928e-09
2.89581e-06
6.9403e-09
2.89572e-06
8.24731e-09
2.89569e-06
9.77083e-09
1.14654e-08
2.89577e-06
3.06159e-06
9.91853e-11
3.06157e-06
2.97272e-10
3.06155e-06
4.98465e-10
3.06152e-06
7.07109e-10
3.06147e-06
9.2631e-10
3.06141e-06
1.15982e-09
3.06135e-06
1.41201e-09
3.06127e-06
1.68838e-09
3.06118e-06
1.99518e-09
3.06107e-06
2.3408e-09
3.06095e-06
2.73485e-09
3.06082e-06
3.19044e-09
3.06068e-06
3.72282e-09
3.06053e-06
4.35242e-09
3.06038e-06
5.10175e-09
3.06023e-06
5.99916e-09
3.0601e-06
7.06972e-09
3.06001e-06
8.3333e-09
3.06e-06
9.78473e-09
1.13779e-08
3.06009e-06
3.23517e-06
1.04297e-10
3.23516e-06
3.12549e-10
3.23513e-06
5.23897e-10
3.23509e-06
7.42875e-10
3.23505e-06
9.72713e-10
3.23499e-06
1.21723e-09
3.23492e-06
1.4808e-09
3.23484e-06
1.76896e-09
3.23475e-06
2.08795e-09
3.23464e-06
2.44597e-09
3.23453e-06
2.85242e-09
3.2344e-06
3.31977e-09
3.23426e-06
3.86244e-09
3.23411e-06
4.49901e-09
3.23396e-06
5.24974e-09
3.23382e-06
6.13853e-09
3.23371e-06
7.18586e-09
3.23363e-06
8.40421e-09
3.23363e-06
9.78459e-09
1.12816e-08
3.23373e-06
3.41859e-06
1.09528e-10
3.41858e-06
3.28109e-10
3.41855e-06
5.49846e-10
3.41851e-06
7.79353e-10
3.41847e-06
1.02e-09
3.41841e-06
1.27562e-09
3.41834e-06
1.55064e-09
3.41826e-06
1.85053e-09
3.41816e-06
2.18155e-09
3.41806e-06
2.55159e-09
3.41794e-06
2.96983e-09
3.41781e-06
3.448e-09
3.41768e-06
3.99962e-09
3.41754e-06
4.64138e-09
3.41739e-06
5.39125e-09
3.41726e-06
6.26908e-09
3.41716e-06
7.29062e-09
3.4171e-06
8.46318e-09
3.41711e-06
9.77438e-09
1.11811e-08
3.41721e-06
3.61241e-06
1.14854e-10
3.6124e-06
3.4401e-10
3.61237e-06
5.7632e-10
3.61234e-06
8.1652e-10
3.61229e-06
1.06808e-09
3.61223e-06
1.33485e-09
3.61216e-06
1.62126e-09
3.61208e-06
1.93272e-09
3.61198e-06
2.27539e-09
3.61188e-06
2.65689e-09
3.61176e-06
3.08603e-09
3.61163e-06
3.57378e-09
3.6115e-06
4.13262e-09
3.61137e-06
4.77741e-09
3.61123e-06
5.52377e-09
3.61111e-06
6.38786e-09
3.61102e-06
7.38154e-09
3.61098e-06
8.5075e-09
3.611e-06
9.7515e-09
1.10732e-08
3.61111e-06
3.81723e-06
1.20263e-10
3.81721e-06
3.60098e-10
3.81718e-06
6.0313e-10
3.81714e-06
8.54132e-10
3.8171e-06
1.11667e-09
3.81704e-06
1.39459e-09
3.81697e-06
1.6923e-09
3.81688e-06
2.0151e-09
3.81679e-06
2.36904e-09
3.81669e-06
2.7614e-09
3.81657e-06
3.20059e-09
3.81645e-06
3.69673e-09
3.81632e-06
4.26123e-09
3.81619e-06
4.90713e-09
3.81607e-06
5.6478e-09
3.81596e-06
6.49605e-09
3.81588e-06
7.46012e-09
3.81585e-06
8.53954e-09
3.81588e-06
9.7187e-09
1.09606e-08
3.816e-06
4.03365e-06
1.2572e-10
4.03363e-06
3.76369e-10
4.0336e-06
6.30209e-10
4.03357e-06
8.92067e-10
4.03352e-06
1.16557e-09
4.03346e-06
1.45454e-09
4.03339e-06
1.76334e-09
4.03331e-06
2.09714e-09
4.03321e-06
2.4618e-09
4.03311e-06
2.86425e-09
4.033e-06
3.31239e-09
4.03288e-06
3.81549e-09
4.03276e-06
4.38384e-09
4.03263e-06
5.02872e-09
4.03252e-06
5.76132e-09
4.03243e-06
6.59151e-09
4.03236e-06
7.52463e-09
4.03234e-06
8.55759e-09
4.03239e-06
9.67437e-09
1.08414e-08
4.0325e-06
4.26234e-06
1.31206e-10
4.26232e-06
3.92683e-10
4.2623e-06
6.57364e-10
4.26226e-06
9.30068e-10
4.26221e-06
1.21447e-09
4.26215e-06
1.51433e-09
4.26208e-06
1.83395e-09
4.262e-06
2.17834e-09
4.26191e-06
2.55313e-09
4.26181e-06
2.96484e-09
4.2617e-06
3.42085e-09
4.26159e-06
3.92955e-09
4.26147e-06
4.50007e-09
4.26136e-06
5.14202e-09
4.26125e-06
5.86456e-09
4.26117e-06
6.67502e-09
4.26112e-06
7.57621e-09
4.26111e-06
8.56332e-09
4.26117e-06
9.62037e-09
1.07173e-08
4.26129e-06
4.504e-06
1.36679e-10
4.50398e-06
4.08977e-10
4.50396e-06
6.84456e-10
4.50392e-06
9.67921e-10
4.50387e-06
1.26305e-09
4.50381e-06
1.57355e-09
4.50374e-06
1.90362e-09
4.50366e-06
2.25805e-09
4.50357e-06
2.64223e-09
4.50348e-06
3.06224e-09
4.50337e-06
3.52487e-09
4.50326e-06
4.03763e-09
4.50316e-06
4.6085e-09
4.50305e-06
5.24555e-09
4.50296e-06
5.95605e-09
4.50289e-06
6.74517e-09
4.50285e-06
7.61376e-09
4.50286e-06
8.55578e-09
4.50292e-06
9.55581e-09
1.05872e-08
4.50305e-06
4.75936e-06
1.42109e-10
4.75934e-06
4.25115e-10
4.75932e-06
7.11279e-10
4.75928e-06
1.00534e-09
4.75923e-06
1.31096e-09
4.75917e-06
1.63178e-09
4.75911e-06
1.97183e-09
4.75903e-06
2.33569e-09
4.75894e-06
2.72847e-09
4.75885e-06
3.15576e-09
4.75875e-06
3.62376e-09
4.75865e-06
4.13909e-09
4.75855e-06
4.70863e-09
4.75846e-06
5.33902e-09
4.75838e-06
6.03584e-09
4.75832e-06
6.80244e-09
4.75829e-06
7.63812e-09
4.75831e-06
8.53614e-09
4.75839e-06
9.48192e-09
1.0452e-08
4.75852e-06
5.0292e-06
1.47447e-10
5.02918e-06
4.40987e-10
5.02916e-06
7.3763e-10
5.02912e-06
1.04203e-09
5.02907e-06
1.35782e-09
5.02902e-06
1.6885e-09
5.02895e-06
2.03797e-09
5.02888e-06
2.41054e-09
5.02879e-06
2.81099e-09
5.0287e-06
3.24445e-09
5.02861e-06
3.71645e-09
5.02852e-06
4.23281e-09
5.02843e-06
4.79932e-09
5.02835e-06
5.42132e-09
5.02828e-06
6.10292e-09
5.02823e-06
6.84601e-09
5.02822e-06
7.64872e-09
5.02826e-06
8.50399e-09
5.02834e-06
9.39828e-09
1.0311e-08
5.02848e-06
5.31434e-06
1.52655e-10
5.31432e-06
4.56449e-10
5.31429e-06
7.63284e-10
5.31426e-06
1.07769e-09
5.31421e-06
1.40321e-09
5.31416e-06
1.74324e-09
5.3141e-06
2.10146e-09
5.31402e-06
2.48195e-09
5.31395e-06
2.88909e-09
5.31386e-06
3.32754e-09
5.31378e-06
3.80222e-09
5.31369e-06
4.31812e-09
5.31361e-06
4.88002e-09
5.31354e-06
5.49212e-09
5.31349e-06
6.15728e-09
5.31346e-06
6.87618e-09
5.31346e-06
7.64616e-09
5.3135e-06
8.46012e-09
5.3136e-06
9.30565e-09
1.01649e-08
5.31374e-06
5.61564e-06
1.57678e-10
5.61562e-06
4.71362e-10
5.6156e-06
7.87991e-10
5.61557e-06
1.11195e-09
5.61552e-06
1.44668e-09
5.61547e-06
1.79542e-09
5.61541e-06
2.16165e-09
5.61534e-06
2.54915e-09
5.61527e-06
2.96192e-09
5.61519e-06
3.40416e-09
5.61512e-06
3.88013e-09
5.61504e-06
4.39407e-09
5.61497e-06
4.94987e-09
5.61491e-06
5.55068e-09
5.61487e-06
6.19834e-09
5.61485e-06
6.8926e-09
5.61487e-06
7.63029e-09
5.61493e-06
8.40448e-09
5.61503e-06
9.20397e-09
1.00134e-08
5.61518e-06
5.93403e-06
1.62469e-10
5.93401e-06
4.85567e-10
5.93399e-06
8.11505e-10
5.93396e-06
1.14447e-09
5.93391e-06
1.48779e-09
5.93387e-06
1.84453e-09
5.93381e-06
2.21793e-09
5.93375e-06
2.61146e-09
5.93368e-06
3.02876e-09
5.93361e-06
3.47353e-09
5.93354e-06
3.94945e-09
5.93348e-06
4.46003e-09
5.93342e-06
5.00836e-09
5.93337e-06
5.59671e-09
5.93334e-06
6.22606e-09
5.93334e-06
6.8955e-09
5.93337e-06
7.60155e-09
5.93344e-06
8.33761e-09
5.93355e-06
9.09369e-09
9.85654e-09
5.9337e-06
6.27046e-06
1.66971e-10
6.27045e-06
4.98912e-10
6.27043e-06
8.33552e-10
6.2704e-06
1.17488e-09
6.27036e-06
1.52606e-09
6.27031e-06
1.88998e-09
6.27026e-06
2.26963e-09
6.27021e-06
2.66816e-09
6.27015e-06
3.08884e-09
6.27008e-06
3.53488e-09
6.27002e-06
4.00942e-09
6.26997e-06
4.51531e-09
6.26992e-06
5.05492e-09
6.26989e-06
5.62979e-09
6.26988e-06
6.24023e-09
6.26989e-06
6.88485e-09
6.26993e-06
7.56006e-09
6.27001e-06
8.25971e-09
6.27012e-06
8.97493e-09
9.6944e-09
6.27029e-06
6.62598e-06
1.71132e-10
6.62596e-06
5.11228e-10
6.62594e-06
8.53874e-10
6.62592e-06
1.20281e-09