/*--------------------------------*- C++ -*----------------------------------*\
| =========                 |                                                 |
| \\      /  F ield         | OpenFOAM: The Open Source CFD Toolbox           |
|  \\    /   O peration     | Version:  v1912                                 |
|   \\  /    A nd           | Website:  www.openfoam.com                      |
|    \\/     M anipulation  |                                                 |
\*---------------------------------------------------------------------------*/
FoamFile
{
    version     2.0;
    format      ascii;
    class       volVectorField;
    location    "100";
    object      U;
}
// * * * * * * * * * * * * * * * * * * * * * * * * * * * * * * * * * * * * * //

dimensions      [0 1 -1 0 0 0 0];


internalField   nonuniform List<vector> 
10000
(
(1 2.14428e-08 0)
(0.999996 6.73356e-08 0)
(0.999988 1.16202e-07 0)
(0.999976 1.65313e-07 0)
(0.999959 2.16959e-07 0)
(0.999938 2.7216e-07 0)
(0.999911 3.31983e-07 0)
(0.99988 3.98362e-07 0)
(0.999842 4.73456e-07 0)
(0.999797 5.61087e-07 0)
(0.999744 6.61562e-07 0)
(0.999681 7.94665e-07 0)
(0.999604 9.42744e-07 0)
(0.999516 1.20169e-06 0)
(0.999394 1.39238e-06 0)
(0.999273 2.2144e-06 0)
(0.999005 1.8023e-06 0)
(0.998962 8.45733e-06 0)
(0.997523 -1.3787e-05 0)
(1.00119 0.000713414 0)
(1 6.56176e-08 0)
(0.999996 2.05971e-07 0)
(0.999988 3.55432e-07 0)
(0.999976 5.05953e-07 0)
(0.999959 6.63644e-07 0)
(0.999938 8.33034e-07 0)
(0.999911 1.01741e-06 0)
(0.99988 1.22211e-06 0)
(0.999841 1.44817e-06 0)
(0.999797 1.71857e-06 0)
(0.999743 2.02989e-06 0)
(0.99968 2.4403e-06 0)
(0.999603 2.88674e-06 0)
(0.999515 3.68256e-06 0)
(0.999392 4.28461e-06 0)
(0.999271 6.79759e-06 0)
(0.999003 5.49407e-06 0)
(0.998957 2.55964e-05 0)
(0.997556 -3.66827e-05 0)
(1.00061 0.000593866 0)
(1 1.12183e-07 0)
(0.999996 3.52157e-07 0)
(0.999988 6.07467e-07 0)
(0.999976 8.64799e-07 0)
(0.999959 1.13513e-06 0)
(0.999938 1.42499e-06 0)
(0.999911 1.74057e-06 0)
(0.999879 2.09054e-06 0)
(0.999841 2.48099e-06 0)
(0.999796 2.94371e-06 0)
(0.999743 3.47717e-06 0)
(0.99968 4.17815e-06 0)
(0.999602 4.95063e-06 0)
(0.999513 6.3067e-06 0)
(0.99939 7.34655e-06 0)
(0.999268 1.16015e-05 0)
(0.999001 9.53268e-06 0)
(0.998948 4.30584e-05 0)
(0.997604 -5.27146e-05 0)
(0.999977 0.000913469 0)
(1 1.61639e-07 0)
(0.999996 5.06934e-07 0)
(0.999988 8.74131e-07 0)
(0.999976 1.24454e-06 0)
(0.999959 1.63394e-06 0)
(0.999938 2.0516e-06 0)
(0.999911 2.50676e-06 0)
(0.999879 3.01142e-06 0)
(0.999841 3.57534e-06 0)
(0.999796 4.24317e-06 0)
(0.999742 5.01411e-06 0)
(0.999679 6.02468e-06 0)
(0.999601 7.14183e-06 0)
(0.999512 9.09215e-06 0)
(0.999388 1.06059e-05 0)
(0.999266 1.66866e-05 0)
(0.998999 1.39e-05 0)
(0.998936 6.06819e-05 0)
(0.997669 -6.12332e-05 0)
(0.999381 0.00100036 0)
(1 2.14028e-07 0)
(0.999996 6.70617e-07 0)
(0.999988 1.15602e-06 0)
(0.999976 1.646e-06 0)
(0.999959 2.16136e-06 0)
(0.999938 2.7144e-06 0)
(0.999911 3.31771e-06 0)
(0.999879 3.98661e-06 0)
(0.999841 4.73471e-06 0)
(0.999796 5.62061e-06 0)
(0.999742 6.64452e-06 0)
(0.999678 7.984e-06 0)
(0.9996 9.46785e-06 0)
(0.999511 1.20467e-05 0)
(0.999386 1.40705e-05 0)
(0.999263 2.20539e-05 0)
(0.998997 1.86631e-05 0)
(0.998923 7.82531e-05 0)
(0.997744 -6.25139e-05 0)
(0.998858 0.00103068 0)
(1 2.69481e-07 0)
(0.999996 8.43657e-07 0)
(0.999988 1.45392e-06 0)
(0.999976 2.0703e-06 0)
(0.999959 2.71889e-06 0)
(0.999938 3.41526e-06 0)
(0.999911 4.17564e-06 0)
(0.999879 5.01887e-06 0)
(0.999841 5.96276e-06 0)
(0.999795 7.08035e-06 0)
(0.999741 8.37338e-06 0)
(0.999677 1.00621e-05 0)
(0.999599 1.19367e-05 0)
(0.999509 1.51793e-05 0)
(0.999385 1.77529e-05 0)
(0.99926 2.77101e-05 0)
(0.998996 2.38822e-05 0)
(0.998908 9.56094e-05 0)
(0.997823 -5.69468e-05 0)
(0.998425 0.0010457 0)
(1 3.2822e-07 0)
(0.999996 1.02666e-06 0)
(0.999988 1.76879e-06 0)
(0.999976 2.51883e-06 0)
(0.999959 3.30827e-06 0)
(0.999938 4.15641e-06 0)
(0.999911 5.0834e-06 0)
(0.999879 6.1117e-06 0)
(0.999841 7.26312e-06 0)
(0.999795 8.627e-06 0)
(0.999741 1.02066e-05 0)
(0.999677 1.22663e-05 0)
(0.999598 1.45565e-05 0)
(0.999508 1.85002e-05 0)
(0.999383 2.16678e-05 0)
(0.999258 3.36638e-05 0)
(0.998996 2.96096e-05 0)
(0.998892 0.000112653 0)
(0.997901 -4.52327e-05 0)
(0.998085 0.00105374 0)
(1 3.90417e-07 0)
(0.999996 1.22014e-06 0)
(0.999988 2.10152e-06 0)
(0.999976 2.99284e-06 0)
(0.999959 3.93124e-06 0)
(0.999938 4.93996e-06 0)
(0.999911 6.0435e-06 0)
(0.999879 7.26809e-06 0)
(0.999841 8.63989e-06 0)
(0.999795 1.02653e-05 0)
(0.99974 1.21496e-05 0)
(0.999676 1.46031e-05 0)
(0.999598 1.7336e-05 0)
(0.999507 2.2019e-05 0)
(0.999382 2.58297e-05 0)
(0.999255 3.99234e-05 0)
(0.998996 3.58982e-05 0)
(0.998877 0.000129356 0)
(0.997974 -2.81673e-05 0)
(0.997833 0.00105654 0)
(1 4.56302e-07 0)
(0.999996 1.42473e-06 0)
(0.999988 2.45313e-06 0)
(0.999976 3.49378e-06 0)
(0.999959 4.58964e-06 0)
(0.999938 5.76827e-06 0)
(0.999911 7.05879e-06 0)
(0.999879 8.49155e-06 0)
(0.99984 1.00971e-05 0)
(0.999795 1.20002e-05 0)
(0.99974 1.42084e-05 0)
(0.999676 1.70796e-05 0)
(0.999597 2.0284e-05 0)
(0.999506 2.57462e-05 0)
(0.999381 3.02534e-05 0)
(0.999253 4.64974e-05 0)
(0.998997 4.27915e-05 0)
(0.998862 0.000145739 0)
(0.998041 -6.64283e-06 0)
(0.997659 0.00105809 0)
(1 5.26078e-07 0)
(0.999996 1.64104e-06 0)
(0.999988 2.82466e-06 0)
(0.999976 4.02313e-06 0)
(0.999959 5.28545e-06 0)
(0.999938 6.64375e-06 0)
(0.999911 8.13225e-06 0)
(0.999879 9.78556e-06 0)
(0.99984 1.16391e-05 0)
(0.999795 1.38368e-05 0)
(0.99974 1.63892e-05 0)
(0.999676 1.97031e-05 0)
(0.999596 2.34095e-05 0)
(0.999505 2.96919e-05 0)
(0.99938 3.4955e-05 0)
(0.999251 5.33962e-05 0)
(0.998998 5.03251e-05 0)
(0.998848 0.000161866 0)
(0.998099 1.85015e-05 0)
(0.99755 0.00105919 0)
(1 6.00031e-07 0)
(0.999996 1.86984e-06 0)
(0.999988 3.21733e-06 0)
(0.999976 4.58261e-06 0)
(0.999959 6.02081e-06 0)
(0.999938 7.56915e-06 0)
(0.999911 9.26713e-06 0)
(0.999879 1.11542e-05 0)
(0.99984 1.32702e-05 0)
(0.999795 1.57806e-05 0)
(0.99974 1.86982e-05 0)
(0.999675 2.24814e-05 0)
(0.999596 2.67218e-05 0)
(0.999504 3.38671e-05 0)
(0.999379 3.99488e-05 0)
(0.999249 6.06285e-05 0)
(0.998999 5.85254e-05 0)
(0.998836 0.000177821 0)
(0.998149 4.64774e-05 0)
(0.997493 0.00106179 0)
(1 6.78373e-07 0)
(0.999996 2.11178e-06 0)
(0.999988 3.63223e-06 0)
(0.999976 5.17379e-06 0)
(0.999959 6.79786e-06 0)
(0.999938 8.54707e-06 0)
(0.999911 1.04667e-05 0)
(0.999879 1.26012e-05 0)
(0.99984 1.49952e-05 0)
(0.999794 1.78369e-05 0)
(0.99974 2.11422e-05 0)
(0.999675 2.54221e-05 0)
(0.999596 3.02305e-05 0)
(0.999504 3.82821e-05 0)
(0.999378 4.5252e-05 0)
(0.999248 6.82076e-05 0)
(0.999001 6.74124e-05 0)
(0.998826 0.000193712 0)
(0.998191 7.665e-05 0)
(0.997475 0.00106529 0)
(1 7.61397e-07 0)
(0.999996 2.36762e-06 0)
(0.999988 4.07061e-06 0)
(0.999976 5.79845e-06 0)
(0.999959 7.61889e-06 0)
(0.999938 9.58041e-06 0)
(0.999911 1.17343e-05 0)
(0.999879 1.41307e-05 0)
(0.99984 1.68191e-05 0)
(0.999794 2.00116e-05 0)
(0.99974 2.37277e-05 0)
(0.999675 2.8533e-05 0)
(0.999595 3.39456e-05 0)
(0.999503 4.29481e-05 0)
(0.999378 5.08791e-05 0)
(0.999247 7.61438e-05 0)
(0.999004 7.70023e-05 0)
(0.998818 0.000209645 0)
(0.998227 0.000108494 0)
(0.997486 0.00107038 0)
(1 8.49361e-07 0)
(0.999996 2.63814e-06 0)
(0.999988 4.53376e-06 0)
(0.999976 6.45843e-06 0)
(0.999959 8.48634e-06 0)
(0.999938 1.06722e-05 0)
(0.999911 1.30738e-05 0)
(0.999879 1.5747e-05 0)
(0.99984 1.87468e-05 0)
(0.999794 2.23108e-05 0)
(0.99974 2.64624e-05 0)
(0.999675 3.18226e-05 0)
(0.999595 3.78773e-05 0)
(0.999503 4.78759e-05 0)
(0.999378 5.68479e-05 0)
(0.999246 8.44528e-05 0)
(0.999007 8.73015e-05 0)
(0.998813 0.000225718 0)
(0.998258 0.000141605 0)
(0.997517 0.00107619 0)
(1 9.42621e-07 0)
(0.999996 2.92429e-06 0)
(0.999988 5.02314e-06 0)
(0.999976 7.15585e-06 0)
(0.999959 9.40284e-06 0)
(0.999938 1.18258e-05 0)
(0.999911 1.44888e-05 0)
(0.999879 1.7455e-05 0)
(0.99984 2.0784e-05 0)
(0.999794 2.47411e-05 0)
(0.99974 2.93531e-05 0)
(0.999675 3.52994e-05 0)
(0.999595 4.2036e-05 0)
(0.999503 5.30775e-05 0)
(0.999378 6.31708e-05 0)
(0.999245 9.31438e-05 0)
(0.99901 9.83182e-05 0)
(0.998809 0.000242005 0)
(0.998285 0.000175677 0)
(0.997561 0.00108311 0)
(1 1.04145e-06 0)
(0.999996 3.22687e-06 0)
(0.999988 5.54014e-06 0)
(0.999976 7.89265e-06 0)
(0.999959 1.03711e-05 0)
(0.999938 1.30445e-05 0)
(0.999911 1.59838e-05 0)
(0.999879 1.92594e-05 0)
(0.99984 2.29361e-05 0)
(0.999795 2.73088e-05 0)
(0.99974 3.24084e-05 0)
(0.999675 3.89727e-05 0)
(0.999595 4.64327e-05 0)
(0.999503 5.8564e-05 0)
(0.999379 6.98674e-05 0)
(0.999245 0.000102235 0)
(0.999013 0.000110055 0)
(0.998808 0.000258573 0)
(0.99831 0.000210501 0)
(0.997613 0.00109024 0)
(1 1.14621e-06 0)
(0.999996 3.54683e-06 0)
(0.999988 6.08621e-06 0)
(0.999976 8.67098e-06 0)
(0.999959 1.13938e-05 0)
(0.999938 1.43317e-05 0)
(0.999911 1.75627e-05 0)
(0.999879 2.11651e-05 0)
(0.999841 2.52095e-05 0)
(0.999795 3.00211e-05 0)
(0.99974 3.56357e-05 0)
(0.999675 4.2851e-05 0)
(0.999596 5.10789e-05 0)
(0.999503 6.43472e-05 0)
(0.999379 7.6951e-05 0)
(0.999246 0.000111734 0)
(0.999017 0.000122522 0)
(0.998808 0.000275459 0)
(0.998334 0.000245938 0)
(0.997669 0.00109787 0)
(1 1.25723e-06 0)
(0.999996 3.88511e-06 0)
(0.999988 6.66296e-06 0)
(0.999976 9.49311e-06 0)
(0.999959 1.24739e-05 0)
(0.999938 1.56913e-05 0)
(0.999911 1.92302e-05 0)
(0.999879 2.31778e-05 0)
(0.999841 2.76101e-05 0)
(0.999795 3.28852e-05 0)
(0.99974 3.90443e-05 0)
(0.999675 4.69448e-05 0)
(0.999596 5.5986e-05 0)
(0.999504 7.04392e-05 0)
(0.99938 8.44407e-05 0)
(0.999246 0.00012166 0)
(0.999022 0.00013572 0)
(0.99881 0.000292685 0)
(0.998357 0.000281858 0)
(0.997729 0.0011053 0)
(1 1.37493e-06 0)
(0.999996 4.24291e-06 0)
(0.999988 7.27211e-06 0)
(0.999976 1.03615e-05 0)
(0.999959 1.36148e-05 0)
(0.999938 1.71273e-05 0)
(0.999911 2.09908e-05 0)
(0.999879 2.53028e-05 0)
(0.999841 3.0145e-05 0)
(0.999795 3.59091e-05 0)
(0.99974 4.26423e-05 0)
(0.999676 5.12633e-05 0)
(0.999597 6.11666e-05 0)
(0.999504 7.68525e-05 0)
(0.999382 9.23478e-05 0)
(0.999247 0.000132017 0)
(0.999026 0.00014966 0)
(0.998814 0.000310251 0)
(0.998382 0.000318175 0)
(0.99779 0.00111294 0)
(1 1.49967e-06 0)
(0.999996 4.62118e-06 0)
(0.999988 7.91535e-06 0)
(0.999976 1.12787e-05 0)
(0.999959 1.48195e-05 0)
(0.999938 1.86436e-05 0)
(0.999911 2.285e-05 0)
(0.999879 2.75463e-05 0)
(0.999841 3.28206e-05 0)
(0.999795 3.91006e-05 0)
(0.999741 4.64401e-05 0)
(0.999676 5.58181e-05 0)
(0.999597 6.66327e-05 0)
(0.999505 8.35994e-05 0)
(0.999383 0.000100693 0)
(0.999249 0.00014282 0)
(0.999032 0.000164341 0)
(0.998819 0.000328156 0)
(0.998407 0.000354762 0)
(0.997852 0.00112019 0)
(1 1.63187e-06 0)
(0.999996 5.02107e-06 0)
(0.999988 8.59441e-06 0)
(0.999976 1.2247e-05 0)
(0.999959 1.60915e-05 0)
(0.999938 2.02445e-05 0)
(0.999912 2.48122e-05 0)
(0.99988 2.99139e-05 0)
(0.999841 3.56448e-05 0)
(0.999795 4.24679e-05 0)
(0.999741 5.04463e-05 0)
(0.999677 6.06185e-05 0)
(0.999598 7.2398e-05 0)
(0.999506 9.06922e-05 0)
(0.999385 0.000109488 0)
(0.999251 0.000154076 0)
(0.999038 0.000179773 0)
(0.998825 0.000346388 0)
(0.998433 0.000391544 0)
(0.997915 0.00112744 0)
(1 1.77195e-06 0)
(0.999996 5.44375e-06 0)
(0.999988 9.31121e-06 0)
(0.999976 1.32693e-05 0)
(0.999959 1.74342e-05 0)
(0.999938 2.19344e-05 0)
(0.999912 2.68834e-05 0)
(0.99988 3.24126e-05 0)
(0.999841 3.86246e-05 0)
(0.999796 4.60197e-05 0)
(0.999741 5.46722e-05 0)
(0.999677 6.56771e-05 0)
(0.999599 7.84749e-05 0)
(0.999507 9.81443e-05 0)
(0.999387 0.000118753 0)
(0.999253 0.000165797 0)
(0.999044 0.000195945 0)
(0.998832 0.000364932 0)
(0.99846 0.000428355 0)
(0.997978 0.00113422 0)
(1 1.92037e-06 0)
(0.999996 5.89058e-06 0)
(0.999988 1.00678e-05 0)
(0.999976 1.43483e-05 0)
(0.999959 1.88515e-05 0)
(0.999938 2.3718e-05 0)
(0.999912 2.90687e-05 0)
(0.99988 3.50483e-05 0)
(0.999842 4.17687e-05 0)
(0.999796 4.97652e-05 0)
(0.999742 5.91269e-05 0)
(0.999678 7.10036e-05 0)
(0.9996 8.4878e-05 0)
(0.999508 0.000105968 0)
(0.999389 0.000128496 0)
(0.999256 0.000177983 0)
(0.999052 0.000212862 0)
(0.998841 0.000383771 0)
(0.998489 0.000465107 0)
(0.998043 0.00114098 0)
(1 2.07757e-06 0)
(0.999996 6.36278e-06 0)
(0.999988 1.08661e-05 0)
(0.999976 1.5487e-05 0)
(0.999959 2.03471e-05 0)
(0.999938 2.55999e-05 0)
(0.999912 3.13744e-05 0)
(0.99988 3.78287e-05 0)
(0.999842 4.50843e-05 0)
(0.999796 5.37133e-05 0)
(0.999742 6.38221e-05 0)
(0.999678 7.66115e-05 0)
(0.999601 9.16195e-05 0)
(0.99951 0.000114176 0)
(0.999392 0.000138734 0)
(0.999259 0.000190648 0)
(0.99906 0.000230498 0)
(0.998851 0.00040289 0)
(0.998518 0.000501582 0)
(0.998107 0.00114726 0)
(1 2.24404e-06 0)
(0.999996 6.86168e-06 0)
(0.999988 1.17083e-05 0)
(0.999976 1.66882e-05 0)
(0.999959 2.19249e-05 0)
(0.999938 2.75851e-05 0)
(0.999912 3.3806e-05 0)
(0.99988 4.07597e-05 0)
(0.999842 4.85807e-05 0)
(0.999797 5.78735e-05 0)
(0.999743 6.87678e-05 0)
(0.999679 8.25107e-05 0)
(0.999602 9.8714e-05 0)
(0.999511 0.00012278 0)
(0.999395 0.000149477 0)
(0.999263 0.000203793 0)
(0.999068 0.000248842 0)
(0.998863 0.000422275 0)
(0.998549 0.000537674 0)
(0.998172 0.00115342 0)
(1 2.42024e-06 0)
(0.999996 7.3887e-06 0)
(0.999988 1.25967e-05 0)
(0.999976 1.79553e-05 0)
(0.999959 2.35891e-05 0)
(0.999938 2.96787e-05 0)
(0.999912 3.63702e-05 0)
(0.999881 4.385e-05 0)
(0.999843 5.22654e-05 0)
(0.999797 6.22554e-05 0)
(0.999744 7.39757e-05 0)
(0.99968 8.87151e-05 0)
(0.999603 0.000106173 0)
(0.999513 0.000131794 0)
(0.999398 0.000160736 0)
(0.999267 0.000217428 0)
(0.999078 0.00026785 0)
(0.998876 0.000441912 0)
(0.998581 0.000573137 0)
(0.998237 0.0011591 0)
(1 2.60665e-06 0)
(0.999996 7.94535e-06 0)
(0.999988 1.35335e-05 0)
(0.999976 1.92912e-05 0)
(0.99996 2.5344e-05 0)
(0.999939 3.18858e-05 0)
(0.999912 3.90727e-05 0)
(0.999881 4.71052e-05 0)
(0.999843 5.61489e-05 0)
(0.999798 6.68689e-05 0)
(0.999744 7.94561e-05 0)
(0.999681 9.52334e-05 0)
(0.999605 0.000114011 0)
(0.999515 0.000141228 0)
(0.999402 0.000172514 0)
(0.999272 0.000231549 0)
(0.999088 0.000287495 0)
(0.99889 0.000461786 0)
(0.998614 0.000607877 0)
(0.998303 0.00116466 0)
(1 2.8038e-06 0)
(0.999996 8.53312e-06 0)
(0.999988 1.45212e-05 0)
(0.999976 2.06995e-05 0)
(0.99996 2.7194e-05 0)
(0.999939 3.42121e-05 0)
(0.999913 4.19207e-05 0)
(0.999881 5.05347e-05 0)
(0.999843 6.02382e-05 0)
(0.999799 7.17236e-05 0)
(0.999745 8.52205e-05 0)
(0.999683 0.00010208 0)
(0.999607 0.000122238 0)
(0.999518 0.000151093 0)
(0.999406 0.000184817 0)
(0.999277 0.000246163 0)
(0.999099 0.000307711 0)
(0.998906 0.000481875 0)
(0.998648 0.000641618 0)
(0.998368 0.00116973 0)
(1 3.01217e-06 0)
(0.999996 9.1535e-06 0)
(0.999988 1.55622e-05 0)
(0.999976 2.21833e-05 0)
(0.99996 2.91435e-05 0)
(0.999939 3.66627e-05 0)
(0.999913 4.49201e-05 0)
(0.999882 5.41447e-05 0)
(0.999844 6.45437e-05 0)
(0.999799 7.68298e-05 0)
(0.999746 9.1279e-05 0)
(0.999684 0.000109265 0)
(0.999609 0.000130865 0)
(0.999521 0.000161399 0)
(0.99941 0.000197642 0)
(0.999283 0.000261266 0)
(0.999111 0.000328447 0)
(0.998923 0.000502163 0)
(0.998683 0.000674264 0)
(0.998432 0.00117458 0)
(1 3.23226e-06 0)
(0.999996 9.80806e-06 0)
(0.999988 1.66591e-05 0)
(0.999976 2.37465e-05 0)
(0.99996 3.11969e-05 0)
(0.999939 3.92436e-05 0)
(0.999913 4.80781e-05 0)
(0.999882 5.79445e-05 0)
(0.999845 6.90726e-05 0)
(0.9998 8.21971e-05 0)
(0.999747 9.76423e-05 0)
(0.999686 0.0001168 0)
(0.999611 0.0001399 0)
(0.999524 0.000172156 0)
(0.999415 0.000210986 0)
(0.99929 0.000276858 0)
(0.999124 0.000349622 0)
(0.998942 0.000522614 0)
(0.998719 0.000705561 0)
(0.998496 0.00117889 0)
(1 3.46452e-06 0)
(0.999996 1.04984e-05 0)
(0.999988 1.78145e-05 0)
(0.999976 2.53921e-05 0)
(0.99996 3.33592e-05 0)
(0.999939 4.19599e-05 0)
(0.999914 5.1401e-05 0)
(0.999883 6.19397e-05 0)
(0.999845 7.38358e-05 0)
(0.999801 8.78346e-05 0)
(0.999749 0.00010432 0)
(0.999687 0.000124693 0)
(0.999614 0.000149354 0)
(0.999527 0.000183364 0)
(0.999421 0.000224839 0)
(0.999298 0.000292925 0)
(0.999138 0.000371168 0)
(0.998963 0.000543202 0)
(0.998757 0.000735462 0)
(0.99856 0.00118293 0)
(1 3.70951e-06 0)
(0.999996 1.12261e-05 0)
(0.999989 1.90311e-05 0)
(0.999977 2.71241e-05 0)
(0.99996 3.56348e-05 0)
(0.99994 4.48179e-05 0)
(0.999914 5.4896e-05 0)
(0.999883 6.61401e-05 0)
(0.999846 7.88397e-05 0)
(0.999802 9.3752e-05 0)
(0.99975 0.000111322 0)
(0.999689 0.000132955 0)
(0.999616 0.000159229 0)
(0.999531 0.000195033 0)
(0.999427 0.000239188 0)
(0.999306 0.000309455 0)
(0.999153 0.000392987 0)
(0.998985 0.000563863 0)
(0.998795 0.000763725 0)
(0.998623 0.00118637 0)
(1 3.96769e-06 0)
(0.999996 1.19928e-05 0)
(0.999989 2.03116e-05 0)
(0.999977 2.89461e-05 0)
(0.999961 3.80284e-05 0)
(0.99994 4.7823e-05 0)
(0.999915 5.85691e-05 0)
(0.999884 7.0552e-05 0)
(0.999847 8.4094e-05 0)
(0.999803 9.99585e-05 0)
(0.999752 0.000118656 0)
(0.999692 0.000141593 0)
(0.99962 0.00016953 0)
(0.999536 0.000207159 0)
(0.999434 0.00025401 0)
(0.999316 0.000326428 0)
(0.999168 0.00041499 0)
(0.999008 0.000584552 0)
(0.998834 0.000790325 0)
(0.998685 0.00118939 0)
(1 4.23955e-06 0)
(0.999996 1.28002e-05 0)
(0.999989 2.16586e-05 0)
(0.999977 3.08618e-05 0)
(0.999961 4.05447e-05 0)
(0.99994 5.09813e-05 0)
(0.999915 6.24275e-05 0)
(0.999884 7.51842e-05 0)
(0.999848 8.96048e-05 0)
(0.999805 0.000106462 0)
(0.999754 0.00012633 0)
(0.999694 0.000150615 0)
(0.999623 0.000180256 0)
(0.99954 0.000219744 0)
(0.999441 0.000269285 0)
(0.999326 0.000343815 0)
(0.999185 0.000437077 0)
(0.999033 0.000605176 0)
(0.998874 0.000815085 0)
(0.998746 0.00119171 0)
(1 4.52549e-06 0)
(0.999996 1.36495e-05 0)
(0.999989 2.30748e-05 0)
(0.999977 3.28742e-05 0)
(0.999961 4.31883e-05 0)
(0.999941 5.42971e-05 0)
(0.999916 6.64769e-05 0)
(0.999885 8.00409e-05 0)
(0.999849 9.53815e-05 0)
(0.999806 0.000113268 0)
(0.999756 0.000134349 0)
(0.999697 0.00016002 0)
(0.999627 0.000191407 0)
(0.999546 0.000232771 0)
(0.999449 0.000284983 0)
(0.999337 0.000361575 0)
(0.999203 0.000459155 0)
(0.99906 0.000625671 0)
(0.998915 0.000838061 0)
(0.998806 0.00119351 0)
(1 4.82608e-06 0)
(0.999996 1.45426e-05 0)
(0.999989 2.45631e-05 0)
(0.999977 3.49877e-05 0)
(0.999961 4.59635e-05 0)
(0.999941 5.7777e-05 0)
(0.999916 7.07239e-05 0)
(0.999886 8.51317e-05 0)
(0.99985 0.000101428 0)
(0.999808 0.000120384 0)
(0.999758 0.000142717 0)
(0.9997 0.000169817 0)
(0.999631 0.000202975 0)
(0.999552 0.000246237 0)
(0.999458 0.000301065 0)
(0.99935 0.000379664 0)
(0.999222 0.000481111 0)
(0.999087 0.000645911 0)
(0.998957 0.000859104 0)
(0.998865 0.0011945 0)
(1 5.14167e-06 0)
(0.999996 1.54812e-05 0)
(0.999989 2.6126e-05 0)
(0.999977 3.72056e-05 0)
(0.999962 4.88747e-05 0)
(0.999942 6.14259e-05 0)
(0.999917 7.51732e-05 0)
(0.999887 9.04611e-05 0)
(0.999852 0.000107751 0)
(0.99981 0.000127816 0)
(0.999761 0.000151436 0)
(0.999703 0.000179999 0)
(0.999636 0.000214947 0)
(0.999558 0.000260116 0)
(0.999467 0.000317482 0)
(0.999363 0.000398017 0)
(0.999243 0.000502838 0)
(0.999117 0.000665799 0)
(0.998999 0.000878282 0)
(0.998923 0.00119478 0)
(1 5.4728e-06 0)
(0.999997 1.64666e-05 0)
(0.999989 2.77662e-05 0)
(0.999978 3.95313e-05 0)
(0.999962 5.19257e-05 0)
(0.999942 6.52483e-05 0)
(0.999918 7.98303e-05 0)
(0.999888 9.6035e-05 0)
(0.999853 0.000114353 0)
(0.999812 0.000135565 0)
(0.999763 0.000160505 0)
(0.999707 0.000190565 0)
(0.999642 0.000227312 0)
(0.999566 0.000274388 0)
(0.999477 0.000334192 0)
(0.999377 0.000416569 0)
(0.999264 0.000524238 0)
(0.999147 0.000685198 0)
(0.999042 0.000895536 0)
(0.99898 0.00119416 0)
(1 5.81965e-06 0)
(0.999997 1.74995e-05 0)
(0.999989 2.9485e-05 0)
(0.999978 4.1967e-05 0)
(0.999962 5.51189e-05 0)
(0.999943 6.92472e-05 0)
(0.999919 8.4697e-05 0)
(0.999889 0.000101855 0)
(0.999855 0.000121236 0)
(0.999814 0.000143632 0)
(0.999767 0.000169919 0)
(0.999711 0.000201504 0)
(0.999647 0.000240044 0)
(0.999574 0.000289016 0)
(0.999489 0.000351136 0)
(0.999393 0.000435243 0)
(0.999287 0.000545213 0)
(0.999179 0.000704016 0)
(0.999085 0.000910997 0)
(0.999035 0.00119276 0)
(1 6.1827e-06 0)
(0.999997 1.85813e-05 0)
(0.999989 3.12849e-05 0)
(0.999978 4.45156e-05 0)
(0.999963 5.84578e-05 0)
(0.999943 7.34261e-05 0)
(0.999919 8.97781e-05 0)
(0.999891 0.000107926 0)
(0.999857 0.000128402 0)
(0.999817 0.000152015 0)
(0.99977 0.000179674 0)
(0.999716 0.000212804 0)
(0.999654 0.000253126 0)
(0.999582 0.000303967 0)
(0.9995 0.000368259 0)
(0.999409 0.000453951 0)
(0.99931 0.000565673 0)
(0.999211 0.000722104 0)
(0.999129 0.000924639 0)
(0.99909 0.00119043 0)
(1 6.56198e-06 0)
(0.999997 1.97123e-05 0)
(0.99999 3.31667e-05 0)
(0.999978 4.71784e-05 0)
(0.999963 6.19439e-05 0)
(0.999944 7.7786e-05 0)
(0.999921 9.50735e-05 0)
(0.999892 0.000114244 0)
(0.999859 0.000135847 0)
(0.999819 0.000160706 0)
(0.999774 0.000189758 0)
(0.999721 0.000224442 0)
(0.999661 0.000266523 0)
(0.999592 0.000319184 0)
(0.999513 0.000385494 0)
(0.999427 0.000472595 0)
(0.999335 0.000585528 0)
(0.999245 0.000739367 0)
(0.999173 0.000936599 0)
(0.999143 0.00118727 0)
(1 6.95783e-06 0)
(0.999997 2.08933e-05 0)
(0.99999 3.51317e-05 0)
(0.999979 4.99568e-05 0)
(0.999964 6.55787e-05 0)
(0.999945 8.2328e-05 0)
(0.999922 0.000100585 0)
(0.999894 0.00012081 0)
(0.999861 0.000143569 0)
(0.999822 0.0001697 0)
(0.999778 0.000200159 0)
(0.999727 0.000236399 0)
(0.999668 0.000280205 0)
(0.999602 0.00033462 0)
(0.999527 0.000402774 0)
(0.999446 0.000491077 0)
(0.99936 0.000604694 0)
(0.999279 0.000755676 0)
(0.999217 0.000946884 0)
(0.999196 0.00118318 0)
(1 7.37009e-06 0)
(0.999997 2.21237e-05 0)
(0.99999 3.71795e-05 0)
(0.999979 5.28507e-05 0)
(0.999964 6.9361e-05 0)
(0.999946 8.70506e-05 0)
(0.999923 0.000106307 0)
(0.999896 0.000127618 0)
(0.999863 0.000151558 0)
(0.999826 0.000178981 0)
(0.999782 0.000210854 0)
(0.999733 0.000248642 0)
(0.999676 0.000294122 0)
(0.999613 0.000350213 0)
(0.999542 0.000420017 0)
(0.999466 0.000509301 0)
(0.999387 0.000623088 0)
(0.999314 0.000770969 0)
(0.999261 0.000955637 0)
(0.999247 0.00117831 0)
(1 7.79889e-06 0)
(0.999997 2.34039e-05 0)
(0.99999 3.93105e-05 0)
(0.999979 5.58599e-05 0)
(0.999965 7.32907e-05 0)
(0.999947 9.19519e-05 0)
(0.999924 0.00011224 0)
(0.999898 0.000134663 0)
(0.999866 0.000159806 0)
(0.99983 0.000188535 0)
(0.999787 0.000221823 0)
(0.999739 0.000261137 0)
(0.999685 0.000308234 0)
(0.999624 0.000365895 0)
(0.999558 0.000437146 0)
(0.999486 0.000527151 0)
(0.999415 0.000640635 0)
(0.99935 0.000785132 0)
(0.999305 0.00096287 0)
(0.999297 0.00117258 0)
(1 8.24378e-06 0)
(0.999997 2.47321e-05 0)
(0.99999 4.15226e-05 0)
(0.99998 5.89819e-05 0)
(0.999966 7.73641e-05 0)
(0.999948 9.70262e-05 0)
(0.999926 0.000118373 0)
(0.9999 0.000141932 0)
(0.999869 0.000168296 0)
(0.999834 0.000198338 0)
(0.999793 0.000233034 0)
(0.999746 0.00027384 0)
(0.999694 0.00032248 0)
(0.999637 0.000381592 0)
(0.999574 0.000454077 0)
(0.999508 0.000544535 0)
(0.999443 0.000657267 0)
(0.999386 0.00079813 0)
(0.999348 0.000968713 0)
(0.999346 0.00116613 0)
(1 8.70462e-06 0)
(0.999997 2.61083e-05 0)
(0.99999 4.3815e-05 0)
(0.99998 6.22147e-05 0)
(0.999966 8.15779e-05 0)
(0.999949 0.000102269 0)
(0.999928 0.0001247 0)
(0.999902 0.000149414 0)
(0.999872 0.000177012 0)
(0.999838 0.000208366 0)
(0.999799 0.000244454 0)
(0.999754 0.000286705 0)
(0.999705 0.000336801 0)
(0.99965 0.000397222 0)
(0.999591 0.000470712 0)
(0.999531 0.000561334 0)
(0.999472 0.000672905 0)
(0.999422 0.000809874 0)
(0.999392 0.000973167 0)
(0.999394 0.00115891 0)
(1 9.18067e-06 0)
(0.999997 2.75297e-05 0)
(0.999991 4.61836e-05 0)
(0.999981 6.55532e-05 0)
(0.999967 8.59249e-05 0)
(0.99995 0.000107669 0)
(0.999929 0.000131208 0)
(0.999905 0.000157089 0)
(0.999876 0.000185928 0)
(0.999843 0.000218586 0)
(0.999805 0.000256038 0)
(0.999762 0.000299676 0)
(0.999715 0.000351126 0)
(0.999664 0.000412701 0)
(0.99961 0.000486963 0)
(0.999554 0.000577461 0)
(0.999502 0.000687489 0)
(0.999459 0.000820356 0)
(0.999435 0.000976333 0)
(0.999441 0.00115101 0)
(1 9.67135e-06 0)
(0.999997 2.89951e-05 0)
(0.999991 4.86257e-05 0)
(0.999981 6.89926e-05 0)
(0.999968 9.0398e-05 0)
(0.999951 0.000113217 0)
(0.999931 0.00013788 0)
(0.999908 0.00016494 0)
(0.99988 0.000195018 0)
(0.999848 0.000228962 0)
(0.999812 0.00026774 0)
(0.999771 0.000312692 0)
(0.999727 0.000365379 0)
(0.999679 0.000427937 0)
(0.999629 0.000502724 0)
(0.999579 0.000592802 0)
(0.999532 0.000700947 0)
(0.999495 0.000829511 0)
(0.999477 0.00097821 0)
(0.999487 0.00114242 0)
(1 1.01756e-05 0)
(0.999997 3.05003e-05 0)
(0.999991 5.11349e-05 0)
(0.999982 7.2524e-05 0)
(0.999969 9.4985e-05 0)
(0.999953 0.000118897 0)
(0.999934 0.000144697 0)
(0.999911 0.000172938 0)
(0.999884 0.000204246 0)
(0.999853 0.00023945 0)
(0.999819 0.000279503 0)
(0.999781 0.000325684 0)
(0.999739 0.000379479 0)
(0.999695 0.000442839 0)
(0.999649 0.000517904 0)
(0.999603 0.000607278 0)
(0.999563 0.00071323 0)
(0.999532 0.00083735 0)
(0.999519 0.000978879 0)
(0.999531 0.0011332 0)
(1 1.06921e-05 0)
(0.999997 3.20427e-05 0)
(0.999992 5.37057e-05 0)
(0.999982 7.61391e-05 0)
(0.99997 9.96739e-05 0)
(0.999955 0.000124692 0)
(0.999936 0.000151635 0)
(0.999914 0.000181055 0)
(0.999888 0.000213575 0)
(0.999859 0.000250002 0)
(0.999827 0.000291266 0)
(0.999791 0.000338578 0)
(0.999752 0.000393337 0)
(0.999711 0.000457306 0)
(0.999669 0.000532395 0)
(0.999629 0.000620787 0)
(0.999594 0.000724279 0)
(0.999568 0.000843834 0)
(0.99956 0.000978342 0)
(0.999574 0.00112334 0)
(1 1.12194e-05 0)
(0.999997 3.36163e-05 0)
(0.999992 5.63287e-05 0)
(0.999983 7.98245e-05 0)
(0.999971 0.000104447 0)
(0.999956 0.000130579 0)
(0.999938 0.000158666 0)
(0.999917 0.000189252 0)
(0.999893 0.000222957 0)
(0.999865 0.00026056 0)
(0.999835 0.000302961 0)
(0.999801 0.000351295 0)
(0.999765 0.000406863 0)
(0.999728 0.000471243 0)
(0.99969 0.000546112 0)
(0.999655 0.000633262 0)
(0.999625 0.000734062 0)
(0.999605 0.000848986 0)
(0.9996 0.000976666 0)
(0.999616 0.0011129 0)
(1 1.17554e-05 0)
(0.999998 3.52165e-05 0)
(0.999992 5.89949e-05 0)
(0.999984 8.35669e-05 0)
(0.999972 0.000109285 0)
(0.999958 0.000136534 0)
(0.999941 0.000165757 0)
(0.999921 0.00019749 0)
(0.999898 0.000232344 0)
(0.999872 0.000271065 0)
(0.999843 0.000314515 0)
(0.999812 0.000363748 0)
(0.999779 0.000419961 0)
(0.999745 0.000484548 0)
(0.999712 0.000558953 0)
(0.999681 0.000644619 0)
(0.999656 0.000742536 0)
(0.99964 0.000852792 0)
(0.999639 0.00097386 0)
(0.999657 0.00110185 0)
(1 1.2298e-05 0)
(0.999998 3.68352e-05 0)
(0.999993 6.16916e-05 0)
(0.999984 8.73479e-05 0)
(0.999974 0.000114165 0)
(0.99996 0.000142525 0)
(0.999944 0.00017287 0)
(0.999925 0.000205721 0)
(0.999903 0.000241677 0)
(0.999879 0.000281446 0)
(0.999852 0.000325848 0)
(0.999824 0.00037585 0)
(0.999794 0.000432539 0)
(0.999763 0.000497128 0)
(0.999734 0.000570841 0)
(0.999707 0.000654805 0)
(0.999686 0.000749684 0)
(0.999675 0.000855278 0)
(0.999677 0.000969979 0)
(0.999696 0.00109024 0)
(1 1.28443e-05 0)
(0.999998 3.84652e-05 0)
(0.999993 6.44058e-05 0)
(0.999985 9.11489e-05 0)
(0.999975 0.00011906 0)
(0.999962 0.00014852 0)
(0.999947 0.000179962 0)
(0.999929 0.000213894 0)
(0.999909 0.000250894 0)
(0.999886 0.000291634 0)
(0.999862 0.000336877 0)
(0.999836 0.000387508 0)
(0.999809 0.000444497 0)
(0.999781 0.000508887 0)
(0.999756 0.000581689 0)
(0.999733 0.000663757 0)
(0.999717 0.000755482 0)
(0.999709 0.00085645 0)
(0.999714 0.000965041 0)
(0.999734 0.00107806 0)
(1 1.33914e-05 0)
(0.999998 4.00965e-05 0)
(0.999993 6.71206e-05 0)
(0.999986 9.49458e-05 0)
(0.999976 0.00012394 0)
(0.999964 0.000154478 0)
(0.99995 0.000186985 0)
(0.999934 0.000221951 0)
(0.999915 0.000259929 0)
(0.999894 0.000301548 0)
(0.999872 0.000347517 0)
(0.999848 0.00039863 0)
(0.999824 0.000455744 0)
(0.9998 0.000519739 0)
(0.999778 0.000591432 0)
(0.99976 0.000671437 0)
(0.999747 0.000759926 0)
(0.999743 0.000856339 0)
(0.99975 0.000959089 0)
(0.999771 0.00106533 0)
(1 1.39356e-05 0)
(0.999998 4.1719e-05 0)
(0.999994 6.98193e-05 0)
(0.999987 9.87142e-05 0)
(0.999978 0.000128772 0)
(0.999967 0.000160359 0)
(0.999953 0.000193889 0)
(0.999938 0.000229831 0)
(0.999921 0.000268709 0)
(0.999902 0.000311109 0)
(0.999882 0.000357677 0)
(0.999861 0.000409123 0)
(0.999839 0.000466186 0)
(0.999819 0.000529599 0)
(0.9998 0.0006 0)
(0.999785 0.000677805 0)
(0.999776 0.000763009 0)
(0.999775 0.00085496 0)
(0.999785 0.000952144 0)
(0.999806 0.00105205 0)
(1 1.44732e-05 0)
(0.999998 4.33205e-05 0)
(0.999994 7.24808e-05 0)
(0.999988 0.000102425 0)
(0.999979 0.000133517 0)
(0.999969 0.000166115 0)
(0.999957 0.000200617 0)
(0.999943 0.000237468 0)
(0.999927 0.00027716 0)
(0.99991 0.000320232 0)
(0.999892 0.00036727 0)
(0.999873 0.000418895 0)
(0.999855 0.000475738 0)
(0.999837 0.000538393 0)
(0.999822 0.000607343 0)
(0.999811 0.000682838 0)
(0.999805 0.00076474 0)
(0.999807 0.000852347 0)
(0.999818 0.000944243 0)
(0.99984 0.00103822 0)
(1 1.49995e-05 0)
(0.999998 4.48882e-05 0)
(0.999995 7.50841e-05 0)
(0.999989 0.000106047 0)
(0.999981 0.000138136 0)
(0.999972 0.000171697 0)
(0.999961 0.000207109 0)
(0.999948 0.000244793 0)
(0.999934 0.000285204 0)
(0.999919 0.000328835 0)
(0.999903 0.000376207 0)
(0.999886 0.000427858 0)
(0.999871 0.000484317 0)
(0.999856 0.000546053 0)
(0.999844 0.000613413 0)
(0.999836 0.000686516 0)
(0.999833 0.000765126 0)
(0.999837 0.000848525 0)
(0.999849 0.000935408 0)
(0.999871 0.00102386 0)
(1 1.55101e-05 0)
(0.999998 4.6408e-05 0)
(0.999995 7.76051e-05 0)
(0.99999 0.000109548 0)
(0.999983 0.000142586 0)
(0.999974 0.000177052 0)
(0.999964 0.000213303 0)
(0.999953 0.000251734 0)
(0.99994 0.000292763 0)
(0.999927 0.000336833 0)
(0.999913 0.000384402 0)
(0.999899 0.00043593 0)
(0.999886 0.000491849 0)
(0.999875 0.000552521 0)
(0.999865 0.000618177 0)
(0.99986 0.000688831 0)
(0.99986 0.000764183 0)
(0.999866 0.000843524 0)
(0.999879 0.000925668 0)
(0.999902 0.00100896 0)
(1 1.59998e-05 0)
(0.999999 4.78649e-05 0)
(0.999996 8.00192e-05 0)
(0.999991 0.000112892 0)
(0.999985 0.000146822 0)
(0.999977 0.000182125 0)
(0.999968 0.000219137 0)
(0.999958 0.00025822 0)
(0.999947 0.000299758 0)
(0.999936 0.000344143 0)
(0.999924 0.000391773 0)
(0.999912 0.000443033 0)
(0.999902 0.000498269 0)
(0.999893 0.000557749 0)