/*--------------------------------*- C++ -*----------------------------------*\
| =========                 |                                                 |
| \\      /  F ield         | OpenFOAM: The Open Source CFD Toolbox           |
|  \\    /   O peration     | Version:  v1912                                 |
|   \\  /    A nd           | Website:  www.openfoam.com                      |
|    \\/     M anipulation  |                                                 |
\*---------------------------------------------------------------------------*/
FoamFile
{
    version     2.0;
    format      ascii;
    class       volScalarField;
    location    "100";
    object      epsilon;
}
// * * * * * * * * * * * * * * * * * * * * * * * * * * * * * * * * * * * * * //

dimensions      [0 2 -3 0 0 0 0];


internalField   nonuniform List<scalar> 
10000
(
0.00749019
0.0071595
0.00686088
0.00658974
0.00634264
0.00611695
0.00591081
0.00572309
0.00555328
0.00540133
0.0052672
0.00515058
0.00505061
0.0049659
0.00489471
0.00483514
0.00478532
0.00474381
0.00472303
0.00718185
0.00748958
0.00715838
0.00685935
0.0065879
0.00634054
0.00611466
0.00590834
0.00572044
0.00555042
0.00539821
0.00526377
0.00514679
0.00504641
0.00496128
0.00488966
0.00482968
0.00477949
0.00473763
0.00471602
0.00668332
0.00748824
0.00715591
0.00685599
0.00658385
0.00633595
0.00610963
0.00590293
0.00571464
0.00554419
0.00539144
0.00525634
0.00513858
0.00503734
0.00495131
0.00487879
0.00481794
0.00476693
0.00472432
0.00470112
0.00621821
0.00748618
0.00715209
0.00685077
0.00657754
0.00632879
0.00610178
0.00589449
0.00570562
0.00553452
0.00538097
0.0052449
0.00512599
0.00502347
0.00493609
0.00486222
0.00480006
0.00474781
0.00470406
0.00467863
0.0058316
0.00748338
0.00714686
0.00684361
0.00656886
0.00631894
0.00609098
0.00588289
0.00569325
0.00552129
0.00536673
0.00522941
0.00510903
0.00500486
0.00491573
0.00484008
0.00477619
0.00472231
0.00467703
0.00464885
0.00551404
0.0074798
0.00714019
0.00683442
0.0065577
0.00630623
0.00607705
0.00586793
0.00567732
0.00550435
0.00534857
0.00520979
0.00508767
0.00498154
0.00489031
0.00481251
0.00474651
0.00469061
0.00464345
0.00461212
0.00525181
0.00747542
0.00713198
0.00682308
0.00654388
0.00629047
0.00605975
0.00584937
0.00565762
0.00548346
0.00532632
0.0051859
0.00506184
0.0049535
0.00485987
0.00477961
0.00471117
0.00465292
0.00460355
0.00456876
0.00503287
0.00747016
0.00712214
0.00680943
0.0065272
0.00627141
0.00603882
0.0058269
0.00563382
0.00545833
0.00529971
0.00515753
0.00503138
0.00492066
0.00482443
0.00474145
0.00467029
0.0046094
0.00455754
0.00451908
0.00484737
0.00746397
0.00711053
0.0067933
0.00650742
0.00624874
0.00601389
0.00580017
0.00560554
0.00542859
0.0052684
0.00512439
0.00499609
0.00488288
0.00478391
0.00469804
0.00462396
0.0045602
0.0045056
0.00446335
0.00468742
0.00745675
0.00709701
0.00677446
0.00648425
0.00622213
0.00598458
0.00576872
0.00557233
0.00539377
0.00523194
0.00508607
0.0049556
0.00483989
0.00473813
0.00464929
0.00457216
0.00450539
0.00444787
0.00440178
0.00454662
0.0074484
0.00708138
0.00675267
0.00645737
0.00619118
0.00595041
0.00573203
0.00553361
0.0053533
0.00518976
0.00504205
0.00490945
0.0047913
0.0046868
0.00459499
0.00451479
0.00444493
0.00438439
0.00433451
0.00441974
0.00743877
0.00706343
0.00672762
0.00642641
0.00615544
0.00591088
0.00568953
0.00548876
0.0053065
0.00514118
0.00499164
0.00485702
0.00473655
0.00462944
0.00453478
0.00445157
0.00437864
0.00431509
0.00426153
0.00430247
0.00742771
0.00704287
0.00669897
0.00639096
0.00611441
0.00586539
0.00564054
0.00543703
0.00525258
0.00508537
0.00493404
0.00479751
0.0046749
0.00456539
0.00446808
0.00438204
0.00430619
0.00423971
0.00418268
0.00419116
0.00741502
0.00701939
0.0066663
0.00635054
0.00606756
0.00581334
0.00558436
0.00537764
0.00519066
0.00502141
0.00486826
0.00472994
0.00460541
0.00449377
0.0043941
0.0043055
0.00422698
0.00415778
0.00409758
0.00408266
0.00740046
0.00699257
0.00662913
0.00630461
0.00601428
0.00575403
0.00552023
0.00530972
0.00511981
0.00494825
0.0047932
0.00465317
0.00452693
0.00441346
0.00431178
0.004221
0.00414016
0.00406856
0.0040056
0.00397414
0.00738375
0.00696195
0.00658687
0.00625251
0.00595389
0.00568676
0.00544736
0.00523241
0.00503904
0.00486481
0.00470768
0.00456593
0.00443814
0.00432313
0.00421983
0.0041273
0.00404458
0.00397101
0.0039058
0.00386295
0.00736456
0.00692695
0.0065388
0.00619348
0.00588564
0.00561076
0.00536496
0.00514483
0.00494739
0.00477002
0.00461049
0.0044669
0.00433762
0.00422129
0.00411671
0.00402288
0.00393878
0.00386376
0.00379687
0.00374652
0.00734251
0.00688692
0.00648409
0.00612664
0.00580862
0.00552517
0.0052722
0.00504617
0.00484398
0.00466289
0.00450053
0.00435481
0.00422394
0.00410639
0.00400081
0.00390607
0.00382107
0.00374515
0.00367722
0.00362226
0.00731719
0.00684114
0.00642182
0.00605093
0.00572179
0.00542902
0.00516821
0.00493563
0.00472804
0.00454262
0.00437688
0.00422862
0.0040959
0.00397704
0.00387054
0.00377515
0.00368965
0.00361334
0.00354498
0.00348756
0.00728817
0.00678887
0.00635099
0.00596522
0.00562399
0.00532124
0.00505206
0.00481243
0.00459893
0.00440863
0.00423895
0.00408763
0.00395264
0.00383218
0.00372464
0.00362865
0.00354287
0.00346652
0.00339825
0.00333989
0.00725505
0.00672942
0.00627071
0.00586844
0.00551407
0.00520069
0.00492277
0.0046758
0.0044561
0.00426057
0.00408654
0.00393167
0.00379391
0.00367141
0.00356248
0.00346567
0.00337957
0.00330328
0.00323539
0.00317707
0.00721752
0.0066623
0.00618036
0.00575986
0.00539118
0.0050665
0.0047795
0.0045251
0.00429917
0.00409835
0.00391979
0.0037611
0.00362017
0.00349515
0.00338435
0.00328629
0.00319951
0.00312309
0.00305553
0.00299765
0.00717547
0.00658741
0.00607986
0.00563942
0.00525524
0.0049185
0.00462208
0.00436019
0.00412818
0.00392227
0.00373935
0.00357687
0.00343264
0.0033048
0.00319168
0.00309184
0.00300384
0.00292676
0.00285912
0.00280154
0.00712908
0.00650522
0.00597001
0.00550816
0.00510743
0.00475795
0.00445172
0.00418227
0.00394432
0.00373362
0.00354671
0.00338076
0.00323344
0.0031028
0.00298717
0.00288514
0.00279535
0.00271693
0.00264849
0.00259055
0.00707894
0.00641695
0.00585264
0.00536848
0.00495062
0.00458801
0.00427176
0.00399466
0.00375087
0.00353564
0.00334511
0.00317612
0.0030261
0.00289295
0.00277493
0.0026706
0.00257865
0.00249827
0.00242822
0.00236898
0.0070261
0.00632461
0.00573066
0.00522411
0.00478927
0.00441375
0.00408769
0.00380316
0.00355375
0.00333425
0.00314041
0.00296875
0.00281645
0.00268119
0.00256107
0.00245459
0.00236041
0.00227772
0.00220541
0.00214389
0.00697193
0.00623079
0.0056077
0.00507962
0.00462878
0.00424134
0.00390636
0.00361517
0.00336078
0.00313753
0.00294084
0.00276696
0.0026128
0.00247585
0.00235405
0.00224574
0.00214952
0.0020645
0.00198964
0.00192517
0.00691801
0.0061383
0.00548758
0.00493965
0.00447451
0.00407677
0.00373438
0.00343786
0.00317964
0.00295364
0.00275496
0.00257958
0.00242424
0.00228623
0.00216334
0.00205378
0.00195605
0.00186912
0.00179193
0.00172445
0.00686585
0.00604974
0.00537366
0.00480809
0.00433077
0.00392468
0.00357667
0.00327644
0.00301585
0.00278841
0.00258891
0.0024131
0.00225753
0.00211938
0.0019963
0.00188638
0.00178804
0.00170009
0.00162144
0.00155175
0.0068167
0.00596712
0.00526839
0.00468762
0.00420029
0.00378779
0.00343588
0.00313348
0.00287192
0.00264431
0.00244515
0.00226999
0.00211523
0.00197793
0.00185564
0.00174638
0.00164848
0.00156065
0.00148175
0.00141118
0.00677142
0.00589173
0.00517319
0.00457962
0.00408427
0.00366704
0.00331266
0.00300933
0.00274787
0.00252105
0.0023231
0.00214941
0.00199624
0.00186054
0.00173981
0.001632
0.00153539
0.00144862
0.00137051
0.00130029
0.00673048
0.00582416
0.00508856
0.00448434
0.00398268
0.00356207
0.00320629
0.00290289
0.00264224
0.00241679
0.00222057
0.0020488
0.00189764
0.00176395
0.00164519
0.00153925
0.0014444
0.00135921
0.00128251
0.00121338
0.00669399
0.00576441
0.00501426
0.00440128
0.00389468
0.00347171
0.00311527
0.00281235
0.0025529
0.00232912
0.00213484
0.00196515
0.00181612
0.00168456
0.00156787
0.00146393
0.00137096
0.00128754
0.00121245
0.00114473
0.00666183
0.00571209
0.00494962
0.00432943
0.003819
0.00339441
0.0030378
0.00273565
0.00247759
0.00225556
0.00206323
0.0018956
0.00174865
0.00161915
0.00150447
0.00140245
0.00131131
0.00122961
0.00115611
0.00108984
0.00663368
0.00566658
0.0048937
0.00426759
0.00375416
0.00332848
0.00297201
0.0026708
0.00241415
0.00219383
0.00200336
0.00183766
0.00169265
0.00156505
0.00145221
0.00135196
0.0012625
0.00118237
0.00111035
0.00104543
0.00660918
0.00562716
0.00484549
0.00421451
0.00369873
0.00327232
0.00291618
0.00261593
0.00236066
0.00214193
0.00195318
0.00178924
0.00164598
0.00152009
0.0014089
0.00131023
0.00122227
0.00114355
0.00107285
0.00100914
0.0065879
0.00559309
0.00480398
0.00416897
0.00365134
0.00322446
0.00286873
0.00256944
0.00231544
0.00209818
0.00191099
0.00174862
0.00160691
0.00148254
0.00137281
0.00127552
0.00118888
0.0011114
0.00104185
0.000979216
0.00656945
0.00556365
0.00476824
0.00412988
0.00361077
0.00318361
0.00282832
0.00252994
0.00227712
0.00206118
0.00187536
0.00171439
0.00157406
0.00145101
0.00134256
0.00124648
0.00116098
0.00108458
0.00101604
0.00095434
0.00655345
0.0055382
0.00473743
0.00409628
0.00357599
0.00314866
0.00279383
0.00249628
0.00224452
0.00202975
0.00184516
0.00168541
0.00154628
0.0014244
0.00131705
0.00122203
0.00113753
0.00106206
0.000994398
0.00093351
0.00653957
0.00551618
0.00471084
0.00406734
0.00354609
0.00311867
0.00276428
0.0024675
0.00221669
0.00200296
0.00181944
0.00166077
0.00152269
0.00140183
0.00129545
0.00120134
0.0011177
0.00104304
0.000976137
0.000915952
0.0065275
0.00549709
0.00468783
0.00404235
0.00352032
0.00309286
0.00273889
0.0024428
0.00219283
0.00198002
0.00179745
0.00163972
0.00150256
0.00138258
0.00127704
0.00118373
0.00110084
0.00102689
0.000960635
0.00090106
0.006517
0.00548051
0.00466789
0.00402071
0.00349804
0.00307058
0.002717
0.00242153
0.00217231
0.00196031
0.00177857
0.00162166
0.00148531
0.00136609
0.00126129
0.00116867
0.00108643
0.00101309
0.000947406
0.000888361
0.00650784
0.00546607
0.00465054
0.00400193
0.00347873
0.00305128
0.00269806
0.00240315
0.00215459
0.0019433
0.00176229
0.00160611
0.00147046
0.00135191
0.00124775
0.00115573
0.00107406
0.00100125
0.000936059
0.000877475
0.00649983
0.00545347
0.00463543
0.00398559
0.00346193
0.00303452
0.00268163
0.00238721
0.00213923
0.00192858
0.00174821
0.00159266
0.00145762
0.00133967
0.00123606
0.00114457
0.00106339
0.000991039
0.000926284
0.000868101
0.00649282
0.00544245
0.00462223
0.00397132
0.00344729
0.00301993
0.00266732
0.00237334
0.00212589
0.00191579
0.00173598
0.00158099
0.00144649
0.00132905
0.00122593
0.0011349
0.00105415
0.000982206
0.000917827
0.000859995
0.00648667
0.00543279
0.00461067
0.00395885
0.00343449
0.00300717
0.00265484
0.00236125
0.00211425
0.00190464
0.00172534
0.00157083
0.0014368
0.00131981
0.00121712
0.00112649
0.00104613
0.000974533
0.000910485
0.00085296
0.00648126
0.0054243
0.00460053
0.0039479
0.00342328
0.00299601
0.00264391
0.00235067
0.00210408
0.0018949
0.00171603
0.00156196
0.00142835
0.00131176
0.00120944
0.00111917
0.00103913
0.000967847
0.000904088
0.000846832
0.0064765
0.00541684
0.00459161
0.00393829
0.00341343
0.00298621
0.00263433
0.00234139
0.00209516
0.00188637
0.00170789
0.00155419
0.00142094
0.0013047
0.00120272
0.00111276
0.00103301
0.000962003
0.000898498
0.00084148
0.0064723
0.00541025
0.00458375
0.00392982
0.00340476
0.00297759
0.0026259
0.00233324
0.00208733
0.00187887
0.00170073
0.00154737
0.00141445
0.00129852
0.00119682
0.00110714
0.00102765
0.000956882
0.000893601
0.000836792
0.00646858
0.00540444
0.00457681
0.00392235
0.00339712
0.00296999
0.00261847
0.00232606
0.00208044
0.00187228
0.00169444
0.00154138
0.00140874
0.00129308
0.00119164
0.0011022
0.00102294
0.000952384
0.000889301
0.000832675
0.0064653
0.0053993
0.00457068
0.00391576
0.00339038
0.00296328
0.00261192
0.00231973
0.00207436
0.00186647
0.0016889
0.0015361
0.00140371
0.00128829
0.00118708
0.00109785
0.0010188
0.000948425
0.000885517
0.000829054
0.00646238
0.00539475
0.00456525
0.00390992
0.00338441
0.00295736
0.00260613
0.00231413
0.00206899
0.00186133
0.001684
0.00153143
0.00139927
0.00128407
0.00118306
0.00109402
0.00101514
0.000944934
0.000882181
0.000825861
0.0064598
0.00539072
0.00456045
0.00390475
0.00337913
0.00295211
0.00260101
0.00230918
0.00206423
0.00185679
0.00167967
0.00152731
0.00139535
0.00128033
0.0011795
0.00109063
0.00101191
0.000941851
0.000879235
0.000823043
0.00645751
0.00538713
0.00455618
0.00390016
0.00337444
0.00294746
0.00259647
0.0023048
0.00206003
0.00185277
0.00167583
0.00152366
0.00139187
0.00127703
0.00117636
0.00108764
0.00100905
0.000939124
0.000876629
0.00082055
0.00645547
0.00538395
0.00455239
0.00389609
0.00337028
0.00294333
0.00259244
0.00230091
0.00205629
0.0018492
0.00167244
0.00152042
0.0013888
0.0012741
0.00117357
0.00108498
0.00100652
0.000936709
0.000874322
0.000818344
0.00645366
0.00538112
0.00454903
0.00389247
0.00336659
0.00293966
0.00258886
0.00229745
0.00205298
0.00184604
0.00166942
0.00151755
0.00138607
0.0012715
0.0011711
0.00108263
0.00100428
0.000934568
0.000872277
0.000816388
0.00645205
0.00537861
0.00454603
0.00388926
0.0033633
0.0029364
0.00258568
0.00229438
0.00205004
0.00184322
0.00166674
0.001515
0.00138364
0.0012692
0.0011689
0.00108054
0.00100229
0.000932668
0.000870462
0.000814652
0.00645061
0.00537637
0.00454337
0.00388639
0.00336038
0.0029335
0.00258285
0.00229165
0.00204742
0.00184072
0.00166436
0.00151274
0.00138149
0.00126715
0.00116695
0.00107868
0.00100052
0.00093098
0.00086885
0.00081311
0.00644933
0.00537437
0.00454099
0.00388384
0.00335778
0.00293092
0.00258034
0.00228922
0.00204509
0.0018385
0.00166224
0.00151072
0.00137957
0.00126532
0.00116522
0.00107703
0.000998944
0.00092948
0.000867418
0.000811741
0.00644819
0.00537259
0.00453887
0.00388157
0.00335546
0.00292862
0.00257809
0.00228706
0.00204301
0.00183652
0.00166035
0.00150893
0.00137786
0.0012637
0.00116368
0.00107556
0.000997543
0.000928145
0.000866142
0.000810521
0.00644717
0.00537101
0.00453699
0.00387955
0.00335339
0.00292657
0.00257609
0.00228513
0.00204117
0.00183476
0.00165867
0.00150733
0.00137634
0.00126226
0.0011623
0.00107425
0.000996298
0.000926957
0.000865008
0.000809437
0.00644626
0.00536959
0.0045353
0.00387774
0.00335155
0.00292474
0.00257431
0.00228341
0.00203952
0.00183318
0.00165718
0.0015059
0.00137499
0.00126097
0.00116108
0.00107309
0.000995187
0.000925898
0.000863996
0.00080847
0.00644545
0.00536833
0.0045338
0.00387613
0.00334991
0.00292311
0.00257272
0.00228188
0.00203805
0.00183178
0.00165584
0.00150464
0.00137378
0.00125982
0.00115999
0.00107205
0.000994199
0.000924955
0.000863096
0.000807609
0.00644473
0.0053672
0.00453246
0.00387469
0.00334844
0.00292166
0.0025713
0.00228051
0.00203674
0.00183053
0.00165465
0.0015035
0.00137271
0.0012588
0.00115901
0.00107112
0.000993315
0.000924113
0.000862292
0.00080684
0.00644408
0.00536619
0.00453126
0.0038734
0.00334713
0.00292036
0.00257004
0.00227929
0.00203557
0.00182941
0.00165359
0.00150249
0.00137175
0.00125789
0.00115815
0.0010703
0.00099253
0.000923363
0.000861576
0.000806156
0.0064435
0.00536529
0.00453019
0.00387225
0.00334595
0.0029192
0.00256891
0.0022782
0.00203452
0.00182842
0.00165264
0.00150159
0.00137089
0.00125707
0.00115737
0.00106956
0.000991826
0.000922692
0.000860936
0.000805543
0.00644299
0.00536448
0.00452924
0.00387123
0.00334491
0.00291816
0.0025679
0.00227723
0.00203359
0.00182753
0.00165179
0.00150078
0.00137012
0.00125634
0.00115668
0.0010689
0.000991199
0.000922094
0.000860365
0.000804998
0.00644252
0.00536376
0.00452838
0.00387031
0.00334397
0.00291723
0.00256699
0.00227635
0.00203276
0.00182673
0.00165103
0.00150006
0.00136944
0.00125569
0.00115606
0.00106831
0.000990637
0.000921558
0.000859853
0.000804509
0.00644211
0.00536312
0.00452761
0.00386949
0.00334313
0.0029164
0.00256618
0.00227557
0.00203201
0.00182602
0.00165035
0.00149942
0.00136882
0.00125511
0.0011555
0.00106778
0.000990135
0.000921079
0.000859395
0.000804071
0.00644174
0.00536254
0.00452692
0.00386875
0.00334238
0.00291566
0.00256546
0.00227487
0.00203134
0.00182538
0.00164974
0.00149884
0.00136827
0.00125459
0.00115501
0.00106731
0.000989684
0.000920649
0.000858985
0.000803678
0.00644141
0.00536202
0.00452631
0.0038681
0.00334172
0.002915
0.00256481
0.00227425
0.00203074
0.00182481
0.0016492
0.00149832
0.00136778
0.00125412
0.00115457
0.00106689
0.000989283
0.000920267
0.000858619
0.000803329
0.00644111
0.00536157
0.00452577
0.00386751
0.00334112
0.00291441
0.00256424
0.0022737
0.00203021
0.0018243
0.00164872
0.00149787
0.00136735
0.00125371
0.00115417
0.00106652
0.000988927
0.000919927
0.000858295
0.000803018
0.00644085
0.00536116
0.00452529
0.00386699
0.00334059
0.00291388
0.00256373
0.0022732
0.00202974
0.00182385
0.00164829
0.00149746
0.00136696
0.00125334
0.00115382
0.00106618
0.000988606
0.000919621
0.000858003
0.000802739
0.00644062
0.00536079
0.00452485
0.00386652
0.00334011
0.00291341
0.00256326
0.00227276
0.00202931
0.00182344
0.0016479
0.00149709
0.00136661
0.001253
0.0011535
0.00106588
0.000988319
0.000919346
0.00085774
0.000802488
0.0064404
0.00536046
0.00452446
0.0038661
0.00333968
0.00291298
0.00256285
0.00227236
0.00202893
0.00182308
0.00164756
0.00149676
0.0013663
0.00125271
0.00115322
0.00106561
0.00098806
0.0009191
0.000857505
0.000802262
0.00644021
0.00536017
0.00452411
0.00386573
0.0033393
0.0029126
0.00256248
0.002272
0.00202859
0.00182275
0.00164725
0.00149646
0.00136601
0.00125244
0.00115296
0.00106536
0.000987829
0.000918879
0.000857293
0.00080206
0.00644004
0.0053599
0.00452379
0.00386539
0.00333896
0.00291226
0.00256215
0.00227168
0.00202828
0.00182246
0.00164697
0.0014962
0.00136576
0.0012522
0.00115273
0.00106515
0.000987621
0.00091868
0.000857103
0.000801878
0.00643989
0.00535967
0.00452351
0.00386509
0.00333865
0.00291196
0.00256185
0.0022714
0.00202801
0.0018222
0.00164672
0.00149596
0.00136554
0.00125198
0.00115253
0.00106495
0.000987434
0.000918502
0.000856933
0.000801715
0.00643976
0.00535945
0.00452326
0.00386482
0.00333837
0.00291169
0.00256159
0.00227114
0.00202776
0.00182196
0.00164649
0.00149574
0.00136533
0.00125179
0.00115235
0.00106477
0.000987267
0.000918342
0.00085678
0.000801568
0.00643963
0.00535926
0.00452303
0.00386458
0.00333813
0.00291144
0.00256135
0.00227091
0.00202754
0.00182175
0.00164629
0.00149555
0.00136515
0.00125162
0.00115218
0.00106462
0.000987117
0.000918199
0.000856643
0.000801437
0.00643953
0.00535909
0.00452283
0.00386436
0.00333791
0.00291122
0.00256113
0.0022707
0.00202734
0.00182156
0.00164611
0.00149538
0.00136499
0.00125146
0.00115203
0.00106448
0.000986982
0.000918069
0.000856519
0.000801318
0.00643943
0.00535894
0.00452265
0.00386417
0.00333771
0.00291102
0.00256094
0.00227052
0.00202717
0.00182139
0.00164595
0.00149523
0.00136484
0.00125132
0.0011519
0.00106435
0.00098686
0.000917953
0.000856408
0.000801212
0.00643934
0.00535881
0.00452249
0.00386399
0.00333753
0.00291085
0.00256077
0.00227035
0.00202701
0.00182124
0.00164581
0.00149509
0.00136471
0.00125119
0.00115178
0.00106423
0.000986751
0.000917849
0.000856308
0.000801116
0.00643926
0.00535868
0.00452234
0.00386384
0.00333737
0.00291069
0.00256062
0.0022702
0.00202686
0.0018211
0.00164567
0.00149497
0.00136459
0.00125108
0.00115167
0.00106413
0.000986653
0.000917755
0.000856218
0.000801029
0.00643919
0.00535857
0.00452221
0.0038637
0.00333723
0.00291055
0.00256048
0.00227007
0.00202674
0.00182098
0.00164556
0.00149486
0.00136449
0.00125098
0.00115158
0.00106404
0.000986566
0.000917672
0.000856138
0.000800953
0.00643913
0.00535847
0.0045221
0.00386357
0.0033371
0.00291042
0.00256035
0.00226995
0.00202662
0.00182087
0.00164545
0.00149475
0.00136439
0.00125089
0.00115149
0.00106396
0.000986485
0.000917595
0.000856064
0.000800882
0.00643907
0.00535839
0.00452199
0.00386346
0.00333699
0.00291031
0.00256025
0.00226985
0.00202652
0.00182078
0.00164536
0.00149467
0.00136431
0.00125081
0.00115141
0.00106388
0.000986416
0.000917528
0.000856001
0.000800821
0.00643902
0.00535831
0.0045219
0.00386336
0.00333688
0.00291021
0.00256014
0.00226975
0.00202642
0.00182068
0.00164527
0.00149458
0.00136423
0.00125073
0.00115134
0.00106381
0.00098635
0.000917465
0.00085594
0.000800762
0.00643898
0.00535824
0.00452182
0.00386327
0.0033368
0.00291012
0.00256006
0.00226967
0.00202635
0.00182061
0.0016452
0.00149452
0.00136416
0.00125067
0.00115128
0.00106376
0.000986295
0.000917413
0.00085589
0.000800714
0.00643893
0.00535817
0.00452174
0.00386319
0.00333671
0.00291003
0.00255997
0.00226958
0.00202627
0.00182053
0.00164513
0.00149445
0.00136409
0.00125061
0.00115122
0.0010637
0.00098624
0.00091736
0.000855839
0.000800665
0.0064389
0.00535812
0.00452168
0.00386312
0.00333664
0.00290997
0.00255991
0.00226952
0.00202621
0.00182048
0.00164507
0.00149439
0.00136404
0.00125056
0.00115117
0.00106366
0.000986198
0.000917319
0.0008558
0.000800628
0.00643886
0.00535806
0.00452161
0.00386305
0.00333657
0.00290989
0.00255984
0.00226945
0.00202614
0.00182041
0.00164501
0.00149433
0.00136399
0.00125051
0.00115112
0.00106361
0.000986151
0.000917274
0.000855757
0.000800587
0.00643884
0.00535802
0.00452156
0.003863
0.00333652
0.00290984
0.00255979
0.0022694
0.00202609
0.00182037
0.00164497
0.00149429
0.00136395
0.00125047
0.00115109
0.00106357
0.000986119
0.000917243
0.000855727
0.000800558
0.00643881
0.00535797
0.0045215
0.00386293
0.00333645
0.00290977
0.00255972
0.00226934
0.00202603
0.00182031
0.00164492
0.00149424
0.0013639
0.00125042
0.00115104
0.00106353
0.000986078
0.000917204
0.000855689
0.000800521
0.00643879
0.00535794
0.00452146
0.00386289
0.00333641
0.00290973
0.00255968
0.0022693
0.002026
0.00182027
0.00164488
0.00149421
0.00136387
0.00125039
0.00115101
0.0010635
0.000986051
0.000917178
0.000855664
0.000800497
0.00643877
0.00535791
0.00452143
0.00386285
0.00333637
0.00290969
0.00255964
0.00226926
0.00202596
0.00182024
0.00164485
0.00149418
0.00136384
0.00125036
0.00115099
0.00106348
0.000986025
0.000917153
0.00085564
0.000800474
0.00643875
0.00535788
0.00452139
0.00386282
0.00333633
0.00290966
0.00255961
0.00226923
0.00202593
0.00182021
0.00164482
0.00149415
0.00136381
0.00125034
0.00115096
0.00106345
0.000986001
0.000917131
0.000855619
0.000800454
0.00643873
0.00535786
0.00452136
0.00386278
0.00333629
0.00290962
0.00255957
0.00226919
0.00202589
0.00182018
0.00164479
0.00149412
0.00136378
0.00125031
0.00115093
0.00106343
0.000985978
0.000917108
0.000855597
0.000800433
0.00643872
0.00535784
0.00452134
0.00386276
0.00333627
0.0029096
0.00255955
0.00226917
0.00202587
0.00182015
0.00164477
0.0014941
0.00136376
0.00125029
0.00115092
0.00106341
0.000985962
0.000917092
0.000855582
0.000800418
0.00643865
0.00535774
0.00452122
0.00386263
0.00333614
0.00290947
0.00255942
0.00226905
0.00202575
0.00182004
0.00164466
0.00149399
0.00136366
0.0012502
0.00115083
0.00106332
0.000985877
0.000917011
0.000855504
0.000800343
2.3855
2.36457
2.11429
1.96221
1.86623
1.79023
1.72543
1.67012
1.62279
1.58176
1.54566
1.51348
1.4845
1.45818
1.43411
1.41198
1.39152
1.37252
1.35481
1.33824
1.32269
1.30806
1.29425
1.28119
1.26881
1.25705
1.24587
1.2352
1.22502
1.21528
1.20595
1.19702
1.18843
1.18019
1.17225
1.16461
1.15725
1.15014
1.14328
1.13665
1.13023
1.12403
1.11802
1.11219
1.10654
1.10107
1.09575
1.09058
1.08557
1.08069
1.07595
1.07134
1.06686
1.06249
1.05824
1.0541
1.05007
1.04614
1.0423
1.03857
1.03492
1.03136
1.02789
1.02449
1.02118
1.01794
1.01477
1.01167
1.00864
1.00566
1.00275
0.999895
0.997096
0.994337
0.991649
0.988934
0.986436
0.983482
0.981738
0.97774
0.33076
0.502959
0.645783
0.72678
0.743798
0.730639
0.709718
0.688705
0.669248
0.651517
0.635427
0.620839
0.607594
0.595532
0.584505
0.57438
0.565045
0.556405
0.548378
0.540895
0.533896
0.527332
0.521158
0.515337
0.509835
0.504625
0.499681
0.49498
0.490504
0.486233
0.482154
0.478252
0.474513
0.470928
0.467486
0.464176
0.460992
0.457925
0.454968
0.452116
0.44936
0.446698
0.444123
0.441631
0.439218
0.43688
0.434613
0.432413
0.430279
0.428206
0.426193
0.424237
0.422334
0.420484
0.418684
0.416932
0.415226
0.413565
0.411946
0.410369
0.408831
0.407331
0.405868
0.40444
0.403047
0.401685
0.400356
0.399056
0.397786
0.396543
0.395327
0.394136
0.392971
0.391828
0.390707
0.389608
0.388525
0.387481
0.386379
0.385238
0.0795926
0.122495
0.168142
0.22187
0.270451
0.304297
0.323636
0.332925
0.33618
0.335962
0.333774
0.330501
0.32667
0.322594
0.318458
0.314367
0.310381
0.306531
0.302834
0.299293
0.295908
0.292676
0.289589
0.28664
0.283823
0.28113
0.278553
0.276085
0.273719
0.27145
0.269272
0.267179
0.265166
0.263228
0.261361
0.259562
0.257826
0.256149
0.25453
0.252964
0.251449
0.249982
0.248562
0.247185
0.24585
0.244555
0.243298
0.242077
0.240891
0.239739
0.238618
0.237528
0.236468
0.235436
0.234431
0.233452
0.232498
0.231569
0.230663
0.229779
0.228917
0.228076
0.227256
0.226454
0.225672
0.224907
0.22416
0.223429
0.222714
0.222015
0.221331
0.220661
0.220005
0.219363
0.218732
0.218116
0.217504
0.216921
0.216321
0.215615
0.032769
0.0485945
0.0620692
0.0794671
0.101857
0.12626
0.148721
0.166796
0.179994
0.188967
0.194697
0.19809
0.199849
0.200484
0.200354
0.199707
0.198714
0.197493
0.196126
0.194669
0.193164
0.191637
0.190108
0.188592
0.187097
0.18563
0.184195
0.182795
0.181431
0.180105
0.178816
0.177564
0.176348
0.175168
0.174022
0.172911
0.171831
0.170783
0.169766
0.168778
0.167818
0.166885
0.165978
0.165096
0.164238
0.163404
0.162592
0.161802
0.161033
0.160284
0.159554
0.158843
0.15815
0.157474
0.156815
0.156173
0.155546
0.154934
0.154336
0.153753
0.153183
0.152627
0.152083
0.151551
0.151032
0.150524
0.150026
0.14954
0.149064
0.148597
0.148141
0.147693
0.147255
0.146826
0.146404
0.145992
0.145583
0.145194
0.144797
0.144325
0.0184422
0.0265304
0.0322903
0.0383746
0.0463694
0.0567481
0.0689652
0.08181
0.0939968
0.104628
0.113326
0.120111
0.125218
0.128949
0.131596
0.133407
0.134578
0.135266
0.135587
0.13563
0.135465
0.135142
0.134701
0.134172
0.133579
0.132939
0.132265
0.13157
0.130861
0.130144
0.129425
0.128707
0.127994
0.127287
0.12659
0.125902
0.125225
0.12456
0.123908
0.123267
0.12264
0.122025
0.121423
0.120834
0.120258
0.119695
0.119143
0.118604
0.118077
0.117561
0.117057
0.116564
0.116082
0.115611
0.11515
0.114699
0.114258
0.113827
0.113404
0.112991
0.112586
0.11219
0.111802
0.111421
0.111049
0.110684
0.110326
0.109976
0.109632
0.109295
0.108964
0.10864
0.108322
0.10801
0.107703
0.107404
0.107106
0.106822
0.106535
0.106195
0.0124222
0.0173048
0.020592
0.0234208
0.0266378
0.030763
0.0360318
0.0423963
0.0495451
0.0569994
0.0642602
0.0709345
0.0767915
0.0817508
0.0858384
0.0891388
0.0917594
0.093809
0.0953871
0.09658
0.0974598
0.0980862
0.0985076
0.0987635
0.0988856
0.0988998
0.0988269
0.0986839
0.0984844
0.0982397
0.097959
0.0976497
0.0973179
0.0969688
0.0966064
0.0962342
0.095855
0.0954712
0.0950847
0.0946971
0.0943097
0.0939236
0.0935398
0.093159
0.0927817
0.0924086
0.0920399
0.091676
0.0913172
0.0909636
0.0906154
0.0902726
0.0899354
0.0896038
0.0892777
0.088957
0.0886418
0.088332
0.0880274
0.0877281
0.0874339
0.0871446
0.0868603
0.0865807
0.0863059
0.0860358
0.0857701
0.0855089
0.0852521
0.0849995
0.0847512
0.084507
0.084267
0.0840311
0.0837989
0.0835716
0.0833461
0.0831294
0.0829123
0.0826564
0.0093486
0.0125615
0.014745
0.0164127
0.0180112
0.0198551
0.0221523
0.0250236
0.0285027
0.0325293
0.0369563
0.0415793
0.0461809
0.0505722
0.0546173
0.0582388
0.0614087
0.0641352
0.066448
0.068388
0.0699999
0.0713271
0.0724101
0.073285
0.0739832
0.074532
0.0749545
0.0752704
0.0754964
0.0756465
0.0757327
0.0757648
0.0757515
0.0756999
0.075616
0.075505
0.0753712
0.0752184
0.0750498
0.074868
0.0746754
0.0744741
0.0742656
0.0740514
0.0738329
0.073611
0.0733868
0.0731611
0.0729344
0.0727075
0.0724807
0.0722546
0.0720294
0.0718055
0.071583
0.0713622
0.0711432
0.0709262
0.0707112
0.0704982
0.0702875
0.0700789
0.0698725
0.0696683
0.0694665
0.0692669
0.0690696
0.0688746
0.0686819
0.0684916
0.0683037
0.0681182
0.0679351
0.0677546
0.0675763
0.0674013
0.0672275
0.0670593
0.0668923
0.0666946
0.00757007
0.00978693
0.0113494
0.012487
0.0134435
0.0144075
0.0155145
0.01686
0.0185086
0.0204948
0.0228195
0.0254475
0.0283102
0.0313146
0.0343589
0.0373466
0.0401983
0.0428566
0.0452867
0.0474733
0.0494157
0.0511234
0.0526121
0.0539006
0.055009
0.0559569
0.056763
0.0574444
0.0580167
0.0584936
0.0588874
0.0592088
0.0594673
0.059671
0.059827
0.0599416
0.0600202
0.0600674
0.0600874
0.0600838
0.0600596
0.0600176
0.0599601
0.0598892
0.0598068
0.0597145
0.0596136
0.0595054
0.0593909
0.0592712
0.0591469
0.0590189
0.0588878
0.0587541
0.0586182
0.0584806
0.0583416
0.0582015
0.0580605
0.0579189
0.0577768
0.0576344
0.0574919
0.0573493
0.0572069
0.0570646
0.0569228
0.0567813
0.0566404
0.0565002
0.0563606
0.056222
0.0560843
0.0559477
0.0558122
0.0556784
0.0555452
0.0554151
0.0552869
0.0551334
0.00644939
0.0080188
0.00917856
0.010018
0.0106709
0.0112528
0.0118523
0.0125346
0.0133485
0.0143299
0.0155031
0.0168799
0.0184579
0.0202191
0.0221312
0.0241503
0.0262262
0.0283078
0.0303487
0.0323103
0.0341637
0.0358896
0.0374774
0.0389235
0.0402296
0.041401
0.0424455
0.0433723
0.044191
0.0449112
0.0455425
0.0460937
0.046573
0.0469881
0.0473458
0.0476525
0.0479136
0.0481341
0.0483187
0.0484711
0.0485951
0.0486937
0.0487698
0.0488259
0.0488642
0.0488868
0.0488953
0.0488913
0.0488763
0.0488515
0.048818
0.0487768
0.0487287
0.0486745
0.0486149
0.0485504
0.0484816
0.0484089
0.0483328
0.0482535
0.0481714
0.0480867
0.0479997
0.0479107
0.0478198
0.0477273
0.0476333
0.047538
0.0474416
0.0473443
0.0472463
0.0471477
0.0470486
0.0469494
0.04685
0.046751
0.046652
0.046554
0.0464581
0.0463403
0.00569835
0.00682211
0.00769721
0.00834119
0.00882444
0.00921799
0.00958044
0.00995708
0.0103825
0.0108834
0.0114808
0.0121902
0.0130227
0.0139832
0.0150703
0.0162757
0.0175839
0.0189736
0.0204195
0.0218941
0.0233702
0.0248233
0.0262323
0.0275804
0.0288558
0.0300505
0.0311602
0.0321838
0.0331223
0.0339784
0.0347559
0.0354594
0.0360938
0.0366642
0.0371757
0.037633
0.038041
0.0384039
0.0387258
0.0390106
0.0392616
0.039482
0.0396748
0.0398425
0.0399876