/*--------------------------------*- C++ -*----------------------------------*\
| =========                 |                                                 |
| \\      /  F ield         | OpenFOAM: The Open Source CFD Toolbox           |
|  \\    /   O peration     | Version:  v1912                                 |
|   \\  /    A nd           | Website:  www.openfoam.com                      |
|    \\/     M anipulation  |                                                 |
\*---------------------------------------------------------------------------*/
FoamFile
{
    version     2.0;
    format      ascii;
    class       volScalarField;
    location    "100";
    object      k;
}
// * * * * * * * * * * * * * * * * * * * * * * * * * * * * * * * * * * * * * //

dimensions      [0 2 -2 0 0 0 0];


internalField   nonuniform List<scalar> 
10000
(
0.00284695
0.00283341
0.00282363
0.00281847
0.00281773
0.00282094
0.00282754
0.00283687
0.00284822
0.00286075
0.00287365
0.00288619
0.00289785
0.00290831
0.00291749
0.00292544
0.00293226
0.00293817
0.00294288
0.00294662
0.00284233
0.00282875
0.00281892
0.00281371
0.00281292
0.0028161
0.00282268
0.00283202
0.00284338
0.00285596
0.00286892
0.00288154
0.00289329
0.00290385
0.00291313
0.00292117
0.00292808
0.00293408
0.00293885
0.00293826
0.00283228
0.00281864
0.0028087
0.00280337
0.00280248
0.00280559
0.00281213
0.00282147
0.00283288
0.00284555
0.00285864
0.00287143
0.00288338
0.00289415
0.00290365
0.00291189
0.002919
0.00292518
0.00293011
0.00292595
0.00281674
0.002803
0.0027929
0.00278738
0.00278633
0.00278932
0.00279579
0.00280512
0.00281659
0.00282938
0.00284268
0.00285572
0.00286797
0.00287906
0.00288888
0.00289745
0.00290486
0.00291132
0.0029165
0.00290994
0.00279563
0.00278175
0.00277142
0.00276564
0.00276436
0.00276717
0.00277354
0.00278284
0.00279437
0.00280732
0.00282086
0.00283423
0.00284687
0.0028584
0.00286866
0.00287766
0.00288548
0.00289233
0.00289786
0.00289
0.00276884
0.00275477
0.00274416
0.00273805
0.00273646
0.00273902
0.00274523
0.00275447
0.00276604
0.00277916
0.00279299
0.00280676
0.00281987
0.00283193
0.00284275
0.0028523
0.00286065
0.00286801
0.00287398
0.00286584
0.00273626
0.00272195
0.00271099
0.00270447
0.00270249
0.00270473
0.00271071
0.00271983
0.00273143
0.00274471
0.00275885
0.00277307
0.00278673
0.00279942
0.0028109
0.00282112
0.00283012
0.0028381
0.00284465
0.00283708
0.00269775
0.00268314
0.00267177
0.00266476
0.0026623
0.00266413
0.0026698
0.00267875
0.00269032
0.00270374
0.00271819
0.00273289
0.00274718
0.00276058
0.00277283
0.00278384
0.00279361
0.00280234
0.00280959
0.00280333
0.00265319
0.0026382
0.00262637
0.00261878
0.00261575
0.00261707
0.00262234
0.00263102
0.00264249
0.00265601
0.00267077
0.00268597
0.00270092
0.00271511
0.00272823
0.00274014
0.00275081
0.00276042
0.00276852
0.00276413
0.00260241
0.00258698
0.00257463
0.0025664
0.00256268
0.00256338
0.00256813
0.00257645
0.00258774
0.00260128
0.0026163
0.00263198
0.00264763
0.00266267
0.00267675
0.00268967
0.00270137
0.002712
0.00272108
0.00271901
0.00254531
0.00252933
0.0025164
0.00250745
0.00250296
0.00250291
0.00250702
0.00251484
0.00252583
0.00253931
0.00255451
0.00257064
0.00258697
0.00260291
0.00261801
0.00263205
0.00264489
0.00265668
0.00266691
0.00266747
0.00248175
0.00246513
0.00245156
0.00244182
0.00243644
0.00243552
0.00243884
0.00244603
0.00245657
0.00246985
0.00248512
0.00250163
0.00251861
0.00253544
0.00255162
0.00256686
0.00258096
0.00259404
0.00260557
0.00260898
0.00241166
0.00239425
0.00237999
0.00236939
0.00236304
0.00236111
0.00236349
0.00236986
0.00237979
0.0023927
0.0024079
0.00242465
0.00244221
0.00245989
0.00247716
0.00249365
0.00250911
0.00252361
0.0025366
0.00254298
0.00233499
0.00231664
0.00230159
0.00229009
0.00228267
0.00227961
0.00228088
0.00228626
0.00229536
0.0023077
0.00232263
0.00233946
0.00235744
0.00237589
0.00239421
0.00241198
0.00242887
0.00244489
0.00245947
0.00246889
0.00225177
0.00223228
0.00221634
0.00220388
0.00219533
0.00219101
0.00219101
0.00219519
0.00220325
0.00221477
0.00222919
0.00224586
0.00226407
0.00228313
0.0023024
0.00232141
0.00233974
0.00235736
0.00237365
0.00238609
0.00216214
0.00214128
0.00212429
0.0021108
0.00210107
0.0020954
0.00209397
0.00209674
0.0021035
0.00211393
0.00212754
0.00214377
0.00216193
0.00218137
0.00220141
0.00222154
0.00224126
0.0022605
0.00227857
0.00229398
0.00206636
0.00204385
0.00202561
0.002011
0.00200003
0.00199295
0.00198996
0.00199113
0.00199634
0.00200537
0.00201783
0.00203325
0.00205102
0.0020705
0.00209104
0.00211207
0.00213306
0.00215385
0.00217371
0.00219195
0.0019649
0.00194043
0.00192067
0.00190479
0.00189252
0.00188398
0.00187934
0.00187873
0.00188215
0.00188946
0.00190041
0.0019146
0.00193154
0.00195064
0.00197128
0.00199289
0.00201488
0.00203705
0.00205861
0.00207949
0.00185847
0.00183171
0.0018101
0.0017927
0.00177903
0.00176898
0.00176263
0.00176013
0.00176155
0.00176685
0.0017759
0.00178841
0.00180401
0.0018222
0.00184243
0.00186415
0.00188673
0.00190996
0.001933
0.00195619
0.0017481
0.00171871
0.00169487
0.00167565
0.00166037
0.00164871
0.00164062
0.00163617
0.00163544
0.00163848
0.00164527
0.00165564
0.00166935
0.00168602
0.0017052
0.00172639
0.001749
0.00177278
0.0017969
0.00182194
0.00163515
0.00160285
0.00157643
0.00155499
0.0015378
0.00152437
0.00151445
0.00150799
0.00150503
0.00150565
0.00150989
0.0015177
0.00152897
0.00154347
0.00156086
0.00158076
0.00160263
0.00162626
0.00165081
0.00167705
0.0015214
0.00148599
0.00145668
0.00143265
0.00141318
0.00139769
0.00138577
0.00137722
0.00137198
0.00137008
0.00137158
0.00137651
0.00138487
0.00139656
0.00141139
0.00142912
0.00144933
0.00147188
0.00149599
0.00152251
0.00140899
0.00137039
0.00133803
0.00131114
0.00128904
0.00127113
0.00125694
0.00124613
0.00123852
0.00123404
0.0012327
0.00123456
0.00123965
0.00124801
0.00125957
0.00127425
0.00129178
0.00131214
0.00133468
0.0013603
0.00130024
0.00125858
0.00122321
0.00119338
0.00116847
0.00114788
0.00113113
0.00111782
0.00110768
0.00110052
0.00109629
0.00109497
0.00109661
0.00110129
0.00110904
0.0011199
0.00113377
0.00115077
0.00117045
0.00119374
0.00119753
0.0011531
0.001115
0.00108244
0.00105478
0.00103147
0.00101203
0.000996057
0.000983223
0.000973292
0.000966107
0.000961594
0.000959745
0.000960607
0.000964247
0.000970778
0.000980221
0.00099282
0.00100835
0.00102777
0.0011029
0.00105619
0.00101583
0.000980983
0.00095097
0.000925228
0.000903281
0.000884732
0.000869248
0.000856561
0.000846469
0.000838836
0.000833587
0.000830715
0.000830253
0.000832308
0.000836955
0.000844491
0.000854885
0.000869075
0.00101785
0.000969415
0.0009274
0.000890879
0.000859115
0.000831507
0.000807564
0.000786881
0.00076912
0.000754003
0.000741306
0.000730858
0.000722537
0.000716277
0.000712055
0.000709927
0.000709945
0.000712374
0.000717276
0.000725486
0.000943115
0.00089353
0.000850463
0.000812907
0.000780057
0.000751269
0.000726019
0.000703879
0.000684497
0.000667585
0.000652902
0.000640257
0.000629499
0.000620522
0.000613253
0.000607682
0.000603813
0.000601812
0.000601746
0.000604237
0.000878719
0.000828467
0.000784866
0.000746824
0.000713475
0.000684131
0.000658233
0.000635329
0.000615047
0.000597082
0.000581182
0.000567139
0.000554782
0.000543979
0.000534625
0.00052666
0.000520039
0.00051483
0.000511054
0.00050909
0.000824071
0.000773525
0.000729775
0.000691652
0.000658236
0.000628799
0.000602754
0.000579626
0.000559028
0.000540639
0.000524196
0.00050948
0.000496308
0.000484531
0.000474026
0.000464704
0.000456489
0.000449379
0.000443351
0.000438594
0.000778206
0.000727621
0.000683975
0.00064603
0.000612819
0.000583579
0.000557702
0.000534694
0.000514156
0.000495758
0.000479229
0.000464342
0.000450908
0.00043877
0.000427796
0.000417882
0.000408938
0.000400922
0.000393787
0.000387603
0.000739983
0.000689516
0.00064612
0.000608495
0.000575635
0.000546746
0.000521201
0.000498496
0.000478219
0.000460037
0.000443672
0.000428894
0.000415512
0.000403365
0.000392317
0.000382258
0.000373093
0.000364759
0.000357199
0.000350421
0.000708244
0.00065798
0.000614905
0.000577664
0.000545214
0.000516738
0.000491594
0.000469265
0.000449335
0.000431466
0.000415377
0.000400837
0.000387654
0.000375665
0.000364734
0.000354747
0.000345609
0.000337247
0.0003296
0.000322644
0.000681913
0.00063189
0.000589159
0.000552314
0.000520282
0.000492228
0.000467493
0.000445555
0.000425992
0.000408462
0.000392684
0.000378425
0.000365493
0.000353725
0.000342986
0.000333161
0.000324154
0.000315888
0.000308299
0.000301347
0.000660043
0.00061027
0.000567874
0.000531412
0.000499779
0.000472125
0.00044778
0.000426215
0.000407005
0.000389804
0.000374331
0.000360354
0.000347679
0.000336145
0.000325617
0.000315979
0.000307136
0.00029901
0.000291534
0.000284661
0.000641828
0.000592296
0.000550217
0.000514107
0.000482841
0.000455553
0.000431564
0.000410341
0.000391454
0.000374556
0.000359367
0.000345652
0.000333219
0.000321908
0.000311583
0.000302131
0.000293456
0.000285477
0.000278129
0.000271358
0.000626601
0.000577295
0.000535503
0.000499711
0.000468775
0.000441814
0.000418144
0.000397226
0.000378627
0.000362001
0.000347066
0.000333587
0.000321374
0.000310266
0.000300128
0.000290847
0.000282328
0.000274491
0.000267267
0.000260602
0.000613818
0.000564716
0.000523181
0.000487673
0.000457028
0.000430357
0.000406968
0.000386319
0.000367975
0.000351588
0.000336877
0.000323607
0.000311589
0.000300661
0.000290689
0.000281562
0.000273184
0.000265475
0.000258367
0.000251802
0.000603035
0.000554117
0.000512811
0.000477553
0.000447164
0.000420747
0.000397604
0.000377189
0.000359068
0.000342891
0.000328376
0.000315289
0.000303441
0.000292671
0.000282846
0.000273855
0.000265602
0.000258007
0.000251002
0.000244529
0.000593898
0.000545142
0.000504038
0.000468999
0.000438835
0.000412639
0.000389711
0.000369501
0.000351574
0.000335579
0.000321234
0.000308307
0.000296607
0.000285975
0.000276279
0.000267406
0.000259262
0.000251768
0.000244854
0.000238464
0.000586118
0.000537507
0.00049658
0.000461733
0.000431765
0.000405762
0.000383021
0.000362989
0.000345231
0.000329394
0.000315198
0.000302409
0.000290838
0.000280326
0.000270741
0.000261972
0.000253923
0.000246517
0.000239684
0.000233366
0.000579463
0.00053098
0.000490209
0.000455529
0.000425732
0.000399898
0.00037732
0.000357443
0.000339831
0.000324133
0.000310065
0.000297397
0.000285938
0.00027553
0.000266042
0.000257362
0.000249397
0.000242067
0.000235305
0.000229051
0.000573748
0.000525376
0.000484741
0.000450209
0.000420561
0.000394874
0.000372438
0.000352696
0.000335212
0.000319633
0.000305678
0.000293114
0.000281753
0.000271436
0.000262032
0.00025343
0.000245538
0.000238275
0.000231573
0.000225375
0.000568818
0.000520545
0.000480029
0.000445626
0.000416109
0.000390551
0.000368238
0.000348614
0.000331241
0.000315767
0.000301909
0.000289436
0.00027816
0.000267922
0.000258591
0.000250058
0.000242229
0.000235024
0.000228376
0.000222227
0.00056455
0.000516364
0.000475953
0.000441663
0.00041226
0.000386814
0.000364609
0.000345089
0.000327812
0.000312429
0.000298657
0.000286264
0.000275061
0.000264893
0.000255626
0.000247152
0.000239378
0.000232224
0.000225624
0.000219518
0.000560842
0.000512732
0.000472414
0.000438223
0.00040892
0.000383573
0.000361463
0.000342032
0.000324841
0.000309538
0.00029584
0.000283516
0.000272379
0.00026227
0.00025306
0.000244638
0.000236912
0.000229803
0.000223243
0.000217175
0.00055761
0.000509568
0.000469331
0.000435227
0.000406013
0.000380752
0.000358725
0.000339373
0.000322257
0.000307023
0.00029339
0.000281128
0.000270047
0.000259991
0.00025083
0.000242454
0.00023477
0.0002277
0.000221177
0.000215142
0.000554786
0.000506803
0.000466638
0.00043261
0.000403474
0.000378289
0.000356335
0.000337053
0.000320002
0.00030483
0.000291254
0.000279045
0.000268014
0.000258005
0.000248886
0.00024055
0.000232903
0.000225868
0.000219376
0.000213371
0.000552311
0.000504381
0.000464279
0.000430319
0.00040125
0.000376132
0.000354243
0.000335022
0.000318028
0.00030291
0.000289385
0.000277224
0.000266236
0.000256267
0.000247187
0.000238886
0.000231272
0.000224267
0.000217803
0.000211823
0.000550136
0.000502253
0.000462207
0.000428307
0.000399299
0.00037424
0.000352407
0.00033324
0.000316297
0.000301227
0.000287746
0.000275626
0.000264677
0.000254744
0.000245697
0.000237427
0.000229842
0.000222863
0.000216424
0.000210468
0.000548223
0.000500381
0.000460384
0.000426536
0.000397582
0.000372575
0.000350793
0.000331674
0.000314775
0.000299747
0.000286306
0.000274222
0.000263307
0.000253406
0.000244388
0.000236146
0.000228586
0.000221631
0.000215214
0.000209277
0.000546535
0.000498729
0.000458777
0.000424976
0.000396069
0.000371108
0.00034937
0.000330293
0.000313434
0.000298443
0.000285037
0.000272985
0.0002621
0.000252227
0.000243236
0.000235017
0.00022748
0.000220546
0.000214148
0.000208229
0.000545044
0.000497271
0.000457358
0.000423598
0.000394733
0.000369813
0.000348115
0.000329075
0.000312251
0.000297293
0.000283917
0.000271894
0.000261036
0.000251187
0.000242219
0.000234022
0.000226504
0.000219588
0.000213208
0.000207305
0.000543726
0.000495981
0.000456102
0.00042238
0.000393551
0.000368668
0.000347004
0.000327997
0.000311205
0.000296276
0.000282927
0.000270929
0.000260095
0.000250269
0.000241321
0.000233142
0.000225642
0.000218743
0.000212377
0.000206488
0.000542558
0.000494839
0.00045499
0.000421301
0.000392505
0.000367654
0.000346021
0.000327044
0.000310279
0.000295376
0.000282051
0.000270076
0.000259263
0.000249456
0.000240526
0.000232364
0.00022488
0.000217995
0.000211643
0.000205766
0.000541522
0.000493826
0.000454005
0.000420344
0.000391578
0.000366755
0.00034515
0.000326198
0.000309458
0.000294578
0.000281275
0.00026932
0.000258525
0.000248735
0.000239821
0.000231675
0.000224204
0.000217332
0.000210992
0.000205127
0.000540602
0.000492927
0.00045313
0.000419495
0.000390755
0.000365958
0.000344377
0.000325448
0.00030873
0.00029387
0.000280586
0.000268649
0.000257871
0.000248096
0.000239197
0.000231063
0.000223605
0.000216745
0.000210415
0.000204559
0.000539785
0.000492127
0.000452352
0.00041874
0.000390023
0.000365249
0.00034369
0.000324782
0.000308083
0.000293241
0.000279974
0.000268053
0.000257289
0.000247529
0.000238642
0.00023052
0.000223073
0.000216223
0.000209903
0.000204056
0.000539059
0.000491417
0.000451661
0.000418069
0.000389373
0.000364619
0.00034308
0.00032419
0.000307508
0.000292683
0.000279431
0.000267523
0.000256773
0.000247024
0.000238149
0.000230038
0.000222601
0.000215759
0.000209447
0.000203608
0.000538411
0.000490784
0.000451045
0.000417472
0.000388795
0.000364059
0.000342536
0.000323663
0.000306996
0.000292185
0.000278947
0.000267052
0.000256313
0.000246575
0.00023771
0.000229609
0.00022218
0.000215347
0.000209042
0.00020321
0.000537836
0.000490222
0.000450498
0.000416941
0.00038828
0.00036356
0.000342053
0.000323194
0.000306541
0.000291743
0.000278516
0.000266633
0.000255904
0.000246176
0.00023732
0.000229227
0.000221806
0.00021498
0.000208682
0.000202856
0.000537322
0.000489719
0.000450009
0.000416467
0.00038782
0.000363115
0.000341621
0.000322776
0.000306135
0.000291348
0.000278133
0.000266259
0.00025554
0.00024582
0.000236972
0.000228886
0.000221472
0.000214653
0.000208361
0.00020254
0.000536865
0.000489272
0.000449574
0.000416045
0.000387412
0.000362719
0.000341237
0.000322403
0.000305774
0.000290997
0.000277791
0.000265926
0.000255215
0.000245504
0.000236662
0.000228583
0.000221176
0.000214361
0.000208075
0.00020226
0.000536456
0.000488873
0.000449186
0.000415668
0.000387046
0.000362365
0.000340894
0.000322071
0.000305451
0.000290683
0.000277486
0.000265629
0.000254925
0.000245221
0.000236386
0.000228313
0.00022091
0.000214101
0.00020782
0.000202009
0.000536092
0.000488517
0.00044884
0.000415332
0.000386721
0.00036205
0.000340589
0.000321775
0.000305164
0.000290404
0.000277214
0.000265364
0.000254668
0.000244969
0.00023614
0.000228072
0.000220674
0.00021387
0.000207593
0.000201785
0.000535767
0.000488199
0.00044853
0.000415032
0.00038643
0.000361768
0.000340316
0.00032151
0.000304907
0.000290154
0.000276971
0.000265128
0.000254437
0.000244743
0.000235919
0.000227856
0.000220463
0.000213663
0.000207389
0.000201585
0.000535477
0.000487915
0.000448254
0.000414765
0.000386171
0.000361517
0.000340073
0.000321274
0.000304678
0.000289932
0.000276755
0.000264917
0.000254231
0.000244543
0.000235723
0.000227664
0.000220275
0.000213478
0.000207208
0.000201407
0.000535217
0.000487661
0.000448007
0.000414525
0.000385938
0.000361292
0.000339855
0.000321062
0.000304472
0.000289732
0.000276561
0.000264728
0.000254047
0.000244363
0.000235547
0.000227492
0.000220106
0.000213313
0.000207046
0.000201248
0.000534984
0.000487434
0.000447786
0.00041431
0.000385731
0.00036109
0.000339659
0.000320873
0.000304289
0.000289554
0.000276387
0.000264559
0.000253882
0.000244202
0.00023539
0.000227338
0.000219956
0.000213165
0.0002069
0.000201105
0.000534776
0.00048723
0.000447588
0.000414118
0.000385544
0.00036091
0.000339485
0.000320704
0.000304124
0.000289394
0.000276232
0.000264407
0.000253734
0.000244058
0.000235249
0.0002272
0.00021982
0.000213032
0.00020677
0.000200977
0.000534591
0.000487049
0.000447412
0.000413947
0.000385379
0.00036075
0.000339329
0.000320553
0.000303978
0.000289252
0.000276093
0.000264273
0.000253603
0.00024393
0.000235124
0.000227078
0.0002197
0.000212915
0.000206655
0.000200863
0.000534427
0.000486889
0.000447256
0.000413796
0.000385232
0.000360607
0.000339192
0.00032042
0.000303848
0.000289126
0.000275971
0.000264153
0.000253487
0.000243816
0.000235012
0.000226969
0.000219594
0.00021281
0.000206552
0.000200762
0.000534279
0.000486744
0.000447116
0.00041366
0.0003851
0.00036048
0.000339068
0.0003203
0.000303732
0.000289013
0.000275861
0.000264046
0.000253382
0.000243714
0.000234913
0.000226871
0.000219498
0.000212716
0.000206459
0.000200671
0.000534147
0.000486615
0.00044699
0.000413538
0.000384982
0.000360365
0.000338957
0.000320192
0.000303627
0.000288911
0.000275762
0.00026395
0.000253288
0.000243622
0.000234823
0.000226783
0.000219412
0.000212631
0.000206376
0.00020059
0.000534028
0.000486499
0.000446877
0.000413428
0.000384876
0.000360263
0.000338857
0.000320095
0.000303534
0.00028882
0.000275673
0.000263864
0.000253204
0.00024354
0.000234742
0.000226704
0.000219335
0.000212556
0.000206302
0.000200517
0.000533922
0.000486396
0.000446776
0.000413331
0.000384781
0.000360171
0.000338768
0.000320009
0.00030345
0.000288739
0.000275594
0.000263786
0.000253129
0.000243466
0.000234671
0.000226634
0.000219265
0.000212488
0.000206235
0.000200451
0.000533827
0.000486303
0.000446686
0.000413243
0.000384697
0.000360089
0.000338689
0.000319932
0.000303375
0.000288666
0.000275523
0.000263717
0.000253061
0.0002434
0.000234606
0.000226571
0.000219204
0.000212427
0.000206176
0.000200393
0.000533742
0.00048622
0.000446605
0.000413165
0.000384621
0.000360015
0.000338617
0.000319863
0.000303308
0.000288601
0.000275459
0.000263655
0.000253001
0.000243341
0.000234548
0.000226514
0.000219148
0.000212373
0.000206122
0.00020034
0.000533666
0.000486145
0.000446533
0.000413094
0.000384553
0.000359949
0.000338554
0.000319801
0.000303247
0.000288542
0.000275403
0.0002636
0.000252946
0.000243288
0.000234496
0.000226464
0.000219098
0.000212324
0.000206074
0.000200293
0.000533598
0.000486079
0.000446468
0.000413032
0.000384492
0.00035989
0.000338496
0.000319745
0.000303194
0.00028849
0.000275352
0.00026355
0.000252898
0.000243241
0.00023445
0.000226418
0.000219054
0.00021228
0.000206031
0.00020025
0.000533537
0.000486019
0.00044641
0.000412975
0.000384437
0.000359837
0.000338445
0.000319695
0.000303145
0.000288443
0.000275306
0.000263505
0.000252854
0.000243198
0.000234408
0.000226377
0.000219014
0.000212241
0.000205993
0.000200212
0.000533482
0.000485966
0.000446358
0.000412925
0.000384388
0.00035979
0.000338399
0.000319651
0.000303102
0.000288401
0.000275265
0.000263465
0.000252815
0.00024316
0.000234371
0.000226341
0.000218978
0.000212206
0.000205958
0.000200178
0.000533433
0.000485918
0.000446312
0.00041288
0.000384345
0.000359747
0.000338358
0.000319611
0.000303063
0.000288363
0.000275228
0.00026343
0.000252781
0.000243126
0.000234338
0.000226308
0.000218946
0.000212174
0.000205927
0.000200148
0.000533389
0.000485875
0.00044627
0.000412839
0.000384305
0.000359709
0.000338321
0.000319575
0.000303028
0.000288329
0.000275195
0.000263397
0.000252749
0.000243095
0.000234308
0.000226278
0.000218917
0.000212146
0.000205899
0.00020012
0.000533351
0.000485837
0.000446233
0.000412803
0.00038427
0.000359676
0.000338288
0.000319543
0.000302998
0.000288299
0.000275166
0.000263369
0.000252721
0.000243068
0.000234281
0.000226252
0.000218891
0.000212121
0.000205874
0.000200096
0.000533315
0.000485802
0.000446199
0.00041277
0.000384238
0.000359645
0.000338258
0.000319514
0.000302969
0.000288272
0.000275139
0.000263343
0.000252696
0.000243043
0.000234257
0.000226228
0.000218868
0.000212097
0.000205851
0.000200073
0.000533284
0.000485772
0.00044617
0.000412742
0.000384211
0.000359618
0.000338233
0.000319489
0.000302945
0.000288248
0.000275116
0.00026332
0.000252674
0.000243022
0.000234235
0.000226208
0.000218847
0.000212077
0.000205832
0.000200054
0.000533255
0.000485743
0.000446142
0.000412715
0.000384185
0.000359593
0.000338208
0.000319465
0.000302922
0.000288225
0.000275094
0.000263299
0.000252653
0.000243001
0.000234215
0.000226188
0.000218828
0.000212058
0.000205813
0.000200036
0.000533231
0.00048572
0.000446119
0.000412693
0.000384163
0.000359572
0.000338188
0.000319446
0.000302903
0.000288207
0.000275076
0.000263281
0.000252635
0.000242984
0.000234199
0.000226172
0.000218812
0.000212043
0.000205798
0.00020002
0.000533206
0.000485696
0.000446096
0.00041267
0.000384141
0.000359551
0.000338167
0.000319426
0.000302883
0.000288188
0.000275058
0.000263263
0.000252618
0.000242967
0.000234182
0.000226155
0.000218796
0.000212027
0.000205782
0.000200005
0.000533188
0.000485678
0.000446078
0.000412653
0.000384125
0.000359535
0.000338152
0.000319411
0.000302869
0.000288174
0.000275044
0.00026325
0.000252605
0.000242954
0.000234169
0.000226143
0.000218784
0.000212015
0.00020577
0.000199993
0.000533167
0.000485657
0.000446058
0.000412634
0.000384106
0.000359517
0.000338134
0.000319394
0.000302852
0.000288158
0.000275028
0.000263235
0.00025259
0.00024294
0.000234155
0.000226129
0.00021877
0.000212001
0.000205757
0.00019998
0.000533153
0.000485644
0.000446045
0.000412621
0.000384094
0.000359505
0.000338123
0.000319382
0.000302841
0.000288147
0.000275018
0.000263224
0.00025258
0.00024293
0.000234146
0.00022612
0.000218761
0.000211992
0.000205748
0.000199971
0.000533135
0.000485626
0.000446028
0.000412604
0.000384078
0.000359489
0.000338107
0.000319368
0.000302827
0.000288133
0.000275004
0.000263211
0.000252567
0.000242917
0.000234133
0.000226107
0.000218749
0.000211981
0.000205736
0.00019996
0.000533123
0.000485615
0.000446017
0.000412594
0.000384067
0.000359479
0.000338097
0.000319358
0.000302818
0.000288124
0.000274995
0.000263202
0.000252559
0.000242909
0.000234125
0.000226099
0.000218741
0.000211973
0.000205729
0.000199953
0.000533112
0.000485604
0.000446006
0.000412584
0.000384057
0.000359469
0.000338088
0.000319349
0.000302809
0.000288115
0.000274987
0.000263194
0.000252551
0.000242901
0.000234117
0.000226092
0.000218734
0.000211966
0.000205722
0.000199946
0.000533102
0.000485594
0.000445997
0.000412574
0.000384048
0.000359461
0.00033808
0.000319341
0.000302801
0.000288108
0.000274979
0.000263187
0.000252543
0.000242894
0.00023411
0.000226085
0.000218727
0.000211959
0.000205715
0.000199939
0.000533092
0.000485584
0.000445987
0.000412565
0.00038404
0.000359452
0.000338071
0.000319333
0.000302793
0.0002881
0.000274972
0.00026318
0.000252536
0.000242887
0.000234104
0.000226078
0.00021872
0.000211952
0.000205709
0.000199933
0.000533086
0.000485578
0.000445981
0.000412559
0.000384033
0.000359446
0.000338066
0.000319327
0.000302787
0.000288095
0.000274967
0.000263174
0.000252531
0.000242882
0.000234099
0.000226074
0.000218716
0.000211948
0.000205704
0.000199928
0.000533051
0.000485543
0.000445947
0.000412526
0.000384001
0.000359415
0.000338035
0.000319297
0.000302758
0.000288066
0.000274939
0.000263147
0.000252504
0.000242856
0.000234073
0.000226048
0.00021869
0.000211923
0.00020568
0.000199904
0.00774829
0.00770345
0.00714987
0.00680291
0.00657929
0.00639942
0.00624402
0.00610985
0.00599383
0.00589236
0.00580234
0.00572151
0.00564822
0.00558124
0.00551963
0.00546267
0.00540974
0.00536035
0.00531411
0.00527066
0.00522972
0.00519105
0.00515442
0.00511965
0.00508658
0.00505507
0.00502499
0.00499624
0.0049687
0.0049423
0.00491696
0.0048926
0.00486916
0.00484658
0.0048248
0.00480378
0.00478348
0.00476385
0.00474486
0.00472646
0.00470864
0.00469136
0.0046746
0.00465832
0.00464251
0.00462715
0.00461222
0.00459769
0.00458356
0.0045698
0.0045564
0.00454335
0.00453063
0.00451823
0.00450614
0.00449435
0.00448285
0.00447162
0.00446066
0.00444996
0.00443951
0.00442929
0.00441931
0.00440954
0.0044
0.00439065
0.0043815
0.00437253
0.00436375
0.00435514
0.0043467
0.00433841
0.00433028
0.00432226
0.00431444
0.00430653
0.00429925
0.00429064
0.00428555
0.00427387
0.0032146
0.00385003
0.00477785
0.00546019
0.00576648
0.0058612
0.00587461
0.00585822
0.00582807
0.0057903
0.00574848
0.00570496
0.00566123
0.00561814
0.00557617
0.00553556
0.00549643
0.00545881
0.00542269
0.00538802
0.00535474
0.00532278
0.00529209
0.0052626
0.00523422
0.00520692
0.00518061
0.00515526
0.0051308
0.00510718
0.00508437
0.00506231
0.00504096
0.0050203
0.00500028
0.00498088
0.00496206
0.00494379
0.00492605
0.00490882
0.00489207
0.00487578
0.00485993
0.00484451
0.00482949
0.00481487
0.00480062
0.00478673
0.0047732
0.00476
0.00474712
0.00473456
0.0047223
0.00471033
0.00469864
0.00468723
0.00467609
0.00466519
0.00465454
0.00464413
0.00463395
0.00462399
0.00461424
0.00460469
0.00459534
0.00458618
0.0045772
0.0045684
0.00455976
0.00455128
0.00454295
0.00453477
0.00452673
0.00451883
0.00451104
0.00450342
0.00449579
0.00448861
0.00448091
0.00447196
0.00267806
0.00250679
0.00267515
0.00311981
0.00362761
0.00404921
0.00435191
0.0045588
0.00469891
0.00479334
0.00485617
0.00489688
0.00492199
0.00493602
0.0049421
0.00494242
0.00493854
0.00493158
0.00492235
0.00491147
0.00489937
0.0048864
0.00487282
0.00485882
0.00484455
0.00483013
0.00481565
0.00480118
0.00478678
0.00477249
0.00475833
0.00474435
0.00473054
0.00471694
0.00470354
0.00469036
0.0046774
0.00466467
0.00465216
0.00463987
0.00462782
0.00461599
0.00460438
0.00459299
0.00458183
0.00457087
0.00456014
0.00454961
0.00453929
0.00452918
0.00451926
0.00450955
0.00450002
0.00449069
0.00448154
0.00447257
0.00446377
0.00445515
0.00444668
0.00443838
0.00443023
0.00442223
0.00441438
0.00440665
0.00439907
0.00439161
0.00438426
0.00437703
0.00436992
0.00436291
0.004356
0.00434919
0.00434247
0.00433584
0.00432928
0.00432285
0.00431638
0.00431017
0.00430419
0.00429523
0.00268379
0.00243349
0.00229402
0.00232844
0.00252705
0.00282448
0.00314449
0.00343611
0.00367926
0.00387312
0.00402453
0.0041418
0.0042324
0.00430237
0.00435639
0.00439805
0.00443004
0.00445442
0.00447277
0.00448628
0.00449592
0.00450241
0.00450634
0.00450818
0.0045083
0.004507
0.00450454
0.00450111
0.00449689
0.004492
0.00448657
0.0044807
0.00447445
0.00446791
0.00446112
0.00445414
0.00444701
0.00443976
0.00443243
0.00442504
0.00441761
0.00441017
0.00440272
0.00439529
0.00438789
0.00438052
0.00437321
0.00436595
0.00435875
0.00435163
0.00434458
0.00433761
0.00433072
0.00432392
0.0043172
0.00431057
0.00430403
0.00429757
0.0042912
0.0042849
0.00427869
0.00427255
0.00426649
0.0042605
0.00425458
0.00424872
0.00424292
0.00423718
0.0042315
0.00422587
0.00422029
0.00421475
0.00420927
0.00420383
0.00419842
0.00419309
0.00418769
0.00418251
0.00417752
0.00416991
0.00270795
0.00249219
0.00230974
0.00220081
0.00218547
0.00226504
0.00242177
0.0026253
0.00284441
0.00305577
0.00324643
0.0034117
0.00355173
0.00366901
0.0037667
0.00384794
0.00391551
0.00397177
0.00401868
0.00405782
0.00409049
0.00411777
0.00414051
0.00415942
0.0041751
0.00418802
0.0041986
0.00420715
0.00421398
0.00421931
0.00422336
0.00422628
0.00422824
0.00422935
0.00422972
0.00422945
0.00422862
0.0042273
0.00422555
0.00422343
0.00422098
0.00421825
0.00421528
0.00421209
0.00420872
0.0042052
0.00420154
0.00419777
0.0041939
0.00418996
0.00418596
0.00418191
0.00417782
0.0041737
0.00416956
0.00416541
0.00416124
0.00415707
0.00415289
0.00414872
0.00414454
0.00414036
0.00413619
0.00413201
0.00412784
0.00412366
0.00411948
0.0041153
0.00411111
0.00410692
0.00410273
0.00409853
0.00409433
0.00409013
0.0040859
0.00408173
0.00407744
0.00407332
0.00406931
0.00406309
0.00271817
0.00253959
0.0023691
0.00223127
0.0021404
0.00210432
0.00212536
0.00219941
0.00231601
0.00246061
0.00261822
0.00277648
0.002927
0.00306512
0.00318897
0.00329847
0.00339446
0.00347822
0.00355115
0.00361461
0.00366983
0.00371793
0.00375985
0.00379644
0.0038284
0.00385633
0.00388077
0.00390215
0.00392085
0.00393721
0.00395151
0.00396399
0.00397485
0.0039843
0.00399248
0.00399953
0.00400558
0.00401073
0.00401509
0.00401873
0.00402173
0.00402415
0.00402606
0.00402751
0.00402855
0.00402921
0.00402955
0.00402958
0.00402935
0.00402888
0.0040282
0.00402732
0.00402628
0.00402508
0.00402373
0.00402227
0.00402068
0.004019
0.00401721
0.00401532
0.00401336
0.00401131
0.00400917
0.00400696
0.00400468
0.00400233
0.0039999
0.00399741
0.00399484
0.00399221
0.00398952
0.00398677
0.00398395
0.00398109
0.00397816
0.00397521
0.00397213
0.00396915
0.00396622
0.00396136
0.00271589
0.002567
0.00241649
0.00228101
0.00217058
0.00209112
0.00204619
0.00203748
0.00206449
0.00212404
0.00221036
0.00231593
0.00243284
0.00255398
0.00267383
0.00278858
0.00289595
0.00299485
0.00308497
0.00316651
0.00323997
0.00330595
0.00336514
0.00341821
0.00346578
0.00350844
0.00354672
0.00358109
0.00361199
0.00363977
0.00366478
0.00368731
0.00370761
0.00372592
0.00374244
0.00375734
0.00377079
0.00378293
0.00379388
0.00380376
0.00381267
0.00382069
0.00382792
0.00383441
0.00384025
0.00384548
0.00385016
0.00385435
0.00385808
0.0038614
0.00386434
0.00386693
0.00386921
0.00387119
0.00387291
0.00387438
0.00387561
0.00387664