/*--------------------------------*- C++ -*----------------------------------*\
| =========                 |                                                 |
| \\      /  F ield         | OpenFOAM: The Open Source CFD Toolbox           |
|  \\    /   O peration     | Version:  v1912                                 |
|   \\  /    A nd           | Website:  www.openfoam.com                      |
|    \\/     M anipulation  |                                                 |
\*---------------------------------------------------------------------------*/
FoamFile
{
    version     2.0;
    format      ascii;
    class       volScalarField;
    location    "100";
    object      nut;
}
// * * * * * * * * * * * * * * * * * * * * * * * * * * * * * * * * * * * * * //

dimensions      [0 2 -1 0 0 0 0];


internalField   nonuniform List<scalar> 
10000
(
9.73891e-05
0.00010092
0.000104587
0.000108493
0.000112661
0.000117084
0.000121734
0.000126559
0.000131474
0.000136365
0.000141101
0.000145558
0.000149641
0.000153294
0.000156507
0.0001593
0.00016171
0.000163784
0.000165032
0.000108807
9.7081e-05
0.000100605
0.000104262
0.000108157
0.000112313
0.000116726
0.000121367
0.000126184
0.000131095
0.000135987
0.000140729
0.000145197
0.000149294
0.000152967
0.000156201
0.000159014
0.000161446
0.00016354
0.000164825
0.00011626
9.64127e-05
9.99209e-05
0.000103558
0.000107429
0.000111562
0.000115951
0.000120572
0.000125373
0.000130275
0.000135167
0.00013992
0.00014441
0.00014854
0.000152253
0.000155531
0.000158391
0.000160869
0.000163007
0.000164365
0.000123911
9.53838e-05
9.88681e-05
0.000102474
0.000106309
0.000110404
0.000114758
0.000119345
0.00012412
0.000129006
0.000133895
0.000138663
0.000143185
0.000147362
0.000151134
0.000154479
0.000157408
0.000159956
0.000162162
0.000163624
0.000130684
9.39945e-05
9.74457e-05
0.00010101
0.000104796
0.00010884
0.000113143
0.000117685
0.000122422
0.000127282
0.000132165
0.000136947
0.000141506
0.000145742
0.000149589
0.00015302
0.000156041
0.000158681
0.000160979
0.000162574
0.000136323
9.22461e-05
9.56543e-05
9.91653e-05
0.00010289
0.000106869
0.000111107
0.000115589
0.000120275
0.000125099
0.000129966
0.00013476
0.000139359
0.000143661
0.000147595
0.000151129
0.000154262
0.000157016
0.000159427
0.00016118
0.000140746
9.01409e-05
9.34958e-05
9.69432e-05
0.000100594
0.000104493
0.000108651
0.000113057
0.000117677
0.000122452
0.000127294
0.000132091
0.000136727
0.000141098
0.000145129
0.000148779
0.00015204
0.000154927
0.000157472
0.000159405
0.000143937
8.76834e-05
9.09742e-05
9.43475e-05
9.7911e-05
0.000101717
0.00010578
0.000110094
0.000114631
0.000119341
0.000124142
0.000128932
0.000133598
0.000138036
0.000142167
0.000145941
0.000149344
0.000152381
0.000155079
0.00015721
0.000145909
8.48805e-05
8.80958e-05
9.13845e-05
9.48491e-05
9.85467e-05
0.000102499
0.000106703
0.000111141
0.000115767
0.00012051
0.000125277
0.000129961
0.000134459
0.000138687
0.00014259
0.000146142
0.000149341
0.000152209
0.000154553
0.000146698
8.17421e-05
8.48697e-05
8.80635e-05
9.14176e-05
9.49933e-05
9.88178e-05
0.000102896
0.000107213
0.000111735
0.000116401
0.000121125
0.000125809
0.000130353
0.00013467
0.000138698
0.000142403
0.000145773
0.000148823
0.00015139
0.000146344
7.82818e-05
8.13086e-05
8.43972e-05
8.76298e-05
9.10702e-05
9.47514e-05
9.86844e-05
0.000102862
0.000107258
0.000111822
0.00011648
0.000121141
0.000125711
0.000130102
0.000134246
0.0001381
0.000141643
0.000144881
0.000147679
0.000144892
7.45176e-05
7.74294e-05
8.04022e-05
8.35028e-05
8.67954e-05
9.03181e-05
9.40879e-05
9.81051e-05
0.000102351
0.000106787
0.000111351
0.000115963
0.000120532
0.000124974
0.000129216
0.000133209
0.00013692
0.000140348
0.000143378
0.000142386
7.04725e-05
7.32543e-05
7.60999e-05
7.90588e-05
8.21919e-05
8.55417e-05
8.91309e-05
9.29666e-05
9.70392e-05
0.00010132
0.000105759
0.000110288
0.000114824
0.000119288
0.000123603
0.000127714
0.00013158
0.000135192
0.000138449
0.000138866
6.61759e-05
6.88115e-05
7.15178e-05
7.43253e-05
7.72886e-05
8.04522e-05
8.38443e-05
8.74783e-05
9.13529e-05
9.54497e-05
9.97311e-05
0.00010414
0.000108607
0.000113054
0.000117408
0.000121609
0.000125609
0.00012939
0.000132861
0.00013437
6.16641e-05
6.41364e-05
6.66897e-05
6.93363e-05
7.21205e-05
7.50863e-05
7.82663e-05
8.16796e-05
8.53327e-05
8.92168e-05
9.33062e-05
9.75573e-05
0.000101911
0.000106298
0.000110649
0.000114903
0.000119003
0.000122929
0.000126592
0.000128936
5.69812e-05
5.9273e-05
6.16581e-05
6.41334e-05
6.673e-05
6.94885e-05
7.24433e-05
7.56188e-05
7.90281e-05
8.26718e-05
8.65352e-05
9.05875e-05
9.47821e-05
9.90608e-05
0.000103359
0.000107618
0.000111777
0.000115811
0.000119635
0.000122603
5.21805e-05
5.42747e-05
5.6475e-05
5.87669e-05
6.1168e-05
6.37111e-05
6.64304e-05
6.93536e-05
7.24996e-05
7.5877e-05
7.94815e-05
8.32948e-05
8.72831e-05
9.14003e-05
9.55906e-05
9.97983e-05
0.000103965
0.000108059
0.000112
0.000115419
4.73238e-05
4.92054e-05
5.12034e-05
5.32983e-05
5.54948e-05
5.78161e-05
6.02922e-05
6.2952e-05
6.58185e-05
6.89071e-05
7.22227e-05
7.57583e-05
7.94932e-05
8.33941e-05
8.74159e-05
9.15103e-05
9.56213e-05
9.97184e-05
0.000103722
0.000107442
4.24826e-05
4.41394e-05
4.59185e-05
4.7801e-05
4.97827e-05
5.18758e-05
5.41035e-05
5.64925e-05
5.90679e-05
6.18496e-05
6.48505e-05
6.80736e-05
7.15105e-05
7.51408e-05
7.89318e-05
8.28453e-05
8.68313e-05
9.0862e-05
9.48619e-05
9.87513e-05
3.77359e-05
3.91606e-05
4.07076e-05
4.23626e-05
4.41172e-05
4.59749e-05
4.79503e-05
5.00649e-05
5.23424e-05
5.48054e-05
5.74719e-05
6.03535e-05
6.34525e-05
6.67612e-05
7.026e-05
7.39225e-05
7.7708e-05
8.15946e-05
8.55131e-05
8.94494e-05
3.31678e-05
3.43599e-05
3.56675e-05
3.7083e-05
3.85985e-05
4.02125e-05
4.19317e-05
4.37706e-05
4.57487e-05
4.78877e-05
5.02083e-05
5.27275e-05
5.54567e-05
5.83994e-05
6.15488e-05
6.48914e-05
6.83987e-05
7.20571e-05
7.58071e-05
7.96722e-05
2.88632e-05
2.983e-05
3.08998e-05
3.20709e-05
3.33392e-05
3.4702e-05
3.6161e-05
3.77242e-05
3.94052e-05
4.12218e-05
4.31938e-05
4.53407e-05
4.76793e-05
5.02222e-05
5.2974e-05
5.59341e-05
5.90874e-05
6.24313e-05
6.59192e-05
6.95954e-05
2.49003e-05
2.56578e-05
2.65019e-05
2.7435e-05
2.84566e-05
2.9566e-05
3.07635e-05
3.20528e-05
3.3442e-05
3.49435e-05
3.65733e-05
3.83498e-05
4.02916e-05
4.24163e-05
4.47371e-05
4.72646e-05
4.9997e-05
5.29437e-05
5.60744e-05
5.94451e-05
2.13431e-05
2.19151e-05
2.25562e-05
2.327e-05
2.40587e-05
2.49238e-05
2.58665e-05
2.6889e-05
2.79959e-05
2.91951e-05
3.04975e-05
3.19177e-05
3.34724e-05
3.51798e-05
3.70575e-05
3.91232e-05
4.13863e-05
4.38672e-05
4.65532e-05
4.95072e-05
1.82324e-05
1.86488e-05
1.91178e-05
1.96425e-05
2.02259e-05
2.08705e-05
2.15786e-05
2.23527e-05
2.31961e-05
2.41135e-05
2.51121e-05
2.62017e-05
2.7395e-05
2.87073e-05
3.01556e-05
3.17596e-05
3.3535e-05
3.55094e-05
3.76858e-05
4.01305e-05
1.55811e-05
1.58742e-05
1.62061e-05
1.65788e-05
1.69945e-05
1.74555e-05
1.79643e-05
1.85234e-05
1.91356e-05
1.98044e-05
2.05343e-05
2.13316e-05
2.22046e-05
2.31643e-05
2.42237e-05
2.53999e-05
2.67091e-05
2.81795e-05
2.98241e-05
3.17069e-05
1.33737e-05
1.35743e-05
1.38036e-05
1.40621e-05
1.43509e-05
1.46714e-05
1.50253e-05
1.54146e-05
1.58413e-05
1.6308e-05
1.68177e-05
1.73743e-05
1.79828e-05
1.865e-05
1.93845e-05
2.0198e-05
2.11033e-05
2.21229e-05
2.32724e-05
2.46055e-05
1.15715e-05
1.17061e-05
1.18624e-05
1.20401e-05
1.22391e-05
1.246e-05
1.27034e-05
1.29703e-05
1.3262e-05
1.35799e-05
1.39259e-05
1.43021e-05
1.47115e-05
1.51578e-05
1.56458e-05
1.61823e-05
1.67752e-05
1.74393e-05
1.81865e-05
1.90548e-05
1.01216e-05
1.02107e-05
1.03172e-05
1.04401e-05
1.05788e-05
1.07329e-05
1.09024e-05
1.10876e-05
1.12889e-05
1.15068e-05
1.17422e-05
1.19963e-05
1.22702e-05
1.2566e-05
1.28859e-05
1.32334e-05
1.36125e-05
1.40313e-05
1.44969e-05
1.50318e-05
8.96597e-06
9.02457e-06
9.09794e-06
9.18469e-06
9.28383e-06
9.39464e-06
9.51667e-06
9.64965e-06
9.79348e-06
9.94822e-06
1.01141e-05
1.02914e-05
1.04806e-05
1.06826e-05
1.08982e-05
1.1129e-05
1.13768e-05
1.16456e-05
1.19389e-05
1.22683e-05
8.04918e-06
8.08742e-06
8.13888e-06
8.20196e-06
8.27546e-06
8.35846e-06
8.45025e-06
8.55034e-06
8.65836e-06
8.77407e-06
8.89734e-06
9.02814e-06
9.16654e-06
9.31274e-06
9.46704e-06
9.63008e-06
9.80254e-06
9.98636e-06
1.01831e-05
1.03986e-05
7.32217e-06
7.34679e-06
7.3837e-06
7.43119e-06
7.48792e-06
7.55285e-06
7.6252e-06
7.70433e-06
7.78976e-06
7.88112e-06
7.97813e-06
8.08058e-06
8.18836e-06
8.30142e-06
8.4198e-06
8.54371e-06
8.6734e-06
8.80982e-06
8.95373e-06
9.10805e-06
6.74409e-06
6.75948e-06
6.7866e-06
6.82362e-06
6.86916e-06
6.92213e-06
6.98166e-06
7.04708e-06
7.11786e-06
7.19355e-06
7.27382e-06
7.3584e-06
7.44709e-06
7.53976e-06
7.63631e-06
7.73678e-06
7.84126e-06
7.95021e-06
8.06407e-06
8.18436e-06
6.28214e-06
6.29117e-06
6.31154e-06
6.34139e-06
6.37928e-06
6.42408e-06
6.47491e-06
6.53106e-06
6.59198e-06
6.6572e-06
6.72637e-06
6.79917e-06
6.87539e-06
6.95484e-06
7.0374e-06
7.12302e-06
7.2117e-06
7.30369e-06
7.39924e-06
7.49919e-06
5.91061e-06
5.91514e-06
5.93075e-06
5.95555e-06
5.98805e-06
6.02712e-06
6.07185e-06
6.12153e-06
6.17557e-06
6.23352e-06
6.29499e-06
6.35969e-06
6.42737e-06
6.49783e-06
6.57092e-06
6.64656e-06
6.72471e-06
6.8055e-06
6.88908e-06
6.97592e-06
5.60961e-06
5.61088e-06
5.62306e-06
5.6442e-06
5.67281e-06
5.70773e-06
5.74805e-06
5.79304e-06
5.84212e-06
5.89483e-06
5.95079e-06
6.00968e-06
6.07125e-06
6.13531e-06
6.20169e-06
6.27029e-06
6.34106e-06
6.41403e-06
6.4893e-06
6.56713e-06
5.36387e-06
5.36273e-06
5.37236e-06
5.39079e-06
5.4165e-06
5.44833e-06
5.48537e-06
5.52687e-06
5.57227e-06
5.62108e-06
5.67294e-06
5.72752e-06
5.78458e-06
5.84391e-06
5.90535e-06
5.96878e-06
6.03413e-06
6.10139e-06
6.17062e-06
6.24195e-06
5.16169e-06
5.15872e-06
5.16642e-06
5.18278e-06
5.20629e-06
5.23577e-06
5.27029e-06
5.30913e-06
5.35171e-06
5.39755e-06
5.44627e-06
5.49757e-06
5.55118e-06
5.60691e-06
5.66459e-06
5.72409e-06
5.78534e-06
5.84829e-06
5.91296e-06
5.97942e-06
4.99411e-06
4.98972e-06
4.99591e-06
5.01067e-06
5.03246e-06
5.0601e-06
5.09266e-06
5.12942e-06
5.16979e-06
5.2133e-06
5.25957e-06
5.3083e-06
5.35922e-06
5.41214e-06
5.46688e-06
5.52332e-06
5.58137e-06
5.64097e-06
5.70211e-06
5.7648e-06
4.85419e-06
4.84868e-06
4.85368e-06
4.86717e-06
4.8876e-06
4.91377e-06
4.94478e-06
4.97987e-06
5.01848e-06
5.06013e-06
5.10444e-06
5.15111e-06
5.19989e-06
5.25056e-06
5.30296e-06
5.35697e-06
5.41246e-06
5.4694e-06
5.52774e-06
5.58746e-06
4.73658e-06
4.73017e-06
4.73422e-06
4.74668e-06
4.76601e-06
4.791e-06
4.82073e-06
4.85448e-06
4.89166e-06
4.9318e-06
4.97452e-06
5.01953e-06
5.06656e-06
5.11541e-06
5.16591e-06
5.21793e-06
5.27136e-06
5.32614e-06
5.38221e-06
5.43954e-06
4.63711e-06
4.62996e-06
4.63323e-06
4.64485e-06
4.66327e-06
4.68729e-06
4.71599e-06
4.74862e-06
4.78462e-06
4.82352e-06
4.86494e-06
4.90856e-06
4.95415e-06
5.0015e-06
5.05044e-06
5.10083e-06
5.15257e-06
5.20557e-06
5.25978e-06
5.31515e-06
4.55247e-06
4.54473e-06
4.54735e-06
4.55827e-06
4.57594e-06
4.59915e-06
4.62698e-06
4.6587e-06
4.69372e-06
4.73157e-06
4.7719e-06
4.81438e-06
4.85877e-06
4.90487e-06
4.9525e-06
5.00153e-06
5.05185e-06
5.10337e-06
5.15604e-06
5.20978e-06
4.48009e-06
4.47184e-06
4.47392e-06
4.48426e-06
4.5013e-06
4.52383e-06
4.55093e-06
4.58187e-06
4.61606e-06
4.65305e-06
4.69245e-06
4.73396e-06
4.77735e-06
4.82239e-06
4.86892e-06
4.9168e-06
4.96593e-06
5.01621e-06
5.06758e-06
5.11997e-06
4.41787e-06
4.4092e-06
4.41082e-06
4.42067e-06
4.43718e-06
4.45914e-06
4.48562e-06
4.51589e-06
4.54939e-06
4.58563e-06
4.62425e-06
4.66494e-06
4.70747e-06
4.75161e-06
4.79721e-06
4.84412e-06
4.89224e-06
4.94146e-06
4.99173e-06
5.04296e-06
4.36417e-06
4.35513e-06
4.35637e-06
4.3658e-06
4.38185e-06
4.40331e-06
4.42927e-06
4.45898e-06
4.49187e-06
4.52748e-06
4.56543e-06
4.60542e-06
4.64721e-06
4.69059e-06
4.73538e-06
4.78147e-06
4.82872e-06
4.87704e-06
4.92637e-06
4.97662e-06
4.31762e-06
4.30827e-06
4.30918e-06
4.31825e-06
4.33391e-06
4.35495e-06
4.38045e-06
4.40968e-06
4.44205e-06
4.47711e-06
4.51449e-06
4.55388e-06
4.59503e-06
4.63775e-06
4.68186e-06
4.72722e-06
4.77373e-06
4.82128e-06
4.86979e-06
4.91921e-06
4.27713e-06
4.26752e-06
4.26814e-06
4.2769e-06
4.29222e-06
4.3129e-06
4.33801e-06
4.36681e-06
4.39874e-06
4.43333e-06
4.47021e-06
4.50907e-06
4.54968e-06
4.59182e-06
4.63534e-06
4.68008e-06
4.72594e-06
4.77282e-06
4.82064e-06
4.86933e-06
4.24181e-06
4.23196e-06
4.23233e-06
4.24082e-06
4.25585e-06
4.27621e-06
4.30098e-06
4.32942e-06
4.36096e-06
4.39514e-06
4.43159e-06
4.47e-06
4.51013e-06
4.55177e-06
4.59477e-06
4.63897e-06
4.68427e-06
4.73057e-06
4.77778e-06
4.82584e-06
4.21089e-06
4.20085e-06
4.201e-06
4.20926e-06
4.22403e-06
4.24412e-06
4.26859e-06
4.29671e-06
4.32792e-06
4.36174e-06
4.3978e-06
4.43581e-06
4.47553e-06
4.51674e-06
4.55928e-06
4.60302e-06
4.64783e-06
4.69362e-06
4.74031e-06
4.78782e-06
4.18377e-06
4.17355e-06
4.17352e-06
4.18157e-06
4.19612e-06
4.21597e-06
4.24018e-06
4.26803e-06
4.29893e-06
4.33244e-06
4.36817e-06
4.40584e-06
4.44519e-06
4.48602e-06
4.52816e-06
4.57149e-06
4.61587e-06
4.66122e-06
4.70744e-06
4.75447e-06
4.15993e-06
4.14955e-06
4.14935e-06
4.15723e-06
4.17158e-06
4.19122e-06
4.2152e-06
4.2428e-06
4.27345e-06
4.30668e-06
4.34212e-06
4.37948e-06
4.41851e-06
4.45901e-06
4.50081e-06
4.54377e-06
4.58778e-06
4.63274e-06
4.67856e-06
4.72517e-06
4.13892e-06
4.12841e-06
4.12807e-06
4.13578e-06
4.14997e-06
4.16942e-06
4.1932e-06
4.22059e-06
4.251e-06
4.28399e-06
4.31918e-06
4.35627e-06
4.39502e-06
4.43522e-06
4.47672e-06
4.51936e-06
4.56304e-06
4.60765e-06
4.65311e-06
4.69936e-06
4.12038e-06
4.10975e-06
4.10928e-06
4.11686e-06
4.13089e-06
4.15018e-06
4.17378e-06
4.20098e-06
4.23119e-06
4.26397e-06
4.29893e-06
4.33578e-06
4.37428e-06
4.41423e-06
4.45545e-06
4.49782e-06
4.5412e-06
4.58551e-06
4.63066e-06
4.67658e-06
4.10399e-06
4.09326e-06
4.09268e-06
4.10013e-06
4.11403e-06
4.13317e-06
4.15662e-06
4.18365e-06
4.21369e-06
4.24627e-06
4.28103e-06
4.31768e-06
4.35596e-06
4.39567e-06
4.43666e-06
4.47877e-06
4.5219e-06
4.56594e-06
4.61082e-06
4.65645e-06
4.08948e-06
4.07866e-06
4.07797e-06
4.08532e-06
4.0991e-06
4.11811e-06
4.14143e-06
4.16831e-06
4.19819e-06
4.2306e-06
4.26519e-06
4.30165e-06
4.33974e-06
4.37925e-06
4.42002e-06
4.46192e-06
4.50482e-06
4.54862e-06
4.59325e-06
4.63863e-06
4.07663e-06
4.06572e-06
4.06495e-06
4.0722e-06
4.08588e-06
4.10477e-06
4.12796e-06
4.15471e-06
4.18445e-06
4.21672e-06
4.25115e-06
4.28745e-06
4.32536e-06
4.36469e-06
4.40528e-06
4.44698e-06
4.48968e-06
4.53327e-06
4.57769e-06
4.62284e-06
4.06521e-06
4.05423e-06
4.05339e-06
4.06055e-06
4.07413e-06
4.09293e-06
4.11601e-06
4.14265e-06
4.17226e-06
4.2044e-06
4.23869e-06
4.27484e-06
4.3126e-06
4.35177e-06
4.39219e-06
4.43372e-06
4.47624e-06
4.51965e-06
4.56387e-06
4.60883e-06
4.05508e-06
4.04404e-06
4.04312e-06
4.05021e-06
4.06371e-06
4.08242e-06
4.10541e-06
4.13194e-06
4.16144e-06
4.19346e-06
4.22763e-06
4.26365e-06
4.30127e-06
4.34031e-06
4.38058e-06
4.42195e-06
4.46431e-06
4.50755e-06
4.5516e-06
4.59638e-06
4.04607e-06
4.03497e-06
4.03399e-06
4.04101e-06
4.05444e-06
4.07307e-06
4.09597e-06
4.12241e-06
4.15181e-06
4.18373e-06
4.21779e-06
4.25369e-06
4.2912e-06
4.3301e-06
4.37024e-06
4.41148e-06
4.45369e-06
4.49679e-06
4.54069e-06
4.58531e-06
4.03806e-06
4.02691e-06
4.02587e-06
4.03284e-06
4.0462e-06
4.06476e-06
4.08758e-06
4.11394e-06
4.14326e-06
4.17508e-06
4.20904e-06
4.24484e-06
4.28224e-06
4.32103e-06
4.36106e-06
4.40217e-06
4.44426e-06
4.48723e-06
4.53099e-06
4.57547e-06
4.03091e-06
4.01972e-06
4.01864e-06
4.02555e-06
4.03885e-06
4.05735e-06
4.0801e-06
4.10639e-06
4.13563e-06
4.16737e-06
4.20124e-06
4.23695e-06
4.27425e-06
4.31294e-06
4.35286e-06
4.39387e-06
4.43585e-06
4.4787e-06
4.52234e-06
4.5667e-06
4.02457e-06
4.01333e-06
4.0122e-06
4.01907e-06
4.03232e-06
4.05076e-06
4.07345e-06
4.09967e-06
4.12884e-06
4.16051e-06
4.19431e-06
4.22993e-06
4.26715e-06
4.30575e-06
4.34558e-06
4.38649e-06
4.42836e-06
4.47111e-06
4.51464e-06
4.55889e-06
4.01889e-06
4.00762e-06
4.00646e-06
4.01327e-06
4.02648e-06
4.04487e-06
4.06751e-06
4.09367e-06
4.12278e-06
4.15438e-06
4.18811e-06
4.22366e-06
4.2608e-06
4.29933e-06
4.33907e-06
4.37989e-06
4.42168e-06
4.46433e-06
4.50777e-06
4.55192e-06
4.01385e-06
4.00254e-06
4.00135e-06
4.00813e-06
4.0213e-06
4.03964e-06
4.06223e-06
4.08834e-06
4.11739e-06
4.14894e-06
4.1826e-06
4.21809e-06
4.25516e-06
4.29361e-06
4.33328e-06
4.37403e-06
4.41573e-06
4.4583e-06
4.50166e-06
4.54572e-06
4.00933e-06
3.998e-06
3.99677e-06
4.00352e-06
4.01665e-06
4.03496e-06
4.0575e-06
4.08357e-06
4.11257e-06
4.14406e-06
4.17767e-06
4.2131e-06
4.25011e-06
4.2885e-06
4.3281e-06
4.36878e-06
4.41041e-06
4.45291e-06
4.49618e-06
4.54017e-06
4.00531e-06
3.99396e-06
3.9927e-06
3.99942e-06
4.01252e-06
4.03079e-06
4.0533e-06
4.07932e-06
4.10828e-06
4.13972e-06
4.17328e-06
4.20866e-06
4.24561e-06
4.28394e-06
4.32349e-06
4.3641e-06
4.40567e-06
4.4481e-06
4.49131e-06
4.53522e-06
4.00171e-06
3.99033e-06
3.98905e-06
3.99574e-06
4.00881e-06
4.02705e-06
4.04952e-06
4.07551e-06
4.10443e-06
4.13583e-06
4.16935e-06
4.20468e-06
4.24158e-06
4.27986e-06
4.31935e-06
4.35991e-06
4.40143e-06
4.4438e-06
4.48694e-06
4.53079e-06
3.99849e-06
3.98709e-06
3.98579e-06
3.99246e-06
4.0055e-06
4.02371e-06
4.04615e-06
4.0721e-06
4.10099e-06
4.13235e-06
4.16583e-06
4.20112e-06
4.23798e-06
4.27621e-06
4.31566e-06
4.35617e-06
4.39763e-06
4.43995e-06
4.48304e-06
4.52683e-06
3.99561e-06
3.98419e-06
3.98287e-06
3.98951e-06
4.00253e-06
4.02072e-06
4.04313e-06
4.06905e-06
4.09791e-06
4.12924e-06
4.16268e-06
4.19793e-06
4.23475e-06
4.27295e-06
4.31234e-06
4.35281e-06
4.39423e-06
4.4365e-06
4.47954e-06
4.52328e-06
3.99305e-06
3.98161e-06
3.98027e-06
3.9869e-06
3.9999e-06
4.01806e-06
4.04045e-06
4.06635e-06
4.09517e-06
4.12647e-06
4.15988e-06
4.1951e-06
4.23189e-06
4.27004e-06
4.3094e-06
4.34983e-06
4.3912e-06
4.43343e-06
4.47643e-06
4.52013e-06
3.99078e-06
3.97933e-06
3.97797e-06
3.98458e-06
3.99756e-06
4.0157e-06
4.03807e-06
4.06394e-06
4.09274e-06
4.12401e-06
4.15739e-06
4.19258e-06
4.22934e-06
4.26746e-06
4.30679e-06
4.34718e-06
4.38852e-06
4.43071e-06
4.47367e-06
4.51732e-06
3.98874e-06
3.97728e-06
3.97591e-06
3.9825e-06
3.99546e-06
4.01359e-06
4.03594e-06
4.06179e-06
4.09056e-06
4.12181e-06
4.15516e-06
4.19033e-06
4.22706e-06
4.26515e-06
4.30444e-06
4.3448e-06
4.38611e-06
4.42826e-06
4.47119e-06
4.51481e-06
3.98691e-06
3.97544e-06
3.97405e-06
3.98063e-06
3.99358e-06
4.01169e-06
4.03402e-06
4.05985e-06
4.08861e-06
4.11983e-06
4.15316e-06
4.1883e-06
4.225e-06
4.26307e-06
4.30234e-06
4.34267e-06
4.38395e-06
4.42607e-06
4.46896e-06
4.51255e-06
3.98527e-06
3.97379e-06
3.97239e-06
3.97896e-06
3.9919e-06
4.00999e-06
4.0323e-06
4.05812e-06
4.08685e-06
4.11806e-06
4.15137e-06
4.18649e-06
4.22317e-06
4.26121e-06
4.30046e-06
4.34076e-06
4.38201e-06
4.42411e-06
4.46697e-06
4.51053e-06
3.98381e-06
3.97231e-06
3.97091e-06
3.97747e-06
3.99039e-06
4.00847e-06
4.03077e-06
4.05656e-06
4.08529e-06
4.11648e-06
4.14977e-06
4.18487e-06
4.22153e-06
4.25955e-06
4.29877e-06
4.33905e-06
4.38028e-06
4.42235e-06
4.46519e-06
4.50872e-06
3.98249e-06
3.97099e-06
3.96958e-06
3.97613e-06
3.98904e-06
4.0071e-06
4.02939e-06
4.05518e-06
4.08388e-06
4.11506e-06
4.14833e-06
4.18341e-06
4.22005e-06
4.25806e-06
4.29726e-06
4.33752e-06
4.37872e-06
4.42078e-06
4.46359e-06
4.5071e-06
3.98132e-06
3.96981e-06
3.96839e-06
3.97493e-06
3.98783e-06
4.00589e-06
4.02816e-06
4.05393e-06
4.08263e-06
4.11379e-06
4.14705e-06
4.18211e-06
4.21874e-06
4.25672e-06
4.29591e-06
4.33615e-06
4.37733e-06
4.41937e-06
4.46216e-06
4.50565e-06
3.98027e-06
3.96875e-06
3.96733e-06
3.97386e-06
3.98675e-06
4.00479e-06
4.02706e-06
4.05282e-06
4.0815e-06
4.11265e-06
4.1459e-06
4.18095e-06
4.21756e-06
4.25553e-06
4.2947e-06
4.33492e-06
4.37609e-06
4.4181e-06
4.46088e-06
4.50435e-06
3.97933e-06
3.96781e-06
3.96637e-06
3.9729e-06
3.98578e-06
4.00382e-06
4.02607e-06
4.05183e-06
4.0805e-06
4.11163e-06
4.14487e-06
4.17991e-06
4.2165e-06
4.25446e-06
4.29361e-06
4.33382e-06
4.37498e-06
4.41697e-06
4.45973e-06
4.50319e-06
3.97849e-06
3.96696e-06
3.96552e-06
3.97203e-06
3.98491e-06
4.00294e-06
4.02519e-06
4.05093e-06
4.07959e-06
4.11072e-06
4.14395e-06
4.17897e-06
4.21556e-06
4.2535e-06
4.29264e-06
4.33284e-06
4.37398e-06
4.41596e-06
4.45871e-06
4.50214e-06
3.97773e-06
3.9662e-06
3.96475e-06
3.97126e-06
3.98414e-06
4.00216e-06
4.0244e-06
4.05013e-06
4.07879e-06
4.1099e-06
4.14312e-06
4.17813e-06
4.21471e-06
4.25264e-06
4.29177e-06
4.33196e-06
4.37308e-06
4.41505e-06
4.45779e-06
4.50121e-06
3.97706e-06
3.96552e-06
3.96407e-06
3.97058e-06
3.98344e-06
4.00146e-06
4.02369e-06
4.04942e-06
4.07806e-06
4.10917e-06
4.14238e-06
4.17739e-06
4.21395e-06
4.25188e-06
4.29099e-06
4.33117e-06
4.37228e-06
4.41424e-06
4.45696e-06
4.50037e-06
3.97645e-06
3.96491e-06
3.96345e-06
3.96995e-06
3.98282e-06
4.00083e-06
4.02305e-06
4.04877e-06
4.07741e-06
4.10851e-06
4.14171e-06
4.17671e-06
4.21327e-06
4.25118e-06
4.29029e-06
4.33046e-06
4.37156e-06
4.41351e-06
4.45622e-06
4.49962e-06
3.97591e-06
3.96437e-06
3.96291e-06
3.96941e-06
3.98226e-06
4.00027e-06
4.02249e-06
4.04821e-06
4.07684e-06
4.10793e-06
4.14113e-06
4.17612e-06
4.21267e-06
4.25057e-06
4.28967e-06
4.32983e-06
4.37092e-06
4.41286e-06
4.45556e-06
4.49896e-06
3.97542e-06
3.96387e-06
3.96241e-06
3.9689e-06
3.98175e-06
3.99976e-06
4.02197e-06
4.04768e-06
4.07631e-06
4.1074e-06
4.14058e-06
4.17557e-06
4.21211e-06
4.25001e-06
4.2891e-06
4.32925e-06
4.37034e-06
4.41227e-06
4.45496e-06
4.49835e-06
3.97499e-06
3.96344e-06
3.96198e-06
3.96847e-06
3.98132e-06
3.99932e-06
4.02153e-06
4.04724e-06
4.07586e-06
4.10694e-06
4.14012e-06
4.1751e-06
4.21163e-06
4.24953e-06
4.28861e-06
4.32876e-06
4.36984e-06
4.41176e-06
4.45444e-06
4.49782e-06
3.97459e-06
3.96304e-06
3.96157e-06
3.96806e-06
3.9809e-06
3.9989e-06
4.02111e-06
4.04681e-06
4.07542e-06
4.1065e-06
4.13968e-06
4.17465e-06
4.21118e-06
4.24907e-06
4.28815e-06
4.32828e-06
4.36936e-06
4.41127e-06
4.45395e-06
4.49732e-06
3.97426e-06
3.9627e-06
3.96123e-06
3.96772e-06
3.98056e-06
3.99855e-06
4.02076e-06
4.04646e-06
4.07507e-06
4.10614e-06
4.13931e-06
4.17428e-06
4.21081e-06
4.24869e-06
4.28776e-06
4.32789e-06
4.36896e-06
4.41087e-06
4.45354e-06
4.49691e-06
3.97392e-06
3.96236e-06
3.96089e-06
3.96737e-06
3.98021e-06
3.9982e-06
4.02041e-06
4.0461e-06
4.07471e-06
4.10578e-06
4.13894e-06
4.17391e-06
4.21043e-06
4.24831e-06
4.28738e-06
4.3275e-06
4.36856e-06
4.41047e-06
4.45314e-06
4.49649e-06
3.97367e-06
3.96211e-06
3.96064e-06
3.96712e-06
3.97995e-06
3.99794e-06
4.02014e-06
4.04583e-06
4.07444e-06
4.1055e-06
4.13867e-06
4.17363e-06
4.21014e-06
4.24802e-06
4.28708e-06
4.3272e-06
4.36826e-06
4.41016e-06
4.45282e-06
4.49617e-06
3.97338e-06
3.96182e-06
3.96034e-06
3.96682e-06
3.97966e-06
3.99764e-06
4.01984e-06
4.04553e-06
4.07413e-06
4.10519e-06
4.13835e-06
4.17331e-06
4.20982e-06
4.24769e-06
4.28675e-06
4.32687e-06
4.36793e-06
4.40982e-06
4.45248e-06
4.49582e-06
3.97319e-06
3.96163e-06
3.96015e-06
3.96663e-06
3.97946e-06
3.99744e-06
4.01964e-06
4.04532e-06
4.07392e-06
4.10499e-06
4.13814e-06
4.1731e-06
4.20961e-06
4.24747e-06
4.28653e-06
4.32664e-06
4.36769e-06
4.40959e-06
4.45224e-06
4.49558e-06
3.97293e-06
3.96137e-06
3.95989e-06
3.96637e-06
3.9792e-06
3.99718e-06
4.01937e-06
4.04506e-06
4.07365e-06
4.10471e-06
4.13787e-06
4.17282e-06
4.20933e-06
4.24719e-06
4.28624e-06
4.32635e-06
4.3674e-06
4.40929e-06
4.45194e-06
4.49528e-06
3.97278e-06
3.96121e-06
3.95973e-06
3.96621e-06
3.97904e-06
3.99702e-06
4.01921e-06
4.04489e-06
4.07348e-06
4.10454e-06
4.13769e-06
4.17264e-06
4.20915e-06
4.24701e-06
4.28606e-06
4.32616e-06
4.36721e-06
4.4091e-06
4.45174e-06
4.49508e-06
3.97262e-06
3.96106e-06
3.95958e-06
3.96605e-06
3.97888e-06
3.99686e-06
4.01905e-06
4.04473e-06
4.07332e-06
4.10438e-06
4.13752e-06
4.17247e-06
4.20897e-06
4.24683e-06
4.28588e-06
4.32599e-06
4.36703e-06
4.40891e-06
4.45155e-06
4.49488e-06
3.97249e-06
3.96092e-06
3.95944e-06
3.96591e-06
3.97874e-06
3.99671e-06
4.0189e-06
4.04458e-06
4.07317e-06
4.10423e-06
4.13737e-06
4.17232e-06
4.20882e-06
4.24667e-06
4.28572e-06
4.32582e-06
4.36686e-06
4.40874e-06
4.45138e-06
4.49471e-06
3.97235e-06
3.96078e-06
3.9593e-06
3.96577e-06
3.9786e-06
3.99657e-06
4.01876e-06
4.04443e-06
4.07303e-06
4.10408e-06
4.13722e-06
4.17217e-06
4.20866e-06
4.24652e-06
4.28556e-06
4.32566e-06
4.3667e-06
4.40858e-06
4.45122e-06
4.49454e-06
3.97226e-06
3.96069e-06
3.95921e-06
3.96567e-06
3.9785e-06
3.99647e-06
4.01866e-06
4.04433e-06
4.07292e-06
4.10397e-06
4.13712e-06
4.17206e-06
4.20856e-06
4.24641e-06
4.28545e-06
4.32555e-06
4.36659e-06
4.40846e-06
4.4511e-06
4.49442e-06
3.97177e-06
3.9602e-06
3.95871e-06
3.96517e-06
3.97799e-06
3.99596e-06
4.01813e-06
4.0438e-06
4.07238e-06
4.10342e-06
4.13656e-06
4.17149e-06
4.20797e-06
4.24581e-06
4.28485e-06
4.32493e-06
4.36596e-06
4.40782e-06
4.45044e-06
4.49375e-06
2.26504e-06
2.25871e-06
2.17608e-06
2.12268e-06
2.08754e-06
2.05881e-06
2.03364e-06
2.01166e-06
1.99246e-06
1.97552e-06
1.96036e-06
1.94665e-06
1.93413e-06
1.92262e-06
1.91197e-06
1.90206e-06
1.89281e-06
1.88413e-06
1.87597e-06
1.86827e-06
1.86098e-06
1.85406e-06
1.84749e-06
1.84123e-06
1.83526e-06
1.82954e-06
1.82407e-06
1.81883e-06
1.81379e-06
1.80895e-06
1.80428e-06
1.79979e-06
1.79546e-06
1.79127e-06
1.78723e-06
1.78331e-06
1.77953e-06
1.77586e-06
1.7723e-06
1.76884e-06
1.76549e-06
1.76224e-06
1.75907e-06
1.75599e-06
1.75299e-06
1.75008e-06
1.74724e-06
1.74447e-06
1.74177e-06
1.73914e-06
1.73657e-06
1.73407e-06
1.73162e-06
1.72924e-06
1.7269e-06
1.72463e-06
1.7224e-06
1.72022e-06
1.7181e-06
1.71602e-06
1.71398e-06
1.71199e-06
1.71004e-06
1.70813e-06
1.70626e-06
1.70442e-06
1.70263e-06
1.70086e-06
1.69914e-06
1.69744e-06
1.69578e-06
1.69414e-06
1.69253e-06
1.69095e-06
1.6894e-06
1.68784e-06
1.68639e-06
1.68469e-06
1.68368e-06
1.68137e-06
2.8118e-06
2.65239e-06
3.18142e-06
3.69194e-06
4.02354e-06
4.23168e-06
4.37638e-06
4.48478e-06
4.56777e-06
4.63146e-06
4.6804e-06
4.71813e-06
4.74734e-06
4.77004e-06
4.78769e-06
4.80138e-06
4.81195e-06
4.82001e-06
4.82605e-06
4.83045e-06
4.8335e-06
4.83544e-06
4.83646e-06
4.83672e-06
4.83634e-06
4.83543e-06
4.83406e-06
4.83232e-06
4.83025e-06
4.82792e-06
4.82536e-06
4.82262e-06
4.81971e-06
4.81667e-06
4.81353e-06
4.81029e-06
4.80698e-06
4.80361e-06
4.8002e-06
4.79675e-06
4.79328e-06
4.78979e-06
4.7863e-06
4.7828e-06
4.77932e-06
4.77584e-06
4.77238e-06
4.76894e-06
4.76553e-06
4.76214e-06
4.75879e-06
4.75546e-06
4.75218e-06
4.74893e-06
4.74571e-06
4.74253e-06
4.73939e-06
4.73629e-06
4.73322e-06
4.73018e-06
4.72718e-06
4.7242e-06
4.72126e-06
4.71834e-06
4.71545e-06
4.71259e-06
4.70974e-06
4.70691e-06
4.7041e-06
4.70131e-06
4.69853e-06
4.69577e-06
4.69302e-06
4.69029e-06
4.68754e-06
4.68489e-06
4.68205e-06
4.67967e-06
4.67694e-06
4.67208e-06
8.10981e-06
4.61699e-06
3.83055e-06
3.94823e-06
4.37921e-06
4.84937e-06
5.26678e-06
5.6182e-06
5.91104e-06
6.15501e-06
6.35883e-06
6.52992e-06
6.67445e-06
6.79736e-06
6.90262e-06
6.99336e-06
7.07205e-06
7.14068e-06
7.20086e-06
7.25386e-06
7.30073e-06
7.34234e-06
7.3794e-06
7.41252e-06
7.44219e-06
7.46884e-06
7.49282e-06
7.51444e-06
7.53398e-06
7.55165e-06
7.56765e-06
7.58217e-06
7.59534e-06
7.6073e-06
7.61817e-06
7.62806e-06
7.63705e-06
7.64522e-06
7.65266e-06
7.65943e-06
7.66558e-06
7.67118e-06
7.67627e-06
7.68089e-06
7.68509e-06
7.6889e-06
7.69236e-06
7.6955e-06
7.69834e-06
7.70092e-06
7.70325e-06
7.70536e-06
7.70726e-06
7.70896e-06
7.71049e-06
7.71186e-06
7.71306e-06
7.71412e-06
7.71503e-06
7.7158e-06
7.71644e-06
7.71695e-06
7.71732e-06
7.71756e-06
7.71768e-06
7.71767e-06
7.71753e-06
7.71726e-06
7.71687e-06
7.71635e-06
7.7157e-06
7.71493e-06
7.71405e-06
7.71306e-06
7.71191e-06
7.71073e-06
7.7093e-06
7.70778e-06
7.70773e-06
7.70082e-06
1.97822e-05
1.09677e-05
7.63066e-06
6.14023e-06
5.6426e-06
5.68658e-06
5.98373e-06
6.37074e-06
6.7687e-06
7.14463e-06
7.48709e-06
7.79396e-06
8.06704e-06
8.30956e-06
8.52509e-06
8.71705e-06
8.88852e-06
9.04219e-06
9.18037e-06
9.30504e-06
9.41789e-06
9.52035e-06
9.61366e-06
9.69888e-06
9.7769e-06
9.84851e-06
9.91439e-06
9.97513e-06
1.00312e-05
1.00832e-05
1.01313e-05
1.01761e-05
1.02177e-05
1.02564e-05
1.02926e-05
1.03264e-05
1.0358e-05
1.03876e-05
1.04154e-05
1.04415e-05
1.0466e-05
1.04891e-05
1.05108e-05
1.05313e-05
1.05506e-05
1.05689e-05
1.05863e-05
1.06027e-05
1.06182e-05
1.0633e-05
1.06471e-05
1.06605e-05
1.06732e-05
1.06853e-05
1.06969e-05
1.0708e-05
1.07185e-05
1.07286e-05
1.07382e-05
1.07473e-05
1.0756e-05
1.07643e-05
1.07722e-05
1.07796e-05
1.07867e-05
1.07933e-05
1.07995e-05
1.08054e-05
1.08108e-05
1.08159e-05
1.08206e-05
1.08249e-05
1.08289e-05
1.08326e-05
1.08358e-05
1.08388e-05
1.08413e-05
1.08434e-05
1.08473e-05
1.08431e-05
3.57858e-05
2.10698e-05
1.48694e-05
1.13597e-05
9.27047e-06
8.13664e-06
7.65379e-06
7.5822e-06
7.74662e-06
8.03217e-06
8.37003e-06
8.7217e-06
9.06688e-06
9.39554e-06
9.70334e-06
9.98899e-06
1.02528e-05
1.0496e-05
1.07199e-05
1.09262e-05
1.11165e-05
1.12921e-05
1.14546e-05
1.1605e-05
1.17446e-05
1.18744e-05
1.19951e-05
1.21077e-05
1.22129e-05
1.23113e-05
1.24034e-05
1.24899e-05
1.25711e-05
1.26475e-05
1.27194e-05
1.27873e-05
1.28513e-05
1.29119e-05
1.29691e-05
1.30234e-05
1.30749e-05
1.31238e-05
1.31702e-05
1.32144e-05
1.32565e-05
1.32966e-05
1.33349e-05
1.33715e-05
1.34065e-05
1.344e-05
1.34721e-05
1.35029e-05
1.35324e-05
1.35608e-05
1.35881e-05
1.36143e-05
1.36396e-05
1.36639e-05
1.36872e-05
1.37097e-05
1.37313e-05
1.3752e-05
1.37719e-05
1.3791e-05
1.38093e-05
1.38268e-05
1.38436e-05
1.38595e-05
1.38747e-05
1.38892e-05
1.39029e-05
1.39158e-05
1.39281e-05
1.39397e-05
1.39505e-05
1.39608e-05
1.39702e-05
1.39791e-05
1.39892e-05
1.3991e-05
5.35299e-05
3.35431e-05
2.45307e-05
1.91313e-05
1.54786e-05
1.2955e-05
1.12829e-05
1.0269e-05
9.74368e-06
9.55995e-06
9.60089e-06
9.78082e-06
1.0041e-05
1.0343e-05
1.06626e-05
1.0985e-05
1.13014e-05
1.16068e-05
1.18985e-05
1.21752e-05
1.24368e-05
1.26834e-05
1.29156e-05
1.31341e-05
1.33396e-05
1.35331e-05
1.37152e-05
1.38869e-05
1.40487e-05
1.42015e-05
1.43458e-05
1.44823e-05
1.46114e-05
1.47338e-05
1.48498e-05
1.496e-05
1.50646e-05
1.51641e-05
1.52589e-05
1.53491e-05
1.54352e-05
1.55173e-05
1.55958e-05
1.56708e-05
1.57426e-05
1.58114e-05
1.58774e-05
1.59407e-05