/*--------------------------------*- C++ -*----------------------------------*\
| =========                 |                                                 |
| \\      /  F ield         | OpenFOAM: The Open Source CFD Toolbox           |
|  \\    /   O peration     | Version:  v1912                                 |
|   \\  /    A nd           | Website:  www.openfoam.com                      |
|    \\/     M anipulation  |                                                 |
\*---------------------------------------------------------------------------*/
FoamFile
{
    version     2.0;
    format      ascii;
    class       volScalarField;
    location    "100";
    object      p;
}
// * * * * * * * * * * * * * * * * * * * * * * * * * * * * * * * * * * * * * //

dimensions      [0 2 -2 0 0 0 0];


internalField   nonuniform List<scalar> 
10000
(
0.00214062
0.00214328
0.00215079
0.00216251
0.00217835
0.00219861
0.00222376
0.00225436
0.00229113
0.0023351
0.00238739
0.00245041
0.00252518
0.00261927
0.00272863
0.00288724
0.00304826
0.00341151
0.0035937
0.00644878
0.00214062
0.00214328
0.00215078
0.00216251
0.00217835
0.00219861
0.00222376
0.00225436
0.00229113
0.00233509
0.00238738
0.0024504
0.00252517
0.00261925
0.00272862
0.0028872
0.00304825
0.00341109
0.00360048
0.00549062
0.00214062
0.00214328
0.00215078
0.0021625
0.00217834
0.0021986
0.00222375
0.00225435
0.00229112
0.00233508
0.00238737
0.00245038
0.00252515
0.00261922
0.00272859
0.00288711
0.00304819
0.00341051
0.00360407
0.00517129
0.00214061
0.00214327
0.00215077
0.00216249
0.00217833
0.00219859
0.00222374
0.00225433
0.0022911
0.00233506
0.00238734
0.00245035
0.00252511
0.00261916
0.00272852
0.00288697
0.00304807
0.00340965
0.00360565
0.00516442
0.0021406
0.00214325
0.00215075
0.00216248
0.00217831
0.00219857
0.00222371
0.00225431
0.00229107
0.00233502
0.0023873
0.0024503
0.00252505
0.00261908
0.00272842
0.00288676
0.00304788
0.00340847
0.00360642
0.00515942
0.00214059
0.00214324
0.00215073
0.00216246
0.00217829
0.00219854
0.00222368
0.00225427
0.00229103
0.00233498
0.00238725
0.00245023
0.00252496
0.00261896
0.00272828
0.00288647
0.00304762
0.00340694
0.00360648
0.00512001
0.00214057
0.00214322
0.00215071
0.00216243
0.00217826
0.00219851
0.00222364
0.00225423
0.00229098
0.00233492
0.00238717
0.00245014
0.00252486
0.0026188
0.0027281
0.0028861
0.00304728
0.00340502
0.00360581
0.0050702
0.00214054
0.00214319
0.00215068
0.0021624
0.00217822
0.00219846
0.0022236
0.00225417
0.00229091
0.00233484
0.00238708
0.00245002
0.00252472
0.0026186
0.00272787
0.00288563
0.00304685
0.00340269
0.00360449
0.0050196
0.00214052
0.00214315
0.00215064
0.00216235
0.00217818
0.00219841
0.00222354
0.00225411
0.00229083
0.00233475
0.00238697
0.00244988
0.00252455
0.00261836
0.00272759
0.00288505
0.0030463
0.0033999
0.0036026
0.00496808
0.00214048
0.00214311
0.00215059
0.00216231
0.00217812
0.00219835
0.00222347
0.00225403
0.00229074
0.00233464
0.00238684
0.00244972
0.00252435
0.00261806
0.00272725
0.00288434
0.00304562
0.00339661
0.00360015
0.00491469
0.00214044
0.00214306
0.00215054
0.00216225
0.00217806
0.00219828
0.00222339
0.00225393
0.00229063
0.0023345
0.00238668
0.00244952
0.0025241
0.00261771
0.00272683
0.0028835
0.00304479
0.00339277
0.00359713
0.0048593
0.00214039
0.00214301
0.00215047
0.00216218
0.00217798
0.00219819
0.00222329
0.00225382
0.0022905
0.00233435
0.0023865
0.00244928
0.00252382
0.00261729
0.00272634
0.00288251
0.0030438
0.00338833
0.00359352
0.00480204
0.00214033
0.00214294
0.0021504
0.0021621
0.0021779
0.00219809
0.00222318
0.00225369
0.00229035
0.00233417
0.00238628
0.00244901
0.00252348
0.0026168
0.00272576
0.00288134
0.00304263
0.00338324
0.00358928
0.00474301
0.00214026
0.00214286
0.0021503
0.002162
0.00217779
0.00219798
0.00222304
0.00225354
0.00229017
0.00233396
0.00238603
0.00244869
0.00252309
0.00261624
0.00272508
0.00287999
0.00304123
0.00337746
0.00358434
0.00468227
0.00214018
0.00214276
0.0021502
0.00216189
0.00217767
0.00219785
0.00222289
0.00225337
0.00228997
0.00233372
0.00238574
0.00244832
0.00252264
0.00261558
0.00272429
0.00287843
0.00303961
0.00337093
0.00357865
0.0046199
0.00214008
0.00214265
0.00215008
0.00216177
0.00217754
0.0021977
0.00222272
0.00225317
0.00228974
0.00233345
0.00238541
0.0024479
0.00252212
0.00261483
0.00272337
0.00287663
0.00303771
0.00336359
0.00357215
0.00455599
0.00213997
0.00214253
0.00214994
0.00216163
0.00217738
0.00219752
0.00222253
0.00225295
0.00228948
0.00233314
0.00238504
0.00244742
0.00252153
0.00261397
0.00272233
0.00287459
0.00303552
0.00335541
0.00356476
0.00449063
0.00213984
0.00214238
0.00214978
0.00216146
0.00217721
0.00219732
0.0022223
0.00225269
0.00228919
0.00233278
0.00238461
0.00244688
0.00252085
0.00261299
0.00272113
0.00287227
0.00303299
0.00334632
0.00355639
0.00442395
0.00213969
0.00214221
0.0021496
0.00216127
0.002177
0.0021971
0.00222205
0.0022524
0.00228885
0.00233238
0.00238413
0.00244626
0.00252008
0.00261188
0.00271976
0.00286965
0.00303009
0.0033363
0.00354697
0.00435607
0.00213952
0.00214202
0.00214939
0.00216106
0.00217677
0.00219684
0.00222176
0.00225207
0.00228847
0.00233193
0.00238358
0.00244557
0.00251922
0.00261063
0.0027182
0.00286671
0.00302677
0.00332531
0.00353637
0.00428718
0.00213932
0.00214181
0.00214915
0.00216081
0.00217651
0.00219656
0.00222144
0.00225171
0.00228804
0.00233142
0.00238297
0.00244478
0.00251824
0.00260922
0.00271645
0.00286342
0.003023
0.00331331
0.00352452
0.00421745
0.00213909
0.00214156
0.00214888
0.00216054
0.00217622
0.00219623
0.00222108
0.00225129
0.00228756
0.00233085
0.00238228
0.00244391
0.00251714
0.00260764
0.00271446
0.00285975
0.00301872
0.00330027
0.00351127
0.00414711
0.00213883
0.00214128
0.00214858
0.00216022
0.00217588
0.00219586
0.00222066
0.00225082
0.00228702
0.00233021
0.0023815
0.00244292
0.00251591
0.00260588
0.00271222
0.00285569
0.00301387
0.0032862
0.00349651
0.00407638
0.00213853
0.00214096
0.00214823
0.00215987
0.00217551
0.00219545
0.0022202
0.0022503
0.00228642
0.00232949
0.00238063
0.00244182
0.00251452
0.00260391
0.0027097
0.00285119
0.0030084
0.00327107
0.0034801
0.00400554
0.00213819
0.00214059
0.00214784
0.00215946
0.00217508
0.00219498
0.00221968
0.00224971
0.00228573
0.00232868
0.00237966
0.00244058
0.00251297
0.00260172
0.00270688
0.00284624
0.00300224
0.00325488
0.00346192
0.00393486
0.0021378
0.00214018
0.0021474
0.00215901
0.0021746
0.00219446
0.00221909
0.00224904
0.00228497
0.00232777
0.00237856
0.0024392
0.00251123
0.00259928
0.00270371
0.00284079
0.00299532
0.00323764
0.00344183
0.00386462
0.00213736
0.00213971
0.00214691
0.00215849
0.00217405
0.00219386
0.00221843
0.0022483
0.0022841
0.00232675
0.00237734
0.00243766
0.00250928
0.00259657
0.00270016
0.00283481
0.00298756
0.00321933
0.00341973
0.00379506
0.00213685
0.00213919
0.00214634
0.00215791
0.00217344
0.00219319
0.00221769
0.00224745
0.00228314
0.00232561
0.00237596
0.00243593
0.00250709
0.00259354
0.00269619
0.00282825
0.00297888
0.00319995
0.00339551
0.00372641
0.00213628
0.00213859
0.00214571
0.00215726
0.00217275
0.00219244
0.00221685
0.00224651
0.00228205
0.00232432
0.00237441
0.00243399
0.00250464
0.00259018
0.00269173
0.00282106
0.0029692
0.00317946
0.00336912
0.00365884
0.00213562
0.00213791
0.002145
0.00215652
0.00217196
0.00219159
0.0022159
0.00224544
0.00228082
0.00232287
0.00237267
0.00243181
0.00250188
0.00258643
0.00268675
0.00281318
0.00295842
0.00315785
0.00334052
0.00359245
0.00213488
0.00213715
0.0021442
0.00215568
0.00217108
0.00219063
0.00221484
0.00224424
0.00227943
0.00232124
0.00237071
0.00242937
0.0024988
0.00258225
0.00268118
0.00280455
0.00294647
0.00313507
0.00330973
0.00352732
0.00213404
0.00213629
0.0021433
0.00215474
0.00217008
0.00218954
0.00221364
0.00224288
0.00227788
0.00231941
0.00236851
0.00242664
0.00249533
0.0025776
0.00267497
0.00279511
0.00293328
0.0031111
0.00327683
0.00346347
0.00213309
0.00213532
0.00214229
0.00215368
0.00216896
0.00218832
0.00221228
0.00224136
0.00227612
0.00231735
0.00236603
0.00242357
0.00249146
0.00257243
0.00266806
0.00278479
0.00291879
0.00308591
0.00324193
0.00340087
0.00213202
0.00213423
0.00214115
0.00215248
0.00216769
0.00218694
0.00221076
0.00223964
0.00227415
0.00231504
0.00236326
0.00242014
0.00248713
0.00256669
0.00266038
0.00277352
0.00290293
0.00305947
0.00320516
0.00333949
0.00213082
0.002133
0.00213986
0.00215114
0.00216626
0.0021854
0.00220905
0.00223771
0.00227194
0.00231244
0.00236014
0.0024163
0.00248229
0.00256033
0.00265189
0.00276126
0.00288569
0.00303178
0.00316668
0.00327924
0.00212945
0.00213162
0.00213843
0.00214963
0.00216466
0.00218366
0.00220712
0.00223554
0.00226945
0.00230953
0.00235666
0.00241202
0.00247691
0.00255328
0.00264251
0.00274793
0.00286701
0.00300283
0.00312667
0.00322006
0.00212792
0.00213007
0.00213681
0.00214794
0.00216286
0.0021817
0.00220496
0.00223311
0.00226667
0.00230628
0.00235277
0.00240725
0.00247092
0.0025455
0.0026322
0.00273348
0.0028469
0.00297262
0.00308531
0.00316188
0.0021262
0.00212832
0.002135
0.00214604
0.00216083
0.00217951
0.00220254
0.00223039
0.00226355
0.00230264
0.00234843
0.00240195
0.00246429
0.00253693
0.00262089
0.00271786
0.00282532
0.00294116
0.00304276
0.00310462
0.00212426
0.00212636
0.00213297
0.0021439
0.00215857
0.00217705
0.00219983
0.00222735
0.00226007
0.00229858
0.0023436
0.00239606
0.00245695
0.0025275
0.00260853
0.00270102
0.0028023
0.00290849
0.00299922
0.00304822
0.00212209
0.00212417
0.0021307
0.00214151
0.00215602
0.0021743
0.00219679
0.00222394
0.00225618
0.00229405
0.00233822
0.00238953
0.00244884
0.00251717
0.00259507
0.00268292
0.00277784
0.00287464
0.00295483
0.00299263
0.00211966
0.0021217
0.00212815
0.00213884
0.00215318
0.00217122
0.0021934
0.00222014
0.00225185
0.00228901
0.00233226
0.00238231
0.00243992
0.00250586
0.00258046
0.00266352
0.00275195
0.00283966
0.00290976
0.0029378
0.00211693
0.00211895
0.0021253
0.00213585
0.00215
0.00216778
0.00218961
0.0022159
0.00224702
0.00228342
0.00232565
0.00237434
0.00243011
0.00249352
0.00256464
0.0026428
0.00272468
0.0028036
0.00286415
0.00288372
0.00211388
0.00211586
0.00212212
0.00213251
0.00214644
0.00216394
0.00218539
0.00221118
0.00224166
0.00227722
0.00231834
0.00236557
0.00241938
0.00248011
0.00254759
0.00262075
0.00269606
0.00276655
0.00281812
0.00283034
0.00211047
0.00211242
0.00211857
0.00212878
0.00214248
0.00215966
0.00218069
0.00220594
0.00223571
0.00227035
0.00231028
0.00235593
0.00240764
0.00246556
0.00252927
0.00259736
0.00266613
0.00272855
0.00277178
0.00277767
0.00210665
0.00210857
0.0021146
0.00212463
0.00213806
0.00215489
0.00217546
0.00220011
0.00222912
0.00226277
0.00230141
0.00234537
0.00239487
0.00244984
0.00250966
0.00257263
0.00263496
0.00268971
0.00272525
0.00272569
0.0021024
0.00210427
0.00211018
0.00212
0.00213314
0.00214958
0.00216966
0.00219366
0.00222183
0.00225441
0.00229167
0.00233383
0.00238098
0.00243289
0.00248873
0.00254658
0.0026026
0.00265011
0.00267861
0.00267438
0.00209766
0.00209949
0.00210526
0.00211484
0.00212767
0.00214369
0.00216322
0.00218652
0.00221379
0.00224521
0.00228099
0.00232125
0.00236595
0.00241469
0.00246648
0.00251924
0.00256913
0.00260982
0.00263194
0.00262375
0.00209239
0.00209417
0.00209979
0.00210912
0.00212159
0.00213716
0.00215609
0.00217863
0.00220493
0.00223512
0.00226933
0.00230758
0.00234972
0.00239521
0.00244291
0.00249063
0.00253461
0.00256894
0.00258531
0.00257378
0.00208652
0.00208825
0.0020937
0.00210276
0.00211486
0.00212993
0.00214822
0.00216993
0.00219519
0.00222406
0.00225661
0.00229276
0.00233226
0.00237443
0.00241802
0.0024608
0.00249913
0.00252756
0.00253877
0.00252447
0.00208
0.00208168
0.00208695
0.00209571
0.0021074
0.00212193
0.00213953
0.00216036
0.0021845
0.00221199
0.00224278
0.00227675
0.00231352
0.00235233
0.00239183
0.0024298
0.00246276
0.00248574
0.00249239
0.00247578
0.00207278
0.00207439
0.00207947
0.00208791
0.00209915
0.00211311
0.00212996
0.00214985
0.00217282
0.00219882
0.00222779
0.0022595
0.00229348
0.00232891
0.00236437
0.00239768
0.00242558
0.00244357
0.00244619
0.00242772
0.00206477
0.00206632
0.0020712
0.00207929
0.00209005
0.00210339
0.00211945
0.00213834
0.00216006
0.00218452
0.00221159
0.00224097
0.00227213
0.00230417
0.00233568
0.00236452
0.00238766
0.00240112
0.00240021
0.00238026
0.00205592
0.0020574
0.00206205
0.00206977
0.00208003
0.0020927
0.00210792
0.00212575
0.00214616
0.00216902
0.00219413
0.00222113
0.00224945
0.00227814
0.00230579
0.00233036
0.00234909
0.00235845
0.00235448
0.00233338
0.00204614
0.00204755
0.00205197
0.00205929
0.002069
0.00208098
0.00209531
0.00211203
0.00213107
0.00215226
0.00217536
0.00219996
0.00222543
0.00225082
0.00227474
0.00229528
0.00230993
0.00231562
0.00230901
0.00228704
0.00203537
0.00203669
0.00204086
0.00204776
0.0020569
0.00206814
0.00208153
0.0020971
0.00211472
0.0021342
0.00215526
0.00217743
0.00220008
0.00222225
0.0022426
0.00225935
0.00227026
0.00227268
0.00226381
0.00224122
0.00202351
0.00202475
0.00202866
0.00203511
0.00204365
0.00205411
0.00206653
0.00208089
0.00209706
0.0021148
0.00213378
0.00215354
0.00217341
0.00219246
0.0022094
0.00222263
0.00223014
0.00222967
0.0022189
0.0021959
0.00201049
0.00201164
0.00201527
0.00202126
0.00202916
0.00203882
0.00205023
0.00206336
0.00207804
0.00209401
0.00211092
0.00212829
0.00214544
0.00216148
0.00217522
0.00218519
0.00218963
0.00218662
0.00217426
0.00215103
0.00199622
0.00199728
0.00200062
0.00200613
0.00201337
0.00202219
0.00203257
0.00204444
0.0020576
0.0020718
0.00208665
0.00210167
0.0021162
0.00212937
0.00214011
0.00214708
0.00214877
0.00214356
0.00212989
0.00210658
0.00198061
0.00198158
0.00198462
0.00198963
0.0019962
0.00200416
0.00201348
0.00202407
0.00203572
0.00204814
0.00206096
0.00207369
0.0020857
0.00209617
0.00210412
0.00210837
0.00210761
0.0021005
0.00208578
0.00206251
0.00196359
0.00196446
0.00196719
0.00197169
0.00197757
0.00198466
0.00199291
0.00200221
0.00201235
0.00202302
0.00203386
0.00204438
0.00205399
0.00206193
0.00206731
0.0020691
0.00206619
0.00205746
0.0020419
0.00201879
0.00194506
0.00194583
0.00194825
0.00195223
0.00195741
0.00196362
0.0019708
0.00197882
0.00198746
0.00199642
0.00200534
0.00201375
0.00202109
0.00202668
0.00202972
0.00202931
0.00202453
0.00201444
0.00199823
0.00197537
0.00192495
0.00192562
0.00192773
0.00193118
0.00193566
0.00194099
0.00194711
0.00195387
0.00196104
0.00196835
0.00197542
0.00198183
0.00198706
0.00199048
0.0019914
0.00198906
0.00198265
0.00197143
0.00195476
0.00193221
0.00190318
0.00190375
0.00190555
0.00190847
0.00191225
0.00191672
0.00192179
0.00192731
0.00193308
0.00193879
0.00194412
0.00194865
0.00195192
0.00195338
0.0019524
0.00194835
0.00194056
0.00192842
0.00191144
0.00188928
0.00187969
0.00188016
0.00188164
0.00188406
0.00188715
0.00189077
0.00189482
0.00189915
0.00190355
0.00190776
0.00191144
0.00191424
0.00191572
0.0019154
0.00191275
0.00190722
0.00189827
0.00188541
0.00186824
0.00184651
0.00185441
0.00185479
0.00185596
0.00185787
0.0018603
0.0018631
0.00186617
0.00186936
0.00187248
0.00187527
0.00187743
0.00187863
0.0018785
0.00187659
0.00187248
0.00186569
0.00185578
0.00184236
0.00182512
0.00180388
0.00182729
0.00182758
0.00182846
0.00182988
0.00183167
0.00183368
0.00183582
0.00183794
0.00183986
0.00184133
0.0018421
0.00184186
0.00184027
0.00183698
0.00183161
0.00182376
0.00181308
0.00179926
0.00178205
0.00176133
0.0017983
0.0017985
0.0017991
0.00180006
0.00180124
0.00180251
0.00180378
0.0018049
0.00180571
0.00180598
0.00180548
0.00180395
0.00180109
0.0017966
0.00179015
0.00178143
0.00177015
0.00175606
0.00173898
0.00171881
0.0017674
0.00176751
0.00176786
0.00176839
0.00176899
0.00176958
0.00177004
0.00177025
0.00177004
0.00176923
0.00176761
0.00176494
0.00176098
0.00175546
0.00174812
0.0017387
0.00172698
0.00171275
0.00169587
0.00167628
0.00173459
0.00173462
0.00173472
0.00173485
0.00173494
0.00173489
0.00173462
0.001734
0.00173289
0.00173112
0.00172851
0.00172486
0.00171996
0.00171358
0.00170552
0.00169557
0.00168354
0.00166927
0.00165267
0.00163368
0.00169985
0.00169982
0.0016997
0.00169946
0.00169908
0.00169847
0.00169754
0.00169619
0.00169428
0.00169167
0.00168821
0.00168373
0.00167805
0.00167098
0.00166236
0.00165202
0.0016398
0.0016256
0.00160933
0.00159097
0.00166322
0.00166312
0.0016628
0.00166225
0.00166145
0.00166034
0.00165884
0.00165684
0.00165425
0.00165093
0.00164676
0.00164159
0.00163527
0.00162767
0.00161863
0.00160802
0.00159574
0.00158169
0.00156581
0.00154809
0.00162471
0.00162456
0.00162407
0.00162324
0.00162207
0.00162053
0.00161854
0.00161601
0.00161283
0.00160893
0.00160417
0.00159845
0.00159165
0.00158364
0.00157432
0.00156357
0.00155132
0.0015375
0.00152206
0.00150499
0.00158438
0.00158418
0.00158354
0.00158247
0.001581
0.0015791
0.0015767
0.00157372
0.00157008
0.0015657
0.00156049
0.00155435
0.00154719
0.00153891
0.00152942
0.00151864
0.00150652
0.00149299
0.00147803
0.00146163
0.00154227
0.00154203
0.00154128
0.00154002
0.0015383
0.00153611
0.00153338
0.00153004
0.00152604
0.00152129
0.00151574
0.0015093
0.0015019
0.00149346
0.00148392
0.00147321
0.00146129
0.00144812
0.00143367
0.00141795
0.00149847
0.0014982
0.00149735
0.00149594
0.00149402
0.00149161
0.00148863
0.00148502
0.00148075
0.00147575
0.00146997
0.00146334
0.00145581
0.00144732
0.00143782
0.00142726
0.00141561
0.00140284
0.00138894
0.00137391
0.00145305
0.00145276
0.00145184
0.00145031
0.00144825
0.00144567
0.00144251
0.00143873
0.00143427
0.00142911
0.00142319
0.00141648
0.00140892
0.00140047
0.0013911
0.00138076
0.00136945
0.00135713
0.0013438
0.00132948
0.0014061
0.00140579
0.00140483
0.00140322
0.00140107
0.00139838
0.00139511
0.00139122
0.00138666
0.00138142
0.00137546
0.00136875
0.00136125
0.00135292
0.00134375
0.00133371
0.00132277
0.00131094
0.00129821
0.00128459
0.00135772
0.00135741
0.00135641
0.00135476
0.00135256
0.00134982
0.0013465
0.00134256
0.00133798
0.00133274
0.00132681
0.00132018
0.0013128
0.00130467
0.00129577
0.00128607
0.00127557
0.00126426
0.00125214
0.00123923
0.00130801
0.0013077
0.00130669
0.00130503
0.00130282
0.00130006
0.00129674
0.00129282
0.00128828
0.0012831
0.00127728
0.00127079
0.00126361
0.00125574
0.00124715
0.00123784
0.0012278
0.00121704
0.00120555
0.00119334
0.00125708
0.00125677
0.00125577
0.00125412
0.00125193
0.00124921
0.00124593
0.00124208
0.00123763
0.00123258
0.00122691
0.00122062
0.0012137
0.00120612
0.0011979
0.00118901
0.00117947
0.00116927
0.00115841
0.00114692
0.00120504
0.00120473
0.00120375
0.00120214
0.00119999
0.00119733
0.00119414
0.0011904
0.00118608
0.0011812
0.00117574
0.0011697
0.00116307
0.00115584
0.00114801
0.00113958
0.00113055
0.00112093
0.00111071
0.00109992
0.00115197
0.00115167
0.00115073
0.00114917
0.00114709
0.00114453
0.00114145
0.00113785
0.00113371
0.00112903
0.00112382
0.00111806
0.00111176
0.0011049
0.0010975
0.00108954
0.00108104
0.001072
0.00106243
0.00105233
0.00109799
0.0010977
0.0010968
0.0010953
0.00109332
0.00109087
0.00108794
0.0010845
0.00108057
0.00107613
0.00107118
0.00106574
0.00105978
0.00105332
0.00104636
0.0010389
0.00103094
0.00102249
0.00101355
0.00100414
0.00104318
0.00104291
0.00104206
0.00104064
0.00103876
0.00103644
0.00103367
0.00103042
0.00102671
0.00102253
0.00101788
0.00101276
0.00100718
0.00100113
0.000994621
0.000987654
0.000980235
0.000972369
0.000964064
0.000955329
0.000987638
0.000987382
0.000986578
0.000985246
0.000983479
0.000981305
0.000978705
0.000975666
0.000972189
0.000968278
0.000963936
0.000959163
0.000953961
0.000948333
0.000942283
0.000935816
0.000928935
0.000921649
0.000913964
0.000905889
0.000931427
0.00093119
0.00093044
0.000929199
0.000927554
0.00092553
0.000923111
0.000920285
0.000917055
0.000913424
0.000909397
0.000904974
0.000900157
0.000894951
0.00088936
0.000883389
0.000877042
0.000870326
0.000863248
0.000855816
0.000874614
0.000874394
0.000873701
0.000872554
0.000871034
0.000869164
0.000866931
0.000864323
0.000861343
0.000857997
0.000854286
0.000850214
0.000845783
0.000840997
0.00083586
0.000830378
0.000824554
0.000818395
0.000811908
0.0008051
0.000817248
0.000817046
0.000816411
0.000815359
0.000813965
0.000812251
0.000810204
0.000807815
0.000805086
0.000802022
0.000798627
0.000794904
0.000790853
0.00078648
0.000781789
0.000776785
0.000771471
0.000765855
0.000759941
0.000753736
0.000759359
0.000759175
0.000758597
0.00075764
0.000756371
0.000754812
0.00075295
0.000750778
0.000748297
0.000745513
0.000742428
0.000739046
0.000735368
0.000731399
0.000727143
0.000722603
0.000717785
0.000712693
0.000707333
0.000701711
0.000700966
0.0007008
0.000700278
0.000699413
0.000698268
0.000696861
0.00069518
0.00069322
0.000690982
0.00068847
0.000685689
0.000682639
0.000679324
0.000675747
0.000671911
0.000667821
0.000663481
0.000658895
0.000654068
0.000649005
0.000642055
0.000641907
0.00064144
0.000640666
0.000639641
0.000638382
0.000636878
0.000635124
0.000633122
0.000630876
0.000628388
0.00062566
0.000622696
0.000619498
0.000616069
0.000612413
0.000608533
0.000604434
0.000600119
0.000595594
0.000582605
0.000582473
0.000582059
0.000581372
0.000580464
0.000579347
0.000578014
0.000576459
0.000574684
0.000572693
0.000570488
0.000568071
0.000565444
0.00056261
0.000559571
0.000556331
0.000552893
0.000549261
0.000545437
0.000541427
0.000522544
0.000522429
0.000522066
0.000521465
0.000520669
0.00051969
0.000518522
0.00051716
0.000515605
0.00051386
0.000511929
0.000509811
0.000507509
0.000505026
0.000502364
0.000499525
0.000496513
0.00049333
0.000489979
0.000486463
0.000461791
0.000461691
0.000461375
0.000460855
0.000460166
0.000459319
0.000458308
0.000457129
0.000455784
0.000454275
0.000452604
0.000450773
0.000448782
0.000446634
0.000444331
0.000441875
0.000439269
0.000436515
0.000433615
0.000430573
0.0004002
0.000400116
0.000399849
0.000399408
0.000398825
0.000398107
0.000397251
0.000396252
0.000395112
0.000393833
0.000392416
0.000390864
0.000389175
0.000387354
0.000385401
0.000383318
0.000381107
0.00037877
0.000376309
0.000373727
0.000337582
0.00033751
0.000337287
0.00033692
0.000336434
0.000335838
0.000335126
0.000334297
0.00033335
0.000332288
0.000331112
0.000329823
0.000328422
0.00032691
0.000325289
0.000323561
0.000321725
0.000319786
0.000317743
0.0003156
0.000273725
0.000273671
0.000273498
0.00027321
0.000272827
0.000272356
0.000271792
0.000271136
0.000270386
0.000269544
0.000268611
0.000267588
0.000266475
0.000265275
0.000263987
0.000262613
0.000261154
0.000259612
0.000257986
0.000256281
0.000208231
0.000208183
0.000208044
0.000207818
0.000207522
0.00020716
0.000206729
0.000206227
0.000205655
0.000205014
0.000204305
0.000203528
0.000202684
0.000201774
0.000200798
0.000199758
0.000198654
0.000197488
0.000196259
0.00019497
0.000140855
0.000140837
0.00014076
0.000140624
0.000140438
0.000140208
0.000139932
0.000139608
0.000139236
0.000138818
0.000138353
0.000137844
0.000137288
0.000136689
0.000136044
0.000135357
0.000134626
0.000133853
0.000133038
0.000132182
7.06794e-05
7.06459e-05
7.05769e-05
7.0483e-05
7.03677e-05
7.02321e-05
7.00739e-05
6.9893e-05
6.96882e-05
6.94613e-05
6.92118e-05
6.8941e-05
6.8648e-05
6.83339e-05
6.79977e-05
6.7641e-05
6.72628e-05
6.68649e-05
6.64462e-05
6.60085e-05
0.0050421
0.00299254
0.00239551
0.00221678
0.00203895
0.00188187
0.00175228
0.00164308
0.0015504
0.00146989
0.00139839
0.00133375
0.00127478
0.00122021
0.00116962
0.00112238
0.0010781
0.00103628
0.00099676
0.000959244
0.000923587
0.000889487
0.000856911
0.000825686
0.000795737
0.000766883
0.000739126
0.000712349
0.000686509
0.000661496
0.000637322
0.000613891
0.000591186
0.000569114
0.000547724
0.000526926
0.000506711
0.000486988
0.000467829
0.00044915
0.000430954
0.000413156
0.000395829
0.000378902
0.000362381
0.000346196
0.00033041
0.000314982
0.000299897
0.000285129
0.000270684
0.000256566
0.000242743
0.000229255
0.00021602
0.000203098
0.000190448
0.000178157
0.000166082
0.000154331
0.000142841
0.000131792
0.000120942
0.000110447
0.000100222
9.06289e-05
8.12612e-05
7.23202e-05
6.37234e-05
5.58527e-05
4.84432e-05
4.15845e-05
3.5787e-05
3.02193e-05
2.87969e-05
2.09815e-05
3.84116e-05
-2.03609e-06
0.000131128
-0.000188229
0.00510295
0.00304634
0.00243025
0.002237
0.00205129
0.00189067
0.00175944
0.00164919
0.00155568
0.0014745
0.00140245
0.00133737
0.00127804
0.00122317
0.00117234
0.00112488
0.00108042
0.00103843
0.000998772
0.00096113
0.00092536
0.00089116
0.000858493
0.000827186
0.000797161
0.000768239
0.00074042
0.000713584
0.000687691
0.000662629
0.000638409
0.000614935
0.000592189
0.00057008
0.000548655
0.000527824
0.000507579
0.000487826
0.00046864
0.000449935
0.000431714
0.000413892
0.000396543
0.000379596
0.000363054
0.00034685
0.000331046
0.0003156
0.000300499
0.000285715
0.000271255
0.000257122
0.000243284
0.000229783
0.000216534
0.0002036
0.000190937
0.000178635
0.000166548
0.000154786
0.000143285
0.000132226
0.000121366
0.000110862
0.000100628
9.10254e-05
8.16491e-05
7.27001e-05
6.40954e-05
5.6217e-05
4.88002e-05
4.19348e-05
3.61311e-05
3.05564e-05
2.91298e-05
2.13058e-05
3.87384e-05
-1.71739e-06
0.000131465
-0.000188061
0.00509023
0.0030587
0.00244771
0.00225237
0.00206466
0.00190227
0.00176944
0.00165784
0.00156323
0.00148114
0.00140836
0.00134268
0.00128285
0.00122756
0.00117637
0.00112861
0.00108388
0.00104166
0.0010018
0.000963973
0.000928039
0.000893691
0.00086089
0.000829462
0.000799326
0.000770302
0.000742389
0.000715468
0.000689494
0.000664358
0.000640069
0.000616531
0.000593726
0.000571561
0.000550083
0.000529203
0.00050891
0.000489114
0.000469886
0.000451141
0.000432884
0.000415027
0.000397644
0.000380665
0.000364092
0.000347859
0.000332028
0.000316555
0.000301429
0.00028662
0.000272136
0.00025798
0.000244121
0.000230599
0.00021733
0.000204377
0.000191695
0.000179374
0.00016727
0.000155491
0.000143974
0.000132898
0.000122023
0.000111504
0.000101256
9.1639e-05
8.22492e-05
7.32875e-05
6.46706e-05
5.67799e-05
4.93518e-05
4.24756e-05
3.66624e-05
3.1076e-05
2.9644e-05
2.18018e-05
3.92501e-05
-1.25942e-06
0.000132072
-0.000187921
0.00505379
0.00306457
0.00245911
0.00226084
0.00207282
0.00191086
0.001778
0.0016659
0.00157059
0.0014878
0.00141439
0.00134816
0.00128786
0.00123216
0.00118063
0.00113256
0.00108756
0.00104511
0.00100503
0.000967018
0.000930915
0.000896415
0.000863475
0.00083192
0.000801668
0.000772538
0.000744527
0.000717514
0.000691457
0.000666243
0.000641881
0.000618275
0.000595406
0.000573181
0.000551647
0.000530714
0.000510371
0.000490529
0.000471256
0.000452469
0.000434172
0.000416277
0.000398858
0.000381844
0.000365239
0.000348975
0.000333114
0.000317612
0.000302458
0.000287624
0.000273114
0.000258934
0.000245052
0.000231507
0.000218216
0.000205242
0.000192539
0.000180198
0.000168075
0.000156278
0.000144742
0.000133648
0.000122756
0.000112221
0.000101956
9.23232e-05
8.29181e-05
7.39418e-05
6.5311e-05
5.74061e-05
4.99646e-05
4.3076e-05
3.72514e-05
3.16513e-05
3.02107e-05
2.23506e-05
3.98045e-05
-7.48237e-07
0.000132765
-0.000187854
0.00501326
0.00307263
0.00247135
0.00226893
0.00207935
0.00191707
0.00178425
0.00167223
0.00157683
0.0014938
0.00142005
0.00135346
0.00129279
0.00123676
0.00118492
0.00113657
0.00109133
0.00104865
0.00100838
0.000970184
0.000933916
0.000899265
0.000866188
0.000834507
0.000804139
0.000774902
0.000746791
0.000719686
0.000693543
0.000668249
0.000643812
0.000620136
0.000597201
0.000574915
0.000553323
0.000532335
0.000511941
0.000492049
0.00047273
0.000453899
0.00043556
0.000417625
0.000400169
0.000383119
0.000366479
0.000350183
0.00033429
0.000318758
0.000303575
0.000288713
0.000274177
0.000259971
0.000246064
0.000232495
0.000219181
0.000206184
0.00019346
0.000181098
0.000168954
0.000157136
0.000145581
0.000134468
0.000123557
0.000113004
0.000102723
9.30713e-05
8.36493e-05
7.4657e-05
6.60107e-05
5.80898e-05
5.06333e-05
4.37306e-05
3.7893e-05
3.22779e-05
3.08245e-05
2.29491e-05
4.03923e-05
-1.75979e-07
0.000133502
-0.000187799
0.00497111
0.00307979
0.00248236
0.00227636
0.00208548
0.00192257
0.00178933
0.00167712
0.00158168
0.00149863
0.00142483
0.00135813
0.00129731
0.0012411
0.00118905
0.0011405
0.00109506
0.0010522
0.00101175
0.000973397
0.000936978
0.00090219
0.000868984
0.000837183
0.000806704
0.000777364
0.000749157
0.000721962
0.000695735
0.000670361
0.00064585
0.000622104
0.000599103
0.000576755
0.000555104
0.00053406
0.000513613
0.000493672
0.000474305
0.000455429
0.000437046
0.000419071
0.000401575
0.000384488
0.000367813
0.000351483
0.000335557
0.000319994
0.000304781
0.00028989
0.000275326
0.000261094
0.00024716
0.000233566
0.000220228
0.000207208
0.00019446
0.000182076
0.00016991
0.000158071
0.000146495
0.000135362
0.000124431
0.000113859
0.000103559
9.38877e-05
8.44475e-05
7.54379e-05
6.67747e-05
5.88362e-05
5.13632e-05
4.44451e-05
3.85925e-05
3.29609e-05
3.14907e-05
2.3603e-05
4.10172e-05
4.66442e-07
0.000134265
-0.000187716
0.00492664
0.00308528
0.00249179
0.0022825
0.00209073
0.00192753
0.00179395
0.00168141
0.00158571
0.00150251
0.00142866
0.00136194
0.00130111
0.00124486
0.00119275
0.00114411
0.00109856
0.00105558
0.00101501
0.000976529
0.000939992
0.00090509
0.000871775
0.000839871
0.000809294
0.000779861
0.000751566
0.000724288
0.000697982
0.000672535
0.000647953
0.00062414
0.000601077
0.000578668
0.00055696
0.000535862
0.000515363
0.000495373
0.000475959
0.000457038
0.000438613
0.000420597
0.000403062
0.000385937
0.000369226
0.000352861
0.000336902
0.000321308
0.000306064
0.000291144
0.000276552
0.000262292
0.000248332
0.000234712
0.000221349
0.000208304
0.000195533
0.000183125
0.000170937
0.000159077
0.000147479
0.000136324
0.000125372
0.00011478
0.000104461
9.47685e-05
8.5309e-05
7.62808e-05
6.75995e-05
5.9642e-05
5.2151e-05
4.52161e-05
3.93468e-05
3.36976e-05
3.22061e-05
2.43098e-05
4.16745e-05
1.1803e-06
0.000135036
-0.000187583
0.00487993
0.00308984
0.00250037
0.0022877
0.00209507
0.00193174
0.00179802
0.00168529
0.00158934
0.00150591
0.00143189
0.00136509
0.00130421
0.00124796
0.00119584
0.0011472
0.00110163
0.00105861
0.00101798
0.000979441
0.000942832
0.000907854
0.000874462
0.00084248
0.000811826
0.000782319
0.000753951
0.000726603
0.00070023
0.000674717
0.000650073
0.0006262
0.000603079
0.000580616
0.000558854
0.000537705
0.000517158
0.000497122
0.000477663
0.000458699
0.000440233
0.000422178
0.000404605
0.000387443