/*--------------------------------*- C++ -*----------------------------------*\
| =========                 |                                                 |
| \\      /  F ield         | OpenFOAM: The Open Source CFD Toolbox           |
|  \\    /   O peration     | Version:  v1912                                 |
|   \\  /    A nd           | Website:  www.openfoam.com                      |
|    \\/     M anipulation  |                                                 |
\*---------------------------------------------------------------------------*/
FoamFile
{
    version     2.0;
    format      ascii;
    class       surfaceScalarField;
    location    "100";
    object      phi;
}
// * * * * * * * * * * * * * * * * * * * * * * * * * * * * * * * * * * * * * //

dimensions      [0 3 -1 0 0 0 0];
oriented        oriented;


internalField   nonuniform List<scalar> 
19800
(
2.29239e-07
3.93988e-13
2.29238e-07
1.26194e-12
2.29235e-07
2.20456e-12
2.29232e-07
3.13701e-12
2.29228e-07
4.08617e-12
2.29223e-07
5.08608e-12
2.29217e-07
6.15411e-12
2.2921e-07
7.31987e-12
2.29201e-07
8.61053e-12
2.29191e-07
1.01295e-11
2.29179e-07
1.1882e-11
2.29165e-07
1.42494e-11
2.29148e-07
1.68668e-11
2.29126e-07
2.16325e-11
2.29101e-07
2.5165e-11
2.29061e-07
4.03582e-11
2.29027e-07
3.38915e-11
2.28872e-07
1.54986e-10
2.29195e-07
-3.23595e-10
1.23939e-08
2.16801e-07
2.42236e-07
8.1203e-13
2.42234e-07
2.59707e-12
2.42232e-07
4.53549e-12
2.42229e-07
6.45654e-12
2.42224e-07
8.41481e-12
2.42219e-07
1.04794e-11
2.42213e-07
1.26874e-11
2.42205e-07
1.51e-11
2.42196e-07
1.7775e-11
2.42185e-07
2.09178e-11
2.42172e-07
2.45444e-11
2.42157e-07
2.94306e-11
2.42139e-07
3.48479e-11
2.42116e-07
4.46492e-11
2.42089e-07
5.20058e-11
2.42046e-07
8.31133e-11
2.4201e-07
7.03985e-11
2.4185e-07
3.14616e-10
2.42069e-07
-5.42069e-10
1.25191e-08
2.41943e-07
2.5597e-07
1.25407e-12
2.55968e-07
4.00825e-12
2.55966e-07
7.00055e-12
2.55962e-07
9.97013e-12
2.55958e-07
1.30004e-11
2.55952e-07
1.61992e-11
2.55945e-07
1.96257e-11
2.55937e-07
2.33728e-11
2.55927e-07
2.75297e-11
2.55915e-07
3.24105e-11
2.55902e-07
3.80433e-11
2.55886e-07
4.56138e-11
2.55867e-07
5.40227e-11
2.55842e-07
6.91607e-11
2.55813e-07
8.06221e-11
2.55768e-07
1.28473e-10
2.55729e-07
1.0976e-10
2.55566e-07
4.77624e-10
2.5569e-07
-6.66867e-10
1.21367e-08
2.56073e-07
2.70482e-07
1.7215e-12
2.70481e-07
5.49967e-12
2.70478e-07
9.60672e-12
2.70474e-07
1.36877e-11
2.70469e-07
1.78566e-11
2.70463e-07
2.22628e-11
2.70456e-07
2.69893e-11
2.70447e-07
3.21641e-11
2.70437e-07
3.79105e-11
2.70425e-07
4.46517e-11
2.7041e-07
5.24313e-11
2.70393e-07
6.28639e-11
2.70373e-07
7.44695e-11
2.70346e-07
9.5265e-11
2.70316e-07
1.11138e-10
2.70268e-07
1.76572e-10
2.70225e-07
1.52377e-10
2.7006e-07
6.4236e-10
2.70103e-07
-7.09993e-10
1.18077e-08
2.70433e-07
2.85818e-07
2.21596e-12
2.85816e-07
7.0759e-12
2.85813e-07
1.23619e-11
2.85809e-07
1.7621e-11
2.85804e-07
2.29987e-11
2.85798e-07
2.86903e-11
2.8579e-07
3.4806e-11
2.85781e-07
4.15085e-11
2.85769e-07
4.89562e-11
2.85756e-07
5.76898e-11
2.85741e-07
6.777e-11
2.85723e-07
8.12549e-11
2.85701e-07
9.62795e-11
2.85673e-07
1.23069e-10
2.8564e-07
1.43693e-10
2.8559e-07
2.27533e-10
2.85543e-07
1.98736e-10
2.85378e-07
8.07705e-10
2.85351e-07
-6.83144e-10
1.15379e-08
2.85621e-07
3.02022e-07
2.73899e-12
3.02021e-07
8.74159e-12
3.02018e-07
1.52736e-11
3.02014e-07
2.17807e-11
3.02008e-07
2.84417e-11
3.02001e-07
3.55e-11
3.01993e-07
4.30963e-11
3.01983e-07
5.14321e-11
3.01971e-07
6.07049e-11
3.01957e-07
7.15716e-11
3.01941e-07
8.41149e-11
3.01921e-07
1.00856e-10
3.01898e-07
1.19537e-10
3.01869e-07
1.52679e-10
3.01834e-07
1.78424e-10
3.0178e-07
2.81491e-10
3.01729e-07
2.49265e-10
3.01564e-07
9.72836e-10
3.01478e-07
-5.96699e-10
1.13195e-08
3.01696e-07
3.19146e-07
3.29258e-12
3.19144e-07
1.0502e-11
3.19141e-07
1.83509e-11
3.19137e-07
2.618e-11
3.19131e-07
3.42022e-11
3.19124e-07
4.27142e-11
3.19115e-07
5.1891e-11
3.19104e-07
6.19731e-11
3.19092e-07
7.31976e-11
3.19077e-07
8.6349e-11
3.1906e-07
1.01533e-10
3.19039e-07
1.21748e-10
3.19014e-07
1.44342e-10
3.18982e-07
1.84211e-10
3.18945e-07
2.15488e-10
3.18888e-07
3.38562e-10
3.18833e-07
3.04486e-10
3.18669e-07
1.13722e-09
3.18531e-07
-4.59605e-10
1.11464e-08
3.18705e-07
3.3724e-07
3.87842e-12
3.37238e-07
1.23623e-11
3.37235e-07
2.1602e-11
3.3723e-07
3.08302e-11
3.37224e-07
4.02962e-11
3.37217e-07
5.03521e-11
3.37207e-07
6.1211e-11
3.37196e-07
7.31571e-11
3.37183e-07
8.64744e-11
3.37167e-07
1.02071e-10
3.37149e-07
1.20082e-10
3.37126e-07
1.44003e-10
3.371e-07
1.70785e-10
3.37066e-07
2.17774e-10
3.37027e-07
2.55034e-10
3.36966e-07
3.98883e-10
3.36906e-07
3.64797e-10
3.36743e-07
1.3006e-09
3.36563e-07
-2.7977e-10
1.10138e-08
3.36695e-07
3.56361e-07
4.4989e-12
3.56359e-07
1.43284e-11
3.56355e-07
2.50369e-11
3.5635e-07
3.57465e-11
3.56344e-07
4.67424e-11
3.56336e-07
5.84383e-11
3.56326e-07
7.10901e-11
3.56314e-07
8.50265e-11
3.563e-07
1.00578e-10
3.56283e-07
1.18791e-10
3.56263e-07
1.39832e-10
3.5624e-07
1.67707e-10
3.56211e-07
1.98972e-10
3.56176e-07
2.53492e-10
3.56133e-07
2.97234e-10
3.5607e-07
4.62562e-10
3.56004e-07
4.30716e-10
3.55841e-07
1.463e-09
3.55626e-07
-6.41194e-11
1.09178e-08
3.55722e-07
3.76565e-07
5.15596e-12
3.76563e-07
1.64064e-11
3.76559e-07
2.86651e-11
3.76554e-07
4.09407e-11
3.76547e-07
5.35581e-11
3.76539e-07
6.6993e-11
3.76528e-07
8.15496e-11
3.76515e-07
9.76061e-11
3.76501e-07
1.15551e-10
3.76483e-07
1.3656e-10
3.76462e-07
1.60842e-10
3.76436e-07
1.92933e-10
3.76406e-07
2.28996e-10
3.76368e-07
2.91479e-10
3.76323e-07
3.42249e-10
3.76256e-07
5.29738e-10
3.76184e-07
5.0257e-10
3.76023e-07
1.62465e-09
3.75777e-07
1.81124e-10
1.08549e-08
3.7584e-07
3.97915e-07
5.85247e-12
3.97912e-07
1.86029e-11
3.97909e-07
3.24974e-11
3.97903e-07
4.64305e-11
3.97896e-07
6.07637e-11
3.97887e-07
7.60438e-11
3.97876e-07
9.26271e-11
3.97862e-07
1.10944e-10
3.97847e-07
1.31437e-10
3.97828e-07
1.55434e-10
3.97805e-07
1.83188e-10
3.97778e-07
2.1977e-10
3.97747e-07
2.60971e-10
3.97706e-07
3.31858e-10
3.97658e-07
3.90262e-10
3.97587e-07
6.0051e-10
3.97509e-07
5.80842e-10
3.97348e-07
1.786e-09
3.97078e-07
4.50672e-10
1.08211e-08
3.97112e-07
4.20475e-07
6.59066e-12
4.20473e-07
2.09249e-11
4.20469e-07
3.65445e-11
4.20463e-07
5.22282e-11
4.20455e-07
6.83787e-11
4.20446e-07
8.5612e-11
4.20434e-07
1.04344e-10
4.2042e-07
1.25062e-10
4.20403e-07
1.4828e-10
4.20383e-07
1.75463e-10
4.20359e-07
2.06926e-10
4.20331e-07
2.48291e-10
4.20297e-07
2.94991e-10
4.20254e-07
3.74744e-10
4.20202e-07
4.41441e-10
4.20128e-07
6.75021e-10
4.20043e-07
6.65743e-10
4.19881e-07
1.94756e-09
4.19592e-07
7.39822e-10
1.08129e-08
4.196e-07
4.44314e-07
7.37402e-12
4.44312e-07
2.33799e-11
4.44308e-07
4.08184e-11
4.44301e-07
5.83542e-11
4.44293e-07
7.64254e-11
4.44283e-07
9.57288e-11
4.44271e-07
1.16743e-10
4.44256e-07
1.40015e-10
4.44238e-07
1.66127e-10
4.44217e-07
1.96708e-10
4.44192e-07
2.32135e-10
4.44161e-07
2.78589e-10
4.44125e-07
3.31174e-10
4.4408e-07
4.2026e-10
4.44025e-07
4.95979e-10
4.43947e-07
7.53356e-10
4.43855e-07
7.57713e-10
4.43692e-07
2.10996e-09
4.43387e-07
1.04489e-09
1.08261e-08
4.43374e-07
4.69505e-07
8.2052e-12
4.69503e-07
2.59759e-11
4.69498e-07
4.5331e-11
4.69492e-07
6.48214e-11
4.69483e-07
8.49259e-11
4.69473e-07
1.06417e-10
4.69459e-07
1.29847e-10
4.69444e-07
1.55825e-10
4.69425e-07
1.85025e-10
4.69402e-07
2.19218e-10
4.69375e-07
2.58872e-10
4.69343e-07
3.10731e-10
4.69305e-07
3.69611e-10
4.69257e-07
4.68514e-10
4.69198e-07
5.54044e-10
4.69116e-07
8.3566e-10
4.69017e-07
8.56842e-10
4.68853e-07
2.27378e-09
4.68535e-07
1.36264e-09
1.08568e-08
4.68505e-07
4.96125e-07
9.08845e-12
4.96122e-07
2.87218e-11
4.96117e-07
5.00955e-11
4.9611e-07
7.16533e-11
4.96101e-07
9.39043e-11
4.9609e-07
1.17712e-10
4.96076e-07
1.43702e-10
4.96059e-07
1.72554e-10
4.96039e-07
2.0502e-10
4.96015e-07
2.43056e-10
4.95987e-07
2.87216e-10
4.95953e-07
3.44813e-10
4.95912e-07
4.10424e-10
4.95861e-07
5.19625e-10
4.95799e-07
6.15833e-10
4.95713e-07
9.2199e-10
4.95606e-07
9.63543e-10
4.9544e-07
2.43957e-09
4.95112e-07
1.69092e-09
1.09008e-08
4.95068e-07
5.24253e-07
1.0027e-11
5.2425e-07
3.16269e-11
5.24245e-07
5.51252e-11
5.24238e-07
7.88632e-11
5.24228e-07
1.03386e-10
5.24216e-07
1.29638e-10
5.24202e-07
1.58333e-10
5.24184e-07
1.90222e-10
5.24163e-07
2.26167e-10
5.24138e-07
2.68275e-10
5.24108e-07
3.17227e-10
5.24072e-07
3.809e-10
5.24028e-07
4.53701e-10
5.23974e-07
5.73691e-10
5.23908e-07
6.81508e-10
5.23818e-07
1.01248e-09
5.23704e-07
1.07779e-09
5.23535e-07
2.60766e-09
5.23198e-07
2.02778e-09
1.09545e-08
5.23145e-07
5.53976e-07
1.1026e-11
5.53973e-07
3.47015e-11
5.53968e-07
6.04343e-11
5.5396e-07
8.64776e-11
5.5395e-07
1.13396e-10
5.53938e-07
1.42235e-10
5.53922e-07
1.73794e-10
5.53903e-07
2.08901e-10
5.53881e-07
2.48514e-10
5.53854e-07
2.94939e-10
5.53823e-07
3.48987e-10
5.53784e-07
4.19085e-10
5.53739e-07
4.99563e-10
5.53681e-07
6.30818e-10
5.53612e-07
7.51265e-10
5.53517e-07
1.10715e-09
5.53395e-07
1.20002e-09
5.53224e-07
2.77834e-09
5.52879e-07
2.37232e-09
1.10141e-08
5.5282e-07
5.85385e-07
1.20893e-11
5.85381e-07
3.79569e-11
5.85376e-07
6.6038e-11
5.85368e-07
9.45103e-11
5.85357e-07
1.23964e-10
5.85344e-07
1.5553e-10
5.85327e-07
1.9011e-10
5.85308e-07
2.2861e-10
5.85284e-07
2.72122e-10
5.85256e-07
3.23107e-10
5.85222e-07
3.82557e-10
5.85182e-07
4.59433e-10
5.85133e-07
5.48098e-10
5.85073e-07
6.9109e-10
5.84999e-07
8.25256e-10
5.849e-07
1.2061e-09
5.8477e-07
1.33011e-09
5.84597e-07
2.95154e-09
5.84245e-07
2.7235e-09
1.10768e-08
5.84183e-07
6.18574e-07
1.32228e-11
6.1857e-07
4.14048e-11
6.18564e-07
7.19516e-11
6.18556e-07
1.02991e-10
6.18545e-07
1.35118e-10
6.18531e-07
1.69568e-10
6.18513e-07
2.0734e-10
6.18493e-07
2.49433e-10
6.18468e-07
2.97043e-10
6.18438e-07
3.52851e-10
6.18402e-07
4.18025e-10
6.1836e-07
5.02041e-10
6.18308e-07
5.99425e-10
6.18245e-07
7.54601e-10
6.18167e-07
9.03666e-10
6.18063e-07
1.30926e-09
6.17925e-07
1.46854e-09
6.17749e-07
3.12715e-09
6.17392e-07
3.08118e-09
1.11395e-08
6.17329e-07
6.53645e-07
1.4431e-11
6.53641e-07
4.50587e-11
6.53635e-07
7.81922e-11
6.53626e-07
1.11934e-10
6.53614e-07
1.46889e-10
6.53599e-07
1.84377e-10
6.53581e-07
2.25515e-10
6.53559e-07
2.71387e-10
6.53533e-07
3.23349e-10
6.53501e-07
3.84231e-10
6.53464e-07
4.55457e-10
6.53419e-07
5.46969e-10
6.53365e-07
6.53631e-10
6.53298e-07
8.21418e-10
6.53215e-07
9.8663e-10
6.53107e-07
1.41671e-09
6.52961e-07
1.61512e-09
6.52783e-07
3.30467e-09
6.52419e-07
3.4447e-09
1.12007e-08
6.52358e-07
6.90704e-07
1.57199e-11
6.907e-07
4.89313e-11
6.90693e-07
8.47763e-11
6.90684e-07
1.21372e-10
6.90671e-07
1.59306e-10
6.90656e-07
2.00009e-10
6.90637e-07
2.44699e-10
6.90613e-07
2.94568e-10
6.90586e-07
3.51091e-10
6.90553e-07
4.17328e-10
6.90513e-07
4.94948e-10
6.90466e-07
5.94326e-10
6.90409e-07
7.10837e-10
6.90338e-07
8.91624e-10
6.90251e-07
1.07432e-09
6.90139e-07
1.52828e-09
6.89984e-07
1.77038e-09
6.89805e-07
3.4837e-09
6.89435e-07
3.81407e-09
1.12581e-08
6.89378e-07
7.29864e-07
1.7094e-11
7.2986e-07
5.30377e-11
7.29853e-07
9.17236e-11
7.29843e-07
1.3132e-10
7.2983e-07
1.72406e-10
7.29814e-07
2.16491e-10
7.29793e-07
2.64925e-10
7.29769e-07
3.18993e-10
7.2974e-07
3.80353e-10
7.29705e-07
4.52212e-10
7.29663e-07
5.36573e-10
7.29613e-07
6.44174e-10
7.29553e-07
7.71132e-10
7.29479e-07
9.65278e-10
7.29387e-07
1.16683e-09
7.29271e-07
1.64403e-09
7.29107e-07
1.93394e-09
7.28927e-07
3.66349e-09
7.28553e-07
4.18832e-09
1.13112e-08
7.285e-07
7.71245e-07
1.85582e-11
7.7124e-07
5.73912e-11
7.71233e-07
9.90524e-11
7.71223e-07
1.41813e-10
7.71209e-07
1.8622e-10
7.71191e-07
2.33883e-10
7.7117e-07
2.86263e-10
7.71144e-07
3.4477e-10
7.71113e-07
4.11189e-10
7.71077e-07
4.8897e-10
7.71033e-07
5.80434e-10
7.7098e-07
6.96635e-10
7.70917e-07
8.34635e-10
7.7084e-07
1.04247e-09
7.70742e-07
1.26431e-09
7.70622e-07
1.76373e-09
7.7045e-07
2.10626e-09
7.7027e-07
3.84371e-09
7.69891e-07
4.5669e-09
1.13585e-08
7.69844e-07
8.14972e-07
2.01161e-11
8.14967e-07
6.20061e-11
8.14959e-07
1.06784e-10
8.14948e-07
1.52866e-10
8.14934e-07
2.00785e-10
8.14915e-07
2.52212e-10
8.14893e-07
3.08748e-10
8.14866e-07
3.71912e-10
8.14833e-07
4.43692e-10
8.14794e-07
5.27678e-10
8.14748e-07
6.26612e-10
8.14693e-07
7.51776e-10
8.14626e-07
9.01436e-10
8.14545e-07
1.12326e-09
8.14443e-07
1.3668e-09
8.14319e-07
1.88751e-09
8.14138e-07
2.2866e-09
8.13958e-07
4.0238e-09
8.13577e-07
4.9478e-09
1.14003e-08
8.13536e-07
8.61177e-07
2.17708e-11
8.61173e-07
6.68947e-11
8.61164e-07
1.1494e-10
8.61153e-07
1.64521e-10
8.61137e-07
2.16135e-10
8.61118e-07
2.71543e-10
8.61094e-07
3.32457e-10
8.61066e-07
4.0054e-10
8.61031e-07
4.77919e-10
8.60991e-07
5.68433e-10
8.60942e-07
6.75215e-10
8.60884e-07
8.09736e-10
8.60814e-07
9.71651e-10
8.60729e-07
1.20779e-09
8.60622e-07
1.47435e-09
8.60494e-07
2.01524e-09
8.60306e-07
2.47507e-09
8.60125e-07
4.20413e-09
8.59744e-07
5.32888e-09
1.14362e-08
8.59708e-07
9.10003e-07
2.35244e-11
9.09998e-07
7.20693e-11
9.09989e-07
1.23544e-10
9.09977e-07
1.76794e-10
9.09961e-07
2.32314e-10
9.0994e-07
2.91905e-10
9.09915e-07
3.57426e-10
9.09885e-07
4.30666e-10
9.09849e-07
5.13968e-10
9.09806e-07
6.11315e-10
9.09755e-07
7.2633e-10
9.09694e-07
8.70592e-10
9.09621e-07
1.04536e-09
9.09532e-07
1.29613e-09
9.0942e-07
1.58692e-09
9.09288e-07
2.14724e-09
9.09092e-07
2.67024e-09
9.08911e-07
4.38495e-09
9.08534e-07
5.7061e-09
1.14675e-08
9.08503e-07
9.61597e-07
2.5379e-11
9.61591e-07
7.75414e-11
9.61582e-07
1.32619e-10
9.61569e-07
1.89732e-10
9.61552e-07
2.49358e-10
9.61531e-07
3.13371e-10
9.61505e-07
3.83741e-10
9.61473e-07
4.62418e-10
9.61435e-07
5.51901e-10
9.6139e-07
6.56428e-10
9.61336e-07
7.80066e-10
9.61272e-07
9.34497e-10
9.61195e-07
1.12267e-09
9.61102e-07
1.38848e-09
9.60985e-07
1.70446e-09
9.60848e-07
2.28361e-09
9.60647e-07
2.87168e-09
9.60464e-07
4.56768e-09
9.60095e-07
6.07513e-09
1.14948e-08
9.60068e-07
1.01612e-06
2.73361e-11
1.01611e-06
8.33204e-11
1.0161e-06
1.42188e-10
1.01609e-06
2.03351e-10
1.01607e-06
2.67312e-10
1.01605e-06
3.3597e-10
1.01602e-06
4.11438e-10
1.01599e-06
4.95814e-10
1.01595e-06
5.91822e-10
1.0159e-06
7.03857e-10
1.01584e-06
8.36514e-10
1.01577e-06
1.00153e-09
1.01569e-06
1.20366e-09
1.0156e-06
1.48494e-09
1.01547e-06
1.82686e-09
1.01533e-06
2.42483e-09
1.01513e-06
3.07742e-09
1.01494e-06
4.75311e-09
1.01459e-06
6.43054e-09
1.15202e-08
1.01456e-06
1.07373e-06
2.93981e-11
1.07372e-06
8.9419e-11
1.07371e-06
1.52279e-10
1.0737e-06
2.17705e-10
1.07368e-06
2.86218e-10
1.07365e-06
3.59779e-10
1.07362e-06
4.4061e-10
1.07359e-06
5.30985e-10
1.07355e-06
6.33799e-10
1.0735e-06
7.53712e-10
1.07344e-06
8.95788e-10
1.07337e-06
1.07185e-09
1.07328e-06
1.28842e-09
1.07318e-06
1.58569e-09
1.07305e-06
1.95399e-09
1.07291e-06
2.57102e-09
1.0727e-06
3.28692e-09
1.07251e-06
4.94267e-09
1.07217e-06
6.76808e-09
1.15439e-08
1.07215e-06
1.1346e-06
3.15669e-11
1.1346e-06
9.58447e-11
1.13459e-06
1.62912e-10
1.13457e-06
2.32808e-10
1.13455e-06
3.06121e-10
1.13453e-06
3.8483e-10
1.13449e-06
4.71292e-10
1.13446e-06
5.67951e-10
1.13441e-06
6.77932e-10
1.13436e-06
8.06075e-10
1.1343e-06
9.57974e-10
1.13423e-06
1.14552e-09
1.13414e-06
1.37702e-09
1.13403e-06
1.69081e-09
1.1339e-06
2.08575e-09
1.13375e-06
2.72248e-09
1.13354e-06
3.49831e-09
1.13334e-06
5.13622e-09
1.13303e-06
7.08432e-09
1.15671e-08
1.133e-06
1.19893e-06
3.38461e-11
1.19892e-06
1.02614e-10
1.19891e-06
1.74119e-10
1.1989e-06
2.48718e-10
1.19888e-06
3.27069e-10
1.19885e-06
4.11201e-10
1.19882e-06
5.03582e-10
1.19878e-06
6.06842e-10
1.19873e-06
7.24297e-10
1.19868e-06
8.61054e-10
1.19861e-06
1.02318e-09
1.19853e-06
1.2227e-09
1.19844e-06
1.46955e-09
1.19833e-06
1.80042e-09
1.1982e-06
2.22199e-09
1.19804e-06
2.87905e-09
1.19783e-06
3.71137e-09
1.19763e-06
5.33391e-09
1.19734e-06
7.37767e-09
1.15887e-08
1.19731e-06
1.26691e-06
3.62385e-11
1.2669e-06
1.09732e-10
1.26689e-06
1.85915e-10
1.26687e-06
2.65449e-10
1.26685e-06
3.49101e-10
1.26682e-06
4.38922e-10
1.26679e-06
5.37511e-10
1.26674e-06
6.47678e-10
1.2667e-06
7.72977e-10
1.26664e-06
9.1872e-10
1.26657e-06
1.09148e-09
1.26649e-06
1.30341e-09
1.26639e-06
1.56602e-09
1.26628e-06
1.9145e-09
1.26614e-06
2.36259e-09
1.26598e-06
3.0407e-09
1.26576e-06
3.92453e-09
1.26556e-06
5.53434e-09
1.26529e-06
7.64745e-09
1.16083e-08
1.26527e-06
1.33873e-06
3.87488e-11
1.33873e-06
1.17219e-10
1.33871e-06
1.98336e-10
1.3387e-06
2.83059e-10
1.33867e-06
3.72269e-10
1.33864e-06
4.68073e-10
1.33861e-06
5.73177e-10
1.33857e-06
6.90582e-10
1.33851e-06
8.24053e-10
1.33845e-06
9.79172e-10
1.33838e-06
1.16297e-09
1.3383e-06
1.38777e-09
1.3382e-06
1.6665e-09
1.33808e-06
2.03308e-09
1.33793e-06
2.50735e-09
1.33777e-06
3.20694e-09
1.33755e-06
4.13775e-09
1.33735e-06
5.73669e-09
1.33711e-06
7.89396e-09
1.16241e-08
1.33709e-06
1.41464e-06
4.13803e-11
1.41463e-06
1.25077e-10
1.41461e-06
2.11393e-10
1.4146e-06
3.0156e-10
1.41457e-06
3.96607e-10
1.41454e-06
4.98679e-10
1.4145e-06
6.10603e-10
1.41446e-06
7.35571e-10
1.4144e-06
8.77588e-10
1.41434e-06
1.04246e-09
1.41427e-06
1.23769e-09
1.41418e-06
1.47577e-09
1.41407e-06
1.77096e-09
1.41395e-06
2.15603e-09
1.4138e-06
2.65606e-09
1.41363e-06
3.37743e-09
1.41342e-06
4.34964e-09
1.41322e-06
5.93896e-09
1.41299e-06
8.11786e-09
1.16351e-08
1.41298e-06
1.49484e-06
4.41387e-11
1.49483e-06
1.33332e-10
1.49482e-06
2.25123e-10
1.4948e-06
3.21009e-10
1.49477e-06
4.22171e-10
1.49474e-06
5.30817e-10
1.4947e-06
6.49884e-10
1.49465e-06
7.82755e-10
1.4946e-06
9.33659e-10
1.49453e-06
1.10867e-09
1.49445e-06
1.3157e-09
1.49436e-06
1.56749e-09
1.49425e-06
1.87939e-09
1.49413e-06
2.28327e-09
1.49397e-06
2.80841e-09
1.4938e-06
3.55147e-09
1.49359e-06
4.56009e-09
1.49339e-06
6.13992e-09
1.49319e-06
8.32015e-09
1.16398e-08
1.49318e-06
1.57959e-06
4.70273e-11
1.57958e-06
1.41984e-10
1.57957e-06
2.39534e-10
1.57955e-06
3.41417e-10
1.57952e-06
4.48986e-10
1.57949e-06
5.64508e-10
1.57945e-06
6.91036e-10
1.5794e-06
8.32147e-10
1.57934e-06
9.92307e-10
1.57927e-06
1.17782e-09
1.57919e-06
1.39703e-09
1.57909e-06
1.66288e-09
1.57898e-06
1.99171e-09
1.57885e-06
2.41459e-09
1.57869e-06
2.96413e-09
1.57852e-06
3.72847e-09
1.57831e-06
4.76783e-09
1.57811e-06
6.3375e-09
1.57793e-06
8.50189e-09
1.16372e-08
1.57793e-06
1.66915e-06
5.0052e-11
1.66914e-06
1.51057e-10
1.66912e-06
2.54663e-10
1.6691e-06
3.62835e-10
1.66907e-06
4.77105e-10
1.66904e-06
5.99821e-10
1.669e-06
7.34142e-10
1.66894e-06
8.83832e-10
1.66888e-06
1.05359e-09
1.66881e-06
1.24997e-09
1.66873e-06
1.48169e-09
1.66863e-06
1.76192e-09
1.66851e-06
2.10782e-09
1.66838e-06
2.54975e-09
1.66822e-06
3.12274e-09
1.66804e-06
3.90755e-09
1.66783e-06
4.97264e-09
1.66764e-06
6.53047e-09
1.66748e-06
8.66425e-09
1.16264e-08
1.66749e-06
1.76378e-06
5.32157e-11
1.76377e-06
1.60551e-10
1.76376e-06
2.70512e-10
1.76374e-06
3.85271e-10
1.76371e-06
5.06547e-10
1.76367e-06
6.36767e-10
1.76362e-06
7.79208e-10
1.76357e-06
9.37815e-10
1.76351e-06
1.11752e-09
1.76343e-06
1.32511e-09
1.76334e-06
1.56966e-09
1.76324e-06
1.86453e-09
1.76312e-06
2.22755e-09
1.76298e-06
2.68846e-09
1.76282e-06
3.28385e-09
1.76264e-06
4.08797e-09
1.76244e-06
5.17324e-09
1.76225e-06
6.71693e-09
1.76211e-06
8.80822e-09
1.16069e-08
1.76213e-06
1.86378e-06
5.65238e-11
1.86377e-06
1.70488e-10
1.86376e-06
2.87114e-10
1.86373e-06
4.08767e-10
1.8637e-06
5.37354e-10
1.86366e-06
6.75402e-10
1.86362e-06
8.2629e-10
1.86356e-06
9.94147e-10
1.86349e-06
1.18412e-09
1.86342e-06
1.40324e-09
1.86332e-06
1.66088e-09
1.86322e-06
1.97059e-09
1.8631e-06
2.3507e-09
1.86295e-06
2.83031e-09
1.86279e-06
3.44685e-09
1.86261e-06
4.26867e-09
1.86241e-06
5.36929e-09
1.86223e-06
6.89585e-09
1.86211e-06
8.93488e-09
1.15783e-08
1.86214e-06
1.96945e-06
5.99781e-11
1.96944e-06
1.80865e-10
1.96942e-06
3.04467e-10
1.9694e-06
4.33324e-10
1.96937e-06
5.69536e-10
1.96933e-06
7.15724e-10
1.96928e-06
8.75385e-10
1.96922e-06
1.05282e-09
1.96915e-06
1.25339e-09
1.96907e-06
1.48432e-09
1.96898e-06
1.75528e-09
1.96887e-06
2.07996e-09
1.96874e-06
2.477e-09
1.9686e-06
2.9749e-09
1.96843e-06
3.61119e-09
1.96825e-06
4.44885e-09
1.96806e-06
5.55955e-09
1.96789e-06
7.06565e-09
1.96778e-06
9.04498e-09
1.15405e-08
1.96782e-06
2.08111e-06
6.3583e-11
2.0811e-06
1.91701e-10
2.08108e-06
3.22594e-10
2.08106e-06
4.58974e-10
2.08103e-06
6.03118e-10
2.08098e-06
7.57766e-10
2.08093e-06
9.26515e-10
2.08087e-06
1.11383e-09
2.0808e-06
1.32528e-09
2.08072e-06
1.56828e-09
2.08062e-06
1.85271e-09
2.08051e-06
2.19239e-09
2.08038e-06
2.60613e-09
2.08023e-06
3.12166e-09
2.08006e-06
3.77611e-09
2.07989e-06
4.62734e-09
2.0797e-06
5.74357e-09
2.07954e-06
7.22559e-09
2.07945e-06
9.13947e-09
1.14937e-08
2.07949e-06
2.1991e-06
6.73387e-11
2.19909e-06
2.0299e-10
2.19907e-06
3.41489e-10
2.19905e-06
4.85704e-10
2.19901e-06
6.38095e-10
2.19897e-06
8.01509e-10
2.19892e-06
9.79655e-10
2.19885e-06
1.17715e-09
2.19878e-06
1.39974e-09
2.19869e-06
1.65501e-09
2.19859e-06
1.95304e-09
2.19848e-06
2.30767e-09
2.19834e-06
2.73769e-09
2.1982e-06
3.27009e-09
2.19803e-06
3.94093e-09
2.19786e-06
4.80329e-09
2.19768e-06
5.92014e-09
2.19753e-06
7.37443e-09
2.19745e-06
9.21881e-09
1.14379e-08
2.19751e-06
2.32379e-06
7.12475e-11
2.32377e-06
2.14741e-10
2.32375e-06
3.61163e-10
2.32373e-06
5.13531e-10
2.32369e-06
6.7447e-10
2.32364e-06
8.46951e-10
2.32359e-06
1.03478e-09
2.32352e-06
1.24272e-09
2.32345e-06
1.47667e-09
2.32336e-06
1.74438e-09
2.32325e-06
2.05602e-09
2.32314e-06
2.42541e-09
2.323e-06
2.87122e-09
2.32285e-06
3.41945e-09
2.32269e-06
4.10477e-09
2.32252e-06
4.97548e-09
2.32235e-06
6.0888e-09
2.32221e-06
7.51175e-09
2.32215e-06
9.28382e-09
1.13738e-08
2.32221e-06
2.45554e-06
7.53076e-11
2.45552e-06
2.26945e-10
2.4555e-06
3.816e-10
2.45547e-06
5.42426e-10
2.45544e-06
7.12216e-10
2.45539e-06
8.9405e-10
2.45533e-06
1.09184e-09
2.45526e-06
1.31046e-09
2.45519e-06
1.55596e-09
2.45509e-06
1.8362e-09
2.45499e-06
2.1614e-09
2.45487e-06
2.54529e-09
2.45473e-06
3.0062e-09
2.45458e-06
3.56911e-09
2.45442e-06
4.26683e-09
2.45425e-06
5.14307e-09
2.45409e-06
6.2484e-09
2.45397e-06
7.63667e-09
2.45392e-06
9.33478e-09
1.13015e-08
2.45399e-06
2.59476e-06
7.95183e-11
2.59474e-06
2.39602e-10
2.59472e-06
4.02794e-10
2.59469e-06
5.72383e-10
2.59465e-06
7.51305e-10
2.5946e-06
9.42761e-10
2.59455e-06
1.15075e-09
2.59448e-06
1.38025e-09
2.59439e-06
1.63744e-09
2.5943e-06
1.93022e-09
2.59419e-06
2.26884e-09
2.59407e-06
2.66681e-09
2.59394e-06
3.14203e-09
2.59379e-06
3.71822e-09
2.59363e-06
4.42614e-09
2.59346e-06
5.30486e-09
2.59331e-06
6.3985e-09
2.5932e-06
7.74901e-09
2.59317e-06
9.37241e-09
1.12216e-08
2.59325e-06
2.74187e-06
8.38745e-11
2.74186e-06
2.52693e-10
2.74183e-06
4.24716e-10
2.7418e-06
6.03352e-10
2.74176e-06
7.9168e-10
2.74171e-06
9.93002e-10
2.74165e-06
1.2114e-09
2.74158e-06
1.45195e-09
2.7415e-06
1.7209e-09
2.7414e-06
2.02618e-09
2.74129e-06
2.37796e-09
2.74117e-06
2.7895e-09
2.74103e-06
3.27805e-09
2.74088e-06
3.86603e-09
2.74073e-06
4.5818e-09
2.74057e-06
5.46003e-09
2.74043e-06
6.53811e-09
2.74034e-06
7.84821e-09
2.74031e-06
9.39692e-09
1.11343e-08
2.7404e-06
2.89732e-06
8.8372e-11
2.89731e-06
2.66208e-10
2.89729e-06
4.4734e-10
2.89725e-06
6.35295e-10
2.89721e-06
8.33275e-10
2.89716e-06
1.04468e-09
2.8971e-06
1.27366e-09
2.89703e-06
1.52536e-09
2.89694e-06
1.80608e-09
2.89684e-06
2.12372e-09
2.89673e-06
2.48832e-09
2.89661e-06
2.91274e-09
2.89647e-06
3.41352e-09
2.89633e-06
4.01159e-09
2.89618e-06
4.73283e-09
2.89603e-06
5.60749e-09
2.8959e-06
6.66684e-09
2.89582e-06
7.93429e-09
2.8958e-06
9.40896e-09
1.10403e-08
2.8959e-06
3.06159e-06
9.30015e-11
3.06158e-06
2.80114e-10
3.06155e-06
4.70615e-10
3.06152e-06
6.68135e-10
3.06148e-06
8.75988e-10
3.06142e-06
1.09766e-09
3.06136e-06
1.33736e-09
3.06129e-06
1.60027e-09
3.0612e-06
1.89269e-09
3.0611e-06
2.22246e-09
3.06099e-06
2.5994e-09
3.06087e-06
3.03593e-09
3.06073e-06
3.54768e-09
3.06059e-06
4.15405e-09
3.06044e-06
4.87828e-09
3.06031e-06
5.74647e-09
3.06019e-06
6.78393e-09
3.06012e-06
8.00695e-09
3.06012e-06
9.40873e-09
1.09397e-08
3.06022e-06
3.23517e-06
9.77535e-11
3.23516e-06
2.94387e-10
3.23513e-06
4.94492e-10
3.2351e-06
7.01796e-10
3.23506e-06
9.19708e-10
3.235e-06
1.15178e-09
3.23494e-06
1.40228e-09
3.23486e-06
1.67637e-09
3.23477e-06
1.98035e-09
3.23467e-06
2.32193e-09
3.23456e-06
2.71063e-09
3.23444e-06
3.15833e-09
3.23431e-06
3.67969e-09
3.23417e-06
4.29243e-09
3.23403e-06
5.01719e-09
3.2339e-06
5.87605e-09
3.2338e-06
6.88904e-09
3.23374e-06
8.06633e-09
3.23375e-06
9.39684e-09
1.08331e-08
3.23385e-06
3.41859e-06
1.02614e-10
3.41858e-06
3.08978e-10
3.41855e-06
5.1889e-10
3.41852e-06
7.36162e-10
3.41848e-06
9.64281e-10
3.41842e-06
1.20685e-09
3.41835e-06
1.46816e-09
3.41828e-06
1.75336e-09
3.41819e-06
2.06867e-09
3.41809e-06
2.42161e-09
3.41798e-06
2.82138e-09
3.41786e-06
3.2792e-09
3.41773e-06
3.80868e-09
3.4176e-06
4.42582e-09
3.41746e-06
5.14865e-09
3.41734e-06
5.99552e-09
3.41725e-06
6.98166e-09
3.41721e-06
8.11236e-09
3.41723e-06
9.37352e-09
1.07205e-08
3.41734e-06
3.61242e-06
1.07566e-10
3.6124e-06
3.23843e-10
3.61238e-06
5.43731e-10
3.61234e-06
7.71113e-10
3.6123e-06
1.00954e-09
3.61224e-06
1.26264e-09
3.61217e-06
1.53471e-09
3.6121e-06
1.83085e-09
3.61201e-06
2.15716e-09
3.61191e-06
2.52094e-09
3.6118e-06
2.93095e-09
3.61168e-06
3.39773e-09
3.61155e-06
3.93374e-09
3.61143e-06
4.55326e-09
3.6113e-06
5.27176e-09
3.6112e-06
6.10417e-09
3.61112e-06
7.06157e-09
3.61108e-06
8.14527e-09
3.61112e-06
9.33933e-09
1.06024e-08
3.61123e-06
3.81723e-06
1.12589e-10
3.81721e-06
3.38913e-10
3.81719e-06
5.68901e-10
3.81715e-06
8.06487e-10
3.8171e-06
1.05526e-09
3.81705e-06
1.31887e-09
3.81698e-06
1.60158e-09
3.8169e-06
1.90841e-09
3.81682e-06
2.2453e-09
3.81672e-06
2.61927e-09
3.81661e-06
3.03861e-09
3.81649e-06
3.51308e-09
3.81637e-06
4.05396e-09
3.81625e-06
4.67383e-09
3.81614e-06
5.3857e-09
3.81604e-06
6.20141e-09
3.81598e-06
7.12847e-09
3.81596e-06
8.16515e-09
3.816e-06
9.29454e-09
1.04789e-08
3.81612e-06
4.03365e-06
1.17661e-10
4.03363e-06
3.54124e-10
4.03361e-06
5.94285e-10
4.03357e-06
8.42112e-10
4.03353e-06
1.10121e-09
4.03347e-06
1.37524e-09
4.0334e-06
1.66838e-09
4.03333e-06
1.98556e-09
4.03324e-06
2.33252e-09
4.03314e-06
2.71594e-09
4.03304e-06
3.14356e-09
4.03293e-06
3.62436e-09
4.03281e-06
4.16843e-09
4.0327e-06
4.78661e-09
4.03259e-06
5.48971e-09
4.03251e-06
6.28674e-09
4.03246e-06
7.18228e-09
4.03245e-06
8.17229e-09
4.0325e-06
9.23964e-09
1.03503e-08
4.03263e-06
4.26234e-06
1.22752e-10
4.26233e-06
3.69384e-10
4.2623e-06
6.19732e-10
4.26227e-06
8.77775e-10
4.26222e-06
1.14712e-09
4.26216e-06
1.43139e-09
4.2621e-06
1.73468e-09
4.26202e-06
2.06178e-09
4.26193e-06
2.41819e-09
4.26184e-06
2.8102e-09
4.26174e-06
3.245e-09
4.26163e-06
3.73071e-09
4.26152e-06
4.27623e-09
4.26142e-06
4.89078e-09
4.26133e-06
5.58308e-09
4.26125e-06
6.35973e-09
4.26121e-06
7.22288e-09
4.26122e-06
8.16689e-09
4.26128e-06
9.17495e-09
1.02166e-08
4.26142e-06
4.504e-06
1.27831e-10
4.50399e-06
3.84605e-10
4.50396e-06
6.45087e-10
4.50392e-06
9.1325e-10
4.50388e-06
1.19268e-09
4.50382e-06
1.48693e-09
4.50376e-06
1.8e-09
4.50368e-06
2.13649e-09
4.5036e-06
2.50163e-09
4.50351e-06
2.9013e-09
4.50341e-06
3.34208e-09
4.50331e-06
3.83123e-09
4.50321e-06
4.37647e-09
4.50312e-06
4.98552e-09
4.50303e-06
5.66521e-09
4.50297e-06
6.42007e-09
4.50295e-06
7.25033e-09
4.50296e-06
8.1493e-09
4.50304e-06
9.10088e-09
1.00781e-08
4.50318e-06
4.75936e-06
1.32862e-10
4.75935e-06
3.99672e-10
4.75932e-06
6.70161e-10
4.75929e-06
9.4827e-10
4.75924e-06
1.23753e-09
4.75919e-06
1.54143e-09
4.75912e-06
1.86381e-09
4.75905e-06
2.20908e-09
4.75897e-06
2.58215e-09
4.75888e-06
2.98845e-09
4.75879e-06
3.43394e-09
4.7587e-06
3.92504e-09
4.7586e-06
4.46833e-09
4.75852e-06
5.07012e-09
4.75845e-06
5.73557e-09
4.7584e-06
6.46751e-09
4.75839e-06
7.26468e-09
4.75842e-06
8.11979e-09
4.7585e-06
9.01775e-09
9.93482e-09
4.75864e-06
5.0292e-06
1.37806e-10
5.02918e-06
4.14472e-10
5.02916e-06
6.94761e-10
5.02913e-06
9.82558e-10
5.02908e-06
1.28132e-09
5.02903e-06
1.59443e-09
5.02897e-06
1.92557e-09
5.0289e-06
2.2789e-09
5.02882e-06
2.659e-09
5.02874e-06
3.07085e-09
5.02865e-06
3.51975e-09
5.02857e-06
4.0113e-09
5.02848e-06
4.55102e-09
5.02841e-06
5.14392e-09
5.02835e-06
5.79375e-09
5.02832e-06
6.50191e-09
5.02832e-06
7.26607e-09
5.02836e-06
8.07873e-09
5.02845e-06
8.92592e-09
9.78696e-09
5.0286e-06
5.31434e-06
1.42618e-10
5.31432e-06
4.28868e-10
5.3143e-06
7.18663e-10
5.31426e-06
1.0158e-09
5.31422e-06
1.32365e-09
5.31417e-06
1.64544e-09
5.31411e-06
1.98468e-09
5.31405e-06
2.34528e-09
5.31397e-06
2.73145e-09
5.3139e-06
3.14769e-09
5.31382e-06
3.59868e-09
5.31374e-06
4.08921e-09
5.31367e-06
4.62381e-09
5.3136e-06
5.20637e-09
5.31356e-06
5.8394e-09
5.31354e-06
6.5232e-09
5.31355e-06
7.2547e-09
5.3136e-06
8.02644e-09
5.3137e-06
8.82571e-09
9.63456e-09
5.31385e-06
5.61564e-06
1.47253e-10
5.61563e-06
4.42729e-10
5.6156e-06
7.41639e-10
5.61557e-06
1.04768e-09
5.61553e-06
1.36408e-09
5.61548e-06
1.69394e-09
5.61543e-06
2.04056e-09
5.61536e-06
2.40755e-09
5.6153e-06
2.79875e-09
5.61523e-06
3.21819e-09
5.61515e-06
3.66994e-09
5.61509e-06
4.15802e-09
5.61502e-06
4.68608e-09
5.61497e-06
5.257e-09
5.61494e-06
5.8723e-09
5.61493e-06
6.53141e-09
5.61496e-06
7.23081e-09
5.61502e-06
7.96329e-09
5.61513e-06
8.71742e-09
9.47774e-09
5.61528e-06
5.93403e-06
1.51662e-10
5.93401e-06
4.55901e-10
5.93399e-06
7.63443e-10
5.93396e-06
1.07784e-09
5.93392e-06
1.40219e-09
5.93388e-06
1.73941e-09
5.93383e-06
2.09258e-09
5.93377e-06
2.46501e-09
5.93371e-06
2.86017e-09
5.93364e-06
3.2816e-09
5.93358e-06
3.73279e-09
5.93352e-06
4.21706e-09
5.93347e-06
4.73727e-09
5.93343e-06
5.29545e-09
5.93341e-06
5.8923e-09
5.93342e-06
6.52663e-09
5.93345e-06
7.19468e-09
5.93353e-06
7.88964e-09
5.93364e-06
8.60135e-09
9.31653e-09
5.9338e-06
6.27046e-06
1.55792e-10
6.27045e-06
4.68239e-10
6.27043e-06
7.83826e-10
6.2704e-06
1.10595e-09
6.27037e-06
1.43754e-09
6.27033e-06
1.78133e-09
6.27028e-06
2.14015e-09
6.27023e-06
2.51701e-09
6.27017e-06
2.91501e-09
6.27012e-06
3.33721e-09
6.27006e-06
3.78657e-09
6.27001e-06
4.26576e-09
6.26997e-06
4.77695e-09
6.26995e-06
5.32146e-09
6.26994e-06
5.89936e-09
6.26996e-06
6.50901e-09
6.27001e-06
7.14662e-09
6.27009e-06
7.80587e-09
6.27021e-06
8.47778e-09
9.15104e-09
6.27038e-06
6.62598e-06
1.59595e-10
6.62596e-06
4.79586e-10
6.62595e-06
8.02534e-10
6.62592e-06
1.13165e-09
6.62589e-06