/*--------------------------------*- C++ -*----------------------------------*\
| =========                 |                                                 |
| \\      /  F ield         | OpenFOAM: The Open Source CFD Toolbox           |
|  \\    /   O peration     | Version:  v1912                                 |
|   \\  /    A nd           | Website:  www.openfoam.com                      |
|    \\/     M anipulation  |                                                 |
\*---------------------------------------------------------------------------*/
FoamFile
{
    version     2.0;
    format      ascii;
    class       volVectorField;
    location    "100";
    object      U;
}
// * * * * * * * * * * * * * * * * * * * * * * * * * * * * * * * * * * * * * //

dimensions      [0 1 -1 0 0 0 0];


internalField   nonuniform List<vector> 
10000
(
(1 1.98337e-08 0)
(0.999996 6.32414e-08 0)
(0.999989 1.10339e-07 0)
(0.999977 1.56883e-07 0)
(0.999961 2.04227e-07 0)
(0.999941 2.54047e-07 0)
(0.999917 3.07201e-07 0)
(0.999888 3.65194e-07 0)
(0.999853 4.29407e-07 0)
(0.999813 5.05023e-07 0)
(0.999765 5.92267e-07 0)
(0.999709 7.10333e-07 0)
(0.99964 8.40732e-07 0)
(0.999562 1.0789e-06 0)
(0.999451 1.25467e-06 0)
(0.999342 2.01532e-06 0)
(0.999098 1.68808e-06 0)
(0.999049 7.78661e-06 0)
(0.997733 -1.70882e-05 0)
(1.00192 0.00062963 0)
(1 6.04913e-08 0)
(0.999996 1.93189e-07 0)
(0.999989 3.37271e-07 0)
(0.999977 4.799e-07 0)
(0.999961 6.25191e-07 0)
(0.999941 7.78302e-07 0)
(0.999917 9.41919e-07 0)
(0.999887 1.12058e-06 0)
(0.999852 1.3185e-06 0)
(0.999812 1.55125e-06 0)
(0.999763 1.81981e-06 0)
(0.999707 2.18223e-06 0)
(0.999638 2.58344e-06 0)
(0.999559 3.31199e-06 0)
(0.999447 3.85509e-06 0)
(0.999338 6.17386e-06 0)
(0.999093 5.20124e-06 0)
(0.99904 2.36185e-05 0)
(0.997757 -4.61495e-05 0)
(1.0009 0.00132512 0)
(1 1.03379e-07 0)
(0.999996 3.30346e-07 0)
(0.999989 5.76862e-07 0)
(0.999977 8.21294e-07 0)
(0.999961 1.07057e-06 0)
(0.999941 1.33352e-06 0)
(0.999916 1.61491e-06 0)
(0.999887 1.92246e-06 0)
(0.999852 2.26354e-06 0)
(0.999811 2.66418e-06 0)
(0.999762 3.12651e-06 0)
(0.999705 3.74882e-06 0)
(0.999635 4.4393e-06 0)
(0.999555 5.68609e-06 0)
(0.999444 6.62509e-06 0)
(0.999332 1.05765e-05 0)
(0.999087 8.98534e-06 0)
(0.99903 3.97854e-05 0)
(0.997797 -6.31881e-05 0)
(1.00005 0.00135231 0)
(1 1.48847e-07 0)
(0.999996 4.75468e-07 0)
(0.999989 8.30406e-07 0)
(0.999977 1.18283e-06 0)
(0.999961 1.54264e-06 0)
(0.999941 1.92266e-06 0)
(0.999916 2.32996e-06 0)
(0.999887 2.7756e-06 0)
(0.999851 3.2702e-06 0)
(0.99981 3.85069e-06 0)
(0.999761 4.52061e-06 0)
(0.999703 5.42014e-06 0)
(0.999633 6.41996e-06 0)
(0.999552 8.21631e-06 0)
(0.99944 9.58109e-06 0)
(0.999327 1.52492e-05 0)
(0.999082 1.30789e-05 0)
(0.999017 5.62004e-05 0)
(0.997845 -7.08468e-05 0)
(0.999384 0.00121735 0)
(1 1.96968e-07 0)
(0.999996 6.28885e-07 0)
(0.999989 1.09852e-06 0)
(0.999977 1.56543e-06 0)
(0.999961 2.04262e-06 0)
(0.999941 2.54728e-06 0)
(0.999916 3.08905e-06 0)
(0.999886 3.68246e-06 0)
(0.999851 4.34158e-06 0)
(0.999809 5.11467e-06 0)
(0.999759 6.00691e-06 0)
(0.999702 7.20211e-06 0)
(0.999631 8.53265e-06 0)
(0.999549 1.09116e-05 0)
(0.999436 1.27343e-05 0)
(0.999322 2.02033e-05 0)
(0.999076 1.7522e-05 0)
(0.999004 7.27305e-05 0)
(0.997899 -7.12121e-05 0)
(0.998869 0.00115812 0)
(1 2.47869e-07 0)
(0.999996 7.91015e-07 0)
(0.999989 1.38191e-06 0)
(0.999977 1.97014e-06 0)
(0.999961 2.57193e-06 0)
(0.999941 3.20921e-06 0)
(0.999916 3.89447e-06 0)
(0.999886 4.64593e-06 0)
(0.99985 5.48134e-06 0)
(0.999808 6.46067e-06 0)
(0.999758 7.59104e-06 0)
(0.9997 9.10164e-06 0)
(0.999628 1.07859e-05 0)
(0.999546 1.37823e-05 0)
(0.999432 1.60981e-05 0)
(0.999317 2.54505e-05 0)
(0.999072 2.23608e-05 0)
(0.998989 8.92723e-05 0)
(0.997956 -6.526e-05 0)
(0.998473 0.00113717 0)
(1 3.01728e-07 0)
(0.999996 9.62351e-07 0)
(0.999989 1.6814e-06 0)
(0.999977 2.39814e-06 0)
(0.999961 3.13216e-06 0)
(0.999941 3.91047e-06 0)
(0.999916 4.74879e-06 0)
(0.999886 5.66921e-06 0)
(0.99985 6.69346e-06 0)
(0.999807 7.89365e-06 0)
(0.999757 9.27914e-06 0)
(0.999698 1.11262e-05 0)
(0.999626 1.31888e-05 0)
(0.999543 1.68392e-05 0)
(0.999428 1.96874e-05 0)
(0.999312 3.10035e-05 0)
(0.999067 2.76431e-05 0)
(0.998973 0.000105757 0)
(0.998012 -5.38134e-05 0)
(0.998175 0.00112174 0)
(1 3.58735e-07 0)
(0.999996 1.14342e-06 0)
(0.999989 1.99788e-06 0)
(0.999977 2.85068e-06 0)
(0.999961 3.72496e-06 0)
(0.999941 4.65316e-06 0)
(0.999916 5.65463e-06 0)
(0.999886 6.75558e-06 0)
(0.999849 7.98203e-06 0)
(0.999807 9.41867e-06 0)
(0.999756 1.10775e-05 0)
(0.999697 1.32836e-05 0)
(0.999624 1.57511e-05 0)
(0.99954 2.0094e-05 0)
(0.999424 2.35175e-05 0)
(0.999307 3.68747e-05 0)
(0.999063 3.34159e-05 0)
(0.998957 0.000122148 0)
(0.998067 -3.77109e-05 0)
(0.997956 0.00110722 0)
(1 4.19095e-07 0)
(0.999996 1.3348e-06 0)
(0.999989 2.33224e-06 0)
(0.999977 3.32907e-06 0)
(0.999961 4.35205e-06 0)
(0.999941 5.43946e-06 0)
(0.999916 6.61469e-06 0)
(0.999885 7.90837e-06 0)
(0.999849 9.3512e-06 0)
(0.999806 1.10409e-05 0)
(0.999755 1.29926e-05 0)
(0.999695 1.55816e-05 0)
(0.999622 1.84826e-05 0)
(0.999537 2.35583e-05 0)
(0.999421 2.76045e-05 0)
(0.999302 4.30766e-05 0)
(0.999059 3.97247e-05 0)
(0.998941 0.000138432 0)
(0.998119 -1.7713e-05 0)
(0.997801 0.00109565 0)
(1 4.8303e-07 0)
(0.999996 1.53706e-06 0)
(0.999989 2.68548e-06 0)
(0.999977 3.83468e-06 0)
(0.999961 5.01524e-06 0)
(0.999941 6.27163e-06 0)
(0.999916 7.63178e-06 0)
(0.999885 9.13101e-06 0)
(0.999849 1.08052e-05 0)
(0.999806 1.27656e-05 0)
(0.999754 1.50308e-05 0)
(0.999694 1.80283e-05 0)
(0.99962 2.13933e-05 0)
(0.999535 2.72439e-05 0)
(0.999418 3.19651e-05 0)
(0.999297 4.96216e-05 0)
(0.999056 4.66125e-05 0)
(0.998925 0.000154626 0)
(0.998166 5.52185e-06 0)
(0.997699 0.0010877 0)
(1 5.5078e-07 0)
(0.999996 1.75086e-06 0)
(0.999989 3.05859e-06 0)
(0.999977 4.36898e-06 0)
(0.999961 5.71643e-06 0)
(0.999941 7.15205e-06 0)
(0.999916 8.7088e-06 0)
(0.999885 1.04271e-05 0)
(0.999849 1.23484e-05 0)
(0.999805 1.4598e-05 0)
(0.999754 1.71989e-05 0)
(0.999693 2.06317e-05 0)
(0.999619 2.44935e-05 0)
(0.999532 3.11627e-05 0)
(0.999415 3.66166e-05 0)
(0.999293 5.65215e-05 0)
(0.999054 5.41191e-05 0)
(0.998911 0.000170763 0)
(0.998208 3.14222e-05 0)
(0.997639 0.001083 0)
(1 6.22608e-07 0)
(0.999996 1.97687e-06 0)
(0.999989 3.45268e-06 0)
(0.999977 4.93349e-06 0)
(0.999961 6.4576e-06 0)
(0.999941 8.08318e-06 0)
(0.999916 9.84877e-06 0)
(0.999885 1.18001e-05 0)
(0.999848 1.39852e-05 0)
(0.999805 1.65436e-05 0)
(0.999753 1.95035e-05 0)
(0.999692 2.34002e-05 0)
(0.999617 2.77937e-05 0)
(0.99953 3.53268e-05 0)
(0.999412 4.15765e-05 0)
(0.999289 6.37884e-05 0)
(0.999052 6.22802e-05 0)
(0.998897 0.000186895 0)
(0.998246 5.94924e-05 0)
(0.997611 0.00108104 0)
(1 6.98802e-07 0)
(0.999996 2.21583e-06 0)
(0.999989 3.86887e-06 0)
(0.999977 5.52982e-06 0)
(0.999961 7.24086e-06 0)
(0.999941 9.06762e-06 0)
(0.999916 1.10548e-05 0)
(0.999885 1.3254e-05 0)
(0.999848 1.57201e-05 0)
(0.999805 1.86077e-05 0)
(0.999753 2.19513e-05 0)
(0.999691 2.63417e-05 0)
(0.999616 3.13045e-05 0)
(0.999529 3.97479e-05 0)
(0.99941 4.6863e-05 0)
(0.999285 7.14339e-05 0)
(0.999051 7.11274e-05 0)
(0.998886 0.00020308 0)
(0.998279 8.93137e-05 0)
(0.997609 0.00108142 0)
(1 7.7968e-07 0)
(0.999996 2.46852e-06 0)
(0.999989 4.30836e-06 0)
(0.999977 6.15967e-06 0)
(0.999961 8.06842e-06 0)
(0.999941 1.01081e-05 0)
(0.999916 1.23302e-05 0)
(0.999885 1.47926e-05 0)
(0.999848 1.75577e-05 0)
(0.999804 2.0796e-05 0)
(0.999752 2.45493e-05 0)
(0.999691 2.94646e-05 0)
(0.999615 3.50363e-05 0)
(0.999527 4.44379e-05 0)
(0.999408 5.24941e-05 0)
(0.999282 7.94694e-05 0)
(0.99905 8.06881e-05 0)
(0.998876 0.000219379 0)
(0.998308 0.000120543 0)
(0.997626 0.00108372 0)
(1 8.65591e-07 0)
(0.999996 2.73579e-06 0)
(0.999989 4.77243e-06 0)
(0.999977 6.82485e-06 0)
(0.999961 8.94261e-06 0)
(0.999941 1.12075e-05 0)
(0.999916 1.36785e-05 0)
(0.999885 1.64199e-05 0)
(0.999848 1.95029e-05 0)
(0.999804 2.31141e-05 0)
(0.999752 2.73042e-05 0)
(0.99969 3.27768e-05 0)
(0.999614 3.89999e-05 0)
(0.999526 4.9408e-05 0)
(0.999407 5.84882e-05 0)
(0.99928 8.79054e-05 0)
(0.999051 9.09861e-05 0)
(0.998868 0.00023585 0)
(0.998334 0.000152913 0)
(0.997658 0.00108756 0)
(1 9.56923e-07 0)
(0.999996 3.01855e-06 0)
(0.999989 5.26239e-06 0)
(0.999977 7.52722e-06 0)
(0.999961 9.86589e-06 0)
(0.999941 1.23689e-05 0)
(0.999916 1.51033e-05 0)
(0.999885 1.81403e-05 0)
(0.999848 2.15607e-05 0)
(0.999804 2.55678e-05 0)
(0.999752 3.0223e-05 0)
(0.99969 3.62866e-05 0)
(0.999614 4.32059e-05 0)
(0.999525 5.46691e-05 0)
(0.999406 6.48634e-05 0)
(0.999278 9.67513e-05 0)
(0.999052 0.000102042 0)
(0.998862 0.000252539 0)
(0.998357 0.000186222 0)
(0.997699 0.00109253 0)
(1 1.0541e-06 0)
(0.999996 3.3178e-06 0)
(0.999989 5.77963e-06 0)
(0.999977 8.26876e-06 0)
(0.999961 1.08408e-05 0)
(0.999941 1.35955e-05 0)
(0.999916 1.66083e-05 0)
(0.999885 1.99582e-05 0)
(0.999848 2.37361e-05 0)
(0.999804 2.81629e-05 0)
(0.999752 3.33127e-05 0)
(0.99969 4.00017e-05 0)
(0.999614 4.76646e-05 0)
(0.999525 6.02315e-05 0)
(0.999406 7.16377e-05 0)
(0.999276 0.000106015 0)
(0.999054 0.000113875 0)
(0.998858 0.000269478 0)
(0.99838 0.000220332 0)
(0.997747 0.00109826 0)
(1 1.15757e-06 0)
(0.999996 3.6346e-06 0)
(0.999989 6.32562e-06 0)
(0.999977 9.05153e-06 0)
(0.999961 1.18702e-05 0)
(0.999941 1.48906e-05 0)
(0.999916 1.81977e-05 0)
(0.999885 2.18783e-05 0)
(0.999848 2.60347e-05 0)
(0.999805 3.09056e-05 0)
(0.999752 3.65805e-05 0)
(0.99969 4.39302e-05 0)
(0.999614 5.23866e-05 0)
(0.999525 6.61048e-05 0)
(0.999406 7.88287e-05 0)
(0.999276 0.000115703 0)
(0.999056 0.000126502 0)
(0.998856 0.000286676 0)
(0.998401 0.00025515 0)
(0.9978 0.00110441 0)
(1 1.26784e-06 0)
(0.999996 3.97012e-06 0)
(0.999989 6.90189e-06 0)
(0.999977 9.87767e-06 0)
(0.999961 1.29567e-05 0)
(0.999941 1.62577e-05 0)
(0.999916 1.98756e-05 0)
(0.999885 2.39056e-05 0)
(0.999849 2.84622e-05 0)
(0.999805 3.38024e-05 0)
(0.999752 4.00339e-05 0)
(0.99969 4.80801e-05 0)
(0.999614 5.73823e-05 0)
(0.999525 7.22978e-05 0)
(0.999407 8.64531e-05 0)
(0.999276 0.000125816 0)
(0.99906 0.000139941 0)
(0.998857 0.000304124 0)
(0.998424 0.000290622 0)
(0.997857 0.0011107 0)
(1 1.3854e-06 0)
(0.999996 4.32561e-06 0)
(0.999989 7.51005e-06 0)
(0.999977 1.07494e-05 0)
(0.999961 1.41035e-05 0)
(0.999941 1.77007e-05 0)
(0.999916 2.16466e-05 0)
(0.999886 2.60453e-05 0)
(0.999849 3.10245e-05 0)
(0.999805 3.68599e-05 0)
(0.999753 4.36807e-05 0)
(0.999691 5.24593e-05 0)
(0.999615 6.2662e-05 0)
(0.999525 7.88187e-05 0)
(0.999408 9.45272e-05 0)
(0.999277 0.000136355 0)
(0.999065 0.000154207 0)
(0.998859 0.00032179 0)
(0.998447 0.000326712 0)
(0.997915 0.00111687 0)
(1 1.51076e-06 0)
(0.999996 4.70237e-06 0)
(0.999989 8.15177e-06 0)
(0.999977 1.16691e-05 0)
(0.999962 1.53136e-05 0)
(0.999941 1.92233e-05 0)
(0.999916 2.35152e-05 0)
(0.999886 2.83029e-05 0)
(0.999849 3.3728e-05 0)
(0.999805 4.00852e-05 0)
(0.999753 4.75287e-05 0)
(0.999691 5.70761e-05 0)
(0.999615 6.82359e-05 0)
(0.999526 8.56748e-05 0)
(0.999409 0.000103066 0)
(0.999278 0.000147316 0)
(0.99907 0.000169314 0)
(0.998863 0.000339625 0)
(0.998472 0.000363391 0)
(0.997976 0.00112276 0)
(1 1.64438e-06 0)
(0.999996 5.10176e-06 0)
(0.999989 8.82882e-06 0)
(0.999977 1.2639e-05 0)
(0.999962 1.65902e-05 0)
(0.999941 2.08298e-05 0)
(0.999916 2.54865e-05 0)
(0.999886 3.06842e-05 0)
(0.999849 3.65792e-05 0)
(0.999806 4.34857e-05 0)
(0.999754 5.15865e-05 0)
(0.999692 6.19391e-05 0)
(0.999616 7.41146e-05 0)
(0.999527 9.28729e-05 0)
(0.999411 0.000112084 0)
(0.99928 0.000158691 0)
(0.999077 0.000185275 0)
(0.99887 0.000357571 0)
(0.998499 0.000400614 0)
(0.998039 0.00112821 0)
(1 1.78668e-06 0)
(0.999997 5.52515e-06 0)
(0.999989 9.54307e-06 0)
(0.999977 1.36616e-05 0)
(0.999962 1.79366e-05 0)
(0.999942 2.25243e-05 0)
(0.999917 2.75656e-05 0)
(0.999886 3.31952e-05 0)
(0.99985 3.95854e-05 0)
(0.999806 4.70692e-05 0)
(0.999754 5.58627e-05 0)
(0.999693 6.70571e-05 0)
(0.999617 8.03083e-05 0)
(0.999529 0.00010042 0)
(0.999414 0.000121591 0)
(0.999283 0.000170473 0)
(0.999085 0.000202091 0)
(0.998878 0.000375568 0)
(0.998528 0.000438304 0)
(0.998103 0.00113314 0)
(1 1.93801e-06 0)
(0.999997 5.97386e-06 0)
(0.999989 1.02964e-05 0)
(0.999978 1.47395e-05 0)
(0.999962 1.93563e-05 0)
(0.999942 2.43113e-05 0)
(0.999917 2.97579e-05 0)
(0.999886 3.58425e-05 0)
(0.99985 4.27538e-05 0)
(0.999807 5.08442e-05 0)
(0.999755 6.03668e-05 0)
(0.999693 7.24398e-05 0)
(0.999619 8.68275e-05 0)
(0.99953 0.000108324 0)
(0.999417 0.000131599 0)
(0.999286 0.000182653 0)
(0.999093 0.000219752 0)
(0.998888 0.000393572 0)
(0.998558 0.000476332 0)
(0.998169 0.00113752 0)
(1 2.09866e-06 0)
(0.999997 6.44918e-06 0)
(0.999989 1.1091e-05 0)
(0.999978 1.58753e-05 0)
(0.999962 2.08527e-05 0)
(0.999942 2.61952e-05 0)
(0.999917 3.20687e-05 0)
(0.999887 3.86323e-05 0)
(0.99985 4.60919e-05 0)
(0.999807 5.48193e-05 0)
(0.999756 6.51082e-05 0)
(0.999694 7.80977e-05 0)
(0.99962 9.36825e-05 0)
(0.999532 0.000116595 0)
(0.99942 0.000142111 0)
(0.99929 0.000195234 0)
(0.999102 0.000238221 0)
(0.998899 0.000411573 0)
(0.99859 0.000514485 0)
(0.998237 0.00114137 0)
(1 2.26891e-06 0)
(0.999997 6.95231e-06 0)
(0.999989 1.19289e-05 0)
(0.999978 1.70717e-05 0)
(0.999962 2.24295e-05 0)
(0.999942 2.81804e-05 0)
(0.999917 3.45035e-05 0)
(0.999887 4.15713e-05 0)
(0.999851 4.96074e-05 0)
(0.999808 5.90032e-05 0)
(0.999756 7.00968e-05 0)
(0.999695 8.40416e-05 0)
(0.999622 0.000100883 0)
(0.999534 0.000125243 0)
(0.999424 0.000153127 0)
(0.999295 0.000208222 0)
(0.999113 0.000257434 0)
(0.998913 0.000429608 0)
(0.998624 0.000552451 0)
(0.998305 0.00114479 0)
(1 2.44898e-06 0)
(0.999997 7.48446e-06 0)
(0.999989 1.28126e-05 0)
(0.999978 1.8332e-05 0)
(0.999962 2.40905e-05 0)
(0.999942 3.02719e-05 0)
(0.999917 3.70679e-05 0)
(0.999887 4.46658e-05 0)
(0.999851 5.33076e-05 0)
(0.999808 6.34045e-05 0)
(0.999757 7.53416e-05 0)
(0.999697 9.02823e-05 0)
(0.999624 0.000108439 0)
(0.999537 0.000134281 0)
(0.999428 0.000164642 0)
(0.9993 0.000221641 0)
(0.999124 0.000277291 0)
(0.998928 0.000447765 0)
(0.998659 0.000589794 0)
(0.998374 0.0011479 0)
(1 2.63912e-06 0)
(0.999997 8.04673e-06 0)
(0.999989 1.37445e-05 0)
(0.999978 1.96594e-05 0)
(0.999962 2.584e-05 0)
(0.999942 3.24747e-05 0)
(0.999918 3.97682e-05 0)
(0.999888 4.7923e-05 0)
(0.999852 5.72003e-05 0)
(0.999809 6.80319e-05 0)
(0.999758 8.08516e-05 0)
(0.999698 9.68303e-05 0)
(0.999626 0.000116356 0)
(0.999539 0.000143723 0)
(0.999432 0.000176645 0)
(0.999305 0.000235518 0)
(0.999135 0.000297668 0)
(0.998944 0.000466163 0)
(0.998695 0.000626016 0)
(0.998442 0.00115081 0)
(1 2.83959e-06 0)
(0.999997 8.64027e-06 0)
(0.999989 1.47271e-05 0)
(0.999978 2.10575e-05 0)
(0.999962 2.76824e-05 0)
(0.999943 3.47945e-05 0)
(0.999918 4.26109e-05 0)
(0.999888 5.13505e-05 0)
(0.999852 6.12943e-05 0)
(0.99981 7.28952e-05 0)
(0.999759 8.66368e-05 0)
(0.999699 0.000103697 0)
(0.999628 0.000124643 0)
(0.999542 0.000153582 0)
(0.999437 0.000189122 0)
(0.999312 0.000249883 0)
(0.999148 0.000318432 0)
(0.998962 0.00048491 0)
(0.998731 0.000660626 0)
(0.998509 0.00115357 0)
(1 3.05066e-06 0)
(0.999997 9.26617e-06 0)
(0.999989 1.57629e-05 0)
(0.999978 2.25298e-05 0)
(0.999963 2.96223e-05 0)
(0.999943 3.72368e-05 0)
(0.999918 4.56028e-05 0)
(0.999889 5.49564e-05 0)
(0.999853 6.55986e-05 0)
(0.999811 7.80046e-05 0)
(0.999761 9.27081e-05 0)
(0.999701 0.000110895 0)
(0.99963 0.000133308 0)
(0.999546 0.000163872 0)
(0.999442 0.000202063 0)
(0.999319 0.000264758 0)
(0.999161 0.000339468 0)
(0.998982 0.000504071 0)
(0.998768 0.000693259 0)
(0.998573 0.00115618 0)
(1 3.27262e-06 0)
(0.999997 9.92561e-06 0)
(0.99999 1.68546e-05 0)
(0.999978 2.40801e-05 0)
(0.999963 3.16643e-05 0)
(0.999943 3.98074e-05 0)
(0.999919 4.87509e-05 0)
(0.999889 5.87485e-05 0)
(0.999854 7.01226e-05 0)
(0.999812 8.33706e-05 0)
(0.999762 9.90764e-05 0)
(0.999703 0.000118435 0)
(0.999633 0.000142363 0)
(0.999549 0.000174605 0)
(0.999447 0.000215459 0)
(0.999327 0.000280155 0)
(0.999174 0.000360679 0)
(0.999002 0.000523649 0)
(0.998806 0.000723686 0)
(0.998636 0.0011586 0)
(1 3.50581e-06 0)
(0.999997 1.06197e-05 0)
(0.99999 1.80045e-05 0)
(0.999978 2.57118e-05 0)
(0.999963 3.38129e-05 0)
(0.999943 4.25116e-05 0)
(0.999919 5.20614e-05 0)
(0.99989 6.27344e-05 0)
(0.999855 7.48744e-05 0)
(0.999813 8.90024e-05 0)
(0.999763 0.000105751 0)
(0.999705 0.000126329 0)
(0.999635 0.000151812 0)
(0.999553 0.000185789 0)
(0.999453 0.0002293 0)
(0.999335 0.000296067 0)
(0.999189 0.000381984 0)
(0.999024 0.000543581 0)
(0.998844 0.000751811 0)
(0.998698 0.00116077 0)
(1 3.75061e-06 0)
(0.999997 1.13497e-05 0)
(0.99999 1.92152e-05 0)
(0.999978 2.74287e-05 0)
(0.999963 3.60728e-05 0)
(0.999944 4.53552e-05 0)
(0.99992 5.55412e-05 0)
(0.99989 6.69215e-05 0)
(0.999855 7.98623e-05 0)
(0.999814 9.49085e-05 0)
(0.999765 0.000112741 0)
(0.999707 0.000134583 0)
(0.999638 0.00016166 0)
(0.999557 0.000197423 0)
(0.99946 0.000243569 0)
(0.999344 0.000312466 0)
(0.999204 0.000403303 0)
(0.999048 0.000563754 0)
(0.998883 0.000777608 0)
(0.998758 0.00116259 0)
(1 4.00743e-06 0)
(0.999997 1.21169e-05 0)
(0.99999 2.04891e-05 0)
(0.999978 2.92341e-05 0)
(0.999963 3.84481e-05 0)
(0.999944 4.83432e-05 0)
(0.99992 5.9196e-05 0)
(0.999891 7.13166e-05 0)
(0.999856 8.50935e-05 0)
(0.999815 0.000101096 0)
(0.999767 0.000120052 0)
(0.999709 0.000143202 0)
(0.999642 0.000171909 0)
(0.999562 0.000209503 0)
(0.999467 0.000258247 0)
(0.999355 0.000329313 0)
(0.999221 0.000424564 0)
(0.999073 0.000584022 0)
(0.998923 0.000801125 0)
(0.998816 0.00116394 0)
(1 4.27668e-06 0)
(0.999997 1.29224e-05 0)
(0.99999 2.18285e-05 0)
(0.999979 3.11317e-05 0)
(0.999964 4.09434e-05 0)
(0.999944 5.14807e-05 0)
(0.999921 6.30318e-05 0)
(0.999892 7.59259e-05 0)
(0.999857 9.05747e-05 0)
(0.999817 0.000107572 0)
(0.999769 0.000127691 0)
(0.999712 0.000152191 0)
(0.999646 0.000182557 0)
(0.999567 0.000222017 0)
(0.999474 0.000273306 0)
(0.999366 0.000346552 0)
(0.999238 0.000445691 0)
(0.999099 0.00060422 0)
(0.998964 0.000822436 0)
(0.998874 0.00116471 0)
(1 4.55882e-06 0)
(0.999997 1.37677e-05 0)
(0.99999 2.32356e-05 0)
(0.999979 3.31248e-05 0)
(0.999964 4.35626e-05 0)
(0.999945 5.47726e-05 0)
(0.999921 6.70543e-05 0)
(0.999893 8.07557e-05 0)
(0.999858 9.63121e-05 0)
(0.999818 0.000114342 0)
(0.999771 0.000135661 0)
(0.999715 0.00016155 0)
(0.99965 0.000193599 0)
(0.999573 0.000234952 0)
(0.999483 0.000288718 0)
(0.999378 0.000364119 0)
(0.999257 0.000466615 0)
(0.999127 0.000624184 0)
(0.999005 0.000841646 0)
(0.99893 0.00116477 0)
(1 4.85429e-06 0)
(0.999997 1.46539e-05 0)
(0.99999 2.47128e-05 0)
(0.999979 3.52164e-05 0)
(0.999964 4.63098e-05 0)
(0.999945 5.82235e-05 0)
(0.999922 7.12681e-05 0)
(0.999893 8.58108e-05 0)
(0.99986 0.00010231 0)
(0.99982 0.00012141 0)
(0.999773 0.000143963 0)
(0.999718 0.000171275 0)
(0.999654 0.000205025 0)
(0.999579 0.000248284 0)
(0.999492 0.000304444 0)
(0.999391 0.000381939 0)
(0.999277 0.000487259 0)
(0.999156 0.000643745 0)
(0.999046 0.000858857 0)
(0.998985 0.00116405 0)
(1 5.16353e-06 0)
(0.999997 1.55822e-05 0)
(0.99999 2.62619e-05 0)
(0.999979 3.74096e-05 0)
(0.999964 4.91886e-05 0)
(0.999946 6.18375e-05 0)
(0.999922 7.5678e-05 0)
(0.999894 9.1096e-05 0)
(0.999861 0.000108573 0)
(0.999822 0.000128777 0)
(0.999776 0.000152598 0)
(0.999722 0.000181363 0)
(0.999659 0.000216824 0)
(0.999587 0.000261987 0)
(0.999502 0.000320442 0)
(0.999405 0.000399933 0)
(0.999298 0.000507548 0)
(0.999186 0.000662749 0)
(0.999088 0.000874183 0)
(0.99904 0.00116248 0)
(1 5.48694e-06 0)
(0.999997 1.65538e-05 0)
(0.99999 2.78848e-05 0)
(0.999979 3.97067e-05 0)
(0.999965 5.22018e-05 0)
(0.999946 6.56176e-05 0)
(0.999923 8.02868e-05 0)
(0.999896 9.66136e-05 0)
(0.999863 0.000115102 0)
(0.999824 0.000136444 0)
(0.999779 0.000161561 0)
(0.999726 0.000191802 0)
(0.999665 0.000228975 0)
(0.999594 0.000276024 0)
(0.999513 0.00033666 0)
(0.999421 0.000418008 0)
(0.999319 0.000527401 0)
(0.999217 0.000681045 0)
(0.999131 0.000887719 0)
(0.999093 0.00116001 0)
(1 5.82488e-06 0)
(0.999997 1.75696e-05 0)
(0.99999 2.95829e-05 0)
(0.99998 4.21101e-05 0)
(0.999965 5.53522e-05 0)
(0.999947 6.95668e-05 0)
(0.999924 8.50977e-05 0)
(0.999897 0.000102366 0)
(0.999865 0.000121899 0)
(0.999826 0.000144408 0)
(0.999782 0.000170848 0)
(0.999731 0.00020258 0)
(0.999671 0.000241457 0)
(0.999603 0.000290359 0)
(0.999524 0.000353042 0)
(0.999437 0.000436074 0)
(0.999343 0.000546739 0)
(0.999249 0.000698506 0)
(0.999174 0.000899562 0)
(0.999145 0.00115663 0)
(1 6.17766e-06 0)
(0.999997 1.86304e-05 0)
(0.99999 3.13573e-05 0)
(0.99998 4.46212e-05 0)
(0.999966 5.86415e-05 0)
(0.999947 7.36865e-05 0)
(0.999925 9.01109e-05 0)
(0.999898 0.000108353 0)
(0.999866 0.00012896 0)
(0.999829 0.000152665 0)
(0.999786 0.000180445 0)
(0.999735 0.000213678 0)
(0.999678 0.000254238 0)
(0.999612 0.000304939 0)
(0.999537 0.00036952 0)
(0.999454 0.000454029 0)
(0.999367 0.000565474 0)
(0.999282 0.000715012 0)
(0.999217 0.00090979 0)
(0.999197 0.00115234 0)
(1 6.54549e-06 0)
(0.999997 1.97368e-05 0)
(0.999991 3.3209e-05 0)
(0.99998 4.72412e-05 0)
(0.999966 6.20709e-05 0)
(0.999948 7.79777e-05 0)
(0.999926 9.5327e-05 0)
(0.9999 0.000114573 0)
(0.999869 0.000136282 0)
(0.999832 0.000161205 0)
(0.99979 0.00019034 0)
(0.999741 0.000225072 0)
(0.999685 0.000267284 0)
(0.999621 0.000319713 0)
(0.99955 0.000386026 0)
(0.999473 0.000471773 0)
(0.999392 0.000583526 0)
(0.999316 0.000730469 0)
(0.99926 0.00091848 0)
(0.999247 0.00114716 0)
(1 6.92851e-06 0)
(0.999997 2.08889e-05 0)
(0.999991 3.51381e-05 0)
(0.99998 4.99701e-05 0)
(0.999967 6.56401e-05 0)
(0.999949 8.24391e-05 0)
(0.999927 0.000100743 0)
(0.999902 0.000121021 0)
(0.999871 0.000143856 0)
(0.999835 0.000170016 0)
(0.999794 0.000200513 0)
(0.999747 0.000236732 0)
(0.999693 0.00028055 0)
(0.999632 0.000334617 0)
(0.999565 0.000402477 0)
(0.999492 0.000489202 0)
(0.999418 0.000600809 0)
(0.99935 0.00074479 0)
(0.999303 0.000925689 0)
(0.999296 0.00114111 0)
(1 7.32672e-06 0)
(0.999997 2.20869e-05 0)
(0.999991 3.71443e-05 0)
(0.999981 5.28075e-05 0)
(0.999967 6.9348e-05 0)
(0.99995 8.70687e-05 0)
(0.999929 0.000106356 0)
(0.999903 0.00012769 0)
(0.999874 0.000151673 0)
(0.999839 0.000179082 0)
(0.999799 0.000210939 0)
(0.999753 0.000248625 0)
(0.999701 0.000293989 0)
(0.999643 0.000349585 0)
(0.99958 0.000418792 0)
(0.999512 0.000506213 0)
(0.999445 0.000617241 0)
(0.999385 0.000757912 0)
(0.999345 0.000931478 0)
(0.999344 0.00113424 0)
(1 7.73999e-06 0)
(0.999997 2.33303e-05 0)
(0.999991 3.92267e-05 0)
(0.999981 5.57516e-05 0)
(0.999968 7.31919e-05 0)
(0.999951 9.1862e-05 0)
(0.99993 0.000112158 0)
(0.999905 0.000134572 0)
(0.999876 0.000159717 0)
(0.999843 0.000188381 0)
(0.999804 0.00022159 0)
(0.99976 0.000260706 0)
(0.99971 0.000307544 0)
(0.999655 0.000364541 0)
(0.999596 0.00043488 0)
(0.999534 0.000522703 0)
(0.999472 0.000632745 0)
(0.99942 0.000769781 0)
(0.999388 0.000935892 0)
(0.999391 0.00112659 0)
(1 8.16805e-06 0)
(0.999997 2.4618e-05 0)
(0.999991 4.13835e-05 0)
(0.999982 5.87996e-05 0)
(0.999968 7.71676e-05 0)
(0.999952 9.6813e-05 0)
(0.999932 0.00011814 0)
(0.999908 0.000141652 0)
(0.999879 0.000167971 0)
(0.999847 0.000197889 0)
(0.999809 0.000232428 0)
(0.999767 0.00027293 0)
(0.99972 0.000321152 0)
(0.999668 0.000379405 0)
(0.999613 0.000450649 0)
(0.999556 0.000538572 0)
(0.999501 0.000647246 0)
(0.999455 0.00078036 0)
(0.99943 0.000938983 0)
(0.999437 0.00111819 0)
(1 8.61042e-06 0)
(0.999997 2.59487e-05 0)
(0.999991 4.36119e-05 0)
(0.999982 6.19472e-05 0)
(0.999969 8.12689e-05 0)
(0.999953 0.000101913 0)
(0.999934 0.000124291 0)
(0.99991 0.000148914 0)
(0.999883 0.000176411 0)
(0.999851 0.000207574 0)
(0.999816 0.000243414 0)
(0.999775 0.00028524 0)
(0.999731 0.000334743 0)
(0.999682 0.000394092 0)
(0.999631 0.000466004 0)
(0.999579 0.000553723 0)
(0.99953 0.000660677 0)
(0.999491 0.000789623 0)
(0.999471 0.000940789 0)
(0.999482 0.00110909 0)
(1 9.06641e-06 0)
(0.999997 2.73202e-05 0)
(0.999992 4.59082e-05 0)
(0.999982 6.51885e-05 0)
(0.99997 8.54874e-05 0)
(0.999954 0.00010715 0)
(0.999935 0.000130594 0)
(0.999913 0.000156336 0)
(0.999886 0.000185008 0)
(0.999856 0.000217398 0)
(0.999822 0.000254498 0)
(0.999784 0.000297576 0)
(0.999742 0.000348242 0)
(0.999696 0.000408513 0)
(0.999649 0.000480847 0)
(0.999602 0.000568063 0)
(0.999559 0.000672977 0)
(0.999527 0.000797555 0)
(0.999512 0.000941358 0)
(0.999526 0.00109932 0)
(1 9.53509e-06 0)
(0.999998 2.87297e-05 0)
(0.999992 4.82673e-05 0)
(0.999983 6.85161e-05 0)
(0.999971 8.98127e-05 0)
(0.999956 0.00011251 0)
(0.999937 0.000137031 0)
(0.999916 0.000163894 0)
(0.99989 0.000193731 0)
(0.999862 0.000227319 0)
(0.999829 0.000265627 0)
(0.999793 0.000309871 0)
(0.999753 0.000361568 0)
(0.999712 0.000422574 0)
(0.999668 0.000495085 0)
(0.999626 0.000581506 0)
(0.999589 0.000684094 0)
(0.999562 0.000804149 0)
(0.999553 0.000940727 0)
(0.999569 0.00108893 0)
(1 1.00153e-05 0)
(0.999998 3.01735e-05 0)
(0.999992 5.06827e-05 0)
(0.999984 7.19202e-05 0)
(0.999972 9.42313e-05 0)
(0.999957 0.000117975 0)
(0.99994 0.000143577 0)
(0.999919 0.000171557 0)
(0.999895 0.00020254 0)
(0.999867 0.000237289 0)
(0.999836 0.00027674 0)
(0.999802 0.000322051 0)
(0.999766 0.000374635 0)
(0.999727 0.000436182 0)
(0.999688 0.000508621 0)
(0.999651 0.000593972 0)
(0.999619 0.000693984 0)
(0.999597 0.000809408 0)
(0.999592 0.000938941 0)
(0.99961 0.00107794 0)
(1 1.05054e-05 0)
(0.999998 3.16469e-05 0)
(0.999992 5.31465e-05 0)
(0.999984 7.53891e-05 0)
(0.999973 9.8727e-05 0)
(0.999959 0.000123523 0)
(0.999942 0.000150206 0)
(0.999922 0.00017929 0)
(0.999899 0.000211391 0)
(0.999873 0.000247252 0)
(0.999844 0.000287771 0)
(0.999813 0.000334038 0)
(0.999779 0.000387356 0)
(0.999744 0.000449241 0)
(0.999709 0.000521365 0)
(0.999676 0.000605388 0)
(0.999649 0.000702611 0)
(0.999632 0.000813341 0)
(0.999631 0.000936038 0)
(0.99965 0.00106637 0)
(1 1.10036e-05 0)
(0.999998 3.31444e-05 0)
(0.999993 5.56491e-05 0)
(0.999985 7.89088e-05 0)
(0.999974 0.000103281 0)
(0.999961 0.000129131 0)
(0.999945 0.000156885 0)
(0.999926 0.000187052 0)
(0.999904 0.000220235 0)
(0.99988 0.000257149 0)
(0.999853 0.000298648 0)
(0.999823 0.000345748 0)
(0.999792 0.000399638 0)
(0.99976 0.000461658 0)
(0.999729 0.000533232 0)
(0.999701 0.000615691 0)
(0.999679 0.000709949 0)
(0.999666 0.000815964 0)
(0.999668 0.000932062 0)
(0.999689 0.00105426 0)
(1 1.15078e-05 0)
(0.999998 3.46593e-05 0)
(0.999993 5.8179e-05 0)
(0.999985 8.24624e-05 0)
(0.999975 0.00010787 0)
(0.999963 0.000134768 0)
(0.999947 0.000163577 0)
(0.999929 0.000194798 0)
(0.999909 0.000229015 0)
(0.999886 0.000266913 0)
(0.999861 0.000309294 0)
(0.999834 0.000357097 0)
(0.999806 0.00041139 0)
(0.999778 0.000473342 0)
(0.999751 0.000544142 0)
(0.999727 0.000624824 0)
(0.999709 0.000715978 0)
(0.9997 0.000817296 0)
(0.999705 0.00092705 0)
(0.999727 0.00104163 0)
(1 1.20153e-05 0)
(0.999998 3.61838e-05 0)
(0.999993 6.0723e-05 0)
(0.999986 8.60309e-05 0)
(0.999977 0.000112469 0)
(0.999965 0.000140401 0)
(0.99995 0.000170242 0)
(0.999934 0.000202478 0)
(0.999914 0.000237672 0)
(0.999893 0.000276474 0)
(0.99987 0.00031963 0)
(0.999846 0.000367996 0)
(0.999821 0.000422519 0)
(0.999795 0.000484204 0)
(0.999772 0.000554019 0)
(0.999752 0.000632741 0)
(0.999738 0.000720689 0)
(0.999733 0.000817363 0)
(0.99974 0.000921042 0)
(0.999763 0.00102849 0)
(1 1.25231e-05 0)
(0.999998 3.77088e-05 0)
(0.999994 6.32657e-05 0)
(0.999987 8.9592e-05 0)
(0.999978 0.000117048 0)
(0.999967 0.000145993 0)
(0.999953 0.000176832 0)
(0.999938 0.000210036 0)
(0.99992 0.000246141 0)
(0.999901 0.000285756 0)
(0.99988 0.000329571 0)
(0.999858 0.000378354 0)
(0.999835 0.000432936 0)
(0.999813 0.000494161 0)
(0.999793 0.000562801 0)
(0.999777 0.000639405 0)
(0.999767 0.00072408 0)
(0.999765 0.000816191 0)
(0.999774 0.000914076 0)
(0.999797 0.00101485 0)
(1 1.30279e-05 0)
(0.999998 3.92242e-05 0)
(0.999994 6.579e-05 0)
(0.999988 9.31214e-05 0)
(0.999979 0.000121575 0)
(0.999969 0.000151503 0)
(0.999956 0.000183299 0)
(0.999942 0.000217413 0)
(0.999926 0.000254352 0)
(0.999908 0.000294683 0)
(0.999889 0.000339033 0)
(0.99987 0.000388085 0)
(0.99985 0.000442554 0)
(0.999831 0.000503137 0)
(0.999815 0.000570429 0)
(0.999802 0.000644789 0)
(0.999795 0.000726155 0)
(0.999796 0.000813813 0)
(0.999807 0.000906189 0)
(0.99983 0.00100074 0)
(1 1.35259e-05 0)
(0.999998 4.07186e-05 0)
(0.999995 6.82766e-05 0)
(0.999989 9.65915e-05 0)
(0.999981 0.000126014 0)
(0.999971 0.000156886 0)
(0.99996 0.000189587 0)
(0.999947 0.000224545 0)
(0.999932 0.000262234 0)
(0.999916 0.000303174 0)
(0.999899 0.000347931 0)
(0.999882 0.000397102 0)
(0.999865 0.000451292 0)
(0.999849 0.000511063 0)
(0.999836 0.000576856 0)
(0.999826 0.000648872 0)
(0.999822 0.000726924 0)
(0.999826 0.000810259 0)
(0.999839 0.000897414 0)
(0.999862 0.000986165 0)
(1 1.4013e-05 0)
(0.999998 4.21796e-05 0)
(0.999995 7.07047e-05 0)
(0.99999 9.99729e-05 0)
(0.999982 0.000130326 0)
(0.999974 0.000162095 0)
(0.999963 0.000195641 0)
(0.999951 0.000231367 0)
(0.999938 0.000269712 0)
(0.999924 0.000311149 0)
(0.999909 0.000356181 0)
(0.999895 0.000405321 0)
(0.99988 0.000459074 0)
(0.999867 0.000517879 0)
(0.999857 0.000582044 0)
(0.99985 0.000651646 0)
(0.999849 0.000726407 0)
(0.999854 0.000805566 0)
(0.999868 0.000887786 0)
(0.999892 0.000971133 0)
(1 1.44846e-05 0)
(0.999999 4.35936e-05 0)
(0.999995 7.30516e-05 0)
(0.999991 0.000103234 0)
(0.999984 0.000134471 0)
(0.999976 0.000167079 0)
(0.999967 0.0002014 0)
(0.999956 0.00023781 0)
(0.999945 0.000276711 0)
(0.999932 0.000318528 0)
(0.99992 0.000363701 0)
(0.999907 0.000412666 0)
(0.999895 0.000465832 0)
(0.999885 0.000523533 0)
(0.999877 0.000585965 0)
(0.999873 0.000653107 0)
(0.999874 0.000724622 0)
(0.999882 0.000799768 0)
(0.999897 0.000877334 0)
(0.99992 0.000955653 0)
(1 1.4936e-05 0)
(0.999999 4.49463e-05 0)
(0.999996 7.52936e-05 0)
(0.999992 0.00010634 0)
(0.999986 0.000138405 0)
(0.999979 0.000171786 0)
(0.99997 0.000206805 0)
(0.999961 0.000243806 0)
(0.999951 0.000283157 0)
(0.99994 0.000325234 0)
(0.99993 0.000370415 0)
(0.999919 0.000419065 0)
(0.99991 0.000471508 0)