/*--------------------------------*- C++ -*----------------------------------*\
| =========                 |                                                 |
| \\      /  F ield         | OpenFOAM: The Open Source CFD Toolbox           |
|  \\    /   O peration     | Version:  v1912                                 |
|   \\  /    A nd           | Website:  www.openfoam.com                      |
|    \\/     M anipulation  |                                                 |
\*---------------------------------------------------------------------------*/
FoamFile
{
    version     2.0;
    format      ascii;
    class       volScalarField;
    location    "181";
    object      epsilon;
}
// * * * * * * * * * * * * * * * * * * * * * * * * * * * * * * * * * * * * * //

dimensions      [0 2 -3 0 0 0 0];


internalField   nonuniform List<scalar> 
60000
(
0.413057
0.231893
0.143706
0.0956239
0.0671238
0.0491192
0.0371567
0.028878
0.0229536
0.0185938
0.0153083
0.012781
0.0108022
0.00922835
0.00795929
0.00692315
0.00606803
0.00535498
0.00475531
0.00424653
0.00381195
0.00343783
0.0031141
0.00283194
0.00258508
0.00236762
0.00217557
0.00200481
0.00185277
0.00171649
0.00159428
0.00148395
0.0013844
0.00129396
0.00121189
0.00113692
0.00106855
0.00100578
0.000948286
0.000895255
0.000846492
0.000801332
0.000759653
0.000720914
0.000685039
0.000651589
0.00062051
0.000591452
0.00056437
0.000538989
0.000515261
0.000492978
0.000472087
0.000452433
0.000433956
0.000416546
0.000400137
0.000384653
0.000370027
0.000356205
0.000343124
0.000330746
0.000319011
0.000307893
0.000297341
0.000287326
0.000277821
0.000268779
0.000260209
0.000252027
0.000244299
0.000236888
0.000229924
0.000223212
0.000216949
0.00021088
0.000205271
0.000199805
0.00019482
0.000189933
0.000185561
0.000181248
0.000177503
0.000173783
0.000170708
0.000167637
0.000165318
0.00016301
0.000161599
0.000160254
0.000160021
0.000160479
0.000161321
0.000164011
0.000166937
0.00017338
0.000179978
0.000194604
0.000200559
0.000273877
0.413147
0.231988
0.143773
0.0956717
0.0671599
0.0491465
0.0371772
0.0288936
0.0229656
0.018603
0.0153153
0.0127864
0.0108063
0.00923146
0.00796159
0.00692488
0.00606926
0.00535588
0.00475591
0.00424695
0.00381218
0.00343798
0.00311414
0.00283196
0.00258504
0.00236759
0.00217551
0.00200477
0.00185274
0.00171649
0.0015943
0.00148401
0.00138448
0.00129408
0.00121205
0.00113711
0.00106878
0.00100604
0.000948582
0.000895586
0.000846854
0.000801726
0.000760075
0.000721366
0.000685515
0.000652091
0.000621033
0.000591999
0.000564934
0.000539573
0.000515859
0.000493594
0.000472714
0.000453075
0.000434607
0.000417208
0.000400806
0.000385331
0.000370709
0.000356895
0.000343816
0.000331442
0.00031971
0.000308592
0.000298043
0.000288025
0.000278525
0.000269474
0.000260911
0.000252715
0.000244996
0.000237565
0.000230612
0.000223876
0.000217623
0.000211527
0.000205924
0.000200431
0.000195443
0.00019053
0.000186144
0.000181804
0.000178038
0.000174283
0.00017119
0.000168072
0.000165749
0.000163391
0.000162013
0.000160673
0.000160639
0.000161232
0.000162385
0.000166718
0.000170628
0.000182055
0.000193654
0.000218998
0.000254788
0.000367536
0.413235
0.232074
0.143828
0.0957014
0.0671721
0.0491487
0.0371737
0.028887
0.0229572
0.018594
0.0153061
0.0127774
0.0107976
0.00922329
0.00795389
0.00691777
0.00606262
0.00534982
0.00475028
0.00424185
0.00380748
0.00343375
0.00311027
0.0028285
0.0025819
0.00236481
0.00217302
0.00200261
0.00185082
0.00171485
0.00159288
0.00148284
0.00138352
0.00129332
0.00121147
0.00113672
0.00106855
0.00100597
0.000948651
0.000895795
0.000847185
0.000802179
0.000760634
0.00072203
0.000686271
0.000652939
0.000621959
0.000593003
0.000566003
0.000540709
0.00051705
0.000494841
0.000474005
0.000454412
0.000435979
0.000418618
0.000402242
0.000386798
0.000372194
0.000358403
0.000345337
0.000332979
0.000321256
0.000310146
0.000299605
0.000289585
0.000280096
0.000271032
0.000262484
0.000254265
0.000246568
0.000239104
0.000232177
0.000225404
0.000219177
0.000213051
0.000207464
0.000201963
0.00019697
0.000192093
0.000187677
0.00018344
0.00017965
0.00017609
0.000173045
0.000170288
0.000168233
0.000166582
0.000166153
0.000166619
0.000168676
0.000173653
0.000180381
0.000195399
0.000212609
0.000247985
0.000290476
0.000359269
0.000468484
0.000669039
0.413323
0.232153
0.14387
0.0957137
0.0671687
0.0491368
0.0371577
0.0288694
0.0229394
0.0185767
0.0152896
0.012762
0.0107833
0.00921013
0.00794176
0.00690668
0.00605245
0.00534058
0.00474185
0.00423424
0.00380056
0.00342756
0.00310467
0.00282354
0.00257746
0.00236093
0.00216958
0.00199966
0.00184827
0.00171273
0.00159111
0.00148144
0.00138242
0.00129255
0.00121097
0.0011365
0.00106856
0.00100623
0.000949115
0.00089647
0.00084804
0.000803215
0.000761824
0.000723376
0.000687748
0.000654549
0.000623678
0.000594835
0.000567927
0.000542727
0.000519143
0.000497011
0.000476235
0.000456705
0.000438318
0.000421008
0.000404666
0.000389261
0.000374681
0.000360919
0.000347868
0.000335529
0.000323816
0.000312713
0.000302181
0.000292154
0.000282677
0.00027359
0.000265063
0.000256803
0.000249136
0.000241621
0.000234732
0.000227907
0.000221723
0.000215566
0.000210043
0.000204608
0.000199726
0.000195127
0.000190918
0.000187401
0.000184085
0.000181991
0.000180391
0.000180621
0.000182221
0.0001872
0.000193509
0.000208762
0.000223721
0.000257474
0.00028708
0.000351258
0.000403731
0.000510803
0.000599811
0.000754741
0.000925248
0.00122763
0.413411
0.232222
0.143894
0.095707
0.0671454
0.0491058
0.0371242
0.028836
0.0229075
0.0185468
0.015262
0.0127367
0.0107602
0.00918903
0.00792259
0.00688931
0.00603671
0.00532638
0.00472902
0.00422272
0.00379021
0.00341833
0.00309643
0.00281627
0.00257103
0.00235534
0.00216471
0.00199551
0.00184474
0.00170983
0.00158875
0.00147963
0.00138107
0.00129167
0.0012105
0.00113644
0.00106886
0.00100687
0.000950065
0.000897722
0.000849552
0.000804987
0.000763816
0.000725591
0.000690146
0.000657136
0.000626417
0.000597735
0.000570948
0.000545883
0.000522393
0.000500374
0.000479668
0.000460232
0.000441893
0.000424659
0.000408346
0.000393002
0.000378434
0.000364718
0.000351667
0.000339361
0.000327639
0.000316555
0.000306012
0.000295991
0.000286507
0.000277416
0.000268899
0.000260631
0.000253035
0.00024558
0.000238909
0.000232307
0.000226621
0.000221048
0.000216536
0.000212396
0.000209566
0.000207739
0.00020778
0.000210312
0.000213942
0.000224905
0.000235775
0.000259399
0.00028224
0.000324179
0.000364097
0.000430428
0.000491084
0.000586656
0.000668844
0.000799008
0.000907586
0.00107915
0.00121839
0.0014367
0.00164441
0.00201435
0.413497
0.232282
0.1439
0.0956786
0.0671008
0.0490551
0.0370729
0.0287868
0.0228617
0.0185047
0.0152237
0.0127019
0.0107288
0.00916072
0.00789712
0.00686639
0.00601616
0.00530795
0.00471256
0.00420804
0.00377716
0.00340679
0.00308627
0.00280739
0.00256332
0.00234873
0.0021591
0.00199085
0.00184093
0.00170684
0.00158648
0.00147804
0.00138014
0.00129136
0.00121073
0.00113719
0.00107008
0.00100854
0.000952136
0.000900177
0.000852345
0.000808108
0.000767219
0.000729272
0.000694059
0.000661285
0.00063075
0.000602268
0.000575621
0.000550728
0.000527336
0.000505465
0.000484818
0.000465511
0.000447195
0.000430076
0.000413753
0.000398513
0.000383909
0.000370291
0.000357186
0.000344977
0.000333199
0.000322222
0.000311678
0.000301878
0.000292602
0.000283967
0.00027611
0.000268818
0.000262636
0.000257153
0.000253437
0.000250838
0.000250972
0.000253246
0.000259656
0.000269219
0.000285797
0.000307651
0.000337238
0.000376442
0.000422504
0.000482556
0.000547945
0.000628984
0.000713503
0.00081286
0.000915641
0.0010352
0.00115464
0.00129133
0.00142553
0.00158057
0.00173131
0.0019178
0.00209516
0.00233454
0.00256099
0.00296899
0.413584
0.23233
0.143887
0.095628
0.067034
0.0489835
0.037003
0.0287209
0.0228012
0.0184497
0.0151741
0.0126573
0.0106888
0.00912486
0.00786511
0.00683774
0.00599067
0.00528523
0.00469245
0.00419024
0.00376155
0.00339311
0.00307442
0.00279718
0.00255464
0.00234147
0.00215314
0.00198611
0.00183727
0.00170418
0.00158482
0.00147732
0.00138021
0.0012922
0.00121226
0.00113938
0.00107286
0.00101189
0.000955979
0.000904499
0.000857085
0.00081325
0.000772707
0.000735099
0.000700163
0.000667675
0.000637355
0.000609115
0.000582622
0.000557937
0.000534642
0.000512959
0.000492353
0.000473225
0.000454898
0.000437973
0.000421599
0.0004066
0.000391931
0.000378761
0.000365806
0.000354465
0.000343423
0.000334272
0.000325473
0.000319304
0.000313954
0.000312584
0.000313786
0.000318082
0.000329043
0.000345151
0.000370388
0.000401803
0.000445502
0.000496555
0.000561601
0.000634473
0.000720161
0.000813072
0.000915541
0.0010231
0.0011383
0.00126141
0.00138717
0.00151704
0.00164729
0.00177831
0.00190889
0.00203763
0.00217245
0.00230585
0.00245361
0.00259947
0.0027695
0.00294159
0.00314453
0.00337623
0.00360827
0.00403275
0.413669
0.232367
0.143852
0.0955527
0.0669429
0.0488896
0.0369131
0.0286375
0.0227255
0.0183813
0.015113
0.0126026
0.0106402
0.00908147
0.00782669
0.00680358
0.00596057
0.00525861
0.00466918
0.00416985
0.00374393
0.00337792
0.00306154
0.00278636
0.00254578
0.00233436
0.00214765
0.00198202
0.00183467
0.00170296
0.00158474
0.00147835
0.00138223
0.00129519
0.00121608
0.00114404
0.00107821
0.00101795
0.000962612
0.000911743
0.000864789
0.000821474
0.000781293
0.00074413
0.000709465
0.000677365
0.000647228
0.00061934
0.000592947
0.00056861
0.000545343
0.000524053
0.000503437
0.000484847
0.000466703
0.000450847
0.000435326
0.0004228
0.000410326
0.000402421
0.00039475
0.00039509
0.000397469
0.000407554
0.000424907
0.000453839
0.000494117
0.000547433
0.000615729
0.000697481
0.000795092
0.000904007
0.00102625
0.00115506
0.00129281
0.00143296
0.00158302
0.00173356
0.00188627
0.00203625
0.00218278
0.00232508
0.00245876
0.0025862
0.00270862
0.00282633
0.0029429
0.00305495
0.00317012
0.00327805
0.00339694
0.00350617
0.00364072
0.00376013
0.00392778
0.00407118
0.00428952
0.00449492
0.00472759
0.00515557
0.413753
0.232389
0.143793
0.0954504
0.0668254
0.0487716
0.0368018
0.0285354
0.0226336
0.0182989
0.0150399
0.0125375
0.0105828
0.00903057
0.00778205
0.00676415
0.00592624
0.00522853
0.00464331
0.00414747
0.00372507
0.00336194
0.00304854
0.00277579
0.00253769
0.00232815
0.0021437
0.00198001
0.00183443
0.00170418
0.00158749
0.00148238
0.00138755
0.00130161
0.00122357
0.00115247
0.00108752
0.00102807
0.00097344
0.000923255
0.00087687
0.000834141
0.000794402
0.000757754
0.000723428
0.000691816
0.000661959
0.000634628
0.000608566
0.000585181
0.000562647
0.000543756
0.000525486
0.000512324
0.000500337
0.00049765
0.000501905
0.000512411
0.000537468
0.00058058
0.000642405
0.000726923
0.000835107
0.000966492
0.00111944
0.00128983
0.00147488
0.00166755
0.00186726
0.00207338
0.00228362
0.00248848
0.0026906
0.00288124
0.00306393
0.00323087
0.00338433
0.00352432
0.00365451
0.00377503
0.0038872
0.00399212
0.00408937
0.0041788
0.00426177
0.00433864
0.00441341
0.00448457
0.00455864
0.00462898
0.0047106
0.00478642
0.00488997
0.00497967
0.00512774
0.00524338
0.00546613
0.0056363
0.0058759
0.00629421
0.413835
0.232396
0.143707
0.0953182
0.066679
0.0486278
0.0366675
0.0284136
0.0225245
0.0182021
0.0149544
0.012462
0.0105167
0.00897242
0.00773148
0.00671996
0.0058883
0.00519572
0.00461571
0.00412404
0.003706
0.00334638
0.00303662
0.00276652
0.00253169
0.00232495
0.00214316
0.00198143
0.00183816
0.0017096
0.00159492
0.00149118
0.00139809
0.00131324
0.00123673
0.00116645
0.00110287
0.00104399
0.000990628
0.000940778
0.000895644
0.000853031
0.000814687
0.000778008
0.000745575
0.000714084
0.000687787
0.000662139
0.00064417
0.000626762
0.000624234
0.000632112
0.000650066
0.000694504
0.000767499
0.000877574
0.00102872
0.00121995
0.00144884
0.00170732
0.00198996
0.00228195
0.00258917
0.00290172
0.00320903
0.00350596
0.00378774
0.00404974
0.0042899
0.00450237
0.00469421
0.00486553
0.00502073
0.00515867
0.00528357
0.00539302
0.00548844
0.00556939
0.00563825
0.00569617
0.00574477
0.00578569
0.00582061
0.0058497
0.00587416
0.00589659
0.00591622
0.00594069
0.00596071
0.00598957
0.00602282
0.00606521
0.00612932
0.00619294
0.00631038
0.00640642
0.00662333
0.00676079
0.00703095
0.00740355
0.413918
0.232383
0.14359
0.0951528
0.0665009
0.0484557
0.0365083
0.0282709
0.0223973
0.0180903
0.0148559
0.0123763
0.0104417
0.00890757
0.00767537
0.00667195
0.00584751
0.00516147
0.00458741
0.00410112
0.00368822
0.00333263
0.00302723
0.00276151
0.00253038
0.00232661
0.00214791
0.0019888
0.00184817
0.0017218
0.00160935
0.00150742
0.00141621
0.00133285
0.00125793
0.0011889
0.00112668
0.00106892
0.00101685
0.000968187
0.000924674
0.000883927
0.00084873
0.000817365
0.000793511
0.000776999
0.000783018
0.000797204
0.000855577
0.000937145
0.00108999
0.00130871
0.00159865
0.00194854
0.0023506
0.00278031
0.00323892
0.00370753
0.00416789
0.00461043
0.00502469
0.00540729
0.0057456
0.00604613
0.0063132
0.00654934
0.00675763
0.00693955
0.00709719
0.00722864
0.00733695
0.00742312
0.00749091
0.00754104
0.00757726
0.0075999
0.00761114
0.00761128
0.00760207
0.00758461
0.00756044
0.00753074
0.00749766
0.00746134
0.0074245
0.00738642
0.00735252
0.00731978
0.00729583
0.0072735
0.00727378
0.00728384
0.00731119
0.00734668
0.00743576
0.00751622
0.00772389
0.00784385
0.00814394
0.00846776
0.414
0.232347
0.143438
0.0949497
0.0662876
0.0482524
0.0363224
0.0281054
0.022251
0.0179627
0.0147444
0.0122803
0.0103583
0.00883681
0.00761461
0.00662156
0.00580516
0.00512748
0.00456046
0.00408095
0.00367331
0.0033246
0.00302439
0.00276313
0.0025361
0.0023363
0.00216115
0.00200532
0.00186772
0.00174401
0.00163421
0.0015344
0.00144566
0.00136393
0.00129157
0.00122396
0.00116485
0.0011092
0.00106193
0.00101887
0.00098702
0.000964472
0.000966053
0.0010102
0.00106997
0.00121605
0.00144704
0.00179832
0.0022586
0.00280927
0.00342075
0.00408199
0.00475601
0.00541655
0.00604385
0.00662615
0.00714503
0.00760595
0.00801423
0.00837331
0.0086866
0.00895816
0.00918667
0.0093746
0.00952569
0.00964372
0.00973262
0.00979542
0.00983569
0.00985458
0.00985486
0.00983771
0.00980595
0.00976063
0.0097045
0.00963845
0.00956461
0.00948378
0.00939751
0.00930677
0.0092131
0.0091171
0.00902107
0.00892458
0.00883194
0.00873946
0.00865658
0.00857475
0.00850881
0.00844533
0.00840447
0.00838182
0.0083902
0.00840863
0.00847924
0.00854034
0.00874277
0.00885651
0.00918861
0.00947189
0.414083
0.232283
0.143245
0.0947038
0.0660353
0.0480146
0.0361077
0.0279154
0.0220851
0.0178187
0.0146204
0.0121741
0.010268
0.00876097
0.00755143
0.00657029
0.00576385
0.00509703
0.00453728
0.00406687
0.00366709
0.00332506
0.00303011
0.00277498
0.00255249
0.00235782
0.00218652
0.002035
0.00190085
0.00178087
0.00167456
0.00157806
0.00149375
0.00141527
0.00135048
0.00128755
0.00124629
0.00120284
0.00120447
0.00121648
0.00132908
0.00146325
0.00175111
0.00220697
0.00283308
0.00358928
0.00444732
0.00535768
0.00627109
0.00715144
0.00797134
0.00870694
0.00936294
0.00994343
0.0104517
0.0108929
0.0112669
0.0115766
0.0118286
0.0120273
0.0121809
0.012293
0.0123681
0.0124099
0.0124215
0.0124072
0.0123695
0.0123116
0.0122365
0.0121461
0.0120429
0.0119281
0.0118041
0.0116718
0.0115332
0.0113891
0.0112413
0.0110905
0.0109382
0.010785
0.0106324
0.0104809
0.0103326
0.0101866
0.0100481
0.00991154
0.00978889
0.00966809
0.00956858
0.00947168
0.00940518
0.0093429
0.00933874
0.00935207
0.00940856
0.00946065
0.00966412
0.00977898
0.0101486
0.010405
0.41417
0.232184
0.143007
0.0944086
0.0657394
0.047739
0.0358616
0.0276999
0.0218987
0.0176586
0.0144845
0.0120591
0.0101726
0.00868252
0.0074887
0.00652145
0.00572845
0.00507229
0.00452397
0.00406354
0.00367105
0.00333738
0.00304872
0.00280105
0.00258369
0.00239623
0.00222959
0.00208586
0.00195663
0.00184622
0.00174617
0.00166383
0.00159008
0.00154156
0.0014975
0.00153223
0.00156849
0.00175251
0.00197957
0.00244524
0.00315638
0.00407499
0.00515298
0.00631555
0.00749293
0.0086296
0.00967858
0.0106252
0.0114689
0.0122118
0.0128577
0.0134057
0.0138615
0.0142335
0.0145299
0.0147581
0.0149278
0.0150422
0.0151096
0.0151304
0.015122
0.0150765
0.0150043
0.0149082
0.0147913
0.0146567
0.0145071
0.0143446
0.0141716
0.0139897
0.0138008
0.013606
0.0134069
0.0132046
0.0130003
0.0127948
0.0125892
0.0123843
0.0121811
0.0119802
0.011783
0.0115895
0.0114022
0.0112194
0.0110471
0.0108785
0.0107271
0.0105786
0.0104556
0.0103351
0.0102525
0.0101677
0.0101501
0.0101623
0.0102125
0.0102638
0.0104775
0.0106
0.0110143
0.0112607
0.414261
0.232038
0.142717
0.0940557
0.0653967
0.0474217
0.0355826
0.0274582
0.0216916
0.0174839
0.0143383
0.0119384
0.0100757
0.00860512
0.00743112
0.00647926
0.00570176
0.00505756
0.00452164
0.00407081
0.00368882
0.00336413
0.0030855
0.00284774
0.00264176
0.00246745
0.00231551
0.00219113
0.00208268
0.00200565
0.00193904
0.00192472
0.00193296
0.00207941
0.00223504
0.00262852
0.00323823
0.00418491
0.00538272
0.00674193
0.00817131
0.00958439
0.0109132
0.0121268
0.0132146
0.0141755
0.0150056
0.0157074
0.0162882
0.0167591
0.0171319
0.0174135
0.0176177
0.0177511
0.0178226
0.0178366
0.0178134
0.0177438
0.0176417
0.0175089
0.0173539
0.0171772
0.0169833
0.0167751
0.0165551
0.0163256
0.0160886
0.0158456
0.0155985
0.0153481
0.015096
0.0148428
0.0145896
0.0143372
0.0140865
0.013838
0.0135925
0.0133506
0.013113
0.0128801
0.0126533
0.0124323
0.0122197
0.0120134
0.0118198
0.0116315
0.0114627
0.0112981
0.0111616
0.0110287
0.0109379
0.0108443
0.0108225
0.010835
0.0108866
0.0109449
0.0111779
0.0113152
0.0117815
0.0120369
0.41435
0.231837
0.142371
0.0936357
0.0650061
0.0470573
0.0352719
0.0271893
0.0214661
0.0172976
0.0141846
0.0118174
0.00997978
0.00853362
0.00738011
0.00644362
0.00568232
0.00505117
0.00453187
0.00409213
0.00372949
0.00342079
0.00316968
0.00295801
0.00279265
0.00266193
0.00257324
0.00251522
0.00252777
0.00257094
0.00272535
0.00295362
0.00341267
0.00417428
0.00527346
0.00666177
0.00822498
0.0098596
0.0114675
0.0129773
0.0143579
0.0155928
0.0166706
0.0175894
0.018353
0.0189757
0.0194681
0.019842
0.0201115
0.0202903
0.0203891
0.0204096
0.0203869
0.0203036
0.0201777
0.0200148
0.0198247
0.0196085
0.0193724
0.0191192
0.0188537
0.0185778
0.0182941
0.0180048
0.0177114
0.0174155
0.0171183
0.016821
0.0165245
0.0162296
0.0159369
0.0156471
0.0153606
0.015078
0.0147998
0.0145263
0.0142581
0.0139956
0.0137394
0.0134898
0.0132477
0.0130131
0.0127883
0.0125714
0.0123685
0.0121724
0.011997
0.0118277
0.0116874
0.0115531
0.0114616
0.0113714
0.0113564
0.011372
0.0114307
0.0115069
0.0117655
0.0119258
0.0124513
0.0127356
0.414428
0.231575
0.141962
0.0931418
0.0645669
0.0466409
0.0349338
0.0268913
0.0212293
0.0171008
0.0140289
0.011697
0.00988318
0.00846464
0.00732217
0.00640757
0.00566983
0.00505907
0.0045722
0.00416672
0.00386252
0.00361513
0.00346603
0.0033486
0.00334211
0.00340358
0.00348923
0.00373991
0.0040493
0.00459744
0.00541977
0.00656398
0.00800717
0.00965282
0.0113924
0.013122
0.0147706
0.0162922
0.0176584
0.018849
0.0198601
0.0206957
0.0213675
0.0218899
0.0222703
0.0225354
0.0226933
0.0227532
0.0227422
0.022668
0.0225308
0.0223452
0.0221267
0.0218756
0.021599
0.0213025
0.0209916
0.0206691
0.0203385
0.0200021
0.0196625
0.0193213
0.01898
0.0186399
0.018302
0.017967
0.0176357
0.0173085
0.0169859
0.0166683
0.0163561
0.0160494
0.0157485
0.0154536
0.015165
0.0148829
0.0146076
0.0143394
0.0140788
0.0138259
0.0135817
0.0133461
0.0131211
0.0129052
0.0127039
0.012511
0.0123391
0.0121754
0.0120404
0.0119153
0.01183
0.0117565
0.0117555
0.0117785
0.0118511
0.0119559
0.0122482
0.0124379
0.013029
0.013363
0.414485
0.231259
0.141477
0.0925736
0.0640748
0.0461729
0.0345715
0.026565
0.0209864
0.0168875
0.0138688
0.0115573
0.00976884
0.00836476
0.00726503
0.00639463
0.00570083
0.00517457
0.00478975
0.00454687
0.00442444
0.00445732
0.00460121
0.00480162
0.00517812
0.00569399
0.00636829
0.00724402
0.00836036
0.00972375
0.0112903
0.0129734
0.014692
0.0163714
0.0179562
0.0194004
0.0206752
0.0217659
0.0226705
0.0233952
0.0239526
0.0243508
0.0246176
0.024764
0.0247918
0.0247533
0.0246312
0.0244394
0.0242014
0.0239243
0.0236139
0.0232763
0.0229211
0.0225515
0.0221722
0.0217869
0.0213989
0.0210102
0.0206229
0.0202383
0.0198578
0.0194822
0.0191124
0.0187488
0.0183918
0.0180418
0.0176987
0.0173629
0.0170343
0.0167131
0.0163992
0.0160926
0.0157934
0.0155015
0.0152172
0.0149404
0.0146713
0.0144102
0.0141574
0.0139131
0.0136781
0.0134524
0.0132377
0.0130331
0.0128431
0.0126631
0.0125037
0.012355
0.0122337
0.012127
0.0120556
0.0120149
0.0120253
0.0120634
0.0121652
0.0123001
0.0126375
0.0128616
0.0135251
0.0139294
0.414518
0.230899
0.140896
0.091936
0.0635194
0.0456597
0.0341778
0.0262099
0.0207171
0.0166342
0.0136608
0.0113496
0.009631
0.0083011
0.00728918
0.00655412
0.00608455
0.00585132
0.00589393
0.00614998
0.00650766
0.00717209
0.00799752
0.00892974
0.00994345
0.0110488
0.0122683
0.0136059
0.0150466
0.0165509
0.0180734
0.0195582
0.0209557
0.0222242
0.0233349
0.0242725
0.0250331
0.0256186
0.026038
0.0263122
0.0264526
0.026461
0.0263993
0.0262388
0.0259993
0.0257118
0.0253784
0.0250085
0.0246128
0.0241988
0.0237726
0.0233371
0.0228996
0.0224648
0.022032
0.0216029
0.0211795
0.0207627
0.0203537
0.0199529
0.019561
0.0191783
0.0188048
0.0184406
0.0180858
0.0177401
0.0174035
0.0170758
0.0167568
0.0164463
0.0161442
0.0158504
0.0155646
0.015287
0.0150173
0.0147557
0.0145022
0.0142571
0.0140206
0.0137929
0.0135749
0.0133665
0.0131694
0.0129832
0.0128114
0.012651
0.0125111
0.0123855
0.012286
0.0122054
0.0121587
0.0121517
0.0121783
0.012243
0.0123905
0.012555
0.0129484
0.0132118
0.0139546
0.0144504
0.414538
0.230497
0.140192
0.0912354
0.0628832
0.0450983
0.0337217
0.0257909
0.0203469
0.0162717
0.0133621
0.0112113
0.00960526
0.00855571
0.00786153
0.00776787
0.00793019
0.008598
0.00946296
0.0108074
0.0122562
0.0136564
0.0149366
0.0160926
0.0171701
0.0182265
0.019306
0.0204216
0.0215606
0.0226879
0.0237641
0.0247506
0.0256157
0.0263415
0.0269102
0.0273275
0.0275998
0.0277314
0.0277293
0.0276478
0.0274563
0.0271787
0.02685
0.0264698
0.0260469
0.0256035
0.0251418
0.0246668
0.0241834
0.0236972
0.0232126
0.0227311
0.0222547
0.0217858
0.0213272
0.0208801
0.0204452
0.0200229
0.0196132
0.0192162
0.0188317
0.0184595
0.0180992
0.0177506
0.0174131
0.0170865
0.0167704
0.0164642
0.0161678
0.0158806
0.0156025
0.0153332
0.0150725
0.0148201
0.0145761
0.0143404
0.014113
0.0138942
0.0136841
0.0134831
0.0132919
0.0131107
0.0129407
0.0127824
0.0126381
0.0125071
0.0123948
0.012298
0.0122253
0.0121761
0.0121643
0.012182
0.012243
0.012341
0.0125449
0.0127424
0.0132021
0.0135101
0.0143391
0.0149485
0.414569
0.230024
0.13934
0.090471
0.062119
0.0444427
0.0331092
0.0251882
0.0197869
0.0159872
0.0132555
0.011534
0.0104231
0.0104538
0.010809
0.012007
0.0136699
0.0159354
0.0181465
0.0200158
0.0214216
0.0224216
0.0231202
0.0236605
0.0241536
0.0246665
0.0252274
0.0258225
0.0264293
0.0270128
0.0275359
0.0279738
0.0283052
0.0285232
0.0286104
0.0285896
0.0284825
0.0282615
0.0279574
0.0275982
0.0271904
0.0267355
0.0262507
0.025742
0.0252152
0.0246765
0.0241341
0.0235957
0.0230638
0.0225418
0.0220325
0.021537
0.0210568
0.0205916
0.0201421
0.0197083
0.0192904
0.0188881
0.018501
0.0181287
0.0177705
0.0174261
0.0170947
0.0167759
0.016469
0.0161734
0.0158888
0.0156144
0.01535
0.0150951
0.0148492
0.0146122
0.0143838
0.0141638
0.0139521
0.0137486
0.0135536
0.0133671
0.0131895
0.0130209
0.0128623
0.0127139
0.012577
0.0124524
0.0123412
0.0122456
0.0121676
0.0121092
0.0120733
0.0120687
0.0120899
0.0121418
0.0122561
0.0123859
0.0126539
0.0128905
0.0134278
0.0137867
0.0147091
0.0154562
0.414651
0.229418
0.138341
0.0895842
0.0611001
0.0435574
0.032129
0.0246292
0.0195414
0.0162989
0.014301
0.0142415
0.0147315
0.0167245
0.0192914
0.022742
0.0258145
0.0280616
0.0294749
0.0301215
0.0301689
0.0300198
0.0296904
0.029388
0.0291709
0.0290574
0.0290472
0.0290815
0.0291501
0.0292166
0.0292381
0.0292063
0.0291084
0.0289228
0.0286577
0.0283353
0.0279581
0.0275201
0.027034
0.0265098
0.0259556
0.0253824
0.0248019
0.0242191
0.0236408
0.0230704
0.02251
0.0219639
0.0214337
0.0209207
0.0204264
0.0199511
0.0194949
0.0190576
0.0186387
0.0182379
0.0178546
0.0174881
0.0171379
0.0168031
0.0164831
0.0161771
0.0158844
0.0156043
0.0153361
0.0150793
0.0148332
0.0145973
0.0143711
0.0141543
0.0139464
0.0137471
0.0135563
0.0133737
0.0131994
0.0130333
0.0128755
0.0127263
0.012586
0.012455
0.0123341
0.0122236
0.0121252
0.0120397
0.0119671
0.0119133
0.0118753
0.0118612
0.011869
0.0119012
0.011976
0.0120679
0.0122487
0.0124158
0.0127574
0.0130401
0.0136675
0.0140859
0.015111
0.0160235
0.414794
0.228598
0.137174
0.0883235
0.0596098
0.042521
0.0315935
0.0247436
0.0208367
0.0197529
0.0202706
0.0231502
0.0266788
0.0315302
0.0354071
0.0381032
0.0392601
0.0391556
0.0385241
0.0372897
0.0359264
0.0346246
0.0334672
0.0324841
0.031686
0.0310539
0.0305558
0.0301445
0.0297869
0.0294468
0.0291046
0.0287474
0.0283566
0.0279222
0.0274414
0.0269153
0.0263591
0.0257784
0.0251806
0.024576
0.023968
0.0233603
0.0227601
0.0221713
0.0215971
0.0210403
0.0205017
0.0199833
0.0194857
0.0190092
0.0185543
0.0181205
0.0177075
0.0173146
0.0169411
0.0165861
0.0162488
0.0159285
0.0156242
0.0153352
0.0150606
0.0147996
0.0145515
0.0143156
0.0140911
0.0138776
0.0136744
0.013481
0.013297
0.013122
0.0129556
0.0127977
0.0126479
0.0125064
0.012373
0.0122478
0.0121311
0.012023
0.0119241
0.0118347
0.011756
0.0116879
0.0116331
0.0115915
0.0115631
0.011558
0.0115657
0.0115962
0.0116574
0.0117395
0.0118747
0.0120162
0.0122682
0.0124833
0.0129129
0.013251
0.0139849
0.0144763
0.0156187
0.016731
0.415012
0.227505
0.135573
0.0864715
0.0586129
0.0422807
0.0329468
0.028744
0.0294286
0.0317115
0.036733
0.0429794
0.0481457
0.0508096
0.0508433
0.0499507
0.0478522
0.0453197
0.0427871
0.0403346
0.0380955
0.0361173
0.0344263
0.0330051
0.0318255
0.0308556
0.0300483
0.0293531
0.0287311
0.0281482
0.0275755
0.0269995
0.0264173
0.0258241
0.0252227
0.0246107
0.0239925
0.0233716
0.0227532
0.0221419
0.0215408
0.0209524
0.0203803
0.019827
0.0192939
0.0187825
0.018293
0.0178262
0.0173819
0.0169599
0.0165598
0.0161811
0.0158229
0.0154845
0.0151649
0.0148632
0.0145785
0.0143098
0.0140564
0.0138174
0.013592
0.0133793
0.0131788
0.0129898
0.0128115
0.0126436
0.0124855
0.0123368
0.012197
0.012066
0.0119434
0.011829
0.0117228
0.0116248
0.011535
0.0114536
0.011381
0.0113174
0.0112636
0.0112199
0.0111878
0.0111668
0.0111614
0.0111683
0.0111913
0.0112369
0.0113012
0.0113884
0.0115089
0.0116523
0.0118562
0.0120605
0.0123916
0.0126724
0.0132095
0.01362
0.0144871
0.0150752
0.0163619
0.0177217
0.415388
0.225911
0.133966
0.0857954
0.060008
0.0469571
0.044375
0.045927
0.0526275
0.0601395
0.0662151
0.0672646
0.0659236
0.062615
0.0584361
0.0543249
0.0502849
0.0464577
0.0429864
0.0398992
0.0372321
0.0349628
0.0330623
0.0314666
0.0301309
0.0289974
0.0280195
0.0271604
0.0263855
0.0256699
0.024994
0.0243401
0.0237002
0.0230696
0.0224473
0.0218321
0.021226
0.0206303
0.0200474
0.0194792
0.0189282
0.0183956
0.0178833
0.0173925
0.0169237
0.0164776
0.0160539
0.0156525
0.0152733
0.0149155
0.0145785
0.0142616
0.0139639
0.0136845
0.0134226
0.0131772
0.0129475
0.0127325
0.0125316
0.0123438
0.0121687
0.0120053
0.0118532
0.0117118
0.0115805
0.011459
0.0113469
0.0112438
0.0111496
0.0110639
0.0109866
0.0109176
0.010857
0.0108049
0.0107615
0.0107271
0.0107021
0.010687
0.0106828
0.01069
0.01071
0.0107429
0.010792
0.0108577
0.0109408
0.0110485
0.0111785
0.0113367
0.0115281
0.0117471
0.012028
0.0123219
0.0127536
0.0131353
0.0138073
0.0143246
0.0153741
0.0161066
0.0175942
0.0192812
0.415993
0.22458
0.134738
0.0923467
0.0745293
0.0737273
0.0795003
0.0880521
0.0942511
0.0926864
0.0869255
0.0790584
0.0717735
0.0649144
0.0585933
0.0529272
0.047958
0.0436502
0.0399565
0.0368113
0.0341566
0.031914
0.0300331
0.0284425
0.0271031
0.0259588
0.0249661
0.0240913
0.0233047
0.0225829
0.0219093
0.0212698
0.0206556
0.0200612
0.0194841
0.0189232
0.0183785
0.0178499
0.017338
0.0168437
0.0163683
0.0159127
0.0154775
0.0150635
0.0146706
0.014299
0.0139483
0.0136182
0.0133082
0.0130177
0.012746
0.0124923
0.012256
0.0120361
0.011832
0.0116426
0.0114674
0.0113056
0.0111566
0.0110196
0.0108942
0.0107797
0.0106759
0.0105821
0.0104978
0.0104232
0.0103578
0.0103016
0.0102544
0.010216
0.0101864
0.0101656
0.010154
0.0101518
0.0101594
0.0101773
0.0102061
0.0102466
0.0103001
0.0103674
0.0104497
0.0105482
0.0106653
0.010804
0.0109628
0.0111478
0.0113581
0.0116072
0.0118911
0.0122259
0.0126199
0.0130564
0.0136259
0.0141804
0.0150416
0.0157475
0.0170792
0.0180691
0.0198897
0.0220753
0.416487
0.227463
0.155731
0.136415
0.136261
0.142177
0.147208
0.138707
0.121398
0.105051
0.0907892
0.0785398
0.0683582
0.0599547
0.0530176
0.0472355
0.0424125
0.0383818
0.035016
0.0321949
0.0298311
0.0278368
0.0261592
0.0247321
0.0235205
0.0224791
0.0215742
0.0207769
0.0200628
0.0194118
0.0188092
0.0182435
0.0177066
0.0171929
0.0166996
0.016225
0.0157679
0.0153276
0.0149034
0.0144962
0.0141065
0.013735
0.0133821
0.0130482
0.012733
0.0124365
0.0121585
0.0118985
0.0116562
0.011431
0.0112224
0.0110297
0.0108524
0.0106897
0.0105411
0.0104058
0.0102835
0.0101736
0.0100754
0.00998847
0.00991265
0.00984698
0.00979249
0.00974692
0.00971169
0.00968628
0.00967106
0.00966596
0.0096706
0.00968525
0.00970991
0.00974503
0.00979117
0.00984893
0.00991899
0.0100022
0.0100996
0.0102126
0.0103404
0.0104839
0.0106467
0.0108316
0.011041
0.0112802
0.0115486
0.0118601
0.0122053
0.0126117
0.0130553
0.0135893
0.0141746
0.0148736
0.0156798
0.0165831
0.017768
0.0189092
0.0207344
0.0223229
0.0248158
0.0280298
0.421882
0.278
0.285611
0.291257
0.269765
0.239132
0.192491
0.153601
0.122476
0.0993378
0.0820517
0.0689673
0.0589139
0.0510502
0.0448228
0.0398136
0.0357415
0.0323949
0.0296355
0.0273354
0.0254083
0.0237751
0.0223924
0.0212083
0.0201985
0.0193245
0.0185642
0.0178955
0.0172984
0.0167567
0.0162581
0.0157931
0.0153549
0.0149385
0.0145411
0.0141612
0.0137969
0.0134471
0.0131108
0.0127886
0.012481
0.0121889
0.011913
0.0116533
0.0114097
0.0111822
0.0109708
0.0107751
0.0105952
0.0104305
0.0102807
0.0101453
0.0100241
0.00991657
0.00982226
0.00974049
0.00967191
0.00961534
0.00957054
0.00953735
0.00951591
0.00950502
0.00950755
0.00951721
0.00954294
0.00957764
0.00962724
0.009688
0.00975848
0.00984132
0.0099376
0.0100483
0.0101747
0.0103179
0.0104794