/*--------------------------------*- C++ -*----------------------------------*\
| =========                 |                                                 |
| \\      /  F ield         | OpenFOAM: The Open Source CFD Toolbox           |
|  \\    /   O peration     | Version:  v1912                                 |
|   \\  /    A nd           | Website:  www.openfoam.com                      |
|    \\/     M anipulation  |                                                 |
\*---------------------------------------------------------------------------*/
FoamFile
{
    version     2.0;
    format      ascii;
    class       volScalarField;
    location    "181";
    object      k;
}
// * * * * * * * * * * * * * * * * * * * * * * * * * * * * * * * * * * * * * //

dimensions      [0 2 -2 0 0 0 0];


internalField   nonuniform List<scalar> 
60000
(
0.0133719
0.00972205
0.00749699
0.00602357
0.00498778
0.00422648
0.00364704
0.00319357
0.00283049
0.00253429
0.00228877
0.00208246
0.00190706
0.00175636
0.00162574
0.00151153
0.00141104
0.00132191
0.00124254
0.0011713
0.00110724
0.00104915
0.000996502
0.000948333
0.000904391
0.000863868
0.000826705
0.000792188
0.000760392
0.000730671
0.000703191
0.000677355
0.000653392
0.000630746
0.000609684
0.000589686
0.000571043
0.000553267
0.000536659
0.000520766
0.000505887
0.000491601
0.000478203
0.000465301
0.000453177
0.000441478
0.000430458
0.000419809
0.000409751
0.000400026
0.000390811
0.000381903
0.000373431
0.000365248
0.000357434
0.0003499
0.000342671
0.000335719
0.000329012
0.000322589
0.000316347
0.000310407
0.000304581
0.000299088
0.000293636
0.000288555
0.000283449
0.000278742
0.000273966
0.000269599
0.000265145
0.000261089
0.000256948
0.000253191
0.000249352
0.000245898
0.000242352
0.000239214
0.000235964
0.000233162
0.000230231
0.000227797
0.00022523
0.000223215
0.000221084
0.000219577
0.000217995
0.000217137
0.000216309
0.000216282
0.000216986
0.000218023
0.000219807
0.000223499
0.000227131
0.000235386
0.000242742
0.000259742
0.000274898
0.00034813
0.0133735
0.00972439
0.00749906
0.00602538
0.00498941
0.00422793
0.0036483
0.00319468
0.00283145
0.00253513
0.00228949
0.00208309
0.0019076
0.00175684
0.00162614
0.00151189
0.00141134
0.00132219
0.00124277
0.00117152
0.00110743
0.00104934
0.000996668
0.000948511
0.000904551
0.000864045
0.000826869
0.000792373
0.000760571
0.000730871
0.000703392
0.000677579
0.000653622
0.000630998
0.000609946
0.000589969
0.000571338
0.000553583
0.00053699
0.000521116
0.000506252
0.000491986
0.000478602
0.000465719
0.000453609
0.000441928
0.000430921
0.00042029
0.000410244
0.000400536
0.000391331
0.00038244
0.000373976
0.00036581
0.000358002
0.000350483
0.000343259
0.000336322
0.00032962
0.000323208
0.000316973
0.000311039
0.000305225
0.000299729
0.000294297
0.000289201
0.000284125
0.000279391
0.000274656
0.000270248
0.000265844
0.000261737
0.000257654
0.000253835
0.000250061
0.000246534
0.000243057
0.000239838
0.000236658
0.000233771
0.000230907
0.000228384
0.00022589
0.000223773
0.000221749
0.000220122
0.000218713
0.000217754
0.000217254
0.000217374
0.000218403
0.000220363
0.000223357
0.000229574
0.00023678
0.000251924
0.000270465
0.000304116
0.000359714
0.000484789
0.0133752
0.00972659
0.00750084
0.00602656
0.00499005
0.00422815
0.00364824
0.0031944
0.00283102
0.00253461
0.00228889
0.00208247
0.00190694
0.00175619
0.00162548
0.00151127
0.00141072
0.00132163
0.00124222
0.00117104
0.00110696
0.00104895
0.000996294
0.000948216
0.000904279
0.000863853
0.000826706
0.000792288
0.00076052
0.000730897
0.000703455
0.000677715
0.000653798
0.000631244
0.000610235
0.000590324
0.000571739
0.000554045
0.000537499
0.000521684
0.000506866
0.000492656
0.000479316
0.000466488
0.00045442
0.00044279
0.000431822
0.000421241
0.000411229
0.000401569
0.000392395
0.000383549
0.000375112
0.000366988
0.000359203
0.000351724
0.00034452
0.000337618
0.000330934
0.00032455
0.000318335
0.000312419
0.000306632
0.000301137
0.000295745
0.000290629
0.000285612
0.000280833
0.000276176
0.0002717
0.000267393
0.000263197
0.000259228
0.000255303
0.000251657
0.000248016
0.000244677
0.000241353
0.000238309
0.000235363
0.000232637
0.000230152
0.000227838
0.00022592
0.000224248
0.00022309
0.000222572
0.000222857
0.000224177
0.00022757
0.000232079
0.000242379
0.000253518
0.000278428
0.000302894
0.000355602
0.000406338
0.000500838
0.000609968
0.000820054
0.0133769
0.00972858
0.00750223
0.00602717
0.00499008
0.00422777
0.00364757
0.00319355
0.00283004
0.00253356
0.00228781
0.00208138
0.00190586
0.00175514
0.00162446
0.00151031
0.0014098
0.00132078
0.00124142
0.00117033
0.0011063
0.0010484
0.000995792
0.000947826
0.000903945
0.000863636
0.000826548
0.000792245
0.00076054
0.000731033
0.000703658
0.00067803
0.000654184
0.000631738
0.000610801
0.000590994
0.000572481
0.000554887
0.000538412
0.000522692
0.000507944
0.000493824
0.00048055
0.000467809
0.000455801
0.000444255
0.000433342
0.00042284
0.000412878
0.000403293
0.000394163
0.000385387
0.000376988
0.00036893
0.000361178
0.00035376
0.000346582
0.000339737
0.000333073
0.000326742
0.000320544
0.000314672
0.000308903
0.000303439
0.000298072
0.000292968
0.000287989
0.000283199
0.000278599
0.000274088
0.00026986
0.00026561
0.000261745
0.00025776
0.000254257
0.000250586
0.000247499
0.000244228
0.000241646
0.000239004
0.000237019
0.000235447
0.000234597
0.000234862
0.000236067
0.000240114
0.000244794
0.000256508
0.000267734
0.000294018
0.000316263
0.00036622
0.000405306
0.000489575
0.000549926
0.000675089
0.000763293
0.000926433
0.00106766
0.00133097
0.0133785
0.00973037
0.00750312
0.00602713
0.00498933
0.00422652
0.003646
0.00319178
0.00282817
0.00253163
0.00228587
0.00207948
0.001904
0.00175336
0.00162276
0.0015087
0.00140829
0.00131939
0.00124014
0.00116919
0.00110526
0.00104751
0.000995017
0.000947204
0.000903442
0.000863288
0.000826315
0.000792175
0.00076059
0.000731242
0.000703987
0.000678516
0.00065479
0.000632497
0.00061168
0.000592021
0.000573624
0.000556173
0.00053981
0.000524227
0.000509585
0.000495598
0.000482422
0.000469807
0.00045789
0.000446465
0.000435632
0.000425246
0.000415354
0.00040588
0.000396809
0.000388139
0.000379787
0.000371832
0.000364112
0.000356795
0.000349635
0.00034289
0.000336229
0.000329997
0.000323788
0.000318015
0.000312222
0.000306859
0.000301457
0.000296462
0.000291442
0.00028678
0.000282147
0.000277821
0.000273658
0.000269726
0.000266145
0.000262784
0.000259915
0.000257526
0.000255698
0.000255094
0.000255492
0.000257318
0.00026146
0.000269396
0.000279011
0.000297596
0.000316781
0.000350834
0.000384375
0.000439364
0.000491974
0.000570774
0.000641747
0.000745621
0.000834778
0.00096264
0.00106575
0.00121868
0.00133465
0.00151725
0.00166853
0.00195071
0.0133802
0.00973197
0.00750347
0.00602633
0.00498772
0.00422434
0.0036435
0.00318909
0.00282541
0.00252886
0.00228315
0.00207682
0.00190146
0.00175093
0.00162048
0.00150657
0.00140632
0.00131759
0.00123851
0.00116774
0.00110401
0.00104644
0.000994135
0.000946527
0.000902942
0.000862991
0.000826215
0.000792281
0.000760883
0.000731743
0.000704673
0.000679408
0.000655865
0.000633772
0.000613132
0.000593667
0.000575443
0.000558179
0.00054198
0.000526576
0.000512088
0.000498271
0.000485239
0.000472787
0.000461
0.00044973
0.000439013
0.000428775
0.000418983
0.000409651
0.00040066
0.00039213
0.000383836
0.00037602
0.000368336
0.00036116
0.000354011
0.000347413
0.000340739
0.000334668
0.000328426
0.000322846
0.00031701
0.00031191
0.000306566
0.000302033
0.000297332
0.0002936
0.000289731
0.000287148
0.000284703
0.000284132
0.000284648
0.000286556
0.000292203
0.000299627
0.000313253
0.000330181
0.000355455
0.000386083
0.000425713
0.000475266
0.000532342
0.000602262
0.000675581
0.000762774
0.000852076
0.000954981
0.00105509
0.00116701
0.00127341
0.00139139
0.00150052
0.00162815
0.00174564
0.00189249
0.0020221
0.00220048
0.00235063
0.00263208
0.0133818
0.00973329
0.00750332
0.00602477
0.00498522
0.0042212
0.00364005
0.00318543
0.00282174
0.00252519
0.00227961
0.00207338
0.00189822
0.00174784
0.00161762
0.00150391
0.00140392
0.00131539
0.00123659
0.00116604
0.00110259
0.00104526
0.000993248
0.000945861
0.000902578
0.000862902
0.000826394
0.000792736
0.000761601
0.000732742
0.000705928
0.000680942
0.000657645
0.000635825
0.000615424
0.000596223
0.00057823
0.000561216
0.000545239
0.00053007
0.000515796
0.000502198
0.000489367
0.000477117
0.000465517
0.000454434
0.000443889
0.000433824
0.000424184
0.000415013
0.000406156
0.000397779
0.000389599
0.000381936
0.000374347
0.000367349
0.000360291
0.00035393
0.00034743
0.000341836
0.000336112
0.000331584
0.00032687
0.000323978
0.000321112
0.000320938
0.000322806
0.000326328
0.000333551
0.000346019
0.000363833
0.000388349
0.000421201
0.000460819
0.000512209
0.000571417
0.000642879
0.000720721
0.00080797
0.000900242
0.00100114
0.00110706
0.00121511
0.00132568
0.00143493
0.00154514
0.00165013
0.00175472
0.00185662
0.00195976
0.00206293
0.00216819
0.002276
0.00238719
0.00250556
0.00263163
0.00276634
0.00292595
0.00306957
0.00334093
0.0133835
0.00973434
0.00750253
0.00602235
0.00498175
0.00421704
0.00363557
0.00318076
0.00281711
0.0025206
0.00227523
0.00206915
0.00189429
0.00174412
0.00161424
0.00150077
0.00140115
0.0013129
0.00123448
0.00116422
0.00110118
0.00104414
0.000992507
0.000945497
0.000902594
0.000863259
0.000827131
0.000793834
0.000763066
0.000734575
0.000708104
0.000683493
0.000660518
0.000639076
0.000618974
0.000600146
0.00058243
0.000565779
0.00055006
0.000535239
0.000521202
0.000507933
0.00049532
0.00048338
0.000471979
0.000461185
0.000450823
0.000441028
0.000431563
0.000422653
0.000413985
0.000405895
0.000397971
0.000390735
0.00038376
0.000377815
0.000372123
0.000368167
0.00036472
0.000364839
0.000367348
0.000372327
0.000383045
0.000401278
0.000427279
0.000463401
0.000509561
0.000568069
0.000638935
0.000722306
0.000816168
0.000919084
0.00102793
0.00114411
0.00126819
0.00139291
0.00152003
0.00164362
0.00176666
0.00188456
0.00199628
0.00210177
0.00220268
0.0023007
0.00239507
0.00248719
0.00257643
0.00266265
0.00274814
0.00283056
0.00291671
0.00299957
0.00309269
0.00318066
0.00329014
0.00339083
0.00352588
0.00365924
0.00379698
0.00405216
0.0133851
0.00973509
0.00750105
0.00601903
0.00497722
0.00421178
0.00362998
0.00317503
0.00281148
0.00251507
0.00227001
0.00206414
0.00188969
0.00173979
0.0016104
0.00149723
0.00139813
0.00131022
0.00123234
0.00116246
0.00109992
0.00104328
0.000992267
0.000945618
0.000903308
0.000864369
0.000828829
0.000795933
0.000765728
0.000737649
0.000711714
0.000687524
0.000665049
0.000644035
0.000624392
0.000605999
0.000588694
0.000572483
0.000557124
0.000542748
0.000529016
0.000516201
0.000503839
0.000492372
0.000481175
0.0004709
0.000460735
0.000451586
0.000442403
0.000434602
0.000426881
0.000421125
0.000415745
0.00041388
0.000415851
0.0004204
0.000432819
0.000453374
0.000487128
0.000535039
0.000598544
0.000680678
0.000780829
0.000897345
0.00102798
0.00116722
0.00131572
0.00147242
0.00163304
0.00179243
0.00194953
0.00210021
0.00224754
0.00238242
0.00250832
0.00262432
0.00273469
0.00283795
0.00293637
0.00302906
0.00311624
0.00319756
0.00327368
0.00334527
0.00341235
0.00347594
0.00353742
0.00359592
0.0036553
0.00371196
0.00377401
0.00383243
0.00390419
0.00396925
0.00406325
0.00414137
0.00427189
0.00437719
0.00451617
0.00474587
0.0133867
0.00973549
0.00749877
0.00601471
0.0049715
0.00420536
0.00362319
0.00316822
0.00280477
0.00250861
0.00226389
0.0020584
0.00188444
0.00173495
0.00160616
0.00149342
0.00139501
0.00130754
0.00123041
0.00116089
0.00109923
0.00104307
0.000992853
0.000946682
0.000905213
0.000866736
0.00083204
0.00079959
0.000770239
0.00074258
0.000717501
0.000693697
0.000672074
0.000651405
0.000632606
0.000614513
0.000598043
0.000582087
0.000567555
0.000553401
0.000540506
0.000527914
0.000516465
0.000505357
0.000495304
0.000486035
0.000478256
0.000471813
0.00046844
0.00047008
0.000478418
0.000492617
0.000522449
0.000571768
0.000644209
0.000743266
0.000871513
0.00102476
0.00120101
0.00139008
0.00159445
0.00180867
0.00202385
0.00223575
0.00243938
0.00263535
0.00281719
0.0029826
0.00313458
0.00327488
0.00340597
0.00352699
0.00364028
0.00374378
0.0038389
0.00392428
0.00400196
0.00407163
0.00413493
0.00419224
0.00424402
0.00429085
0.00433385
0.00437274
0.00440762
0.00443985
0.00447092
0.00450037
0.00453147
0.00456223
0.00459776
0.00463324
0.00468073
0.00472707
0.00480105
0.00486493
0.00498293
0.00506624
0.00521502
0.00540626
0.0133884
0.00973547
0.00749563
0.00600925
0.00496452
0.00419767
0.00361511
0.00316026
0.00279691
0.00250124
0.00225685
0.00205202
0.00187855
0.00172979
0.00160162
0.00148962
0.00139197
0.00130516
0.00122879
0.00116021
0.00109939
0.00104401
0.000994744
0.000949344
0.000908847
0.00087112
0.000837424
0.000805694
0.000777353
0.000750367
0.000726307
0.000703112
0.000682524
0.000662381
0.000644655
0.000626991
0.000611684
0.000596067
0.000582911
0.000569123
0.000558102
0.000546358
0.000538748
0.000530246
0.00052969
0.000532914
0.000549643
0.000574967
0.000627211
0.000712322
0.000838549
0.00100736
0.00121709
0.00145733
0.00172227
0.00200638
0.00229598
0.00258194
0.00285665
0.00311951
0.0033596
0.00357787
0.00377786
0.0039624
0.00413189
0.00428779
0.00442998
0.004558
0.00467255
0.00477398
0.00486416
0.00494347
0.00501374
0.00507486
0.00512827
0.00517343
0.00521168
0.00524311
0.00526872
0.00528922
0.00530488
0.00531684
0.00532723
0.00533312
0.00533644
0.00533869
0.00534096
0.00534323
0.00534779
0.00535444
0.00536431
0.00538059
0.00540335
0.00543758
0.00548828
0.00554424
0.00564663
0.00572072
0.00587321
0.00602807
0.0133902
0.00973492
0.0074915
0.0060025
0.00495614
0.00418855
0.00360568
0.00315103
0.00278792
0.00249289
0.00224897
0.00204506
0.00187213
0.0017245
0.00159691
0.00148621
0.00138899
0.00130367
0.00122828
0.00116089
0.00110104
0.00104694
0.000998675
0.000954541
0.000915093
0.000878608
0.000845977
0.000815455
0.000788172
0.000762366
0.000739356
0.000717309
0.000697817
0.000678794
0.000662343
0.000645892
0.0006324
0.000618485
0.00060908
0.000598803
0.000597704
0.000600791
0.000622478
0.000654268
0.000722537
0.000839086
0.00101694
0.00125813
0.00155209
0.00188797
0.00225452
0.00263139
0.00300267
0.00336106
0.00369593
0.00400097
0.00428039
0.00453722
0.00477209
0.00498686
0.00518087
0.00535436
0.00550805
0.00564384
0.0057632
0.00586775
0.00595879
0.00603702
0.00610341
0.00615844
0.00620339
0.0062388
0.006266
0.00628535
0.00629809
0.00630416
0.00630448
0.00629958
0.00629
0.00627653
0.0062594
0.0062397
0.0062182
0.00619505
0.00617046
0.00614533
0.00612199
0.00609882
0.00608029
0.00606416
0.00605464
0.00605649
0.00606523
0.00608593
0.00611698
0.00616803
0.00625575
0.00632527
0.00648449
0.00660649
0.0133922
0.00973365
0.00748627
0.00599423
0.00494621
0.00417783
0.00359482
0.00314041
0.00277785
0.00248351
0.00224046
0.0020375
0.00186559
0.00171916
0.00159265
0.00148311
0.00138746
0.00130368
0.00122933
0.00116378
0.00110502
0.00105279
0.00100563
0.000963423
0.000925067
0.000890522
0.000858989
0.000830439
0.00080429
0.000780604
0.000758776
0.000739246
0.000721261
0.000705507
0.000692188
0.000681387
0.000675218
0.000679901
0.000688458
0.000732253
0.000792952
0.000915096
0.00111984
0.00141195
0.0017774
0.0022031
0.00266431
0.00313184
0.00359066
0.00402471
0.0044237
0.00479133
0.00512882
0.00543761
0.00571775
0.00596921
0.0061926
0.00639018
0.00656397
0.00671646
0.00684909
0.00696308
0.00705987
0.00714075
0.00720716
0.0072603
0.00730172
0.00733223
0.00735285
0.0073642
0.00736727
0.00736265
0.00735129
0.00733368
0.00731079
0.00728276
0.00725043
0.00721416
0.00717451
0.00713215
0.00708734
0.0070411
0.00699369
0.00694613
0.00689844
0.00685087
0.00680677
0.00676288
0.00672586
0.0066911
0.0066655
0.00664906
0.00664983
0.00666221
0.00668167
0.00672853
0.00680517
0.00687229
0.0070425
0.00713736
0.0133946
0.00973133
0.00747983
0.00598415
0.00493459
0.00416537
0.00358241
0.00312844
0.00276666
0.00247323
0.00223145
0.00202962
0.00185929
0.00171422
0.00158926
0.00148188
0.00138767
0.00130588
0.00123317
0.00116974
0.00111256
0.0010626
0.00101699
0.000977231
0.000940438
0.000908733
0.000878943
0.000853835
0.000830094
0.000810761
0.000792702
0.000780495
0.000768977
0.000769914
0.000780016
0.000797866
0.000860598
0.000952483
0.0011329
0.00142601
0.00182423
0.00230873
0.00284833
0.00340337
0.0039542
0.00447337
0.00495655
0.00540296
0.00581335
0.00618716
0.00652348
0.00682352
0.00708922
0.0073236
0.00752882
0.00770743
0.00786079
0.00799107
0.00810036
0.00819077
0.00826409
0.00832132
0.00836474
0.00839492
0.00841333
0.00842074
0.00841899
0.0084083
0.00838982
0.00836413
0.008332
0.00829397
0.00825075
0.00820283
0.00815093
0.00809531
0.00803665
0.00797527
0.00791166
0.0078464
0.00777976
0.00771269
0.00764522
0.00757865
0.00751307
0.00744829
0.0073884
0.00732878
0.00727807
0.007229
0.007193
0.00715895
0.0071535
0.0071616
0.00717575
0.00721954
0.0072913
0.00735758
0.00754256
0.00761735
0.0133973
0.00972746
0.00747224
0.00597173
0.00492133
0.00415088
0.00356848
0.00311517
0.0027544
0.00246246
0.00222214
0.00202205
0.0018538
0.00171037
0.0015882
0.00148238
0.0013908
0.00131092
0.00124071
0.00117951
0.00112477
0.00107755
0.00103488
0.00099864
0.000966128
0.000939605
0.000915926
0.000899844
0.000885304
0.000880811
0.000887224
0.000897759
0.000945426
0.00100808
0.00113815
0.00136108
0.00172092
0.00219831
0.00277117
0.00338881
0.00402074
0.00463187
0.00521015
0.00574859
0.00624672
0.00670074
0.00710983
0.00747489
0.00779884
0.00808401
0.00833327
0.00854923
0.00873391
0.00889075
0.00902172
0.00913005
0.00921717
0.00928512
0.00933603
0.00937146
0.00939334
0.00940167
0.00940028
0.00938786
0.00936642
0.00933665
0.00929963
0.00925598
0.00920644
0.00915154
0.0090919
0.00902795
0.00896022
0.00888914
0.00881526
0.00873886
0.00866049
0.00858045
0.00849915
0.0084171
0.00833456
0.00825242
0.0081706
0.00809047
0.00801222
0.00793542
0.0078646
0.00779424
0.0077344
0.00767572
0.00763312
0.00758966
0.00757767
0.00758366
0.00759635
0.00763832
0.00771124
0.00777853
0.00798155
0.0080439
0.0134002
0.0097217
0.0074636
0.00595638
0.00490686
0.0041338
0.00355361
0.00310035
0.00274162
0.00245157
0.00221295
0.00201585
0.00184926
0.00170897
0.00158913
0.00148537
0.00139719
0.00131887
0.00125298
0.00119411
0.00114508
0.0011034
0.00106882
0.00104358
0.00102529
0.00101571
0.00101951
0.00103424
0.00105803
0.00111473
0.00120036
0.00135255
0.00160903
0.00199053
0.00250748
0.00312031
0.00378678
0.00446732
0.00513177
0.00576442
0.00635842
0.00690598
0.00740488
0.00785238
0.00825193
0.00860472
0.00891347
0.00918137
0.00941142
0.00960658
0.00977076
0.00990649
0.0100161
0.010103
0.0101683
0.0102158
0.0102465
0.0102619
0.0102642
0.0102549
0.0102349
0.010205
0.0101673
0.0101218
0.0100697
0.0100115
0.00994796
0.0098797
0.00980723
0.009731
0.00965147
0.00956899
0.00948394
0.00939667
0.00930759
0.00921698
0.00912527
0.00903273
0.00893974
0.00884671
0.00875394
0.0086622
0.00857141
0.00848291
0.00839697
0.00831306
0.00823592
0.00815956
0.00809482
0.00803121
0.0079854
0.00793808
0.00792335
0.00792892
0.00794238
0.00798399
0.00806353
0.0081337
0.00835733
0.00841498
0.0134027
0.00971428
0.00745378
0.00593784
0.00489161
0.00411353
0.0035389
0.00308332
0.00272993
0.00244008
0.00220536
0.00201071
0.00184588
0.00170931
0.00159034
0.00149155
0.00140556
0.00133289
0.00127543
0.00122495
0.00119652
0.00117091
0.00117205
0.00118319
0.00121518
0.00126124
0.00134312
0.00146255
0.00164201
0.00190682
0.00228451
0.00278525
0.00338975
0.00405883
0.00475553
0.00544982
0.00612315
0.00676124
0.00735472
0.00789716
0.00838687
0.00882377
0.00921017
0.00954669
0.00983854
0.0100877
0.0102981
0.0104739
0.0106175
0.0107322
0.0108222
0.0108884
0.0109349
0.0109636
0.0109747
0.0109734
0.0109591
0.0109332
0.0108978
0.0108538
0.0108023
0.0107439
0.0106797
0.0106102
0.0105362
0.010458
0.0103762
0.0102912
0.0102035
0.0101132
0.0100209
0.00992673
0.00983098
0.00973392
0.00963587
0.00953706
0.00943785
0.00933847
0.00923927
0.00914061
0.00904277
0.00894646
0.00885164
0.00875953
0.0086705
0.00858404
0.0085048
0.00842685
0.00836103
0.00829686
0.00825099
0.00820429
0.00819131
0.00819775
0.00821398
0.00825718
0.00834788
0.00842254
0.00866813
0.00872884
0.013404
0.00970624
0.00744202
0.00591668
0.00487531
0.00409032
0.00352494
0.00306385
0.00272073
0.00242641
0.00220052
0.00200248
0.00184381
0.00170885
0.00159344
0.00150461
0.00142519
0.00138003
0.00134234
0.00134669
0.00136643
0.00141625
0.00149548
0.001623
0.00179627
0.00201619
0.00229897
0.0026603
0.00311677
0.00366388
0.00428368
0.0049471
0.00563023
0.00630984
0.00696865
0.00759178
0.00817022
0.00869779
0.00917273
0.00959416
0.00996329
0.0102832
0.010557
0.0107873
0.0109795
0.0111357
0.0112597
0.0113565
0.0114269
0.0114752
0.0115047
0.0115145
0.0115115
0.0114947
0.0114646
0.0114254
0.0113773
0.0113213
0.0112587
0.0111903
0.0111168
0.0110388
0.0109571
0.010872
0.0107841
0.0106936
0.0106009
0.0105062
0.01041
0.0103123
0.0102135
0.0101137
0.0100131
0.00991196
0.00981044
0.00970877
0.00960723
0.00950604
0.00940552
0.00930597
0.00920769
0.00911131
0.00901685
0.00892542
0.00883743
0.0087525
0.00867499
0.00859939
0.00853596
0.00847517
0.00843204
0.00839025
0.0083826
0.00839058
0.00841191
0.00845915
0.00856441
0.00864476
0.00891233
0.00898376
0.013404
0.00969906
0.00742679
0.00589425
0.00485672
0.00406557
0.00351067
0.0030426
0.00271165
0.00240801
0.00219354
0.00198596
0.00184437
0.00170723
0.00162224
0.00155327
0.00153722
0.00155627
0.00162118
0.00172542
0.00190994
0.00215509
0.00244733
0.00277912
0.00315073
0.00356914
0.00404355
0.00457317
0.00515311
0.00576794
0.00640287
0.0070374
0.00765679
0.00824553
0.00879522
0.00929802
0.00975081
0.0101517
0.0105022
0.0108037
0.0110589
0.0112721
0.0114462
0.0115845
0.0116921
0.0117711
0.0118246
0.0118579
0.0118698
0.0118665
0.0118501
0.0118181
0.0117767
0.0117261
0.011667
0.0116013
0.01153
0.0114538
0.0113734
0.0112894
0.0112025
0.0111131
0.0110215
0.0109282
0.0108333
0.0107372
0.01064
0.0105418
0.010443
0.0103436
0.0102437
0.0101436
0.0100432
0.0099429
0.00984269
0.0097428
0.00964345
0.00954485
0.00944728
0.00935101
0.00925635
0.00916386
0.00907362
0.00898665
0.00890337
0.00882356
0.00875118
0.00868141
0.00862342
0.0085694
0.00853145
0.00849919
0.00849829
0.00850894
0.00853856
0.00859104
0.00871297
0.00879984
0.0090882
0.00917783
0.0134035
0.00969361
0.00740598
0.00587238
0.00483378
0.00404039
0.00349261
0.0030173
0.00269385
0.00237861
0.00218229
0.00197785
0.00187113
0.00176971
0.00177348
0.00181403
0.00192874
0.00212112
0.00244949
0.00284171
0.00327444
0.00371324
0.00414803
0.00458181
0.005027
0.00549648
0.00599746
0.00652796
0.0070804
0.00763969
0.00819387
0.00872775
0.00923223
0.00969724
0.0101194
0.0104945
0.0108226
0.0111038
0.0113415
0.0115371
0.0116948
0.0118179
0.0119105
0.0119742
0.0120146
0.012033
0.0120314
0.0120177
0.0119869
0.0119446
0.0118936
0.0118331
0.0117666
0.011695
0.0116183
0.0115375
0.0114534
0.0113665
0.0112773
0.0111863
0.0110939
0.0110003
0.0109058
0.0108106
0.0107149
0.0106188
0.0105224
0.0104259
0.0103293
0.0102326
0.010136
0.0100396
0.00994347
0.00984767
0.00975236
0.0096577
0.00956386
0.00947105
0.00937951
0.00928952
0.00920138
0.00911559
0.00903231
0.00895246
0.00887649
0.00880432
0.00873945
0.00867792
0.00862775
0.00858326
0.00855288
0.00853506
0.00853872
0.00855474
0.00859635
0.00865469
0.00879286
0.00888698
0.00919359
0.00930874
0.0134035
0.00968814
0.00737799
0.00585282
0.00480192
0.00401315
0.00346117
0.00297727
0.00266195
0.00236093
0.00219474
0.00204559
0.00205349
0.00211368
0.00228403
0.00258697
0.00307393
0.00363585
0.00421686
0.00474908
0.00522866
0.0056511
0.00604338
0.00642856
0.00682455
0.007242
0.007681
0.00813655
0.00859868
0.0090541
0.00949366
0.00990615
0.0102858
0.0106264
0.0109272
0.011186
0.011404
0.0115829
0.0117261
0.0118353
0.0119146
0.0119663
0.0119957
0.012002
0.0119939
0.0119718
0.0119332
0.0118859
0.0118281
0.0117624
0.0116909
0.0116137
0.0115317
0.0114463
0.0113584
0.0112686
0.0111775
0.0110856
0.010993
0.0109001
0.0108071
0.0107141
0.0106213
0.0105288
0.0104366
0.0103449
0.0102535
0.0101626
0.0100721
0.00998217
0.00989274
0.00980389
0.00971566
0.00962814
0.00954142
0.00945563
0.00937093
0.0092875
0.00920556
0.00912536
0.00904721
0.00897156
0.00889863
0.00882923
0.00876384
0.0087025
0.0086482
0.00859798
0.00855773
0.00852416
0.0085037
0.00849831
0.00850722
0.00853145
0.00858713
0.008651
0.00880368
0.00890506
0.00922571
0.00937354
0.0134068
0.00967838
0.00734505
0.00583313
0.0047505
0.00397603
0.00339399
0.00294388
0.00265376
0.00241637
0.0023927
0.00245918
0.00268695
0.00307507
0.00373211
0.00447759
0.00518735
0.00581523
0.00632753
0.00672911
0.00706651
0.00735557
0.00763508
0.00792166
0.00822637
0.00855302
0.00889621
0.00924949
0.00960195
0.00994277
0.0102649
0.0105604
0.010825
0.0110558
0.0112519
0.0114134
0.0115418
0.0116388
0.0117089
0.011755
0.0117793
0.0117807
0.0117681
0.011739
0.0116938
0.0116389
0.011574
0.011503
0.0114261
0.0113447
0.0112602
0.0111731
0.0110844
0.0109946
0.0109042
0.0108135
0.0107229
0.0106327
0.0105431
0.0104542
0.010366
0.0102787
0.0101924
0.0101069
0.0100224
0.00993876
0.00985602
0.00977415
0.00969312
0.00961292
0.00953356
0.00945505
0.00937742
0.00930075
0.00922511
0.0091506
0.00907736
0.00900557
0.00893542
0.00886716
0.00880106
0.00873759
0.00867698
0.00861994
0.00856696
0.00851819
0.00847613
0.00843874
0.00841058
0.00839077
0.00838387
0.00838827
0.00840734
0.00844098
0.00851238
0.00858185
0.00874691
0.00885456
0.00918267
0.00936867
0.0134136
0.00965842
0.00731239
0.00579377
0.00466343
0.00393076
0.00334954
0.00299408
0.00282679
0.00288095
0.00313614
0.00356769
0.00441094
0.0052812
0.00614538
0.006847
0.00737615
0.00777384
0.00804906
0.00824831
0.00841285
0.00856278
0.00872532
0.00890712
0.00911321
0.00934163
0.00958428
0.00983371
0.0100802
0.0103148
0.0105322
0.0107266
0.0108951
0.0110372
0.0111542
0.0112444
0.0113085
0.0113484
0.0113655
0.0113616
0.0113439
0.0113093
0.0112617
0.0112048
0.0111389
0.0110668
0.0109889
0.0109073
0.0108228
0.0107362
0.0106486
0.0105605
0.0104723
0.0103845
0.0102974
0.0102112
0.0101262
0.0100425
0.0099601
0.00987911
0.00979954
0.0097214
0.00964467
0.0095693
0.00949526
0.00942248
0.00935092
0.00928051
0.00921121
0.00914299
0.00907582
0.00900971
0.00894469
0.00888082
0.00881813
0.00875675
0.00869678
0.00863839
0.00858174
0.00852709
0.00847465
0.00842494
0.00837819
0.00833499
0.00829579
0.00826091
0.00823229
0.00820887
0.00819347
0.00818874
0.00819194
0.00820734
0.00824024
0.00828158
0.00836668
0.00844121
0.00861695
0.00872995
0.0090579
0.00929251
0.0134219
0.00962701
0.00727272
0.00568713
0.00459991
0.00392987
0.00345049
0.00346619
0.00365088
0.00411406
0.00503337
0.00608557
0.00708924
0.00780338
0.00836953
0.00871853
0.00892573
0.00904326
0.00909984
0.00912543
0.00915282
0.00919316
0.00925986
0.00934979
0.00946741
0.00960637
0.00975824
0.00991617
0.0100724
0.0102227
0.0103601
0.0104796
0.0105785
0.0106544
0.0107071
0.0107395
0.0107527
0.0107486
0.0107317
0.0106999
0.0106543
0.0105989
0.0105353
0.0104656
0.0103904
0.0103117
0.0102299
0.0101466
0.0100623
0.00997781
0.00989369
0.00981036
0.00972815
0.00964735
0.00956812
0.00949061
0.00941489
0.00934103
0.00926902
0.00919887
0.00913054
0.00906399
0.00899917
0.00893602
0.00887444
0.00881436
0.0087557
0.00869839
0.00864237
0.00858761
0.00853405
0.00848171
0.00843062
0.00838081
0.00833233
0.00828527
0.00823973
0.00819584
0.00815376
0.00811373
0.00807593
0.00804097
0.00800899
0.00798044
0.0079557
0.00793547
0.00792076
0.00791171
0.00790992
0.0079173
0.00793287
0.00796084
0.00800489
0.00805528
0.00815012
0.00822901
0.00841123
0.00852764
0.0088447
0.00913123
0.0134256
0.00958206
0.00716872
0.0056114
0.00468698
0.00426905
0.00439122
0.00483579
0.00566619
0.00699938
0.00801976
0.00879754
0.00925696
0.00949347
0.0096316
0.00964177
0.00961103
0.00954361
0.00945709
0.00937261
0.00930775
0.00926719
0.00926222
0.00927974
0.00933067
0.00940184
0.00948596
0.00957665
0.00966578
0.00974641
0.00981733
0.00987552
0.00991905
0.00994735
0.00995967
0.00995732
0.00994318
0.00991751
0.00987942
0.00983022
0.00977301
0.0097093
0.00964042
0.00956788
0.00949241
0.00941527
0.00933704
0.00925864
0.00918068
0.0091036
0.00902786
0.00895375
0.00888147
0.0088112
0.00874303
0.008677
0.00861315
0.00855146
0.00849192
0.00843447
0.00837906
0.00832563
0.00827413
0.00822445
0.00817649
0.00813015
0.00808535
0.00804203
0.00800012
0.00795957
0.00792034
0.00788244
0.00784593
0.00781081
0.0077771
0.00774489
0.00771429
0.00768534
0.00765819
0.00763313
0.00761029
0.00759046
0.00757356
0.00755968
0.0075494
0.00754401
0.00754288
0.00754804
0.00755836
0.00757952
0.00760567
0.00764599
0.00769847
0.00775903
0.00785848
0.00794185
0.00812426
0.00824362
0.0085375
0.00887728
0.0134182
0.00946336
0.00712002
0.00581714
0.0055664
0.00585743
0.0066314
0.00804127
0.00919312
0.00987316
0.0101172
0.0101885
0.0101589
0.010073
0.00993075
0.00974884
0.00955855
0.0093727
0.00920184
0.00905438
0.00893982
0.00885606
0.00880712
0.00878001
0.00877903
0.00879592
0.0088257
0.0088628
0.00890219
0.00893809
0.00896789
0.00898905
0.00900021
0.00899996
0.00899007
0.00897139
0.00894363
0.0089064
0.00885959
0.00880619
0.00874749
0.00868467
0.00861879
0.008551
0.0084819
0.00841239
0.00834299
0.00827432
0.00820687
0.00814097
0.00807693
0.00801495
0.00795517
0.00789768
0.00784251
0.00778965
0.00773911
0.00769086
0.00764486
0.00760104
0.00755932
0.00751969
0.00748207
0.00744634
0.00741234
0.00738003
0.00734929
0.00732012
0.0072924
0.00726612
0.00724121
0.00721778
0.00719584
0.00717535
0.00715631
0.00713883
0.00712301
0.00710867
0.00709615
0.00708571
0.00707756
0.00707279
0.0070706
0.00707051
0.00707417
0.00708248
0.00709465
0.00711356
0.00713526
0.0071693
0.00720436
0.00725661
0.00731392
0.00738606
0.00748311
0.00757599
0.00774443
0.00787335
0.00812782
0.00851604
0.0132881
0.00939338
0.00759832
0.00768991
0.00827168
0.00939785
0.0109854
0.0112762
0.0111922
0.0110138
0.0106928
0.0103488
0.0100085
0.00968595
0.0093875
0.00910608
0.00884888
0.00861981
0.00842351
0.00825828
0.00812598
0.00802229
0.00794993
0.007899
0.00787048
0.00785657
0.00785603
0.007863
0.00787334
0.00788278
0.00788887
0.00788918
0.00788354
0.00787091
0.00785214