/*--------------------------------*- C++ -*----------------------------------*\
| =========                 |                                                 |
| \\      /  F ield         | OpenFOAM: The Open Source CFD Toolbox           |
|  \\    /   O peration     | Version:  v1912                                 |
|   \\  /    A nd           | Website:  www.openfoam.com                      |
|    \\/     M anipulation  |                                                 |
\*---------------------------------------------------------------------------*/
FoamFile
{
    version     2.0;
    format      ascii;
    class       volScalarField;
    location    "181";
    object      nut;
}
// * * * * * * * * * * * * * * * * * * * * * * * * * * * * * * * * * * * * * //

dimensions      [0 2 -1 0 0 0 0];


internalField   nonuniform List<scalar> 
60000
(
3.89598e-05
3.66835e-05
3.51999e-05
3.41495e-05
3.33565e-05
3.27301e-05
3.22171e-05
3.17854e-05
3.14134e-05
3.10875e-05
3.07978e-05
3.05373e-05
3.03012e-05
3.00847e-05
2.98863e-05
2.97011e-05
2.95307e-05
2.9369e-05
2.92203e-05
2.90766e-05
2.89453e-05
2.8816e-05
2.8699e-05
2.85811e-05
2.84761e-05
2.83678e-05
2.82729e-05
2.81725e-05
2.80864e-05
2.79928e-05
2.79142e-05
2.78263e-05
2.77542e-05
2.76715e-05
2.7605e-05
2.75268e-05
2.74652e-05
2.73911e-05
2.73338e-05
2.72634e-05
2.72099e-05
2.71429e-05
2.70926e-05
2.70289e-05
2.69813e-05
2.69207e-05
2.68754e-05
2.6818e-05
2.67744e-05
2.67202e-05
2.66778e-05
2.66269e-05
2.65852e-05
2.65378e-05
2.64965e-05
2.64525e-05
2.64111e-05
2.63709e-05
2.63289e-05
2.6293e-05
2.62493e-05
2.62188e-05
2.61723e-05
2.61482e-05
2.6098e-05
2.6081e-05
2.60271e-05
2.60168e-05
2.59606e-05
2.59556e-05
2.58993e-05
2.58985e-05
2.58434e-05
2.58477e-05
2.57936e-05
2.58058e-05
2.57518e-05
2.57755e-05
2.57218e-05
2.57607e-05
2.5709e-05
2.57671e-05
2.57211e-05
2.58038e-05
2.57694e-05
2.58849e-05
2.5871e-05
2.60312e-05
2.60588e-05
2.62708e-05
2.64806e-05
2.66581e-05
2.69547e-05
2.74107e-05
2.78126e-05
2.87611e-05
2.94653e-05
3.12015e-05
3.39113e-05
3.98264e-05
3.89611e-05
3.66862e-05
3.5203e-05
3.41529e-05
3.33604e-05
3.27344e-05
3.22216e-05
3.17903e-05
3.14184e-05
3.10928e-05
3.08032e-05
3.0543e-05
3.03069e-05
3.00909e-05
2.98924e-05
2.97079e-05
2.95373e-05
2.93765e-05
2.92275e-05
2.9085e-05
2.89535e-05
2.88254e-05
2.87082e-05
2.85918e-05
2.84866e-05
2.83798e-05
2.8285e-05
2.81861e-05
2.81002e-05
2.80081e-05
2.79298e-05
2.78436e-05
2.77721e-05
2.76909e-05
2.76252e-05
2.75485e-05
2.74878e-05
2.74152e-05
2.73589e-05
2.729e-05
2.72375e-05
2.7172e-05
2.71228e-05
2.70605e-05
2.7014e-05
2.69549e-05
2.69106e-05
2.68547e-05
2.6812e-05
2.67594e-05
2.67177e-05
2.66685e-05
2.66275e-05
2.65817e-05
2.65409e-05
2.64987e-05
2.64578e-05
2.64192e-05
2.63777e-05
2.63431e-05
2.63003e-05
2.62703e-05
2.62257e-05
2.62008e-05
2.61538e-05
2.61343e-05
2.60855e-05
2.60706e-05
2.60213e-05
2.60098e-05
2.5962e-05
2.59531e-05
2.5908e-05
2.59023e-05
2.586e-05
2.58601e-05
2.58197e-05
2.58295e-05
2.57908e-05
2.58143e-05
2.57791e-05
2.58208e-05
2.57943e-05
2.58585e-05
2.58515e-05
2.59462e-05
2.59741e-05
2.61185e-05
2.62197e-05
2.64677e-05
2.67243e-05
2.71062e-05
2.76501e-05
2.84517e-05
2.95721e-05
3.13747e-05
3.3997e-05
3.80085e-05
4.57065e-05
5.75505e-05
3.89624e-05
3.6689e-05
3.52061e-05
3.41558e-05
3.33628e-05
3.27364e-05
3.22235e-05
3.17921e-05
3.14202e-05
3.1095e-05
3.08055e-05
3.05461e-05
3.03102e-05
3.00953e-05
2.9897e-05
2.97141e-05
2.95437e-05
2.93849e-05
2.92362e-05
2.90959e-05
2.89647e-05
2.88392e-05
2.87223e-05
2.86089e-05
2.85042e-05
2.84005e-05
2.83062e-05
2.82107e-05
2.81255e-05
2.80368e-05
2.79596e-05
2.78767e-05
2.78064e-05
2.77287e-05
2.76645e-05
2.75912e-05
2.75324e-05
2.7463e-05
2.74089e-05
2.73431e-05
2.7293e-05
2.72307e-05
2.71839e-05
2.71249e-05
2.70808e-05
2.7025e-05
2.6983e-05
2.69306e-05
2.68901e-05
2.68411e-05
2.68014e-05
2.67558e-05
2.67166e-05
2.66745e-05
2.66353e-05
2.65968e-05
2.65573e-05
2.65222e-05
2.64822e-05
2.64505e-05
2.641e-05
2.63816e-05
2.63406e-05
2.63151e-05
2.62742e-05
2.62509e-05
2.62112e-05
2.6189e-05
2.61523e-05
2.61298e-05
2.60979e-05
2.60746e-05
2.60487e-05
2.60252e-05
2.60056e-05
2.59848e-05
2.5971e-05
2.59584e-05
2.59491e-05
2.59542e-05
2.59531e-05
2.59883e-05
2.60057e-05
2.60867e-05
2.61541e-05
2.63038e-05
2.65017e-05
2.6833e-05
2.72217e-05
2.79734e-05
2.87382e-05
3.04475e-05
3.20679e-05
3.57065e-05
3.88367e-05
4.58928e-05
5.11571e-05
6.28374e-05
7.14762e-05
9.04641e-05
3.89637e-05
3.66917e-05
3.5209e-05
3.41582e-05
3.3365e-05
3.27385e-05
3.22256e-05
3.17945e-05
3.14229e-05
3.10983e-05
3.08094e-05
3.0551e-05
3.03159e-05
3.01023e-05
2.99049e-05
2.97239e-05
2.95545e-05
2.9398e-05
2.92503e-05
2.9113e-05
2.89828e-05
2.88608e-05
2.87451e-05
2.86356e-05
2.85322e-05
2.84329e-05
2.83402e-05
2.82492e-05
2.81658e-05
2.8082e-05
2.80069e-05
2.79291e-05
2.78613e-05
2.77887e-05
2.77274e-05
2.76593e-05
2.76036e-05
2.75395e-05
2.74886e-05
2.74283e-05
2.73815e-05
2.73247e-05
2.72813e-05
2.72279e-05
2.71872e-05
2.71372e-05
2.70984e-05
2.70519e-05
2.70143e-05
2.69713e-05
2.69344e-05
2.68949e-05
2.68582e-05
2.68223e-05
2.67852e-05
2.67529e-05
2.67152e-05
2.66863e-05
2.66478e-05
2.66221e-05
2.6583e-05
2.656e-05
2.65209e-05
2.64995e-05
2.64618e-05
2.64406e-05
2.64061e-05
2.63832e-05
2.63544e-05
2.63283e-05
2.63077e-05
2.62782e-05
2.6268e-05
2.62372e-05
2.62408e-05
2.62166e-05
2.62471e-05
2.62368e-05
2.63128e-05
2.63472e-05
2.64826e-05
2.66229e-05
2.69073e-05
2.72785e-05
2.78033e-05
2.87283e-05
2.95969e-05
3.16328e-05
3.33388e-05
3.72683e-05
4.02378e-05
4.68806e-05
5.14997e-05
6.14122e-05
6.74155e-05
8.0299e-05
8.742e-05
0.000102346
0.00011088
0.00012987
3.89651e-05
3.66943e-05
3.52115e-05
3.41601e-05
3.33665e-05
3.27397e-05
3.22269e-05
3.1796e-05
3.1425e-05
3.11011e-05
3.08131e-05
3.05558e-05
3.03221e-05
3.01101e-05
2.99145e-05
2.97355e-05
2.95682e-05
2.94144e-05
2.92691e-05
2.91351e-05
2.90076e-05
2.88896e-05
2.87768e-05
2.86718e-05
2.85717e-05
2.84774e-05
2.8388e-05
2.83029e-05
2.82233e-05
2.81456e-05
2.80748e-05
2.80034e-05
2.79403e-05
2.78746e-05
2.7818e-05
2.77569e-05
2.77063e-05
2.76496e-05
2.7604e-05
2.75512e-05
2.75097e-05
2.74607e-05
2.74226e-05
2.73773e-05
2.73415e-05
2.72999e-05
2.72658e-05
2.72279e-05
2.71947e-05
2.71605e-05
2.71274e-05
2.70971e-05
2.70633e-05
2.70371e-05
2.70019e-05
2.69799e-05
2.69429e-05
2.69251e-05
2.68858e-05
2.68723e-05
2.68307e-05
2.6821e-05
2.67777e-05
2.67713e-05
2.67273e-05
2.6724e-05
2.66815e-05
2.66813e-05
2.66443e-05
2.6653e-05
2.66366e-05
2.66622e-05
2.66838e-05
2.67534e-05
2.68291e-05
2.7002e-05
2.71749e-05
2.75738e-05
2.80334e-05
2.86856e-05
2.96107e-05
3.1057e-05
3.27484e-05
3.54403e-05
3.83057e-05
4.27048e-05
4.71124e-05
5.35929e-05
5.98287e-05
6.81193e-05
7.54769e-05
8.52894e-05
9.3769e-05
0.000104381
0.000112632
0.000123863
0.00013158
0.000144209
0.00015237
0.000170016
3.89666e-05
3.66968e-05
3.52134e-05
3.41612e-05
3.33671e-05
3.27398e-05
3.22273e-05
3.17967e-05
3.14266e-05
3.11035e-05
3.08171e-05
3.05613e-05
3.03297e-05
3.01197e-05
2.99268e-05
2.97505e-05
2.95865e-05
2.94359e-05
2.92946e-05
2.91646e-05
2.90415e-05
2.89284e-05
2.88203e-05
2.87214e-05
2.86259e-05
2.85379e-05
2.84548e-05
2.83767e-05
2.83035e-05
2.82336e-05
2.81697e-05
2.81072e-05
2.80509e-05
2.79938e-05
2.79449e-05
2.7893e-05
2.78504e-05
2.78031e-05
2.77658e-05
2.77227e-05
2.76896e-05
2.76506e-05
2.76207e-05
2.75857e-05
2.7558e-05
2.75269e-05
2.75005e-05
2.74734e-05
2.74472e-05
2.74242e-05
2.73972e-05
2.73786e-05
2.73498e-05
2.7336e-05
2.73044e-05
2.72959e-05
2.72605e-05
2.72579e-05
2.72181e-05
2.72226e-05
2.71783e-05
2.71922e-05
2.71448e-05
2.71735e-05
2.71385e-05
2.71969e-05
2.71925e-05
2.73203e-05
2.73623e-05
2.76056e-05
2.77762e-05
2.82547e-05
2.87732e-05
2.94624e-05
3.06186e-05
3.19052e-05
3.40123e-05
3.64452e-05
3.97883e-05
4.36059e-05
4.8366e-05
5.40029e-05
6.03661e-05
6.76497e-05
7.49653e-05
8.32522e-05
9.15806e-05
0.000100975
0.00010942
0.000118403
0.000126397
0.000134928
0.000142151
0.000150944
0.000158407
0.000168076
0.000175643
0.00018667
0.00019418
0.000210007
3.89681e-05
3.66991e-05
3.52151e-05
3.41616e-05
3.33669e-05
3.2739e-05
3.2227e-05
3.17966e-05
3.14281e-05
3.11058e-05
3.08219e-05
3.05675e-05
3.03392e-05
3.01315e-05
2.99429e-05
2.97694e-05
2.96108e-05
2.94638e-05
2.93288e-05
2.92032e-05
2.90875e-05
2.89796e-05
2.88798e-05
2.87857e-05
2.87e-05
2.86205e-05
2.8546e-05
2.84772e-05
2.84134e-05
2.83549e-05
2.82998e-05
2.82481e-05
2.8202e-05
2.81572e-05
2.81188e-05
2.80796e-05
2.80479e-05
2.80136e-05
2.79878e-05
2.79577e-05
2.79366e-05
2.79105e-05
2.78931e-05
2.78706e-05
2.78557e-05
2.78368e-05
2.78234e-05
2.7808e-05
2.77949e-05
2.77831e-05
2.77693e-05
2.77615e-05
2.7746e-05
2.77432e-05
2.77254e-05
2.77301e-05
2.77108e-05
2.77275e-05
2.77184e-05
2.77659e-05
2.77946e-05
2.79162e-05
2.80003e-05
2.82602e-05
2.85128e-05
2.90323e-05
2.98717e-05
3.06609e-05
3.19104e-05
3.38768e-05
3.62071e-05
3.93258e-05
4.31087e-05
4.75653e-05
5.30014e-05
5.91809e-05
6.62328e-05
7.36824e-05
8.15836e-05
8.97082e-05
9.85265e-05
0.000107811
0.000116739
0.00012539
0.00013359
0.000141639
0.000148767
0.00015583
0.000162521
0.000169638
0.000176304
0.000183487
0.000190012
0.000197302
0.00020401
0.000211889
0.000219027
0.000228215
0.000235017
0.000249101
3.89697e-05
3.67013e-05
3.52162e-05
3.41611e-05
3.33658e-05
3.27372e-05
3.2226e-05
3.17957e-05
3.14295e-05
3.11081e-05
3.08278e-05
3.05751e-05
3.03517e-05
3.01465e-05
2.99641e-05
2.97941e-05
2.9643e-05
2.95007e-05
2.93746e-05
2.92546e-05
2.91493e-05
2.90477e-05
2.89581e-05
2.88752e-05
2.88009e-05
2.87314e-05
2.86701e-05
2.8615e-05
2.85634e-05
2.85174e-05
2.84759e-05
2.84403e-05
2.84073e-05
2.838e-05
2.83547e-05
2.83344e-05
2.83158e-05
2.83014e-05
2.82886e-05
2.82791e-05
2.82712e-05
2.82658e-05
2.82619e-05
2.82599e-05
2.82591e-05
2.82599e-05
2.82616e-05
2.82648e-05
2.82692e-05
2.82746e-05
2.82841e-05
2.8294e-05
2.83139e-05
2.83402e-05
2.84002e-05
2.84951e-05
2.86287e-05
2.88534e-05
2.91765e-05
2.9769e-05
3.07663e-05
3.15788e-05
3.3223e-05
3.55589e-05
3.86698e-05
4.25848e-05
4.72938e-05
5.30535e-05
5.96714e-05
6.73213e-05
7.54022e-05
8.40971e-05
9.26652e-05
0.000101994
0.000111964
0.000121858
0.000131359
0.000140251
0.000148917
0.000156975
0.000164315
0.000170992
0.000177595
0.000184205
0.000190603
0.000196987
0.000203003
0.000208865
0.00021441
0.000219974
0.000225393
0.000230956
0.000236445
0.000242144
0.000248042
0.000254176
0.000260836
0.000268103
0.00027446
0.000286641
3.89713e-05
3.67034e-05
3.52166e-05
3.416e-05
3.33636e-05
3.27345e-05
3.22242e-05
3.17947e-05
3.14311e-05
3.11112e-05
3.08355e-05
3.0585e-05
3.03684e-05
3.01661e-05
2.99926e-05
2.98267e-05
2.96863e-05
2.95496e-05
2.9436e-05
2.93234e-05
2.92303e-05
2.91376e-05
2.90675e-05
2.89926e-05
2.89385e-05
2.88822e-05
2.88409e-05
2.87958e-05
2.87668e-05
2.8736e-05
2.87172e-05
2.86984e-05
2.86881e-05
2.86801e-05
2.86767e-05
2.86784e-05
2.86805e-05
2.8691e-05
2.8697e-05
2.87155e-05
2.8724e-05
2.87502e-05
2.87598e-05
2.8794e-05
2.8804e-05
2.88475e-05
2.88611e-05
2.89204e-05
2.89448e-05
2.90492e-05
2.91487e-05
2.93535e-05
2.96029e-05
3.00917e-05
3.11069e-05
3.19627e-05
3.35919e-05
3.61025e-05
3.97352e-05
4.43763e-05
5.01911e-05
5.73637e-05
6.57071e-05
7.4983e-05
8.49599e-05
9.50634e-05
0.000105637
0.000117011
0.000128539
0.00013946
0.000149788
0.000159527
0.00016897
0.000177297
0.000184811
0.000191847
0.000198877
0.000205672
0.000212341
0.000218745
0.000224837
0.000230503
0.000235862
0.00024102
0.0002459
0.00025063
0.000255177
0.000259503
0.000263787
0.000267895
0.000272127
0.000276172
0.000280542
0.000284746
0.000289777
0.000294387
0.000300471
0.000305942
0.000312399
0.000322058
3.89731e-05
3.67055e-05
3.52164e-05
3.41582e-05
3.33602e-05
3.27314e-05
3.22213e-05
3.1794e-05
3.14326e-05
3.11164e-05
3.0845e-05
3.05993e-05
3.03899e-05
3.01931e-05
3.00303e-05
2.98705e-05
2.97447e-05
2.96148e-05
2.95189e-05
2.94106e-05
2.93437e-05
2.92615e-05
2.92161e-05
2.91553e-05
2.91295e-05
2.90805e-05
2.90721e-05
2.90402e-05
2.90476e-05
2.90292e-05
2.90502e-05
2.90437e-05
2.90764e-05
2.90805e-05
2.91229e-05
2.91365e-05
2.91867e-05
2.92093e-05
2.92649e-05
2.92978e-05
2.93568e-05
2.94038e-05
2.94668e-05
2.95431e-05
2.96139e-05
2.97733e-05
2.99301e-05
3.02575e-05
3.06584e-05
3.1731e-05
3.29998e-05
3.45516e-05
3.77896e-05
4.2365e-05
4.86652e-05
5.66562e-05
6.64499e-05
7.7472e-05
8.9602e-05
0.000101861
0.00011498
0.000129019
0.000142376
0.000155037
0.000166888
0.000178285
0.00018858
0.0001977
0.000206136
0.000214384
0.000222413
0.000230103
0.000237544
0.000244526
0.000251032
0.000256998
0.000262626
0.000267899
0.000272919
0.000277684
0.000282179
0.000286401
0.000290417
0.000294182
0.00029765
0.00030087
0.000304083
0.000306833
0.000310044
0.000312752
0.00031589
0.000318541
0.000321705
0.000324735
0.000328745
0.000332491
0.000337393
0.000341677
0.00034813
0.000355302
3.89751e-05
3.67073e-05
3.52155e-05
3.41556e-05
3.33556e-05
3.27276e-05
3.22176e-05
3.17942e-05
3.14343e-05
3.11249e-05
3.08568e-05
3.06207e-05
3.0417e-05
3.02322e-05
3.00787e-05
2.99322e-05
2.98214e-05
2.97027e-05
2.96229e-05
2.95403e-05
2.94937e-05
2.94348e-05
2.94184e-05
2.93726e-05
2.93791e-05
2.93545e-05
2.93845e-05
2.93758e-05
2.94264e-05
2.94311e-05
2.95007e-05
2.95159e-05
2.96039e-05
2.96262e-05
2.97331e-05
2.9759e-05
2.9888e-05
2.99149e-05
3.0074e-05
3.0109e-05
3.03167e-05
3.03935e-05
3.07783e-05
3.09586e-05
3.18224e-05
3.28955e-05
3.47242e-05
3.73215e-05
4.13819e-05
4.87291e-05
5.806e-05
6.97852e-05
8.33943e-05
9.80954e-05
0.00011357
0.000130309
0.00014648
0.000161827
0.000176214
0.000189965
0.000202166
0.000213065
0.000223562
0.000233712
0.000243383
0.000252646
0.000261368
0.000269438
0.000276862
0.000283758
0.00029023
0.000296292
0.000302017
0.000307369
0.000312372
0.00031695
0.00032118
0.00032506
0.00032864
0.000331965
0.000335001
0.000337841
0.000340658
0.000343075
0.000345206
0.000347279
0.000349176
0.000351037
0.000352791
0.000354754
0.000356049
0.000357719
0.000359402
0.000362212
0.000364578
0.000368067
0.000371522
0.000375504
0.000381206
0.000386216
3.89778e-05
3.67088e-05
3.52141e-05
3.41518e-05
3.33501e-05
3.27228e-05
3.22138e-05
3.17949e-05
3.1438e-05
3.11371e-05
3.08734e-05
3.06511e-05
3.04527e-05
3.02883e-05
3.01407e-05
3.00223e-05
2.99109e-05
2.98316e-05
2.97733e-05
2.97212e-05
2.97026e-05
2.96722e-05
2.96792e-05
2.96777e-05
2.97171e-05
2.97375e-05
2.9804e-05
2.98441e-05
2.99346e-05
2.9993e-05
3.01052e-05
3.01798e-05
3.03151e-05
3.04037e-05
3.05696e-05
3.06757e-05
3.08998e-05
3.10379e-05
3.14409e-05
3.16732e-05
3.25753e-05
3.36822e-05
3.60985e-05
3.81369e-05
4.39126e-05
5.21079e-05
6.43206e-05
7.92186e-05
9.59929e-05
0.000114193
0.00013373
0.000152666
0.000170615
0.000187704
0.000203412
0.000217426
0.000230784
0.000243596
0.000255739
0.0002673
0.000278098
0.000288031
0.000297222
0.000305801
0.000313815
0.000321323
0.000328343
0.000334861
0.000340865
0.000346374
0.000351439
0.000356083
0.000360358
0.00036427
0.000367864
0.000371099
0.000374002
0.000376603
0.000378905
0.000380963
0.000382739
0.000384338
0.000385757
0.00038703
0.000387991
0.000388909
0.000389656
0.000390403
0.00039104
0.000391893
0.000392562
0.000393864
0.000394608
0.000396434
0.000397155
0.000400923
0.000402858
0.000406573
0.000411855
0.000414713
3.89815e-05
3.67093e-05
3.52121e-05
3.41462e-05
3.33436e-05
3.27168e-05
3.22105e-05
3.17959e-05
3.14458e-05
3.11527e-05
3.08999e-05
3.06903e-05
3.05062e-05
3.03614e-05
3.02312e-05
3.01303e-05
3.00586e-05
3.00103e-05
2.99766e-05
2.99726e-05
2.99682e-05
3.00006e-05
3.00375e-05
3.01035e-05
3.01734e-05
3.02707e-05
3.03714e-05
3.04996e-05
3.0628e-05
3.07944e-05
3.09436e-05
3.1167e-05
3.13438e-05
3.16524e-05
3.19304e-05
3.24537e-05
3.2924e-05
3.45882e-05
3.54163e-05
3.96698e-05
4.25781e-05
5.15058e-05
6.44529e-05
8.12986e-05
0.000100358
0.000121704
0.000143653
0.000164765
0.000185032
0.000203853
0.000220944
0.000237295
0.000252851
0.000267622
0.000281518
0.000294396
0.000306327
0.00031746
0.000327825
0.000337563
0.000346601
0.000354967
0.000362688
0.000369795
0.000376353
0.000382366
0.000387919
0.000393007
0.000397645
0.000401842
0.000405627
0.000409015
0.000412039
0.000414716
0.000417084
0.000419126
0.000420875
0.00042234
0.000423528
0.000424488
0.000425184
0.000425723
0.000426033
0.000426285
0.000426247
0.00042618
0.000425982
0.00042576
0.000425491
0.000425414
0.000425148
0.000425875
0.000426163
0.000427141
0.00042706
0.000430688
0.000431279
0.000434663
0.000439835
0.000440631
3.8987e-05
3.67075e-05
3.52102e-05
3.41378e-05
3.33364e-05
3.27096e-05
3.22079e-05
3.17995e-05
3.14585e-05
3.11758e-05
3.09394e-05
3.07439e-05
3.05848e-05
3.04601e-05
3.03546e-05
3.03057e-05
3.02537e-05
3.02583e-05
3.02529e-05
3.0305e-05
3.03459e-05
3.04493e-05
3.05323e-05
3.06843e-05
3.0808e-05
3.1016e-05
3.11845e-05
3.14561e-05
3.16948e-05
3.20438e-05
3.23875e-05
3.29514e-05
3.34697e-05
3.46073e-05
3.65666e-05
3.73921e-05
4.24974e-05
4.65903e-05
5.83517e-05
7.4846e-05
9.48877e-05
0.000117724
0.000141699
0.000165063
0.000187806
0.000208699
0.000228449
0.000247267
0.000265199
0.000282127
0.000297877
0.000312586
0.000326308
0.000339141
0.000351102
0.000362269
0.000372545
0.000382067
0.00039084
0.000399063
0.000406466
0.000413357
0.000419694
0.000425453
0.000430697
0.000435419
0.000439726
0.000443579
0.000447022
0.000450065
0.000452729
0.000455028
0.000456984
0.000458612
0.000459943
0.000460975
0.000461736
0.000462233
0.000462476
0.000462507
0.000462294
0.000461943
0.000461351
0.000460739
0.000459863
0.000458972
0.000457995
0.000456959
0.000455961
0.000455078
0.000454184
0.000453648
0.00045374
0.000454226
0.000453779
0.00045704
0.000456664
0.000459626
0.000464863
0.000463751
3.89944e-05
3.67013e-05
3.52101e-05
3.41238e-05
3.33312e-05
3.26999e-05
3.22085e-05
3.18077e-05
3.14779e-05
3.12134e-05
3.09948e-05
3.08234e-05
3.0697e-05
3.05961e-05
3.0549e-05
3.05235e-05
3.05324e-05
3.05812e-05
3.06397e-05
3.07584e-05
3.08663e-05
3.1063e-05
3.12389e-05
3.15181e-05
3.17994e-05
3.22022e-05
3.26075e-05
3.3259e-05
3.38692e-05
3.4814e-05
3.65361e-05
3.76872e-05
4.16173e-05
4.39838e-05
5.21621e-05
6.34301e-05
8.2311e-05
0.000103929
0.000128401
0.000153303
0.000178059
0.000201461
0.000223868
0.000245255
0.000265762
0.00028507
0.000303184
0.000320146
0.00033607
0.000350951
0.00036481
0.000377755
0.000389682
0.000400769
0.000411007
0.000420607
0.000429231
0.000437292
0.000444659
0.000451437
0.000457598
0.000463127
0.000468275
0.000472835
0.000476933
0.000480569
0.00048379
0.000486606
0.00048904
0.000491106
0.000492823
0.000494204
0.000495263
0.000496018
0.00049649
0.000496685
0.000496625
0.000496321
0.000495784
0.000495048
0.000494089
0.000493007
0.000491689
0.000490368
0.000488808
0.000487243
0.000485635
0.000483931
0.000482357
0.000480792
0.000479416
0.000478064
0.000477513
0.000477716
0.000477045
0.000479764
0.000478772
0.000481253
0.00048665
0.000483795
3.90029e-05
3.66897e-05
3.52141e-05
3.41009e-05
3.33346e-05
3.26825e-05
3.22221e-05
3.18175e-05
3.1514e-05
3.12712e-05
3.1072e-05
3.09484e-05
3.08403e-05
3.08021e-05
3.07965e-05
3.08162e-05
3.09191e-05
3.09924e-05
3.11785e-05
3.13607e-05
3.16418e-05
3.20321e-05
3.24368e-05
3.31355e-05
3.38784e-05
3.48805e-05
3.63531e-05
3.82747e-05
3.98571e-05
4.34997e-05
4.75821e-05
5.57436e-05
6.82772e-05
8.54274e-05
0.000107306
0.000131538
0.000156909
0.00018217
0.000206684
0.000230446
0.000253426
0.000275277
0.000296025
0.000315497
0.000333924
0.000351171
0.000367293
0.00038236
0.000396378
0.000409346
0.000421407
0.00043276
0.000442881
0.000452448
0.000461178
0.000469284
0.000476636
0.000483341
0.000489453
0.000495034
0.000500047
0.000504517
0.000508556
0.000512121
0.000515254
0.00051797
0.000520296
0.00052225
0.00052385
0.00052511
0.000526048
0.000526673
0.000527001
0.000527044
0.00052682
0.000526339
0.000525619
0.000524672
0.000523508
0.000522158
0.000520605
0.000518939
0.000517051
0.000515165
0.000513065
0.000510961
0.000508855
0.000506614
0.000504591
0.000502463
0.000500715
0.000498725
0.000497532
0.000497547
0.000496674
0.000498567
0.000497372
0.000499265
0.000504852
0.000500413
3.90099e-05
3.66751e-05
3.52228e-05
3.40687e-05
3.33531e-05
3.26517e-05
3.2265e-05
3.18175e-05
3.15944e-05
3.13355e-05
3.12017e-05
3.11078e-05
3.1028e-05
3.10654e-05
3.10873e-05
3.12481e-05
3.13595e-05
3.16055e-05
3.20209e-05
3.24103e-05
3.33588e-05
3.41321e-05
3.56699e-05
3.76258e-05
3.9765e-05
4.20633e-05
4.65311e-05
5.14755e-05
5.99261e-05
7.11783e-05
8.66662e-05
0.000106366
0.000129151
0.0001536
0.000178659
0.000203707
0.000228451
0.000252531
0.000275691
0.000297781
0.000318757
0.000338586
0.000357292
0.000374718
0.000391181
0.00040641
0.000420586
0.000433929
0.000446121
0.000457308
0.000467838
0.000477515
0.000486361
0.00049453
0.000501875
0.000508741
0.000514928
0.000520492
0.000525533
0.000530068
0.000534118
0.000537685
0.000540832
0.000543562
0.000545897
0.000547853
0.00054945
0.000550704
0.000551631
0.000552244
0.000552557
0.000552581
0.000552327
0.000551809
0.000551039
0.000550029
0.000548794
0.000547347
0.000545698
0.000543874
0.000541864
0.000539747
0.000537426
0.000535105
0.000532592
0.00053007
0.00052758
0.000524917
0.000522544
0.000519956
0.000517929
0.000515284
0.000513698
0.000513501
0.00051238
0.000513244
0.000512061
0.000513313
0.000519017
0.00051316
3.90126e-05
3.66645e-05
3.52322e-05
3.40339e-05
3.33856e-05
3.26115e-05
3.23465e-05
3.1803e-05
3.17451e-05
3.13767e-05
3.14234e-05
3.12266e-05
3.13207e-05
3.14193e-05
3.14541e-05
3.18621e-05
3.20663e-05
3.31241e-05
3.38575e-05
3.58978e-05
3.79807e-05
4.04996e-05
4.37455e-05
4.93734e-05
5.60806e-05
6.42526e-05
7.46941e-05
8.79276e-05
0.000104575
0.000124248
0.000146276
0.000169782
0.000194185
0.000218873
0.000243403
0.000267375
0.000290576
0.000312813
0.000334024
0.000354103
0.000372988
0.000390829
0.000407457
0.000422906
0.000437623
0.000450862
0.000463248
0.000474939
0.000485578
0.000495365
0.000504456
0.000512649
0.000520317
0.000527306
0.000533525
0.000539253
0.000544419
0.000549045
0.000553186
0.000556864
0.000560108
0.000562925
0.000565352
0.000567402
0.000569092
0.000570439
0.000571455
0.000572157
0.000572556
0.000572664
0.000572494
0.000572054
0.000571355
0.000570409
0.000569227
0.000567819
0.0005662
0.00056438
0.000562372
0.000560198
0.000557852
0.0005554
0.000552763
0.000550114
0.000547299
0.000544459
0.000541677
0.000538686
0.000536029
0.000533072
0.000530785
0.000527319
0.000525901
0.00052524
0.000523495
0.000523585
0.000522369
0.000522943
0.000528549
0.000521466
3.90094e-05
3.66673e-05
3.52327e-05
3.40106e-05
3.34213e-05
3.25802e-05
3.24548e-05
3.17884e-05
3.19435e-05
3.13731e-05
3.16999e-05
3.12753e-05
3.17881e-05
3.16003e-05
3.24932e-05
3.31299e-05
3.4953e-05
3.72528e-05
4.01331e-05
4.35669e-05
5.04497e-05
5.82813e-05
6.74021e-05
7.78428e-05
8.98518e-05
0.000103766
0.000119946
0.000138341
0.000158833
0.00018091
0.000204151
0.000227896
0.000251787
0.00027533
0.000298353
0.00032056
0.000341829
0.000362044
0.000381238
0.000399233
0.000416103
0.000432163
0.00044666
0.000460311
0.000473221
0.000485006
0.00049585
0.000506021
0.000515196
0.000523714
0.000531626
0.000538632
0.000545081
0.00055087
0.000556039
0.000560721
0.000564923
0.000568663
0.000571975
0.000574882
0.000577409
0.000579566
0.000581378
0.000582857
0.00058402
0.000584878
0.000585443
0.000585726
0.000585737
0.000585485
0.000584981
0.000584231
0.000583245
0.000582033
0.000580602
0.000578964
0.00057713
0.00057511
0.000572914
0.000570562
0.00056805
0.000565432
0.000562647
0.000559832
0.000556874
0.000553868
0.000550911
0.000547659
0.000544744
0.000541491
0.000538767
0.00053501
0.000533726
0.00053224
0.00052957
0.000529075
0.000527667
0.000527509
0.000532696
0.000524615
3.90046e-05
3.66899e-05
3.52114e-05
3.40179e-05
3.34412e-05
3.25784e-05
3.25561e-05
3.17697e-05
3.20989e-05
3.12937e-05
3.20769e-05
3.14032e-05
3.28052e-05
3.29449e-05
3.60072e-05
3.81269e-05
4.22189e-05
4.70953e-05
5.70647e-05
6.72484e-05
7.87341e-05
9.08681e-05
0.000103675
0.000117406
0.000132461
0.000149179
0.000167681
0.000187805
0.000209265
0.000231525
0.000254272
0.000276988
0.000299467
0.00032129
0.000342483
0.000362718
0.000381944
0.000400141
0.000417492
0.000433285
0.000448317
0.000462483
0.000475508
0.000487511
0.000498774
0.000508967
0.000518175
0.000526949
0.000534732
0.000541865
0.00054846
0.000554396
0.000559915
0.000565032
0.000569633
0.000573767
0.000577457
0.00058072
0.000583583
0.000586066
0.000588191
0.00058997
0.000591421
0.000592558
0.000593393
0.000593938
0.000594202
0.000594194
0.000593924
0.0005934
0.00059263
0.000591621
0.000590382
0.000588921
0.000587246
0.000585368
0.000583296
0.00058104
0.000578609
0.000576021
0.000573273
0.000570411
0.000567389
0.000564305
0.000561105
0.0005578
0.000554588
0.000551113
0.000547996
0.00054455
0.000541227
0.000538193
0.000535968
0.000533713
0.000530155
0.000529048
0.000527062
0.000526131
0.000530508
0.000521707
3.90017e-05
3.6724e-05
3.51595e-05
3.40772e-05
3.34078e-05
3.26147e-05
3.25641e-05
3.16725e-05
3.22302e-05
3.13788e-05
3.27047e-05
3.26513e-05
3.64107e-05
3.84635e-05
4.34368e-05
5.01639e-05
6.22107e-05
7.46606e-05
8.81921e-05
0.000101412
0.00011486
0.000128187
0.00014217
0.000157198
0.000173544
0.00019136
0.000210478
0.000230741
0.000251779
0.000273126
0.000294585
0.000315719
0.000336394
0.000356303
0.000375609
0.000393898
0.00041094
0.000427248
0.000442641
0.000456794
0.000469881
0.000482029
0.000493345
0.000503627
0.000513451
0.000522728
0.000531037
0.000538859
0.000545937
0.000552392
0.000558309
0.000563632
0.000568376
0.000572641
0.000576463
0.000579874
0.0005829
0.000585557
0.000587865
0.000589841
0.000591503
0.000592863
0.000593933
0.000594724
0.000595246
0.000595509
0.000595519
0.000595283
0.000594807
0.000594098
0.000593161
0.000592002
0.000590628
0.000589045
0.00058726
0.00058528
0.000583113
0.000580768
0.000578249
0.000575574
0.000572732
0.000569771
0.000566647
0.000563424
0.00056011
0.000556608
0.000553207
0.000549441
0.000545924
0.000541856
0.000538315
0.000535334
0.000531452
0.000528885
0.000524463
0.000522521
0.000519475
0.000517674
0.000520782
0.000511618
3.90131e-05
3.67468e-05
3.50979e-05
3.41833e-05
3.32414e-05
3.26648e-05
3.22675e-05
3.16689e-05
3.24346e-05
3.22411e-05
3.60291e-05
3.82179e-05
4.41076e-05
5.08861e-05
6.49812e-05
7.93419e-05
9.38143e-05
0.000108459
0.000122253
0.000135295
0.000148968
0.000162206
0.000176707
0.000192179
0.00020879
0.000226582
0.000245216
0.000264766
0.000284657
0.000304529
0.000324343
0.000343656
0.000362311
0.000380347
0.000397608
0.000413754
0.000428824
0.000443007
0.00045642
0.00046912
0.000481114
0.0004921
0.000502538
0.000512087
0.000520585
0.000528463
0.000535595
0.000542193
0.000548204
0.00055367
0.000558654
0.000563152
0.000567217
0.000570869
0.000574132
0.000577032
0.000579589
0.000581821
0.000583743
0.00058537
0.000586716
0.00058779
0.000588603
0.000589163
0.00058948
0.000589557
0.000589402
0.000589017
0.000588408
0.000587578
0.000586531
0.000585273
0.000583807
0.000582139
0.000580272
0.000578214
0.000575967
0.00057354
0.000570932
0.000568159
0.000565203
0.000562118
0.000558845
0.000555439
0.000551958
0.000548155
0.000544493
0.000540341
0.00053639
0.000532423
0.000528228
0.000524751
0.00051936
0.000516481
0.00051119
0.000508303
0.000503805
0.000500949
0.000502213
0.000492995
3.90392e-05
3.67266e-05
3.50824e-05
3.4205e-05
3.2835e-05
3.27034e-05
3.19607e-05
3.26068e-05
3.45144e-05
3.78168e-05
4.36682e-05
4.94835e-05
6.56354e-05
7.96126e-05
9.59952e-05
0.000110734
0.000124724
0.000138906
0.000151356
0.000164204
0.000177302
0.000190585
0.000204732
0.00021981
0.000235895
0.000252914
0.000270563
0.000288715
0.000307012
0.00032518
0.000343017
0.00036022
0.00037675
0.000392656
0.000408051
0.000422779
0.000436641
0.00044963
0.000461692
0.000472726
0.000483208
0.000492756
0.000501503
0.000509636
0.000517051
0.000523885
0.000530102
0.000535808
0.00054101
0.000545734
0.000550029
0.000553907
0.0005574
0.000560532
0.000563322
0.000565792
0.000567959
0.000569838
0.000571441
0.000572782
0.00057387
0.000574713
0.000575321
0.000575698
0.000575851
0.000575784
0.000575498
0.000574995
0.000574279
0.00057335
0.000572212
0.000570866
0.000569316
0.000567566
0.000565615
0.000563469
0.000561127
0.000558595
0.000555864
0.000552952
0.000549827
0.000546564
0.000543058
0.000539404
0.000535654
0.000531392
0.000527367
0.000522991
0.000518294
0.000514078
0.00050862
0.000504522
0.000498127
0.000494471
0.000487894
0.000483952
0.000477848
0.000473816
0.000472774
0.000464503
3.9067e-05
3.66636e-05
3.51126e-05
3.36632e-05
3.24899e-05
3.28744e-05
3.25231e-05
3.76183e-05
4.07631e-05
4.8036e-05
6.20731e-05
7.75503e-05
9.39474e-05
0.00010786
0.000123997
0.000136958
0.00014984
0.000162407
0.000174179
0.000185811
0.000197915
0.000210599
0.000224161
0.000238378
0.000253472
0.00026917
0.00028521
0.000301493
0.000317802
0.000334135
0.000350304
0.000366078
0.000381244
0.00039562
0.000409068
0.000421778
0.000433712
0.000444896
0.000455549
0.00046536
0.000474272
0.000482536
0.000490145
0.000497176
0.000503603
0.000509502
0.000514874
0.000519783
0.000524255
0.000528311
0.00053199
0.000535308
0.000538289
0.000540954
0.00054332
0.000545404
0.000547219
0.000548778
0.000550092
0.00055117
0.000552019
0.000552648
0.000553059
0.00055326
0.000553252
0.000553036
0.00055261
0.000551975
0.000551131
0.000550078
0.000548816
0.000547346
0.00054567
0.000543789
0.000541698
0.000539401
0.000536892
0.000534173
0.000531227
0.000528073
0.000524667
0.000521113
0.000517225
0.000513228
0.000509001
0.000504363
0.000499633
0.000494673
0.000489273
0.000484157
0.000477705
0.000472929
0.000465401
0.000460835
0.000452569
0.000447465
0.000439521
0.000434148
0.000430305
0.000423443
3.90534e-05
3.65782e-05
3.45249e-05
3.3031e-05
3.29473e-05
3.49304e-05
3.91087e-05
4.58257e-05
5.4905e-05
7.33164e-05
8.74194e-05
0.000103557
0.000116987
0.000129543
0.000142876
0.000154013
0.000165327
0.000176445
0.000187252
0.000198152
0.000209418
0.000221071
0.000233528
0.0002463
0.000260049
0.000274353
0.000289031
0.000303902
0.000318678
0.000333049
0.00034705
0.000360612
0.000373621
0.000386027
0.000397712
0.000408725
0.000419204
0.000429084
0.000438175
0.000446475
0.00045414
0.000461215
0.000467721
0.000473709
0.000479181
0.000484188
0.000488744
0.000492892
0.000496661
0.000500071
0.000503153
0.000505923