/*--------------------------------*- C++ -*----------------------------------*\
| =========                 |                                                 |
| \\      /  F ield         | OpenFOAM: The Open Source CFD Toolbox           |
|  \\    /   O peration     | Version:  v1912                                 |
|   \\  /    A nd           | Website:  www.openfoam.com                      |
|    \\/     M anipulation  |                                                 |
\*---------------------------------------------------------------------------*/
FoamFile
{
    version     2.0;
    format      ascii;
    class       volScalarField;
    location    "181";
    object      p;
}
// * * * * * * * * * * * * * * * * * * * * * * * * * * * * * * * * * * * * * //

dimensions      [0 2 -2 0 0 0 0];


internalField   nonuniform List<scalar> 
60000
(
0.142077
0.150783
0.169932
0.192197
0.211862
0.228615
0.243654
0.257193
0.26905
0.279357
0.288422
0.296464
0.303616
0.309997
0.315724
0.320894
0.325588
0.329872
0.333803
0.337432
0.340799
0.34394
0.346884
0.349657
0.352279
0.354769
0.357141
0.359408
0.361579
0.363663
0.365666
0.367593
0.369448
0.371233
0.372952
0.374607
0.376199
0.377729
0.379199
0.38061
0.381963
0.383258
0.384496
0.385679
0.386806
0.387877
0.388892
0.389852
0.390755
0.391602
0.39239
0.393119
0.393787
0.394392
0.394931
0.395402
0.395802
0.396127
0.396373
0.396536
0.396611
0.396592
0.396473
0.396248
0.395909
0.395447
0.394855
0.394121
0.393234
0.392183
0.390954
0.389531
0.387898
0.386037
0.383925
0.38154
0.378855
0.375841
0.372462
0.368681
0.364453
0.359729
0.354448
0.348544
0.341939
0.33454
0.326239
0.31691
0.306399
0.294527
0.281073
0.265784
0.248315
0.228347
0.205236
0.178912
0.147384
0.113723
0.0667727
0.0379978
0.141835
0.150585
0.169828
0.192153
0.211829
0.228585
0.24363
0.257173
0.269028
0.279335
0.2884
0.296442
0.303595
0.309976
0.315703
0.320874
0.325568
0.329853
0.333785
0.337414
0.340782
0.343924
0.346869
0.349642
0.352265
0.354755
0.357128
0.359396
0.361568
0.363653
0.365657
0.367584
0.36944
0.371227
0.372947
0.374602
0.376195
0.377726
0.379197
0.380609
0.381963
0.383259
0.384498
0.385681
0.386809
0.387881
0.388897
0.389857
0.390762
0.391609
0.392398
0.393127
0.393795
0.394401
0.394941
0.395412
0.395812
0.396138
0.396385
0.396548
0.396623
0.396604
0.396485
0.39626
0.395921
0.395459
0.394866
0.394131
0.393244
0.392193
0.390963
0.389539
0.387905
0.386042
0.383929
0.381543
0.378856
0.37584
0.372459
0.368676
0.364446
0.359718
0.354435
0.348528
0.34192
0.334518
0.326214
0.316882
0.306368
0.294493
0.281036
0.265745
0.248275
0.228306
0.205191
0.178869
0.14732
0.113693
0.0666121
0.0381003
0.141366
0.150204
0.169661
0.192126
0.211833
0.2286
0.243665
0.257218
0.269072
0.279375
0.288438
0.296477
0.303626
0.310004
0.315729
0.320897
0.325588
0.329871
0.333801
0.337429
0.340795
0.343935
0.346879
0.349651
0.352273
0.354763
0.357136
0.359403
0.361575
0.36366
0.365664
0.367592
0.369448
0.371235
0.372955
0.374611
0.376205
0.377736
0.379208
0.38062
0.381974
0.383271
0.38451
0.385694
0.386822
0.387894
0.388911
0.389872
0.390776
0.391624
0.392413
0.393143
0.393812
0.394418
0.394959
0.395431
0.395832
0.396158
0.396406
0.39657
0.396646
0.396628
0.39651
0.396285
0.395947
0.395486
0.394894
0.39416
0.393274
0.392223
0.390994
0.389571
0.387938
0.386076
0.383964
0.381578
0.378892
0.375876
0.372496
0.368713
0.364484
0.359757
0.354474
0.348568
0.34196
0.334559
0.326256
0.316925
0.306412
0.294538
0.281081
0.265788
0.248315
0.228342
0.205213
0.178891
0.147276
0.113733
0.0663107
0.038419
0.140658
0.149634
0.169431
0.192109
0.211859
0.228642
0.243737
0.257302
0.269151
0.279447
0.288504
0.296537
0.303679
0.310051
0.31577
0.320933
0.32562
0.329899
0.333826
0.33745
0.340814
0.343952
0.346893
0.349664
0.352285
0.354774
0.357145
0.359412
0.361584
0.363669
0.365673
0.367601
0.369457
0.371245
0.372966
0.374623
0.376217
0.377749
0.379222
0.380635
0.381989
0.383286
0.384527
0.385711
0.38684
0.387913
0.38893
0.389892
0.390797
0.391646
0.392436
0.393167
0.393837
0.394444
0.394986
0.395459
0.395861
0.396189
0.396437
0.396603
0.39668
0.396663
0.396547
0.396324
0.395987
0.395527
0.394937
0.394204
0.39332
0.39227
0.391042
0.389621
0.38799
0.386129
0.384018
0.381634
0.37895
0.375935
0.372557
0.368776
0.364547
0.359822
0.354541
0.348636
0.34203
0.334629
0.326326
0.316994
0.30648
0.294603
0.281141
0.265842
0.248356
0.228372
0.205214
0.178894
0.147181
0.113777
0.0658745
0.0388992
0.139705
0.148878
0.169143
0.192104
0.211909
0.228715
0.24385
0.257432
0.269273
0.279559
0.288608
0.296632
0.303765
0.310128
0.315839
0.320995
0.325676
0.329948
0.33387
0.33749
0.34085
0.343984
0.346923
0.349691
0.352309
0.354796
0.357167
0.359432
0.361603
0.363688
0.365692
0.36762
0.369477
0.371265
0.372987
0.374644
0.376239
0.377772
0.379244
0.380658
0.382013
0.383311
0.384552
0.385737
0.386866
0.38794
0.388958
0.38992
0.390827
0.391676
0.392467
0.393199
0.39387
0.394478
0.395021
0.395496
0.3959
0.396229
0.396479
0.396646
0.396725
0.396711
0.396596
0.396375
0.39604
0.395583
0.394994
0.394265
0.393382
0.392335
0.39111
0.389691
0.388062
0.386204
0.384096
0.381714
0.379032
0.37602
0.372644
0.368865
0.364639
0.359915
0.354635
0.348731
0.342124
0.334721
0.326415
0.317079
0.306557
0.294672
0.2812
0.26589
0.248389
0.228398
0.20521
0.178911
0.147091
0.113882
0.06542
0.0395175
0.138499
0.147933
0.1688
0.192114
0.211983
0.228819
0.244005
0.257606
0.269436
0.279708
0.288747
0.296759
0.303879
0.31023
0.31593
0.321077
0.325749
0.330014
0.333929
0.337543
0.340897
0.344027
0.346962
0.349726
0.352342
0.354826
0.357195
0.359459
0.361629
0.363713
0.365716
0.367645
0.369502
0.37129
0.373013
0.374671
0.376266
0.377799
0.379273
0.380687
0.382043
0.383341
0.384583
0.385769
0.386899
0.387973
0.388992
0.389956
0.390863
0.391713
0.392506
0.393239
0.393911
0.394521
0.395066
0.395542
0.395948
0.396279
0.396531
0.396701
0.396782
0.39677
0.396658
0.396439
0.396107
0.395653
0.395067
0.39434
0.393461
0.392417
0.391195
0.389779
0.388153
0.386298
0.384193
0.381814
0.379134
0.376125
0.37275
0.368972
0.364746
0.360022
0.354739
0.348831
0.342219
0.334811
0.326499
0.317155
0.306627
0.294737
0.28126
0.265949
0.248444
0.228461
0.205256
0.178996
0.147063
0.114072
0.0649999
0.040228
0.13703
0.146801
0.168409
0.192143
0.212081
0.228955
0.244202
0.257824
0.269639
0.279895
0.28892
0.296918
0.304022
0.310358
0.316045
0.32118
0.325842
0.330097
0.334004
0.337611
0.340959
0.344083
0.347012
0.349773
0.352385
0.354866
0.357232
0.359494
0.361663
0.363746
0.365749
0.367677
0.369535
0.371324
0.373046
0.374705
0.376301
0.377835
0.379309
0.380724
0.382081
0.38338
0.384622
0.385809
0.386939
0.388015
0.389034
0.389999
0.390907
0.391758
0.392552
0.393287
0.393961
0.394572
0.395119
0.395597
0.396005
0.396338
0.396593
0.396765
0.396849
0.39684
0.396731
0.396516
0.396187
0.395736
0.395154
0.39443
0.393554
0.392514
0.391295
0.389882
0.388259
0.386407
0.384304
0.381926
0.379246
0.376235
0.372859
0.369078
0.364849
0.36012
0.354834
0.348924
0.34231
0.334901
0.326589
0.317247
0.306723
0.294838
0.281365
0.266062
0.248561
0.228592
0.205372
0.179156
0.147105
0.114341
0.0646256
0.0409938
0.135286
0.14548
0.167979
0.192194
0.212206
0.229124
0.244443
0.258086
0.269883
0.280118
0.289128
0.297108
0.304192
0.310511
0.316183
0.321304
0.325953
0.330197
0.334094
0.337692
0.341033
0.34415
0.347074
0.349829
0.352436
0.354914
0.357277
0.359537
0.361704
0.363786
0.365789
0.367717
0.369574
0.371364
0.373087
0.374746
0.376343
0.377878
0.379353
0.380768
0.382126
0.383425
0.384669
0.385856
0.386987
0.388063
0.389084
0.390049
0.390959
0.391811
0.392607
0.393343
0.394019
0.394632
0.395181
0.395662
0.396072
0.396408
0.396665
0.39684
0.396927
0.396921
0.396816
0.396604
0.396279
0.395831
0.395253
0.394533
0.39366
0.392621
0.391403
0.389991
0.388367
0.386512
0.384407
0.382028
0.379347
0.376336
0.37296
0.36918
0.364952
0.360226
0.354944
0.349038
0.342429
0.335025
0.326719
0.317385
0.306867
0.29499
0.281525
0.266233
0.248738
0.228788
0.205555
0.179389
0.147216
0.114681
0.0643085
0.0417937
0.133251
0.143972
0.167522
0.192273
0.212356
0.229327
0.244728
0.258392
0.270166
0.280378
0.289369
0.297327
0.304389
0.310688
0.316342
0.321447
0.326081
0.330313
0.334199
0.337787
0.341119
0.344228
0.347145
0.349895
0.352497
0.354971
0.357331
0.359588
0.361754
0.363834
0.365836
0.367764
0.369622
0.371412
0.373136
0.374795
0.376393
0.377929
0.379404
0.38082
0.382178
0.383479
0.384723
0.38591
0.387043
0.38812
0.389141
0.390108
0.391019
0.391873
0.392669
0.393407
0.394085
0.394701
0.395252
0.395735
0.396148
0.396487
0.396748
0.396927
0.397019
0.397017
0.396914
0.396704
0.396379
0.395931
0.39535
0.394628
0.393754
0.392714
0.391497
0.390085
0.388463
0.38661
0.384508
0.382132
0.379456
0.37645
0.373079
0.369304
0.365082
0.360362
0.355085
0.349185
0.342582
0.335186
0.326888
0.317562
0.307054
0.295188
0.281734
0.266457
0.248973
0.229045
0.205806
0.179694
0.147402
0.115093
0.0640568
0.0426121
0.130907
0.142278
0.167048
0.192384
0.212532
0.229566
0.245058
0.25874
0.270487
0.280673
0.289642
0.297575
0.304612
0.310888
0.316522
0.321608
0.326226
0.330444
0.334317
0.337894
0.341216
0.344317
0.347227
0.34997
0.352567
0.355036
0.357392
0.359647
0.36181
0.36389
0.365891
0.367819
0.369677
0.371467
0.373191
0.374852
0.37645
0.377987
0.379463
0.38088
0.382239
0.38354
0.384785
0.385973
0.387107
0.388185
0.389207
0.390175
0.391087
0.391943
0.392742
0.393482
0.394162
0.394781
0.395336
0.395824
0.39624
0.39658
0.39684
0.397016
0.397104
0.397098
0.396993
0.396781
0.396457
0.39601
0.395432
0.394712
0.393841
0.392807
0.391594
0.390187
0.388571
0.386724
0.384628
0.382257
0.379586
0.376584
0.373218
0.36945
0.365234
0.360521
0.355251
0.349359
0.342765
0.335378
0.327091
0.317776
0.307281
0.295429
0.281991
0.266733
0.249265
0.229365
0.206124
0.180069
0.147663
0.115572
0.0638767
0.0434366
0.128231
0.1404
0.166575
0.192534
0.212735
0.229842
0.245435
0.259132
0.270845
0.281001
0.289945
0.297851
0.304858
0.311109
0.31672
0.321786
0.326387
0.330588
0.334447
0.338012
0.341324
0.344415
0.347317
0.350053
0.352644
0.355109
0.357461
0.359713
0.361874
0.363952
0.365953
0.367881
0.369739
0.37153
0.373255
0.374917
0.376516
0.378053
0.379531
0.380949
0.382308
0.38361
0.384856
0.386045
0.387179
0.388259
0.389284
0.390254
0.391169
0.392029
0.392831
0.393573
0.394253
0.394868
0.395417
0.395897
0.396307
0.396643
0.396901
0.397078
0.397166
0.397163
0.397062
0.396855
0.396536
0.396094
0.395522
0.394808
0.393942
0.392911
0.391702
0.3903
0.388687
0.386847
0.384756
0.382391
0.379726
0.376732
0.373373
0.369612
0.365405
0.3607
0.35544
0.349558
0.342975
0.335601
0.327326
0.318026
0.307546
0.295712
0.282294
0.267059
0.249613
0.229745
0.206507
0.180512
0.147999
0.116115
0.0637739
0.0442569
0.125198
0.138346
0.166121
0.192727
0.212966
0.230158
0.245859
0.259564
0.271238
0.281362
0.290277
0.298151
0.305127
0.311349
0.316936
0.32198
0.32656
0.330744
0.334588
0.33814
0.34144
0.344522
0.347415
0.350144
0.352729
0.355189
0.357537
0.359786
0.361945
0.364022
0.366022
0.36795
0.369808
0.3716
0.373326
0.374989
0.37659
0.378129
0.379607
0.381026
0.382387
0.383691
0.384939
0.386131
0.387269
0.388352
0.38938
0.390349
0.391259
0.39211
0.392901
0.393633
0.394306
0.394917
0.395464
0.395945
0.396357
0.396698
0.396961
0.397142
0.397235
0.397236
0.397138
0.396934
0.396617
0.396178
0.39561
0.394901
0.39404
0.393015
0.391812
0.390416
0.38881
0.386976
0.384892
0.382535
0.379879
0.376892
0.373543
0.369791
0.365593
0.3609
0.355651
0.349782
0.343212
0.335852
0.327593
0.31831
0.30785
0.296037
0.282643
0.267434
0.250013
0.230181
0.206954
0.181023
0.148412
0.116719
0.0637534
0.0450639
0.121777
0.136122
0.165704
0.192968
0.213223
0.230516
0.246331
0.260037
0.271666
0.281754
0.290637
0.298474
0.305415
0.311607
0.317166
0.322186
0.326745
0.330911
0.334739
0.338277
0.341564
0.344636
0.34752
0.350241
0.35282
0.355274
0.357618
0.359864
0.362021
0.364097
0.366097
0.368025
0.369885
0.371678
0.373406
0.37507
0.376672
0.378213
0.379695
0.381118
0.382483
0.383792
0.385043
0.386234
0.387364
0.388433
0.389446
0.390402
0.391303
0.392148
0.392938
0.393672
0.394348
0.394962
0.395513
0.395997
0.396411
0.396752
0.397016
0.397198
0.397295
0.397299
0.397205
0.397006
0.396694
0.396261
0.395698
0.394995
0.39414
0.393122
0.391926
0.390537
0.388939
0.387113
0.385037
0.382689
0.380042
0.377065
0.373726
0.369985
0.365799
0.361117
0.355882
0.350027
0.343473
0.33613
0.327889
0.318627
0.308189
0.296401
0.283034
0.267855
0.250464
0.230674
0.207463
0.181598
0.148901
0.117384
0.0638196
0.0458507
0.117933
0.133741
0.165351
0.193262
0.213508
0.230918
0.246851
0.260548
0.272126
0.282175
0.291021
0.298818
0.305721
0.311879
0.317409
0.322402
0.326939
0.331085
0.334896
0.338419
0.341694
0.344754
0.347629
0.350342
0.352914
0.355363
0.357704
0.359947
0.362103
0.364178
0.366179
0.368108
0.369969
0.371763
0.373495
0.375164
0.376772
0.378318
0.379804
0.381228
0.382587
0.383881
0.385112
0.386286
0.387404
0.388467
0.389478
0.390435
0.391338
0.392185
0.392976
0.393709
0.394383
0.394997
0.395548
0.396034
0.39645
0.396795
0.397062
0.397249
0.39735
0.397359
0.39727
0.397076
0.39677
0.396343
0.395787
0.39509
0.394242
0.393231
0.392043
0.390662
0.389073
0.387256
0.385189
0.382851
0.380214
0.377248
0.373921
0.370192
0.366019
0.361352
0.356132
0.350293
0.343756
0.336432
0.328213
0.318973
0.308561
0.296802
0.283465
0.268322
0.250966
0.231221
0.208033
0.182239
0.149467
0.118109
0.0639778
0.0466115
0.113625
0.131221
0.165086
0.193612
0.21382
0.231366
0.247419
0.261095
0.272615
0.282622
0.291427
0.299179
0.306041
0.312163
0.317661
0.322627
0.327139
0.331264
0.335056
0.338564
0.341826
0.344875
0.34774
0.350445
0.353011
0.355455
0.357792
0.360034
0.362188
0.364263
0.366265
0.368199
0.370065
0.371866
0.373604
0.375278
0.376884
0.37842
0.379887
0.381289
0.382631
0.383915
0.385142
0.386316
0.387434
0.388497
0.389505
0.390458
0.391358
0.392203
0.392994
0.393728
0.394404
0.39502
0.395574
0.396063
0.396484
0.396832
0.397104
0.397296
0.397402
0.397416
0.397333
0.397145
0.396845
0.396425
0.395875
0.395186
0.394346
0.393343
0.392163
0.390792
0.389212
0.387404
0.385348
0.383021
0.380395
0.377442
0.374127
0.370412
0.366254
0.361602
0.356399
0.350578
0.344061
0.336758
0.328562
0.319348
0.308964
0.297236
0.283934
0.268831
0.251515
0.231821
0.208663
0.182942
0.150111
0.118895
0.0642343
0.0473423
0.108804
0.128585
0.164939
0.194019
0.214159
0.231864
0.248035
0.261676
0.273132
0.283093
0.291851
0.299555
0.306372
0.312455
0.31792
0.322855
0.327341
0.331444
0.335218
0.338709
0.341957
0.344995
0.347851
0.350548
0.353108
0.355547
0.357881
0.360123
0.36228
0.364359
0.366367
0.368306
0.370176
0.371975
0.373701
0.375354
0.376939
0.37846
0.379919
0.381317
0.382657
0.383938
0.385161
0.386329
0.387442
0.388501
0.389508
0.390462
0.391362
0.39221
0.393002
0.393739
0.394418
0.395037
0.395595
0.396088
0.396513
0.396865
0.397143
0.397339
0.397451
0.397471
0.397394
0.397213
0.39692
0.396507
0.395965
0.395284
0.394452
0.393457
0.392287
0.390925
0.389355
0.387558
0.385513
0.383197
0.380584
0.377644
0.374343
0.370643
0.366501
0.361866
0.356681
0.35088
0.344385
0.337105
0.328935
0.31975
0.309396
0.297704
0.284439
0.269381
0.25211
0.232472
0.209353
0.183709
0.150836
0.119741
0.0645967
0.0480402
0.103414
0.125866
0.164942
0.194485
0.214526
0.232415
0.248698
0.262287
0.273673
0.283584
0.292291
0.299942
0.30671
0.312753
0.318181
0.323084
0.327543
0.331622
0.335376
0.338852
0.342086
0.345111
0.347958
0.350649
0.353205
0.355644
0.357978
0.360222
0.362384
0.364465
0.366468
0.368394
0.370246
0.372025
0.373737
0.375382
0.376962
0.378479
0.379932
0.381323
0.382656
0.383933
0.385153
0.386319
0.387432
0.388492
0.3895
0.390456
0.391359
0.392208
0.393004
0.393744
0.394427
0.39505
0.395611
0.396109
0.396538
0.396896
0.397179
0.397381
0.397499
0.397525
0.397455
0.39728
0.396995
0.396589
0.396055
0.395382
0.394559
0.393574
0.392413
0.391061
0.389501
0.387716
0.385683
0.38338
0.38078
0.377854
0.374568
0.370884
0.366759
0.362143
0.356978
0.351198
0.344727
0.337473
0.329331
0.320176
0.309858
0.298204
0.284981
0.269972
0.25275
0.233173
0.210102
0.184539
0.151643
0.12065
0.0650741
0.048704
0.0973899
0.123109
0.16513
0.195005
0.214921
0.233021
0.249405
0.262924
0.274235
0.284091
0.292742
0.300335
0.307052
0.31305
0.31844
0.323309
0.327739
0.331796
0.335529
0.338987
0.34221
0.345226
0.348065
0.350752
0.353307
0.355745
0.358078
0.360315
0.362463
0.364528
0.366514
0.368427
0.370268
0.372041
0.373746
0.375383
0.376955
0.378464
0.379913
0.381302
0.382634
0.38391
0.38513
0.386298
0.387413
0.388475
0.389485
0.390443
0.391349
0.392202
0.393001
0.393745
0.394432
0.39506
0.395626
0.396128
0.396563
0.396926
0.397214
0.397423
0.397546
0.397579
0.397515
0.397348
0.39707
0.396672
0.396146
0.395482
0.394668
0.393692
0.392541
0.3912
0.389652
0.387878
0.385858
0.383568
0.380982
0.378071
0.374802
0.371135
0.367029
0.362432
0.357289
0.351532
0.345086
0.33786
0.329749
0.320628
0.310346
0.298734
0.285558
0.270603
0.253434
0.233923
0.210912
0.185433
0.152536
0.121625
0.065678
0.0493347
0.0906546
0.120369
0.165537
0.195576
0.215344
0.233684
0.250154
0.263584
0.274815
0.284612
0.2932
0.30073
0.307394
0.313345
0.318695
0.323529
0.32793
0.331963
0.335678
0.339121
0.342332
0.34534
0.348171
0.350849
0.353393
0.355818
0.358135
0.360356
0.36249
0.364544
0.366521
0.368424
0.370256
0.37202
0.373718
0.37535
0.37692
0.378428
0.379877
0.381266
0.3826
0.383877
0.3851
0.38627
0.387387
0.388452
0.389466
0.390427
0.391337
0.392194
0.392997
0.393745
0.394437
0.395069
0.39564
0.396148
0.396587
0.396956
0.39725
0.397464
0.397594
0.397633
0.397577
0.397417
0.397146
0.396756
0.396239
0.395583
0.394779
0.393813
0.392673
0.391342
0.389806
0.388045
0.386038
0.383762
0.381191
0.378296
0.375044
0.371395
0.367309
0.362733
0.357613
0.351882
0.345463
0.338267
0.330188
0.321104
0.310863
0.299296
0.286171
0.271273
0.254162
0.234726
0.211786
0.186393
0.153521
0.122671
0.0664227
0.0499357
0.0831185
0.11772
0.166199
0.196188
0.215799
0.234408
0.25094
0.264261
0.275408
0.285141
0.293661
0.301125
0.307733
0.313636
0.318945
0.323745
0.328119
0.332127
0.335823
0.339248
0.34244
0.34543
0.348245
0.350906
0.353433
0.355842
0.358146
0.360354
0.362476
0.364519
0.366486
0.368382
0.37021
0.371971
0.373668
0.3753
0.37687
0.37838
0.379831
0.381223
0.382558
0.383839
0.385066
0.386239
0.38736
0.388429
0.389446
0.390412
0.391325
0.392186
0.392993
0.393746
0.394442
0.395079
0.395655
0.396167
0.396612
0.396986
0.397286
0.397506
0.397642
0.397688
0.397638
0.397485
0.397222
0.396841
0.396332
0.395685
0.394891
0.393935
0.392805
0.391487
0.389962
0.388214
0.386221
0.38396
0.381405
0.378527
0.375293
0.371664
0.367598
0.363046
0.35795
0.352246
0.345857
0.338693
0.33065
0.321605
0.311409
0.29989
0.286821
0.271981
0.254939
0.235584
0.212725
0.187423
0.154604
0.123795
0.0673257
0.0505138
0.0746769
0.115257
0.167147
0.196831
0.216286
0.235192
0.251756
0.264951
0.276011
0.285676
0.294124
0.30152
0.30807
0.313928
0.319196
0.323957
0.3283
0.332274
0.335937
0.339336
0.342506
0.345476
0.348273
0.350917
0.353429
0.355822
0.358113
0.36031
0.362423
0.36446
0.366423
0.368318
0.370145
0.371908
0.373606
0.37524
0.376814
0.378327
0.379781
0.381178
0.382517
0.383801
0.385031
0.386208
0.387332
0.388406
0.389427
0.390396
0.391314
0.392179
0.392991
0.393747
0.394447
0.395089
0.39567
0.396187
0.396637
0.397017
0.397322
0.397548
0.39769
0.397743
0.3977
0.397555
0.3973
0.396926
0.396426
0.395789
0.395004
0.394059
0.392941
0.391634
0.390123
0.388388
0.386409
0.384164
0.381626
0.378765
0.37555
0.371942
0.367899
0.363371
0.358302
0.352627
0.346269
0.33914
0.331135
0.322133
0.311984
0.300519
0.287508
0.272733
0.25577
0.2365
0.213734
0.188527
0.155794
0.125008
0.0684084
0.0510802
0.0652107
0.1131
0.168406
0.197488
0.216811
0.236037
0.252598
0.265651
0.276624
0.28622
0.29459
0.301921
0.308413
0.314217
0.319433
0.32414
0.328434
0.332372
0.336005
0.339381
0.342529
0.34548
0.348257
0.350885
0.353382
0.355764
0.358045
0.360237
0.362347
0.364382
0.366346
0.368242
0.370072
0.371838
0.37354
0.37518
0.376757
0.378274
0.379732
0.381132
0.382476
0.383764
0.384998
0.386179
0.387307
0.388384
0.389409
0.390383
0.391305
0.392174
0.39299
0.393751
0.394456
0.395102
0.395687
0.396209
0.396665
0.39705
0.39736
0.397592
0.397741
0.3978
0.397764
0.397627
0.397379
0.397015
0.396523
0.395896
0.395121
0.394187
0.39308
0.391786
0.390288
0.388567
0.386604
0.384375
0.381854
0.379013
0.375818
0.372232
0.368213
0.363711
0.35867
0.353026
0.346702
0.339611
0.331648
0.322692
0.312594
0.301186
0.28824
0.273537
0.256662
0.237481
0.21482
0.189716
0.157104
0.126322
0.0696967
0.0516513
0.0545801
0.111417
0.17
0.198139
0.21738
0.236944
0.253462
0.266366
0.277254
0.286778
0.295067
0.30232
0.308737
0.314463
0.31961
0.324265
0.328518
0.332425
0.336032
0.339383
0.34251
0.345443
0.348204
0.350819
0.353307
0.355683
0.357961
0.360151
0.362262
0.364299
0.366266
0.368166
0.37
0.37177
0.373476
0.375121
0.376703
0.378224
0.379687
0.38109
0.382438
0.383731
0.384969
0.386154
0.387287
0.388368
0.389397
0.390375
0.3913
0.392173
0.392993
0.393758
0.394467
0.395118
0.395708
0.396235
0.396695
0.397085
0.397402
0.39764
0.397795
0.397861
0.397832
0.397702
0.397463
0.397107
0.396625
0.396007
0.395243
0.39432
0.393225
0.391944
0.39046
0.388754
0.386807
0.384595
0.382093
0.379272
0.376099
0.372537
0.368544
0.36407
0.35906
0.353449
0.347162
0.340112
0.332194
0.323288
0.313247
0.3019
0.289026
0.274404
0.25762
0.238538
0.215998
0.191004
0.15855
0.127757
0.0712236
0.052252
0.0425923
0.110396
0.171944
0.198775
0.218004
0.237919
0.254356
0.267102
0.277904
0.287339
0.295516
0.302663
0.308983
0.314633
0.319723
0.32434
0.328558
0.332437
0.336022
0.339352
0.342462
0.345381
0.348132
0.350739
0.353222
0.355595
0.357873
0.360064
0.362178
0.364218
0.36619
0.368094
0.369934
0.371708
0.373419
0.375068
0.376655
0.378181
0.379648
0.381056
0.382408
0.383705
0.384947
0.386136
0.387273
0.388357
0.38939
0.390372
0.391301
0.392178
0.393002
0.393771
0.394484
0.395139
0.395734
0.396265
0.396731
0.397126
0.397448
0.397692
0.397854
0.397926
0.397905
0.397783
0.397552
0.397205
0.396733
0.396125
0.395372
0.394461
0.39338
0.392112
0.390643
0.388953
0.387023
0.38483
0.382349
0.379549
0.3764
0.372864
0.368898
0.364455
0.359478
0.353904
0.347658
0.340652
0.332784
0.323932
0.313952
0.302674
0.289878
0.275342
0.25866
0.239686
0.217285
0.192407
0.160151
0.129335
0.0730273
0.0529196
0.0289923
0.110205
0.174192
0.199386
0.218707
0.238972
0.255285
0.267846
0.278529
0.287829
0.295856
0.302898
0.309149
0.314742
0.319785
0.324372
0.328562
0.332418
0.335988
0.339304
0.342402
0.345311
0.348056
0.350659
0.353139
0.355512
0.357792
0.359987
0.362103
0.364148
0.366124
0.368033
0.369877
0.371657
0.373374
0.375027
0.376618
0.378148
0.379619
0.381032
0.382388
0.383689
0.384935
0.386127
0.387267
0.388355
0.389392
0.390377
0.39131
0.392191
0.393018
0.393791
0.394509
0.395168
0.395767
0.396304
0.396774
0.397175
0.397503
0.397753
0.397921
0.398001
0.397988
0.397874
0.397652
0.397314
0.396852
0.396256
0.395515
0.394617
0.393549
0.392297
0.390844
0.389171
0.38726
0.385088
0.382628
0.379852
0.376729
0.373221
0.369287
0.364877
0.359937
0.354403
0.348201
0.341244
0.33343
0.324639
0.314726
0.303523
0.290812
0.276371
0.2598
0.240944
0.218698
0.193946
0.161933
0.131083
0.0751488
0.0537064
0.0136334
0.111127
0.176645
0.19997
0.219525
0.240087
0.256193
0.268495
0.279012
0.28817
0.296089
0.303048
0.309247
0.314799
0.319811
0.324376
0.328549
0.332391
0.335948
0.339255
0.342346
0.345249
0.347991
0.350592
0.353072
0.355446
0.357728
0.359926
0.362047
0.364096
0.366077
0.367991
0.369839
0.371624
0.373344
0.375001
0.376596
0.378131
0.379605
0.381022
0.382382
0.383685
0.384935
0.386131
0.387274
0.388366
0.389406
0.390394
0.391331
0.392216
0.393047
0.393824
0.394546
0.39521
0.395814
0.396355
0.396831
0.397238
0.397573
0.39783
0.398005
0.398093
0.398088
0.397983
0.397771
0.397444
0.396993
0.396409
0.395681
0.394798
0.393745
0.392509
0.391074
0.389421
0.387531
0.385381
0.382946
0.380197
0.377103
0.373626
0.369726
0.365353
0.360454
0.354965
0.348812
0.341908
0.334154
0.325429
0.315589
0.304469
0.291851
0.277515
0.261065
0.242339
0.220264
0.195647
0.163919
0.133031
0.077629
0.0546894
-0.00346387
0.113945
0.179364
0.200525
0.220435
0.241112
0.2569
0.26895
0.279323
0.288382
0.296237
0.303139
0.3093
0.314828
0.319823
0.324375
0.328538
0.332372
0.335922
0.339223
0.342309
0.345209
0.347949
0.35055
0.353031
0.355407
0.357692
0.359893
0.362017
0.36407
0.366055
0.367973
0.369826
0.371613
0.373337
0.374998
0.376597
0.378135
0.379613
0.381033
0.382395
0.383702
0.384955
0.386154
0.387301
0.388396
0.38944
0.390432
0.391372
0.392261
0.393096
0.393878
0.394605
0.395274
0.395883
0.39643
0.396913
0.397326
0.397668
0.397933
0.398116
0.398213
0.398217
0.398123
0.397922
0.397607
0.397169
0.396599
0.395887
0.395019
0.393984
0.392767
0.391352
0.389721
0.387854
0.385729
0.383322
0.380603
0.377541
0.374099
0.370237
0.365905
0.361051
0.355612
0.349513
0.342669
0.33498
0.326328
0.316569
0.30554
0.293022
0.2788
0.262478
0.243893
0.221998
0.197528
0.166113
0.135194
0.0804603
0.0559505
-0.0234894
0.119296
0.182409
0.200847
0.221133
0.241832
0.257279
0.269218
0.279513
0.288503
0.296317
0.303193
0.309334
0.31485
0.319838
0.324384
0.328545
0.332375
0.335922
0.33922
0.342305
0.345204
0.347943
0.350545
0.353027
0.355406
0.357692
0.359896
0.362024
0.364081
0.366069
0.36799
0.369846
0.371637
0.373364
0.375028
0.37663
0.37817
0.379651
0.381074
0.38244
0.38375
0.385006
0.386208
0.387358
0.388457
0.389504
0.3905
0.391445
0.392338
0.393179
0.393966
0.394698
0.395373
0.39599
0.396544
0.397034
0.397456
0.397806
0.398081
0.398274
0.398382
0.398398
0.398316
0.398128
0.397828
0.397406
0.396853
0.396158
0.395309
0.394294
0.393099
0.391707
0.390101
0.388262
0.386166
0.38379
0.381104
0.378078
0.374675
0.370854
0.366568
0.361763
0.356376
0.350335
0.343554
0.335933
0.327356
0.317679
0.306741
0.294321
0.280211
0.264015
0.245565
0.223843
0.199519
0.168405
0.137479
0.0834509
0.0574604
-0.0498753
0.125219
0.185075
0.200756
0.221369
0.242244
0.257499
0.269366
0.279628
0.288577
0.296368
0.303232
0.309366
0.314881
0.31987
0.324419
0.328584
0.332419
0.33597
0.339274
0.342363
0.345267
0.348012
0.350619
0.353106
0.35549
0.357782
0.359991
0.362123
0.364184
0.366176
0.368101
0.369959
0.371753
0.373482
0.375148
0.376752
0.378295
0.379778
0.381203
0.382571
0.383883
0.385142
0.386347
0.387501
0.388603
0.389655
0.390655
0.391605
0.392504
0.39335
0.394144
0.394882
0.395565
0.396189
0.396752
0.39725
0.397682
0.398042
0.398327
0.398531
0.398651
0.39868
0.398611
0.398438
0.398152
0.397746
0.39721
0.396532
0.395702
0.394708
0.393533
0.392164
0.390582
0.388767
0.386698
0.38435
0.381695
0.3787
0.375332
0.371547
0.3673
0.362537
0.357195
0.351202
0.344474
0.33691
0.328395
0.318786
0.307922
0.295586
0.281567
0.265477
0.247142
0.225566
0.201377
0.170511
0.139646
0.0862221
0.0590932
-0.0761935
0.128586
0.187026
0.201128
0.221831
0.242779
0.257904
0.26967
0.279881
0.288794
0.296558
0.303406
0.309527
0.315034
0.320018
0.324565
0.32873
0.332567
0.336121
0.339429
0.342524
0.345435
0.348185
0.350798
0.353291
0.35568
0.357975
0.360187
0.362322
0.364384
0.366375
0.368299
0.370157
0.371949
0.373676
0.37534
0.376941
0.378482
0.379963
0.381386
0.382753
0.384064
0.385322
0.386527
0.387682
0.388785
0.389838
0.390841
0.391793
0.392695
0.393545
0.394343
0.395087
0.395775
0.396405
0.396975
0.397482
0.397921
0.39829
0.398585
0.3988
0.398931
0.398972
0.398916
0.398757
0.398487
0.398097
0.397577
0.396918
0.396108
0.395133
0.393981
0.392635
0.391078
0.38929
0.387249
0.384931
0.382308
0.379348
0.376016
0.372272
0.368067
0.36335
0.358059
0.35212
0.34545
0.337951
0.329507
0.319976
0.309199
0.29696
0.283051
0.267085
0.248894
0.227481
0.203492
0.172847
0.142296
0.0892344
0.0621458
0.14212
0.15082
0.169946
0.192202
0.211866
0.228616
0.243652
0.25719
0.269047
0.279355
0.28842
0.296462
0.303614
0.309996
0.315723
0.320893
0.325587
0.32987
0.333802
0.337431
0.340798
0.343939
0.346883
0.349655
0.352278
0.354768
0.35714
0.359407
0.361578
0.363662
0.365665
0.367592
0.369446
0.371232
0.372951
0.374606
0.376198
0.377728
0.379198
0.380609
0.381962
0.383257
0.384496
0.385678
0.386805
0.387876
0.388892
0.389851
0.390755
0.391601
0.392389
0.393118
0.393786
0.394391
0.39493
0.395401
0.395801
0.396126
0.396373
0.396536
0.39661
0.396592
0.396473
0.396248
0.395908
0.395447
0.394854
0.39412
0.393233
0.392182
0.390953
0.38953
0.387897
0.386036
0.383924
0.381539
0.378854
0.375839
0.372461
0.36868
0.364452
0.359727
0.354446
0.348542
0.341937
0.334538
0.326237
0.316908
0.306397
0.294525
0.28107
0.265781
0.248313
0.228345
0.205234
0.178907
0.147383
0.113706
0.0667914
0.0379342
0.141877
0.150623
0.169843
0.192159
0.211834
0.228586
0.243628
0.25717
0.269026
0.279333
0.288398
0.296441
0.303593
0.309975
0.315702
0.320873
0.325567
0.329852
0.333784
0.337413
0.340781
0.343923
0.346867
0.349641
0.352264
0.354754
0.357127
0.359395
0.361567
0.363652
0.365655
0.367583
0.369439
0.371225
0.372946
0.374601
0.376194
0.377725
0.379196
0.380608
0.381962
0.383258
0.384497
0.385681
0.386808
0.38788
0.388896
0.389857
0.390761
0.391608
0.392397
0.393126
0.393795
0.3944
0.39494
0.395411
0.395812
0.396137
0.396384
0.396547
0.396622
0.396603
0.396485
0.396259
0.39592
0.395458
0.394865
0.394131
0.393244
0.392192
0.390962
0.389538
0.387904
0.386041
0.383928
0.381542
0.378855
0.375839
0.372458
0.368675
0.364445
0.359717
0.354434
0.348527
0.341918
0.334516
0.326212
0.31688
0.306366
0.294492
0.281035
0.265743
0.248273
0.228304
0.205189
0.178865
0.147316
0.113681
0.0666185
0.0380616
0.141409
0.150242
0.169676
0.192132
0.211837
0.228601
0.243663
0.257215
0.269069
0.279373
0.288436
0.296475
0.303624
0.310003
0.315727
0.320895
0.325587
0.329869
0.3338
0.337427
0.340794
0.343934
0.346877
0.34965
0.352272
0.354762
0.357134
0.359402
0.361574
0.363658
0.365662
0.36759
0.369446
0.371234
0.372954
0.37461
0.376204
0.377735
0.379207
0.380619
0.381973
0.38327
0.38451
0.385693
0.386821
0.387893
0.38891
0.389871
0.390776
0.391623
0.392413
0.393143
0.393812
0.394418
0.394958
0.39543
0.395831
0.396158
0.396405
0.396569
0.396645
0.396627
0.396509
0.396285
0.395946
0.395485
0.394893
0.394159