/*--------------------------------*- C++ -*----------------------------------*\
| =========                 |                                                 |
| \\      /  F ield         | OpenFOAM: The Open Source CFD Toolbox           |
|  \\    /   O peration     | Version:  v1912                                 |
|   \\  /    A nd           | Website:  www.openfoam.com                      |
|    \\/     M anipulation  |                                                 |
\*---------------------------------------------------------------------------*/
FoamFile
{
    version     2.0;
    format      ascii;
    class       surfaceScalarField;
    location    "181";
    object      phi;
}
// * * * * * * * * * * * * * * * * * * * * * * * * * * * * * * * * * * * * * //

dimensions      [0 3 -1 0 0 0 0];
oriented        oriented;


internalField   nonuniform List<scalar> 
174400
(
4.38656e-06
-2.17578e-07
-2.31235e-09
4.55409e-06
-1.60368e-07
-7.16757e-09
4.68742e-06
-1.2314e-07
-1.01874e-08
4.80498e-06
-1.0549e-07
-1.20729e-08
4.91493e-06
-9.63688e-08
-1.35802e-08
5.01994e-06
-9.04203e-08
-1.45917e-08
5.12221e-06
-8.72109e-08
-1.50537e-08
5.22337e-06
-8.58949e-08
-1.5265e-08
5.32394e-06
-8.51291e-08
-1.54442e-08
5.42387e-06
-8.43243e-08
-1.56071e-08
5.52303e-06
-8.34156e-08
-1.57402e-08
5.62124e-06
-8.23452e-08
-1.58686e-08
5.71829e-06
-8.10303e-08
-1.60128e-08
5.81391e-06
-7.94505e-08
-1.61707e-08
5.90787e-06
-7.7627e-08
-1.63314e-08
5.99993e-06
-7.55821e-08
-1.64851e-08
6.08989e-06
-7.33354e-08
-1.6623e-08
6.17754e-06
-7.09093e-08
-1.67378e-08
6.26269e-06
-6.83269e-08
-1.6825e-08
6.34518e-06
-6.56093e-08
-1.68826e-08
6.42487e-06
-6.27757e-08
-1.69104e-08
6.50162e-06
-5.9843e-08
-1.69093e-08
6.57533e-06
-5.68276e-08
-1.68806e-08
6.6459e-06
-5.37443e-08
-1.68269e-08
6.71326e-06
-5.06072e-08
-1.67502e-08
6.77734e-06
-4.74301e-08
-1.66537e-08
6.8381e-06
-4.4226e-08
-1.6539e-08
6.89552e-06
-4.10079e-08
-1.64092e-08
6.94957e-06
-3.77872e-08
-1.6266e-08
7.00026e-06
-3.4575e-08
-1.61119e-08
7.04759e-06
-3.13804e-08
-1.59484e-08
7.09158e-06
-2.82113e-08
-1.57771e-08
7.13225e-06
-2.50736e-08
-1.55995e-08
7.16964e-06
-2.19715e-08
-1.54162e-08
7.20378e-06
-1.89078e-08
-1.52286e-08
7.2347e-06
-1.58835e-08
-1.50371e-08
7.26244e-06
-1.28992e-08
-1.48422e-08
7.28704e-06
-9.95407e-09
-1.46444e-08
7.30853e-06
-7.04744e-09
-1.44437e-08
7.32695e-06
-4.17807e-09
-1.42406e-08
7.34233e-06
-1.34466e-09
-1.4035e-08
7.3547e-06
1.45355e-09
-1.38275e-08
7.3641e-06
4.21721e-09
-1.36177e-08
7.37056e-06
6.94656e-09
-1.3406e-08
7.37411e-06
9.64154e-09
-1.3192e-08
7.37478e-06
1.23014e-08
-1.29761e-08
7.37262e-06
1.49255e-08
-1.27579e-08
7.36764e-06
1.75125e-08
-1.25379e-08
7.35989e-06
2.0061e-08
-1.23154e-08
7.34942e-06
2.25689e-08
-1.20907e-08
7.33624e-06
2.50345e-08
-1.18632e-08
7.32042e-06
2.74551e-08
-1.16332e-08
7.30199e-06
2.98287e-08
-1.13998e-08
7.281e-06
3.21522e-08
-1.11634e-08
7.2575e-06
3.44234e-08
-1.09233e-08
7.23154e-06
3.66392e-08
-1.06793e-08
7.20317e-06
3.87971e-08
-1.04309e-08
7.17246e-06
4.08943e-08
-1.01779e-08
7.13945e-06
4.29281e-08
-9.91956e-09
7.10421e-06
4.48957e-08
-9.65586e-09
7.0668e-06
4.67946e-08
-9.38596e-09
7.02729e-06
4.8622e-08
-9.10986e-09
6.98574e-06
5.03758e-08
-8.82656e-09
6.94222e-06
5.20531e-08
-8.53629e-09
6.8968e-06
5.36525e-08
-8.23808e-09
6.84956e-06
5.5171e-08
-7.93214e-09
6.80057e-06
5.66072e-08
-7.61755e-09
6.74991e-06
5.79583e-08
-7.29462e-09
6.69765e-06
5.92234e-08
-6.96256e-09
6.64387e-06
6.04002e-08
-6.62191e-09
6.58865e-06
6.14884e-08
-6.27214e-09
6.53208e-06
6.24856e-08
-5.91418e-09
6.47423e-06
6.33914e-08
-5.54711e-09
6.4152e-06
6.42036e-08
-5.1723e-09
6.35507e-06
6.49221e-08
-4.78856e-09
6.29392e-06
6.5545e-08
-4.39842e-09
6.23185e-06
6.60729e-08
-4.00107e-09
6.16894e-06
6.65047e-08
-3.59906e-09
6.10529e-06
6.68403e-08
-3.19187e-09
6.04099e-06
6.70796e-08
-2.78288e-09
5.97614e-06
6.72193e-08
-2.37156e-09
5.91084e-06
6.72622e-08
-1.96068e-09
5.84518e-06
6.72047e-08
-1.55134e-09
5.77928e-06
6.70511e-08
-1.14626e-09
5.71322e-06
6.6797e-08
-7.49795e-10
5.64714e-06
6.64443e-08
-3.61044e-10
5.58112e-06
6.59943e-08
1.38915e-11
5.5153e-06
6.54377e-08
3.76533e-10
5.44978e-06
6.47954e-08
7.17434e-10
5.3847e-06
6.40268e-08
1.05109e-09
5.32011e-06
6.32302e-08
1.35031e-09
5.2562e-06
6.22366e-08
1.65848e-09
5.19285e-06
6.14413e-08
1.89399e-09
5.13048e-06
6.01263e-08
2.21656e-09
5.06789e-06
6.02324e-08
2.33229e-09
5.00731e-06
5.76428e-08
2.89701e-09
4.94159e-06
6.31522e-08
2.54385e-09
4.8843e-06
5.27119e-08
4.54933e-09
4.80018e-06
8.24149e-08
1.69141e-09
4.39415e-08
8.40397e-09
4.38646e-06
-4.35089e-07
-2.2802e-09
4.5529e-06
-3.19617e-07
-7.1932e-09
4.68596e-06
-2.45957e-07
-1.02406e-08
4.80369e-06
-2.11051e-07
-1.21705e-08
4.91355e-06
-1.92494e-07
-1.37307e-08
5.01828e-06
-1.80376e-07
-1.47785e-08
5.12033e-06
-1.73995e-07
-1.52621e-08
5.22132e-06
-1.71401e-07
-1.54912e-08
5.32171e-06
-1.69829e-07
-1.56866e-08
5.42142e-06
-1.68176e-07
-1.58628e-08
5.52036e-06
-1.6634e-07
-1.60065e-08
5.61834e-06
-1.64188e-07
-1.6144e-08
5.71515e-06
-1.61544e-07
-1.62961e-08
5.81053e-06
-1.5837e-07
-1.64606e-08
5.90425e-06
-1.54714e-07
-1.66266e-08
5.99606e-06
-1.50617e-07
-1.67844e-08
6.08577e-06
-1.46119e-07
-1.69252e-08
6.17317e-06
-1.41265e-07
-1.70417e-08
6.25807e-06
-1.361e-07
-1.71293e-08
6.34031e-06
-1.30666e-07
-1.71861e-08
6.41975e-06
-1.25003e-07
-1.7212e-08
6.49626e-06
-1.19143e-07
-1.72077e-08
6.56973e-06
-1.1312e-07
-1.71747e-08
6.64006e-06
-1.06963e-07
-1.71157e-08
6.70719e-06
-1.00699e-07
-1.70325e-08
6.77104e-06
-9.43575e-08
-1.69287e-08
6.83158e-06
-8.79634e-08
-1.68055e-08
6.88879e-06
-8.15422e-08
-1.66666e-08
6.94263e-06
-7.51174e-08
-1.65135e-08
6.99311e-06
-6.87105e-08
-1.63487e-08
7.04025e-06
-6.23401e-08
-1.61742e-08
7.08405e-06
-5.60216e-08
-1.59911e-08
7.12454e-06
-4.97669e-08
-1.58013e-08
7.16176e-06
-4.35844e-08
-1.56054e-08
7.19574e-06
-3.74793e-08
-1.54048e-08
7.22651e-06
-3.14541e-08
-1.52e-08
7.25411e-06
-2.55093e-08
-1.49916e-08
7.27858e-06
-1.96438e-08
-1.47801e-08
7.29995e-06
-1.38556e-08
-1.45655e-08
7.31827e-06
-8.14227e-09
-1.43487e-08
7.33355e-06
-2.5012e-09
-1.41292e-08
7.34584e-06
3.06934e-09
-1.39082e-08
7.35518e-06
8.57071e-09
-1.36846e-08
7.36158e-06
1.40036e-08
-1.34596e-08
7.36508e-06
1.93678e-08
-1.32324e-08
7.36573e-06
2.46622e-08
-1.30039e-08
7.36354e-06
2.98853e-08
-1.27731e-08
7.35856e-06
3.50347e-08
-1.25413e-08
7.35082e-06
4.01074e-08
-1.23071e-08
7.34036e-06
4.50997e-08
-1.20715e-08
7.32722e-06
5.00078e-08
-1.18334e-08
7.31144e-06
5.4827e-08
-1.15936e-08
7.29306e-06
5.95526e-08
-1.13509e-08
7.27214e-06
6.41793e-08
-1.11061e-08
7.24872e-06
6.87019e-08
-1.0858e-08
7.22285e-06
7.3115e-08
-1.06071e-08
7.19459e-06
7.74132e-08
-1.03523e-08
7.16398e-06
8.15911e-08
-1.00939e-08
7.1311e-06
8.56434e-08
-9.83082e-09
7.09599e-06
8.95646e-08
-9.56364e-09
7.05873e-06
9.33496e-08
-9.29093e-09
7.01937e-06
9.69931e-08
-9.0133e-09
6.97798e-06
1.0049e-07
-8.72913e-09
6.93464e-06
1.03837e-07
-8.43946e-09
6.8894e-06
1.07028e-07
-8.14258e-09
6.84235e-06
1.1006e-07
-7.83958e-09
6.79356e-06
1.12929e-07
-7.52851e-09
6.74309e-06
1.15629e-07
-7.21092e-09
6.69104e-06
1.18159e-07
-6.88485e-09
6.63748e-06
1.20514e-07
-6.55204e-09
6.58248e-06
1.22694e-07
-6.21073e-09
6.52614e-06
1.24694e-07
-5.86339e-09
6.46852e-06
1.26512e-07
-5.50745e-09
6.40973e-06
1.28146e-07
-5.14608e-09
6.34983e-06
1.29594e-07
-4.7758e-09
6.28892e-06
1.30854e-07
-4.40203e-09
6.22709e-06
1.31924e-07
-4.02094e-09
6.16442e-06
1.32806e-07
-3.63807e-09
6.10101e-06
1.33496e-07
-3.24968e-09
6.03696e-06
1.33998e-07
-2.86251e-09
5.97234e-06
1.343e-07
-2.47257e-09
5.90728e-06
1.34412e-07
-2.08498e-09
5.84185e-06
1.34324e-07
-1.69742e-09
5.77617e-06
1.34044e-07
-1.31569e-09
5.71033e-06
1.33569e-07
-9.42434e-10
5.64445e-06
1.3289e-07
-5.73359e-10
5.57863e-06
1.32027e-07
-2.20454e-10
5.51299e-06
1.30939e-07
1.28304e-10
5.44763e-06
1.29694e-07
4.54997e-10
5.38267e-06
1.28182e-07
7.86799e-10
5.31818e-06
1.26619e-07
1.08957e-09
5.25432e-06
1.2465e-07
1.42175e-09
5.19096e-06
1.23096e-07
1.69181e-09
5.12853e-06
1.20427e-07
2.09201e-09
5.06568e-06
1.20786e-07
2.2722e-09
5.00502e-06
1.1521e-07
3.04175e-09
4.9383e-06
1.27294e-07
2.56703e-09
4.88165e-06
1.04083e-07
5.23722e-09
4.7946e-06
1.68277e-07
1.20246e-09
8.64335e-08
1.04253e-08
4.38596e-06
-6.52085e-07
-2.30194e-09
4.55144e-06
-4.77818e-07
-7.27201e-09
4.68356e-06
-3.67741e-07
-1.03435e-08
4.80061e-06
-3.15809e-07
-1.22901e-08
4.9099e-06
-2.87916e-07
-1.3866e-08
5.01414e-06
-2.69695e-07
-1.49151e-08
5.11574e-06
-2.60207e-07
-1.53923e-08
5.21632e-06
-2.56359e-07
-1.56183e-08
5.31628e-06
-2.5398e-07
-1.5816e-08
5.41558e-06
-2.5147e-07
-1.59984e-08
5.51408e-06
-2.48693e-07
-1.61521e-08
5.61163e-06
-2.45437e-07
-1.63029e-08
5.708e-06
-2.41437e-07
-1.64706e-08
5.80292e-06
-2.36646e-07
-1.66519e-08
5.89618e-06
-2.31132e-07
-1.68351e-08
5.98753e-06
-2.24962e-07
-1.70096e-08
6.07677e-06
-2.18193e-07
-1.71662e-08
6.1637e-06
-2.10893e-07
-1.72969e-08
6.24813e-06
-2.03132e-07
-1.73969e-08
6.3299e-06
-1.94975e-07
-1.74639e-08
6.40887e-06
-1.86476e-07
-1.74976e-08
6.48491e-06
-1.77689e-07
-1.74988e-08
6.55792e-06
-1.6866e-07
-1.74687e-08
6.6278e-06
-1.59435e-07
-1.74103e-08
6.69448e-06
-1.50056e-07
-1.73253e-08
6.75791e-06
-1.40562e-07
-1.72175e-08
6.81802e-06
-1.30995e-07
-1.70883e-08
6.87481e-06
-1.2139e-07
-1.69416e-08
6.92826e-06
-1.11784e-07
-1.6779e-08
6.97836e-06
-1.02207e-07
-1.66033e-08
7.02513e-06
-9.26885e-08
-1.64166e-08
7.06857e-06
-8.32505e-08
-1.62201e-08
7.10873e-06
-7.39107e-08
-1.60161e-08
7.14564e-06
-6.46815e-08
-1.5805e-08
7.17932e-06
-5.55706e-08
-1.55887e-08
7.20981e-06
-4.65813e-08
-1.53676e-08
7.23716e-06
-3.77142e-08
-1.51424e-08
7.2614e-06
-2.89673e-08
-1.49139e-08
7.28256e-06
-2.03374e-08
-1.46819e-08
7.30069e-06
-1.18206e-08
-1.44477e-08
7.31581e-06
-3.41268e-09
-1.42107e-08
7.32796e-06
4.88916e-09
-1.39722e-08
7.33718e-06
1.30871e-08
-1.37311e-08
7.34349e-06
2.11825e-08
-1.3489e-08
7.34692e-06
2.9175e-08
-1.32447e-08
7.34752e-06
3.70633e-08
-1.29994e-08
7.34531e-06
4.48451e-08
-1.27523e-08
7.34033e-06
5.25174e-08
-1.25044e-08
7.33262e-06
6.00754e-08
-1.22548e-08
7.32221e-06
6.7514e-08
-1.20043e-08
7.30914e-06
7.48273e-08
-1.17518e-08
7.29345e-06
8.20089e-08
-1.14983e-08
7.2752e-06
8.90513e-08
-1.12426e-08
7.25441e-06
9.5947e-08
-1.09855e-08
7.23115e-06
1.02688e-07
-1.07258e-08
7.20546e-06
1.09267e-07
-1.04642e-08
7.1774e-06
1.15675e-07
-1.01994e-08
7.14702e-06
1.21905e-07
-9.93206e-09
7.11437e-06
1.27949e-07
-9.66062e-09
7.07952e-06
1.33798e-07
-9.38613e-09
7.04254e-06
1.39445e-07
-9.10684e-09
7.00347e-06
1.44882e-07
-8.82361e-09
6.96239e-06
1.50102e-07
-8.53449e-09
6.91937e-06
1.55098e-07
-8.24092e-09
6.87447e-06
1.59864e-07
-7.94094e-09
6.82778e-06
1.64394e-07
-7.63592e-09
6.77935e-06
1.6868e-07
-7.3234e-09
6.72926e-06
1.72718e-07
-7.00546e-09
6.6776e-06
1.76501e-07
-6.67962e-09
6.62443e-06
1.80027e-07
-6.34824e-09
6.56984e-06
1.83291e-07
-6.00924e-09
6.51391e-06
1.86289e-07
-5.66559e-09
6.45672e-06
1.89019e-07
-5.31444e-09
6.39835e-06
1.91475e-07
-4.95897e-09
6.33888e-06
1.93654e-07
-4.59507e-09
6.27841e-06
1.95555e-07
-4.22891e-09
6.21701e-06
1.97175e-07
-3.85577e-09
6.15478e-06
1.98515e-07
-3.48203e-09
6.0918e-06
1.99572e-07
-3.10338e-09
6.02818e-06
2.0035e-07
-2.72734e-09
5.96399e-06
2.00836e-07
-2.34961e-09
5.89933e-06
2.01036e-07
-1.97317e-09
5.83431e-06
2.00945e-07
-1.59905e-09
5.76901e-06
2.00567e-07
-1.22668e-09
5.70353e-06
1.99907e-07
-8.64711e-10
5.63797e-06
1.9894e-07
-5.00095e-10
5.57242e-06
1.97711e-07
-1.47353e-10
5.50699e-06
1.96143e-07
2.15936e-10
5.44176e-06
1.94342e-07
5.68576e-10
5.37682e-06
1.92171e-07
9.40901e-10
5.31223e-06
1.89899e-07
1.30331e-09
5.24806e-06
1.87096e-07
1.70651e-09
5.18422e-06
1.84855e-07
2.06256e-09
5.12101e-06
1.81079e-07
2.54254e-09
5.05735e-06
1.81641e-07
2.78249e-09
4.99517e-06
1.73762e-07
3.59759e-09
4.92838e-06
1.91067e-07
3.01135e-09
4.86715e-06
1.59591e-07
5.69991e-09
4.7862e-06
2.48029e-07
1.2092e-09
1.42387e-07
9.9621e-09
4.38517e-06
-8.68258e-07
-2.33468e-09
4.54903e-06
-6.34292e-07
-7.37852e-09
4.67971e-06
-4.87927e-07
-1.04999e-08
4.79572e-06
-4.19308e-07
-1.25028e-08
4.90412e-06
-3.82187e-07
-1.41298e-08
5.00756e-06
-3.57934e-07
-1.52062e-08
5.10848e-06
-3.45423e-07
-1.5702e-08
5.20841e-06
-3.40344e-07
-1.59518e-08
5.30774e-06
-3.37132e-07
-1.61767e-08
5.4064e-06
-3.33736e-07
-1.63872e-08
5.50426e-06
-3.29984e-07
-1.65704e-08
5.60115e-06
-3.2558e-07
-1.67524e-08
5.69685e-06
-3.2018e-07
-1.69517e-08
5.79109e-06
-3.13727e-07
-1.71636e-08
5.88365e-06
-3.06318e-07
-1.73757e-08
5.97431e-06
-2.98038e-07
-1.75767e-08
6.06284e-06
-2.88969e-07
-1.77567e-08
6.14905e-06
-2.792e-07
-1.79074e-08
6.23277e-06
-2.68827e-07
-1.80238e-08
6.31383e-06
-2.57933e-07
-1.81033e-08
6.3921e-06
-2.46595e-07
-1.81455e-08
6.46744e-06
-2.34881e-07
-1.81513e-08
6.53976e-06
-2.22855e-07
-1.81219e-08
6.60896e-06
-2.10577e-07
-1.80604e-08
6.67497e-06
-1.98101e-07
-1.79686e-08
6.73774e-06
-1.85481e-07
-1.78507e-08
6.79722e-06
-1.7277e-07
-1.77081e-08
6.85339e-06
-1.60016e-07
-1.75451e-08
6.90624e-06
-1.47267e-07
-1.73636e-08
6.95576e-06
-1.34564e-07
-1.71665e-08
7.00198e-06
-1.21944e-07
-1.69563e-08
7.0449e-06
-1.09437e-07
-1.67346e-08
7.08456e-06
-9.70659e-08
-1.65037e-08
7.12099e-06
-8.4847e-08
-1.62643e-08
7.15422e-06
-7.27899e-08
-1.60185e-08
7.18431e-06
-6.08985e-08
-1.57668e-08
7.21128e-06
-4.91732e-08
-1.55101e-08
7.23517e-06
-3.76105e-08
-1.52494e-08
7.25602e-06
-2.62059e-08
-1.49848e-08
7.27387e-06
-1.49538e-08
-1.47175e-08
7.28876e-06
-3.84786e-09
-1.44472e-08
7.3007e-06
7.11601e-09
-1.41754e-08
7.30975e-06
1.7941e-08
-1.39009e-08
7.31593e-06
2.86295e-08
-1.36256e-08
7.31927e-06
3.91812e-08
-1.33485e-08
7.31981e-06
4.9595e-08
-1.3071e-08
7.31758e-06
5.9868e-08
-1.27923e-08
7.31261e-06
6.99966e-08
-1.25138e-08
7.30495e-06
7.99749e-08
-1.22345e-08
7.29462e-06
8.9796e-08
-1.19553e-08
7.28167e-06
9.94527e-08
-1.16754e-08
7.26614e-06
1.08937e-07
-1.13959e-08
7.24806e-06
1.18238e-07
-1.11157e-08
7.2275e-06
1.27347e-07
-1.08356e-08
7.20449e-06
1.36254e-07
-1.05546e-08
7.17908e-06
1.44948e-07
-1.02734e-08
7.15132e-06
1.53419e-07
-9.99101e-09
7.12128e-06
1.61657e-07
-9.70792e-09
7.089e-06
1.69649e-07
-9.42279e-09
7.05455e-06
1.77388e-07
-9.13673e-09
7.01798e-06
1.84862e-07
-8.84795e-09
6.97935e-06
1.92061e-07
-8.55744e-09
6.93874e-06
1.98975e-07
-8.26321e-09
6.89621e-06
2.05596e-07
-7.96679e-09
6.85182e-06
2.11916e-07
-7.66646e-09
6.80565e-06
2.17927e-07
-7.36364e-09
6.75777e-06
2.23618e-07
-7.05562e-09
6.70825e-06
2.28983e-07
-6.74442e-09
6.65716e-06
2.34015e-07
-6.42725e-09
6.60458e-06
2.38709e-07
-6.10672e-09
6.55059e-06
2.43061e-07
-5.78089e-09
6.49527e-06
2.47064e-07
-5.45269e-09
6.43869e-06
2.50718e-07
-5.11988e-09
6.38094e-06
2.54012e-07
-4.78504e-09
6.32209e-06
2.56944e-07
-4.44376e-09
6.26223e-06
2.59514e-07
-4.10316e-09
6.20144e-06
2.61719e-07
-3.75672e-09
6.13981e-06
2.63559e-07
-3.41215e-09
6.0774e-06
2.65032e-07
-3.06158e-09
6.01432e-06
2.66142e-07
-2.71446e-09
5.95064e-06
2.66876e-07
-2.35936e-09
5.88643e-06
2.67239e-07
-2.00202e-09
5.82178e-06
2.67231e-07
-1.63514e-09
5.75675e-06
2.66854e-07
-1.26088e-09
5.6914e-06
2.66124e-07
-8.79966e-10
5.6258e-06
2.65023e-07
-4.90118e-10
5.56001e-06
2.63579e-07
-8.86327e-11
5.49406e-06
2.61753e-07
3.30127e-10
5.42805e-06
2.59585e-07
7.59151e-10
5.362e-06
2.5701e-07
1.20177e-09
5.29607e-06
2.54178e-07
1.63587e-09
5.23034e-06
2.50752e-07
2.07371e-09
5.16496e-06
2.47804e-07
2.43127e-09
5.10018e-06
2.43009e-07
2.83917e-09
5.0356e-06
2.43283e-07
2.93386e-09
4.9722e-06
2.33563e-07
3.59783e-09
4.90669e-06
2.53903e-07
2.68141e-09
4.84256e-06
2.18274e-07
5.44944e-09
4.76849e-06
3.21903e-07
2.24374e-10
2.07759e-07
9.50085e-09
4.38406e-06
-1.08327e-06
-2.37301e-09
4.54562e-06
-7.88344e-07
-7.51585e-09
4.67434e-06
-6.05936e-07
-1.07117e-08
4.78893e-06
-5.21098e-07
-1.27951e-08
4.89611e-06
-4.74879e-07
-1.44855e-08
4.99846e-06
-4.447e-07
-1.55892e-08
5.09844e-06
-4.29298e-07
-1.61003e-08
5.1975e-06
-4.23034e-07
-1.63713e-08
5.29596e-06
-4.18971e-07
-1.66214e-08
5.39374e-06
-4.14661e-07
-1.68587e-08
5.49073e-06
-4.09897e-07
-1.70726e-08
5.58673e-06
-4.04297e-07
-1.72892e-08
5.68152e-06
-3.97442e-07
-1.75251e-08
5.77484e-06
-3.89275e-07
-1.77741e-08
5.86647e-06
-3.79919e-07
-1.80225e-08
5.95617e-06
-3.69485e-07
-1.82579e-08
6.04375e-06
-3.58075e-07
-1.84694e-08
6.129e-06
-3.45805e-07
-1.86481e-08
6.21175e-06
-3.32793e-07
-1.87883e-08
6.29185e-06
-3.19146e-07
-1.88871e-08
6.36916e-06
-3.0496e-07
-1.89439e-08
6.44356e-06
-2.90319e-07
-1.89592e-08
6.51494e-06
-2.75303e-07
-1.89344e-08
6.58322e-06
-2.59985e-07
-1.88725e-08
6.64833e-06
-2.44435e-07
-1.87757e-08
6.71021e-06
-2.28719e-07
-1.86481e-08
6.76884e-06
-2.12901e-07
-1.84915e-08
6.82417e-06
-1.97041e-07
-1.83104e-08
6.87621e-06
-1.81199e-07
-1.81072e-08
6.92496e-06
-1.65424e-07
-1.78851e-08
6.97042e-06
-1.49763e-07
-1.7647e-08
7.01263e-06
-1.34253e-07
-1.73946e-08
7.05162e-06
-1.18921e-07
-1.71307e-08
7.08742e-06
-1.03787e-07
-1.68564e-08
7.12006e-06
-8.88613e-08
-1.65739e-08
7.1496e-06
-7.41492e-08
-1.62839e-08
7.17606e-06
-5.96496e-08
-1.59877e-08
7.19949e-06
-4.53577e-08
-1.56864e-08
7.21994e-06
-3.12668e-08
-1.53804e-08
7.23742e-06
-1.73692e-08
-1.50711e-08
7.25199e-06
-3.65587e-09
-1.47584e-08
7.26367e-06
9.8787e-09
-1.44439e-08
7.2725e-06
2.32392e-08
-1.41269e-08
7.27851e-06
3.64293e-08
-1.38093e-08
7.28173e-06
4.94493e-08
-1.34903e-08
7.2822e-06
6.22982e-08
-1.31715e-08
7.27994e-06
7.49734e-08
-1.28524e-08
7.275e-06
8.74708e-08
-1.25346e-08
7.26741e-06
9.97835e-08
-1.22171e-08
7.2572e-06
1.11903e-07
-1.19012e-08
7.24442e-06
1.23822e-07
-1.15863e-08
7.2291e-06
1.3553e-07
-1.12735e-08
7.21128e-06
1.47014e-07
-1.09621e-08
7.19102e-06
1.58264e-07
-1.06528e-08
7.16835e-06
1.69267e-07
-1.0345e-08
7.14333e-06
1.80011e-07
-1.00394e-08
7.116e-06
1.90483e-07
-9.73531e-09
7.08642e-06
2.0067e-07
-9.43294e-09
7.05464e-06
2.10559e-07
-9.13126e-09
7.02072e-06
2.20138e-07
-8.83147e-09
6.98472e-06
2.29394e-07
-8.53163e-09
6.94669e-06
2.38314e-07
-8.23285e-09
6.90671e-06
2.46887e-07
-7.93312e-09
6.86484e-06
2.55103e-07
-7.63401e-09
6.82114e-06
2.62952e-07
-7.33417e-09
6.77567e-06
2.70424e-07
-7.03473e-09
6.72852e-06
2.77509e-07
-6.73361e-09
6.67974e-06
2.84195e-07
-6.4328e-09
6.6294e-06
2.90476e-07
-6.12862e-09
6.57759e-06
2.96346e-07
-5.82477e-09
6.52436e-06
3.01805e-07
-5.51934e-09
6.4698e-06
3.06843e-07
-5.21394e-09
6.41396e-06
3.11459e-07
-4.90529e-09
6.35692e-06
3.15641e-07
-4.59323e-09
6.29875e-06
3.19387e-07
-4.27227e-09
6.23951e-06
3.227e-07
-3.94515e-09
6.17925e-06
3.25579e-07
-3.60479e-09
6.11803e-06
3.28037e-07
-3.26015e-09
6.05588e-06
3.30071e-07
-2.90172e-09
5.99287e-06
3.31696e-07
-2.54244e-09
5.929e-06
3.329e-07
-2.16188e-09
5.86432e-06
3.33691e-07
-1.77198e-09
5.79884e-06
3.34055e-07
-1.35027e-09
5.73261e-06
3.33992e-07
-9.16286e-10
5.66572e-06
3.33475e-07
-4.60176e-10
5.59824e-06
3.32498e-07
7.84515e-13
5.53033e-06
3.31006e-07
4.72208e-10
5.46216e-06
3.28987e-07
9.23893e-10
5.39404e-06
3.26363e-07
1.34373e-09
5.32619e-06
3.23139e-07
1.70865e-09
5.25896e-06
3.19393e-07
2.01148e-09
5.19258e-06
3.14873e-07
2.25484e-09
5.12724e-06
3.10746e-07
2.39267e-09
5.06312e-06
3.04543e-07
2.58647e-09
4.99998e-06
3.03966e-07
2.46009e-09
4.93785e-06
2.92696e-07
2.98885e-09
4.87545e-06
3.14429e-07
1.88524e-09
4.81131e-06
2.77674e-07
4.73994e-09
4.7437e-06
3.90368e-07
-8.2994e-10
2.78566e-07
8.78437e-09
4.38257e-06
-1.29676e-06
-2.41964e-09
4.54116e-06
-9.39242e-07
-7.69047e-09
4.66738e-06
-7.21175e-07
-1.0981e-08
4.78017e-06
-6.20717e-07
-1.31659e-08
4.88578e-06
-5.65556e-07
-1.49353e-08
4.98674e-06
-5.29584e-07
-1.60738e-08
5.08551e-06
-5.1146e-07
-1.6607e-08
5.18345e-06
-5.04066e-07
-1.69083e-08
5.2808e-06
-4.99126e-07
-1.71946e-08
5.37747e-06
-4.93861e-07
-1.74717e-08
5.47334e-06
-4.88034e-07
-1.77308e-08
5.56821e-06
-4.81168e-07
-1.79979e-08
5.66183e-06
-4.72781e-07
-1.82869e-08
5.75397e-06
-4.62824e-07
-1.85896e-08
5.8444e-06
-4.51452e-07
-1.88906e-08
5.93289e-06
-4.38799e-07
-1.9176e-08
6.01924e-06
-4.24991e-07
-1.94339e-08
6.10326e-06
-4.10171e-07
-1.96543e-08
6.18478e-06
-3.94483e-07
-1.98307e-08
6.26365e-06
-3.78056e-07
-1.99599e-08
6.33973e-06
-3.61004e-07
-2.00408e-08
6.41291e-06
-3.43429e-07
-2.00738e-08
6.4831e-06
-3.25427e-07
-2.00601e-08
6.5502e-06
-3.07085e-07
-2.00029e-08
6.61415e-06
-2.88486e-07
-1.99043e-08
6.67491e-06
-2.69707e-07
-1.97688e-08
6.73243e-06
-2.50824e-07
-1.95984e-08
6.7867e-06
-2.31911e-07
-1.93981e-08
6.83771e-06
-2.13035e-07
-1.91706e-08
6.88546e-06
-1.94258e-07
-1.89195e-08
6.92998e-06
-1.75631e-07
-1.86483e-08
6.97129e-06
-1.572e-07
-1.8359e-08
7.00941e-06
-1.38996e-07
-1.80547e-08
7.04441e-06
-1.2104e-07
-1.77368e-08
7.0763e-06
-1.03346e-07
-1.7408e-08
7.10514e-06
-8.59178e-08
-1.70694e-08
7.13096e-06
-6.87524e-08
-1.67224e-08
7.15382e-06
-5.18429e-08
-1.63684e-08
7.17374e-06
-3.51803e-08
-1.6008e-08
7.19076e-06
-1.87541e-08
-1.56431e-08
7.20493e-06
-2.55187e-09
-1.5274e-08
7.21628e-06
1.34336e-08
-1.49022e-08
7.22484e-06
2.92089e-08
-1.45274e-08
7.23064e-06
4.47799e-08
-1.41519e-08
7.23372e-06
6.01477e-08
-1.37753e-08
7.2341e-06
7.53121e-08
-1.33994e-08
7.23183e-06
9.02711e-08
-1.30242e-08
7.22693e-06
1.05021e-07
-1.26514e-08
7.21944e-06
1.19553e-07
-1.22805e-08
7.20939e-06
1.3386e-07
-1.19127e-08
7.19683e-06
1.47932e-07
-1.15484e-08
7.18179e-06
1.61759e-07
-1.11889e-08
7.16431e-06
1.75326e-07
-1.08335e-08
7.14444e-06
1.8862e-07
-1.04827e-08
7.12221e-06
2.01628e-07
-1.01366e-08
7.09769e-06
2.14334e-07
-9.79641e-09
7.0709e-06
2.26727e-07
-9.4617e-09
7.04192e-06
2.38789e-07
-9.13267e-09
7.01078e-06
2.50506e-07
-8.80863e-09
6.97754e-06
2.61866e-07
-8.49096e-09
6.94226e-06
2.72853e-07
-8.17833e-09
6.90499e-06
2.83454e-07
-7.87229e-09
6.86579e-06
2.93654e-07
-7.56909e-09
6.82472e-06
3.03443e-07
-7.27175e-09
6.78183e-06
3.12816e-07
-6.98031e-09
6.73719e-06
3.21759e-07
-6.69062e-09
6.69084e-06
3.30256e-07
-6.39991e-09
6.64285e-06
3.38299e-07
-6.10983e-09
6.59325e-06
3.45883e-07
-5.81283e-09
6.5421e-06
3.53009e-07
-5.50998e-09
6.48942e-06
3.59684e-07
-5.20385e-09
6.43525e-06
3.6591e-07
-4.89757e-09
6.37961e-06
3.71691e-07
-4.5909e-09
6.3225e-06
3.77017e-07
-4.2759e-09
6.26394e-06
3.81895e-07
-3.94591e-09
6.20391e-06
3.86322e-07
-3.59815e-09
6.14242e-06
3.90292e-07
-3.22471e-09
6.07949e-06
3.93788e-07
-2.82787e-09
6.01518e-06
3.96785e-07
-2.40368e-09
5.94957e-06
3.99268e-07
-1.96616e-09
5.88276e-06
4.01199e-07
-1.49741e-09
5.81494e-06
4.02526e-07
-1.01811e-09
5.74635e-06
4.03183e-07
-5.38131e-10
5.67726e-06
4.03165e-07
-9.09261e-11
5.60799e-06
4.02423e-07
3.21862e-10
5.53881e-06
4.00978e-07
6.9135e-10
5.47002e-06
3.98781e-07
1.00982e-09
5.40185e-06
3.95891e-07
1.26682e-09
5.33449e-06
3.92242e-07
1.46856e-09
5.26813e-06
3.87876e-07
1.62483e-09
5.2029e-06
3.82891e-07
1.7246e-09
5.13896e-06
3.7701e-07
1.80393e-09
5.0764e-06
3.71512e-07
1.79737e-09
5.01522e-06
3.63821e-07
1.9023e-09
4.95538e-06
3.62167e-07
1.64676e-09
4.89621e-06
3.49716e-07
2.15407e-09
4.8379e-06
3.7187e-07
8.76298e-10
4.77558e-06
3.36141e-07
3.8538e-09
4.71413e-06
4.538e-07
-1.95772e-09
3.52116e-07
7.97205e-09
4.38068e-06
-1.5083e-06
-2.47631e-09
4.53555e-06
-1.08621e-06
-7.90353e-09
4.65873e-06
-8.3304e-07
-1.13072e-08
4.76932e-06
-7.17695e-07
-1.36162e-08
4.87301e-06
-6.53763e-07
-1.54819e-08
4.97226e-06
-6.12165e-07
-1.66634e-08
5.06954e-06
-5.91524e-07
-1.72239e-08
5.1661e-06
-5.83064e-07
-1.75624e-08
5.26208e-06
-5.77213e-07
-1.78931e-08
5.35738e-06
-5.70941e-07
-1.82193e-08
5.45187e-06
-5.63986e-07
-1.85343e-08
5.54533e-06
-5.55766e-07
-1.8864e-08
5.63752e-06
-5.45751e-07
-1.92195e-08
5.7282e-06
-5.33911e-07
-1.95901e-08
5.81714e-06
-5.20434e-07
-1.99584e-08
5.90412e-06
-5.05477e-07
-2.03088e-08
5.98896e-06
-4.89196e-07
-2.06277e-08
6.07145e-06
-4.71762e-07
-2.09041e-08
6.15144e-06
-4.53346e-07
-2.11305e-08
6.22879e-06
-4.34098e-07
-2.1303e-08
6.30336e-06
-4.14153e-07
-2.14198e-08
6.37504e-06
-3.93631e-07
-2.14811e-08
6.44374e-06
-3.72642e-07
-2.14878e-08
6.50939e-06
-3.51288e-07
-2.14432e-08
6.57191e-06
-3.29663e-07
-2.13493e-08
6.63128e-06
-3.07857e-07
-2.12109e-08
6.68744e-06
-2.85959e-07
-2.10302e-08
6.74039e-06
-2.64051e-07
-2.08124e-08
6.79013e-06
-2.42212e-07
-2.05607e-08
6.83666e-06
-2.20511e-07
-2.02793e-08
6.88001e-06
-1.99008e-07
-1.99719e-08
6.9202e-06
-1.77754e-07
-1.96413e-08
6.95728e-06
-1.56784e-07
-1.92907e-08
6.99129e-06
-1.36122e-07
-1.89221e-08
7.02226e-06
-1.15781e-07
-1.85387e-08
7.05025e-06
-9.57631e-08
-1.81417e-08
7.07529e-06
-7.60653e-08
-1.77327e-08
7.09744e-06
-5.66764e-08
-1.73139e-08
7.11673e-06
-3.75844e-08
-1.6886e-08
7.1332e-06
-1.87756e-08
-1.64513e-08
7.14689e-06
-2.32902e-10
-1.60105e-08
7.15784e-06
1.80531e-08
-1.55655e-08
7.16607e-06
3.60912e-08
-1.51164e-08
7.17163e-06
5.38911e-08
-1.46663e-08
7.17454e-06
7.14541e-08
-1.42146e-08
7.17483e-06
8.8782e-08
-1.3764e-08
7.17254e-06
1.05875e-07
-1.3315e-08
7.1677e-06
1.22729e-07
-1.28704e-08
7.16035e-06
1.39337e-07
-1.24291e-08
7.15051e-06
1.55688e-07
-1.19929e-08
7.13823e-06
1.71776e-07
-1.15628e-08
7.12354e-06
1.87591e-07
-1.11418e-08
7.10648e-06
2.03115e-07
-1.07292e-08
7.08709e-06
2.18336e-07
-1.03252e-08
7.06541e-06
2.3324e-07
-9.93206e-09
7.04148e-06
2.47814e-07
-9.55245e-09
7.01535e-06
2.62043e-07
-9.18366e-09
6.98705e-06
2.75909e-07
-8.8253e-09
6.95663e-06
2.89403e-07
-8.47919e-09
6.92413e-06
3.02512e-07
-8.14173e-09
6.88958e-06
3.15214e-07
-7.8098e-09
6.85301e-06
3.27506e-07
-7.49115e-09
6.81446e-06
3.39379e-07
-7.17442e-09
6.77393e-06
3.50835e-07
-6.85921e-09
6.73142e-06
3.61885e-07
-6.55921e-09
6.68692e-06
3.72526e-07
-6.27272e-09
6.64042e-06
3.82744e-07
-5.98951e-09
6.59189e-06
3.9254e-07
-5.7059e-09
6.54126e-06
4.01918e-07
-5.4135e-09
6.48851e-06
4.10867e-07
-5.10647e-09
6.43361e-06
4.19358e-07
-4.77146e-09
6.37657e-06
4.27357e-07
-4.41251e-09
6.31745e-06
4.34841e-07
-4.03268e-09
6.25632e-06
4.41758e-07
-3.61022e-09
6.1933e-06
4.48047e-07
-3.13311e-09
6.12861e-06
4.53636e-07
-2.6323e-09
6.06256e-06
4.58484e-07
-2.13616e-09
5.99544e-06
4.62562e-07
-1.66454e-09
5.92759e-06
4.65854e-07
-1.21385e-09
5.85929e-06
4.68359e-07
-7.99065e-10
5.79084e-06
4.70079e-07
-4.32444e-10
5.72247e-06
4.71008e-07
-1.11156e-10
5.65435e-06
4.71126e-07
1.72557e-10
5.58663e-06
4.7045e-07
4.27094e-10
5.51946e-06
4.68945e-07
6.45264e-10
5.45299e-06
4.66614e-07
8.3853e-10
5.38736e-06
4.63424e-07
9.81218e-10
5.32271e-06
4.59441e-07
1.09381e-09
5.25914e-06
4.54641e-07
1.16591e-09
5.19675e-06
4.49052e-07
1.21487e-09
5.13562e-06
4.4282e-07
1.20521e-09
5.07581e-06
4.3562e-07
1.19824e-09
5.01743e-06
4.288e-07
1.09197e-09
4.96039e-06
4.19732e-07
1.12846e-09
4.90486e-06
4.16943e-07
7.57364e-10
4.84964e-06
4.03653e-07
1.27565e-09
4.79608e-06
4.25635e-07
-1.89637e-10
4.73676e-06
3.92472e-07
2.98753e-09
4.68137e-06
5.12306e-07
-3.09556e-09
4.26479e-07
7.2211e-09
4.37832e-06
-1.71741e-06
-2.54386e-09
4.52869e-06
-1.22843e-06
-8.15556e-09
4.64826e-06
-9.40912e-07
-1.16914e-08
4.75625e-06
-8.11545e-07
-1.41486e-08
4.85765e-06
-7.39026e-07
-1.61284e-08
4.95484e-06
-6.92003e-07
-1.73601e-08
5.05036e-06
-6.69086e-07
-1.79536e-08
5.14526e-06
-6.59628e-07
-1.83371e-08
5.23959e-06
-6.52819e-07
-1.8722e-08
5.33323e-06
-6.45476e-07
-1.9109e-08
5.42605e-06
-6.37309e-07
-1.94941e-08
5.51781e-06
-6.27625e-07
-1.99026e-08
5.60826e-06
-6.1586e-07
-2.03425e-08
5.69717e-06
-6.02017e-07
-2.08002e-08
5.78431e-06
-5.86319e-07
-2.1256e-08
5.86947e-06
-5.68951e-07
-2.1692e-08
5.95247e-06
-5.50098e-07
-2.20929e-08
6.03312e-06
-5.29964e-07
-2.24458e-08
6.11126e-06
-5.08746e-07
-2.27423e-08
6.18676e-06
-4.8662e-07
-2.29773e-08
6.25949e-06
-4.6374e-07
-2.31483e-08
6.32936e-06
-4.40243e-07
-2.32549e-08
6.39627e-06
-4.16256e-07
-2.32975e-08
6.46016e-06
-3.91894e-07
-2.32794e-08
6.52096e-06
-3.67263e-07
-2.32024e-08
6.57864e-06
-3.42464e-07
-2.30715e-08
6.63317e-06
-3.17599e-07
-2.28886e-08
6.68453e-06
-2.9276e-07
-2.26597e-08
6.73274e-06
-2.68033e-07
-2.2388e-08
6.77781e-06
-2.43498e-07
-2.20783e-08
6.81976e-06
-2.19221e-07
-2.17347e-08
6.85862e-06
-1.95257e-07
-2.13607e-08
6.89444e-06
-1.71646e-07
-2.09594e-08
6.92727e-06
-1.48413e-07
-2.05339e-08
6.95714e-06
-1.25569e-07
-2.00873e-08
6.98412e-06
-1.03116e-07
-1.96213e-08
7.00824e-06
-8.10472e-08
-1.91378e-08
7.02955e-06
-5.93469e-08
-1.86396e-08
7.04809e-06
-3.80001e-08
-1.81276e-08
7.06391e-06
-1.69887e-08
-1.76051e-08
7.07704e-06
3.71061e-09
-1.70726e-08
7.08751e-06
2.41094e-08
-1.6533e-08
7.09537e-06
4.4219e-08
-1.5986e-08
7.10064e-06
6.40573e-08
-1.54381e-08
7.10336e-06
8.36236e-08
-1.48869e-08
7.10356e-06
1.02924e-07
-1.43371e-08
7.10126e-06
1.21961e-07
-1.37885e-08
7.0965e-06
1.40736e-07
-1.32476e-08
7.08931e-06
1.59238e-07
-1.27115e-08
7.07972e-06
1.77466e-07
-1.21878e-08
7.06776e-06
1.95412e-07
-1.16751e-08
7.05345e-06
2.13073e-07
-1.11804e-08
7.03684e-06
2.30429e-07
-1.06967e-08
7.01792e-06
2.47473e-07
-1.0224e-08
6.99672e-06
2.642e-07
-9.76336e-09
6.97326e-06
2.80608e-07
-9.33261e-09
6.94753e-06
2.96701e-07
-8.92657e-09
6.9195e-06
3.12475e-07
-8.53363e-09
6.88911e-06
3.27956e-07
-8.17041e-09
6.85632e-06
3.43148e-07
-7.84262e-09
6.82103e-06
3.58031e-07
-7.52671e-09
6.78313e-06
3.72633e-07
-7.22827e-09
6.7425e-06
3.86952e-07
-6.94055e-09
6.69902e-06
4.00948e-07
-6.63235e-09
6.65263e-06
4.14569e-07
-6.295e-09
6.60332e-06
4.27761e-07
-5.93445e-09
6.55113e-06
4.40452e-07
-5.5167e-09
6.49614e-06
4.52537e-07
-5.00328e-09
6.43857e-06
4.63917e-07
-4.42982e-09
6.37876e-06
4.74524e-07
-3.85501e-09
6.31711e-06
4.84309e-07
-3.30469e-09
6.25401e-06
4.93243e-07
-2.78416e-09
6.18983e-06
5.01325e-07
-2.30365e-09
6.12492e-06
5.08555e-07
-1.88839e-09
6.05957e-06
5.14922e-07
-1.52473e-09
5.99399e-06
5.20415e-07
-1.19876e-09
5.92832e-06
5.25033e-07
-8.88076e-10
5.8627e-06
5.28776e-07
-5.95186e-10
5.79723e-06
5.31633e-07
-3.07807e-10
5.73203e-06
5.33593e-07
-4.37819e-11
5.66727e-06
5.34671e-07
1.69929e-10
5.60304e-06
5.34886e-07
3.48358e-10
5.53941e-06
5.34245e-07
5.06625e-10
5.47645e-06
5.32763e-07
6.46927e-10
5.41423e-06
5.30412e-07
7.48798e-10
5.35282e-06
5.27191e-07
8.2744e-10
5.29231e-06
5.23071e-07
8.63505e-10
5.23279e-06
5.18079e-07
8.76412e-10
5.17437e-06
5.12216e-07
8.43466e-10
5.11713e-06
5.055e-07