/*--------------------------------*- C++ -*----------------------------------*\
| =========                 |                                                 |
| \\      /  F ield         | OpenFOAM: The Open Source CFD Toolbox           |
|  \\    /   O peration     | Version:  v1912                                 |
|   \\  /    A nd           | Website:  www.openfoam.com                      |
|    \\/     M anipulation  |                                                 |
\*---------------------------------------------------------------------------*/
FoamFile
{
    version     2.0;
    format      ascii;
    class       volVectorField;
    location    "181";
    object      U;
}
// * * * * * * * * * * * * * * * * * * * * * * * * * * * * * * * * * * * * * //

dimensions      [0 1 -1 0 0 0 0];


internalField   nonuniform List<vector> 
60000
(
(0.998764 0.000464437 -5.42558e-05)
(0.98852 0.00124222 -0.000160171)
(0.969865 0.00163774 -0.000217228)
(0.948155 0.00171178 -0.000242241)
(0.927702 0.0016705 -0.000258594)
(0.909306 0.00159895 -0.000266855)
(0.892507 0.00149891 -0.000265238)
(0.877231 0.00138415 -0.000258997)
(0.863595 0.00127612 -0.000252731)
(0.851497 0.00118132 -0.000247077)
(0.840702 0.00109753 -0.000241613)
(0.831019 0.00102368 -0.000236526)
(0.822312 0.000959787 -0.000232095)
(0.814459 0.000905016 -0.000228269)
(0.807343 0.00085798 -0.000224844)
(0.800864 0.00081752 -0.000221632)
(0.794936 0.000782721 -0.000218495)
(0.789485 0.000752746 -0.000215334)
(0.784448 0.000726842 -0.000212086)
(0.779769 0.00070437 -0.000208728)
(0.775401 0.000684802 -0.000205256)
(0.771305 0.000667685 -0.000201682)
(0.767444 0.000652634 -0.000198021)
(0.76379 0.000639306 -0.0001943)
(0.760318 0.00062741 -0.000190541)
(0.757006 0.000616669 -0.000186773)
(0.753837 0.000606846 -0.000183009)
(0.750796 0.000597705 -0.000179276)
(0.747871 0.000589056 -0.000175587)
(0.745053 0.000580708 -0.00017196)
(0.742334 0.000572518 -0.000168404)
(0.739708 0.000564351 -0.000164928)
(0.737172 0.000556114 -0.000161539)
(0.734721 0.000547728 -0.000158238)
(0.732354 0.000539145 -0.000155028)
(0.730067 0.000530327 -0.00015191)
(0.727861 0.000521258 -0.00014888)
(0.725733 0.000511922 -0.000145937)
(0.723682 0.000502316 -0.000143074)
(0.721708 0.000492432 -0.000140292)
(0.71981 0.000482266 -0.000137582)
(0.717987 0.000471815 -0.000134947)
(0.716239 0.000461082 -0.000132377)
(0.714566 0.00045004 -0.000129872)
(0.712967 0.000438659 -0.000127424)
(0.711444 0.000426889 -0.000125032)
(0.709995 0.000414689 -0.000122689)
(0.708623 0.000402002 -0.000120396)
(0.707328 0.000388772 -0.000118142)
(0.706112 0.000374933 -0.000115927)
(0.704976 0.000360422 -0.000113742)
(0.703924 0.000345162 -0.000111586)
(0.702957 0.000329081 -0.000109449)
(0.702078 0.000312095 -0.000107331)
(0.701292 0.000294125 -0.00010522)
(0.700603 0.00027508 -0.000103115)
(0.700016 0.000254876 -0.000101003)
(0.699535 0.000233415 -9.88841e-05)
(0.699166 0.000210607 -9.67435e-05)
(0.698917 0.000186345 -9.45807e-05)
(0.698795 0.000160534 -9.23826e-05)
(0.698807 0.000133061 -9.01465e-05)
(0.698961 0.000103826 -8.78566e-05)
(0.699269 7.27075e-05 -8.55121e-05)
(0.69974 3.95995e-05 -8.3098e-05)
(0.700385 4.37194e-06 -8.06115e-05)
(0.701217 -3.30913e-05 -7.80366e-05)
(0.702249 -7.29318e-05 -7.53712e-05)
(0.703497 -0.000115276 -7.26003e-05)
(0.704977 -0.000160267 -6.97232e-05)
(0.706706 -0.00020804 -6.67247e-05)
(0.708705 -0.000258757 -6.36069e-05)
(0.710993 -0.00031258 -6.03508e-05)
(0.713596 -0.000369678 -5.69614e-05)
(0.716538 -0.000430242 -5.34145e-05)
(0.719848 -0.000494447 -4.97259e-05)
(0.723559 -0.000562508 -4.58762e-05)
(0.727705 -0.000634605 -4.188e-05)
(0.732325 -0.000711008 -3.77159e-05)
(0.737463 -0.000791884 -3.34103e-05)
(0.743168 -0.000877633 -2.89427e-05)
(0.749495 -0.000968371 -2.43315e-05)
(0.756504 -0.00106459 -1.95709e-05)
(0.764267 -0.00116635 -1.46754e-05)
(0.772863 -0.00127428 -9.69558e-06)
(0.782381 -0.00138841 -4.59811e-06)
(0.792925 -0.00150937 5.53741e-07)
(0.804615 -0.00163716 5.79634e-06)
(0.817586 -0.00177257 1.09921e-05)
(0.832001 -0.00191539 1.63836e-05)
(0.848036 -0.00206533 2.15855e-05)
(0.865923 -0.00222407 2.73371e-05)
(0.885864 -0.00238667 3.22659e-05)
(0.908278 -0.00256145 3.92604e-05)
(0.933132 -0.00271765 4.26769e-05)
(0.961774 -0.00291997 5.6276e-05)
(0.991886 -0.00298569 4.98111e-05)
(1.03118 -0.00333046 9.99811e-05)
(1.05937 -0.00296407 3.59851e-05)
(1.12953 -0.00386936 0.00019793)
(0.998744 0.00137471 -5.37979e-05)
(0.988416 0.00377923 -0.000160491)
(0.969654 0.00510843 -0.000218578)
(0.947868 0.00549298 -0.000244559)
(0.927377 0.00550455 -0.000261854)
(0.908953 0.00538975 -0.000270851)
(0.892127 0.00516337 -0.0002697)
(0.876828 0.00486912 -0.000263749)
(0.863173 0.00457117 -0.00025767)
(0.851054 0.0042938 -0.000252126)
(0.84024 0.0040369 -0.000246712)
(0.830537 0.00380144 -0.000241633)
(0.821811 0.00358985 -0.000237178)
(0.813938 0.00340147 -0.000233305)
(0.806803 0.00323388 -0.000229812)
(0.800305 0.00308488 -0.000226517)
(0.794358 0.00295254 -0.000223283)
(0.788888 0.00283497 -0.000220014)
(0.783833 0.00273032 -0.000216648)
(0.779136 0.00263696 -0.000213164)
(0.774752 0.00255345 -0.000209558)
(0.770638 0.00247852 -0.000205844)
(0.766761 0.00241099 -0.000202035)
(0.763092 0.00234983 -0.000198164)
(0.759604 0.00229405 -0.000194249)
(0.756278 0.00224278 -0.000190321)
(0.753095 0.00219515 -0.000186395)
(0.75004 0.00215038 -0.000182499)
(0.747103 0.00210774 -0.000178645)
(0.744273 0.0020666 -0.000174851)
(0.741543 0.00202638 -0.000171129)
(0.738906 0.0019866 -0.000167485)
(0.73636 0.00194689 -0.000163928)
(0.7339 0.00190698 -0.000160458)
(0.731524 0.00186665 -0.00015708)
(0.729229 0.00182578 -0.000153795)
(0.727016 0.0017843 -0.000150597)
(0.724881 0.00174217 -0.000147489)
(0.722825 0.00169938 -0.000144462)
(0.720845 0.00165594 -0.00014152)
(0.718943 0.00161186 -0.000138651)
(0.717117 0.00156712 -0.000135862)
(0.715366 0.00152168 -0.000133139)
(0.713691 0.00147551 -0.000130487)
(0.712091 0.00142857 -0.000127895)
(0.710567 0.0013808 -0.000125365)
(0.709119 0.00133213 -0.000122888)
(0.707748 0.00128246 -0.000120466)
(0.706455 0.00123168 -0.000118089)
(0.705241 0.00117965 -0.000115758)
(0.704108 0.00112624 -0.000113461)
(0.703059 0.0010713 -0.000111203)
(0.702097 0.00101466 -0.000108967)
(0.701224 0.000956132 -0.00010676)
(0.700444 0.000895552 -0.000104566)
(0.699761 0.00083272 -0.000102387)
(0.699181 0.000767446 -0.000100209)
(0.698708 0.000699525 -9.80326e-05)
(0.698348 0.000628758 -9.58411e-05)
(0.698108 0.000554924 -9.36403e-05)
(0.697994 0.000477814 -9.14117e-05)
(0.698016 0.000397197 -8.91601e-05)
(0.698182 0.000312857 -8.6862e-05)
(0.698501 0.000224552 -8.45254e-05)
(0.698983 0.000132059 -8.21283e-05)
(0.69964 3.51121e-05 -7.9679e-05)
(0.700485 -6.65352e-05 -7.71498e-05)
(0.701531 -0.000173177 -7.45508e-05)
(0.702793 -0.000285072 -7.18555e-05)
(0.704286 -0.000402523 -6.90789e-05)
(0.70603 -0.000525807 -6.61933e-05)
(0.708043 -0.000655283 -6.32151e-05)
(0.710347 -0.000791285 -6.01114e-05)
(0.712965 -0.000934223 -5.69036e-05)
(0.715923 -0.00108452 -5.35482e-05)
(0.71925 -0.00124262 -5.00898e-05)
(0.722977 -0.001409 -4.64849e-05)
(0.72714 -0.00158419 -4.27771e-05)
(0.731777 -0.00176883 -3.89111e-05)
(0.736932 -0.0019635 -3.49487e-05)
(0.742654 -0.00216912 -3.08375e-05)
(0.748997 -0.00238637 -2.66264e-05)
(0.756024 -0.00261637 -2.22651e-05)
(0.763804 -0.00285995 -1.78007e-05)
(0.772415 -0.0031186 -1.32701e-05)
(0.78195 -0.00339347 -8.60915e-06)
(0.792509 -0.00368649 -3.92591e-06)
(0.804213 -0.00399922 9.34901e-07)
(0.817196 -0.00433328 5.72674e-06)
(0.83162 -0.00469204 1.08659e-05)
(0.847661 -0.00507428 1.59232e-05)
(0.865548 -0.00549005 2.18948e-05)
(0.885481 -0.00592459 2.73452e-05)
(0.907873 -0.00641987 3.53646e-05)
(0.932692 -0.00688107 4.04739e-05)
(0.961273 -0.00754123 5.63927e-05)
(0.991291 -0.00782449 5.18353e-05)
(1.03043 -0.00907453 0.000105947)
(1.05854 -0.00816975 3.74173e-05)
(1.12801 -0.0112673 0.000205174)
(0.998704 0.00228158 -5.42292e-05)
(0.9882 0.00631766 -0.000162397)
(0.969202 0.00851968 -0.00022101)
(0.947248 0.00913155 -0.000247071)
(0.926668 0.00913016 -0.000264422)
(0.908181 0.0089194 -0.000273258)
(0.891295 0.00851927 -0.000271782)
(0.875949 0.00800715 -0.00026556)
(0.862255 0.00749349 -0.000259344)
(0.850101 0.00701866 -0.00025376)
(0.839251 0.0065816 -0.000248381)
(0.829513 0.00618336 -0.000243399)
(0.820752 0.00582747 -0.000239085)
(0.812845 0.00551239 -0.000235375)
(0.805675 0.00523357 -0.000232052)
(0.799142 0.00498697 -0.000228921)
(0.793161 0.00476906 -0.000225839)
(0.787657 0.0045764 -0.0002227)
(0.782568 0.00440572 -0.000219441)
(0.777839 0.00425413 -0.000216036)
(0.773421 0.00411909 -0.000212482)
(0.769276 0.00399839 -0.000208793)
(0.765369 0.00389001 -0.000204981)
(0.761669 0.00379216 -0.000201082)
(0.758153 0.0037032 -0.000197115)
(0.754799 0.00362161 -0.000193114)
(0.751589 0.00354598 -0.000189097)
(0.748509 0.003475 -0.000185092)
(0.745547 0.00340748 -0.000181117)
(0.742694 0.00334236 -0.000177189)
(0.739942 0.0032787 -0.000173325)
(0.737285 0.00321575 -0.000169532)
(0.734719 0.00315289 -0.00016582)
(0.732241 0.00308966 -0.000162191)
(0.729849 0.00302575 -0.000158651)
(0.727539 0.00296096 -0.000155201)
(0.725312 0.00289518 -0.000151838)
(0.723165 0.00282834 -0.000148565)
(0.721098 0.00276044 -0.000145374)
(0.71911 0.00269149 -0.000142268)
(0.7172 0.00262149 -0.000139237)
(0.715368 0.00255045 -0.000136288)
(0.713613 0.00247835 -0.000133408)
(0.711935 0.00240514 -0.000130603)
(0.710333 0.00233069 -0.000127859)
(0.708809 0.00225487 -0.000125182)
(0.707362 0.00217752 -0.00012256)
(0.705993 0.00209846 -0.000119999)
(0.704704 0.00201745 -0.000117485)
(0.703495 0.00193427 -0.000115024)
(0.702369 0.00184865 -0.0001126)
(0.701328 0.00176032 -0.00011022)
(0.700375 0.00166897 -0.000107868)
(0.699512 0.00157429 -0.000105551)
(0.698744 0.00147596 -0.000103251)
(0.698074 0.00137363 -0.000100974)
(0.697507 0.00126697 -9.87012e-05)
(0.697049 0.00115562 -9.64379e-05)
(0.696705 0.00103921 -9.41636e-05)
(0.696482 0.00091738 -9.1887e-05)
(0.696387 0.000789738 -8.9587e-05)
(0.696428 0.00065589 -8.72714e-05)
(0.696613 0.000515441 -8.49132e-05)
(0.696953 0.000367981 -8.25231e-05)
(0.697457 0.000213108 -8.00773e-05)
(0.698137 5.03727e-05 -7.75875e-05)
(0.699005 -0.000120676 -7.50216e-05)
(0.700075 -0.00030053 -7.23927e-05)
(0.701362 -0.00048966 -6.96694e-05)
(0.702881 -0.000688574 -6.68738e-05)
(0.704651 -0.000897776 -6.39772e-05)
(0.706691 -0.00111787 -6.09994e-05)
(0.709022 -0.00134942 -5.79062e-05)
(0.711668 -0.00159312 -5.47171e-05)
(0.714654 -0.00184968 -5.13842e-05)
(0.71801 -0.00211979 -4.79573e-05)
(0.721765 -0.0024043 -4.43897e-05)
(0.725957 -0.00270402 -4.07287e-05)
(0.730623 -0.00302007 -3.69176e-05)
(0.735807 -0.0033534 -3.30246e-05)
(0.741558 -0.00370554 -2.89917e-05)
(0.747929 -0.00407752 -2.48601e-05)
(0.754983 -0.00447115 -2.05995e-05)
(0.762788 -0.00488754 -1.62011e-05)
(0.771423 -0.00532856 -1.17334e-05)
(0.780977 -0.0057967 -7.06351e-06)
(0.791551 -0.00629277 -2.27631e-06)
(0.803261 -0.00682236 2.8944e-06)
(0.816243 -0.00738442 8.22258e-06)
(0.830647 -0.00799021 1.41456e-05)
(0.846651 -0.00863315 2.03901e-05)
(0.864467 -0.00933856 2.77509e-05)
(0.884297 -0.0100742 3.49733e-05)
(0.906534 -0.0109214 4.45541e-05)
(0.931144 -0.0117083 5.11011e-05)
(0.959473 -0.0128293 6.77578e-05)
(0.989156 -0.0133019 6.14815e-05)
(1.02801 -0.0153354 0.000115158)
(1.05585 -0.0138469 3.5856e-05)
(1.12453 -0.0185859 0.000196305)
(0.998644 0.00322503 -5.49525e-05)
(0.987862 0.00891801 -0.000164954)
(0.968497 0.0119765 -0.000224491)
(0.946286 0.0128058 -0.000251352)
(0.925573 0.012801 -0.000269485)
(0.906988 0.0125083 -0.000278691)
(0.890012 0.0119482 -0.000277346)
(0.874594 0.0112342 -0.000271322)
(0.860842 0.0105215 -0.000265392)
(0.848635 0.00986368 -0.000260108)
(0.837731 0.00925796 -0.000255026)
(0.82794 0.008706 -0.000250344)
(0.819127 0.00821275 -0.000246322)
(0.811167 0.00777585 -0.000242877)
(0.803946 0.00738894 -0.000239781)
(0.79736 0.0070464 -0.000236834)
(0.791327 0.00674338 -0.00023389)
(0.785772 0.00647514 -0.000230842)
(0.780633 0.00623713 -0.000227626)
(0.775853 0.00602538 -0.000224218)
(0.771387 0.00583641 -0.000220617)
(0.767194 0.00566718 -0.000216837)
(0.763241 0.0055149 -0.000212897)
(0.759496 0.0053771 -0.000208833)
(0.755937 0.00525154 -0.000204668)
(0.75254 0.00513611 -0.000200441)
(0.74929 0.00502887 -0.000196172)
(0.746172 0.00492801 -0.000191895)
(0.743173 0.00483187 -0.000187627)
(0.740285 0.00473897 -0.000183392)
(0.7375 0.00464803 -0.000179209)
(0.734812 0.00455797 -0.000175087)
(0.732217 0.00446796 -0.000171038)
(0.729713 0.00437734 -0.000167066)
(0.727295 0.0042857 -0.000163178)
(0.724964 0.00419274 -0.000159378)
(0.722716 0.00409831 -0.000155663)
(0.720552 0.00400235 -0.000152037)
(0.718469 0.00390484 -0.000148493)
(0.716468 0.0038058 -0.000145037)
(0.714547 0.00370528 -0.000141659)
(0.712706 0.00360322 -0.000138366)
(0.710944 0.00349956 -0.000135145)
(0.709262 0.00339424 -0.000132004)
(0.707658 0.00328714 -0.00012893)
(0.706134 0.0031781 -0.000125932)
(0.704689 0.00306692 -0.000122996)
(0.703325 0.00295338 -0.000120132)
(0.702042 0.00283718 -0.000117325)
(0.700842 0.00271802 -0.000114582)
(0.699726 0.00259555 -0.000111888)
(0.698697 0.0024694 -0.000109252)
(0.697758 0.00233916 -0.000106658)
(0.696911 0.00220441 -0.000104113)
(0.696161 0.0020647 -0.0001016)
(0.69551 0.00191958 -9.91254e-05)
(0.694965 0.00176858 -9.6673e-05)
(0.69453 0.0016112 -9.42469e-05)
(0.694211 0.00144695 -9.18282e-05)
(0.694014 0.00127531 -8.94262e-05)
(0.693947 0.00109575 -8.70199e-05)
(0.694017 0.000907734 -8.46179e-05)
(0.694233 0.000710698 -8.21943e-05)
(0.694604 0.000504091 -7.976e-05)
(0.695142 0.000287332 -7.7294e-05)
(0.695856 5.98052e-05 -7.48096e-05)
(0.696759 -0.00017913 -7.22729e-05)
(0.697866 -0.000430133 -6.96967e-05)
(0.69919 -0.000693868 -6.70459e-05)
(0.700747 -0.000971011 -6.4346e-05)
(0.702556 -0.00126224 -6.15712e-05)
(0.704635 -0.00156845 -5.87424e-05)
(0.707006 -0.00189042 -5.58322e-05)
(0.709693 -0.00222922 -5.28593e-05)
(0.712719 -0.00258579 -4.97698e-05)
(0.716115 -0.0029612 -4.66276e-05)
(0.719911 -0.00335635 -4.33696e-05)
(0.724141 -0.00377252 -4.00555e-05)
(0.728844 -0.00421084 -3.65937e-05)
(0.734062 -0.00467259 -3.30593e-05)
(0.739842 -0.00515973 -2.93292e-05)
(0.746237 -0.00567393 -2.54512e-05)
(0.753306 -0.00621738 -2.13028e-05)
(0.761114 -0.00679273 -1.68878e-05)
(0.769737 -0.00740224 -1.21655e-05)
(0.779253 -0.0080509 -7.12988e-06)
(0.789763 -0.00874017 -1.63693e-06)
(0.801367 -0.0094778 4.37519e-06)
(0.814196 -0.0102654 1.09e-05)
(0.828388 -0.0111135 1.79599e-05)
(0.844124 -0.0120201 2.5455e-05)
(0.861611 -0.0130063 3.34291e-05)
(0.881066 -0.014045 4.06462e-05)
(0.902911 -0.0152158 4.88444e-05)
(0.92712 -0.0163152 5.2566e-05)
(0.955137 -0.0178273 6.64219e-05)
(0.984512 -0.0185052 5.26077e-05)
(1.02329 -0.0211519 0.00010939)
(1.05106 -0.0193628 9.00458e-06)
(1.1194 -0.0253562 0.000193462)
(0.99856 0.00420054 -5.58218e-05)
(0.987394 0.0115744 -0.000168162)
(0.967527 0.0154736 -0.000229095)
(0.944972 0.0165038 -0.00025721)
(0.924079 0.016489 -0.000276347)
(0.905361 0.0161061 -0.00028586)
(0.888262 0.0153757 -0.00028448)
(0.872746 0.0144516 -0.000278499)
(0.858917 0.0135332 -0.00027272)
(0.846636 0.0126858 -0.000267618)
(0.83566 0.0119054 -0.000262752)
(0.825798 0.011195 -0.000258337)
(0.816914 0.0105606 -0.000254608)
(0.808884 0.00999893 -0.000251455)
(0.801591 0.00950166 -0.000248631)
(0.794936 0.00906157 -0.000245924)
(0.788832 0.00867237 -0.00024318)
(0.783208 0.00832785 -0.000240284)
(0.778 0.00802216 -0.00023717)
(0.773153 0.00775015 -0.000233811)
(0.768621 0.00750734 -0.000230205)
(0.764363 0.00728976 -0.000226369)
(0.760346 0.00709385 -0.000222323)
(0.756541 0.00691642 -0.000218104)
(0.752923 0.00675458 -0.000213741)
(0.74947 0.00660564 -0.000209276)
(0.746165 0.0064671 -0.000204733)
(0.742994 0.00633663 -0.000200149)
(0.739946 0.00621212 -0.000195548)
(0.737011 0.00609167 -0.000190956)
(0.734181 0.00597364 -0.000186397)
(0.731451 0.00585666 -0.000181883)
(0.728818 0.00573966 -0.000177429)
(0.726277 0.00562183 -0.000173043)
(0.723826 0.00550263 -0.000168733)
(0.721464 0.00538171 -0.000164505)
(0.71919 0.0052589 -0.000160359)
(0.717001 0.00513412 -0.000156299)
(0.714898 0.00500737 -0.000152321)
(0.712879 0.0048787 -0.000148431)
(0.710944 0.00474814 -0.000144622)
(0.709091 0.00461572 -0.000140902)
(0.707321 0.00448138 -0.00013726)
(0.705633 0.00434505 -0.000133704)
(0.704028 0.00420656 -0.000130225)
(0.702504 0.00406569 -0.000126829)
(0.701063 0.00392218 -0.000123507)
(0.699704 0.00377574 -0.000120267)
(0.698431 0.00362597 -0.000117097)
(0.697242 0.00347246 -0.000114005)
(0.696141 0.00331479 -0.000110979)
(0.69513 0.00315246 -0.000108026)
(0.69421 0.00298495 -0.000105135)
(0.693386 0.00281171 -0.00010231)
(0.69266 0.00263215 -9.95378e-05)
(0.692037 0.0024457 -9.68257e-05)
(0.691521 0.00225176 -9.41599e-05)
(0.691117 0.00204969 -9.15412e-05)
(0.690831 0.00183884 -8.89539e-05)
(0.69067 0.00161857 -8.64077e-05)
(0.690641 0.00138817 -8.38817e-05)
(0.69075 0.00114696 -8.13833e-05)
(0.691008 0.000894214 -7.88893e-05)
(0.691422 0.000629263 -7.64093e-05)
(0.692004 0.000351392 -7.39277e-05)
(0.692764 5.97595e-05 -7.14535e-05)
(0.693715 -0.000246505 -6.89617e-05)
(0.694869 -0.00056824 -6.64683e-05)
(0.696242 -0.000906336 -6.39298e-05)
(0.697849 -0.00126166 -6.13815e-05)
(0.699707 -0.00163489 -5.88028e-05)
(0.701834 -0.00202701 -5.61989e-05)
(0.704252 -0.00243892 -5.3537e-05)
(0.706982 -0.00287183 -5.08013e-05)
(0.710048 -0.00332697 -4.79209e-05)
(0.713477 -0.00380543 -4.49166e-05)
(0.717298 -0.00430889 -4.17057e-05)
(0.72154 -0.00483879 -3.83631e-05)
(0.726238 -0.00539709 -3.47789e-05)
(0.731428 -0.00598534 -3.10526e-05)
(0.73715 -0.00660606 -2.6982e-05)
(0.74345 -0.00726112 -2.26312e-05)
(0.750376 -0.0079531 -1.77329e-05)
(0.757984 -0.00868491 -1.24186e-05)
(0.766346 -0.00945978 -6.5826e-06)
(0.775539 -0.0102814 -4.0744e-07)
(0.785665 -0.0111556 6.21993e-06)
(0.796835 -0.0120877 1.28775e-05)
(0.809201 -0.0130846 1.93859e-05)
(0.822937 -0.0141506 2.53946e-05)
(0.838242 -0.0152936 3.08812e-05)
(0.855377 -0.0165282 3.5699e-05)
(0.874549 -0.0178335 3.89674e-05)
(0.896236 -0.0193002 4.34363e-05)
(0.920344 -0.0207058 4.26666e-05)
(0.948407 -0.022605 5.44923e-05)
(0.977806 -0.0235757 3.47336e-05)
(1.01684 -0.0267683 9.67304e-05)
(1.04475 -0.0249752 -1.93807e-05)
(1.11317 -0.0318037 0.000188345)
(0.998449 0.00521727 -5.68851e-05)
(0.986784 0.0143088 -0.000172197)
(0.966276 0.0190279 -0.000234924)
(0.943287 0.0202342 -0.000264633)
(0.922168 0.0201999 -0.000285011)
(0.90328 0.0197198 -0.000294909)
(0.886025 0.0188124 -0.000293529)
(0.870385 0.0176761 -0.000287677)
(0.856457 0.0165531 -0.000282179)
(0.844084 0.0155183 -0.000277414)
(0.833014 0.0145662 -0.000272939)
(0.82306 0.013701 -0.000268977)
(0.814086 0.0129295 -0.000265729)
(0.805965 0.0122469 -0.000263048)
(0.798582 0.0116429 -0.000260664)
(0.791836 0.0111086 -0.00025835)
(0.785642 0.0106363 -0.000255939)
(0.779928 0.0102182 -0.00025331)
(0.774632 0.00984707 -0.000250391)
(0.769698 0.00951671 -0.000247154)
(0.76508 0.00922158 -0.000243599)
(0.76074 0.00895685 -0.000239741)
(0.756642 0.00871818 -0.000235604)
(0.752759 0.0085017 -0.000231231)
(0.749064 0.00830388 -0.000226652)
(0.745539 0.00812148 -0.000221917)
(0.742164 0.00795145 -0.000217052)
(0.738927 0.00779099 -0.000212101)
(0.735814 0.00763752 -0.000207094)
(0.732819 0.00748876 -0.000202062)
(0.729932 0.00734273 -0.000197034)
(0.727149 0.00719776 -0.000192026)
(0.724465 0.00705257 -0.000187057)
(0.721878 0.00690621 -0.000182137)
(0.719386 0.00675802 -0.000177281)
(0.716986 0.00660762 -0.000172494)
(0.714677 0.0064548 -0.000167778)
(0.712459 0.0062995 -0.000163142)
(0.710329 0.00614174 -0.000158583)
(0.708288 0.00598158 -0.000154108)
(0.706335 0.00581913 -0.000149714)
(0.704468 0.00565435 -0.000145409)
(0.702688 0.00548719 -0.000141184)
(0.700994 0.00531759 -0.00013705)
(0.699385 0.00514534 -0.000133)
(0.697863 0.00497021 -0.000129041)
(0.696427 0.00479193 -0.00012517)
(0.695077 0.00461014 -0.000121396)
(0.693816 0.0044244 -0.000117708)
(0.692643 0.00423421 -0.000114113)
(0.691561 0.00403906 -0.000110609)
(0.690572 0.00383839 -0.000107203)
(0.689678 0.00363158 -0.000103887)
(0.688883 0.00341795 -0.000100657)
(0.688189 0.00319683 -9.75105e-05)
(0.687601 0.0029675 -9.4454e-05)
(0.687122 0.00272923 -9.14819e-05)
(0.686759 0.00248124 -8.85915e-05)
(0.686517 0.0022228 -8.57726e-05)
(0.686402 0.00195311 -8.30328e-05)
(0.68642 0.00167127 -8.03616e-05)
(0.686579 0.00137651 -7.77685e-05)
(0.686888 0.00106783 -7.52246e-05)
(0.687354 0.000744431 -7.27421e-05)
(0.687989 0.000405647 -7.03292e-05)
(0.688801 5.06605e-05 -6.79384e-05)
(0.689802 -0.000321615 -6.55334e-05)
(0.691004 -0.000712083 -6.31325e-05)
(0.692419 -0.00112166 -6.06445e-05)
(0.69406 -0.00155149 -5.80749e-05)
(0.695942 -0.00200279 -5.54461e-05)
(0.698077 -0.00247672 -5.27909e-05)
(0.700481 -0.00297421 -5.01152e-05)
(0.70317 -0.00349679 -4.73142e-05)
(0.706158 -0.00404537 -4.43171e-05)
(0.709465 -0.00462058 -4.10654e-05)
(0.713107 -0.00522331 -3.74408e-05)
(0.717109 -0.00585473 -3.34298e-05)
(0.721497 -0.00651684 -2.89597e-05)
(0.72631 -0.00721134 -2.41625e-05)
(0.73159 -0.00794151 -1.88323e-05)
(0.737389 -0.00871162 -1.31646e-05)
(0.743777 -0.00952637 -7.29697e-06)
(0.750839 -0.0103887 -1.59374e-06)
(0.758675 -0.0113045 3.84185e-06)
(0.767395 -0.0122785 8.91093e-06)
(0.777123 -0.0133187 1.34734e-05)
(0.788 -0.0144301 1.7403e-05)
(0.800172 -0.0156243 2.06963e-05)
(0.813817 -0.0169114 2.36179e-05)
(0.82911 -0.0182999 2.58476e-05)
(0.846309 -0.0198119 2.79274e-05)
(0.8656 -0.0214198 2.8558e-05)
(0.887467 -0.0232316 3.15552e-05)
(0.911775 -0.0249894 2.79269e-05)
(0.940132 -0.0273011 3.95212e-05)
(0.969754 -0.0286253 1.43129e-05)
(1.00925 -0.0322913 8.11531e-05)
(1.03741 -0.0306633 -4.7649e-05)
(1.10621 -0.0380073 0.00017857)
(0.998308 0.00628735 -5.81842e-05)
(0.986017 0.0171424 -0.000177111)
(0.964722 0.0226509 -0.000241974)
(0.941209 0.0240015 -0.000273624)
(0.91982 0.0239375 -0.00029552)
(0.900723 0.023352 -0.000305896)
(0.883277 0.0222587 -0.000304534)
(0.867486 0.020906 -0.000298849)
(0.853436 0.0195779 -0.000293697)
(0.840947 0.0183556 -0.000289349)
(0.829761 0.0172322 -0.00028536)
(0.819694 0.0162131 -0.00028196)
(0.810607 0.0153057 -0.000279313)
(0.802374 0.0145034 -0.000277233)
(0.794877 0.0137939 -0.000275418)
(0.788018 0.0131666 -0.000273624)
(0.781711 0.0126122 -0.00027167)
(0.775886 0.0121214 -0.000269423)
(0.77048 0.0116857 -0.000266804)
(0.765438 0.0112977 -0.000263783)
(0.760714 0.0109507 -0.000260357)
(0.756271 0.0106391 -0.000256543)
(0.752072 0.0103578 -0.000252365)
(0.748091 0.0101022 -0.000247872)
(0.744303 0.00986817 -0.000243098)
(0.740687 0.00965192 -0.000238096)
(0.737226 0.00944984 -0.000232897)
(0.733905 0.00925869 -0.000227553)
(0.730715 0.00907543 -0.000222099)
(0.727644 0.00889737 -0.000216572)
(0.724687 0.00872224 -0.000211006)
(0.721838 0.00854806 -0.000205425)
(0.719094 0.00837336 -0.000199849)
(0.716451 0.00819704 -0.000194295)
(0.713907 0.00801839 -0.000188779)
(0.71146 0.00783695 -0.000183311)
(0.70911 0.00765251 -0.000177896)
(0.706855 0.00746506 -0.000172545)
(0.704694 0.00727464 -0.000167256)
(0.702626 0.00708134 -0.000162043)
(0.700651 0.00688535 -0.000156904)
(0.698768 0.00668665 -0.00015185)
(0.696976 0.00648521 -0.000146873)
(0.695275 0.00628101 -0.000141994)
(0.693664 0.00607381 -0.000137201)
(0.692144 0.00586335 -0.000132508)
(0.690715 0.00564929 -0.000127917)
(0.689377 0.00543126 -0.000123445)
(0.688131 0.00520876 -0.000119079)
(0.686978 0.00498121 -0.000114823)
(0.685921 0.00474808 -0.000110684)
(0.68496 0.00450863 -0.000106682)
(0.684098 0.00426211 -0.00010281)
(0.683338 0.00400776 -9.90626e-05)
(0.682684 0.00374484 -9.54544e-05)
(0.682138 0.0034726 -9.20043e-05)
(0.681705 0.00319019 -8.8695e-05)
(0.681389 0.00289655 -8.55099e-05)
(0.681194 0.00259093 -8.24697e-05)
(0.681127 0.00227266 -7.95336e-05)
(0.681192 0.00194063 -7.66604e-05)
(0.681394 0.00159405 -7.39057e-05)
(0.68174 0.00123204 -7.12064e-05)
(0.682232 0.000853479 -6.85037e-05)
(0.682877 0.000457261 -6.59456e-05)
(0.683678 4.24933e-05 -6.353e-05)
(0.684638 -0.00039171 -6.1178e-05)
(0.685759 -0.000846018 -5.88367e-05)
(0.687044 -0.00132041 -5.64183e-05)
(0.688493 -0.00181427 -5.38311e-05)
(0.690111 -0.00232766 -5.09161e-05)
(0.691903 -0.00286157 -4.76808e-05)
(0.693884 -0.00341669 -4.41585e-05)
(0.696069 -0.00399465 -4.0103e-05)
(0.69848 -0.00459839 -3.53403e-05)
(0.701149 -0.00523182 -3.01493e-05)
(0.704123 -0.00589784 -2.48679e-05)
(0.707459 -0.00659938 -1.97418e-05)
(0.711216 -0.00733983 -1.47298e-05)
(0.715461 -0.00812348 -1.00188e-05)
(0.720264 -0.00895449 -5.73015e-06)
(0.725701 -0.00983678 -1.91641e-06)
(0.731844 -0.0107764 1.59418e-06)
(0.738771 -0.0117796 4.85369e-06)
(0.746565 -0.012854 7.79457e-06)
(0.755326 -0.0140055 1.05188e-05)
(0.76516 -0.0152422 1.27097e-05)
(0.776203 -0.0165711 1.46315e-05)
(0.788585 -0.0180031 1.6091e-05)
(0.802478 -0.0195479 1.73817e-05)
(0.81805 -0.0212126 1.77762e-05)
(0.835555 -0.0230241 1.82316e-05)
(0.855162 -0.0249531 1.69568e-05)
(0.87738 -0.0271122 1.84644e-05)
(0.902035 -0.0292306 1.21125e-05)
(0.930823 -0.0319383 2.34453e-05)
(0.96079 -0.0336359 -6.95465e-06)
(1.00088 -0.0377175 6.46649e-05)
(1.02936 -0.0363634 -7.52104e-05)
(1.09875 -0.0440211 0.000167054)
(0.998133 0.00742433 -5.97413e-05)
(0.985074 0.0200959 -0.000182926)
(0.962838 0.0263536 -0.000250265)
(0.938712 0.027811 -0.000284231)
(0.917005 0.0277058 -0.000307935)
(0.89766 0.0270049 -0.000318871)
(0.879986 0.025715 -0.000317537)
(0.864015 0.0241414 -0.000312069)
(0.849818 0.0226077 -0.000307356)
(0.837189 0.0211984 -0.000303542)
(0.825863 0.019905 -0.000300184)
(0.815657 0.0187344 -0.000297519)
(0.806433 0.0176939 -0.000295665)
(0.798061 0.0167749 -0.000294389)
(0.790426 0.015963 -0.000293351)
(0.783429 0.0152458 -0.000292284)
(0.776985 0.0146122 -0.000290988)
(0.771024 0.0140514 -0.000289314)
(0.765483 0.0135536 -0.000287175)
(0.760309 0.01311 -0.000284535)
(0.755457 0.0127131 -0.000281386)
(0.750887 0.0123562 -0.000277747)
(0.746567 0.0120336 -0.000273641)
(0.742468 0.0117398 -0.00026912)
(0.738566 0.0114703 -0.000264221)
(0.73484 0.0112207 -0.000259004)
(0.731274 0.0109867 -0.000253503)
(0.727854 0.0107648 -0.000247776)
(0.724568 0.0105514 -0.000241862)
(0.721408 0.0103435 -0.000235809)
(0.718367 0.0101385 -0.000229656)
(0.71544 0.00993411 -0.000223432)
(0.712622 0.00972872 -0.000217159)
(0.709912 0.00952111 -0.000210866)
(0.707307 0.00931046 -0.000204569)
(0.704805 0.00909634 -0.00019828)
(0.702406 0.0088785 -0.000192006)
(0.700108 0.00865702 -0.000185768)
(0.69791 0.00843195 -0.000179561)
(0.695812 0.00820344 -0.000173408)
(0.693812 0.00797179 -0.000167309)
(0.69191 0.00773698 -0.000161278)
(0.690104 0.00749894 -0.000155306)
(0.688396 0.00725776 -0.000149442)
(0.686783 0.00701313 -0.000143658)
(0.685267 0.00676493 -0.000137981)
(0.683847 0.00651278 -0.000132409)
(0.682523 0.00625621 -0.000126992)
(0.681297 0.00599453 -0.000121698)
(0.680168 0.00572724 -0.00011658)
(0.679138 0.00545395 -0.00011164)
(0.678209 0.00517398 -0.000106914)
(0.677382 0.00488628 -0.000102355)
(0.676658 0.00459001 -9.79455e-05)
(0.676037 0.00428447 -9.36817e-05)
(0.675522 0.00396883 -8.96805e-05)
(0.675113 0.00364236 -8.59593e-05)
(0.674809 0.00330412 -8.2377e-05)
(0.674606 0.0029531 -7.91018e-05)
(0.6745 0.00258846 -7.6224e-05)
(0.674484 0.00220955 -7.35008e-05)
(0.67455 0.00181688 -7.09774e-05)
(0.674687 0.00141133 -6.86372e-05)
(0.674884 0.000994311 -6.61406e-05)
(0.675132 0.000566391 -6.33159e-05)
(0.675429 0.000127057 -6.02349e-05)
(0.675781 -0.000324435 -5.65872e-05)
(0.676189 -0.000790429 -5.19059e-05)
(0.676673 -0.00127485 -4.64385e-05)
(0.677268 -0.00178099 -4.07827e-05)
(0.678017 -0.00231188 -3.53052e-05)
(0.67897 -0.00286999 -3.00681e-05)
(0.680177 -0.00345892 -2.51785e-05)
(0.68169 -0.00408302 -2.09477e-05)
(0.683561 -0.00474458 -1.72591e-05)
(0.685834 -0.00544694 -1.39199e-05)
(0.688552 -0.00619445 -1.06692e-05)
(0.691754 -0.00699195 -7.51171e-06)
(0.695483 -0.00784336 -4.2886e-06)
(0.699784 -0.00875189 -1.23805e-06)
(0.704717 -0.00972118 1.36312e-06)
(0.710343 -0.0107561 3.57194e-06)
(0.716724 -0.011862 5.65166e-06)
(0.723928 -0.013043 7.54304e-06)
(0.732033 -0.0143059 9.03968e-06)
(0.741132 -0.015658 1.02705e-05)
(0.751324 -0.0171085 1.10275e-05)
(0.762734 -0.0186654 1.1527e-05)
(0.775497 -0.020339 1.14127e-05)
(0.789788 -0.0221414 1.09892e-05)
(0.805771 -0.0240806 9.57637e-06)
(0.823705 -0.0261866 8.43066e-06)
(0.843749 -0.0284304 5.38123e-06)
(0.866425 -0.0309316 5.56031e-06)
(0.891522 -0.0334124 -2.99341e-06)
(0.920824 -0.0365114 8.4668e-06)
(0.951209 -0.0386063 -2.61826e-05)
(0.991975 -0.0430731 5.03683e-05)
(1.02082 -0.0420746 -9.95176e-05)
(1.09097 -0.0499011 0.000157193)
(0.997917 0.00864365 -6.15741e-05)
(0.983931 0.0231914 -0.000189661)
(0.96059 0.0301465 -0.000259817)
(0.935763 0.0316673 -0.000296502)
(0.913692 0.0315083 -0.000322304)
(0.894056 0.0306798 -0.000333873)
(0.876115 0.0291809 -0.000332583)
(0.859933 0.0273814 -0.000327394)
(0.845562 0.0256419 -0.000323221)
(0.832763 0.0240463 -0.000320075)
(0.821269 0.0225844 -0.000317512)
(0.810897 0.0212649 -0.000315771)
(0.801507 0.0200946 -0.000314926)
(0.792969 0.0190623 -0.000314682)
(0.785167 0.0181513 -0.000314662)
(0.778004 0.0173473 -0.000314565)
(0.771395 0.0166377 -0.000314171)
(0.76527 0.0160099 -0.000313307)
(0.759568 0.0154526 -0.000311878)
(0.754235 0.0149559 -0.000309836)
(0.749228 0.014511 -0.000307171)
(0.744508 0.0141107 -0.000303893)
(0.740042 0.0137481 -0.000300026)
(0.735802 0.0134173 -0.000295624)
(0.731764 0.0131131 -0.000290726)
(0.727908 0.0128306 -0.000285394)
(0.724218 0.0125649 -0.000279665)
(0.72068 0.0123121 -0.000273602)
(0.717283 0.0120682 -0.000267251)
(0.714018 0.0118297 -0.000260664)
(0.710878 0.0115938 -0.000253889)
(0.707858 0.011358 -0.00024696)
(0.704956 0.0111205 -0.000239901)
(0.702168 0.0108799 -0.000232749)
(0.699492 0.0106354 -0.000225526)
(0.696927 0.0103864 -0.000218243)
(0.694471 0.0101329 -0.000210917)
(0.692124 0.00987496 -0.000203562)