/*--------------------------------*- C++ -*----------------------------------*\
| =========                 |                                                 |
| \\      /  F ield         | OpenFOAM: The Open Source CFD Toolbox           |
|  \\    /   O peration     | Version:  v1912                                 |
|   \\  /    A nd           | Website:  www.openfoam.com                      |
|    \\/     M anipulation  |                                                 |
\*---------------------------------------------------------------------------*/
FoamFile
{
    version     2.0;
    format      ascii;
    class       volScalarField;
    location    "80";
    object      epsilon;
}
// * * * * * * * * * * * * * * * * * * * * * * * * * * * * * * * * * * * * * //

dimensions      [0 2 -3 0 0 0 0];


internalField   nonuniform List<scalar> 
12441
(
0.0102948
0.00907909
0.00828528
0.00766632
0.00715082
0.00671883
0.00633839
0.00602081
0.00575797
0.00553174
0.00533555
0.00516102
0.00501339
0.00486985
0.00475537
0.00465176
0.00433659
0.0149782
0.209385
2.68792
21.0331
39.25
0.0101165
0.00889532
0.0081124
0.00751328
0.00701361
0.00659488
0.00622134
0.00591154
0.00565675
0.00543734
0.00524696
0.00507722
0.00493467
0.0047957
0.00468553
0.00458751
0.00441333
0.0147646
0.198362
2.68583
21.3302
40.2318
0.00989458
0.00867495
0.00791734
0.00733454
0.00684832
0.0064409
0.00607925
0.00577871
0.00553131
0.00531842
0.00513399
0.00496986
0.0048328
0.0046972
0.00459206
0.00449846
0.00441864
0.0135796
0.17108
2.66474
21.7163
41.3784
0.00967101
0.00845555
0.00771504
0.00714873
0.00667573
0.0062794
0.00592677
0.00563537
0.00539545
0.00518913
0.00501053
0.00485224
0.00472072
0.00459307
0.00449284
0.00440504
0.00436823
0.0121571
0.142704
2.65253
22.1864
42.5504
0.00942695
0.00821756
0.00750317
0.00695285
0.006493
0.00610771
0.00576724
0.00548522
0.00525272
0.00505297
0.00488042
0.00472804
0.00460225
0.00447817
0.00438359
0.00430172
0.00425389
0.0108958
0.129811
2.66999
22.7002
43.6698
0.00922095
0.00801576
0.00731345
0.00677702
0.00632841
0.00595264
0.00561917
0.00534479
0.00511867
0.00492454
0.00475692
0.00460946
0.00448831
0.00437193
0.00428168
0.00420459
0.00417661
0.0115689
0.15253
2.78109
23.3137
44.7472
0.00900046
0.0078024
0.00712403
0.00660123
0.00616394
0.0057977
0.00547507
0.00520865
0.00498876
0.00480011
0.00463754
0.00449499
0.0043784
0.00426442
0.00417764
0.00410718
0.00593684
0.0211533
0.257103
3.06964
24.1106
45.7945
0.00882196
0.00762844
0.00695863
0.00644763
0.00601991
0.00566179
0.00534452
0.00508438
0.00486981
0.00468583
0.00452729
0.00438866
0.00427584
0.00416924
0.00409269
0.00510425
0.0354398
0.0804937
0.564957
3.65752
25.1885
46.8732
0.008628
0.00744213
0.00679481
0.00629552
0.00587758
0.0055277
0.00522026
0.00496684
0.00475748
0.00457806
0.00442369
0.00428915
0.00418078
0.00403696
0.00534081
0.0281
0.19221
0.32424
1.25693
4.67644
26.6485
48.0153
0.00847324
0.00729217
0.00665066
0.00616159
0.00575194
0.0054091
0.00510586
0.00485782
0.00465308
0.0044777
0.00432681
0.00419576
0.00409104
0.00417915
0.0263053
0.166497
0.63184
0.936303
2.42203
6.18657
28.5624
49.2846
0.00830399
0.00713092
0.00651034
0.00603113
0.00562987
0.0052941
0.00499968
0.00475726
0.0045568
0.00438514
0.00423766
0.00411099
0.00398113
0.00962118
0.12742
0.540402
1.42966
1.98231
3.93708
8.12118
30.9516
50.6975
0.00816889
0.00700104
0.00638427
0.0059141
0.0055201
0.00519048
0.00489942
0.00466171
0.00446533
0.00429725
0.00415283
0.00403059
0.00405705
0.0519538
0.400912
1.17312
2.44238
3.27606
5.55176
10.3158
33.778
52.295
0.00801996
0.00686034
0.00626363
0.00580193
0.00541522
0.00509175
0.00480878
0.00457575
0.00438288
0.00421782
0.00407618
0.00391977
0.00835659
0.195338
0.861179
1.931
3.4486
4.54677
7.06632
12.5905
36.9625
54.0597
0.00789897
0.00674508
0.00615056
0.00569712
0.00531694
0.00499903
0.00471888
0.00449026
0.00430125
0.00413957
0.00400081
0.00376531
0.0392546
0.46378
1.39595
2.65138
4.31159
5.63453
8.39494
14.8079
40.4028
56.0037
0.0077678
0.0066224
0.0060467
0.00560029
0.00522641
0.00491378
0.00464089
0.00441606
0.00422983
0.00407054
0.00393399
0.00417098
0.132256
0.805518
1.90747
3.26692
5.00388
6.50734
9.52999
16.8871
43.9981
58.0812
0.00765862
0.00651951
0.00594478
0.00550603
0.00513803
0.00483042
0.00455992
0.00433926
0.00415666
0.00400056
0.00386679
0.00964211
0.294875
1.15415
2.35193
3.77068
5.54591
7.19387
10.4956
18.791
47.6576
60.2902
0.0075429
0.00641245
0.00585576
0.00542287
0.00506038
0.00475736
0.00449344
0.0042757
0.00409521
0.00394089
0.00380924
0.035207
0.500019
1.47412
2.72531
4.17727
5.96804
7.73527
11.3216
20.5103
51.3109
62.571
0.00744126
0.00631782
0.00576126
0.00533578
0.00497873
0.00468039
0.00441871
0.00420522
0.00402841
0.00387731
0.0037513
0.0974122
0.713707
1.75457
3.03641
4.50489
6.29732
8.16697
12.0333
22.0491
54.906
64.9213
0.00733888
0.00622429
0.00568456
0.00526375
0.00491151
0.00461712
0.00436127
0.00414991
0.00397461
0.00382478
0.00369554
0.193449
0.915812
1.99745
3.29623
4.76953
6.55471
8.5149
12.6494
23.4173
58.4111
67.2818
0.00724411
0.00613719
0.00559693
0.00518328
0.00483602
0.00454598
0.00429222
0.00408512
0.00391346
0.00376682
0.00421191
0.307302
1.09895
2.20836
3.51447
4.98399
6.75554
8.79655
13.1826
24.6265
61.8099
69.6617
0.00715413
0.00605615
0.00553183
0.0051218
0.0047787
0.00449199
0.00424332
0.00403752
0.00386674
0.0037209
0.010384
0.425499
1.2633
2.39283
3.69899
5.15805
6.91069
9.02279
13.6407
25.6882
65.1021
72.0102
0.00706321
0.00597369
0.00544855
0.00504573
0.00470741
0.00442494
0.00417849
0.0039772
0.00381022
0.00366818
0.0320333
0.540328
1.41138
2.55552
3.85596
5.29913
7.02771
9.19988
14.0291
26.6131
68.2991
74.3523
0.00698416
0.00590372
0.00539321
0.00499289
0.00465811
0.00437839
0.00413625
0.00393554
0.00376892
0.00362937
0.0735674
0.649044
1.54608
2.70004
3.99023
5.41271
7.11164
9.33127
14.3512
27.4116
71.4259
76.6493
0.00689751
0.00582616
0.00531457
0.00492141
0.0045911
0.00431543
0.00407555
0.00387944
0.00371664
0.00358851
0.129018
0.75122
1.66974
2.82928
4.10556
5.50288
7.16586
9.41938
14.6105
28.093
74.5171
78.9445
0.00682949
0.00576725
0.00526925
0.00487758
0.00455024
0.00427674
0.0040404
0.00384404
0.00368101
0.00357768
0.190345
0.847549
1.78423
2.9455
4.20483
5.57265
7.19288
9.46664
14.8104
28.6669
77.6195
81.212
0.00674363
0.00569141
0.00519263
0.00480849
0.00448558
0.00421619
0.00398248
0.00379115
0.00363222
0.00354574
0.252865
0.939075
1.89089
3.05054
4.29023
5.62432
7.19499
9.47609
14.955
29.1421
80.7878
83.5114
0.00668474
0.00564169
0.00515509
0.0047714
0.00445095
0.00418321
0.00395229
0.00376004
0.00360048
0.00379401
0.315098
1.02682
1.99077
3.14578
4.36342
5.65976
7.17472
9.45137
15.049
29.5273
84.0857
85.8273
0.00660084
0.00556847
0.00508121
0.00470519
0.004389
0.0041253
0.00389718
0.00371017
0.00355487
0.00597524
0.377194
1.11164
2.08465
3.23234
4.42568
5.68069
7.13487
9.39659
15.0976
29.8307
87.5801
88.2307
0.00655142
0.00552821
0.00505194
0.0046754
0.00436116
0.00409858
0.00387247
0.00368377
0.00352769
0.0122851
0.439872
1.19421
2.17318
3.31102
4.47803
5.68874
7.07834
9.31611
15.1065
30.0604
91.3397
90.7106
0.00646715
0.00545553
0.00497917
0.00461075
0.00430083
0.00404245
0.00381954
0.00363654
0.00348595
0.0249255
0.503936
1.27506
2.25683
3.38246
4.52135
5.68557
7.00804
9.21443
15.0815
30.2241
95.4277
93.3406
0.00642518
0.00542276
0.00495598
0.00458611
0.00427765
0.0040199
0.00379833
0.00361307
0.00346335
0.0459653
0.570101
1.35464
2.33601
3.44712
4.55641
5.67273
6.92667
9.09599
15.0287
30.3295
99.9001
96.1058
0.00634253
0.00535223
0.00488554
0.00452394
0.00421969
0.00396613
0.0037479
0.00356854
0.00342802
0.0768385
0.638972
1.43329
2.41105
3.50545
4.58392
5.65168
6.83675
8.96509
14.9537
30.3844
104.8
99.0732
0.0063091
0.005328
0.00486972
0.00450573
0.00420245
0.00394897
0.0037313
0.00354895
0.00341591
0.118523
0.711054
1.51134
2.48226
3.55776
4.60454
5.62371
6.74051
8.82577
14.8623
30.3972
110.16
102.217
0.00622443
0.00525638
0.00479909
0.00444403
0.00414513
0.00389614
0.00368235
0.00350648
0.00339651
0.171672
0.786762
1.58906
2.54987
3.60445
4.61886
5.58993
6.63991
8.68177
14.7599
30.3762
116
105.592
0.00619785
0.0052389
0.0047887
0.00443037
0.00413204
0.00388266
0.0036688
0.00348951
0.00341134
0.236902
0.866407
1.66672
2.61417
3.64584
4.62741
5.5512
6.53659
8.53637
14.6514
30.3303
122.334
109.157
0.00611066
0.00516582
0.00471744
0.00436867
0.00407488
0.00383025
0.00362071
0.00344831
0.00349308
0.314717
0.950162
1.74455
2.67544
3.68235
4.63066
5.50827
6.43189
8.39247
14.5415
30.2687
129.167
112.957
0.00608737
0.00515204
0.00470984
0.00435725
0.00406384
0.00381856
0.00360851
0.00343226
0.00668765
0.405254
1.03801
1.82273
2.73399
3.71437
4.62906
5.46166
6.32683
8.25248
14.4347
30.2005
136.496
116.938
0.00599517
0.00507548
0.00463632
0.00429416
0.00400561
0.00376547
0.0035603
0.00339158
0.0395934
0.50766
1.12967
1.90146
2.79015
3.74243
4.62303
5.41181
6.22217
8.11839
14.3351
30.1353
144.297
121.137
0.00596712
0.00505826
0.00462587
0.00428012
0.00399227
0.00375168
0.00354627
0.00337478
0.122589
0.618348
1.22462
1.98087
2.84434
3.76702
4.613
5.35904
6.11841
7.99175
14.2471
30.083
152.502
125.495
0.00586222
0.00497108
0.004544
0.00421024
0.00392807
0.00369346
0.00349407
0.00333664
0.220021
0.731394
1.32209
2.06108
2.89698
3.78878
4.5995
5.30367
6.01585
7.87379
14.175
30.0541
160.956
130.045
0.00582088
0.00494123
0.00452183
0.00418576
0.0039051
0.00367079
0.00347209
0.00337322
0.309233
0.841998
1.42121
2.1422
2.9486
3.80837
4.58312
5.24604
5.91468
7.76543
14.124
30.0606
169.362
134.727
0.00569907
0.004836
0.00442618
0.00410359
0.00382956
0.00360206
0.00341088
0.0050859
0.385954
0.9474
1.52115
2.2243
2.99972
3.82661
4.56459
5.18662
5.81503
7.6674
14.0997
30.1165
177.234
139.588
0.00561701
0.00477497
0.00438253
0.00406476
0.00379791
0.0035748
0.00338593
0.0111864
0.450812
1.04626
1.62121
2.30746
3.051
3.84432
4.54484
5.12601
5.71709
7.58029
14.1095
30.2393
183.919
144.654
0.00525427
0.00445268
0.00410053
0.00381198
0.0035603
0.00335654
0.00319484
0.0178589
0.504993
1.13786
1.72078
2.3917
3.1031
3.86251
4.52498
5.06507
5.62114
7.5047
14.1625
30.452
188.758
150.447
95.0235
133.373
111.436
66.3973
73.45
64.7901
55.5244
48.512
51.3065
59.95
69.8891
69.2222
60.3568
31.3408
16.9242
14.1476
14.9833
17.3029
20.0425
21.7578
22.3613
22.8034
22.2308
13.944
7.90392
6.27998
5.78738
5.51776
5.41691
5.70593
6.20815
6.49731
6.42521
5.66076
4.76769
94.6475
134.636
112.461
73.3861
88.2441
74.7324
61.7246
51.975
54.338
62.6114
71.2912
70.5165
63.3847
33.1696
17.5102
14.3766
15.046
17.2631
19.9418
21.6357
22.2381
22.6583
22.1
13.9109
7.88047
6.26468
5.77494
5.50694
5.40738
5.6975
6.19933
6.48697
6.4144
5.65071
4.75981
93.9266
135.622
113.306
89.423
113.913
88.4204
70.6147
59.1501
60.5879
65.1731
66.6129
63.2202
57.4742
34.3898
18.6705
14.9136
15.2235
17.2127
19.7506
21.385
21.9706
22.3061
21.5319
13.6608
7.82307
6.2343
5.75042
5.48556
5.38854
5.68079
6.1818
6.46638
6.39286
5.63067
4.7441
92.8104
136.371
116.114
113.719
142.77
105.362
84.9716
71.8666
73.3453
76.0716
68.0538
61.1556
53.4685
35.9389
20.6445
15.9425
15.6323
17.2194
19.5101
21.0389
21.5915
21.7976
20.6921
13.2613
7.73517
6.18948
5.71431
5.45404
5.36071
5.65599
6.15572
6.43569
6.36074
5.60074
4.72063
91.3035
137.044
121.587
141.88
167.989
125.853
104.949
90.0616
93.1362
95.0942
78.1339
67.6459
55.9489
39.1371
23.7929
17.7398
16.4675
17.4052
19.2931
20.6476
21.1411
21.1837
19.7128
12.7707
7.6208
6.13108
5.66723
5.41286
5.32428
5.62336
6.12126
6.39507
6.31819
5.56106
4.68949
89.3553
137.733
129.093
165.83
185.246
147.535
128.645
111.06
115.562
116.729
95.7454
82.5794
66.7062
45.6553
28.6522
20.6821
18.0176
17.9713
19.2253
20.2889
20.6694
20.5134
18.6874
12.2336
7.48422
6.06012
5.60993
5.36261
5.27975
5.58321
6.07866
6.34472
6.26541
5.51177
4.6508
87.0012
138.41
137.146
179.373
194.659
166.065
152.135
130.183
133.686
133.294
114.407
100.709
84.7743
57.2646
36.0335
25.286
20.6815
19.2137
19.5007
20.0745
20.2376
19.8338
17.677
11.6819
7.32967
5.97778
5.54325
5.30395
5.22765
5.53589
6.02817
6.28487
6.20263
5.45306
4.60467
84.2135
138.965
144.153
182.356
199.164
177.98
171.451
144.538
144.775
142.294
126.472
113.014
102.806
74.4671
47.0202
32.279
25.0083
21.5412
20.3911
20.1537
19.9187
19.1897
16.7198
11.1369
7.16118
5.88538
5.46813
5.23762
5.16859
5.48179
5.97007
6.21577
6.1301
5.38514
4.55129
81.0699
139.26
149.058
179.427
202.172
183.028
184.653
154.681
151.111
146.66
131.15
116.957
111.726
93.2201
62.3008
42.5582
31.7394
25.5097
22.2581
20.7172
19.7995
18.6256
15.8389
10.6123
6.98257
5.78433
5.38557
5.16441
5.10321
5.42131
5.90467
6.13771
6.04814
5.30827
4.49084
77.574
139.173
151.677
176.117
206.195
183.59
191.796
162.419
155.695
149.51
132.37
116.713
111.672
105.286
80.1109
56.6245
41.6812
31.8381
25.5812
22.0085
19.9845
18.187
15.0491
10.1164
6.79733
5.67612
5.29662
5.08513
5.0322
5.35491
5.83231
6.051
5.95709
5.22273
4.42356
73.8369
138.626
152.567
175.615
212.609
182.758
193.951
168.95
160.291
152.42
133.118
115.826
108.374
107.22
94.7055
72.977
55.0024
41.2066
30.9563
24.3411
20.6022
17.9232
14.3608
9.65419
6.60866
5.56228
5.20238
5.00063
4.95626
5.28305
5.75334
5.95598
5.85732
5.12886
4.3497
69.8857
137.59
152.53
179.34
221.87
183.067
192.839
174.748
165.684
155.965
134.529
115.469
105.24
103.239
100.677
86.8119
69.6965
53.4348
38.9023
28.0961
21.8131
17.8908
13.7833
9.22871
6.4194
5.44433
5.10393
4.91175
4.87608
5.20619
5.66813
5.85303
5.74926
5.02704
4.26955
65.8489
136.067
152.331
188.087
233.703
186.154
191.029
180.06
172.075
160.465
136.963
115.851
102.966
98.0652
98.7776
93.1483
81.0382
66.08
49.1743
33.6199
23.81
18.1574
13.3267
8.84174
6.23209
5.32374
5.0023
4.81931
4.79235
5.12481
5.57705
5.74253
5.63336
4.91769
4.18347
61.7626
134.069
152.575
201.646
247.287
192.69
191.143
185.092
179.509
166.129
140.547
117.055
101.441
93.587
93.3593
91.8877
85.1703
74.6894
59.7139
40.8971
26.7919
18.8049
13.0039
8.49466
6.0489
5.2019
4.8985
4.72408
4.70573
5.03937
5.4805
5.62489
5.51014
4.80127
4.09182
57.7502
131.6
153.572
218.536
261.568
202.477
194.405
190.902
188.278
173.203
145.429
119.158
100.578
90.0431
87.5318
86.616
82.8334
76.6192
66.9448
49.0111
30.8792
19.9292
12.8318
8.18879
5.87167
5.08007
4.79342
4.62677
4.61684
4.9503
5.37885
5.50054
5.3801
4.67829
3.995
53.8399
128.65
155.322
236.386
275.583
215.025
200.93
198.66
198.687
181.817
151.65
122.256
100.43
87.3075
82.4388
80.4593
77.3802
73.3591
68.673
55.9822
35.9522
21.6325
12.8323
7.92573
5.70195
4.95933
4.68785
4.528
4.52621
4.85802
5.27247
5.36992
5.24381
4.54929
3.89345
50.1273
125.214
157.69
253.117
288.919
229.568
210.584
209.095
211.012
192.07
159.257
126.378
101.085
85.3098
78.2761
74.851
71.4206
67.9716
65.9518
59.8008
41.4761
24.0007
13.0327
7.70756
5.54093
4.8406
4.58244
4.42829
4.43435
4.76289
5.16171
5.23347
5.10184
4.41486
3.78764
46.6135
121.32
160.677
268.08
301.507
245.33
223.106
222.428
225.297
203.879
168.138
131.54
102.635
84.082
75.0124
70.1971
66.1169
62.5228
61.271
59.952
46.5036
27.0623
13.4655
7.53694
5.38955
4.7246
4.47771
4.32806
4.34164
4.66525
5.04692
5.09165
4.9548
4.2756
3.67805
43.349
117.066
164.727
281.917
313.215
261.832
238.194
238.607
241.456
217.091
178.147
137.66
105.132
83.6946
72.6131
66.5226
61.7822
57.8425
56.4449
57.52
50.0264
30.7306
14.1666
7.41714
5.24847
4.61185
4.37403
4.22764
4.24843
4.56537
4.92841
4.94492
4.80329
4.13212
3.56518
40.3033
112.629
171.08
295.321
324.079
278.699
255.425
257.279
259.132
231.311
188.924
144.608
108.597
84.234
71.0933
63.7772
58.4126
54.1083
52.2641
53.9967
51.5104
34.7499
15.1711
7.35204
5.11807
4.50265
4.27161
4.12722
4.15496
4.46349
4.80648
4.79374
4.64792
3.9851
3.44954
37.4893
108.2
181.982
308.48
334.183
295.611
274.297
277.895
277.824
246.054
200.041
152.119
112.979
85.7637
70.4846
61.9168
55.9254
51.263
48.9212
50.4171
51.1348
38.687
16.5073
7.34588
4.99853
4.39714
4.17054
4.0269
4.0614
4.3598
4.68141
4.63858
4.48932
3.83517
3.33166
34.8769
103.763
200.189
320.962
343.56
312.256
294.18
299.625
296.765
260.599
210.86
159.847
118.148
88.3205
70.8324
60.9243
54.2467
49.2013
46.3741
47.2697
49.5341
42.0182
18.188
7.40301
4.88976
4.29526
4.07078
3.92671
3.96785
4.25443
4.55346
4.47992
4.32811
3.68301
3.21206
32.4767
99.391
226.548
332.534
352.253
328.374
314.418
321.556
315.154
274.24
220.784
167.339
123.85
91.868
72.1581
60.7908
53.3227
47.8293
44.519
44.7027
47.3818
44.3099
20.2028
7.52731
4.79145
4.19681
3.97217
3.82658
3.87436
4.1475
4.42289
4.31824
4.16492
3.52929
3.09126
30.2708
95.7295
259.262
342.335
360.326
343.734
334.348
342.719
332.128
286.241
229.234
174.174
129.738
96.2762
74.4527
61.5076
53.1172
47.0781
43.2559
42.7105
45.159
45.3938
22.5094
7.72135
4.70301
4.10144
3.87446
3.72637
3.78092
4.03909
4.28994
4.15405
4.00036
3.37466
2.96977
28.2673
92.8769
294.15
349.759
367.87
358.159
353.41
362.345
347.053
296.132
235.924
180.012
135.412
101.262
77.6258
63.0353
53.591
46.8935
42.5032
41.2322
43.1306
45.4
25.0261
7.98515
4.62355
4.00866
3.77733
3.62591
3.68746
3.92925
4.15485
3.98786
3.83505
3.21979
2.84807
26.4614
90.8764
324.518
354.801
374.97
371.497
371.138
379.849
359.453
303.601
240.735
184.702
140.549
106.429
81.4911
65.2891
54.6884
47.2246
42.1969
40.1973
41.4089
44.6401
27.6238
8.31425
4.55183
3.91791
3.68041
3.525
3.5939
3.81806
4.01788
3.82021
3.66958
3.06531
2.72666
24.8623
89.7538
344.197
357.973
381.67
383.643
387.236
394.965
369.182
308.641
243.776
188.211
144.942
111.355
85.7331
68.1094
56.3166
48.0068
42.2802
39.5393
40.0184
43.4515
30.1259
8.69756
4.48621
3.82857
3.5833
3.42343
3.50015
3.70554
3.87928
3.65166
3.50455
2.91186
2.60598
23.4808
89.5153
351.295
360.021
387.947
394.524
401.536
407.62
376.238
311.316
245.156
190.587
148.511
115.739
89.9836
71.2724
58.3437
49.1554
42.6942
39.1998
38.941
42.1002
32.3254
9.11522
4.42466
3.73994
3.48561
3.32101
3.40609
3.59177
3.73934
3.48277
3.34053
2.76001
2.48647
22.3333
90.1361
348.704
361.618
393.716
404.111
414.024
417.964
380.823
311.819
245.008
191.857
151.22
119.426
93.9099
74.5122
60.6017
50.5622
43.3699
39.1246
38.139
40.7547
34.0227
9.53747
4.36468
3.65134
3.38697
3.21757
3.31163
3.47682
3.59836
3.31415
3.17808
2.61036
2.36855
21.4546
91.5744
341.223
363.152
398.842
412.397
424.777
426.238
383.162
310.288
243.367
192.014
153.046
122.361
97.3132
77.5896
62.9148
52.1074
44.2277
39.2608
37.5675
39.5003
35.0713
9.92558
4.30348
3.5621
3.28704
3.11298
3.21668
3.36079
3.45666
3.14639
3.01773
2.46343
2.25257
20.8892
93.8361
332.797
364.704
403.168
419.398
433.971
432.799
383.559
306.887
240.247
190.996
153.929
124.51
100.096
80.328
65.1236
53.672
45.1813
39.5525
37.1781
38.3633
35.408
10.2354
4.23812
3.47159
3.18558
3.00719
3.12119
3.24382
3.31459
2.98011
2.85999
2.31972
2.13889
20.7351
97.0665
325.618
366.135
406.53
425.136
441.842
438.049
382.284
301.71
235.599
188.717
153.789
125.833
102.219
82.6257
67.1085
55.1534
46.1475
39.9405
36.9215
37.3326
35.0538
10.4238
4.16574
3.37927
3.08241
2.9002
3.02514
3.12607
3.17252
2.8159
2.70534
2.17969
2.02782
21.1259
101.579
320.445
367.208
408.776
429.648
448.715
442.489
379.63
294.858
229.388
185.067
152.514
126.256
103.642
84.421
68.7859
56.4708
47.0521
40.3627
36.7468
36.3745
34.0898
10.4561
4.08388
3.28471
2.97746
2.7921
2.92852
3.00775
3.03086
2.65437
2.55424
2.04375
1.91964
22.2957
107.762
317.193
367.668
409.768
432.99
455.011
446.671
375.818
286.375
221.566
179.953
149.988
125.686
104.309
85.6672
70.0983
57.5646
47.8357
40.759
36.6025
35.4439
32.6259
10.3135
3.99081
3.18763
2.87074
2.68304
2.83141
2.88908
2.89003
2.49612
2.4071
1.91229
1.8146
24.5223
115.902
315.405
367.288
409.385
435.254
461.298
451.207
370.976
276.285
212.124
173.302
146.1
124.009
104.137
86.3066
70.9946
58.3862
48.4501
41.0739
36.4373
34.4908
30.7763
9.99671
3.88567
3.08785
2.7624
2.57324
2.73389
2.77034
2.75044
2.34168
2.2643
1.78561
1.71291
28.1637
126.03
314.527
365.868
407.531
436.613
468.324
456.619
364.95
264.504
201.068
165.095
140.772
121.117
103.029
86.2683
71.4205
58.8912
48.8551
41.2602
36.2031
33.4676
28.6483
9.52561
3.76855
2.9854
2.65265
2.46303
2.63612
2.65184
2.61256
2.19162
2.12619
1.664
1.61478
33.4954
137.858
314.042
363.236
404.167
437.41
477.091
463.09
357.153
250.858
188.452
155.373
133.981
116.926
100.884
85.4666
71.3111
59.0307
49.0111
41.2772
35.8563
32.3337
26.3381
8.93371
3.64038
2.88039
2.54182
2.35274
2.53827
2.5339
2.47684
2.04641
1.99308
1.5477
1.52035
40.701
150.808
313.504
359.233
399.365
438.313
488.818
469.825
346.296
235.037
174.365
144.266
125.784
111.407
97.6256
83.8171
70.5961
58.7509
48.8771
41.0897
35.3615
31.059
23.9308
8.26075
3.50273
2.77311
2.4303
2.2428
2.44056
2.4169
2.34373
1.90652
1.86524
1.43691
1.42976
49.6321
164.142
312.537
353.724
393.416
440.583
504.673
474.077
330.402
216.712
158.976
131.991
116.335
104.613
93.2203
81.2513
69.2056
57.9943
48.4088
40.6656
34.691
29.6264
21.5003
7.54546
3.35753
2.66392
2.31855
2.13364
2.34325
2.30119
2.2137
1.77236
1.74291
1.33176
1.34313
59.8743
177.144
310.828
346.612
386.994
446.382
524.554
470.125
307.238
195.706
142.552
118.868
105.898
96.7029
87.7161
77.7447
67.0888
56.7099
47.5641
39.9772
33.8264
28.0313
19.1091
6.82067
3.2068
2.55329
2.20708
2.02575
2.24663
2.18719
2.08718
1.64429
1.62629
1.23237
1.26054
70.5911
189.262
308.129
337.887
381.36
458.8
544.035
449.953
275.53
172.312
125.511
105.298
94.8266
87.9391
81.2517
73.3352
64.2298
54.8642
46.3101
39.0042
32.7572
26.2803
16.8074
6.11113
3.05246
2.44175
2.09644
1.91962
2.15101
2.07531
1.96461
1.52263
1.51553
1.13882
1.18206
80.9187
200.15
304.257
327.681
378.539
480.216
549.86
407.225
236.239
147.443
108.409
91.7409
83.5371
78.6689
74.0631
68.1425
60.6689
52.4595
44.6377
37.741
31.4825
24.3892
14.6338
5.43357
2.89624
2.32989
1.9872
1.81575
2.05672
1.96595
1.84639
1.40761
1.41076
1.05111
1.10772
89.3733
209.637
299.081
316.33
381.066
505.79
521.643
343.043
192.911
122.562
91.9048
78.6673
72.4522
69.2753
66.4548
62.3641
56.5119
49.5471
42.5738
36.2043
30.0116
22.3821
12.6158
4.79809
2.7396
2.21832
1.87993
1.71461
1.9641
1.85953
1.7329
1.29943
1.31204
0.96923
1.03756
95.1437
217.562
292.493
304.372
389.674
511.585
449.021
267.804
150.434
99.2324
76.6106
66.4885
61.9405
60.1229
58.7622
56.2577
51.9303
46.2369
40.1935
34.4403
28.367
20.2916
10.7718
4.2099
2.58373
2.10769
1.77523
1.61669
1.87351
1.75645
1.62447
1.19819
1.2194
0.893116
0.971555
0.0033772
0.00241128
0.00244715
0.0023325
0.00209054
0.00198091
0.00211762
0.0207974
0.538478
1.20073
1.79441
2.45454
3.14132
3.87439
4.50778
5.01748
5.55034
7.45594
14.24
30.6987
190.685
159.041
0.00334362
0.00221165
0.00191291
0.00170845
0.00149125
0.00136805
0.00145209
0.022104
0.555777
1.2357
1.83754
2.49005
3.15989
3.87478
4.48963
4.98229
5.50565
7.42505
14.2944
30.8821
191.49
168.263
0.00353986
0.00237079
0.0018889
0.00157337
0.00132945
0.00116324
0.00115554
0.0228914
0.567659
1.26182
1.87183
2.51691
3.17073
3.86826
4.46683
4.94666
5.46686
7.39817
14.3461
31.0662
191.598
177.057
0.00367009
0.00251505
0.00197634
0.00161509
0.00135106
0.00115494
0.00102908
0.0233166
0.574652
1.27929
1.89703
2.53515
3.17434
3.85588
4.44073
4.91169
5.43428
7.37544
14.394
31.2504
191.06
185.229
0.00392208
0.00276752
0.0021884
0.00178766
0.00150447
0.00128166
0.000998951
0.0234589
0.577114
1.28828
1.91292
2.54485
3.17126
3.83863
4.4126
4.87833
5.4081
7.35697
14.4366
31.4347
189.911
193.26
0.00405957
0.00293011
0.00235326
0.00194925
0.00165684
0.00142332
0.000985809
0.0233644
0.575334
1.28901
1.91941
2.54611
3.16193
3.81742
4.38353
4.84747
5.38847
7.34298
14.4723
31.6191
188.175
201.343
0.00434008
0.00321386
0.00261413
0.00218641
0.00188134
0.00163082
0.00105833
0.0230597
0.569582
1.28174
1.91654
2.53908
3.14678
3.79299
4.35448
4.81987
5.37554
7.33372
14.4999
31.8036
185.884
209.493
0.00447801
0.00338115
0.00279573
0.0023754
0.0020655
0.00181075
0.00118248
0.0225591
0.560144
1.26684
1.9045
2.52393
3.12611
3.76594
4.32621
4.79623
5.36949
7.32961
14.518
31.9883
183.076
217.665
0.00478375
0.00369212
0.00308737
0.00264633
0.00232692
0.00205768
0.00131096
0.0218726
0.547334
1.2448
1.88363
2.50087
3.10017
3.73666
4.29925
4.77712
5.37055
7.33119
14.5258
32.173
179.799
225.805
0.0049082
0.00385122
0.00327112
0.00284542
0.00252519
0.00225629
0.0013986
0.0210107
0.531496
1.21621
1.8544
2.47014
3.06904
3.70535
4.27393
4.763
5.379
7.33917
14.5226
32.3572
176.101
233.85
0.0052292
0.00417944
0.00358272
0.0031386
0.00281212
0.00253118
0.00151596
0.0199866
0.512997
1.18173
1.81741
2.432
3.03278
3.67197
4.25028
4.75416
5.39515
7.35441
14.5083
32.5396
172.038
241.712
0.00533888
0.00432736
0.00376271
0.00334036
0.00301667
0.00274031
0.00163234
0.0188137
0.492206
1.14213
1.77335
2.38679
2.99132
3.63634
4.22806
4.75068
5.41932
7.37792
14.4834
32.7184
167.664
249.281
0.005672
0.00466971
0.00409079
0.00365181
0.00332492
0.00303875
0.00183938
0.017506
0.469482
1.09816
1.72298
2.33487
2.94456
3.59802
4.20677
4.75236
5.45174
7.41082
14.4488
32.8908
163.037
256.431
0.00575592
0.00479574
0.00425728
0.00384705
0.00352689
0.00325001
0.00211092
0.0160747
0.445152
1.05059
1.66712
2.27666
2.89235
3.55644
4.1856
4.75871
5.49249
7.45428
14.4058
33.0534
158.213
263.033
0.00609207
0.00514189
0.00459121
0.00416618
0.00384575
0.00356146
0.0025145
0.0145339
0.419491
1.00018
1.60657
2.21266
2.83457
3.51091
4.16347
4.76883
5.54139
7.50944
14.3565
33.2017
153.244
268.961
0.00615191
0.00524518
0.00473978
0.00434849
0.0040379
0.00376671
0.00296701
0.0128964
0.39271
0.947574
1.54217
2.14339
2.77111
3.46066
4.13906
4.78145
5.5979
7.57728
14.3032
33.3305
148.18
274.099
0.00648681
0.00559064
0.00507476
0.00466988
0.00436129
0.00408447
0.00348244
0.0111857
0.36494
0.893354
1.47467
2.06948
2.70197
3.40488
4.11087
4.79484
5.66095
7.65849
14.2487
33.4343
143.067
278.348
0.00651817
0.005667
0.00520031
0.00483347
0.00453757
0.0042773
0.00387062
0.00943094
0.33623
0.837962
1.40478
1.99156
2.62721
3.34286
4.07728
4.80687
5.72891
7.75329
14.1959
33.5067
137.943
281.629
0.00683913
0.00599881
0.00552414
0.00514533
0.00485343
0.00458943
0.00425959
0.00770989
0.306554
0.781698
1.33312
1.91033
2.54705
3.27395
4.03665
4.81501
5.79941
7.86118
14.1478
33.5417
132.842
283.879
0.00685337
0.00605683
0.00563017
0.0052907
0.00501337
0.00476793
0.00450724
0.00613778
0.275821
0.724699
1.26017
1.82647
2.46181
3.19768
3.9874
4.81647
5.86935
7.98076
14.1072
33.533
127.792
285.056
0.00716029
0.00637466
0.00594159
0.00559135
0.00531894
0.00507086
0.00481375
0.00494003
0.243921
0.666934
1.18625
1.74064
2.372
3.11379
3.92814
4.8083
5.93486
8.10943
14.0765
33.4751
122.816
285.124
0.00715657
0.0064132
0.00602745
0.00571712
0.00546039
0.00523212
0.0050048
0.00435215
0.210794
0.608213
1.11151
1.65343
2.27817
3.02229
3.85777
4.78759
5.99144
8.24323
14.0571
33.363
117.933
284.061
0.00744681
0.00671394
0.0063228
0.00600261
0.00575141
0.0055214
0.00528437
0.0044018
0.176543
0.548222
1.03586
1.56528
2.18105
2.92341
3.77553
4.75163
6.03408
8.37661
14.0493
33.1927
113.156
281.849
0.00743055
0.00673741
0.00639128
0.00611026
0.00587552
0.00566597
0.00545454
0.00477484
0.141631
0.4866
0.958979
1.47647
2.08131
2.8177
3.68113
4.69818
6.05762
8.50248
14.052
32.9609
108.496
278.474
0.00770447
0.00702117
0.00667053
0.00638029
0.00615097
0.00594005
0.00572027
0.00526524
0.107116
0.423069
0.8803
1.387
1.97967
2.7059
3.57472
4.62558
6.05704
8.61228
14.0617
32.6652
103.961
273.926
0.00767676
0.00703057
0.00672239
0.00647013
0.00625725
0.00606672
0.0058735
0.00560233
0.0748625
0.35766
0.799053
1.29654
1.87665
2.58896
3.45693
4.53299
6.02796
8.69633
14.0731
32.3034
99.5548
268.202
0.00793363
0.00729645
0.00698437
0.00672328
0.00651559
0.0063239
0.00612377
0.00590648
0.0473461
0.291035
0.714369
1.20436
1.77257
2.4679
3.32879
4.42036
5.96698
8.74446
14.0779
31.8732
95.2806
261.307
0.00789959
0.00729642
0.00702329
0.00679824
0.00660665
0.00643479
0.00626077
0.00608965
0.0268528
0.224875
0.625479
1.1093
1.66731
2.34374
3.19171
4.28855
5.87211
8.74677
14.0656
31.3717
91.1364
253.264
0.00814155
0.00754641
0.00726985
0.00703621
0.00684927
0.00667613
0.00649567
0.00632135
0.0143208
0.162132
0.532071
1.00983
1.56027
2.21728
3.0473
4.13917
5.74296
8.69464
14.0233
30.7949
87.1173
244.11
0.00810345
0.00753937
0.00729831
0.00709857
0.00692724
0.00677323
0.00661778
0.0064701
0.00855158
0.106883
0.43485
0.904197
1.45017
2.08891
2.89721
3.97451
5.58088
8.58173
13.9366
30.1367
83.2123
233.908
0.00833062
0.00777363
0.00752963
0.00732154
0.00715403
0.00699839
0.00683682
0.00668197
0.00686497
0.0632325
0.33627
0.790754
1.33508
1.95839
2.7429
3.79727
5.38879
8.40485
13.7906
29.3897
79.4052
222.748
0.00829277
0.00776377
0.00755148
0.00737479
0.00722229
0.00708491
0.00694662
0.00681565
0.00666385
0.0334662
0.241156
0.668669
1.21243
1.82462
2.58539
3.61028
5.17101
8.16459
13.5714
28.5446
75.6709
210.747
0.00850641
0.00798359
0.00776891
0.00758418
0.00743437
0.00729505
0.00715098
0.00701278
0.00684646
0.016875
0.156554
0.539048
1.07936
1.68554
2.42487
3.41617
4.93273
7.86546
13.2678
27.5922
71.9782
198.051
0.00847116
0.00797348
0.00778686
0.00763097
0.00749573
0.00737362
0.00725091
0.0071346
0.00700795
0.00971608
0.0899009
0.406426
0.933317
1.53812
2.26048
3.21694
4.67951
7.51563
12.873
26.5239
68.288
184.827
0.00867207
0.0081798
0.00799137
0.00782782
0.00769428
0.00756995
0.00744184
0.00731859
0.00719696
0.00748327
0.0454862
0.279796
0.773507
1.37862
2.09008
3.01357
4.41652
7.12605
12.3863
25.3351
64.5583
171.262
0.00864175
0.00817175
0.00800788
0.00787058
0.00775097
0.0076427
0.00753401
0.00743075
0.00732907
0.00708453
0.0216142
0.171399
0.603096
1.20322
1.91027
2.80571
4.14797
6.70921
11.814
24.0267
60.7475
157.55
0.00883202
0.00836678
0.00820153
0.0080569
0.00793803
0.00782727
0.00771346
0.00760356
0.00749843
0.0072401
0.0116626
0.0919355
0.431934
1.00962
1.71657
2.59146
3.8764
6.27751
11.169
22.6083
56.823
143.881
0.00880933
0.00836371
0.00821975
0.00809881
0.00799316
0.00789723
0.00780085
0.00770897
0.00761942
0.00745182
0.00846361
0.0441275
0.276756
0.799926
1.50415
2.36743
3.6024
5.84174
10.4698
21.0989
52.7672
130.434
0.00899004
0.00854874
0.00840391
0.00827612
0.00817044
0.00807184
0.00797071
0.00787262
0.00777878
0.00765629
0.00773595
0.021058
0.155723