/*--------------------------------*- C++ -*----------------------------------*\
| =========                 |                                                 |
| \\      /  F ield         | OpenFOAM: The Open Source CFD Toolbox           |
|  \\    /   O peration     | Version:  v1912                                 |
|   \\  /    A nd           | Website:  www.openfoam.com                      |
|    \\/     M anipulation  |                                                 |
\*---------------------------------------------------------------------------*/
FoamFile
{
    version     2.0;
    format      ascii;
    class       volScalarField;
    location    "80";
    object      nut;
}
// * * * * * * * * * * * * * * * * * * * * * * * * * * * * * * * * * * * * * //

dimensions      [0 2 -1 0 0 0 0];


internalField   nonuniform List<scalar> 
12441
(
5.82275e-24
1.79163e-20
8.1456e-20
3.34107e-19
1.07319e-18
3.90571e-18
1.01755e-17
2.5213e-17
6.18846e-17
1.28562e-16
3.08153e-16
7.78482e-16
2.19483e-15
7.47409e-15
1.04585e-13
1.91146e-11
0.000218278
0.00127221
0.00397356
0.00296199
0.003633
0.00775321
6.34332e-24
3.04183e-20
1.12713e-19
4.27519e-19
1.31287e-18
4.84636e-18
1.23355e-17
3.03971e-17
7.45433e-17
1.56396e-16
3.84604e-16
1.04324e-15
2.8579e-15
9.50512e-15
1.14558e-13
3.94985e-11
6.28429e-05
0.00154479
0.00452359
0.00321922
0.0039931
0.00781733
6.36606e-24
3.60694e-20
1.22039e-19
4.52665e-19
1.39159e-18
4.95579e-18
1.30959e-17
3.25067e-17
8.16707e-17
1.74232e-16
4.2392e-16
1.13476e-15
2.81862e-15
7.7876e-15
5.43412e-14
6.67222e-12
1.16734e-05
0.00111749
0.00177174
0.0030301
0.00414463
0.0078909
6.32053e-24
3.79493e-20
1.20063e-19
4.347e-19
1.342e-18
4.77284e-18
1.27102e-17
3.18685e-17
7.98376e-17
1.7664e-16
4.31057e-16
1.17503e-15
2.64944e-15
8.62918e-15
3.91844e-14
1.56982e-12
1.67535e-06
0.000762956
0.0013047
0.00293529
0.00430653
0.0079647
6.28642e-24
4.42631e-20
1.31604e-19
4.64601e-19
1.42202e-18
4.84569e-18
1.331e-17
3.33917e-17
8.58196e-17
1.90914e-16
4.62463e-16
1.30946e-15
3.06665e-15
4.15226e-14
2.51942e-13
2.34135e-12
1.42911e-07
0.000524916
0.00125404
0.00290877
0.00444743
0.00803394
6.23627e-24
4.17173e-20
1.2253e-19
4.36118e-19
1.36454e-18
4.69782e-18
1.29997e-17
3.30724e-17
8.46167e-17
1.96689e-16
4.86939e-16
1.4772e-15
4.61649e-15
1.35779e-12
1.21487e-11
5.21017e-11
4.69814e-07
0.00045967
0.00127723
0.00295552
0.00457696
0.00809948
6.20129e-24
5.08638e-20
1.40176e-19
4.83825e-19
1.48512e-18
4.87551e-18
1.38673e-17
3.51953e-17
9.2643e-17
2.15656e-16
5.3216e-16
2.04553e-15
2.55015e-14
4.24153e-11
6.72675e-10
9.58609e-09
1.90562e-05
0.000437766
0.00141207
0.00314114
0.00473087
0.00816218
6.15156e-24
4.40356e-20
1.25591e-19
4.48633e-19
1.43555e-18
4.81572e-18
1.38214e-17
3.56879e-17
9.3511e-17
2.29221e-16
5.86376e-16
5.57252e-15
6.22982e-13
2.30923e-09
8.61515e-08
5.03934e-06
0.000190169
0.000459337
0.00182845
0.00354094
0.00493982
0.00822577
6.11867e-24
5.65241e-20
1.49051e-19
5.09495e-19
1.58507e-18
5.05895e-18
1.49486e-17
3.8485e-17
1.04548e-16
2.57058e-16
6.61273e-16
6.29235e-14
2.64723e-11
7.61811e-08
1.05426e-05
0.000148759
0.000737031
0.000766217
0.00272115
0.00423955
0.0052416
0.00829204
6.07187e-24
4.50588e-20
1.28228e-19
4.66619e-19
1.54092e-18
5.06477e-18
1.51257e-17
3.97662e-17
1.07677e-16
2.82468e-16
7.68791e-16
1.72872e-12
1.1094e-09
4.53524e-06
0.000184385
0.00055793
0.00143018
0.00134261
0.00429348
0.00531483
0.00565374
0.00836448
6.0426e-24
6.12862e-20
1.56843e-19
5.37429e-19
1.70994e-18
5.32378e-18
1.64327e-17
4.31557e-17
1.22468e-16
3.25865e-16
9.16284e-16
5.37761e-11
5.63536e-08
8.13008e-05
0.000652227
0.00139263
0.00276176
0.00242959
0.00681155
0.00685425
0.00619056
0.00844366
5.99724e-24
4.54359e-20
1.30849e-19
4.88384e-19
1.67342e-18
5.41125e-18
1.68594e-17
4.53444e-17
1.2912e-16
3.75161e-16
1.19237e-15
1.50027e-09
3.32523e-06
0.000326539
0.0012929
0.002725
0.0050577
0.00440436
0.0105203
0.00887884
0.00683821
0.00853143
5.97152e-24
6.53618e-20
1.64291e-19
5.66906e-19
1.85862e-18
5.67765e-18
1.83962e-17
4.95933e-17
1.50872e-16
4.57456e-16
1.74375e-15
3.62785e-08
7.28312e-05
0.000933373
0.00278114
0.00526486
0.00900704
0.0077557
0.0154398
0.0113455
0.00758245
0.00862633
5.92761e-24
4.52011e-20
1.33041e-19
5.12106e-19
1.82958e-18
5.84223e-18
1.90802e-17
5.29589e-17
1.64722e-16
5.7622e-16
3.71227e-15
8.21316e-07
0.00033005
0.00213441
0.00542017
0.00942598
0.0151081
0.0128459
0.0212748
0.0141049
0.00838438
0.00872852
5.9051e-24
6.88881e-20
1.70857e-19
5.97169e-19
2.02829e-18
6.09402e-18
2.08484e-17
5.84727e-17
2.01893e-16
8.02094e-16
1.70205e-14
1.55392e-05
0.000983474
0.00444548
0.00968872
0.015523
0.0234825
0.0196208
0.0274332
0.0169866
0.00921817
0.00883515
5.86149e-24
4.48815e-20
1.35582e-19
5.38864e-19
2.01111e-18
6.35671e-18
2.18543e-17
6.36403e-17
2.35384e-16
1.25482e-15
3.11825e-13
0.000135877
0.00218828
0.00821857
0.0158578
0.0235492
0.0337148
0.0274387
0.0332555
0.0197887
0.0100413
0.00894576
5.84226e-24
7.20458e-20
1.78018e-19
6.30995e-19
2.22768e-18
6.61212e-18
2.39954e-17
7.14982e-17
3.17668e-16
2.3762e-15
1.2998e-11
0.000488286
0.00446894
0.013694
0.0237381
0.0331501
0.044787
0.0352158
0.0382071
0.0223822
0.0108359
0.00905718
5.79839e-24
4.44517e-20
1.38241e-19
5.6835e-19
2.22117e-18
6.96452e-18
2.53935e-17
7.97369e-17
4.21659e-16
5.62199e-15
5.65851e-10
0.00115199
0.00813125
0.0208759
0.0330332
0.043556
0.0552513
0.0418123
0.0420685
0.0246602
0.0115713
0.00916919
5.78188e-24
7.48713e-20
1.85052e-19
6.66182e-19
2.45196e-18
7.20313e-18
2.79923e-17
9.18289e-17
6.82279e-16
1.74545e-14
4.54499e-08
0.00254312
0.013436
0.0292953
0.0429484
0.0537342
0.0636292
0.0465145
0.0448851
0.0266093
0.0122469
0.00927899
5.73744e-24
4.40108e-20
1.40724e-19
5.98594e-19
2.45455e-18
7.65296e-18
2.99291e-17
1.05662e-16
1.11559e-15
7.77299e-14
8.69943e-06
0.0049219
0.0202435
0.0384737
0.0527516
0.0625434
0.0688646
0.0492465
0.0469158
0.0282179
0.0128481
0.00938714
5.72422e-24
7.74061e-20
1.91734e-19
7.01136e-19
2.69979e-18
7.88303e-18
3.32652e-17
1.26028e-16
2.26193e-15
8.04741e-13
0.000161593
0.0086889
0.0281201
0.0476538
0.061433
0.0690858
0.0706777
0.0505041
0.0484496
0.0295382
0.01339
0.00949146
5.67896e-24
4.33797e-20
1.42454e-19
6.27829e-19
2.70963e-18
8.42959e-18
3.60446e-17
1.51223e-16
4.48057e-15
1.38414e-11
0.000593223
0.0139402
0.036473
0.0563101
0.0683653
0.0728776
0.069605
0.0510014
0.0497565
0.0305954
0.0138709
0.00959327
5.66843e-24
7.97343e-20
1.97477e-19
7.3405e-19
2.96648e-18
8.64616e-18
4.05908e-17
1.8919e-16
1.05914e-14
1.71269e-10
0.00144644
0.0204463
0.0447075
0.0637998
0.0729912
0.0740142
0.0667389
0.0513595
0.0510022
0.0314597
0.0143184
0.00969106
5.62263e-24
4.28839e-20
1.43633e-19
6.55322e-19
2.98331e-18
9.29435e-18
4.4853e-17
2.3888e-16
2.31331e-14
1.60753e-09
0.00306055
0.0277868
0.0523393
0.0698159
0.075352
0.0730324
0.06327
0.0519224
0.052293
0.0321677
0.0147416
0.00978684
5.61562e-24
8.1989e-20
2.02561e-19
7.64613e-19
3.25289e-18
9.51131e-18
5.16975e-17
3.15538e-16
5.81313e-14
1.41899e-08
0.0056927
0.0353661
0.059027
0.0740858
0.075674
0.0707452
0.0601083
0.0527964
0.0536608
0.0327982
0.0151773
0.00987966
5.56803e-24
4.26774e-20
1.445e-19
6.81273e-19
3.27799e-18
1.0268e-17
5.88731e-17
4.21086e-16
1.34502e-13
3.27906e-07
0.00948565
0.0427148
0.0645677
0.0767082
0.0745713
0.067941
0.0577218
0.0539412
0.0551184
0.0333978
0.0156411
0.00997203
5.56352e-24
8.41653e-20
2.06963e-19
7.92685e-19
3.55862e-18
1.04907e-17
7.03323e-17
5.89751e-16
4.03869e-13
1.89767e-05
0.0142565
0.0494138
0.0688776
0.0778314
0.0725813
0.065235
0.0562103
0.0552762
0.0566456
0.0340479
0.0161736
0.0100634
5.51481e-24
4.26998e-20
1.44787e-19
7.04666e-19
3.59153e-18
1.1361e-17
8.36712e-17
8.34365e-16
1.88395e-12
0.000206905
0.0197028
0.0552522
0.0719757
0.0778367
0.0702829
0.0629733
0.0554665
0.0567213
0.0582246
0.0347901
0.0167886
0.0101564
5.51367e-24
8.62892e-20
2.10442e-19
8.1733e-19
3.8844e-18
1.16141e-17
1.05156e-16
1.23699e-15
1.31519e-11
0.000659976
0.0253704
0.060089
0.0739642
0.0770338
0.0680097
0.0612923
0.0553183
0.0582227
0.0598203
0.0356864
0.017519
0.0102507
5.4627e-24
4.28171e-20
1.44291e-19
7.24907e-19
3.926e-18
1.26101e-17
1.3232e-16
1.84578e-15
7.61497e-11
0.00126036
0.0309258
0.0639098
0.0750024
0.0757914
0.066021
0.0601791
0.0556034
0.059744
0.0614053
0.0367488
0.0183649
0.0103488
5.46358e-24
8.8315e-20
2.13314e-19
8.38973e-19
4.2321e-18
1.2932e-17
1.76608e-16
2.88058e-15
3.65498e-10
0.00205618
0.0360503
0.0667283
0.0752783
0.0743336
0.0643834
0.0595604
0.0561969
0.0612668
0.0629394
0.0379998
0.0193403
0.01045
5.41157e-24
4.29563e-20
1.42921e-19
7.42092e-19
4.28376e-18
1.40565e-17
2.35909e-16
4.503e-15
1.42238e-09
0.00307185
0.0405732
0.0686315
0.0749824
0.0728753
0.0631389
0.0593398
0.0570111
0.0627776
0.064391
0.0394114
0.0204226
0.0105565
5.41555e-24
9.02835e-20
2.15343e-19
8.5821e-19
4.61009e-18
1.44758e-17
3.33497e-16
7.24724e-15
4.85607e-09
0.00433892
0.04435
0.0697114
0.0742886
0.0715041
0.0622374
0.0594321
0.0579888
0.0642701
0.0657182
0.0409706
0.0216031
0.010667
5.36007e-24
4.28994e-20
1.40464e-19
7.56985e-19
4.67619e-18
1.57734e-17
4.68688e-16
1.15607e-14
1.47805e-08
0.0058501
0.0473578
0.0700992
0.0733434
0.070307
0.061653
0.0597647
0.0590942
0.0657363
0.0668878
0.0426252
0.0228375
0.0107831
5.36599e-24
8.96119e-20
2.13734e-19
8.71287e-19
5.02013e-18
1.63287e-17
6.91035e-16
1.88884e-14
4.36498e-08
0.00757936
0.0496012
0.0699124
0.0722615
0.0692885
0.0613201
0.0602855
0.0603068
0.0671722
0.0678586
0.0443524
0.0241034
0.0109032
5.30648e-24
4.19946e-20
1.34786e-19
7.63952e-19
5.09723e-18
1.77808e-17
1.00028e-15
3.05415e-14
2.23302e-07
0.00952485
0.0511752
0.0692837
0.0711279
0.0684741
0.0612111
0.0609549
0.0616164
0.0685712
0.0685997
0.0461065
0.0253492
0.0110282
5.31278e-24
8.61532e-20
2.06561e-19
8.73894e-19
5.45784e-18
1.84569e-17
1.49914e-15
5.8489e-14
1.08339e-05
0.0117112
0.0521812
0.0683199
0.0700008
0.0678375
0.0612755
0.0617492
0.0630212
0.0699318
0.0690751
0.0478863
0.0265555
0.0111563
5.2465e-24
4.20111e-20
1.29078e-19
7.67934e-19
5.56262e-18
2.01645e-17
2.1796e-15
4.73373e-13
0.000157155
0.0142314
0.0527637
0.0671291
0.0689178
0.0673853
0.0614996
0.0626522
0.0645251
0.0712511
0.0692623
0.0496763
0.0276842
0.0112883
5.24969e-24
5.4195e-20
1.56316e-19
8.08003e-19
5.83396e-18
2.08861e-17
3.24508e-15
2.3472e-11
0.000805642
0.0172091
0.0530368
0.0657905
0.0678988
0.0670871
0.0618489
0.0636592
0.0661381
0.072532
0.0691378
0.0515067
0.0287424
0.011422
5.17306e-24
4.3562e-20
1.15665e-19
7.31615e-19
6.00801e-18
2.38374e-17
4.72881e-15
1.04769e-09
0.00246711
0.0207143
0.05311
0.0643802
0.0669505
0.0669502
0.0623233
0.0647686
0.0678736
0.0737757
0.0686959
0.0533803
0.0297271
0.0115584
5.16625e-24
1.94844e-21
1.12886e-20
4.036e-19
5.49375e-18
2.46591e-17
7.28294e-15
1.831e-07
0.00559264
0.0246889
0.0530343
0.0629481
0.0660676
0.066948
0.062898
0.0659871
0.0697486
0.0749867
0.0679337
0.0553079
0.0306867
0.0116955
5.07824e-24
1.71888e-20
4.51025e-20
4.20283e-19
5.50837e-18
3.65575e-17
1.82049e-14
3.73676e-05
0.0104268
0.0290106
0.052841
0.0615441
0.0652351
0.0670955
0.063584
0.0673208
0.0717796
0.0761632
0.06687
0.0571967
0.031643
0.0118345
5.03926e-24
6.74124e-22
8.50125e-23
2.36476e-19
5.09771e-18
8.3404e-17
3.73853e-13
0.000486023
0.0170606
0.0335232
0.0525112
0.0601967
0.0644285
0.0673646
0.0643574
0.0687838
0.0739831
0.0773011
0.0655267
0.0588291
0.0325969
0.011976
4.83877e-24
2.10698e-19
4.59452e-19
1.03351e-18
7.32002e-18
9.22921e-16
7.2471e-12
0.00210574
0.0254514
0.0381724
0.0521022
0.0589643
0.0636249
0.0677658
0.0652234
0.0703777
0.0763612
0.0783438
0.0639332
0.0597101
0.0332035
0.0121338
0.00987657
0.0110933
0.00944991
0.00474323
0.00320019
0.00305301
0.00347536
0.00370779
0.00328813
0.00287871
0.00344911
0.00318889
0.00361321
0.00793214
0.0183846
0.0281193
0.0328161
0.0328392
0.0291071
0.0232147
0.0199412
0.0194132
0.0204943
0.0337017
0.0617251
0.0801919
0.0890578
0.0950666
0.0976929
0.0925176
0.0851245
0.0813013
0.0823814
0.0934024
0.111097
0.00986353
0.0111915
0.00912451
0.00422326
0.00268984
0.00266203
0.00321169
0.00355557
0.00316188
0.00279991
0.00333443
0.00306972
0.0033777
0.00734767
0.017439
0.0272571
0.0325585
0.0332797
0.0298378
0.0236618
0.0200957
0.019509
0.0205762
0.0337029
0.0617585
0.0801884
0.0890389
0.0950474
0.0976958
0.0924749
0.085093
0.0812767
0.0823808
0.0934022
0.111106
0.00983842
0.0112963
0.00864317
0.00337509
0.00215409
0.00230036
0.00297334
0.00329792
0.00295084
0.00278125
0.00335334
0.00316959
0.00349373
0.00661781
0.014883
0.0232397
0.0282614
0.0298099
0.027887
0.0229701
0.0199881
0.0196206
0.0209691
0.0341009
0.061837
0.0801011
0.0889241
0.0949398
0.0976474
0.092341
0.0849884
0.0811885
0.0823443
0.0933642
0.111087
0.00979929
0.0113989
0.00792308
0.00261523
0.0018248
0.00202336
0.00267948
0.00290235
0.00258185
0.00250782
0.00307032
0.00299966
0.00348333
0.00590685
0.0122505
0.0188452
0.0230187
0.024943
0.0246083
0.0216109
0.0196987
0.0197343
0.0215588
0.0347633
0.0619402
0.0799263
0.0887106
0.0947413
0.0975451
0.0921141
0.0848096
0.0810353
0.0822706
0.0932875
0.111039
0.00974597
0.0114394
0.00700977
0.00208623
0.00166717
0.00180022
0.00236963
0.00247876
0.00216669
0.00212464
0.00254376
0.00252364
0.00314753
0.00521616
0.0100563
0.0151437
0.0183699
0.0202339
0.0210398
0.0199642
0.0192917
0.0198384
0.0222593
0.0355888
0.0620581
0.0796757
0.0884104
0.0944632
0.0973972
0.0918032
0.0845646
0.0808247
0.082167
0.0931808
0.110971
0.00967615
0.01137
0.00603862
0.0017811
0.00162719
0.00163745
0.00210205
0.00213889
0.00185506
0.00182375
0.00201006
0.00196779
0.00255593
0.00441628
0.00820535
0.0121774
0.0146685
0.0163151
0.017781
0.0182924
0.0188158
0.0199234
0.0230084
0.0365027
0.0621892
0.0793708
0.0880453
0.0941259
0.0972195
0.0914244
0.0842671
0.0805703
0.0820459
0.0930583
0.110899
0.00959042
0.0111669
0.00514179
0.00164153
0.00166233
0.00154997
0.00191542
0.0019266
0.00169144
0.00166484
0.0016466
0.00156093
0.00197062
0.00349906
0.00651111
0.00967376
0.0117036
0.0131995
0.0150302
0.0167238
0.0182942
0.019979
0.0237622
0.0374531
0.0623384
0.0790389
0.0876432
0.0937548
0.0970324
0.0909982
0.0839347
0.0802895
0.081923
0.0929382
0.110841
0.00948687
0.01082
0.00438958
0.0016103
0.00174188
0.00154071
0.00181629
0.00182026
0.00163592
0.00160756
0.00146479
0.00135724
0.00159289
0.00264884
0.00495771
0.0074693
0.009196
0.0106421
0.0127127
0.0152615
0.01772
0.0199896
0.0244896
0.0384058
0.0625155
0.0787098
0.0872349
0.0933784
0.0968582
0.0905476
0.083587
0.0800019
0.0818164
0.0928413
0.110819
0.00936733
0.0103365
0.00379339
0.00163983
0.00184315
0.00160052
0.00179281
0.00177752
0.0016336
0.00159384
0.0013926
0.00128599
0.00143088
0.00205453
0.00367114
0.00558717
0.00703255
0.00842881
0.010655
0.0138279
0.017056
0.0199313
0.0251667
0.0393401
0.0627324
0.0784129
0.0868508
0.093025
0.0967199
0.0900968
0.0832449
0.0797287
0.0817457
0.0927901
0.110857
0.0092307
0.00972646
0.00333327
0.00169068
0.00195118
0.001715
0.00183277
0.00176865
0.00164977
0.00159013
0.00136516
0.00126955
0.0013931
0.00174738
0.00276634
0.00411914
0.0052461
0.00649557
0.00873245
0.0123253
0.0162447
0.0197696
0.0257718
0.0402445
0.0630012
0.0781747
0.086519
0.0927216
0.0966394
0.0896694
0.0829294
0.0794914
0.0817309
0.092808
0.110978
0.00908003
0.00900949
0.00298115
0.00174153
0.00205907
0.00186874
0.00193018
0.00178258
0.00167048
0.00158597
0.00135167
0.00126814
0.00139701
0.0016405
0.00224903
0.00311733
0.00390592
0.00489976
0.00694522
0.0107038
0.0152263
0.0194597
0.0262813
0.0411118
0.0633323
0.0780173
0.0862636
0.0924917
0.096636
0.0892878
0.0826609
0.0793116
0.0817922
0.0929187
0.111209
0.00891508
0.00820451
0.00271625
0.00178465
0.00216794
0.00204715
0.00208176
0.00182
0.001694
0.00158288
0.00134496
0.0012716
0.00140506
0.00163059
0.00202728
0.00254622
0.00302923
0.00371847
0.00539585
0.00900657
0.013965
0.01895
0.0266655
0.0419359
0.0637326
0.0779569
0.0861033
0.0923551
0.0967262
0.0889723
0.0824585
0.0792101
0.0819493
0.0931459
0.111572
0.00874002
0.00734042
0.00252654
0.00181867
0.00228646
0.00223857
0.00227695
0.00188549
0.0017252
0.00158525
0.00134637
0.0012806
0.00141174
0.00165141
0.0019829
0.00230306
0.00256002
0.00297135
0.00420499
0.00737016
0.0124789
0.0181921
0.026887
0.0427081
0.0642047
0.0780036
0.0860516
0.0923268
0.0969227
0.0887407
0.0823397
0.0792065
0.0822211
0.0935124
0.112091
0.00855535
0.00644817
0.00240766
0.00185325
0.00242951
0.00243915
0.00249819
0.00198528
0.00177078
0.00159855
0.00135965
0.00129752
0.00142127
0.00167724
0.00202222
0.00226817
0.00239416
0.00260321
0.00342901
0.00596637
0.0108581
0.0171553
0.0269002
0.043415
0.0647464
0.0781616
0.0861165
0.0924175
0.0972348
0.0886076
0.08232
0.0793192
0.0826256
0.0940406
0.11279
0.00836592
0.00556739
0.00236127
0.00190869
0.00261524
0.00265685
0.00273749
0.00211718
0.00183495
0.00162749
0.00138837
0.00132538
0.00143763
0.00170437
0.00209155
0.00234407
0.00242214
0.00251616
0.0030379
0.00492163
0.00925269
0.0158456
0.0266547
0.0440365
0.065351
0.0784302
0.0863013
0.092634
0.0976685
0.0885853
0.0824132
0.0795652
0.0831795
0.0947521
0.113689
0.00817267
0.00473695
0.00239339
0.00200963
0.00286352
0.00290705
0.00300032
0.00227746
0.00192192
0.00167753
0.00143721
0.00136772
0.00146351
0.00173471
0.00216791
0.00246744
0.0025554
0.00260819
0.00294612
0.00427011
0.00782476
0.0143199
0.0261022
0.0445456
0.0660075
0.0788042
0.0866058
0.0929799
0.0982271
0.0886835
0.0826313
0.0799603
0.0838987
0.0956674
0.114808
0.00798033
0.00399607
0.00251224
0.00217722
0.00319314
0.00321363
0.00329848
0.00246736
0.00203654
0.00175425
0.00151139
0.00142984
0.00150226
0.00177015
0.00224444
0.00260502
0.00273494
0.00279641
0.00305431
0.00396789
0.00669132
0.0126849
0.025208
0.0449078
0.0667018
0.0792755
0.0870269
0.0934564
0.0989116
0.0889098
0.0829846
0.0805194
0.0847982
0.0968069
0.116167
0.00778933
0.00337812
0.00272855
0.00242506
0.003625
0.00360665
0.00364988
0.0026959
0.00218704
0.00186561
0.00161906
0.0015188
0.00155902
0.00181225
0.0023193
0.00274184
0.00292662
0.00302338
0.00327429
0.00393212
0.00589636
0.0110744
0.023965
0.0450835
0.0674173
0.0798345
0.0875602
0.0940633
0.0997219
0.0892702
0.0834825
0.0812565
0.0858924
0.0981904
0.117785
0.00760307
0.00290468
0.00305424
0.0027618
0.00418721
0.00411898
0.00407752
0.00297848
0.00238482
0.00202206
0.00177164
0.00164532
0.00164207
0.00186437
0.00239244
0.00287249
0.00311382
0.00325492
0.00354
0.0040734
0.00542146
0.00961376
0.0224052
0.0450303
0.0681361
0.0804708
0.0882008
0.0947998
0.100657
0.0897696
0.0841332
0.0821854
0.0871952
0.0998378
0.119679
0.00742066
0.00258077
0.00349574
0.00320002
0.00491242
0.00478821
0.00460964
0.00333758
0.00264663
0.00223939
0.00198741
0.00182504
0.00176408
0.00193305
0.00246503
0.00299549
0.00328969
0.00347327
0.00380795
0.00431285
0.00521209
0.00839064
0.0206036
0.044708
0.0688404
0.0811749
0.0889445
0.0956657
0.101715
0.0904126
0.0849449
0.0833199
0.0887207
0.101769
0.121867
0.00724378
0.00239771
0.00403948
0.0037612
0.00583812
0.0056555
0.0052773
0.00380027
0.00299356
0.0025385
0.0022921
0.00208228
0.00194498
0.00203047
0.00254197
0.00311287
0.00345418
0.00367244
0.00405365
0.00459008
0.00520025
0.00744549
0.0186688
0.0440845
0.0695137
0.0819388
0.0897886
0.0966618
0.102896
0.0912034
0.0859253
0.0846742
0.0904831
0.104005
0.124367
0.00707145
0.00234614
0.00464851
0.00448099
0.0070083
0.00676447
0.00611401
0.00439814
0.00345246
0.00294731
0.00272178
0.00245223
0.00221548
0.00217674
0.00263342
0.00323033
0.00361174
0.00385424
0.00426655
0.00486332
0.005319
0.00677782
0.0167214
0.0431427
0.0701419
0.0827572
0.0907326
0.0977907
0.104201
0.0921466
0.0870826
0.0862632
0.0924971
0.106568
0.127196
0.00690537
0.00241758
0.00531467
0.00540614
0.00847537
0.00816166
0.00715472
0.00516416
0.00405335
0.00349809
0.00331956
0.00298336
0.00262154
0.00240501
0.00275831
0.00335981
0.00377237
0.00402745
0.00444732
0.00510755
0.00551099
0.00635932
0.0148701
0.0418873
0.070715
0.0836278
0.0917789
0.0990571
0.105629
0.0932475
0.0884251
0.0881029
0.0947779
0.109481
0.130373
0.00674534
0.00259725
0.00607993
0.00661642
0.0103047
0.00990063
0.00843885
0.00613354
0.00482994
0.00422692
0.00413209
0.00373286
0.00322453
0.00276718
0.00294712
0.0035204
0.003951
0.00420587
0.00460504
0.00531051
0.00573191
0.00614596
0.0131951
0.0403493
0.0712285
0.0845524
0.0929331
0.100468
0.107186
0.094512
0.0899622
0.0902106
0.0973418
0.112767
0.133915
0.00659312
0.00288728
0.00702504
0.00822433
0.0125769
0.0120427
0.0100085
0.00733977
0.00581459
0.00516697
0.00519783
0.00475652
0.00409248
0.00333828
0.00324797
0.00374115
0.00416866
0.00440821
0.00475621
0.005471
0.00595106
0.0060884
0.0117439
0.0385876
0.0716849
0.0855368
0.0942043
0.102035
0.108874
0.095947
0.0917035
0.0926051
0.100206
0.116454
0.137842
0.00644962
0.0032968
0.00828452
0.0103693
0.0153819
0.0146477
0.0119021
0.00880992
0.00703445
0.00634374
0.00653759
0.00608969
0.00527715
0.00420493
0.00373015
0.0040622
0.00445118
0.00465547
0.00492195
0.00559611
0.00614973
0.00613954
0.0105379
0.0366867
0.0720952
0.0865914
0.0956052
0.103769
0.110701
0.0975606
0.0936601
0.0953068
0.103389
0.120568
0.142172
0.00631698
0.00383822
0.0100205
0.013202
0.018801
0.0177483
0.0141336
0.0105492
0.00849829
0.00776286
0.00814108
0.00773089
0.00678808
0.00543102
0.00447955
0.00453659
0.00482981
0.00497032
0.00512621
0.00570095
0.00631957
0.00625985
0.00957993
0.0347502
0.0724804
0.087731
0.0971523
0.105687
0.112675
0.0993614
0.0958435
0.0983377
0.106909
0.12514
0.146925
0.00619775
0.00452915
0.0123818
0.0168594
0.0228799
0.0213167
0.0166691
0.0125256
0.0101857
0.00940264
0.00996271
0.00962994
0.00857578
0.00701155
0.00556602
0.00522247
0.00533757
0.00537371
0.00539187
0.00580594
0.00646058
0.00641961
0.00886176
0.0328904
0.0728721
0.0889746
0.0988651
0.107808
0.114804
0.101359
0.0982664
0.101722
0.110789
0.130201
0.15212
0.00609509
0.00539207
0.015467
0.0214398
0.0276007
0.025236
0.0194041
0.0146533
0.012033
0.0112036
0.0119182
0.0116907
0.0105353
0.00885618
0.00699287
0.00616265
0.00600315
0.00588268
0.00573837
0.005936
0.00657999
0.00659964
0.00836826
0.0312168
0.0733129
0.0903452
0.100766
0.110152
0.117099
0.103564
0.100942
0.105485
0.115048
0.135786
0.157777
0.00601408
0.00646053
0.01932
0.02698
0.0328555
0.029289
0.0221583
0.0167907
0.0139314
0.0130701
0.0138934
0.0137801
0.0125218
0.0108063
0.00866265
0.00734775
0.00683397
0.00650237
0.00617655
0.00611635
0.00669068
0.00679029
0.00808107
0.0298267
0.0738545
0.0918684
0.10288
0.112741
0.119573
0.105988
0.103885
0.109654
0.119712
0.141931
0.163917
0.00596079
0.00777462
0.0239392
0.0334138
0.0384168
0.0331633
0.0246845
0.0187455
0.0157297
0.0148731
0.0157523
0.0157473
0.0143755
0.0126746
0.0103994
0.00869354
0.00779953
0.0072183
0.00670452
0.00637025
0.00681025
0.0069905
0.00798211
0.0288002
0.0745561
0.0935721
0.105233
0.115601
0.122236
0.108641
0.107112
0.114261
0.124805
0.148674
0.170561
0.00594609
0.00937528
0.0292826
0.040498
0.0439102
0.0364766
0.0266983
0.020299
0.0172534
0.0164661
0.0173551
0.0174413
0.0159445
0.0142792
0.0119982
0.0100495
0.00882034
0.00798668
0.0073004
0.00671242
0.00695922
0.00720595
0.00805678
0.0282
0.0754799
0.0954846
0.107852
0.118755
0.125102
0.111536
0.110638
0.119336
0.130354
0.15606
0.177731
0.00598322
0.0112808
0.0352289
0.04774
0.0488198
0.0388262
0.0279205
0.0212372
0.018327
0.0177028
0.0185743
0.0187336
0.0171087
0.0154782
0.0132812
0.0112461
0.00978354
0.00873782
0.00792091
0.00714462
0.00715926
0.00744794
0.00829666
0.0280746
0.0766866
0.0976328
0.110762
0.122229
0.128184
0.114684
0.114482
0.124917
0.136389
0.164136
0.185452
0.00609167
0.013483
0.0415212
0.0544079
0.0525598
0.0398703
0.0281359
0.021397
0.0188114
0.0184651
0.0193174
0.0195348
0.0177948
0.0161868
0.0141283
0.0121403
0.0105707
0.00938751
0.0085041
0.00764792
0.00742981
0.00773135
0.00870112
0.0284628
0.0782307
0.100041
0.113988
0.126048
0.131494
0.118098
0.118666
0.131043
0.142946
0.172957
0.193752
0.00628805
0.0159418
0.0477302
0.0596764
0.0546111
0.0394135
0.0272461
0.0207077
0.0186356
0.0186864
0.0195426
0.0198108
0.0179877
0.0163921
0.0144984
0.0126529
0.0110946
0.00986197
0.00898477
0.00818361
0.00778408
0.00807329
0.00927792
0.0293971
0.0801557
0.102728
0.117552
0.130236
0.135047
0.121793
0.123213
0.137762
0.150063
0.182584
0.202663
0.00658505
0.0186194
0.053324
0.0628723
0.05467
0.037465
0.0253026
0.0192232
0.0178258
0.0183717
0.0192698
0.0195855
0.0177278
0.0161426
0.0144197
0.0127712
0.0113142
0.0101136
0.00930945
0.00869673
0.00822335
0.00849022
0.0100427
0.0309065
0.0824917
0.105709
0.121473
0.13482
0.138858
0.125785
0.128154
0.145126
0.157788
0.19309
0.212222
0.00697682
0.0214651
0.0577908
0.0636705
0.0527268
0.0342316
0.0224997
0.0171203
0.0165046
0.0175965
0.0185735
0.0189359
0.0171009
0.0155371
0.013977
0.0125432
0.0112413
0.0101338
0.00945248
0.00913298
0.00873312
0.00899579
0.0110181
0.0330173
0.0852538
0.108992
0.12577
0.139826
0.142943
0.130095
0.133522
0.153202
0.166173
0.204562
0.222477
0.00744499
0.024407
0.0607538
0.062133
0.0490345
0.0300517
0.0191343
0.0146701
0.0148694
0.0164912
0.017566
0.0179707
0.0162166
0.0146932
0.013279
0.0120495
0.0109229
0.00994561
0.00941703
0.00945019
0.00928219
0.00959731
0.012232
0.0357538
0.0884433
0.112579
0.130459
0.145282
0.147323
0.134748
0.139359
0.162064
0.175284
0.217099
0.233483
0.00795396
0.0272265
0.0619665
0.058587
0.043993
0.0253025
0.0155495
0.0121771
0.0131402
0.0152064
0.0163686
0.0168077
0.0151864
0.0137281
0.0124385
0.0113854
0.0104287
0.00959739
0.00923386
0.00963241
0.00982899
0.0102945
0.0137167
0.0391391
0.0920512
0.116471
0.135561
0.151225
0.15202
0.139777
0.145716
0.171805
0.185198
0.230821
0.245307
0.00846726
0.0295259
0.0612718
0.0534581
0.0380185
0.020333
0.0120879
0.00991144
0.011507
0.0138772
0.015087
0.0155491
0.0141027
0.0127329
0.0115471
0.0106355
0.00982929
0.00914516
0.00894767
0.00968631
0.010331
0.0110791
0.0155081
0.0431995
0.0960635
0.120672
0.141102
0.157696
0.157066
0.145223
0.152655
0.182533
0.196002
0.245864
0.258028
0.00894498
0.0306926
0.0585465
0.0471463
0.0314645
0.0154542
0.00905079
0.00804161
0.0100816
0.0125882
0.0137889
0.0142668
0.0130269
0.0117683
0.0106708
0.00986852
0.00918832
0.00864525
0.0086098
0.00964056
0.0107565
0.0119393
0.0176478
0.0479697
0.100469
0.125189
0.147119
0.164748
0.162498
0.151137
0.160246
0.194371
0.2078
0.262384
0.271736
0.0093615
0.0301319
0.0537177
0.0399972
0.0246366
0.0109901
0.00664345
0.00660593
0.00888336
0.0113584
0.0124962
0.0129939
0.0119844
0.0108569
0.00984331
0.00912684
0.00855093
0.00814219
0.00826576
0.00953192
0.0110911
0.0128655
0.0201865
0.0535048
0.105266
0.130042
0.153659
0.172444
0.16836
0.157582
0.168569
0.207461
0.220703
0.280556
0.286532
0.0096768
0.0273449
0.0467713
0.0323348
0.0179059
0.00730431
0.00490646
0.0055318
0.00784836
0.0101442
0.0111909
0.0117329
0.0109727
0.0099984
0.00907813
0.00843397
0.00794659
0.00766926
0.00795375
0.00940206
0.0113408
0.0138597
0.023191
0.0598927
0.110474
0.135265
0.160785
0.180859
0.174706
0.164629
0.177716
0.221957
0.234834
0.300565
0.302523
0.00988074
0.0223667
0.037898
0.024487
0.0118038
0.00463551
0.00368263
0.00465606
0.00682773
0.00883399
0.00980129
0.0104339
0.00994315
0.00915644
0.0083586
0.00778304
0.00737793
0.00723728
0.00769633
0.00928633
0.0115284
0.0149394
0.0267514
0.0672716
0.116134
0.140908
0.168571
0.190074
0.181593
0.172356
0.187779
0.23802
0.250323
0.322609
0.319823
4.88328e-24
3.27434e-19
1.06209e-18
4.00156e-18
2.53984e-17
3.38764e-14
9.21678e-11
0.00688932
0.0330348
0.0416484
0.0517071
0.0581407
0.063042
0.0681986
0.0659728
0.0717228
0.0783178
0.0789525
0.0625674
0.0595383
0.0328234
0.0122258
4.99721e-24
7.49671e-20
8.04245e-20
5.86927e-18
6.21355e-17
2.59894e-13
9.40599e-10
0.0124112
0.0381061
0.0437197
0.0513598
0.0576648
0.0627416
0.0686151
0.0666032
0.0727125
0.0797198
0.0793366
0.0618608
0.0590404
0.0323697
0.0123357
5.10306e-24
2.77198e-19
8.74603e-19
8.73391e-18
1.2154e-16
9.503e-13
9.35992e-09
0.0188708
0.0426473
0.0454302
0.0510212
0.0572905
0.062547
0.0691039
0.0673013
0.0737114
0.0811015
0.0796907
0.0614596
0.0581756
0.0317914
0.0125496
5.06292e-24
5.73108e-20
2.17746e-20
6.91074e-18
1.93171e-16
2.29982e-12
1.7003e-07
0.0256873
0.0466456
0.0468741
0.0507905
0.0570401
0.0624686
0.0696649
0.0680645
0.07469
0.0824245
0.0800163
0.0613502
0.0569831
0.031128
0.0128634
5.16648e-24
2.21015e-19
6.43143e-19
7.36832e-18
2.89937e-16
3.60284e-12
6.55071e-06
0.0319263
0.0501512
0.048138
0.050735
0.05693
0.0625164
0.0702746
0.0688634
0.0756234
0.0836478
0.08031
0.0615007
0.0555385
0.0304306
0.013268
5.11481e-24
4.59163e-20
1.22982e-20
4.71573e-18
4.14111e-16
4.87458e-12
1.86783e-05
0.0365279
0.0532299
0.0493082
0.0509096
0.0569811
0.0626999
0.0709389
0.0696977
0.0764855
0.0847288
0.080563
0.0618766
0.0539026
0.0297112
0.0137805
5.22982e-24
1.78359e-19
4.81545e-19
4.7356e-18
5.84663e-16
5.03895e-12
3.44227e-05
0.0389655
0.0559559
0.0504534
0.0513454
0.0572076
0.0630269
0.0716385
0.0705394
0.0772594
0.0856274
0.0807656
0.0624269
0.0521578
0.0289986
0.0144151
5.17085e-24
3.80184e-20
8.01575e-21
2.83565e-18
7.79736e-16
4.37494e-12
2.58078e-05
0.0393622
0.0583806
0.0516355
0.0520694
0.0576285
0.0635047
0.0723857
0.0713943
0.0779287
0.0863084
0.080901
0.063106
0.0503589
0.0282911
0.0151903
5.29836e-24
1.46359e-19
3.75183e-19
2.91553e-18
9.91938e-16
2.86661e-12
2.73441e-05
0.0382259
0.0605379
0.0528946
0.0530914
0.058256
0.0641397
0.0731663
0.0722387
0.0784884
0.0867459
0.0809528
0.0638575
0.0485761
0.0276101
0.0161098
5.22404e-24
3.24209e-20
5.97424e-21
1.71574e-18
1.15731e-15
1.68809e-12
3.52725e-05
0.0360098
0.0624181
0.0542611
0.0544233
0.0591082
0.0649382
0.0739981
0.0730854
0.0789346
0.0869255
0.0808987
0.0646381
0.0468466
0.0269463
0.0171765
5.35802e-24
1.2169e-19
3.01298e-19
1.87234e-18
1.25848e-15
8.48575e-13
4.00218e-05
0.0329527
0.0639787
0.0557404
0.0560625
0.0601965
0.065907
0.0748712
0.0739171
0.0792747
0.0868466
0.0807199
0.0653968
0.0452231
0.0263166
0.0183745
5.27157e-24
2.84097e-20
4.75039e-21
1.09612e-18
1.24739e-15
4.16303e-13
4.10656e-05
0.0292695
0.065123
0.0573242
0.05801
0.0615395
0.0670551
0.0758081
0.0747539
0.0795157
0.0865206
0.0803949
0.0661008