/*--------------------------------*- C++ -*----------------------------------*\
| =========                 |                                                 |
| \\      /  F ield         | OpenFOAM: The Open Source CFD Toolbox           |
|  \\    /   O peration     | Version:  v1912                                 |
|   \\  /    A nd           | Website:  www.openfoam.com                      |
|    \\/     M anipulation  |                                                 |
\*---------------------------------------------------------------------------*/
FoamFile
{
    version     2.0;
    format      ascii;
    class       volScalarField;
    location    "80";
    object      p;
}
// * * * * * * * * * * * * * * * * * * * * * * * * * * * * * * * * * * * * * //

dimensions      [0 2 -2 0 0 0 0];


internalField   nonuniform List<scalar> 
12441
(
8.18171
8.85715
10.3107
8.62547
10.9096
15.8025
19.2918
20.3015
23.6526
29.4358
36.4484
44.3449
53.9553
65.6266
80.5719
98.3563
122.851
153.415
204.161
264.397
359.44
436.754
8.18172
8.85711
10.3106
8.62563
10.9095
15.8024
19.2917
20.3015
23.6525
29.4358
36.448
44.3441
53.9542
65.6251
80.5695
98.3508
122.837
153.393
204.07
264.315
359.373
436.513
8.18175
8.85703
10.3103
8.62613
10.9093
15.8021
19.2913
20.3015
23.6521
29.4357
36.4473
44.3427
53.952
65.6222
80.5646
98.3399
122.816
153.341
203.882
264.12
359.201
436.076
8.18179
8.8569
10.3098
8.62697
10.9092
15.8017
19.2906
20.3015
23.6516
29.4356
36.4463
44.3407
53.9485
65.6178
80.5573
98.3235
122.788
153.262
203.692
263.821
358.901
435.404
8.18185
8.85672
10.3092
8.62812
10.909
15.8011
19.2896
20.3015
23.651
29.4355
36.445
44.3378
53.9439
65.6119
80.5477
98.3019
122.752
153.165
203.52
263.447
358.485
434.494
8.18193
8.8565
10.3083
8.62957
10.9088
15.8002
19.2883
20.3016
23.6503
29.4355
36.4434
44.3343
53.938
65.6046
80.5358
98.2754
122.707
153.052
203.325
262.993
357.958
433.349
8.18203
8.85622
10.3073
8.63131
10.9086
15.7993
19.2868
20.3017
23.6494
29.4354
36.4414
44.33
53.9309
65.5958
80.5216
98.2439
122.655
152.92
203.096
262.466
357.326
431.968
8.18214
8.85589
10.3061
8.63334
10.9083
15.7981
19.2849
20.3019
23.6485
29.4353
36.439
44.3249
53.9225
65.5858
80.5053
98.2079
122.597
152.768
202.845
261.877
356.595
430.349
8.18227
8.85551
10.3048
8.63564
10.908
15.7968
19.2828
20.3021
23.6474
29.4352
36.4363
44.319
53.9129
65.5745
80.4873
98.1685
122.536
152.603
202.591
261.239
355.77
428.488
8.18241
8.85508
10.3033
8.63821
10.9078
15.7952
19.2804
20.3023
23.6463
29.435
36.4333
44.3124
53.902
65.5621
80.4687
98.128
122.473
152.429
202.348
260.565
354.855
426.381
8.18256
8.8546
10.3016
8.64105
10.9075
15.7935
19.2777
20.3026
23.6451
29.4348
36.4298
44.3049
53.8899
65.5489
80.4505
98.0878
122.415
152.254
202.133
259.864
353.85
424.022
8.18273
8.85406
10.2999
8.64415
10.9072
15.7916
19.2748
20.3029
23.6438
29.4345
36.426
44.2966
53.8767
65.5361
80.4341
98.0508
122.373
152.096
201.961
259.141
352.751
421.405
8.18292
8.85347
10.2979
8.64751
10.907
15.7896
19.2715
20.3033
23.6424
29.4342
36.4218
44.2875
53.8624
65.5253
80.4225
98.0245
122.362
151.975
201.831
258.387
351.551
418.52
8.18311
8.85283
10.2959
8.65111
10.9067
15.7873
19.268
20.3037
23.641
29.4339
36.4172
44.2775
53.8474
65.5196
80.4203
98.0182
122.397
151.904
201.723
257.583
350.24
415.359
8.18332
8.85214
10.2936
8.65495
10.9064
15.7849
19.2642
20.3042
23.6394
29.4334
36.4122
44.2666
53.833
65.522
80.4316
98.038
122.481
151.881
201.597
256.702
348.809
411.909
8.18353
8.85139
10.2913
8.65903
10.9061
15.7822
19.2602
20.3047
23.6379
29.4329
36.4068
44.2546
53.8211
65.5354
80.4595
98.0846
122.603
151.883
201.409
255.722
347.249
408.161
8.18376
8.85059
10.2888
8.66333
10.9059
15.7794
19.2558
20.3052
23.6362
29.4323
36.4009
44.2416
53.8153
65.5597
80.5032
98.152
122.739
151.867
201.124
254.624
345.553
404.103
8.184
8.84974
10.2862
8.66785
10.9057
15.7764
19.2513
20.3057
23.6346
29.4316
36.3945
44.2282
53.8185
65.5941
80.559
98.2278
122.851
151.788
200.727
253.402
343.716
399.723
8.18425
8.84885
10.2835
8.67259
10.9054
15.7732
19.2465
20.3063
23.6328
29.4308
36.3875
44.2158
53.8322
65.6347
80.6186
98.295
122.902
151.618
200.223
252.055
341.735
395.009
8.1845
8.8479
10.2807
8.67753
10.9052
15.7698
19.2414
20.3069
23.631
29.4299
36.38
44.2069
53.8544
65.6782
80.6728
98.3356
122.866
151.354
199.629
250.587
339.61
389.947
8.18476
8.84692
10.2778
8.68267
10.905
15.7663
19.2361
20.3075
23.6292
29.4289
36.3721
44.2042
53.883
65.7183
80.7108
98.3354
122.735
151.015
198.967
249.007
337.341
384.524
8.18503
8.84587
10.2747
8.688
10.9049
15.7625
19.2306
20.3081
23.6273
29.4277
36.3638
44.209
53.9131
65.7517
80.7251
98.2869
122.523
150.627
198.254
247.324
334.929
378.727
8.18531
8.84479
10.2716
8.69351
10.9047
15.7586
19.2249
20.3088
23.6254
29.4263
36.3556
44.2209
53.9427
65.7727
80.7101
98.1916
122.255
150.218
197.504
245.547
332.379
372.54
8.18559
8.84366
10.2683
8.6992
10.9046
15.7545
19.2189
20.3094
23.6234
29.4247
36.3485
44.2379
53.9675
65.7802
80.6664
98.0579
121.961
149.8
196.723
243.686
329.692
365.949
8.18587
8.84249
10.265
8.70507
10.9045
15.7502
19.2127
20.3101
23.6214
29.4228
36.3438
44.2572
53.9874
65.7709
80.5967
97.8989
121.664
149.379
195.915
241.75
326.874
358.935
8.18616
8.84127
10.2616
8.71109
10.9044
15.7457
19.2064
20.3107
23.6193
29.4207
36.3425
44.2763
53.9991
65.7474
80.5084
97.727
121.377
148.955
195.08
239.747
323.928
351.481
8.18646
8.84002
10.258
8.71727
10.9044
15.7411
19.1998
20.3114
23.6172
29.4185
36.3448
44.2931
54.0043
65.7095
80.4075
97.5524
121.104
148.524
194.218
237.688
320.858
343.567
8.18675
8.83872
10.2545
8.72361
10.9044
15.7362
19.193
20.312
23.615
29.4162
36.3497
44.3066
54.0005
65.6621
80.301
97.3807
120.843
148.083
193.329
235.58
317.667
335.171
8.18705
8.83739
10.2507
8.73009
10.9044
15.7312
19.1861
20.3126
23.6127
29.4139
36.3559
44.3162
53.9908
65.6062
80.1923
97.2146
120.588
147.631
192.411
233.429
314.356
326.27
8.18735
8.83601
10.247
8.7367
10.9044
15.726
19.1789
20.3132
23.6105
29.4113
36.3617
44.3216
53.9735
65.5463
80.0851
97.0538
120.337
147.167
191.462
231.239
310.922
316.837
8.18765
8.8346
10.2431
8.74345
10.9045
15.7206
19.1716
20.3138
23.6081
29.4084
36.3664
44.3227
53.9521
65.4828
79.9796
96.8974
120.085
146.69
190.483
229.013
307.364
306.845
8.18795
8.83314
10.2393
8.75033
10.9046
15.715
19.1641
20.3143
23.6057
29.4053
36.3691
44.3197
53.9253
65.4189
79.8767
96.7436
119.831
146.2
189.472
226.75
303.673
296.265
8.18825
8.83166
10.2353
8.75732
10.9048
15.7093
19.1565
20.3148
23.6032
29.4021
36.3694
44.3127
53.8963
65.3539
79.7755
96.5912
119.574
145.698
188.428
224.451
299.842
285.063
8.18855
8.83014
10.2312
8.76443
10.9049
15.7034
19.1487
20.3153
23.6006
29.3989
36.3669
44.3023
53.8637
65.29
79.676
96.4388
119.312
145.182
187.351
222.113
295.861
273.206
8.18885
8.82858
10.2271
8.77166
10.9052
15.6973
19.1407
20.3156
23.5979
29.3957
36.3615
44.2888
53.8304
65.2256
79.5769
96.2857
119.045
144.654
186.239
219.736
291.717
260.658
8.18914
8.82699
10.223
8.77899
10.9054
15.6911
19.1326
20.316
23.595
29.3926
36.3533
44.2727
53.7947
65.1626
79.4785
96.1312
118.773
144.113
185.092
217.322
287.401
247.381
8.18943
8.82537
10.2187
8.78643
10.9057
15.6846
19.1244
20.3163
23.5921
29.3896
36.3428
44.2544
53.7591
65.0989
79.3796
95.975
118.496
143.56
183.911
214.871
282.902
233.334
8.18972
8.82371
10.2145
8.79396
10.906
15.678
19.116
20.3166
23.5897
29.3867
36.3304
44.2344
53.7217
65.0365
79.2805
95.8168
118.215
142.995
182.695
212.387
278.211
218.475
8.19001
8.82203
10.2101
8.80159
10.9064
15.6712
19.1074
20.3167
23.5887
29.3832
36.3166
44.2129
53.6846
64.9733
79.1804
95.6567
117.929
142.418
181.445
209.874
273.322
202.758
8.19029
8.82031
10.2058
8.8093
10.9068
15.6643
19.0988
20.3167
23.5899
29.3793
36.3019
44.1901
53.6457
64.9111
79.0798
95.4947
117.64
141.83
180.162
207.337
268.233
186.137
8.19056
8.81856
10.2013
8.8171
10.9072
15.6572
19.09
20.3166
23.5937
29.3755
36.2865
44.1663
53.6074
64.848
78.9779
95.3311
117.348
141.232
178.85
204.779
262.944
168.562
8.19083
8.81676
10.1969
8.82501
10.9076
15.6498
19.0811
20.3166
23.6002
29.372
36.2704
44.1416
53.5671
64.7862
78.8755
95.1657
117.053
140.623
177.509
202.204
257.458
149.991
8.1911
8.81495
10.1923
8.83304
10.9083
15.6423
19.072
20.3167
23.6093
29.3684
36.2534
44.1165
53.5275
64.723
78.7712
94.9988
116.757
140.003
176.145
199.61
251.752
130.34
8.19136
8.81314
10.1877
8.8409
10.9091
15.6347
19.0629
20.318
23.6206
29.3644
36.2368
44.0927
53.4864
64.6607
78.6664
94.831
116.461
139.371
174.761
196.99
245.746
108.928
-24.467
-33.1058
-73.1822
-81.191
-39.8738
-14.1338
-11.7291
-3.94055
16.1946
39.5328
51.1056
50.7735
47.2996
40.0404
34.057
27.6694
21.6184
16.7452
12.8154
9.30508
5.16522
1.10019
-2.97503
0.615381
5.34628
9.41572
8.14347
6.5735
4.88944
4.04889
3.05682
2.58032
1.90949
1.00983
0.788025
-24.4658
-33.1057
-73.3303
-81.2759
-39.8796
-14.117
-11.7127
-3.92407
16.2037
39.5273
51.0993
50.7607
47.285
40.0338
34.0635
27.686
21.6339
16.7544
12.8188
9.30625
5.16657
1.10346
-2.97717
0.60098
5.32716
9.40995
8.143
6.57352
4.88942
4.04888
3.05676
2.58027
1.90947
1.0098
0.787989
-24.4723
-33.114
-73.5885
-81.4343
-39.8901
-14.0907
-11.7
-3.92158
16.1997
39.5147
51.092
50.7495
47.2755
40.0421
34.0888
27.7214
21.6686
16.7805
12.8326
9.31125
5.16865
1.10589
-2.9839
0.5821
5.3079
9.40448
8.14261
6.57356
4.88939
4.04887
3.05671
2.58022
1.90945
1.00978
0.787951
-24.4853
-33.1833
-73.9847
-81.659
-39.9141
-14.0557
-11.6859
-3.92161
16.1967
39.508
51.0922
50.7425
47.2703
40.0613
34.1258
27.7673
21.7157
16.8199
12.8564
9.32015
5.17123
1.10784
-2.99306
0.561927
5.2909
9.39956
8.14242
6.57371
4.8894
4.04891
3.05667
2.58019
1.90945
1.00977
0.787925
-24.5067
-33.3237
-74.496
-81.9344
-39.9556
-14.0171
-11.6726
-3.92674
16.1914
39.5048
51.1003
50.7414
47.2701
40.0842
34.1626
27.809
21.7593
16.859
12.8825
9.3305
5.17402
1.10941
-3.00346
0.540899
5.27671
9.39543
8.14244
6.57393
4.88942
4.04899
3.05666
2.58018
1.90945
1.00977
0.787906
-24.5374
-33.5405
-75.084
-82.247
-40.0125
-13.9798
-11.6646
-3.94261
16.174
39.4925
51.1034
50.7412
47.2734
40.1077
34.1958
27.8428
21.7935
16.891
12.9057
9.34046
5.1768
1.11076
-3.01408
0.519643
5.26508
9.39207
8.14264
6.57421
4.88946
4.04908
3.05666
2.58018
1.90946
1.00977
0.787892
-24.5774
-33.8352
-75.7101
-82.5845
-40.0809
-13.9453
-11.6617
-3.96884
16.1414
39.4641
51.0902
50.7324
47.2744
40.1298
34.2259
27.8708
21.8199
16.9155
12.9246
9.34936
5.17958
1.1121
-3.02423
0.498871
5.25562
9.38939
8.143
6.57453
4.88949
4.04919
3.05667
2.58019
1.90947
1.00978
0.787881
-24.6261
-34.2039
-76.3416
-82.9358
-40.1574
-13.9143
-11.662
-4.00073
16.0972
39.4211
51.0575
50.7094
47.2657
40.1457
34.2513
27.8949
21.8414
16.9346
12.9399
9.35739
5.18257
1.11369
-3.03347
0.479135
5.24797
9.38728
8.14347
6.57485
4.88949
4.04929
3.05667
2.58019
1.90947
1.00978
0.787874
-24.6832
-34.6362
-76.9563
-83.2913
-40.2397
-13.8881
-11.6642
-4.03424
16.0459
39.368
51.009
50.6723
47.2435
40.1497
34.268
27.9145
21.8596
16.9508
12.9531
9.36529
5.18614
1.11581
-3.04153
0.460735
5.24178
9.38563
8.14404
6.57517
4.88945
4.04938
3.05665
2.58019
1.90948
1.00978
0.787867
-24.7478
-35.1176
-77.5422
-83.6428
-40.3266
-13.8686
-11.6682
-4.06719
15.991
39.3082
50.9488
50.6242
47.208
40.1396
34.2723
27.9271
21.8744
16.9649
12.9655
9.37386
5.19073
1.11886
-3.04814
0.443815
5.23679
9.38433
8.14466
6.57544
4.88936
4.04944
3.05662
2.58018
1.90947
1.00977
0.787862
-24.8194
-35.6316
-78.0947
-83.9826
-40.4179
-13.8574
-11.6744
-4.09949
15.9339
39.2424
50.8791
50.5678
47.1621
40.1169
34.2634
27.931
21.8847
16.977
12.9776
9.38371
5.19683
1.12328
-3.05298
0.428419
5.23272
9.38329
8.14531
6.57567
4.8892
4.04945
3.05656
2.58015
1.90945
1.00976
0.787854
-24.8969
-36.1613
-78.6126
-84.3042
-40.5134
-13.8554
-11.6829
-4.13144
15.8761
39.171
50.8005
50.5041
47.1082
40.0849
34.2433
27.9259
21.8895
16.9863
12.9891
9.39484
5.20477
1.1296
-3.0556
0.414604
5.22943
9.38244
8.14596
6.57583
4.88897
4.04941
3.05646
2.5801
1.90942
1.00972
0.787845
-24.9793
-36.6911
-79.0956
-84.6021
-40.6133
-13.8627
-11.6944
-4.16338
15.8182
39.0933
50.7127
50.4333
47.0475
40.0464
34.2152
27.9132
21.889
16.9921
12.9988
9.40663
5.21466
1.13837
-3.05543
0.402461
5.22679
9.38173
8.14661
6.57592
4.88864
4.0493
3.05632
2.58001
1.90937
1.00967
0.787833
-25.0654
-37.2069
-79.5421
-84.872
-40.7172
-13.8791
-11.7099
-4.19441
15.7608
39.0091
50.6151
50.3547
46.9803
40.0029
34.1817
27.8951
21.8839
16.9944
13.0061
9.41791
5.22611
1.15004
-3.05172
0.392197
5.22481
9.38114
8.14723
6.57591
4.88822
4.04912
3.05613
2.5799
1.90929
1.00959
0.787817
-25.1538
-37.6969
-79.9488
-85.1099
-40.8237
-13.9045
-11.7314
-4.22393
15.7034
38.9177
50.5072
50.2678
46.9066
39.9554
34.1448
27.8734
21.8756
16.9936
13.0105
9.42747
5.23833
1.16484
-3.04357
0.384124
5.22351
9.38067
8.14784
6.57582
4.8877
4.04885
3.05588
2.57974
1.90918
1.0095
0.787796
-25.2431
-38.1512
-80.3106
-85.3128
-40.9281
-13.9414
-11.7597
-4.25166
15.6464
38.819
50.3887
50.1723
46.826
39.9038
34.1052
27.8496
21.8652
16.9907
13.0123
9.4345
5.25019
1.18263
-3.03004
0.378719
5.22305
9.38034
8.14842
6.57563
4.88709
4.0485
3.05557
2.57954
1.90905
1.00937
0.787772
-25.3318
-38.5628
-80.6208
-85.4788
-41.024
-13.9943
-11.7953
-4.27828
15.5887
38.7121
50.259
50.0677
46.7386
39.8482
34.0636
27.8245
21.8539
16.9863
13.0121
9.43886
5.26064
1.20279
-3.01029
0.376575
5.22356
9.38019
8.14899
6.57536
4.88637
4.04806
3.0552
2.57929
1.90889
1.00921
0.787742
-25.4185
-38.9275
-80.8733
-85.6091
-41.1066
-14.0657
-11.8384
-4.30426
15.5299
38.5964
50.1177
49.9536
46.644
39.7884
34.0198
27.7983
21.842
16.9813
13.0104
9.44094
5.269
1.22434
-2.9838
0.378432
5.22528
9.38026
8.14956
6.57499
4.88555
4.04752
3.05477
2.579
1.9087
1.00903
0.787708
-25.5018
-39.2439
-81.0632
-85.7075
-41.1745
-14.1559
-11.8894
-4.33139
15.468
38.4706
49.9637
49.8298
46.5424
39.7244
33.9739
27.7713
21.8299
16.9759
13.0079
9.44132
5.27523
1.24619
-2.9506
0.385076
5.22842
9.38061
8.15015
6.57455
4.88464
4.04689
3.05427
2.57865
1.90847
1.00881
0.78767
-25.5804
-39.5131
-81.1883
-85.7775
-41.2288
-14.2628
-11.9489
-4.36149
15.4014
38.3334
49.7963
49.6954
46.4334
39.6561
33.9257
27.7433
21.8174
16.9705
13.0049
9.44052
5.27966
1.26746
-2.91141
0.397313
5.23327
9.38129
8.15074
6.57401
4.88363
4.04615
3.0537
2.57825
1.90822
1.00855
0.787629
-25.6534
-39.7365
-81.2504
-85.8175
-41.2712
-14.3842
-12.018
-4.39806
15.3265
38.1824
49.614
49.5502
46.3172
39.5837
33.8753
27.7142
21.8046
16.9649
13.0017
9.43891
5.28276
1.28775
-2.86762
0.415807
5.24004
9.38236
8.15137
6.57339
4.88252
4.04532
3.05305
2.5778
1.90793
1.00826
0.787585
-25.7193
-39.9149
-81.2563
-85.8217
-41.3016
-14.517
-12.098
-4.44457
15.2406
38.016
49.4158
49.3934
46.1935
39.5069
33.8227
27.684
21.7914
16.9592
12.9983
9.43675
5.28488
1.30711
-2.82102
0.440997
5.24904
9.38384
8.15203
6.57268
4.88132
4.04439
3.05234
2.57728
1.9076
1.00793
0.787539
-25.7764
-40.0488
-81.2094
-85.7855
-41.3184
-14.6578
-12.1909
-4.50649
15.1384
37.8313
49.2001
49.2245
46.0622
39.4259
33.7678
27.6526
21.7776
16.9533
12.9948
9.43422
5.28625
1.32588
-2.7734
0.472892
5.26049
9.38583
8.15274
6.5719
4.88003
4.04335
3.05156
2.57671
1.90724
1.00756
0.787492
-25.8232
-40.1408
-81.1086
-85.708
-41.3192
-14.8025
-12.2986
-4.58902
15.0161
37.6267
48.9667
49.0431
45.9231
39.3406
33.7107
27.6201
21.7633
16.947
12.9912
9.43146
5.28696
1.34442
-2.72616
0.511017
5.27465
9.3883
8.15349
6.57102
4.87864
4.04222
3.0507
2.57607
1.90685
1.00715
0.787445
-25.8593
-40.1967
-80.9526
-85.5883
-41.3013
-14.9469
-12.4248
-4.69972
14.8674
37.3997
48.7154
48.85
45.7766
39.2511
33.6514
27.5866
21.7483
16.9403
12.9873
9.42856
5.28714
1.36296
-2.68007
0.554298
5.29172
9.39134
8.15429
6.57006
4.87716
4.04098
3.04977
2.57537
1.90642
1.00669
0.7874
-25.8849
-40.2224
-80.7484
-85.4271
-41.2611
-15.0861
-12.572
-4.84473
14.6886
37.1502
48.4483
48.6464
45.6236
39.1574
33.5897
27.5518
21.7327
16.9332
12.9831
9.42552
5.2869
1.38152
-2.63524
0.601163
5.31191
9.39494
8.15513
6.56898
4.87558
4.03964
3.04877
2.57461
1.90595
1.0062
0.787357
-25.9007
-40.2238
-80.5101
-85.2278
-41.1951
-15.2154
-12.7442
-5.03151
14.4744
36.8774
48.1678
48.4357
45.4666
39.0607
33.5258
27.5159
21.7165
16.9256
12.9786
9.42235
5.28642
1.40001
-2.59135
0.649635
5.33533
9.39916
8.15601
6.56781
4.8739
4.03819
3.04769
2.57378
1.90545
1.00566
0.787318
-25.9075
-40.2089
-80.2547
-84.9981
-41.0991
-15.3286
-12.9418
-5.26263
14.2248
36.5844
47.8789
48.2212
45.3081
38.9625
33.4597
27.4786
21.6996
16.9175
12.9736
9.41897
5.28581
1.41825
-2.54787
0.697625
5.36211
9.40399
8.15692
6.56651
4.87211
4.03664
3.04655
2.57289
1.90492
1.00507
0.787285
-25.9067
-40.1892
-79.9979
-84.7485
-40.969
-15.4202
-13.1642
-5.53908
13.9395
36.2738
47.586
48.0083
45.1523
38.866
33.3927
27.4403
21.682
16.9089
12.9682
9.41535
5.28518
1.43612
-2.50432
0.743143
5.3922
9.4095
8.15786
6.56509
4.87022
4.03499
3.04533
2.57192
1.90435
1.00443
0.787259
-25.8998
-40.1784
-79.7531
-84.4911
-40.8016
-15.4835
-13.404
-5.85266
13.6271
35.953
47.2954
47.8005
45.0017
38.7735
33.326
27.401
21.6637
16.8998
12.9623
9.41138
5.28454
1.45356
-2.46039
0.784595
5.4256
9.41569
8.15881
6.5635
4.8682
4.03324
3.04404
2.57089
1.90375
1.00374
0.787242
-25.889
-40.1917
-79.5328
-84.236
-40.5955
-15.5139
-13.6523
-6.19221
13.2955
35.6275
47.0113
47.6024
44.8594
38.688
33.262
27.3618
21.6449
16.8902
12.9559
9.40706
5.28389
1.47063
-2.41598
0.820878
5.46208
9.42264
8.15978
6.56177
4.86606
4.03138
3.04268
2.56979
1.90311
1.00301
0.787234
-25.8768
-40.2442
-79.3513
-83.9901
-40.3522
-15.5064
-13.8927
-6.53635
12.9618
35.3073
46.7387
47.4153
44.7258
38.6099
33.2018
27.3232
21.6258
16.8802
12.949
9.40231
5.28315
1.4874
-2.37119
0.851485
5.50146
9.43036
8.16074
6.55985
4.86379
4.02942
3.04125
2.56861
1.90244
1.00221
0.787239
-25.8668
-40.3499
-79.2223
-83.7554
-40.0766
-15.4599
-14.1099
-6.86404
12.6393
34.998
46.4791
47.241
44.6016
38.54
33.1468
27.2864
21.6069
16.8701
12.9418
9.39716
5.28226
1.50396
-2.32625
0.876379
5.54338
9.43899
8.16172
6.55775
4.86138
4.02735
3.03976
2.56737
1.90173
1.00136
0.787256
-25.8629
-40.5206
-79.1553
-83.5292
-39.7769
-15.3742
-14.2854
-7.14914
12.3469
34.7078
46.2338
47.0773
44.4845
38.4762
33.0962
27.2514
21.5884
16.8598
12.9344
9.39161
5.28113
1.52035
-2.28153
0.895927
5.58761
9.44853
8.1627
6.55542
4.85882
4.02519
3.03819
2.56605
1.90099
1.00045
0.787289
-25.8689
-40.7661
-79.1508
-83.3051
-39.4638
-15.2553
-14.4076
-7.3742
12.0938
34.4374
46.0002
46.9228
44.3729
38.4171
33.0495
27.2187
21.5706
16.8497
12.927
9.38581
5.27974
1.53654
-2.23749
0.910681
5.63386
9.45916
8.16372
6.55289
4.85611
4.02292
3.03656
2.56465
1.9002
0.999477
0.787337
-25.8862
-41.0948
-79.1982
-83.0766
-39.1488
-15.1117
-14.4683
-7.52572
11.89
34.1892
45.7755
46.7726
44.2631
38.3594
33.0044
27.1873
21.5534
16.8398
12.9198
9.37988
5.27802
1.55243
-2.19465
0.92131
5.68207
9.47092
8.16475
6.5501
4.85324
4.02056
3.03485
2.56318
1.89938
0.998433
0.787403
-25.9138
-41.5121
-79.2787
-82.8384
-38.8436
-14.9581
-14.471
-7.60589
11.732
33.9575
45.5542
46.6237
44.1526
38.3012
32.96
27.1569
21.5367
16.8302
12.9129
9.37407
5.27605
1.56789
-2.1536
0.928424
5.7322
9.48402
8.16585
6.54707
4.85019
4.01809
3.03307
2.56162
1.89851
0.997313
0.787487
-25.9469
-42.016
-79.3669
-82.5867
-38.5586
-14.8104
-14.4253
-7.62343
11.6168
33.7396
45.3324
46.4713
44.0383
38.2396
32.914
27.1262
21.5201
16.8207
12.9064
9.36853
5.2739
1.58272
-2.11502
0.932609
5.78457
9.49856
8.16701
6.54376
4.84695
4.01552
3.03122
2.55998
1.8976
0.996109
0.787592
-25.9781
-42.5869
-79.4301
-82.319
-38.3055
-14.6865
-14.3499
-7.59671
11.5327
33.5275
45.1053
46.3132
43.9186
38.1737
32.8656
27.0947
21.5034
16.8112
12.9001
9.36342
5.27174
1.59677
-2.07964
0.934406
5.83955
9.51476
8.16828
6.54016
4.84351
4.01284
3.02928
2.55824
1.89663
0.994814
0.787718
-25.9967
-43.1733
-79.4278
-82.0342
-38.0979
-14.5996
-14.2619
-7.53869
11.4733
33.3181
44.8706
46.1463
43.7917
38.1017
32.8135
27.0616
21.486
16.8016
12.8941
9.35871
5.26965
1.60988
-2.04812
0.934484
5.89775
9.53271
8.16965
6.53624
4.83985
4.01004
3.02726
2.55639
1.8956
0.993415
0.78787
-25.9912
-43.6813
-79.314
-81.7343
-37.948
-14.5534
-14.1722
-7.45838
11.4284
33.1036
44.6247
45.9695
43.657
38.0234
32.7575
27.0265
21.4678
16.7918
12.8881
9.35441
5.26784
1.6222
-2.02086
0.933155
5.95897
9.55239
8.17115
6.53199
4.83596
4.00711
3.02513
2.55442
1.89451
0.991901
0.788045
-25.9542
-43.9799
-79.0453
-81.424
-37.8524
-14.5345
-14.0787
-7.36021
11.3869
32.8773
44.3648
45.7801
43.5132
37.9381
32.6971
26.9893
21.4486
16.7817
12.8822
9.35051
5.2667
1.63448
-1.99827
0.928952
6.02134
9.57316
8.17267
6.52735
4.83183
4.00405
3.02289
2.55232
1.89334
0.990262
0.788243
-25.8849
-43.9345
-78.6008
-81.1038
-37.781
-14.5207
-13.9822
-7.26741
11.3205
32.626
44.0886
45.5795
43.363
37.8482
32.6345
26.9512
21.4291
16.7717
12.8768
9.34745
5.26727
1.64778
-1.98228
0.918304
6.08327
9.59533
8.1743
6.52234
4.82745
4.00084
3.02051
2.55006
1.8921
0.988487
0.788458
-25.8369
-43.4845
-78.0053
-80.7692
-37.6928
-14.5096
-13.9041
-7.21615
11.2071
32.3522
43.8073
45.3783
43.2151
37.76
32.5737
26.9143
21.4103
16.7621
12.8716
9.34484
5.26869
1.6585
-1.98074
0.905787
6.16502
9.62719
8.17704
6.51665
4.82262
3.99742
3.01802
2.54767
1.89078
0.986536
0.78875
8.19156
8.81172
10.1845
8.84645
10.9097
15.6288
19.0562
20.3228
23.6304
29.3593
36.2274
44.0817
53.4588
64.6069
78.5814
94.7015
116.234
138.868
173.669
194.902
240.769
87.4834
8.1917
8.81066
10.1824
8.8503
10.9102
15.6244
19.0514
20.3301
23.637
29.3531
36.2245
44.0814
53.4411
64.5653
78.518
94.6082
116.071
138.497
172.868
193.371
236.949
84.7419
8.19185
8.80955
10.1798
8.85442
10.9108
15.6198
19.0462
20.3381
23.6415
29.3451
36.2218
44.0823
53.4255
64.5204
78.4512
94.5101
115.898
138.108
172.048
191.79
232.985
86.5931
8.19201
8.80836
10.1772
8.85895
10.9116
15.6149
19.0406
20.3474
23.6446
29.3358
36.2181
44.082
53.4075
64.4761
78.3824
94.4046
115.711
137.699
171.209
190.159
228.925
86.7021
8.19218
8.80709
10.1743
8.8639
10.9124
15.6095
19.0347
20.356
23.6466
29.3256
36.2133
44.0801
53.3902
64.4289
78.3094
94.2915
115.509
137.27
170.345
188.475
224.756
85.1457
8.19235
8.80574
10.1713
8.8692
10.9131
15.6036
19.0287
20.3644
23.6479
29.3149
36.2081
44.0768
53.3701
64.3818
78.2338
94.1699
115.291
136.817
169.452
186.739
220.473
83.3249
8.19253
8.80431
10.1681
8.87487
10.914
15.5974
19.0225
20.3695
23.6483
29.3038
36.2026
44.0722
53.3502
64.3312
78.1531
94.0393
115.054
136.341
168.523
184.951
216.082
81.6351
8.19271
8.80279
10.1648
8.88092
10.9148
15.5908
19.0161
20.3733
23.6481
29.2925
36.1969
44.0664
53.3274
64.2798
78.0686
93.8987
114.797
135.84
167.553
183.111
211.589
79.9151
8.1929
8.80119
10.1612
8.88739
10.9158
15.5837
19.0091
20.3741
23.647
29.2809
36.1912
44.0596
53.3047
64.2243
77.9778
93.7473
114.518
135.313
166.537
181.22
206.997
78.0682
8.19309
8.79948
10.1575
8.89428
10.9167
15.5761
19.0019
20.3745
23.6454
29.2692
36.1854
44.0518
53.279
64.1674
77.8821
93.5844
114.216
134.758
165.47
179.276
202.312
76.1241
8.19329
8.7977
10.1535
8.90161
10.9178
15.5681
18.9943
20.3728
23.6428
29.2572
36.1794
44.0429
53.2531
64.1059
77.7791
93.4094
113.89
134.173
164.348
177.278
197.539
74.123
8.19348
8.7958
10.1493
8.90938
10.9189
15.5595
18.9864
20.3709
23.6394
29.2449
36.1734
44.0332
53.2241
64.0424
77.6702
93.2217
113.539
133.557
163.164
175.225
192.683
72.0759
8.19368
8.79381
10.1449
8.91762
10.92
15.5505
18.978
20.3675
23.6346
29.2321
36.1671
44.0225
53.1946
63.974
77.5532
93.0208
113.163
132.908
161.917
173.115
187.748
69.9841
8.19388
8.79171
10.1403
8.92633
10.9212
15.5408
18.969
20.3643
23.6284
29.2188
36.1606
44.011
53.1618
63.903
77.4292
92.8059
112.761
132.225
160.601
170.946
182.739
67.8553
8.19408
8.78951
10.1354
8.93553
10.9225
15.5307
18.9593
20.3603
23.6202
29.2045
36.1535
43.9985
53.1281
63.8266
77.2964
92.5768
112.333
131.505
159.215
168.717
177.662
65.7038
8.19427
8.78719
10.1303
8.94523
10.9239
15.5199
18.9488
20.357
23.61
29.1892
36.1459
43.9851
53.0911
63.7471
77.1559
92.3328
111.878
130.748
157.757
166.426
172.52
63.5455
8.19447
8.78477
10.1248
8.95544
10.9253
15.5085
18.9374
20.3537
23.5971
29.1722
36.1372
43.9707
53.053
63.662
77.0059
92.0735
111.397
129.952
156.224
164.072
167.317
61.3954
8.19466
8.78221
10.1192
8.96618
10.9268
15.4965
18.9252
20.3514
23.5818
29.1531
36.127
43.9553
53.0114
63.5732
76.8474
91.7983
110.888
129.116
154.615
161.653
162.056
59.2685
8.19484
8.77955
10.1132
8.97746
10.9284
15.4838
18.9122
20.3496
23.5639
29.1312
36.1147
43.9386
52.9686
63.4785
76.6788
91.5069
110.351
128.239
152.931
159.167
156.74
57.1782
8.19501
8.77675
10.107
8.98928
10.93
15.4704
18.8985
20.3488
23.5441
29.1061
36.0994
43.9204
52.9222
63.3797
76.5011
91.1988
109.785
127.32
151.169
156.614
151.374
55.1354
8.19518
8.77384
10.1004
9.00167
10.9318
15.4564
18.884
20.3483
23.5229
29.077
36.0799
43.9001
52.8744
63.2745
76.3126
90.8736
109.191
126.357
149.331
153.992
145.96
53.1468
8.19532
8.77078
10.0935
9.01462
10.9335
15.4416
18.8687
20.3481
23.5018
29.0439
36.0548
43.8767
52.8227
63.1651
76.1142
90.5306
108.566
125.349
147.416
151.299
140.502
51.2138
8.19546
8.76761
10.0863
9.02815
10.9355
15.4261
18.8525
20.3477
23.4816
29.0067
36.0226
43.8489
52.7689
63.0488
75.9043
90.1696
107.91
124.295
145.423
148.535
135.008
49.3324
8.19558
8.76428
10.0788
9.04226
10.9374
15.4098
18.8356
20.3471
23.4635
28.966
35.9819
43.8145
52.7098
62.9277
75.6837
89.7896
107.223
123.194
143.353
145.697
129.482
47.4929
8.19568
8.76082
10.0708
9.05696
10.9395
15.3927
18.8177
20.3461
23.4474
28.9228
35.9317
43.7707
52.6463
62.7992
75.4507
89.3903
106.502
122.044
141.207
142.784
123.933
45.6795
8.19575
8.7572
10.0626
9.07225
10.9416
15.3748
18.7989
20.3447
23.4333
28.878
35.8721
43.7141
52.5738
62.6648
75.2061
88.9707
105.746
120.843
138.982
139.794
118.371
43.8716
8.1958
8.75345
10.0539
9.08815
10.9439
15.3561
18.7791
20.3428
23.4204
28.8326
35.8041
43.6414
52.4905
62.521
74.948
88.5302
104.955
119.59
136.681
136.725
112.806
42.0447
8.19581
8.74952
10.045
9.10464
10.9462
15.3364
18.7584
20.3405
23.4081
28.7875
35.7298
43.5505
52.3888
62.3676
74.6766
88.0679
104.127
118.282
134.301
133.576
107.251
40.1716
8.1958
8.74546
10.0355
9.12173
10.9487
15.316
18.7365
20.3378
23.3955
28.7433
35.6514
43.4414
52.2644
62.1984
74.3891
87.5828
103.259
116.918
131.842
130.344
101.719
38.2238
8.19574
8.74122
10.0257
9.13942
10.9512
15.2945
18.7136
20.3346
23.3821
28.7005
35.5709
43.3168
52.1096
62.0091
74.084
87.0736
102.351
115.494
129.303
127.027
96.2236
36.1736
8.19565
8.73682
10.0154
9.15771
10.9539
15.2722
18.6896
20.3308
23.3676
28.6588
35.4894
43.1817
51.9232
61.7893
73.7554
86.5385
101.402
114.008
126.683
123.624
90.7801
33.995
8.1955
8.73224
10.0048
9.17659
10.9566
15.2488
18.6644
20.3265
23.3521
28.6175
35.4072
43.0412
51.7062
61.5318
73.3967
85.9744
100.408
112.457
123.981
120.133
85.4028
31.666
8.1953
8.72751
9.9936
9.19606
10.9594
15.2245
18.6379
20.3214
23.3355
28.5755
35.3239
42.8995
51.4672
61.2288
72.9963
85.3766
99.3682
110.839
121.195
116.554
80.1057
29.169
8.19504
8.72257
9.98207
9.21609
10.9623
15.1991
18.6102
20.3156
23.3178
28.5322
35.2389
42.7583
51.2155
60.8817
72.5436
84.7376
98.2792
109.15
118.324
112.886
74.902
26.4929
8.19471
8.71747
9.96995
9.23668
10.9653
15.1727
18.5811
20.3089
23.2989
28.4868
35.1517
42.6168
50.9612
60.4972
72.0286
84.0475
97.1367
107.389
115.368
109.13
69.8031
23.6335
8.19431
8.71216
9.95748
9.25781
10.9684
15.1452
18.5507
20.3013
23.2787
28.439
35.0615
42.473
50.7093
60.0895
71.4505
83.2951
95.9346
105.553
112.327
105.286
64.8187
20.5946
8.19384
8.70667
9.94438
9.27945
10.9715
15.1166
18.5188
20.2927
23.2571
28.3883
34.9674
42.3243
50.4611
59.6719
70.8167
82.4715
94.6658
103.64
109.2
101.357
59.9565
17.388
8.19327
8.70096
9.93091
9.3016
10.9747
15.0868
18.4855
20.2829
23.2341
28.3344
34.8689
42.1689
50.2132
59.2544
70.1443
81.5741
93.3232
101.647
105.992
97.3446
55.2221
14.0339
8.19262
8.69507
9.91679
9.3242
10.978
15.056
18.4505
20.2718
23.2094
28.2772
34.7652
42.0055
49.9608
58.8396
69.4508
80.6088
91.9024
99.5756
102.707
93.2551
50.62
10.5594
8.19185
8.68894
9.90228
9.34724
10.9812
15.024
18.414
20.2594
23.183
28.2163
34.6559
41.8331
49.6991
58.4245
68.7499
79.5889
90.4038
97.428
99.3555
89.0958
46.1545
6.99812
8.19097
8.68262
9.8871
9.37066
10.9847
14.9908
18.3757
20.2454
23.1546
28.1515
34.5405
41.6514
49.4251
58.002
68.0458
78.5298
88.8334
95.2103
95.9521
84.8789
41.8304
3.38779
8.18996
8.67605
9.87151
9.39444
10.988
14.9562
18.3356
20.2298
23.1243
28.0826
34.4187
41.4597
49.1368
57.5653
67.3345
77.4425
87.2012
92.9315
92.5176
80.6222
37.6552
-0.230928
8.18882
8.66926
9.85523
9.41851
10.9915
14.9205
18.2936
20.2124
23.0918
28.0093
34.2899
41.2573
48.8334
57.1086
66.6065
76.3304
85.5172
90.6006
89.0768
76.3508
33.6394
-3.81622
8.18752
8.66221
9.83853
9.44282
10.9949
14.8834
18.2497
20.193
23.057
27.9313
34.1538
41.0439
48.5137
56.6288
65.8519
75.1891
83.7884
88.222
85.6541
72.0965
29.7973
-7.32612
8.18607
8.65493
9.82112
9.46732
10.9985
14.845
18.2037
20.1715
23.0196
27.8484
34.0098
40.8187
48.177
56.1238
65.0633
74.0097
82.0165
85.7936
82.2658
67.8951
26.1469
-10.7195
8.18443
8.64737
9.80327
9.49193
11.002
14.8051
18.1556
20.1476
22.9795
27.7603
33.8575
40.5814
47.8217
55.5924
64.2371
72.7831
80.1975
83.3091
78.9128
63.7802
22.7077
-13.9563
8.18261
8.63956
9.7847
9.51658
11.0056
14.7638
18.1052
20.1213
22.9364
27.6667
33.6964
40.3311
47.4471
55.0332
63.372
71.5032
78.3234
80.7626
75.5788
59.7741
19.4964
-16.9992
8.18057
8.63145
9.76568
9.5412
11.0091
14.721
18.0524
20.0922
22.8901
27.5672
33.5261
40.0671
47.052
54.4452
62.4677
70.1679
76.386
78.1511
72.238
55.8792
16.5212
-19.8143
8.17831
8.62306
9.74592
9.56567
11.0127
14.6768
17.9971
20.0602
22.8403
27.4615
33.346
39.7887
46.6358
53.8271
61.5233
68.7775
74.3809
75.4732
68.8685
52.0766
13.7737
-22.3748
8.17581
8.61436
9.72572
9.58994
11.0161
14.6309
17.9393
20.0251
22.7869
27.3493
33.1554
39.4952
46.1974
53.1778
60.5377
67.3331
72.3088
72.7288
65.4611
48.3354
11.2251
-24.6639
8.17304
8.60534
9.70476
9.61388
11.0196
14.5835
17.8787
19.9865
22.7294
27.2302
32.9539
39.1858
45.7361
52.4961
59.5097
65.8355