/*--------------------------------*- C++ -*----------------------------------*\
| =========                 |                                                 |
| \\      /  F ield         | OpenFOAM: The Open Source CFD Toolbox           |
|  \\    /   O peration     | Version:  v1912                                 |
|   \\  /    A nd           | Website:  www.openfoam.com                      |
|    \\/     M anipulation  |                                                 |
\*---------------------------------------------------------------------------*/
FoamFile
{
    version     2.0;
    format      ascii;
    class       surfaceScalarField;
    location    "80";
    object      phi;
}
// * * * * * * * * * * * * * * * * * * * * * * * * * * * * * * * * * * * * * //

dimensions      [0 3 -1 0 0 0 0];
oriented        oriented;


internalField   nonuniform List<scalar> 
24588
(
6.8193e-05
-2.6738e-08
6.81011e-05
-1.98003e-08
6.81255e-05
1.4897e-07
6.79246e-05
1.98585e-07
6.77474e-05
1.13432e-07
6.75694e-05
7.14297e-08
6.73919e-05
2.7113e-07
6.70589e-05
3.89474e-07
6.66584e-05
3.61079e-07
6.62239e-05
4.27683e-07
6.57138e-05
5.15742e-07
6.50376e-05
7.10143e-07
6.39832e-05
9.60202e-07
6.29247e-05
1.15049e-06
6.1571e-05
1.31858e-06
5.95652e-05
2.02074e-06
5.70796e-05
2.48342e-06
5.30217e-05
4.0578e-06
4.70475e-05
5.97429e-06
3.62522e-05
1.07948e-05
2.1957e-05
1.42951e-05
2.1957e-05
6.82148e-05
-8.58411e-08
6.81381e-05
-9.46979e-08
6.80702e-05
4.56631e-07
6.78846e-05
3.78864e-07
6.77767e-05
1.3568e-07
6.76123e-05
1.00452e-07
6.7394e-05
6.10486e-07
6.70423e-05
8.09765e-07
6.66291e-05
7.26104e-07
6.62167e-05
8.32151e-07
6.57404e-05
9.99088e-07
6.5061e-05
1.42872e-06
6.39421e-05
1.97835e-06
6.29203e-05
2.26564e-06
6.15608e-05
2.64094e-06
5.96038e-05
3.9917e-06
5.70569e-05
5.02625e-06
5.29566e-05
8.15763e-06
4.70413e-05
1.18897e-05
3.61068e-05
2.17285e-05
2.18641e-05
2.85377e-05
4.38211e-05
6.82113e-05
-1.40322e-07
6.81385e-05
-1.665e-07
6.80768e-05
7.41631e-07
6.78889e-05
5.64844e-07
6.77745e-05
1.69209e-07
6.76095e-05
1.35719e-07
6.7395e-05
9.3831e-07
6.7045e-05
1.22661e-06
6.66317e-05
1.09222e-06
6.62185e-05
1.23736e-06
6.574e-05
1.48417e-06
6.50671e-05
2.14104e-06
6.39496e-05
2.98507e-06
6.29172e-05
3.40592e-06
6.15554e-05
3.96261e-06
5.96292e-05
5.93566e-06
5.70445e-05
7.60581e-06
5.29559e-05
1.22464e-05
4.69742e-05
1.78717e-05
3.60684e-05
3.26332e-05
2.18388e-05
4.27671e-05
6.566e-05
6.82135e-05
-1.98071e-07
6.81344e-05
-2.34295e-07
6.80642e-05
1.05453e-06
6.78796e-05
7.43311e-07
6.77714e-05
1.89606e-07
6.76054e-05
1.69329e-07
6.73864e-05
1.28008e-06
6.70371e-05
1.64229e-06
6.66249e-05
1.45561e-06
6.62118e-05
1.64282e-06
6.57329e-05
1.97026e-06
6.50521e-05
2.86099e-06
6.39413e-05
3.99723e-06
6.29167e-05
4.5206e-06
6.15541e-05
5.28953e-06
5.96497e-05
7.85359e-06
5.7064e-05
1.01866e-05
5.29573e-05
1.63527e-05
4.69245e-05
2.39047e-05
3.60485e-05
4.35082e-05
2.18326e-05
5.69829e-05
8.74926e-05
6.82086e-05
-2.48475e-07
6.81328e-05
-2.9539e-07
6.80703e-05
1.33813e-06
6.78837e-05
9.28391e-07
6.77673e-05
2.24302e-07
6.75995e-05
2.12698e-07
6.73846e-05
1.60799e-06
6.70373e-05
2.05374e-06
6.66253e-05
1.81946e-06
6.62115e-05
2.04885e-06
6.57307e-05
2.45755e-06
6.50584e-05
3.57195e-06
6.39485e-05
4.99415e-06
6.29134e-05
5.66353e-06
6.15494e-05
6.61266e-06
5.96549e-05
9.76592e-06
5.70877e-05
1.27484e-05
5.29471e-05
2.04937e-05
4.69192e-05
2.99329e-05
3.60554e-05
5.43709e-05
2.18463e-05
7.11918e-05
0.000109339
6.82126e-05
-3.04689e-07
6.81289e-05
-3.54331e-07
6.80543e-05
1.66152e-06
6.78717e-05
1.10402e-06
6.77644e-05
2.40057e-07
6.75961e-05
2.51258e-07
6.73749e-05
1.95502e-06
6.70276e-05
2.46547e-06
6.66167e-05
2.18038e-06
6.62032e-05
2.45502e-06
6.57225e-05
2.94563e-06
6.50392e-05
4.29372e-06
6.39357e-05
6.00326e-06
6.29105e-05
6.77361e-06
6.15456e-05
7.94372e-06
5.96541e-05
1.16702e-05
5.71083e-05
1.5289e-05
5.29456e-05
2.46559e-05
4.69336e-05
3.59448e-05
3.60877e-05
6.52159e-05
2.18804e-05
8.5399e-05
0.000131219
6.82064e-05
-3.51799e-07
6.81266e-05
-4.04366e-07
6.80609e-05
1.94972e-06
6.78755e-05
1.28875e-06
6.77582e-05
2.73291e-07
6.75876e-05
3.02429e-07
6.73715e-05
2.28507e-06
6.70266e-05
2.8723e-06
6.66158e-05
2.54172e-06
6.62016e-05
2.86169e-06
6.57196e-05
3.43414e-06
6.50468e-05
5.00384e-06
6.39404e-05
6.99748e-06
6.29019e-05
7.92242e-06
6.15369e-05
9.26716e-06
5.96419e-05
1.35831e-05
5.71268e-05
1.77995e-05
5.29472e-05
2.88361e-05
4.69586e-05
4.19339e-05
3.6145e-05
7.60285e-05
2.19351e-05
9.96088e-05
0.000153154
6.82118e-05
-4.06664e-07
6.81237e-05
-4.54829e-07
6.80444e-05
2.284e-06
6.7864e-05
1.46141e-06
6.77577e-05
2.8378e-07
6.75875e-05
3.45502e-07
6.73639e-05
2.63724e-06
6.70186e-05
3.28059e-06
6.66086e-05
2.9004e-06
6.61946e-05
3.26851e-06
6.57125e-05
3.92384e-06
6.50258e-05
5.72842e-06
6.39277e-05
8.00752e-06
6.2902e-05
9.02668e-06
6.15304e-05
1.06061e-05
5.96307e-05
1.54932e-05
5.71477e-05
2.02783e-05
5.29578e-05
3.30254e-05
4.69894e-05
4.7902e-05
3.62255e-05
8.67917e-05
2.20107e-05
0.000113824
0.000175165
6.82044e-05
-4.50666e-07
6.81216e-05
-4.95685e-07
6.80539e-05
2.57389e-06
6.787e-05
1.64494e-06
6.77517e-05
3.15986e-07
6.7579e-05
4.02998e-07
6.73621e-05
2.96813e-06
6.70194e-05
3.68332e-06
6.66097e-05
3.25938e-06
6.61949e-05
3.6759e-06
6.57116e-05
4.41366e-06
6.50396e-05
6.43605e-06
6.39382e-05
8.99403e-06
6.28889e-05
1.01848e-05
6.15089e-05
1.19498e-05
5.96192e-05
1.73962e-05
5.71322e-05
2.2763e-05
5.29712e-05
3.71872e-05
4.7013e-05
5.38607e-05
3.63251e-05
9.74789e-05
2.21076e-05
0.000128041
0.000197273
6.82108e-05
-5.03914e-07
6.8119e-05
-5.38318e-07
6.80362e-05
2.91599e-06
6.78582e-05
1.81416e-06
6.77528e-05
3.2187e-07
6.75811e-05
4.50115e-07
6.73558e-05
3.32366e-06
6.70123e-05
4.08828e-06
6.66032e-05
3.61636e-06
6.6189e-05
4.08313e-06
6.57062e-05
4.90407e-06
6.5014e-05
7.16519e-06
6.39197e-05
1.00104e-05
6.28782e-05
1.1295e-05
6.149e-05
1.3315e-05
5.96056e-05
1.9285e-05
5.70644e-05
2.53017e-05
5.29618e-05
4.1289e-05
4.7021e-05
5.98013e-05
3.64399e-05
0.000108059
2.22258e-05
0.000142255
0.000219499
6.82021e-05
-5.44458e-07
6.81166e-05
-5.69721e-07
6.80472e-05
3.20605e-06
6.78651e-05
1.9967e-06
6.77454e-05
3.53457e-07
6.7571e-05
5.14222e-07
6.73536e-05
3.65394e-06
6.70132e-05
4.48696e-06
6.66043e-05
3.97392e-06
6.61893e-05
4.49081e-06
6.5706e-05
5.39371e-06
6.5028e-05
7.87646e-06
6.39422e-05
1.09853e-05
6.28721e-05
1.24576e-05
6.1459e-05
1.47076e-05
5.95567e-05
2.11951e-05
5.6952e-05
2.79057e-05
5.2924e-05
4.5318e-05
4.70182e-05
6.57075e-05
3.65673e-05
0.00011851
2.23649e-05
0.000156457
0.000241863
6.82095e-05
-5.95628e-07
6.81146e-05
-6.04666e-07
6.80294e-05
3.55277e-06
6.7854e-05
2.16226e-06
6.77491e-05
3.55687e-07
6.75762e-05
5.65429e-07
6.73497e-05
4.01104e-06
6.70079e-05
4.88871e-06
6.65993e-05
4.33018e-06
6.61849e-05
4.89843e-06
6.57033e-05
5.88281e-06
6.49942e-05
8.61951e-06
6.39299e-05
1.19899e-05
6.28641e-05
1.35644e-05
6.14058e-05
1.61557e-05
5.94797e-05
2.31215e-05
5.6829e-05
3.0555e-05
5.28751e-05
4.92711e-05
4.70141e-05
7.15682e-05
3.67046e-05
0.000128819
2.25238e-05
0.000170638
0.000264387
6.81997e-05
-6.32358e-07
6.81127e-05
-6.28184e-07
6.80438e-05
3.83723e-06
6.78636e-05
2.34302e-06
6.7742e-05
3.88534e-07
6.75664e-05
6.35175e-07
6.73495e-05
4.33808e-06
6.70112e-05
5.28357e-06
6.66025e-05
4.68749e-06
6.61878e-05
5.30589e-06
6.5704e-05
6.37256e-06
6.49932e-05
9.35934e-06
6.39479e-05
1.2941e-05
6.28358e-05
1.47261e-05
6.13333e-05
1.76492e-05
5.93968e-05
2.50623e-05
5.67219e-05
3.32299e-05
5.28279e-05
5.3166e-05
4.70128e-05
7.73837e-05
3.68486e-05
0.000138983
2.2701e-05
0.000184786
0.000287088
6.82079e-05
-6.80973e-07
6.81106e-05
-6.55781e-07
6.80243e-05
4.18488e-06
6.7852e-05
2.50451e-06
6.7747e-05
3.88243e-07
6.75731e-05
6.90342e-07
6.73463e-05
4.69474e-06
6.70064e-05
5.68193e-06
6.65978e-05
5.04399e-06
6.6184e-05
5.713e-06
6.56977e-05
6.86611e-06
6.49513e-05
1.01328e-05
6.39301e-05
1.3938e-05
6.2787e-05
1.58793e-05
6.12613e-05
1.9172e-05
5.9324e-05
2.69983e-05
5.66379e-05
3.59153e-05
5.27859e-05
5.70172e-05
4.70138e-05
8.31556e-05
3.69961e-05
0.000149001
2.28941e-05
0.000198887
0.000309982
6.81969e-05
-7.13493e-07
6.81085e-05
-6.70631e-07
6.80402e-05
4.46306e-06
6.7862e-05
2.68386e-06
6.77382e-05
4.22699e-07
6.75614e-05
7.66478e-07
6.73454e-05
5.01761e-06
6.70093e-05
6.07279e-06
6.66003e-05
5.40204e-06
6.61872e-05
6.11893e-06
6.56966e-05
7.36231e-06
6.49293e-05
1.09205e-05
6.39196e-05
1.48956e-05
6.27331e-05
1.70904e-05
6.11987e-05
2.07025e-05
5.92635e-05
2.89364e-05
5.6572e-05
3.86071e-05
5.27482e-05
6.08416e-05
4.70155e-05
8.88887e-05
3.71445e-05
0.000158871
2.31012e-05
0.000212931
0.000333084
6.8206e-05
-7.59168e-07
6.81067e-05
-6.908e-07
6.802e-05
4.80937e-06
6.78508e-05
2.84122e-06
6.77454e-05
4.20693e-07
6.75708e-05
8.25812e-07
6.73438e-05
5.37268e-06
6.70058e-05
6.46784e-06
6.65964e-05
5.75988e-06
6.6184e-05
6.52494e-06
6.56869e-05
7.86602e-06
6.48985e-05
1.17259e-05
6.38898e-05
1.59066e-05
6.26846e-05
1.8294e-05
6.11472e-05
2.22393e-05
5.92132e-05
3.08689e-05
5.65181e-05
4.13016e-05
5.27131e-05
6.46461e-05
4.70163e-05
9.45852e-05
3.72922e-05
0.000168595
2.33203e-05
0.000226902
0.000356404
6.8194e-05
-7.87208e-07
6.81053e-05
-6.984e-07
6.80394e-05
5.07631e-06
6.78634e-05
3.01855e-06
6.77367e-05
4.58525e-07
6.75593e-05
9.0743e-07
6.73447e-05
5.68941e-06
6.70108e-05
6.85493e-06
6.66005e-05
6.12008e-06
6.61905e-05
6.92783e-06
6.56776e-05
8.38395e-06
6.48752e-05
1.25374e-05
6.38573e-05
1.68932e-05
6.26427e-05
1.95228e-05
6.11044e-05
2.37754e-05
5.91702e-05
3.28054e-05
5.64715e-05
4.40005e-05
5.26791e-05
6.84391e-05
4.70157e-05
0.000100249
3.74385e-05
0.000178172
2.35499e-05
0.000240791
0.000379954
6.8204e-05
-8.2964e-07
6.81031e-05
-7.1143e-07
6.80171e-05
5.41872e-06
6.78513e-05
3.17145e-06
6.77451e-05
4.55608e-07
6.757e-05
9.70732e-07
6.73435e-05
6.04155e-06
6.70076e-05
7.2463e-06
6.65967e-05
6.48035e-06
6.61896e-05
7.32873e-06
6.56572e-05
8.92233e-06
6.48456e-05
1.33559e-05
6.3823e-05
1.79259e-05
6.26076e-05
2.07334e-05
6.10679e-05
2.53152e-05
5.91321e-05
3.47398e-05
5.64291e-05
4.67031e-05
5.26456e-05
7.2222e-05
4.70137e-05
0.000105881
3.75837e-05
0.000187602
2.37889e-05
0.000254586
0.000403743
6.81911e-05
-8.5308e-07
6.81017e-05
-7.11069e-07
6.80379e-05
5.67531e-06
6.7864e-05
3.34715e-06
6.77345e-05
4.96608e-07
6.75563e-05
1.05839e-06
6.73433e-05
6.35193e-06
6.70119e-05
7.62916e-06
6.65998e-05
6.84347e-06
6.61967e-05
7.725e-06
6.5642e-05
9.48085e-06
6.4817e-05
1.4183e-05
6.37927e-05
1.89297e-05
6.25773e-05
2.19592e-05
6.10358e-05
2.68551e-05
5.90971e-05
3.66804e-05
5.63885e-05
4.9412e-05
5.2612e-05
7.5999e-05
4.7011e-05
0.000111482
3.77283e-05
0.000196885
2.40369e-05
0.000268277
0.00042778
6.82019e-05
-8.92093e-07
6.80995e-05
-7.16817e-07
6.80144e-05
6.01293e-06
6.78519e-05
3.49563e-06
6.77448e-05
4.93186e-07
6.75691e-05
1.12584e-06
6.73432e-05
6.70063e-06
6.70093e-05
8.01702e-06
6.6597e-05
7.20617e-06
6.61943e-05
8.12172e-06
6.56225e-05
1.0057e-05
6.47884e-05
1.50199e-05
6.37657e-05
1.99641e-05
6.25507e-05
2.31687e-05
6.10065e-05
2.83996e-05
5.90639e-05
3.86217e-05
5.63482e-05
5.21273e-05
5.2578e-05
7.97686e-05
4.70081e-05
0.000117052
3.78735e-05
0.000206019
2.42937e-05
0.000281857
0.000452073
6.81881e-05
-9.10855e-07
6.80989e-05
-7.09653e-07
6.80383e-05
6.25589e-06
6.78667e-05
3.66918e-06
6.7734e-05
5.38639e-07
6.75554e-05
1.21869e-06
6.73444e-05
7.00351e-06
6.70147e-05
8.39656e-06
6.66033e-05
7.56968e-06
6.61959e-05
8.52241e-06
6.56054e-05
1.06488e-05
6.47629e-05
1.58627e-05
6.37422e-05
2.09685e-05
6.25265e-05
2.4393e-05
6.0979e-05
2.9946e-05
5.90312e-05
4.05712e-05
5.63071e-05
5.48517e-05
5.25435e-05
8.35328e-05
4.70057e-05
0.00012259
3.80206e-05
0.000215004
2.45596e-05
0.000295318
0.000476633
6.81996e-05
-9.46297e-07
6.80961e-05
-7.08356e-07
6.80126e-05
6.58717e-06
6.78536e-05
3.81302e-06
6.77454e-05
5.35264e-07
6.75693e-05
1.29012e-06
6.73445e-05
7.3476e-06
6.70119e-05
8.78177e-06
6.66027e-05
7.93025e-06
6.61883e-05
8.93113e-06
6.5585e-05
1.12542e-05
6.47399e-05
1.67092e-05
6.37213e-05
2.19985e-05
6.25041e-05
2.56046e-05
6.09523e-05
3.14981e-05
5.89982e-05
4.2524e-05
5.62643e-05
5.75852e-05
5.25082e-05
8.72883e-05
4.70046e-05
0.000128093
3.81713e-05
0.000223838
2.48354e-05
0.000308654
0.000501468
6.81851e-05
-9.60426e-07
6.80956e-05
-6.93707e-07
6.80376e-05
6.81836e-06
6.78682e-05
3.9849e-06
6.77324e-05
5.846e-07
6.75532e-05
1.38882e-06
6.73444e-05
7.64289e-06
6.70159e-05
9.15861e-06
6.66091e-05
8.29055e-06
6.61848e-05
9.34897e-06
6.55668e-05
1.1872e-05
6.47198e-05
1.75561e-05
6.37023e-05
2.30021e-05
6.24826e-05
2.68319e-05
6.09257e-05
3.3054e-05
5.89638e-05
4.44874e-05
5.6219e-05
6.03303e-05
5.24722e-05
9.10356e-05
4.70051e-05
0.000133561
3.83272e-05
0.000232515
2.51219e-05
0.000321859
0.00052659
6.81973e-05
-9.92244e-07
6.80927e-05
-6.85277e-07
6.80108e-05
7.14299e-06
6.78552e-05
4.12423e-06
6.77457e-05
5.8153e-07
6.75692e-05
1.46435e-06
6.73456e-05
7.98199e-06
6.70135e-05
9.54191e-06
6.66085e-05
8.6482e-06
6.61774e-05
9.77476e-06
6.55498e-05
1.25005e-05
6.47016e-05
1.84053e-05
6.36847e-05
2.40299e-05
6.24615e-05
2.80496e-05
6.08984e-05
3.46175e-05
5.89274e-05
4.64571e-05
5.61707e-05
6.30866e-05
5.24353e-05
9.47705e-05
4.70077e-05
0.000138988
3.84901e-05
0.000241033
2.54202e-05
0.000334929
0.00055201
6.81821e-05
-1.00172e-06
6.80931e-05
-6.64336e-07
6.80388e-05
7.35936e-06
6.78715e-05
4.29404e-06
6.77323e-05
6.36192e-07
6.75529e-05
1.56791e-06
6.73466e-05
8.26847e-06
6.70191e-05
9.91631e-06
6.66162e-05
9.00553e-06
6.61753e-05
1.02096e-05
6.55348e-05
1.31406e-05
6.46854e-05
1.92544e-05
6.36681e-05
2.50349e-05
6.24404e-05
2.92842e-05
6.08698e-05
3.61872e-05
5.88882e-05
4.84403e-05
5.61194e-05
6.58558e-05
5.23974e-05
9.8493e-05
4.70125e-05
0.000144373
3.86617e-05
0.000249383
2.57318e-05
0.000347858
0.000577742
6.8195e-05
-1.02988e-06
6.80896e-05
-6.49076e-07
6.80097e-05
7.67634e-06
6.78577e-05
4.42863e-06
6.77469e-05
6.33791e-07
6.75701e-05
1.64717e-06
6.73479e-05
8.60194e-06
6.70168e-05
1.02976e-05
6.6615e-05
9.36136e-06
6.61699e-05
1.06504e-05
6.55209e-05
1.379e-05
6.46705e-05
2.01058e-05
6.3652e-05
2.60637e-05
6.24189e-05
3.0512e-05
6.08395e-05
3.77669e-05
5.88458e-05
5.04327e-05
5.60648e-05
6.86364e-05
5.23585e-05
0.000102199
4.70197e-05
0.000149712
3.88438e-05
0.000257559
2.6058e-05
0.000360644
0.0006038
6.81793e-05
-1.0349e-06
6.80903e-05
-6.21317e-07
6.80387e-05
7.88039e-06
6.78735e-05
4.59676e-06
6.77312e-05
6.92816e-07
6.75515e-05
1.75595e-06
6.73475e-05
8.88036e-06
6.7021e-05
1.06701e-05
6.66196e-05
9.71872e-06
6.61702e-05
1.10957e-05
6.55082e-05
1.44516e-05
6.46568e-05
2.0957e-05
6.36364e-05
2.70725e-05
6.23967e-05
3.17585e-05
6.0807e-05
3.93557e-05
5.87998e-05
5.24416e-05
5.6007e-05
7.14295e-05
5.23184e-05
0.000105888
4.70291e-05
0.000155002
3.9038e-05
0.00026555
2.64004e-05
0.000373282
0.000630201
6.81928e-05
-1.05948e-06
6.80864e-05
-5.99139e-07
6.80083e-05
8.1902e-06
6.78597e-05
4.72679e-06
6.77476e-05
6.90976e-07
6.75705e-05
1.83903e-06
6.73497e-05
9.20834e-06
6.70183e-05
1.10506e-05
6.66173e-05
1.00758e-05
6.61694e-05
1.15416e-05
6.54962e-05
1.51252e-05
6.46438e-05
2.18102e-05
6.36209e-05
2.81053e-05
6.23734e-05
3.30007e-05
6.0772e-05
4.09574e-05
5.87502e-05
5.4462e-05
5.59463e-05
7.4233e-05
5.22773e-05
0.000109556
4.70407e-05
0.000160238
3.92455e-05
0.000273345
2.67606e-05
0.000385767
0.000656961
6.81765e-05
-1.06016e-06
6.80881e-05
-5.65634e-07
6.80401e-05
8.37983e-06
6.78769e-05
4.89294e-06
6.77312e-05
7.55457e-07
6.75515e-05
1.95206e-06
6.73501e-05
9.47782e-06
6.70236e-05
1.14219e-05
6.66211e-05
1.04366e-05
6.61691e-05
1.19915e-05
6.54848e-05
1.58092e-05
6.46315e-05
2.26632e-05
6.36053e-05
2.91206e-05
6.23489e-05
3.42638e-05
6.07343e-05
4.25713e-05
5.86969e-05
5.6501e-05
5.58828e-05
7.70475e-05
5.22352e-05
0.000113204
4.70543e-05
0.000165419
3.94675e-05
0.000280932
2.71397e-05
0.000398094
0.000684101
6.81906e-05
-1.08122e-06
6.80834e-05
-5.36836e-07
6.80074e-05
8.68209e-06
6.78623e-05
5.01828e-06
6.77489e-05
7.54286e-07
6.75717e-05
2.03865e-06
6.73524e-05
9.80014e-06
6.70213e-05
1.18009e-05
6.66197e-05
1.07967e-05
6.61659e-05
1.24445e-05
6.54737e-05
1.65018e-05
6.46197e-05
2.3518e-05
6.35895e-05
3.01605e-05
6.23229e-05
3.5525e-05
6.06937e-05
4.42007e-05
5.86401e-05
5.85532e-05
5.58167e-05
7.98705e-05
5.21921e-05
0.000116828
4.70695e-05
0.000170541
3.97045e-05
0.000288297
2.7539e-05
0.00041026
0.00071164
6.81739e-05
-1.07783e-06
6.80855e-05
-4.9696e-07
6.80397e-05
8.86059e-06
6.78786e-05
5.18285e-06
6.77301e-05
8.22827e-07
6.755e-05
2.15662e-06
6.73506e-05
1.00623e-05
6.70252e-05
1.21705e-05
6.66215e-05
1.11609e-05
6.61616e-05
1.29032e-05
6.54627e-05
1.72003e-05
6.46082e-05
2.43722e-05
6.35734e-05
3.11847e-05
6.22955e-05
3.68096e-05
6.06503e-05
4.58452e-05
5.85799e-05
6.06254e-05
5.57482e-05
8.27024e-05
5.21483e-05
0.000120429
4.70862e-05
0.000175604
3.99565e-05
0.000295427
2.79592e-05
0.000422257
0.000739599
6.81885e-05
-1.09556e-06
6.80806e-05
-4.61706e-07
6.80061e-05
9.15595e-06
6.78643e-05
5.30375e-06
6.77499e-05
8.22125e-07
6.75724e-05
2.24644e-06
6.73541e-05
1.03797e-05
6.70244e-05
1.25468e-05
6.66196e-05
1.15268e-05
6.61553e-05
1.33672e-05
6.54519e-05
1.7904e-05
6.4597e-05
2.52278e-05
6.35568e-05
3.22343e-05
6.22664e-05
3.80946e-05
6.06042e-05
4.75076e-05
5.85164e-05
6.27118e-05
5.56778e-05
8.55406e-05
5.2104e-05
0.000124002
4.71041e-05
0.000180603
4.02232e-05
0.000302308
2.84008e-05
0.000434079
0.000768
6.81714e-05
-1.0882e-06
6.80836e-05
-4.16601e-07
6.8041e-05
9.32108e-06
6.78817e-05
5.46666e-06
6.773e-05
8.96005e-07
6.75501e-05
2.3682e-06
6.73526e-05
1.06343e-05
6.70297e-05
1.29124e-05
6.66207e-05
1.18985e-05
6.61478e-05
1.38392e-05
6.5441e-05
1.86105e-05
6.4586e-05
2.60825e-05
6.35398e-05
3.32702e-05
6.22357e-05
3.94055e-05
6.05553e-05
4.91875e-05
5.84498e-05
6.48189e-05
5.56055e-05
8.83854e-05
5.20594e-05
0.000127549
4.71231e-05
0.00018554
4.05039e-05
0.000308927
2.88639e-05
0.000445719
0.000796864
6.81865e-05
-1.10281e-06
6.80779e-05
-3.75305e-07
6.80052e-05
9.60992e-06
6.78668e-05
5.58296e-06
6.77516e-05
8.9526e-07
6.75742e-05
2.46049e-06
6.73569e-05
1.09472e-05
6.70299e-05
1.3284e-05
6.66173e-05
1.22756e-05
6.61386e-05
1.43178e-05
6.54301e-05
1.93193e-05
6.4575e-05
2.69383e-05
6.35222e-05
3.43323e-05
6.22034e-05
4.07188e-05
6.05038e-05
5.08872e-05
5.83805e-05
6.69408e-05
5.55316e-05
9.12338e-05
5.20148e-05
0.000131065
4.71431e-05
0.000190412
4.07979e-05
0.000315272
2.93485e-05
0.000457169
0.000826212
6.81693e-05
-1.09204e-06
6.8082e-05
-3.25874e-07
6.80421e-05
9.76337e-06
6.78845e-05
5.74436e-06
6.77302e-05
9.73536e-07
6.75507e-05
2.5849e-06
6.73553e-05
1.11943e-05
6.70365e-05
1.36427e-05
6.6617e-05
1.26614e-05
6.61279e-05
1.48063e-05
6.5419e-05
2.0028e-05
6.45641e-05
2.77928e-05
6.35039e-05
3.53826e-05
6.21693e-05
4.20605e-05
6.04498e-05
5.26063e-05
5.83085e-05
6.90839e-05
5.54566e-05
9.40861e-05
5.19705e-05
0.000134552
4.71641e-05
0.000195218
4.11045e-05
0.000321331
2.98546e-05
0.000468419
0.000856067
6.81847e-05
-1.1038e-06
6.80751e-05
-2.7837e-07
6.80033e-05
1.00478e-05
6.78684e-05
5.85626e-06
6.77529e-05
9.71601e-07
6.75755e-05
2.67962e-06
6.73589e-05
1.15037e-05
6.70357e-05
1.40081e-05
6.66116e-05
1.30547e-05
6.61155e-05
1.53023e-05
6.54077e-05
2.07361e-05
6.45531e-05
2.86481e-05
6.3485e-05
3.64598e-05
6.21337e-05
4.34062e-05
6.03934e-05
5.43466e-05
5.82342e-05
7.12416e-05
5.53805e-05
9.69393e-05
5.19268e-05
0.000138005
4.71863e-05
0.000199958
4.14232e-05
0.000327095
3.0382e-05
0.00047946
0.000886449
6.81673e-05
-1.08986e-06
6.80797e-05
-2.23504e-07
6.80409e-05
1.01935e-05
6.78852e-05
6.01626e-06
6.77292e-05
1.05193e-06
6.75499e-05
2.80703e-06
6.73553e-05
1.17463e-05
6.70339e-05
1.43689e-05
6.66103e-05
1.34558e-05
6.61017e-05
1.58104e-05
6.53963e-05
2.14413e-05
6.45421e-05
2.9502e-05
6.34655e-05
3.75267e-05
6.20965e-05
4.47824e-05
6.03348e-05
5.61079e-05
5.81577e-05
7.34206e-05
5.53038e-05
9.97937e-05
5.18838e-05
0.000141425
4.72097e-05
0.000204633
4.17535e-05
0.000332551
3.09311e-05
0.000490282
0.00091738
6.81832e-05
-1.09916e-06
6.80721e-05
-1.69677e-07
6.80002e-05
1.0476e-05
6.78688e-05
6.1237e-06
6.77537e-05
1.04712e-06
6.75763e-05
2.90393e-06
6.73599e-05
1.2053e-05
6.70208e-05
1.47474e-05
6.66155e-05
1.38478e-05
6.60867e-05
1.63393e-05
6.53847e-05
2.21436e-05
6.45309e-05
3.03565e-05
6.34452e-05
3.86216e-05
6.20577e-05
4.6164e-05
6.02742e-05
5.78914e-05
5.80795e-05
7.56137e-05
5.52266e-05
0.000102646
5.1842e-05
0.000144809
4.72342e-05
0.00020924
4.20955e-05
0.000337689
3.15021e-05
0.000500876
0.000948882
6.81653e-05
-1.08214e-06
6.80775e-05
-1.09369e-07
6.80394e-05
1.06144e-05
6.7885e-05
6.28336e-06
6.77267e-05
1.13089e-06
6.75467e-05
3.03623e-06
6.73547e-05
1.22895e-05
6.70056e-05
1.51319e-05
6.66178e-05
1.42303e-05
6.6071e-05
1.68857e-05
6.53729e-05
2.28414e-05
6.45196e-05
3.12095e-05
6.34241e-05
3.9707e-05
6.20174e-05
4.75778e-05
6.02117e-05
5.9697e-05
5.79997e-05
7.78275e-05
5.51493e-05
0.000105497
5.18015e-05
0.000148158
4.72598e-05
0.000213782
4.2449e-05
0.0003425
3.20954e-05
0.000511229
0.000980977
6.81817e-05
-1.08895e-06
6.80696e-05
-4.98684e-08
6.79981e-05
1.08933e-05
6.78698e-05
6.38696e-06
6.77548e-05
1.12411e-06
6.75766e-05
3.1361e-06
6.73623e-05
1.2591e-05
6.69953e-05
1.55355e-05
6.66099e-05
1.4613e-05
6.60552e-05
1.74406e-05
6.53611e-05
2.35357e-05
6.4508e-05
3.20634e-05
6.34024e-05
4.08222e-05
6.19758e-05
4.89981e-05
6.01476e-05
6.1525e-05
5.79189e-05
8.00545e-05
5.50721e-05
0.000108343
5.17626e-05
0.000151467
4.72861e-05
0.000218259
4.28132e-05
0.000346973
3.27111e-05
0.000521331
0.00101369
6.81646e-05
-1.07068e-06
6.80759e-05
1.37454e-08
6.8037e-05
1.10312e-05
6.78859e-05
6.54228e-06
6.77301e-05
1.20147e-06
6.75497e-05
3.26859e-06
6.73636e-05
1.2819e-05
6.69957e-05
1.59281e-05
6.65979e-05
1.50099e-05
6.60396e-05
1.79985e-05
6.53493e-05
2.42258e-05
6.44963e-05
3.2916e-05
6.33799e-05
4.19265e-05
6.19329e-05
5.04533e-05
6.00821e-05
6.33758e-05
5.78373e-05
8.23014e-05
5.49953e-05
0.000111186
5.17253e-05
0.000154737
4.73124e-05
0.000222672
4.3186e-05
0.000351099
3.33479e-05
0.000531169
0.00104704
6.81787e-05
-1.07281e-06
6.80677e-05
7.88342e-08
6.79998e-05
1.12946e-05
6.78722e-05
6.64702e-06
6.77539e-05
1.20114e-06
6.75722e-05
3.3763e-06
6.73649e-05
1.31058e-05
6.7006e-05
1.63081e-05
6.65846e-05
1.54306e-05
6.60246e-05
1.85586e-05
6.53374e-05
2.49133e-05
6.44841e-05
3.37701e-05
6.33567e-05
4.30644e-05
6.18889e-05
5.19141e-05
6.00156e-05
6.52487e-05
5.77554e-05
8.45598e-05
5.49191e-05
0.000114021
5.16898e-05
0.000157966
4.7338e-05
0.000227023
4.35616e-05
0.000354876
3.40016e-05
0.000540729
0.00108104
6.81624e-05
-1.05107e-06
6.80748e-05
1.46399e-07
6.80392e-05
1.14192e-05
6.78888e-05
6.80284e-06
6.77299e-05
1.28563e-06
6.75433e-05
3.52001e-06
6.73526e-05
1.3334e-05
6.70206e-05
1.66421e-05
6.65716e-05
1.58793e-05
6.60103e-05
1.91196e-05
6.53256e-05
2.55977e-05
6.44718e-05
3.46235e-05
6.33328e-05
4.41911e-05
6.18439e-05
5.34112e-05
5.99485e-05
6.71441e-05
5.76738e-05
8.68366e-05
5.48437e-05
0.000116852
5.16562e-05
0.000161154
4.73621e-05
0.000231318
4.39288e-05
0.000358309
3.46621e-05
0.000549996
0.0011157
6.81798e-05
-1.05631e-06
6.80669e-05
2.12506e-07
6.79914e-05
1.17034e-05
6.78714e-05
6.8972e-06
6.77685e-05
1.25146e-06
6.75889e-05
3.61706e-06
6.73583e-05
1.36488e-05
6.7024e-05
1.69817e-05
6.65596e-05
1.63434e-05
6.59967e-05
1.96826e-05
6.53136e-05
2.62811e-05
6.4459e-05
3.54789e-05
6.33085e-05
4.53523e-05
6.17982e-05
5.49145e-05
5.98811e-05
6.9061e-05
5.7593e-05
8.91229e-05
5.47692e-05
0.000119675
5.16252e-05
0.000164298
4.73835e-05
0.000235559
4.42816e-05
0.000361411
3.54054e-05
0.000558872
0.00115111
-4.80253e-06
4.80255e-06
-1.50834e-05
1.02808e-05
-2.62111e-05
1.11276e-05
-2.84729e-05
2.26218e-06
-2.33965e-05
-5.07851e-06
-1.86229e-05
-4.77292e-06
-1.54728e-05
-3.14942e-06
-1.09143e-05
-4.55467e-06
-3.88578e-06
-7.0139e-06
4.99502e-06
-8.85057e-06
1.39222e-05
-8.69216e-06
2.16183e-05
-7.94054e-06
2.82903e-05
-6.6731e-06
3.32132e-05
-4.92821e-06
3.63008e-05
-3.09001e-06
3.85279e-05
-2.2279e-06
4.05123e-05
-1.98466e-06
4.24462e-05
-1.93412e-06
4.43226e-05
-1.87663e-06
4.61314e-05
-1.80909e-06
4.79776e-05
-1.84672e-06
5.08072e-05
-2.82971e-06
5.59606e-05
-5.15379e-06
6.13829e-05
-5.4219e-06
6.41836e-05
-2.80018e-06
6.51423e-05
-9.58994e-07
6.56311e-05
-4.88866e-07
6.60362e-05
-4.05129e-07
6.64007e-05
-3.64645e-07
6.67054e-05
-3.04642e-07
6.69396e-05
-2.34176e-07
6.71199e-05
-1.80316e-07
6.72734e-05
-1.53555e-07
6.74049e-05
-1.31427e-07
-5.2895e-08
-4.96826e-06
9.77085e-06
-1.53701e-05
2.06827e-05
-2.65076e-05
2.22648e-05
-2.83987e-05
4.15389e-06
-2.27194e-05
-1.07614e-05
-1.77849e-05
-9.70626e-06
-1.47081e-05
-6.22483e-06
-1.08376e-05
-8.41733e-06
-4.74719e-06
-1.30761e-05
3.68041e-06
-1.72208e-05
1.25135e-05
-1.7165e-05
2.01824e-05
-1.59821e-05
2.72074e-05
-1.37003e-05
3.27204e-05
-1.04516e-05
3.61643e-05
-6.53859e-06
3.84834e-05
-4.54868e-06
4.04664e-05
-3.96829e-06
4.23776e-05
-3.84561e-06
4.42306e-05
-3.73021e-06
4.602e-05
-3.59903e-06
4.78271e-05
-3.65488e-06
5.05282e-05
-5.53099e-06
5.55823e-05
-1.02085e-05
6.11393e-05
-1.09782e-05
6.41166e-05
-5.77662e-06
6.51321e-05
-1.97501e-06
6.5627e-05
-9.83924e-07
6.6032e-05
-8.10272e-07
6.63967e-05
-7.29455e-07
6.6702e-05
-6.09923e-07
6.69374e-05
-4.69582e-07
6.71188e-05
-3.61703e-07
6.72728e-05
-3.07461e-07
6.74045e-05
-2.63212e-07
-1.06278e-07
-5.08014e-06
1.4851e-05
-1.5728e-05
3.13306e-05
-2.64088e-05
3.29455e-05
-2.76037e-05
5.34948e-06
-2.1564e-05
-1.68054e-05
-1.68551e-05
-1.44136e-05
-1.42265e-05
-8.85206e-06
-1.08484e-05
-1.1788e-05
-5.0645e-06
-1.88332e-05
3.14745e-06
-2.53791e-05
1.17738e-05
-2.54309e-05
1.93094e-05
-2.38815e-05
2.64091e-05
-2.0802e-05
3.22924e-05
-1.63459e-05
3.60393e-05
-1.02906e-05
3.84492e-05
-6.96037e-06
4.04318e-05
-5.95149e-06
4.2321e-05
-5.73512e-06
4.41527e-05
-5.56254e-06
4.59245e-05
-5.37128e-06
4.76965e-05
-5.42787e-06
5.0286e-05
-8.12056e-06
5.52558e-05
-1.5179e-05
6.09231e-05
-1.66448e-05
6.40556e-05
-8.90823e-06
6.51225e-05
-3.04246e-06
6.56234e-05
-1.48497e-06
6.60284e-05
-1.21529e-06
6.63931e-05
-1.09434e-06
6.6699e-05
-9.15761e-07
6.69356e-05
-7.06174e-07
6.7118e-05
-5.44121e-07
6.72722e-05
-4.61653e-07
6.74043e-05
-3.95286e-07
-1.60027e-07
-5.15792e-06
2.0009e-05
-1.59028e-05
4.20755e-05
-2.59401e-05
4.29825e-05
-2.6418e-05
5.8282e-06
-2.01497e-05
-2.30778e-05
-1.57999e-05
-1.87618e-05
-1.3558e-05
-1.10922e-05
-1.05062e-05
-1.48304e-05
-4.87971e-06
-2.44282e-05
3.14519e-06
-3.33432e-05
1.15392e-05
-3.3523e-05
1.89212e-05
-3.15614e-05
2.59127e-05
-2.77957e-05
3.19354e-05
-2.23814e-05
3.59234e-05
-1.42849e-05
3.84264e-05
-9.46574e-06
4.04089e-05
-7.93488e-06
4.2275e-05
-7.60157e-06
4.40869e-05
-7.37516e-06
4.58444e-05
-7.12942e-06
4.75861e-05
-7.17068e-06
5.00826e-05
-1.06172e-05
5.49802e-05
-2.00772e-05
6.07352e-05
-2.23991e-05
6.39999e-05
-1.21721e-05
6.51138e-05
-4.15682e-06
6.56204e-05
-1.99176e-06
6.60252e-05
-1.62018e-06
6.639e-05
-1.45924e-06
6.66963e-05
-1.22206e-06
6.6934e-05
-9.43901e-07
6.71175e-05
-7.27525e-07
6.72719e-05
-6.16063e-07
6.74042e-05
-5.27556e-07
-2.14036e-07
-5.19438e-06
2.52034e-05
-1.58957e-05
5.27768e-05
-2.51197e-05
5.22063e-05
-2.48713e-05
5.58079e-06
-1.85012e-05
-2.94524e-05
-1.45404e-05
-2.27209e-05
-1.261e-05
-1.30209e-05
-9.74819e-06
-1.76836e-05
-4.18018e-06
-2.99661e-05
3.64733e-06
-4.1112e-05
1.17719e-05
-4.13329e-05
1.8969e-05
-3.90692e-05
2.57188e-05
-3.45476e-05
3.16859e-05
-2.83628e-05
3.58305e-05
-1.84365e-05
3.84218e-05
-1.20596e-05
4.04033e-05
-9.91727e-06
4.22431e-05
-9.44171e-06
4.40352e-05
-9.168e-06
4.57812e-05
-8.87601e-06
4.74966e-05
-8.887e-06
4.99163e-05
-1.3037e-05
5.47525e-05
-2.49139e-05
6.05746e-05
-2.82205e-05
6.39498e-05
-1.55466e-05
6.51059e-05
-5.31338e-06
6.5618e-05
-2.50402e-06
6.60226e-05
-2.0249e-06
6.63873e-05
-1.82405e-06
6.6694e-05
-1.52872e-06
6.69328e-05
-1.1827e-06
6.71172e-05
-9.11867e-07
6.72717e-05
-7.70617e-07
6.74041e-05
-6.59925e-07
-2.68203e-07
-5.18577e-06
3.03892e-05
-1.57126e-05
6.33037e-05
-2.40046e-05
6.04981e-05
-2.30573e-05
4.63457e-06
-1.66662e-05
-3.58473e-05
-1.30228e-05
-2.63623e-05
-1.13383e-05
-1.47031e-05
-8.56703e-06
-2.04433e-05
-2.97819e-06
-3.55188e-05
4.66965e-06
-4.8691e-05
1.25294e-05
-4.8907e-05
1.94901e-05
-4.63158e-05
2.58654e-05
-4.09257e-05
3.15917e-05
-3.41064e-05
3.57857e-05
-2.26394e-05
3.84476e-05
-1.4725e-05
4.04247e-05
-1.18956e-05
4.2233e-05
-1.12507e-05
4.4003e-05
-1.09389e-05
4.57381e-05
-1.06119e-05
4.74289e-05
-1.0579e-05
4.97844e-05
-1.53926e-05
5.45683e-05
-2.96985e-05
6.04397e-05
-3.40912e-05
6.39053e-05
-1.90114e-05
6.5099e-05
-6.50758e-06
6.56163e-05
-3.02148e-06
6.60207e-05
-2.42945e-06
6.63852e-05
-2.18869e-06
6.66922e-05
-1.83562e-06
6.6932e-05
-1.42252e-06
6.71172e-05
-1.09709e-06
6.72719e-05
-9.25233e-07
6.74042e-05
-7.92292e-07
-3.22417e-07
-5.12999e-06
3.55192e-05
-1.53652e-05
7.3539e-05
-2.26843e-05
6.78169e-05
-2.11058e-05
3.05723e-06
-1.47178e-05
-4.22393e-05
-1.12625e-05
-2.98157e-05
-9.77883e-06
-1.6185e-05
-7.06429e-06
-2.31483e-05
-1.41483e-06
-4.11383e-05
6.1308e-06
-5.61762e-05
1.38291e-05
-5.63285e-05
2.05494e-05
-5.33228e-05
2.64321e-05
-4.68109e-05
3.17163e-05
-3.94111e-05
3.5825e-05
-2.67584e-05
3.85215e-05
-1.74254e-05
4.04864e-05
-1.38618e-05
4.22561e-05
-1.3021e-05
4.39981e-05
-1.26819e-05
4.57193e-05
-1.23337e-05
4.73846e-05
-1.22453e-05
4.96843e-05
-1.76924e-05
5.44231e-05
-3.44377e-05
6.03286e-05
-3.99961e-05
6.38665e-05
-2.25485e-05
6.50931e-05
-7.73469e-06
6.56153e-05
-3.5438e-06
6.60195e-05
-2.83373e-06
6.63837e-05
-2.55303e-06
6.66908e-05
-2.14263e-06
6.69316e-05
-1.66329e-06
6.71176e-05
-1.28314e-06
6.72722e-05
-1.07982e-06
6.74045e-05
-9.2455e-07
-3.7657e-07
-5.02619e-06
4.05455e-05
-1.48718e-05
8.33847e-05
-2.12502e-05
7.41951e-05
-1.91355e-05
9.43726e-07
-1.27403e-05
-4.86378e-05
-9.34234e-06
-3.32115e-05
-8.02665e-06
-1.74977e-05
-5.39148e-06
-2.57708e-05
3.1475e-07
-4.68091e-05
7.83951e-06
-6.3633e-05
1.55008e-05
-6.37529e-05
2.20732e-05
-6.01436e-05
2.74739e-05
-5.22153e-05
3.21475e-05
-4.41101e-05
3.60023e-05
-3.0627e-05
3.86709e-05
-2.00994e-05
4.06066e-05
-1.57996e-05
4.23264e-05
-1.47417e-05
4.40302e-05
-1.4387e-05
4.57298e-05
-1.40342e-05
4.73653e-05
-1.3882e-05
4.96138e-05