/*--------------------------------*- C++ -*----------------------------------*\
| =========                 |                                                 |
| \\      /  F ield         | OpenFOAM: The Open Source CFD Toolbox           |
|  \\    /   O peration     | Version:  v1912                                 |
|   \\  /    A nd           | Website:  www.openfoam.com                      |
|    \\/     M anipulation  |                                                 |
\*---------------------------------------------------------------------------*/
FoamFile
{
    version     2.0;
    format      ascii;
    class       volVectorField;
    location    "80";
    object      U;
}
// * * * * * * * * * * * * * * * * * * * * * * * * * * * * * * * * * * * * * //

dimensions      [0 1 -1 0 0 0 0];


internalField   nonuniform List<vector> 
12441
(
(29.9844 -2.90581e-05 0)
(30.0218 5.2977e-06 0)
(29.9498 0.000256316 0)
(29.9265 4.74344e-05 0)
(29.8629 0.000115009 0)
(29.7987 0.000211639 0)
(29.6812 0.000550282 0)
(29.5688 0.000701698 0)
(29.4392 0.000777163 0)
(29.2543 0.000973845 0)
(29.0415 0.00136309 0)
(28.7652 0.00215492 0)
(28.4348 0.0032638 0)
(27.9334 0.00443197 0)
(27.43 0.00571322 0)
(26.7162 0.00980049 0)
(25.8306 0.0125423 0)
(24.4239 0.0266696 0)
(22.4179 0.0471909 0)
(19.0756 0.0879303 0)
(13.306 0.128446 0)
(6.51528 0.217473 0)
(29.9791 -9.75779e-05 0)
(30.0477 -9.39093e-05 0)
(29.943 0.00058527 0)
(29.902 0.000650969 0)
(29.8563 0.000369132 0)
(29.8209 0.000323575 0)
(29.6916 0.00151488 0)
(29.5634 0.00225277 0)
(29.4297 0.00225157 0)
(29.2464 0.00298545 0)
(29.0453 0.00409797 0)
(28.7752 0.00655415 0)
(28.4325 0.0100779 0)
(27.9236 0.0131131 0)
(27.4257 0.0170491 0)
(26.7155 0.0293219 0)
(25.8187 0.0406829 0)
(24.4073 0.0761879 0)
(22.397 0.122541 0)
(19.0467 0.254454 0)
(13.2872 0.376566 0)
(6.50372 0.647473 0)
(29.9795 -0.000187842 0)
(30.0444 -0.000245031 0)
(29.9461 0.00124301 0)
(29.9049 0.00114843 0)
(29.8572 0.000428037 0)
(29.8182 0.000357152 0)
(29.6915 0.00258613 0)
(29.5646 0.0038338 0)
(29.4308 0.00385692 0)
(29.2475 0.00498841 0)
(29.0458 0.00673544 0)
(28.7748 0.0108602 0)
(28.439 0.0169416 0)
(27.9232 0.0217363 0)
(27.4246 0.0284663 0)
(26.7146 0.0480347 0)
(25.8163 0.0695112 0)
(24.4071 0.123943 0)
(22.3852 0.195819 0)
(19.0256 0.41885 0)
(13.2662 0.621479 0)
(6.49227 1.07503 0)
(29.9792 -0.000281269 0)
(30.0465 -0.000380838 0)
(29.9407 0.00189465 0)
(29.8993 0.00157224 0)
(29.8544 0.000470211 0)
(29.8182 0.000440795 0)
(29.688 0.00372816 0)
(29.5608 0.00544331 0)
(29.4277 0.00545157 0)
(29.2445 0.00694248 0)
(29.0429 0.00934155 0)
(28.772 0.0151826 0)
(28.43 0.0238151 0)
(27.9238 0.0303921 0)
(27.4246 0.0399056 0)
(26.7159 0.0668795 0)
(25.8171 0.0977307 0)
(24.4097 0.174985 0)
(22.3804 0.2938 0)
(19.0136 0.591232 0)
(13.2557 0.87031 0)
(6.48741 1.50337 0)
(29.9801 -0.000372504 0)
(30.0416 -0.000497752 0)
(29.9436 0.00252025 0)
(29.9021 0.00198777 0)
(29.8552 0.000540715 0)
(29.8141 0.000570879 0)
(29.6867 0.0048779 0)
(29.5609 0.00702332 0)
(29.4278 0.00700242 0)
(29.2445 0.00887353 0)
(29.0425 0.0119505 0)
(28.7709 0.0195131 0)
(28.4372 0.0306721 0)
(27.9226 0.039071 0)
(27.424 0.0513616 0)
(26.7148 0.0854937 0)
(25.8176 0.12542 0)
(24.4122 0.226813 0)
(22.3849 0.374615 0)
(19.0119 0.759994 0)
(13.2567 1.11876 0)
(6.48942 1.93227 0)
(29.9795 -0.000460811 0)
(30.0455 -0.000612531 0)
(29.937 0.00316568 0)
(29.8949 0.00241781 0)
(29.8515 0.000616277 0)
(29.8149 0.000698238 0)
(29.6831 0.00601311 0)
(29.5562 0.00857741 0)
(29.4239 0.008538 0)
(29.2408 0.0108132 0)
(29.0389 0.0145813 0)
(28.7677 0.0238683 0)
(28.425 0.0375219 0)
(27.9225 0.0477256 0)
(27.4228 0.0628206 0)
(26.7148 0.104008 0)
(25.8193 0.152792 0)
(24.4149 0.277928 0)
(22.3941 0.453992 0)
(19.0188 0.927739 0)
(13.2692 1.36682 0)
(6.49835 2.36163 0)
(29.9806 -0.000547831 0)
(30.0393 -0.000711542 0)
(29.9403 0.00380162 0)
(29.8977 0.00284152 0)
(29.8521 0.000681222 0)
(29.8093 0.000833539 0)
(29.6809 0.00715492 0)
(29.5558 0.0101314 0)
(29.4235 0.0100806 0)
(29.2403 0.0127693 0)
(29.0379 0.0172234 0)
(28.7666 0.0282204 0)
(28.4333 0.0443747 0)
(27.9184 0.0563837 0)
(27.4205 0.0742482 0)
(26.7122 0.122382 0)
(25.8199 0.179545 0)
(24.417 0.327137 0)
(22.4054 0.535796 0)
(19.0328 1.09584 0)
(13.2935 1.61494 0)
(6.51434 2.79181 0)
(29.9798 -0.000632066 0)
(30.0445 -0.000810126 0)
(29.9333 0.00447229 0)
(29.8904 0.0032719 0)
(29.8488 0.000741807 0)
(29.8118 0.000971914 0)
(29.6785 0.0083045 0)
(29.5519 0.0116772 0)
(29.4203 0.0116167 0)
(29.2371 0.0147214 0)
(29.0349 0.0198646 0)
(28.7638 0.0325745 0)
(28.4192 0.051201 0)
(27.9201 0.0649831 0)
(27.4208 0.0855258 0)
(26.7137 0.140559 0)
(25.824 0.207505 0)
(24.4209 0.378816 0)
(22.416 0.618989 0)
(19.0514 1.26363 0)
(13.3297 1.86322 0)
(6.5376 3.22324 0)
(29.9811 -0.00071565 0)
(30.0372 -0.000890965 0)
(29.9378 0.00511513 0)
(29.8945 0.00368839 0)
(29.85 0.000796945 0)
(29.8057 0.00112503 0)
(29.6768 0.00945888 0)
(29.5522 0.0132212 0)
(29.4207 0.0131526 0)
(29.2375 0.0166791 0)
(29.0347 0.0225085 0)
(28.7636 0.0369229 0)
(28.4318 0.0580209 0)
(27.9178 0.0737131 0)
(27.4174 0.0969942 0)
(26.7136 0.159087 0)
(25.8227 0.234211 0)
(24.4178 0.430432 0)
(22.4182 0.701972 0)
(19.072 1.43045 0)
(13.3778 2.1116 0)
(6.56838 3.65638 0)
(29.9801 -0.000795592 0)
(30.0434 -0.000975102 0)
(29.9302 0.00580168 0)
(29.8868 0.00411394 0)
(29.8469 0.000849934 0)
(29.8095 0.00127873 0)
(29.6751 0.0106161 0)
(29.5489 0.0147509 0)
(29.4178 0.0146768 0)
(29.2346 0.0186298 0)
(29.0324 0.0251529 0)
(28.7616 0.0412785 0)
(28.4132 0.0648237 0)
(27.9205 0.0822237 0)
(27.4176 0.109071 0)
(26.7128 0.177794 0)
(25.8085 0.261393 0)
(24.3966 0.48078 0)
(22.408 0.784568 0)
(19.0927 1.59596 0)
(13.4377 2.36 0)
(6.6069 4.09162 0)
(29.9816 -0.000875289 0)
(30.0349 -0.00103814 0)
(29.9355 0.00644671 0)
(29.8915 0.00452364 0)
(29.8482 0.000897775 0)
(29.8021 0.00144918 0)
(29.673 0.0117757 0)
(29.5492 0.0162821 0)
(29.4182 0.0162066 0)
(29.235 0.02059 0)
(29.0322 0.0278003 0)
(28.7619 0.0456441 0)
(28.4273 0.071622 0)
(27.9282 0.0908422 0)
(27.4171 0.120522 0)
(26.6973 0.195867 0)
(25.7767 0.289951 0)
(24.3563 0.531199 0)
(22.3898 0.866928 0)
(19.1137 1.75968 0)
(13.5086 2.60825 0)
(6.65329 4.52939 0)
(29.9805 -0.000950309 0)
(30.042 -0.0011082 0)
(29.9276 0.00714639 0)
(29.8839 0.00494705 0)
(29.8457 0.000944742 0)
(29.8075 0.00161705 0)
(29.6725 0.0129351 0)
(29.5467 0.0177971 0)
(29.4161 0.0177248 0)
(29.2327 0.0225416 0)
(29.0305 0.0304448 0)
(28.7616 0.0500434 0)
(28.4056 0.0782125 0)
(27.9383 0.0996753 0)
(27.4078 0.132783 0)
(26.6664 0.214832 0)
(25.7366 0.319142 0)
(24.3107 0.580897 0)
(22.3706 0.948547 0)
(19.1352 1.92115 0)
(13.5896 2.85617 0)
(6.70754 4.97009 0)
(29.9822 -0.0010254 0)
(30.0323 -0.00115459 0)
(29.9344 0.00778183 0)
(29.8902 0.0053484 0)
(29.8478 0.000989926 0)
(29.7997 0.00180371 0)
(29.6712 0.0140908 0)
(29.5482 0.0193158 0)
(29.4175 0.0192543 0)
(29.2339 0.0245043 0)
(29.0318 0.033086 0)
(28.7623 0.0545771 0)
(28.4154 0.0846593 0)
(27.941 0.108526 0)
(27.3846 0.145827 0)
(26.6291 0.234106 0)
(25.6984 0.348577 0)
(24.2706 0.629549 0)
(22.3537 1.02923 0)
(19.1565 2.08018 0)
(13.679 3.10358 0)
(6.76951 5.41409 0)
(29.981 -0.0010947 0)
(30.0402 -0.00121212 0)
(29.9256 0.0084839 0)
(29.882 0.0057648 0)
(29.8453 0.00103459 0)
(29.8061 0.00198493 0)
(29.671 0.0152438 0)
(29.5459 0.0208147 0)
(29.4156 0.0207705 0)
(29.2317 0.026455 0)
(29.0306 0.0357374 0)
(28.7608 0.0591181 0)
(28.3992 0.0914912 0)
(27.9281 0.117531 0)
(27.3563 0.159024 0)
(26.5954 0.253041 0)
(25.6664 0.377921 0)
(24.2386 0.677248 0)
(22.3391 1.10908 0)
(19.1766 2.23681 0)
(13.7752 3.35028 0)
(6.83897 5.86173 0)
(29.9829 -0.00116456 0)
(30.0294 -0.00124153 0)
(29.9332 0.00910597 0)
(29.8889 0.00615797 0)
(29.8474 0.00107899 0)
(29.7969 0.00218905 0)
(29.6692 0.0163925 0)
(29.5472 0.0223213 0)
(29.4169 0.0223044 0)
(29.2325 0.0284124 0)
(29.0325 0.0384144 0)
(28.7623 0.0636742 0)
(28.396 0.0982777 0)
(27.9076 0.126695 0)
(27.3301 0.172311 0)
(26.5674 0.271826 0)
(25.6402 0.407236 0)
(24.2128 0.724288 0)
(22.3259 1.18829 0)
(19.1945 2.39112 0)
(13.8763 3.59606 0)
(6.91559 6.3133 0)
(29.9815 -0.00122753 0)
(30.0382 -0.00128628 0)
(29.9239 0.00980947 0)
(29.8805 0.00657132 0)
(29.8453 0.00112287 0)
(29.8048 0.00238359 0)
(29.67 0.0175362 0)
(29.5455 0.0238052 0)
(29.4154 0.0238228 0)
(29.2305 0.0303578 0)
(29.0315 0.0411039 0)
(28.7613 0.0683976 0)
(28.3792 0.10523 0)
(27.8872 0.135931 0)
(27.3082 0.18555 0)
(26.5445 0.290552 0)
(25.6183 0.436565 0)
(24.1908 0.77093 0)
(22.3135 1.267 0)
(19.21 2.54316 0)
(13.9809 3.84071 0)
(6.99901 6.76907 0)
(29.9836 -0.00129157 0)
(30.0263 -0.0012995 0)
(29.933 0.0104082 0)
(29.889 0.00695526 0)
(29.848 0.00117075 0)
(29.7952 0.00260434 0)
(29.6688 0.0186706 0)
(29.5477 0.0252998 0)
(29.4177 0.0253659 0)
(29.2318 0.0323062 0)
(29.0358 0.0438872 0)
(28.7582 0.0733304 0)
(28.3629 0.112114 0)
(27.8686 0.145285 0)
(27.29 0.198781 0)
(26.5253 0.309283 0)
(25.5993 0.465925 0)
(24.171 0.817357 0)
(22.3014 1.34528 0)
(19.223 2.69296 0)
(14.088 4.084 0)
(7.08883 7.22925 0)
(29.9821 -0.00134765 0)
(30.0359 -0.00133275 0)
(29.9227 0.0111044 0)
(29.8797 0.00736053 0)
(29.8459 0.00121679 0)
(29.804 0.00281146 0)
(29.6698 0.0197991 0)
(29.5461 0.0267668 0)
(29.4164 0.0268923 0)
(29.2297 0.0342258 0)
(29.0368 0.0467067 0)
(28.7481 0.0784877 0)
(28.3446 0.119033 0)
(27.8532 0.154615 0)
(27.2747 0.212023 0)
(26.5089 0.328028 0)
(25.5821 0.495326 0)
(24.1521 0.863677 0)
(22.2896 1.42319 0)
(19.2341 2.8405 0)
(14.1971 4.32576 0)
(7.18472 7.69403 0)
(29.9843 -0.00140558 0)
(30.0232 -0.00132966 0)
(29.9325 0.0116793 0)
(29.8887 0.00773554 0)
(29.8484 0.00126861 0)
(29.793 0.00304963 0)
(29.668 0.0209185 0)
(29.548 0.0282486 0)
(29.4184 0.0284487 0)
(29.2305 0.0361492 0)
(29.0419 0.0496215 0)
(28.736 0.0836587 0)
(28.3292 0.125919 0)
(27.8399 0.16396 0)
(27.2614 0.225288 0)
(26.4941 0.346802 0)
(25.566 0.524785 0)
(24.1333 0.909958 0)
(22.278 1.50073 0)
(19.2436 2.98579 0)
(14.3079 4.56579 0)
(7.28637 8.1636 0)
(29.9827 -0.00145459 0)
(30.0336 -0.00135109 0)
(29.9215 0.0123696 0)
(29.8791 0.008137 0)
(29.8466 0.00131717 0)
(29.8031 0.00326913 0)
(29.6696 0.022031 0)
(29.5467 0.0296989 0)
(29.4173 0.0299875 0)
(29.229 0.0380427 0)
(29.0413 0.0526018 0)
(28.7231 0.0887687 0)
(28.3156 0.132863 0)
(27.8286 0.173281 0)
(27.2494 0.238579 0)
(26.4805 0.365609 0)
(25.5504 0.554322 0)
(24.1141 0.95623 0)
(22.2667 1.57789 0)
(19.2524 3.1288 0)
(14.4206 4.80394 0)
(7.39354 8.63813 0)
(29.985 -0.00150615 0)
(30.02 -0.0013323 0)
(29.9327 0.0129145 0)
(29.8895 0.00850286 0)
(29.8495 0.00137598 0)
(29.7916 0.00352366 0)
(29.6683 0.0231309 0)
(29.5493 0.0311691 0)
(29.4196 0.0315521 0)
(29.2322 0.0399701 0)
(29.0401 0.0556807 0)
(28.7111 0.0938707 0)
(28.3044 0.13978 0)
(27.8186 0.182616 0)
(27.2384 0.251902 0)
(26.4676 0.384466 0)
(25.5347 0.583961 0)
(24.0941 1.00249 0)
(22.2559 1.65463 0)
(19.2608 3.26951 0)
(14.5358 5.04007 0)
(7.50607 9.11778 0)
(29.9833 -0.00154783 0)
(30.0311 -0.00134279 0)
(29.9207 0.013593 0)
(29.879 0.00889563 0)
(29.8477 0.00142883 0)
(29.8026 0.00375516 0)
(29.67 0.0242229 0)
(29.5483 0.0326057 0)
(29.4182 0.0330838 0)
(29.2329 0.041902 0)
(29.0336 0.0589347 0)
(28.7002 0.0989668 0)
(28.2946 0.146721 0)
(27.8095 0.191951 0)
(27.2278 0.265262 0)
(26.4548 0.403383 0)
(25.5185 0.613729 0)
(24.073 1.04872 0)
(22.2455 1.73091 0)
(19.2696 3.40788 0)
(14.654 5.27408 0)
(7.62388 9.60276 0)
(29.9858 -0.00159297 0)
(30.0168 -0.00130824 0)
(29.9326 0.0141099 0)
(29.8897 0.00925244 0)
(29.8502 0.00149392 0)
(29.7897 0.00402693 0)
(29.6679 0.0253031 0)
(29.5505 0.0340683 0)
(29.4196 0.0346384 0)
(29.2368 0.0438943 0)
(29.0275 0.0623785 0)
(28.6906 0.104075 0)
(28.2863 0.153641 0)
(27.801 0.201308 0)
(27.2175 0.278664 0)
(26.4418 0.422377 0)
(25.5014 0.643645 0)
(24.0507 1.09485 0)
(22.2355 1.80669 0)
(19.2793 3.54387 0)
(14.7762 5.50585 0)
(7.74698 10.0932 0)
(29.9839 -0.00162738 0)
(30.0286 -0.00130754 0)
(29.9198 0.014779 0)
(29.8789 0.00964142 0)
(29.8488 0.00155136 0)
(29.802 0.00427026 0)
(29.6702 0.0263738 0)
(29.5497 0.0354948 0)
(29.4183 0.0361545 0)
(29.2373 0.0459018 0)
(29.0212 0.0658321 0)
(28.6821 0.109199 0)
(28.2787 0.160575 0)
(27.7929 0.210685 0)
(27.2072 0.29212 0)
(26.4282 0.441464 0)
(25.4831 0.673713 0)
(24.0271 1.14084 0)
(22.2259 1.88194 0)
(19.2902 3.67741 0)
(14.9033 5.73529 0)
(7.87544 10.5895 0)
(29.9865 -0.00166602 0)
(30.0137 -0.00125783 0)
(29.9331 0.0152627 0)
(29.8909 0.00998903 0)
(29.8514 0.00162585 0)
(29.7885 0.00455828 0)
(29.6685 0.0274297 0)
(29.5524 0.0369509 0)
(29.4205 0.0376966 0)
(29.2416 0.0479857 0)
(29.0157 0.0692742 0)
(28.6745 0.11434 0)
(28.2719 0.167504 0)
(27.7851 0.220095 0)
(27.1966 0.305641 0)
(26.4139 0.460657 0)
(25.4633 0.703924 0)
(24.0023 1.18665 0)
(22.2166 1.95662 0)
(19.3026 3.80842 0)
(15.0365 5.96234 0)
(8.00943 11.0917 0)
(29.9846 -0.00169303 0)
(30.0261 -0.00124691 0)
(29.9192 0.0159174 0)
(29.8792 0.0103691 0)
(29.8501 0.00168936 0)
(29.8017 0.0048126 0)
(29.671 0.0284761 0)
(29.5516 0.0383656 0)
(29.4193 0.0392042 0)
(29.2421 0.0501021 0)
(29.0105 0.0727346 0)
(28.6677 0.119495 0)
(28.2656 0.174446 0)
(27.7773 0.229543 0)
(27.1856 0.319236 0)
(26.3984 0.479969 0)
(25.4417 0.73426 0)
(23.9763 1.23227 0)
(22.2074 2.03068 0)
(19.3169 3.93678 0)
(15.1768 6.1869 0)
(8.14916 11.6002 0)
(29.9872 -0.00172533 0)
(30.0106 -0.00118223 0)
(29.9332 0.016371 0)
(29.8913 0.0107075 0)
(29.8523 0.00177171 0)
(29.7868 0.00511659 0)
(29.6686 0.0295101 0)
(29.5538 0.0398172 0)
(29.4209 0.0407373 0)
(29.2461 0.0522708 0)
(29.0056 0.0762531 0)
(28.6615 0.12466 0)
(28.2597 0.181397 0)
(27.7695 0.239039 0)
(27.1741 0.332917 0)
(26.3816 0.499407 0)
(25.4185 0.764711 0)
(23.9493 1.27767 0)
(22.1983 2.10407 0)
(19.3331 4.06236 0)
(15.3255 6.40892 0)
(8.29492 12.1152 0)
(29.9852 -0.00174526 0)
(30.0236 -0.00116093 0)
(29.9185 0.0170151 0)
(29.8792 0.0110836 0)
(29.8513 0.00184055 0)
(29.8013 0.00538113 0)
(29.6716 0.030533 0)
(29.5534 0.0412271 0)
(29.4191 0.0422372 0)
(29.2481 0.0543124 0)
(29.0009 0.079844 0)
(28.6557 0.129833 0)
(28.254 0.188366 0)
(27.7616 0.248592 0)
(27.1617 0.346695 0)
(26.3634 0.51898 0)
(25.3934 0.795273 0)
(23.9213 1.32285 0)
(22.189 2.17676 0)
(19.3512 4.18499 0)
(15.4835 6.62832 0)
(8.44705 12.6371 0)
(29.9879 -0.00177134 0)
(30.0076 -0.00108193 0)
(29.9338 0.0174357 0)
(29.8926 0.0114133 0)
(29.8535 0.00193322 0)
(29.7857 0.00569994 0)
(29.6694 0.031542 0)
(29.556 0.0426739 0)
(29.4212 0.0438062 0)
(29.2511 0.0563867 0)
(28.9963 0.0835032 0)
(28.6503 0.135012 0)
(28.2486 0.195355 0)
(27.7534 0.258209 0)
(27.1486 0.360581 0)
(26.3437 0.538694 0)
(25.3667 0.825944 0)
(23.8924 1.36777 0)
(22.1797 2.2487 0)
(19.3711 4.30449 0)
(15.6517 6.84501 0)
(8.60591 13.1663 0)
(29.9858 -0.00178428 0)
(30.0212 -0.00105094 0)
(29.918 0.0180652 0)
(29.8796 0.0117803 0)
(29.8527 0.00200807 0)
(29.8011 0.00597437 0)
(29.6725 0.03254 0)
(29.5555 0.044076 0)
(29.4198 0.04532 0)
(29.2521 0.0585646 0)
(28.9917 0.0872189 0)
(28.6452 0.140196 0)
(28.2433 0.20237 0)
(27.7449 0.267901 0)
(27.1346 0.374585 0)
(26.3225 0.558559 0)
(25.3384 0.85672 0)
(23.8628 1.41242 0)
(22.1703 2.31985 0)
(19.3926 4.42064 0)
(15.8308 7.05892 0)
(8.77188 13.7031 0)
(29.9886 -0.00180444 0)
(30.0048 -0.000957848 0)
(29.9338 0.0184584 0)
(29.893 0.0121015 0)
(29.8542 0.00210791 0)
(29.7841 0.00630771 0)
(29.6694 0.0335278 0)
(29.5572 0.0455212 0)
(29.4217 0.0468894 0)
(29.2525 0.0607962 0)
(28.9869 0.090975 0)
(28.6403 0.145383 0)
(28.2382 0.209415 0)
(27.7361 0.277674 0)
(27.1195 0.38872 0)
(26.2998 0.578582 0)
(25.3086 0.887593 0)
(23.8326 1.45678 0)
(22.1607 2.39017 0)
(19.4155 4.53325 0)
(16.021 7.26994 0)
(8.94534 14.2479 0)
(29.9864 -0.00181083 0)
(30.0188 -0.000917167 0)
(29.9174 0.0190777 0)
(29.8798 0.0124649 0)
(29.8539 0.00218826 0)
(29.8008 0.00659146 0)
(29.6732 0.0345043 0)
(29.5571 0.0469134 0)
(29.4211 0.0484224 0)
(29.2517 0.0630351 0)
(28.9821 0.094761 0)
(28.6356 0.150574 0)
(28.233 0.216494 0)
(27.727 0.287539 0)
(27.1036 0.402996 0)
(26.2756 0.59877 0)
(25.2774 0.91855 0)
(23.8019 1.50083 0)
(22.1512 2.45965 0)
(19.4394 4.64209 0)
(16.2223 7.47797 0)
(9.12667 14.8012 0)
(29.9892 -0.0018253 0)
(30.0021 -0.000810641 0)
(29.9344 0.0194396 0)
(29.8942 0.0127773 0)
(29.8553 0.00229818 0)
(29.783 0.00693861 0)
(29.6702 0.0354707 0)
(29.5588 0.0483458 0)
(29.4241 0.0500249 0)
(29.25 0.0652952 0)
(28.977 0.0985684 0)
(28.6311 0.155766 0)
(28.2279 0.223614 0)
(27.7173 0.297504 0)
(27.0866 0.417424 0)
(26.2501 0.619127 0)
(25.2448 0.949579 0)
(23.7709 1.54455 0)
(22.1417 2.52826 0)
(19.4643 4.74696 0)
(16.4344 7.68287 0)
(9.31619 15.3634 0)
(29.987 -0.00182537 0)
(30.0167 -0.000761496 0)
(29.9169 0.0200468 0)
(29.8801 0.0131328 0)
(29.8552 0.00238454 0)
(29.801 0.00723115 0)
(29.6743 0.0364266 0)
(29.559 0.0497191 0)
(29.4242 0.0515976 0)
(29.247 0.0675771 0)
(28.9718 0.10239 0)
(28.6267 0.160959 0)
(28.2227 0.230774 0)
(27.7073 0.307578 0)
(27.0687 0.432013 0)
(26.2233 0.639657 0)
(25.211 0.980664 0)
(23.7397 1.58792 0)
(22.1324 2.59598 0)
(19.4899 4.84766 0)
(16.657 7.88452 0)
(9.51421 15.9349 0)
(29.9898 -0.00183475 0)
(29.9998 -0.000642794 0)
(29.935 0.02038 0)
(29.8953 0.0134344 0)
(29.8562 0.00250115 0)
(29.7823 0.00759144 0)
(29.6712 0.0373774 0)
(29.5609 0.0511259 0)
(29.4283 0.0532495 0)
(29.243 0.0698969 0)
(28.9663 0.106218 0)
(28.6223 0.166151 0)
(28.2175 0.237986 0)
(27.6967 0.317769 0)
(27.0498 0.446771 0)
(26.1952 0.660362 0)
(25.1762 1.01179 0)
(23.7084 1.63092 0)
(22.1234 2.66281 0)
(19.516 4.94401 0)
(16.8896 8.08275 0)
(9.72098 16.5161 0)
(29.9875 -0.00182921 0)
(30.0146 -0.000585864 0)
(29.9161 0.0209817 0)
(29.8799 0.0137824 0)
(29.8563 0.00258414 0)
(29.801 0.00788577 0)
(29.6752 0.0383184 0)
(29.5606 0.0524804 0)
(29.4285 0.0547975 0)
(29.2377 0.0722557 0)
(28.9606 0.110044 0)
(28.618 0.171342 0)
(28.2122 0.245248 0)
(27.6857 0.328085 0)
(27.0299 0.461704 0)
(26.166 0.681243 0)
(25.1404 1.04295 0)
(23.6771 1.67353 0)
(22.1149 2.72872 0)
(19.5427 5.03584 0)
(17.1319 8.27742 0)
(9.93672 17.1075 0)
(29.9903 -0.00183393 0)
(29.9976 -0.000455108 0)
(29.9348 0.0212966 0)
(29.8951 0.0140827 0)
(29.8565 0.00270075 0)
(29.7811 0.00824679 0)
(29.6714 0.0392499 0)
(29.5614 0.0539034 0)
(29.4303 0.0564512 0)
(29.2314 0.0746649 0)
(28.9547 0.113861 0)
(28.6137 0.176531 0)
(28.2068 0.252568 0)
(27.6742 0.338533 0)
(27.0092 0.47682 0)
(26.1358 0.702297 0)
(25.1038 1.07411 0)
(23.646 1.71574 0)
(22.1069 2.79373 0)
(19.5699 5.12299 0)
(17.3836 8.46835 0)
(10.1617 17.7094 0)
(29.988 -0.00182317 0)
(30.0129 -0.00038992 0)
(29.9149 0.0218899 0)
(29.879 0.0144358 0)
(29.857 0.00279358 0)
(29.801 0.00853986 0)
(29.6757 0.0401672 0)
(29.5617 0.0552507 0)
(29.4312 0.0582704 0)
(29.2241 0.0771512 0)
(28.9486 0.117662 0)
(28.6095 0.181717 0)
(28.2013 0.259947 0)
(27.6623 0.349119 0)
(26.9876 0.492123 0)
(26.1046 0.723524 0)
(25.0665 1.10527 0)
(23.6151 1.75753 0)
(22.0997 2.85781 0)
(19.5975 5.20529 0)
(17.6449 8.65538 0)
(10.396 18.3224 0)
(29.9909 -0.00182369 0)
(29.9954 -0.000244377 0)
(29.9346 0.0221743 0)
(29.8947 0.0147222 0)
(29.8563 0.00293214 0)
(29.7791 0.00893239 0)
(29.6704 0.0410805 0)
(29.5625 0.0567292 0)
(29.4299 0.060009 0)
(29.2163 0.0797412 0)
(28.9425 0.121443 0)
(28.6052 0.186902 0)
(28.1957 0.26739 0)
(27.6498 0.359849 0)
(26.9653 0.507617 0)
(26.0725 0.744921 0)
(25.0287 1.13641 0)
(23.5845 1.79887 0)
(22.0932 2.92098 0)
(19.6252 5.28259 0)
(17.916 8.8383 0)
(10.64 18.9467 0)
(29.9885 -0.00180866 0)
(30.0111 -0.000166353 0)
(29.9142 0.0227687 0)
(29.8785 0.0150393 0)
(29.8578 0.00301474 0)
(29.8011 0.00927199 0)
(29.6758 0.0419756 0)
(29.5644 0.0581599 0)
(29.4254 0.0615646 0)
(29.2084 0.0823989 0)
(28.9362 0.125203 0)
(28.601 0.192084 0)
(28.1898 0.274902 0)
(27.6369 0.370727 0)
(26.9422 0.523303 0)
(26.0398 0.766482 0)
(24.9906 1.16752 0)
(23.5543 1.83974 0)
(22.0877 2.98324 0)
(19.6527 5.35471 0)
(18.1964 9.01695 0)
(10.8938 19.583 0)
(29.9912 -0.00180629 0)
(29.9945 -1.52686e-05 0)
(29.9338 0.0230866 0)
(29.8939 0.0153028 0)
(29.8573 0.00309425 0)
(29.7811 0.00970551 0)
(29.671 0.0429569 0)
(29.5716 0.0596493 0)
(29.4202 0.0632108 0)
(29.2009 0.0850777 0)
(28.93 0.128942 0)
(28.5966 0.197265 0)
(28.1839 0.282478 0)
(27.6235 0.381765 0)
(26.9184 0.539186 0)
(26.0065 0.788205 0)
(24.9524 1.19858 0)
(23.5245 1.88015 0)
(22.0832 3.04461 0)
(19.6792 5.42152 0)
(18.4849 9.19114 0)
(11.1576 20.2314 0)
(29.9891 -0.00178694 0)
(30.0079 5.9333e-05 0)
(29.9152 0.0237012 0)
(29.8798 0.0156589 0)
(29.8583 0.00298923 0)
(29.7998 0.0098734 0)
(29.6731 0.0438181 0)
(29.5798 0.0610962 0)
(29.4148 0.0649777 0)
(29.1938 0.0877644 0)
(28.9238 0.13266 0)
(28.5923 0.202441 0)
(28.1777 0.290128 0)
(27.6097 0.392959 0)
(26.8941 0.555263 0)
(25.973 0.810082 0)
(24.9143 1.22959 0)
(23.4952 1.92006 0)
(22.0799 3.10511 0)
(19.7042 5.48289 0)
(18.7774 9.36082 0)
(11.4316 20.8933 0)
(29.9917 -0.00176759 0)
(29.9921 0.000166967 0)
(29.9349 0.0239098 0)
(29.8956 0.0164038 0)
(29.8578 0.00322529 0)
(29.7802 0.0100573 0)
(29.6663 0.0445033 0)
(29.5878 0.0624427 0)
(29.4095 0.0668546 0)
(29.1873 0.0904638 0)
(28.9177 0.136357 0)
(28.5879 0.207604 0)
(28.1714 0.29784 0)
(27.5955 0.404326 0)
(26.8693 0.571539 0)
(25.9392 0.832103 0)
(24.8765 1.26052 0)
(23.4662 1.95947 0)
(22.0777 3.16479 0)
(19.7269 5.53888 0)
(19.0654 9.52575 0)
(11.715 21.5751 0)
(29.9884 -0.00176223 0)
(30.0094 0.00036692 0)
(29.9129 0.0234772 0)
(29.8759 0.0170023 0)
(29.8606 0.00391726 0)
(29.8095 0.0106138 0)
(29.6782 0.0450175 0)
(29.5895 0.0638921 0)
(29.4045 0.0688138 0)
(29.1813 0.0932379 0)
(28.9116 0.140093 0)
(28.5834 0.212712 0)
(28.1648 0.305545 0)
(27.5811 0.41588 0)
(26.8443 0.588038 0)
(25.9056 0.854304 0)
(24.8392 1.29141 0)
(23.4378 1.99834 0)
(22.0768 3.22371 0)
(19.7473 5.58969 0)
(19.3355 9.68409 0)
(12.0921 22.301 0)
(-0.695707 0.0490206 0)
(-3.62813 0.094148 0)
(-9.9698 0.0962654 0)
(-13.2794 0.0218435 0)
(-11.5578 -0.0323704 0)
(-8.91268 -0.0309209 0)
(-7.49865 -0.0217931 0)
(-6.07298 -0.0280646 0)
(-3.40703 -0.037374 0)
(0.162413 -0.0429444 0)
(4.39234 -0.0389007 0)
(7.9851 -0.0327065 0)
(11.1642 -0.0255714 0)
(13.8319 -0.0176224 0)
(15.4615 -0.010334 0)
(16.5254 -0.00696836 0)
(17.4145 -0.00579566 0)
(18.2705 -0.00524408 0)
(19.1159 -0.0046887 0)
(19.9201 -0.00413804 0)
(20.7068 -0.00388737 0)
(21.5469 -0.00551825 0)
(23.2296 -0.00913633 0)
(26.1321 -0.00873696 0)
(27.9576 -0.004149 0)
(28.5476 -0.00131839 0)
(28.7871 -0.000627635 0)
(28.9758 -0.000481643 0)
(29.1426 -0.000400257 0)
(29.2961 -0.000308637 0)
(29.4091 -0.000218842 0)
(29.5014 -0.000155581 0)
(29.5667 -0.000122505 0)
(29.6367 -9.67788e-05 0)
(29.6814 -3.58762e-05 0)
(-0.642294 0.148011 0)
(-3.78113 0.29332 0)
(-10.2212 0.294255 0)
(-13.2924 0.0537718 0)
(-11.2983 -0.116214 0)
(-8.55132 -0.0998912 0)
(-7.12439 -0.0594856 0)
(-5.89455 -0.0772923 0)
(-3.60292 -0.111152 0)
(-0.336909 -0.132517 0)
(3.77857 -0.120925 0)
(7.34367 -0.102638 0)
(10.5377 -0.0793459 0)
(13.5042 -0.054793 0)
(15.3673 -0.0317817 0)
(16.502 -0.0208985 0)
(17.3986 -0.0171007 0)
(18.2456 -0.0153767 0)
(19.0799 -0.013766 0)
(19.8749 -0.0122221 0)
(20.6535 -0.0114649 0)
(21.4671 -0.0161458 0)
(23.0589 -0.0273218 0)
(25.9714 -0.0267617 0)
(27.908 -0.0128499 0)
(28.5403 -0.0040547 0)
(28.7853 -0.00189308 0)
(28.974 -0.00144584 0)
(29.1408 -0.00120168 0)
(29.2944 -0.000927318 0)
(29.4079 -0.000658608 0)
(29.5007 -0.000468371 0)
(29.5664 -0.000368091 0)
(29.6363 -0.00029097 0)
(29.6815 -0.000108301 0)
(-0.593688 0.2511 0)
(-3.93844 0.490058 0)
(-10.3808 0.482495 0)
(-13.0595 0.0791131 0)
(-10.767 -0.201991 0)
(-8.07098 -0.166026 0)
(-6.80353 -0.0969933 0)
(-5.80866 -0.119433 0)
(-3.70711 -0.173022 0)
(-0.510857 -0.213242 0)
(3.47859 -0.197367 0)
(6.99028 -0.170859 0)
(10.1207 -0.136661 0)
(13.2239 -0.0966219 0)
(15.2789 -0.0556477 0)
(16.4831 -0.0352366 0)
(17.3876 -0.0281547 0)
(18.2258 -0.0251703 0)
(19.0496 -0.0225909 0)
(19.8365 -0.0201696 0)
(20.6076 -0.0188957 0)
(21.3971 -0.0262795 0)
(22.9127 -0.0450439 0)
(25.8305 -0.0450982 0)
(27.8625 -0.0220744 0)
(28.5336 -0.00696522 0)
(28.7838 -0.00317604 0)
(28.9723 -0.00240891 0)
(29.1392 -0.00200284 0)
(29.2929 -0.00154696 0)
(29.4068 -0.00110052 0)
(29.5003 -0.000782904 0)
(29.5662 -0.000614093 0)
(29.6361 -0.000485509 0)
(29.6815 -0.000181237 0)
(-0.550648 0.355809 0)
(-4.05836 0.692345 0)
(-10.4172 0.663007 0)
(-12.6335 0.0928722 0)
(-10.0706 -0.295998 0)
(-7.53042 -0.228581 0)
(-6.43041 -0.127257 0)
(-5.61243 -0.156328 0)
(-3.60991 -0.233574 0)
(-0.437147 -0.292321 0)
(3.39894 -0.271262 0)
(6.85922 -0.235846 0)
(9.90634 -0.191811 0)
(13.0007 -0.14039 0)
(15.1941 -0.0817125 0)
(16.4686 -0.0504841 0)
(17.3823 -0.0395101 0)
(18.2107 -0.0350812 0)
(19.0238 -0.0314561 0)
(19.8041 -0.0281008 0)
(20.5693 -0.0261917 0)
(21.3374 -0.0360181 0)
(22.7911 -0.0625085 0)
(25.7096 -0.0637993 0)
(27.8212 -0.0317435 0)
(28.5274 -0.0100093 0)
(28.7825 -0.00447385 0)
(28.971 -0.00337208 0)
(29.1378 -0.00280431 0)
(29.2915 -0.00216777 0)
(29.4058 -0.00154472 0)
(29.4999 -0.00109927 0)
(29.5661 -0.000860555 0)
(29.6359 -0.000680473 0)
(29.6816 -0.000254651 0)
(-0.509885 0.461744 0)
(-4.13765 0.895221 0)
(-10.336 0.831228 0)
(-12.0158 0.0946621 0)
(-9.24924 -0.390618 0)
(-6.90365 -0.285291 0)
(-5.96009 -0.153458 0)
(-5.26954 -0.190703 0)
(-3.29267 -0.29373 0)
(-0.125321 -0.371088 0)
(3.52725 -0.343922 0)
(6.92877 -0.299547 0)
(9.87339 -0.244951 0)
(12.8571 -0.184387 0)
(15.1217 -0.109298 0)
(16.4618 -0.0663831 0)
(17.3853 -0.0509332 0)
(18.2022 -0.044928 0)
(19.0037 -0.0402713 0)
(19.7785 -0.0359938 0)
(20.5391 -0.0333752 0)
(21.288 -0.0454348 0)
(22.6921 -0.0797367 0)
(25.608 -0.0827482 0)
(27.784 -0.0417842 0)
(28.5217 -0.0131791 0)
(28.7815 -0.00578634 0)
(28.9699 -0.00433494 0)
(29.1367 -0.00360573 0)
(29.2903 -0.00278944 0)
(29.405 -0.00199101 0)
(29.4997 -0.00141731 0)
(29.5661 -0.00110732 0)
(29.6358 -0.000875669 0)
(29.6816 -0.000328358 0)
(-0.46851 0.568001 0)
(-4.17583 1.09594 0)
(-10.1431 0.984536 0)
(-11.2414 0.0844951 0)
(-8.36242 -0.485325 0)
(-6.1714 -0.336945 0)
(-5.36459 -0.176076 0)
(-4.76661 -0.223491 0)
(-2.75979 -0.353935 0)
(0.412441 -0.448501 0)
(3.89002 -0.415397 0)
(7.22425 -0.362717 0)
(10.0294 -0.296098 0)
(12.8192 -0.226927 0)
(15.0773 -0.137478 0)
(16.4686 -0.0827202 0)
(17.4014 -0.0623021 0)
(18.2045 -0.0546109 0)
(18.9922 -0.0489878 0)
(19.7615 -0.0438406 0)
(20.5179 -0.0404564 0)
(21.249 -0.0545843 0)
(22.6136 -0.0967669 0)
(25.5242 -0.101881 0)
(27.7511 -0.0521279 0)
(28.5165 -0.0164606 0)
(28.7808 -0.00711262 0)
(28.9691 -0.00529738 0)
(29.1357 -0.00440686 0)
(29.2894 -0.00341171 0)
(29.4043 -0.00243926 0)
(29.4997 -0.00173693 0)
(29.5661 -0.00135425 0)
(29.6359 -0.00107093 0)
(29.6817 -0.000402201 0)
(-0.424082 0.673616 0)
(-4.17355 1.29219 0)
(-9.84747 1.12131 0)
(-10.3752 0.0635778 0)
(-7.46616 -0.580086 0)
(-5.34456 -0.385256 0)
(-4.64559 -0.195893 0)
(-4.1307 -0.255392 0)
(-2.07233 -0.414258 0)
(1.10763 -0.523903 0)
(4.48366 -0.485182 0)
(7.76794 -0.424408 0)
(10.411 -0.344803 0)
(12.9208 -0.266997 0)
(15.0828 -0.16547 0)
(16.4983 -0.0993379 0)
(17.4366 -0.0735733 0)
(18.2229 -0.0640766 0)
(18.9934 -0.0575739 0)
(19.7558 -0.0516325 0)
(20.5069 -0.0474367 0)
(21.2204 -0.0635075 0)
(22.553 -0.113628 0)
(25.4566 -0.121148 0)
(27.7225 -0.0627155 0)
(28.5119 -0.0198405 0)
(28.7803 -0.0084519 0)
(28.9686 -0.00625931 0)
(29.1351 -0.0052075 0)
(29.2887 -0.00403436 0)
(29.4038 -0.00288936 0)
(29.4998 -0.00205803 0)
(29.5663 -0.00160121 0)
(29.636 -0.00126612 0)
(29.6818 -0.000476035 0)
(-0.374595 0.777602 0)
(-4.13209 1.48197 0)
(-9.46254 1.24116 0)
(-9.48544 0.0334569 0)
(-6.59691 -0.675033 0)
(-4.46506 -0.432109 0)
(-3.83375 -0.213458 0)
(-3.41309 -0.286525 0)
(-1.31313 -0.475063 0)
(1.86989 -0.598076 0)
(5.22782 -0.553621 0)
(8.49246 -0.483548 0)
(11.0241 -0.389862 0)
(13.2068 -0.303634 0)
(15.1702 -0.192437 0)
(16.5659 -0.116016 0)
(17.5 -0.0847158 0)
(18.2646 -0.0732827 0)
(19.0128 -0.0659859 0)
(19.7644 -0.0593436 0)
(20.5073 -0.0543045 0)
(21.2022 -0.0722295 0)
(22.508 -0.13034 0)
(25.4035 -0.140504 0)
(27.6981 -0.0734955 0)
(28.508 -0.0233061 0)
(28.7803 -0.00980333 0)
(28.9686 -0.00722062 0)
(29.1348 -0.00600739 0)
(29.2883 -0.00465712 0)
(29.4034 -0.00334117 0)
(29.5002 -0.00238049 0)
(29.5666 -0.00184806 0)
(29.6363 -0.00146106 0)
(29.6819 -0.000549708 0)
(-0.318446 0.878973 0)
(-4.05327 1.66364 0)
(-9.00548 1.34485 0)
(-8.61934 -0.00428706 0)
(-5.76772 -0.770307 0)
(-3.58387 -0.478978 0)
(-2.97119 -0.22922 0)
(-2.65439 -0.316559 0)
(-0.534479 -0.536532 0)
(2.64724 -0.67224 0)
(6.02494 -0.621928 0)
(9.28057 -0.540847 0)
(11.7796 -0.431045 0)
(13.7051 -0.335852 0)
(15.384 -0.217306 0)
(16.6958 -0.132334 0)
(17.6054 -0.0956396 0)
(18.339 -0.0821753 0)
(19.0567 -0.0741608 0)
(19.7905 -0.0669247 0)
(20.5204 -0.0610338 0)
(21.1949 -0.0807599 0)
(22.4765 -0.146916 0)
(25.3633 -0.159915 0)
(27.6779 -0.0844231 0)
(28.5048 -0.0268448 0)
(28.7807 -0.011166 0)
(28.9689 -0.00818115 0)
(29.1348 -0.00680626 0)
(29.2881 -0.00527973 0)
(29.4033 -0.00379457 0)
(29.5008 -0.00270419 0)
(29.5671 -0.00209464 0)
(29.6367 -0.00165559 0)
(29.6821 -0.000623063 0)
(-0.254396 0.976762 0)
(-3.93935 1.83597 0)
(-8.49391 1.43391 0)
(-7.79273 -0.0483441 0)
(-4.97466 -0.865866 0)
(-2.73936 -0.526764 0)
(-2.09625 -0.24381 0)
(-1.87409 -0.345107 0)
(0.245348 -0.598336 0)
(3.42573 -0.74679 0)
(6.82664 -0.690733 0)
(10.066 -0.597569 0)
(12.5586 -0.470064 0)
(14.3705 -0.363713 0)
(15.7659 -0.239026 0)
(16.9241 -0.147611 0)
(17.7752 -0.106115 0)
(18.4607 -0.0906473 0)
(19.1337 -0.082005 0)
(19.8384 -0.0743002 0)
(20.5479 -0.0675822 0)
(21.1985 -0.0890936 0)
(22.4569 -0.16336 0)
(25.3343 -0.179347 0)
(27.6617 -0.0954589 0)
(28.5025 -0.0304445 0)
(28.7815 -0.0125388 0)
(28.9696 -0.00914071 0)
(29.1352 -0.00760381 0)
(29.2883 -0.00590189 0)
(29.4035 -0.00424939 0)
(29.5017 -0.00302899 0)
(29.5677 -0.00234077 0)
(29.6372 -0.00184954 0)
(29.6823 -0.000695939 0)
(-0.181531 1.07003 0)
(-3.79285 1.9981 0)
(-7.94248 1.51003 0)
(-6.99563 -0.0979816 0)
(-4.20658 -0.961249 0)
(-1.95033 -0.57576 0)
(-1.24001 -0.258135 0)
(-1.08011 -0.372382 0)