/*--------------------------------*- C++ -*----------------------------------*\
| =========                 |                                                 |
| \\      /  F ield         | OpenFOAM: The Open Source CFD Toolbox           |
|  \\    /   O peration     | Version:  v1912                                 |
|   \\  /    A nd           | Website:  www.openfoam.com                      |
|    \\/     M anipulation  |                                                 |
\*---------------------------------------------------------------------------*/
FoamFile
{
    version     2.0;
    format      ascii;
    class       volScalarField;
    location    "80";
    object      yPlus;
}
// * * * * * * * * * * * * * * * * * * * * * * * * * * * * * * * * * * * * * //

dimensions      [0 0 0 0 0 0 0];


internalField   uniform 0;

boundaryField
{
    inlet
    {
        type            calculated;
        value           uniform 0;
    }
    outlet
    {
        type            calculated;
        value           uniform 0;
    }
    lowerSymmetry
    {
        type            symmetryPlane;
    }
    obstical
    {
        type            calculated;
        value           nonuniform List<scalar> 
88
(
530.829
532.063
535.322
541.039
549.144
559.519
572.041
586.585
603.021
621.221
641.057
662.401
685.129
709.124
734.276
760.485
787.659
815.722
844.605
874.255
904.627
935.687
967.411
999.783
1032.8
1066.45
1100.74
1135.7
1171.32
1207.63
1244.65
1282.4
1320.9
1360.18
1400.25
1441.13
1482.85
1525.42
1568.88
1613.23
1658.5
1704.77
1752.35
1805.2
72.4114
69.0204
67.7292
68.7072
71.5685
75.8305
81.045
86.8576
93.0161
99.3531
105.767
112.202
118.638
125.079
131.545
138.064
144.67
151.394
158.254
165.234
172.257
179.14
185.773
192.08
197.994
203.447
208.358
212.626
216.113
218.624
219.881
219.488
216.917
211.531
202.687
189.901
172.981
152.064
127.596
100.471
73.4261
57.75
72.1719
106.031
)
;
    }
    obsticalTop
    {
        type            calculated;
        value           nonuniform List<scalar> 
20
(
52.1708
35.8335
45.0185
51.5911
54.6828
56.5147
57.2821
57.1786
56.4291
55.1752
53.4127
51.0576
48.044
44.2323
39.6076
33.5851
27.808
19.0176
16.9456
10.0837
)
;
    }
    top
    {
        type            calculated;
        value           uniform 0;
    }
    defaultFaces
    {
        type            empty;
    }
}


// ************************************************************************* //
