/*--------------------------------*- C++ -*----------------------------------*\
| =========                 |                                                 |
| \\      /  F ield         | OpenFOAM: The Open Source CFD Toolbox           |
|  \\    /   O peration     | Version:  v1912                                 |
|   \\  /    A nd           | Website:  www.openfoam.com                      |
|    \\/     M anipulation  |                                                 |
\*---------------------------------------------------------------------------*/
FoamFile
{
    version     2.0;
    format      ascii;
    class       volVectorField;
    location    "250";
    object      U;
}
// * * * * * * * * * * * * * * * * * * * * * * * * * * * * * * * * * * * * * //

dimensions      [0 1 -1 0 0 0 0];


internalField   nonuniform List<vector> 
2000
(
(0.843124 0.195894 0)
(0.511694 0.132652 0)
(0.222178 0.0718675 0)
(0.0611308 0.0151952 7.36624e-20)
(-0.00472307 -0.0308139 1.61495e-17)
(-0.0578425 -0.0466254 1.46126e-17)
(-0.0677105 -0.0370033 0)
(-0.0630647 -0.00535555 0)
(-0.0519179 0.0271956 0)
(-0.0492983 0.024241 3.23176e-17)
(-0.0421218 0.0127353 -2.00324e-17)
(-0.0370446 0.00774431 -1.86554e-17)
(-0.0427893 0.00599655 0)
(-0.047382 0.00555736 0)
(-0.0484622 0.0058606 -1.44393e-17)
(-0.0490084 0.00725658 0)
(-0.0510734 0.00817603 1.28134e-17)
(-0.0541302 0.0086159 -1.20993e-21)
(-0.0575451 0.00887869 1.22174e-17)
(-0.0612552 0.00927504 -5.98029e-18)
(-0.0654508 0.00989502 1.17344e-17)
(-0.0703466 0.0107551 0)
(-0.076137 0.0118536 0)
(-0.0829963 0.0131585 6.09292e-21)
(-0.091058 0.0145874 0)
(-0.100377 0.0160041 -5.36375e-18)
(-0.110898 0.0172377 0)
(-0.122448 0.018115 5.15981e-18)
(-0.134736 0.0184892 0)
(-0.147381 0.0182557 0)
(-0.159963 0.0173676 0)
(-0.172073 0.0158398 1.20346e-18)
(-0.183346 0.0137384 0)
(-0.193485 0.0111642 -5.91275e-19)
(-0.202273 0.00823492 1.96804e-14)
(-0.209577 0.00507092 1.95549e-14)
(-0.215336 0.00178532 6.03796e-19)
(-0.219515 -0.00152381 -6.07451e-19)
(-0.222068 -0.00475987 0)
(-0.223022 -0.00778253 2.55689e-18)
(-0.22276 -0.0104998 0)
(-0.22158 -0.0129365 -2.73206e-18)
(-0.219404 -0.0152084 0)
(-0.216244 -0.017367 -5.89085e-18)
(-0.212076 -0.0194277 3.09087e-18)
(-0.206871 -0.0213879 0)
(-0.200591 -0.0232358 0)
(-0.193199 -0.0249538 -3.60855e-18)
(-0.184659 -0.0265213 0)
(-0.174936 -0.0279157 4.03553e-18)
(-0.164002 -0.029113 0)
(-0.151836 -0.0300876 9.25823e-18)
(-0.138421 -0.0308126 -9.91901e-18)
(-0.123739 -0.0312615 1.06527e-17)
(-0.107777 -0.0314164 -5.68789e-18)
(-0.0905284 -0.0312654 0)
(-0.0719917 -0.0307906 6.62985e-18)
(-0.0521747 -0.0299747 -7.18025e-18)
(-0.0311255 -0.0287958 -1.57381e-17)
(-0.00895034 -0.0272037 1.68826e-17)
(0.0144111 -0.0251 -1.76409e-17)
(0.0391324 -0.0224865 1.77905e-17)
(0.0650038 -0.0193758 -1.7886e-17)
(0.0920633 -0.0157762 1.81882e-17)
(0.120328 -0.0116909 -2.90305e-19)
(0.149794 -0.00711853 1.78099e-17)
(0.18046 -0.00205531 0)
(0.212346 0.003504 0)
(0.24549 0.00956554 4.19261e-19)
(0.279954 0.0161365 0)
(0.315826 0.0232249 1.66363e-17)
(0.353233 0.0308398 0)
(0.392344 0.0389876 1.52987e-17)
(0.433439 0.0476745 -6.54258e-19)
(0.476763 0.0568671 1.33175e-17)
(0.523338 0.0665628 2.32225e-17)
(0.57233 0.0764053 8.25078e-19)
(0.631679 0.0864125 -8.36622e-18)
(0.680559 0.0946974 -5.62282e-18)
(0.800305 0.0970123 0)
(1.01525 0.211455 0)
(0.942826 0.196059 0)
(0.799522 0.180995 -4.45297e-18)
(0.646024 0.151799 9.4001e-18)
(0.497047 0.108994 0)
(0.345476 0.0652248 -1.0329e-17)
(0.198248 0.0242642 0)
(0.058171 -0.00898536 0)
(-0.026247 -0.0142216 0)
(-0.0346149 -0.0242335 -2.38736e-17)
(-0.0513502 -0.0183283 2.21166e-17)
(-0.0489863 0.00642403 2.0578e-17)
(-0.0441485 0.0222275 0)
(-0.0455158 0.0182336 8.60523e-18)
(-0.0470008 0.0110919 0)
(-0.0497333 0.0103715 0)
(-0.0537033 0.0118127 0)
(-0.0577258 0.0130035 6.79861e-18)
(-0.0615576 0.0138636 -1.32347e-17)
(-0.065369 0.0148422 -6.45121e-18)
(-0.0693847 0.0161509 0)
(-0.0736802 0.0177969 0)
(-0.0782491 0.0197464 0)
(-0.0830696 0.0219534 -8.85525e-18)
(-0.0881083 0.0243027 0)
(-0.0932945 0.0265923 5.66336e-18)
(-0.0984976 0.0285636 2.77907e-18)
(-0.103528 0.0299576 0)
(-0.108164 0.0305658 0)
(-0.112196 0.0302625 0)
(-0.115452 0.0290181 0)
(-0.117819 0.0268931 -6.38382e-19)
(-0.119248 0.0240176 0)
(-0.119752 0.0205629 3.14236e-19)
(-0.119395 0.0167136 1.55929e-19)
(-0.118287 0.0126437 0)
(-0.116596 0.00851066 0)
(-0.114517 0.00445577 6.37565e-19)
(-0.112125 0.000557063 0)
(-0.109602 -0.00316483 -1.32239e-18)
(-0.106776 -0.00667749 0)
(-0.103253 -0.0100114 -1.38441e-18)
(-0.0990625 -0.0132662 0)
(-0.0941365 -0.016491 1.50487e-18)
(-0.0884014 -0.0197017 1.53998e-18)
(-0.0817967 -0.0228906 0)
(-0.0742729 -0.0260367 0)
(-0.0657879 -0.0291104 -3.52602e-18)
(-0.0563058 -0.0320767 0)
(-0.0457962 -0.034898 -3.82132e-20)
(-0.0342335 -0.0375351 0)
(-0.0215963 -0.0399483 0)
(-0.00786831 -0.0420979 0)
(0.0069615 -0.043938 0)
(0.0228909 -0.0454279 1.00963e-17)
(0.039914 -0.0465327 0)
(0.0580313 -0.0472156 -1.06807e-17)
(0.0772401 -0.0474419 5.52142e-18)
(0.0975374 -0.0471814 -5.57262e-18)
(0.118924 -0.0464096 -1.15858e-17)
(0.14139 -0.045097 1.18322e-17)
(0.164894 -0.0432301 -1.20563e-17)
(0.189394 -0.0407786 1.22558e-17)
(0.214903 -0.0377339 0)
(0.241439 -0.034095 -1.86774e-17)
(0.269021 -0.0298639 -1.26504e-17)
(0.29767 -0.0250451 0)
(0.327427 -0.0196457 6.12452e-18)
(0.358348 -0.0136755 1.26017e-17)
(0.390512 -0.00714676 0)
(0.424025 -7.56296e-05 0)
(0.459025 0.00751561 0)
(0.495696 0.0155909 0)
(0.53428 0.0240923 -1.07897e-17)
(0.575078 0.0328912 4.60139e-18)
(0.618571 0.0418103 -9.01651e-18)
(0.664939 0.0501986 7.75426e-18)
(0.716379 0.0577317 -2.63578e-18)
(0.764644 0.0609581 0)
(0.845265 0.0553493 0)
(0.978937 0.202903 0)
(0.979956 0.1965 -3.67338e-18)
(0.969218 0.209705 4.39316e-18)
(0.935919 0.213212 -3.93516e-18)
(0.869979 0.198603 3.82252e-18)
(0.771588 0.171835 3.87367e-18)
(0.649172 0.139791 0)
(0.514351 0.105394 0)
(0.376429 0.0711109 0)
(0.254329 0.0381086 9.89472e-18)
(0.138942 0.00895895 0)
(0.0395292 -0.00757118 0)
(8.96785e-05 -0.000727637 0)
(-0.00420904 -0.00117816 -9.93697e-18)
(-0.0146169 0.00143417 0)
(-0.0189081 0.0104064 -8.47917e-18)
(-0.0223272 0.0161288 0)
(-0.0262453 0.0170211 7.81483e-18)
(-0.0300124 0.0164205 3.79437e-18)
(-0.0332239 0.016509 0)
(-0.0357988 0.0174819 -3.60344e-18)
(-0.037802 0.0189388 0)
(-0.0392133 0.0206745 0)
(-0.0400015 0.0226112 6.73117e-18)
(-0.0401751 0.0246386 0)
(-0.0397756 0.0265525 1.61868e-18)
(-0.0388594 0.0280847 -4.75714e-18)
(-0.0374893 0.0289667 0)
(-0.0357372 0.028989 0)
(-0.033685 0.0280422 -7.52e-19)
(-0.0314172 0.0261278 0)
(-0.0290072 0.0233437 1.68367e-21)
(-0.0265085 0.019857 0)
(-0.0239484 0.0158713 7.15999e-19)
(-0.0213283 0.0116004 8.93534e-20)
(-0.0186116 0.00723582 0)
(-0.0157085 0.00292699 1.80237e-19)
(-0.0125465 -0.00122699 -3.63998e-19)
(-0.00903148 -0.00510315 -3.68646e-19)
(-0.00513107 -0.00873902 -7.49976e-19)
(-0.000673984 -0.0122896 7.65292e-19)
(0.00447159 -0.015898 7.81274e-19)
(0.0103184 -0.0196003 0)
(0.0168802 -0.0233969 1.62782e-18)
(0.0241783 -0.0272714 -3.33133e-18)
(0.0322354 -0.0311965 0)
(0.0410733 -0.0351379 -1.75374e-18)
(0.0507132 -0.039056 3.61846e-18)
(0.0611738 -0.0429078 0)
(0.072472 -0.0466476 -1.92845e-18)
(0.0846215 -0.0502283 1.97558e-18)
(0.0976327 -0.0536021 -2.03816e-18)
(0.111512 -0.0567214 -2.10275e-18)
(0.126264 -0.059539 0)
(0.141887 -0.0620078 -4.49758e-18)
(0.158379 -0.0640809 -2.30297e-18)
(0.175735 -0.0657151 2.40419e-18)
(0.19395 -0.0668721 2.43494e-18)
(0.21302 -0.06752 5.04197e-18)
(0.23294 -0.0676364 0)
(0.253703 -0.0672099 0)
(0.275296 -0.06623 0)
(0.297718 -0.0646763 -2.7091e-18)
(0.320982 -0.06254 0)
(0.345114 -0.0598241 5.64326e-18)
(0.370146 -0.0565393 0)
(0.396124 -0.0527019 -2.79667e-18)
(0.423106 -0.0483333 -5.70369e-18)
(0.451171 -0.0434599 0)
(0.480419 -0.0381138 -2.71675e-18)
(0.510973 -0.0323338 2.64937e-18)
(0.542984 -0.0261692 0)
(0.576635 -0.0196872 0)
(0.612145 -0.0129872 0)
(0.649756 -0.00622845 -4.36188e-18)
(0.68979 0.000327376 0)
(0.732241 0.00620112 -1.52223e-18)
(0.778381 0.0107214 2.51635e-18)
(0.821609 0.0123991 0)
(0.888688 0.00846464 3.77933e-19)
(0.970709 0.210798 0)
(0.964257 0.199169 2.07023e-18)
(0.966631 0.204805 0)
(0.976262 0.213728 2.18102e-18)
(0.978819 0.216553 -3.96135e-18)
(0.961445 0.211966 -1.84056e-18)
(0.919063 0.201103 0)
(0.853311 0.183867 0)
(0.765675 0.159627 0)
(0.661623 0.131219 1.9011e-18)
(0.547841 0.10241 1.97388e-18)
(0.430134 0.0744097 0)
(0.317227 0.0489947 0)
(0.221129 0.0270865 0)
(0.142384 0.012452 0)
(0.0868032 0.00651676 8.6614e-18)
(0.059403 0.00709631 -4.30606e-18)
(0.0481841 0.00972355 0)
(0.0415175 0.0123702 -4.17776e-18)
(0.0363472 0.0148361 2.05814e-18)
(0.0325174 0.016753 4.0361e-18)
(0.0301045 0.0179769 0)
(0.0291384 0.0188484 0)
(0.0295477 0.0197384 -3.79808e-18)
(0.0312302 0.0207684 0)
(0.034056 0.0218295 -1.81204e-18)
(0.0378519 0.0226949 1.76693e-18)
(0.0424033 0.023118 0)
(0.0474732 0.0228982 0)
(0.0528298 0.0219181 8.17785e-19)
(0.0582745 0.0201532 0)
(0.063663 0.0176578 -7.81506e-19)
(0.0689124 0.0145438 0)
(0.0740017 0.0109511 -1.87982e-19)
(0.0789572 0.00702844 -9.36397e-20)
(0.0838678 0.00290622 -2.34214e-20)
(0.0888222 -0.00130694 -2.79243e-19)
(0.0939785 -0.00555376 3.71564e-19)
(0.0995031 -0.00981881 3.7281e-19)
(0.10547 -0.0140735 1.12838e-18)
(0.111961 -0.0183349 -3.78266e-19)
(0.119037 -0.0226538 3.83804e-19)
(0.126713 -0.0270606 0)
(0.134994 -0.031562 8.02175e-19)
(0.143879 -0.0361472 8.14729e-19)
(0.15337 -0.040793 0)
(0.16347 -0.0454667 1.71945e-18)
(0.174179 -0.0501288 8.86406e-19)
(0.185501 -0.0547346 0)
(0.197438 -0.0592362 -2.81785e-18)
(0.209989 -0.0635827 -1.93722e-18)
(0.223154 -0.0677223 9.98922e-19)
(0.23693 -0.0716025 2.06604e-18)
(0.251313 -0.0751708 0)
(0.266297 -0.0783764 1.1012e-18)
(0.281877 -0.0811712 3.40997e-18)
(0.298047 -0.0835114 2.34523e-18)
(0.314803 -0.0853582 -2.41563e-18)
(0.332142 -0.0866799 -1.23736e-18)
(0.350066 -0.0874533 0)
(0.368577 -0.0876635 0)
(0.387684 -0.0873003 0)
(0.407403 -0.0863575 4.07631e-18)
(0.427765 -0.0848378 1.37183e-18)
(0.448812 -0.0827542 0)
(0.470598 -0.0801278 -2.79729e-18)
(0.493192 -0.0769862 2.84523e-18)
(0.516679 -0.0733634 -2.79948e-18)
(0.541162 -0.0692989 -2.77558e-18)
(0.566761 -0.0648384 5.25601e-20)
(0.593619 -0.0600343 -2.72027e-18)
(0.6219 -0.0549492 0)
(0.65179 -0.0496612 0)
(0.683495 -0.0442758 0)
(0.717215 -0.0389411 0)
(0.753198 -0.0338849 0)
(0.79131 -0.0294333 3.08533e-18)
(0.832637 -0.0261149 -1.15101e-18)
(0.870917 -0.0245067 0)
(0.930375 -0.0261107 -3.91528e-19)
(0.972919 0.21779 0)
(0.965116 0.20638 2.41042e-18)
(0.957351 0.202157 3.13354e-19)
(0.958491 0.20329 2.44301e-18)
(0.968839 0.206094 0)
(0.980947 0.208572 -2.13829e-18)
(0.986625 0.209216 0)
(0.980296 0.206198 -4.87958e-19)
(0.958009 0.198055 0)
(0.917112 0.184733 -2.22006e-18)
(0.858159 0.167627 -1.74156e-18)
(0.783684 0.147345 -4.4362e-19)
(0.695921 0.1242 4.45185e-19)
(0.600631 0.0999424 0)
(0.50337 0.0768125 4.54884e-19)
(0.409409 0.056209 0)
(0.327421 0.0393538 3.75983e-18)
(0.263294 0.0271983 -4.89724e-19)
(0.217214 0.019744 0)
(0.186601 0.0160979 -2.48775e-18)
(0.167437 0.0148747 0)
(0.155787 0.0148784 0)
(0.14885 0.0153765 0)
(0.145048 0.0159858 0)
(0.143627 0.0165061 -2.36494e-19)
(0.144221 0.0168288 0)
(0.146558 0.0168789 0)
(0.150343 0.0165769 1.11298e-19)
(0.155252 0.0158334 0)
(0.160958 0.0145697 0)
(0.167171 0.0127422 0)
(0.173663 0.0103493 -5.1131e-20)
(0.180266 0.00743375 0)
(0.186881 0.00405078 -2.21344e-19)
(0.193484 0.000266985 0)
(0.200124 -0.00381306 2.40856e-20)
(0.206891 -0.00811456 1.19896e-19)
(0.213864 -0.012567 2.41282e-20)
(0.221128 -0.0171401 -4.83483e-20)
(0.228753 -0.0218095 -3.85107e-19)
(0.236792 -0.026565 -3.88813e-19)
(0.245281 -0.0314117 3.93863e-19)
(0.254233 -0.0363538 -1.0101e-19)
(0.263644 -0.0413857 -8.15645e-19)
(0.273504 -0.0464919 8.33363e-19)
(0.283801 -0.0516474 -1.07625e-19)
(0.294524 -0.0568191 0)
(0.305659 -0.0619674 -9.01019e-19)
(0.317195 -0.0670472 0)
(0.329119 -0.0720097 9.5752e-19)
(0.341418 -0.0768031 0)
(0.354082 -0.0813742 1.02204e-18)
(0.367098 -0.0856693 0)
(0.380455 -0.0896354 -2.74304e-19)
(0.394143 -0.0932217 -1.13038e-18)
(0.408153 -0.0963813 -1.16846e-18)
(0.422482 -0.099072 3.01981e-19)
(0.437128 -0.101258 0)
(0.452096 -0.102913 1.28326e-18)
(0.467396 -0.104016 -3.29205e-19)
(0.483048 -0.104557 0)
(0.499077 -0.104535 3.45389e-19)
(0.515521 -0.103955 -1.41807e-18)
(0.532431 -0.102832 -1.4441e-18)
(0.549872 -0.101188 0)
(0.567925 -0.0990559 2.9618e-18)
(0.586682 -0.0964736 0)
(0.606253 -0.0934851 2.97991e-18)
(0.626765 -0.0901398 2.96156e-18)
(0.648361 -0.0864919 2.9207e-18)
(0.671202 -0.0826008 3.51314e-19)
(0.695465 -0.0785331 0)
(0.721341 -0.0743655 0)
(0.749036 -0.0701926 0)
(0.778727 -0.0661304 -2.73113e-19)
(0.810647 -0.0623483 0)
(0.844579 -0.059023 -1.42965e-18)
(0.88169 -0.0565318 1.39182e-18)
(0.915634 -0.0549338 9.3657e-20)
(0.969889 -0.0548055 4.89716e-20)
(0.974031 0.220517 -1.50123e-18)
(0.969589 0.21179 1.45645e-18)
(0.961607 0.205778 -3.55023e-19)
(0.955327 0.202584 0)
(0.954929 0.20072 0)
(0.960643 0.199773 0)
(0.970532 0.199762 0)
(0.981813 0.199945 1.67646e-18)
(0.990827 0.198994 0)
(0.993065 0.195663 -1.51144e-18)
(0.984691 0.189361 -1.9007e-18)
(0.963669 0.179972 4.43101e-19)
(0.929021 0.167456 1.33111e-18)
(0.880793 0.151829 0)
(0.820379 0.133893 -2.08763e-18)
(0.750221 0.114712 0)
(0.67571 0.0955913 -1.68777e-18)
(0.603093 0.077892 4.25194e-19)
(0.536257 0.0623727 -1.77608e-18)
(0.477616 0.0493487 -1.36894e-18)
(0.428596 0.0388891 0)
(0.389611 0.0308729 0)
(0.36011 0.0250043 -9.36853e-19)
(0.338832 0.0208597 0)
(0.324222 0.0179688 -7.00655e-19)
(0.314807 0.0158879 0)
(0.309374 0.0142367 0)
(0.306996 0.0127056 -1.11163e-19)
(0.306975 0.011055 0)
(0.308779 0.00911685 0)
(0.311979 0.00679492 0)
(0.31624 0.00405136 5.22823e-20)
(0.321293 0.00086736 2.09153e-19)
(0.326917 -0.00274043 1.28824e-19)
(0.333 -0.00670768 0)
(0.339468 -0.0109898 0)
(0.346273 -0.0155347 -2.48337e-20)
(0.353408 -0.0202879 -1.25636e-19)
(0.360886 -0.0252086 4.97611e-20)
(0.36872 -0.030267 0)
(0.376924 -0.0354428 0)
(0.3855 -0.0407233 -2.08316e-19)
(0.394442 -0.0460964 1.04266e-19)
(0.403731 -0.0515458 -4.316e-19)
(0.413345 -0.0570491 4.41085e-19)
(0.423257 -0.0625777 1.11416e-19)
(0.433441 -0.0680966 0)
(0.443869 -0.0735654 4.7731e-19)
(0.454515 -0.0789385 0)
(0.465352 -0.0841671 0)
(0.476356 -0.0891996 0)
(0.487504 -0.0939833 0)
(0.498776 -0.0984656 0)
(0.510155 -0.102596 2.8828e-19)
(0.521629 -0.106325 0)
(0.533189 -0.109612 1.24234e-18)
(0.544836 -0.112417 -3.20016e-19)
(0.556576 -0.114713 0)
(0.568427 -0.116479 1.36714e-18)
(0.580414 -0.117703 3.5208e-19)
(0.592573 -0.118383 1.44616e-18)
(0.604954 -0.118527 -3.71714e-19)
(0.617619 -0.118153 0)
(0.630642 -0.117285 -1.54477e-18)
(0.644115 -0.115956 0)
(0.65814 -0.114208 0)
(0.672835 -0.112088 -1.5969e-18)
(0.688333 -0.109647 0)
(0.704778 -0.106941 0)
(0.722332 -0.104028 -1.56749e-18)
(0.741166 -0.100971 -3.86947e-19)
(0.76147 -0.0978345 0)
(0.783438 -0.094689 0)
(0.807277 -0.0916126 0)
(0.833157 -0.0886861 3.02066e-19)
(0.861323 -0.0860226 -1.04669e-18)
(0.891496 -0.0836746 -2.19811e-19)
(0.925043 -0.0818878 -1.67268e-19)
(0.955318 -0.0804347 -1.03447e-19)
(1.00578 -0.0791544 -2.62281e-19)
(0.974215 0.221531 5.21079e-18)
(0.971746 0.214828 -5.0255e-18)
(0.96669 0.20968 0)
(0.960969 0.206003 -3.2094e-18)
(0.956637 0.202434 0)
(0.954651 0.198601 -2.93389e-18)
(0.955725 0.195147 0)
(0.960626 0.192512 3.97048e-18)
(0.969292 0.190461 -4.96331e-18)
(0.980188 0.188429 2.28555e-18)
(0.990707 0.185833 2.14502e-18)
(0.998083 0.18215 0)
(0.999817 0.176793 -5.8154e-18)
(0.993596 0.169136 -3.71315e-18)
(0.977763 0.159122 5.27024e-18)
(0.951638 0.147071 0)
(0.91654 0.133571 1.64333e-18)
(0.875169 0.119366 0)
(0.829959 0.105039 1.6625e-18)
(0.783097 0.0910955 1.68175e-18)
(0.736619 0.0779587 0)
(0.692289 0.0659171 0)
(0.651514 0.0551269 -9.10348e-19)
(0.615312 0.0456382 0)
(0.584309 0.0374168 8.84626e-19)
(0.558742 0.0303556 0)
(0.538488 0.0242883 0)
(0.523131 0.01901 0)
(0.512066 0.014301 0)
(0.504613 0.00995081 0)
(0.500109 0.00577723 0)
(0.497959 0.00162524 0)
(0.497706 -0.00260788 2.20923e-19)
(0.498955 -0.00699613 -1.05172e-19)
(0.501391 -0.0115864 5.32391e-20)
(0.504775 -0.0164032 0)
(0.508948 -0.0214432 0)
(0.513795 -0.026683 1.03988e-19)
(0.519233 -0.0320904 -4.2714e-19)
(0.525192 -0.0376331 4.3103e-19)
(0.531616 -0.0432837 0)
(0.538455 -0.0490194 1.10317e-18)
(0.545659 -0.0548196 -9.02316e-19)
(0.553182 -0.060662 -4.69489e-19)
(0.560972 -0.0665202 -4.6286e-19)
(0.568983 -0.072363 0)
(0.577167 -0.078154 0)
(0.585476 -0.083852 -1.53e-18)
(0.593867 -0.089412 0)
(0.602298 -0.0947858 0)
(0.610732 -0.0999238 0)
(0.619138 -0.104776 1.17221e-18)
(0.62749 -0.109293 2.42932e-18)
(0.635769 -0.11343 0)
(0.643965 -0.117145 0)
(0.652079 -0.120401 -1.3439e-18)
(0.660121 -0.12317 0)
(0.668113 -0.125432 2.8967e-18)
(0.67609 -0.127175 1.49951e-18)
(0.684101 -0.1284 0)
(0.692207 -0.129115 1.58879e-18)
(0.700482 -0.129337 3.26533e-18)
(0.709014 -0.129095 3.34527e-18)
(0.717903 -0.128422 1.71402e-18)
(0.727262 -0.127361 -3.47657e-18)
(0.737215 -0.125959 3.52287e-18)
(0.747897 -0.124269 5.33836e-18)
(0.759454 -0.122347 0)
(0.772042 -0.12025 0)
(0.785827 -0.11804 1.76379e-18)
(0.800986 -0.115775 0)
(0.817708 -0.11352 3.31453e-18)
(0.836186 -0.111334 3.15654e-18)
(0.856626 -0.10928 0)
(0.879191 -0.10741 2.68285e-18)
(0.904156 -0.105789 -1.17141e-18)
(0.931178 -0.104374 0)
(0.961893 -0.103294 0)
(0.989219 -0.102168 0)
(1.03706 -0.1002 -2.23634e-19)
(0.974268 0.222146 -3.98636e-18)
(0.97248 0.216651 3.83262e-18)
(0.96904 0.212054 -7.56827e-18)
(0.965138 0.208417 3.63518e-18)
(0.961702 0.204786 0)
(0.958703 0.200568 3.32602e-18)
(0.956149 0.195948 -6.41256e-18)
(0.954823 0.191294 -6.01657e-18)
(0.955832 0.186787 -8.73081e-20)
(0.959859 0.18252 0)
(0.96688 0.17855 0)
(0.976232 0.174762 4.85775e-18)
(0.986723 0.17076 4.4741e-18)
(0.996635 0.166013 -4.40753e-18)
(1.00402 0.160188 -1.20885e-17)
(1.00708 0.15311 0)
(1.00469 0.144804 0)
(0.996642 0.135514 0)
(0.983392 0.125491 0)
(0.965681 0.115003 0)
(0.944417 0.104296 0)
(0.920561 0.0935735 0)
(0.895055 0.0830104 1.76132e-18)
(0.868798 0.07276 -3.62933e-18)
(0.842634 0.0629431 0)
(0.817332 0.0536353 0)
(0.793557 0.0448639 0)
(0.771847 0.0366149 0)
(0.752588 0.0288442 0)
(0.736006 0.0214892 -9.16326e-19)
(0.72217 0.0144747 0)
(0.711025 0.00772997 0)
(0.702343 0.00116193 1.22817e-20)
(0.696046 -0.00527289 0)
(0.691881 -0.0116174 -5.51414e-20)
(0.6895 -0.0178884 0)
(0.688574 -0.024106 2.26974e-19)
(0.688833 -0.0302978 0)
(0.690061 -0.0364893 9.08707e-19)
(0.692092 -0.0426975 -4.53939e-19)
(0.694789 -0.048929 -9.4533e-19)
(0.69804 -0.0551803 -9.39077e-19)
(0.701744 -0.0614394 9.59254e-19)
(0.705811 -0.0676855 9.82532e-19)
(0.710152 -0.0738911 2.06247e-18)
(0.714687 -0.0800232 2.12082e-18)
(0.71934 -0.0860441 0)
(0.724044 -0.0919129 -1.14875e-18)
(0.728736 -0.0975861 0)
(0.733364 -0.103019 0)
(0.737885 -0.108167 -2.50436e-18)
(0.742265 -0.112986 -1.28243e-18)
(0.746484 -0.117434 3.08407e-20)
(0.750532 -0.121475 0)
(0.754412 -0.125076 0)
(0.758143 -0.128213 0)
(0.761758 -0.130867 3.13292e-18)
(0.765304 -0.133031 -3.23347e-18)
(0.768843 -0.134705 -3.35176e-18)
(0.77245 -0.135899 0)
(0.776214 -0.136634 -3.58232e-18)
(0.780235 -0.136935 -9.30423e-22)
(0.784621 -0.136839 -3.792e-18)
(0.789492 -0.136386 3.87584e-18)
(0.794974 -0.135623 1.00125e-20)
(0.801198 -0.134601 -4.02368e-18)
(0.808304 -0.133373 -4.06612e-18)
(0.816437 -0.131996 0)
(0.825748 -0.130527 0)
(0.836397 -0.129024 0)
(0.84855 -0.127546 0)
(0.862385 -0.12615 -3.8216e-18)
(0.878084 -0.124888 -3.64178e-18)
(0.895847 -0.123813 0)
(0.915826 -0.12295 -3.09615e-18)
(0.938334 -0.122332 5.43357e-18)
(0.962962 -0.121848 0)
(0.991656 -0.121521 0)
(1.01679 -0.120894 0)
(1.06318 -0.118621 1.02963e-18)
(0.974307 0.222606 9.3807e-18)
(0.972773 0.21791 0)
(0.96991 0.213549 1.72901e-17)
(0.966846 0.209742 0)
(0.964431 0.206063 8.07984e-18)
(0.962486 0.202027 0)
(0.960481 0.197512 7.26664e-18)
(0.958356 0.19258 0)
(0.956553 0.187282 -6.7565e-18)
(0.955677 0.181711 0)
(0.956332 0.17606 1.19992e-17)
(0.959045 0.170494 -5.58543e-18)
(0.964119 0.165019 0)
(0.971417 0.159498 9.93785e-18)
(0.980322 0.153783 -1.95345e-19)
(0.989895 0.147705 -9.02605e-18)
(0.998888 0.141183 8.73858e-18)
(1.00617 0.134244 0)
(1.01111 0.126888 0)
(1.01342 0.119146 8.24308e-18)
(1.01307 0.111081 0)
(1.01019 0.102768 -4.02673e-18)
(1.00503 0.094287 0)
(0.997902 0.0857146 3.864e-18)
(0.989132 0.0771122 0)
(0.979074 0.0685217 3.94462e-18)
(0.968076 0.0599685 0)
(0.956473 0.051469 0)
(0.944588 0.0430361 1.9672e-18)
(0.932719 0.0346811 9.563e-19)
(0.921139 0.0264134 0)
(0.910077 0.0182371 0)
(0.899748 0.0101587 -1.47846e-18)
(0.890151 0.00216246 0)
(0.881471 -0.00575738 0)
(0.873873 -0.0135918 0)
(0.867435 -0.0213191 -2.43533e-19)
(0.862153 -0.0289217 0)
(0.857961 -0.0363905 -1.52108e-18)
(0.854744 -0.0437225 -1.03862e-18)
(0.852364 -0.0509167 1.02633e-18)
(0.850668 -0.0579722 0)
(0.84951 -0.0648855 0)
(0.848751 -0.0716489 2.25954e-18)
(0.848269 -0.0782494 -2.26732e-18)
(0.847956 -0.0846683 -2.33903e-18)
(0.847722 -0.0908817 0)
(0.847492 -0.0968609 -5.01393e-20)
(0.847205 -0.102574 2.64657e-18)
(0.846815 -0.107988 0)
(0.84629 -0.113068 2.80812e-18)
(0.845615 -0.117781 2.96324e-18)
(0.844788 -0.122099 -3.04478e-18)
(0.843826 -0.125996 0)
(0.842761 -0.129454 0)
(0.84164 -0.132459 0)
(0.840526 -0.135008 -3.58157e-18)
(0.839497 -0.137104 0)
(0.83864 -0.138759 0)
(0.838054 -0.139994 0)
(0.837845 -0.140833 8.30339e-18)
(0.838125 -0.14131 -4.27683e-18)
(0.839009 -0.141464 0)
(0.840614 -0.141337 -4.5129e-18)
(0.843061 -0.140975 -4.60093e-18)
(0.84647 -0.140427 9.36566e-18)
(0.850965 -0.139745 -9.47514e-18)
(0.856674 -0.138983 -9.53024e-18)
(0.863726 -0.138194 0)
(0.872259 -0.137433 -9.43283e-18)
(0.882419 -0.136755 0)
(0.894363 -0.136214 0)
(0.908254 -0.135857 0)
(0.924283 -0.135728 8.02072e-18)
(0.942587 -0.13584 -7.31664e-18)
(0.963522 -0.136201 -9.64002e-18)
(0.986609 -0.136659 0)
(1.01414 -0.137142 4.08563e-18)
(1.03785 -0.137168 0)
(1.08396 -0.134932 -1.77601e-18)
(0.974319 0.222965 -1.06827e-17)
(0.972879 0.218869 -1.03287e-17)
(0.970246 0.214688 -1.9871e-17)
(0.967479 0.210705 0)
(0.965408 0.206839 -1.84494e-17)
(0.964014 0.202775 -8.85009e-18)
(0.962858 0.198347 0)
(0.961675 0.193541 1.60799e-17)
(0.960427 0.188324 1.51164e-17)
(0.959156 0.182654 0)
(0.958005 0.176577 -1.36291e-17)
(0.957296 0.170203 0)
(0.957495 0.16362 0)
(0.959026 0.156861 1.17996e-17)
(0.962144 0.149958 1.09898e-17)
(0.966918 0.142928 -1.88786e-19)
(0.97305 0.135864 1.92507e-19)
(0.97995 0.128858 0)
(0.987063 0.12186 0)
(0.993927 0.114813 -9.47866e-18)
(1.00019 0.107683 -9.53649e-18)
(1.00562 0.100458 1.40039e-17)
(1.01008 0.0931375 4.64912e-18)
(1.01351 0.0857295 4.60306e-18)
(1.0159 0.0782426 0)
(1.01729 0.0706806 -4.42017e-18)
(1.01777 0.0630417 0)
(1.0174 0.0553204 0)
(1.01627 0.0475103 -4.42036e-18)
(1.01449 0.0396076 0)
(1.01215 0.0316131 0)
(1.00933 0.0235335 0)
(1.00614 0.0153901 1.09769e-18)
(1.00268 0.007194 -5.70046e-19)
(0.998858 -0.00102012 2.85767e-19)
(0.994649 -0.00923572 0)
(0.990089 -0.0174272 0)
(0.985246 -0.0255583 0)
(0.980194 -0.0335923 1.14583e-18)
(0.975011 -0.0414971 1.1647e-18)
(0.96976 -0.0492458 -2.44305e-18)
(0.964492 -0.0568158 0)
(0.959236 -0.0641869 0)
(0.954002 -0.0713401 -5.18792e-18)
(0.948787 -0.078256 -2.70366e-18)
(0.943576 -0.0849141 0)
(0.938349 -0.0912926 0)
(0.933086 -0.0973686 2.92995e-18)
(0.927773 -0.103119 5.43469e-20)
(0.922406 -0.108521 0)
(0.916991 -0.113553 0)
(0.91155 -0.118198 -3.43637e-18)
(0.906119 -0.12244 0)
(0.900747 -0.126271 0)
(0.8955 -0.129684 0)
(0.890452 -0.132681 0)
(0.885688 -0.13527 0)
(0.881299 -0.137462 -8.84822e-18)
(0.877382 -0.139277 0)
(0.874034 -0.140737 0)
(0.871354 -0.141871 2.4017e-20)
(0.869438 -0.14271 0)
(0.868384 -0.14329 0)
(0.868287 -0.143652 0)
(0.869239 -0.143836 2.19282e-17)
(0.871337 -0.143887 -1.11627e-17)
(0.874676 -0.143854 1.13096e-17)
(0.879358 -0.143784 2.36714e-21)
(0.885488 -0.14373 0)
(0.893179 -0.143743 1.1307e-17)
(0.902555 -0.143875 -1.11155e-17)
(0.913753 -0.144178 0)
(0.926918 -0.144699 0)
(0.942234 -0.145476 3.30413e-20)
(0.959821 -0.146518 8.81836e-18)
(0.980085 -0.147822 7.76074e-18)
(1.00247 -0.149216 0)
(1.02965 -0.150555 -4.92275e-18)
(1.05264 -0.151352 0)
(1.09957 -0.149525 1.40854e-18)
(0.974304 0.223274 0)
(0.972844 0.21966 2.36186e-17)
(0.970297 0.215616 2.28291e-17)
(0.967693 0.211502 0)
(0.965747 0.207458 1.05425e-17)
(0.964459 0.203259 -1.02494e-17)
(0.963552 0.198742 0)
(0.962879 0.193915 -1.82716e-17)
(0.962385 0.188767 0)
(0.96196 0.183232 0)
(0.961465 0.177274 0)
(0.960849 0.170906 0)
(0.960209 0.164144 0)
(0.959733 0.156994 1.91234e-19)
(0.959646 0.149494 -1.29212e-17)
(0.960204 0.141712 -1.87284e-19)
(0.961601 0.133858 1.89119e-19)
(0.963859 0.12614 0)
(0.96687 0.118576 0)
(0.970465 0.11114 0)
(0.974462 0.103807 -2.02932e-19)
(0.978681 0.096548 2.06071e-19)
(0.982962 0.0893362 -5.37156e-18)
(0.987166 0.0821479 -5.31787e-18)
(0.991183 0.0749614 0)
(0.994926 0.0677546 -5.34223e-18)
(0.998328 0.0605039 5.31208e-18)
(1.00133 0.053186 0)
(1.0039 0.0457802 2.57847e-18)
(1.00598 0.0382718 2.63554e-18)
(1.00754 0.0306538 0)
(1.00856 0.0229289 0)
(1.00902 0.0151116 1.33236e-18)
(1.00892 0.00722669 -1.70057e-20)
(1.00828 -0.000678679 -6.66722e-19)
(1.00711 -0.0085737 0)
(1.0054 -0.01644 0)
(1.00315 -0.0242553 -1.38231e-18)
(1.00037 -0.0319936 0)
(0.997056 -0.0396298 -1.4253e-18)
(0.99322 -0.0471396 -6.86706e-20)
(0.98888 -0.0544994 0)
(0.984059 -0.0616858 3.04904e-18)
(0.978786 -0.0686752 6.20283e-18)
(0.973098 -0.075444 3.16498e-18)
(0.967039 -0.0819684 0)
(0.960661 -0.0882257 -6.8991e-18)
(0.954021 -0.0941941 0)
(0.947185 -0.0998539 -3.65283e-18)
(0.940225 -0.105188 0)
(0.933219 -0.110182 0)
(0.926249 -0.114824 0)
(0.9194 -0.119108 0)
(0.912761 -0.123031 0)
(0.906418 -0.126592 -9.41507e-18)
(0.900461 -0.129796 9.79823e-18)
(0.894974 -0.13265 0)
(0.89004 -0.135168 1.05324e-17)
(0.88574 -0.137365 -1.09869e-17)
(0.882151 -0.139261 0)
(0.879349 -0.140878 -1.17391e-17)
(0.877409 -0.142246 0)
(0.876404 -0.143394 0)
(0.876409 -0.144358 0)
(0.877503 -0.145176 -1.31195e-17)
(0.879765 -0.14589 1.33844e-17)
(0.88328 -0.146544 -1.35765e-17)
(0.888139 -0.147185 2.7384e-17)
(0.894438 -0.147864 -1.37324e-17)
(0.902281 -0.14863 0)
(0.911784 -0.149536 1.34456e-17)
(0.923075 -0.15063 -1.31239e-17)
(0.936292 -0.151959 0)
(0.951619 -0.153562 5.08369e-20)
(0.969167 -0.155446 -1.0914e-17)
(0.989395 -0.157603 0)
(1.01168 -0.159857 0)
(1.03907 -0.16203 -6.24664e-18)
(1.06179 -0.163572 0)
(1.11042 -0.16255 -1.7634e-18)
(0.974265 0.223567 0)
(0.972691 0.220353 -1.35113e-17)
(0.970127 0.216372 -1.30577e-17)
(0.967638 0.212139 0)
(0.965804 0.207962 2.44018e-17)
(0.964552 0.203641 2.31221e-17)
(0.963664 0.199004 0)
(0.963078 0.194071 2.12047e-17)
(0.962806 0.188862 -2.01833e-17)
(0.962796 0.183333 0)
(0.962925 0.177446 0)
(0.963069 0.17119 0)
(0.96315 0.164545 0)
(0.963125 0.157476 -1.54335e-17)
(0.962982 0.149975 -1.50448e-17)
(0.962773 0.142073 1.39378e-17)
(0.962628 0.133979 -4.11219e-17)
(0.962679 0.125934 0)
(0.963006 0.118002 0)
(0.963644 0.110194 1.3165e-17)
(0.964599 0.102517 2.58255e-17)
(0.96585 0.0949639 -1.26785e-17)
(0.96736 0.0875218 0)
(0.969074 0.0801724 0)
(0.970931 0.0728947 -6.29275e-18)
(0.972867 0.0656643 1.2411e-17)
(0.974813 0.0584537 -1.23563e-17)
(0.976698 0.0512356 0)
(0.978445 0.0439856 0)
(0.979979 0.0366852 -3.04527e-18)
(0.981223 0.0293232 0)
(0.982103 0.0218975 3.12463e-18)
(0.982558 0.014416 -1.54172e-18)
(0.982524 0.00689909 -1.61438e-20)
(0.982018 -0.000644026 -8.19164e-21)
(0.981036 -0.00818885 0)
(0.979572 -0.015711 0)
(0.977626 -0.0231868 -3.34458e-20)
(0.975204 -0.0305911 1.66205e-18)
(0.972319 -0.0378992 5.04111e-18)
(0.968993 -0.0450877 6.83879e-18)
(0.965252 -0.0521352 3.53309e-18)
(0.961129 -0.059022 -3.55924e-18)
(0.95666 -0.0657297 -3.66258e-18)
(0.951886 -0.0722411 3.84043e-18)
(0.946852 -0.0785397 0)
(0.941608 -0.0846099 8.08099e-18)
(0.936206 -0.0904369 -8.49541e-18)
(0.930702 -0.0960069 0)
(0.925154 -0.101307 0)
(0.919624 -0.106325 0)
(0.914172 -0.111051 0)
(0.908862 -0.115478 0)
(0.903757 -0.119598 0)
(0.89892 -0.123409 1.10342e-17)
(0.894414 -0.12691 -2.30364e-17)
(0.890304 -0.130103 -1.2006e-17)
(0.886656 -0.132997 1.24628e-17)
(0.883537 -0.135601 1.28656e-17)
(0.881019 -0.137933 -1.33814e-17)
(0.879174 -0.140013 1.38339e-17)
(0.878081 -0.141866 0)
(0.87782 -0.143522 1.46951e-17)
(0.878474 -0.145016 -1.50888e-17)
(0.880127 -0.146385 0)
(0.882869 -0.14767 -3.14848e-17)
(0.886789 -0.148916 1.59795e-17)
(0.891978 -0.150168 -3.23285e-17)
(0.898536 -0.151475 1.62298e-17)
(0.906566 -0.152887 0)
(0.916184 -0.154454 1.60476e-17)
(0.927521 -0.156228 1.56646e-17)
(0.940716 -0.158253 -1.51649e-17)
(0.955966 -0.160573 -1.43194e-17)
(0.97339 -0.163194 1.32362e-17)
(0.993508 -0.166117 0)
(1.01565 -0.169158 0)
(1.04326 -0.172158 7.75529e-18)
(1.06579 -0.174362 0)
(1.11643 -0.174501 2.21859e-18)
(0.974202 0.223865 1.62962e-17)
(0.972436 0.220979 0)
(0.969784 0.216985 -3.02304e-17)
(0.967373 0.212638 2.92006e-17)
(0.965644 0.208361 -2.78016e-17)
(0.964441 0.203944 2.67537e-17)
(0.96357 0.199205 0)
(0.962995 0.194174 2.02101e-19)
(0.962739 0.188878 2.29789e-17)
(0.962785 0.183285 0)
(0.963067 0.177366 0)
(0.963515 0.171115 0)
(0.964068 0.164516 3.7799e-17)
(0.964656 0.157534 0)
(0.965193 0.150143 3.37377e-17)
(0.965609 0.142342 0)
(0.965885 0.134313 6.28858e-17)
(0.966044 0.126285 0)
(0.96613 0.11832 0)
(0.966187 0.110437 -3.0074e-17)
(0.96626 0.102652 -1.47706e-17)
(0.966389 0.0949714 0)
(0.966601 0.0873951 0)
(0.966909 0.0799172 0)
(0.967314 0.0725265 7.16299e-18)
(0.967806 0.0652068 -7.13013e-18)
(0.968361 0.0579376 -1.07616e-19)
(0.968945 0.0506972 0)
(0.969515 0.0434652 7.19694e-18)
(0.970018 0.0362248 0)
(0.970399 0.028965 0)
(0.970603 0.0216811 -3.57272e-18)
(0.970581 0.0143763 1.8299e-18)
(0.970285 0.007062 -1.56417e-20)
(0.969696 -0.000272449 4.55893e-19)
(0.968785 -0.00760318 0)
(0.967533 -0.0149039 0)
(0.965931 -0.0221539 1.87247e-18)