/*--------------------------------*- C++ -*----------------------------------*\
| =========                 |                                                 |
| \\      /  F ield         | OpenFOAM: The Open Source CFD Toolbox           |
|  \\    /   O peration     | Version:  v1912                                 |
|   \\  /    A nd           | Website:  www.openfoam.com                      |
|    \\/     M anipulation  |                                                 |
\*---------------------------------------------------------------------------*/
FoamFile
{
    version     2.0;
    format      ascii;
    class       volScalarField;
    location    "300";
    object      epsilon;
}
// * * * * * * * * * * * * * * * * * * * * * * * * * * * * * * * * * * * * * //

dimensions      [0 2 -3 0 0 0 0];


internalField   nonuniform List<scalar> 
12441
(
0.0102962
0.00908472
0.00832687
0.00770245
0.00718355
0.00674884
0.00638219
0.00607087
0.005805
0.00557651
0.0053791
0.00520322
0.00505478
0.00490793
0.00479036
0.00468517
0.00482939
0.0197437
0.268501
3.00331
20.9535
39.25
0.0101186
0.00891973
0.00818363
0.00757657
0.00707168
0.00664839
0.00629117
0.00598772
0.00572851
0.0055057
0.0053132
0.00514113
0.00499674
0.00485388
0.00473975
0.00463932
0.00477034
0.0194866
0.252912
2.99593
21.2447
40.2318
0.00989657
0.00871697
0.00799994
0.00740875
0.0069172
0.00650522
0.00615768
0.00586262
0.00561076
0.00539451
0.00520797
0.0050413
0.0049022
0.00476211
0.00465317
0.00455759
0.00462627
0.0176757
0.214408
2.96584
21.6251
41.3784
0.00967298
0.00851331
0.00781455
0.00723849
0.00675959
0.00635831
0.00601989
0.00573273
0.00548779
0.00527769
0.00509669
0.00493541
0.00480114
0.00466922
0.00456507
0.00447504
0.00449133
0.0155004
0.176642
2.94385
22.0931
42.5504
0.00942877
0.00828872
0.00760867
0.00704824
0.0065825
0.00619245
0.00586371
0.005585
0.00534754
0.00514421
0.00496945
0.00481405
0.00468552
0.00455681
0.00445882
0.00437577
0.0043438
0.0135429
0.157417
2.95109
22.61
43.6698
0.00922279
0.00809909
0.00743425
0.00688643
0.00643126
0.00605013
0.00572898
0.00545682
0.00522504
0.00502672
0.00485642
0.00470534
0.00458058
0.00445963
0.0043657
0.00428682
0.00427097
0.0137129
0.177106
3.05721
23.2373
44.7472
0.00900215
0.0078955
0.00724712
0.00671301
0.0062694
0.00589812
0.00558546
0.0053207
0.00509547
0.00490304
0.00473814
0.0045922
0.00447232
0.00435369
0.00426424
0.00419267
0.00602598
0.0228263
0.282273
3.35491
24.0733
45.7945
0.00882368
0.00773084
0.00709529
0.00657179
0.00613701
0.00577315
0.00546675
0.00520733
0.00498666
0.0047982
0.00463676
0.00449406
0.00437705
0.00426568
0.00418566
0.00516243
0.0344988
0.0794862
0.593449
3.98055
25.2387
46.8732
0.00862956
0.00755166
0.00693062
0.00641922
0.00599465
0.00563948
0.00534056
0.00508766
0.00487275
0.00468943
0.00453268
0.00439455
0.00428253
0.00413273
0.00539238
0.0270513
0.17682
0.299394
1.27401
5.08053
26.8609
48.0153
0.00847485
0.00740875
0.0067987
0.00629637
0.00587931
0.00553042
0.00523678
0.00498834
0.00477722
0.00459715
0.00444321
0.00430778
0.00419831
0.0042697
0.025325
0.15034
0.530974
0.799294
2.35249
6.71193
29.0322
49.2846
0.00830544
0.00725232
0.00665499
0.00616327
0.00575516
0.00541389
0.00512682
0.00488408
0.00467798
0.00450239
0.00435248
0.00422208
0.00408673
0.00953954
0.114862
0.438045
1.0575
1.5331
3.62815
8.77618
31.778
50.6975
0.0081704
0.0071276
0.00653984
0.00605597
0.00565436
0.0053185
0.00503594
0.004797
0.0045941
0.00442125
0.00427367
0.00414683
0.00416194
0.0488537
0.325423
0.827465
1.57981
2.28874
4.84639
11.0657
35.0464
52.295
0.00802129
0.00698996
0.00641355
0.00593914
0.00554549
0.00521642
0.00493969
0.00470581
0.00450735
0.00433841
0.00419436
0.0040336
0.00837703
0.167403
0.608408
1.1859
1.98846
2.90981
5.87919
13.3724
38.7319
54.0597
0.00790038
0.0068783
0.00631045
0.00584307
0.00545524
0.00513101
0.00485832
0.00462784
0.00443226
0.00426578
0.00412384
0.00387883
0.0372423
0.350713
0.864092
1.45414
2.27767
3.36987
6.71549
15.5523
42.7025
56.0037
0.00776901
0.00675698
0.00619915
0.00574012
0.00535931
0.00504105
0.00477349
0.00454744
0.00435573
0.00419265
0.00405374
0.00426546
0.114467
0.537006
1.05886
1.64413
2.47995
3.70328
7.39037
17.5331
46.8306
58.0812
0.00765992
0.00665628
0.00610618
0.00565349
0.00527793
0.00496404
0.00470012
0.00447716
0.00428806
0.00412723
0.00399029
0.00952523
0.227769
0.6905
1.19999
1.78001
2.62515
3.95013
7.94448
19.2924
51.0045
60.2902
0.00754401
0.00654925
0.00600806
0.00556279
0.00519343
0.0048848
0.00462538
0.00440628
0.00422051
0.00406258
0.00392865
0.0327369
0.345324
0.808091
1.30362
1.88043
2.73356
4.14042
8.41109
20.8361
55.1401
62.571
0.00744246
0.00645563
0.00592174
0.00548247
0.00511811
0.00481365
0.00455775
0.00434164
0.00415844
0.00400274
0.00387342
0.0831629
0.447293
0.897469
1.38228
1.95757
2.81812
4.29414
8.81462
22.1822
59.177
64.9213
0.00733988
0.00636077
0.00583471
0.00540194
0.005043
0.00474312
0.0044911
0.00427831
0.00409796
0.00394474
0.00380997
0.149703
0.529566
0.967069
1.4443
2.01922
2.88705
4.42424
9.17215
23.3526
63.0808
67.2818
0.00724522
0.00627359
0.00575438
0.00532726
0.00497305
0.00467714
0.00442849
0.00421858
0.00404073
0.00388969
0.00428726
0.216763
0.595007
1.02314
1.49505
2.0704
2.94574
4.53912
9.49531
24.3687
66.8353
69.6617
0.00715503
0.00619013
0.00567779
0.00525633
0.00490679
0.0046148
0.00436944
0.0041623
0.00398679
0.00383783
0.0100377
0.276857
0.648006
1.06989
1.53804
2.11449
2.99788
4.64416
9.79176
25.2504
70.4436
72.0102
0.00706422
0.00610667
0.00560106
0.0051852
0.00484039
0.0045524
0.00431047
0.0041063
0.00393337
0.0037872
0.0290281
0.328332
0.692197
1.11012
1.57569
2.15387
3.04607
4.74262
10.0665
26.0152
73.9216
74.3523
0.00698497
0.00603311
0.00553339
0.00512234
0.00478147
0.00449675
0.00425753
0.00405562
0.00388461
0.00374217
0.0616238
0.372118
0.730203
1.14574
1.60969
2.19022
3.09219
4.83635
10.3225
26.6789
77.3009
76.6493
0.00689844
0.00595367
0.00546045
0.00505486
0.00471861
0.00443785
0.00420203
0.00400309
0.00383468
0.00370247
0.0995261
0.409706
0.763819
1.17808
1.64129
2.22482
3.1375
4.92623
10.5619
27.2552
80.6231
78.9445
0.00683021
0.00589023
0.00540199
0.00500038
0.00466734
0.00438915
0.00415544
0.00395818
0.00379117
0.00368418
0.136092
0.442578
0.794287
1.20812
1.67141
2.2586
3.18278
5.01263
10.7858
27.7565
83.9429
81.212
0.00674447
0.00581181
0.00533029
0.00493437
0.00460622
0.00433226
0.00410221
0.00390818
0.00374402
0.00364589
0.169061
0.471964
0.822471
1.2366
1.70076
2.29221
3.22833
5.09576
10.9953
28.1936
87.3232
83.5114
0.00668537
0.00575653
0.00527907
0.00488634
0.00456068
0.00428868
0.00406019
0.00386738
0.00370426
0.00384903
0.198546
0.4988
0.849
1.26409
1.72983
2.32607
3.27418
5.1758
11.191
28.5761
90.8361
85.8273
0.00660161
0.00568005
0.0052093
0.00482232
0.00450162
0.00423395
0.00400923
0.00381975
0.00365964
0.00585175
0.225329
0.52377
0.874339
1.29099
1.759
2.36039
3.32022
5.25296
11.3737
28.9119
94.5563
88.2307
0.00655198
0.00563339
0.00516582
0.0047812
0.00446227
0.00419588
0.00397212
0.00378331
0.00362413
0.0114708
0.250177
0.547371
0.89884
1.31762
1.78846
2.39523
3.36629
5.32747
11.544
29.2079
98.56
90.7106
0.00646785
0.0055569
0.00509639
0.00471789
0.00440427
0.00414255
0.00392286
0.00373766
0.00358264
0.0219765
0.273662
0.569962
0.922771
1.34421
1.81833
2.43055
3.41227
5.39957
11.7027
29.4697
102.916
93.3406
0.00642567
0.00551682
0.00505864
0.00468177
0.00436927
0.00410829
0.00388909
0.00370418
0.00355164
0.0377758
0.296165
0.591811
0.946337
1.37088
1.84864
2.46628
3.45808
5.46949
11.8506
29.7019
107.687
96.1058
0.00634316
0.00544193
0.00499083
0.00462012
0.00431301
0.00405678
0.00384174
0.00366051
0.00351571
0.0582006
0.31793
0.613116
0.969685
1.39774
1.87937
2.50234
3.50371
5.53743
11.9884
29.9088
112.917
99.0732
0.00630953
0.00540964
0.00496005
0.00459022
0.00428352
0.00402738
0.00381224
0.00363076
0.00349486
0.0820344
0.339106
0.634027
0.992922
1.42482
1.91047
2.53865
3.54915
5.60358
12.1169
30.0945
118.643
102.217
0.006225
0.00533329
0.00489133
0.00452818
0.0042274
0.00397648
0.00376593
0.0035885
0.00347388
0.107957
0.359783
0.654654
1.01611
1.45212
1.94187
2.57515
3.59442
5.6681
12.2368
30.2629
124.883
105.592
0.00619822
0.00530708
0.00486582
0.00450281
0.00420178
0.00395037
0.00373923
0.00356118
0.00347915
0.13487
0.380008
0.675074
1.0393
1.47962
1.97351
2.61179
3.63954
5.73111
12.3491
30.4179
131.653
109.157
0.00611118
0.00522888
0.00479585
0.00444009
0.00414547
0.00389973
0.00369356
0.00351986
0.00355199
0.161887
0.399792
0.695334
1.06249
1.50729
2.00531
2.64852
3.68455
5.79271
12.4544
30.5632
138.958
112.957
0.00608768
0.00520561
0.00477286
0.00441685
0.00412161
0.00387507
0.00366807
0.00349357
0.00639298
0.188276
0.419115
0.71546
1.08566
1.53508
2.03722
2.68532
3.72947
5.85297
12.5537
30.7017
146.8
116.938
0.00599564
0.00512351
0.00469989
0.00435191
0.00406376
0.00382346
0.00362189
0.00345213
0.0300321
0.213288
0.437928
0.735451
1.10879
1.56292
2.06917
2.72215
3.7743
5.91194
12.648
30.8351
155.161
121.137
0.00596739
0.00509614
0.00467334
0.00432552
0.00403711
0.00379634
0.00359426
0.00342462
0.0649745
0.235851
0.456162
0.755291
1.13184
1.59074
2.10108
2.75896
3.81906
5.96965
12.7382
30.9642
163.99
125.495
0.00586265
0.00500312
0.00459104
0.00425263
0.00397251
0.00373903
0.00354331
0.00338444
0.0885126
0.255306
0.473743
0.774943
1.15473
1.61847
2.13289
2.79572
3.86373
6.02612
12.8253
31.0881
173.154
130.045
0.00582111
0.00496377
0.00455363
0.00421636
0.00393686
0.00370373
0.00350831
0.00336352
0.102906
0.271754
0.490605
0.794356
1.17741
1.64601
2.16451
2.83236
3.90826
6.08136
12.9103
31.2056
182.382
134.727
0.00569944
0.00485613
0.00445843
0.0041318
0.00386155
0.00363651
0.00344818
0.00381198
0.112157
0.285591
0.506697
0.813465
1.1998
1.67325
2.19586
2.86882
3.95259
6.13539
12.994
31.3155
191.192
139.588
0.00561719
0.00478969
0.00440406
0.0040858
0.00382118
0.00359981
0.00341366
0.00477241
0.118442
0.297245
0.521987
0.832192
1.22183
1.70008
2.22683
2.90499
3.99663
6.18826
13.0766
31.4183
198.888
144.654
0.00525467
0.00446025
0.00411192
0.00382633
0.00358908
0.00339052
0.00322351
0.00525277
0.122875
0.307065
0.536451
0.850446
1.24341
1.72635
2.25731
2.94076
4.04025
6.24012
13.158
31.516
204.661
150.447
95.0235
61.2998
40.8727
32.0637
29.0514
23.8308
22.6421
20.3533
19.1945
18.7241
18.8064
18.833
20.6936
24.2375
28.3292
33.5375
37.188
37.6328
37.2365
36.323
35.4916
35.3769
35.7985
36.1919
36.3665
35.5146
34.9042
40.4875
26.1148
5.41111
4.38627
4.42227
4.39853
4.04773
3.56024
94.6475
61.4129
41.1197
32.7081
29.8759
24.3828
23.1613
20.7508
19.5445
19.0236
18.9779
19.0359
21.0152
24.7453
28.7096
33.6348
37.4311
38.0373
37.7757
37.0613
36.2952
36.0621
36.3404
36.6469
36.8099
35.9597
35.3057
40.7378
26.9784
5.42455
4.38242
4.41703
4.39282
4.04203
3.55544
93.9266
61.5873
41.5902
33.9906
31.4944
25.4739
24.1639
21.5193
20.2366
19.6226
19.3302
19.4537
21.6882
25.7
29.4534
33.9126
37.7492
38.6379
38.7668
38.5837
38.054
37.5982
37.5433
37.6141
37.6968
36.818
36.1104
41.1322
27.213
5.44322
4.37469
4.40654
4.38144
4.03063
3.54585
92.8104
61.7999
42.305
35.9684
33.892
27.1108
25.6197
22.6412
21.2672
20.5204
19.9091
20.1541
22.7906
27.2237
30.8133
34.6318
38.2892
39.5664
40.3392
41.0978
41.0753
40.3015
39.6496
39.2495
39.1265
38.1643
37.3715
41.8987
27.1736
5.46904
4.36314
4.39082
4.3644
4.01358
3.53152
91.3035
62.0297
43.2949
38.6852
37.041
29.2927
27.5015
24.1101
22.6336
21.7154
20.7665
21.2137
24.4371
29.5321
33.1099
36.2012
39.3728
41.0438
42.7153
44.9352
45.8412
44.6947
43.0712
41.8153
41.2554
40.1034
39.1645
43.262
27.1583
5.50545
4.34785
4.36989
4.34174
3.9909
3.51247
89.3553
62.2578
44.6004
42.1777
40.927
32.0323
29.8079
25.9425
24.3511
23.2195
21.9505
22.7032
26.7348
32.8832
36.7459
39.1465
41.5378
43.4768
46.2716
50.5834
53.0532
51.5986
48.4931
45.7507
44.3363
42.7926
41.5966
45.464
27.384
5.55675
4.32892
4.34376
4.31349
3.96264
3.48874
87.0012
62.4679
46.2722
46.4703
45.5451
35.3612
32.5668
28.1788
26.4589
25.0696
23.5137
24.6904
29.7813
37.6244
42.3169
44.1258
45.5364
47.5587
51.6344
58.74
63.6689
62.2434
57.0333
51.791
48.7829
46.4739
44.8202
48.7918
28.0087
5.62772
4.30645
4.31247
4.2797
3.92884
3.46039
84.2135
62.6452
48.3695
51.5337
50.8703
39.316
35.827
30.8803
29.0212
27.3317
25.5291
27.2551
33.6686
44.1934
50.7689
52.0557
52.3012
54.3142
59.7799
70.3627
78.8625
78.3082
70.4435
61.1525
55.269
51.5221
49.0541
53.6097
29.1653
5.72349
4.28053
4.27603
4.24042
3.88957
3.42749
81.0699
62.7757
50.9572
57.2223
56.8248
43.9164
39.6453
34.1238
32.124
30.1027
28.105
30.5088
38.4644
52.9256
63.3466
64.1554
62.8493
64.9575
71.981
86.5373
99.6695
101.546
91.1483
75.753
64.8679
58.5134
54.6118
60.387
30.9935
5.84941
4.25124
4.2345
4.19575
3.84492
3.39013
77.574
62.8449
54.1029
63.2327
63.2619
49.1429
44.0704
37.9916
35.8686
33.5113
31.396
34.5982
44.1477
63.5589
80.7317
81.3247
77.7234
80.1951
89.1155
107.666
125.815
132.176
121.297
98.1633
79.1644
68.2968
61.9347
69.703
33.6701
6.01101
4.21866
4.18794
4.14577
3.79499
3.3484
73.8369
62.8365
57.878
69.1488
69.9798
54.9235
49.1249
42.5574
40.358
37.7146
35.6088
39.7137
50.5454
74.5537
100.555
101.92
95.4811
98.6025
109.837
131.623
153.739
165.69
159.127
130.111
99.9963
81.9836
71.6071
82.17
37.4361
6.21369
4.18281
4.13643
4.09062
3.73993
3.30245
69.8857
62.7298
62.3606
74.5915
76.7642
61.1399
54.7888
47.8635
45.676
42.8792
40.9931
46.0309
57.2817
83.1794
115.554
119.348
111.486
115.664
129.333
152.994
176.701
192.326
194.122
167.679
127.849
100.569
84.2836
98.1516
42.6159
6.46201
4.14367
4.08007
4.03045
3.67988
3.25242
65.8489
62.4981
67.6243
79.3859
83.4422
67.6573
60.9917
53.8947
51.8448
49.1403
47.7938
53.6048
63.8374
87.2215
118.84
125.936
120.645
126.915
142.703
166.872
189.762
204.8
212.316
197.326
158.181
123.649
100.364
117.123
49.5971
6.75803
4.10112
4.01901
3.96546
3.61506
3.19849
61.7626
62.1053
73.6819
83.6127
89.9206
74.3687
67.6243
60.5631
58.7918
56.5362
56.1442
62.1738
69.7049
86.8236
111.713
121.366
122.256
132.056
149.508
173.067
193.557
204.658
210.974
206.113
180.163
147.355
119.222
136.803
58.6991
7.09801
4.05498
3.95339
3.89584
3.5457
3.14088
57.7502
61.5048
80.3531
87.5161
96.1902
81.2308
74.5693
67.7229
66.3373
64.9309
65.8956
71.1351
74.618
83.992
100.731
111.722
119.712
133.913
152.593
174.58
191.703
197.721
198.447
196.017
185.378
164.523
138.226
153.037
69.8048
7.46683
4.00489
3.8834
3.82187
3.47207
3.07982
53.8399
60.6445
87.0991
91.366
102.311
88.2789
81.7448
75.1983
74.229
73.9725
76.4432
79.7275
78.6538
80.8468
90.8337
102.438
116.606
135.136
154.47
174.03
187.069
188.137
182.802
177.909
176.352
169.976
152.94
161.634
81.7194
7.83087
3.95042
3.80928
3.74381
3.39445
3.01555
50.1273
59.4847
93.0095
95.3666
108.394
95.5625
89.127
82.8615
82.2265
83.1688
86.8894
87.4586
82.2155
78.6722
83.7484
95.7625
114.905
137.027
156.157
172.454
180.849
177.463
167.557
159.597
161.343
164.955
159.616
161.069
91.7389
8.13467
3.89101
3.73126
3.66199
3.31319
2.94836
46.6135
58.0363
97.1725
99.5813
114.554
103.147
96.7499
90.683
90.1957
92.0847
96.4778
94.3019
85.8264
78.0533
79.6322
92.0876
115.252
139.858
157.623
169.849
173.259
165.999
153.434
143.8
146.303
154.473
157.782
153.066
96.5461
8.31072
3.82614
3.64962
3.57673
3.22864
2.87856
43.349
56.4072
99.2764
103.992
120.863
111.069
104.673
98.7242
98.1579
100.55
105.013
100.746
90.0521
79.1885
78.1552
91.1567
117.683
143.453
158.504
165.903
164.291
153.858
140.324
130.702
133.456
142.718
149.854
140.761
94.4302
8.30538
3.75547
3.56466
3.4884
3.14118
2.80644
40.3033
54.8213
99.8502
108.553
127.333
119.304
112.941
107.093
106.272
108.697
112.882
107.45
95.39
82.182
79.0498
92.6996
122.018
147.459
158.402
160.409
154.088
141.353
128.133
119.79
122.985
131.657
138.842
126.827
86.4525
8.10414
3.679
3.47671
3.39737
3.0512
2.73235
37.4893
53.5919
99.794
113.227
133.925
127.759
121.544
115.883
114.738
116.895
120.791
115.133
102.331
87.1415
82.1342
96.5199
128.051
151.549
157.098
153.397
143.007
128.96
116.919
110.547
114.397
121.738
126.868
112.867
75.2526
7.73534
3.5971
3.38611
3.30403
2.95912
2.6566
34.8769
52.9757
99.8314
117.974
140.557
136.289
130.411
125.121
123.732
125.547
129.408
124.318
111.291
94.3004
87.4363
102.598
135.585
155.441
154.504
145.126
131.55
117.163
106.802
102.594
107.112
112.773
115.026
99.6233
63.2871
7.25271
3.51051
3.29323
3.20877
2.86536
2.57953
32.4767
53.0081
100.308
122.744
147.129
144.724
139.418
134.749
133.34
134.959
139.203
135.412
122.669
104.017
95.127
111.017
144.489
158.979
150.749
136.017
120.246
106.336
97.8591
95.6674
100.649
104.432
103.761
87.3628
52.0797
6.71369
3.42014
3.19845
3.11199
2.77032
2.50147
30.2708
53.5784
101.231
127.459
153.529
152.891
148.41
144.639
143.549
145.277
150.383
148.568
136.728
116.808
105.667
122.065
154.673
162.079
146.066
126.573
109.555
96.6941
90.0824
89.5662
94.6532
96.45
93.2147
76.1444
42.3156
6.16536
3.32698
3.10213
3.01408
2.67443
2.42275
28.2673
54.418
102.48
132.023
159.645
160.641
157.224
154.631
154.272
156.533
163.014
163.896
153.677
133.204
119.713
136.147
166.11
164.755
140.813
117.288
99.8132
88.3087
83.3884
84.121
88.8859
88.6863
83.4161
65.9567
34.1627
5.63982
3.23196
3.00466
2.91544
2.57809
2.34369
26.4614
55.1813
103.923
136.329
165.38
167.854
165.715
164.568
165.393
168.698
177.12
181.486
173.697
153.703
138.194
153.852
178.731
166.986
135.319
108.577
91.2106
81.1392
77.6444
79.1784
83.2027
81.1145
74.3654
56.7741
27.529
5.15532
3.13589
2.90641
2.81643
2.48167
2.26458
24.8623
55.628
105.457
140.284
170.66
174.458
173.775
174.331
176.823
181.779
192.849
201.708
197.265
178.729
161.97
175.691
192.361
168.72
129.887
100.728
83.8058
75.0769
72.6944
74.6013
77.5383
73.7845
66.0511
48.5688
22.2175
4.71973
3.03947
2.80774
2.71741
2.38557
2.1857
23.4808
55.7973
107.017
143.825
175.443
180.434
181.355
183.863
188.533
195.867
210.539
225.271
225.329
208.987
191.813
201.984
206.543
169.762
124.667
93.8875
77.5587
69.976
68.3808
70.2725
71.889
66.7839
58.4566
41.3093
18.0058
4.33415
2.94324
2.709
2.61874
2.2901
2.10733
22.3333
55.9993
108.557
146.924
179.725
185.811
188.464
193.184
200.586
211.19
230.803
253.448
259.588
245.677
228.103
232.317
220.471
169.856
119.72
88.0702
72.3613
65.6797
64.5556
66.1016
66.2991
60.2
51.556
34.9544
14.6839
3.99579
2.84763
2.61051
2.52071
2.19561
2.02971
21.4546
56.6336
110.044
149.586
183.533
190.655
195.166
202.381
213.146
228.125
254.531
288.008
302.414
290.61
271.09
265.437
232.923
168.66
114.966
83.1868
68.0693
62.0324
61.089
62.0289
60.8407
54.1002
45.3168
29.4508
12.0695
3.69994
2.75296
2.51259
2.42364
2.10237
1.95305
20.8892
58.0042
111.45
151.839
186.915
195.058
201.569
211.61
226.475
247.215
282.908
331.164
356.402
345.375
320.135
298.852
242.459
165.911
110.305
79.0795
64.5204
58.8899
57.8728
58.0272
55.5971
48.5204
39.7005
24.7328
10.0108
3.44125
2.6595
2.41552
2.32779
2.01066
1.87756
20.7351
60.2459
112.748
153.727
189.936
199.124
207.814
221.083
240.942
269.164
317.34
384.918
422.582
409.385
372.683
329.07
247.651
161.429
105.598
75.554
61.55
56.1213
54.8232
54.0988
50.6454
43.4669
34.6663
20.7256
8.3859
3.21442
2.56742
2.31955
2.23339
1.9207
1.80342
21.1259
63.3344
113.918
155.303
192.671
202.968
214.072
231.076
257.029
294.869
359.362
449.934
497.205
476.277
422.132
351.548
247.454
155.232
100.766
72.4119
58.9981
53.6127
51.8808
50.269
46.0457
38.921
30.1722
17.3495
7.09803
3.01458
2.47687
2.22493
2.14069
1.83271
1.73076
22.2957
67.1304
114.945
156.623
195.204
206.714
220.548
241.937
275.365
325.448
410.364
523.391
568.411
531.951
458.134
361.96
241.418
147.468
95.7399
69.4724
56.7169
51.2672
49.0098
46.5763
41.8344
34.8482
26.1773
14.5242
6.07171
2.83742
2.38796
2.13187
2.04986
1.74685
1.65974
24.5223
71.4251
115.83
157.743
197.624
210.501
227.492
254.123
296.791
362.321
471.094
597.028
618.348
559.423
470.462
357.703
229.903
138.44
90.5189
66.5905
54.5758
49.0076
46.1949
43.0624
38.0244
31.2046
22.6417
12.1722
5.24839
2.67924
2.30078
2.04057
1.96108
1.66329
1.59046
28.1637
75.9841
116.576
158.715
200.028
214.491
235.229
268.262
322.486
407.299
540.42
656.953
632.797
550.565
456.142
339.712
213.993
128.5
85.1124
63.6633
52.4678
46.7757
43.4366
39.763
34.608
27.9446
19.5269
10.2217
4.5829
2.53693
2.21541
1.9512
1.8745
1.58215
1.52302
33.4954
80.5838
117.194
159.589
202.53
218.89
244.205
285.272
354.197
462.561
612.999
688.289
610.428
511.637
421.073
311.79
195.225
118.039
79.5722
60.6305
50.314
44.5334
40.7448
36.7023
31.5625
25.0238
16.7957
8.60799
4.04046
2.40789
2.13191
1.86392
1.79027
1.50356
1.45751
40.701
85.0405
117.697
160.412
205.269
223.977
255.08
306.582
394.582
529.859
676.147
682.136
560.989
456.649
375.532
278.855
175.137
107.407
73.953
57.4694
48.0668
42.261
38.1334
33.89
28.8551
22.4022
14.4121
7.27417
3.59429
2.28996
2.05036
1.77887
1.70851
1.42761
1.394
49.6321
89.2293
118.095
161.237
208.431
230.17
268.905
334.537
447.535
607.259
710.519
639.94
497.243
397.595
327.814
244.784
154.972
96.9116
68.3354
54.1894
45.7086
39.9547
35.615
31.3224
26.4481
20.0449
12.3416
6.17141
3.22375
2.18137
1.97081
1.69621
1.62932
1.3544
1.33255
59.8743
93.0909
118.398
162.131
212.291
238.141
287.458
373.069
517.419
681.286
699.491
571.167
429.178
341.249
282.609
211.975
135.55
86.7815
62.7979
50.8255
43.2479
37.6231
33.1982
28.9838
24.3024
17.9225
10.5513
5.25842
2.91284
2.0807
1.89335
1.61606
1.55281
1.28399
1.27322
70.5911
96.6218
118.618
163.185
217.29
249.064
313.91
428.377
603.084
721.17
641.351
488.792
363.265
290.282
241.534
181.443
117.344
77.1939
57.432
47.4323
40.7131
35.2843
30.8869
26.8509
22.3799
16.01
9.00992
4.50071
2.64918
1.98676
1.81805
1.53856
1.47907
1.21646
1.21606
80.9187
99.8544
118.766
164.547
224.201
265.133
353.983
506.932
680.308
695.579
550.083
404.631
303.2
245.512
204.92
153.515
100.569
68.2649
52.3186
44.0758
38.1468
32.9631
28.6828
24.8959
20.6448
14.2867
7.68841
3.86987
2.42308
1.89861
1.74499
1.46381
1.4082
1.15187
1.16112
89.3733
102.84
118.856
166.469
234.501
290.68
416.681
599.174
693.29
604.055
446.273
327.13
250.928
207.016
172.553
128.15
85.2999
60.0745
47.5374
40.8264
35.5993
30.6896
26.5881
23.0911
19.0647
12.7341
6.55979
3.34264
2.22699
1.81547
1.67426
1.39195
1.34025
1.09027
1.10844
95.1437
105.646
118.915
169.439
251.253
334.024
504.848
643.557
608.937
478.028
347.428
260.502
206.864
174.505
144.278
105.342
71.5548
52.6621
43.1431
37.7485
33.1224
28.4976
24.6089
21.4123
17.6103
11.3362
5.59935
2.90012
2.05492
1.73671
1.60595
1.32309
1.27531
1.03168
1.05804
0.00337767
0.00250367
0.00227483
0.00216177
0.00211978
0.00212262
0.00215547
0.00539816
0.125282
0.313265
0.546637
0.86357
1.25893
1.74511
2.27916
2.96657
4.07197
6.27805
13.2175
31.59
206.994
160.123
0.0033442
0.00224186
0.00184099
0.0016039
0.00148125
0.00144196
0.00147394
0.00546566
0.126474
0.316617
0.552479
0.870937
1.26732
1.75498
2.29057
2.98021
4.08945
6.30025
13.2556
31.6454
207.984
170.238
0.00354031
0.00237562
0.00188181
0.00154375
0.00132111
0.00118922
0.00115835
0.00550901
0.127258
0.319055
0.557015
0.876415
1.27314
1.76145
2.29791
2.98918
4.10181
6.31742
13.2874
31.7022
208.125
179.9
0.00367061
0.00251723
0.00200372
0.00162956
0.00135757
0.00116572
0.00103164
0.00553579
0.127691
0.320633
0.560231
0.879961
1.27631
1.76448
2.30111
2.99339
4.10887
6.32931
13.3112
31.761
207.482
188.971
0.00392244
0.00276388
0.00222648
0.00182232
0.00151451
0.00128017
0.00100004
0.00554988
0.127806
0.321385
0.56211
0.881541
1.2768
1.76401
2.30012
2.99275
4.11049
6.33568
13.3253
31.8225
206.097
197.914
0.00406004
0.00292957
0.00239843
0.00199215
0.00167549
0.00142562
0.000989862
0.00555338
0.127622
0.321337
0.562643
0.881139
1.27459
1.76005
2.29491
2.98721
4.10656
6.33628
13.3281
31.8868
204.003
206.901
0.00434037
0.00320796
0.00265964
0.00223378
0.00189666
0.00162548
0.00105963
0.00554729
0.127153
0.320506
0.561833
0.878757
1.26968
1.75262
2.2855
2.97676
4.09696
6.33089
13.3182
31.9538
201.24
215.931
0.00447842
0.00337913
0.00284386
0.0024236
0.00208694
0.00181212
0.00118671
0.00553172
0.126409
0.318914
0.559699
0.874417
1.26212
1.74175
2.27194
2.9614
4.08162
6.31931
13.2941
32.0226
197.854
224.944
0.00478395
0.00368465
0.0031348
0.00269734
0.00234282
0.00205012
0.00131164
0.00550614
0.125395
0.316579
0.556274
0.868162
1.25196
1.72753
2.25432
2.94118
4.06048
6.30133
13.2546
32.0919
193.903
233.869
0.00490855
0.00384874
0.00331948
0.00289482
0.00254742
0.00225732
0.00140174
0.00546961
0.124119
0.313529
0.551607
0.860057
1.23929
1.71008
2.23273
2.91616
4.03349
6.27676
13.1988
32.1595
189.447
242.624
0.00522932
0.00417128
0.00363026
0.00319097
0.00282802
0.00252226
0.00151562
0.00542104
0.122584
0.30979
0.545761
0.850188
1.22425
1.68952
2.20735
2.88644
4.00062
6.24541
13.1257
32.2221
184.549
251.098
0.00533917
0.0043246
0.00380985
0.00338924
0.00303916
0.00274153
0.00163473
0.0053588
0.120794
0.305396
0.538808
0.838657
1.20695
1.66601
2.17833
2.85217
3.96187
6.20708
13.0349
32.2755
179.279
259.159
0.00567204
0.00466098
0.00413699
0.00370392
0.00334013
0.00302852
0.00183907
0.00528098
0.11875
0.300381
0.530829
0.825584
1.18757
1.63975
2.1459
2.81353
3.91726
6.16159
12.9256
32.3145
173.703
266.658
0.00575615
0.00479281
0.00430112
0.00389309
0.00354844
0.00325104
0.00211654
0.00518462
0.116447
0.294778
0.521906
0.811101
1.16627
1.61093
2.11027
2.77072
3.86686
6.10873
12.7976
32.3327
167.889
273.443
0.00609204
0.00513339
0.00463459
0.00421615
0.00385973
0.00355028
0.00252143
0.00506614
0.113876
0.288618
0.512123
0.795349
1.14324
1.57978
2.0717
2.724
3.81077
6.0483
12.6507
32.3227
161.901
279.366
0.00615208
0.00524287
0.00478012
0.00439115
0.00405863
0.00376833
0.00298747
0.00491992
0.111016
0.281926
0.50156
0.778475
1.11868
1.54652
2.03045
2.67363
3.74914
5.9801
12.4846
32.2763
155.8
284.293
0.00648671
0.00558317
0.0051151
0.00471734
0.00437449
0.00407351
0.00350019
0.00473952
0.107832
0.274713
0.490289
0.760629
1.09279
1.51139
1.9868
2.61993
3.68217
5.90391
12.2996
32.1847
149.64
288.114
0.00651829
0.00566538
0.00523645
0.00487202
0.00455732
0.00427994
0.00389572
0.00451489
0.104269
0.266976
0.478369
0.741957
1.06577
1.47464
1.94102
2.5632
3.61014
5.81956
12.0958
32.0384
143.469
290.744
0.00683897
0.00599255
0.00556011
0.00518873
0.00486553
0.00457931
0.00427255
0.00424435
0.100248
0.258685
0.465839
0.722597
1.03783
1.43651
1.89341
2.5038
3.53333
5.72686
11.8735
31.8281
137.329
292.124
0.00685344
0.00605567
0.00566225
0.00532503
0.0050315
0.00477091
0.00452679
0.00394241
0.0956509
0.249779
0.452717
0.702671
1.00915
1.39723
1.84425
2.44206
3.45212
5.6257
11.6332
31.5443
131.254
292.219
0.00716007
0.00636952
0.00597408
0.00563133
0.00533052
0.00506215
0.00482247
0.00369816
0.0903183
0.24015
0.438982
0.682282
0.979946
1.35706
1.79381
2.37834
3.36689
5.51601
11.3757
31.1784
125.272
291.016
0.00715659
0.00641244
0.00605548
0.00574726
0.00547719
0.00523601
0.00502206
0.00371712
0.084039
0.22963
0.424569
0.661497
0.950382
1.31621
1.74237
2.31297
3.27807
5.39776
11.1016
30.7227
119.404
288.516
0.00744655
0.00670979
0.00635173
0.00603896
0.00576254
0.00551441
0.00529194
0.00410438
0.0765547
0.217975
0.409348
0.64034
0.92062
1.27492
1.69019
2.24631
3.18613
5.27105
10.8119
30.1711
113.664
284.734
0.00743053
0.00673695
0.00641566
0.00613655
0.00589067
0.00567005
0.00547015
0.00466145
0.0675912
0.204851
0.393105
0.61877
0.89078
1.2334
1.63752
2.17867
3.09154
5.13604
10.5077
29.5192
108.062
279.692
0.00770417
0.00701791
0.00669614
0.00641315
0.00616152
0.00593444
0.00572705
0.00524274
0.056967
0.18982
0.375518
0.596662
0.860939
1.19186
1.5846
2.11039
2.9948
4.993
10.1899
28.765
102.604
273.423
0.0076767
0.00703035
0.00674334
0.00649278
0.00627108
0.00607139
0.00588803
0.00561901
0.044836
0.172356
0.356121
0.573771
0.831097
1.15046
1.53166
2.04177
2.89642
4.84236
9.8597
27.909
97.2888
265.966
0.00793331
0.0072939
0.0070067
0.00675264
0.00652558
0.00631976
0.0061302
0.00592603
0.0320649
0.151936
0.334283
0.549697
0.801154
1.10933
1.47892
1.9731
2.79693
4.68464
9.51826
26.9546
92.1141
257.371
0.0078995
0.00729632
0.00704129
0.00681771
0.00661917
0.0064398
0.00627426
0.00611164
0.0204038
0.128261
0.309185
0.523836
0.770854
1.06854
1.42655
1.90465
2.69686
4.52054
9.1667
25.9081
87.0727
247.702
0.00814121
0.00754446
0.00728931
0.00706243
0.0068587
0.00667329
0.00650183
0.00633863
0.0119961
0.1017
0.279853
0.495327
0.739742
1.02803
1.37469
1.8367
2.59673
4.35089
8.80614
24.7785
82.1556
237.034
0.00810333
0.00753933
0.00731376
0.0071153
0.00693851
0.00677837
0.00663019
0.00648897
0.00777167
0.073882
0.24532
0.463001
0.707089
0.987563
1.32343
1.76945
2.49712
4.17673
8.43772
23.5774
77.35
225.466
0.00833027
0.00777212
0.0075464
0.00734477
0.00716298
0.00699693
0.00684291
0.00669717
0.00661798
0.0479127
0.205058
0.425351
0.67182
0.946666
1.27271
1.7031
2.39854
3.99926
8.06264
22.3185
72.6423
213.109
0.00829263
0.00776374
0.00756481
0.00738923
0.0072324
0.00709
0.00695797
0.0068323
0.00660688
0.0274178
0.159824
0.380633
0.632417
0.904504
1.22226
1.63771
2.30154
3.81989
7.68224
21.0171
68.0171
200.101
0.00850605
0.00798247
0.00778337
0.00760478
0.00744314
0.00729498
0.00715717
0.00702668
0.00684837
0.0147126
0.112767
0.327274
0.586837
0.859794
1.17154
1.57325
2.20657
3.64021
7.29809
19.6896
63.4608
186.594
0.008471
0.00797342
0.00779841
0.00764351
0.00750479
0.00737854
0.00726125
0.0071495
0.00702318
0.00895121
0.06978
0.264926
0.532499
0.810688
1.11958
1.5094
2.11399
3.46195
6.91218
18.3528
58.9619
172.755
0.0086717
0.00817893
0.00800373
0.00784597
0.00770267
0.0075709
0.00744797
0.00733131
0.00721288
0.00720021
0.0373966
0.196286
0.466629
0.754626
1.06488
1.44553
2.02392
3.28689
6.52694
17.0234
54.5157
158.763
0.00864157
0.00817175
0.00801803
0.00788161
0.00775913
0.00764741
0.00754339
0.00744408
0.00734464
0.00697731
0.018544
0.128676
0.387395
0.688277
1.00521
1.38055
1.93618
3.11673
6.14539
15.7178
50.1259
144.801
0.00883165
0.00836614
0.00821216
0.00807299
0.00794612
0.00782906
0.00771951
0.00761526
0.00751309
0.00721095
0.0105117
0.072696
0.296458
0.607823
0.937491
1.31275
1.85013
2.95285
5.77097
14.4512
45.8079
131.047
0.00880914
0.0083638
0.00822883
0.00810871
0.00800058
0.00790168
0.00780935
0.00772096
0.00763344
0.00745677
0.00804795
0.0360296
0.202071