/*--------------------------------*- C++ -*----------------------------------*\
| =========                 |                                                 |
| \\      /  F ield         | OpenFOAM: The Open Source CFD Toolbox           |
|  \\    /   O peration     | Version:  v1912                                 |
|   \\  /    A nd           | Website:  www.openfoam.com                      |
|    \\/     M anipulation  |                                                 |
\*---------------------------------------------------------------------------*/
FoamFile
{
    version     2.0;
    format      ascii;
    class       volScalarField;
    location    "300";
    object      nut;
}
// * * * * * * * * * * * * * * * * * * * * * * * * * * * * * * * * * * * * * //

dimensions      [0 2 -1 0 0 0 0];


internalField   nonuniform List<scalar> 
12441
(
5.82197e-24
1.79052e-20
8.10492e-20
3.3254e-19
1.0683e-18
3.88834e-18
1.01057e-17
2.50051e-17
6.13832e-17
1.2753e-16
3.05658e-16
7.72168e-16
2.17686e-15
7.4161e-15
1.03821e-13
1.89783e-11
0.000196004
0.000965136
0.00309871
0.00265094
0.00364681
0.00775321
6.34202e-24
3.0335e-20
1.11732e-19
4.23947e-19
1.30209e-18
4.80736e-18
1.21986e-17
3.00104e-17
7.36095e-17
1.54454e-16
3.7981e-16
1.03028e-15
2.8224e-15
9.39119e-15
1.13248e-13
3.90575e-11
5.81397e-05
0.00117045
0.00354791
0.00288601
0.00400917
0.00781733
6.36478e-24
3.58955e-20
1.20778e-19
4.48131e-19
1.37773e-18
4.90679e-18
1.29291e-17
3.20415e-17
8.05142e-17
1.71774e-16
4.17898e-16
1.11868e-15
2.77871e-15
7.68145e-15
5.36275e-14
6.58564e-12
1.11495e-05
0.000858527
0.00141371
0.00272248
0.00416211
0.0078909
6.31925e-24
3.76918e-20
1.18534e-19
4.29309e-19
1.32535e-18
4.71361e-18
1.25135e-17
3.13273e-17
7.84942e-17
1.73676e-16
4.23769e-16
1.15523e-15
2.60506e-15
8.48843e-15
3.85644e-14
1.54527e-12
1.62944e-06
0.000598394
0.00105403
0.00264481
0.0043247
0.0079647
6.28521e-24
4.38831e-20
1.29779e-19
4.58314e-19
1.40269e-18
4.77938e-18
1.3091e-17
3.27951e-17
8.42979e-17
1.87528e-16
4.54177e-16
1.28607e-15
3.01215e-15
4.08061e-14
2.47691e-13
2.30172e-12
1.39953e-07
0.000422317
0.00103412
0.0026317
0.00446518
0.00803394
6.23503e-24
4.12881e-20
1.20539e-19
4.29189e-19
1.34272e-18
4.62211e-18
1.27505e-17
3.23934e-17
8.28941e-17
1.9269e-16
4.76962e-16
1.4471e-15
4.5235e-15
1.33109e-12
1.19149e-11
5.11022e-11
4.59434e-07
0.000387802
0.00109999
0.00268859
0.00459202
0.00809948
6.20013e-24
5.0264e-20
1.37796e-19
4.75768e-19
1.46014e-18
4.7925e-18
1.35932e-17
3.4454e-17
9.07029e-17
2.11129e-16
5.20861e-16
2.00223e-15
2.49659e-14
4.15456e-11
6.59014e-10
9.39063e-09
1.87743e-05
0.00040568
0.00128616
0.00287405
0.00473821
0.00816218
6.15036e-24
4.34523e-20
1.23172e-19
4.40157e-19
1.40816e-18
4.72283e-18
1.35124e-17
3.48453e-17
9.13198e-17
2.23853e-16
5.72532e-16
5.44183e-15
6.08577e-13
2.25702e-09
8.4238e-08
4.98255e-06
0.000195356
0.000465159
0.00174066
0.00325358
0.00493001
0.00822577
6.11757e-24
5.57043e-20
1.46131e-19
4.99676e-19
1.55411e-18
4.95869e-18
1.46119e-17
3.7571e-17
1.02075e-16
2.50953e-16
6.45372e-16
6.14143e-14
2.58434e-11
7.44157e-08
1.04418e-05
0.000154526
0.00080118
0.000829805
0.00268469
0.00390235
0.00520015
0.00829204
6.07071e-24
4.43498e-20
1.25436e-19
4.56631e-19
1.50753e-18
4.95366e-18
1.47476e-17
3.87258e-17
1.04879e-16
2.75128e-16
7.48651e-16
1.68377e-12
1.08106e-09
4.43906e-06
0.000191523
0.000617888
0.00170187
0.00157275
0.0044204
0.00489882
0.00556226
0.00836448
6.04155e-24
6.02603e-20
1.53434e-19
5.25907e-19
1.67271e-18
5.20599e-18
1.60252e-17
4.20352e-17
1.19295e-16
3.17379e-16
8.92111e-16
5.23613e-11
5.48976e-08
8.19966e-05
0.000723539
0.00171804
0.00373371
0.00314148
0.00739155
0.00634269
0.00602957
0.00844366
5.99613e-24
4.46292e-20
1.27736e-19
4.76943e-19
1.63369e-18
5.281e-18
1.64024e-17
4.40655e-17
1.25501e-16
3.6464e-16
1.15866e-15
1.45822e-09
3.24143e-06
0.00034726
0.00159282
0.00386332
0.00781921
0.00630431
0.0120515
0.00827711
0.00659073
0.00853143
5.97053e-24
6.41497e-20
1.60451e-19
5.5381e-19
1.81496e-18
5.54196e-18
1.79086e-17
4.82226e-17
1.46705e-16
4.44741e-16
1.69462e-15
3.52548e-08
7.26535e-05
0.00108913
0.0039366
0.00857275
0.015621
0.0121188
0.0185575
0.0106821
0.00723605
0.00862633
5.92655e-24
4.43256e-20
1.29671e-19
4.99315e-19
1.78319e-18
5.69197e-18
1.85326e-17
5.13845e-17
1.59853e-16
5.59171e-16
3.60152e-15
7.9728e-07
0.000347884
0.00282252
0.00875637
0.0171866
0.0285993
0.0214787
0.0265954
0.0134298
0.00793284
0.00872852
5.90418e-24
6.75161e-20
1.66655e-19
5.82622e-19
1.97799e-18
5.94018e-18
2.02693e-17
5.67833e-17
1.96058e-16
7.78734e-16
1.65177e-14
1.5195e-05
0.00113631
0.00666829
0.0174535
0.0308445
0.0473814
0.0344774
0.0353755
0.0163607
0.00866061
0.00883515
5.86049e-24
4.39593e-20
1.31998e-19
5.24808e-19
1.9578e-18
6.18562e-18
2.12024e-17
6.168e-17
2.28171e-16
1.21631e-15
3.02173e-13
0.000137545
0.002833
0.0137371
0.0310807
0.0498852
0.0712262
0.0499705
0.0439346
0.0192744
0.00938242
0.00894576
5.84141e-24
7.05409e-20
1.73505e-19
6.15124e-19
2.17061e-18
6.43962e-18
2.3311e-17
6.93794e-17
3.08237e-16
2.30502e-15
1.26029e-11
0.00052513
0.00647091
0.0249806
0.0496264
0.0736412
0.097781
0.0657913
0.051428
0.0220322
0.0100834
0.00905718
5.79745e-24
4.35027e-20
1.34494e-19
5.53143e-19
2.16068e-18
6.77171e-18
2.46188e-17
7.72315e-17
4.08474e-16
5.44581e-15
5.4801e-10
0.00134937
0.0129743
0.0408129
0.0725631
0.100234
0.123464
0.0795222
0.0574301
0.0245122
0.0107361
0.00916919
5.78109e-24
7.32647e-20
1.8029e-19
6.4914e-19
2.38803e-18
7.01179e-18
2.71831e-17
8.90731e-17
6.61742e-16
1.69237e-14
4.40848e-08
0.00328628
0.0232357
0.0605086
0.0980184
0.126924
0.144463
0.0895218
0.0619016
0.0266831
0.0113403
0.00927899
5.73656e-24
4.30539e-20
1.36873e-19
5.82415e-19
2.38692e-18
7.43835e-18
2.90081e-17
1.02319e-16
1.08045e-15
7.52744e-14
8.54653e-06
0.00697771
0.0373886
0.0830422
0.124006
0.150558
0.157929
0.0954368
0.0651345
0.0285164
0.0118821
0.00938714
5.7235e-24
7.57307e-20
1.86805e-19
6.83191e-19
2.62931e-18
7.67325e-18
3.23051e-17
1.2225e-16
2.19382e-15
7.80222e-13
0.000167168
0.0133539
0.0548205
0.106579
0.147746
0.168526
0.162926
0.0981208
0.0674944
0.0300503
0.0123747
0.00949146
5.67814e-24
4.24351e-20
1.38575e-19
6.10942e-19
2.63519e-18
8.19356e-18
3.4941e-17
1.46469e-16
4.34028e-15
1.34064e-11
0.000654639
0.022941
0.074368
0.129627
0.1673
0.1793
0.160589
0.0989339
0.0693428
0.0312986
0.0128158
0.00959327
5.66777e-24
7.80243e-20
1.92474e-19
7.15499e-19
2.88994e-18
8.41858e-18
3.94345e-17
1.83589e-16
1.0276e-14
1.66107e-10
0.00172678
0.0356622
0.0946605
0.15035
0.180937
0.182912
0.153491
0.0990931
0.0709075
0.0323236
0.0132302
0.00969106
5.62187e-24
4.19654e-20
1.39796e-19
6.38022e-19
2.90269e-18
9.03796e-18
4.35028e-17
2.31501e-16
2.2421e-14
1.55805e-09
0.00396746
0.0509487
0.114416
0.167671
0.188487
0.180638
0.144505
0.0992801
0.0723381
0.0331565
0.0136251
0.00978684
5.61502e-24
8.02772e-20
1.97583e-19
7.45836e-19
3.17128e-18
9.26771e-18
5.02663e-17
3.06439e-16
5.64421e-14
1.37798e-08
0.00796205
0.0677269
0.132595
0.180628
0.190376
0.17455
0.135841
0.0997091
0.0736836
0.033874
0.014034
0.00987966
5.56734e-24
4.17933e-20
1.40768e-19
6.63892e-19
3.19214e-18
9.99292e-18
5.71548e-17
4.08477e-16
1.30485e-13
3.18899e-07
0.0141877
0.0849904
0.148444
0.189229
0.188109
0.166704
0.128645
0.100309
0.0749682
0.0345214
0.0144705
0.00997203
5.56299e-24
8.24861e-20
2.02103e-19
7.7404e-19
3.473e-18
1.02327e-17
6.84632e-17
5.73382e-16
3.92554e-13
1.87055e-05
0.0226255
0.101722
0.161507
0.19369
0.183083
0.158729
0.123174
0.100938
0.0761738
0.0351813
0.0149717
0.0100634
5.51417e-24
4.1861e-20
1.41227e-19
6.8755e-19
3.50168e-18
1.10695e-17
8.13327e-17
8.10429e-16
1.83001e-12
0.000211271
0.0329819
0.117266
0.171609
0.194885
0.176833
0.151556
0.119193
0.101464
0.0772885
0.0358958
0.0155499
0.0101564
5.5132e-24
8.4678e-20
2.05804e-19
7.99244e-19
3.79639e-18
1.13447e-17
1.02518e-16
1.20445e-15
1.28019e-11
0.000706831
0.0446074
0.131097
0.178828
0.193576
0.170286
0.145571
0.116319
0.101814
0.0782811
0.036728
0.0162356
0.0102507
5.46211e-24
4.20361e-20
1.40972e-19
7.08446e-19
3.83379e-18
1.23054e-17
1.28835e-16
1.79584e-15
7.40945e-11
0.00142949
0.0569484
0.142973
0.183434
0.190716
0.164164
0.140772
0.114197
0.101954
0.0791342
0.0376896
0.0170285
0.0103488
5.46317e-24
8.68093e-20
2.08985e-19
8.21831e-19
4.14336e-18
1.26538e-17
1.72486e-16
2.80972e-15
3.56412e-10
0.00250194
0.0693947
0.152739
0.185823
0.186914
0.158688
0.136996
0.112564
0.101889
0.0798182
0.0388027
0.0179418
0.01045
5.41103e-24
4.22483e-20
1.39906e-19
7.26643e-19
4.19107e-18
1.37424e-17
2.30147e-16
4.38987e-15
1.3869e-09
0.00405557
0.0815435
0.160441
0.186438
0.182766
0.154
0.134023
0.111245
0.101637
0.080318
0.0400382
0.0189545
0.0105565
5.41519e-24
8.89211e-20
2.11421e-19
8.42415e-19
4.52283e-18
1.4194e-17
3.26416e-16
7.08395e-15
4.74636e-09
0.00626885
0.0929952
0.166172
0.185718
0.178545
0.150002
0.131656
0.110132
0.101227
0.0806087
0.0413827
0.0200585
0.010667
5.35958e-24
4.22808e-20
1.37816e-19
7.42916e-19
4.5852e-18
1.54547e-17
4.58287e-16
1.12965e-14
1.44513e-08
0.00930271
0.103561
0.170154
0.18405
0.174516
0.146645
0.129732
0.109164
0.100688
0.0806791
0.0427848
0.021213
0.0107831
5.36567e-24
8.84606e-20
2.10346e-19
8.57269e-19
4.9368e-18
1.60488e-17
6.78019e-16
1.85083e-14
4.2799e-08
0.0133133
0.113089
0.17261
0.181761
0.170729
0.143781
0.128133
0.10831
0.100052
0.0805099
0.0442247
0.0223972
0.0109032
5.30603e-24
4.14881e-20
1.32582e-19
7.51664e-19
5.01044e-18
1.7464e-17
9.80549e-16
2.99208e-14
2.19599e-07
0.0185168
0.121625
0.173828
0.179106
0.167284
0.141349
0.126771
0.10756
0.099346
0.0800955
0.0456622
0.0235629
0.0110282
5.3125e-24
8.52665e-20
2.03833e-19
8.62103e-19
5.38133e-18
1.81877e-17
1.4748e-15
5.74625e-14
1.13333e-05
0.0252078
0.129235
0.174055
0.176281
0.164144
0.139233
0.125591
0.106912
0.0986014
0.0794245
0.0471046
0.0246916
0.0111563
5.24609e-24
4.16172e-20
1.27332e-19
7.57743e-19
5.48303e-18
1.98587e-17
2.14254e-15
4.65071e-13
0.000207188
0.033873
0.136109
0.173558
0.173423
0.161355
0.137405
0.124557
0.106374
0.0978434
0.078501
0.0485489
0.0257458
0.0112883
5.24946e-24
5.37921e-20
1.54729e-19
7.99523e-19
5.76915e-18
2.06404e-17
3.20175e-15
2.31303e-11
0.00152003
0.0451185
0.142384
0.172545
0.170631
0.158868
0.135792
0.123652
0.105958
0.0971008
0.0773274
0.0500409
0.0267289
0.011422
5.17269e-24
4.3283e-20
1.1448e-19
7.24323e-19
5.9408e-18
2.35469e-17
4.6631e-15
1.0329e-09
0.00613263
0.0593416
0.148216
0.171229
0.167965
0.156728
0.134398
0.12287
0.10568
0.0963961
0.0759255
0.0516048
0.0276329
0.0115584
5.16604e-24
1.9396e-21
1.12097e-20
4.00672e-19
5.44943e-18
2.44398e-17
7.20775e-15
1.83628e-07
0.016806
0.0764958
0.153633
0.169757
0.165453
0.154898
0.13318
0.12222
0.105556
0.0957523
0.0743199
0.0532786
0.0284962
0.0116955
5.07791e-24
1.71176e-20
4.47762e-20
4.17413e-19
5.46274e-18
3.62111e-17
1.80079e-14
4.98554e-05
0.0358805
0.0962378
0.158634
0.168283
0.163099
0.153443
0.132174
0.121711
0.105602
0.0951812
0.0725604
0.0550068
0.0293329
0.0118345
5.0391e-24
6.72051e-22
8.45968e-23
2.35259e-19
5.06667e-18
8.28246e-17
3.70816e-13
0.00113923
0.0649359
0.117997
0.163091
0.16691
0.160883
0.152329
0.13135
0.121373
0.105831
0.0946896
0.0707022
0.0566214
0.0301435
0.011976
4.8384e-24
2.1034e-19
4.58179e-19
1.02964e-18
7.26134e-18
9.13673e-16
7.18264e-12
0.00715931
0.1046
0.141452
0.167129
0.165824
0.158785
0.151618
0.130746
0.121216
0.10624
0.0942204
0.0688141
0.0576943
0.0306234
0.0121338
0.00987657
0.0241363
0.0257644
0.00982225
0.00809097
0.0083004
0.0085225
0.00883752
0.00878909
0.00921693
0.0128177
0.011721
0.0105386
0.0102568
0.0109832
0.011862
0.0132218
0.0150989
0.0156669
0.0139058
0.0125639
0.0125135
0.0127269
0.0129846
0.0134154
0.0141802
0.0147665
0.012956
0.0202641
0.0975584
0.120482
0.11945
0.12034
0.130623
0.148776
0.00986353
0.0245352
0.0249551
0.00947559
0.00794494
0.008159
0.0085591
0.00890573
0.00879074
0.00921522
0.0125259
0.0113715
0.0101876
0.00984912
0.0106362
0.0116506
0.0130874
0.0151039
0.0157514
0.0138134
0.0123127
0.0122578
0.0125131
0.0127934
0.0132216
0.0139699
0.0145641
0.0128485
0.0195815
0.0971281
0.120372
0.119365
0.120292
0.130575
0.148743
0.00983842
0.0248756
0.0235471
0.00887925
0.00779116
0.0079846
0.00868904
0.00906499
0.00883475
0.00923746
0.0115558
0.0103005
0.00925847
0.00885546
0.00943435
0.01022
0.0113973
0.01328
0.0142077
0.0127312
0.0115402
0.0116404
0.0120262
0.0123848
0.0128328
0.0135633
0.0141608
0.0126616
0.0193355
0.0963712
0.120096
0.11914
0.120147
0.130427
0.148627
0.00979929
0.0251535
0.0217464
0.00826841
0.00768697
0.00786348
0.0088869
0.00921253
0.0089042
0.00929677
0.010495
0.00910218
0.00817217
0.00779783
0.00820768
0.00867522
0.00939787
0.0108553
0.0119018
0.0110631
0.0103547
0.0106735
0.011251
0.0117455
0.0122453
0.0129624
0.0135643
0.0123327
0.0192433
0.0952627
0.119653
0.118775
0.119902
0.130178
0.148428
0.00974597
0.0252735
0.0196859
0.00765137
0.007561
0.00773446
0.0090428
0.00925921
0.00891581
0.00930405
0.00957087
0.00804734
0.00720627
0.00691265
0.00722653
0.00742093
0.00768315
0.00858048
0.00950302
0.00917352
0.00889695
0.00940267
0.0101876
0.0108691
0.0114635
0.012181
0.0127933
0.0118191
0.0190943
0.0937693
0.119057
0.118282
0.119571
0.129841
0.148158
0.00967615
0.0251539
0.0174784
0.00700276
0.00736509
0.0075418
0.00907199
0.00915656
0.00880351
0.00916832
0.00876764
0.00715753
0.00637731
0.0061316
0.00639804
0.00643365
0.00636266
0.00674388
0.00738779
0.00733706
0.00733057
0.00792072
0.00886654
0.00976073
0.0104979
0.0112402
0.0118742
0.0111024
0.0187443
0.0918598
0.118328
0.117685
0.119173
0.129438
0.147838
0.00959042
0.0247426
0.0152397
0.00633622
0.00710475
0.00727903
0.00894787
0.00890071
0.00854619
0.00885189
0.00801165
0.00636679
0.00560949
0.00532559
0.0055443
0.00554348
0.00531548
0.00533259
0.00567646
0.00571539
0.00581494
0.00636628
0.00736491
0.00844787
0.0093664
0.0101665
0.0108395
0.0101917
0.0181105
0.0895134
0.117492
0.117012
0.118732
0.128994
0.147494
0.00948687
0.0240019
0.013082
0.00569815
0.00681968
0.00697468
0.00869194
0.00851988
0.00816094
0.00836931
0.00725659
0.00562783
0.00486383
0.00446337
0.00459164
0.0046316
0.00439715
0.00422068
0.00433634
0.0043713
0.00447561
0.00489851
0.00581261
0.00699435
0.00810011
0.00899104
0.00972419
0.00912299
0.0171649
0.0867239
0.116579
0.116293
0.118277
0.128539
0.147154
0.00936733
0.0229302
0.0110963
0.00514186
0.00655759
0.0066704
0.00835025
0.00805738
0.00768442
0.00776519
0.0064985
0.0049299
0.00415622
0.00361874
0.00361053
0.00370632
0.00355149
0.00331011
0.00329475
0.00331044
0.00338819
0.0036558
0.00437323
0.00551117
0.00675269
0.00775149
0.00856483
0.00795566
0.0159253
0.0835029
0.115621
0.115563
0.117836
0.128105
0.14685
0.0092307
0.0215397
0.00934478
0.00470893
0.00635967
0.00640696
0.00797626
0.00756118
0.00716116
0.00709432
0.00575568
0.00428268
0.00352384
0.00289456
0.00274506
0.00286806
0.00281336
0.00257879
0.0025067
0.00251947
0.00258031
0.00272023
0.00319748
0.00414745
0.0054095
0.00649707
0.00739906
0.00676443
0.0144434
0.079882
0.11465
0.114854
0.11744
0.127724
0.146613
0.00908003
0.0198762
0.00785835
0.0044229
0.00625578
0.00621821
0.00762057
0.00707672
0.00663471
0.00640954
0.00505302
0.00369857
0.00299533
0.0023593
0.0021182
0.00223209
0.00225002
0.00204764
0.00195743
0.00197947
0.00204045
0.00210501
0.00237183
0.00305049
0.00418557
0.00529319
0.0062672
0.00562878
0.0127939
0.0759149
0.113698
0.1142
0.117117
0.127427
0.146474
0.00891508
0.0179955
0.00664378
0.00429082
0.00626593
0.00612963
0.00732713
0.00664476
0.00614478
0.00575741
0.00441383
0.00318982
0.00258142
0.00202382
0.00176628
0.00185208
0.00189376
0.00171787
0.00162303
0.00165398
0.00172393
0.0017628
0.00189334
0.00230806
0.00320006
0.00422021
0.00521412
0.00462168
0.0110673
0.0716816
0.112795
0.11363
0.116897
0.127245
0.146464
0.00874002
0.0159812
0.00569132
0.00430894
0.00640387
0.00615926
0.00713153
0.00629935
0.005726
0.00517656
0.0038583
0.00276763
0.00227706
0.00185672
0.00164815
0.00170345
0.00171958
0.00154707
0.00144901
0.00148488
0.00156576
0.0016129
0.00168765
0.00191365
0.00252956
0.00335846
0.00428893
0.00379901
0.0093652
0.0672946
0.111972
0.113174
0.116804
0.127208
0.14661
0.00855535
0.0139199
0.00498561
0.00446942
0.00668127
0.00631986
0.00706122
0.00606738
0.00540672
0.00469725
0.00340365
0.00244285
0.00206836
0.00180789
0.00168999
0.00171725
0.00166791
0.00147235
0.00136956
0.0014099
0.00150296
0.00157631
0.00165806
0.00178928
0.00217384
0.00275925
0.00353828
0.00319136
0.00779503
0.0629086
0.11126
0.112856
0.116863
0.127341
0.146938
0.00836592
0.0119123
0.00451289
0.00476618
0.00711157
0.0066225
0.00713675
0.00596805
0.00520793
0.00434132
0.00306407
0.00222014
0.00193779
0.00182716
0.00181749
0.00181731
0.00167598
0.00143964
0.00133277
0.00138168
0.00149041
0.00159715
0.00172353
0.00183967
0.00206993
0.00242174
0.00299277
0.00280061
0.00645972
0.0587296
0.110687
0.112698
0.117093
0.12767
0.147472
0.00817267
0.0100489
0.00426808
0.00519939
0.0077131
0.00708085
0.00737485
0.00601663
0.00514435
0.00412319
0.00285117
0.00209729
0.0018687
0.00187333
0.00196755
0.00193804
0.00169577
0.00141586
0.00130976
0.00137362
0.00150382
0.00164654
0.00183231
0.00198447
0.0021342
0.00229924
0.0026546
0.00260474
0.00544053
0.0550164
0.110285
0.11272
0.117514
0.128215
0.148232
0.00798033
0.00841164
0.00425932
0.00577868
0.00851111
0.00772003
0.00779344
0.00622621
0.00522623
0.00405127
0.00277017
0.00206613
0.00184706
0.00191949
0.00209778
0.00203617
0.00169993
0.00138715
0.00128996
0.00137592
0.0015346
0.00171555
0.00196069
0.00216878
0.00229072
0.00232633
0.00249847
0.00256941
0.00478105
0.0520572
0.110085
0.112937
0.11814
0.128996
0.149235
0.00778933
0.00706164
0.00451172
0.00652844
0.00954099
0.00857822
0.00841667
0.0066125
0.00546295
0.00413055
0.00282163
0.00211854
0.00186434
0.00195223
0.00218474
0.00209007
0.00167893
0.00135159
0.00127277
0.00138793
0.00158262
0.00180543
0.00210319
0.00236295
0.00248354
0.00244176
0.00248488
0.00265971
0.00448446
0.0501121
0.110118
0.113363
0.118986
0.130031
0.150498
0.00760307
0.0060283
0.00506781
0.00748712
0.0108511
0.00970999
0.00927876
0.0071987
0.00586636
0.00436567
0.00300546
0.00224816
0.00191704
0.00197046
0.00222279
0.00209623
0.00163472
0.00131244
0.00126063
0.00141228
0.00165083
0.00192018
0.00226195
0.00255541
0.00267961
0.00260036
0.00257445
0.00284724
0.00452856
0.0493453
0.11041
0.114008
0.120062
0.131334
0.152034
0.00742066
0.00530213
0.00598946
0.0087057
0.0125027
0.0111855
0.0104251
0.00801816
0.0064535
0.00476552
0.00332621
0.00245617
0.00200831
0.00198132
0.00221692
0.0020609
0.00157484
0.00127447
0.00125642
0.00145179
0.00174237
0.00206273
0.0024395
0.00274393
0.00286482
0.00277617
0.00273646
0.00311315
0.00488849
0.0497963
0.110978
0.114883
0.121378
0.132918
0.153855
0.00724378
0.00484089
0.00736632
0.0102472
0.0145679
0.0130858
0.0119097
0.00911328
0.00724857
0.00534333
0.00379594
0.0027512
0.00214737
0.00199837
0.00218142
0.00199688
0.00150859
0.00124224
0.00126233
0.00150863
0.00185944
0.00223359
0.00263577
0.00292943
0.00303736
0.00295961
0.00295163
0.00344873
0.00555333
0.0514041
0.111827
0.115994
0.122943
0.134796
0.15597
0.00707145
0.00459536
0.00932154
0.012191
0.0171302
0.0154983
0.0137919
0.0105321
0.00828057
0.00611774
0.00443494
0.00315306
0.00235198
0.00203871
0.00213334
0.00191823
0.00144503
0.00121997
0.0012806
0.00158406
0.00200282
0.00243073
0.00284758
0.0031131
0.00320203
0.00315203
0.00321102
0.00385448
0.00653297
0.054053
0.112954
0.117347
0.124764
0.136978
0.158387
0.00690537
0.004533
0.0120033
0.0146462
0.0202915
0.0185186
0.0161354
0.0123234
0.00958024
0.0071082
0.00526502
0.00368677
0.00264676
0.00212412
0.00209231
0.00183977
0.00139217
0.00121167
0.00131337
0.00167863
0.00217156
0.00264991
0.0030699
0.00329578
0.00336642
0.00336077
0.00351346
0.0043388
0.00785808
0.0576052
0.11435
0.118948
0.126846
0.139474
0.161112
0.00674534
0.00464056
0.0155712
0.0177706
0.0241848
0.0222588
0.0190116
0.0145333
0.011175
0.00832833
0.00629868
0.00437624
0.00305967
0.00228078
0.00207654
0.0017739
0.00135683
0.00122165
0.00136374
0.00179197
0.00236271
0.00288527
0.00329713
0.00347845
0.00353911
0.0035955
0.00386275
0.00491674
0.00957707
0.0619172
0.116001
0.120801
0.129194
0.142292
0.164151
0.00659312
0.0049278
0.0201641
0.0217881
0.028981
0.02685
0.0224973
0.0171992
0.0130806
0.00977496
0.00752261
0.00522422
0.00360609
0.00253777
0.00210609
0.00173213
0.0013449
0.00125469
0.00143562
0.00192331
0.00257153
0.00313008
0.00352454
0.00366291
0.00372881
0.0038663
0.00426585
0.00560926
0.0117517
0.0668462
0.11789
0.122908
0.131814
0.14544
0.167507
0.00644962
0.0054294
0.02587
0.0269865
0.0348757
0.0324185
0.0266562
0.0203347
0.0152882
0.0114167
0.00888564
0.00619761
0.00427008
0.00291164
0.00219962
0.00172385
0.00136198
0.0013166
0.00153483
0.00207179
0.00279193
0.00337777
0.0037491
0.00385234
0.00394416
0.00418246
0.00473159
0.00644283
0.014452
0.0722539
0.120003
0.125272
0.134707
0.148923
0.171182
0.00631698
0.00619283
0.0327055
0.0336886
0.0420472
0.0390294
0.031495
0.0239003
0.0177433
0.0131805
0.0102909
0.00721358
0.0049876
0.00338372
0.00237109
0.00175868
0.001414
0.00141423
0.00166866
0.00223782
0.00301768
0.00362296
0.00397009
0.00405144
0.00419358
0.00455223
0.00527055
0.0074495
0.0177508
0.0780103
0.122325
0.127895
0.137877
0.152748
0.175176
0.00619775
0.0072661
0.0406447
0.0422024
0.0505929
0.0466096
0.0369069
0.0277688
0.0203267
0.0149448
0.0116008
0.00814729
0.00565216
0.00388308
0.00261114
0.00184281
0.00150774
0.00155598
0.00184654
0.00242409
0.00324376
0.00386228
0.00418919
0.0042663
0.00448516
0.00498264
0.00589506
0.00866709
0.021717
0.0839977
0.124846
0.130777
0.141325
0.156918
0.179488
0.00609509
0.00867904
0.0496831
0.0527689
0.0604635
0.0548845
0.0426276
0.0317033
0.0228452
0.0165419
0.0126517
0.0088497
0.00613722
0.00430507
0.00287896
0.00197658
0.00165011
0.00175114
0.00207878
0.00263703
0.00346807
0.00409512
0.00441033
0.00450411
0.00482641
0.00547975
0.00661982
0.0101395
0.0264091
0.0901136
0.127554
0.133917
0.145051
0.161436
0.184116
0.00601408
0.0104464
0.0599073
0.0654999
0.0713996
0.0633536
0.0482273
0.0353631
0.0250438
0.0177775
0.013284
0.00918712
0.00633704
0.00454994
0.00310963
0.00214781
0.00184592
0.00200891
0.00237614
0.00288667
0.00369259
0.00432385
0.00463936
0.00477273
0.005224
0.00604886
0.00746237
0.0119169
0.0318679
0.0962729
0.13044
0.137315
0.149056
0.166305
0.189055
0.00596079
0.0125773
0.071484
0.0802569
0.0828634
0.0713051
0.0531449
0.0383395
0.02664
0.0184632
0.0133769
0.0090821
0.00620874
0.00456926
0.00325156
0.00233672
0.00209492
0.00233511
0.00274619
0.00318615
0.00392422
0.0045539
0.00488364
0.00508007
0.00568335
0.006695
0.00844394
0.0140556
0.038111
0.102408
0.133495
0.140967
0.153339
0.171527
0.1943
0.00594609
0.0151052
0.0845684
0.0964548
0.0939834
0.0778785
0.0567642
0.0402199
0.0273747
0.0184571
0.0128848
0.00855109
0.00580264
0.00438899
0.00329087
0.00252331
0.00239013
0.00272872
0.00319034
0.00354842
0.00417458
0.00479349
0.00515148
0.00543361
0.00620845
0.00742331
0.00958982
0.0166178
0.0451294
0.10847
0.136713
0.144872
0.157899
0.177103
0.199846
0.00598322
0.0180928
0.0990972
0.112879
0.103577
0.0821883
0.0585239
0.0406673
0.0270689
0.0177021
0.0118563
0.00770553
0.00524796
0.00410311
0.0032608
0.00270063
0.00271958
0.00317869
0.00369863
0.00398244
0.00445912
0.0050532
0.00545157
0.00583962
0.00680149
0.00823966
0.0109302
0.0196706
0.0528863
0.114424
0.140088
0.149028
0.162738
0.183038
0.20569
0.00609167
0.0216438
0.114578
0.127721
0.110332
0.0835134
0.0580471
0.0395038
0.0256738
0.0162482
0.0104299
0.00671648
0.00469556
0.00382452
0.00321677
0.00287332
0.00306932
0.00366444
0.00424901
0.00448698
0.00479485
0.00534511
0.00579234
0.00630256
0.00746286
0.00915092
0.0125005
0.0232846
0.0613194
0.120248
0.143615
0.153433
0.167858
0.189337
0.211829
0.00628805
0.0258688
0.12997
0.13895
0.113129
0.0814954
0.0552483
0.0367675
0.0232937
0.0142492
0.0087996
0.00575055
0.00425003
0.00363369
0.00320922
0.00305288
0.00342602
0.00415921
0.00480909
0.00504776
0.00519701
0.00568185
0.0061812
0.00682437
0.00819102
0.0101655
0.0143419
0.0275323
0.0703464
0.125934
0.147294
0.15809
0.173266
0.196011
0.218266
0.00658505
0.0308828
0.143871
0.144933
0.111383
0.0762629
0.0503757
0.0327205
0.020173
0.0119308
0.00716949
0.00492191
0.00394373
0.00355117
0.00325698
0.00324318
0.00377613
0.00463506
0.00534369
0.00563635
0.00567416
0.00607469
0.00662362
0.00740395
0.0089827
0.0112932
0.0165016
0.0324862
0.0798723
0.131482
0.151128
0.163008
0.178973
0.203079
0.225007
0.00697682
0.0367213
0.15486
0.144919
0.105221
0.0684052
0.0439565
0.0277919
0.0166423
0.00954299
0.00570999
0.00427457
0.00375343
0.00355074
0.00334873
0.00343828
0.00410619
0.00506789
0.00582209
0.00621772
0.00622367
0.00653142
0.0071223
0.00803676
0.00983305
0.0125456
0.0190337
0.0382172
0.0897987
0.136903
0.155124
0.168201
0.184997
0.210567
0.232069
0.00744499
0.0432825
0.161827
0.139143
0.0954003
0.0588097
0.0366677
0.0224814
0.0130498
0.00731522
0.00452991
0.00380065
0.00363605
0.00358463
0.00345208
0.00362179
0.00440291
0.00544017
0.00622391
0.00675673
0.00682865
0.00705337
0.00767626
0.00871503
0.0107362
0.0139358
0.0219991
0.044794
0.100033
0.142217
0.159299
0.173693
0.191364
0.218512
0.239473
0.00795396
0.0500845
0.163994
0.128528
0.0830375
0.0484331
0.0291827
0.0172564
0.00970103
0.00542671
0.0036624
0.00346669
0.00355303
0.00361204
0.00353713
0.00377915
0.00465716
0.00574332
0.00654128
0.0072285
0.00745981
0.00763336
0.00828057
0.00942848
0.0116857
0.0154788
0.025467
0.052283
0.110499
0.147454
0.163674
0.179518
0.198109
0.226962
0.247255
0.00846726
0.0561851
0.160855
0.114285
0.0693055
0.0381131
0.0220581
0.01249
0.00683273
0.00398637
0.00307463
0.003236
0.0034798
0.00360826
0.00358398
0.00390073
0.00486487
0.00597617
0.00677709
0.00761884
0.00808041
0.00825454
0.00892656
0.010166
0.012676
0.0171913
0.0295153
0.060751
0.121143
0.152656
0.168283
0.185721
0.205277
0.23598
0.255458
0.00894498
0.0601206
0.152084
0.0976198
0.0552225
0.0284682
0.0156858
0.00844663
0.00460599
0.00300775
0.00269846
0.00307341
0.00340053
0.00356513
0.00358966
0.00398864
0.00502935
0.00614446
0.0069425
0.00792756
0.00865458
0.00889255
0.00960323
0.0109177
0.0137033
0.019093
0.0342318
0.0702677
0.131941
0.157873
0.173164
0.192359
0.212922
0.245636
0.264137
0.0093615
0.0603968
0.137615
0.079651
0.0415962
0.0199056
0.0103196
0.00530663
0.00308478
0.00240766
0.00246274
0.00294606
0.00330191
0.00347885
0.00355761
0.00405122
0.00515838
0.00625702
0.00705226
0.00816195
0.00915347
0.0095191
0.010299
0.0116775
0.0147677
0.0212074
0.0397158
0.0809111
0.142904
0.163172
0.178365
0.199496
0.221105
0.256013
0.273355
0.0096768
0.055742
0.117692
0.0614437
0.0290973
0.0127097
0.00614241
0.00316711
0.00218384
0.00205825
0.00230463
0.0028215
0.00316822
0.00334584
0.00349622
0.0041044
0.00526469
0.00632532
0.00712326
0.00833763
0.00956071
0.0101079
0.0110039
0.0124451
0.0158752
0.0235635
0.0460786
0.092772
0.154083
0.168625
0.18394
0.207204
0.229892
0.267198
0.283179
0.00988074
0.0460611
0.0932172
0.0439874
0.0183067
0.00709966
0.0032754
0.00193753
0.00168675
0.00183382
0.00216126
0.00266308
0.00297723
0.0031547
0.00340434
0.00415651
0.00535447
0.00635428
0.00717014
0.00847252
0.00987325
0.0106375
0.0117096
0.0132264
0.0170389
0.0261984
0.0534444
0.105958
0.165562
0.174315
0.189944
0.215552
0.23935
0.279279
0.29368
4.8826e-24
3.15351e-19
1.14254e-18
4.3176e-18
2.50481e-17
3.16147e-14
9.05495e-11
0.0265423
0.141988
0.159636
0.169735
0.165254
0.157304
0.15141
0.130483
0.121308
0.106752
0.0937656
0.0674079
0.0578584
0.0302374
0.0121431
4.99634e-24
7.3957e-20
8.35662e-20
6.25187e-18
6.25549e-17
2.46572e-13
9.26657e-10
0.0501928
0.167453
0.17063
0.170822
0.164866
0.156438
0.151494
0.130546
0.12156
0.107327
0.0935009
0.0667087
0.0576163
0.0298027
0.0121926
5.10241e-24
2.76633e-19
8.779e-19
8.9015e-18
1.22307e-16
9.2954e-13
9.3372e-09
0.0784132
0.190236
0.17967
0.171455
0.164528
0.155773
0.151756
0.130824
0.121982
0.108092
0.0933238
0.0663568
0.0570085
0.0292669
0.0123513
5.06219e-24
5.72614e-20
2.14771e-20
6.84935e-18
1.92244e-16
2.27854e-12
1.69608e-07
0.108194
0.20992
0.187022
0.171984
0.164331
0.155367
0.152238
0.131352
0.122555
0.109012
0.0932416
0.066341
0.056067
0.0286644
0.0126087
5.166e-24
2.21307e-19
6.32145e-19
7.2282e-18
2.88015e-16
3.60703e-12
6.5436e-06
0.13495
0.22646
0.192962
0.172656
0.164347
0.155275
0.152923
0.132109
0.12327
0.110054
0.0932558
0.0666297
0.0548617
0.0280407
0.012956
5.11422e-24
4.59247e-20
1.20666e-20
4.61418e-18
4.095e-16
4.86672e-12
1.86018e-05
0.153682
0.239966
0.197794
0.173674
0.164651
0.155542
0.153861
0.13313
0.124116
0.111178
0.0933627
0.0671886
0.05345
0.027406
0.0134103
5.22948e-24
1.78687e-19
4.73306e-19
4.63518e-18
5.79938e-16
5.05549e-12
3.43804e-05
0.161977
0.250653
0.201768
0.17515
0.165295
0.156206
0.155039
0.134396
0.125096
0.11235
0.093559
0.067966
0.0519127
0.0267858
0.0139853
5.17037e-24
3.80411e-20
7.8801e-21
2.77925e-18
7.71727e-16
4.37163e-12
2.57159e-05
0.160524
0.258697
0.205115
0.177178
0.16634
0.157294
0.15651
0.135948
0.126212
0.113541
0.0938351
0.0689161
0.0503049
0.026178
0.0146987
5.29814e-24
1.46656e-19
3.69506e-19
2.8604e-18
9.85208e-16
2.87718e-12
2.73298e-05
0.151849
0.26424
0.207983
0.179775
0.167815
0.158826
0.158259
0.137768
0.127482
0.114733
0.0941834
0.0699818
0.0486988
0.0256017
0.0155543
5.22367e-24
3.24418e-20
5.8872e-21
1.68645e-18
1.14721e-15
1.68732e-12
3.51933e-05
0.138326
0.267284
0.210484
0.182961
0.169762
0.160815
0.160337
0.139901
0.128925
0.115922
0.0945917
0.0711212
0.0471346
0.0250481
0.0165554
5.3579e-24
1.21928e-19
2.97352e-19
1.84161e-18
1.2514e-15
8.51579e-13
4.00307e-05
0.121492
0.267742
0.212629
0.18669
0.172195
0.163269
0.162724
0.142328
0.130571
0.117119
0.0950533
0.0722853
0.0456687
0.0245324
0.0176877
5.27128e-24
2.84278e-20
4.69162e-21
1.08031e-18
1.23815e-15
4.16119e-13
4.10057e-05
0.102759
0.26536
0.214382
0.190925
0.17514
0.16619
0.165463
0.145095
0.132444
0.118349
0.0955597
0.0734466
0.044324
0.0240417
0.0189356
5.41232e-24
1.02862e-19
2.48114e-19
1.26243e-18
1.14747e-15
1.8916e-13
3.48457e-05