/*--------------------------------*- C++ -*----------------------------------*\
| =========                 |                                                 |
| \\      /  F ield         | OpenFOAM: The Open Source CFD Toolbox           |
|  \\    /   O peration     | Version:  v1912                                 |
|   \\  /    A nd           | Website:  www.openfoam.com                      |
|    \\/     M anipulation  |                                                 |
\*---------------------------------------------------------------------------*/
FoamFile
{
    version     2.0;
    format      ascii;
    class       volScalarField;
    location    "300";
    object      p;
}
// * * * * * * * * * * * * * * * * * * * * * * * * * * * * * * * * * * * * * //

dimensions      [0 2 -2 0 0 0 0];


internalField   nonuniform List<scalar> 
12441
(
8.64697
8.94101
9.7807
11.0882
12.7848
14.9194
17.5821
20.8845
25.0082
30.1129
36.4168
44.1721
53.8243
65.9508
81.6494
101.303
129.285
164.135
220.761
283.105
374.301
437.803
8.64697
8.941
9.78069
11.0882
12.7848
14.9193
17.582
20.8844
25.0081
30.1127
36.4164
44.1714
53.8233
65.9491
81.6463
101.296
129.269
164.111
220.68
283.029
374.252
437.607
8.64695
8.94098
9.78066
11.0882
12.7847
14.9193
17.5819
20.8842
25.0078
30.1122
36.4157
44.1702
53.8213
65.9458
81.6402
101.282
129.244
164.055
220.51
282.848
374.119
437.25
8.64693
8.94096
9.78063
11.0881
12.7847
14.9191
17.5817
20.8839
25.0074
30.1115
36.4146
44.1683
53.8184
65.9409
81.6311
101.262
129.211
163.969
220.332
282.57
373.877
436.697
8.6469
8.94092
9.78058
11.0881
12.7846
14.919
17.5815
20.8835
25.0068
30.1106
36.4131
44.1658
53.8144
65.9344
81.6189
101.235
129.168
163.862
220.167
282.221
373.538
435.941
8.64686
8.94088
9.78053
11.088
12.7844
14.9188
17.5812
20.883
25.006
30.1094
36.4113
44.1626
53.8094
65.9262
81.6038
101.202
129.115
163.736
219.981
281.799
373.105
434.985
8.64681
8.94082
9.78046
11.0879
12.7843
14.9185
17.5808
20.8825
25.0051
30.108
36.4091
44.1588
53.8035
65.9164
81.5856
101.162
129.052
163.588
219.763
281.308
372.584
433.828
8.64676
8.94076
9.78038
11.0877
12.7841
14.9183
17.5804
20.8818
25.0041
30.1063
36.4066
44.1544
53.7965
65.905
81.5644
101.117
128.984
163.42
219.526
280.759
371.978
432.467
8.6467
8.94069
9.78029
11.0876
12.7839
14.918
17.5799
20.881
25.0029
30.1044
36.4037
44.1493
53.7885
65.8921
81.5407
101.068
128.913
163.239
219.289
280.165
371.293
430.897
8.64663
8.94061
9.78018
11.0875
12.7836
14.9176
17.5794
20.8801
25.0016
30.1023
36.4004
44.1436
53.7796
65.8776
81.5156
101.017
128.846
163.056
219.078
279.537
370.529
429.114
8.64655
8.94053
9.78007
11.0873
12.7834
14.9172
17.5788
20.8791
25.0001
30.0999
36.3968
44.1373
53.7697
65.862
81.4904
100.972
128.797
162.888
218.921
278.884
369.683
427.11
8.64646
8.94043
9.77994
11.0871
12.7831
14.9168
17.5781
20.878
24.9985
30.0973
36.3928
44.1304
53.7588
65.8463
81.4683
100.941
128.796
162.771
218.847
278.211
368.75
424.876
8.64637
8.94032
9.77981
11.0869
12.7828
14.9163
17.5774
20.8768
24.9967
30.0945
36.3884
44.1228
53.7473
65.8324
81.4581
100.945
128.884
162.747
218.865
277.509
367.721
422.401
8.64627
8.94021
9.77966
11.0867
12.7825
14.9158
17.5766
20.8756
24.9948
30.0914
36.3837
44.1146
53.7358
65.8249
81.4738
101.009
129.101
162.853
218.945
276.76
366.587
419.672
8.64616
8.94009
9.7795
11.0864
12.7821
14.9152
17.5758
20.8742
24.9927
30.0881
36.3786
44.1059
53.7258
65.8314
81.5313
101.154
129.466
163.091
219.027
275.938
365.338
416.677
8.64605
8.93995
9.77932
11.0862
12.7817
14.9146
17.5749
20.8727
24.9905
30.0845
36.3731
44.0968
53.7201
65.8612
81.6427
101.386
129.957
163.411
219.038
275.017
363.965
413.401
8.64592
8.93981
9.77914
11.0859
12.7813
14.914
17.5739
20.8711
24.9881
30.0807
36.3672
44.088
53.7234
65.9216
81.8103
101.692
130.511
163.72
218.92
273.977
362.461
409.832
8.64579
8.93966
9.77895
11.0856
12.7808
14.9133
17.5729
20.8694
24.9856
30.0767
36.3609
44.0804
53.7416
66.0152
82.0253
102.042
131.031
163.916
218.645
272.808
360.82
405.953
8.64565
8.93951
9.77874
11.0853
12.7804
14.9126
17.5718
20.8677
24.9829
30.0724
36.3542
44.0762
53.7791
66.1377
82.2684
102.389
131.414
163.932
218.218
271.507
359.038
401.751
8.6455
8.93934
9.77852
11.0849
12.7799
14.9119
17.5707
20.8658
24.9801
30.0678
36.3472
44.0781
53.837
66.2798
82.5138
102.68
131.583
163.755
217.661
270.079
357.114
397.209
8.64535
8.93916
9.77829
11.0846
12.7794
14.9111
17.5695
20.8638
24.9771
30.063
36.3401
44.0897
53.9122
66.4284
82.732
102.87
131.514
163.423
217.004
268.529
355.046
392.313
8.64519
8.93898
9.77805
11.0842
12.7788
14.9103
17.5682
20.8618
24.974
30.058
36.3335
44.1132
53.998
66.5704
82.8976
102.934
131.237
162.995
216.274
266.867
352.836
387.045
8.64502
8.93879
9.7778
11.0839
12.7782
14.9094
17.5669
20.8596
24.9707
30.0526
36.3281
44.1483
54.0875
66.693
82.9932
102.871
130.821
162.521
215.489
265.101
350.484
381.389
8.64484
8.93858
9.77754
11.0835
12.7776
14.9085
17.5655
20.8573
24.9673
30.047
36.3254
44.1927
54.1732
66.7869
83.0144
102.703
130.342
162.031
214.66
263.24
347.992
375.326
8.64465
8.93837
9.77726
11.083
12.777
14.9076
17.564
20.855
24.9637
30.0411
36.327
44.2424
54.2497
66.8454
82.9677
102.464
129.861
161.537
213.789
261.294
345.364
368.836
8.64446
8.93815
9.77697
11.0826
12.7764
14.9066
17.5625
20.8525
24.96
30.035
36.3341
44.2933
54.3128
66.868
82.8687
102.189
129.409
161.035
212.88
259.272
342.602
361.9
8.64426
8.93793
9.77667
11.0822
12.7757
14.9055
17.561
20.85
24.9561
30.0287
36.3472
44.3417
54.36
66.8569
82.7347
101.905
128.994
160.521
211.931
257.185
339.709
354.494
8.64405
8.93769
9.77636
11.0817
12.775
14.9045
17.5594
20.8473
24.952
30.0224
36.3654
44.3849
54.3902
66.8184
82.5826
101.629
128.61
159.989
210.942
255.039
336.687
346.594
8.64383
8.93744
9.77604
11.0812
12.7743
14.9034
17.5577
20.8445
24.9478
30.0164
36.387
44.4211
54.4041
66.7589
82.4239
101.369
128.247
159.437
209.912
252.843
333.534
338.175
8.64361
8.93719
9.77571
11.0807
12.7735
14.9022
17.5559
20.8417
24.9433
30.0107
36.4102
44.4493
54.4026
66.6855
82.2667
101.123
127.896
158.862
208.841
250.599
330.25
329.208
8.64338
8.93693
9.77536
11.0802
12.7727
14.9011
17.5541
20.8387
24.9388
30.0054
36.4332
44.469
54.3883
66.6031
82.114
100.891
127.548
158.266
207.729
248.311
326.83
319.663
8.64314
8.93665
9.77501
11.0797
12.7719
14.8998
17.5523
20.8356
24.934
30.0009
36.455
44.4803
54.3632
66.5164
81.9673
100.666
127.2
157.65
206.576
245.979
323.267
309.507
8.64289
8.93637
9.77464
11.0791
12.7711
14.8986
17.5504
20.8325
24.9291
29.9974
36.4746
44.4836
54.33
66.4275
81.8257
100.448
126.847
157.015
205.382
243.602
319.552
298.705
8.64263
8.93609
9.77426
11.0785
12.7703
14.8973
17.5484
20.8292
24.924
29.9953
36.4913
44.4797
54.2905
66.3386
81.6885
100.232
126.489
156.361
204.148
241.18
315.674
287.221
8.64237
8.93579
9.77387
11.0779
12.7694
14.8959
17.5463
20.8258
24.9188
29.9948
36.5049
44.4694
54.2467
66.2499
81.5541
100.016
126.125
155.692
202.874
238.713
311.621
275.015
8.6421
8.93548
9.77346
11.0773
12.7685
14.8946
17.5442
20.8223
24.9134
29.9963
36.5153
44.4538
54.1997
66.1624
81.4219
99.7996
125.754
155.007
201.561
236.202
307.382
262.045
8.64182
8.93516
9.77305
11.0767
12.7675
14.8932
17.5421
20.8187
24.9079
30.0006
36.5229
44.4338
54.1509
66.0756
81.2904
99.5815
125.376
154.307
200.21
233.649
302.945
248.268
8.64154
8.93484
9.77262
11.0761
12.7666
14.8917
17.5399
20.815
24.9026
30.009
36.528
44.4105
54.1007
65.9902
81.1595
99.3611
124.992
153.594
198.821
231.06
298.301
233.637
8.64124
8.93451
9.77219
11.0754
12.7656
14.8902
17.5376
20.8112
24.8985
30.0223
36.531
44.3846
54.0501
65.9055
81.0281
99.1383
124.602
152.869
197.398
228.44
293.44
218.104
8.64094
8.93417
9.77174
11.0748
12.7646
14.8887
17.5352
20.8073
24.8983
30.0408
36.5323
44.3569
53.9989
65.822
80.8966
98.9128
124.206
152.131
195.942
225.793
288.359
201.617
8.64063
8.93381
9.77127
11.0741
12.7635
14.8871
17.5328
20.8033
24.9059
30.0642
36.532
44.3281
53.9477
65.7393
80.7642
98.6851
123.805
151.382
194.457
223.125
283.055
184.121
8.64032
8.93346
9.7708
11.0734
12.7625
14.8855
17.5304
20.7993
24.9249
30.0923
36.53
44.2985
53.8962
65.658
80.6315
98.4552
123.4
150.622
192.947
220.437
277.526
165.569
8.63999
8.93309
9.77032
11.0726
12.7614
14.8838
17.5278
20.7963
24.9579
30.1239
36.5263
44.2688
53.8446
65.5776
80.4978
98.2238
122.99
149.85
191.416
217.727
271.748
145.874
8.63966
8.93271
9.76982
11.0719
12.7603
14.8821
17.5252
20.7976
25.0039
30.1575
36.5207
44.2394
53.7928
65.4988
80.3644
97.991
122.576
149.062
189.872
214.982
265.639
124.294
-18.9843
-24.309
-27.4198
-23.0565
-18.7543
-16.294
-14.7033
-13.5297
-12.5418
-10.9206
-8.444
-3.47469
3.10257
5.8059
3.81724
1.23839
5.20046
13.1627
17.9877
17.3354
15.5689
12.5743
10.0463
8.3839
7.05322
6.07796
3.6485
0.829041
-2.59169
-1.88373
8.80192
5.1387
3.71765
1.85591
0.780953
-18.9918
-24.3027
-27.4471
-23.0569
-18.7513
-16.2909
-14.7025
-13.5288
-12.5405
-10.9192
-8.44089
-3.47551
3.10147
5.80689
3.82498
1.25207
5.21441
13.1716
17.9923
17.3391
15.5725
12.5776
10.0489
8.38603
7.05519
6.07923
3.65086
0.833109
-2.58783
-1.93079
8.79602
5.13935
3.7179
1.85595
0.780955
-19.0043
-24.3048
-27.4922
-23.0573
-18.7476
-16.2868
-14.7016
-13.5279
-12.5396
-10.9181
-8.43906
-3.47524
3.10265
5.81154
3.83799
1.27518
5.24537
13.2024
18.0139
17.3511
15.5798
12.5832
10.0532
8.38963
7.05856
6.08183
3.6545
0.837036
-2.58849
-1.97482
8.79035
5.14009
3.71817
1.856
0.780962
-19.022
-24.3231
-27.5547
-23.0595
-18.744
-16.2821
-14.7002
-13.5269
-12.5388
-10.9171
-8.43756
-3.47378
3.10544
5.8171
3.85148
1.30093
5.28585
13.2501
18.0519
17.3723
15.5918
12.5919
10.0598
8.39494
7.06347
6.08593
3.65834
0.843342
-2.58907
-2.00681
8.78466
5.1409
3.71846
1.85607
0.780976
-19.0447
-24.3622
-27.6312
-23.064
-18.7394
-16.2765
-14.6978
-13.5259
-12.5382
-10.9164
-8.43668
-3.47242
3.10928
5.82281
3.86211
1.32086
5.32101
13.2974
18.0941
17.398
15.6072
12.6035
10.0686
8.40194
7.06982
6.09144
3.66274
0.853005
-2.58801
-2.02439
8.7793
5.14179
3.71876
1.85616
0.780993
-19.0719
-24.4264
-27.7179
-23.0699
-18.7326
-16.2693
-14.6941
-13.5248
-12.5377
-10.9161
-8.43691
-3.47142
3.11397
5.82895
3.87025
1.33424
5.34642
13.3357
18.1322
17.4237
15.6245
12.6172
10.0794
8.41051
7.07742
6.09813
3.6678
0.866208
-2.58254
-2.02784
8.77433
5.14276
3.71907
1.85626
0.781014
-19.1032
-24.5188
-27.8114
-23.0766
-18.7233
-16.2607
-14.6892
-13.524
-12.5375
-10.9165
-8.43834
-3.47088
3.11958
5.83624
3.87756
1.34381
5.36417
13.3642
18.1629
17.4467
15.6417
12.632
10.0918
8.42041
7.08607
6.10574
3.67342
0.882632
-2.57023
-2.018
8.76976
5.14382
3.71938
1.85636
0.781034
-19.1378
-24.641
-27.9082
-23.0847
-18.7122
-16.251
-14.6833
-13.5234
-12.5376
-10.9177
-8.44093
-3.47059
3.12594
5.84449
3.88477
1.35193
5.37744
13.3849
18.1855
17.465
15.657
12.6464
10.1046
8.43122
7.0955
6.11397
3.6794
0.901735
-2.55009
-1.9954
8.76554
5.14497
3.71968
1.85647
0.781053
-19.1752
-24.7925
-28.0047
-23.0947
-18.7002
-16.2411
-14.6769
-13.5231
-12.5381
-10.9199
-8.44464
-3.4706
3.13251
5.8529
3.8917
1.35939
5.38783
13.3991
18.2005
17.4776
15.6686
12.6585
10.1167
8.44225
7.10536
6.12252
3.68557
0.922821
-2.52253
-1.96064
8.76166
5.14619
3.71997
1.85657
0.781067
-19.2147
-24.9707
-28.0976
-23.1071
-18.6883
-16.2317
-14.6706
-13.5234
-12.539
-10.9232
-8.44927
-3.47103
3.13847
5.86019
3.89771
1.36599
5.39549
13.4076
18.2083
17.4842
15.6755
12.6671
10.1268
8.45255
7.11515
6.13104
3.69172
0.94505
-2.48891
-1.91417
8.75809
5.14751
3.72026
1.85666
0.781075
-19.2558
-25.1707
-28.184
-23.1221
-18.6771
-16.2234
-14.6649
-13.5242
-12.5407
-10.9275
-8.4548
-3.47205
3.1431
5.8655
3.9024
1.3713
5.39997
13.4104
18.2095
17.4849
15.6773
12.6716
10.1338
8.46116
7.12423
6.13912
3.69765
0.967538
-2.45112
-1.85667
8.75486
5.1489
3.72053
1.85673
0.781073
-19.2978
-25.3857
-28.2621
-23.1393
-18.6675
-16.2167
-14.6602
-13.5256
-12.5429
-10.933
-8.46096
-3.47382
3.14594
5.86836
3.90566
1.37518
5.40139
13.4082
18.2049
17.4804
15.6747
12.6721
10.1375
8.46735
7.13193
6.14628
3.70317
0.989504
-2.41142
-1.78877
8.75202
5.15038
3.72078
1.85679
0.781061
-19.34
-25.607
-28.3309
-23.1577
-18.6598
-16.2121
-14.6571
-13.5279
-12.546
-10.9396
-8.4677
-3.47639
3.14704
5.86899
3.90769
1.3778
5.40035
13.4021
18.1957
17.4718
15.6684
12.6692
10.1379
8.47086
7.13773
6.15205
3.70809
1.01046
-2.37221
-1.71161
8.74965
5.15194
3.721
1.85682
0.781035
-19.3818
-25.8248
-28.3901
-23.1761
-18.6547
-16.2097
-14.6559
-13.531
-12.5501
-10.9472
-8.4748
-3.47972
3.14675
5.86781
3.9087
1.37949
5.39779
13.3934
18.183
17.46
15.6595
12.664
10.136
8.47197
7.14143
6.1561
3.71224
1.03029
-2.33594
-1.62662
8.74791
5.15357
3.7212
1.85682
0.780994
-19.4227
-26.029
-28.44
-23.1929
-18.6521
-16.2099
-14.6568
-13.5353
-12.5552
-10.9559
-8.48238
-3.48368
3.14554
5.86557
3.90895
1.3805
5.39449
13.3829
18.1676
17.4458
15.6486
12.6573
10.1326
8.4713
7.14323
6.15835
3.71555
1.04927
-2.30465
-1.53629
8.74698
5.15527
3.72137
1.85679
0.780937
-19.462
-26.21
-28.4812
-23.2062
-18.6521
-16.2129
-14.6599
-13.5408
-12.5615
-10.9658
-8.4904
-3.48816
3.14377
5.86274
3.90858
1.38108
5.39116
13.3714
18.1499
17.4294
15.6361
12.6498
10.1284
8.46956
7.14363
6.15901
3.71803
1.06784
-2.27951
-1.444
8.74706
5.15703
3.72151
1.85673
0.780862
-19.4989
-26.3602
-28.5145
-23.2138
-18.6549
-16.219
-14.6655
-13.548
-12.5694
-10.9771
-8.49922
-3.49312
3.14165
5.85989
3.9078
1.38143
5.38817
13.359
18.1299
17.4107
15.622
12.6416
10.1239
8.46729
7.14315
6.15846
3.71981
1.08637
-2.26045
-1.35417
8.74833
5.15885
3.72161
1.85663
0.780769
-19.5329
-26.475
-28.5414
-23.2141
-18.661
-16.2283
-14.6739
-13.5569
-12.5789
-10.9899
-8.50901
-3.49865
3.13915
5.85702
3.90659
1.38178
5.38587
13.3458
18.1076
17.3897
15.6061
12.6327
10.1193
8.46481
7.14223
6.15712
3.7211
1.10509
-2.2464
-1.27108
8.75088
5.16071
3.72167
1.85649
0.780657
-19.5629
-26.5543
-28.564
-23.2073
-18.6702
-16.241
-14.6852
-13.5682
-12.5905
-11.0048
-8.52046
-3.50502
3.13614
5.85416
3.90497
1.38236
5.38434
13.3316
18.0826
17.3663
15.5885
12.6229
10.1145
8.46223
7.14113
6.15533
3.7221
1.1241
-2.23589
-1.19808
8.75465
5.16261
3.72169
1.85631
0.780525
-19.5886
-26.6012
-28.5843
-23.1947
-18.6819
-16.2574
-14.7001
-13.5822
-12.6047
-11.0221
-8.5341
-3.51278
3.1322
5.85076
3.90263
1.38341
5.38372
13.3163
18.055
17.3403
15.569
12.6122
10.1093
8.45953
7.13999
6.15331
3.72301
1.14345
-2.22759
-1.13625
8.7595
5.16453
3.72165
1.85609
0.780374
-19.6105
-26.6207
-28.6029
-23.1784
-18.6952
-16.2775
-14.719
-13.5997
-12.6222
-11.0428
-8.55118
-3.52269
3.12683
5.84644
3.89938
1.38505
5.38386
13.2997
18.0244
17.3119
15.5478
12.6006
10.1038
8.45667
7.13887
6.15122
3.72395
1.16318
-2.22057
-1.08485
8.76517
5.16647
3.72158
1.85582
0.780204
-19.6292
-26.6197
-28.6171
-23.1599
-18.7094
-16.3018
-14.7428
-13.6218
-12.6438
-11.0676
-8.5727
-3.53591
3.11921
5.84039
3.89482
1.38742
5.38474
13.2815
17.9909
17.281
15.5249
12.5882
10.0979
8.4536
7.13776
6.14909
3.72501
1.18335
-2.21422
-1.04139
8.7714
5.16843
3.72144
1.85552
0.780013
-19.6444
-26.6037
-28.6226
-23.1401
-18.7236
-16.3305
-14.7722
-13.6494
-12.6707
-11.098
-8.60044
-3.55372
3.10852
5.83225
3.88882
1.39053
5.38605
13.2614
17.9542
17.2478
15.5006
12.5751
10.0916
8.45032
7.13666
6.14695
3.72623
1.20397
-2.2082
-1.00315
8.77798
5.17038
3.72126
1.85517
0.779804
-19.6551
-26.5766
-28.613
-23.1191
-18.7371
-16.364
-14.8082
-13.6836
-12.7038
-11.1347
-8.63537
-3.57746
3.09381
5.82116
3.88102
1.39442
5.38767
13.2392
17.9142
17.2123
15.4748
12.5614
10.0849
8.44683
7.13555
6.14477
3.72763
1.22497
-2.20233
-0.967242
8.78478
5.17233
3.72101
1.85477
0.779575
-19.6607
-26.5414
-28.5786
-23.096
-18.7492
-16.4031
-14.8522
-13.7257
-12.7444
-11.1792
-8.67886
-3.60792
3.07473
5.80683
3.87119
1.39892
5.38919
13.2145
17.8709
17.1746
15.4479
12.5471
10.0779
8.44317
7.1344
6.14252
3.72922
1.24626
-2.19648
-0.931628
8.79173
5.17428
3.7207
1.85434
0.779329
-19.6606
-26.5017
-28.5071
-23.0689
-18.7594
-16.4485
-14.9051
-13.7767
-12.7933
-11.2315
-8.73044
-3.64509
3.05152
5.78858
3.85855
1.40371
5.39033
13.187
17.824
17.1349
15.4198
12.5323
10.0705
8.43937
7.13319
6.14015
3.73096
1.26768
-2.19061
-0.894453
8.79884
5.17622
3.72032
1.85386
0.779064
-19.6542
-26.462
-28.3886
-23.0346
-18.7672
-16.5008
-14.9679
-13.8369
-12.851
-11.2922
-8.78965
-3.68747
3.02591
5.76709
3.84236
1.40804
5.39041
13.1563
17.7735
17.0932
15.3908
12.5171
10.063
8.43547
7.13187
6.13763
3.73287
1.2891
-2.18468
-0.854794
8.80615
5.17814
3.71987
1.85334
0.778783
-19.6415
-26.4276
-28.2207
-22.989
-18.7722
-16.5599
-15.0402
-13.9057
-12.9164
-11.3594
-8.85331
-3.73235
3.00028
5.74316
3.82188
1.41101
5.38891
13.1222
17.7194
17.0494
15.3609
12.5015
10.0552
8.43148
7.1304
6.13491
3.73492
1.3103
-2.1787
-0.811635
8.81376
5.18006
3.71935
1.85278
0.778485
-19.6236
-26.4043
-28.0092
-22.9273
-18.7741
-16.6249
-15.1204
-13.9808
-12.9879
-11.4313
-8.91835
-3.77552
2.97801
5.71916
3.7975
1.41179
5.38501
13.0843
17.6617
17.0038
15.3301
12.4855
10.0473
8.42742
7.12873
6.13197
3.73712
1.3311
-2.17266
-0.764725
8.82177
5.18196
3.71875
1.85218
0.778172
-19.6025
-26.3981
-27.7657
-22.8451
-18.7735
-16.6937
-15.2042
-14.0578
-13.061
-11.5034
-8.97912
-3.81246
2.9616
5.69641
3.77034
1.41022
5.37847
13.0428
17.6007
16.9563
15.2985
12.4693
10.0393
8.42329
7.12679
6.12875
3.73944
1.35127
-2.16659
-0.713452
8.83027
5.18386
3.71807
1.85153
0.777844
-19.581
-26.416
-27.5026
-22.7395
-18.7711
-16.7628
-15.2857
-14.1309
-13.1311
-11.5714
-9.03119
-3.83879
2.95284
5.67637
3.74249
1.40686
5.36914
12.9979
17.5366
16.9071
15.2661
12.4529
10.0312
8.41907
7.12451
6.12523
3.74189
1.37057
-2.16055
-0.657912
8.83936
5.18575
3.71731
1.85085
0.777502
-19.5618
-26.4658
-27.2306
-22.6114
-18.7687
-16.8273
-15.3572
-14.1928
-13.1918
-11.6297
-9.06909
-3.8521
2.95089
5.65806
3.71553
1.40304
5.35785
12.9501
17.4702
16.8565
15.2329
12.4362
10.0232
8.41473
7.12183
6.12136
3.74447
1.38871
-2.1546
-0.597671
8.84914
5.18764
3.71646
1.85013
0.777148
-19.5475
-26.5577
-26.9585
-22.4668
-18.7685
-16.8817
-15.4111
-14.2369
-13.2381
-11.6744
-9.09046
-3.85238
2.95322
5.64033
3.69046
1.40014
5.34533
12.9002
17.4021
16.8048
15.1991
12.4195
10.0152
8.41024
7.11866
6.11712
3.74718
1.4054
-2.14882
-0.533014
8.8597
5.18952
3.71553
1.84937
0.776781
-19.5399
-26.7045
-26.6944
-22.3186
-18.7731
-16.9206
-15.4405
-14.2576
-13.2655
-11.7022
-9.09399
-3.84286
2.95534
5.62022
3.66696
1.39932
5.33284
12.849
17.333
16.7525
15.1649
12.4026
10.0072
8.40555
7.11495
6.11244
3.75002
1.42024
-2.14331
-0.463572
8.87112
5.19142
3.7145
1.84857
0.776403
-19.5398
-26.9224
-26.4457
-22.1842
-18.7847
-16.9405
-15.4419
-14.2528
-13.2729
-11.7127
-9.08245
-3.82847
2.9533
5.59583
3.64425
1.40095
5.32082
12.7973
17.2635
16.7001
15.1304
12.3858
9.99934
8.40063
7.11061
6.10731
3.75303
1.43286
-2.13818
-0.389755
8.88347
5.19331
3.71339
1.84773
0.776013
-19.5462
-27.2304
-26.2177
-22.0811
-18.8048
-16.94
-15.4153
-14.2235
-13.2612
-11.7065
-9.06002
-3.81433
2.94425
5.56507
3.62107
1.40496
5.30992
12.7456
17.1943
16.648
15.0957
12.3692
9.99156
8.39542
7.10558
6.10165
3.75621
1.44275
-2.13349
-0.31122
8.89681
5.19523
3.71216
1.84685
0.775612
-19.5565
-27.6483
-26.0117
-22.0226
-18.8337
-16.921
-15.3651
-14.1748
-13.2342
-11.6868
-9.03329
-3.80346
2.9278
5.52789
3.59662
1.41066
5.29986
12.6941
17.1256
16.5967
15.0614
12.3527
9.98389
8.38988
7.09981
6.09547
3.75963
1.44943
-2.12937
-0.228428
8.91123
5.19714
3.71084
1.84593
0.7752
-19.5666
-28.1907
-25.8255
-22.0141
-18.8705
-16.8874
-15.2977
-14.1131
-13.1955
-11.658
-9.00757
-3.79632
2.90476
5.48421
3.57018
1.41765
5.291
12.6432
17.0576
16.5466
15.0275
12.3365
9.97631
8.38394
7.09324
6.08866
3.76332
1.45224
-2.12591
-0.140948
8.92678
5.19909
3.70939
1.84496
0.774775
-19.5722
-28.8534
-25.6542
-22.0543
-18.9134
-16.8445
-15.2215
-14.0455
-13.1495
-11.6267
-8.98629
-3.79166
2.87655
5.4351
3.54187
1.42583
5.2832
12.5927
16.9902
16.4976
14.9944
12.3206
9.9688
8.3776
7.08588
6.08127
3.7674
1.4505
-2.12323
-0.0491206
8.94356
5.20103
3.70784
1.84395
0.774337
-19.5692
-29.5943
-25.4925
-22.1366
-18.9602
-16.7973
-15.1435
-13.9766
-13.1006
-11.5995
-8.96892
-3.7883
2.84342
5.38072
3.5124
1.43613
5.27718
12.5426
16.923
16.4497
14.9622
12.3053
9.96139
8.37086
7.07774
6.07321
3.7718
1.44329
-2.12119
0.0476746
8.9616
5.20299
3.70614
1.84287
0.773884
-19.55
-30.3141
-25.3349
-22.2518
-19.0082
-16.7497
-15.0683
-13.9097
-13.0565
-11.5799
-8.95395
-3.78658
2.80493
5.32253
3.4841
1.44993
5.27239
12.4917
16.8552
16.4022
14.9309
12.2905
9.95423
8.36392
7.06894
6.06448
3.77646
1.43008
-2.11957
0.148461
8.98077
5.20493
3.70432
1.84173
0.773415
-19.4967
-30.8502
-25.1761
-22.3878
-19.0532
-16.7032
-14.9976
-13.8492
-13.0239
-11.5667
-8.94034
-3.78814
2.76088
5.26297
3.46016
1.46777
5.26704
12.4382
16.7859
16.3547
14.9005
12.2767
9.94775
8.35703
7.05949
6.05476
3.78139
1.41135
-2.11883
0.250979
9.00055
5.2069
3.70237
1.84053
0.772924
-19.4137
-31.0005
-25.0089
-22.5315
-19.0899
-16.6572
-14.933
-13.803
-13.0039
-11.5575
-8.9296
-3.79443
2.71464
5.20859
3.44373
1.48596
5.25499
12.3789
16.7148
16.3078
14.8722
12.2648
9.94255
8.35028
7.04902
6.04375
3.78725
1.3882
-2.12091
0.351652
9.02102
5.2089
3.70032
1.83925
0.77241
-19.4861
-30.6028
-24.8219
-22.6738
-19.1181
-16.6118
-14.8795
-13.7748
-12.9928
-11.5519
-8.92281
-3.80406
2.67136
5.16269
3.43151
1.49565
5.23007
12.3142
16.6456
16.2651
14.8487
12.2566
9.93855
8.34211
7.03543
6.0302
3.7936
1.35027
-2.12498
0.472096
9.04874
5.21096
3.69779
1.83784
0.771878
8.6394
8.93241
9.76942
11.0713
12.7594
14.8808
17.5231
20.8103
25.0475
30.1831
36.5142
44.2175
53.7543
65.4372
80.2622
97.8096
122.254
148.437
188.669
212.81
260.592
102.605
8.6392
8.93219
9.76913
11.0709
12.7587
14.8798
17.5216
20.8305
25.0793
30.1984
36.5075
44.2023
53.728
65.3927
80.1905
97.6783
122.02
147.977
187.797
211.231
256.737
99.6812
8.639
8.93196
9.76883
11.0704
12.7581
14.8787
17.5199
20.8558
25.1064
30.2091
36.4988
44.1864
53.7022
65.3468
80.1174
97.5432
121.778
147.5
186.903
209.592
252.724
101.365
8.63878
8.93171
9.7685
11.0699
12.7573
14.8776
17.5182
20.8813
25.1284
30.216
36.4892
44.1701
53.6758
65.3007
80.043
97.4034
121.526
147.002
185.985
207.885
248.598
101.259
8.63855
8.93145
9.76816
11.0694
12.7566
14.8765
17.5164
20.9036
25.1458
30.2198
36.4794
44.1536
53.6497
65.2533
79.9661
97.2584
121.262
146.484
185.038
206.11
244.348
99.4678
8.63831
8.93118
9.7678
11.0689
12.7558
14.8752
17.5145
20.9186
25.1591
30.2211
36.47
44.1372
53.6235
65.2058
79.8875
97.1074
120.985
145.943
184.055
204.269
239.97
97.4223
8.63806
8.93089
9.76742
11.0683
12.7549
14.8739
17.5125
20.9239
25.1683
30.2205
36.4612
44.1209
53.5978
65.1571
79.8063
96.9502
120.693
145.38
183.032
202.363
235.469
95.5177
8.63779
8.93059
9.76702
11.0677
12.754
14.8725
17.5104
20.9197
25.1737
30.2182
36.4532
44.105
53.5722
65.1082
79.7231
96.786
120.385
144.792
181.962
200.392
230.849
93.5913
8.63751
8.93027
9.7666
11.0671
12.7531
14.8711
17.5081
20.9083
25.1755
30.2146
36.446
44.0896
53.5472
65.058
79.6368
96.6149
120.059
144.178
180.84
198.358
226.116
91.5449
8.63721
8.92993
9.76615
11.0664
12.7521
14.8695
17.5058
20.8921
25.1737
30.2099
36.4396
44.0746
53.5224
65.0073
79.548
96.4362
119.714
143.537
179.658
196.259
221.273
89.4028
8.6369
8.92957
9.76568
11.0657
12.751
14.8679
17.5033
20.8725
25.168
30.2039
36.4339
44.0601
53.4979
64.9553
79.4559
96.2501
119.349
142.867
178.413
194.095
216.325
87.2
8.63657
8.92919
9.76518
11.065
12.7499
14.8661
17.5007
20.8506
25.1583
30.1968
36.4286
44.0461
53.4734
64.9026
79.3607
96.056
118.965
142.166
177.099
191.865
211.277
84.9473
8.63622
8.92879
9.76466
11.0642
12.7487
14.8643
17.4979
20.8276
25.144
30.1881
36.4236
44.0325
53.4491
64.8482
79.2616
95.8538
118.56
141.433
175.712
189.568
206.135
82.6489
8.63584
8.92837
9.7641
11.0634
12.7475
14.8623
17.4949
20.8048
25.1245
30.1774
36.4184
44.0193
53.4245
64.7927
79.1589
95.643
118.134
140.667
174.249
187.201
200.902
80.3134
8.63545
8.92792
9.76351
11.0625
12.7462
14.8603
17.4918
20.7832
25.0993
30.1642
36.4125
44.0064
53.3998
64.735
79.0516
95.4233
117.687
139.865
172.706
184.764
195.585
77.9532
8.63504
8.92745
9.76288
11.0616
12.7448
14.8581
17.4884
20.7638
25.068
30.1476
36.4052
43.9936
53.3745
64.6757
78.9398
95.1941
117.218
139.026
171.082
182.256
190.187
75.5814
8.6346
8.92695
9.76222
11.0606
12.7433
14.8557
17.4849
20.7472
25.0307
30.1267
36.3957
43.9807
53.349
64.6136
78.8225
94.9548
116.726
138.149
169.375
179.674
184.713
73.2119
8.63413
8.92642
9.76152
11.0596
12.7417
14.8533
17.4811
20.7333
24.988
30.1005
36.3829
43.9673
53.3226
64.5492
78.6998
94.7047
116.211
137.232
167.584
177.017
179.168
70.8587
8.63364
8.92586
9.76078
11.0585
12.7401
14.8507
17.4772
20.722
24.9412
30.0679
36.3653
43.9528
53.2957
64.4814
78.5704
94.4431
115.672
136.275
165.708
174.284
173.554
68.5344
8.63311
8.92526
9.75999
11.0573
12.7383
14.8479
17.473
20.7126
24.8925
30.0279
36.3411
43.9363
53.2677
64.4106
78.4345
94.1689
115.107
135.274
163.746
171.473
167.877
66.2496
8.63256
8.92463
9.75916
11.0561
12.7364
14.8449
17.4685
20.7043
24.8441
29.9802
36.308
43.9165
53.2385
64.3357
78.2907
93.8817
114.514
134.23
161.698
168.582
162.141
64.0111
8.63197
8.92396
9.75827
11.0548
12.7345
14.8418
17.4637
20.6966
24.7987
29.9252
36.2638
43.8911
53.2073
64.2572
78.139
93.58
113.893
133.139
159.563
165.611
156.35
61.8219
8.63135
8.92325
9.75733
11.0534
12.7324
14.8385
17.4586
20.6888
24.7582
29.8643
36.2061
43.8574
53.1733
64.1739
77.9779
93.2633
113.242
132
157.341
162.557
150.512
59.6798
8.63068
8.9225
9.75633
11.0519
12.7301
14.835
17.4532
20.6808
24.7236
29.7999
36.1334
43.8111
53.1343
64.0861
77.8075
92.9302
112.558
130.811
155.031
159.42
144.633
57.5779
8.62998
8.92169
9.75527
11.0503
12.7278
14.8313
17.4474
20.6723
24.6946
29.7352
36.0458
43.7471
53.0874
63.9924
77.6262
92.5799
111.841
129.571
152.632
156.197
138.721
55.5041
8.62923
8.92084
9.75414
11.0487
12.7253
14.8273
17.4413
20.6632
24.6702
29.6732
35.9457
43.66
53.0271
63.892
77.4341
92.2113
111.089
128.277
150.145
152.887
132.786
53.4419
8.62844
8.91994
9.75294
11.0469
12.7226
14.8231
17.4348
20.6535
24.6488
29.6159
35.8375
43.5453
52.9461
63.7817
77.2292
91.8234
110.301
126.928
147.568
149.488
126.839
51.3713
8.62759
8.91898
9.75167
11.045
12.7198
14.8187
17.4279
20.6432
24.629
29.5643
35.7268
43.4021
52.8335
63.6573
77.0106
91.415
109.475
125.521
144.901
145.998
120.891
49.27
8.6267
8.91796
9.75031
11.043
12.7167
14.814
17.4206
20.6322
24.6096
29.5182
35.6195
43.2343
52.6783
63.5101
76.7747
90.9849
108.609
124.054
142.145
142.417
114.956
47.1143
8.62574
8.91687
9.74887
11.0409
12.7135
14.8089
17.4128
20.6204
24.59
29.4765
35.5196
43.0509
52.4718
63.3281
76.5167
90.531
107.704
122.526
139.3
138.742
109.048
44.881
8.62472
8.91572
9.74733
11.0386
12.7101
14.8036
17.4045
20.6078
24.5697
29.4375
35.4289
42.8634
52.2133
63.0945
76.2265
90.0503
106.758
120.936
136.366
134.973
103.18
42.5483
8.62364
8.91449
9.7457
11.0362
12.7065
14.7979
17.3957
20.5944
24.5483
29.3995
35.347
42.6825
51.9132
62.7939
75.8894
89.5369
105.77
119.281
133.345
131.109
97.3665
40.0973
8.62249
8.91318
9.74396
11.0337
12.7026
14.7919
17.3863
20.5801
24.5255
29.3612
35.2718
42.5153
51.591
62.4174
75.4843
88.9814
104.736
117.561
130.237
127.152
91.6231
37.5131
8.62126
8.91178
9.7421
11.0309
12.6985
14.7854
17.3763
20.565
24.5013
29.3216
35.2004
42.3634
51.2692
61.972
74.9897
88.3686
103.652
115.774
127.045
123.101
85.9638
34.7854
8.61995
8.9103
9.74012
11.028
12.6941
14.7786
17.3657
20.5488
24.4755
29.2802
35.1299
42.2245
50.9653
61.4802
74.3908
87.6782
102.509
113.918
123.77
118.961
80.4025
31.9094
8.61855
8.90871
9.73801
11.0249
12.6895
14.7713
17.3544
20.5315
24.4481
29.2363
35.0579
42.0939
50.6874
60.9744
73.6917
86.8881
101.297
111.992
120.416
114.734
74.9526
28.8865
8.61707
8.90702
9.73576
11.0216
12.6845
14.7636
17.3424
20.5131
24.4188
29.1898
34.9828
41.9662
50.4338
60.484
72.9186
85.983
99.9988
109.994
116.987
110.426
69.6269
25.7239
8.61548
8.90522
9.73336
11.0181
12.6792
14.7553
17.3296
20.4935
24.3877
29.1403
34.9038
41.8366
50.1967
60.0257
72.1138
84.9638
98.5981
107.921
113.492
106.045
64.4379
22.435
8.61378
8.9033
9.73079
11.0143
12.6735
14.7465
17.316
20.4727
24.3546
29.0877
34.8202
41.7021
49.9662
59.6005
71.3186
83.8532
97.0848
105.774
109.94
101.6
59.398
19.0386
8.61197
8.90124
9.72806
11.0103
12.6675
14.7371
17.3014
20.4504
24.3193
29.0317
34.7315
41.5605
49.7332
59.198
70.5588
82.6904
95.4613
103.553
106.349
97.1069
54.5202
15.5586
8.61004
8.89905
9.72513
11.006
12.661
14.7271
17.286
20.4267
24.2818
28.9722
34.6372
41.411
49.4916
58.8027
69.8376
81.5164
93.7457
101.266
102.745
92.5847
49.8188
12.0231
8.60797
8.89671
9.72201
11.0015
12.6541
14.7164
17.2695
20.4013
24.2417
28.9089
34.537
41.2525
49.2377
58.4005
69.1406
80.3583
91.9681
98.9208
99.1557
88.0603
45.3103
8.46431
8.60577
8.89421
9.71867
10.9966
12.6468
14.7051
17.2519
20.3743
24.1991
28.8416
34.4306
41.0845
48.9697
57.9817
68.4458
79.221
90.1588
96.5308
95.6166
83.5683
41.014
4.91778
8.60341
8.89154
9.71511
10.9913
12.6389
14.6929
17.2331
20.3455
24.1537
28.7699
34.3174
40.9063
48.6864
57.5408
67.7328
78.091
88.3379
94.1028
92.156
79.1497
36.9512
1.4222
8.60089
8.88869
9.71129
10.9858
12.6305
14.68
17.2131
20.3148
24.1053
28.6935
34.1971
40.7172
48.3868
57.0755
66.988
76.9454
86.5106
91.6343
88.7865
74.8479
33.1442
-1.98132
8.59819
8.88563
9.70721
10.9798
12.6215
14.6661
17.1917
20.282
24.0537
28.6123
34.0693
40.5165
48.0698
56.5846
66.2048
75.7622
84.6675
89.116
85.4939
70.6997
29.6136
-5.25037
8.5953
8.88237
9.70285
10.9734
12.6119
14.6514
17.1689
20.2469
23.9987
28.5258
33.9333
40.3035
47.7345
56.0668
65.3816
74.5265
82.7894
86.54
82.2354
66.7229
26.373
-8.34309
8.59221
8.87887
9.69818
10.9666
12.6017
14.6356
17.1446
20.2096
23.94
28.4337
33.7889
40.0777
47.3798
55.5206
64.5183
73.2324
80.8555
83.9031
78.9558
62.9041
23.423
-11.221
8.58891
8.87513
9.69319
10.9593
12.5907
14.6187
17.1186
20.1697
23.8776
28.3357
33.6354
39.8382
47.0049
54.9446
63.6144
71.8803
78.852
81.2029
75.6142
59.1968
20.7433
-13.8529
8.58537
8.87113
9.68784
10.9515
12.579
14.6007
17.0909
20.1271
23.8109
28.2314
33.4723
39.5843
46.6086
54.3376
62.6689
70.472
76.7762