/*--------------------------------*- C++ -*----------------------------------*\
| =========                 |                                                 |
| \\      /  F ield         | OpenFOAM: The Open Source CFD Toolbox           |
|  \\    /   O peration     | Version:  v1912                                 |
|   \\  /    A nd           | Website:  www.openfoam.com                      |
|    \\/     M anipulation  |                                                 |
\*---------------------------------------------------------------------------*/
FoamFile
{
    version     2.0;
    format      ascii;
    class       surfaceScalarField;
    location    "300";
    object      phi;
}
// * * * * * * * * * * * * * * * * * * * * * * * * * * * * * * * * * * * * * //

dimensions      [0 3 -1 0 0 0 0];
oriented        oriented;


internalField   nonuniform List<scalar> 
24588
(
6.81685e-05
1.95067e-08
6.81158e-05
5.35671e-08
6.80327e-05
8.26621e-08
6.79196e-05
1.1313e-07
6.77718e-05
1.47053e-07
6.7586e-05
1.8625e-07
6.7354e-05
2.31329e-07
6.70625e-05
2.91867e-07
6.67017e-05
3.60407e-07
6.6248e-05
4.53275e-07
6.5684e-05
5.64538e-07
6.50236e-05
6.90382e-07
6.40351e-05
8.90308e-07
6.2974e-05
1.16607e-06
6.14839e-05
1.44748e-06
5.91785e-05
2.32403e-06
5.62923e-05
2.88222e-06
5.15587e-05
4.73422e-06
4.49213e-05
6.6373e-06
3.37634e-05
1.11575e-05
2.008e-05
1.36833e-05
2.008e-05
6.81688e-05
3.95503e-08
6.81156e-05
1.07878e-07
6.80325e-05
1.65174e-07
6.79196e-05
2.26075e-07
6.77717e-05
2.93924e-07
6.7586e-05
3.72469e-07
6.73539e-05
4.62649e-07
6.70626e-05
5.83603e-07
6.67014e-05
7.21068e-07
6.62469e-05
9.07314e-07
6.56879e-05
1.1242e-06
6.50279e-05
1.38437e-06
6.401e-05
1.80067e-06
6.29926e-05
2.28726e-06
6.14923e-05
2.90366e-06
5.92564e-05
4.57725e-06
5.63069e-05
5.82474e-06
5.1527e-05
9.51471e-06
4.49663e-05
1.31978e-05
3.36655e-05
2.24576e-05
2.00388e-05
2.731e-05
4.01188e-05
6.81688e-05
5.95908e-08
6.81156e-05
1.62169e-07
6.80325e-05
2.47697e-07
6.79195e-05
3.39038e-07
6.77717e-05
4.40821e-07
6.7586e-05
5.58706e-07
6.73539e-05
6.94006e-07
6.70625e-05
8.7538e-07
6.67015e-05
1.0816e-06
6.62469e-05
1.36135e-06
6.56868e-05
1.68497e-06
6.50314e-05
2.07494e-06
6.40096e-05
2.70834e-06
6.29817e-05
3.43782e-06
6.14783e-05
4.35821e-06
5.92803e-05
6.7971e-06
5.63002e-05
8.79619e-06
5.15461e-05
1.42703e-05
4.49414e-05
1.98023e-05
3.36855e-05
3.37125e-05
2.00586e-05
4.09369e-05
6.01774e-05
6.81688e-05
7.96331e-08
6.81156e-05
2.16434e-07
6.80325e-05
3.30207e-07
6.79196e-05
4.51984e-07
6.77717e-05
5.87661e-07
6.75861e-05
7.44888e-07
6.7354e-05
9.25322e-07
6.70626e-05
1.16713e-06
6.67014e-05
1.44229e-06
6.62469e-05
1.81535e-06
6.56872e-05
2.24543e-06
6.50261e-05
2.77003e-06
6.40127e-05
3.61567e-06
6.29898e-05
4.56044e-06
6.14838e-05
5.82206e-06
5.93081e-05
8.98965e-06
5.63271e-05
1.17695e-05
5.15619e-05
1.90362e-05
4.49303e-05
2.64334e-05
3.37136e-05
4.49284e-05
2.00921e-05
5.45584e-05
8.02696e-05
6.81688e-05
9.96625e-08
6.81156e-05
2.70654e-07
6.80325e-05
4.12712e-07
6.79196e-05
5.64944e-07
6.77717e-05
7.34516e-07
6.75861e-05
9.31085e-07
6.7354e-05
1.15667e-06
6.70626e-05
1.4589e-06
6.67015e-05
1.80286e-06
6.62469e-05
2.26943e-06
6.56864e-05
2.80648e-06
6.50315e-05
3.45954e-06
6.40136e-05
4.51844e-06
6.29817e-05
5.71515e-06
6.14752e-05
7.27909e-06
5.93095e-05
1.11771e-05
5.6349e-05
1.47213e-05
5.15623e-05
2.38246e-05
4.4948e-05
3.30477e-05
3.37587e-05
5.61166e-05
2.01403e-05
6.81768e-05
0.00010041
6.81688e-05
1.197e-07
6.81156e-05
3.24868e-07
6.80325e-05
4.95207e-07
6.79196e-05
6.77878e-07
6.77718e-05
8.81297e-07
6.75862e-05
1.11722e-06
6.73541e-05
1.38797e-06
6.70627e-05
1.75063e-06
6.67014e-05
2.16359e-06
6.6247e-05
2.72337e-06
6.56871e-05
3.3671e-06
6.50243e-05
4.15604e-06
6.40153e-05
5.42489e-06
6.29889e-05
6.83548e-06
6.14792e-05
8.74921e-06
5.9316e-05
1.3356e-05
5.63686e-05
1.76611e-05
5.15738e-05
2.862e-05
4.49792e-05
3.96417e-05
3.38236e-05
6.72712e-05
2.02052e-05
8.17952e-05
0.000120615
6.81688e-05
1.39722e-07
6.81156e-05
3.79027e-07
6.80326e-05
5.77696e-07
6.79196e-05
7.9083e-07
6.77718e-05
1.02809e-06
6.75862e-05
1.30337e-06
6.73541e-05
1.61929e-06
6.70627e-05
2.04237e-06
6.67016e-05
2.52417e-06
6.6247e-05
3.17747e-06
6.56869e-05
3.92777e-06
6.50321e-05
4.84422e-06
6.40165e-05
6.32589e-06
6.29804e-05
7.99577e-06
6.14723e-05
1.0207e-05
5.93037e-05
1.55458e-05
5.63812e-05
2.05763e-05
5.15921e-05
3.34111e-05
4.50252e-05
4.62086e-05
3.39147e-05
7.83809e-05
2.02894e-05
9.54204e-05
0.000140905
6.81688e-05
1.59757e-07
6.81156e-05
4.33196e-07
6.80326e-05
6.60179e-07
6.79196e-05
9.03748e-07
6.77718e-05
1.17481e-06
6.75863e-05
1.48946e-06
6.73542e-05
1.85056e-06
6.70628e-05
2.33406e-06
6.67015e-05
2.88492e-06
6.62473e-05
3.63127e-06
6.56875e-05
4.48822e-06
6.50221e-05
5.54288e-06
6.40166e-05
7.23441e-06
6.29874e-05
9.11204e-06
6.14696e-05
1.16864e-05
5.92952e-05
1.77332e-05
5.64016e-05
2.34641e-05
5.16368e-05
3.81761e-05
4.51014e-05
5.27433e-05
3.40424e-05
8.94392e-05
2.03967e-05
0.000109066
0.000161301
6.81688e-05
1.79772e-07
6.81157e-05
4.87302e-07
6.80326e-05
7.42651e-07
6.79197e-05
1.01669e-06
6.77719e-05
1.32154e-06
6.75863e-05
1.67556e-06
6.73542e-05
2.08186e-06
6.70629e-05
2.62575e-06
6.67017e-05
3.2455e-06
6.62471e-05
4.08542e-06
6.56874e-05
5.04839e-06
6.50335e-05
6.22873e-06
6.40207e-05
8.13162e-06
6.29683e-05
1.02856e-05
6.14409e-05
1.31712e-05
5.92879e-05
1.99012e-05
5.64043e-05
2.63443e-05
5.17285e-05
4.28535e-05
4.52238e-05
5.92482e-05
3.42165e-05
0.000100446
2.05309e-05
0.000122752
0.000181832
6.81688e-05
1.99803e-07
6.81156e-05
5.41429e-07
6.80326e-05
8.2513e-07
6.79197e-05
1.12959e-06
6.77719e-05
1.46818e-06
6.75864e-05
1.86159e-06
6.73543e-05
2.31309e-06
6.7063e-05
2.9174e-06
6.67017e-05
3.60628e-06
6.62476e-05
4.53902e-06
6.56886e-05
5.6081e-06
6.50186e-05
6.93126e-06
6.40131e-05
9.0497e-06
6.29508e-05
1.14253e-05
6.14129e-05
1.4682e-05
5.93053e-05
2.20144e-05
5.6407e-05
2.92395e-05
5.18689e-05
4.73913e-05
4.53955e-05
6.57211e-05
3.44406e-05
0.0001114
2.06953e-05
0.000136497
0.000202528
6.81688e-05
2.1981e-07
6.81157e-05
5.95484e-07
6.80326e-05
9.07599e-07
6.79197e-05
1.24251e-06
6.7772e-05
1.61485e-06
6.75864e-05
2.04765e-06
6.73543e-05
2.54437e-06
6.7063e-05
3.20903e-06
6.67019e-05
3.9669e-06
6.62475e-05
4.99288e-06
6.56888e-05
6.16725e-06
6.50299e-05
7.62004e-06
6.40292e-05
9.94016e-06
6.2934e-05
1.26188e-05
6.13933e-05
1.62012e-05
5.93272e-05
2.40879e-05
5.64239e-05
3.21419e-05
5.20324e-05
5.17842e-05
4.55969e-05
7.21569e-05
3.47074e-05
0.00012229
2.0891e-05
0.000150313
0.000223419
6.81688e-05
2.39835e-07
6.81156e-05
6.49572e-07
6.80326e-05
9.90082e-07
6.79197e-05
1.3554e-06
6.7772e-05
1.76144e-06
6.75865e-05
2.23362e-06
6.73544e-05
2.77557e-06
6.70632e-05
3.5006e-06
6.67017e-05
4.3278e-06
6.62482e-05
5.44603e-06
6.56911e-05
6.72503e-06
6.50086e-05
8.33234e-06
6.40212e-05
1.08575e-05
6.29284e-05
1.37577e-05
6.13846e-05
1.77341e-05
5.93485e-05
2.61243e-05
5.64528e-05
3.50362e-05
5.21854e-05
5.6051e-05
4.58021e-05
7.85399e-05
3.50025e-05
0.000133089
2.11168e-05
0.000164199
0.000244535
6.81688e-05
2.59832e-07
6.81157e-05
7.03577e-07
6.80326e-05
1.07255e-06
6.79197e-05
1.46831e-06
6.7772e-05
1.90806e-06
6.75865e-05
2.41963e-06
6.73544e-05
3.00681e-06
6.70632e-05
3.79215e-06
6.67018e-05
4.6887e-06
6.62486e-05
5.89871e-06
6.56912e-05
7.28282e-06
6.50032e-05
9.04626e-06
6.40313e-05
1.17438e-05
6.29247e-05
1.4909e-05
6.13807e-05
1.92713e-05
5.93645e-05
2.81438e-05
5.64828e-05
3.7918e-05
5.23086e-05
6.02261e-05
4.59936e-05
8.48553e-05
3.53114e-05
0.000143771
2.13694e-05
0.000178141
0.000265905
6.81688e-05
2.7985e-07
6.81157e-05
7.57626e-07
6.80326e-05
1.15505e-06
6.79197e-05
1.58118e-06
6.7772e-05
2.05459e-06
6.75866e-05
2.60555e-06
6.73546e-05
3.23798e-06
6.70634e-05
4.08361e-06
6.67016e-05
5.05e-06
6.62491e-05
6.35074e-06
6.56911e-05
7.84144e-06
6.49746e-05
9.78612e-06
6.40312e-05
1.26545e-05
6.29198e-05
1.60312e-05
6.13787e-05
2.08095e-05
5.93755e-05
3.0146e-05
5.6508e-05
4.07848e-05
5.24023e-05
6.43311e-05
4.61652e-05
9.10921e-05
3.56231e-05
0.000154313
2.16449e-05
0.000192119
0.00028755
6.81688e-05
2.99834e-07
6.81157e-05
8.11581e-07
6.80327e-05
1.23753e-06
6.79198e-05
1.69409e-06
6.77721e-05
2.20116e-06
6.75866e-05
2.79151e-06
6.73546e-05
3.46918e-06
6.70635e-05
4.37504e-06
6.67015e-05
5.41143e-06
6.62497e-05
6.80206e-06
6.56899e-05
8.4016e-06
6.49614e-05
1.05327e-05
6.40452e-05
1.35324e-05
6.29159e-05
1.71783e-05
6.1378e-05
2.23452e-05
5.93824e-05
3.21438e-05
5.65269e-05
4.36405e-05
5.24733e-05
6.83855e-05
4.63168e-05
9.72489e-05
3.59309e-05
0.000164699
2.1939e-05
0.000206111
0.000309489
6.81688e-05
3.19842e-07
6.81157e-05
8.65589e-07
6.80326e-05
1.32005e-06
6.79198e-05
1.80694e-06
6.77721e-05
2.34764e-06
6.75867e-05
2.97738e-06
6.73547e-05
3.7003e-06
6.70637e-05
4.66637e-06
6.67013e-05
5.7733e-06
6.62494e-05
7.25358e-06
6.56853e-05
8.96623e-06
6.49553e-05
1.12765e-05
6.40522e-05
1.44309e-05
6.29134e-05
1.83167e-05
6.13778e-05
2.38799e-05
5.93866e-05
3.41338e-05
5.65406e-05
4.6486e-05
5.25285e-05
7.23971e-05
4.64508e-05
0.000103326
3.62316e-05
0.000174918
2.2248e-05
0.000220095
0.000331737
6.81688e-05
3.39813e-07
6.81157e-05
9.19495e-07
6.80327e-05
1.40255e-06
6.79198e-05
1.91983e-06
6.77722e-05
2.49417e-06
6.75867e-05
3.16329e-06
6.73547e-05
3.93145e-06
6.70638e-05
4.95764e-06
6.67012e-05
6.13532e-06
6.62498e-05
7.70447e-06
6.56771e-05
9.53929e-06
6.49582e-05
1.20027e-05
6.40558e-05
1.53157e-05
6.29116e-05
1.94697e-05
6.1378e-05
2.54126e-05
5.9389e-05
3.61245e-05
5.65502e-05
4.9325e-05
5.25732e-05
7.63746e-05
4.65704e-05
0.000109329
3.65239e-05
0.000184964
2.25692e-05
0.000234049
0.000354306
6.81688e-05
3.59811e-07
6.81157e-05
9.73464e-07
6.80326e-05
1.48508e-06
6.79198e-05
2.03266e-06
6.77722e-05
2.64061e-06
6.75868e-05
3.3491e-06
6.73549e-05
4.16253e-06
6.7064e-05
5.24881e-06
6.6701e-05
6.49778e-06
6.62499e-05
8.15524e-06
6.56673e-05
1.01223e-05
6.49606e-05
1.2714e-05
6.40564e-05
1.62229e-05
6.29105e-05
2.06127e-05
6.13783e-05
2.69445e-05
5.93903e-05
3.81114e-05
5.6557e-05
5.21579e-05
5.26112e-05
8.032e-05
4.66791e-05
0.000115261
3.68082e-05
0.000194835
2.29004e-05
0.000247957
0.000377206
6.81688e-05
3.79767e-07
6.81158e-05
1.02732e-06
6.80327e-05
1.56761e-06
6.79198e-05
2.14554e-06
6.77722e-05
2.7871e-06
6.75868e-05
3.53496e-06
6.73549e-05
4.39365e-06
6.70641e-05
5.53995e-06
6.67012e-05
6.86015e-06
6.62501e-05
8.60584e-06
6.56613e-05
1.07113e-05
6.49616e-05
1.34152e-05
6.40565e-05
1.71181e-05
6.29098e-05
2.17656e-05
6.13788e-05
2.84749e-05
5.9391e-05
4.01006e-05
5.65622e-05
5.49869e-05
5.26455e-05
8.42372e-05
4.67798e-05
0.000121127
3.70856e-05
0.000204529
2.32404e-05
0.000261802
0.000400447
6.81688e-05
3.99753e-07
6.81157e-05
1.08125e-06
6.80327e-05
1.65017e-06
6.79198e-05
2.25836e-06
6.77723e-05
2.93348e-06
6.75869e-05
3.72071e-06
6.73551e-05
4.62469e-06
6.70643e-05
5.83099e-06
6.67013e-05
7.22261e-06
6.62463e-05
9.06054e-06
6.56596e-05
1.12983e-05
6.49612e-05
1.4115e-05
6.40563e-05
1.80276e-05
6.29094e-05
2.29091e-05
6.13796e-05
3.00047e-05
5.93916e-05
4.20875e-05
5.65668e-05
5.78113e-05
5.26782e-05
8.81254e-05
4.68754e-05
0.00012693
3.73578e-05
0.000214047
2.35886e-05
0.000275571
0.000424035
6.81688e-05
4.19694e-07
6.81158e-05
1.13506e-06
6.80327e-05
1.73271e-06
6.79199e-05
2.37122e-06
6.77723e-05
3.07993e-06
6.75869e-05
3.90651e-06
6.73551e-05
4.85579e-06
6.70644e-05
6.12199e-06
6.6702e-05
7.58443e-06
6.62386e-05
9.52345e-06
6.56621e-05
1.18749e-05
6.49606e-05
1.48167e-05
6.40562e-05
1.89246e-05
6.29093e-05
2.40609e-05
6.13805e-05
3.15331e-05
5.93924e-05
4.40769e-05
5.65715e-05
6.06324e-05
5.27109e-05
9.19865e-05
4.69681e-05
0.000132673
3.76267e-05
0.000223388
2.3945e-05
0.000289253
0.00044798
6.81688e-05
4.39667e-07
6.81157e-05
1.18895e-06
6.80327e-05
1.81529e-06
6.79198e-05
2.48402e-06
6.77723e-05
3.22626e-06
6.7587e-05
4.0922e-06
6.73552e-05
5.0868e-06
6.70646e-05
6.41292e-06
6.67026e-05
7.94589e-06
6.62293e-05
9.99646e-06
6.56651e-05
1.24394e-05
6.496e-05
1.55224e-05
6.40562e-05
1.98331e-05
6.29096e-05
2.52042e-05
6.13819e-05
3.30608e-05
5.93938e-05
4.6064e-05
5.65772e-05
6.34487e-05
5.27448e-05
9.58185e-05
4.70598e-05
0.000138358
3.78946e-05
0.000232553
2.43099e-05
0.000302838
0.00047229
6.81688e-05
4.59592e-07
6.81158e-05
1.2427e-06
6.80328e-05
1.89786e-06
6.79199e-05
2.59687e-06
6.77724e-05
3.37266e-06
6.7587e-05
4.27795e-06
6.73552e-05
5.31786e-06
6.70646e-05
6.70381e-06
6.67034e-05
8.30659e-06
6.6223e-05
1.04764e-05
6.56671e-05
1.29952e-05
6.49597e-05
1.62298e-05
6.40564e-05
2.07304e-05
6.29101e-05
2.63549e-05
6.13836e-05
3.45869e-05
5.93962e-05
4.80525e-05
5.65843e-05
6.62608e-05
5.27807e-05
9.96226e-05
4.7152e-05
0.000143987
3.81636e-05
0.000241541
2.46842e-05
0.000316317
0.000496975
6.81688e-05
4.79552e-07
6.81157e-05
1.29655e-06
6.80327e-05
1.98046e-06
6.79199e-05
2.70964e-06
6.77724e-05
3.51894e-06
6.75871e-05
4.46358e-06
6.73554e-05
5.54882e-06
6.70649e-05
6.99461e-06
6.67037e-05
8.6673e-06
6.62191e-05
1.09608e-05
6.56681e-05
1.35463e-05
6.49596e-05
1.69387e-05
6.40568e-05
2.16377e-05
6.29109e-05
2.74976e-05
6.1386e-05
3.61118e-05
5.93999e-05
5.00376e-05
5.65935e-05
6.90669e-05
5.2819e-05
0.000103397
4.72456e-05
0.00014956
3.84361e-05
0.000250351
2.50687e-05
0.000329684
0.000522043
6.81688e-05
4.9946e-07
6.81158e-05
1.35026e-06
6.80328e-05
2.06305e-06
6.79199e-05
2.82247e-06
6.77725e-05
3.6653e-06
6.75871e-05
4.64927e-06
6.73554e-05
5.77985e-06
6.7065e-05
7.28529e-06
6.67042e-05
9.02768e-06
6.62174e-05
1.1447e-05
6.56685e-05
1.40951e-05
6.49597e-05
1.76474e-05
6.40573e-05
2.25348e-05
6.2912e-05
2.86469e-05
6.1389e-05
3.76345e-05
5.94053e-05
5.20225e-05
5.66048e-05
7.18676e-05
5.28598e-05
0.000107142
4.73416e-05
0.000155079
3.87142e-05
0.000258978
2.54649e-05
0.000342934
0.000547508
6.81688e-05
5.19408e-07
6.81157e-05
1.40407e-06
6.80327e-05
2.14568e-06
6.79199e-05
2.93522e-06
6.77725e-05
3.81154e-06
6.75873e-05
4.83482e-06
6.73556e-05
6.0108e-06
6.70654e-05
7.57576e-06
6.67027e-05
9.38989e-06
6.62171e-05
1.19325e-05
6.56688e-05
1.46435e-05
6.49599e-05
1.83566e-05
6.4058e-05
2.34411e-05
6.29135e-05
2.97882e-05
6.13928e-05
3.91553e-05
5.94124e-05
5.40019e-05
5.66187e-05
7.46609e-05
5.29033e-05
0.000110857
4.74405e-05
0.000160541
3.90001e-05
0.000267418
2.58742e-05
0.00035606
0.000573382
6.81688e-05
5.39299e-07
6.81158e-05
1.45773e-06
6.80328e-05
2.22829e-06
6.792e-05
3.04803e-06
6.77726e-05
3.95786e-06
6.75873e-05
5.02043e-06
6.73556e-05
6.24183e-06
6.70657e-05
7.86598e-06
6.66979e-05
9.75719e-06
6.62209e-05
1.2409e-05
6.56691e-05
1.51953e-05
6.49603e-05
1.90653e-05
6.40588e-05
2.43376e-05
6.29154e-05
3.09354e-05
6.13974e-05
4.06731e-05
5.94213e-05
5.59792e-05
5.66352e-05
7.74473e-05
5.29492e-05
0.000114544
4.75424e-05
0.000165948
3.92959e-05
0.000275665
2.62981e-05
0.000369057
0.000599681
6.81688e-05
5.59234e-07
6.81158e-05
1.51151e-06
6.80327e-05
2.31094e-06
6.792e-05
3.16075e-06
6.77726e-05
4.10405e-06
6.75874e-05
5.20589e-06
6.73558e-05
6.4728e-06
6.70661e-05
8.15586e-06
6.66905e-05
1.01324e-05
6.62262e-05
1.28733e-05
6.56694e-05
1.57522e-05
6.49607e-05
1.97744e-05
6.40598e-05
2.52426e-05
6.29177e-05
3.20745e-05
6.14029e-05
4.21879e-05
5.94319e-05
5.79491e-05
5.66542e-05
8.02247e-05
5.29977e-05
0.0001182
4.76477e-05
0.000171298
3.96032e-05
0.000283709
2.67382e-05
0.000381922
0.000626419
6.81688e-05
5.79108e-07
6.81158e-05
1.56512e-06
6.80328e-05
2.39357e-06
6.792e-05
3.27354e-06
6.77727e-05
4.25034e-06
6.75875e-05
5.3914e-06
6.73558e-05
6.70387e-06
6.70665e-05
8.44544e-06
6.66849e-05
1.05135e-05
6.62307e-05
1.33271e-05
6.56699e-05
1.63129e-05
6.49613e-05
2.04828e-05
6.4061e-05
2.61383e-05
6.29204e-05
3.32188e-05
6.14092e-05
4.3699e-05
5.94443e-05
5.99152e-05
5.66758e-05
8.29934e-05
5.30487e-05
0.000121827
4.77562e-05
0.000176591
3.99233e-05
0.000291542
2.71959e-05
0.00039465
0.000653615
6.81688e-05
5.99031e-07
6.81158e-05
1.61886e-06
6.80328e-05
2.47624e-06
6.792e-05
3.38623e-06
6.77727e-05
4.39648e-06
6.75876e-05
5.57677e-06
6.7356e-05
6.93485e-06
6.70669e-05
8.73476e-06
6.66814e-05
1.08985e-05
6.62336e-05
1.37749e-05
6.56704e-05
1.68762e-05
6.4962e-05
2.11915e-05
6.40624e-05
2.70419e-05
6.29236e-05
3.43546e-05
6.14163e-05
4.52062e-05
5.94582e-05
6.18723e-05
5.66999e-05
8.57513e-05
5.31022e-05
0.000125425
4.78678e-05
0.000181825
4.02572e-05
0.000299153
2.76724e-05
0.000407234
0.000681287
6.81688e-05
6.18888e-07
6.81159e-05
1.67242e-06
6.80329e-05
2.55889e-06
6.79201e-05
3.499e-06
6.77728e-05
4.54272e-06
6.75876e-05
5.7622e-06
6.7356e-05
7.16588e-06
6.70671e-05
9.02395e-06
6.66793e-05
1.12859e-05
6.62358e-05
1.42181e-05
6.5671e-05
1.74409e-05
6.49628e-05
2.18996e-05
6.4064e-05
2.79362e-05
6.29271e-05
3.54952e-05
6.14242e-05
4.6709e-05
5.94736e-05
6.38242e-05
5.67266e-05
8.84986e-05
5.31582e-05
0.000128993
4.79824e-05
0.000187001
4.06051e-05
0.00030653
2.81687e-05
0.000419671
0.000709456
6.81688e-05
6.38798e-07
6.81158e-05
1.72612e-06
6.80328e-05
2.64158e-06
6.79201e-05
3.61166e-06
6.77728e-05
4.68881e-06
6.75878e-05
5.94748e-06
6.73563e-05
7.39675e-06
6.70674e-05
9.31306e-06
6.66782e-05
1.16746e-05
6.62376e-05
1.46588e-05
6.56717e-05
1.80068e-05
6.49637e-05
2.26079e-05
6.40657e-05
2.8838e-05
6.29311e-05
3.66267e-05
6.14328e-05
4.82072e-05
5.94903e-05
6.57656e-05
5.67559e-05
9.12327e-05
5.32169e-05
0.000132532
4.80997e-05
0.000192118
4.09671e-05
0.000313662
2.86853e-05
0.000431953
0.000738141
6.81688e-05
6.5864e-07
6.81159e-05
1.77964e-06
6.80329e-05
2.72424e-06
6.79201e-05
3.7244e-06
6.77729e-05
4.835e-06
6.75878e-05
6.13285e-06
6.73563e-05
7.62763e-06
6.70675e-05
9.60222e-06
6.66777e-05
1.20639e-05
6.62391e-05
1.50972e-05
6.56725e-05
1.85734e-05
6.49647e-05
2.33156e-05
6.40677e-05
2.97307e-05
6.29353e-05
3.77628e-05
6.1442e-05
4.97004e-05
5.95084e-05
6.77004e-05
5.67877e-05
9.39537e-05
5.32784e-05
0.000136042
4.82198e-05
0.000197177
4.13426e-05
0.00032054
2.92226e-05
0.000444073
0.000767364
6.81688e-05
6.78539e-07
6.81158e-05
1.83331e-06
6.80328e-05
2.80695e-06
6.79201e-05
3.83703e-06
6.77729e-05
4.98103e-06
6.75879e-05
6.31808e-06
6.73567e-05
7.85829e-06
6.70676e-05
9.89148e-06
6.66777e-05
1.24534e-05
6.62406e-05
1.55344e-05
6.56733e-05
1.91408e-05
6.49658e-05
2.40234e-05
6.40698e-05
3.06305e-05
6.294e-05
3.88894e-05
6.14519e-05
5.11884e-05
5.95278e-05
6.96234e-05
5.68221e-05
9.66591e-05
5.33428e-05
0.00013952
4.83426e-05
0.000202177
4.17314e-05
0.000327151
2.97807e-05
0.000456023
0.000797144
6.81688e-05
6.98368e-07
6.81159e-05
1.88679e-06
6.80329e-05
2.88962e-06
6.79202e-05
3.94974e-06
6.7773e-05
5.12716e-06
6.75879e-05
6.50341e-06
6.73568e-05
8.0889e-06
6.70676e-05
1.0181e-05
6.66779e-05
1.28428e-05
6.6242e-05
1.59701e-05
6.56742e-05
1.97085e-05
6.49669e-05
2.47305e-05
6.4072e-05
3.15213e-05
6.29449e-05
4.00205e-05
6.14623e-05
5.26709e-05
5.95484e-05
7.15385e-05
5.6859e-05
9.93489e-05
5.34103e-05
0.00014297
4.84684e-05
0.000207119
4.2133e-05
0.000333486
3.03597e-05
0.000467796
0.000827504
6.81688e-05
7.18256e-07
6.81158e-05
1.94042e-06
6.80328e-05
2.97234e-06
6.79202e-05
4.06234e-06
6.77731e-05
5.27311e-06
6.75881e-05
6.6886e-06
6.73572e-05
8.31922e-06
6.70674e-05
1.0471e-05
6.66784e-05
1.32315e-05
6.62434e-05
1.64051e-05
6.56752e-05
2.02768e-05
6.49682e-05
2.54378e-05
6.40744e-05
3.24189e-05
6.29502e-05
4.11414e-05
6.14733e-05
5.41477e-05
5.95702e-05
7.34405e-05
5.68984e-05
0.00010202
5.3481e-05
0.000146387
4.85975e-05
0.000212002
4.25473e-05
0.000339536
3.09599e-05
0.000479384
0.000858464
6.81688e-05
7.38072e-07
6.81159e-05
1.99387e-06
6.8033e-05
3.05502e-06
6.79202e-05
4.17502e-06
6.77731e-05
5.41916e-06
6.75881e-05
6.87391e-06
6.73574e-05
8.54944e-06
6.70646e-05
1.0764e-05
6.6681e-05
1.36148e-05
6.62447e-05
1.68413e-05
6.56762e-05
2.08453e-05
6.49696e-05
2.61443e-05
6.4077e-05
3.33073e-05
6.29557e-05
4.22667e-05
6.14848e-05
5.56186e-05
5.95932e-05
7.53335e-05
5.69403e-05
0.000104673
5.35552e-05
0.000149772
4.87304e-05
0.000216827
4.29744e-05
0.000345292
3.15814e-05
0.000490777
0.000890045
6.81688e-05
7.57951e-07
6.81158e-05
2.04747e-06
6.80329e-05
3.13774e-06
6.79202e-05
4.28757e-06
6.77732e-05
5.56502e-06
6.75883e-05
7.05906e-06
6.73577e-05
8.77948e-06
6.70557e-05
1.10662e-05
6.66902e-05
1.39802e-05
6.6246e-05
1.72855e-05
6.56773e-05
2.14141e-05
6.4971e-05
2.68508e-05
6.40797e-05
3.42024e-05
6.29616e-05
4.33815e-05
6.14968e-05
5.70831e-05
5.96172e-05
7.7212e-05
5.69847e-05
0.000107306
5.3633e-05
0.000153123
4.88674e-05
0.000221593
4.34147e-05
0.000350745
3.22249e-05
0.000501967
0.00092227
6.81688e-05
7.77751e-07
6.81159e-05
2.10086e-06
6.8033e-05
3.22043e-06
6.79203e-05
4.40023e-06
6.77733e-05
5.71102e-06
6.75883e-05
7.24425e-06
6.73576e-05
9.0097e-06
6.70492e-05
1.13749e-05
6.66974e-05
1.4332e-05
6.62472e-05
1.77356e-05
6.56784e-05
2.19828e-05
6.49725e-05
2.75565e-05
6.40825e-05
3.50881e-05
6.29677e-05
4.45003e-05
6.15094e-05
5.85415e-05
5.96424e-05
7.90803e-05
5.70313e-05
0.000109917
5.37147e-05
0.000156441
4.90089e-05
0.000226299
4.38687e-05
0.000355885
3.28911e-05
0.000512944
0.000955161
6.81688e-05
7.97621e-07
6.81158e-05
2.15442e-06
6.80329e-05
3.30316e-06
6.79203e-05
4.51274e-06
6.77733e-05
5.85682e-06
6.75886e-05
7.42922e-06
6.73578e-05
9.23993e-06
6.70473e-05
1.16856e-05
6.67001e-05
1.46792e-05
6.62483e-05
1.81875e-05
6.56795e-05
2.25517e-05
6.49741e-05
2.82622e-05
6.40855e-05
3.59807e-05
6.2974e-05
4.56082e-05
6.15224e-05
5.99928e-05
5.96686e-05
8.0933e-05
5.70803e-05
0.000112505
5.38007e-05
0.00015972
4.91548e-05
0.000230944
4.43363e-05
0.000360704
3.35803e-05
0.0005237
0.000988742
6.81688e-05
8.17418e-07
6.8116e-05
2.20779e-06
6.8033e-05
3.38585e-06
6.79204e-05
4.62533e-06
6.77734e-05
6.00277e-06
6.75887e-05
7.61415e-06
6.73564e-05
9.47173e-06
6.70473e-05
1.1995e-05
6.67012e-05
1.50252e-05
6.62492e-05
1.86395e-05
6.56806e-05
2.31202e-05
6.49757e-05
2.89669e-05
6.40886e-05
3.68627e-05
6.29806e-05
4.67208e-05
6.1536e-05
6.14376e-05
5.96958e-05
8.27747e-05
5.71313e-05
0.00011507
5.38912e-05
0.00016296
4.93051e-05
0.000235531
4.48159e-05
0.000365193
3.4292e-05
0.000534224
0.00102303
6.81688e-05
8.37272e-07
6.81159e-05
2.2613e-06
6.8033e-05
3.46858e-06
6.79204e-05
4.73778e-06
6.77734e-05
6.14861e-06
6.75892e-05
7.79859e-06
6.73475e-05
9.7129e-06
6.7053e-05
1.22895e-05
6.67018e-05
1.53764e-05
6.62501e-05
1.90913e-05
6.56818e-05
2.36886e-05
6.49774e-05
2.96716e-05
6.40918e-05
3.77528e-05
6.29875e-05
4.78211e-05
6.155e-05
6.28747e-05
5.9724e-05
8.45994e-05
5.71843e-05
0.000117609
5.39867e-05
0.000166157
4.94591e-05
0.000240058
4.53031e-05
0.000369349
3.50231e-05
0.000544504
0.00105806
6.81688e-05
8.57047e-07
6.8116e-05
2.3146e-06
6.80331e-05
3.55128e-06
6.79205e-05
4.85032e-06
6.77734e-05
6.29466e-06
6.75894e-05
7.98281e-06
6.73399e-05
9.96203e-06
6.7058e-05
1.25713e-05
6.67021e-05
1.57323e-05
6.62508e-05
1.95426e-05
6.56829e-05
2.42564e-05
6.49792e-05
3.03751e-05
6.40951e-05
3.86317e-05
6.29945e-05
4.89262e-05
6.15645e-05
6.4305e-05
5.9753e-05
8.64124e-05
5.7239e-05
0.000120123
5.40875e-05
0.00016931
4.96166e-05
0.000244529
4.57885e-05
0.000373177
3.57658e-05
0.000554527
0.00109382
6.81687e-05
8.76876e-07
6.81158e-05
2.36812e-06
6.80329e-05
3.634e-06
6.79205e-05
4.96265e-06
6.77735e-05
6.44029e-06
6.75897e-05
8.16684e-06
6.73377e-05
1.02135e-05
6.70593e-05
1.28497e-05
6.67023e-05
1.60893e-05
6.62514e-05
1.99936e-05
6.5684e-05
2.48239e-05
6.49809e-05
3.10784e-05
6.40984e-05
3.95186e-05
6.30017e-05
5.0019e-05
6.15794e-05
6.57269e-05
5.97829e-05
8.82075e-05
5.72951e-05
0.000122611
5.41948e-05
0.000172409
4.97768e-05
0.000248947
4.62689e-05
0.000376685
3.65993e-05
0.000564196
0.00113042
-3.86192e-06
3.8618e-06
-7.5427e-06
3.68074e-06
-8.46051e-06
9.17749e-07
-6.82846e-06
-1.63211e-06
-4.98526e-06
-1.84362e-06
-3.90745e-06
-1.07805e-06
-3.43677e-06
-4.70953e-07
-3.32181e-06
-1.15036e-07
-3.16236e-06
-1.61162e-07
-2.95796e-06
-2.06125e-07
-2.73284e-06
-2.31728e-07
-2.27329e-06
-4.36451e-07
-1.62258e-06
-6.37059e-07
-7.76962e-07
-8.57652e-07
9.64301e-07
-1.7544e-06
4.19867e-06
-3.24192e-06
8.61272e-06
-4.41077e-06
1.32652e-05
-4.65046e-06
1.74745e-05
-4.20047e-06
2.11063e-05
-3.63645e-06
2.43726e-05
-3.26603e-06
2.74714e-05
-3.09851e-06
3.04987e-05
-3.02746e-06
3.35222e-05
-3.02314e-06
3.66889e-05
-3.16391e-06
3.98231e-05
-3.1355e-06
4.23941e-05
-2.57499e-06
5.03026e-05
-7.90925e-06
6.18183e-05
-1.15148e-05
6.67261e-05
-4.90686e-06
6.71565e-05
-4.30347e-07
6.72183e-05
-6.17114e-08
6.73521e-05
-1.33958e-07
6.74879e-05
-1.35716e-07
-6.73145e-08
-3.78892e-06
7.6505e-06
-7.44017e-06
7.33192e-06
-8.35191e-06
1.82938e-06
-6.72515e-06
-3.25897e-06
-4.88922e-06
-3.68034e-06
-3.82311e-06
-2.14463e-06
-3.36288e-06
-9.31698e-07
-3.26346e-06
-2.14595e-07
-3.13249e-06
-2.95277e-07
-2.97282e-06
-3.68903e-07
-2.78371e-06
-4.30116e-07
-2.29739e-06
-8.81773e-07
-1.53417e-06
-1.37363e-06
-5.93451e-07
-1.82211e-06
1.08901e-06
-3.46326e-06
4.12424e-06
-6.2925e-06
8.39503e-06
-8.67496e-06
1.30637e-05
-9.31499e-06
1.73617e-05
-8.48131e-06
2.10587e-05
-7.34242e-06
2.43545e-05
-6.56145e-06
2.74467e-05
-6.18998e-06
3.04485e-05
-6.02979e-06
3.34385e-05
-6.01233e-06
3.65734e-05
-6.29367e-06
3.97185e-05
-6.28304e-06
4.22398e-05
-5.10379e-06
4.98066e-05
-1.54775e-05
6.13591e-05
-2.30655e-05
6.66746e-05
-1.02205e-05
6.7167e-05
-9.22643e-07
6.72227e-05
-1.17424e-07
6.73535e-05
-2.64828e-07
6.74888e-05
-2.71044e-07
-1.34623e-07
-3.707e-06
1.13573e-05
-7.32049e-06
1.09454e-05
-8.2136e-06
2.72236e-06
-6.57805e-06
-4.89463e-06
-4.75711e-06
-5.50204e-06
-3.71185e-06
-3.19031e-06
-3.26852e-06
-1.3755e-06
-3.19139e-06
-2.91847e-07
-3.09603e-06
-3.93641e-07
-2.98301e-06
-4.8502e-07
-2.8177e-06
-6.0432e-07
-2.27025e-06
-1.38727e-06
-1.36367e-06
-2.25255e-06
-3.50557e-07
-2.86006e-06
1.21721e-06
-5.05804e-06
4.04049e-06
-9.13169e-06
8.19263e-06
-1.28201e-05
1.28948e-05
-1.40128e-05
1.72832e-05
-1.28513e-05
2.10493e-05
-1.1118e-05
2.43753e-05
-9.88685e-06
2.74632e-05
-9.27726e-06
3.0439e-05
-9.00598e-06
3.33937e-05
-8.96623e-06
3.64948e-05
-9.38949e-06
3.96447e-05
-9.43543e-06
4.21263e-05
-7.5929e-06
4.93763e-05
-2.27288e-05
6.09433e-05
-3.46308e-05
6.6625e-05
-1.59005e-05
6.71767e-05
-1.4743e-06
6.72273e-05
-1.67965e-07
6.73549e-05
-3.92563e-07
6.74899e-05
-4.05955e-07
-2.01854e-07
-3.61246e-06
1.49695e-05
-7.18416e-06
1.4517e-05
-8.04359e-06
3.58167e-06
-6.3878e-06
-6.55055e-06
-4.58728e-06
-7.30334e-06
-3.57143e-06
-4.20662e-06
-3.15051e-06
-1.7969e-06
-3.09728e-06
-3.4521e-07
-3.03618e-06
-4.57721e-07
-2.96996e-06
-5.54259e-07
-2.82589e-06
-7.53532e-07
-2.20849e-06
-1.96184e-06
-1.15093e-06
-3.27823e-06
-6.25514e-08
-3.97758e-06
1.38963e-06
-6.54264e-06
3.99083e-06
-1.17528e-05
8.00846e-06
-1.68289e-05
1.274e-05
-1.87385e-05
1.72293e-05
-1.73181e-05
2.1077e-05
-1.4977e-05
2.44402e-05
-1.32496e-05
2.75254e-05
-1.23617e-05
3.04742e-05
-1.19553e-05
3.33908e-05
-1.18819e-05
3.64531e-05
-1.24463e-05
3.96011e-05
-1.25861e-05
4.20534e-05
-1.00532e-05
4.90147e-05
-2.96916e-05
6.05719e-05
-4.61862e-05
6.65767e-05
-2.19034e-05
6.7186e-05
-2.08347e-06
6.7232e-05
-2.1399e-07
6.73566e-05
-5.17258e-07
6.7491e-05
-5.40354e-07
-2.68955e-07
-3.50527e-06
1.84746e-05
-7.02957e-06
1.80412e-05
-7.83724e-06
4.3892e-06
-6.15122e-06
-8.2367e-06
-4.37889e-06
-9.07642e-06
-3.40141e-06
-5.18452e-06
-3.0083e-06
-2.19046e-06
-2.9796e-06
-3.74018e-07
-2.95154e-06
-4.88604e-07
-2.93135e-06
-5.77664e-07
-2.80435e-06
-8.83446e-07
-2.10776e-06
-2.61702e-06
-8.90858e-07
-4.46205e-06
2.79396e-07
-5.17832e-06
1.62179e-06
-7.91757e-06
3.99396e-06
-1.41453e-05
7.85529e-06
-2.06808e-05
1.26057e-05
-2.34825e-05
1.72074e-05
-2.18932e-05
2.11523e-05
-1.89352e-05
2.45602e-05
-1.66568e-05
2.76425e-05
-1.54431e-05
3.05614e-05
-1.48747e-05
3.34353e-05
-1.47549e-05
3.64525e-05
-1.54578e-05
3.95903e-05
-1.57267e-05
4.20219e-05
-1.2493e-05
4.8719e-05
-3.63902e-05
6.02421e-05
-5.77076e-05
6.65296e-05
-2.81892e-05
6.71946e-05
-2.74835e-06
6.72368e-05
-2.56213e-07
6.73584e-05
-6.38984e-07
6.74923e-05
-6.74153e-07
-3.3587e-07
-3.38517e-06
2.18595e-05
-6.8545e-06
2.15105e-05
-7.58873e-06
5.12327e-06
-5.86348e-06
-9.96209e-06
-4.12958e-06
-1.08111e-05
-3.19984e-06
-6.11476e-06
-2.83987e-06
-2.55088e-06
-2.83579e-06
-3.78238e-07
-2.83993e-06
-4.87396e-07
-2.8641e-06
-5.56566e-07
-2.74811e-06
-9.98767e-07
-1.96363e-06
-3.35686e-06
-5.81214e-07
-5.80533e-06
6.8006e-07
-6.47633e-06
1.92873e-06
-9.20629e-06
4.07689e-06
-1.63195e-05
7.76304e-06
-2.43547e-05
1.25149e-05
-2.82253e-05
1.72375e-05
-2.65814e-05
2.12962e-05
-2.30107e-05
2.47555e-05
-2.01155e-05
2.78313e-05
-1.85178e-05
3.07132e-05
-1.77572e-05
3.35366e-05
-1.75772e-05
3.64998e-05
-1.84146e-05
3.96173e-05
-1.88475e-05
4.20347e-05
-1.49196e-05
4.84861e-05
-4.28433e-05
5.99496e-05
-6.91693e-05
6.64837e-05
-3.47213e-05
6.72025e-05
-3.46707e-06
6.72417e-05
-2.9537e-07
6.73605e-05
-7.57864e-07
6.74936e-05
-8.07257e-07
-4.02545e-07
-3.25165e-06
2.5111e-05
-6.65604e-06
2.49148e-05
-7.29065e-06
5.75771e-06
-5.51782e-06
-1.17351e-05
-3.83545e-06
-1.24942e-05
-2.96315e-06
-6.98751e-06
-2.64174e-06
-2.87272e-06
-2.66199e-06
-3.581e-07
-2.69786e-06
-4.54388e-07
-2.76418e-06
-4.9373e-07
-2.65156e-06
-1.10777e-06
-1.77085e-06
-4.19573e-06
-2.16944e-07
-7.31852e-06
1.14969e-06
-7.88312e-06
2.33047e-06
-1.0428e-05
4.27211e-06
-1.8288e-05
7.77479e-06
-2.78448e-05
1.25093e-05
-3.295e-05
1.73564e-05
-3.13868e-05
2.15449e-05
-2.72203e-05
2.50613e-05
-2.36307e-05
2.81213e-05
-2.15765e-05
3.09514e-05
-2.0588e-05
3.371e-05
-2.03345e-05
3.6606e-05
-2.13035e-05
3.96899e-05
-2.1935e-05
4.20977e-05
-1.73368e-05
4.83152e-05
-4.90625e-05
5.96908e-05
-8.05431e-05
6.64391e-05
-4.14678e-05
6.72098e-05
-4.23773e-06
6.72467e-05
-3.32264e-07
6.73627e-05
-8.73978e-07
6.74951e-05
-9.39579e-07
-4.68921e-07
-3.10403e-06
2.82148e-05
-6.4305e-06
2.82412e-05
-6.93454e-06
6.26154e-06
-5.107e-06
-1.35628e-05
-3.4923e-06
-1.41097e-05
-2.68685e-06
-7.79351e-06
-2.40926e-06
-3.15078e-06
-2.45318e-06
-3.14322e-07
-2.52027e-06
-3.90359e-07
-2.62593e-06
-3.91414e-07
-2.50735e-06
-1.21923e-06
-1.52058e-06
-5.13472e-06
2.15513e-07
-9.00525e-06
1.71202e-06
-9.42993e-06
2.85958e-06
-1.16297e-05
4.61954e-06
-2.00833e-05
7.94386e-06
-3.11525e-05
1.26497e-05
-3.76421e-05
1.76229e-05
-3.63056e-05
2.19565e-05
-3.15806e-05
2.55346e-05
-2.72077e-05
2.85621e-05
-2.46022e-05