/*--------------------------------*- C++ -*----------------------------------*\
| =========                 |                                                 |
| \\      /  F ield         | OpenFOAM: The Open Source CFD Toolbox           |
|  \\    /   O peration     | Version:  v1912                                 |
|   \\  /    A nd           | Website:  www.openfoam.com                      |
|    \\/     M anipulation  |                                                 |
\*---------------------------------------------------------------------------*/
FoamFile
{
    version     2.0;
    format      ascii;
    class       volVectorField;
    location    "300";
    object      U;
}
// * * * * * * * * * * * * * * * * * * * * * * * * * * * * * * * * * * * * * //

dimensions      [0 1 -1 0 0 0 0];


internalField   nonuniform List<vector> 
12441
(
(29.9989 1.67576e-05 0)
(29.9857 5.08208e-05 0)
(29.9571 8.78815e-05 0)
(29.9136 0.000135296 0)
(29.8566 0.000197644 0)
(29.7836 0.000281358 0)
(29.6932 0.000392383 0)
(29.5795 0.000556474 0)
(29.4373 0.000772592 0)
(29.2621 0.00109164 0)
(29.0432 0.00152275 0)
(28.7577 0.0021141 0)
(28.4416 0.00303483 0)
(27.9534 0.00447631 0)
(27.4361 0.00622536 0)
(26.6288 0.0112579 0)
(25.5952 0.0148748 0)
(23.9582 0.0309763 0)
(21.6482 0.0522338 0)
(17.998 0.0908961 0)
(12.2206 0.122712 0)
(5.87348 0.198442 0)
(29.9989 4.98196e-05 0)
(29.9855 0.000152022 0)
(29.957 0.000262073 0)
(29.9135 0.000403423 0)
(29.8566 0.000589655 0)
(29.7835 0.000839624 0)
(29.6931 0.00117266 0)
(29.5795 0.00166341 0)
(29.4371 0.00231012 0)
(29.2618 0.00326778 0)
(29.0444 0.00456458 0)
(28.7583 0.0062971 0)
(28.4373 0.00917941 0)
(27.9523 0.0132595 0)
(27.4429 0.0187529 0)
(26.6357 0.0336132 0)
(25.6003 0.0471995 0)
(23.9574 0.0887516 0)
(21.6477 0.136364 0)
(17.9957 0.263006 0)
(12.2206 0.360532 0)
(5.87669 0.592582 0)
(29.9989 8.27916e-05 0)
(29.9855 0.000253312 0)
(29.957 0.000435611 0)
(29.9135 0.000670545 0)
(29.8566 0.000980394 0)
(29.7835 0.00139722 0)
(29.6931 0.00195176 0)
(29.5795 0.00276861 0)
(29.4371 0.00384699 0)
(29.2619 0.00544409 0)
(29.0444 0.00758044 0)
(28.7576 0.0104961 0)
(28.4415 0.0153863 0)
(27.9478 0.0219628 0)
(27.4396 0.0313258 0)
(26.6306 0.0550444 0)
(25.5999 0.0803869 0)
(23.961 0.144764 0)
(21.6505 0.217984 0)
(17.995 0.432807 0)
(12.2259 0.594885 0)
(5.88439 0.984718 0)
(29.9989 0.000116185 0)
(29.9855 0.000355315 0)
(29.957 0.000609983 0)
(29.9135 0.000938898 0)
(29.8566 0.00137278 0)
(29.7835 0.00195671 0)
(29.6932 0.00273337 0)
(29.5796 0.00387702 0)
(29.4372 0.0053873 0)
(29.2619 0.007625 0)
(29.0445 0.0106089 0)
(28.7581 0.0147046 0)
(28.4374 0.0215832 0)
(27.954 0.0306978 0)
(27.4423 0.0439239 0)
(26.636 0.0765565 0)
(25.6043 0.112791 0)
(23.9664 0.203768 0)
(21.659 0.324336 0)
(17.9992 0.610619 0)
(12.2377 0.833209 0)
(5.89688 1.37851 0)
(29.9989 0.000149635 0)
(29.9856 0.00045717 0)
(29.9571 0.000784146 0)
(29.9135 0.00120701 0)
(29.8566 0.00176476 0)
(29.7835 0.00251561 0)
(29.6932 0.00351423 0)
(29.5796 0.0049845 0)
(29.4372 0.00692674 0)
(29.262 0.00980491 0)
(29.0444 0.0136361 0)
(28.7578 0.0189074 0)
(28.4428 0.027766 0)
(27.9496 0.0394383 0)
(27.4411 0.0565346 0)
(26.6327 0.097817 0)
(25.6049 0.144699 0)
(23.9701 0.263523 0)
(21.6697 0.413481 0)
(18.0093 0.784618 0)
(12.2573 1.0713 0)
(5.91446 1.77358 0)
(29.9989 0.000183079 0)
(29.9856 0.000558943 0)
(29.9571 0.000958289 0)
(29.9135 0.00147513 0)
(29.8567 0.0021567 0)
(29.7835 0.00307449 0)
(29.6933 0.00429518 0)
(29.5797 0.00609216 0)
(29.4373 0.00846652 0)
(29.262 0.0119844 0)
(29.0446 0.0166645 0)
(28.7584 0.0231163 0)
(28.4369 0.0339365 0)
(27.9562 0.048174 0)
(27.4426 0.069155 0)
(26.6374 0.118994 0)
(25.6094 0.176344 0)
(23.9753 0.322735 0)
(21.6826 0.501067 0)
(18.026 0.957315 0)
(12.2862 1.30908 0)
(5.93747 2.16974 0)
(29.9989 0.000216515 0)
(29.9856 0.000660657 0)
(29.9571 0.00113242 0)
(29.9135 0.00174324 0)
(29.8567 0.00254857 0)
(29.7836 0.00363332 0)
(29.6933 0.00507609 0)
(29.5797 0.00719971 0)
(29.4373 0.0100063 0)
(29.2621 0.0141646 0)
(29.0445 0.0196912 0)
(28.7585 0.0273191 0)
(28.444 0.0401149 0)
(27.9506 0.0569006 0)
(27.4423 0.0817592 0)
(26.6353 0.140003 0)
(25.6106 0.207287 0)
(23.9788 0.379468 0)
(21.6991 0.590812 0)
(18.0519 1.13012 0)
(12.3267 1.54694 0)
(5.96642 2.56729 0)
(29.9989 0.000249946 0)
(29.9856 0.000762332 0)
(29.9571 0.00130655 0)
(29.9135 0.00201134 0)
(29.8567 0.00294034 0)
(29.7836 0.00419205 0)
(29.6933 0.00585695 0)
(29.5797 0.00830724 0)
(29.4374 0.0115462 0)
(29.2621 0.0163436 0)
(29.0449 0.0227182 0)
(28.759 0.0315291 0)
(28.4359 0.0462818 0)
(27.958 0.0656138 0)
(27.4439 0.0941926 0)
(26.6401 0.160698 0)
(25.6165 0.23982 0)
(23.9853 0.438228 0)
(21.7271 0.681685 0)
(18.0928 1.30243 0)
(12.3817 1.78509 0)
(6.00186 2.96671 0)
(29.9989 0.000283373 0)
(29.9856 0.000863956 0)
(29.9571 0.00148066 0)
(29.9135 0.00227942 0)
(29.8567 0.00333203 0)
(29.7836 0.00475073 0)
(29.6933 0.00663776 0)
(29.5798 0.00941463 0)
(29.4375 0.0130859 0)
(29.2623 0.0185237 0)
(29.0446 0.0257432 0)
(28.7593 0.0357331 0)
(28.4457 0.0524488 0)
(27.9533 0.0744362 0)
(27.4395 0.106742 0)
(26.638 0.181731 0)
(25.6217 0.270853 0)
(23.994 0.49648 0)
(21.7751 0.77226 0)
(18.1553 1.47388 0)
(12.4542 2.02375 0)
(6.04442 3.36848 0)
(29.9989 0.000316797 0)
(29.9856 0.000965543 0)
(29.9571 0.00165476 0)
(29.9135 0.00254748 0)
(29.8567 0.00372362 0)
(29.7837 0.00530931 0)
(29.6934 0.00741851 0)
(29.5798 0.0105219 0)
(29.4375 0.0146258 0)
(29.2622 0.0207025 0)
(29.0452 0.0287664 0)
(28.76 0.0399447 0)
(28.4335 0.0586111 0)
(27.96 0.0831204 0)
(27.4348 0.119934 0)
(26.6377 0.203043 0)
(25.6315 0.302331 0)
(24.0131 0.55285 0)
(21.8446 0.862495 0)
(18.2415 1.64467 0)
(12.5466 2.26329 0)
(6.09473 3.77317 0)
(29.9989 0.000350213 0)
(29.9856 0.00106708 0)
(29.9571 0.00182886 0)
(29.9136 0.00281552 0)
(29.8567 0.00411514 0)
(29.7837 0.00586783 0)
(29.6934 0.00819922 0)
(29.5799 0.0116292 0)
(29.4376 0.0161657 0)
(29.2624 0.0228814 0)
(29.045 0.0317868 0)
(28.7606 0.0441605 0)
(28.4444 0.0647835 0)
(27.9665 0.0918506 0)
(27.4314 0.132517 0)
(26.6358 0.223248 0)
(25.6437 0.334789 0)
(24.0437 0.608541 0)
(21.9239 0.952493 0)
(18.3458 1.81471 0)
(12.6591 2.50398 0)
(6.15339 4.1814 0)
(29.9989 0.000383625 0)
(29.9856 0.00116858 0)
(29.9571 0.00200296 0)
(29.9135 0.00308355 0)
(29.8567 0.00450658 0)
(29.7837 0.00642627 0)
(29.6935 0.0089799 0)
(29.5799 0.0127362 0)
(29.4377 0.0177058 0)
(29.2623 0.0250587 0)
(29.0457 0.0348056 0)
(28.7621 0.0483845 0)
(28.4304 0.0708256 0)
(27.9759 0.10082 0)
(27.4281 0.146058 0)
(26.6355 0.243767 0)
(25.6559 0.367116 0)
(24.0785 0.662667 0)
(21.9985 1.04154 0)
(18.4581 1.98349 0)
(12.79 2.74593 0)
(6.22086 4.59376 0)
(29.9989 0.000417029 0)
(29.9856 0.00127004 0)
(29.9571 0.00217707 0)
(29.9136 0.00335156 0)
(29.8568 0.00489794 0)
(29.7837 0.00698463 0)
(29.6935 0.0097605 0)
(29.58 0.0138431 0)
(29.4378 0.0192465 0)
(29.2623 0.0272333 0)
(29.0461 0.0378126 0)
(28.7629 0.0527258 0)
(28.4345 0.0767606 0)
(27.9803 0.109812 0)
(27.4246 0.159908 0)
(26.6358 0.263922 0)
(25.6655 0.398989 0)
(24.1086 0.71499 0)
(22.0612 1.12929 0)
(18.5693 2.15046 0)
(12.936 2.98898 0)
(6.29736 5.01082 0)
(29.9989 0.000450426 0)
(29.9856 0.00137145 0)
(29.9571 0.00235119 0)
(29.9136 0.00361955 0)
(29.8568 0.00528924 0)
(29.7838 0.00754291 0)
(29.6935 0.010541 0)
(29.5801 0.0149499 0)
(29.4379 0.020788 0)
(29.2621 0.029407 0)
(29.0468 0.0408303 0)
(28.7647 0.0571235 0)
(28.4244 0.0830483 0)
(27.9797 0.118829 0)
(27.4216 0.173351 0)
(26.6368 0.28346 0)
(25.6721 0.430359 0)
(24.1315 0.765862 0)
(22.1116 1.21575 0)
(18.6736 2.31527 0)
(13.093 3.23284 0)
(6.38287 5.43309 0)
(29.9989 0.000483813 0)
(29.9856 0.00147282 0)
(29.9571 0.00252532 0)
(29.9136 0.00388753 0)
(29.8568 0.00568047 0)
(29.7838 0.00810112 0)
(29.6935 0.0113215 0)
(29.5801 0.0160563 0)
(29.438 0.0223312 0)
(29.2621 0.0315739 0)
(29.0474 0.0438562 0)
(28.7668 0.0614885 0)
(28.4255 0.0892607 0)
(27.9781 0.127711 0)
(27.4199 0.186632 0)
(26.6377 0.302787 0)
(25.6762 0.461475 0)
(24.148 0.815752 0)
(22.1522 1.30103 0)
(18.7685 2.47769 0)
(13.2574 3.47714 0)
(6.47713 5.86096 0)
(29.9989 0.000517192 0)
(29.9856 0.00157416 0)
(29.9571 0.00269948 0)
(29.9136 0.00415549 0)
(29.8568 0.00607163 0)
(29.7838 0.00865924 0)
(29.6936 0.0121019 0)
(29.5802 0.0171626 0)
(29.4381 0.0238746 0)
(29.2618 0.0337443 0)
(29.0474 0.0468743 0)
(28.769 0.0659779 0)
(28.4239 0.095521 0)
(27.977 0.136464 0)
(27.4189 0.199808 0)
(26.6386 0.322046 0)
(25.6785 0.492462 0)
(24.1597 0.864994 0)
(22.1857 1.38525 0)
(18.854 2.6376 0)
(13.4262 3.72148 0)
(6.57972 6.29477 0)
(29.9989 0.00055056 0)
(29.9856 0.00167544 0)
(29.9571 0.00287365 0)
(29.9136 0.00442344 0)
(29.8568 0.00646274 0)
(29.7839 0.0092173 0)
(29.6936 0.0128822 0)
(29.5802 0.0182685 0)
(29.4382 0.02542 0)
(29.2617 0.0359097 0)
(29.0479 0.0499493 0)
(28.77 0.0705016 0)
(28.4235 0.101679 0)
(27.9762 0.145238 0)
(27.4183 0.212979 0)
(26.6394 0.341299 0)
(25.6796 0.523374 0)
(24.168 0.913777 0)
(22.2144 1.46849 0)
(18.9309 2.79489 0)
(13.5972 3.96549 0)
(6.69015 6.73479 0)
(29.9989 0.000583918 0)
(29.9856 0.00177669 0)
(29.9571 0.00304784 0)
(29.9136 0.00469136 0)
(29.8568 0.00685378 0)
(29.7839 0.00977527 0)
(29.6937 0.0136625 0)
(29.5803 0.019374 0)
(29.4384 0.0269672 0)
(29.2615 0.0380686 0)
(29.0482 0.0530411 0)
(28.7689 0.0750238 0)
(28.4224 0.107822 0)
(27.9757 0.153991 0)
(27.4179 0.226156 0)
(26.6401 0.360548 0)
(25.68 0.55423 0)
(24.1742 0.962203 0)
(22.24 1.55079 0)
(19.0007 2.94951 0)
(13.7691 4.20884 0)
(6.8079 7.18121 0)
(29.9989 0.000617265 0)
(29.9856 0.0018779 0)
(29.9572 0.00322205 0)
(29.9136 0.00495927 0)
(29.8568 0.00724477 0)
(29.7839 0.0103332 0)
(29.6937 0.0144427 0)
(29.5803 0.0204795 0)
(29.4385 0.0285143 0)
(29.2616 0.0402373 0)
(29.0488 0.0561253 0)
(28.7673 0.0794012 0)
(28.4218 0.113935 0)
(27.9753 0.162772 0)
(27.4177 0.23934 0)
(26.6408 0.379804 0)
(25.6799 0.585045 0)
(24.179 1.01033 0)
(22.2639 1.63222 0)
(19.0648 3.10142 0)
(13.9413 4.45122 0)
(6.9325 7.63423 0)
(29.9989 0.000650601 0)
(29.9856 0.00197906 0)
(29.9571 0.00339629 0)
(29.9136 0.00522716 0)
(29.8568 0.0076357 0)
(29.7839 0.010891 0)
(29.6938 0.0152228 0)
(29.5804 0.0215846 0)
(29.4386 0.0300629 0)
(29.2617 0.0424126 0)
(29.0484 0.0592742 0)
(28.766 0.0836736 0)
(28.4213 0.120071 0)
(27.9752 0.171554 0)
(27.4176 0.252523 0)
(26.6415 0.399064 0)
(25.6796 0.615829 0)
(24.1832 1.05819 0)
(22.2873 1.7128 0)
(19.1246 3.25059 0)
(14.1137 4.69238 0)
(7.06353 8.09402 0)
(29.9989 0.000683925 0)
(29.9857 0.00208018 0)
(29.9572 0.00357056 0)
(29.9136 0.00549503 0)
(29.8569 0.00802657 0)
(29.784 0.0114487 0)
(29.6938 0.0160029 0)
(29.5804 0.0226892 0)
(29.4387 0.031611 0)
(29.2622 0.0446021 0)
(29.0472 0.0624416 0)
(28.765 0.0879227 0)
(28.421 0.126199 0)
(27.9751 0.180353 0)
(27.4176 0.265704 0)
(26.6424 0.418334 0)
(25.6795 0.646592 0)
(24.1874 1.10577 0)
(22.3108 1.79254 0)
(19.1816 3.39703 0)
(14.2866 4.93212 0)
(7.20068 8.56072 0)
(29.9989 0.000717239 0)
(29.9856 0.00218126 0)
(29.9571 0.00374484 0)
(29.9136 0.00576287 0)
(29.8569 0.00841737 0)
(29.784 0.0120063 0)
(29.6938 0.0167829 0)
(29.5806 0.023794 0)
(29.4388 0.0331542 0)
(29.2627 0.0468489 0)
(29.0452 0.0655737 0)
(28.7643 0.0921714 0)
(28.4208 0.132348 0)
(27.9751 0.18915 0)
(27.4177 0.27888 0)
(26.6433 0.437612 0)
(25.6797 0.677341 0)
(24.192 1.15306 0)
(22.3351 1.87148 0)
(19.2369 3.54074 0)
(14.4606 5.17023 0)
(7.34372 9.0345 0)
(29.9989 0.000750538 0)
(29.9857 0.0022823 0)
(29.9572 0.00391915 0)
(29.9137 0.0060307 0)
(29.8569 0.0088081 0)
(29.7841 0.0125638 0)
(29.6938 0.0175629 0)
(29.5806 0.0248984 0)
(29.4389 0.0346953 0)
(29.2633 0.0491368 0)
(29.0436 0.0686892 0)
(28.764 0.0964384 0)
(28.4208 0.138494 0)
(27.9753 0.19795 0)
(27.4181 0.292049 0)
(26.6445 0.456897 0)
(25.6806 0.708077 0)
(24.1973 1.20001 0)
(22.3604 1.94962 0)
(19.2914 3.6817 0)
(14.6366 5.40658 0)
(7.49251 9.51554 0)
(29.9989 0.000783828 0)
(29.9857 0.0023833 0)
(29.9571 0.00409349 0)
(29.9136 0.0062985 0)
(29.8569 0.00919877 0)
(29.7841 0.0131213 0)
(29.6939 0.0183428 0)
(29.5807 0.0260027 0)
(29.439 0.0362333 0)
(29.2634 0.0514508 0)
(29.0425 0.0717208 0)
(28.7638 0.10072 0)
(28.4208 0.144651 0)
(27.9755 0.206747 0)
(27.4185 0.305212 0)
(26.646 0.476184 0)
(25.6823 0.738788 0)
(24.2034 1.24658 0)
(22.3868 2.02698 0)
(19.346 3.81991 0)
(14.8157 5.64102 0)
(7.64701 10.004 0)
(29.9989 0.000817103 0)
(29.9857 0.00248425 0)
(29.9572 0.00426785 0)
(29.9137 0.00656629 0)
(29.8569 0.00958938 0)
(29.7841 0.0136787 0)
(29.6939 0.0191225 0)
(29.5807 0.0271069 0)
(29.4392 0.0377683 0)
(29.2637 0.0537453 0)
(29.0419 0.0746896 0)
(28.7637 0.105012 0)
(28.4209 0.150804 0)
(27.9758 0.215542 0)
(27.4192 0.318365 0)
(26.6479 0.495465 0)
(25.685 0.769446 0)
(24.2106 1.29276 0)
(22.4145 2.10357 0)
(19.4014 3.95532 0)
(14.999 5.87346 0)
(7.80729 10.5002 0)
(29.9989 0.000850368 0)
(29.9857 0.00258517 0)
(29.9571 0.00444223 0)
(29.9137 0.00683404 0)
(29.8569 0.00997993 0)
(29.7842 0.0142359 0)
(29.694 0.0199025 0)
(29.5808 0.0282095 0)
(29.4394 0.0393184 0)
(29.2633 0.05602 0)
(29.0416 0.0776315 0)
(28.7637 0.109309 0)
(28.421 0.15696 0)
(27.9762 0.224333 0)
(27.4201 0.331506 0)
(26.6503 0.514727 0)
(25.6888 0.800027 0)
(24.2189 1.33857 0)
(22.4433 2.17939 0)
(19.458 4.08787 0)
(15.1878 6.10378 0)
(7.97349 11.0042 0)
(29.9989 0.000883618 0)
(29.9857 0.00268604 0)
(29.9572 0.00461664 0)
(29.9137 0.00710177 0)
(29.857 0.0103704 0)
(29.7842 0.014793 0)
(29.694 0.0206823 0)
(29.5808 0.029313 0)
(29.4397 0.0408764 0)
(29.2631 0.0583898 0)
(29.0416 0.0805826 0)
(28.7638 0.113609 0)
(28.4212 0.163111 0)
(27.9767 0.233118 0)
(27.4212 0.344629 0)
(26.6531 0.533955 0)
(25.6937 0.830511 0)
(24.2283 1.38401 0)
(22.4733 2.25444 0)
(19.5164 4.21747 0)
(15.3833 6.33192 0)
(8.14583 11.5164 0)
(29.9989 0.000916858 0)
(29.9857 0.00278687 0)
(29.9572 0.00479107 0)
(29.9137 0.00736947 0)
(29.857 0.0107609 0)
(29.7842 0.0153501 0)
(29.6941 0.0214619 0)
(29.5809 0.0304158 0)
(29.4401 0.0424438 0)
(29.2624 0.0607157 0)
(29.0416 0.0835612 0)
(28.764 0.117911 0)
(28.4215 0.169261 0)
(27.9773 0.241896 0)
(27.4226 0.357729 0)
(26.6564 0.553134 0)
(25.6996 0.860895 0)
(24.2389 1.42908 0)
(22.5042 2.32872 0)
(19.5765 4.34401 0)
(15.5866 6.55778 0)
(8.32458 12.0371 0)
(29.9989 0.000950083 0)
(29.9857 0.00288766 0)
(29.9572 0.00496552 0)
(29.9137 0.00763714 0)
(29.857 0.0111513 0)
(29.7843 0.0159069 0)
(29.6941 0.022242 0)
(29.5809 0.0315143 0)
(29.4404 0.044064 0)
(29.262 0.0628984 0)
(29.0417 0.0865689 0)
(28.7642 0.122212 0)
(28.4218 0.175407 0)
(27.978 0.250664 0)
(27.4242 0.370799 0)
(26.6602 0.572253 0)
(25.7065 0.891174 0)
(24.2508 1.4738 0)
(22.5361 2.4022 0)
(19.6387 4.46734 0)
(15.7988 6.78128 0)
(8.51007 12.5667 0)
(29.9989 0.000983299 0)
(29.9857 0.00298842 0)
(29.9572 0.00514 0)
(29.9137 0.00790477 0)
(29.857 0.0115416 0)
(29.7843 0.0164636 0)
(29.6942 0.0230221 0)
(29.581 0.0326125 0)
(29.4407 0.0457047 0)
(29.2616 0.0650554 0)
(29.0419 0.0895989 0)
(28.7644 0.126514 0)
(28.4221 0.18155 0)
(27.9789 0.25942 0)
(27.426 0.383836 0)
(26.6644 0.591306 0)
(25.7143 0.921346 0)
(24.264 1.51816 0)
(22.5689 2.47488 0)
(19.7026 4.58731 0)
(16.0207 7.00234 0)
(8.70265 13.1053 0)
(29.9989 0.0010165 0)
(29.9857 0.00308913 0)
(29.9572 0.00531449 0)
(29.9137 0.00817238 0)
(29.857 0.0119319 0)
(29.7844 0.0170201 0)
(29.6943 0.0238018 0)
(29.5811 0.0337106 0)
(29.4408 0.0473535 0)
(29.2616 0.0672031 0)
(29.0421 0.0926421 0)
(28.7647 0.130815 0)
(28.4225 0.187688 0)
(27.9798 0.268161 0)
(27.4282 0.396835 0)
(26.6691 0.610286 0)
(25.723 0.951401 0)
(24.2785 1.56216 0)
(22.6027 2.54676 0)
(19.7682 4.70373 0)
(16.2525 7.22086 0)
(8.90269 13.6535 0)
(29.9988 0.00104969 0)
(29.9857 0.0031898 0)
(29.9572 0.005489 0)
(29.9137 0.00843995 0)
(29.857 0.0123221 0)
(29.7844 0.0175766 0)
(29.6944 0.0245816 0)
(29.5812 0.0348081 0)
(29.441 0.0490102 0)
(29.2617 0.06933 0)
(29.0424 0.0956933 0)
(28.765 0.135114 0)
(28.423 0.19382 0)
(27.9808 0.276886 0)
(27.4305 0.409793 0)
(26.6741 0.629189 0)
(25.7325 0.981327 0)
(24.2944 1.60579 0)
(22.6375 2.61783 0)
(19.8353 4.81644 0)
(16.4946 7.43673 0)
(9.11053 14.2117 0)
(29.9988 0.00108287 0)
(29.9858 0.00329044 0)
(29.9572 0.00566353 0)
(29.9138 0.00870749 0)
(29.8571 0.0127122 0)
(29.7844 0.0181329 0)
(29.6943 0.025361 0)
(29.5813 0.0359057 0)
(29.441 0.0506712 0)
(29.2621 0.0714421 0)
(29.0427 0.0987499 0)
(28.7653 0.139413 0)
(28.4235 0.199947 0)
(27.982 0.285593 0)
(27.4331 0.422709 0)
(26.6795 0.648008 0)
(25.7428 1.01111 0)
(24.3118 1.64907 0)
(22.6733 2.68809 0)
(19.9038 4.92526 0)
(16.7467 7.64983 0)
(9.32651 14.7802 0)
(29.9988 0.00111604 0)
(29.9857 0.00339104 0)
(29.9572 0.00583807 0)
(29.9137 0.00897499 0)
(29.8571 0.0131023 0)
(29.7845 0.0186892 0)
(29.6944 0.02614 0)
(29.5815 0.0370038 0)
(29.4409 0.0523341 0)
(29.2625 0.0735421 0)
(29.043 0.10181 0)
(28.7657 0.14371 0)
(28.4241 0.206067 0)
(27.9832 0.294282 0)
(27.4358 0.435581 0)
(26.6853 0.666739 0)
(25.7538 1.04074 0)
(24.3306 1.69198 0)
(22.7102 2.75754 0)
(19.9736 5.03002 0)
(17.0087 7.86004 0)
(9.55093 15.3595 0)
(29.9988 0.0011492 0)
(29.9858 0.00349161 0)
(29.9572 0.00601263 0)
(29.9138 0.00924246 0)
(29.8571 0.0134922 0)
(29.7845 0.0192456 0)
(29.6944 0.0269185 0)
(29.5817 0.0380986 0)
(29.4407 0.0539956 0)
(29.2631 0.0756329 0)
(29.0434 0.104874 0)
(28.7661 0.148006 0)
(28.4247 0.212181 0)
(27.9845 0.302949 0)
(27.4388 0.448406 0)
(26.6913 0.685373 0)
(25.7655 1.0702 0)
(24.3508 1.73452 0)
(22.7484 2.82618 0)
(20.0448 5.13057 0)
(17.2802 8.06722 0)
(9.78403 15.9499 0)
(29.9988 0.00118235 0)
(29.9857 0.00359215 0)
(29.9572 0.00618719 0)
(29.9138 0.00950987 0)
(29.8571 0.0138822 0)
(29.7846 0.0198013 0)
(29.6945 0.0276991 0)
(29.5819 0.0391912 0)
(29.4405 0.0555912 0)
(29.2637 0.077716 0)
(29.0438 0.107941 0)
(28.7666 0.1523 0)
(28.4253 0.218287 0)
(27.9859 0.311596 0)
(27.4419 0.461182 0)
(26.6977 0.703907 0)
(25.778 1.09947 0)
(24.3725 1.77668 0)
(22.788 2.89402 0)
(20.1175 5.22677 0)
(17.5611 8.27122 0)
(10.0261 16.5519 0)
(29.9988 0.00121548 0)
(29.9858 0.00369265 0)
(29.9572 0.00636177 0)
(29.9138 0.00977729 0)
(29.8571 0.0142718 0)
(29.7846 0.0203582 0)
(29.6945 0.0284728 0)
(29.5821 0.0403266 0)
(29.4402 0.0570033 0)
(29.2644 0.0798021 0)
(29.0442 0.11101 0)
(28.767 0.156592 0)
(28.426 0.224384 0)
(27.9874 0.32022 0)
(27.4451 0.473908 0)
(26.7043 0.722332 0)
(25.7912 1.12855 0)
(24.3957 1.81845 0)
(22.8292 2.96106 0)
(20.192 5.31847 0)
(17.8513 8.47191 0)
(10.2773 17.1659 0)
(29.9988 0.00124861 0)
(29.9857 0.00379311 0)
(29.9572 0.00653635 0)
(29.9138 0.0100446 0)
(29.8572 0.0146615 0)
(29.7847 0.0209137 0)
(29.6946 0.0292532 0)
(29.5823 0.0414351 0)
(29.4404 0.0587931 0)
(29.265 0.0819211 0)
(29.0446 0.11408 0)
(28.7675 0.160882 0)
(28.4268 0.230473 0)
(27.989 0.32882 0)
(27.4486 0.486582 0)
(26.7113 0.740644 0)
(25.805 1.15741 0)
(24.4202 1.85981 0)
(22.8721 3.02727 0)
(20.2683 5.40553 0)
(18.1511 8.66911 0)
(10.5379 17.7923 0)
(29.9988 0.00128173 0)
(29.9858 0.00389353 0)
(29.9573 0.00671096 0)
(29.9138 0.0103119 0)
(29.8572 0.0150513 0)
(29.7847 0.0214688 0)
(29.6947 0.0300301 0)
(29.5822 0.0425818 0)
(29.4409 0.0605535 0)
(29.2655 0.0840739 0)
(29.0451 0.117152 0)
(28.7681 0.165169 0)
(28.4276 0.236554 0)
(27.9907 0.337395 0)
(27.4522 0.499201 0)
(26.7185 0.758835 0)
(25.8195 1.18604 0)
(24.4462 1.90076 0)
(22.9171 3.09267 0)
(20.3465 5.48782 0)
(18.4609 8.86269 0)
(10.808 18.4316 0)
(29.9988 0.00131484 0)
(29.9858 0.00399392 0)
(29.9572 0.00688551 0)
(29.9138 0.0105793 0)
(29.8572 0.0154402 0)
(29.7848 0.0220281 0)
(29.6949 0.0307896 0)
(29.5822 0.0437488 0)
(29.4411 0.0620518 0)
(29.266 0.0862418 0)
(29.0455 0.120223 0)
(28.7686 0.169454 0)
(28.4284 0.242625 0)
(27.9924 0.345944 0)
(27.4559 0.511763 0)
(26.7261 0.776902 0)
(25.8346 1.21443 0)
(24.4734 1.94127 0)
(22.9644 3.15723 0)
(20.4264 5.56519 0)
(18.7806 9.05248 0)
(11.0881 19.0842 0)
(29.9988 0.00134795 0)
(29.9858 0.00409429 0)
(29.9573 0.00706013 0)
(29.9139 0.0108463 0)
(29.8573 0.0158302 0)
(29.7848 0.0225796 0)
(29.695 0.0316005 0)
(29.5818 0.0446564 0)
(29.4412 0.063482 0)
(29.2664 0.0884118 0)
(29.0459 0.123294 0)
(28.7692 0.173736 0)
(28.4293 0.248684 0)
(27.9942 0.354469 0)
(27.4598 0.524267 0)
(26.7339 0.794839 0)
(25.8503 1.24257 0)
(24.5019 1.98131 0)
(23.0144 3.22097 0)
(20.5075 5.6375 0)
(19.1096 9.23836 0)
(11.3782 19.7504 0)
(29.9988 0.00138104 0)
(29.9858 0.00419465 0)
(29.9572 0.00723473 0)
(29.9138 0.0111135 0)
(29.8573 0.0162195 0)
(29.7848 0.0231356 0)
(29.6954 0.032393 0)
(29.5807 0.0459157 0)
(29.4412 0.0649422 0)
(29.2667 0.0905803 0)
(29.0463 0.126363 0)
(28.7698 0.178014 0)
(28.4301 0.254733 0)
(27.9961 0.362965 0)
(27.4638 0.53671 0)
(26.742 0.812641 0)
(25.8666 1.27044 0)
(24.5316 2.02085 0)
(23.0676 3.28389 0)
(20.589 5.70465 0)
(19.4448 9.42034 0)
(11.6786 20.4316 0)
(29.9988 0.00141396 0)
(29.9858 0.00429493 0)
(29.9573 0.00740936 0)
(29.9139 0.0113806 0)
(29.8573 0.0166091 0)
(29.7848 0.023691 0)
(29.6956 0.033194 0)
(29.5798 0.0472889 0)
(29.4412 0.0664409 0)
(29.2669 0.0927493 0)
(29.0467 0.129431 0)
(28.7704 0.182289 0)
(28.4311 0.260769 0)
(27.998 0.371436 0)
(27.468 0.549088 0)
(26.7503 0.830302 0)
(25.8833 1.29802 0)
(24.5622 2.05985 0)
(23.1242 3.346 0)
(20.6703 5.76664 0)
(19.779 9.59809 0)
(11.9889 21.1351 0)
(29.9988 0.00144641 0)
(29.9857 0.00439453 0)
(29.9572 0.00758276 0)
(29.9138 0.0116457 0)
(29.8574 0.016996 0)
(29.7848 0.0242362 0)
(29.6958 0.0340412 0)
(29.5795 0.0484076 0)
(29.4411 0.0679515 0)
(29.2671 0.0949155 0)
(29.0471 0.132499 0)
(28.771 0.186555 0)
(28.432 0.26679 0)
(28 0.379896 0)
(27.4723 0.561404 0)
(26.7589 0.847818 0)
(25.9005 1.32532 0)
(24.5938 2.09823 0)
(23.1848 3.40733 0)
(20.7514 5.82352 0)
(20.1011 9.76959 0)
(12.3951 21.8825 0)
(-0.735611 0.0397733 0)
(-2.75138 0.0349763 0)
(-3.93508 0.00802638 0)
(-3.48865 -0.0131859 0)
(-2.47821 -0.0137257 0)
(-1.88682 -0.00743295 0)
(-1.53853 -0.00302032 0)
(-1.48395 -0.000722762 0)
(-1.43803 -0.000943479 0)
(-1.34104 -0.0010944 0)
(-1.25924 -0.0010617 0)
(-1.14047 -0.00166975 0)
(-0.84579 -0.00226071 0)
(-0.571003 -0.0031209 0)
(-0.0957341 -0.00618468 0)
(0.984886 -0.0104271 0)
(2.78267 -0.0129064 0)
(4.88191 -0.012511 0)
(6.87095 -0.0104162 0)
(8.57338 -0.00826162 0)
(10.0593 -0.00680052 0)
(11.4433 -0.00595329 0)
(12.7849 -0.00537891 0)
(14.1066 -0.00496334 0)
(15.4463 -0.00479472 0)
(16.898 -0.00436787 0)
(18.1979 -0.00338352 0)
(19.1466 -0.00949214 0)
(25.3669 -0.0124961 0)
(29.1854 -0.0048619 0)
(29.5483 -0.000391029 0)
(29.5493 -5.54084e-05 0)
(29.605 -0.000107744 0)
(29.6673 -0.000100145 0)
(29.7243 -4.58395e-05 0)
(-0.717416 0.118 0)
(-2.70997 0.104147 0)
(-3.88658 0.0240061 0)
(-3.43982 -0.0393114 0)
(-2.4336 -0.0410028 0)
(-1.84841 -0.0221245 0)
(-1.50352 -0.00891882 0)
(-1.45404 -0.0019741 0)
(-1.41639 -0.00253861 0)
(-1.33819 -0.0029898 0)
(-1.27861 -0.00312612 0)
(-1.16968 -0.00563518 0)
(-0.834944 -0.00777497 0)
(-0.491369 -0.00954168 0)
(-0.00754005 -0.0175207 0)
(0.993567 -0.0297908 0)
(2.69665 -0.0376947 0)
(4.77823 -0.0370249 0)
(6.8034 -0.030964 0)
(8.54303 -0.0247108 0)
(10.0485 -0.0204383 0)
(11.4369 -0.0178688 0)
(12.7694 -0.0160996 0)
(14.0773 -0.0148271 0)
(15.401 -0.0143211 0)
(16.8416 -0.013141 0)
(18.1635 -0.00988603 0)
(19.0427 -0.0280895 0)
(25.0236 -0.0378945 0)
(29.1368 -0.0152026 0)
(29.5541 -0.00123617 0)
(29.5525 -0.00015702 0)
(29.6057 -0.000319728 0)
(29.6678 -0.000300128 0)
(29.7247 -0.000137536 0)
(-0.692445 0.194616 0)
(-2.66175 0.172632 0)
(-3.82958 0.0397369 0)
(-3.37427 -0.0654712 0)
(-2.36979 -0.0682824 0)
(-1.79647 -0.0366804 0)
(-1.45788 -0.0146921 0)
(-1.41699 -0.00303324 0)
(-1.39046 -0.00381507 0)
(-1.33285 -0.00436834 0)
(-1.29394 -0.00479132 0)
(-1.18458 -0.00945189 0)
(-0.793573 -0.0139108 0)
(-0.378949 -0.0168041 0)
(0.0937958 -0.0286201 0)
(1.00008 -0.0477609 0)
(2.612 -0.061169 0)
(4.68498 -0.0611387 0)
(6.75007 -0.0516623 0)
(8.52873 -0.041353 0)
(10.0554 -0.0341001 0)
(11.4484 -0.0296654 0)
(12.7722 -0.0266588 0)
(14.0657 -0.0245327 0)
(15.3726 -0.0237153 0)
(16.8003 -0.0219195 0)
(18.1407 -0.0163802 0)
(18.9634 -0.0455992 0)
(24.715 -0.0634007 0)
(29.0899 -0.0263289 0)
(29.5594 -0.00221926 0)
(29.5556 -0.000248958 0)
(29.6065 -0.000526162 0)
(29.6683 -0.000499418 0)
(29.7251 -0.000229167 0)
(-0.661769 0.269427 0)
(-2.6082 0.240432 0)
(-3.76325 0.0550659 0)
(-3.28957 -0.0919784 0)
(-2.28722 -0.0952623 0)
(-1.73025 -0.0508773 0)
(-1.40097 -0.020188 0)
(-1.37044 -0.00379662 0)
(-1.35461 -0.00468752 0)
(-1.31683 -0.00528817 0)
(-1.29964 -0.0062762 0)
(-1.18644 -0.0140525 0)
(-0.734417 -0.0213745 0)
(-0.246649 -0.0246404 0)
(0.215185 -0.0390221 0)
(1.02484 -0.0648307 0)
(2.53815 -0.0846356 0)
(4.59712 -0.0860253 0)
(6.70444 -0.0731278 0)
(8.52843 -0.0584701 0)
(10.081 -0.0479529 0)
(11.4799 -0.0414783 0)
(12.795 -0.0371447 0)
(14.0731 -0.0341334 0)
(15.3618 -0.0330119 0)
(16.7738 -0.0307142 0)
(18.1293 -0.0227436 0)
(18.909 -0.0624824 0)
(24.4426 -0.0888227 0)
(29.0445 -0.0381837 0)
(29.5643 -0.00330583 0)
(29.5588 -0.000332149 0)
(29.6074 -0.000727753 0)
(29.6688 -0.000698044 0)
(29.7256 -0.000320663 0)
(-0.625246 0.34219 0)
(-2.54949 0.307391 0)
(-3.68591 0.0696693 0)
(-3.18323 -0.118833 0)
(-2.18567 -0.121817 0)
(-1.64929 -0.0645754 0)
(-1.3329 -0.0253572 0)
(-1.31379 -0.00427657 0)
(-1.30809 -0.00519643 0)
(-1.28963 -0.00574515 0)
(-1.29406 -0.00756439 0)
(-1.1734 -0.0192917 0)
(-0.655575 -0.0300689 0)
(-0.0920846 -0.0330773 0)
(0.36193 -0.048652 0)
(1.07673 -0.0805016 0)
(2.48284 -0.107371 0)
(4.5178 -0.111218 0)
(6.66888 -0.0952256 0)
(8.54644 -0.0760581 0)
(10.1304 -0.0619941 0)
(11.5361 -0.0532822 0)
(12.8416 -0.0475271 0)
(14.1026 -0.0436003 0)
(15.3706 -0.0421819 0)
(16.7637 -0.039495 0)
(18.1304 -0.029044 0)
(18.879 -0.0787211 0)
(24.204 -0.114172 0)
(29.0006 -0.0506634 0)
(29.5687 -0.0044993 0)
(29.5619 -0.000408125 0)
(29.6084 -0.000924509 0)
(29.6694 -0.000895855 0)
(29.726 -0.000411944 0)
(-0.582661 0.412637 0)
(-2.48563 0.373387 0)
(-3.59557 0.0831923 0)
(-3.05205 -0.146207 0)
(-2.06411 -0.147875 0)
(-1.55252 -0.0776741 0)
(-1.25304 -0.0301398 0)
(-1.2459 -0.00446851 0)
(-1.2498 -0.00535382 0)
(-1.25048 -0.00575282 0)
(-1.27521 -0.00868867 0)
(-1.14302 -0.025229 0)
(-0.555687 -0.0400102 0)
(0.0853414 -0.0421138 0)
(0.537736 -0.0575126 0)
(1.1655 -0.0946257 0)
(2.46043 -0.129019 0)
(4.45872 -0.13644 0)
(6.65187 -0.117878 0)
(8.59185 -0.0941415 0)
(10.213 -0.0762438 0)
(11.6252 -0.0650696 0)
(12.9182 -0.0577867 0)
(14.1588 -0.0529112 0)
(15.4026 -0.0512008 0)
(16.7725 -0.0482354 0)
(18.1456 -0.0353066 0)
(18.8742 -0.0943598 0)
(23.9956 -0.139405 0)
(28.9583 -0.0636804 0)
(29.5725 -0.00579577 0)
(29.5651 -0.00047816 0)
(29.6095 -0.00111661 0)
(29.6701 -0.00109271 0)
(29.7265 -0.000502935 0)
(-0.533767 0.480496 0)
(-2.41645 0.438262 0)
(-3.48973 0.0952245 0)
(-2.89188 -0.174287 0)
(-1.92086 -0.173297 0)
(-1.43821 -0.0900609 0)
(-1.16 -0.0344721 0)
(-1.16507 -0.00437386 0)
(-1.17805 -0.00516796 0)
(-1.198 -0.00533199 0)
(-1.24088 -0.00970548 0)
(-1.09254 -0.0319341 0)
(-0.432913 -0.0512113 0)
(0.288548 -0.0518284 0)
(0.749015 -0.0657942 0)
(1.30209 -0.107344 0)
(2.48883 -0.14948 0)
(4.43998 -0.161507 0)
(6.66992 -0.141055 0)
(8.6805 -0.112778 0)
(10.3449 -0.0907259 0)
(11.7618 -0.076825 0)
(13.036 -0.0678904 0)
(14.2496 -0.0620303 0)
(15.4633 -0.0600342 0)
(16.8042 -0.0569026 0)
(18.1779 -0.041543 0)
(18.897 -0.109429 0)
(23.8142 -0.164483 0)
(28.9175 -0.0771627 0)
(29.5758 -0.0071915 0)
(29.5682 -0.000543577 0)
(29.6107 -0.00130422 0)
(29.6709 -0.00128848 0)
(29.727 -0.000593559 0)
(-0.478309 0.545487 0)
(-2.34163 0.501804 0)
(-3.3654 0.105269 0)
(-2.69818 -0.203218 0)
(-1.75422 -0.197861 0)
(-1.30432 -0.101602 0)
(-1.05185 -0.0382845 0)
(-1.06911 -0.00399699 0)
(-1.09057 -0.00464276 0)
(-1.13002 -0.00450538 0)
(-1.18831 -0.0107008 0)
(-1.01828 -0.0394764 0)
(-0.283125 -0.0637335 0)
(0.525878 -0.0623918 0)
(1.00885 -0.0737585 0)
(1.50146 -0.118883 0)
(2.58819 -0.168806 0)
(4.4888 -0.1863 0)
(6.74938 -0.164712 0)
(8.83764 -0.132019 0)
(10.5518 -0.105454 0)
(11.9706 -0.0885096 0)
(13.2141 -0.0777784 0)
(14.3877 -0.0708974 0)
(15.5612 -0.0686313 0)
(16.865 -0.0654539 0)
(18.2313 -0.0477609 0)
(18.9517 -0.123952 0)
(23.6583 -0.189343 0)
(28.8784 -0.0910472 0)
(29.5784 -0.00868261 0)
(29.5713 -0.000605765 0)
(29.612 -0.00148754 0)
(29.6717 -0.00148303 0)
(29.7276 -0.00068374 0)
(-0.416049 0.607314 0)
(-2.26071 0.563734 0)
(-3.21908 0.11275 0)
(-2.46748 -0.233096 0)
(-1.56333 -0.221296 0)
(-1.14907 -0.11217 0)
(-0.926487 -0.0415114 0)
(-0.955496 -0.00334853 0)
(-0.984569 -0.00378445 0)
(-1.04349 -0.00330463 0)
(-1.11369 -0.0117676 0)
(-0.915001 -0.0479583 0)
(-0.0993228 -0.0777067 0)
(0.811871 -0.0740885 0)
(1.33923 -0.0817192 0)
(1.78587 -0.129452 0)
(2.78287 -0.187131 0)
(4.63894 -0.210844 0)
(6.92769 -0.188857 0)
(9.09967 -0.151937 0)
(10.8711 -0.120443 0)
(12.2896 -0.100051 0)
(13.4844 -0.0873424 0)
(14.5945 -0.079409 0)
(15.7097 -0.0769115 0)
(16.9637 -0.0738288 0)
(18.3119 -0.0539642 0)
(19.0458 -0.137936 0)
(23.5286 -0.213899 0)
(28.8414 -0.105273 0)
(29.5804 -0.0102649 0)
(29.5743 -0.000666191 0)
(29.6134 -0.00166677 0)
(29.6726 -0.00167622 0)
(29.7281 -0.000773398 0)
(-0.346775 0.665664 0)
(-2.17305 0.623704 0)
(-3.04693 0.11705 0)
(-2.19937 -0.263955 0)
(-1.34889 -0.243315 0)
(-0.971527 -0.121668 0)
(-0.781903 -0.0441048 0)
(-0.821514 -0.00245171 0)
(-0.856779 -0.00260986 0)
(-0.934428 -0.00177497 0)
(-1.01192 -0.0130306 0)
(-0.775434 -0.0574984 0)
(0.127912 -0.0933521 0)
(1.16541 -0.0873662 0)
(1.77078 -0.0900787 0)
(2.1853 -0.139229 0)
(3.10177 -0.204626 0)
(4.92881 -0.23533 0)
(7.25046 -0.213627 0)
(9.51031 -0.172653 0)
(11.3467 -0.135738 0)
(12.7689 -0.111355 0)
(13.8954 -0.0963985 0)
(14.9047 -0.0873863 0)
(15.9292 -0.0847433 0)
(17.1134 -0.0819377 0)
(18.4279 -0.0601516 0)
(19.1902 -0.151375 0)
(23.4284 -0.238043 0)
(28.8067 -0.119774 0)
(29.5817 -0.0119333 0)
(29.5773 -0.00072639 0)
(29.6149 -0.00184214 0)
(29.6736 -0.00186793 0)
(29.7287 -0.000862455 0)
(-0.27032 0.720202 0)
(-2.07786 0.681285 0)
(-2.84489 0.117593 0)
(-1.89813 -0.295719 0)
(-1.11359 -0.263669 0)
(-0.772223 -0.130056 0)