/*--------------------------------*- C++ -*----------------------------------*\
| =========                 |                                                 |
| \\      /  F ield         | OpenFOAM: The Open Source CFD Toolbox           |
|  \\    /   O peration     | Version:  v1912                                 |
|   \\  /    A nd           | Website:  www.openfoam.com                      |
|    \\/     M anipulation  |                                                 |
\*---------------------------------------------------------------------------*/
FoamFile
{
    version     2.0;
    format      ascii;
    class       volScalarField;
    location    "300";
    object      yPlus;
}
// * * * * * * * * * * * * * * * * * * * * * * * * * * * * * * * * * * * * * //

dimensions      [0 0 0 0 0 0 0];


internalField   uniform 0;

boundaryField
{
    inlet
    {
        type            calculated;
        value           uniform 0;
    }
    outlet
    {
        type            calculated;
        value           uniform 0;
    }
    lowerSymmetry
    {
        type            symmetryPlane;
    }
    obstical
    {
        type            calculated;
        value           nonuniform List<scalar> 
88
(
483.871
486.05
490.436
497.011
505.709
516.439
529.111
543.633
559.915
577.874
597.426
618.492
640.983
664.81
689.875
716.085
743.352
771.593
800.741
830.736
861.53
893.087
925.38
958.391
992.111
1026.54
1061.67
1097.53
1134.13
1171.47
1209.6
1248.52
1288.26
1328.84
1370.28
1412.61
1455.84
1500
1545.11
1591.2
1638.28
1686.43
1736.04
1791.05
75.865
75.0197
74.3357
73.9168
73.7625
73.8696
74.2395
74.8821
75.8187
77.0821
78.7158
80.7703
83.2985
86.3501
89.9654
94.1693
98.9632
104.315
110.141
116.276
122.495
128.643
134.564
140.1
145.094
149.383
152.798
155.152
156.217
155.706
153.262
148.48
140.964
130.4
116.635
99.7212
79.9176
57.9137
37.4715
38.6723
64.8069
97.4869
132.996
171.232
)
;
    }
    obsticalTop
    {
        type            calculated;
        value           nonuniform List<scalar> 
20
(
53.3313
38.6609
47.0664
53.1911
56.0594
57.7157
58.3391
58.0584
57.1358
55.7046
53.7424
51.1425
47.8135
43.5734
38.3915
31.6286
25.2929
15.8109
14.3086
11.1637
)
;
    }
    top
    {
        type            calculated;
        value           uniform 0;
    }
    defaultFaces
    {
        type            empty;
    }
}


// ************************************************************************* //
