/*--------------------------------*- C++ -*----------------------------------*\
| =========                 |                                                 |
| \\      /  F ield         | OpenFOAM: The Open Source CFD Toolbox           |
|  \\    /   O peration     | Version:  v1912                                 |
|   \\  /    A nd           | Website:  www.openfoam.com                      |
|    \\/     M anipulation  |                                                 |
\*---------------------------------------------------------------------------*/
FoamFile
{
    version     2.0;
    format      ascii;
    class       volScalarField;
    location    "575";
    object      p;
}
// * * * * * * * * * * * * * * * * * * * * * * * * * * * * * * * * * * * * * //

dimensions      [0 2 -2 0 0 0 0];


internalField   nonuniform List<scalar> 
2000
(
-0.0460066
0.0714047
0.125985
0.119097
0.103268
0.0969631
0.096358
0.0977067
0.097924
0.0977028
0.0978429
0.0975195
0.0972618
0.0972062
0.0972639
0.0972863
0.0972442
0.0972232
0.0972179
0.0972217
0.0972258
0.0972198
0.0971992
0.0971653
0.0971245
0.097083
0.0970459
0.0970148
0.0969875
0.0969614
0.0969346
0.0969069
0.0968783
0.0968493
0.09682
0.096791
0.0967627
0.0967352
0.0967081
0.096681
0.096654
0.0966271
0.0966008
0.0965758
0.0965531
0.0965337
0.0965188
0.0965105
0.0965115
0.0965225
0.0965341
0.0965042
0.0963143
0.0957219
0.0943648
0.0918529
0.0878972
0.0824473
0.0759695
0.0698866
0.0663002
0.0663115
0.0709063
0.0796803
0.091669
0.105869
0.121438
0.137592
0.153424
0.167857
0.179846
0.188518
0.193031
0.19257
0.186334
0.173655
0.153401
0.125371
0.0838584
0.0415505
0.00724054
0.092417
0.131235
0.11804
0.100298
0.0961003
0.0996418
0.102082
0.0993276
0.0960836
0.095646
0.0969461
0.097394
0.0972621
0.0974872
0.0973895
0.097266
0.0971639
0.0971293
0.0971181
0.0971363
0.0971773
0.0971852
0.0971625
0.097128
0.097091
0.0970556
0.0970239
0.0969963
0.09697
0.0969407
0.0969102
0.0968798
0.0968502
0.0968212
0.0967931
0.0967662
0.0967413
0.0967176
0.0966937
0.0966695
0.0966447
0.0966195
0.0965938
0.0965678
0.0965424
0.0965196
0.0965047
0.0965126
0.0965681
0.0966758
0.0967495
0.0965094
0.0953981
0.0926448
0.0875872
0.0800702
0.0706937
0.0610868
0.0543361
0.05401
0.0592903
0.067714
0.0785517
0.0913328
0.105702
0.1211
0.136772
0.151814
0.165224
0.175991
0.183136
0.185753
0.183104
0.174516
0.159448
0.136989
0.107306
0.066409
0.0294421
0.0583084
0.0921063
0.114798
0.113241
0.104042
0.0998674
0.0999056
0.0992684
0.0973625
0.0966774
0.0982668
0.0998656
0.0988861
0.0964274
0.0955335
0.0964073
0.0972915
0.0974672
0.0973084
0.0972045
0.0971469
0.0971111
0.0970929
0.0971054
0.0971137
0.0971032
0.097073
0.0970281
0.0969915
0.0969555
0.0969272
0.0969008
0.0968749
0.0968512
0.09683
0.0968096
0.0967887
0.0967675
0.0967467
0.0967266
0.0967076
0.0966892
0.096669
0.0966433
0.096614
0.0965985
0.0966312
0.0967487
0.0969831
0.0973466
0.0977823
0.0980712
0.0977999
0.0963506
0.093051
0.0874855
0.0798808
0.071438
0.0642017
0.0597396
0.0587361
0.0621864
0.0694453
0.0793827
0.0912223
0.104503
0.118663
0.132897
0.146257
0.157757
0.166446
0.171465
0.172095
0.167772
0.158015
0.142481
0.120578
0.0928404
0.0565545
0.0249979
0.0832956
0.0933093
0.105859
0.109939
0.107246
0.104227
0.102566
0.100834
0.0992118
0.0983943
0.0982071
0.0981097
0.0977652
0.0970707
0.0965471
0.0974912
0.0987447
0.0980072
0.0968497
0.0964484
0.0963985
0.0965721
0.0968605
0.0970849
0.097215
0.0972939
0.0973378
0.0973139
0.0972279
0.0971266
0.0970281
0.0969434
0.0968803
0.0968463
0.0968288
0.0968155
0.0968001
0.0967861
0.0967747
0.0967657
0.0967594
0.0967545
0.0967448
0.0967217
0.0966873
0.096673
0.0967413
0.0969373
0.0972991
0.0978271
0.098484
0.0989238
0.0987609
0.0974582
0.0945088
0.0896846
0.0832617
0.0760424
0.0691937
0.0646009
0.0633605
0.0661564
0.0725855
0.0816281
0.0924492
0.104447
0.116968
0.129204
0.140278
0.149348
0.15565
0.158527
0.157441
0.151966
0.141745
0.12655
0.105991
0.0806773
0.0487233
0.020804
0.0956362
0.0992367
0.106757
0.110727
0.109598
0.107269
0.105888
0.104849
0.103547
0.102096
0.100745
0.0996568
0.0989301
0.0980929
0.097131
0.0971605
0.0977144
0.0979287
0.0977802
0.0973296
0.0969904
0.0968772
0.0969353
0.0971155
0.0973083
0.0974229
0.0973811
0.0971981
0.0970675
0.0969655
0.0968844
0.0968233
0.0967823
0.0967811
0.0968052
0.0968295
0.0968474
0.0968493
0.0968402
0.096828
0.0968152
0.0967997
0.096773
0.096719
0.0966263
0.0965091
0.0964419
0.0965681
0.0969131
0.0974397
0.0980471
0.0984727
0.0983141
0.0970856
0.0943724
0.0900368
0.0843854
0.0782312
0.0728174
0.0695594
0.0692891
0.0722269
0.0780216
0.0859577
0.0953115
0.105454
0.115756
0.12553
0.134074
0.140729
0.144908
0.146104
0.143884
0.137896
0.127829
0.113492
0.0945679
0.0716421
0.043224
0.018182
0.104077
0.105911
0.109865
0.112036
0.11122
0.109612
0.108654
0.107978
0.107019
0.105828
0.104699
0.103709
0.102697
0.101375
0.100001
0.0992934
0.0991632
0.0990333
0.0984684
0.097585
0.0969695
0.0967661
0.0968548
0.0970621
0.0972328
0.0973274
0.0973684
0.097362
0.0972809
0.0971683
0.0970534
0.0969515
0.0968717
0.096831
0.0967871
0.0967467
0.0967298
0.0967341
0.0967331
0.0967326
0.0967396
0.0967508
0.0967575
0.0967507
0.0967315
0.096728
0.0968061
0.0970457
0.0974544
0.0979746
0.0984839
0.0987498
0.0984422
0.0972219
0.0948606
0.0913728
0.0871084
0.0827509
0.0791857
0.0772773
0.0775796
0.0802384
0.0850385
0.0914953
0.099028
0.107079
0.115109
0.122573
0.128921
0.13363
0.136224
0.136275
0.133399
0.127262
0.117555
0.104083
0.0865403
0.065458
0.0394883
0.0165421
0.110888
0.111711
0.112949
0.113286
0.1125
0.111515
0.110856
0.110317
0.109649
0.108893
0.108169
0.107449
0.10659
0.105482
0.104316
0.103462
0.102948
0.10235
0.101381
0.100283
0.0994681
0.0990286
0.0988386
0.098748
0.0986623
0.0985607
0.0984417
0.098278
0.0980589
0.0978404
0.0976547
0.097504
0.0973819
0.0973181
0.0974659
0.0975467
0.0975659
0.0976019
0.0976617
0.0977384
0.0978311
0.0979375
0.0980523
0.0981717
0.098301
0.0984623
0.0986943
0.099035
0.099482
0.0999749
0.100395
0.100558
0.100238
0.0992228
0.0974022
0.0948398
0.0918196
0.0888289
0.0864683
0.0853175
0.0857767
0.0879673
0.0917422
0.0967562
0.102573
0.10875
0.114856
0.120453
0.1251
0.128361
0.129821
0.129094
0.125815
0.119651
0.110289
0.0975151
0.0810131
0.0612593
0.0369449
0.015502
0.116765
0.11671
0.115795
0.114587
0.113763
0.113246
0.11277
0.112299
0.111856
0.111419
0.110967
0.11047
0.109872
0.10913
0.108325
0.107633
0.107092
0.106464
0.105598
0.104645
0.103846
0.103278
0.102879
0.102566
0.102289
0.102027
0.101767
0.101494
0.101215
0.100964
0.100761
0.100608
0.100514
0.100506
0.100601
0.100669
0.100709
0.100776
0.100879
0.101009
0.101159
0.101327
0.101509
0.101703
0.101913
0.102149
0.102433
0.102776
0.103166
0.103545
0.103815
0.103845
0.103486
0.102611
0.101171
0.0992368
0.0970258
0.0948849
0.0932326
0.0924682
0.0928729
0.0945418
0.0973839
0.101166
0.105575
0.110267
0.114892
0.119084
0.122468
0.124664
0.125298
0.124011
0.120452
0.114294
0.105214
0.0929802
0.0772535
0.0584513
0.0352753
0.014825
0.122169
0.12118
0.118216
0.115672
0.114917
0.114828
0.114494
0.114086
0.113821
0.113603
0.113334
0.113008
0.11262
0.112141
0.111605
0.111114
0.110701
0.110228
0.109595
0.108876
0.108226
0.10772
0.107336
0.107022
0.106739
0.106467
0.106198
0.105929
0.105665
0.105426
0.105227
0.105076
0.104984
0.104956
0.104959
0.105008
0.105073
0.105155
0.105261
0.105391
0.105538
0.105699
0.105871
0.106051
0.106241
0.106446
0.106673
0.106923
0.107178
0.107392
0.107491
0.107383
0.106969
0.106173
0.104974
0.103436
0.101722
0.100083
0.0988163
0.0982092
0.0984702
0.0996835
0.101799
0.104657
0.108018
0.111607
0.115127
0.118265
0.120694
0.122077
0.122079
0.120363
0.116598
0.11046
0.10162
0.0898219
0.074694
0.0565902
0.0342096
0.0143684
0.127399
0.125212
0.120017
0.116374
0.11591
0.116237
0.116008
0.115685
0.1156
0.115568
0.115446
0.115254
0.115013
0.114702
0.11434
0.114002
0.113711
0.113378
0.112926
0.112401
0.111916
0.111535
0.111246
0.111008
0.110791
0.110577
0.110363
0.110148
0.109938
0.109745
0.109582
0.109459
0.109384
0.109355
0.109314
0.109349
0.10941
0.109476
0.109555
0.109651
0.10976
0.109877
0.11
0.110127
0.110256
0.11039
0.11053
0.110672
0.110797
0.110869
0.110834
0.110624
0.110172
0.109428
0.108386
0.107099
0.105693
0.104356
0.103311
0.102774
0.102907
0.103781
0.105366
0.10754
0.110115
0.112861
0.115526
0.117838
0.119512
0.120251
0.119751
0.117702
0.113788
0.107691
0.099072
0.0876486
0.0730051
0.0554296
0.0335908
0.0140989
0.132638
0.128788
0.121095
0.116705
0.116796
0.117488
0.117316
0.117103
0.117206
0.117342
0.117353
0.117282
0.117161
0.116976
0.116741
0.116511
0.116307
0.116065
0.115733
0.115344
0.114982
0.114699
0.114488
0.114316
0.114158
0.114002
0.113844
0.113684
0.113527
0.113382
0.113258
0.113164
0.1131
0.113059
0.113028
0.113047
0.11309
0.113136
0.113191
0.113257
0.113332
0.113411
0.113492
0.113571
0.113649
0.113723
0.113792
0.113851
0.113883
0.113858
0.113734
0.113462
0.112993
0.112294
0.111366
0.110255
0.109061
0.107929
0.107032
0.106536
0.106568
0.107185
0.108366
0.110013
0.111973
0.114051
0.116031
0.117677
0.118739
0.118956
0.118053
0.115747
0.111736
0.105704
0.0972994
0.0862134
0.0719761
0.0548116
0.0333071
0.0140165
0.138004
0.131835
0.121421
0.116762
0.117629
0.118592
0.118442
0.118365
0.118652
0.118934
0.119063
0.119104
0.119094
0.11902
0.118893
0.118754
0.11862
0.118449
0.118204
0.117911
0.117636
0.11742
0.11726
0.117132
0.117016
0.116901
0.116784
0.116665
0.116547
0.116437
0.116342
0.116268
0.116217
0.116181
0.116163
0.116174
0.116204
0.11624
0.116281
0.116328
0.11638
0.116433
0.116483
0.116528
0.116566
0.116596
0.116613
0.116612
0.116577
0.116485
0.116302
0.115991
0.115518
0.114859
0.114019
0.113039
0.111998
0.111014
0.11022
0.109748
0.109695
0.110108
0.110967
0.112192
0.113653
0.115186
0.116603
0.117701
0.118261
0.118053
0.116831
0.114332
0.110267
0.104322
0.0961299
0.085354
0.0714651
0.0546304
0.033284
0.0141352
0.143577
0.134249
0.121029
0.116666
0.118429
0.119546
0.119412
0.1195
0.119956
0.120357
0.12059
0.120735
0.120825
0.12085
0.120817
0.120761
0.120696
0.120591
0.12042
0.120205
0.119998
0.119835
0.119717
0.119623
0.119539
0.119455
0.119368
0.119279
0.11919
0.119106
0.119032
0.118974
0.118931
0.118911
0.118899
0.118905
0.118928
0.118956
0.118986
0.119019
0.119053
0.119085
0.119112
0.11913
0.119137
0.119131
0.119108
0.11906
0.118975
0.118833
0.118608
0.118272
0.117798
0.117172
0.116401
0.11552
0.114595
0.113718
0.112998
0.112535
0.112408
0.11265
0.113243
0.114119
0.115168
0.116248
0.117198
0.117844
0.117995
0.117448
0.115981
0.113348
0.109267
0.103424
0.0954379
0.0849457
0.0713582
0.0547975
0.033465
0.0144595
0.149396
0.135911
0.120016
0.116534
0.119195
0.120354
0.120259
0.120528
0.121131
0.121631
0.121956
0.122193
0.122371
0.122482
0.122533
0.122552
0.122551
0.122507
0.122403
0.122255
0.122109
0.121994
0.121913
0.121851
0.121795
0.121738
0.121677
0.121613
0.121549
0.121487
0.121431
0.121386
0.121355
0.12134
0.121332
0.121337
0.121353
0.121375
0.121396
0.121417
0.121437
0.121452
0.121459
0.121455
0.121436
0.121401
0.121343
0.121257
0.121131
0.12095
0.120691
0.120334
0.11986
0.11926
0.118541
0.117734
0.116893
0.116094
0.11542
0.114954
0.114754
0.114846
0.115212
0.115794
0.116497
0.117201
0.11777
0.118051
0.11788
0.117074
0.115429
0.112711
0.108645
0.102911
0.0951164
0.0848781
0.07155
0.0552278
0.033801
0.0149706
0.15547
0.136714
0.118529
0.116455
0.119909
0.121028
0.12101
0.121463
0.122188
0.122772
0.12318
0.123499
0.123754
0.12394
0.124064
0.12415
0.124207
0.124219
0.124173
0.124085
0.123992
0.12392
0.123873
0.123841
0.123812
0.12378
0.123742
0.123701
0.123658
0.123615
0.123575
0.123542
0.123521
0.12351
0.123505
0.123509
0.123522
0.123537
0.123551
0.123562
0.123569
0.12357
0.123559
0.123535
0.123494
0.123432
0.123345
0.123225
0.123064
0.122847
0.122558
0.122181
0.121702
0.121116
0.120432
0.119675
0.11889
0.118139
0.117488
0.117002
0.116728
0.116683
0.116853
0.117187
0.117606
0.118009
0.118277
0.118278
0.117865
0.116873
0.115109
0.112347
0.108313
0.102687
0.0950642
0.0850471
0.0719399
0.0558359
0.0342478
0.0156243
0.161777
0.136581
0.116744
0.11648
0.120547
0.121588
0.121688
0.122316
0.12314
0.123795
0.124279
0.12467
0.124994
0.125245
0.125432
0.125577
0.125687
0.125748
0.125754
0.125718
0.125671
0.125638
0.125622
0.125617
0.125612
0.125603
0.125586
0.125565
0.125542
0.125515
0.125489
0.125467
0.125454
0.125447
0.125445
0.125449
0.125457
0.125467
0.125473
0.125474
0.12547
0.125455
0.125428
0.125384
0.125319
0.125231
0.125113
0.124959
0.124762
0.124509
0.124188
0.123786
0.123293
0.122708
0.122039
0.121308
0.120553
0.119823
0.119172
0.118653
0.118303
0.118137
0.118142
0.118276
0.118473
0.118646
0.11869
0.118489
0.117908
0.116792
0.114957
0.11218
0.108191
0.102664
0.0951889
0.0853606
0.0724391
0.0565422
0.0347675
0.016366
0.168267
0.135503
0.114841
0.116617
0.121089
0.122057
0.12231
0.123091
0.123995
0.124714
0.125266
0.125722
0.126105
0.126413
0.126657
0.126853
0.12701
0.127116
0.127166
0.127175
0.127169
0.127169
0.127181
0.127199
0.127216
0.127226
0.127228
0.127223
0.127216
0.127203
0.127188
0.127175
0.127167
0.127162
0.12716
0.12716
0.127162
0.127162
0.127157
0.127146
0.127125
0.127091
0.127042
0.126973
0.126881
0.126761
0.126609
0.126418
0.126181
0.125889
0.125532
0.125099
0.124585
0.123989
0.123319
0.122595
0.121848
0.121118
0.120453
0.119895
0.119476
0.119209
0.119085
0.119069
0.119104
0.119113
0.119004
0.118668
0.117979
0.116788
0.114916
0.112145
0.108203
0.102765
0.0954144
0.0857451
0.0729791
0.0572806
0.0353263
0.0171452
0.174855
0.133499
0.112979
0.11685
0.121529
0.12246
0.122884
0.123793
0.12476
0.125536
0.126147
0.126659
0.127093
0.127451
0.127742
0.127983
0.12818
0.128324
0.128413
0.128459
0.128486
0.128514
0.128548
0.128584
0.128617
0.128641
0.128656
0.128663
0.128668
0.128661
0.12865
0.12864
0.128631
0.128622
0.128613
0.128603
0.128592
0.128576
0.128554
0.128522
0.128479
0.12842
0.128344
0.128246
0.128121
0.127967
0.127778
0.127549
0.127273
0.126943
0.12655
0.126087
0.125549
0.124936
0.124257
0.123529
0.122778
0.12204
0.121355
0.120761
0.120287
0.119945
0.119728
0.119608
0.119533
0.119435
0.119227
0.118808
0.118055
0.116825
0.114942
0.112187
0.108292
0.102931
0.0956849
0.0861493
0.0735131
0.0580026
0.0358953
0.017922
0.181449
0.13067
0.111271
0.117134
0.121868
0.122811
0.123406
0.124414
0.125429
0.12625
0.126909
0.127465
0.127939
0.128335
0.128663
0.128938
0.129166
0.129339
0.129455
0.129529
0.12958
0.129626
0.129674
0.129722
0.129764
0.129796
0.129816
0.12983
0.129833
0.129823
0.129811
0.129796
0.129778
0.129758
0.129736
0.12971
0.129681
0.129646
0.129602
0.129547
0.129479
0.129395
0.129291
0.129164
0.129009
0.128824
0.128604
0.128342
0.128034
0.127672
0.127251
0.126763
0.126205
0.125577
0.124888
0.124153
0.123396
0.122648
0.121946
0.121324
0.12081
0.120417
0.120139
0.119952
0.119808
0.119644
0.119378
0.118912
0.118127
0.116881
0.115
0.112269
0.108418
0.103123
0.0959641
0.0865405
0.074013
0.0586773
0.0364532
0.0186691
0.187958
0.127144
0.109786
0.117423
0.122113
0.123107
0.12385
0.124926
0.12597
0.126821
0.127512
0.128095
0.128594
0.129015
0.129366
0.129663
0.12991
0.130101
0.130235
0.130324
0.130389
0.130445
0.1305
0.130551
0.130595
0.130629
0.13065
0.13066
0.130654
0.130641
0.130622
0.130598
0.130569
0.130537
0.1305
0.130459
0.130412
0.130359
0.130296
0.130222
0.130134
0.130028
0.129903
0.129754
0.129578
0.12937
0.129127
0.128843
0.128513
0.12813
0.12769
0.127185
0.126614
0.125977
0.125281
0.12454
0.123777
0.123022
0.122307
0.121667
0.121127
0.120701
0.120385
0.120157
0.119974
0.119773
0.119476
0.118987
0.118188
0.116941
0.115071
0.112365
0.108555
0.103317
0.0962305
0.086901
0.0744651
0.0592883
0.0369857
0.0193717
0.194303
0.123081
0.108564
0.117676
0.122275
0.12333
0.124178
0.125287
0.126343
0.12721
0.127917
0.128516
0.129028
0.129461
0.129825
0.130133
0.13039
0.130589
0.130732
0.13083
0.130901
0.130961
0.131018
0.131069
0.131112
0.131144
0.131163
0.131165
0.131156
0.131138
0.131113
0.131081
0.131043
0.131001
0.130954
0.130902
0.130843
0.130778
0.130702
0.130615
0.130514
0.130395
0.130256
0.130094
0.129904
0.129683
0.129426
0.129129
0.128786
0.128392
0.127941
0.127428
0.12685
0.126208
0.125508
0.124764
0.123997
0.123237
0.122514
0.121862
0.121306
0.120861
0.120523
0.120273
0.120067
0.119848
0.119536
0.119038
0.118239
0.116998
0.115143
0.112462
0.108688
0.103499
0.0964737
0.0872236
0.0748658
0.0598299
0.0374846
0.0200251
0.200486
0.118747
0.107632
0.117869
0.122358
0.123462
0.124371
0.125493
0.126553
0.127427
0.128141
0.128746
0.129264
0.129704
0.130073
0.130387
0.130649
0.130852
0.130999
0.1311
0.131174
0.131236
0.131292
0.131343
0.131385
0.131415
0.131431
0.131432
0.13142
0.131398
0.131369
0.131332
0.131289
0.131241
0.131188
0.13113
0.131065
0.130992
0.13091
0.130816
0.130707
0.130582
0.130436
0.130267
0.13007
0.129842
0.129579
0.129276
0.128927
0.128528
0.128073
0.127556
0.126975
0.126331
0.125629
0.124884
0.124116
0.123352
0.122624
0.121965
0.1214
0.120943
0.120594
0.120332
0.120116
0.119888
0.119572
0.119074
0.118279
0.117048
0.11521
0.112553
0.108811
0.103665
0.096691
0.0875084
0.0752181
0.0603042
0.0379467
0.0206335
0.20665
0.114659
0.106997
0.117986
0.122376
0.12351
0.12445
0.125578
0.12664
0.127518
0.128236
0.128844
0.129365
0.129808
0.13018
0.130496
0.13076
0.130965
0.131114
0.131217
0.131292
0.131354
0.131411
0.131462
0.131503
0.131531
0.131546
0.131548
0.131534
0.131511
0.131479
0.13144
0.131395
0.131345
0.131289
0.131228
0.13116
0.131085
0.131
0.130903
0.130791
0.130663
0.130514
0.130342
0.130142
0.129912
0.129646
0.129341
0.128991
0.12859
0.128133
0.127616
0.127035
0.12639
0.125689
0.124943
0.124174
0.123409
0.122678
0.122015
0.121444
0.120982
0.120626
0.120358
0.120138
0.119908
0.119593
0.119099
0.118311
0.117092
0.115271
0.112636
0.108923
0.103815
0.0968869
0.0877629
0.0755329
0.0607244
0.0383781
0.0212161
0.212747
0.111453
0.106601
0.118035
0.122356
0.123504
0.124458
0.125593
0.126658
0.127538
0.128259
0.128869
0.129391
0.129835
0.130209
0.130526
0.130791
0.130997
0.131147
0.131251
0.131326
0.131389
0.131445
0.131496
0.131537
0.131565
0.13158
0.131582
0.131568
0.131544
0.131512
0.131473
0.131428
0.131377
0.13132
0.131258
0.13119
0.131114
0.131028
0.13093
0.130818
0.130688
0.130539
0.130366
0.130166
0.129936
0.12967
0.129364
0.129014
0.128614
0.128158
0.127641
0.12706
0.126417
0.125716
0.124971
0.124202
0.123435
0.122703
0.122037
0.121463
0.120997
0.120638
0.120368
0.120147
0.119918
0.119606
0.119117
0.118338
0.117132
0.115327
0.112715
0.10903
0.103956
0.0970706
0.0880003
0.0758269
0.0611128
0.0387904
0.021806
0.217474
0.109511
0.106376
0.118062
0.122333
0.12348
0.124442
0.125583
0.126651
0.127533
0.128254
0.128865
0.129389
0.129833
0.130207
0.130525
0.130791
0.130997
0.131146
0.131251
0.131326
0.131389
0.131446
0.131497
0.131539
0.131568
0.131583
0.131584
0.13157
0.131546
0.131514
0.131475
0.13143
0.131379
0.131323
0.131261
0.131192
0.131116
0.131031
0.130933
0.130821
0.130692
0.130543
0.13037
0.130171
0.12994
0.129675
0.12937
0.129021
0.128621
0.128166
0.12765
0.127071
0.126428
0.125729
0.124984
0.124215
0.123448
0.122715
0.122047
0.121471
0.121003
0.120642
0.120371
0.12015
0.119922
0.119614
0.119131
0.118361
0.117166
0.115377
0.112784
0.109124
0.104081
0.097233
0.0882099
0.0760851
0.0614556
0.0391492
0.0223677
)
;

boundaryField
{
    inlet
    {
        type            zeroGradient;
    }
    outlet
    {
        type            fixedValue;
        value           uniform 0;
    }
    fixedWalls
    {
        type            zeroGradient;
    }
    frontAndBack
    {
        type            empty;
    }
}


// ************************************************************************* //
