/*--------------------------------*- C++ -*----------------------------------*\
| =========                 |                                                 |
| \\      /  F ield         | OpenFOAM: The Open Source CFD Toolbox           |
|  \\    /   O peration     | Version:  v1912                                 |
|   \\  /    A nd           | Website:  www.openfoam.com                      |
|    \\/     M anipulation  |                                                 |
\*---------------------------------------------------------------------------*/
FoamFile
{
    version     2.0;
    format      ascii;
    class       surfaceScalarField;
    location    "575";
    object      phi;
}
// * * * * * * * * * * * * * * * * * * * * * * * * * * * * * * * * * * * * * //

dimensions      [0 3 -1 0 0 0 0];
oriented        oriented;


internalField   nonuniform List<scalar> 
3895
(
0.000814746
0.00038143
0.000499361
0.000315385
0.000251565
0.000247796
6.4863e-05
0.000186702
-6.21962e-05
0.000127059
-0.000127327
6.51304e-05
-0.000137638
1.03118e-05
-0.000113631
-2.40069e-05
-9.03514e-05
-2.328e-05
-8.4949e-05
-5.40245e-06
-6.6128e-05
-1.8821e-05
-4.47358e-05
-2.13922e-05
-4.04507e-05
-4.28505e-06
-4.86653e-05
8.21452e-06
-4.57467e-05
-2.91852e-06
-3.21467e-05
-1.36e-05
-2.52903e-05
-6.85634e-06
-2.61082e-05
8.17896e-07
-2.91337e-05
3.0255e-06
-3.06815e-05
1.54774e-06
-2.93921e-05
-1.28943e-06
-2.51428e-05
-4.24924e-06
-1.88552e-05
-6.28765e-06
-1.22766e-05
-6.57858e-06
-6.51297e-06
-5.76361e-06
-2.20177e-06
-4.3112e-06
5.65181e-07
-2.76695e-06
2.20433e-06
-1.63915e-06
3.29624e-06
-1.09191e-06
4.24231e-06
-9.46067e-07
5.16582e-06
-9.23508e-07
6.04049e-06
-8.7467e-07
6.8492e-06
-8.08708e-07
7.55433e-06
-7.0513e-07
8.09249e-06
-5.38158e-07
8.393e-06
-3.00518e-07
8.40398e-06
-1.09804e-08
8.03349e-06
3.70497e-07
7.28915e-06
7.44339e-07
6.12781e-06
1.16133e-06
4.46615e-06
1.66166e-06
2.19067e-06
2.27548e-06
-8.26768e-07
3.01744e-06
-4.71238e-06
3.88561e-06
-9.57975e-06
4.86737e-06
-1.55717e-05
5.99195e-06
-2.30062e-05
7.43455e-06
-3.2571e-05
9.56479e-06
-4.55734e-05
1.30024e-05
-6.41487e-05
1.85753e-05
-9.11895e-05
2.70408e-05
-0.000129729
3.85394e-05
-0.000182098
5.23695e-05
-0.00024923
6.71311e-05
-0.00032979
8.05602e-05
-0.000419365
8.9575e-05
-0.00051065
9.12853e-05
-0.000594765
8.41147e-05
-0.00066284
6.80755e-05
-0.000706137
4.32965e-05
-0.000713671
7.5345e-06
-0.000695928
-1.77436e-05
-0.000657229
-3.86983e-05
-0.000601154
-5.60752e-05
-0.000531605
-6.95489e-05
-0.000451624
-7.99812e-05
-0.000363191
-8.84326e-05
-0.00026784
-9.53511e-05
-0.000167166
-0.000100674
-6.28581e-05
-0.000104308
4.31202e-05
-0.000105978
0.000148796
-0.000105676
0.000252584
-0.000103788
0.000353116
-0.000100532
0.000449493
-9.63767e-05
0.000541628
-9.21348e-05
0.000629764
-8.81363e-05
0.000717027
-8.72634e-05
0.000803768
-8.67404e-05
-0.000107491
0.00108795
0.000349294
0.00104738
0.000355946
0.000933278
0.000361903
0.000775747
0.000344233
0.000598431
0.000304375
0.000410383
0.000253178
0.000221248
0.000199447
5.38766e-05
0.000143365
-6.04249e-05
9.10215e-05
-0.00011019
4.43622e-05
-0.000131887
2.87609e-06
-0.000123974
-2.93052e-05
-0.000105663
-2.25958e-05
-0.00010775
1.03017e-05
-0.000103307
-7.3619e-06
-9.06348e-05
-2.6272e-05
-7.66009e-05
-2.08902e-05
-7.86953e-05
2.9123e-06
-8.69635e-05
1.12936e-05
-9.24662e-05
7.05046e-06
-9.44242e-05
6.68569e-07
-9.07977e-05
-7.87575e-06
-8.46484e-05
-1.24369e-05
-7.7921e-05
-1.3306e-05
-7.13728e-05
-1.23118e-05
-6.57342e-05
-9.9498e-06
-6.16226e-05
-6.8786e-06
-5.94949e-05
-3.7668e-06
-5.92325e-05
-1.35436e-06
-6.03265e-05
1.47969e-07
-6.25822e-05
1.33217e-06
-6.53107e-05
1.85387e-06
-6.82029e-05
2.08349e-06
-7.11733e-05
2.26523e-06
-7.43577e-05
2.64629e-06
-7.79003e-05
3.24209e-06
-8.19213e-05
4.00997e-06
-8.64632e-05
4.91243e-06
-9.16424e-05
5.92349e-06
-9.751e-05
7.02901e-06
-0.000104079
8.23047e-06
-0.000111345
9.54133e-06
-0.000119294
1.09672e-05
-0.000127892
1.24833e-05
-0.000137057
1.40322e-05
-0.000146659
1.55934e-05
-0.000156581
1.73569e-05
-0.000166815
1.97992e-05
-0.000177479
2.36657e-05
-0.000188708
2.98051e-05
-0.000200721
3.9053e-05
-0.000213841
5.16596e-05
-0.000228108
6.66369e-05
-0.000242691
8.17143e-05
-0.000255429
9.32974e-05
-0.000262469
9.66157e-05
-0.000259013
8.78295e-05
-0.000240936
6.6037e-05
-0.000206964
3.41039e-05
-0.000166009
2.34168e-06
-0.000119422
-3.90526e-05
-6.7465e-05
-6.9701e-05
-1.29344e-05
-9.32289e-05
4.32153e-05
-0.000112225
0.000102583
-0.000128917
0.000166401
-0.000143799
0.000234589
-0.000156621
0.000306132
-0.000166894
0.000379509
-0.000174051
0.000452947
-0.000177746
0.000524907
-0.000177938
0.000594142
-0.000174911
0.000659574
-0.00016922
0.000720621
-0.000161579
0.000777116
-0.000152872
0.00082916
-0.000144179
0.000877613
-0.00013659
0.000922505
-0.000132155
0.000966552
-0.000130788
-0.000142081
0.000975282
0.000305926
0.00102604
0.000305187
0.00106097
0.000326974
0.00105862
0.000346584
0.00101217
0.00035082
0.000925048
0.000340304
0.000805752
0.000318743
0.000661765
0.000287352
0.000504929
0.000247858
0.000345846
0.000203445
0.00019017
0.000158552
4.70521e-05
0.000113813
-4.98583e-05
7.43146e-05
-8.60149e-05
4.64584e-05
-0.000105891
1.25137e-05
-0.000113877
-1.82855e-05
-0.000101849
-3.29185e-05
-9.1487e-05
-7.44942e-06
-9.89096e-05
1.87162e-05
-0.000108345
1.64859e-05
-0.000114832
7.1551e-06
-0.000119442
-3.26566e-06
-0.000121504
-1.03744e-05
-0.000120405
-1.44048e-05
-0.000118787
-1.393e-05
-0.00011854
-1.01966e-05
-0.000120263
-5.15637e-06
-0.000124112
8.31231e-08
-0.000128217
2.75057e-06
-0.000132756
4.68662e-06
-0.000137311
5.88729e-06
-0.000141923
6.46599e-06
-0.00014647
6.6299e-06
-0.000150856
6.65128e-06
-0.000155139
6.92926e-06
-0.000159478
7.58151e-06
-0.000163973
8.50494e-06
-0.000168611
9.55073e-06
-0.000173324
1.06357e-05
-0.00017803
1.17352e-05
-0.000182641
1.28415e-05
-0.000187061
1.39613e-05
-0.00019118
1.50861e-05
-0.00019481
1.61136e-05
-0.000197593
1.68151e-05
-0.000198863
1.68633e-05
-0.000197587
1.6081e-05
-0.000192749
1.49613e-05
-0.000183365
1.42818e-05
-0.000168362
1.4802e-05
-0.000146353
1.7044e-05
-0.000116606
2.19129e-05
-7.82845e-05
2.8315e-05
-3.07955e-05
3.42253e-05
2.55441e-05
3.69578e-05
8.81587e-05
3.40011e-05
0.000152519
2.34691e-05
0.000212374
6.18224e-06
0.000267101
-2.06232e-05
0.000319142
-4.96993e-05
0.000361593
-8.15033e-05
0.000402715
-0.000110824
0.000445996
-0.00013651
0.00049302
-0.000159248
0.000543313
-0.00017921
0.00059552
-0.000196005
0.000647937
-0.000209038
0.000698857
-0.000217814
0.000746866
-0.000222061
0.000790934
-0.000221814
0.000830427
-0.000217431
0.000865072
-0.000209556
0.000894896
-0.000199044
0.000920197
-0.00018688
0.000941449
-0.000174124
0.000959157
-0.000161887
0.000973924
-0.000151356
0.000985624
-0.000143855
0.000995322
-0.000140487
-0.000144914
0.000857109
0.000271374
0.000897355
0.000264941
0.000950164
0.000274165
0.00100471
0.000292042
0.00104637
0.000309153
0.00106531
0.000321372
0.00105664
0.000327411
0.00101794
0.000326054
0.000949553
0.000316241
0.000855081
0.000297917
0.000740896
0.000272737
0.000611934
0.000242775
0.000476495
0.000209754
0.000348323
0.00017463
0.000223528
0.000137309
0.000102237
0.000103005
-1.59879e-07
6.94785e-05
-5.1668e-05
4.40587e-05
-6.29322e-05
2.99805e-05
-6.48008e-05
1.83544e-05
-6.71429e-05
9.49722e-06
-7.30294e-05
2.62091e-06
-8.04599e-05
-2.94397e-06
-8.89392e-05
-5.92549e-06
-9.62436e-05
-6.62557e-06
-0.000101707
-4.73312e-06
-0.000106645
-2.18495e-07
-0.000112013
5.45093e-06
-0.00011761
8.34824e-06
-0.000122773
9.84905e-06
-0.000127167
1.02813e-05
-0.000130721
1.00202e-05
-0.000133502
9.41057e-06
-0.000135338
8.48764e-06
-0.000136555
8.14586e-06
-0.000137243
8.26928e-06
-0.000137454
8.71647e-06
-0.000136904
9.00103e-06
-0.000135438
9.16903e-06
-0.000132935
9.23287e-06
-0.000129259
9.1648e-06
-0.000124247
8.94972e-06
-0.000117765
8.60379e-06
-0.000109634
7.98246e-06
-9.96045e-05
6.78601e-06
-8.74566e-05
4.71545e-06
-7.22787e-05
9.03136e-07
-5.41336e-05
-3.18376e-06
-3.19335e-05
-7.91826e-06
-4.15785e-06
-1.29737e-05
3.0479e-05
-1.75929e-05
7.39621e-05
-2.15701e-05
0.00012708
-2.48033e-05
0.000189188
-2.78822e-05
0.000258192
-3.20466e-05
0.000331091
-3.88978e-05
0.000404511
-4.99511e-05
0.000476839
-6.61449e-05
0.000543755
-8.75397e-05
0.000605968
-0.000111912
0.000661995
-0.00013753
0.000713532
-0.000162361
0.000761901
-0.000184879
0.000807024
-0.000204371
0.000848149
-0.000220336
0.000884407
-0.000232263
0.000915102
-0.000239733
0.000939843
-0.000242554
0.000958606
-0.000240824
0.00097171
-0.000234918
0.000979741
-0.000225461
0.000983445
-0.000213261
0.000983638
-0.000199237
0.00098111
-0.000184352
0.000976555
-0.000169568
0.000970484
-0.000155817
0.000963195
-0.000144067
0.000954523
-0.000135182
0.000944323
-0.000130288
-0.00013036
0.000759397
0.000238011
0.000790536
0.000233802
0.000828351
0.000236349
0.000874985
0.000245408
0.000927002
0.000257137
0.000978871
0.000269503
0.00102441
0.000281869
0.00105755
0.000292917
0.00107319
0.000300602
0.00106786
0.000303244
0.00104042
0.000300178
0.000991566
0.000291628
0.000923242
0.000278078
0.000838862
0.00025901
0.000741528
0.000234643
0.000636638
0.000207895
0.000532152
0.000173964
0.0004339
0.000142311
0.000348938
0.000114943
0.000276016
9.12766e-05
0.000213723
7.17897e-05
0.000160397
5.59468e-05
0.000114092
4.33615e-05
7.44803e-05
3.36862e-05
4.16533e-05
2.62014e-05
1.65296e-05
2.03905e-05
2.93292e-07
1.60178e-05
-7.29838e-06
1.30426e-05
-9.50978e-06
1.05596e-05
-8.27236e-06
8.61164e-06
-4.95606e-06
6.96499e-06
-4.07638e-07
5.47179e-06
4.96472e-06
4.03821e-06
1.0833e-05
2.6194e-06
1.72046e-05
1.77426e-06
2.47454e-05
7.28493e-07
3.39654e-05
-5.03619e-07
4.4809e-05
-1.84254e-06
5.7578e-05
-3.59995e-06
7.25374e-05
-5.72654e-06
8.99619e-05
-8.25971e-06
0.000110142
-1.12302e-05
0.000133406
-1.46608e-05
0.00016
-1.86107e-05
0.000189976
-2.31904e-05
0.000223224
-2.85325e-05
0.000258823
-3.46961e-05
0.000297038
-4.13984e-05
0.000337588
-4.84681e-05
0.000380286
-5.56719e-05
0.000425347
-6.26535e-05
0.000472967
-6.91903e-05
0.000523504
-7.53405e-05
0.000577113
-8.14915e-05
0.000633452
-8.83855e-05
0.000691515
-9.69611e-05
0.000749641
-0.000108077
0.000805662
-0.000122166
0.000857163
-0.000139041
0.000902976
-0.000157725
0.000942328
-0.000176883
0.000975072
-0.000195105
0.0010013
-0.000211109
0.00102096
-0.000224026
0.00103395
-0.000233333
0.0010404
-0.000238712
0.00104069
-0.000240022
0.00103548
-0.000237342
0.00102564
-0.000230984
0.00101217
-0.000221453
0.000996118
-0.000209405
0.000978439
-0.000195582
0.00095997
-0.000180768
0.000941355
-0.000165737
0.000923023
-0.000151236
0.000905167
-0.00013796
0.00088772
-0.00012662
0.000870308
-0.00011777
0.00085229
-0.00011227
-0.000110247
0.000672433
0.000206414
0.000702275
0.000203961
0.000733372
0.000205252
0.000767839
0.00021094
0.000806614
0.000218362
0.000850036
0.000226081
0.000897301
0.000234604
0.000946031
0.000244187
0.000992641
0.000253992
0.00103305
0.000262833
0.00106349
0.000269742
0.00108117
0.000273947
0.00108444
0.000274804
0.00107207
0.000271379
0.0010437
0.000263015
0.00100104
0.000250562
0.000949038
0.000225962
0.000891663
0.000199685
0.000831907
0.000174698
0.000772163
0.000151021
0.000714629
0.000129324
0.000660591
0.000109985
0.000610853
9.30995e-05
0.000566004
7.85351e-05
0.000526247
6.59587e-05
0.000491561
5.50764e-05
0.000461921
4.56582e-05
0.000437544
3.74201e-05
0.000418086
3.00168e-05
0.000403328
2.33703e-05
0.000392948
1.73444e-05
0.000386602
1.18178e-05
0.000384011
6.6298e-06
0.000385362
1.26774e-06
0.000390343
-3.2065e-06
0.000398982
-7.91088e-06
0.000411148
-1.26691e-05
0.000426745
-1.74399e-05
0.000445505
-2.23601e-05
0.000467241
-2.74625e-05
0.000491744
-3.27622e-05
0.000518796
-3.82821e-05
0.000548181
-4.40455e-05
0.000579653
-5.0083e-05
0.000612895
-5.64328e-05
0.000647482
-6.31191e-05
0.0006829
-7.01141e-05
0.00071878
-7.72781e-05
0.000754739
-8.44271e-05
0.000790439
-9.13725e-05
0.000825715
-9.79296e-05
0.000860532
-0.000104007
0.000894893
-0.000109702
0.000928732
-0.00011533
0.000961752
-0.000121406
0.000993326
-0.000128535
0.00102249
-0.000137236
0.00104806
-0.000147739
0.00106888
-0.00015986
0.00108409
-0.000172941
0.00109321
-0.000185997
0.00109607
-0.00019797
0.00109288
-0.000207919
0.00108403
-0.000215174
0.00107006
-0.000219363
0.00105168
-0.000220329
0.00102974
-0.000218087
0.00100522
-0.000212817
0.000979082
-0.000204848
0.000952261
-0.000194632
0.000925559
-0.000182703
0.000899614
-0.000169637
0.000874872
-0.000156027
0.000851586
-0.00014245
0.000829818
-0.000129468
0.000809451
-0.000117593
0.000790188
-0.000107358
0.000771514
-9.90955e-05
0.000752789
-9.35451e-05
-9.02523e-05
0.000594386
0.000177665
0.00062317
0.000175177
0.000652323
0.000176099
0.000682115
0.000181149
0.000712924
0.000187552
0.000745613
0.000193392
0.000781181
0.000199036
0.000820193
0.000205175
0.000862411
0.000211774
0.000906707
0.000218538
0.000951215
0.000225234
0.000993659
0.000231503
0.00103171
0.000236752
0.00106298
0.000240111
0.0010853
0.000240695
0.00109753
0.000238333
0.00109977
0.000223722
0.00109369
0.000205764
0.00108083
0.000187558
0.00106268
0.00016917
0.00104093
0.000151077
0.00101712
0.000133793
0.000992594
0.000117625
0.000968443
0.000102686
0.000945452
8.89498e-05
0.000924199
7.63292e-05
0.000905135
6.47214e-05
0.000888583
5.39726e-05
0.000874678
4.39215e-05
0.000863562
3.44866e-05
0.000855311
2.55958e-05
0.000849966
1.7162e-05
0.000847516
9.07994e-06
0.000847385
1.39864e-06
0.000850306
-6.12667e-06
0.000855734
-1.33391e-05
0.000863502
-2.04369e-05
0.000873464
-2.74018e-05
0.000885363
-3.42598e-05
0.000898942
-4.10416e-05
0.000913941
-4.77613e-05
0.000930088
-5.44287e-05
0.000947097
-6.10547e-05
0.000964665
-6.76511e-05
0.000982459
-7.42269e-05
0.00100012
-8.07761e-05
0.00101726
-8.72573e-05
0.00103356
-9.35749e-05
0.00104873
-9.96006e-05
0.00106257
-0.000105216
0.00107498
-0.000110339
0.00108594
-0.000114967
0.00109547
-0.000119224
0.00110352
-0.000123381
0.00110993
-0.000127825
0.00111437
-0.000132974
0.0011163
-0.000139167
0.0011151
-0.00014653
0.00111013
-0.000154897
0.00110098
-0.000163791
0.0010875
-0.000172511
0.00106983
-0.000180304
0.00104841
-0.000186499
0.00102384
-0.000190607
0.000996834
-0.000192352
0.000968135
-0.00019163
0.000938521
-0.000188473
0.000908729
-0.000183026
0.000879418
-0.000175536
0.000851121
-0.000166335
0.000824232
-0.000155814
0.000798995
-0.000144401
0.000775518
-0.000132549
0.000753779
-0.000120712
0.000733651
-0.00010934
0.000714898
-9.88403e-05
0.000697188
-8.96477e-05
0.000680019
-8.19263e-05
0.000662921
-7.64473e-05
-7.20366e-05
0.000525111
0.000151816
0.000551936
0.000148352
0.000579146
0.000148889
0.000606467
0.000153827
0.000634006
0.000160013
0.000661953
0.000165445
0.000690628
0.000170361
0.000720605
0.000175198
0.000752535
0.000179845
0.000786873
0.000184199
0.000823722
0.000188385
0.00086273
0.000192495
0.00090308
0.000196402
0.000943486
0.000199705
0.000982308
0.000201872
0.00101803
0.000202614
0.00104832
0.000193428
0.00107278
0.000181309
0.00109162
0.000168719
0.00110524
0.00015555
0.00111427
0.00014204
0.00111951
0.000128556
0.00112176
0.000115375
0.00112179
0.000102653
0.00112029
9.04536e-05
0.00111783
7.87837e-05
0.00111493
6.76264e-05
0.00111196
5.69384e-05
0.00110922
4.66628e-05
0.00110694
3.67666e-05
0.00110531
2.7233e-05
0.00110443
1.80377e-05
0.00110434
9.16861e-06
0.00110497
7.73656e-07
0.00110641
-7.56927e-06
0.00110848
-1.54124e-05
0.00111107
-2.30217e-05
0.00111406
-3.03971e-05
0.00111734
-3.75338e-05
0.00112074
-4.44446e-05
0.00112412
-5.1138e-05
0.0011273
-5.76173e-05
0.00113014
-6.38864e-05
0.00113243
-6.99498e-05
0.00113402
-7.58091e-05
0.0011347
-8.14545e-05
0.00113429
-8.68547e-05
0.00113267
-9.1951e-05
0.00112974
-9.66698e-05
0.00112547
-0.000100951
0.00111991
-0.000104773
0.00111312
-0.000108178
0.00110519
-0.000111296
0.00109616
-0.000114354
0.00108598
-0.000117643
0.00107447
-0.000121465
0.00106135
-0.00012605
0.0010463
-0.000131474
0.00102901
-0.000137607
0.00100932
-0.000144106
0.000987285
-0.000150473
0.000963136
-0.000156155
0.000937283
-0.000160646
0.000910234
-0.000163558
0.000882523
-0.000164642
0.000854674
-0.00016378
0.000827162
-0.000160961
0.000800396
-0.000156259
0.000774694
-0.000149835
0.000750279
-0.00014192
0.000727276
-0.000132811
0.000705728
-0.000122853
0.000685606
-0.000112426
0.000666822
-0.000101927
0.000649237
-9.1756e-05
0.000632658
-8.22605e-05
0.000616828
-7.38179e-05
0.000601355
-6.6453e-05
0.00058591
-6.10029e-05
-5.55472e-05
0.00046394
0.000128551
0.000488639
0.000123652
0.00051348
0.000124049
0.000538159
0.000129148
0.000563122
0.00013505
0.000588445
0.000140122
0.00061397
0.000144836
0.000639764
0.000149404
0.000666083
0.000153525
0.000693245
0.000157036
0.00072161
0.00016002
0.00075152
0.000162586
0.00078317
0.000164752
0.000816473
0.000166402
0.000850998
0.000167348
0.000886111
0.000167502
0.000919681
0.000159858
0.000950824
0.000150166
0.000979168
0.000140374
0.00100445
0.00013027
0.00102659
0.000119899
0.0010457
0.00010945
0.00106199
9.90844e-05
0.00107574
8.88979e-05
0.00108726
7.89318e-05
0.00109685
6.91993e-05
0.00110477
5.97018e-05
0.00111128
5.04298e-05
0.00111658
4.13671e-05
0.00112083
3.25106e-05
0.00112419
2.3873e-05
0.00112676
1.5469e-05
0.00112861
7.31736e-06
0.00112982
-4.29212e-07
0.00113032
-8.06959e-06
0.00113017
-1.52697e-05
0.00112936
-2.22073e-05
0.00112785
-2.88919e-05
0.00112564
-3.53162e-05
0.00112267
-4.14818e-05
0.00111893
-4.73927e-05
0.00111436
-5.30514e-05
0.00110894
-5.84605e-05
0.00110261
-6.36235e-05
0.00109534
-6.85418e-05
0.0010871
-7.32093e-05
0.00107785
-7.76072e-05
0.0010676
-8.17028e-05
0.00105639
-8.54575e-05
0.00104428
-8.88461e-05
0.00103139
-9.18758e-05
0.00101781
-9.46025e-05
0.00100366
-9.71446e-05
0.000988989
-9.96829e-05
0.000973786
-0.000102439
0.000957955
-0.000105634
0.000941337
-0.000109432
0.000923744
-0.000113881
0.000905018
-0.000118881
0.000885088
-0.000124176
0.000864006
-0.00012939
0.000841943
-0.000134092
0.000819168
-0.000137871
0.000795996
-0.000140386
0.000772748
-0.000141393
0.000749717
-0.00014075
0.000727156
-0.000138399
0.00070526
-0.000134364
0.000684173
-0.000128747
0.00066398
-0.000121728
0.000644724
-0.000113555
0.000626407
-0.000104537
0.000609008
-9.50272e-05
0.000592481
-8.54001e-05
0.000576756
-7.6031e-05
0.000561729
-6.72339e-05
0.000547243
-5.9331e-05
0.000533031
-5.22419e-05
0.000518813
-4.67845e-05
-4.04772e-05
0.000410014
0.000107501
0.000432754
0.000100912
0.000455183
0.00010162
0.000477152
0.000107179
0.000499455
0.000112747
0.000522203
0.000117374
0.000545203
0.000121836
0.00056844
0.000126167
0.00059194
0.000130026
0.000615686
0.00013329
0.000639722
0.000135984
0.000664189
0.000138119
0.00068928
0.000139661
0.000715152
0.00014053
0.000741864
0.000140636
0.000769387
0.000139978
0.000796433
0.000132812
0.00082252
0.000124079
0.000847426
0.000115468
0.000870884
0.000106812
0.000892678
9.81048e-05
0.000912683
8.94447e-05
0.000930848
8.09192e-05
0.000947177
7.25688e-05
0.000961708
6.44004e-05
0.000974502
5.64059e-05
0.000985629
4.85743e-05
0.000995166
4.08929e-05
0.00100318
3.33497e-05
0.00100975
2.59448e-05
0.00101493
1.86929e-05
0.00101878
1.16159e-05
0.00102136
4.74243e-06
0.00102279
-1.86164e-06
0.00102302
-8.3021e-06
0.00102221
-1.44543e-05
0.00102036
-2.03596e-05
0.00101751
-2.60406e-05
0.00101369
-3.14953e-05
0.00100893
-3.67213e-05
0.00100325
-4.17206e-05
0.000996699
-4.64963e-05
0.00098929
-5.1051e-05
0.000981054
-5.53876e-05
0.000972019
-5.9507e-05
0.000962215
-6.34052e-05
0.000951678
-6.70702e-05
0.000940457
-7.04822e-05
0.00092862
-7.36202e-05
0.000916249
-7.64749e-05
0.000903436
-7.9063e-05
0.000890273
-8.14391e-05
0.000876832
-8.37036e-05
0.000863149
-8.60005e-05
0.000849211
-8.85009e-05
0.000834948
-9.13717e-05
0.000820251
-9.47338e-05
0.000804991
-9.8621e-05
0.000789061
-0.000102951
0.000772406
-0.000107521
0.000755045
-0.000112029
0.000737073
-0.00011612
0.000718641
-0.000119439
0.00069993
-0.000121675
0.000681124
-0.000122587
0.000662388
-0.000122014
0.000643861
-0.000119872
0.000625653
-0.000116155
0.000607845
-0.000110939
0.000590497
-0.00010438
0.000573652
-9.67103e-05
0.000557346
-8.82303e-05
0.000541605
-7.92863e-05
0.00052645
-7.02449e-05
0.000511884
-6.14654e-05
0.000497887
-5.32364e-05
0.000484373
-4.58169e-05
0.00047119
-3.90594e-05
0.000458022
-3.36166e-05
-2.67753e-05
0.000362528
8.82933e-05
0.000383496
7.99438e-05
0.000403597
8.15192e-05
0.000423064
8.77117e-05
0.00044288
9.2931e-05
0.000463078
9.71768e-05
0.000483524
0.00010139
0.000504297
0.000105394
0.00052542
0.000108903
0.000546805
0.000111904
0.000568366
0.000114423
0.000590058
0.000116427
0.000611865
0.000117853
0.000633784
0.000118611
0.000655814
0.000118606
0.000677971
0.000117822
0.000699346
0.000111436
0.000719749
0.000103676
0.000739188
9.60295e-05
0.0007576
8.83997e-05
0.000774907
8.07977e-05
0.000791048
7.33043e-05
0.000805978
6.59886e-05
0.00081967
5.8877e-05
0.000832105
5.19657e-05
0.000843272
4.52383e-05
0.000853171
3.86757e-05
0.000861804
3.22596e-05
0.000869179
2.59745e-05
0.000875309
1.98149e-05
0.000880213
1.37891e-05
0.000883917
7.9118e-06
0.000886465
2.19483e-06
0.000887926
-3.32324e-06
0.00088832
-8.69637e-06
0.000887735
-1.38687e-05
0.000886209
-1.88341e-05
0.000883779
-2.36105e-05
0.000880485
-2.82015e-05
0.000876369
-3.26052e-05
0.000871471
-3.68225e-05
0.000865831
-4.08558e-05
0.000859487
-4.47071e-05
0.000852477
-4.83779e-05
0.000844838
-5.18676e-05
0.000836604
-5.51719e-05
0.000827816
-5.82813e-05
0.000818515
-6.11819e-05
0.000808756
-6.38608e-05
0.000798597
-6.63157e-05
0.0007881
-6.85659e-05
0.000777322
-7.06612e-05
0.000766305
-7.26871e-05
0.000755066
-7.47617e-05
0.000743588
-7.70227e-05
0.000731818
-7.96017e-05
0.000719677
-8.25927e-05
0.000707075
-8.6019e-05
0.000693934
-8.98099e-05
0.000680207
-9.37946e-05
0.000665895
-9.77172e-05
0.000651045
-0.00010127
0.00063574
-0.000104134
0.000620085
-0.00010602
0.000604186
-0.000106689
0.000588145
-0.000105973
0.000572051
-0.000103778
0.000555984
-0.000100089
0.000540021
-9.49767e-05
0.000524239
-8.85974e-05
0.000508716
-8.11873e-05
0.000493535
-7.30495e-05
0.00047878
-6.45309e-05
0.000464527
-5.59919e-05
0.000450834
-4.77722e-05
0.000437733
-4.01356e-05
0.000425182
-3.32657e-05
0.000413113
-2.6991e-05
0.000401135
-2.16381e-05
-1.46406e-05
0.000320758
7.05686e-05
0.000340087
6.06147e-05
0.000357962
6.3644e-05
0.000375206
7.04678e-05
0.000392819
7.53175e-05
0.00041069
7.93064e-05
0.000428757
8.3323e-05
0.000447162
8.6989e-05
0.000465939
9.01261e-05
0.000485023
9.28201e-05
0.000504346
9.50993e-05
0.000523846
9.69274e-05
0.000543446
9.82536e-05
0.000563056
9.9001e-05
0.000582581
9.90814e-05
0.000601944
9.84584e-05
0.0006203
9.30803e-05
0.000637491
8.64849e-05
0.000653583
7.9938e-05
0.0006686
7.33822e-05
0.000682557
6.68406e-05
0.000695471
6.03908e-05
0.00070736
5.40997e-05
0.00071824
4.79965e-05
0.000728125
4.20809e-05
0.000737023
3.63398e-05
0.000744943
3.07562e-05
0.000751889
2.53132e-05
0.000757869
1.9995e-05
0.000762889
1.47947e-05
0.000766961
9.71667e-06
0.000770102
4.77154e-06
0.000772345
-4.8366e-08
0.000773722
-4.70073e-06
0.000774257
-9.23063e-06
0.000773988
-1.36004e-05
0.000772953
-1.77991e-05
0.00077118
-2.1837e-05
0.000768698
-2.572e-05
0.000765541
-2.94475e-05
0.000761738
-3.30197e-05
0.00075732
-3.64381e-05
0.000752317
-3.97041e-05
0.000746757
-4.28178e-05
0.000740667
-4.57776e-05
0.000734074
-4.85788e-05
0.000727006
-5.1213e-05
0.000719494
-5.36697e-05
0.000711573
-5.59405e-05
0.000703284
-5.80266e-05
0.000694666
-5.9948e-05
0.000685755
-6.17502e-05
0.000676576
-6.35076e-05
0.000667135
-6.53206e-05
0.000657416
-6.73038e-05
0.000647379
-6.95653e-05
0.000636967
-7.21801e-05
0.000626111
-7.5163e-05
0.000614749
-7.84485e-05
0.000602839
-8.18847e-05
0.000590366
-8.52436e-05
0.000577343
-8.82473e-05
0.000563812
-9.06029e-05
0.000549829
-9.20367e-05
0.000535461
-9.23214e-05
0.000520783
-9.12946e-05
0.000505875
-8.88698e-05
0.00049083
-8.50435e-05
0.000475752
-7.9899e-05
0.00046076
-7.36058e-05
0.000445984
-6.64109e-05
0.000431555
-5.86206e-05
0.0004176
-5.05758e-05
0.000404228
-4.26202e-05
0.000391519
-3.50632e-05
0.000379524
-2.81398e-05
0.000368208
-2.19498e-05
0.00035756
-1.63438e-05
0.000347108
-1.11854e-05
-4.39888e-06
0.000284047
5.3995e-05
0.000301804
4.28575e-05
0.000317587
4.78611e-05
0.000332893
5.51619e-05
0.000348559
5.96514e-05
0.000364356
6.35096e-05
0.00038032
6.73583e-05
0.000396611
7.06986e-05
0.000413236
7.35006e-05
0.000430146
7.59104e-05
0.000447302
7.79433e-05
0.000464664
7.95657e-05
0.000482171
8.07464e-05
0.00049974
8.14314e-05
0.000517271
8.15507e-05
0.000534661
8.10682e-05
0.000551104
7.66375e-05
0.000566421
7.11683e-05
0.000580651
6.57077e-05
0.00059382
6.02135e-05
0.000605951
5.4709e-05
0.000617078
4.92635e-05
0.000627239
4.39393e-05
0.000636469
3.87662e-05
0.000644802
3.3748e-05
0.000652266
2.88758e-05
0.000658885
2.41373e-05
0.000664679
1.95192e-05
0.000669666
1.50078e-05
0.000673863
1.05981e-05
0.000677285
6.29444e-06
0.000679954
2.10301e-06
0.000681882
-1.97675e-06
0.000683102
-5.9208e-06
0.000683622
-9.75055e-06
0.00068347
-1.34483e-05
0.000682673
-1.70027e-05
0.000681255
-2.0419e-05
0.000679238
-2.37029e-05
0.000676646
-2.68552e-05
0.000673502
-2.98757e-05
0.000669829
-3.27653e-05
0.00066565
-3.55245e-05
0.000660984
-3.81528e-05
0.000655854
-4.06474e-05
0.000650279
-4.30034e-05
0.000644279
-4.52127e-05
0.000637875
-4.72662e-05
0.000631092
-4.91576e-05
0.000623955
-5.08894e-05
0.000616488
-5.24808e-05
0.000608711
-5.3973e-05
0.000600635
-5.54316e-05
0.000592258
-5.69438e-05
0.000583561
-5.86072e-05
0.000574508
-6.05126e-05
0.000565049
-6.27204e-05
0.000555123
-6.52377e-05
0.000544675
-6.80003e-05
0.000533658
-7.08676e-05
0.000522045
-7.36306e-05
0.000509832
-7.60345e-05
0.00049704
-7.78103e-05
0.00048371
-7.8707e-05
0.000469908
-7.85191e-05
0.00045572
-7.71062e-05
0.000441255
-7.44051e-05
0.000426647
-7.04355e-05
0.000412049
-6.53013e-05
0.000397629
-5.91858e-05
0.000383557
-5.23387e-05
0.000369994
-4.50573e-05
0.000357078
-3.76605e-05
0.000344918
-3.04604e-05
0.000333579
-2.37241e-05
0.000323096
-1.76561e-05
0.000313416
-1.22705e-05
0.000304565
-7.49259e-06
0.000296011
-2.63092e-06
3.66597e-06
0.000251798
3.82832e-05
0.000267991
2.66645e-05
0.000281861
3.39914e-05
0.000295501
4.15218e-05
0.000309433
4.57198e-05
0.00032339
4.95521e-05
0.000337519
5.32297e-05
0.00035196
5.62577e-05
0.000366692
5.87687e-05
0.00038167
6.09324e-05
0.000396868
6.27451e-05
0.000412256
6.41779e-05
0.000427786
6.52154e-05
0.000443398
6.582e-05
0.000459011
6.59378e-05
0.000474539
6.55399e-05
0.000489254
6.1923e-05
0.000502979
5.74433e-05
0.000515737
5.29496e-05
0.000527541
4.84094e-05
0.000538406
4.38437e-05
0.000548357
3.93132e-05
0.000557422
3.48734e-05
0.000565637
3.05522e-05
0.00057303
2.63542e-05
0.000579633
2.2273e-05
0.000585471
1.82994e-05
0.000590567
1.44229e-05
0.000594944
1.06311e-05
0.000598621
6.92133e-06
0.000601615
3.2996e-06
0.000603948
-2.29055e-07
0.000605633
-3.66236e-06
0.000606698
-6.98531e-06
0.000607153
-1.02062e-05
0.000607022
-1.3317e-05
0.000606327
-1.63075e-05
0.000605088
-1.91797e-05
0.000603323
-2.19382e-05
0.000601052
-2.4584e-05
0.000598293
-2.71166e-05
0.000595063
-2.95357e-05
0.000591379
-3.18406e-05
0.000587255
-3.40293e-05
0.000582706
-3.60978e-05
0.000577742
-3.80398e-05
0.000572377
-3.98468e-05
0.00056662
-4.15097e-05
0.000560485
-4.30226e-05
0.000553984
-4.43881e-05
0.000547127
-4.56241e-05
0.000539922
-4.67682e-05
0.00053237
-4.78795e-05
0.000524461
-4.90352e-05
0.000516175
-5.03206e-05
0.000507476
-5.18135e-05
0.000498318
-5.35628e-05
0.00048865
-5.55692e-05
0.000478419
-5.77696e-05
0.000467584
-6.00329e-05
0.000456121
-6.21678e-05
0.000444031
-6.39443e-05
0.000431343
-6.51221e-05
0.000418117
-6.54814e-05
0.000404447
-6.4849e-05
0.000390457
-6.3116e-05
0.0003763
-6.02484e-05
0.000362154
-5.62895e-05
0.000348211
-5.13577e-05
0.000334662
-4.56376e-05
0.000321691
-3.9367e-05
0.00030945
-3.28169e-05
0.000298059
-2.6269e-05
0.000287591
-1.99928e-05
0.000278074
-1.42065e-05
0.000269506
-9.08873e-06
0.000261806
-4.57008e-06
0.000255022
-7.08688e-07
0.000248616
3.77505e-06
9.44757e-06
0.000223468
2.31975e-05
0.000238065
1.2068e-05
0.000250245
2.18104e-05
0.00026246
2.93075e-05
0.000274839
3.33406e-05
0.000287177
3.72143e-05
0.000299706
4.07e-05
0.00031253
4.34338e-05
0.000325606
4.56932e-05
0.000338896
4.76421e-05
0.00035238
4.92609e-05
0.000366029
5.05289e-05
0.000379802
5.14429e-05
0.000393646
5.19762e-05
0.000407497
5.20862e-05
0.000421286
5.17513e-05
0.000434366
4.88432e-05
0.000446579
4.52296e-05
0.000457946
4.15831e-05
0.000468476
3.78792e-05
0.000478181
3.41385e-05
0.000487079
3.04157e-05
0.000495191
2.67609e-05
0.000502544
2.31997e-05
0.000509161
1.97368e-05
0.000515067
1.63667e-05
0.000520284
1.30825e-05
0.000524832
9.87564e-06
0.00052873
6.73296e-06
0.000531996
3.65511e-06
0.000534648
6.47642e-07
0.000536705
-2.28614e-06
0.000538184
-5.14119e-06
0.000539104
-7.90578e-06
0.00053948
-1.05815e-05
0.000539326
-1.31632e-05
0.00053866
-1.5642e-05
0.000537498
-1.80171e-05
0.000535851
-2.02913e-05
0.000533732
-2.24652e-05
0.000531152
-2.45372e-05
0.000528122
-2.65054e-05
0.000524649
-2.83678e-05
0.000520741
-3.0121e-05
0.000516403
-3.17597e-05
0.00051164
-3.32767e-05
0.000506456
-3.46632e-05
0.000500857
-3.59106e-05
0.000494849
-3.7014e-05
0.000488438
-3.79771e-05
0.000481631
-3.88176e-05
0.000474434
-3.95713e-05
0.000466848
-4.0293e-05
0.000458865
-4.10525e-05
0.00045047
-4.19256e-05
0.000441636
-4.29793e-05
0.000432327
-4.42539e-05
0.000422503
-4.57451e-05
0.000412126
-4.73925e-05
0.000401169
-4.9076e-05
0.000389626
-5.06248e-05
0.000377519
-5.18369e-05
0.000364902
-5.25056e-05
0.000351868
-5.24469e-05
0.000338541
-5.15227e-05
0.000325081
-4.96557e-05
0.000311669
-4.68362e-05
0.000298501
-4.3122e-05
0.000285777
-3.86331e-05
0.000273681
-3.35416e-05
0.000262372
-2.80588e-05
0.000251974
-2.24182e-05
0.000242561
-1.68563e-05
0.000234165
-1.1597e-05
0.000226769
-6.80973e-06
0.000220337
-2.65706e-06
0.000214755
1.01139e-06
0.000210087
3.95984e-06
0.000205868
7.99383e-06
1.30291e-05
0.00019856
8.56662e-06
0.000211521
-8.92933e-07
0.000222268
1.1064e-05
0.00023325