/*--------------------------------*- C++ -*----------------------------------*\
| =========                 |                                                 |
| \\      /  F ield         | OpenFOAM: The Open Source CFD Toolbox           |
|  \\    /   O peration     | Version:  v1912                                 |
|   \\  /    A nd           | Website:  www.openfoam.com                      |
|    \\/     M anipulation  |                                                 |
\*---------------------------------------------------------------------------*/
FoamFile
{
    version     2.0;
    format      ascii;
    class       volVectorField;
    location    "575";
    object      U;
}
// * * * * * * * * * * * * * * * * * * * * * * * * * * * * * * * * * * * * * //

dimensions      [0 1 -1 0 0 0 0];


internalField   nonuniform List<vector> 
2000
(
(0.84616 0.187394 0)
(0.515133 0.124089 0)
(0.223448 0.0684415 0)
(0.0598068 0.0174443 6.19508e-20)
(-0.00455619 -0.0232231 1.20669e-17)
(-0.0642034 -0.0384874 1.04221e-17)
(-0.0776008 -0.0372475 0)
(-0.0715947 -0.0166594 0)
(-0.0590603 0.0117119 0)
(-0.0421581 0.0254666 2.36666e-17)
(-0.0415852 0.0109762 -1.44995e-17)
(-0.0273659 -0.000621908 -1.36178e-17)
(-0.016309 -0.00266294 0)
(-0.0200659 -0.002637 0)
(-0.0219112 -0.00226038 -1.08182e-17)
(-0.0168952 0.000879673 0)
(-0.0106243 0.00352949 9.73818e-18)
(-0.00969602 0.0062486 3.10091e-21)
(-0.0107057 0.00613251 9.41355e-18)
(-0.0114698 0.00489406 -4.64623e-18)
(-0.0113319 0.00279172 9.18582e-18)
(-0.0101435 0.000817741 0)
(-0.00800541 -0.00018431 0)
(-0.00549665 -0.000616291 -6.86268e-23)
(-0.00320913 -0.000785409 0)
(-0.00138286 -0.000809571 -4.51621e-18)
(-0.000154186 -0.000755437 0)
(0.000552896 -0.000686042 4.5265e-18)
(0.000963642 -0.00068109 0)
(0.00126653 -0.000690678 0)
(0.00155362 -0.000613916 0)
(0.00183956 -0.000498573 1.14945e-18)
(0.00210883 -0.000405573 0)
(0.00235232 -0.000364734 -5.83383e-19)
(0.00255508 -0.0003609 1.94701e-14)
(0.00269638 -0.000373008 1.94566e-14)
(0.00276878 -0.000404291 6.01659e-19)
(0.00271606 -0.000494996 -6.09165e-19)
(0.00253807 -0.000636093 0)
(0.00223397 -0.000794364 2.50589e-18)
(0.00178314 -0.000944613 0)
(0.00114965 -0.0010725 -2.58835e-18)
(0.000289076 -0.00116461 0)
(-0.00085713 -0.00120548 -5.35767e-18)
(-0.00234009 -0.00121741 2.72177e-18)
(-0.00419901 -0.00129011 0)
(-0.00651897 -0.00147153 0)
(-0.00945501 -0.00167335 -2.8549e-18)
(-0.0133248 -0.00158752 0)
(-0.0187374 -0.000623937 2.93142e-18)
(-0.0266665 0.0019144 0)
(-0.0383919 0.00632277 5.90962e-18)
(-0.0552985 0.0120549 -5.85944e-18)
(-0.0785241 0.0177126 5.73907e-18)
(-0.108413 0.0214155 -2.74165e-18)
(-0.144068 0.021329 0)
(-0.183409 0.0162459 2.33258e-18)
(-0.223524 0.00600313 -2.07696e-18)
(-0.260678 -0.00837837 -4.086e-18)
(-0.290042 -0.0246919 3.31106e-18)
(-0.306744 -0.039711 -3.26561e-18)
(-0.30924 -0.0502177 3.49107e-18)
(-0.302861 -0.056251 -3.98047e-18)
(-0.28789 -0.0591619 4.78338e-18)
(-0.265428 -0.0599895 -1.13216e-20)
(-0.236321 -0.0594716 7.16627e-18)
(-0.200985 -0.0578149 0)
(-0.159586 -0.0550095 0)
(-0.112381 -0.0510435 7.60955e-20)
(-0.0601028 -0.0459553 0)
(-0.0040152 -0.0396797 1.98832e-17)
(0.0556763 -0.0318764 0)
(0.119258 -0.022396 1.98811e-17)
(0.186233 -0.0113945 -4.88212e-19)
(0.255855 0.00088441 1.71657e-17)
(0.32943 0.0141371 2.98651e-17)
(0.403461 0.0279867 7.34675e-19)
(0.491134 0.0419773 -1.01494e-17)
(0.557084 0.0544524 -6.53137e-18)
(0.713688 0.0651842 0)
(1.0153 0.210384 0)
(0.944633 0.194211 0)
(0.804475 0.179983 -3.52851e-18)
(0.654422 0.152313 7.28735e-18)
(0.509224 0.111169 0)
(0.360042 0.0683704 -7.28804e-18)
(0.216493 0.0293252 0)
(0.0821325 -0.00530917 0)
(-0.0282884 -0.018039 0)
(-0.0562038 -0.0189134 -1.73075e-17)
(-0.0667333 -0.0249909 1.57452e-17)
(-0.0718877 -0.0159857 1.44423e-17)
(-0.0637657 0.00639376 0)
(-0.0508708 0.0207232 6.32247e-18)
(-0.0544863 0.0100026 0)
(-0.0482626 -0.0029217 0)
(-0.0375706 -0.00400833 0)
(-0.0328527 -0.00108485 5.27003e-18)
(-0.0366313 0.000898794 -1.03365e-17)
(-0.0388185 0.000898479 -5.09148e-18)
(-0.0395147 7.34866e-05 0)
(-0.0384225 -0.0011167 0)
(-0.0357068 -0.00233696 0)
(-0.0324654 -0.00292875 -7.41367e-18)
(-0.0293101 -0.00273583 0)
(-0.0265053 -0.00194487 4.95115e-18)
(-0.0242941 -0.000888586 2.48301e-18)
(-0.022844 -1.09429e-05 0)
(-0.0222216 0.000361788 0)
(-0.0222914 0.00039632 0)
(-0.0228738 0.000222877 0)
(-0.0237388 3.49795e-05 -6.32666e-19)
(-0.0247138 -0.000120889 0)
(-0.0257386 -0.000213967 3.2023e-19)
(-0.0268333 -0.000207044 1.61328e-19)
(-0.0280645 -8.21113e-05 0)
(-0.0294752 0.000144755 0)
(-0.0310906 0.000443536 6.62787e-19)
(-0.032975 0.000796433 0)
(-0.0351483 0.00120217 -1.35269e-18)
(-0.0376285 0.00166862 0)
(-0.0404245 0.00220861 -1.38267e-18)
(-0.043546 0.00283026 0)
(-0.0470002 0.00352523 1.41323e-18)
(-0.0507795 0.00427788 1.43072e-18)
(-0.0548571 0.00512211 0)
(-0.0592042 0.00623758 0)
(-0.063813 0.00799369 -2.96932e-18)
(-0.0686702 0.0109059 0)
(-0.0737377 0.0155729 1.36627e-20)
(-0.0790308 0.0225271 0)
(-0.0847428 0.0319006 0)
(-0.091231 0.042989 0)
(-0.0988151 0.0541445 0)
(-0.107233 0.0630471 6.03029e-18)
(-0.114966 0.0672601 0)
(-0.119598 0.0648068 -5.49049e-18)
(-0.119192 0.0547864 2.65713e-18)
(-0.112314 0.0381592 -2.31646e-18)
(-0.0951011 0.0177342 -4.89058e-18)
(-0.0632945 -0.00471772 5.03676e-18)
(-0.0451427 -0.0306151 -5.55394e-18)
(-0.0199449 -0.0512295 6.49813e-18)
(0.00792767 -0.0658793 0)
(0.0388075 -0.0761715 -1.2935e-17)
(0.0731945 -0.0835789 -9.65028e-18)
(0.111869 -0.0888298 0)
(0.155028 -0.0919236 5.7321e-18)
(0.202315 -0.0925576 1.25461e-17)
(0.25315 -0.0905111 0)
(0.306876 -0.0856827 0)
(0.362908 -0.0780443 0)
(0.420768 -0.0677317 0)
(0.48019 -0.0550794 -1.36129e-17)
(0.54092 -0.0406257 5.93445e-18)
(0.603812 -0.0250382 -1.17675e-17)
(0.667284 -0.00925797 1.01604e-17)
(0.739117 0.00567652 -3.4677e-18)
(0.796073 0.0173174 0)
(0.911793 0.0228444 0)
(0.978489 0.201538 0)
(0.978854 0.193006 -2.78527e-18)
(0.969154 0.205111 3.48098e-18)
(0.939083 0.208532 -3.06002e-18)
(0.878034 0.194606 2.88462e-18)
(0.785605 0.168719 2.84266e-18)
(0.669349 0.13808 0)
(0.541012 0.106021 0)
(0.40822 0.0750635 0)
(0.285943 0.045935 6.86533e-18)
(0.173881 0.0180222 0)
(0.0721793 -0.00640425 0)
(-0.0214809 -0.0141577 0)
(-0.0469307 -0.00386836 -7.18312e-18)
(-0.0508479 -0.0116863 0)
(-0.0587021 -0.0181585 -6.05006e-18)
(-0.0592943 -0.0112629 0)
(-0.0480942 0.00905083 5.87526e-18)
(-0.0464366 0.0164803 2.87246e-18)
(-0.0508576 0.0125905 0)
(-0.0532056 0.00616049 -2.78955e-18)
(-0.0549841 -0.000273333 0)
(-0.0555925 -0.00467634 0)
(-0.054687 -0.00651219 5.43582e-18)
(-0.0531354 -0.00659425 0)
(-0.051961 -0.00572113 1.35813e-18)
(-0.0517705 -0.00421981 -4.07706e-18)
(-0.0525767 -0.00223066 0)
(-0.0539463 -0.000217554 0)
(-0.0554323 0.00124792 -6.81497e-19)
(-0.0570446 0.0021985 0)
(-0.0587657 0.00272126 1.2853e-22)
(-0.0605174 0.00295947 0)
(-0.0622537 0.00307563 6.90637e-19)
(-0.0639791 0.00323185 8.6873e-20)
(-0.0657653 0.00348429 0)
(-0.0676702 0.00382262 1.76328e-19)
(-0.0697097 0.00421358 -3.55615e-19)
(-0.0718688 0.00465238 -3.58842e-19)
(-0.0741188 0.0051426 -7.24696e-19)
(-0.076425 0.0056914 7.32299e-19)
(-0.078752 0.0063077 7.39664e-19)
(-0.0810737 0.00699214 0)
(-0.0833562 0.00772193 1.51671e-18)
(-0.085495 0.00846206 -3.0761e-18)
(-0.0872329 0.00922689 0)
(-0.0881535 0.0101806 -1.59057e-18)
(-0.0877744 0.0116952 3.24315e-18)
(-0.085559 0.0142642 0)
(-0.0808502 0.0184658 -1.69657e-18)
(-0.0729381 0.0247957 1.77898e-18)
(-0.061305 0.0335121 -1.84571e-18)
(-0.0455864 0.0437363 -1.91458e-18)
(-0.0257519 0.0539284 0)
(-0.00201974 0.061876 -3.9441e-18)
(0.0256547 0.0650628 -1.88739e-18)
(0.0571669 0.0612107 1.63828e-18)
(0.0906865 0.0494656 1.5343e-18)
(0.124668 0.0288508 2.57361e-18)
(0.156521 0.00213417 0)
(0.186671 -0.0241932 0)
(0.214348 -0.0461421 0)
(0.242489 -0.0643745 -1.31486e-18)
(0.274056 -0.0800171 0)
(0.310012 -0.0936321 3.22101e-18)
(0.349822 -0.105197 0)
(0.392552 -0.114369 -1.98672e-18)
(0.437323 -0.120681 -4.46022e-18)
(0.483336 -0.123703 0)
(0.529915 -0.123182 -2.47304e-18)
(0.576574 -0.119106 2.5773e-18)
(0.623049 -0.111732 0)
(0.669283 -0.101573 0)
(0.715463 -0.08932 0)
(0.761828 -0.075812 -5.40868e-18)
(0.809255 -0.0619715 0)
(0.857039 -0.0489874 -1.885e-18)
(0.910126 -0.0379682 3.36945e-18)
(0.953018 -0.0312987 0)
(1.03535 -0.0303456 3.93303e-19)
(0.970611 0.209117 0)
(0.963917 0.194765 1.52482e-18)
(0.96643 0.198514 0)
(0.977152 0.206407 1.69412e-18)
(0.982034 0.208884 -3.00349e-18)
(0.968293 0.204266 -1.34069e-18)
(0.930748 0.193726 0)
(0.870757 0.177878 0)
(0.791131 0.156581 0)
(0.695412 0.131331 1.35067e-18)
(0.589481 0.10541 1.38243e-18)
(0.480051 0.0807 0)
(0.369266 0.0579967 0)
(0.266647 0.037606 0)
(0.179646 0.0185392 0)
(0.100386 0.00267262 6.3991e-18)
(0.0300459 -0.00993304 -3.38638e-18)
(-0.0310657 -0.00938475 0)
(-0.0328494 0.000997788 -3.28188e-18)
(-0.0347301 0.00244801 1.61799e-18)
(-0.0346708 0.00135123 3.21016e-18)
(-0.0359218 -0.00130431 0)
(-0.0391165 -0.00398135 0)
(-0.0434783 -0.0052378 -3.11943e-18)
(-0.0471681 -0.00435607 0)
(-0.049441 -0.00165441 -1.54364e-18)
(-0.0511053 0.00174162 1.54324e-18)
(-0.0536117 0.00425781 0)
(-0.0557536 0.00543194 0)
(-0.0580131 0.00598303 7.6682e-19)
(-0.0599744 0.00605658 0)
(-0.0616206 0.00579091 -7.69794e-19)
(-0.0629018 0.00534953 0)
(-0.0637999 0.0049015 -1.9472e-19)
(-0.0644404 0.00468193 -9.80882e-20)
(-0.0649098 0.00477698 -2.47428e-20)
(-0.06522 0.00514155 -2.99848e-19)
(-0.0652693 0.00570961 4.04207e-19)
(-0.0649796 0.00637532 4.09272e-19)
(-0.0642818 0.00707971 1.24525e-18)
(-0.0630931 0.00780459 -4.21257e-19)
(-0.0613293 0.0085403 4.28554e-19)
(-0.0589347 0.00926156 0)
(-0.0558639 0.00989128 8.92781e-19)
(-0.0520087 0.0102442 9.13455e-19)
(-0.0470697 0.0100057 0)
(-0.0406125 0.0088025 1.93511e-18)
(-0.032665 0.00659119 9.99486e-19)
(-0.0225099 0.00404586 0)
(-0.00993382 0.00180187 -3.26017e-18)
(0.00652502 0.000433945 -2.23118e-18)
(0.0279147 0.00054272 1.10726e-18)
(0.0541562 0.00197029 2.16804e-18)
(0.0858378 0.00385528 0)
(0.122975 0.00468444 9.81635e-19)
(0.164721 0.00266946 2.68546e-18)
(0.20978 -0.00374606 1.58883e-18)
(0.256064 -0.0150802 -1.39332e-18)
(0.30304 -0.0302077 -6.441e-19)
(0.348942 -0.0475348 0)
(0.393263 -0.0662759 0)
(0.436013 -0.0851357 0)
(0.478064 -0.10305 1.71751e-18)
(0.520229 -0.119397 6.47037e-19)
(0.562456 -0.133704 0)
(0.604091 -0.145435 -1.56599e-18)
(0.644421 -0.154028 1.74076e-18)
(0.682941 -0.159036 -1.87429e-18)
(0.719392 -0.160232 -2.02163e-18)
(0.753753 -0.157646 1.26678e-19)
(0.786232 -0.151571 -2.41925e-18)
(0.817246 -0.142526 0)
(0.84735 -0.1312 0)
(0.877219 -0.118382 0)
(0.907461 -0.104934 0)
(0.938992 -0.0917396 0)
(0.971478 -0.079853 3.67716e-18)
(1.00826 -0.0701212 -1.34564e-18)
(1.03848 -0.0644756 0)
(1.09569 -0.0627319 -4.24063e-19)
(0.972988 0.216082 0)
(0.965831 0.201808 1.87054e-18)
(0.959206 0.1956 2.49205e-19)
(0.961489 0.195546 1.90702e-18)
(0.972668 0.197536 0)
(0.985519 0.199235 -1.60728e-18)
(0.992497 0.199295 0)
(0.988452 0.196253 -3.62494e-19)
(0.970218 0.189033 0)
(0.935631 0.177562 -1.60558e-18)
(0.884731 0.162749 -1.24281e-18)
(0.819619 0.145667 -3.15398e-19)
(0.743326 0.126729 3.13086e-19)
(0.65809 0.106111 0)
(0.569159 0.0852833 3.13143e-19)
(0.479342 0.0662429 0)
(0.393492 0.0502675 2.65401e-18)
(0.314101 0.036341 -3.51279e-19)
(0.247072 0.0242757 0)
(0.192392 0.0147267 -1.89928e-18)
(0.147767 0.0079246 0)
(0.110698 0.00340916 0)
(0.0798625 0.000820182 0)
(0.053969 -0.000623146 0)
(0.0324514 -0.00159673 -2.21672e-19)
(0.0156741 -0.00204573 0)
(0.0027888 -0.00140461 0)
(-0.0026389 0.000678541 1.15593e-19)
(-0.0051163 0.00210639 0)
(-0.0051483 0.00310834 0)
(-0.00381238 0.00368396 0)
(-0.00155462 0.00394961 -5.87387e-20)
(0.00102849 0.00402157 0)
(0.00447617 0.00381941 -2.67829e-19)
(0.0074882 0.00429757 0)
(0.0111545 0.0051248 3.01051e-20)
(0.0155503 0.00560349 1.51303e-19)
(0.0208678 0.00552923 3.03819e-20)
(0.0272882 0.0051815 -6.09806e-20)
(0.0348797 0.00466139 -4.89225e-19)
(0.0438103 0.00394758 -4.89885e-19)
(0.0542944 0.00301869 4.89812e-19)
(0.0665255 0.00185826 -1.22212e-19)
(0.0806994 0.000431781 -9.73511e-19)
(0.0970238 -0.00132622 9.67133e-19)
(0.115482 -0.00349138 -1.19905e-19)
(0.136301 -0.00617398 0)
(0.158991 -0.00944314 -9.39306e-19)
(0.183591 -0.013267 0)
(0.21025 -0.0174958 9.18065e-19)
(0.238994 -0.0217812 0)
(0.270016 -0.0259776 8.95478e-19)
(0.30362 -0.0300409 0)
(0.340153 -0.0341668 -2.11779e-19)
(0.379832 -0.0388562 -8.04993e-19)
(0.422537 -0.0448383 -7.47345e-19)
(0.467679 -0.052867 1.73737e-19)
(0.514201 -0.0634851 0)
(0.560698 -0.0770004 5.44893e-19)
(0.605751 -0.0928852 -1.37572e-19)
(0.648508 -0.110158 0)
(0.688573 -0.127473 1.37327e-19)
(0.72583 -0.143589 -5.3522e-19)
(0.760216 -0.15766 -5.90647e-19)
(0.791551 -0.169118 0)
(0.819616 -0.177516 1.4785e-18)
(0.844325 -0.182517 0)
(0.865845 -0.183968 1.83244e-18)
(0.884584 -0.181933 2.01003e-18)
(0.901151 -0.176689 2.1745e-18)
(0.916293 -0.168693 2.70691e-19)
(0.930833 -0.15854 0)
(0.945596 -0.146909 0)
(0.961376 -0.134523 0)
(0.97879 -0.122122 -2.69603e-19)
(0.998589 -0.110436 0)
(1.0204 -0.100274 -1.67492e-18)
(1.04672 -0.0922854 1.6495e-18)
(1.06871 -0.0876981 1.03972e-19)
(1.11231 -0.0864354 4.50832e-20)
(0.974194 0.218514 -1.23224e-18)
(0.970935 0.206364 1.19266e-18)
(0.965119 0.198172 -2.81997e-19)
(0.961139 0.194112 0)
(0.962197 0.191942 0)
(0.96826 0.190544 0)
(0.977772 0.189885 0)
(0.988502 0.189481 1.25227e-18)
(0.997432 0.188308 0)
(1.00093 0.185358 -1.11958e-18)
(0.995773 0.179955 -1.39563e-18)
(0.979839 0.171904 3.19988e-19)
(0.952675 0.161433 9.66741e-19)
(0.914337 0.148645 0)
(0.865648 0.133741 -1.47542e-18)
(0.808252 0.117844 0)
(0.746071 0.10247 -1.17949e-18)
(0.683648 0.0879741 2.95007e-19)
(0.62284 0.0743857 -1.23403e-18)
(0.565753 0.0621125 -9.50281e-19)
(0.513201 0.0513536 0)
(0.46554 0.0420955 0)
(0.422943 0.0342189 -6.83083e-19)
(0.385366 0.0276164 0)
(0.352671 0.0221532 -5.42379e-19)
(0.324648 0.0176515 0)
(0.300892 0.0138441 0)
(0.281177 0.0104663 -9.5596e-20)
(0.265363 0.00755641 0)
(0.253111 0.00511966 0)
(0.244077 0.00308629 0)
(0.237983 0.00137344 5.05225e-20)
(0.234513 -9.98216e-05 2.04768e-19)
(0.233697 -0.00132655 1.29005e-19)
(0.235301 -0.002761 0)
(0.239443 -0.00438503 0)
(0.246029 -0.00606822 -2.59509e-20)
(0.254922 -0.00783752 -1.30014e-19)
(0.26611 -0.00977178 5.16678e-20)
(0.279505 -0.0119262 0)
(0.295007 -0.0143404 0)
(0.312541 -0.0170472 -2.04134e-19)
(0.332038 -0.0200765 1.00523e-19)
(0.353429 -0.0234679 -4.01113e-19)
(0.376623 -0.0272759 3.96923e-19)
(0.401481 -0.0315615 9.7105e-20)
(0.427809 -0.0363563 0)
(0.455366 -0.041565 3.84484e-19)
(0.483967 -0.047047 0)
(0.513466 -0.0526476 0)
(0.543754 -0.0581984 0)
(0.57481 -0.0635868 0)
(0.606702 -0.0688296 0)
(0.639515 -0.0741404 1.77943e-19)
(0.673244 -0.0799434 0)
(0.707686 -0.0867989 6.69876e-19)
(0.742362 -0.0952523 -1.52735e-19)
(0.776518 -0.105643 0)
(0.809229 -0.117919 5.81046e-19)
(0.839581 -0.1315 1.28044e-19)
(0.866858 -0.145489 5.67868e-19)
(0.890611 -0.158904 -1.32572e-19)
(0.910645 -0.170871 0)
(0.926985 -0.180749 -6.62722e-19)
(0.939807 -0.188107 0)
(0.949412 -0.192673 0)
(0.956257 -0.194314 -8.5332e-19)
(0.960964 -0.193057 0)
(0.964297 -0.189095 0)
(0.967089 -0.182764 -1.06312e-18)
(0.970182 -0.17451 -2.95463e-19)
(0.97437 -0.164854 0)
(0.98035 -0.154355 0)
(0.988718 -0.143588 0)
(0.999861 -0.133123 3.01232e-19)
(1.01426 -0.123514 -1.02982e-18)
(1.03138 -0.115344 -2.40043e-19)
(1.05327 -0.109088 -1.88482e-19)
(1.07181 -0.105469 -1.17755e-19)
(1.1102 -0.104588 -2.40592e-19)
(0.974501 0.21901 4.35428e-18)
(0.973757 0.208036 -4.18101e-18)
(0.971714 0.200425 0)
(0.969159 0.196211 -2.53667e-18)
(0.967053 0.192937 0)
(0.966166 0.189312 -2.23671e-18)
(0.967419 0.185818 0)
(0.971669 0.183008 2.9786e-18)
(0.978978 0.18073 -3.69833e-18)
(0.988283 0.178484 1.68866e-18)
(0.99769 0.175773 1.57873e-18)
(1.00497 0.17215 0)
(1.00811 0.167265 -4.27046e-18)
(1.00544 0.160698 -2.72001e-18)
(0.995587 0.152109 3.82315e-18)
(0.977795 0.141796 0)
(0.953046 0.130624 1.17104e-18)
(0.923755 0.119346 0)
(0.891696 0.108145 1.16753e-18)
(0.858161 0.0970035 1.16724e-18)
(0.824187 0.0861303 0)
(0.790766 0.0758032 0)
(0.758777 0.0662267 -6.39263e-19)
(0.728893 0.0575064 0)
(0.701558 0.0496253 6.20833e-19)
(0.677005 0.0424988 0)
(0.655355 0.0360322 0)
(0.63664 0.0301387 0)
(0.620889 0.0247286 0)
(0.608043 0.0197178 0)
(0.598024 0.0150266 0)
(0.590766 0.0105841 0)
(0.586193 0.00631818 1.76967e-19)
(0.584183 0.00216515 -8.58634e-20)
(0.584511 -0.00201845 4.39633e-20)
(0.587271 -0.00626795 0)
(0.592362 -0.0105605 0)
(0.599585 -0.0148972 8.61707e-20)
(0.608788 -0.0193222 -3.51838e-19)
(0.619834 -0.0238744 3.51439e-19)
(0.632574 -0.0285766 0)
(0.646854 -0.0334453 8.71688e-19)
(0.662519 -0.0384973 -6.99348e-19)
(0.679405 -0.0437513 -3.57856e-19)
(0.697332 -0.0492265 -3.39107e-19)
(0.716098 -0.0549311 0)
(0.735479 -0.060842 0)
(0.755243 -0.0668831 -1.03352e-18)
(0.775185 -0.0729531 0)
(0.795146 -0.0789474 0)
(0.815022 -0.0847728 0)
(0.834776 -0.0903884 7.0318e-19)
(0.854425 -0.0958586 1.40455e-18)
(0.87399 -0.101379 0)
(0.893425 -0.107261 0)
(0.912553 -0.113869 -6.48798e-19)
(0.931014 -0.121514 0)
(0.948282 -0.130329 1.294e-18)
(0.963731 -0.140184 6.8669e-19)
(0.976753 -0.150665 0)
(0.986896 -0.161162 7.00209e-19)
(0.993954 -0.171002 1.336e-18)
(0.997987 -0.179558 1.40714e-18)
(0.999292 -0.186342 7.14465e-19)
(0.998325 -0.191037 -1.61634e-18)
(0.995652 -0.193479 1.74645e-18)
(0.991914 -0.193636 2.83171e-18)
(0.987812 -0.191594 0)
(0.984069 -0.187549 0)
(0.981378 -0.181792 1.19462e-18)
(0.980362 -0.17468 0)
(0.981554 -0.166614 2.49768e-18)
(0.985373 -0.158024 2.53044e-18)
(0.992157 -0.149352 0)
(1.00207 -0.141045 2.40084e-18)
(1.0154 -0.133531 -1.04034e-18)
(1.03152 -0.127252 0)
(1.05232 -0.122553 0)
(1.06996 -0.119882 0)
(1.10682 -0.119422 -1.9294e-19)
(0.974733 0.218938 -3.35425e-18)
(0.975458 0.208201 3.21099e-18)
(0.976056 0.201058 -6.23622e-18)
(0.975936 0.197366 2.86898e-18)
(0.974875 0.19446 0)
(0.9732 0.190785 2.52965e-18)
(0.971487 0.186584 -4.84247e-18)
(0.970473 0.182339 -4.48964e-18)
(0.970994 0.178129 -7.92492e-20)
(0.973704 0.17395 0)
(0.978806 0.169868 0)
(0.985964 0.165856 3.59614e-18)
(0.994363 0.161684 3.29137e-18)
(1.00283 0.156939 -3.27722e-18)
(1.00995 0.151227 -8.89698e-18)
(1.01427 0.14445 0)
(1.01489 0.136907 0)
(1.01186 0.1289 0)
(1.00564 0.12042 0)
(0.996716 0.111448 0)
(0.985583 0.102191 0)
(0.97287 0.0929269 0)
(0.959261 0.0838657 1.23998e-18)
(0.945386 0.0751224 -2.58634e-18)
(0.931769 0.0667314 0)
(0.918816 0.0586932 0)
(0.906846 0.0510004 0)
(0.8961 0.0436239 0)
(0.886746 0.0365043 0)
(0.878884 0.0295981 -6.62207e-19)
(0.872579 0.022877 0)
(0.86787 0.0163106 0)
(0.864761 0.00986245 1.26047e-20)
(0.863197 0.00346781 0)
(0.863079 -0.00274474 -4.10115e-20)
(0.864356 -0.00883174 0)
(0.866934 -0.014874 1.70647e-19)
(0.870686 -0.0208972 0)
(0.875493 -0.0269137 6.72251e-19)
(0.881248 -0.0329357 -3.30531e-19)
(0.887832 -0.0389711 -6.88809e-19)
(0.89512 -0.045025 -6.65179e-19)
(0.902982 -0.0511016 6.67786e-19)
(0.911284 -0.0572051 6.70791e-19)
(0.919884 -0.0633367 1.40227e-18)
(0.928633 -0.0694873 1.41102e-18)
(0.937377 -0.0756282 0)
(0.945974 -0.0817045 -7.43765e-19)
(0.95431 -0.0876447 0)
(0.962318 -0.0933803 0)
(0.96998 -0.0988654 -1.47822e-18)
(0.977324 -0.104104 -7.21996e-19)
(0.984408 -0.109176 4.81242e-20)
(0.991275 -0.114247 0)
(0.997913 -0.119554 0)
(1.0042 -0.12535 0)
(1.00991 -0.131841 1.49266e-18)
(1.01468 -0.139105 -1.39982e-18)
(1.01812 -0.147041 -1.38998e-18)
(1.01987 -0.155358 0)
(1.01974 -0.163614 -1.42946e-18)
(1.01772 -0.171311 9.46611e-20)
(1.014 -0.177984 -1.57727e-18)
(1.00897 -0.18327 1.75804e-18)
(1.0031 -0.186939 -4.74356e-20)
(0.99692 -0.188876 -1.97889e-18)
(0.990977 -0.189063 -2.14215e-18)
(0.985801 -0.187564 0)
(0.981887 -0.184515 0)
(0.979673 -0.180121 0)
(0.979526 -0.174643 0)
(0.981742 -0.168389 -2.83451e-18)
(0.986548 -0.161699 -2.86985e-18)
(0.994136 -0.154941 0)
(1.00458 -0.148493 -2.72065e-18)
(1.01813 -0.142721 4.90424e-18)
(1.03418 -0.137983 0)
(1.05459 -0.134522 0)
(1.07184 -0.13266 0)
(1.10767 -0.132414 9.12888e-19)
(0.975035 0.218502 8.33948e-18)
(0.977127 0.207476 0)
(0.979623 0.200808 1.42738e-17)
(0.980942 0.19772 0)
(0.980747 0.195178 6.21302e-18)
(0.979837 0.19182 0)
(0.978655 0.187904 5.47227e-18)
(0.977181 0.183661 0)
(0.975604 0.178993 -5.03602e-18)
(0.974439 0.173897 0)
(0.97427 0.168549 8.87984e-18)
(0.975577 0.163111 -4.11059e-18)
(0.978659 0.15762 0)
(0.983536 0.151977 7.30667e-18)
(0.989865 0.146032 -1.87032e-19)
(0.99699 0.139702 -6.68113e-18)
(1.00405 0.133125 6.47532e-18)
(1.01036 0.126389 0)
(1.01554 0.119352 0)
(1.01936 0.11192 6.08573e-18)
(1.02166 0.10416 0)
(1.02251 0.0962125 -2.96065e-18)
(1.02211 0.0881941 0)
(1.02072 0.0801806 2.80421e-18)
(1.01864 0.0722161 0)
(1.01612 0.0643292 2.89619e-18)
(1.01338 0.0565364 0)
(1.01061 0.0488367 0)
(1.00799 0.0412197 1.44715e-18)
(1.00561 0.0336851 6.9555e-19)
(1.00357 0.0262395 0)
(1.00194 0.0188845 0)
(1.00074 0.01162 -1.08709e-18)
(0.999996 0.00444621 0)
(0.999672 -0.00254501 0)
(0.999732 -0.00940694 0)
(1.00016 -0.0161986 -1.77927e-19)
(1.00091 -0.0229275 0)
(1.00193 -0.0295843 -1.1051e-18)
(1.00318 -0.0361656 -7.50373e-19)
(1.00459 -0.0426707 7.24619e-19)
(1.00612 -0.0490982 0)
(1.0077 -0.0554462 0)
(1.00927 -0.0617127 1.54378e-18)
(1.01077 -0.0678932 -1.49832e-18)
(1.01215 -0.0739771 -1.51456e-18)
(1.01333 -0.0799421 0)
(1.01429 -0.0857523 -5.82316e-20)
(1.01501 -0.0913651 1.63301e-18)
(1.0155 -0.0967461 0)
(1.01581 -0.101886 1.62463e-18)
(1.01603 -0.106815 1.70003e-18)
(1.01625 -0.111618 -1.66623e-18)
(1.01651 -0.116437 0)
(1.01685 -0.121455 0)
(1.01718 -0.126859 0)
(1.01735 -0.132792 -1.6802e-18)
(1.01712 -0.139302 0)
(1.01625 -0.146308 0)
(1.01453 -0.15359 0)
(1.01185 -0.160823 3.66303e-18)
(1.00825 -0.167636 -1.80487e-18)
(1.00392 -0.173679 0)
(0.999145 -0.178663 -2.00512e-18)
(0.994291 -0.182386 -2.22696e-18)
(0.989733 -0.184726 4.62021e-18)
(0.985835 -0.18563 -4.89426e-18)
(0.982935 -0.18511 -5.17438e-18)
(0.981335 -0.183246 0)
(0.981294 -0.180178 -5.69439e-18)
(0.983032 -0.17611 0)
(0.986738 -0.171302 0)
(0.992578 -0.166059 0)
(1.00072 -0.16072 5.98366e-18)
(1.01128 -0.155638 -5.73049e-18)
(1.02453 -0.151147 -7.99088e-18)
(1.03999 -0.147554 0)
(1.05952 -0.145024 3.60432e-18)
(1.07603 -0.143772 0)
(1.1103 -0.1436 -1.50281e-18)
(0.975434 0.21769 -9.45953e-18)
(0.979143 0.20609 -9.20808e-18)
(0.983423 0.200245 -1.64396e-17)
(0.98558 0.197996 0)
(0.985486 0.195678 -1.41269e-17)
(0.984786 0.192413 -6.72991e-18)
(0.9842 0.188725 0)
(0.983452 0.184719 1.19944e-17)
(0.982353 0.180193 1.11968e-17)
(0.981033 0.175095 0)
(0.979702 0.169516 -1.00425e-17)
(0.978603 0.163552 0)
(0.97805 0.157269 0)
(0.978376 0.15069 8.70782e-18)
(0.979803 0.143819 8.07073e-18)
(0.982395 0.136689 -1.8232e-19)
(0.986005 0.129511 1.84347e-19)
(0.990361 0.122439 0)
(0.995171 0.115374 0)
(1.00009 0.108197 -6.97337e-18)
(1.00479 0.100885 -7.06424e-18)
(1.00904 0.0934762 1.03535e-17)
(1.01274 0.0860156 3.45087e-18)
(1.01587 0.0785337 3.42265e-18)
(1.01847 0.0710482 0)
(1.02057 0.0635689 -3.27158e-18)
(1.02224 0.0561008 0)
(1.02352 0.0486446 0)
(1.02447 0.0412005 -3.30538e-18)
(1.02514 0.0337752 0)
(1.02555 0.0263808 0)
(1.02574 0.0190305 0)
(1.02574 0.0117395 8.20028e-19)
(1.02558 0.00454031 -4.27564e-19)
(1.0253 -0.00255076 2.13634e-19)
(1.02491 -0.00953375 0)
(1.02443 -0.0164208 0)
(1.02388 -0.0232123 0)
(1.02324 -0.0299009 8.33795e-19)
(1.02253 -0.0364823 8.38787e-19)
(1.02172 -0.0429552 -1.75022e-18)
(1.02083 -0.0493182 0)
(1.01984 -0.0555697 0)
(1.01875 -0.0617083 -3.53193e-18)
(1.01757 -0.0677312 -1.81471e-18)
(1.01628 -0.0736315 0)
(1.01489 -0.0793961 0)
(1.01342 -0.0850046 1.82413e-18)
(1.01188 -0.0904353 5.65931e-20)
(1.01034 -0.0956751 0)
(1.00887 -0.100732 0)
(1.00753 -0.105643 -1.93372e-18)
(1.00642 -0.110486 0)
(1.00557 -0.115375 0)
(1.00501 -0.12045 0)
(1.00466 -0.125852 0)
(1.00441 -0.131684 0)
(1.00408 -0.137979 -4.16367e-18)
(1.0035 -0.144672 0)
(1.00249 -0.151597 0)
(1.001 -0.158502 1.66667e-19)
(0.999018 -0.165096 0)
(0.996674 -0.171083 0)
(0.994155 -0.176206 0)
(0.991695 -0.180261 9.99067e-18)
(0.989539 -0.183107 -5.23412e-18)
(0.98792 -0.184664 5.53683e-18)
(0.987052 -0.184911 1.41614e-20)
(0.98713 -0.183892 0)
(0.988331 -0.181718 6.42389e-18)
(0.990829 -0.17857 -6.5417e-18)
(0.9948 -0.174691 0)
(1.00043 -0.170379 0)
(1.00795 -0.165971 -1.4597e-19)
(1.01752 -0.161812 6.47878e-18)
(1.02955 -0.158229 5.97099e-18)
(1.04366 -0.155477 0)
(1.06175 -0.153683 -4.09136e-18)
(1.07712 -0.152875 0)
(1.10955 -0.152784 1.1327e-18)
(0.975986 0.216474 0)
(0.981692 0.204215 2.12118e-17)
(0.987769 0.199647 1.8819e-17)
(0.990441 0.198411 0)
(0.990122 0.196236 8.0283e-18)
(0.989271 0.192974 -7.769e-18)
(0.988772 0.189389 0)
(0.98828 0.185462 -1.35626e-17)
(0.987611 0.180998 0)
(0.986852 0.175995 0)
(0.986039 0.170512 0)
(0.985145 0.164577 0)
(0.984206 0.1582 0)
(0.983343 0.151385 1.82808e-19)
(0.982701 0.144141 -9.52717e-18)
(0.982425 0.136519 -1.82179e-19)
(0.982658 0.128775 1.83593e-19)
(0.983498 0.121144 0)
(0.984943 0.113607 0)
(0.986872 0.10609 0)
(0.989099 0.0985704 -2.02551e-19)
(0.991459 0.0910714 2.0647e-19)
(0.993836 0.0836185 -3.95172e-18)
(0.99616 0.0762216 -3.92059e-18)
(0.998374 0.0688779 0)
(1.00043 0.0615786 -3.9851e-18)
(1.0023 0.0543142 3.97259e-18)
(1.00396 0.0470765 0)
(1.00537 0.0398599 1.92496e-18)
(1.00654 0.0326648 1.98307e-18)
(1.00744 0.0254988 0)
(1.00808 0.0183752 0)
(1.00846 0.0113076 1.002e-18)
(1.00861 0.00433296 -1.48663e-20)
(1.00857 -0.0025813 -4.94642e-19)
(1.00836 -0.00940525 0)
(1.008 -0.01613 0)
(1.00752 -0.0227603 -1.01106e-18)
(1.00694 -0.0292965 0)
(1.00625 -0.0357362 -1.02128e-18)
(1.00548 -0.0420779 -5.8916e-20)
(1.00465 -0.0483207 0)
(1.00375 -0.0544637 2.08882e-18)
(1.00282 -0.0605058 4.15785e-18)
(1.00186 -0.0664451 2.07117e-18)
(1.00089 -0.0722766 0)
(0.999913 -0.0779914 -4.35394e-18)
(0.998963 -0.0835767 0)
(0.998067 -0.0890201 -2.17584e-18)
(0.997269 -0.0943173 0)
(0.996623 -0.0994804 0)
(0.996186 -0.104546 0)
(0.99601 -0.109579 0)
(0.996123 -0.114672 0)
(0.996517 -0.119938 -4.77327e-18)
(0.99714 -0.125485 4.80676e-18)
(0.997889 -0.131392 0)
(0.998626 -0.137683 4.72488e-18)
(0.999204 -0.144304 -4.91768e-18)
(0.999491 -0.151119 0)
(0.999409 -0.157919 -4.91603e-18)
(0.998943 -0.164452 0)
(0.998149 -0.170456 0)
(0.997136 -0.175688 0)
(0.996043 -0.179943 -5.68634e-18)
(0.995017 -0.183069 6.02667e-18)
(0.994207 -0.184967 -6.29428e-18)
(0.993756 -0.185597 1.31425e-17)
(0.993814 -0.184989 -6.83975e-18)
(0.994545 -0.183245 0)
(0.99614 -0.180544 7.38688e-18)
(0.998829 -0.177138 -7.43823e-18)
(1.00287 -0.173335 0)
(1.0086 -0.169484 -1.17179e-19)
(1.01627 -0.165934 -7.09841e-18)
(1.0264 -0.163012 0)
(1.03871 -0.160924 0)
(1.05518 -0.159798 -4.56575e-18)
(1.06935 -0.159344 0)
(1.10041 -0.159522 -1.28489e-18)
(0.976761 0.214804 0)
(0.984936 0.20201 -1.22208e-17)
(0.992771 0.199204 -1.0702e-17)
(0.995649 0.198991 0)
(0.994983 0.196871 1.84235e-17)
(0.993957 0.193635 1.73976e-17)
(0.993389 0.19014 0)
(0.992828 0.186205 1.56627e-17)
(0.992161 0.181685 -1.48735e-17)
(0.99156 0.176662 0)
(0.991075 0.171202 0)
(0.990636 0.165313 0)
(0.990182 0.158987 0)
(0.989695 0.152209 -1.13205e-17)
(0.989164 0.144965 -1.11248e-17)
(0.988597 0.13728 1.02258e-17)
(0.988067 0.129388 -3.02703e-17)
(0.987698 0.121539 0)
(0.98757 0.113752 0)
(0.987688 0.105989 9.70046e-18)
(0.988001 0.0982502 1.89721e-17)
(0.988455 0.0905677 -9.28927e-18)
(0.989021 0.0829704 0)
(0.989677 0.0754692 0)
(0.990402 0.0680601 -4.65836e-18)
(0.991168 0.0607329 9.17732e-18)
(0.991946 0.0534758 -9.15462e-18)
(0.992707 0.046278 0)
(0.993422 0.0391301 0)
(0.994067 0.0320279 -2.25994e-18)
(0.99462 0.0249746 0)
(0.995067 0.017977 2.33016e-18)
(0.995399 0.0110482 -1.14183e-18)
(0.995637 0.00418582 -1.45011e-20)
(0.995789 -0.00261988 -7.27266e-21)
(0.995857 -0.00934388 0)
(0.995855 -0.0159776 0)
(0.995799 -0.022527 -2.90108e-20)
(0.995698 -0.0289943 1.18326e-18)
(0.99556 -0.0353773 3.53945e-18)
(0.995394 -0.0416741 4.72945e-18)
(0.995212 -0.047884 2.41054e-18)
(0.995026 -0.0540066 -2.37179e-18)
(0.994846 -0.0600407 -2.39288e-18)
(0.994682 -0.0659844 2.4733e-18)
(0.994543 -0.0718334 0)
(0.994441 -0.0775807 4.93626e-18)
(0.994391 -0.0832173 -5.10652e-18)
(0.994414 -0.0887353 0)
(0.994542 -0.0941342 0)
(0.99481 -0.0994273 0)
(0.995256 -0.104648 0)
(0.99591 -0.109853 0)
(0.996784 -0.11512 0)
(0.997862 -0.12054 5.39001e-18)
(0.999092 -0.126201 -1.09784e-17)
(1.00038 -0.132166 -5.59449e-18)
(1.00162 -0.13845 5.64005e-18)
(1.00265 -0.145002 5.54506e-18)
(1.00338 -0.151703 -5.77164e-18)
(1.00369 -0.158366 5.87251e-18)
(1.00354 -0.164763 0)
(1.00292 -0.170648 6.17074e-18)
(1.00186 -0.175785 -6.37109e-18)
(1.00044 -0.179967 0)
(0.998729 -0.183035 -1.36594e-17)
(0.996833 -0.184882 7.10561e-18)
(0.994883 -0.185469 -1.48572e-17)
(0.993053 -0.184831 7.74392e-18)
(0.991565 -0.183086 0)
(0.990702 -0.180435 8.22321e-18)
(0.990804 -0.177154 8.47544e-18)
(0.992251 -0.173573 -8.4489e-18)
(0.995476 -0.170057 -8.45041e-18)
(1.00085 -0.166958 8.14012e-18)
(1.00897 -0.164607 0)
(1.0196 -0.163145 0)
(1.03488 -0.162754 5.25544e-18)
(1.04826 -0.162668 0)
(1.07922 -0.163481 1.48263e-18)
(0.977833 0.212617 1.6205e-17)
(0.988995 0.19965 0)
(0.998472 0.199058 -2.40926e-17)
(1.00125 0.199733 2.1827e-17)
(1.00018 0.19759 -2.08146e-17)
(0.99903 0.194434 1.9964e-17)
(0.998399 0.191033 0)
(0.997724 0.187058 1.60214e-19)
(0.996946 0.182455 1.67922e-17)
(0.996278 0.177367 0)
(0.995791 0.171857 0)
(0.995442 0.165931 0)
(0.995188 0.159586 2.77051e-17)
(0.995003 0.152812 0)
(0.994847 0.145595 2.46886e-17)
(0.994671 0.137939 0)
(0.994463 0.130055 4.61775e-17)
(0.994266 0.122181 0)
(0.994121 0.114344 0)
(0.99403 0.106518 -2.208e-17)
(0.993972 0.0987109 -1.08139e-17)
(0.993931 0.0909537 0)
(0.993912 0.083277 0)
(0.99393 0.0756953 0)
(0.993995 0.0682097 5.25996e-18)
(0.994112 0.0608141 -5.24286e-18)
(0.994276 0.0535003 -1.07963e-19)
(0.994479 0.0462594 0)
(0.994709 0.0390824 5.33869e-18)
(0.994954 0.0319649 0)
(0.9952 0.0249082 0)
(0.995439 0.0179155 -2.63383e-18)