/*--------------------------------*- C++ -*----------------------------------*\
| =========                 |                                                 |
| \\      /  F ield         | OpenFOAM: The Open Source CFD Toolbox           |
|  \\    /   O peration     | Version:  v1912                                 |
|   \\  /    A nd           | Website:  www.openfoam.com                      |
|    \\/     M anipulation  |                                                 |
\*---------------------------------------------------------------------------*/
FoamFile
{
    version     2.0;
    format      ascii;
    class       volScalarField;
    location    "425";
    object      p;
}
// * * * * * * * * * * * * * * * * * * * * * * * * * * * * * * * * * * * * * //

dimensions      [0 2 -2 0 0 0 0];


internalField   nonuniform List<scalar> 
2000
(
-0.0460924
0.071319
0.125899
0.11901
0.103182
0.0968752
0.0962692
0.0976197
0.0978381
0.097614
0.0977503
0.0974179
0.0971479
0.0970888
0.0971358
0.0971147
0.0970249
0.0969962
0.0969951
0.0970038
0.0970122
0.0970124
0.0970034
0.0969875
0.0969691
0.0969493
0.0969285
0.0969061
0.0968811
0.0968529
0.0968225
0.0967922
0.0967645
0.0967414
0.0967234
0.0967103
0.0967006
0.0966914
0.0966794
0.0966545
0.0966154
0.0965594
0.0964855
0.0963937
0.0962928
0.0961888
0.0960932
0.0960198
0.0959827
0.0959933
0.0960505
0.0961207
0.0960933
0.0957305
0.0946689
0.0925068
0.0889293
0.0838396
0.0776162
0.0715526
0.0676949
0.0672332
0.0711792
0.0792973
0.0906779
0.104363
0.119547
0.135485
0.151294
0.165887
0.178169
0.187228
0.192152
0.192091
0.186199
0.173772
0.153672
0.125696
0.0841277
0.0417095
0.00715312
0.09233
0.131148
0.117953
0.100212
0.096011
0.0995448
0.101981
0.0992346
0.0959995
0.0955557
0.0968483
0.097301
0.0971726
0.0973415
0.0971799
0.0970206
0.096921
0.0969045
0.0969075
0.0969339
0.0969799
0.0969964
0.0969904
0.0969779
0.0969628
0.0969451
0.0969239
0.0968985
0.0968666
0.0968288
0.0967899
0.0967545
0.0967265
0.0967087
0.0967019
0.0967033
0.0967077
0.096708
0.0967033
0.0966824
0.0966375
0.0965633
0.0964581
0.0963269
0.0961806
0.0960364
0.0959167
0.0958521
0.0958822
0.0960298
0.0962324
0.0962319
0.0954849
0.0932229
0.0887504
0.0818223
0.0729078
0.0634644
0.0563467
0.0552907
0.0599205
0.0678516
0.0781149
0.0903188
0.104155
0.119141
0.134582
0.149601
0.163178
0.174258
0.181804
0.184844
0.182589
0.174327
0.159494
0.137172
0.107534
0.0665934
0.0295378
0.0582191
0.0920173
0.114709
0.113152
0.103953
0.0997759
0.0998114
0.0991758
0.0972781
0.0966034
0.0981812
0.0997475
0.0987409
0.0962484
0.0953425
0.0962218
0.0971025
0.0972495
0.0970906
0.0970086
0.0969728
0.0969425
0.0969303
0.0969514
0.0969726
0.0969781
0.0969635
0.09693
0.0968942
0.0968523
0.0968064
0.0967571
0.0967116
0.0966791
0.0966674
0.0966796
0.096712
0.0967559
0.0968016
0.096839
0.0968549
0.096834
0.0967607
0.0966251
0.0964322
0.09621
0.0960163
0.0959283
0.0960067
0.0962931
0.0967699
0.0972572
0.0973561
0.0964404
0.0938017
0.0889459
0.0819664
0.0738889
0.0666958
0.0619594
0.0604649
0.0632988
0.0699246
0.0792199
0.090416
0.103103
0.116806
0.130783
0.144101
0.155749
0.164726
0.17011
0.17112
0.167146
0.157676
0.142352
0.120582
0.0929056
0.0566232
0.0250337
0.0832047
0.0932185
0.105768
0.109847
0.107154
0.104134
0.102473
0.100744
0.0991255
0.0983103
0.098111
0.0979973
0.0976429
0.0969076
0.0963572
0.0972929
0.0985291
0.0978108
0.0966567
0.0962328
0.0961922
0.0963937
0.0966997
0.0969334
0.0970756
0.09717
0.0972289
0.0972188
0.0971347
0.0970193
0.0968906
0.0967641
0.0966583
0.0965937
0.0965762
0.0966139
0.0966916
0.0967944
0.09691
0.0970223
0.0971081
0.0971371
0.0970753
0.0968978
0.0966089
0.0962527
0.095932
0.0957999
0.0958943
0.0962669
0.0969423
0.0976578
0.0979893
0.0973667
0.0952072
0.0911766
0.0854253
0.0786356
0.0718789
0.0670907
0.0654006
0.0675565
0.0732885
0.0816452
0.0918127
0.103239
0.115337
0.127339
0.138373
0.147561
0.154093
0.157261
0.156476
0.151281
0.141294
0.126281
0.10585
0.0806164
0.0487071
0.0207997
0.095544
0.0991444
0.106664
0.110634
0.109504
0.107175
0.105793
0.104754
0.103452
0.101999
0.10064
0.0995405
0.0988003
0.0979326
0.0969438
0.0969659
0.0975123
0.0977086
0.0975355
0.0970962
0.0967768
0.0966845
0.0967642
0.0969779
0.0972009
0.0973438
0.09732
0.0971558
0.0970233
0.0968965
0.0967592
0.0966172
0.096493
0.0964265
0.0964349
0.0965243
0.0966692
0.0968495
0.0970501
0.0972418
0.0973883
0.0974477
0.0973743
0.0971289
0.096698
0.0961224
0.0955231
0.0951092
0.0951096
0.0954567
0.0961014
0.0968426
0.0972527
0.0967805
0.094917
0.0914074
0.0864341
0.0807014
0.0753877
0.071929
0.0712226
0.0735771
0.0787363
0.0860486
0.0948272
0.104484
0.11443
0.124002
0.132491
0.139213
0.143543
0.144938
0.142935
0.137156
0.127275
0.113094
0.0942968
0.0714698
0.043133
0.0181436
0.103984
0.105818
0.109771
0.111941
0.111125
0.109516
0.108556
0.107879
0.106918
0.105724
0.104588
0.103586
0.102556
0.101211
0.099816
0.0990986
0.0989594
0.0988122
0.0982369
0.0973661
0.0967627
0.0965754
0.0966887
0.0969216
0.0971145
0.0972388
0.0973168
0.0973396
0.097264
0.0971168
0.096922
0.0967084
0.0965148
0.0963886
0.0963322
0.0963691
0.0965543
0.0967958
0.0970479
0.0972871
0.097477
0.0975682
0.0975097
0.0972674
0.0968481
0.0963206
0.0958238
0.0955393
0.095596
0.0959632
0.0965577
0.0971714
0.097438
0.0969391
0.0953496
0.09258
0.0888813
0.0848622
0.081376
0.0793075
0.0792645
0.0814578
0.0857387
0.091679
0.098738
0.106388
0.114116
0.121386
0.127647
0.132361
0.135028
0.135197
0.132464
0.126478
0.11692
0.103586
0.0861703
0.0652026
0.0393436
0.0164813
0.110794
0.111617
0.112854
0.113191
0.112403
0.111417
0.110756
0.110215
0.109545
0.108785
0.108053
0.107322
0.106447
0.105321
0.104137
0.10327
0.102746
0.102138
0.101166
0.100074
0.0992697
0.0988465
0.0986791
0.098612
0.0985515
0.0984809
0.0983939
0.0982496
0.0980255
0.0977671
0.0975057
0.0972552
0.0970341
0.0969081
0.0970464
0.0972021
0.0973913
0.0976493
0.0979524
0.0982578
0.0985166
0.0986793
0.0987059
0.0985803
0.098325
0.0980097
0.0977459
0.0976563
0.0978207
0.0982213
0.0987561
0.0992396
0.0994088
0.0989888
0.0977903
0.0957984
0.0932271
0.0905131
0.0882356
0.0869844
0.0871951
0.0890368
0.0924126
0.0970208
0.102457
0.1083
0.114136
0.119539
0.124067
0.12728
0.128751
0.128078
0.124886
0.11883
0.109587
0.0969384
0.0805641
0.0609378
0.0367581
0.0154235
0.11667
0.116615
0.115699
0.11449
0.113665
0.113147
0.112668
0.112195
0.111749
0.111307
0.110848
0.11034
0.109728
0.108972
0.108151
0.107447
0.106897
0.106262
0.105392
0.104443
0.103654
0.103102
0.102723
0.102433
0.10218
0.101944
0.101706
0.101443
0.101154
0.100864
0.100595
0.10036
0.100191
0.100137
0.100243
0.100394
0.100592
0.100859
0.10117
0.101478
0.101741
0.101924
0.102002
0.101971
0.101854
0.101704
0.101597
0.101609
0.101784
0.1021
0.102468
0.10275
0.10277
0.102355
0.101397
0.0999116
0.0980634
0.0961623
0.0946085
0.0938047
0.0940535
0.0954816
0.0980317
0.101501
0.1056
0.110006
0.114382
0.118375
0.121616
0.123723
0.12432
0.123039
0.119523
0.113438
0.104455
0.0923351
0.0767377
0.0580744
0.0350538
0.0147318
0.122073
0.121084
0.118119
0.115575
0.114818
0.114728
0.114391
0.11398
0.113712
0.113489
0.113212
0.112877
0.112476
0.111984
0.111434
0.110932
0.110511
0.110033
0.109397
0.108682
0.108041
0.107549
0.107183
0.106888
0.106625
0.106374
0.106121
0.105856
0.105582
0.10531
0.10506
0.104851
0.104712
0.104672
0.104668
0.10479
0.104983
0.105219
0.105481
0.10574
0.105964
0.106128
0.106213
0.106215
0.106152
0.10606
0.105987
0.10598
0.106064
0.10622
0.106384
0.10646
0.106331
0.105888
0.105069
0.103893
0.102485
0.101066
0.0999161
0.0993194
0.0994953
0.100547
0.102447
0.105057
0.10816
0.111495
0.11478
0.117715
0.11998
0.121243
0.121168
0.119419
0.115661
0.109568
0.100805
0.0891137
0.0741177
0.056164
0.0339576
0.0142623
0.127303
0.125116
0.11992
0.116275
0.11581
0.116135
0.115905
0.115578
0.115489
0.115452
0.115322
0.115121
0.114869
0.114545
0.114172
0.113824
0.113526
0.113188
0.112735
0.112214
0.111737
0.111368
0.111094
0.110874
0.110674
0.110476
0.110274
0.110062
0.109841
0.109622
0.109421
0.109255
0.109145
0.109097
0.109075
0.10917
0.10933
0.109516
0.109716
0.109913
0.110081
0.110199
0.110252
0.110237
0.110165
0.110061
0.109959
0.109889
0.109866
0.109877
0.109878
0.109801
0.109567
0.109102
0.108369
0.107389
0.106254
0.105128
0.104215
0.103725
0.103823
0.104593
0.106019
0.107996
0.110351
0.11287
0.115311
0.117417
0.11891
0.119501
0.118891
0.116774
0.112836
0.106759
0.0982023
0.0868805
0.0723729
0.0549589
0.033311
0.0139823
0.132541
0.128691
0.120998
0.116606
0.116696
0.117386
0.117212
0.116995
0.117093
0.117225
0.117228
0.117148
0.117017
0.11682
0.116575
0.116335
0.116124
0.115878
0.115546
0.115161
0.114807
0.114535
0.114338
0.114181
0.114038
0.113895
0.113747
0.113589
0.113423
0.113256
0.113102
0.112974
0.112883
0.112833
0.112823
0.11289
0.113011
0.113155
0.113308
0.113456
0.11358
0.113661
0.113685
0.113649
0.113562
0.11344
0.113306
0.113182
0.113079
0.112988
0.112879
0.112702
0.112402
0.111931
0.111264
0.110421
0.109475
0.108548
0.107795
0.107374
0.107411
0.107968
0.109034
0.110523
0.112294
0.114165
0.11593
0.117365
0.11823
0.118274
0.117232
0.114826
0.110763
0.10473
0.096376
0.0853887
0.0712924
0.054301
0.0330018
0.0138918
0.137908
0.131738
0.121323
0.116663
0.117528
0.118489
0.118336
0.118256
0.118539
0.118815
0.118937
0.11897
0.11895
0.118865
0.118728
0.11858
0.11844
0.118266
0.11802
0.117731
0.117464
0.117258
0.117111
0.116997
0.116894
0.116791
0.116682
0.116564
0.116438
0.11631
0.11619
0.116089
0.116016
0.115976
0.115974
0.116026
0.116123
0.116241
0.116366
0.116485
0.11658
0.116636
0.116641
0.116592
0.116491
0.116352
0.116192
0.116027
0.115864
0.1157
0.115512
0.115268
0.114927
0.114457
0.113843
0.113103
0.112295
0.111512
0.110874
0.1105
0.110484
0.110873
0.111654
0.112754
0.114052
0.115394
0.116602
0.117483
0.117831
0.117427
0.116038
0.113412
0.109271
0.103306
0.0951559
0.0844778
0.0707359
0.0540853
0.0329561
0.0140057
0.14348
0.134151
0.120931
0.116567
0.118328
0.119443
0.119306
0.11939
0.119842
0.120238
0.120464
0.1206
0.12068
0.120695
0.120653
0.120589
0.120517
0.120409
0.120238
0.120027
0.119828
0.119675
0.119568
0.119488
0.119416
0.119343
0.119263
0.119174
0.119079
0.118979
0.118884
0.118803
0.118744
0.118717
0.11872
0.118763
0.118843
0.118942
0.119046
0.119143
0.119218
0.119257
0.119249
0.119188
0.119076
0.118923
0.11874
0.118541
0.118331
0.11811
0.117864
0.117569
0.117199
0.116731
0.116159
0.115498
0.114794
0.11412
0.113565
0.113222
0.113158
0.113407
0.113953
0.114732
0.115639
0.116541
0.117286
0.117709
0.117633
0.116868
0.115209
0.112424
0.108247
0.102371
0.0944192
0.0840254
0.0705908
0.054224
0.0331177
0.014328
0.149298
0.135813
0.119917
0.116434
0.119093
0.12025
0.120152
0.120418
0.121016
0.121511
0.121829
0.122057
0.122226
0.122328
0.12237
0.122381
0.122374
0.122328
0.122223
0.12208
0.12194
0.121835
0.121765
0.121715
0.121671
0.121624
0.12157
0.121507
0.121436
0.121361
0.121286
0.121222
0.121176
0.121156
0.12116
0.121197
0.121263
0.121347
0.121435
0.121516
0.121576
0.121602
0.121583
0.121513
0.121392
0.121225
0.121022
0.120792
0.120543
0.120274
0.119978
0.119641
0.119246
0.118779
0.118237
0.117634
0.117008
0.116413
0.115918
0.115589
0.115477
0.115603
0.115947
0.116454
0.117033
0.11757
0.117934
0.117986
0.117573
0.116531
0.114672
0.111783
0.107603
0.101826
0.0940613
0.0839223
0.0707524
0.0546321
0.0334378
0.0148391
0.155372
0.136616
0.118431
0.116355
0.119807
0.120924
0.120903
0.121352
0.122073
0.122651
0.123053
0.123363
0.12361
0.123786
0.123901
0.123979
0.124031
0.124041
0.123995
0.123911
0.123824
0.123761
0.123725
0.123705
0.123687
0.123664
0.123633
0.123593
0.123545
0.12349
0.123433
0.123384
0.123348
0.123332
0.123338
0.123369
0.123426
0.123497
0.123573
0.12364
0.123689
0.123705
0.123677
0.123599
0.123468
0.123288
0.123064
0.122806
0.122519
0.122207
0.121866
0.12149
0.121069
0.120595
0.120071
0.119507
0.118933
0.11839
0.117929
0.117598
0.117432
0.117444
0.117613
0.11789
0.118198
0.118439
0.118503
0.118268
0.117602
0.116358
0.114364
0.111415
0.107256
0.101578
0.0939818
0.0840648
0.0711197
0.0552241
0.0338722
0.0154934
0.16168
0.136483
0.116645
0.11638
0.120445
0.121483
0.121581
0.122204
0.123024
0.123674
0.124151
0.124534
0.124849
0.125091
0.12527
0.125407
0.125512
0.125572
0.125577
0.125545
0.125504
0.12548
0.125475
0.12548
0.125486
0.125486
0.125476
0.125456
0.125428
0.125392
0.12535
0.125313
0.125286
0.125274
0.12528
0.125307
0.125355
0.125416
0.12548
0.125536
0.125574
0.12558
0.125543
0.125455
0.125312
0.125115
0.124868
0.124579
0.124253
0.123896
0.123509
0.123091
0.122639
0.12215
0.121628
0.121083
0.120536
0.120019
0.119569
0.119219
0.118995
0.118903
0.118924
0.119015
0.119109
0.119124
0.118964
0.118522
0.117679
0.116299
0.114222
0.111248
0.107124
0.101539
0.0940878
0.0843599
0.071603
0.055919
0.0343825
0.0162352
0.168169
0.135404
0.114742
0.116517
0.120987
0.121952
0.122202
0.12298
0.123879
0.124592
0.125137
0.125585
0.12596
0.12626
0.126495
0.126684
0.126836
0.12694
0.126991
0.127003
0.127003
0.127012
0.127034
0.127062
0.127089
0.127108
0.127116
0.127114
0.127103
0.127081
0.127052
0.127024
0.127003
0.126993
0.126996
0.127016
0.127053
0.127101
0.127151
0.127194
0.127217
0.127209
0.127157
0.127053
0.126892
0.126671
0.126395
0.126069
0.125701
0.125296
0.124861
0.124399
0.123911
0.123398
0.122866
0.122322
0.121784
0.121273
0.120817
0.12044
0.12016
0.11998
0.119884
0.119834
0.119772
0.119626
0.119311
0.118729
0.117772
0.116311
0.11419
0.111214
0.107131
0.101631
0.0943016
0.0847325
0.0721323
0.0566495
0.0349341
0.0170137
0.174757
0.133401
0.11288
0.116749
0.121426
0.122355
0.122776
0.123681
0.124644
0.125414
0.126018
0.126522
0.126948
0.127298
0.127581
0.127815
0.128007
0.128149
0.128238
0.128287
0.128321
0.128356
0.1284
0.128447
0.12849
0.128523
0.128544
0.128553
0.128556
0.128541
0.128517
0.128493
0.12847
0.128454
0.128449
0.128456
0.128476
0.128506
0.128537
0.128559
0.128562
0.128534
0.128461
0.128334
0.128147
0.127898
0.127588
0.127224
0.126813
0.126364
0.125884
0.125381
0.124858
0.124321
0.123773
0.123222
0.122681
0.122166
0.121696
0.121292
0.120965
0.120719
0.120538
0.120389
0.120221
0.11997
0.119556
0.118889
0.117865
0.116361
0.114223
0.111259
0.107219
0.101793
0.0945657
0.0851295
0.0726592
0.057366
0.0354974
0.0177884
0.181351
0.130572
0.111172
0.117033
0.121765
0.122706
0.123297
0.124302
0.125312
0.126128
0.12678
0.127328
0.127794
0.128182
0.128502
0.12877
0.128993
0.129164
0.129282
0.129358
0.129415
0.129469
0.129527
0.129585
0.129636
0.129677
0.129704
0.12972
0.129721
0.129704
0.129679
0.12965
0.129619
0.129592
0.129571
0.12956
0.129561
0.129568
0.129577
0.129576
0.129557
0.129505
0.129409
0.129259
0.129046
0.128769
0.12843
0.128033
0.127587
0.127102
0.126587
0.126052
0.125503
0.124945
0.124384
0.123825
0.123277
0.122754
0.122271
0.121844
0.121484
0.121192
0.120954
0.120741
0.120508
0.120192
0.11972
0.119006
0.117948
0.116426
0.114289
0.111345
0.107346
0.101984
0.094842
0.0855167
0.0731545
0.0580364
0.0360503
0.0185322
0.18786
0.127046
0.109686
0.117322
0.122011
0.123001
0.123742
0.124813
0.125853
0.126699
0.127383
0.127959
0.12845
0.128862
0.129205
0.129496
0.129738
0.129927
0.130061
0.130154
0.130225
0.130289
0.130352
0.130414
0.130468
0.13051
0.130537
0.13055
0.130542
0.130522
0.130492
0.130454
0.130412
0.130371
0.130335
0.130307
0.130289
0.130277
0.130266
0.130247
0.130208
0.130138
0.130023
0.129853
0.129621
0.129324
0.128963
0.128543
0.128073
0.127565
0.127028
0.126473
0.125907
0.125336
0.124764
0.124198
0.123645
0.123115
0.122622
0.122179
0.121797
0.121475
0.121202
0.120951
0.120679
0.120328
0.119825
0.119089
0.118018
0.116493
0.114366
0.111446
0.107486
0.102179
0.0951078
0.0858754
0.0736037
0.058644
0.0365782
0.0192303
0.194205
0.122982
0.108464
0.117575
0.122172
0.123224
0.12407
0.125175
0.126226
0.127088
0.127788
0.128379
0.128883
0.129308
0.129664
0.129966
0.130219
0.130416
0.130559
0.13066
0.130737
0.130805
0.13087
0.130932
0.130984
0.131025
0.13105
0.131055
0.131044
0.13102
0.130983
0.130937
0.130886
0.130835
0.130789
0.130749
0.130718
0.130694
0.13067
0.130638
0.130586
0.130503
0.130376
0.130195
0.129951
0.129641
0.129267
0.128834
0.128352
0.12783
0.127281
0.126715
0.12614
0.125561
0.124985
0.124415
0.123857
0.123323
0.122823
0.122369
0.121972
0.121633
0.12134
0.121068
0.120775
0.120406
0.11989
0.119146
0.118074
0.116556
0.114443
0.111548
0.107623
0.102363
0.0953518
0.0861974
0.0740025
0.0591827
0.0370727
0.0198785
0.200388
0.118649
0.107532
0.117767
0.122255
0.123356
0.124263
0.12538
0.126436
0.127304
0.128012
0.128609
0.12912
0.129551
0.129913
0.13022
0.130477
0.130679
0.130826
0.130931
0.13101
0.131079
0.131145
0.131206
0.131257
0.131296
0.131318
0.131322
0.131308
0.13128
0.131239
0.131188
0.131132
0.131076
0.131023
0.130976
0.130939
0.130907
0.130876
0.130837
0.130779
0.13069
0.130556
0.130368
0.130118
0.129803
0.129423
0.128984
0.128495
0.127968
0.127414
0.126843
0.126264
0.125682
0.125103
0.124531
0.123971
0.123433
0.122928
0.122469
0.122063
0.121713
0.12141
0.121127
0.120824
0.120448
0.119929
0.119185
0.118118
0.116611
0.114515
0.111643
0.107749
0.102531
0.0955705
0.0864822
0.0743534
0.0596544
0.0375305
0.0204812
0.206552
0.114561
0.106897
0.117884
0.122273
0.123405
0.124341
0.125466
0.126523
0.127395
0.128107
0.128707
0.129221
0.129655
0.13002
0.13033
0.130589
0.130792
0.130941
0.131048
0.131128
0.131198
0.131264
0.131324
0.131375
0.131412
0.131433
0.131438
0.131422
0.131392
0.131349
0.131297
0.131238
0.131179
0.131123
0.131075
0.131034
0.130999
0.130966
0.130924
0.130863
0.13077
0.130634
0.130444
0.130191
0.129873
0.129491
0.12905
0.12856
0.128031
0.127476
0.126903
0.126323
0.125741
0.125161
0.124588
0.124027
0.123487
0.122979
0.122515
0.122105
0.12175
0.12144
0.121152
0.120847
0.120469
0.119952
0.119212
0.118154
0.116659
0.11458
0.11173
0.107866
0.102684
0.095768
0.0867371
0.0746674
0.0600722
0.0379577
0.0210579
0.212649
0.111354
0.106501
0.117933
0.122253
0.123398
0.124349
0.12548
0.126541
0.127415
0.128129
0.128732
0.129247
0.129682
0.130048
0.13036
0.13062
0.130824
0.130974
0.131081
0.131162
0.131232
0.131298
0.131358
0.131409
0.131446
0.131467
0.131472
0.131456
0.131426
0.131383
0.13133
0.131271
0.131211
0.131155
0.131105
0.131063
0.131028
0.130994
0.130951
0.130889
0.130796
0.130659
0.130468
0.130216
0.129897
0.129515
0.129075
0.128584
0.128056
0.127501
0.126929
0.126349
0.125767
0.125187
0.124613
0.124052
0.123511
0.123001
0.122535
0.122122
0.121763
0.121451
0.121161
0.120856
0.12048
0.119966
0.119233
0.118185
0.116703
0.114641
0.111813
0.107975
0.102827
0.095953
0.0869747
0.0749602
0.0604581
0.0383659
0.0216419
0.217375
0.109412
0.106276
0.11796
0.12223
0.123374
0.124333
0.12547
0.126534
0.12741
0.128125
0.128728
0.129244
0.12968
0.130047
0.130359
0.130619
0.130824
0.130974
0.131081
0.131163
0.131233
0.131299
0.13136
0.131411
0.131449
0.13147
0.131474
0.131458
0.131428
0.131385
0.131331
0.131273
0.131213
0.131157
0.131107
0.131066
0.131031
0.130996
0.130954
0.130892
0.1308
0.130663
0.130473
0.13022
0.129903
0.129521
0.129081
0.128592
0.128064
0.127509
0.126938
0.126359
0.125778
0.125198
0.124625
0.124064
0.123522
0.123011
0.122543
0.122128
0.121768
0.121454
0.121164
0.120859
0.120485
0.119976
0.11925
0.118211
0.116741
0.114694
0.111885
0.108072
0.102954
0.0961161
0.087184
0.0752171
0.0607984
0.0387209
0.0221983
)
;

boundaryField
{
    inlet
    {
        type            zeroGradient;
    }
    outlet
    {
        type            fixedValue;
        value           uniform 0;
    }
    fixedWalls
    {
        type            zeroGradient;
    }
    frontAndBack
    {
        type            empty;
    }
}


// ************************************************************************* //
