/*--------------------------------*- C++ -*----------------------------------*\
| =========                 |                                                 |
| \\      /  F ield         | OpenFOAM: The Open Source CFD Toolbox           |
|  \\    /   O peration     | Version:  v1912                                 |
|   \\  /    A nd           | Website:  www.openfoam.com                      |
|    \\/     M anipulation  |                                                 |
\*---------------------------------------------------------------------------*/
FoamFile
{
    version     2.0;
    format      ascii;
    class       surfaceScalarField;
    location    "425";
    object      phi;
}
// * * * * * * * * * * * * * * * * * * * * * * * * * * * * * * * * * * * * * //

dimensions      [0 3 -1 0 0 0 0];
oriented        oriented;


internalField   nonuniform List<scalar> 
3895
(
0.000814745
0.000381431
0.000499358
0.000315386
0.000251561
0.000247798
6.48581e-05
0.000186703
-6.22045e-05
0.000127063
-0.000127352
6.51476e-05
-0.000137678
1.03254e-05
-0.000113656
-2.40212e-05
-9.02556e-05
-2.34008e-05
-8.47781e-05
-5.47749e-06
-6.59709e-05
-1.88072e-05
-4.43982e-05
-2.15727e-05
-3.95326e-05
-4.86567e-06
-4.65824e-05
7.04989e-06
-4.13682e-05
-5.21425e-06
-2.56659e-05
-1.57023e-05
-1.79951e-05
-7.67082e-06
-1.84484e-05
4.53377e-07
-2.1231e-05
2.78255e-06
-2.2588e-05
1.35704e-06
-2.15876e-05
-1.00044e-06
-1.84357e-05
-3.1519e-06
-1.39751e-05
-4.4606e-06
-9.68103e-06
-4.29406e-06
-6.25948e-06
-3.42155e-06
-3.9575e-06
-2.30198e-06
-2.64447e-06
-1.31303e-06
-1.90978e-06
-7.34687e-07
-1.23179e-06
-6.77994e-07
-3.94487e-07
-8.37301e-07
6.08654e-07
-1.00314e-06
1.73191e-06
-1.12326e-06
2.94477e-06
-1.21286e-06
4.20247e-06
-1.25769e-06
5.41203e-06
-1.20956e-06
6.47842e-06
-1.06639e-06
7.29838e-06
-8.1996e-07
7.75582e-06
-4.57438e-07
7.75229e-06
3.52954e-09
7.05405e-06
6.9825e-07
5.60473e-06
1.44931e-06
3.2964e-06
2.30833e-06
1.6621e-08
3.27978e-06
-4.32784e-06
4.34446e-06
-9.8134e-06
5.48556e-06
-1.65376e-05
6.72426e-06
-2.47363e-05
8.19866e-06
-3.49696e-05
1.02333e-05
-4.83651e-05
1.33955e-05
-6.68576e-05
1.84925e-05
-9.31942e-05
2.63366e-05
-0.000130382
3.71883e-05
-0.000180808
5.0426e-05
-0.000245452
6.46434e-05
-0.000323182
7.77297e-05
-0.000410108
8.69263e-05
-0.00049956
8.94518e-05
-0.000583039
8.34794e-05
-0.000651754
6.87152e-05
-0.000697049
4.52945e-05
-0.000707825
1.0776e-05
-0.000692259
-1.55656e-05
-0.000655751
-3.65079e-05
-0.000601685
-5.40669e-05
-0.000533897
-6.77872e-05
-0.000455426
-7.84715e-05
-0.00036823
-8.7196e-05
-0.000273763
-9.44672e-05
-0.000173556
-0.000100207
-6.92808e-05
-0.000104275
3.70886e-05
-0.000106369
0.000143463
-0.000106374
0.000248172
-0.000104709
0.000349715
-0.000101543
0.000447093
-9.73778e-05
0.000540152
-9.30592e-05
0.000629101
-8.89487e-05
0.000717047
-8.79456e-05
0.000804385
-8.7338e-05
-0.000107957
0.00108795
0.000349295
0.00104738
0.000355949
0.000933273
0.000361908
0.000775736
0.00034424
0.000598415
0.000304384
0.000410374
0.000253188
0.00022125
0.000199449
5.38704e-05
0.000143359
-6.05147e-05
9.09844e-05
-0.000110341
4.43489e-05
-0.000132148
3.00017e-06
-0.000124613
-2.91085e-05
-0.000107103
-2.23755e-05
-0.000109652
9.59916e-06
-0.000106142
-8.72484e-06
-9.35262e-05
-2.83177e-05
-7.81202e-05
-2.30769e-05
-7.81957e-05
5.28895e-07
-8.49817e-05
9.56852e-06
-8.93791e-05
5.75445e-06
-9.03166e-05
-6.29615e-08
-8.5685e-05
-7.78344e-06
-7.87394e-05
-1.14062e-05
-7.14946e-05
-1.15388e-05
-6.4733e-05
-1.01832e-05
-5.912e-05
-7.91495e-06
-5.51959e-05
-5.23707e-06
-5.33256e-05
-2.60498e-06
-5.33758e-05
-6.27843e-07
-5.50614e-05
8.48314e-07
-5.77883e-05
1.72373e-06
-6.09859e-05
2.07434e-06
-6.43295e-05
2.13078e-06
-6.77011e-05
2.1139e-06
-7.11537e-05
2.24304e-06
-7.48233e-05
2.60325e-06
-7.8852e-05
3.2087e-06
-8.33619e-05
4.05241e-06
-8.84881e-05
5.12976e-06
-9.4244e-05
6.45416e-06
-0.000100794
7.9998e-06
-0.000108237
9.7505e-06
-0.00011662
1.16628e-05
-0.000125924
1.36487e-05
-0.000136034
1.5596e-05
-0.000146741
1.74306e-05
-0.000157786
1.92442e-05
-0.000168993
2.14405e-05
-0.000180325
2.47268e-05
-0.000191775
2.99427e-05
-0.000203447
3.80088e-05
-0.000215614
4.93546e-05
-0.000228428
6.32409e-05
-0.000241374
7.75885e-05
-0.000252656
8.90121e-05
-0.000258737
9.30069e-05
-0.000255001
8.57163e-05
-0.000237337
6.58159e-05
-0.000203933
3.53108e-05
-0.000163315
4.6762e-06
-0.000116453
-3.60855e-05
-6.48514e-05
-6.71673e-05
-1.06737e-05
-9.06856e-05
4.47979e-05
-0.000109539
0.000103081
-0.00012607
0.000165666
-0.000141057
0.000232755
-0.000154285
0.000303501
-0.000165213
0.000376452
-0.000173159
0.000449821
-0.000177644
0.000521976
-0.000178524
0.000591613
-0.000176011
0.000657542
-0.000170638
0.000719127
-0.000163128
0.000776148
-0.000154399
0.000828667
-0.000145578
0.000877524
-0.000137806
0.000922743
-0.000133164
0.000967054
-0.000131649
-0.000142714
0.000975282
0.000305927
0.00102604
0.000305191
0.00106097
0.00032698
0.00105861
0.000346593
0.00101217
0.000350832
0.000925037
0.000340318
0.000805732
0.000318754
0.000661732
0.00028736
0.000504851
0.000247865
0.000345729
0.000203471
0.000190139
0.000158591
4.71982e-05
0.000113832
-4.96756e-05
7.44984e-05
-8.66151e-05
4.65386e-05
-0.000107852
1.2512e-05
-0.000117665
-1.85051e-05
-0.000107521
-3.32208e-05
-9.78151e-05
-9.17659e-06
-0.0001045
1.62535e-05
-0.000113351
1.46049e-05
-0.000118632
5.21869e-06
-0.000122091
-4.32422e-06
-0.000122411
-1.10868e-05
-0.000119535
-1.44145e-05
-0.000116347
-1.33718e-05
-0.000114937
-9.32422e-06
-0.000116072
-4.10215e-06
-0.000119522
8.44748e-07
-0.000123751
3.60084e-06
-0.000128483
5.58041e-06
-0.00013352
6.7608e-06
-0.000138682
7.2365e-06
-0.000143744
7.19323e-06
-0.000148544
6.91294e-06
-0.000153083
6.7826e-06
-0.000157436
6.95595e-06
-0.000161736
7.50856e-06
-0.000166083
8.39936e-06
-0.000170504
9.55086e-06
-0.000174966
1.09161e-05
-0.000179452
1.24859e-05
-0.000183963
1.42619e-05
-0.000188481
1.6181e-05
-0.000192852
1.80197e-05
-0.00019667
1.94137e-05
-0.000199204
1.99649e-05
-0.000199359
1.9399e-05
-0.000195803
1.78843e-05
-0.000187526
1.64503e-05
-0.00017333
1.57462e-05
-0.000151757
1.64363e-05
-0.000121903
1.95003e-05
-8.30115e-05
2.43496e-05
-3.46774e-05
2.92544e-05
2.258e-05
3.17547e-05
8.61835e-05
2.94034e-05
0.000151691
2.02084e-05
0.000212827
4.68062e-06
0.000268833
-2.06952e-05
0.00032203
-4.8521e-05
0.000365152
-7.92079e-05
0.000405864
-0.000107879
0.000448221
-0.000133043
0.000494093
-0.000155411
0.000543355
-0.000175332
0.00059478
-0.000192481
0.000646714
-0.000206219
0.000697428
-0.000215927
0.000745451
-0.000221182
0.000789682
-0.000221875
0.000829418
-0.00021826
0.000864334
-0.000210927
0.000894418
-0.000200722
0.000919946
-0.000188656
0.000941383
-0.000175836
0.000959233
-0.000163428
0.000974101
-0.000152674
0.00098587
-0.000144934
0.000995603
-0.000141382
-0.000145552
0.000857109
0.000271375
0.000897356
0.000264944
0.000950165
0.000274171
0.00100471
0.000292051
0.00104637
0.000309166
0.0010653
0.000321389
0.00105663
0.000327431
0.00101791
0.000326077
0.000949503
0.00031627
0.000855013
0.000297961
0.000740814
0.00027279
0.000611818
0.000242827
0.000476477
0.000209839
0.000348298
0.000174718
0.000223431
0.000137378
0.000101867
0.000103059
-8.92171e-07
6.95386e-05
-5.41807e-05
4.4112e-05
-6.75604e-05
2.96332e-05
-7.088e-05
1.79245e-05
-7.44929e-05
8.8316e-06
-8.07385e-05
1.92144e-06
-8.79738e-05
-3.85155e-06
-9.56077e-05
-6.7806e-06
-0.000101499
-7.48087e-06
-0.000105368
-5.4548e-06
-0.000108979
-4.91131e-07
-0.000113481
5.34656e-06
-0.000118509
8.62926e-06
-0.000123359
1.04301e-05
-0.000127687
1.10891e-05
-0.000131372
1.09211e-05
-0.000134357
1.01787e-05
-0.00013643
8.9858e-06
-0.000137814
8.16635e-06
-0.000138369
7.5109e-06
-0.000138254
7.39341e-06
-0.000137346
7.49153e-06
-0.000135473
7.67763e-06
-0.000132514
7.95751e-06
-0.000128419
8.39066e-06
-0.000123157
9.00026e-06
-0.000116707
9.73051e-06
-0.000108937
1.02501e-05
-9.95997e-05
1.00762e-05
-8.83363e-05
8.70147e-06
-7.44613e-05
5.52389e-06
-5.65478e-05
-2.91846e-08
-3.48607e-05
-5.23669e-06
-7.49079e-06
-1.16238e-05
2.69856e-05
-1.80401e-05
7.03316e-05
-2.38457e-05
0.000123376
-2.86946e-05
0.000185486
-3.28555e-05
0.000254623
-3.73823e-05
0.000327844
-4.38177e-05
0.000401815
-5.37632e-05
0.000474881
-6.83854e-05
0.000542283
-8.80966e-05
0.000604655
-0.000110893
0.000660641
-0.000135194
0.000711847
-0.000159085
0.000759839
-0.000181034
0.000804762
-0.000200334
0.000845939
-0.000216509
0.000882477
-0.000229019
0.000913605
-0.000237347
0.000938839
-0.000241161
0.000958073
-0.000240416
0.000971571
-0.000235372
0.000979888
-0.000226578
0.000983772
-0.000214811
0.000984052
-0.000201002
0.000981541
-0.000186145
0.000976958
-0.000171253
0.000970837
-0.000157307
0.000963487
-0.000145324
0.000954754
-0.0001362
0.000944493
-0.000131121
-0.000130947
0.000759397
0.000238012
0.000790536
0.000233805
0.000828352
0.000236354
0.000874987
0.000245416
0.000927005
0.000257149
0.000978874
0.00026952
0.00102441
0.000281891
0.00105754
0.000292947
0.00107317
0.000300641
0.00106783
0.000303299
0.00104037
0.00030025
0.000991488
0.000291714
0.000923153
0.000278174
0.000838773
0.000259098
0.000741447
0.000234705
0.000636553
0.000207953
0.00053207
0.000174022
0.000433819
0.000142363
0.000348499
0.000114953
0.000275153
9.12705e-05
0.00021227
7.17153e-05
0.000158391
5.58004e-05
0.00011137
4.31694e-05
7.11375e-05
3.34518e-05
3.7768e-05
2.58886e-05
1.23054e-05
2.00078e-05
-3.82301e-06
1.56372e-05
-1.12332e-05
1.27568e-05
-1.31126e-05
1.05087e-05
-1.15739e-05
8.89138e-06
-8.06583e-06
7.58095e-06
-3.43389e-06
6.28916e-06
1.92088e-06
4.82396e-06
7.73584e-06
3.17085e-06
1.41713e-05
1.73087e-06
2.18553e-05
-1.73135e-07
3.10218e-05
-1.77304e-06
4.20687e-05
-3.55537e-06
5.51738e-05
-5.42749e-06
7.05033e-05
-7.372e-06
8.82769e-05
-9.38297e-06
0.000108772
-1.14953e-05
0.000132329
-1.38263e-05
0.000159186
-1.66063e-05
0.000189432
-2.01704e-05
0.000223031
-2.48973e-05
0.000259572
-3.10171e-05
0.000297968
-3.84248e-05
0.00033927
-4.65388e-05
0.000382853
-5.52069e-05
0.000428646
-6.38336e-05
0.000476692
-7.18916e-05
0.000527196
-7.91985e-05
0.000580313
-8.5972e-05
0.000635795
-9.28643e-05
0.000692803
-0.000100826
0.000749867
-0.000110827
0.000804976
-0.000123495
0.000855755
-0.000138875
0.000901051
-0.000156189
0.0009401
-0.000174243
0.000972743
-0.000191729
0.000999106
-0.000207397
0.00101914
-0.000220365
0.0010327
-0.000230069
0.0010398
-0.000236119
0.00104072
-0.000238271
0.00103605
-0.000236486
0.00102659
-0.000230965
0.00101336
-0.000222133
0.000997376
-0.000210598
0.000979657
-0.000197093
0.000961071
-0.000182415
0.000942297
-0.000167371
0.000923793
-0.000152749
0.000905771
-0.000139285
0.000888176
-0.00012773
0.000870638
-0.000118661
0.00085251
-0.000112993
-0.000110748
0.000672434
0.000206415
0.000702275
0.000203964
0.000733372
0.000205257
0.000767841
0.000210948
0.000806617
0.000218372
0.000850041
0.000226096
0.000897307
0.000234625
0.000946038
0.000244216
0.000992648
0.000254031
0.00103306
0.000262889
0.00106349
0.000269816
0.00108117
0.000274038
0.00108443
0.000274909
0.00107205
0.000271484
0.00104365
0.0002631
0.00100098
0.000250628
0.000948991
0.000226007
0.000891654
0.0001997
0.000831926
0.000174681
0.000772211
0.000150986
0.000714662
0.000129264
0.00066056
0.000109903
0.000610724
9.3005e-05
0.000565747
7.84284e-05
0.000525803
6.58331e-05
0.000490861
5.49497e-05
0.000460929
4.55692e-05
0.000436277
3.74088e-05
0.00041665
3.01358e-05
0.000401896
2.36452e-05
0.000391722
1.77548e-05
0.000385727
1.2284e-05
0.000383523
7.02782e-06
0.000385235
1.45953e-06
0.000390358
-3.39212e-06
0.000398764
-8.57916e-06
0.000410655
-1.36644e-05
0.000425758
-1.86584e-05
0.000443918
-2.35874e-05
0.000464978
-2.84317e-05
0.000488805
-3.32102e-05
0.000515308
-3.79985e-05
0.000544413
-4.29306e-05
0.000575997
-4.81906e-05
0.000609813
-5.39862e-05
0.000645408
-6.0493e-05
0.000682159
-6.77675e-05
0.000719413
-7.56792e-05
0.000756773
-8.38989e-05
0.000793656
-9.20899e-05
0.00082972
-9.98976e-05
0.000864853
-0.000107024
0.000899048
-0.000113394
0.000932298
-0.000119221
0.000964426
-0.000124992
0.000994961
-0.000131361
0.0010231
-0.000138963
0.00104779
-0.000148191
0.00106796
-0.000159043
0.00108279
-0.000171021
0.0010918
-0.000183253
0.00109482
-0.000194748
0.001092
-0.000204574
0.00108366
-0.000212029
0.00107027
-0.000216679
0.00105245
-0.000218291
0.00103097
-0.000216795
0.00100676
-0.000212277
0.000980786
-0.000204991
0.000953987
-0.000195334
0.000927198
-0.000183809
0.000901093
-0.000170988
0.000876154
-0.000157476
0.000852659
-0.000143876
0.000830692
-0.000130781
0.000810143
-0.000118736
0.000790721
-0.000108307
0.000771908
-9.98487e-05
0.000753063
-9.41479e-05
-9.06541e-05
0.000594386
0.000177666
0.00062317
0.000175179
0.000652324
0.000176104
0.000682116
0.000181156
0.000712926
0.000187562
0.000745616
0.000193406
0.000781186
0.000199055
0.000820202
0.0002052
0.000862424
0.000211809
0.000906726
0.000218586
0.000951243
0.000225299
0.000993697
0.000231584
0.00103176
0.000236849
0.00106303
0.000240214
0.00108534
0.000240788
0.00109756
0.00023841
0.00109979
0.000223775
0.00109371
0.000205784
0.00108085
0.000187538
0.00106272
0.000169114
0.00104099
0.000150993
0.00101721
0.000133689
0.0009927
0.000117512
0.000968553
0.000102576
0.000945535
8.88513e-05
0.000924221
7.62628e-05
0.000905075
6.4716e-05
0.000888428
5.40558e-05
0.000874454
4.41094e-05
0.000863332
3.47678e-05
0.000855167
2.59194e-05
0.000850014
1.74367e-05
0.000847846
9.1963e-06
0.000848012
1.29316e-06
0.00085122
-6.59984e-06
0.000856765
-1.41248e-05
0.000864518
-2.14174e-05
0.000874263
-2.84029e-05
0.000885755
-3.50792e-05
0.000898796
-4.14727e-05
0.000913222
-4.76369e-05
0.000928882
-5.36579e-05
0.000945603
-5.96521e-05
0.000963166
-6.5753e-05
0.000981265
-7.20859e-05
0.000999501
-7.87283e-05
0.0010174
-8.56646e-05
0.00103448
-9.27583e-05
0.00105034
-9.97639e-05
0.00106467
-0.000106415
0.00107726
-0.000112486
0.00108806
-0.000117829
0.00109712
-0.000122457
0.00110449
-0.000126586
0.0011101
-0.000130608
0.00111375
-0.000135005
0.00111501
-0.000140222
0.00111333
-0.000146519
0.00110816
-0.00015387
0.00109906
-0.000161916
0.00108584
-0.000170039
0.00106862
-0.000177524
0.00104774
-0.000183697
0.00102375
-0.000188036
0.000997279
-0.000190209
0.000969035
-0.000190047
0.000939754
-0.000187514
0.000910166
-0.000182689
0.000880936
-0.000175761
0.000852623
-0.000167021
0.000825648
-0.000156834
0.000800284
-0.000145624
0.000776657
-0.000133849
0.000754762
-0.000121982
0.000734481
-0.0001105
0.000715583
-9.9838e-05
0.000697737
-9.04611e-05
0.000680442
-8.2554e-05
0.000663227
-7.69327e-05
-7.23351e-05
0.000525111
0.000151816
0.000551937
0.000148354
0.000579147
0.000148893
0.000606469
0.000153834
0.000634008
0.000160022
0.000661956
0.000165458
0.000690632
0.000170379
0.000720612
0.000175221
0.000752545
0.000179876
0.000786891
0.000184241
0.00082375
0.00018844
0.000862771
0.000192563
0.000903138
0.000196482
0.00094356
0.000199791
0.000982393
0.000201955
0.00101812
0.000202686
0.00104841
0.00019348
0.00107286
0.000181333
0.00109169
0.000168708
0.0011053
0.000155505
0.00111433
0.000141965
0.00111956
0.00012846
0.0011218
0.000115269
0.00112183
0.000102552
0.0011203
9.03715e-05
0.00111783
7.87399e-05
0.0011149
6.76433e-05
0.00111192
5.70329e-05
0.0011092
4.68357e-05
0.00110697
3.69928e-05
0.00110544
2.74562e-05
0.0011047
1.81752e-05
0.00110476
9.13094e-06
0.00110551
5.48606e-07
0.001107
-8.09394e-06
0.00110902
-1.61398e-05
0.00111145
-2.38467e-05
0.0011142
-3.11584e-05
0.00111718
-3.80632e-05
0.0011203
-4.45909e-05
0.00112346
-5.07961e-05
0.00112656
-5.67548e-05
0.00112947
-6.25604e-05
0.00113202
-6.83102e-05
0.00113402
-7.40846e-05
0.00113521
-7.99197e-05
0.00113533
-8.57831e-05
0.00113414
-9.15638e-05
0.00113146
-9.709e-05
0.00112723
-0.000102181
0.00112145
-0.000106701
0.00111421
-0.000110591
0.00110566
-0.000113909
0.00109593
-0.000116852
0.00108505
-0.000119729
0.00107294
-0.000122901
0.0010594
-0.000126683
0.00104414
-0.000131256
0.00102687
-0.000136595
0.00100739
-0.000142444
0.000985719
-0.000148364
0.000962026
-0.000153831
0.000936665
-0.000158336
0.000910091
-0.000161463
0.000882801
-0.000162919
0.000855292
-0.000162538
0.00082803
-0.000160252
0.000801424
-0.000156083
0.000775807
-0.000150144
0.000751415
-0.000142629
0.000728392
-0.000133811
0.000706791
-0.000124023
0.000686594
-0.000113651
0.000667718
-0.000103106
0.00065003
-9.2812e-05
0.000633337
-8.31455e-05
0.000617389
-7.4513e-05
0.000601798
-6.69624e-05
0.000586234
-6.13695e-05
-5.57376e-05
0.00046394
0.000128552
0.00048864
0.000123654
0.000513481
0.000124052
0.00053816
0.000129154
0.000563124
0.000135058
0.000588448
0.000140134
0.000613974
0.000144852
0.00063977
0.000149425
0.000666092
0.000153554
0.000693259
0.000157073
0.000721632
0.000160067
0.000751552
0.000162643
0.000783217
0.000164817
0.000816537
0.000166471
0.000851078
0.000167414
0.000886205
0.000167559
0.000919785
0.0001599
0.000950933
0.000150186
0.000979274
0.000140366
0.00100455
0.000130234
0.00102667
0.000119839
0.00104576
0.000109372
0.00106203
9.89995e-05
0.00107576
8.88176e-05
0.00108726
7.88699e-05
0.00109683
6.91716e-05
0.00110475
5.97244e-05
0.00111127
5.05122e-05
0.0011166
4.1504e-05
0.00112092
3.26758e-05
0.00112436
2.40176e-05
0.001127
1.55311e-05
0.00112889
7.24205e-06
0.00113014
-7.01026e-07
0.00113057
-8.51978e-06
0.0011303
-1.58683e-05
0.0011293
-2.28473e-05
0.00112758
-2.94446e-05
0.00112517
-3.56518e-05
0.00112207
-4.14913e-05
0.00111829
-4.701e-05
0.0011138
-5.22716e-05
0.00110859
-5.73495e-05
0.0011026
-6.23155e-05
0.00109574
-6.72238e-05
0.00108791
-7.20938e-05
0.00107902
-7.6896e-05
0.00106901
-8.15498e-05
0.00105786
-8.59388e-05
0.00104562
-8.99451e-05
0.00103241
-9.34879e-05
0.00101837
-9.65503e-05
0.00100366
-9.92011e-05
0.000988412
-0.000101604
0.000972681
-0.000103998
0.000956431
-0.00010665
0.000939542
-0.000109794
0.000921845
-0.000113559
0.000903176
-0.000117925
0.000883437
-0.000122705
0.000862641
-0.000127569
0.000840921
-0.000132111
0.000818504
-0.000135919
0.000795676
-0.000138634
0.000772736
-0.00013998
0.000749969
-0.00013977
0.000727619
-0.000137902
0.000705887
-0.000134352
0.00068492
-0.000129177
0.00066481
-0.000122519
0.0006456
-0.000114601
0.000627298
-0.000105721
0.000609881
-9.62345e-05
0.000593306
-8.65311e-05
0.000577506
-7.70124e-05
0.000562384
-6.8023e-05
0.000547786
-5.99155e-05
0.000533459
-5.26347e-05
0.000519119
-4.70293e-05
-4.05585e-05
0.000410014
0.000107502
0.000432754
0.000100914
0.000455183
0.000101623
0.000477153
0.000107184
0.000499457
0.000112755
0.000522205
0.000117385
0.000545207
0.000121851
0.000568446
0.000126186
0.000591948
0.000130051
0.000615699
0.000133323
0.00063974
0.000136025
0.000664215
0.000138168
0.000689316
0.000139716
0.0007152
0.000140588
0.000741924
0.00014069
0.00076946
0.000140024
0.000796517
0.000132843
0.000822612
0.000124091
0.00084752
0.000115458
0.000870974
0.00010678
0.000892759
9.80542e-05
0.00091275
8.93812e-05
0.000930898
8.0851e-05
0.00094721
7.25059e-05
0.000961726
6.43537e-05
0.000974511
5.63874e-05
0.00098564
4.85949e-05
0.000995195
4.09573e-05
0.00100325
3.3451e-05
0.00100986
2.60599e-05
0.0010151
1.87838e-05
0.00101899
1.16365e-05
0.00102158
4.65024e-06
0.00102298
-2.09934e-06
0.00102313
-8.66702e-06
0.00102218
-1.49154e-05
0.00102016
-2.08348e-05
0.00101715
-2.64292e-05
0.0010132
-3.16994e-05
0.00100837
-3.66634e-05
0.00100272
-4.13596e-05
0.000996286
-4.58397e-05
0.000989098
-5.01606e-05
0.000981157
-5.43752e-05
0.000972455
-5.85211e-05
0.00096297
-6.2609e-05
0.000952688
-6.66142e-05
0.000941615
-7.04769e-05
0.000929791
-7.41143e-05
0.000917291
-7.7445e-05
0.00090422
-8.04171e-05
0.000890699
-8.3029e-05
0.000876842
-8.53445e-05
0.000862734
-8.7496e-05
0.000848407
-8.96703e-05
0.00083383
-9.20733e-05
0.000818918
-9.48824e-05
0.000803555
-9.81968e-05
0.00078763
-0.000102
0.000771072
-0.000106146
0.000753878
-0.000110374
0.000736117
-0.00011435
0.00071792
-0.000117722
0.000699449
-0.000120164
0.000680878
-0.000121408
0.000662363
-0.000121255
0.000644038
-0.000119577
0.000626009
-0.000116323
0.000608355
-0.000111523
0.000591131
-0.000105295
0.000574376
-9.78459e-05
0.000558119
-8.94643e-05
0.000542386
-8.05016e-05
0.000527199
-7.13439e-05
0.000512567
-6.23802e-05
0.000498476
-5.39327e-05
0.000484852
-4.62913e-05
0.000471554
-3.93365e-05
0.000458265
-3.37403e-05
-2.67532e-05
0.000362528
8.82939e-05
0.000383496
7.99455e-05
0.000403597
8.15223e-05
0.000423065
8.77166e-05
0.000442882
9.2938e-05
0.00046308
9.71865e-05
0.000483528
0.000101403
0.000504302
0.000105412
0.000525428
0.000108926
0.000546817
0.000111934
0.000568383
0.00011446
0.00059008
0.00011647
0.000611895
0.000117901
0.000633822
0.00011866
0.000655861
0.000118651
0.000678026
0.000117858
0.00069941
0.000111459
0.000719818
0.000103682
0.000739259
9.6017e-05
0.00075767
8.83692e-05
0.000774971
8.07525e-05
0.000791103
7.32498e-05
0.000806022
6.59316e-05
0.000819702
5.88257e-05
0.000832127
5.19289e-05
0.00084329
4.52246e-05
0.000853193
3.86922e-05
0.000861842
3.2308e-05
0.000869246
2.60471e-05
0.000875413
1.98927e-05
0.000880355
1.38422e-05
0.000884085
7.90589e-06
0.000886633
2.10207e-06
0.00088806
-3.52581e-06
0.000888384
-8.99154e-06
0.000887693
-1.42235e-05
0.000886042
-1.91847e-05
0.000883492
-2.38784e-05
0.000880105
-2.83124e-05
0.000875945
-3.25037e-05
0.000871069
-3.64842e-05
0.000865525
-4.02956e-05
0.000859347
-4.39825e-05
0.000852556
-4.75838e-05
0.00084516
-5.11254e-05
0.000837162
-5.4611e-05
0.000828565
-5.80173e-05
0.000819384
-6.12956e-05
0.000809651
-6.43815e-05
0.00079942
-6.72137e-05
0.000788758
-6.97551e-05
0.00077774
-7.2011e-05
0.000766434
-7.40387e-05
0.000754888
-7.59495e-05
0.000743114
-7.78967e-05
0.000731088
-8.00474e-05
0.000718751
-8.2545e-05
0.000706024
-8.54696e-05
0.00069283
-8.88073e-05
0.00067912
-9.24363e-05
0.000664883
-9.61368e-05
0.000650154
-9.96207e-05
0.000635004
-0.000102572
0.000619528
-0.000104688
0.000603824
-0.000105704
0.000587984
-0.000105415
0.00057209
-0.000103683
0.000556213
-0.000100446
0.000540419
-9.57287e-05
0.000524773
-8.96491e-05
0.000509346
-8.24188e-05
0.000494215
-7.43333e-05
0.000479463
-6.57491e-05
0.00046517
-5.70514e-05
0.000451403
-4.86133e-05
0.000438205
-4.07349e-05
0.000425545
-3.36305e-05
0.000413366
-2.71575e-05
0.000401275
-2.16493e-05
-1.45293e-05
0.000320758
7.05691e-05
0.000340087
6.06163e-05
0.000357962
6.36468e-05
0.000375207
7.04722e-05
0.000392821
7.53239e-05
0.000410692
7.93152e-05
0.00042876
8.33349e-05
0.000447167
8.70049e-05
0.000465946
9.01469e-05
0.000485034
9.28466e-05
0.000504361
9.51318e-05
0.000523866
9.69655e-05
0.000543472
9.82953e-05
0.000563089
9.90433e-05
0.00058262
9.91199e-05
0.00060199
9.84888e-05
0.000620351
9.3098e-05
0.000637546
8.64876e-05
0.000653638
7.99245e-05
0.000668654
7.33534e-05
0.000682607
6.67998e-05
0.000695514
6.03429e-05
0.000707394
5.4051e-05
0.000718266
4.79537e-05
0.000728144
4.20511e-05
0.000737039
3.63293e-05
0.000744962
3.07694e-05
0.000751921
2.53496e-05
0.000757921
2.00467e-05
0.000762968
1.48452e-05
0.000767069
9.74191e-06
0.00077023
4.74468e-06
0.000772473
-1.41421e-07
0.000773829
-4.88111e-06
0.000774313
-9.47628e-06
0.00077397
-1.38798e-05
0.000772844
-1.80593e-05
0.000770981
-2.20151e-05
0.000768427
-2.57586e-05
0.000765231
-2.93075e-05
0.000761436
-3.26895e-05
0.00075708
-3.59393e-05
0.00075219
-3.90925e-05
0.000746785
-4.21785e-05
0.000740873
-4.5214e-05
0.00073446
-4.81973e-05
0.000727547
-5.11045e-05
0.000720144
-5.38926e-05
0.00071227
-5.65076e-05
0.000703956
-5.88999e-05
0.000695243
-6.1042e-05
0.000686175
-6.29426e-05
0.000676791
-6.4655e-05
0.000667119
-6.62774e-05
0.000657164
-6.7942e-05
0.000646908
-6.97912e-05
0.000636309
-7.19464e-05
0.000625314
-7.44744e-05
0.000613868
-7.73609e-05
0.000601929
-8.04978e-05
0.000589481
-8.36889e-05
0.000576534
-8.66734e-05
0.000563121
-8.91593e-05
0.000549291
-9.08586e-05
0.000535103
-9.15163e-05
0.000520619
-9.09313e-05
0.000505907
-8.8971e-05
0.000491045
-8.55832e-05
0.000476122
-8.0806e-05
0.000461246
-7.47732e-05
0.000446539
-6.77115e-05
0.000432131
-5.9925e-05
0.000418151
-5.177e-05
0.000404719
-4.36193e-05
0.000391924
-3.58184e-05
0.000379829
-2.86395e-05
0.00036841
-2.22111e-05
0.000357665
-1.64131e-05
0.000347118
-1.11025e-05
-4.22069e-06
0.000284047
5.39955e-05
0.000301804
4.28589e-05
0.000317587
4.78637e-05
0.000332894
5.51659e-05
0.00034856
5.96572e-05
0.000364358
6.35176e-05
0.000380324
6.73691e-05
0.000396615
7.0713e-05
0.000413243
7.35193e-05
0.000430156
7.59341e-05
0.000447315
7.79723e-05
0.000464681
7.95992e-05
0.000482194
8.07829e-05
0.000499769
8.1468e-05
0.000517305
8.15836e-05
0.000534701
8.10935e-05
0.000551148
7.66512e-05
0.000566467
7.11685e-05
0.000580697
6.56937e-05
0.000593864
6.01864e-05
0.000605992
5.4672e-05
0.000617114
4.92212e-05
0.000627268
4.38972e-05
0.000636491
3.87301e-05
0.000644819
3.37237e-05
0.00065228
2.88679e-05
0.000658901
2.41481e-05
0.000664704
1.95468e-05
0.000669707
1.50441e-05
0.000673924
1.06281e-05
0.000677367
6.29864e-06
0.000680051
2.06137e-06
0.000681984
-2.07525e-06
0.000683188
-6.08526e-06
0.000683673
-9.96116e-06
0.000683466
-1.36729e-05
0.000682602
-1.71952e-05
0.000681115
-2.05277e-05
0.000679039
-2.3683e-05
0.000676412
-2.66799e-05
0.000673266
-2.95437e-05
0.000669631
-3.23043e-05
0.00066553
-3.4991e-05
0.000660977
-3.76261e-05
0.000655982
-4.02193e-05
0.000650549
-4.27638e-05
0.000644679
-4.52343e-05
0.000638376
-4.75897e-05
0.00063165
-4.97813e-05
0.000624516
-5.17661e-05
0.000616995
-5.35216e-05
0.000609111
-5.50585e-05
0.000600883
-5.64271e-05
0.000592323
-5.77174e-05
0.000583429
-5.90476e-05
0.000574182
-6.05442e-05
0.000564549
-6.23133e-05
0.000554486
-6.44113e-05
0.000543946
-6.68215e-05
0.000532891
-6.94425e-05
0.000521295
-7.20928e-05
0.000509152
-7.45305e-05
0.000496476
-7.64835e-05
0.000483301
-7.76828e-05
0.000469676
-7.78916e-05
0.000455673
-7.69282e-05
0.000441384
-7.4682e-05
0.000426926
-7.11251e-05
0.000412439
-6.63195e-05
0.000398084
-6.0418e-05
0.000384029
-5.36564e-05
0.00037044
-4.63357e-05
0.000357464
-3.87943e-05
0.000345221
-3.13761e-05
0.000333787
-2.43844e-05
0.000323207
-1.80599e-05
0.000313438
-1.24422e-05
0.000304511
-7.48543e-06
0.000295887
-2.47923e-06
3.88664e-06
0.000251798
3.82836e-05
0.000267991
2.66658e-05
0.000281861
3.39937e-05
0.000295502
4.15254e-05
0.000309434
4.5725e-05
0.000323392
4.95594e-05
0.000337522
5.32395e-05
0.000351964
5.62708e-05
0.000366698
5.87856e-05
0.000381678
6.09537e-05
0.000396879
6.2771e-05
0.000412271
6.42076e-05
0.000427807
6.52475e-05
0.000443423
6.58518e-05
0.000459041
6.59658e-05
0.000474573
6.55608e-05
0.000489291
6.19332e-05
0.000503018
5.74414e-05
0.000515777
5.29353e-05
0.000527579
4.83838e-05
0.000538441
4.381e-05
0.000548387
3.92755e-05
0.000557448
3.48367e-05
0.000565656
3.05216e-05
0.000573045
2.63343e-05
0.000579646
2.22671e-05
0.000585486
1.83083e-05
0.000590589
1.44437e-05
0.000594978
1.06553e-05
0.00059867
6.93557e-06
0.000601682
3.28746e-06
0.000604026
-2.82929e-07
0.000605716
-3.7654e-06
0.000606769
-7.13854e-06
0.000607199
-1.03905e-05
0.000607026
-1.34999e-05
0.000606278
-1.64475e-05
0.000604983
-1.9233e-05
0.00060317
-2.18696e-05
0.000600866
-2.43764e-05
0.0005981
-2.67772e-05
0.000594893
-2.90981e-05
0.000591265
-3.13629e-05
0.000587227
-3.35878e-05
0.000582784
-3.57764e-05
0.000577937
-3.79166e-05
0.000572683
-3.99798e-05
0.000567017
-4.19245e-05
0.00056094
-4.37041e-05
0.000554453
-4.52791e-05
0.000547562
-4.66303e-05
0.000540274
-4.77703e-05
0.000532595
-4.87488e-05
0.000524529
-4.96513e-05
0.00051607
-5.05879e-05
0.000507199
-5.16742e-05
0.000497891
-5.30049e-05
0.000488108
-5.46282e-05
0.000477811
-5.65243e-05
0.000466965
-5.85962e-05
0.000455546
-6.06746e-05
0.000443552
-6.25361e-05
0.000431
-6.39321e-05
0.000417938
-6.46202e-05
0.000404439
-6.43929e-05
0.00039061
-6.30989e-05
0.000376586
-6.06585e-05
0.000362533
-5.70717e-05
0.000348634
-5.24208e-05
0.000335083
-4.68671e-05
0.000322067
-4.06403e-05
0.000309751
-3.40197e-05
0.000298266
-2.73085e-05
0.000287697
-2.08076e-05
0.000278082
-1.47697e-05
0.000269429
-9.40656e-06
0.000261658
-4.67082e-06
0.000254821
-6.4872e-07
0.000248374
3.96807e-06
9.68743e-06
0.000223468
2.31979e-05
0.000238065
1.20692e-05
0.000250246
2.18126e-05
0.00026246
2.93108e-05
0.00027484
3.33453e-05
0.000287179
3.7221e-05
0.000299709
4.07089e-05
0.000312534
4.34456e-05
0.000325611
4.57085e-05
0.000338904
4.76613e-05
0.000352391
4.92841e-05
0.000366043
5.05554e-05
0.000379819
5.14711e-05
0.000393667
5.20038e-05
0.000407523
5.21102e-05
0.000421315
5.17685e-05
0.000434398
4.88506e-05
0.000446613
4.5226e-05
0.00045798
4.15685e-05
0.000468509
3.78548e-05
0.000478211
3.41074e-05
0.000487105
3.03818e-05
0.000495213
2.67287e-05
0.000502561
2.31736e-05
0.000509175
1.97204e-05
0.00051508
1.63624e-05
0.000520298
1.30899e-05
0.000524851
9.89085e-06
0.000528759
6.74758e-06
0.000532037
3.65682e-06
0.000534702
6.22468e-07
0.00053677
-2.35007e-06
0.000538252
-5.24791e-06
0.000539165
-8.05107e-06
0.00053952
-1.07453e-05
0.000539333
-1.33133e-05
0.000538625
-1.57398e-05
0.000537417
-1.80247e-05
0.000535728
-2.01812e-05
0.00053358
-2.22284e-05
0.000530992
-2.41884e-05
0.000527977
-2.60838e-05
0.000524548
-2.79337e-05
0.000520709
-2.97487e-05
0.000516459
-3.15267e-05
0.000511793
-3.32507e-05
0.000506703
-3.48892e-05
0.000501179
-3.64004e-05
0.000495214
-3.77397e-05
0.000488807
-3.88719e-05
0.00048196
-3.97827e-05
0.000474678
-4.04889e-05
0.000466971
-4.10418e-05
0.000458845
-4.15252e-05
0.000450301
-4.20434e-05
0.000441329
-4.27029e-05
0.000431913
-4.35886e-05
0.000422025
-4.47405e-05
0.000411637
-4.61361e-05
0.000400724
-4.76833e-05
0.000389276
-4.92261e-05
0.000377303
-5.05632e-05
0.000364845
-5.14744e-05
0.000351975
-5.17501e-05
0.000338799
-5.12171e-05
0.000325458
-4.97577e-05
0.000312121
-4.73211e-05
0.000298977
-4.39279e-05
0.000286226
-3.96697e-05
0.00027406
-3.47016e-05
0.000262652
-2.92318e-05
0.000252136
-2.35042e-05
0.000242604
-1.77764e-05
0.000234098
-1.23013e-05
0.000226607
-7.27912e-06
0.000220103
-2.90204e-06
0.000214469
9.62684e-07
0.000209769
4.05115e-06
0.000205534
8.20314e-06
1.32668e-05
0.00019856
8.56698e-06
0.000211522
-8.91878e-07
0.000222268
1.10659e-05