/*--------------------------------*- C++ -*----------------------------------*\
| =========                 |                                                 |
| \\      /  F ield         | OpenFOAM: The Open Source CFD Toolbox           |
|  \\    /   O peration     | Version:  v1912                                 |
|   \\  /    A nd           | Website:  www.openfoam.com                      |
|    \\/     M anipulation  |                                                 |
\*---------------------------------------------------------------------------*/
FoamFile
{
    version     2.0;
    format      ascii;
    class       volVectorField;
    location    "425";
    object      U;
}
// * * * * * * * * * * * * * * * * * * * * * * * * * * * * * * * * * * * * * //

dimensions      [0 1 -1 0 0 0 0];


internalField   nonuniform List<vector> 
2000
(
(0.84616 0.187394 0)
(0.515132 0.124089 0)
(0.223445 0.0684423 0)
(0.0598034 0.0174441 6.19744e-20)
(-0.00455667 -0.0232169 1.20568e-17)
(-0.0642184 -0.0384649 1.04123e-17)
(-0.0776223 -0.0372459 0)
(-0.0716114 -0.0167268 0)
(-0.059059 0.0115461 0)
(-0.0420666 0.0252881 2.36469e-17)
(-0.0414832 0.0108031 -1.44875e-17)
(-0.0273212 -0.000929372 -1.36052e-17)
(-0.0160978 -0.00299196 0)
(-0.0193041 -0.00265676 0)
(-0.0206699 -0.0019749 -1.08156e-17)
(-0.0147693 0.000584855 0)
(-0.00755112 0.0033021 9.74546e-18)
(-0.00657335 0.00652557 3.95214e-21)
(-0.00766588 0.00616328 9.42532e-18)
(-0.00841297 0.00478138 -4.65232e-18)
(-0.00836896 0.00270536 9.19828e-18)
(-0.00749236 0.000904148 0)
(-0.0058879 0.000152029 0)
(-0.00412792 -5.4642e-05 7.21497e-23)
(-0.00267559 -9.41209e-05 0)
(-0.00164234 -0.000115235 -4.51068e-18)
(-0.00103352 -0.000191479 0)
(-0.000725261 -0.000356209 4.52055e-18)
(-0.000526441 -0.000544499 0)
(-0.000283206 -0.00064216 0)
(2.2481e-05 -0.000648116 0)
(0.000375933 -0.000625174 1.15023e-18)
(0.00075939 -0.000620536 0)
(0.00116314 -0.000652777 -5.83542e-19)
(0.00156822 -0.00072059 1.94736e-14)
(0.00194435 -0.000813729 1.94565e-14)
(0.00225941 -0.000914192 6.01553e-19)
(0.00248599 -0.00099979 -6.09086e-19)
(0.00257706 -0.00105951 0)
(0.00247556 -0.0011017 2.50488e-18)
(0.00213804 -0.00111761 0)
(0.00153253 -0.00110652 -2.58525e-18)
(0.000623342 -0.00106885 0)
(-0.000642158 -0.00101929 -5.34829e-18)
(-0.00230829 -0.000991446 2.71354e-18)
(-0.00439901 -0.00105259 0)
(-0.00698075 -0.00123167 0)
(-0.0101783 -0.00145033 -2.83641e-18)
(-0.0142558 -0.00143323 0)
(-0.0197517 -0.000621447 2.9088e-18)
(-0.0275699 0.00167183 0)
(-0.0389338 0.00579606 5.8863e-18)
(-0.0552158 0.0112985 -5.85306e-18)
(-0.0775858 0.0167726 5.7545e-18)
(-0.106408 0.0203963 -2.766e-18)
(-0.140906 0.0205415 0)
(-0.179249 0.0160389 2.38622e-18)
(-0.218742 0.00654349 -2.13975e-18)
(-0.255804 -0.00716553 -4.19777e-18)
(-0.285724 -0.023116 3.42549e-18)
(-0.303565 -0.0382643 -3.3475e-18)
(-0.307381 -0.0492509 3.54357e-18)
(-0.301759 -0.0556705 -3.99832e-18)
(-0.287745 -0.0588118 4.76196e-18)
(-0.266142 -0.0598085 -1.20827e-20)
(-0.237845 -0.0594233 7.04798e-18)
(-0.203232 -0.0579087 0)
(-0.162427 -0.0552604 0)
(-0.115633 -0.0514551 7.95922e-20)
(-0.0635374 -0.0465167 0)
(-0.00740497 -0.0403788 1.96846e-17)
(0.0524186 -0.0326726 0)
(0.116387 -0.0232272 1.98635e-17)
(0.183839 -0.0121925 -4.9131e-19)
(0.254003 0.000170143 1.71786e-17)
(0.328145 0.0135365 2.99027e-17)
(0.402728 0.0275123 7.38635e-19)
(0.490916 0.0416324 -1.01717e-17)
(0.557297 0.0542025 -6.5476e-18)
(0.714477 0.0650629 0)
(1.0153 0.210384 0)
(0.944633 0.194213 0)
(0.804472 0.179986 -3.52598e-18)
(0.654416 0.152316 7.28207e-18)
(0.509216 0.111173 0)
(0.360027 0.0683778 -7.28134e-18)
(0.216485 0.0293369 0)
(0.0821306 -0.00528654 0)
(-0.0282768 -0.0180479 0)
(-0.0562971 -0.0188665 -1.72905e-17)
(-0.0668719 -0.0248128 1.57272e-17)
(-0.0720878 -0.0158791 1.44231e-17)
(-0.0641997 0.0060987 0)
(-0.0517603 0.0196644 6.31071e-18)
(-0.0558078 0.00830538 0)
(-0.0498347 -0.00448256 0)
(-0.0387596 -0.00526967 0)
(-0.0328553 -0.00183974 5.2592e-18)
(-0.0359847 0.000359094 -1.03239e-17)
(-0.0377161 0.000519962 -5.08834e-18)
(-0.0380103 0.000101167 0)
(-0.0365649 -0.000563891 0)
(-0.0334596 -0.00131354 0)
(-0.029957 -0.00160148 -7.42931e-18)
(-0.0266857 -0.00134685 0)
(-0.0238926 -0.000722651 4.96477e-18)
(-0.0217639 1.48665e-05 2.48972e-18)
(-0.0204276 0.000534454 0)
(-0.0199561 0.000625831 0)
(-0.0202248 0.000455344 0)
(-0.0210025 0.000193836 0)
(-0.0220439 -5.98097e-05 -6.33318e-19)
(-0.0231978 -0.000283329 0)
(-0.0243874 -0.000455256 3.2051e-19)
(-0.0256062 -0.000539432 1.61416e-19)
(-0.0269013 -0.000501599 0)
(-0.0283368 -0.000322901 0)
(-0.029966 -1.32502e-05 6.63734e-19)
(-0.0318249 0.000405607 0)
(-0.0339516 0.000918284 -1.35516e-18)
(-0.0363958 0.00153441 0)
(-0.0392137 0.00226127 -1.38575e-18)
(-0.042446 0.00309292 0)
(-0.0461152 0.00399841 1.41046e-18)
(-0.0502101 0.00493861 1.42753e-18)
(-0.054683 0.0059169 0)
(-0.0594695 0.00706639 0)
(-0.0645021 0.00870547 -2.94259e-18)
(-0.069703 0.0113272 0)
(-0.0749794 0.0155179 5.2132e-21)
(-0.0802854 0.0218703 0)
(-0.0857357 0.0306385 0)
(-0.0916793 0.0412239 0)
(-0.0985466 0.0520197 0)
(-0.106209 0.0608173 6.08977e-18)
(-0.113324 0.0653767 0)
(-0.117647 0.0637492 -5.62378e-18)
(-0.117179 0.0547936 2.72818e-18)
(-0.110481 0.0390764 -2.40986e-18)
(-0.0943107 0.0192652 -5.03771e-18)
(-0.0633683 -0.00256614 5.15864e-18)
(-0.0426635 -0.0277727 -5.64442e-18)
(-0.0189175 -0.0488541 6.54145e-18)
(0.00890386 -0.063787 0)
(0.039281 -0.0742879 -1.28228e-17)
(0.0730702 -0.0819283 -9.53532e-18)
(0.111114 -0.0875314 0)
(0.153722 -0.0911102 5.6574e-18)
(0.200618 -0.092305 1.24004e-17)
(0.251255 -0.0908137 0)
(0.304969 -0.0864756 0)
(0.361134 -0.0792042 0)
(0.419235 -0.069119 0)
(0.478962 -0.0565511 -1.35773e-17)
(0.540031 -0.0420587 5.92326e-18)
(0.603264 -0.026343 -1.17676e-17)
(0.667062 -0.0103838 1.017e-17)
(0.739183 0.00475656 -3.47029e-18)
(0.79639 0.0165529 0)
(0.912365 0.0223203 0)
(0.978489 0.201539 0)
(0.978855 0.193009 -2.78256e-18)
(0.969154 0.205116 3.47848e-18)
(0.939081 0.208538 -3.05754e-18)
(0.878029 0.194615 2.88214e-18)
(0.785597 0.168728 2.84009e-18)
(0.669337 0.138087 0)
(0.540992 0.106025 0)
(0.408195 0.0750629 0)
(0.285886 0.0459383 6.86013e-18)
(0.17378 0.0180349 0)
(0.0721833 -0.00634708 0)
(-0.0212707 -0.0138339 0)
(-0.0469618 -0.00358944 -7.17346e-18)
(-0.0514489 -0.0116884 0)
(-0.0602412 -0.018398 -6.02415e-18)
(-0.0618015 -0.0116903 0)
(-0.051687 0.00790454 5.8429e-18)
(-0.049169 0.0154092 2.86035e-18)
(-0.0534451 0.0117388 0)
(-0.0553068 0.00550659 -2.77937e-18)
(-0.0566056 -0.000608492 0)
(-0.0564309 -0.00456359 0)
(-0.0546896 -0.00602463 5.4294e-18)
(-0.0523538 -0.00588356 0)
(-0.0505693 -0.00494831 1.35955e-18)
(-0.0500068 -0.00349757 -4.08358e-18)
(-0.0506561 -0.00160281 0)
(-0.0519876 0.000282079 0)
(-0.0535436 0.00165575 -6.81998e-19)
(-0.0553443 0.00253727 0)
(-0.05729 0.00299146 -8.2533e-23)
(-0.0592726 0.00313505 0)
(-0.0612105 0.0031169 6.90281e-19)
(-0.0630795 0.00309575 8.68064e-20)
(-0.0649139 0.0031553 0)
(-0.0667704 0.00334992 1.76468e-19)
(-0.0687019 0.00367915 -3.56301e-19)
(-0.0707321 0.00414826 -3.59931e-19)
(-0.0728603 0.00477514 -7.27552e-19)
(-0.0750806 0.00556514 7.35536e-19)
(-0.0773985 0.00651281 7.39752e-19)
(-0.0798279 0.00758137 0)
(-0.0823552 0.00869815 1.51567e-18)
(-0.0848718 0.00978166 -3.06838e-18)
(-0.0871156 0.0107868 0)
(-0.0886489 0.0117719 -1.57493e-18)
(-0.0888931 0.0130115 3.20984e-18)
(-0.0872358 0.0150855 0)
(-0.0829875 0.0185265 -1.68388e-18)
(-0.0753877 0.0239133 1.75146e-18)
(-0.0638273 0.0315976 -1.82353e-18)
(-0.0479242 0.0409692 -1.90225e-18)
(-0.0277222 0.0506279 0)
(-0.00352187 0.0584652 -3.9855e-18)
(0.0246242 0.0620778 -1.92683e-18)
(0.0565915 0.0591976 1.67809e-18)
(0.0905175 0.0487438 1.58653e-18)
(0.12513 0.02965 2.66939e-18)
(0.157667 0.00408672 0)
(0.188413 -0.0218447 0)
(0.216282 -0.0437533 0)
(0.244093 -0.0618007 -1.3268e-18)
(0.275001 -0.0772299 0)
(0.310268 -0.0907602 3.19559e-18)
(0.349526 -0.102486 0)
(0.391874 -0.112091 -1.96144e-18)
(0.436428 -0.119054 -4.3961e-18)
(0.482368 -0.122839 0)
(0.528992 -0.123076 -2.44355e-18)
(0.575773 -0.119658 2.5508e-18)
(0.622413 -0.112778 0)
(0.668827 -0.102925 0)
(0.715179 -0.0908003 0)
(0.7617 -0.077273 -5.39469e-18)
(0.809258 -0.0633097 0)
(0.857152 -0.0501458 -1.88222e-18)
(0.910319 -0.0389235 3.37187e-18)
(0.953282 -0.0320986 0)
(1.03563 -0.0309222 3.93381e-19)
(0.970611 0.209118 0)
(0.963917 0.194768 1.5233e-18)
(0.966431 0.198519 0)
(0.977153 0.206415 1.69279e-18)
(0.982035 0.208895 -3.00089e-18)
(0.968293 0.204278 -1.33944e-18)
(0.930743 0.193737 0)
(0.870742 0.177887 0)
(0.791101 0.156591 0)
(0.695368 0.131348 1.34946e-18)
(0.589415 0.105433 1.38105e-18)
(0.479989 0.0807161 0)
(0.369199 0.0580309 0)
(0.266636 0.0376679 0)
(0.179616 0.018597 0)
(0.100362 0.00273486 6.38678e-18)
(0.0294989 -0.0097996 -3.37841e-18)
(-0.0314562 -0.00950067 0)
(-0.0353536 0.000344462 -3.27055e-18)
(-0.0376413 0.00194469 1.61007e-18)
(-0.0383211 0.000717997 3.19323e-18)
(-0.0399323 -0.00200554 0)
(-0.0432392 -0.00461517 0)
(-0.0471988 -0.00568706 -3.10065e-18)
(-0.0502111 -0.00457012 0)
(-0.0516558 -0.00164037 -1.53773e-18)
(-0.0525324 0.00196197 1.53917e-18)
(-0.0544664 0.00458998 0)
(-0.0563023 0.00588171 0)
(-0.0583452 0.00650595 7.65272e-19)
(-0.0602275 0.00661291 0)
(-0.0618924 0.00632799 -7.67841e-19)
(-0.0632612 0.00578441 0)
(-0.0642803 0.0051517 -1.94332e-19)
(-0.0650072 0.00465867 -9.78235e-20)
(-0.0654567 0.00443755 -2.4674e-20)
(-0.0656528 0.00454857 -2.99591e-19)
(-0.0655519 0.00496118 4.04432e-19)
(-0.0650767 0.00562051 4.09979e-19)
(-0.0641627 0.00648557 1.24927e-18)
(-0.0627649 0.0075248 -4.21693e-19)
(-0.0608605 0.00870894 4.28733e-19)
(-0.0584442 0.00997686 0)
(-0.0554749 0.0111735 8.94372e-19)
(-0.0518399 0.0120037 9.08944e-19)
(-0.0473207 0.012078 0)
(-0.0415185 0.0110455 1.91262e-18)
(-0.0338342 0.00882195 9.83947e-19)
(-0.0239551 0.00566229 0)
(-0.0115081 0.00244577 -3.20228e-18)
(0.00481342 -0.000162332 -2.20174e-18)
(0.0260962 -0.00138004 1.10312e-18)
(0.0523212 -0.00112714 2.1604e-18)
(0.0839614 -4.6505e-05 0)
(0.121072 0.000522248 9.90425e-19)
(0.162871 -0.0011382 2.73517e-18)
(0.208082 -0.00665009 1.63289e-18)
(0.254723 -0.016771 -1.44273e-18)
(0.302022 -0.0306637 -6.68798e-19)
(0.348089 -0.0469105 0)
(0.392416 -0.0647329 0)
(0.435036 -0.0828493 0)
(0.476833 -0.100216 1.73869e-18)
(0.518748 -0.116263 6.4982e-19)
(0.560872 -0.13058 0)
(0.602595 -0.142645 -1.55418e-18)
(0.643169 -0.151845 1.71855e-18)
(0.682021 -0.157632 -1.85163e-18)
(0.718828 -0.159657 -1.99675e-18)
(0.753517 -0.15784 1.22968e-19)
(0.786264 -0.152391 -2.39265e-18)
(0.817469 -0.143787 0)
(0.847688 -0.13271 0)
(0.877607 -0.11997 0)
(0.907853 -0.106465 0)
(0.939356 -0.093124 0)
(0.971799 -0.081044 3.66907e-18)
(1.00853 -0.0711035 -1.34262e-18)
(1.03871 -0.0652953 0)
(1.09583 -0.0633223 -4.24207e-19)
(0.972988 0.216083 0)
(0.965832 0.201811 1.86876e-18)
(0.959207 0.195605 2.4899e-19)
(0.96149 0.195553 1.90541e-18)
(0.97267 0.197546 0)
(0.985523 0.199248 -1.60584e-18)
(0.9925 0.199311 0)
(0.988452 0.196271 -3.62159e-19)
(0.97021 0.189056 0)
(0.935614 0.177594 -1.60409e-18)
(0.884702 0.162789 -1.24153e-18)
(0.819575 0.145706 -3.15026e-19)
(0.743253 0.126764 3.12665e-19)
(0.658016 0.106136 0)
(0.569092 0.085301 3.12555e-19)
(0.479311 0.0662639 0)
(0.393416 0.0502877 2.6484e-18)
(0.314064 0.036395 -3.50497e-19)
(0.246941 0.0243573 0)
(0.192018 0.0147683 -1.89583e-18)
(0.147093 0.0078724 0)
(0.10962 0.00328954 0)
(0.0785199 0.000679932 0)
(0.0522356 -0.000853337 0)
(0.0303486 -0.00195281 -2.21915e-19)
(0.0134124 -0.00248094 0)
(0.00014792 -0.00176902 0)
(-0.00501939 0.000411371 1.15263e-19)
(-0.00715946 0.00206194 0)
(-0.00703622 0.00328217 0)
(-0.00554929 0.00403507 0)
(-0.00328446 0.00437715 -5.8435e-20)
(-0.00063185 0.00437329 0)
(0.00274162 0.00402521 -2.67506e-19)
(0.00585741 0.00423739 0)
(0.00962645 0.0044501 3.01036e-20)
(0.0140303 0.00444171 1.51383e-19)
(0.0194102 0.00438378 3.04503e-20)
(0.0259289 0.00420916 -6.12487e-20)
(0.0336911 0.00391917 -4.91617e-19)
(0.0428079 0.00358316 -4.92804e-19)
(0.0534333 0.00322351 4.92898e-19)
(0.0657712 0.00277381 -1.23154e-19)
(0.0800772 0.00209422 -9.76978e-19)
(0.0965065 0.00099176 9.67379e-19)
(0.115191 -0.000773903 -1.19409e-19)
(0.136316 -0.0034038 0)
(0.159456 -0.00695207 -9.27622e-19)
(0.18429 -0.0114789 0)
(0.211452 -0.016753 8.99897e-19)
(0.240793 -0.0222648 0)
(0.272242 -0.0276434 8.78353e-19)
(0.306015 -0.0326898 0)
(0.342423 -0.0374606 -2.10084e-19)
(0.381693 -0.0423605 -8.0679e-19)
(0.423775 -0.0480876 -7.56927e-19)
(0.468199 -0.0554397 1.77325e-19)
(0.514026 -0.0650724 0)
(0.559934 -0.0774544 5.65812e-19)
(0.604538 -0.0921991 -1.42012e-19)
(0.646984 -0.108464 0)
(0.686878 -0.12503 1.40111e-19)
(0.724114 -0.140707 -5.42112e-19)
(0.758655 -0.15466 -5.92886e-19)
(0.790326 -0.166312 0)
(0.818861 -0.175177 1.46582e-18)
(0.844098 -0.180842 0)
(0.86612 -0.18305 1.80829e-18)
(0.885275 -0.181763 1.9833e-18)
(0.902136 -0.177171 2.14724e-18)
(0.917442 -0.16968 2.67812e-19)
(0.932028 -0.159858 0)
(0.946745 -0.148392 0)
(0.962417 -0.136027 0)
(0.979691 -0.123539 -2.67892e-19)
(0.999337 -0.111697 0)
(1.021 -0.101345 -1.67007e-18)
(1.04718 -0.0931591 1.64541e-18)
(1.06906 -0.0884186 1.03615e-19)
(1.1125 -0.0869461 4.49386e-20)
(0.974194 0.218515 -1.23116e-18)
(0.970935 0.206366 1.19163e-18)
(0.965119 0.198177 -2.81754e-19)
(0.96114 0.194119 0)
(0.962199 0.191951 0)
(0.968264 0.190556 0)
(0.977778 0.1899 0)
(0.98851 0.189502 1.2511e-18)
(0.99744 0.188336 0)
(1.00094 0.185394 -1.11843e-18)
(0.995779 0.18 -1.39409e-18)
(0.979842 0.171956 3.19597e-19)
(0.952669 0.161491 9.6539e-19)
(0.914319 0.148698 0)
(0.865617 0.133778 -1.47274e-18)
(0.808207 0.117869 0)
(0.746029 0.102484 -1.17713e-18)
(0.683611 0.087986 2.94345e-19)
(0.622853 0.0743964 -1.23128e-18)
(0.565782 0.0621138 -9.4828e-19)
(0.513235 0.051345 0)
(0.465547 0.0420776 0)
(0.4229 0.0341861 -6.82033e-19)
(0.385244 0.0275714 0)
(0.352448 0.0220976 -5.41921e-19)
(0.324302 0.017589 0)
(0.300368 0.0137715 0)
(0.280471 0.0104076 -9.56336e-20)
(0.264504 0.00755376 0)
(0.25218 0.00522612 0)
(0.243204 0.00332887 0)
(0.237295 0.00172221 5.04148e-20)
(0.234088 0.000270489 2.04039e-19)
(0.233484 -0.00104624 1.28453e-19)
(0.235303 -0.00273432 0)
(0.239504 -0.00471722 0)
(0.245868 -0.00680345 -2.5893e-20)
(0.254507 -0.0089004 -1.30047e-19)
(0.265369 -0.0109738 5.18177e-20)
(0.278362 -0.0130365 0)
(0.293424 -0.0151353 0)
(0.310535 -0.01734 -2.06252e-19)
(0.329717 -0.0197457 1.01544e-19)
(0.351 -0.0224872 -4.04418e-19)
(0.374371 -0.0257407 3.98585e-19)
(0.399721 -0.0296935 9.69911e-20)
(0.426809 -0.0344704 0)
(0.455294 -0.0400558 3.79055e-19)
(0.484846 -0.0461857 0)
(0.515248 -0.052631 0)
(0.546265 -0.0591211 0)
(0.577758 -0.0653852 0)
(0.609747 -0.0712876 0)
(0.642327 -0.0769289 1.7666e-19)
(0.675546 -0.0826725 0)
(0.70929 -0.0890803 6.75997e-19)
(0.743192 -0.0967626 -1.55945e-19)
(0.776614 -0.106176 0)
(0.808718 -0.117421 5.95492e-19)
(0.838646 -0.130062 1.32108e-19)
(0.86571 -0.143313 5.79966e-19)
(0.889466 -0.15626 -1.35136e-19)
(0.909705 -0.168049 0)
(0.926416 -0.178023 -6.65605e-19)
(0.939722 -0.18572 0)
(0.949855 -0.190812 0)
(0.957195 -0.193093 -8.46927e-19)
(0.962305 -0.192508 0)
(0.965912 -0.189174 0)
(0.968842 -0.18337 -1.05181e-18)
(0.97195 -0.175508 -2.92206e-19)
(0.976056 -0.166099 0)
(0.981887 -0.155711 0)
(0.990072 -0.144939 0)
(1.00102 -0.134383 2.9928e-19)
(1.01523 -0.124627 -1.02292e-18)
(1.03217 -0.116285 -2.38925e-19)
(1.05389 -0.109849 -1.87732e-19)
(1.07229 -0.106091 -1.17344e-19)
(1.11048 -0.105019 -2.39531e-19)
(0.974501 0.219011 4.3506e-18)
(0.973757 0.208038 -4.17749e-18)
(0.971715 0.200429 0)
(0.96916 0.196217 -2.53452e-18)
(0.967055 0.192945 0)
(0.966169 0.189323 -2.23472e-18)
(0.967425 0.185832 0)
(0.971677 0.183027 2.97578e-18)
(0.978989 0.180755 -3.69469e-18)
(0.9883 0.178517 1.68692e-18)
(0.997715 0.175815 1.57696e-18)
(1.005 0.172202 0)
(1.00815 0.167323 -4.26448e-18)
(1.00549 0.160757 -2.71577e-18)
(0.995631 0.152158 3.81644e-18)
(0.977826 0.141833 0)
(0.953067 0.13065 1.16865e-18)
(0.923767 0.119354 0)
(0.89171 0.108129 1.16493e-18)
(0.858184 0.0969715 1.16473e-18)
(0.824228 0.0860879 0)
(0.790827 0.0757535 0)
(0.758853 0.0661733 -6.3833e-19)
(0.728976 0.0574546 0)
(0.701636 0.0495772 6.20116e-19)
(0.677053 0.0424599 0)
(0.65535 0.0360162 0)
(0.636566 0.030165 0)
(0.62075 0.0248137 0)
(0.607866 0.0198638 0)
(0.597867 0.0152103 0)
(0.590702 0.0107569 0)
(0.586296 0.00641726 1.76367e-19)
(0.584506 0.00213191 -8.54658e-20)
(0.585053 -0.00223095 4.37618e-20)
(0.587977 -0.00667069 0)
(0.593116 -0.0110769 0)
(0.600261 -0.015432 8.61371e-20)
(0.609248 -0.0197702 -3.5264e-19)
(0.619954 -0.0241223 3.53122e-19)
(0.632283 -0.0285169 0)
(0.646161 -0.0329976 8.78629e-19)
(0.661519 -0.037634 -7.044e-19)
(0.678271 -0.0425229 -3.59226e-19)
(0.696288 -0.0477719 -3.39939e-19)
(0.715373 -0.0534678 0)
(0.735256 -0.0596321 0)
(0.755619 -0.0661841 -1.01972e-18)
(0.776148 -0.0729447 0)
(0.796589 -0.0797199 0)
(0.816755 -0.0863085 0)
(0.836551 -0.0925463 6.93043e-19)
(0.85598 -0.0983922 1.39026e-18)
(0.875095 -0.103979 0)
(0.893921 -0.109604 0)
(0.912371 -0.115664 -6.55842e-19)
(0.930188 -0.122547 0)
(0.946935 -0.130493 1.31613e-18)
(0.962054 -0.13949 6.96121e-19)
(0.974967 -0.149228 0)
(0.985223 -0.159174 7.09451e-19)
(0.992587 -0.168698 1.35381e-18)
(0.997072 -0.177182 1.4198e-18)
(0.998912 -0.184121 7.17277e-19)
(0.998503 -0.189158 -1.61718e-18)
(0.99635 -0.192076 1.74131e-18)
(0.99305 -0.19278 2.81363e-18)
(0.989271 -0.191294 0)
(0.985726 -0.187759 0)
(0.983117 -0.182426 1.18184e-18)
(0.982091 -0.175627 0)
(0.983205 -0.167758 2.47301e-18)
(0.986903 -0.159252 2.50631e-18)
(0.993541 -0.150568 0)
(1.0033 -0.142173 2.38055e-18)
(1.01647 -0.134522 -1.03092e-18)
(1.03243 -0.128081 0)
(1.05306 -0.123214 0)
(1.07056 -0.120413 0)
(1.10719 -0.11977 -1.9149e-19)
(0.974733 0.218939 -3.35146e-18)
(0.975458 0.208203 3.20832e-18)
(0.976057 0.201062 -6.23107e-18)
(0.975937 0.197372 2.86654e-18)
(0.974877 0.194467 0)
(0.973203 0.190796 2.5274e-18)
(0.971492 0.186597 -4.83805e-18)
(0.97048 0.182355 -4.4854e-18)
(0.971005 0.178151 -7.91561e-20)
(0.973721 0.173978 0)
(0.978833 0.169904 0)
(0.986004 0.1659 3.59169e-18)
(0.994419 0.161734 3.28677e-18)
(1.00291 0.156991 -3.27246e-18)
(1.01004 0.151275 -8.88204e-18)
(1.01436 0.14449 0)
(1.01498 0.136937 0)
(1.01194 0.128915 0)
(1.00572 0.120415 0)
(0.99678 0.111426 0)
(0.985637 0.102153 0)
(0.972916 0.0928765 0)
(0.9593 0.0838094 1.23808e-18)
(0.945418 0.0750666 -2.58312e-18)
(0.931791 0.0666823 0)
(0.918822 0.058661 0)
(0.906832 0.051 0)
(0.896071 0.0436685 0)
(0.886714 0.0365995 0)
(0.878874 0.0297347 -6.61423e-19)
(0.872628 0.0230272 0)
(0.868012 0.0164277 0)
(0.865025 0.00989247 1.27302e-20)
(0.863577 0.00334277 0)
(0.863538 -0.00303557 -4.08283e-20)
(0.864822 -0.00927378 0)
(0.867321 -0.0154093 1.70371e-19)
(0.870913 -0.0214393 0)
(0.875504 -0.0273544 6.73936e-19)
(0.88102 -0.0331598 -3.32226e-19)
(0.887389 -0.0388811 -6.92505e-19)
(0.894536 -0.0445668 -6.70187e-19)
(0.902376 -0.0502844 6.72297e-19)
(0.910803 -0.0561111 6.73759e-19)
(0.919677 -0.0621169 1.40253e-18)
(0.928818 -0.0683408 1.40614e-18)
(0.938012 -0.0747683 0)
(0.947037 -0.0813177 -7.37619e-19)
(0.955695 -0.0878495 0)
(0.963857 -0.0942074 0)
(0.971464 -0.100253 -1.45827e-18)
(0.978534 -0.105904 -7.12092e-19)
(0.985148 -0.111173 4.93887e-20)
(0.991408 -0.116193 0)
(0.997383 -0.121203 0)
(1.00304 -0.126494 0)
(1.00823 -0.13234 1.50742e-18)
(1.01265 -0.138903 -1.4244e-18)
(1.01595 -0.146171 -1.417e-18)
(1.01778 -0.153929 0)
(1.01791 -0.161794 -1.45359e-18)
(1.01629 -0.169296 9.32194e-20)
(1.01307 -0.175971 -1.59123e-18)
(1.00855 -0.181438 1.76682e-18)
(1.00318 -0.185428 -4.97246e-20)
(0.99745 -0.187784 -1.97301e-18)
(0.991873 -0.188441 -2.13002e-18)
(0.986971 -0.187414 0)
(0.983242 -0.1848 0)
(0.981135 -0.18077 0)
(0.981034 -0.175565 0)
(0.983248 -0.169481 -2.80654e-18)
(0.988015 -0.162862 -2.84241e-18)
(0.995533 -0.156084 0)
(1.00588 -0.149546 -2.69748e-18)
(1.01931 -0.143634 4.8631e-18)
(1.03522 -0.138732 0)
(1.05546 -0.135102 0)
(1.07257 -0.133108 0)
(1.10812 -0.13268 9.06875e-19)
(0.975035 0.218503 8.33308e-18)
(0.977128 0.207478 0)
(0.979624 0.200812 1.4262e-17)
(0.980944 0.197725 0)
(0.980749 0.195185 6.20762e-18)
(0.979841 0.191829 0)
(0.978661 0.187917 5.46727e-18)
(0.977189 0.183677 0)
(0.975615 0.179013 -5.03104e-18)
(0.974455 0.173922 0)
(0.974294 0.16858 8.86989e-18)
(0.975612 0.163148 -4.10553e-18)
(0.978709 0.157662 0)
(0.983604 0.15202 7.29566e-18)
(0.989951 0.146073 -1.87185e-19)
(0.997091 0.139738 -6.66991e-18)
(1.00416 0.133153 6.46401e-18)
(1.01047 0.126405 0)
(1.01566 0.119354 0)
(1.01946 0.111907 6.07508e-18)
(1.02175 0.104133 0)
(1.02258 0.0961734 -2.95613e-18)
(1.02216 0.088149 0)
(1.02075 0.0801358 2.80071e-18)
(1.01865 0.0721793 0)
(1.01611 0.0643103 2.89362e-18)
(1.01336 0.0565464 0)
(1.0106 0.0488833 0)
(1.00799 0.0413025 1.4458e-18)
(1.00566 0.033791 6.9473e-19)
(1.00368 0.0263401 0)
(1.00212 0.0189393 0)
(1.00097 0.0115852 -1.08426e-18)
(1.00027 0.00429256 0)
(0.999942 -0.00282542 0)
(0.999922 -0.00979002 0)
(1.0002 -0.0166241 -1.77692e-19)
(1.00077 -0.0233091 0)
(1.00161 -0.029828 -1.10738e-18)
(1.00269 -0.0361882 -7.52748e-19)
(1.00402 -0.0424175 7.28554e-19)
(1.00555 -0.0485576 0)
(1.00726 -0.054658 0)
(1.00908 -0.0607683 1.54691e-18)
(1.01093 -0.066927 -1.49805e-18)
(1.0127 -0.0731472 -1.5088e-18)
(1.01427 -0.0794042 0)
(1.01554 -0.0856307 -6.09944e-20)
(1.01642 -0.0917269 1.61579e-18)
(1.0169 -0.0975882 0)
(1.01701 -0.103136 1.60321e-18)
(1.01686 -0.10834 1.68379e-18)
(1.01655 -0.113241 -1.65341e-18)
(1.01623 -0.117964 0)
(1.01597 -0.122698 0)
(1.01577 -0.127666 0)
(1.01554 -0.133066 -1.69714e-18)
(1.01507 -0.139012 0)
(1.01413 -0.145489 0)
(1.01251 -0.152337 0)
(1.01007 -0.159272 3.70685e-18)
(1.00682 -0.165945 -1.82554e-18)
(1.00289 -0.172007 0)
(0.998533 -0.177154 -2.0152e-18)
(0.994084 -0.181158 -2.23491e-18)
(0.989896 -0.183864 4.61977e-18)
(0.986321 -0.185181 -4.88134e-18)
(0.983694 -0.185083 -5.1492e-18)
(0.982318 -0.183611 0)
(0.982454 -0.180876 -5.64789e-18)
(0.984327 -0.177058 0)
(0.988126 -0.172402 0)
(0.994012 -0.167214 0)
(1.00216 -0.161839 5.92163e-18)
(1.01266 -0.15665 -5.67205e-18)
(1.02581 -0.152005 -7.91468e-18)
(1.04113 -0.148235 0)
(1.06047 -0.145526 3.5723e-18)
(1.07682 -0.144131 0)
(1.11076 -0.143776 -1.49119e-18)
(0.975434 0.217691 -9.45226e-18)
(0.979143 0.206092 -9.20105e-18)
(0.983424 0.200248 -1.64262e-17)
(0.985582 0.198 0)
(0.985488 0.195685 -1.41146e-17)
(0.98479 0.192422 -6.72395e-18)
(0.984206 0.188737 0)
(0.983461 0.184734 1.19831e-17)
(0.982365 0.180212 1.11857e-17)
(0.981049 0.175118 0)
(0.979726 0.169544 -1.00313e-17)
(0.978635 0.163585 0)
(0.978093 0.157304 0)
(0.978433 0.150726 8.69546e-18)
(0.979876 0.143853 8.05802e-18)
(0.982482 0.136718 -1.82495e-19)
(0.986104 0.129533 1.84563e-19)
(0.990469 0.122453 0)
(0.995284 0.115376 0)
(1.0002 0.108187 -6.96113e-18)
(1.00489 0.100864 -7.0531e-18)
(1.00912 0.0934462 1.03381e-17)
(1.0128 0.0859812 3.4463e-18)
(1.01592 0.0785004 3.41861e-18)
(1.0185 0.0710225 0)
(1.02059 0.0635584 -3.26862e-18)
(1.02225 0.0561131 0)
(1.02354 0.0486839 0)
(1.02452 0.0412643 -3.30217e-18)
(1.02522 0.0338507 0)
(1.02569 0.0264444 0)
(1.02594 0.0190524 0)
(1.02597 0.0116908 8.18058e-19)
(1.0258 0.00441649 -4.26522e-19)
(1.02546 -0.00276885 2.13144e-19)
(1.02496 -0.00982614 0)
(1.02432 -0.0167339 0)
(1.0236 -0.0234774 0)
(1.02281 -0.0300494 8.35416e-19)
(1.02198 -0.0364582 8.41488e-19)
(1.02115 -0.0427252 -1.7557e-18)
(1.02032 -0.0488813 0)
(1.0195 -0.0549629 0)
(1.01868 -0.0610057 -3.53774e-18)
(1.01783 -0.0670364 -1.81393e-18)
(1.0169 -0.0730634 0)
(1.01584 -0.079068 0)
(1.0146 -0.0850037 1.80827e-18)
(1.01318 -0.0908042 5.91276e-20)
(1.01159 -0.096403 0)
(1.00991 -0.101754 0)
(1.00824 -0.106851 -1.91557e-18)
(1.00669 -0.111738 0)
(1.00535 -0.116519 0)
(1.00429 -0.121341 0)
(1.0035 -0.126374 0)
(1.0029 -0.131764 0)
(1.00234 -0.137595 -4.19739e-18)
(1.00166 -0.143856 0)
(1.00069 -0.150427 0)
(0.999332 -0.157093 1.63307e-19)
(0.997577 -0.16358 0)
(0.995512 -0.169599 0)
(0.993304 -0.174881 0)
(0.991168 -0.179203 1.00224e-17)
(0.989336 -0.182398 -5.23418e-18)
(0.988034 -0.184349 5.52265e-18)
(0.98747 -0.185001 8.29641e-21)
(0.987831 -0.18436 0)
(0.989288 -0.182505 6.37094e-18)
(0.992002 -0.179589 -6.48218e-18)
(0.996137 -0.175843 0)
(1.00187 -0.171562 0)
(1.00941 -0.167091 -1.48182e-19)
(1.01895 -0.162798 6.41245e-18)
(1.03087 -0.159035 5.9123e-18)
(1.04481 -0.156085 0)
(1.06268 -0.154097 -4.05554e-18)
(1.07786 -0.153134 0)
(1.10993 -0.15286 1.12378e-18)
(0.975986 0.216474 0)
(0.981692 0.204216 2.11958e-17)
(0.98777 0.19965 1.88037e-17)
(0.990443 0.198415 0)
(0.990125 0.196242 8.02132e-18)
(0.989276 0.192982 -7.76216e-18)
(0.988778 0.1894 0)
(0.98829 0.185476 -1.35498e-17)
(0.987624 0.181015 0)
(0.98687 0.176016 0)
(0.986064 0.170537 0)
(0.985178 0.164606 0)
(0.984248 0.158231 0)
(0.983396 0.151417 1.82849e-19)
(0.982766 0.14417 -9.51309e-18)
(0.982501 0.136544 -1.82332e-19)
(0.982744 0.128794 1.83781e-19)
(0.983591 0.121155 0)
(0.985039 0.113608 0)
(0.986966 0.106081 0)
(0.989187 0.0985523 -2.02772e-19)
(0.991535 0.091047 2.0663e-19)
(0.993899 0.0835911 -3.94647e-18)
(0.996207 0.0761958 -3.91593e-18)
(0.998406 0.0688589 0)
(1.00046 0.0615718 -3.98133e-18)
(1.00232 0.0543247 3.96903e-18)
(1.00399 0.0471067 0)
(1.00543 0.0399065 1.92305e-18)
(1.00664 0.0327168 1.98067e-18)
(1.00759 0.0255383 0)
(1.00826 0.0183798 0)
(1.00866 0.0112593 1.00017e-18)
(1.00879 0.004215 -1.49746e-20)
(1.00869 -0.00276804 -4.93598e-19)
(1.00838 -0.00963787 0)
(1.00789 -0.0163655 0)
(1.00726 -0.0229463 -1.01116e-18)
(1.00655 -0.0293819 0)
(1.00578 -0.0356803 -1.02325e-18)
(1.00499 -0.0418593 -5.78714e-20)
(1.00422 -0.0479444 0)
(1.00347 -0.0539652 2.09334e-18)
(1.00277 -0.0599493 4.16303e-18)
(1.00209 -0.0659163 2.07013e-18)
(1.00141 -0.0718703 0)
(1.00071 -0.0777951 -4.33509e-18)
(0.999964 -0.0836548 0)
(0.999175 -0.0894004 -2.15668e-18)
(0.998365 -0.0949837 0)
(0.997583 -0.100374 0)
(0.996898 -0.105571 0)
(0.996383 -0.110616 0)
(0.996102 -0.115593 0)
(0.996085 -0.120623 -4.76638e-18)
(0.996319 -0.125837 4.8135e-18)
(0.996735 -0.131353 0)
(0.99722 -0.137237 4.76288e-18)
(0.997642 -0.143482 -4.9593e-18)
(0.997873 -0.149992 0)
(0.997826 -0.15659 -4.9688e-18)
(0.997478 -0.163044 0)
(0.996868 -0.169096 0)
(0.996094 -0.174496 0)
(0.995282 -0.179024 -5.70683e-18)
(0.994571 -0.1825 6.03798e-18)
(0.994098 -0.184793 -6.29032e-18)
(0.993994 -0.185827 1.30962e-17)
(0.99439 -0.185591 -6.80284e-18)
(0.995431 -0.184152 0)
(0.997285 -0.181664 7.31813e-18)
(1.00016 -0.178361 -7.36098e-18)
(1.00431 -0.174553 0)
(1.01004 -0.170601 -1.19845e-19)
(1.01764 -0.16688 -7.01599e-18)
(1.02762 -0.163748 0)
(1.03972 -0.161438 0)
(1.05595 -0.160105 -4.51946e-18)
(1.0699 -0.159483 0)
(1.10058 -0.159486 -1.27362e-18)
(0.976761 0.214805 0)
(0.984936 0.202011 -1.22117e-17)
(0.992772 0.199207 -1.06934e-17)
(0.995651 0.198995 0)
(0.994986 0.196877 1.84075e-17)
(0.993962 0.193643 1.73823e-17)
(0.993396 0.19015 0)
(0.992839 0.186217 1.56479e-17)
(0.992175 0.181701 -1.48589e-17)
(0.991579 0.176681 0)
(0.9911 0.171225 0)
(0.990669 0.165339 0)
(0.990225 0.159015 0)
(0.989748 0.152237 -1.13048e-17)
(0.989227 0.144991 -1.11092e-17)
(0.988668 0.137302 1.02099e-17)
(0.988146 0.129404 -3.02229e-17)
(0.987782 0.121548 0)
(0.987656 0.113752 0)
(0.987771 0.10598 9.68572e-18)
(0.988077 0.0982344 1.89441e-17)
(0.988523 0.0905469 -9.27627e-18)
(0.989076 0.0829476 0)
(0.989719 0.0754481 0)
(0.990432 0.068045 -4.65355e-18)
(0.991191 0.0607278 9.16861e-18)
(0.991968 0.0534842 -9.14637e-18)
(0.992738 0.0463007 0)
(0.993474 0.0391635 0)
(0.994151 0.032063 -2.25726e-18)
(0.994741 0.024997 0)
(0.995221 0.0179701 2.3266e-18)
(0.99557 0.0109943 -1.13966e-18)
(0.995797 0.00407977 -1.4575e-20)
(0.995903 -0.00277053 -7.30324e-21)
(0.99589 -0.00952009 0)
(0.995779 -0.016147 0)
(0.995602 -0.0226492 -2.88522e-20)
(0.99539 -0.0290299 1.18422e-18)
(0.995173 -0.035297 3.5454e-18)
(0.994981 -0.0414655 4.74015e-18)
(0.99484 -0.0475571 2.41582e-18)
(0.994766 -0.0535954 -2.37681e-18)
(0.994764 -0.0596016 -2.3955e-18)
(0.994827 -0.065589 2.47253e-18)
(0.994939 -0.0715583 0)
(0.995077 -0.0774946 4.91485e-18)
(0.995223 -0.0833677 -5.07865e-18)
(0.99537 -0.0891384 0)
(0.995528 -0.0947691 0)
(0.995725 -0.100237 0)
(0.995999 -0.105545 0)
(0.996395 -0.11073 0)
(0.996947 -0.115865 0)
(0.997669 -0.12105 5.38223e-18)
(0.998538 -0.126394 -1.09892e-17)
(0.999495 -0.131995 -5.61225e-18)
(1.00045 -0.137908 5.67139e-18)
(1.00128 -0.144123 5.59234e-18)
(1.00188 -0.150557 -5.82237e-18)
(1.00215 -0.157054 5.92753e-18)
(1.00206 -0.163402 0)
(1.00157 -0.169363 6.22203e-18)
(1.00074 -0.174693 -6.41451e-18)
(0.999598 -0.17917 0)
(0.998225 -0.182607 -1.36883e-17)
(0.996702 -0.184862 7.09963e-18)
(0.995136 -0.185856 -1.48128e-17)
(0.993669 -0.185582 7.69981e-18)
(0.992495 -0.184121 0)
(0.991868 -0.181649 8.14743e-18)
(0.992112 -0.178429 8.38595e-18)
(0.993598 -0.174797 -8.35087e-18)
(0.996765 -0.171136 -8.35269e-18)
(1.002 -0.167829 8.0469e-18)
(1.00991 -0.165238 0)
(1.0203 -0.163535 0)
(1.03531 -0.162931 5.20414e-18)
(1.04845 -0.162668 0)
(1.07905 -0.163324 1.47018e-18)
(0.977833 0.212618 1.61943e-17)
(0.988995 0.199651 0)
(0.998473 0.199061 -2.40728e-17)
(1.00125 0.199737 2.18082e-17)
(1.00018 0.197595 -2.07966e-17)
(0.999035 0.194441 1.99464e-17)
(0.998407 0.191042 0)
(0.997734 0.18707 1.60108e-19)
(0.99696 0.18247 1.67756e-17)
(0.996297 0.177385 0)
(0.995817 0.171878 0)
(0.995475 0.165955 0)
(0.99523 0.159612 2.76704e-17)
(0.995055 0.152838 0)
(0.994909 0.145618 2.46531e-17)
(0.994741 0.137959 0)
(0.99454 0.130069 4.61069e-17)
(0.994347 0.122188 0)
(0.994202 0.114344 0)
(0.994108 0.106511 -2.2047e-17)
(0.994044 0.0986973 -1.07983e-17)
(0.993994 0.0909359 0)
(0.993964 0.0832578 0)
(0.99397 0.075678 0)
(0.994025 0.0681976 5.25452e-18)
(0.994135 0.0608104 -5.23787e-18)
(0.994298 0.0535072 -1.0783e-19)
(0.994508 0.0462768 0)
(0.994755 0.0391065 5.33339e-18)
(0.995027 0.0319877 0)
(0.995305 0.0249178 0)
(0.995572 0.0178991 -2.62987e-18)