/*--------------------------------*- C++ -*----------------------------------*\
| =========                 |                                                 |
| \\      /  F ield         | OpenFOAM: The Open Source CFD Toolbox           |
|  \\    /   O peration     | Version:  v1912                                 |
|   \\  /    A nd           | Website:  www.openfoam.com                      |
|    \\/     M anipulation  |                                                 |
\*---------------------------------------------------------------------------*/
FoamFile
{
    version     2.0;
    format      ascii;
    class       volScalarField;
    location    "480";
    object      nut;
}
// * * * * * * * * * * * * * * * * * * * * * * * * * * * * * * * * * * * * * //

dimensions      [0 2 -1 0 0 0 0];


internalField   nonuniform List<scalar> 
12441
(
5.82187e-24
1.79047e-20
8.1047e-20
3.32533e-19
1.06828e-18
3.88828e-18
1.01056e-17
2.50051e-17
6.1385e-17
1.27531e-16
3.05671e-16
7.71604e-16
2.18068e-15
7.40318e-15
1.03452e-13
1.89652e-11
0.000193805
0.000932466
0.00300324
0.0026133
0.00364739
0.00775321
6.34182e-24
3.03337e-20
1.11727e-19
4.2393e-19
1.30205e-18
4.80718e-18
1.21983e-17
3.00098e-17
7.361e-17
1.54452e-16
3.79816e-16
1.02939e-15
2.82789e-15
9.3773e-15
1.12866e-13
3.90338e-11
5.77079e-05
0.00112979
0.00343942
0.00284531
0.00401003
0.00781733
6.36458e-24
3.58939e-20
1.20773e-19
4.48111e-19
1.37768e-18
4.90657e-18
1.29286e-17
3.20404e-17
8.05136e-17
1.71768e-16
4.17898e-16
1.11766e-15
2.78416e-15
7.66505e-15
5.34068e-14
6.57994e-12
1.11048e-05
0.00082994
0.0013732
0.00268477
0.00416324
0.0078909
6.31904e-24
3.769e-20
1.18528e-19
4.29288e-19
1.32529e-18
4.71336e-18
1.2513e-17
3.1326e-17
7.84929e-17
1.73669e-16
4.23765e-16
1.15419e-15
2.61003e-15
8.47647e-15
3.84384e-14
1.54421e-12
1.62625e-06
0.000579836
0.00102504
0.0026089
0.00432597
0.0079647
6.28502e-24
4.38811e-20
1.29772e-19
4.58291e-19
1.40262e-18
4.77911e-18
1.30903e-17
3.27935e-17
8.42955e-17
1.87517e-16
4.54167e-16
1.28487e-15
3.01799e-15
4.07184e-14
2.46683e-13
2.29985e-12
1.39766e-07
0.000410337
0.00100757
0.00259679
0.00446621
0.00803394
6.23483e-24
4.12861e-20
1.20533e-19
4.29166e-19
1.34265e-18
4.62183e-18
1.27498e-17
3.23916e-17
8.28914e-17
1.92678e-16
4.76949e-16
1.44579e-15
4.53186e-15
1.32936e-12
1.18786e-11
5.10707e-11
4.58923e-07
0.000378996
0.00107673
0.00265361
0.00459213
0.00809948
6.19994e-24
5.02616e-20
1.37789e-19
4.75743e-19
1.46006e-18
4.79219e-18
1.35924e-17
3.44519e-17
9.06989e-17
2.11113e-16
5.2084e-16
2.00038e-15
2.50136e-14
4.14535e-11
6.56505e-10
9.38344e-09
1.87752e-05
0.000401566
0.00126615
0.00283616
0.00473612
0.00816218
6.15015e-24
4.34501e-20
1.23165e-19
4.40133e-19
1.40808e-18
4.72251e-18
1.35115e-17
3.4843e-17
9.13156e-17
2.23836e-16
5.7251e-16
5.43684e-15
6.09644e-13
2.25427e-09
8.40415e-08
4.98744e-06
0.000196895
0.000466977
0.00171812
0.00320647
0.00492343
0.00822577
6.11738e-24
5.57017e-20
1.46123e-19
4.99649e-19
1.55402e-18
4.95834e-18
1.46109e-17
3.75684e-17
1.02069e-16
2.50931e-16
6.45339e-16
6.13588e-14
2.5892e-11
7.42675e-08
1.04284e-05
0.000156147
0.000820846
0.0008441
0.00265182
0.00383541
0.00518561
0.00829204
6.07051e-24
4.43475e-20
1.25429e-19
4.56604e-19
1.50744e-18
4.95331e-18
1.47465e-17
3.8723e-17
1.04873e-16
2.75105e-16
7.48615e-16
1.68223e-12
1.08274e-09
4.43813e-06
0.000193581
0.000638955
0.00179576
0.00162923
0.00438365
0.00480015
0.00553542
0.00836448
6.04136e-24
6.02575e-20
1.53426e-19
5.25877e-19
1.67261e-18
5.2056e-18
1.60241e-17
4.20319e-17
1.19288e-16
3.17349e-16
8.92057e-16
5.23159e-11
5.4984e-08
8.25638e-05
0.00075206
0.00185384
0.00410447
0.0033354
0.00739547
0.00620334
0.00598606
0.00844366
5.99593e-24
4.46269e-20
1.27729e-19
4.76914e-19
1.63358e-18
5.2806e-18
1.64012e-17
4.40622e-17
1.25493e-16
3.64607e-16
1.15859e-15
1.45697e-09
3.24559e-06
0.000357236
0.0017329
0.00438666
0.00893647
0.00686066
0.0121872
0.00809356
0.00652705
0.00853143
5.97035e-24
6.41467e-20
1.60442e-19
5.53777e-19
1.81484e-18
5.54154e-18
1.79072e-17
4.82187e-17
1.46695e-16
4.44695e-16
1.6945e-15
3.52283e-08
7.31623e-05
0.0011679
0.00452171
0.010177
0.0183822
0.0134481
0.0189476
0.0104566
0.00715007
0.00862633
5.92635e-24
4.43233e-20
1.29663e-19
4.99283e-19
1.78308e-18
5.69152e-18
1.85312e-17
5.13803e-17
1.59842e-16
5.59116e-16
3.60128e-15
7.96939e-07
0.000358029
0.0031908
0.0105265
0.0210633
0.0343313
0.0241656
0.0273665
0.0131708
0.007824
0.00872852
5.904e-24
6.7513e-20
1.66646e-19
5.82587e-19
1.97786e-18
5.93971e-18
2.02676e-17
5.67785e-17
1.96044e-16
7.7865e-16
1.65164e-14
1.52168e-05
0.00122116
0.00790667
0.0216903
0.0386384
0.0576525
0.0391634
0.0366266
0.0160811
0.00852968
0.00883515
5.86029e-24
4.3957e-20
1.31991e-19
5.24775e-19
1.95767e-18
6.18511e-18
2.12007e-17
6.16748e-17
2.28154e-16
1.21618e-15
3.0215e-13
0.000139345
0.00320134
0.0169027
0.039543
0.0634556
0.0874932
0.057152
0.0457162
0.0189904
0.00923134
0.00894576
5.84123e-24
7.05377e-20
1.73496e-19
6.15088e-19
2.17046e-18
6.4391e-18
2.33091e-17
6.93734e-17
3.08214e-16
2.30477e-15
1.26018e-11
0.00054731
0.00765217
0.0315934
0.0642176
0.0947244
0.120952
0.0756338
0.0537376
0.0217601
0.00991481
0.00905718
5.79725e-24
4.35004e-20
1.34486e-19
5.53107e-19
2.16053e-18
6.77114e-18
2.46167e-17
7.72246e-17
4.08443e-16
5.44524e-15
5.47967e-10
0.00146865
0.0159097
0.0526871
0.0951003
0.130026
0.153538
0.0917907
0.0602259
0.0242673
0.0105532
0.00916919
5.78093e-24
7.32614e-20
1.80281e-19
6.49102e-19
2.38787e-18
7.01123e-18
2.71809e-17
8.90654e-17
6.61691e-16
1.69218e-14
4.40861e-08
0.00374968
0.0293071
0.0793554
0.129744
0.165753
0.180423
0.103682
0.065123
0.0264784
0.0111464
0.00927899
5.73636e-24
4.30516e-20
1.36865e-19
5.82376e-19
2.38675e-18
7.43771e-18
2.90056e-17
1.0231e-16
1.08037e-15
7.52662e-14
8.5709e-06
0.00829711
0.0482047
0.110287
0.16547
0.197698
0.197947
0.110855
0.0687229
0.0283621
0.0116805
0.00938714
5.72334e-24
7.57274e-20
1.86796e-19
6.83152e-19
2.62914e-18
7.67265e-18
3.23024e-17
1.22239e-16
2.19365e-15
7.80137e-13
0.000170695
0.0164233
0.0719315
0.143026
0.198488
0.222326
0.204846
0.114271
0.0714027
0.0299539
0.0121685
0.00949146
5.67795e-24
4.24329e-20
1.38567e-19
6.109e-19
2.63499e-18
8.19283e-18
3.49378e-17
1.46455e-16
4.33992e-15
1.34049e-11
0.000693207
0.0289939
0.0990047
0.175509
0.226083
0.237513
0.202475
0.115496
0.07354
0.0312653
0.0126077
0.00959327
5.66761e-24
7.8021e-20
1.92465e-19
7.15459e-19
2.88976e-18
8.41792e-18
3.94313e-17
1.83573e-16
1.02752e-14
1.6609e-10
0.00191655
0.0460973
0.127587
0.205162
0.245801
0.243206
0.194036
0.115941
0.0753738
0.032357
0.0130224
0.00969106
5.62168e-24
4.19631e-20
1.39787e-19
6.37978e-19
2.90247e-18
9.03713e-18
4.34987e-17
2.31478e-16
2.24191e-14
1.55795e-09
0.0046094
0.0671213
0.155896
0.230414
0.257303
0.241028
0.18314
0.116406
0.0770619
0.0332586
0.0134197
0.00978684
5.61488e-24
8.02739e-20
1.97574e-19
7.45795e-19
3.17108e-18
9.26701e-18
5.02623e-17
3.06413e-16
5.64377e-14
1.37798e-08
0.00961715
0.0907058
0.182437
0.249836
0.261074
0.233694
0.172588
0.117144
0.0786561
0.0340459
0.0138322
0.00987966
5.56715e-24
4.17911e-20
1.40759e-19
6.63846e-19
3.19189e-18
9.99198e-18
5.71492e-17
4.08435e-16
1.30473e-13
3.18988e-07
0.0176973
0.115498
0.206083
0.26334
0.259109
0.223936
0.16385
0.118074
0.0801821
0.0347639
0.0142735
0.00997203
5.56285e-24
8.24828e-20
2.02093e-19
7.73998e-19
3.47279e-18
1.0232e-17
6.84579e-17
5.73333e-16
3.92522e-13
1.87651e-05
0.0289962
0.14007
0.226106
0.271133
0.253285
0.213934
0.15727
0.119032
0.0816201
0.0354955
0.0147801
0.0100634
5.51398e-24
4.18588e-20
1.41218e-19
6.87501e-19
3.50139e-18
1.10684e-17
8.13246e-17
8.10344e-16
1.82984e-12
0.000214817
0.0432714
0.163449
0.242167
0.274367
0.245703
0.204955
0.152565
0.119864
0.0829569
0.036283
0.0153644
0.0101564
5.51306e-24
8.46748e-20
2.05794e-19
7.99203e-19
3.79616e-18
1.13439e-17
1.0251e-16
1.20435e-15
1.28009e-11
0.00073749
0.0597635
0.184819
0.25429
0.274059
0.237639
0.197533
0.149258
0.120483
0.0841586
0.0371907
0.0160565
0.0102507
5.46193e-24
4.20338e-20
1.40963e-19
7.08394e-19
3.83347e-18
1.23041e-17
1.28822e-16
1.79564e-15
7.40874e-11
0.00154507
0.0777804
0.203749
0.262782
0.27152
0.230106
0.191684
0.146907
0.120852
0.085206
0.0382305
0.0168564
0.0103488
5.46304e-24
8.6806e-20
2.08976e-19
8.2179e-19
4.14312e-18
1.26529e-17
1.72473e-16
2.80949e-15
3.5639e-10
0.00282066
0.0965035
0.219927
0.268145
0.267593
0.223424
0.187201
0.145178
0.120977
0.0860666
0.0394255
0.0177774
0.01045
5.41085e-24
4.2246e-20
1.39897e-19
7.26589e-19
4.1907e-18
1.3741e-17
2.30122e-16
4.38938e-15
1.38681e-09
0.00478555
0.115355
0.233333
0.270965
0.263122
0.217807
0.183796
0.143852
0.120879
0.0867236
0.0407463
0.0187987
0.0105565
5.41506e-24
8.89179e-20
2.11412e-19
8.42375e-19
4.52259e-18
1.41931e-17
3.26393e-16
7.08339e-15
4.74637e-09
0.00774693
0.133725
0.244022
0.271837
0.258491
0.213126
0.181212
0.142795
0.120594
0.0871496
0.0421793
0.0199126
0.010667
5.3594e-24
4.22785e-20
1.37807e-19
7.42858e-19
4.58478e-18
1.54531e-17
4.58236e-16
1.12952e-14
1.4452e-08
0.0120224
0.151276
0.252246
0.271297
0.254088
0.209325
0.179231
0.141932
0.120159
0.0873322
0.0436724
0.0210786
0.0107831
5.36555e-24
8.84575e-20
2.10338e-19
8.5723e-19
4.93655e-18
1.60478e-17
6.77972e-16
1.85068e-14
4.28083e-08
0.0179476
0.16771
0.258271
0.269804
0.24999
0.206202
0.177697
0.141227
0.119612
0.0872502
0.0452048
0.0222758
0.0109032
5.30585e-24
4.14858e-20
1.32574e-19
7.51603e-19
5.00997e-18
1.7462e-17
9.80436e-16
2.99172e-14
2.19862e-07
0.025959
0.183004
0.26247
0.267723
0.246348
0.203679
0.176492
0.140667
0.118989
0.0868974
0.0467354
0.0234564
0.0110282
5.31238e-24
8.52635e-20
2.03825e-19
8.62064e-19
5.38105e-18
1.81865e-17
1.47469e-15
5.74579e-14
1.16979e-05
0.0366261
0.197176
0.265172
0.265334
0.243116
0.201598
0.175547
0.140255
0.118328
0.0862616
0.0482712
0.0246013
0.0111563
5.24591e-24
4.16149e-20
1.27323e-19
7.57678e-19
5.48248e-18
1.98563e-17
2.14227e-15
4.65012e-13
0.000244535
0.0508261
0.210434
0.266748
0.262841
0.240366
0.199921
0.174812
0.140004
0.117662
0.0853476
0.0498089
0.0256733
0.0112883
5.24934e-24
5.37903e-20
1.54722e-19
7.99485e-19
5.76882e-18
2.06389e-17
3.2015e-15
2.31288e-11
0.00209579
0.0696273
0.222921
0.26749
0.26039
0.238031
0.198547
0.174268
0.139933
0.117027
0.0841584
0.0513954
0.0266751
0.011422
5.1725e-24
4.32805e-20
1.14471e-19
7.24254e-19
5.94013e-18
2.35437e-17
4.66243e-15
1.03288e-09
0.00919152
0.093747
0.23482
0.267703
0.258071
0.236186
0.197487
0.173909
0.140066
0.116452
0.0827189
0.0530555
0.0275984
0.0115584
5.16592e-24
1.93953e-21
1.12092e-20
4.00648e-19
5.44903e-18
2.44375e-17
7.20699e-15
1.84785e-07
0.0263765
0.12319
0.246127
0.267605
0.255931
0.234779
0.19668
0.173748
0.14043
0.115969
0.0810572
0.0548286
0.0284811
0.0116955
5.07774e-24
1.71165e-20
4.47726e-20
4.17369e-19
5.46201e-18
3.62052e-17
1.80047e-14
5.585e-05
0.0579327
0.157442
0.256798
0.267431
0.253974
0.233916
0.196183
0.173804
0.141046
0.115594
0.079229
0.0566577
0.0293369
0.0118345
5.03898e-24
6.72025e-22
8.45922e-23
2.35242e-19
5.06621e-18
8.28151e-17
3.70772e-13
0.00145746
0.10684
0.195565
0.266587
0.267338
0.252172
0.23355
0.195954
0.174119
0.141938
0.115336
0.077297
0.0583698
0.0301662
0.011976
4.83819e-24
2.10324e-19
4.58132e-19
1.02951e-18
7.26034e-18
9.13527e-16
7.18216e-12
0.00970145
0.174378
0.236981
0.275662
0.267623
0.250493
0.233781
0.196052
0.174714
0.143104
0.11513
0.075339
0.0595234
0.0306635
0.0121338
0.00987657
0.0335325
0.0366589
0.013749
0.0101119
0.00984241
0.00990421
0.0103474
0.0103655
0.0109969
0.0160293
0.0154619
0.0145011
0.0144087
0.015287
0.0167683
0.0184507
0.0195095
0.0184465
0.0151393
0.0129675
0.0124449
0.0123222
0.0123471
0.0125788
0.0129834
0.0135337
0.0142168
0.0149083
0.0157257
0.0157418
0.014903
0.0354913
0.139189
0.180537
0.00986353
0.0341409
0.0356859
0.0134081
0.0100259
0.00973653
0.0100027
0.0104762
0.0104113
0.0110344
0.0157
0.0150559
0.0141227
0.0139959
0.0148954
0.0164629
0.0182899
0.0195726
0.0185892
0.0150761
0.0127463
0.012219
0.012122
0.0121509
0.0123708
0.0127573
0.0132938
0.0139778
0.0146903
0.0155296
0.0155582
0.0147862
0.0348188
0.138845
0.180437
0.00983842
0.0347038
0.0339923
0.0128236
0.0100044
0.00963896
0.0102567
0.0107554
0.010548
0.0111387
0.0145475
0.013736
0.0130263
0.0128451
0.0133874
0.0144639
0.0159265
0.017255
0.01682
0.0139515
0.0120198
0.0116682
0.0116729
0.0117394
0.0119511
0.0123078
0.0128169
0.0134974
0.014249
0.0151309
0.0151905
0.014568
0.0341114
0.138117
0.180176
0.00979929
0.0352072
0.0318372
0.0122962
0.0101022
0.00964404
0.0106322
0.0110603
0.0107528
0.011324
0.0133029
0.0122769
0.0117596
0.0116708
0.011944
0.0123827
0.0131468
0.0141639
0.0141569
0.0121872
0.0108807
0.0108015
0.0109715
0.0111146
0.0113321
0.0116549
0.0121248
0.0127915
0.0135904
0.014533
0.0146492
0.0142119
0.0332539
0.136993
0.179754
0.00974597
0.0355113
0.0293687
0.0118014
0.0102057
0.00966694
0.0109918
0.0112775
0.0109203
0.0114781
0.0122483
0.0110281
0.0106914
0.0108175
0.0109708
0.0108393
0.0108312
0.0112883
0.0113879
0.0101637
0.00944219
0.00964302
0.0100203
0.0102844
0.0105337
0.0108293
0.0112521
0.0118895
0.0127319
0.0137468
0.0139503
0.013693
0.0321702
0.135472
0.179186
0.00967615
0.0354957
0.0267033
0.0112573
0.0102246
0.00962493
0.011222
0.0113375
0.010961
0.0114811
0.011359
0.0100076
0.0098243
0.0101785
0.0103508
0.00983314
0.00917559
0.00902096
0.00896115
0.00817579
0.00784277
0.00824589
0.00883466
0.00926132
0.00958021
0.00986697
0.0102423
0.0108328
0.011702
0.0127909
0.0131138
0.0129994
0.0308203
0.133557
0.178497
0.00959042
0.0350804
0.0239635
0.0106368
0.010138
0.00949357
0.0112755
0.0112226
0.0108372
0.0112743
0.010534
0.00911202
0.00901509
0.00951086
0.00979516
0.00911681
0.00802968
0.00735987
0.00702292
0.00640761
0.00623728
0.00670713
0.00745566
0.00806731
0.00849822
0.0088057
0.00914233
0.00967113
0.0105399
0.0116919
0.0121632
0.0121344
0.0291967
0.131259
0.177715
0.00948687
0.0342044
0.0212746
0.00997054
0.00997525
0.00929308
0.0111627
0.0109542
0.0105574
0.0108625
0.00970516
0.00826209
0.00816382
0.00866651
0.0090891
0.00844556
0.00715624
0.00613052
0.00552995
0.00493921
0.00477463
0.00517095
0.005968
0.00674329
0.00731938
0.0076831
0.00799913
0.00845856
0.00929427
0.0104847
0.0111247
0.011117
0.0273208
0.128598
0.176878
0.00936733
0.0328566
0.0187439
0.00931501
0.00978518
0.00906355
0.0109266
0.0105735
0.0101554
0.0102898
0.00886034
0.00743257
0.00726014
0.00764344
0.00816749
0.00768445
0.00637238
0.00514861
0.00437184
0.00377962
0.00356774
0.0038045
0.00450958
0.00536458
0.00608701
0.00653772
0.00685682
0.00724899
0.00802049
0.00921243
0.0100276
0.00998168
0.0252369
0.125598
0.17602
0.0092307
0.0310453
0.0164516
0.00872676
0.00961621
0.00884804
0.0106221
0.0101299
0.009677
0.00961634
0.00801857
0.00663239
0.00634711
0.00652718
0.0070705
0.00679688
0.0055826
0.00429316
0.00345252
0.00290314
0.00267124
0.00274444
0.00324936
0.00405033
0.00486588
0.00541301
0.00575668
0.00609245
0.00677658
0.00792594
0.00890393
0.00877707
0.0230058
0.122294
0.17518
0.00908003
0.0288264
0.0144474
0.00825085
0.00950891
0.00868496
0.0103043
0.0096723
0.00916877
0.00890234
0.00720962
0.00587991
0.00547868
0.00542874
0.00589326
0.00581208
0.00476675
0.00351922
0.00272114
0.00227459
0.00207799
0.0020453
0.00232465
0.00294591
0.00374742
0.00436217
0.0047389
0.00503303
0.00561879
0.00668128
0.00778923
0.00756203
0.020697
0.118734
0.174396
0.00891508
0.0262701
0.0127597
0.00791882
0.0094961
0.0086059
0.0100238
0.009246
0.00867491
0.0082017
0.00646147
0.00519209
0.00469682
0.00444209
0.00474484
0.00479263
0.00395316
0.00283749
0.00216386
0.00185496
0.00173245
0.00166676
0.00177416
0.00216557
0.00283586
0.00344861
0.00384402
0.0041082
0.00459718
0.00553605
0.0067217
0.00640024
0.0183834
0.114975
0.173702
0.00874002
0.0234876
0.0113998
0.00775119
0.00960561
0.00863631
0.00982388
0.00888999
0.00823415
0.00755889
0.00579674
0.00458131
0.00402523
0.00362815
0.0037284
0.00382107
0.00319775
0.00228323
0.00177569
0.00159914
0.00155684
0.00151172
0.00153136
0.00173045
0.00220701
0.00273427
0.00311082
0.00334793
0.00375153
0.00454375
0.00574117
0.00535301
0.0161366
0.111095
0.173134
0.00855535
0.0205965
0.0103702
0.00776092
0.00986378
0.00879769
0.00974071
0.00863677
0.00787967
0.00700883
0.00523259
0.00405749
0.00347326
0.00301093
0.00292062
0.00298281
0.00256184
0.00188231
0.00153592
0.0014585
0.00147946
0.0014801
0.00148631
0.00157126
0.00186693
0.0022547
0.00256745
0.00277161
0.00310727
0.00374686
0.00488606
0.00447107
0.0140249
0.10719
0.172722
0.00836592
0.0177382
0.00966453
0.00795713
0.0102986
0.00911082
0.0098043
0.00851222
0.00763807
0.00657732
0.00478246
0.00362963
0.00304007
0.00258398
0.00235751
0.0023469
0.00208992
0.00162938
0.00140528
0.00138922
0.00145031
0.00149875
0.00154061
0.00158929
0.00175835
0.00199962
0.00221889
0.00238281
0.00267147
0.0031695
0.0041885
0.00378678
0.0121122
0.103382
0.172496
0.00817267
0.0150447
0.00927012
0.00834944
0.0109424
0.00960341
0.0100428
0.00853798
0.00753021
0.00628246
0.00445769
0.00330684
0.00272052
0.00232001
0.00202876
0.00194082
0.00179163
0.00149094
0.00134068
0.00135766
0.00144195
0.0015289
0.00162699
0.00169802
0.0018024
0.0019214
0.00204271
0.00216656
0.0024316
0.00281231
0.00366819
0.00330939
0.0104552
0.0998194
0.172482
0.00798033
0.012644
0.00917446
0.00895369
0.0118361
0.0103156
0.0104877
0.00873596
0.00757379
0.00613744
0.00426843
0.00309619
0.00250686
0.00218247
0.00189277
0.00174618
0.00164229
0.00142457
0.00130756
0.00134251
0.00144316
0.00155938
0.00171346
0.00183688
0.00192711
0.00195986
0.00199906
0.00209441
0.00236064
0.00265375
0.00332749
0.00302605
0.00910005
0.0966797
0.172705
0.00778933
0.0106415
0.00938122
0.00979961
0.0130309
0.011305
0.0111801
0.00913451
0.00778771
0.00615451
0.00422478
0.00300419
0.00239098
0.00213408
0.00189457
0.00171412
0.0015991
0.00139467
0.00128524
0.00133344
0.00145166
0.00159355
0.00179472
0.00197483
0.00207966
0.00206089
0.00204573
0.00213429
0.00242624
0.00265851
0.00315149
0.00290922
0.00808024
0.0941646
0.173186
0.00760307
0.00910212
0.00992641
0.0109298
0.0145937
0.0126501
0.0121748
0.0097732
0.00819607
0.0063488
0.00434063
0.00303565
0.00236544
0.00214373
0.00198099
0.00178818
0.00161694
0.00137721
0.00126443
0.00132815
0.00146922
0.00163874
0.00187821
0.00210366
0.00222998
0.00218586
0.00214866
0.0022585
0.00259793
0.00278744
0.00311368
0.00292685
0.00741757
0.0924837
0.173943
0.00742066
0.00803331
0.0108964
0.0123991
0.0166066
0.0144493
0.0135409
0.010706
0.00883139
0.00674187
0.00463479
0.00319856
0.00242717
0.00219023
0.00210533
0.00191419
0.00165756
0.00135927
0.00124339
0.00132812
0.00149879
0.00170105
0.00197315
0.00222673
0.00236689
0.00231387
0.00228639
0.00244719
0.00285031
0.00300443
0.00318382
0.00305088
0.00712595
0.0918268
0.174991
0.00724378
0.00739361
0.012423
0.0142816
0.0191652
0.0168146
0.0153587
0.0119996
0.00973512
0.00736262
0.00513344
0.0035059
0.00258005
0.00226536
0.00223541
0.00205012
0.00169419
0.00133598
0.00122331
0.00133589
0.00154335
0.00178416
0.00208569
0.00234999
0.0024905
0.00243871
0.00244966
0.00268824
0.00316341
0.00327997
0.0033345
0.00326221
0.00721653
0.0923283
0.17634
0.00707145
0.00712227
0.0146777
0.0166768
0.0223803
0.0198675
0.0177154
0.0137275
0.0109555
0.00824625
0.00587152
0.00398121
0.00283956
0.00237463
0.00235366
0.00216829
0.00171341
0.00130833
0.00120693
0.00135348
0.00160518
0.00188965
0.00221766
0.00247751
0.00260585
0.00256359
0.00263823
0.00297528
0.00352216
0.00359266
0.00354519
0.00355268
0.00770402
0.0940405
0.177996
0.00690537
0.00715905
0.0178533
0.0197263
0.0263875
0.0237412
0.0207047
0.0159643
0.0125429
0.0094285
0.00688348
0.00465532
0.0032333
0.0025389
0.00246129
0.00225918
0.00171335
0.00128047
0.00119703
0.00138247
0.00168578
0.00201751
0.0023676
0.00261055
0.00271913
0.00269655
0.00285708
0.00330524
0.00391559
0.00392923
0.00380399
0.00392507
0.00861278
0.0969286
0.179959
0.00674534
0.00745763
0.0221393
0.0236373
0.0313636
0.0285917
0.024431
0.0187821
0.014544
0.0109373
0.00819238
0.00556017
0.00379763
0.00279349
0.00257348
0.00232533
0.00170026
0.00125838
0.00119716
0.00142393
0.0017857
0.00216631
0.00253188
0.00274844
0.00283644
0.00284735
0.00311311
0.00367624
0.00433638
0.004284
0.00410797
0.00439208
0.00998086
0.100889
0.182225
0.00659312
0.00798139
0.0276894
0.0287018
0.0375357
0.0346003
0.0290073
0.0222427
0.016992
0.0127815
0.00979241
0.0067078
0.00456032
0.0031842
0.00272083
0.00238059
0.00168411
0.00124808
0.001211
0.00147908
0.00190458
0.00233338
0.00270599
0.00289001
0.00296367
0.00302589
0.00341298
0.00408633
0.00478064
0.00465782
0.00446234
0.00497496
0.0118608
0.105774
0.184786
0.00644962
0.00870433
0.034593
0.0352942
0.0451635
0.0419438
0.0345299
0.0263785
0.0198903
0.0149357
0.0116333
0.00807123
0.0055162
0.00374727
0.0029401
0.00244196
0.00167562
0.00125543
0.00124337
0.00154922
0.00204094
0.00251489
0.00288538
0.00303483
0.00310697
0.00324139
0.0037617
0.004533
0.0052479
0.00505708
0.00487955
0.0057024
0.0143173
0.111424
0.187631
0.00631698
0.00960451
0.0428551
0.0438317
0.0544844
0.0507189
0.0410214
0.0311524
0.023184
0.0173228
0.0136106
0.00956645
0.00660388
0.00447723
0.00326508
0.00252875
0.00168391
0.00128543
0.00129946
0.00163658
0.0021925
0.00270636
0.00306645
0.00318394
0.00327302
0.00350207
0.00416202
0.00501338
0.00574104
0.00549273
0.00537805
0.00660973
0.0174228
0.117677
0.190746
0.00619775
0.0106724
0.0524374
0.0547103
0.0656312
0.0608406
0.0483551
0.0364122
0.0267332
0.0198019
0.0155653
0.0110538
0.00770375
0.00529834
0.00369524
0.00265143
0.00171571
0.00134292
0.00138577
0.00174451
0.00235648
0.00290327
0.00324702
0.00334028
0.00346917
0.00381476
0.00461419
0.0055248
0.00626627
0.00597968
0.00598155
0.00773839
0.0212509
0.124387
0.194117
0.00609509
0.0119109
0.063338
0.0682375
0.078544
0.0719567
0.056193
0.0418574
0.0302972
0.0221672
0.017296
0.0123487
0.00865249
0.00607328
0.00417536
0.00280566
0.00177377
0.00143196
0.00150891
0.00187842
0.00253065
0.00310195
0.00342688
0.00350857
0.00370317
0.00418461
0.00511625
0.00606539
0.00683295
0.00653613
0.00671833
0.00913564
0.025869
0.131424
0.197729
0.00601408
0.0133521
0.0756737
0.0845521
0.092888
0.083411
0.0639709
0.0470425
0.0335453
0.0241643
0.0185821
0.0132506
0.00927265
0.00663626
0.00459397
0.0029599
0.00185547
0.00155598
0.00167615
0.00204568
0.00271433
0.00330037
0.00360784
0.00369514
0.0039828
0.00461471
0.00566449
0.00663476
0.0074535
0.00718343
0.00762105
0.0108542
0.0313317
0.138682
0.201565
0.00596079
0.0150562
0.0896581
0.103467
0.107962
0.0942591
0.0709388
0.0514187
0.0360935
0.0255238
0.0192178
0.0135782
0.00940931
0.00683929
0.00482801
0.00306575
0.00195186
0.00171597
0.00189286
0.00225557
0.00290972
0.0034989
0.00379384
0.00390738
0.00431529
0.0051059
0.00625426
0.00723428
0.00814313
0.00794579
0.00872656
0.0129521
0.0376735
0.146074
0.20561
0.00594609
0.0171239
0.105484
0.124217
0.122624
0.103349
0.0762585
0.0544151
0.0375674
0.0260087
0.019054
0.0132182
0.00897999
0.00659514
0.00478572
0.00307525
0.00205038
0.00190984
0.00216161
0.00251735
0.00312241
0.0037006
0.00399051
0.00415331
0.00470677
0.00565665
0.00688062
0.00786737
0.00891981
0.00885045
0.0100762
0.0154914
0.044905
0.153534
0.20985
0.00598322
0.0196806
0.123066
0.145228
0.135322
0.109484
0.0791482
0.0555424
0.0376755
0.0254676
0.0180413
0.0121705
0.00802614
0.00592765
0.00445272
0.002972
0.00214054
0.00213156
0.00247832
0.00283796
0.00336149
0.00391137
0.00420498
0.00444083
0.00516151
0.00626324
0.00753911
0.00853933
0.00980419
0.00992768
0.0117161
0.0185385
0.0530105
0.161013
0.21427
0.00609167
0.0228797
0.141782
0.16416
0.14433
0.111675
0.0790577
0.0545082
0.0362832
0.0238807
0.0162586
0.010576
0.0067386
0.00499565
0.00390758
0.00278075
0.00221992
0.0023731
0.00283254
0.00321755
0.00363812
0.00413937
0.0044452
0.00477713
0.00568154
0.0069201
0.00822615
0.00925728
0.0108197
0.0112112
0.0136975
0.0221621
0.0619503
0.168483
0.218862
0.00628805
0.0268668
0.160335
0.1784
0.148168
0.109405
0.0758183
0.0513016
0.0334583
0.0213804
0.0139119
0.00869248
0.00540661
0.00405337
0.00330928
0.00256451
0.00229648
0.00262613
0.00320704
0.0036472
0.00396314
0.00439442
0.00471944
0.00516788
0.00626616
0.00762034
0.00893925
0.0100299
0.0119926
0.0127384
0.0160776
0.0264334
0.0716641
0.175931
0.22362
0.00658505
0.031782
0.176992
0.185856
0.146058
0.102808
0.0697093
0.0462178
0.029473
0.0182323
0.0112929
0.0068225
0.0042924
0.00332403
0.00282167
0.0023926
0.00238486
0.00288413
0.00358259
0.00410743
0.00434318
0.00468643
0.00503549
0.00561654
0.00691183
0.00835621
0.00967698
0.0108674
0.0133524
0.0145509
0.01892
0.0314249
0.0820787
0.183358
0.228545
0.00697682
0.0376765
0.190008
0.185582
0.13815
0.092635
0.0613967
0.0397955
0.0247467
0.0147791
0.00871065
0.00521639
0.00351661
0.0028939
0.00253634
0.00231238
0.0024983
0.00314133
0.00394031
0.00457289
0.00477707
0.00502384
0.00540002
0.00612378
0.00761233
0.00911971
0.0104388
0.011781
0.0149323
0.0166953
0.0222956
0.0372105
0.0931163
0.190784
0.233647
0.00744499
0.0444545
0.19803
0.177905
0.125427
0.0800479
0.0517677
0.0326933
0.0197545
0.0113659
0.00642563
0.0040069
0.00305144
0.00271591
0.0024456
0.00232844
0.00263906
0.00339131
0.00426581
0.00501646
0.00525308
0.00541123
0.00581766
0.00668732
0.00835933
0.0099029
0.011225
0.0127835
0.0167696
0.0192241
0.0262835
0.0438663
0.104705
0.198244
0.238944
0.00795396
0.0516183
0.20013
0.164037
0.109345
0.0663158
0.0417256
0.0255484
0.0149322
0.00828017
0.00460842
0.00319563
0.00279768
0.00268581
0.00248108
0.00241093
0.00279611
0.00362623
0.00454952
0.00541677
0.00575008
0.0058477
0.00629067
0.00730219
0.00914322
0.0106985
0.0120361
0.0138887
0.0189062
0.0221963
0.0309719
0.0514721
0.116786
0.205786
0.244465
0.00846726
0.0581729
0.195721
0.14556
0.0914387
0.0525621
0.0320313
0.0188784
0.0106184
0.0057244
0.00332193
0.00269715
0.0026594
0.00270255
0.00255573
0.00251223
0.00295146
0.00383894
0.00478794
0.00575887
0.00624074
0.00632558
0.0068187
0.00796195
0.00995452
0.0115002
0.0128733
0.0151118
0.0213899
0.0256791
0.0364598
0.060113
0.129327
0.213474
0.250246
0.00894498
0.0625529
0.18445
0.124045
0.0730433
0.0396243
0.0232262
0.0130435
0.00704207
0.00381492
0.00251442
0.00240414
0.00257091
0.00270151
0.00260564
0.00259564
0.00309183
0.00402585
0.00498219
0.00603738
0.00669748
0.0068314
0.00739943
0.00866038
0.0107855
0.0123034
0.0137379
0.0164691
0.024274
0.029749
0.0428577
0.0698828
0.142323
0.221385
0.256336
0.0093615
0.0631315
0.166296
0.100949
0.055218
0.0280557
0.0156505
0.00827325
0.00434522
0.00256735
0.00205358
0.00223024
0.00249272
0.0026534
0.00260019
0.00264504
0.00321475
0.00418841
0.00513734
0.00625247
0.00709672
0.00734756
0.0080294
0.00939394
0.0116322
0.0131063
0.014632
0.0179776
0.0276186
0.0344928
0.0502894
0.0808863
0.155805
0.229605
0.262789
0.0096768
0.0584944
0.141621
0.0776493
0.0388381
0.0182303
0.00952578
0.00472142
0.00258102
0.00186345
0.00180121
0.00211305
0.00239829
0.00255053
0.00253794
0.00266785
0.0033306
0.00433319
0.00526084
0.00641116
0.00742318
0.00785566
0.00870487
0.0101636
0.0124965
0.0139107
0.0155583
0.0196545
0.0314896
0.0400087
0.0588921
0.0932423
0.169841
0.23823
0.269666
0.00988074
0.0484666
0.1116
0.0554171
0.0246461
0.0104031
0.00500591
0.00245106
0.00161954
0.00149522
0.00164779
0.0020001
0.00226342
0.00238998
0.00242339
0.00267452
0.00345158
0.00446499
0.00536116
0.00652391
0.00767102
0.00833769
0.00942116
0.0109761
0.0133877
0.0147234
0.0165207
0.0215163
0.0359573
0.0464059
0.0688171
0.107086
0.184536
0.247357
0.277025
4.88226e-24
3.15105e-19
1.14022e-18
4.3034e-18
2.49407e-17
3.14644e-14
9.01763e-11
0.0365284
0.238398
0.269258
0.281722
0.268165
0.24933
0.234431
0.196402
0.17547
0.144281
0.114871
0.0738909
0.0597286
0.0302889
0.0121392
4.9959e-24
7.39305e-20
8.34714e-20
6.23617e-18
6.22857e-17
2.45103e-13
9.21106e-10
0.0694838
0.282134
0.288824
0.284521
0.268366
0.248621
0.235112
0.196927
0.176209
0.145369
0.114748
0.0731939
0.0595052
0.0298632
0.012187
5.10208e-24
2.76609e-19
8.77704e-19
8.89484e-18
1.22075e-16
9.26138e-13
9.29862e-09
0.108899
0.32125
0.304886
0.286335
0.268451
0.24807
0.23594
0.197683
0.177126
0.14668
0.114722
0.0728815
0.058904
0.0293363
0.0123447
5.06179e-24
5.72569e-20
2.14767e-20
6.84908e-18
1.92179e-16
2.27589e-12
1.69508e-07
0.1505
0.354934
0.317848
0.28774
0.268573
0.247773
0.236976
0.198721
0.178196
0.14817
0.114801
0.0729426
0.0579576
0.0287424
0.0126011
5.16572e-24
2.21306e-19
6.32245e-19
7.23085e-18
2.8817e-16
3.60877e-12
6.55844e-06
0.187802
0.383031
0.328149
0.289149
0.268845
0.247817
0.238198
0.200009
0.179403
0.149789
0.114989
0.0733442
0.0567384
0.0281272
0.0129477
5.11387e-24
4.59223e-20
1.20675e-20
4.61553e-18
4.09738e-16
4.87081e-12
1.86677e-05
0.213767
0.405666
0.336282
0.290902
0.269396
0.248275
0.23968
0.201601
0.180731
0.151484
0.115279
0.0740497
0.0553051
0.0275009
0.0134016
5.22925e-24
1.78689e-19
4.7339e-19
4.63719e-18
5.80391e-16
5.06131e-12
3.45263e-05
0.225002
0.423172
0.342662
0.293187
0.270311
0.249209
0.241401
0.203463
0.182181
0.153206
0.115669
0.0750035
0.0537416
0.0268892
0.0139767
5.17007e-24
3.80395e-20
7.88071e-21
2.78004e-18
7.72184e-16
4.37585e-12
2.58257e-05
0.22249
0.435831
0.347679
0.296155
0.271685
0.250659
0.243439
0.205658
0.183757
0.154914
0.116146
0.0761556
0.0521047
0.0262898
0.0146905
5.29796e-24
1.46658e-19
3.6957e-19
2.86157e-18
9.85932e-16
2.88037e-12
2.7443e-05
0.209803
0.443891
0.351584
0.299835
0.273567
0.252658
0.245771
0.208152
0.185482
0.156581
0.1167
0.0774439
0.0504691
0.0257222
0.0155471
5.22341e-24
3.24406e-20
5.88759e-21
1.68687e-18
1.1478e-15
1.68877e-12
3.53207e-05
0.190322
0.447375
0.354568
0.304248
0.27602
0.255217
0.248471
0.211011
0.18738
0.1582
0.117314
0.0788221
0.0488766
0.0251772
0.0165499
5.35776e-24
1.21931e-19
2.974e-19
1.84229e-18
1.25222e-15
8.52419e-13
4.01613e-05
0.16627
0.446179
0.35666
0.309313
0.27906
0.258345
0.251502
0.214201
0.189491
0.159784
0.11798
0.0802361
0.0473859
0.0246704
0.0176846
5.27105e-24
2.84269e-20
4.69187e-21
1.08053e-18
1.2387e-15
4.16425e-13
4.11153e-05
0.139698
0.439941
0.35781
0.314954
0.282724
0.262037
0.254927
0.217783
0.191849
0.161364
0.118686
0.081655
0.0460209