/*--------------------------------*- C++ -*----------------------------------*\
| =========                 |                                                 |
| \\      /  F ield         | OpenFOAM: The Open Source CFD Toolbox           |
|  \\    /   O peration     | Version:  v1912                                 |
|   \\  /    A nd           | Website:  www.openfoam.com                      |
|    \\/     M anipulation  |                                                 |
\*---------------------------------------------------------------------------*/
FoamFile
{
    version     2.0;
    format      ascii;
    class       volScalarField;
    location    "480";
    object      p;
}
// * * * * * * * * * * * * * * * * * * * * * * * * * * * * * * * * * * * * * //

dimensions      [0 2 -2 0 0 0 0];


internalField   nonuniform List<scalar> 
12441
(
9.00821
9.31145
10.1765
11.5186
13.2556
15.4336
18.1498
21.4955
25.6665
30.8134
37.1555
44.9707
54.6516
66.2898
81.9294
101.662
129.786
165.211
222.791
285.578
376.415
438.471
9.0082
9.31144
10.1765
11.5186
13.2555
15.4335
18.1497
21.4954
25.6664
30.8131
37.1552
44.9701
54.6506
66.2882
81.9264
101.655
129.77
165.186
222.71
285.503
376.368
438.279
9.00818
9.31142
10.1764
11.5186
13.2555
15.4334
18.1496
21.4952
25.6661
30.8127
37.1544
44.9689
54.6487
66.2848
81.9203
101.64
129.745
165.129
222.543
285.323
376.24
437.931
9.00816
9.31139
10.1764
11.5185
13.2554
15.4333
18.1494
21.4949
25.6657
30.812
37.1533
44.9671
54.6458
66.2796
81.9113
101.619
129.711
165.042
222.365
285.048
376.005
437.39
9.00813
9.31136
10.1764
11.5184
13.2553
15.4332
18.1492
21.4945
25.6651
30.811
37.1519
44.9647
54.642
66.2728
81.8994
101.592
129.667
164.933
222.201
284.702
375.673
436.652
9.00809
9.31131
10.1763
11.5183
13.2552
15.433
18.1489
21.494
25.6643
30.8098
37.15
44.9618
54.6372
66.2643
81.8844
101.557
129.612
164.805
222.015
284.283
375.251
435.717
9.00804
9.31126
10.1762
11.5182
13.255
15.4327
18.1485
21.4934
25.6634
30.8084
37.1478
44.9582
54.6314
66.254
81.8665
101.517
129.548
164.654
221.797
283.795
374.742
434.585
9.00799
9.3112
10.1761
11.5181
13.2548
15.4324
18.1481
21.4927
25.6624
30.8068
37.1453
44.954
54.6247
66.2421
81.8458
101.47
129.477
164.483
221.56
283.25
374.15
433.253
9.00792
9.31112
10.1761
11.518
13.2546
15.4321
18.1476
21.4919
25.6612
30.8049
37.1423
44.9492
54.617
66.2286
81.8226
101.419
129.405
164.299
221.324
282.659
373.48
431.717
9.00785
9.31104
10.1759
11.5178
13.2544
15.4318
18.1471
21.491
25.6598
30.8027
37.139
44.9438
54.6083
66.2135
81.7981
101.368
129.338
164.114
221.114
282.032
372.732
429.972
9.00777
9.31095
10.1758
11.5176
13.2541
15.4314
18.1465
21.49
25.6583
30.8004
37.1354
44.9379
54.5988
66.1971
81.774
101.323
129.294
163.95
220.963
281.38
371.903
428.011
9.00769
9.31085
10.1757
11.5174
13.2538
15.4309
18.1458
21.4889
25.6567
30.7978
37.1314
44.9313
54.5883
66.1805
81.7544
101.297
129.31
163.845
220.903
280.706
370.987
425.822
9.00759
9.31075
10.1756
11.5172
13.2535
15.4305
18.1451
21.4877
25.6549
30.7949
37.127
44.9241
54.5772
66.1662
81.7502
101.316
129.437
163.85
220.942
280.004
369.975
423.396
9.00749
9.31063
10.1754
11.517
13.2532
15.4299
18.1443
21.4864
25.6529
30.7918
37.1222
44.9164
54.5661
66.1598
81.7805
101.415
129.727
164.01
221.052
279.253
368.858
420.72
9.00738
9.3105
10.1752
11.5168
13.2528
15.4294
18.1435
21.485
25.6508
30.7885
37.117
44.9081
54.5569
66.1716
81.8664
101.621
130.205
164.327
221.167
278.43
367.627
417.779
9.00726
9.31037
10.1751
11.5165
13.2524
15.4288
18.1426
21.4836
25.6486
30.785
37.1115
44.8996
54.5531
66.2147
82.0257
101.943
130.848
164.744
221.211
277.508
366.271
414.56
9.00714
9.31022
10.1749
11.5162
13.252
15.4281
18.1416
21.482
25.6462
30.7812
37.1056
44.8913
54.561
66.3001
82.2619
102.368
131.575
165.153
221.122
276.467
364.785
411.049
9.007
9.31007
10.1747
11.5159
13.2515
15.4275
18.1406
21.4803
25.6437
30.7771
37.0993
44.8845
54.5886
66.4328
82.5658
102.855
132.267
165.437
220.871
275.298
363.162
407.229
9.00686
9.30991
10.1745
11.5156
13.251
15.4268
18.1396
21.4785
25.641
30.7729
37.0925
44.882
54.6429
66.6076
82.9114
103.345
132.796
165.517
220.459
273.996
361.399
403.087
9.00671
9.30974
10.1742
11.5153
13.2505
15.426
18.1384
21.4766
25.6381
30.7683
37.0854
44.8875
54.7259
66.8136
83.2658
103.768
133.064
165.378
219.913
272.565
359.492
398.606
9.00655
9.30956
10.174
11.5149
13.25
15.4252
18.1372
21.4746
25.6352
30.7635
37.0782
44.906
54.8341
67.0327
83.5878
104.065
133.038
165.061
219.262
271.013
357.442
393.771
9.00639
9.30937
10.1737
11.5145
13.2495
15.4244
18.136
21.4725
25.632
30.7585
37.0716
44.9411
54.9594
67.2484
83.8447
104.199
132.754
164.634
218.535
269.347
355.248
388.563
9.00621
9.30917
10.1735
11.5141
13.2489
15.4235
18.1346
21.4703
25.6287
30.7531
37.0666
44.9933
55.0921
67.4413
84.0097
104.169
132.299
164.156
217.752
267.576
352.911
382.967
9.00603
9.30896
10.1732
11.5137
13.2483
15.4226
18.1333
21.468
25.6252
30.7475
37.0651
45.0597
55.2221
67.5994
84.078
104.002
131.766
163.663
216.922
265.709
350.434
376.962
9.00584
9.30875
10.1729
11.5133
13.2476
15.4216
18.1318
21.4657
25.6216
30.7416
37.0695
45.1353
55.3417
67.7114
84.055
103.743
131.231
163.166
216.051
263.756
347.82
370.529
9.00565
9.30852
10.1726
11.5129
13.247
15.4206
18.1303
21.4632
25.6178
30.7354
37.0817
45.2147
55.4444
67.7772
83.9632
103.436
130.734
162.662
215.139
261.726
345.07
363.648
9.00544
9.30829
10.1723
11.5124
13.2463
15.4196
18.1288
21.4606
25.6139
30.7291
37.1027
45.2927
55.5268
67.7971
83.8233
103.118
130.285
162.146
214.187
259.629
342.188
356.294
9.00523
9.30805
10.172
11.5119
13.2456
15.4185
18.1271
21.4579
25.6098
30.7229
37.1319
45.3654
55.5865
67.7812
83.6601
102.812
129.877
161.612
213.193
257.473
339.175
348.445
9.00501
9.3078
10.1717
11.5114
13.2448
15.4174
18.1255
21.4551
25.6055
30.7169
37.1673
45.4299
55.6244
67.7355
83.4873
102.527
129.498
161.055
212.158
255.265
336.03
340.074
9.00478
9.30753
10.1713
11.5109
13.2441
15.4163
18.1237
21.4522
25.6011
30.7113
37.2063
45.4843
55.6412
67.6717
83.3178
102.263
129.135
160.475
211.079
253.009
332.752
331.151
9.00454
9.30727
10.171
11.5104
13.2433
15.4151
18.1219
21.4492
25.5964
30.7065
37.2469
45.5278
55.6406
67.5946
83.1542
102.017
128.779
159.872
209.958
250.708
329.336
321.647
9.0043
9.30699
10.1706
11.5099
13.2425
15.4139
18.1201
21.4461
25.5916
30.7028
37.2874
45.5601
55.6248
67.5125
83.0004
101.783
128.425
159.247
208.795
248.362
325.776
311.529
9.00405
9.3067
10.1702
11.5093
13.2416
15.4126
18.1182
21.4429
25.5866
30.7008
37.3262
45.5816
55.5979
67.4264
82.8534
101.559
128.068
158.602
207.589
245.971
322.061
300.76
9.00379
9.3064
10.1698
11.5087
13.2407
15.4113
18.1162
21.4396
25.5815
30.7013
37.3624
45.593
55.5619
67.3414
82.7144
101.339
127.706
157.938
206.342
243.533
318.183
289.305
9.00352
9.3061
10.1694
11.5081
13.2398
15.4099
18.1142
21.4362
25.5762
30.7046
37.3954
45.5955
55.5203
67.256
82.5793
101.122
127.338
157.258
205.053
241.049
314.127
277.123
9.00324
9.30578
10.169
11.5075
13.2389
15.4085
18.1121
21.4327
25.5707
30.7118
37.4247
45.5905
55.4741
67.1737
82.449
100.906
126.965
156.561
203.723
238.52
309.884
264.172
9.00296
9.30546
10.1686
11.5069
13.238
15.4071
18.1099
21.4291
25.5651
30.7241
37.4507
45.5792
55.4257
67.0917
82.3199
100.689
126.586
155.85
202.354
235.949
305.441
250.409
9.00267
9.30513
10.1681
11.5062
13.237
15.4056
18.1077
21.4253
25.5599
30.7437
37.4737
45.563
55.3754
67.0129
82.1935
100.47
126.201
155.125
200.946
233.34
300.787
235.788
9.00237
9.30479
10.1677
11.5055
13.236
15.4041
18.1054
21.4215
25.5565
30.772
37.4942
45.543
55.3248
66.9346
82.0668
100.25
125.811
154.388
199.501
230.699
295.916
220.257
9.00206
9.30444
10.1672
11.5049
13.235
15.4026
18.1031
21.4175
25.5595
30.8099
37.5126
45.5204
55.2736
66.8596
81.9417
100.028
125.417
153.639
198.023
228.03
290.822
203.766
9.00175
9.30408
10.1667
11.5041
13.2339
15.401
18.1007
21.4134
25.5758
30.8576
37.5289
45.496
55.2228
66.7851
81.8157
99.8053
125.02
152.878
196.515
225.339
285.503
186.26
9.00142
9.30371
10.1663
11.5034
13.2328
15.3994
18.0982
21.4094
25.6121
30.9142
37.5429
45.4706
55.1716
66.7144
81.6916
99.5809
124.619
152.107
194.981
222.628
279.957
167.691
9.00109
9.30333
10.1658
11.5027
13.2317
15.3977
18.0957
21.4068
25.6725
30.9782
37.5543
45.4452
55.1208
66.6446
81.5665
99.3565
124.215
151.324
193.427
219.893
274.159
147.971
9.00076
9.30295
10.1652
11.5019
13.2306
15.396
18.093
21.4102
25.7562
31.0469
37.5628
45.4202
55.0693
66.5793
81.4439
99.1318
123.81
150.524
191.859
217.123
268.028
126.357
-19.6903
-21.0125
-20.325
-21.0115
-18.3625
-17.5255
-15.715
-15.188
-14.1686
-13.2875
-11.2104
-7.78012
-1.8157
2.13954
0.0667509
-6.38038
-6.7634
1.74124
11.4725
14.8282
15.1715
12.7888
10.7383
9.58596
8.24718
6.80496
5.20801
3.52402
2.21064
1.7224
1.06862
-1.25357
-2.69088
-3.37585
2.38789
-19.6889
-20.9913
-20.3496
-21.0156
-18.3633
-17.524
-15.7153
-15.1874
-14.1676
-13.2863
-11.2089
-7.78035
-1.81664
2.13905
0.0703682
-6.37125
-6.75225
1.74914
11.4766
14.8314
15.1748
12.7922
10.741
9.58802
8.24891
6.80654
5.20949
3.52548
2.21199
1.7228
1.07012
-1.25191
-2.6862
-3.40328
2.38567
-19.6859
-20.9698
-20.3855
-21.0221
-18.3645
-17.5227
-15.7154
-15.1867
-14.1668
-13.2852
-11.2086
-7.78041
-1.81599
2.14154
0.0777627
-6.35642
-6.72976
1.77418
11.4959
14.8428
15.1821
12.7979
10.7455
9.59171
8.25216
6.80955
5.21225
3.52806
2.21422
1.72386
1.07233
-1.24946
-2.68014
-3.43014
2.38365
-19.6816
-20.9558
-20.4316
-21.0305
-18.3667
-17.5217
-15.7154
-15.1859
-14.166
-13.2841
-11.2087
-7.77993
-1.81409
2.14493
0.0854184
-6.34056
-6.70095
1.81276
11.5303
14.8635
15.194
12.8067
10.7522
9.59716
8.25698
6.81404
5.21641
3.53192
2.2176
1.7258
1.07465
-1.24484
-2.66941
-3.4517
2.38181
-19.6761
-20.954
-20.485
-21.0399
-18.3693
-17.5205
-15.7148
-15.185
-14.1653
-13.2833
-11.2092
-7.77974
-1.8115
2.1487
0.0915093
-6.3291
-6.67673
1.85085
11.5688
14.8889
15.2095
12.8181
10.7609
9.60421
8.26315
6.81977
5.22175
3.53693
2.22206
1.72859
1.07722
-1.2376
-2.65434
-3.46704
2.38029
-19.6694
-20.9691
-20.5429
-21.0497
-18.3714
-17.5185
-15.7132
-15.1841
-14.1649
-13.2829
-11.2104
-7.77999
-1.80831
2.15317
0.0963744
-6.32253
-6.66064
1.88116
11.6039
14.915
15.2273
12.8318
10.7715
9.61264
8.27037
6.82639
5.22796
3.54285
2.22745
1.73214
1.08009
-1.2277
-2.63483
-3.47637
2.37913
-19.6616
-21.0051
-20.6027
-21.0595
-18.3725
-17.5156
-15.7107
-15.1833
-14.1649
-13.2834
-11.2125
-7.78069
-1.80422
2.15919
0.101185
-6.31904
-6.65142
1.90285
11.6325
14.939
15.2456
12.8469
10.7835
9.62219
8.27838
6.83357
5.23469
3.54939
2.23355
1.73633
1.08324
-1.21532
-2.61062
-3.47995
2.37834
-19.6529
-21.0651
-20.6621
-21.0689
-18.3727
-17.5119
-15.7073
-15.1827
-14.1652
-13.2848
-11.2156
-7.78159
-1.79895
2.16709
0.106422
-6.31709
-6.64653
1.91784
11.6545
14.9591
15.2626
12.8621
10.7962
9.6325
8.28686
6.84099
5.24161
3.55621
2.24012
1.74102
1.08658
-1.20076
-2.58198
-3.47785
2.37792
-19.6434
-21.1504
-20.7189
-21.0778
-18.3722
-17.5078
-15.7033
-15.1823
-14.1661
-13.2872
-11.2196
-7.78265
-1.79258
2.17675
0.11209
-6.31599
-6.6441
1.92838
11.6705
14.9743
15.2766
12.8758
10.8087
9.64303
8.29551
6.84836
5.24838
3.56298
2.24685
1.74602
1.09008
-1.18441
-2.54967
-3.47012
2.37788
-19.6333
-21.2609
-20.7714
-21.0862
-18.3714
-17.5038
-15.6991
-15.1821
-14.1674
-13.2906
-11.2244
-7.78385
-1.78551
2.18749
0.117776
-6.31566
-6.64296
1.93613
11.6816
14.9841
15.2861
12.8864
10.8196
9.65301
8.3039
6.85537
5.2547
3.56937
2.25341
1.75112
1.09367
-1.1668
-2.51477
-3.45671
2.37821
-19.6229
-21.3952
-20.8184
-21.094
-18.3705
-17.5002
-15.6951
-15.1823
-14.1692
-13.295
-11.23
-7.78532
-1.77831
2.1986
0.123215
-6.31611
-6.64262
1.94186
11.6884
14.9887
15.2906
12.8929
10.8278
9.66151
8.3115
6.8617
5.26031
3.57505
2.25945
1.75604
1.09729
-1.14849
-2.4785
-3.43758
2.37894
-19.6125
-21.5497
-20.8592
-21.1013
-18.3696
-17.4974
-15.6916
-15.1828
-14.1715
-13.3003
-11.2361
-7.78719
-1.7716
2.20915
0.128041
-6.31726
-6.64271
1.94575
11.6913
14.9886
15.2903
12.8951
10.8326
9.66775
8.31772
6.86699
5.26493
3.57977
2.26467
1.76049
1.10086
-1.13005
-2.4421
-3.4126
2.38007
-19.6025
-21.7196
-20.8936
-21.1083
-18.3689
-17.4956
-15.6889
-15.1838
-14.1744
-13.3065
-11.243
-7.78958
-1.76586
2.21846
0.132062
-6.31883
-6.6431
1.94759
11.6906
14.9846
15.2861
12.8935
10.8339
9.67128
8.32209
6.87093
5.26836
3.58334
2.26882
1.76422
1.1043
-1.11195
-2.40678
-3.38166
2.38164
-19.593
-21.8982
-20.9216
-21.115
-18.3687
-17.4949
-15.6872
-15.1854
-14.1779
-13.3136
-11.2503
-7.79258
-1.76142
2.22589
0.135024
-6.32044
-6.64356
1.9473
11.6869
14.9777
15.2789
12.889
10.8325
9.67222
8.3244
6.87329
5.27046
3.58565
2.27176
1.76699
1.10752
-1.0945
-2.37371
-3.34455
2.38368
-19.5846
-22.0778
-20.9439
-21.1214
-18.369
-17.4956
-15.6868
-15.1877
-14.1821
-13.3216
-11.2583
-7.79624
-1.75842
2.2312
0.136883
-6.3217
-6.64403
1.94507
11.6805
14.9684
15.2695
12.8827
10.8291
9.67108
8.3248
6.87406
5.27122
3.58673
2.27348
1.76869
1.11045
-1.07781
-2.34392
-3.3012
2.38622
-19.5775
-22.2504
-20.9611
-21.1276
-18.3699
-17.4977
-15.6877
-15.191
-14.1871
-13.3306
-11.267
-7.80062
-1.75684
2.23429
0.137615
-6.32238
-6.64435
1.94144
11.672
14.9569
15.2585
12.8752
10.8246
9.66859
8.32369
6.87343
5.27078
3.58673
2.2741
1.76934
1.11301
-1.06175
-2.31835
-3.25163
2.38933
-19.572
-22.4089
-20.9741
-21.1334
-18.3719
-17.5017
-15.6903
-15.1953
-14.1932
-13.3408
-11.2766
-7.80582
-1.75653
2.23549
0.137384
-6.32247
-6.6444
1.93706
11.6616
14.9433
15.2458
12.867
10.8197
9.66536
8.32159
6.87173
5.26936
3.58586
2.27384
1.76903
1.11521
-1.04607
-2.29763
-3.19632
2.39305
-19.5682
-22.5479
-20.9838
-21.1388
-18.3751
-17.5076
-15.6947
-15.201
-14.2007
-13.3524
-11.2874
-7.81196
-1.75733
2.23512
0.13624
-6.32216
-6.64392
1.93254
11.6497
14.9275
15.2312
12.8579
10.8145
9.66181
8.31892
6.86931
5.26721
3.58435
2.27294
1.76796
1.11711
-1.03046
-2.28198
-3.13621
2.39742
-19.5662
-22.6653
-20.9909
-21.1438
-18.3796
-17.5157
-15.7013
-15.2084
-14.2098
-13.3658
-11.2999
-7.81936
-1.75914
2.23372
0.134341
-6.32173
-6.64278
1.92823
11.6362
14.9094
15.2145
12.8479
10.8091
9.65811
8.31597
6.86646
5.26457
3.58239
2.2716
1.76631
1.11879
-1.0147
-2.27106
-3.073
2.40248
-19.5659
-22.7622
-20.9959
-21.149
-18.3854
-17.5264
-15.7105
-15.218
-14.2211
-13.3814
-11.3146
-7.82847
-1.76205
2.23154
0.131675
-6.32143
-6.64072
1.92437
11.6212
14.8889
15.1955
12.8366
10.8033
9.65427
8.31288
6.86339
5.2616
3.58015
2.26999
1.76421
1.12037
-0.998657
-2.26415
-3.00874
2.4082
-19.5667
-22.8434
-20.9991
-21.155
-18.3925
-17.5398
-15.7228
-15.2305
-14.2353
-13.3999
-11.3327
-7.84008
-1.76637
2.22882
0.128406
-6.32141
-6.63762
1.92096
11.6046
14.8659
15.1743
12.8241
10.797
9.65022
8.30973
6.8602
5.25843
3.57773
2.26821
1.76177
1.12194
-0.982294
-2.26038
-2.94562
2.41456
-19.5682
-22.9139
-21.0011
-21.1628
-18.4007
-17.5564
-15.7388
-15.2466
-14.253
-13.422
-11.3552
-7.85527
-1.77275
2.22525
0.124458
-6.32171
-6.6332
1.91803
11.5861
14.8402
15.1506
12.8103
10.7901
9.6459
8.30649
6.85694
5.25511
3.57521
2.26634
1.75907
1.12358
-0.96562
-2.25894
-2.88525
2.42148
-19.5698
-22.9776
-21.0035
-21.1737
-18.41
-17.5766
-15.7591
-15.2674
-14.2753
-13.449
-11.3838
-7.87544
-1.78207
2.22058
0.119904
-6.32227
-6.62739
1.91538
11.5655
14.8119
15.1247
12.7952
10.7827
9.64125
8.30316
6.85361
5.25169
3.57263
2.26438
1.75616
1.12532
-0.948657
-2.25913
-2.82855
2.42888
-19.5711
-23.0377
-21.0075
-21.1893
-18.4205
-17.6007
-15.7846
-15.2937
-14.3032
-13.4816
-11.4196
-7.90206
-1.79542
2.21403
0.114424
-6.32301
-6.62001
1.91285
11.5426
14.7807
15.0965
12.779
10.7747
9.63628
8.29972
6.85018
5.24816
3.57002
2.26238
1.75308
1.12721
-0.931459
-2.26045
-2.7755
2.43667
-19.5716
-23.0972
-21.0136
-21.2111
-18.4324
-17.6296
-15.8161
-15.3266
-14.3378
-13.5212
-11.464
-7.93633
-1.81354
2.20519
0.107816
-6.32391
-6.61125
1.91008
11.5171
14.7469
15.0662
12.7616
10.7661
9.63099
8.29615
6.84662
5.24452
3.56738
2.26034
1.74988
1.12924
-0.914098
-2.26248
-2.72556
2.44478
-19.571
-23.1584
-21.0207
-21.2405
-18.4463
-17.6639
-15.8545
-15.3669
-14.3799
-13.5682
-11.5171
-7.97867
-1.83659
2.19348
0.0993302
-6.32517
-6.60118
1.9068
11.4887
14.7102
15.0339
12.7433
10.757
9.62542
8.29244
6.84287
5.24077
3.56474
2.25827
1.74659
1.13142
-0.896685
-2.26494
-2.67774
2.45318
-19.5691
-23.2235
-21.027
-21.278
-18.4626
-17.7041
-15.9004
-15.415
-14.43
-13.6231
-11.5787
-8.02841
-1.86333
2.17968
0.0885002
-6.32726
-6.59033
1.90253
11.457
14.6707
14.9997
12.724
10.7475
9.61961
8.28857
6.83891
5.23691
3.56209
2.25619
1.74324
1.13373
-0.879341
-2.26759
-2.63115
2.46183
-19.5656
-23.2942
-21.0301
-21.3236
-18.4816
-17.7501
-15.9534
-15.47
-14.4873
-13.6844
-11.6464
-8.08335
-1.89148
2.16507
0.0746603
-6.33083
-6.57903
1.89697
11.4218
14.6283
14.9637
12.7039
10.7375
9.61359
8.2845
6.83469
5.23292
3.55945
2.25413
1.73987
1.13611
-0.862228
-2.27026
-2.58479
2.47072
-19.5605
-23.3727
-21.0285
-21.3761
-18.5034
-17.8009
-16.0119
-15.53
-14.5502
-13.7506
-11.7175
-8.14
-1.91752
2.15261
0.0582646
-6.33633
-6.56799
1.88967
11.3829
14.583
14.926
12.6831
10.7271
9.60737
8.28017
6.83017
5.22881
3.55681
2.2521
1.73648
1.13854
-0.845505
-2.27284
-2.53799
2.47986
-19.5536
-23.4611
-21.0224
-21.4334
-18.5279
-17.8543
-16.0723
-15.591
-14.6149
-13.8177
-11.7872
-8.19361
-1.93779
2.14455
0.040038
-6.34352
-6.55734
1.88057
11.3405
14.535
14.8867
12.6615
10.7164
9.60097
8.27554
6.8253
5.22456
3.55422
2.25018
1.73312
1.14096
-0.829382
-2.27523
-2.49002
2.48926
-19.5446
-23.5633
-21.0133
-21.4921
-18.5546
-17.9067
-16.1297
-15.6476
-14.677
-13.8817
-11.851
-8.23898
-1.9486
2.14316
0.0217287
-6.35127
-6.54714
1.8696
11.2946
14.4843
14.8459
12.6393
10.7055
9.59436
8.27052
6.82006
5.22018
3.55169
2.24836
1.72978
1.14332
-0.814056
-2.27737
-2.44051
2.49895
-19.5333
-23.6847
-21.0036
-21.5474
-18.5825
-17.9536
-16.1775
-15.6935
-14.7307
-13.9372
-11.9033
-8.27111
-1.94783
2.14818
0.00438688
-6.35768
-6.53652
1.85733
11.2459
14.4313
14.8037
12.6165
10.6943
9.58751
8.26503
6.81439
5.21567
3.54927
2.24674
1.72648
1.14557
-0.799796
-2.27925
-2.38896
2.50893
-19.5193
-23.8332
-20.9947
-21.5933
-18.6101
-17.9899
-16.2095
-15.7227
-14.7707
-13.9801
-11.9403
-8.28655
-1.93514
2.15824
-0.0110242
-6.36087
-6.52465
1.84431
11.1948
14.3764
14.7604
12.5933
10.683
9.58038
8.25899
6.80826
5.21102
3.54698
2.24532
1.72324
1.14763
-0.786852
-2.28082
-2.3352
2.51923
-19.5022
-24.0196
-20.9863
-21.6236
-18.6356
-18.0108
-16.2202
-15.7303
-14.7928
-14.0067
-11.9591
-8.28444
-1.91353
2.16921
-0.0250164
-6.35957
-6.51008
1.83158
11.1423
14.3201
14.7159
12.5696
10.6714
9.57288
8.2523
6.80162
5.20626
3.54489
2.2442
1.72006
1.14947
-0.775576
-2.28212
-2.27888
2.52987
-19.481
-24.2572
-20.9755
-21.6337
-18.6572
-18.0132
-16.207
-15.7142
-14.7952
-14.0164
-11.9601
-8.26735
-1.88842
2.17667
-0.0387014
-6.35361
-6.49213
1.81973
11.0891
14.2631
14.6708
12.5457
10.6598
9.56497
8.24487
6.79445
5.2014
3.54303
2.24341
1.71697
1.15101
-0.766273
-2.28312
-2.21997
2.54087
-19.4549
-24.5614
-20.9575
-21.6227
-18.6738
-17.9964
-16.1703
-15.6755
-14.7787
-14.0101
-11.9453
-8.24088
-1.86666
2.17578
-0.0543691
-6.34357
-6.47001
1.80948
11.0359
14.2059
14.6251
12.5215
10.648
9.55653
8.2366
6.7867
5.19644
3.54148
2.24304
1.71399
1.15218
-0.759388
-2.28388
-2.15821
2.55223
-19.4224
-24.9472
-20.9268
-21.5933
-18.6852
-17.9628
-16.1138
-15.6186
-14.7471
-13.991
-11.9191
-8.21212
-1.85333
2.16393
-0.0739934
-6.33053
-6.44402
1.80088
10.9831
14.1491
14.5793
12.4971
10.6359
9.5475
8.22743
6.77839
5.19144
3.54026
2.24315
1.71114
1.15289
-0.75529
-2.28438
-2.09362
2.56398
-19.3822
-25.4235
-20.8781
-21.5512
-18.692
-17.9163
-16.0435
-15.5497
-14.7051
-13.9626
-11.8871
-8.18704
-1.85046
2.14004
-0.0991592
-6.31538
-6.4141
1.79422
10.9309
14.0932
14.5336
12.4728
10.6237
9.53777
8.21727
6.76948
5.18641
3.53947
2.24386
1.70844
1.15306
-0.754538
-2.28471
-2.02593
2.57614
-19.3331
-25.9812
-20.8055
-21.5024
-18.6953
-17.8622
-15.9662
-15.4758
-14.6578
-13.9286
-11.8556
-8.16848
-1.85678
2.10537
-0.130001
-6.29865
-6.38071
1.78924
10.8792
14.0382
14.4883
12.4483
10.6111
9.52729
8.20612
6.76002
5.18139
3.53914
2.24522
1.70592
1.15255
-0.757597
-2.28486
-1.9551
2.58874
-19.2737
-26.5785
-20.7018
-21.4516
-18.6962
-17.8052
-15.8881
-15.4028
-14.6086
-13.8927
-11.8296
-8.1556
-1.87001
2.06153
-0.165668
-6.27963
-6.34327
1.7859
10.8277
13.9838
14.4434
12.424
10.5983
9.51608
8.19399
6.75003
5.17642
3.53934
2.24737
1.70363
1.15123
-0.765178
-2.28482
-1.88073
2.60178
-19.1956
-27.1275
-20.5592
-21.4018
-18.6952
-17.7486
-15.8139
-15.3342
-14.5601
-13.8603
-11.8113
-8.14606
-1.88843
2.01089
-0.20353
-6.2567
-6.30217
1.78277
10.7752
13.9296
14.399
12.3999
10.5856
9.5043
8.18096
6.73952
5.17144
3.54002
2.25035
1.70161
1.14891
-0.777656
-2.28442
-1.8032
2.61522
-19.0722
-27.4921
-20.3701
-21.3535
-18.6914
-17.6942
-15.7462
-15.2715
-14.5163
-13.8361
-11.7987
-8.1384
-1.91147
1.95607
-0.239849
-6.22832
-6.25892
1.77739
10.7205
13.8749
14.3555
12.3769
10.5733
9.4921
8.16691
6.72827
5.16632
3.54123
2.25439
1.69996
1.14567
-0.795025
-2.28419
-1.72417
2.62881
-18.9119
-27.5102
-20.1277
-21.306
-18.6829
-17.6421
-15.6855
-15.2169
-14.4831
-13.8205
-11.7894
-8.13309
-1.93771
1.90259
-0.269899
-6.19617
-6.21991
1.76533
10.6629
13.8211
14.3148
12.3562
10.562
9.47923
8.15128
6.71588
5.16094
3.54307
2.25972
1.69882
1.14181
-0.816854
-2.28523
-1.64578
2.64252
-18.9996
-27.0506
-19.8245
-21.2608
-18.6717
-17.5946
-15.6316
-15.1743
-14.4626
-13.8106
-11.7825
-8.13021
-1.96419
1.85435
-0.293856
-6.16659
-6.1918
1.74591
10.6066
13.7722
14.2796
12.3389
10.5507
9.46342
8.13196
6.70164
5.15581
3.54665
2.2676
1.69838
1.13556
-0.850624
-2.28588
-1.55234
2.65893
9.00049
9.30264
10.1648
11.5013
13.2297
15.3946
18.0909
21.43
25.8354
31.1
37.5662
45.4007
55.0294
66.5309
81.3496
98.958
123.496
149.889
190.639
214.93
262.962
104.63
9.00029
9.30241
10.1645
11.5009
13.229
15.3936
18.0894
21.4604
25.8936
31.1333
37.565
45.3857
54.9999
66.5007
81.2856
98.832
123.268
149.421
189.756
213.337
259.092
101.677
9.00008
9.30217
10.1642
11.5004
13.2283
15.3926
18.0877
21.4983
25.9439
31.1586
37.5602
45.3692
54.9705
66.4677
81.2186
98.7027
123.032
148.935
188.852
211.682
255.063
103.34
8.99986
9.30192
10.1639
11.4999
13.2276
15.3915
18.086
21.5365
25.9856
31.1772
37.5537
45.352
54.9406
66.4358
81.1524
98.568
122.786
148.429
187.925
209.96
250.921
103.213
8.99963
9.30166
10.1635
11.4994
13.2268
15.3903
18.0842
21.57
26.0192
31.1902
37.5466
45.3346
54.9116
66.4006
81.0824
98.4284
122.528
147.901
186.97
208.169
246.653
101.403
8.99938
9.30138
10.1632
11.4989
13.226
15.389
18.0823
21.5931
26.0454
31.1988
37.5398
45.3173
54.8828
66.3665
81.0128
98.2822
122.256
147.351
185.98
206.31
242.257
99.3394
8.99912
9.30108
10.1628
11.4983
13.2251
15.3877
18.0802
21.6022
26.0644
31.2036
37.5338
45.3004
54.8555
66.3295
80.9394
98.1301
121.969
146.777
184.949
204.387
237.737
97.418
8.99885
9.30077
10.1624
11.4977
13.2242
15.3863
18.0781
21.5977
26.0767
31.2054
37.529
45.2842
54.8287
66.2937
80.8659
97.9706
121.664
146.179
183.871
202.399
233.097
95.4757
8.99856
9.30044
10.1619
11.497
13.2232
15.3848
18.0758
21.583
26.0825
31.2046
37.5255
45.2689
54.8036
66.2551
80.7883
97.8044
121.34
145.554
182.74
200.346
228.343
93.4142
8.99826
9.3001
10.1615
11.4964
13.2222
15.3833
18.0734
21.5613
26.0818
31.2016
37.5231
45.2545
54.779
66.2177
80.7103
97.6303
120.995
144.901
181.55
198.229
223.479
91.2577
8.99794
9.29973
10.161
11.4956
13.2212
15.3816
18.0709
21.5348
26.0744
31.1964
37.5218
45.2411
54.7558
66.1775
80.6279
97.4492
120.63
144.219
180.294
196.046
218.51
89.0412
8.9976
9.29934
10.1605
11.4949
13.22
15.3798
18.0682
21.5051
26.06
31.1888
37.5211
45.2288
54.733
66.1382
80.5446
97.26
120.244
143.506
178.967
193.796
213.44
86.7756
8.99724
9.29893
10.1599
11.4941
13.2188
15.378
18.0654
21.474
26.0377
31.1785
37.5207
45.2174
54.7114
66.096
80.4564
97.0636
119.836
142.76
177.566
191.479
208.274
84.4649
8.99687
9.2985
10.1593
11.4932
13.2175
15.376
18.0623
21.4434
26.0068
31.1648
37.5199
45.2068
54.6898
66.0542
80.3665
96.8586
119.407
141.979
176.086
189.092
203.018
82.1177
8.99647
9.29804
10.1587
11.4923
13.2162
15.3739
18.0591
21.4148
25.9666
31.1468
37.5178
45.197
54.669
66.0089
80.2711
96.6457
118.956
141.163
174.524
186.634
197.677
79.7463
8.99604
9.29756
10.1581
11.4914
13.2148
15.3717
18.0557
21.3897
25.9168
31.1232
37.5135
45.1877
54.6479
65.9634
80.1731
96.4234
118.483
140.31
172.879
184.105
192.255
77.3636
8.99559
9.29705
10.1574
11.4904
13.2133
15.3693
18.0521
21.3686
25.8578
31.0928
37.5056
45.1785
54.6273
65.9137
80.0685
96.1921
117.987
139.418
171.148
181.501
186.756
74.9838
8.99512
9.2965
10.1567
11.4893
13.2117
15.3668
18.0483
21.3518
25.7908
31.0539
37.4924
45.1688
54.6061
65.863
79.9602
95.9501
117.469
138.487
169.331
178.822
181.185
72.6207
8.99462
9.29593
10.1559
11.4882
13.21
15.3642
18.0443
21.3387
25.7184
31.0051
37.4716
45.1578
54.585
65.8076
79.8442
95.6976
116.926
137.514
167.426
176.067
175.546
70.287
8.99408
9.29532
10.1551
11.487
13.2082
15.3614
18.04
21.3283
25.6443
30.9451
37.4404
45.1441
54.563
65.7502
79.723
95.4327
116.357
136.499
165.434
173.233
169.842
67.9932
8.99352
9.29467
10.1542
11.4857
13.2063
15.3584
18.0354
21.3197
25.5723
30.8738
37.3958
45.1256
54.5404
65.6873
79.5927
95.1554
115.762
135.439
163.353
170.319
164.079
65.7465
8.99292
9.29398
10.1533
11.4844
13.2043
15.3552
18.0304
21.3117
25.5064
30.7923
37.3343
45.0992
54.5155
65.6218
79.4556
94.8638
115.138
134.334
161.183
167.324
158.261
63.5497
8.99228
9.29326
10.1524
11.483
13.2021
15.3519
18.0252
21.3039
25.4494
30.7032
37.2528
45.0605
54.4876
65.5501
79.3077
94.5577
114.485
133.181
158.924
164.246
152.395
61.4011
8.9916
9.29248
10.1513
11.4815
13.1999
15.3483
18.0197
21.2959
25.4027
30.6108
37.1495
45.0037
54.4532
65.4748
79.1515
94.2352
113.799
131.978
156.576
161.084
146.487
59.2937
8.99089
9.29166
10.1502
11.4799
13.1975
15.3445
18.0138
21.2874
25.3658
30.5202
37.0255
44.9215
54.4085
65.3919
78.983
93.896
113.081
130.725
154.138
157.836
140.546
57.2159
8.99012
9.29079
10.1491
11.4782
13.1949
15.3405
18.0075
21.2783
25.3367
30.4359
36.885
44.8063
54.3457
65.3025
78.8043
93.5382
112.327
129.418
151.61
154.499
134.581
55.1512
8.98931
9.28987
10.1478
11.4763
13.1922
15.3363
18.0008
21.2685
25.3128
30.3611
36.7354
44.6527
54.2544
65.2004
78.6111
93.1614
111.538
128.056
148.992
151.074
128.603
53.0799
8.98845
9.28888
10.1465
11.4744
13.1893
15.3318
17.9938
21.2581
25.2919
30.2969
36.586
44.4604
54.1197
65.0816
78.4045
92.7639
110.711
126.638
146.284
147.557
122.624
50.9796
8.98753
9.28784
10.1451
11.4724
13.1862
15.327
17.9862
21.2469
25.2721
30.2425
36.4452
44.2364
53.9271
64.9325
78.1777
92.3449
109.846
125.16
143.486
143.947
116.656
48.8269
8.98656
9.28673
10.1437
11.4702
13.183
15.3219
17.9782
21.2349
25.2523
30.1959
36.319
43.995
53.6654
64.7388
77.9265
91.9013
108.942
123.623
140.599
140.243
110.714
46.5986
8.98552
9.28554
10.1421
11.4679
13.1795
15.3165
17.9698
21.2222
25.2319
30.1542
36.2096
43.7538
53.3362
64.4764
77.6359
91.4299
107.998
122.023
137.623
136.444
104.811
44.2727
8.98441
9.28428
10.1404
11.4654
13.1758
15.3107
17.9607
21.2086
25.2103
30.115
36.1157
43.5283
52.9558
64.1269
77.2885
90.923
107.012
120.36
134.561
132.55
98.9625
41.8303
8.98323
9.28294
10.1386
11.4628
13.1719
15.3046
17.9511
21.1941
25.1874
30.0759
36.0337
43.3279
52.5534
63.6792
76.8553
90.369
105.982
118.633
131.413
128.561
93.1831
39.2561
8.98198
9.28151
10.1367
11.46
13.1677
15.2981
17.9409
21.1787
25.1629
30.0358
35.9588
43.1542
52.1611
63.1462
76.3108
89.7482
104.901
116.839
128.182
124.478
87.4873
36.5395
8.98064
9.27999
10.1347
11.457
13.1632
15.2912
17.9301
21.1623
25.1369
29.9939
35.8866
43.003
51.8029
62.5601
75.6368
89.0356
103.76
114.978
124.87
120.304
81.8895
33.6753
8.97921
9.27836
10.1325
11.4539
13.1584
15.2838
17.9186
21.1448
25.1092
29.9495
35.8137
42.8664
51.4885
61.9668
74.8428
88.2037
102.543
113.048
121.481
116.044
76.4036
30.6643
8.97769
9.27663
10.1302
11.4505
13.1534
15.2759
17.9063
21.1262
25.0797
29.9024
35.738
42.7365
51.2143
61.4055
73.9657
87.2354
101.232
111.046
118.02
111.703
71.0431
27.5132
8.97607
9.27478
10.1277
11.4469
13.148
15.2676
17.8932
21.1063
25.0483
29.8523
35.6583
42.6065
50.9679
60.898
73.0638
86.1342
99.8055
108.971
114.495
107.289
65.8211
24.2345
8.97433
9.27281
10.1251
11.443
13.1422
15.2586
17.8793
21.0852
25.0148
29.7991
35.5739
42.4721
50.7348
60.4436
72.1915
84.9327
98.2523
106.82
110.919
102.815
60.7511
20.8464
8.97248
9.27071
10.1223
11.4389
13.136
15.2491
17.8645
21.0626
24.9792
29.7425
35.4844
42.3307
50.5024
60.027
71.3811
83.6832
96.5764
104.594
107.311
98.2937
55.8469
17.3721
8.9705
9.26846
10.1193
11.4345
13.1295
15.239
17.8487
21.0386
24.9413
29.6824
35.3893
42.1811
50.2624
59.6265
70.6342
82.4395
94.8027
102.301
103.696
93.7481
51.1242
13.8394
8.96839
9.26606
10.116
11.4299
13.1225
15.2282
17.8319
21.0129
24.901
29.6184
35.2883
42.0227
50.01
59.2233
69.9297
81.2348
92.9703
99.95
100.108
89.2062
46.6004
10.28
8.96613
9.2635
10.1126
11.4249
13.115
15.2166
17.814
20.9856
24.8579
29.5504
35.181
41.8547
49.7434
58.8046
69.2377
80.0739
91.118
97.5562
96.5824
84.7045
42.2956
6.72939
8.96371
9.26076
10.109
11.4195
13.107
15.2043
17.7949
20.9564
24.8121
29.478
35.067
41.6764
49.4615
58.3638
68.5317
78.9376
89.2702
95.1281
93.1485
80.286
38.2318
3.22649
8.96113
9.25783
10.105
11.4138
13.0984
15.1912
17.7745
20.9253
24.7633
29.4009
34.9459
41.4872
49.1633
57.8985
67.7941
77.7961
87.4321
92.664
89.8186
75.9958
34.4318
-0.187198
8.95837
9.2547
10.1009
11.4077
13.0893
15.1772
17.7528
20.892
24.7112
29.319
34.8172
41.2865
48.8478
57.4076
67.0172
76.6207
85.5913
90.1527
86.5742
71.8717
30.916
-3.46865
8.95541
9.25135
10.0964
11.4012
13.0795
15.1622
17.7296
20.8566
24.6558
29.2317
34.6804
41.0736
48.514
56.89
66.1994
75.3929
83.7232
87.5852
83.3653
67.9311
27.6978
-6.57525
8.95225
9.24777
10.0916
11.3942
13.0691
15.1462
17.7049
20.8187
24.5966
29.1389
34.5351
40.8477
48.1608
56.3442
65.3414
74.1055
81.8016
84.9585
80.1282
64.1572
24.7768
-9.4678
8.94886
9.24393
10.0865
11.3868
13.0579
15.1291
17.6785
20.7784
24.5336
29.04
34.3807
40.6081