/*--------------------------------*- C++ -*----------------------------------*\
| =========                 |                                                 |
| \\      /  F ield         | OpenFOAM: The Open Source CFD Toolbox           |
|  \\    /   O peration     | Version:  v1912                                 |
|   \\  /    A nd           | Website:  www.openfoam.com                      |
|    \\/     M anipulation  |                                                 |
\*---------------------------------------------------------------------------*/
FoamFile
{
    version     2.0;
    format      ascii;
    class       surfaceScalarField;
    location    "480";
    object      phi;
}
// * * * * * * * * * * * * * * * * * * * * * * * * * * * * * * * * * * * * * //

dimensions      [0 3 -1 0 0 0 0];
oriented        oriented;


internalField   nonuniform List<scalar> 
24588
(
6.81683e-05
1.98929e-08
6.81141e-05
5.46683e-08
6.80288e-05
8.48618e-08
6.79128e-05
1.15921e-07
6.7762e-05
1.50331e-07
6.7572e-05
1.90091e-07
6.73371e-05
2.3458e-07
6.70421e-05
2.94892e-07
6.6677e-05
3.65319e-07
6.62178e-05
4.57727e-07
6.5658e-05
5.60816e-07
6.49643e-05
6.96389e-07
6.41081e-05
8.89198e-07
6.29415e-05
1.14421e-06
6.14187e-05
1.41883e-06
5.91847e-05
2.33999e-06
5.62458e-05
2.93104e-06
5.1419e-05
4.82823e-06
4.46922e-05
6.72622e-06
3.34828e-05
1.12091e-05
1.98677e-05
1.36153e-05
1.98675e-05
6.81686e-05
4.02496e-08
6.8114e-05
1.09886e-07
6.80288e-05
1.69547e-07
6.79129e-05
2.31665e-07
6.7762e-05
3.00536e-07
6.75722e-05
3.80108e-07
6.73372e-05
4.69169e-07
6.70424e-05
5.89491e-07
6.66772e-05
7.30894e-07
6.62177e-05
9.15568e-07
6.56598e-05
1.11997e-06
6.49612e-05
1.39816e-06
6.41179e-05
1.77047e-06
6.29586e-05
2.28422e-06
6.14035e-05
2.86496e-06
5.9259e-05
4.58567e-06
5.62629e-05
5.91354e-06
5.13878e-05
9.70485e-06
4.47374e-05
1.33755e-05
3.3386e-05
2.25599e-05
1.98311e-05
2.71703e-05
3.96985e-05
6.81686e-05
6.06182e-08
6.8114e-05
1.65115e-07
6.80287e-05
2.54258e-07
6.79128e-05
3.47419e-07
6.7762e-05
4.50759e-07
6.75721e-05
5.70149e-07
6.73371e-05
7.03772e-07
6.70423e-05
8.84112e-07
6.66772e-05
1.09639e-06
6.62173e-05
1.37374e-06
6.56594e-05
1.67898e-06
6.49619e-05
2.09874e-06
6.41093e-05
2.66056e-06
6.29469e-05
3.4189e-06
6.13984e-05
4.29634e-06
5.92921e-05
6.8123e-06
5.62602e-05
8.92849e-06
5.14088e-05
1.45594e-05
4.47144e-05
2.00683e-05
3.34081e-05
3.38655e-05
1.98517e-05
4.0727e-05
5.95499e-05
6.81686e-05
8.09749e-08
6.8114e-05
2.20298e-07
6.80288e-05
3.38936e-07
6.79129e-05
4.63168e-07
6.77621e-05
6.00947e-07
6.75722e-05
7.60148e-07
6.73372e-05
9.38378e-07
6.70424e-05
1.17875e-06
6.66771e-05
1.46199e-06
6.62176e-05
1.83168e-06
6.56591e-05
2.23866e-06
6.49612e-05
2.79987e-06
6.41171e-05
3.54255e-06
6.29567e-05
4.56151e-06
6.13997e-05
5.74947e-06
5.93111e-05
8.99661e-06
5.62834e-05
1.19411e-05
5.14238e-05
1.94208e-05
4.47049e-05
2.67853e-05
3.34379e-05
4.51316e-05
1.98859e-05
5.42792e-05
7.94356e-05
6.81686e-05
1.01343e-07
6.8114e-05
2.7549e-07
6.80287e-05
4.2364e-07
6.79129e-05
5.78926e-07
6.7762e-05
7.51149e-07
6.75721e-05
9.50175e-07
6.73371e-05
1.17299e-06
6.70423e-05
1.47339e-06
6.66771e-05
1.82751e-06
6.62173e-05
2.28985e-06
6.56593e-05
2.79776e-06
6.49626e-05
3.49962e-06
6.41081e-05
4.43359e-06
6.29456e-05
5.69497e-06
6.13974e-05
7.18063e-06
5.93192e-05
1.11951e-05
5.6308e-05
1.49354e-05
5.14257e-05
2.43067e-05
4.47236e-05
3.34858e-05
3.34845e-05
5.637e-05
1.99347e-05
6.78293e-05
9.93701e-05
6.81686e-05
1.21699e-07
6.8114e-05
3.30634e-07
6.80288e-05
5.083e-07
6.79129e-05
6.94673e-07
6.77621e-05
9.01304e-07
6.75722e-05
1.14015e-06
6.73373e-05
1.4076e-06
6.70424e-05
1.76805e-06
6.66771e-05
2.19315e-06
6.62177e-05
2.74773e-06
6.56588e-05
3.35789e-06
6.49608e-05
4.20079e-06
6.41169e-05
5.31493e-06
6.2957e-05
6.83923e-06
6.13993e-05
8.64104e-06
5.9318e-05
1.33676e-05
5.63231e-05
1.79154e-05
5.14371e-05
2.91944e-05
4.47555e-05
4.01652e-05
3.35509e-05
6.75737e-05
2.00003e-05
8.138e-05
0.00011937
6.81686e-05
1.42071e-07
6.8114e-05
3.85795e-07
6.80287e-05
5.9299e-07
6.79129e-05
8.10429e-07
6.7762e-05
1.05147e-06
6.75722e-05
1.33015e-06
6.73372e-05
1.6422e-06
6.70423e-05
2.06269e-06
6.66772e-05
2.55869e-06
6.62174e-05
3.2058e-06
6.56596e-05
3.91678e-06
6.49632e-05
4.90015e-06
6.41064e-05
6.20716e-06
6.29448e-05
7.96899e-06
6.13981e-05
1.00735e-05
5.9311e-05
1.55703e-05
5.63372e-05
2.08754e-05
5.14582e-05
3.40772e-05
4.48042e-05
4.6818e-05
3.36447e-05
7.87327e-05
2.00858e-05
9.49392e-05
0.000139456
6.81686e-05
1.62427e-07
6.8114e-05
4.40904e-07
6.80288e-05
6.77632e-07
6.7913e-05
9.2617e-07
6.77621e-05
1.20159e-06
6.75723e-05
1.5201e-06
6.73373e-05
1.87681e-06
6.70425e-05
2.35734e-06
6.66772e-05
2.92435e-06
6.62179e-05
3.66354e-06
6.56586e-05
4.47738e-06
6.49598e-05
5.60203e-06
6.4116e-05
7.08729e-06
6.29576e-05
9.11351e-06
6.13954e-05
1.15475e-05
5.92941e-05
1.77533e-05
5.63544e-05
2.38036e-05
5.15081e-05
3.89243e-05
4.48884e-05
5.34358e-05
3.37782e-05
8.98422e-05
2.01951e-05
0.000108522
0.000159651
6.81686e-05
1.82801e-07
6.8114e-05
4.96034e-07
6.80287e-05
7.62312e-07
6.79129e-05
1.04192e-06
6.77621e-05
1.35171e-06
6.75722e-05
1.71008e-06
6.73372e-05
2.11139e-06
6.70424e-05
2.65197e-06
6.66772e-05
3.28989e-06
6.62177e-05
4.12143e-06
6.56603e-05
5.0359e-06
6.49646e-05
6.30043e-06
6.41036e-05
7.98194e-06
6.29351e-05
1.02477e-05
6.13758e-05
1.30117e-05
5.92858e-05
1.99227e-05
5.63614e-05
2.6722e-05
5.16172e-05
4.36715e-05
4.50309e-05
6.00218e-05
3.39639e-05
0.000100909
2.0333e-05
0.000122154
0.000179984
6.81686e-05
2.03154e-07
6.8114e-05
5.51108e-07
6.80288e-05
8.46941e-07
6.7913e-05
1.15765e-06
6.77622e-05
1.50179e-06
6.75724e-05
1.89999e-06
6.73374e-05
2.34598e-06
6.70426e-05
2.94661e-06
6.66773e-05
3.65556e-06
6.62183e-05
4.57887e-06
6.56584e-05
5.59712e-06
6.4957e-05
7.00495e-06
6.41049e-05
8.86748e-06
6.29292e-05
1.14088e-05
6.13648e-05
1.45254e-05
5.93046e-05
2.20234e-05
5.6379e-05
2.96416e-05
5.17915e-05
4.82587e-05
4.52363e-05
6.65757e-05
3.42068e-05
0.000111938
2.0503e-05
0.000135857
0.000200486
6.81686e-05
2.23531e-07
6.8114e-05
6.0621e-07
6.80287e-05
9.31615e-07
6.79129e-05
1.27339e-06
6.77621e-05
1.65188e-06
6.75723e-05
2.08994e-06
6.73373e-05
2.58055e-06
6.70425e-05
3.24122e-06
6.66773e-05
4.02112e-06
6.62184e-05
5.03622e-06
6.56604e-05
6.15613e-06
6.4964e-05
7.70384e-06
6.41007e-05
9.75988e-06
6.29083e-05
1.25687e-05
6.13597e-05
1.60273e-05
5.93338e-05
2.40807e-05
5.64202e-05
3.25542e-05
5.19972e-05
5.26839e-05
4.54788e-05
7.30943e-05
3.44984e-05
0.000122918
2.07065e-05
0.00014965
0.000221193
6.81686e-05
2.43882e-07
6.8114e-05
6.61248e-07
6.80288e-05
1.01624e-06
6.7913e-05
1.38912e-06
6.77622e-05
1.80193e-06
6.75724e-05
2.27981e-06
6.73375e-05
2.81511e-06
6.70427e-05
3.53582e-06
6.66773e-05
4.38687e-06
6.62192e-05
5.4929e-06
6.56581e-05
6.71851e-06
6.49501e-05
8.41461e-06
6.40874e-05
1.0649e-05
6.29069e-05
1.37396e-05
6.13645e-05
1.75583e-05
5.93639e-05
2.60909e-05
5.64722e-05
3.54431e-05
5.21869e-05
5.69683e-05
4.57235e-05
7.95569e-05
3.4822e-05
0.000133819
2.09423e-05
0.000163529
0.000242135
6.81685e-05
2.64257e-07
6.8114e-05
7.16321e-07
6.80288e-05
1.10091e-06
6.79129e-05
1.50485e-06
6.77621e-05
1.95198e-06
6.75723e-05
2.46973e-06
6.73374e-05
3.04965e-06
6.70427e-05
3.83039e-06
6.66773e-05
4.7526e-06
6.62198e-05
5.94881e-06
6.56573e-05
7.28196e-06
6.49448e-05
9.12921e-06
6.40699e-05
1.15414e-05
6.29025e-05
1.48903e-05
6.137e-05
1.90719e-05
5.93874e-05
2.80837e-05
5.65195e-05
3.83116e-05
5.23369e-05
6.11525e-05
4.59494e-05
8.59448e-05
3.51604e-05
0.000144608
2.12068e-05
0.000177483
0.000263342
6.81686e-05
2.84603e-07
6.81141e-05
7.71324e-07
6.80289e-05
1.18554e-06
6.7913e-05
1.62056e-06
6.77623e-05
2.10199e-06
6.75725e-05
2.65957e-06
6.73376e-05
3.28418e-06
6.70429e-05
4.12494e-06
6.66773e-05
5.11854e-06
6.62207e-05
6.40399e-06
6.56528e-05
7.85108e-06
6.4923e-05
9.86119e-06
6.405e-05
1.24265e-05
6.28992e-05
1.60408e-05
6.13742e-05
2.05991e-05
5.94035e-05
3.0055e-05
5.65563e-05
4.11573e-05
5.24494e-05
6.52584e-05
4.61498e-05
9.22439e-05
3.55011e-05
0.000155257
2.14956e-05
0.000191489
0.000284837
6.81685e-05
3.04978e-07
6.8114e-05
8.26367e-07
6.80288e-05
1.27022e-06
6.79129e-05
1.73629e-06
6.77622e-05
2.25201e-06
6.75724e-05
2.84945e-06
6.73375e-05
3.51867e-06
6.70429e-05
4.41943e-06
6.66773e-05
5.48445e-06
6.62214e-05
6.85829e-06
6.56499e-05
8.42351e-06
6.49121e-05
1.06002e-05
6.40415e-05
1.33016e-05
6.28954e-05
1.71786e-05
6.13773e-05
2.2108e-05
5.9414e-05
3.20233e-05
5.6583e-05
4.3989e-05
5.2534e-05
6.93086e-05
4.63254e-05
9.84529e-05
3.58365e-05
0.000165746
2.18039e-05
0.000205522
0.000306641
6.81686e-05
3.25319e-07
6.81141e-05
8.81334e-07
6.80289e-05
1.35485e-06
6.79131e-05
1.85199e-06
6.77623e-05
2.40199e-06
6.75726e-05
3.03925e-06
6.73378e-05
3.75315e-06
6.70431e-05
4.7139e-06
6.66774e-05
5.85049e-06
6.62225e-05
7.31186e-06
6.56451e-05
9.00206e-06
6.49092e-05
1.13374e-05
6.40344e-05
1.41796e-05
6.28931e-05
1.83224e-05
6.13797e-05
2.36259e-05
5.94205e-05
3.39814e-05
5.6602e-05
4.68065e-05
5.25995e-05
7.33103e-05
4.64796e-05
0.000104572
3.61631e-05
0.000176062
2.21277e-05
0.000219557
0.000328768
6.81685e-05
3.45689e-07
6.8114e-05
9.36347e-07
6.80288e-05
1.43954e-06
6.79129e-05
1.9677e-06
6.77622e-05
2.55199e-06
6.75725e-05
3.22911e-06
6.73377e-05
3.98758e-06
6.70431e-05
5.00827e-06
6.66774e-05
6.21656e-06
6.62239e-05
7.76375e-06
6.56361e-05
9.59066e-06
6.49144e-05
1.20594e-05
6.40296e-05
1.50648e-05
6.28916e-05
1.94556e-05
6.13816e-05
2.51293e-05
5.94246e-05
3.59415e-05
5.66154e-05
4.96165e-05
5.26523e-05
7.72742e-05
4.66164e-05
0.000110609
3.64795e-05
0.000186199
2.24639e-05
0.000233573
0.000351232
6.81686e-05
3.66023e-07
6.81141e-05
9.91278e-07
6.80289e-05
1.52418e-06
6.79131e-05
2.08339e-06
6.77624e-05
2.70193e-06
6.75727e-05
3.41886e-06
6.73379e-05
4.22201e-06
6.70434e-05
5.30259e-06
6.66775e-05
6.58281e-06
6.62254e-05
8.21457e-06
6.56265e-05
1.01906e-05
6.49191e-05
1.27672e-05
6.40262e-05
1.59589e-05
6.28908e-05
2.05938e-05
6.13831e-05
2.66413e-05
5.9427e-05
3.78962e-05
5.6625e-05
5.24176e-05
5.26971e-05
8.12014e-05
4.674e-05
0.000116565
3.67861e-05
0.000196152
2.28101e-05
0.000247549
0.000374042
6.81685e-05
3.86391e-07
6.8114e-05
1.04626e-06
6.80288e-05
1.60889e-06
6.7913e-05
2.19909e-06
6.77623e-05
2.8519e-06
6.75726e-05
3.60868e-06
6.73378e-05
4.45639e-06
6.70434e-05
5.5968e-06
6.66776e-05
6.949e-06
6.62256e-05
8.66491e-06
6.56202e-05
1.07967e-05
6.49207e-05
1.34666e-05
6.4024e-05
1.68554e-05
6.28904e-05
2.17238e-05
6.13844e-05
2.81421e-05
5.94286e-05
3.98544e-05
5.66324e-05
5.52144e-05
5.2737e-05
8.50978e-05
4.68536e-05
0.000122449
3.70842e-05
0.000205922
2.31651e-05
0.000261468
0.000397207
6.81686e-05
4.06718e-07
6.81141e-05
1.10115e-06
6.80289e-05
1.69353e-06
6.79131e-05
2.31477e-06
6.77625e-05
3.00182e-06
6.75728e-05
3.79838e-06
6.73381e-05
4.69079e-06
6.70437e-05
5.891e-06
6.66779e-05
7.31521e-06
6.6222e-05
9.11958e-06
6.56192e-05
1.14002e-05
6.49204e-05
1.41655e-05
6.40227e-05
1.7754e-05
6.28903e-05
2.28588e-05
6.13857e-05
2.96506e-05
5.94297e-05
4.1809e-05
5.66387e-05
5.80046e-05
5.27745e-05
8.89613e-05
4.69606e-05
0.000128263
3.73755e-05
0.000215507
2.35279e-05
0.000275316
0.000420735
6.81685e-05
4.2708e-07
6.8114e-05
1.15611e-06
6.80288e-05
1.77826e-06
6.7913e-05
2.43045e-06
6.77623e-05
3.15175e-06
6.75727e-05
3.98815e-06
6.73379e-05
4.92512e-06
6.70437e-05
6.18512e-06
6.66782e-05
7.681e-06
6.62125e-05
9.58377e-06
6.56223e-05
1.19905e-05
6.49196e-05
1.48681e-05
6.40219e-05
1.86513e-05
6.28904e-05
2.39873e-05
6.1387e-05
3.11495e-05
5.94309e-05
4.37673e-05
5.66449e-05
6.07911e-05
5.28113e-05
9.27957e-05
4.70633e-05
0.000134011
3.76622e-05
0.000224908
2.38986e-05
0.00028908
0.000444634
6.81686e-05
4.47399e-07
6.81141e-05
1.21096e-06
6.8029e-05
1.86291e-06
6.79132e-05
2.54611e-06
6.77625e-05
3.30163e-06
6.75729e-05
4.17782e-06
6.73382e-05
5.15944e-06
6.70439e-05
6.47931e-06
6.66789e-05
8.04633e-06
6.62017e-05
1.00599e-05
6.5626e-05
1.25666e-05
6.49189e-05
1.55753e-05
6.40216e-05
1.95492e-05
6.28908e-05
2.51207e-05
6.13886e-05
3.26554e-05
5.94325e-05
4.5722e-05
5.66518e-05
6.35712e-05
5.28489e-05
9.65979e-05
4.71639e-05
0.000139696
3.79464e-05
0.000234125
2.42775e-05
0.000302748
0.000468911
6.81685e-05
4.67756e-07
6.8114e-05
1.26588e-06
6.80288e-05
1.94765e-06
6.7913e-05
2.66179e-06
6.77624e-05
3.45152e-06
6.75727e-05
4.36756e-06
6.73382e-05
5.39367e-06
6.70438e-05
6.77349e-06
6.66795e-05
8.41094e-06
6.61938e-05
1.05441e-05
6.5628e-05
1.31323e-05
6.49184e-05
1.62848e-05
6.40215e-05
2.04457e-05
6.28914e-05
2.62481e-05
6.13905e-05
3.41521e-05
5.94351e-05
4.76793e-05
5.66599e-05
6.63469e-05
5.28879e-05
0.000100371
4.72639e-05
0.00014532
3.82305e-05
0.000243159
2.46651e-05
0.000316314
0.000493576
6.81686e-05
4.88067e-07
6.81141e-05
1.3207e-06
6.8029e-05
2.03231e-06
6.79132e-05
2.77743e-06
6.77626e-05
3.60136e-06
6.7573e-05
4.55719e-06
6.73385e-05
5.62789e-06
6.70441e-05
7.0677e-06
6.66801e-05
8.77527e-06
6.61893e-05
1.10339e-05
6.56286e-05
1.36931e-05
6.49182e-05
1.69953e-05
6.40217e-05
2.13427e-05
6.28923e-05
2.738e-05
6.13928e-05
3.5655e-05
5.94389e-05
4.96319e-05
5.66699e-05
6.91152e-05
5.29289e-05
0.000104111
4.73646e-05
0.000150884
3.85169e-05
0.000252006
2.50627e-05
0.000329768
0.000518639
6.81685e-05
5.08417e-07
6.8114e-05
1.37559e-06
6.80288e-05
2.11707e-06
6.7913e-05
2.89308e-06
6.77625e-05
3.75122e-06
6.75729e-05
4.74688e-06
6.73384e-05
5.86204e-06
6.70441e-05
7.36175e-06
6.66803e-05
9.13938e-06
6.61869e-05
1.15259e-05
6.56287e-05
1.42512e-05
6.49182e-05
1.77057e-05
6.40222e-05
2.22384e-05
6.28934e-05
2.85062e-05
6.13958e-05
3.71487e-05
5.94443e-05
5.15853e-05
5.6682e-05
7.18781e-05
5.29721e-05
0.000107822
4.74668e-05
0.00015639
3.88079e-05
0.000260665
2.54713e-05
0.000343105
0.00054411
6.81686e-05
5.28719e-07
6.81141e-05
1.43037e-06
6.8029e-05
2.20174e-06
6.79133e-05
3.0087e-06
6.77627e-05
3.90103e-06
6.75732e-05
4.93644e-06
6.73387e-05
6.09623e-06
6.70446e-05
7.65566e-06
6.66792e-05
9.50513e-06
6.61863e-05
1.2018e-05
6.56287e-05
1.48089e-05
6.49183e-05
1.84161e-05
6.40228e-05
2.31345e-05
6.28949e-05
2.96364e-05
6.13995e-05
3.86474e-05
5.94513e-05
5.35321e-05
5.66964e-05
7.46323e-05
5.30175e-05
0.0001115
4.75712e-05
0.000161836
3.91057e-05
0.000269131
2.58926e-05
0.000356318
0.000570002
6.81685e-05
5.49064e-07
6.8114e-05
1.48523e-06
6.80288e-05
2.28651e-06
6.79131e-05
3.12434e-06
6.77625e-05
4.05086e-06
6.7573e-05
5.12605e-06
6.73385e-05
6.3304e-06
6.70448e-05
7.94917e-06
6.66738e-05
9.87637e-06
6.61889e-05
1.25017e-05
6.56287e-05
1.5369e-05
6.49186e-05
1.91261e-05
6.40235e-05
2.40293e-05
6.28967e-05
3.07608e-05
6.14039e-05
4.01364e-05
5.94602e-05
5.54778e-05
5.67134e-05
7.73796e-05
5.30651e-05
0.000115149
4.7678e-05
0.000167223
3.94123e-05
0.000277397
2.63279e-05
0.000369403
0.00059633
6.81686e-05
5.69356e-07
6.81142e-05
1.53997e-06
6.8029e-05
2.37119e-06
6.79133e-05
3.23993e-06
6.77628e-05
4.20064e-06
6.75733e-05
5.31551e-06
6.73388e-05
6.56466e-06
6.70455e-05
8.24228e-06
6.66661e-05
1.0256e-05
6.61934e-05
1.29741e-05
6.56288e-05
1.59336e-05
6.4919e-05
1.9836e-05
6.40245e-05
2.49243e-05
6.28989e-05
3.18886e-05
6.14092e-05
4.16294e-05
5.94707e-05
5.7415e-05
5.67328e-05
8.01168e-05
5.31149e-05
0.000118766
4.77875e-05
0.00017255
3.97296e-05
0.000285454
2.6779e-05
0.000382353
0.000623109
6.81685e-05
5.89693e-07
6.8114e-05
1.5948e-06
6.80289e-05
2.45597e-06
6.79131e-05
3.35554e-06
6.77626e-05
4.35044e-06
6.75732e-05
5.50501e-06
6.73386e-05
6.79894e-06
6.70459e-05
8.53485e-06
6.66597e-05
1.06424e-05
6.61968e-05
1.34364e-05
6.56291e-05
1.65012e-05
6.49196e-05
2.05454e-05
6.40256e-05
2.5818e-05
6.29014e-05
3.30104e-05
6.14152e-05
4.31118e-05
5.94829e-05
5.93493e-05
5.67546e-05
8.28456e-05
5.3167e-05
0.000122355
4.78998e-05
0.000177818
4.00589e-05
0.000293295
2.72471e-05
0.000395165
0.000650356
6.81686e-05
6.09976e-07
6.81142e-05
1.6495e-06
6.80291e-05
2.54066e-06
6.79134e-05
3.47111e-06
6.77629e-05
4.50019e-06
6.75735e-05
5.69435e-06
6.73389e-05
7.03329e-06
6.70465e-05
8.82707e-06
6.66556e-05
1.10335e-05
6.61988e-05
1.38931e-05
6.56295e-05
1.70706e-05
6.49202e-05
2.12548e-05
6.40268e-05
2.67117e-05
6.29043e-05
3.41352e-05
6.1422e-05
4.45974e-05
5.94966e-05
6.12734e-05
5.6779e-05
8.55625e-05
5.32213e-05
0.000125912
4.80146e-05
0.000183024
4.04011e-05
0.000300909
2.77335e-05
0.000407833
0.000678089
6.81685e-05
6.30308e-07
6.8114e-05
1.7043e-06
6.80289e-05
2.62545e-06
6.79132e-05
3.58669e-06
6.77627e-05
4.64996e-06
6.75734e-05
5.88376e-06
6.73387e-05
7.26759e-06
6.70467e-05
9.11893e-06
6.66529e-05
1.14276e-05
6.62002e-05
1.43453e-05
6.56299e-05
1.76408e-05
6.49209e-05
2.19638e-05
6.40283e-05
2.7604e-05
6.29076e-05
3.52534e-05
6.14295e-05
4.60716e-05
5.95117e-05
6.31932e-05
5.68058e-05
8.82689e-05
5.3278e-05
0.00012944
4.81319e-05
0.00018817
4.07566e-05
0.000308284
2.82392e-05
0.00042035
0.000706329
6.81686e-05
6.50582e-07
6.81142e-05
1.75896e-06
6.80291e-05
2.71014e-06
6.79134e-05
3.70223e-06
6.7763e-05
4.79967e-06
6.75737e-05
6.07301e-06
6.73391e-05
7.50189e-06
6.70472e-05
9.41068e-06
6.66514e-05
1.18236e-05
6.62013e-05
1.47955e-05
6.56305e-05
1.82117e-05
6.49216e-05
2.26728e-05
6.40298e-05
2.84963e-05
6.29111e-05
3.63744e-05
6.14376e-05
4.75485e-05
5.95282e-05
6.51013e-05
5.68352e-05
9.09612e-05
5.33372e-05
0.000132937
4.82515e-05
0.000193256
4.11253e-05
0.00031541
2.87648e-05
0.000432711
0.000735093
6.81685e-05
6.70906e-07
6.8114e-05
1.81373e-06
6.80289e-05
2.79495e-06
6.79132e-05
3.81779e-06
6.77628e-05
4.94939e-06
6.75735e-05
6.26235e-06
6.7339e-05
7.73607e-06
6.70473e-05
9.70233e-06
6.66505e-05
1.22205e-05
6.62023e-05
1.52433e-05
6.56311e-05
1.87829e-05
6.49224e-05
2.33814e-05
6.40315e-05
2.93869e-05
6.2915e-05
3.74883e-05
6.14463e-05
4.90132e-05
5.95459e-05
6.70037e-05
5.6867e-05
9.36406e-05
5.3399e-05
0.000136406
4.83735e-05
0.000198282
4.1507e-05
0.000322277
2.93105e-05
0.000444908
0.000764404
6.81686e-05
6.91171e-07
6.81142e-05
1.86836e-06
6.80291e-05
2.87964e-06
6.79135e-05
3.9333e-06
6.77631e-05
5.09905e-06
6.75739e-05
6.45155e-06
6.73395e-05
7.97016e-06
6.70476e-05
9.99412e-06
6.66502e-05
1.26181e-05
6.62033e-05
1.56902e-05
6.56318e-05
1.93545e-05
6.49233e-05
2.40899e-05
6.40333e-05
3.02774e-05
6.29191e-05
3.86049e-05
6.14556e-05
5.04801e-05
5.95649e-05
6.8893e-05
5.69013e-05
9.63035e-05
5.34635e-05
0.000139843
4.84978e-05
0.000203247
4.19012e-05
0.000328873
2.98767e-05
0.000456932
0.00079428
6.81685e-05
7.11489e-07
6.8114e-05
1.92309e-06
6.80289e-05
2.96445e-06
6.79133e-05
4.04882e-06
6.77629e-05
5.24872e-06
6.75737e-05
6.64086e-06
6.73395e-05
8.20403e-06
6.70474e-05
1.0286e-05
6.66499e-05
1.30158e-05
6.62042e-05
1.61356e-05
6.56325e-05
1.99262e-05
6.49243e-05
2.4798e-05
6.40352e-05
3.11663e-05
6.29235e-05
3.97139e-05
6.14653e-05
5.19344e-05
5.9585e-05
7.07753e-05
5.69382e-05
9.89508e-05
5.35311e-05
0.000143251
4.86249e-05
0.000208153
4.23077e-05
0.00033519
3.04634e-05
0.000468776
0.000824744
6.81686e-05
7.31746e-07
6.81142e-05
1.97769e-06
6.80292e-05
3.04913e-06
6.79135e-05
4.1643e-06
6.77632e-05
5.39831e-06
6.7574e-05
6.83004e-06
6.73401e-05
8.43774e-06
6.70473e-05
1.05786e-05
6.66499e-05
1.34134e-05
6.62052e-05
1.65804e-05
6.56332e-05
2.04981e-05
6.49253e-05
2.5506e-05
6.40372e-05
3.20548e-05
6.29281e-05
4.08255e-05
6.14755e-05
5.33904e-05
5.96062e-05
7.26432e-05
5.69775e-05
0.000101579
5.36018e-05
0.000146626
4.87549e-05
0.000213
4.27262e-05
0.000341219
3.10707e-05
0.000480432
0.000855814
6.81685e-05
7.52059e-07
6.81141e-05
2.03239e-06
6.8029e-05
3.13393e-06
6.79133e-05
4.27981e-06
6.7763e-05
5.5479e-06
6.75738e-05
7.01936e-06
6.73402e-05
8.67108e-06
6.70436e-05
1.0875e-05
6.66521e-05
1.3805e-05
6.62061e-05
1.70262e-05
6.56341e-05
2.10701e-05
6.49263e-05
2.62137e-05
6.40392e-05
3.29416e-05
6.29328e-05
4.19291e-05
6.14861e-05
5.48332e-05
5.96285e-05
7.45028e-05
5.70191e-05
0.000104189
5.36758e-05
0.00014997
4.88885e-05
0.000217788
4.3157e-05
0.00034695
3.16991e-05
0.00049189
0.000887513
6.81686e-05
7.72309e-07
6.81143e-05
2.08695e-06
6.80292e-05
3.21861e-06
6.79136e-05
4.39526e-06
6.77634e-05
5.69738e-06
6.75741e-05
7.20863e-06
6.7341e-05
8.90392e-06
6.70318e-05
1.11841e-05
6.666e-05
1.41769e-05
6.6207e-05
1.74793e-05
6.56349e-05
2.16423e-05
6.49274e-05
2.69212e-05
6.40414e-05
3.3828e-05
6.29378e-05
4.30354e-05
6.14971e-05
5.62774e-05
5.96518e-05
7.63467e-05
5.70632e-05
0.000106777
5.37535e-05
0.000153279
4.9026e-05
0.000222515
4.36005e-05
0.000352376
3.2349e-05
0.000503141
0.000919862
6.81685e-05
7.92618e-07
6.81141e-05
2.14163e-06
6.8029e-05
3.30341e-06
6.79134e-05
4.51074e-06
6.77632e-05
5.84687e-06
6.75738e-05
7.39807e-06
6.73412e-05
9.13632e-06
6.70244e-05
1.15007e-05
6.66648e-05
1.45365e-05
6.62079e-05
1.79361e-05
6.56357e-05
2.22144e-05
6.49285e-05
2.76284e-05
6.40436e-05
3.47126e-05
6.29429e-05
4.41332e-05
6.15085e-05
5.77078e-05
5.9676e-05
7.81811e-05
5.71094e-05
0.000109344
5.38351e-05
0.000156554
4.91678e-05
0.000227182
4.40572e-05
0.000357486
3.30211e-05
0.000514178
0.000952883
6.81686e-05
8.12859e-07
6.81143e-05
2.19615e-06
6.80293e-05
3.38807e-06
6.79137e-05
4.62616e-06
6.77635e-05
5.99627e-06
6.75743e-05
7.58733e-06
6.73417e-05
9.36868e-06
6.70221e-05
1.18201e-05
6.66661e-05
1.48926e-05
6.62087e-05
1.83936e-05
6.56366e-05
2.27865e-05
6.49296e-05
2.83354e-05
6.40459e-05
3.55969e-05
6.29482e-05
4.52338e-05
6.15202e-05
5.91394e-05
5.97012e-05
7.99986e-05
5.71578e-05
0.000111887
5.39208e-05
0.000159791
4.93138e-05
0.000231789
4.45269e-05
0.000362273
3.37159e-05
0.000524988
0.000986599
6.81685e-05
8.33163e-07
6.81141e-05
2.25079e-06
6.8029e-05
3.47285e-06
6.79135e-05
4.74159e-06
6.77633e-05
6.14573e-06
6.75742e-05
7.77648e-06
6.73398e-05
9.6029e-06
6.70213e-05
1.21385e-05
6.66664e-05
1.52475e-05
6.62094e-05
1.88505e-05
6.56374e-05
2.33584e-05
6.49308e-05
2.90419e-05
6.40482e-05
3.64791e-05
6.29536e-05
4.6325e-05
6.15323e-05
6.05558e-05
5.97271e-05
8.18061e-05
5.72081e-05
0.000114406
5.40111e-05
0.000162989
4.94641e-05
0.000236337
4.50082e-05
0.000366729
3.44328e-05
0.000535564
0.00102103
6.81685e-05
8.53404e-07
6.81143e-05
2.30529e-06
6.80293e-05
3.55753e-06
6.79138e-05
4.85691e-06
6.77634e-05
6.29538e-06
6.75755e-05
7.96435e-06
6.73271e-05
9.8511e-06
6.70247e-05
1.24409e-05
6.66665e-05
1.56057e-05
6.621e-05
1.93071e-05
6.56382e-05
2.39302e-05
6.49319e-05
2.97483e-05
6.40505e-05
3.73611e-05
6.29591e-05
4.74197e-05
6.15447e-05
6.19743e-05
5.97538e-05
8.35953e-05
5.72601e-05
0.000116899
5.41063e-05
0.000166142
4.9618e-05
0.000240824
4.54968e-05
0.00037085
3.51688e-05
0.000545892
0.0010562
6.81685e-05
8.73701e-07
6.81141e-05
2.35989e-06
6.8029e-05
3.64235e-06
6.79136e-05
4.97219e-06
6.7763e-05
6.44531e-06
6.75761e-05
8.15133e-06
6.73179e-05
1.01091e-05
6.7027e-05
1.27318e-05
6.66666e-05
1.5966e-05
6.62105e-05
1.97631e-05
6.5639e-05
2.45017e-05
6.4933e-05
3.04542e-05
6.40528e-05
3.82409e-05
6.29646e-05
4.85044e-05
6.15573e-05
6.33766e-05
5.97811e-05
8.53737e-05
5.73137e-05
0.000119367
5.42067e-05
0.000169249
4.97753e-05
0.000245256
4.59831e-05
0.000374643
3.59159e-05
0.000555959
0.00109212
6.81685e-05
8.93884e-07
6.81143e-05
2.41432e-06
6.80293e-05
3.727e-06
6.7914e-05
5.08735e-06
6.77633e-05
6.59508e-06
6.75768e-05
8.33786e-06
6.73155e-05
1.03701e-05
6.70271e-05
1.30203e-05
6.66665e-05
1.63266e-05
6.6211e-05
2.02187e-05
6.56397e-05
2.5073e-05
6.49341e-05
3.11599e-05
6.40551e-05
3.91204e-05
6.29703e-05
4.95923e-05
6.15702e-05
6.47809e-05
5.9809e-05
8.71332e-05
5.73684e-05
0.000121807
5.43135e-05
0.000172303
4.99352e-05
0.000249634
4.6464e-05
0.000378113
3.67538e-05
0.000565669
0.00112887
-1.26957e-07
1.26869e-07
-2.54786e-06
2.42088e-06
-3.50834e-06
9.60452e-07
-3.37164e-06
-1.36709e-07
-2.66429e-06
-7.07524e-07
-1.98438e-06
-6.80068e-07
-1.66151e-06
-3.23024e-07
-1.63726e-06
-2.43511e-08
-1.6872e-06
4.88443e-08
-1.72836e-06
3.98173e-08
-1.76383e-06
2.6319e-08
-1.52565e-06
-2.1825e-07
-1.06258e-06
-4.55934e-07
-5.73338e-07
-4.94154e-07
8.41012e-08
-6.67892e-07
1.39165e-06
-1.31495e-06
3.58402e-06
-2.18955e-06
6.48682e-06
-2.90046e-06
9.72439e-06
-3.22772e-06
1.30148e-05
-3.2957e-06
1.63157e-05
-3.30084e-06
1.96513e-05
-3.33527e-06
2.29766e-05
-3.32609e-06
2.62306e-05
-3.25339e-06
2.93743e-05
-3.143e-06
3.23852e-05
-3.01158e-06
3.52528e-05
-2.86842e-06
3.80558e-05
-2.80257e-06
4.08912e-05
-2.83417e-06
4.32657e-05
-2.37361e-06
4.51837e-05
-1.9132e-06
5.35623e-05
-8.38483e-06
6.44771e-05
-1.09148e-05
6.77294e-05
-3.25182e-06
-5.39375e-08
-8.11307e-08
2.07832e-07
-2.50314e-06
4.84286e-06
-3.45005e-06
1.9073e-06
-3.31883e-06
-2.67949e-07
-2.60905e-06
-1.41763e-06
-1.93896e-06
-1.35043e-06
-1.61432e-06
-6.47959e-07
-1.59594e-06
-4.29102e-08
-1.66028e-06
1.11179e-07
-1.73323e-06
1.10332e-07
-1.79575e-06
7.4634e-08
-1.55383e-06
-4.25312e-07
-1.02648e-06
-9.69302e-07
-4.56913e-07
-1.07339e-06
1.97008e-07
-1.34286e-06
1.39156e-06
-2.52473e-06
3.4732e-06
-4.26551e-06
6.36709e-06
-5.78949e-06
9.67403e-06
-6.51535e-06
1.30288e-05
-6.66068e-06
1.63549e-05
-6.62702e-06
1.96676e-05
-6.64736e-06
2.29585e-05
-6.6185e-06
2.61895e-05
-6.48313e-06
2.93266e-05
-6.27881e-06
3.23414e-05
-6.02771e-06
3.52173e-05
-5.746e-06
3.80231e-05
-5.6074e-06
4.08563e-05
-5.66511e-06
4.32632e-05
-4.77886e-06
4.51173e-05
-3.75854e-06
5.32665e-05
-1.65458e-05
6.42352e-05
-2.18834e-05
6.77159e-05
-6.73157e-06
-1.30978e-07
-2.99953e-08
2.37674e-07
-2.45025e-06
7.26309e-06
-3.38286e-06
2.83986e-06
-3.24049e-06
-4.10353e-07
-2.53258e-06
-2.12584e-06
-1.87094e-06
-2.01234e-06
-1.55243e-06
-9.66741e-07
-1.54408e-06
-5.14278e-08
-1.62972e-06
1.94923e-07
-1.73399e-06
2.12224e-07
-1.82011e-06
1.46788e-07
-1.55345e-06
-6.56491e-07
-9.37357e-07
-1.57133e-06
-2.97542e-07
-1.72311e-06
3.07759e-07
-1.96931e-06
1.36612e-06
-3.59874e-06
3.35528e-06
-6.24861e-06
6.26802e-06
-8.69713e-06
9.65532e-06
-9.88196e-06
1.30788e-05
-1.00949e-05
1.64287e-05
-9.97682e-06
1.97224e-05
-9.94048e-06
2.29788e-05
-9.87628e-06
2.61857e-05
-9.68878e-06
2.93138e-05
-9.40558e-06
3.23293e-05
-9.04456e-06
3.52111e-05
-8.62951e-06
3.80183e-05
-8.41362e-06
4.08484e-05
-8.49298e-06
4.32833e-05
-7.2121e-06
4.50836e-05
-5.54988e-06
5.30077e-05
-2.44815e-05
6.4009e-05
-3.28847e-05
6.77023e-05
-1.0424e-05
-2.30457e-07
2.8217e-08
2.09289e-07
-2.39128e-06
9.68255e-06
-3.30272e-06
3.75124e-06
-3.14085e-06
-5.72245e-07
-2.43313e-06
-2.83387e-06
-1.78369e-06
-2.66206e-06
-1.47516e-06
-1.27553e-06
-1.47794e-06
-4.88274e-08
-1.58352e-06
2.98636e-07
-1.71929e-06
3.45676e-07
-1.82836e-06
2.44931e-07
-1.53196e-06
-9.17707e-07
-8.23057e-07
-2.26408e-06
-1.15351e-07
-2.44224e-06
4.34599e-07
-2.54432e-06
1.34849e-06
-4.53249e-06
3.23927e-06
-8.13174e-06
6.17571e-06
-1.16268e-05
9.65778e-06
-1.33387e-05
1.31633e-05
-1.36132e-05
1.65443e-05
-1.3358e-05
1.98213e-05
-1.32167e-05
2.30427e-05
-1.30993e-05
2.62226e-05
-1.28673e-05
2.93379e-05
-1.25195e-05
3.23509e-05
-1.2059e-05
3.52363e-05
-1.15167e-05
3.80438e-05
-1.122e-05
4.08688e-05
-1.13156e-05
4.33274e-05
-9.66883e-06
4.50814e-05
-7.29482e-06
5.27842e-05
-3.21968e-05
6.37972e-05
-4.38976e-05
6.76884e-05
-1.43142e-05
-3.52107e-07
9.3407e-08
1.15735e-07
-2.3259e-06
1.21018e-05
-3.20848e-06
4.63376e-06
-3.01973e-06
-7.61035e-07
-2.31139e-06
-3.54249e-06
-1.67801e-06
-3.29571e-06
-1.38289e-06
-1.5709e-06
-1.39702e-06
-3.4861e-08
-1.52114e-06
4.21024e-07
-1.68776e-06
5.09898e-07
-1.81818e-06
3.6654e-07
-1.48767e-06
-1.2149e-06
-6.82728e-07
-3.05318e-06
9.15554e-08
-3.22807e-06
5.82096e-07
-3.05848e-06
1.34418e-06
-5.31438e-06
3.12809e-06
-9.90747e-06
6.09205e-06
-1.45833e-05
9.6876e-06
-1.69047e-05
1.32927e-05
-1.72331e-05
1.67129e-05
-1.6778e-05
1.9974e-05
-1.6477e-05
2.31582e-05
-1.62851e-05
2.63068e-05
-1.60145e-05
2.94045e-05
-1.56158e-05
3.24109e-05
-1.5067e-05
3.5297e-05
-1.44047e-05
3.81032e-05
-1.40251e-05
4.09204e-05
-1.41303e-05
4.33978e-05
-1.21444e-05
4.51122e-05
-8.99976e-06
5.2595e-05
-3.96923e-05
6.35982e-05
-5.49008e-05
6.76743e-05
-1.83894e-05
-4.95601e-07
1.65611e-07
-5.00479e-08
-2.25369e-06
1.45211e-05
-3.09861e-06
5.47861e-06
-2.87617e-06
-9.8351e-07
-2.1671e-06
-4.25185e-06
-1.55377e-06
-3.90932e-06
-1.27503e-06
-1.84988e-06
-1.30018e-06
-9.89313e-09
-1.44159e-06
5.60657e-07
-1.63771e-06
7.03707e-07
-1.78688e-06
5.09415e-07
-1.41928e-06
-1.54789e-06
-5.18208e-07
-3.93556e-06
3.20885e-07
-4.08052e-06
7.5274e-07
-3.51864e-06
1.36208e-06
-5.9485e-06
3.03341e-06
-1.15684e-05
6.028e-06
-1.75675e-05
9.75869e-06
-2.0597e-05
1.34851e-05
-2.09785e-05
1.69532e-05
-2.02462e-05
2.01964e-05
-1.97193e-05
2.3338e-05
-1.94287e-05
2.64486e-05
-1.91234e-05
2.95222e-05
-1.86877e-05
3.25167e-05
-1.80633e-05
3.53999e-05
-1.729e-05
3.82024e-05
-1.68262e-05
4.1008e-05
-1.69331e-05
4.34985e-05
-1.46326e-05
4.51782e-05
-1.06694e-05
5.24396e-05
-4.69679e-05
6.34111e-05
-6.58723e-05
6.76599e-05
-2.26371e-05
-6.6058e-07
2.44768e-07
-2.94959e-07
-2.17397e-06
1.69398e-05
-2.97091e-06
6.27547e-06
-2.7081e-06
-1.24637e-06
-1.99897e-06
-4.96125e-06
-1.40975e-06
-4.49882e-06
-1.15007e-06
-2.10979e-06
-1.18552e-06
2.53915e-08
-1.3431e-06
7.16551e-07
-1.56697e-06
9.2505e-07
-1.73168e-06
6.70664e-07
-1.3257e-06
-1.92266e-06
-3.30953e-07
-4.91226e-06
5.71987e-07
-4.99704e-06
9.50731e-07
-3.92312e-06
1.41372e-06
-6.43483e-06
2.97375e-06
-1.31182e-05
6.00425e-06
-2.05869e-05
9.89506e-06
-2.44428e-05
1.37705e-05
-2.48773e-05
1.72965e-05
-2.37719e-05
2.05156e-05
-2.29373e-05
2.36032e-05
-2.25183e-05
2.66641e-05
-2.21824e-05
2.97039e-05
-2.17257e-05
3.26795e-05
-2.10409e-05
3.55551e-05
-2.01679e-05
3.83504e-05
-1.96201e-05
4.11391e-05
-1.97189e-05
4.36349e-05
-1.71261e-05
4.52836e-05
-1.23073e-05
5.23195e-05
-5.40187e-05
6.32353e-05
-7.67881e-05
6.76452e-05
-2.70462e-05
-8.46563e-07
3.30672e-07
-6.25809e-07
-2.08584e-06
1.93563e-05
-2.82267e-06
7.01222e-06
-2.51274e-06
-1.55633e-06
-1.80523e-06
-5.66906e-06
-1.24407e-06
-5.06027e-06
-1.00581e-06
-2.3483e-06
-1.05052e-06
6.99097e-08
-1.22303e-06
8.87269e-07
-1.4725e-06
1.17207e-06
-1.64916e-06
8.45787e-07
-1.20462e-06
-2.33272e-06
-1.19052e-07
-5.97581e-06
8.49448e-07
-5.98185e-06
1.18423e-06
-4.29029e-06
1.51241e-06
-6.79254e-06
2.97107e-06
-1.45639e-05
6.05005e-06
-2.3651e-05
1.01332e-05
-2.84676e-05
1.4196e-05
-2.897e-05
1.7795e-05
-2.73712e-05
2.0977e-05
-2.61178e-05
2.39879e-05
-2.5532e-05
2.69786e-05