/*--------------------------------*- C++ -*----------------------------------*\
| =========                 |                                                 |
| \\      /  F ield         | OpenFOAM: The Open Source CFD Toolbox           |
|  \\    /   O peration     | Version:  v1912                                 |
|   \\  /    A nd           | Website:  www.openfoam.com                      |
|    \\/     M anipulation  |                                                 |
\*---------------------------------------------------------------------------*/
FoamFile
{
    version     2.0;
    format      ascii;
    class       volVectorField;
    location    "480";
    object      U;
}
// * * * * * * * * * * * * * * * * * * * * * * * * * * * * * * * * * * * * * //

dimensions      [0 1 -1 0 0 0 0];


internalField   nonuniform List<vector> 
12441
(
(29.9988 1.70767e-05 0)
(29.9854 5.19007e-05 0)
(29.956 9.02561e-05 0)
(29.9114 0.000138659 0)
(29.853 0.00020205 0)
(29.7786 0.000287106 0)
(29.6863 0.000397849 0)
(29.5714 0.000562417 0)
(29.4277 0.000782824 0)
(29.2507 0.00110194 0)
(29.0249 0.00151672 0)
(28.749 0.00212663 0)
(28.4395 0.00302773 0)
(27.9624 0.00440234 0)
(27.407 0.00610139 0)
(26.6246 0.011337 0)
(25.5899 0.0151182 0)
(23.9221 0.0315392 0)
(21.5698 0.0529093 0)
(17.8781 0.0913118 0)
(12.0963 0.122089 0)
(5.80241 0.196323 0)
(29.9988 5.07284e-05 0)
(29.9853 0.000154963 0)
(29.956 0.000269073 0)
(29.9113 0.000413396 0)
(29.853 0.000602842 0)
(29.7785 0.000856842 0)
(29.6863 0.00118913 0)
(29.5715 0.00168028 0)
(29.4277 0.00234155 0)
(29.2509 0.00329949 0)
(29.0249 0.00453917 0)
(28.7472 0.00635847 0)
(28.4435 0.00908299 0)
(27.968 0.0131597 0)
(27.4078 0.0184493 0)
(26.624 0.0337239 0)
(25.5948 0.048005 0)
(23.9227 0.0905244 0)
(21.57 0.138222 0)
(17.8764 0.26421 0)
(12.0973 0.358707 0)
(5.80624 0.586341 0)
(29.9988 8.4234e-05 0)
(29.9853 0.000257964 0)
(29.9559 0.000447145 0)
(29.9113 0.000687111 0)
(29.853 0.00100247 0)
(29.7785 0.00142585 0)
(29.6863 0.00197926 0)
(29.5715 0.00279637 0)
(29.4277 0.00389946 0)
(29.251 0.00549354 0)
(29.0246 0.00755303 0)
(28.7474 0.0106106 0)
(28.4439 0.0151203 0)
(27.9612 0.0218747 0)
(27.4057 0.0308861 0)
(26.6244 0.0551598 0)
(25.5972 0.081598 0)
(23.9276 0.147717 0)
(21.5736 0.221025 0)
(17.8762 0.434774 0)
(12.1033 0.591846 0)
(5.81455 0.974426 0)
(29.9988 0.000118165 0)
(29.9853 0.000361703 0)
(29.956 0.000626113 0)
(29.9114 0.000962116 0)
(29.853 0.00140378 0)
(29.7786 0.00199679 0)
(29.6863 0.00277189 0)
(29.5715 0.00391562 0)
(29.4278 0.00546087 0)
(29.251 0.00769391 0)
(29.025 0.0105747 0)
(28.7472 0.0148677 0)
(28.4435 0.0211717 0)
(27.9689 0.0306312 0)
(27.4086 0.0433464 0)
(26.6253 0.0766593 0)
(25.5989 0.114447 0)
(23.9324 0.207892 0)
(21.5825 0.328557 0)
(17.881 0.613377 0)
(12.1157 0.828947 0)
(5.82756 1.36416 0)
(29.9988 0.000152159 0)
(29.9853 0.000465333 0)
(29.9559 0.000804889 0)
(29.9113 0.00123688 0)
(29.853 0.0018047 0)
(29.7785 0.00256716 0)
(29.6863 0.0035638 0)
(29.5715 0.00503405 0)
(29.4278 0.0070214 0)
(29.2511 0.00989304 0)
(29.0248 0.0135941 0)
(28.7478 0.0191208 0)
(28.4442 0.0272244 0)
(27.9615 0.03936 0)
(27.4075 0.0557905 0)
(26.6265 0.0979395 0)
(25.6015 0.146799 0)
(23.9368 0.268816 0)
(21.5935 0.418914 0)
(17.8915 0.78817 0)
(12.1359 1.06584 0)
(5.84557 1.75518 0)
(29.9988 0.000186152 0)
(29.9853 0.00056889 0)
(29.956 0.000983637 0)
(29.9114 0.00151166 0)
(29.853 0.00220561 0)
(29.7786 0.00313755 0)
(29.6864 0.00435586 0)
(29.5716 0.00615271 0)
(29.4278 0.00858223 0)
(29.2511 0.012092 0)
(29.0252 0.0166161 0)
(28.7474 0.0233731 0)
(28.4431 0.0332751 0)
(27.9705 0.0481148 0)
(27.4104 0.0682689 0)
(26.6275 0.119131 0)
(25.6037 0.178895 0)
(23.9411 0.329212 0)
(21.6063 0.507713 0)
(17.9086 0.961648 0)
(12.1654 1.30243 0)
(5.86899 2.14731 0)
(29.9988 0.000220144 0)
(29.9853 0.000672419 0)
(29.956 0.00116238 0)
(29.9113 0.00178644 0)
(29.853 0.00260648 0)
(29.7786 0.00370792 0)
(29.6863 0.0051479 0)
(29.5716 0.00727134 0)
(29.4279 0.010143 0)
(29.2511 0.014291 0)
(29.025 0.0196363 0)
(28.7485 0.0276264 0)
(28.4442 0.0393306 0)
(27.9616 0.0568056 0)
(27.4099 0.0807046 0)
(26.6294 0.140177 0)
(25.6067 0.210272 0)
(23.9451 0.387054 0)
(21.6236 0.598641 0)
(17.9358 1.13522 0)
(12.207 1.53912 0)
(5.89835 2.54084 0)
(29.9988 0.000254137 0)
(29.9853 0.000775915 0)
(29.956 0.00134111 0)
(29.9114 0.00206122 0)
(29.853 0.00300729 0)
(29.7786 0.00427823 0)
(29.6864 0.00593992 0)
(29.5717 0.00838998 0)
(29.4279 0.011704 0)
(29.2512 0.0164892 0)
(29.0255 0.0226591 0)
(28.7475 0.0318771 0)
(28.4423 0.0453797 0)
(27.9723 0.0655195 0)
(27.4138 0.0930155 0)
(26.6309 0.160878 0)
(25.6106 0.243221 0)
(23.9509 0.446817 0)
(21.655 0.690623 0)
(17.9803 1.30829 0)
(12.2638 1.77613 0)
(5.93424 2.93627 0)
(29.9988 0.00028813 0)
(29.9853 0.000879384 0)
(29.956 0.00151983 0)
(29.9114 0.00233598 0)
(29.853 0.00340806 0)
(29.7786 0.00484852 0)
(29.6864 0.00673191 0)
(29.5716 0.00950857 0)
(29.428 0.0132648 0)
(29.2513 0.0186876 0)
(29.0254 0.0256795 0)
(28.7493 0.0361338 0)
(28.4447 0.0514299 0)
(27.9619 0.0742833 0)
(27.4123 0.105407 0)
(26.6305 0.181837 0)
(25.6169 0.274588 0)
(23.9625 0.505953 0)
(21.7128 0.782286 0)
(18.0504 1.48055 0)
(12.3394 2.01375 0)
(5.97732 3.33411 0)
(29.9988 0.000322123 0)
(29.9854 0.000982819 0)
(29.956 0.00169853 0)
(29.9114 0.00261074 0)
(29.8531 0.00380876 0)
(29.7787 0.00541875 0)
(29.6865 0.00752388 0)
(29.5717 0.0106271 0)
(29.4281 0.0148257 0)
(29.2513 0.0208848 0)
(29.026 0.0287017 0)
(28.7475 0.0403874 0)
(28.44 0.0574807 0)
(27.9717 0.0828953 0)
(27.4166 0.118517 0)
(26.631 0.203075 0)
(25.6304 0.306521 0)
(23.9912 0.563153 0)
(21.7998 0.873687 0)
(18.149 1.65235 0)
(12.4366 2.25243 0)
(6.0283 3.73496 0)
(29.9988 0.000356117 0)
(29.9853 0.00108623 0)
(29.956 0.00187723 0)
(29.9114 0.00288549 0)
(29.853 0.00420943 0)
(29.7787 0.00598894 0)
(29.6864 0.00831581 0)
(29.5717 0.0117457 0)
(29.4281 0.0163866 0)
(29.2514 0.0230813 0)
(29.026 0.0317254 0)
(28.7494 0.044646 0)
(28.4449 0.0635469 0)
(27.9711 0.0914932 0)
(27.4177 0.130991 0)
(26.6314 0.223253 0)
(25.649 0.339339 0)
(24.037 0.619499 0)
(21.8993 0.96491 0)
(18.2692 1.82368 0)
(12.5558 2.49254 0)
(6.08784 4.13946 0)
(29.9988 0.000390109 0)
(29.9854 0.0011896 0)
(29.956 0.00205592 0)
(29.9114 0.00316022 0)
(29.8531 0.00461004 0)
(29.7787 0.00655907 0)
(29.6865 0.00910771 0)
(29.5718 0.0128641 0)
(29.4282 0.0179477 0)
(29.2513 0.0252754 0)
(29.0268 0.0347538 0)
(28.7471 0.0488953 0)
(28.4375 0.0694957 0)
(27.979 0.100448 0)
(27.4177 0.144583 0)
(26.6342 0.243666 0)
(25.6673 0.371734 0)
(24.0859 0.673976 0)
(21.9915 1.05512 0)
(18.3988 1.99399 0)
(12.695 2.73421 0)
(6.15646 4.54828 0)
(29.9988 0.0004241 0)
(29.9853 0.00129295 0)
(29.956 0.00223461 0)
(29.9114 0.00343495 0)
(29.8531 0.00501061 0)
(29.7787 0.00712916 0)
(29.6865 0.00989955 0)
(29.5718 0.0139826 0)
(29.4282 0.0195091 0)
(29.2513 0.0274663 0)
(29.0274 0.0377892 0)
(28.7472 0.0532396 0)
(28.4368 0.0753348 0)
(27.9764 0.109639 0)
(27.4157 0.158353 0)
(26.6378 0.263557 0)
(25.6813 0.403465 0)
(24.1264 0.726434 0)
(22.0676 1.14391 0)
(18.5266 2.16261 0)
(12.8506 2.97732 0)
(6.23447 4.96203 0)
(29.9988 0.000458088 0)
(29.9854 0.00139627 0)
(29.956 0.0024133 0)
(29.9114 0.00370966 0)
(29.8531 0.00541112 0)
(29.7788 0.00769918 0)
(29.6866 0.0106913 0)
(29.5719 0.0151009 0)
(29.4283 0.0210709 0)
(29.2513 0.0296551 0)
(29.0283 0.040849 0)
(28.7456 0.0576209 0)
(28.426 0.0815379 0)
(27.972 0.118889 0)
(27.4142 0.171659 0)
(26.6411 0.282778 0)
(25.6907 0.4346 0)
(24.1561 0.777317 0)
(22.128 1.23128 0)
(18.646 2.3291 0)
(13.0182 3.22153 0)
(6.32186 5.38122 0)
(29.9988 0.000492074 0)
(29.9853 0.00149956 0)
(29.956 0.002592 0)
(29.9114 0.00398437 0)
(29.8531 0.00581161 0)
(29.7787 0.00826916 0)
(29.6866 0.0114831 0)
(29.5719 0.016219 0)
(29.4284 0.0226336 0)
(29.2513 0.031837 0)
(29.0289 0.0439397 0)
(28.747 0.061916 0)
(28.4199 0.0876938 0)
(27.9677 0.127809 0)
(27.4135 0.184731 0)
(26.6437 0.301789 0)
(25.6966 0.465443 0)
(24.1772 0.827157 0)
(22.1761 1.31735 0)
(18.7543 2.49317 0)
(13.1936 3.46644 0)
(6.41839 5.8063 0)
(29.9988 0.000526056 0)
(29.9854 0.00160281 0)
(29.956 0.0027707 0)
(29.9114 0.00425906 0)
(29.8531 0.00621204 0)
(29.7788 0.00883908 0)
(29.6867 0.0122747 0)
(29.572 0.017337 0)
(29.4285 0.0241955 0)
(29.2514 0.0340196 0)
(29.0299 0.0470338 0)
(28.7495 0.0663434 0)
(28.4135 0.0938752 0)
(27.9652 0.136547 0)
(27.4133 0.197715 0)
(26.6457 0.320734 0)
(25.7002 0.496131 0)
(24.192 0.876293 0)
(22.2155 1.40221 0)
(18.8514 2.65464 0)
(13.3735 3.7116 0)
(6.52361 6.23759 0)
(29.9988 0.000560035 0)
(29.9854 0.00170603 0)
(29.956 0.00294942 0)
(29.9114 0.00453373 0)
(29.8531 0.00661245 0)
(29.7788 0.00940896 0)
(29.6866 0.0130662 0)
(29.572 0.0184548 0)
(29.4286 0.0257585 0)
(29.2513 0.0361921 0)
(29.0312 0.0501887 0)
(28.7513 0.0708221 0)
(28.4094 0.0999889 0)
(27.9636 0.145223 0)
(27.4133 0.210667 0)
(26.6472 0.339678 0)
(25.7021 0.526724 0)
(24.2027 0.924924 0)
(22.249 1.48595 0)
(18.9384 2.81339 0)
(13.5555 3.95661 0)
(6.63699 6.67539 0)
(29.9988 0.000594008 0)
(29.9854 0.00180923 0)
(29.956 0.00312815 0)
(29.9115 0.0048084 0)
(29.8532 0.0070128 0)
(29.7789 0.00997877 0)
(29.6867 0.0138576 0)
(29.5721 0.0195722 0)
(29.4288 0.0273222 0)
(29.2514 0.0383534 0)
(29.0325 0.0533653 0)
(28.7509 0.0753492 0)
(28.4066 0.106069 0)
(27.9627 0.153885 0)
(27.4133 0.223635 0)
(26.6484 0.358618 0)
(25.703 0.557245 0)
(24.2106 0.973152 0)
(22.2786 1.56866 0)
(19.0169 2.96936 0)
(13.738 4.20109 0)
(6.75798 7.11989 0)
(29.9988 0.000627979 0)
(29.9854 0.00191239 0)
(29.956 0.00330689 0)
(29.9114 0.00508305 0)
(29.8531 0.00741313 0)
(29.7788 0.0105485 0)
(29.6867 0.014649 0)
(29.5721 0.0206895 0)
(29.4288 0.0288856 0)
(29.2514 0.0405206 0)
(29.0334 0.0565339 0)
(28.7496 0.0797235 0)
(28.4049 0.112151 0)
(27.9622 0.162542 0)
(27.4134 0.236596 0)
(26.6495 0.377566 0)
(25.7033 0.58771 0)
(24.2169 1.02104 0)
(22.306 1.65037 0)
(19.0888 3.12249 0)
(13.9204 4.44472 0)
(6.88606 7.57129 0)
(29.9988 0.000661943 0)
(29.9854 0.00201552 0)
(29.9561 0.00348564 0)
(29.9115 0.00535768 0)
(29.8532 0.0078134 0)
(29.7789 0.0111182 0)
(29.6868 0.0154403 0)
(29.5723 0.0218065 0)
(29.429 0.0304505 0)
(29.2515 0.0426962 0)
(29.0334 0.0597593 0)
(28.7483 0.0839924 0)
(28.4039 0.11824 0)
(27.962 0.17121 0)
(27.4135 0.249563 0)
(26.6504 0.396519 0)
(25.7033 0.618131 0)
(24.2223 1.06861 0)
(22.3323 1.73114 0)
(19.1555 3.27278 0)
(14.1025 4.68722 0)
(7.02077 8.02973 0)
(29.9988 0.000695903 0)
(29.9854 0.00211861 0)
(29.956 0.0036644 0)
(29.9114 0.00563229 0)
(29.8531 0.00821364 0)
(29.7789 0.0116878 0)
(29.6868 0.0162315 0)
(29.5722 0.0229229 0)
(29.429 0.0320149 0)
(29.2519 0.0448894 0)
(29.032 0.0629996 0)
(28.7472 0.0882411 0)
(28.4032 0.124338 0)
(27.9619 0.179878 0)
(27.4137 0.262521 0)
(26.6514 0.415481 0)
(25.7034 0.648518 0)
(24.2275 1.11588 0)
(22.3584 1.811 0)
(19.2185 3.4202 0)
(14.2846 4.92836 0)
(7.16175 8.49538 0)
(29.9988 0.000729857 0)
(29.9854 0.00222168 0)
(29.9561 0.00384318 0)
(29.9115 0.00590689 0)
(29.8532 0.00861383 0)
(29.779 0.0122573 0)
(29.6869 0.0170226 0)
(29.5724 0.0240398 0)
(29.4291 0.0335751 0)
(29.2524 0.0471462 0)
(29.0296 0.0662181 0)
(28.7465 0.0924953 0)
(28.4028 0.130445 0)
(27.9619 0.188551 0)
(27.414 0.275476 0)
(26.6524 0.43445 0)
(25.7038 0.678881 0)
(24.2329 1.16282 0)
(22.3849 1.88997 0)
(19.2792 3.56478 0)
(14.4673 5.16793 0)
(7.30874 8.96839 0)
(29.9988 0.000763806 0)
(29.9854 0.00232471 0)
(29.956 0.00402197 0)
(29.9114 0.00618147 0)
(29.8532 0.00901396 0)
(29.7789 0.0128269 0)
(29.6868 0.0178135 0)
(29.5724 0.0251566 0)
(29.4291 0.0351328 0)
(29.253 0.0494509 0)
(29.0274 0.0694115 0)
(28.746 0.0967715 0)
(28.4026 0.136556 0)
(27.9621 0.197219 0)
(27.4144 0.288423 0)
(26.6537 0.453426 0)
(25.7048 0.70922 0)
(24.2389 1.20939 0)
(22.4121 1.96807 0)
(19.3386 3.7065 0)
(14.6514 5.40577 0)
(7.46156 9.44893 0)
(29.9988 0.000797749 0)
(29.9854 0.00242771 0)
(29.9561 0.00420077 0)
(29.9115 0.00645603 0)
(29.8533 0.00941404 0)
(29.7791 0.0133963 0)
(29.687 0.0186043 0)
(29.5726 0.0262737 0)
(29.4292 0.0366868 0)
(29.2533 0.0517884 0)
(29.0259 0.0725019 0)
(28.7458 0.101063 0)
(28.4026 0.142671 0)
(27.9623 0.205888 0)
(27.4149 0.301364 0)
(26.6552 0.472403 0)
(25.7065 0.739525 0)
(24.2457 1.25556 0)
(22.4403 2.04533 0)
(19.3975 3.84535 0)
(14.8382 5.64173 0)
(7.62016 9.93716 0)
(29.9988 0.000831686 0)
(29.9854 0.00253068 0)
(29.956 0.00437959 0)
(29.9114 0.00673056 0)
(29.8532 0.00981408 0)
(29.779 0.0139657 0)
(29.6869 0.0193947 0)
(29.5726 0.0273908 0)
(29.4293 0.0382371 0)
(29.2534 0.0541079 0)
(29.025 0.07552 0)
(28.7457 0.105363 0)
(28.4026 0.148786 0)
(27.9627 0.214551 0)
(27.4155 0.314296 0)
(26.657 0.491374 0)
(25.7093 0.769769 0)
(24.2535 1.30133 0)
(22.4694 2.12177 0)
(19.4568 3.9813 0)
(15.0286 5.87568 0)
(7.78457 10.4333 0)
(29.9988 0.000865615 0)
(29.9854 0.00263362 0)
(29.9561 0.00455842 0)
(29.9115 0.00700508 0)
(29.8533 0.0102141 0)
(29.7791 0.0145349 0)
(29.6871 0.0201854 0)
(29.5727 0.0285064 0)
(29.4296 0.0398028 0)
(29.2531 0.0564079 0)
(29.0244 0.0785086 0)
(28.7457 0.109668 0)
(28.4027 0.154901 0)
(27.9631 0.223211 0)
(27.4164 0.327217 0)
(26.6593 0.510325 0)
(25.7131 0.799929 0)
(24.2622 1.34669 0)
(22.4994 2.19739 0)
(19.517 4.11429 0)
(15.224 6.10754 0)
(7.95491 10.9376 0)
(29.9988 0.000899539 0)
(29.9854 0.00273652 0)
(29.956 0.00473726 0)
(29.9115 0.00727956 0)
(29.8532 0.010614 0)
(29.7791 0.0151041 0)
(29.687 0.020976 0)
(29.5726 0.0296227 0)
(29.4299 0.0413774 0)
(29.2523 0.0588063 0)
(29.0241 0.0815043 0)
(28.7458 0.113975 0)
(28.4028 0.161012 0)
(27.9636 0.231865 0)
(27.4174 0.34012 0)
(26.662 0.52924 0)
(25.718 0.829986 0)
(24.272 1.39168 0)
(22.5303 2.27219 0)
(19.5785 4.24424 0)
(15.4257 6.33719 0)
(8.13137 11.4503 0)
(29.9988 0.000933456 0)
(29.9854 0.00283939 0)
(29.9561 0.00491611 0)
(29.9116 0.00755403 0)
(29.8533 0.0110139 0)
(29.7792 0.0156731 0)
(29.6872 0.0217664 0)
(29.5727 0.030738 0)
(29.4304 0.0429622 0)
(29.251 0.0611727 0)
(29.024 0.0845244 0)
(28.7459 0.118283 0)
(28.403 0.167122 0)
(27.9642 0.240512 0)
(27.4187 0.353001 0)
(26.6653 0.548107 0)
(25.7239 0.859937 0)
(24.283 1.43628 0)
(22.5621 2.34617 0)
(19.6415 4.37103 0)
(15.6347 6.56456 0)
(8.31423 11.9717 0)
(29.9988 0.000967367 0)
(29.9854 0.00294223 0)
(29.956 0.00509498 0)
(29.9115 0.00782845 0)
(29.8533 0.0114138 0)
(29.7791 0.0162419 0)
(29.6872 0.0225575 0)
(29.5726 0.0318484 0)
(29.4309 0.0446027 0)
(29.2498 0.0633982 0)
(29.024 0.0875701 0)
(28.7461 0.12259 0)
(28.4033 0.173227 0)
(27.9648 0.24915 0)
(27.4202 0.365853 0)
(26.6689 0.566912 0)
(25.7308 0.889779 0)
(24.2951 1.48052 0)
(22.5947 2.41932 0)
(19.7062 4.49453 0)
(15.8522 6.78955 0)
(8.50379 12.5021 0)
(29.9988 0.00100127 0)
(29.9855 0.00304503 0)
(29.9561 0.00527385 0)
(29.9116 0.00810285 0)
(29.8534 0.0118136 0)
(29.7792 0.0168106 0)
(29.6873 0.0233486 0)
(29.5727 0.0329577 0)
(29.4313 0.0462678 0)
(29.2488 0.0656003 0)
(29.024 0.0906343 0)
(28.7463 0.126897 0)
(28.4036 0.179329 0)
(27.9656 0.257777 0)
(27.4219 0.378672 0)
(26.673 0.585651 0)
(25.7385 0.919508 0)
(24.3085 1.52439 0)
(22.628 2.49164 0)
(19.7723 4.61457 0)
(16.0789 7.01207 0)
(8.70039 13.0419 0)
(29.9988 0.00103517 0)
(29.9854 0.00314781 0)
(29.956 0.00545273 0)
(29.9115 0.00837721 0)
(29.8533 0.0122134 0)
(29.7792 0.0173791 0)
(29.6873 0.0241397 0)
(29.5727 0.0340663 0)
(29.4316 0.0479437 0)
(29.2481 0.0677931 0)
(29.0242 0.0937083 0)
(28.7465 0.131202 0)
(28.404 0.185427 0)
(27.9665 0.266391 0)
(27.4239 0.391455 0)
(26.6775 0.604315 0)
(25.7471 0.949116 0)
(24.3232 1.56789 0)
(22.6622 2.56312 0)
(19.8399 4.731 0)
(16.3152 7.23202 0)
(8.90441 13.5914 0)
(29.9988 0.00106906 0)
(29.9855 0.00325054 0)
(29.9561 0.00563163 0)
(29.9116 0.00865154 0)
(29.8534 0.0126132 0)
(29.7793 0.0179475 0)
(29.6875 0.0249307 0)
(29.5729 0.0351739 0)
(29.4318 0.0496301 0)
(29.2478 0.0699657 0)
(29.0244 0.0967874 0)
(28.7468 0.135507 0)
(28.4043 0.19152 0)
(27.9674 0.274989 0)
(27.426 0.404197 0)
(26.6824 0.622901 0)
(25.7565 0.978592 0)
(24.3393 1.61103 0)
(22.6972 2.63376 0)
(19.9088 4.84364 0)
(16.5613 7.44929 0)
(9.11616 14.151 0)
(29.9988 0.00110294 0)
(29.9854 0.00335325 0)
(29.956 0.00581052 0)
(29.9115 0.00892583 0)
(29.8533 0.0130129 0)
(29.7793 0.0185157 0)
(29.6874 0.0257216 0)
(29.5729 0.0362812 0)
(29.4318 0.0513227 0)
(29.2478 0.0721238 0)
(29.0246 0.0998694 0)
(28.747 0.13981 0)
(28.4048 0.197607 0)
(27.9684 0.283571 0)
(27.4283 0.416898 0)
(26.6876 0.641401 0)
(25.7667 1.00792 0)
(24.3567 1.6538 0)
(22.7331 2.70357 0)
(19.9787 4.95233 0)
(16.8172 7.66375 0)
(9.33599 14.7212 0)
(29.9988 0.00113682 0)
(29.9855 0.00345593 0)
(29.9561 0.00598942 0)
(29.9116 0.0092001 0)
(29.8535 0.0134125 0)
(29.7794 0.019084 0)
(29.6876 0.0265118 0)
(29.5732 0.0373889 0)
(29.4318 0.0530193 0)
(29.2479 0.0742699 0)
(29.0249 0.102954 0)
(28.7474 0.144112 0)
(28.4052 0.203688 0)
(27.9695 0.292135 0)
(27.4308 0.429555 0)
(26.6931 0.65981 0)
(25.7776 1.03709 0)
(24.3756 1.6962 0)
(22.7701 2.77256 0)
(20.0498 5.05689 0)
(17.0825 7.87528 0)
(9.56417 15.3023 0)
(29.9988 0.00117069 0)
(29.9854 0.00355857 0)
(29.956 0.00616832 0)
(29.9115 0.00947434 0)
(29.8534 0.013812 0)
(29.7793 0.0196523 0)
(29.6875 0.0273015 0)
(29.5733 0.0384922 0)
(29.4316 0.0547171 0)
(29.2482 0.0764072 0)
(29.0252 0.106039 0)
(28.7477 0.148412 0)
(28.4057 0.209763 0)
(27.9706 0.30068 0)
(27.4334 0.442168 0)
(26.6988 0.678122 0)
(25.7892 1.06609 0)
(24.3959 1.73823 0)
(22.8083 2.84072 0)
(20.122 5.15719 0)
(17.3571 8.08372 0)
(9.80098 15.8947 0)
(29.9988 0.00120456 0)
(29.9855 0.00366119 0)
(29.9562 0.00634722 0)
(29.9117 0.0097485 0)
(29.8535 0.0142116 0)
(29.7795 0.0202197 0)
(29.6877 0.0280945 0)
(29.5736 0.0395911 0)
(29.4313 0.0563333 0)
(29.2485 0.078537 0)
(29.0255 0.109127 0)
(28.748 0.152712 0)
(28.4063 0.215831 0)
(27.9718 0.309205 0)
(27.4361 0.454732 0)
(26.7048 0.696331 0)
(25.8015 1.09489 0)
(24.4176 1.77988 0)
(22.8478 2.90806 0)
(20.1955 5.25308 0)
(17.6407 8.28894 0)
(10.0466 16.4988 0)
(29.9988 0.00123842 0)
(29.9854 0.00376378 0)
(29.9561 0.00652611 0)
(29.9116 0.0100227 0)
(29.8534 0.0146107 0)
(29.7794 0.0207889 0)
(29.6875 0.0288773 0)
(29.5738 0.0407515 0)
(29.4305 0.057702 0)
(29.2489 0.0806699 0)
(29.0258 0.112215 0)
(28.7484 0.157009 0)
(28.4068 0.221893 0)
(27.973 0.31771 0)
(27.439 0.467248 0)
(26.7111 0.714428 0)
(25.8145 1.12349 0)
(24.4408 1.82114 0)
(22.8889 2.97458 0)
(20.2706 5.34442 0)
(17.9334 8.49079 0)
(10.3014 17.115 0)
(29.9988 0.00127227 0)
(29.9855 0.00386633 0)
(29.9562 0.00670499 0)
(29.9117 0.0102968 0)
(29.8536 0.01501 0)
(29.7796 0.0213563 0)
(29.6876 0.0296697 0)
(29.5744 0.0418672 0)
(29.4289 0.0596361 0)
(29.2492 0.0828336 0)
(29.0262 0.115304 0)
(28.7488 0.161306 0)
(28.4074 0.227947 0)
(27.9743 0.326194 0)
(27.442 0.479712 0)
(26.7176 0.73241 0)
(25.828 1.15188 0)
(24.4653 1.86199 0)
(22.9317 3.04027 0)
(20.3474 5.43108 0)
(18.2353 8.6891 0)
(10.5654 17.7438 0)
(29.9988 0.00130612 0)
(29.9854 0.00396885 0)
(29.9561 0.00688388 0)
(29.9116 0.0105709 0)
(29.8535 0.0154094 0)
(29.7796 0.0219239 0)
(29.6875 0.0304544 0)
(29.5747 0.0430429 0)
(29.4277 0.0614533 0)
(29.2496 0.0850233 0)
(29.0265 0.118393 0)
(28.7492 0.165601 0)
(28.4079 0.233993 0)
(27.9757 0.334657 0)
(27.445 0.492122 0)
(26.7243 0.750269 0)
(25.8422 1.18002 0)
(24.4912 1.90242 0)
(22.9766 3.10514 0)
(20.426 5.51292 0)
(18.5469 8.88373 0)
(10.839 18.3856 0)
(29.9988 0.00133997 0)
(29.9855 0.00407135 0)
(29.9562 0.00706271 0)
(29.9117 0.0108451 0)
(29.8536 0.0158075 0)
(29.7797 0.0224972 0)
(29.6877 0.0312163 0)
(29.5748 0.0442404 0)
(29.4271 0.0629698 0)
(29.2499 0.0872202 0)
(29.0269 0.121482 0)
(28.7496 0.169894 0)
(28.4085 0.240032 0)
(27.977 0.343097 0)
(27.4482 0.504478 0)
(26.7313 0.768001 0)
(25.8569 1.20793 0)
(24.5183 1.9424 0)
(23.0239 3.16917 0)
(20.5061 5.58981 0)
(18.8683 9.07452 0)
(11.1223 19.0408 0)
(29.9988 0.00137381 0)
(29.9854 0.0041738 0)
(29.9561 0.00724155 0)
(29.9116 0.0111189 0)
(29.8535 0.0162072 0)
(29.7796 0.0230599 0)
(29.6878 0.0320472 0)
(29.5741 0.0451068 0)
(29.4268 0.0644253 0)
(29.2502 0.0894146 0)
(29.0272 0.124571 0)
(28.7499 0.174185 0)
(28.4091 0.246063 0)
(27.9784 0.351512 0)
(27.4515 0.516775 0)
(26.7384 0.785601 0)
(25.8722 1.23557 0)
(24.5466 1.98192 0)
(23.0739 3.23237 0)
(20.5872 5.66162 0)
(19.1987 9.26133 0)
(11.4156 19.7097 0)
(29.9988 0.00140764 0)
(29.9855 0.00427631 0)
(29.9562 0.00742044 0)
(29.9117 0.0113929 0)
(29.8537 0.016606 0)
(29.7796 0.023629 0)
(29.689 0.0328482 0)
(29.57 0.0464881 0)
(29.4265 0.0659118 0)
(29.2504 0.0916059 0)
(29.0275 0.127659 0)
(28.7503 0.178475 0)
(28.4097 0.252086 0)
(27.9798 0.359904 0)
(27.4548 0.529014 0)
(26.7458 0.803064 0)
(25.8878 1.26294 0)
(24.576 2.02093 0)
(23.127 3.29475 0)
(20.6686 5.72824 0)
(19.5349 9.44417 0)
(11.719 20.3937 0)
(29.9988 0.00144131 0)
(29.9855 0.00437873 0)
(29.9561 0.00759944 0)
(29.9116 0.0116667 0)
(29.8537 0.017006 0)
(29.7793 0.0241934 0)
(29.6897 0.0336722 0)
(29.5671 0.0479173 0)
(29.4264 0.0674324 0)
(29.2505 0.0937974 0)
(29.0278 0.130745 0)
(28.7507 0.182762 0)
(28.4103 0.258101 0)
(27.9812 0.36827 0)
(27.4582 0.541189 0)
(26.7533 0.820386 0)
(25.9039 1.29002 0)
(24.6063 2.05938 0)
(23.1836 3.35631 0)
(20.7497 5.78968 0)
(19.8701 9.62273 0)
(12.0323 21.1002 0)
(29.9988 0.00147448 0)
(29.9855 0.00448015 0)
(29.9562 0.0077773 0)
(29.9117 0.0119385 0)
(29.8539 0.0174038 0)
(29.7794 0.0247458 0)
(29.6901 0.0345538 0)
(29.5661 0.049052 0)
(29.4262 0.0689595 0)
(29.2506 0.0959854 0)
(29.0281 0.13383 0)
(28.7511 0.187047 0)
(28.4109 0.264113 0)
(27.9826 0.376616 0)
(27.4617 0.553299 0)
(26.7609 0.837564 0)
(25.9203 1.31681 0)
(24.6374 2.09721 0)
(23.2443 3.41709 0)
(20.8305 5.846 0)
(20.1929 9.79498 0)
(12.4416 21.8505 0)
(0.595342 0.00147365 0)
(-0.763623 0.0229143 0)
(-1.50689 0.00839615 0)
(-1.58643 -0.00112158 0)
(-1.36757 -0.00526677 0)
(-0.963603 -0.00467703 0)
(-0.773162 -0.00206076 0)
(-0.687005 -0.000175468 0)
(-0.756053 0.000215657 0)
(-0.728361 0.000157995 0)
(-0.795016 0.000118807 0)
(-0.75595 -0.0008345 0)
(-0.577968 -0.00164591 0)
(-0.346761 -0.00175671 0)
(-0.150794 -0.00240333 0)
(0.237567 -0.00431987 0)
(1.01792 -0.00645492 0)
(2.18409 -0.00780338 0)
(3.58122 -0.00798628 0)
(5.03346 -0.00747657 0)
(6.47693 -0.00687987 0)
(7.93834 -0.00642093 0)
(9.41343 -0.00591335 0)
(10.8639 -0.00533349 0)
(12.2752 -0.00475579 0)
(13.6281 -0.00420813 0)
(14.9224 -0.00369984 0)
(16.1488 -0.00333933 0)
(17.3897 -0.00311731 0)
(18.6446 -0.00239452 0)
(19.4618 -0.00182922 0)
(20.3343 -0.00732433 0)
(27.0685 -0.00866502 0)
(29.7792 -0.0023509 0)
(29.8246 -3.31359e-05 0)
(0.615162 0.00366551 0)
(-0.74514 0.0686125 0)
(-1.48446 0.0250337 0)
(-1.56027 -0.00325368 0)
(-1.34331 -0.0157581 0)
(-0.941866 -0.0139338 0)
(-0.753129 -0.00614886 0)
(-0.666104 -0.000404888 0)
(-0.739809 0.00082338 0)
(-0.723013 0.000658226 0)
(-0.805768 0.000403435 0)
(-0.776649 -0.00277317 0)
(-0.581865 -0.00551489 0)
(-0.30316 -0.00553662 0)
(-0.0844439 -0.00669507 0)
(0.26442 -0.0119975 0)
(0.980156 -0.0186184 0)
(2.12279 -0.0230554 0)
(3.54318 -0.0237999 0)
(5.03001 -0.0224251 0)
(6.49363 -0.0206613 0)
(7.95377 -0.0192132 0)
(9.41204 -0.0176755 0)
(10.8486 -0.015964 0)
(12.2543 -0.0142451 0)
(13.6072 -0.0126083 0)
(14.9049 -0.0110927 0)
(16.1353 -0.0100053 0)
(17.374 -0.00934179 0)
(18.6299 -0.00724851 0)
(19.4752 -0.00532695 0)
(20.2598 -0.0216979 0)
(26.8777 -0.0261793 0)
(29.764 -0.00730092 0)
(29.8287 -0.000117965 0)
(0.639271 0.00483694 0)
(-0.724275 0.114226 0)
(-1.45865 0.0414112 0)
(-1.52678 -0.00540706 0)
(-1.3076 -0.0263274 0)
(-0.910464 -0.0231073 0)
(-0.724846 -0.0102631 0)
(-0.639956 -0.000587776 0)
(-0.720613 0.00159976 0)
(-0.715758 0.00153492 0)
(-0.814392 0.000973022 0)
(-0.789941 -0.00451309 0)
(-0.566998 -0.00977 0)
(-0.237028 -0.00999031 0)
(-0.00940933 -0.0111425 0)
(0.28406 -0.0190476 0)
(0.934541 -0.0299637 0)
(2.06429 -0.0379617 0)
(3.51645 -0.0396929 0)
(5.04185 -0.0375317 0)
(6.52656 -0.0344422 0)
(7.98554 -0.0318363 0)
(9.42787 -0.0292501 0)
(10.85 -0.0264732 0)
(12.2492 -0.0236962 0)
(13.6009 -0.0210193 0)
(14.9006 -0.0185084 0)
(16.1342 -0.0166729 0)
(17.3708 -0.0155513 0)
(18.6262 -0.0121476 0)
(19.4976 -0.00874344 0)
(20.2046 -0.0355762 0)
(26.7003 -0.0437294 0)
(29.749 -0.0125798 0)
(29.8326 -0.000238972 0)
(0.667595 0.00488137 0)
(-0.701529 0.159878 0)
(-1.42929 0.0575014 0)
(-1.4853 -0.00782158 0)
(-1.26107 -0.0368664 0)
(-0.869693 -0.0321308 0)
(-0.689114 -0.0142521 0)
(-0.607763 -0.000619737 0)
(-0.694879 0.00261808 0)
(-0.701243 0.00271526 0)
(-0.816732 0.00175887 0)
(-0.795407 -0.00661103 0)
(-0.541185 -0.0148509 0)
(-0.159469 -0.0149756 0)
(0.0743716 -0.0152139 0)
(0.308835 -0.0253498 0)
(0.889792 -0.0410963 0)
(2.00664 -0.0533629 0)
(3.49571 -0.0562544 0)
(5.06662 -0.0531117 0)
(6.57711 -0.0483856 0)
(8.0365 -0.0444179 0)
(9.46335 -0.0407251 0)
(10.8701 -0.0369177 0)
(12.2613 -0.0331244 0)
(13.61 -0.0294318 0)
(14.9105 -0.025939 0)
(16.1465 -0.0233453 0)
(17.3808 -0.0217548 0)
(18.6341 -0.0171076 0)
(19.5295 -0.012051 0)
(20.1681 -0.0491035 0)
(26.5349 -0.0613204 0)
(29.7339 -0.0181719 0)
(29.8363 -0.000389331 0)
(0.700151 0.00367276 0)
(-0.677031 0.205516 0)
(-1.39593 0.0731628 0)
(-1.43524 -0.0106136 0)
(-1.20411 -0.0473779 0)
(-0.819755 -0.0409396 0)
(-0.646417 -0.0180829 0)
(-0.569368 -0.000521508 0)
(-0.662317 0.00384254 0)
(-0.679302 0.00420373 0)
(-0.811692 0.00277345 0)
(-0.792048 -0.00899084 0)
(-0.503995 -0.0206946 0)
(-0.0703572 -0.020475 0)
(0.168195 -0.0188972 0)
(0.341821 -0.0307313 0)
(0.848012 -0.0516838 0)
(1.95006 -0.0689998 0)
(3.48242 -0.0733971 0)
(5.10845 -0.0691549 0)
(6.65024 -0.062481 0)
(8.1113 -0.056933 0)
(9.52228 -0.0520694 0)
(10.9121 -0.047266 0)
(12.293 -0.0425084 0)
(13.6367 -0.0378348 0)
(14.9366 -0.0333786 0)
(16.174 -0.0300188 0)
(17.4055 -0.0279463 0)
(18.6546 -0.0221119 0)
(19.5717 -0.0152767 0)
(20.1505 -0.0622575 0)
(26.3805 -0.0789122 0)
(29.7187 -0.0240505 0)
(29.8397 -0.000569898 0)
(0.737039 0.0010616 0)
(-0.650881 0.251151 0)
(-1.35804 0.0882472 0)
(-1.37581 -0.0138928 0)
(-1.1367 -0.0578958 0)
(-0.760515 -0.0494952 0)
(-0.596745 -0.0217225 0)
(-0.524266 -0.000291657 0)
(-0.622407 0.00526019 0)
(-0.649612 0.00599089 0)
(-0.798074 0.00399561 0)
(-0.778642 -0.0116756 0)
(-0.455573 -0.0272842 0)
(0.028738 -0.0264362 0)
(0.27157 -0.022152 0)
(0.385845 -0.0351049 0)
(0.814605 -0.061562 0)
(1.89923 -0.0847679 0)
(3.48148 -0.0911252 0)
(5.17479 -0.0857121 0)
(6.75456 -0.0767528 0)
(8.21776 -0.0693732 0)
(9.61096 -0.0632647 0)
(10.981 -0.0574972 0)
(12.3484 -0.0518288 0)
(13.6845 -0.046213 0)
(14.9818 -0.0408167 0)
(16.2193 -0.036687 0)
(17.4472 -0.0341166 0)
(18.6898 -0.0271483 0)
(19.6259 -0.0184344 0)
(20.1524 -0.0750334 0)
(26.2361 -0.096466 0)
(29.7037 -0.0301929 0)
(29.8428 -0.000780091 0)
(0.778212 -0.00309681 0)
(-0.6231 0.296784 0)
(-1.31496 0.102593 0)
(-1.30574 -0.0177667 0)
(-1.05826 -0.0684298 0)
(-0.691414 -0.0577532 0)
(-0.539576 -0.0251394 0)
(-0.471634 6.35916e-05 0)
(-0.574302 0.00685837 0)
(-0.611473 0.00806234 0)
(-0.774633 0.00540242 0)
(-0.754011 -0.014686 0)
(-0.396223 -0.0345904 0)
(0.136928 -0.0328374 0)
(0.384986 -0.025019 0)
(0.44401 -0.0385264 0)
(0.796934 -0.0707185 0)
(1.8631 -0.100652 0)
(3.50206 -0.109515 0)
(5.27781 -0.102887 0)
(6.90434 -0.0912431 0)
(8.3691 -0.0817264 0)
(9.73972 -0.0742803 0)
(11.0845 -0.0675791 0)
(12.4338 -0.0610601 0)
(13.7586 -0.0545494 0)
(15.0507 -0.0482426 0)
(16.2869 -0.0433429 0)
(17.5097 -0.0402559 0)
(18.7424 -0.0322034 0)
(19.694 -0.0215307 0)
(20.1754 -0.0874244 0)
(26.1011 -0.113951 0)
(29.6887 -0.0365812 0)
(29.8456 -0.00101928 0)
(0.823425 -0.00894367 0)
(-0.593634 0.342397 0)
(-1.2659 0.116007 0)
(-1.2234 -0.0223444 0)
(-0.968018 -0.0789632 0)
(-0.611667 -0.0656584 0)
(-0.47405 -0.028301 0)
(-0.410406 0.000534275 0)
(-0.516841 0.00862523 0)
(-0.563729 0.0104004 0)
(-0.739853 0.00695766 0)
(-0.716698 -0.0180237 0)
(-0.325404 -0.0425937 0)
(0.255555 -0.0396933 0)
(0.511386 -0.0275683 0)
(0.520366 -0.0410941 0)
(0.802693 -0.0792245 0)
(1.85356 -0.116687 0)
(3.55799 -0.128665 0)
(5.43601 -0.120817 0)
(7.12272 -0.106011 0)
(8.58774 -0.0939729 0)
(9.92595 -0.085065 0)
(11.2355 -0.0774598 0)
(12.5587 -0.0701643 0)
(13.8666 -0.0628198 0)
(15.1501 -0.0556421 0)
(16.3827 -0.0499765 0)
(17.5982 -0.0463504 0)
(18.8165 -0.0372591 0)
(19.7787 -0.0245697 0)
(20.222 -0.0994219 0)
(25.9756 -0.131329 0)
(29.674 -0.0431986 0)
(29.8481 -0.00128673 0)
(0.872188 -0.0166128 0)
(-0.562347 0.387945 0)
(-1.20993 0.128261 0)
(-1.12708 -0.0277347 0)
(-0.865284 -0.0894588 0)
(-0.520528 -0.0731551 0)
(-0.399152 -0.0311787 0)
(-0.339367 0.00110595 0)
(-0.448606 0.0105462 0)
(-0.504768 0.0129811 0)
(-0.691693 0.00862895 0)
(-0.664573 -0.0216936 0)
(-0.241115 -0.0512847 0)
(0.388271 -0.0470467 0)
(0.656094 -0.0298764 0)
(0.620397 -0.0428994 0)
(0.839551 -0.0871942 0)
(1.8842 -0.132978 0)
(3.66813 -0.148732 0)
(5.67531 -0.139703 0)
(7.44443 -0.121146 0)
(8.9107 -0.106079 0)
(10.1993 -0.0955342 0)
(11.4544 -0.0870532 0)
(12.7374 -0.0790801 0)
(14.0194 -0.0709882 0)
(15.2893 -0.0629956 0)
(16.5156 -0.0565739 0)
(17.7207 -0.0523797 0)
(18.9179 -0.0422899 0)
(19.8839 -0.0275529 0)
(20.2965 -0.111013 0)
(25.8606 -0.148553 0)
(29.6595 -0.0500279 0)
(29.8503 -0.00158155 0)
(0.923724 -0.0262285 0)
(-0.529024 0.433348 0)
(-1.14597 0.139097 0)
(-1.01531 -0.0340403 0)
(-0.749775 -0.0998618 0)
(-0.417555 -0.0801969 0)
(-0.313887 -0.0337529 0)
(-0.257255 0.00175747 0)
(-0.36799 0.0125993 0)
(-0.432553 0.0157719 0)
(-0.62744 0.0103708 0)
(-0.594524 -0.0256913 0)
(-0.139801 -0.060666 0)
(0.540811 -0.0549651 0)
(0.826526 -0.0320324 0)
(0.75147 -0.0440335 0)
(0.916237 -0.0947686 0)
(1.97074 -0.149715 0)
(3.85681 -0.169987 0)
(6.02765 -0.159866 0)
(7.91297 -0.136818 0)
(9.39197 -0.117995 0)
(10.608 -0.105544 0)
(11.7751 -0.0962156 0)
(12.9922 -0.0877059 0)
(14.2329 -0.0789975 0)
(15.4813 -0.0702744 0)
(16.6977 -0.0631154 0)
(17.888 -0.0583153 0)
(19.0548 -0.0472592 0)
(20.0145 -0.0304777 0)
(20.4049 -0.122178 0)
(25.758 -0.165567 0)
(29.6455 -0.0570491 0)
(29.8521 -0.0019026 0)
(0.976941 -0.0378976 0)
(-0.493363 0.478483 0)
(-1.07276 0.148236 0)