/*--------------------------------*- C++ -*----------------------------------*\
| =========                 |                                                 |
| \\      /  F ield         | OpenFOAM: The Open Source CFD Toolbox           |
|  \\    /   O peration     | Version:  v1912                                 |
|   \\  /    A nd           | Website:  www.openfoam.com                      |
|    \\/     M anipulation  |                                                 |
\*---------------------------------------------------------------------------*/
FoamFile
{
    version     2.0;
    format      ascii;
    class       volScalarField;
    location    "480";
    object      yPlus;
}
// * * * * * * * * * * * * * * * * * * * * * * * * * * * * * * * * * * * * * //

dimensions      [0 0 0 0 0 0 0];


internalField   uniform 0;

boundaryField
{
    inlet
    {
        type            calculated;
        value           uniform 0;
    }
    outlet
    {
        type            calculated;
        value           uniform 0;
    }
    lowerSymmetry
    {
        type            symmetryPlane;
    }
    obstical
    {
        type            calculated;
        value           nonuniform List<scalar> 
88
(
478.642
480.853
485.253
491.821
500.492
511.179
523.794
538.249
554.459
572.345
591.83
612.842
635.299
659.113
684.188
710.431
737.752
766.068
795.308
825.411
856.328
888.021
920.462
953.631
987.519
1022.12
1057.44
1093.49
1130.29
1167.84
1206.17
1245.31
1285.27
1326.08
1367.75
1410.32
1453.79
1498.19
1543.54
1589.87
1637.2
1685.6
1735.47
1790.74
63.3244
65.1022
67.2557
69.7735
72.6521
75.8961
79.4971
83.4307
87.652
92.0939
96.6643
101.247
105.7
109.863
113.561
116.613
118.846
120.105
120.267
119.255
117.036
113.632
109.111
103.593
97.2534
90.3325
83.1586
76.1859
70.0432
65.5528
63.6129
64.8555
69.3032
76.4296
85.5439
96.0929
107.76
120.456
134.272
149.528
166.646
185.96
207.763
232.867
)
;
    }
    obsticalTop
    {
        type            calculated;
        value           nonuniform List<scalar> 
20
(
53.4019
38.8196
47.1643
53.2451
56.0837
57.7133
58.3115
57.9982
57.0426
55.5756
53.5715
50.9185
47.5199
43.1852
37.884
30.9763
24.5608
15.0169
13.5224
11.3915
)
;
    }
    top
    {
        type            calculated;
        value           uniform 0;
    }
    defaultFaces
    {
        type            empty;
    }
}


// ************************************************************************* //
