/*--------------------------------*- C++ -*----------------------------------*\
| =========                 |                                                 |
| \\      /  F ield         | OpenFOAM: The Open Source CFD Toolbox           |
|  \\    /   O peration     | Version:  v1912                                 |
|   \\  /    A nd           | Website:  www.openfoam.com                      |
|    \\/     M anipulation  |                                                 |
\*---------------------------------------------------------------------------*/
FoamFile
{
    version     2.0;
    format      ascii;
    class       volScalarField;
    location    "70";
    object      epsilon;
}
// * * * * * * * * * * * * * * * * * * * * * * * * * * * * * * * * * * * * * //

dimensions      [0 2 -3 0 0 0 0];


internalField   nonuniform List<scalar> 
12441
(
0.0102933
0.00905418
0.00823181
0.00760984
0.0070996
0.00667228
0.00628756
0.00597786
0.00571815
0.00549408
0.00530037
0.00513218
0.00496921
0.00484104
0.00472473
0.00462406
0.00427925
0.0144544
0.200763
2.62562
21.0268
39.25
0.0101143
0.00883122
0.00801512
0.00741531
0.00692443
0.00651004
0.00613375
0.00583543
0.00558617
0.00537089
0.00518499
0.00502387
0.00486645
0.00474398
0.00463294
0.00453891
0.00434635
0.0142436
0.190458
2.62434
21.3263
40.2318
0.00989239
0.0085742
0.0077903
0.00720926
0.00672946
0.00632117
0.00595967
0.00567228
0.00543201
0.00522483
0.00504636
0.00489218
0.00473977
0.0046234
0.00451811
0.00443014
0.00434524
0.0131191
0.164838
2.60479
21.7141
41.3784
0.0096689
0.00832129
0.00755702
0.00699548
0.00652
0.00611706
0.00576711
0.0054906
0.00525959
0.0050607
0.00488993
0.00474309
0.00459986
0.0044896
0.00439093
0.00430985
0.004275
0.0117462
0.137838
2.59426
22.1838
42.5504
0.00942498
0.00805412
0.00732293
0.00677957
0.00631294
0.0059182
0.00558246
0.00531612
0.00509342
0.004902
0.00473808
0.00459763
0.00445852
0.00435419
0.00426113
0.0041868
0.00414317
0.0105322
0.125783
2.61332
22.6944
43.6698
0.00921902
0.00782493
0.00710687
0.00657994
0.0061152
0.005726
0.00539948
0.00514243
0.00492773
0.00474347
0.00458618
0.00445205
0.00432196
0.00422289
0.00413568
0.00406685
0.00404588
0.0112378
0.148847
2.72505
23.3001
44.7472
0.00899867
0.00758831
0.00690048
0.00638875
0.00593112
0.00555084
0.00523659
0.00498786
0.00477987
0.00460156
0.00444959
0.00432032
0.00419258
0.00409923
0.00401449
0.00395349
0.00579297
0.0208547
0.253619
3.0128
24.0817
45.7945
0.00882019
0.00739161
0.00671253
0.00621478
0.00575674
0.00538199
0.00507525
0.00483446
0.00463338
0.00446123
0.00431493
0.004191
0.00407191
0.00398441
0.00391179
0.00494211
0.0353788
0.0805709
0.563723
3.59875
25.1325
46.8732
0.00862637
0.00718637
0.0065357
0.00605075
0.00559849
0.00523289
0.00493688
0.00470283
0.00450711
0.00433963
0.0041974
0.0040771
0.00395888
0.00384269
0.00516963
0.028094
0.194256
0.328842
1.26976
4.61739
26.5492
48.0153
0.00847161
0.0070172
0.00637198
0.00589922
0.0054448
0.00508468
0.00479502
0.00456804
0.00437852
0.00421656
0.00407942
0.0039641
0.00385434
0.00397776
0.0263701
0.168693
0.648143
0.964928
2.47993
6.13461
28.4006
49.2846
0.00830251
0.0068405
0.00622171
0.00575951
0.0053097
0.00495892
0.00467851
0.00445683
0.00427143
0.00411302
0.00397886
0.00386721
0.00372818
0.00951893
0.129363
0.555484
1.49453
2.08127
4.08466
8.08933
30.7074
50.6975
0.0081674
0.00669424
0.00607859
0.00562725
0.00517399
0.00482862
0.00455374
0.00433847
0.00415873
0.00400536
0.00387586
0.00377049
0.00381457
0.0528441
0.412063
1.22704
2.60244
3.49969
5.82584
10.3194
33.4331
52.295
0.0080186
0.00654078
0.00595044
0.00550792
0.00505884
0.00472284
0.00445602
0.00424484
0.00406817
0.00391739
0.00378996
0.00365215
0.00822898
0.200821
0.898566
2.05586
3.73607
4.92664
7.48312
12.644
36.5025
54.0597
0.00789761
0.00641141
0.00582239
0.00538989
0.00493663
0.00460609
0.00434432
0.00413925
0.003968
0.00382206
0.00369911
0.00349352
0.0399355
0.481468
1.47927
2.86551
4.73183
6.1717
8.95204
14.9224
39.8185
56.0037
0.00776657
0.00627833
0.00571291
0.00528752
0.00483808
0.00451708
0.0042621
0.00405995
0.00389083
0.00374661
0.00362495
0.00390439
0.135685
0.846738
2.0488
3.57253
5.54407
7.18353
10.214
17.0698
43.2852
58.0812
0.00765737
0.00616322
0.00559783
0.00518181
0.00472762
0.00441211
0.0041618
0.00396552
0.00380157
0.003662
0.00354469
0.00938695
0.305457
1.22762
2.55368
4.15975
6.18541
7.98345
11.2882
19.0452
46.8164
60.2902
0.00754179
0.00604762
0.00550474
0.00509437
0.00464417
0.0043382
0.00409357
0.00389911
0.00373638
0.00359772
0.00348148
0.0351524
0.523671
1.58409
2.98376
4.63732
6.6847
8.61221
12.2029
20.8354
50.3453
62.571
0.00744013
0.00594236
0.00539866
0.00499744
0.00454233
0.00424201
0.00400198
0.00381347
0.00365594
0.00352193
0.00341316
0.0986763
0.755563
1.90109
3.34497
5.02207
7.07022
9.10728
12.9835
22.4416
53.8225
64.9213
0.00733788
0.00584198
0.00531908
0.00492207
0.00447104
0.00418039
0.0039449
0.0037572
0.00360012
0.00346637
0.00335737
0.198702
0.978701
2.17844
3.64724
5.33028
7.36491
9.49694
13.6487
23.8713
57.2184
67.2818
0.00724308
0.00574558
0.00522124
0.00483313
0.004377
0.00409209
0.00386113
0.00367937
0.00352743
0.00339829
0.00386982
0.319694
1.18382
2.42052
3.90011
5.57561
7.58604
9.80034
14.2116
25.1341
60.5177
69.6617
0.00715323
0.00565905
0.00515421
0.00476902
0.00431734
0.00404209
0.00381455
0.00363261
0.00348033
0.00335084
0.0099583
0.44754
1.36968
2.63249
4.11167
5.76893
7.74601
10.0294
14.6805
26.2403
63.721
72.0102
0.00706228
0.00556842
0.005062
0.00468583
0.00422913
0.00395979
0.00373699
0.00356124
0.00341423
0.00328997
0.0315462
0.573536
1.53828
2.81879
4.28856
5.91863
7.85339
10.1912
15.0612
27.1998
66.8401
74.3523
0.00698336
0.0054942
0.00500542
0.00463086
0.00417883
0.00391927
0.0036988
0.00352198
0.00337399
0.00325102
0.0737734
0.694176
1.69206
2.98312
4.43611
6.03109
7.91399
10.2897
15.3587
28.0224
69.9
76.6493
0.00689667
0.0054094
0.00491893
0.00455336
0.00409627
0.00384269
0.00362709
0.00345655
0.00331384
0.00320407
0.131308
0.80852
1.8333
3.12844
4.55858
6.11116
7.93191
10.3288
15.5779
28.7179
72.9358
78.9445
0.00682878
0.00534723
0.00487293
0.00450772
0.00405577
0.00381148
0.00359719
0.00342468
0.00328031
0.00319536
0.196046
0.91693
1.96368
3.25724
4.65938
6.16263
7.91067
10.3129
15.7245
29.2961
75.9942
81.212
0.00674288
0.00526499
0.00478957
0.00443383
0.00397705
0.00373764
0.00352891
0.00336327
0.00322459
0.00316908
0.262912
1.02024
2.08457
3.37151
4.74121
6.18862
7.85415
10.2474
15.8052
29.7668
79.1306
83.5114
0.00668411
0.00521296
0.00475173
0.00439514
0.00394383
0.00370658
0.00349931
0.00333189
0.00319182
0.00344754
0.330097
1.11934
2.19692
3.47292
4.80629
6.19206
7.76696
10.1389
15.8275
30.1398
82.4094
85.8273
0.00660016
0.00513403
0.00467201
0.00432508
0.00386894
0.00363593
0.00343385
0.0032731
0.00313863
0.0056443
0.39756
1.21497
2.30156
3.56277
4.85653
6.17588
7.65432
9.99464
15.7998
30.4249
85.8988
88.2307
0.00655087
0.00509219
0.00464271
0.00429375
0.00384353
0.00361211
0.00341034
0.00324679
0.00311056
0.0119288
0.46593
1.30772
2.39906
3.6422
4.89364
6.14314
7.52171
9.82221
15.7306
30.6315
89.6693
90.7106
0.00646655
0.00501444
0.00456504
0.00422631
0.00377146
0.00354431
0.00334816
0.00319164
0.00306217
0.024542
0.535978
1.39806
2.48997
3.71207
4.91925
6.09695
7.37449
9.62909
15.6286
30.7689
93.7865
93.3406
0.0064247
0.00498084
0.00454204
0.00420022
0.00375153
0.0035255
0.00332882
0.00316892
0.00303928
0.0456831
0.608416
1.48633
2.57467
3.77319
4.93489
6.04032
7.21767
9.4225
15.5021
30.8466
98.3093
96.1058
0.00634199
0.00490566
0.00446737
0.00413594
0.00368254
0.00346062
0.00326975
0.00311706
0.00299796
0.076995
0.683858
1.57285
2.65354
3.8262
4.94198
5.976
7.05579
9.20914
15.3592
30.874
103.284
99.0732
0.00630868
0.00488119
0.00445186
0.00411623
0.00366942
0.00344815
0.00325576
0.00309886
0.00298632
0.119732
0.762826
1.65788
2.72685
3.87174
4.9418
5.9064
6.89279
8.995
15.2072
30.861
108.744
102.217
0.00622395
0.00480541
0.00437786
0.00405337
0.00360194
0.00338487
0.00319891
0.00304975
0.00296222
0.174879
0.845763
1.74167
2.79492
3.91031
4.93542
5.8335
6.73198
8.78526
15.0527
30.8176
114.714
105.592
0.00619748
0.00478823
0.0043678
0.0040381
0.0035936
0.00337677
0.00318851
0.00303464
0.0029789
0.243438
0.933008
1.82444
2.858
3.94246
4.92369
5.75887
6.57599
8.58422
14.9019
30.7546
121.207
109.157
0.00611024
0.00471156
0.00429403
0.00397616
0.00352701
0.00331452
0.00313318
0.00298747
0.00306194
0.326354
1.02476
1.90641
2.9164
3.9686
4.90724
5.6836
6.42674
8.39523
14.7598
30.6828
128.23
112.957
0.00608705
0.00469883
0.00428708
0.00396331
0.00352129
0.0033088
0.0031246
0.00297375
0.00630538
0.424233
1.12101
1.98777
2.97043
3.98919
4.88652
5.60841
6.28547
8.22078
14.6313
30.6134
135.778
116.938
0.00599479
0.00461959
0.00421219
0.00390109
0.00345438
0.00324647
0.00306979
0.00292763
0.0398732
0.536636
1.22148
2.06872
3.02048
4.00462
4.86176
5.53359
6.15275
8.06253
14.5207
30.558
143.829
121.137
0.00596686
0.00460482
0.00420348
0.00388667
0.00344789
0.00324
0.00306042
0.00291403
0.127574
0.660096
1.32557
2.14943
3.06696
4.01537
4.83314
5.45915
6.02857
7.92142
14.4321
30.5283
152.311
125.495
0.00586189
0.00451667
0.00412232
0.00381962
0.00337712
0.00317447
0.00300347
0.00287291
0.235289
0.788225
1.43245
2.23006
3.1104
4.02191
4.80076
5.38483
5.9124
7.79776
14.3698
30.5369
161.069
130.045
0.00582066
0.0044913
0.00410375
0.00379634
0.00336173
0.00315954
0.00298664
0.00293583
0.337917
0.915437
1.54115
2.31079
3.15135
4.02487
4.76478
5.31027
5.8033
7.69138
14.3386
30.5973
169.801
134.727
0.0056988
0.00439254
0.00401535
0.00372292
0.00328737
0.00309092
0.0029269
0.0048677
0.429109
1.03824
1.65076
2.39179
3.19055
4.0249
4.72547
5.23503
5.70006
7.60169
14.3441
30.7247
178.005
139.588
0.00561683
0.00433759
0.00397451
0.00368279
0.00325993
0.00306563
0.00290172
0.012031
0.508346
1.15473
1.76051
2.47329
3.22873
4.02294
4.68336
5.15883
5.60136
7.52789
14.3937
30.9378
185.005
144.654
0.0052539
0.00414763
0.00380182
0.00352234
0.00313453
0.00294724
0.00279251
0.0207007
0.576093
1.26376
1.86983
2.55549
3.26685
4.01993
4.63921
5.08161
5.50589
7.46909
14.4971
31.2618
190.098
150.447
95.0235
97.5021
106.024
60.1405
58.8
60.6584
60.3453
67.1917
69.8923
64.6228
56.499
34.0614
19.848
14.3138
12.7606
13.6381
16.0237
19.3662
22.8364
24.8302
25.3737
25.7727
22.6421
12.5244
7.6831
6.37183
5.91626
5.63864
5.53056
5.82668
6.34728
6.6456
6.56105
5.75759
4.83658
94.6475
98.1515
106.96
62.6359
65.0868
65.778
64.3602
70.6709
72.0902
66.6722
59.6123
36.0784
20.5045
14.5442
12.8218
13.6049
15.9278
19.2261
22.6766
24.6792
25.2276
25.5929
22.5133
12.4771
7.65704
6.35434
5.90179
5.62618
5.51976
5.8174
6.33778
6.63456
6.54966
5.74711
4.82845
93.9266
99.0496
106.316
68.8668
77.7473
74.785
73.7113
75.6951
71.5898
64.2938
56.7059
37.1345
21.6153
15.0877
13.0004
13.5682
15.7471
18.9363
22.3188
24.3034
24.8338
25.0329
21.8217
12.2779
7.60121
6.31975
5.87328
5.6016
5.49842
5.799
6.31891
6.61262
6.52698
5.72623
4.81225
92.8104
100.08
106.325
79.4527
97.8791
91.8089
91.5403
91.4061
83.0893
71.8333
56.6724
38.7771
23.5624
16.1613
13.4143
13.5904
15.5134
18.5109
21.7753
23.7276
24.2384
24.2082
20.803
11.9667
7.51772
6.26892
5.83141
5.56544
5.46696
5.77176
6.29086
6.57995
6.49318
5.69508
4.78805
91.3035
101.191
107.599
94.5594
125.147
113.884
116.466
115.302
103.507
88.8574
63.3573
42.7478
26.9426
18.1141
14.2551
13.7821
15.2933
17.9856
21.0672
22.9827
23.4899
23.2192
19.6363
11.5799
7.40932
6.2029
5.777
5.51835
5.42591
5.736
6.25389
6.53677
6.44845
5.65381
4.75597
89.3553
102.335
110.21
113.289
155.397
134.596
141.068
138.495
124.648
109.81
77.7873
51.0562
32.651
21.473
15.8132
14.3131
15.2044
17.4415
20.2475
22.1162
22.6406
22.147
18.4382
11.1475
7.2792
6.12298
5.71105
5.46113
5.37589
5.69213
6.20827
6.48333
6.39303
5.60259
4.71612
87.0012
103.461
113.968
133.723
183.415
149.914
158.968
153.81
138.951
126.026
96.3053
65.078
41.8825
27.0327
18.5494
15.4364
15.4182
17.0138
19.4142
21.1986
21.7461
21.0545
17.2762
10.6923
7.13072
6.03061
5.63469
5.39465
5.31762
5.6406
6.15432
6.41994
6.32719
5.54165
4.66867
84.2135
104.51
118.55
153.964
207.653
161.147
170.501
161.956
146.243
133.977
110.56
82.3462
55.4935
35.8843
23.2271
17.5579
16.1729
16.8838
18.7071
20.3203
20.8635
19.9899
16.1858
10.2313
6.96738
5.92741
5.54914
5.31988
5.25188
5.5819
6.09243
6.34691
6.25126
5.47125
4.6138
81.0699
105.42
123.584
172.933
229.767
171.308
179.078
166.873
150.391
136.869
116.367
95.4688
71.751
48.9129
31.0266
21.3722
17.8324
17.278
18.2916
19.5828
20.0492
18.9893
15.1831
9.77611
6.79262
5.81509
5.45571
5.23786
5.17948
5.51657
6.02297
6.26462
6.1656
5.39166
4.55172
77.574
106.133
128.71
190.287
251.043
182.274
187.102
171.205
154.067
138.355
117.125
100.302
84.8649
64.9401
43.2622
28.0291
21.0084
18.5132
18.3557
19.0922
19.358
18.0807
14.2734
9.33487
6.6098
5.69545
5.35575
5.14964
5.10131
5.44517
5.94637
6.17346
6.07061
5.30325
4.48268
73.8369
106.588
133.592
205.896
270.73
194.742
195.614
176.269
158.276
140.054
116.88
100.1
90.3709
78.8024
59.7145
39.0578
26.7257
21.0954
19.1406
18.9648
18.8439
17.2865
13.4571
8.91299
6.42212
5.57032
5.25065
5.05631
5.01823
5.36828
5.86306
6.07385
5.96674
5.20638
4.40699
69.8857
106.729
137.971
219.712
287.011
208.781
204.957
182.562
163.335
142.406
117.239
98.9376
90.1156
85.1337
75.6976
55.0616
36.4215
25.8503
21.0071
19.3461
18.5663
16.6271
12.7325
8.51409
6.23253
5.44149
5.14175
4.95893
4.9311
5.28648
5.77351
5.96625
5.85446
5.10148
4.32495
65.8489
106.502
141.711
231.933
298.595
224.178
215.304
190.388
169.473
145.62
118.502
98.4155
88.0283
84.5987
84.0255
72.3389
50.9321
33.9224
24.5131
20.4416
18.5975
16.1237
12.0978
8.14055
6.04373
5.31069
5.03033
4.8585
4.84078
5.20035
5.67817
5.85112
5.73431
4.98901
4.23692
61.7626
105.857
144.863
243.452
305.726
240.538
226.72
199.969
176.799
149.837
120.729
98.7711
86.1713
81.3428
83.4898
82.6832
67.417
46.0316
30.4081
22.5488
19.0344
15.8022
11.5525
7.794
5.85811
5.17951
4.91761
4.75597
4.74804
5.11043
5.57749
5.72894
5.60683
4.86949
4.14331
57.7502
104.749
147.638
256.022
309.955
257.348
239.51
211.225
185.426
155.198
123.988
99.981
85.0508
78.0519
78.784
82.6437
78.1876
60.2082
39.2434
26.0561
20.0088
15.6967
11.0979
7.47554
5.6777
5.04938
4.80463
4.65218
4.6536
5.01724
5.4719
5.60019
5.4726
4.74346
4.04453
53.8399
103.141
150.325
271.94
313.406
274.027
253.735
224.034
195.314
161.73
128.322
102.062
84.7049
75.5243
73.766
76.8879
78.7623
70.4989
50.2004
31.3243
21.692
15.8536
10.7381
7.18605
5.50418
4.92154
4.69232
4.54788
4.5581
4.92126
5.36183
5.46536
5.33221
4.61149
3.94104
50.1273
101.013
153.157
292.423
318.298
289.961
269.269
238.248
206.408
169.417
133.728
105.039
85.1366
73.8068
69.7549
70.4184
72.9913
72.3624
59.9782
38.3267
24.2771
16.3349
10.4803
6.92627
5.33889
4.797
4.58142
4.44364
4.4621
4.82289
5.24767
5.32494
5.18628
4.47417
3.83331
46.6135
98.3853
156.453
314.541
325.818
304.615
285.58
253.551
218.469
178.115
140.134
108.931
86.3995
72.8546
66.8666
65.1877
66.1303
67.9304
64.6345
46.1245
27.9127
17.2202
10.3355
6.69696
5.18279
4.67652
4.4725
4.33995
4.36603
4.72248
5.12978
5.1794
5.03543
4.33213
3.72184
43.349
95.3406
161.293
330.161
334.567
318.438
302.186
269.559
231.24
187.639
147.409
113.704
88.5491
72.6805
64.9448
61.4383
60.4866
61.7557
63.5592
52.7882
32.5722
18.6036
10.3189
6.49896
5.03656
4.56064
4.36593
4.23712
4.27023
4.62034
5.00847
5.0292
4.88027
4.18601
3.60713
40.3033
92.0158
170.239
334.363
342.504
332.083
318.631
285.724
244.29
197.678
155.345
119.302
91.6412
73.3631
63.8859
58.9552
56.4412
56.35
59.379
56.4489
37.8919
20.5824
10.4506
6.33325
4.90055
4.44967
4.26192
4.13532
4.17495
4.51667
4.88404
4.87479
4.72143
4.03644
3.4897
37.4893
88.5021
186.233
331.57
349.108
345.508
334.451
301.499
257.224
207.908
163.674
125.593
95.6859
74.9903
63.6694
57.5098
53.7859
52.3461
54.6924
56.7096
43.1086
23.2308
10.7553
6.201
4.77485
4.34371
4.1605
4.03463
4.08033
4.41163
4.75675
4.71661
4.55952
3.88408
3.37005
34.8769
84.8162
210.238
329.296
354.983
358.29
349.137
316.312
269.572
217.936
172.072
132.398
100.649
77.6478
64.341
56.9641
52.2507
49.6587
50.7266
54.6602
47.2627
26.5582
11.2617
6.10353
4.65928
4.24263
4.06153
3.93496
3.98643
4.30533
4.62681
4.5551
4.39515
3.72956
3.24872
32.4767
81.367
241.443
329.663
360.806
370.038
362.371
329.802
281.037
227.465
180.233
139.458
106.385
81.3629
65.9569
57.2551
51.6292
48.0531
47.7816
51.7117
49.6576
30.4555
11.9995
6.04214
4.55345
4.14613
3.96475
3.83616
3.89321
4.19782
4.49445
4.3907
4.22891
3.57355
3.12619
30.2708
78.6709
276.104
332.037
366.983
380.541
374.04
341.792
291.397
236.25
187.909
146.509
112.655
86.0816
68.5579
58.3652
51.7873
47.317
45.7972
48.808
50.2199
34.6484
12.9948
6.01796
4.45676
4.05377
3.86979
3.73797
3.80058
4.08911
4.35983
4.22385
4.06139
3.41667
3.00299
28.2673
76.8732
307.862
335.521
373.65
389.836
384.34
352.413
300.683
244.226
194.979
153.306
119.122
91.5877
72.109
60.2737
52.6338
47.2856
44.6224
46.3743
49.4192
38.6968
14.2618
6.03147
4.36838
3.96494
3.77615
3.64008
3.7084
3.97917
4.22315
4.055
3.89318
3.25955
2.87957
26.4614
76.1267
330.188
339.79
380.791
398.136
393.626
361.931
308.98
251.393
201.424
159.706
125.48
97.5268
76.4699
62.923
54.0914
47.8317
44.1062
44.5267
47.8952
42.0906
15.7932
6.08195
4.28728
3.87895
3.68331
3.54213
3.61649
3.86799
4.08459
3.88464
3.72484
3.1028
2.75642
24.8623
76.5775
340.51
344.877
388.291
405.77
402.362
370.72
316.491
257.841
207.287
165.634
131.5
103.477
81.3529
66.1793
56.0642
48.8434
44.1146
43.2419
46.1652
44.4318
17.5511
6.16676
4.21225
3.795
3.59068
3.44376
3.52464
3.75552
3.94435
3.71325
3.55693
2.94704
2.63397
23.4808
78.3609
341.299
350.877
395.995
413.068
410.94
379.054
323.309
263.591
212.597
171.079
137.08
109.127
86.3926
69.8333
58.4246
50.21
44.5291
42.446
44.5401
45.5899
19.4596
6.28043
4.14183
3.71226
3.49767
3.34461
3.43263
3.64173
3.80264
3.54138
3.38999
2.79283
2.51266
22.3333
81.5822
337.225
357.713
403.724
420.299
419.633
387.079
329.446
268.602
217.324
176.016
142.176
114.308
91.2487
73.6254
61.0114
51.8124
45.2383
42.0509
43.1621
45.7064
21.4007
6.41386
4.07439
3.62986
3.40371
3.24435
3.34025
3.52662
3.65971
3.36955
3.22456
2.64073
2.39289
21.4546
86.3293
332.206
365.095
411.302
427.61
428.49
394.676
334.675
272.668
221.335
180.389
146.769
118.978
95.7193
77.3187
63.656
53.529
46.1361
41.9668
42.068
45.0673
23.2171
6.55374
4.00815
3.54696
3.30828
3.1427
3.24731
3.41023
3.51583
3.19836
3.06116
2.49127
2.27501
20.8892
92.6772
328.401
372.585
418.536
435.011
437.349
401.487
338.595
275.445
224.382
184.056
150.803
123.123
99.7195
80.7442
66.2082
55.2443
47.1214
42.1052
41.2358
43.9608
24.7267
6.68274
3.94119
3.46275
3.21094
3.03946
3.15367
3.29261
3.37133
3.02841
2.90029
2.34496
2.1594
20.7351
100.704
326.545
379.716
425.229
442.364
445.809
406.878
340.566
276.423
226.093
186.796
154.171
126.721
103.233
83.8153
68.5606
56.8636
48.1048
42.3803
40.6139
42.598
25.7547
6.78089
3.8716
3.37652
3.11134
2.93452
3.05919
3.17388
3.22655
2.8603
2.74243
2.20227
2.04635
21.1259
110.465
326.527
386.072
431.16
449.411
453.3
410.04
339.844
275.011
225.997
188.287
156.684
129.696
106.24
86.4909
70.6451
58.3161
49.0123
42.7103
40.1356
41.0993
26.1746
6.82824
3.79758
3.28765
3.00928
2.82786
2.96383
3.05421
3.08188
2.69467
2.58805
2.06362
1.93616
22.2957
121.952
327.86
391.325
436.089
455.793
459.121
410.045
335.622
270.58
223.566
188.133
158.079
131.911
108.689
88.741
72.4196
59.5528
49.7872
43.021
39.7283
39.5143
25.9412
6.80831
3.71756
3.19569
2.90466
2.71957
2.86758
2.93381
2.93774
2.53214
2.43757
1.92942
1.8291
24.5223
135.014
329.956
395.222
439.746
461.102
462.549
406.016
327.233
262.619
218.306
185.89
158.012
133.145
110.471
90.5114
73.8433
60.5348
50.3859
43.2485
39.3194
37.8489
25.0971
6.71127
3.63039
3.10035
2.79754
2.60985
2.77048
2.81296
2.7946
2.37332
2.2914
1.80001
1.72539
28.1637
149.308
332.282
397.565
441.838
464.923
462.898
397.221
314.247
250.83
209.853
181.146
156.106
133.115
111.411
91.7087
74.8611
61.2221
50.7711
43.3393
38.8418
36.0895
23.7522
6.53553
3.53534
3.0015
2.68812
2.49898
2.67266
2.69197
2.65293
2.2188
2.14992
1.6757
1.62524
33.4954
164.283
334.408
398.178
442.052
466.897
459.579
383.213
296.645
235.278
198.104
173.61
151.999
131.489
111.27
92.1864
75.3879
61.5622
50.9039
43.2482
38.237
34.2203
22.0496
6.2874
3.43222
2.89919
2.57672
2.38736
2.5743
2.57119
2.51323
2.06914
2.01348
1.55677
1.52883
40.701
179.237
336.011
396.9
440.079
466.741
452.029
363.824
274.814
216.411
183.297
163.224
145.447
127.952
109.772
91.7529
75.3059
61.4845
50.7379
42.9342
37.4588
32.2333
20.1329
5.97901
3.32129
2.79364
2.46377
2.27544
2.47561
2.45104
2.37601
1.92487
1.88237
1.44344
1.43632
49.6321
193.431
336.846
393.584
435.638
464.242
439.545
339.168
249.555
195.052
166.035
150.237
136.414
122.289
106.651
90.1893
74.4684
60.8986
50.2166
42.3572
36.472
30.1317
18.1256
5.6254
3.20319
2.68523
2.34981
2.16374
2.37689
2.33195
2.24179
1.78647
1.75687
1.33589
1.34783
59.8743
206.224
336.711
388.124
428.528
459.087
420.999
309.547
221.908
172.254
147.205
135.224
125.159
114.49
101.74
87.2994
72.7226
59.7046
49.2774
41.4785
35.2517
27.9289
16.1224
5.24192
3.07888
2.57445
2.23546
2.05285
2.27846
2.21437
2.11108
1.65437
1.63722
1.23426
1.26346
70.5911
217.158
335.401
380.471
418.674
450.461
394.692
275.491
193.048
149.138
127.827
119.004
112.228
104.805
95.0454
82.9719
69.947
57.8125
47.8619
40.2644
33.7815
25.6452
14.1894
4.84234
2.94947
2.46191
2.12139
1.94334
2.18068
2.09878
1.98437
1.52892
1.52359
1.13864
1.18332
80.9187
226.016
332.685
370.666
406.189
436.248
358.651
237.869
164.12
126.708
108.87
102.492
98.3753
93.7496
86.8119
77.2536
66.104
55.1745
45.9356
38.6954
32.0552
23.3057
12.369
4.43794
2.81618
2.3483
2.0083
1.83585
2.08394
1.98567
1.86214
1.41043
1.41614
1.04907
1.10743
89.3733
232.918
328.247
358.838
391.389
411.948
311.753
198.169
136.238
105.771
91.1174
86.5292
84.4055
81.9979
77.5011
70.383
61.2847
51.8194
43.5106
36.7782
30.0791
20.9385
10.6856
4.03738
2.68024
2.23439
1.89693
1.73095
1.98866
1.87551
1.7448
1.2991
1.31496
0.965532
1.03585
95.1437
238.572
321.729
345.095
374.401
371.216
255.772
158.658
110.405
86.8611
75.0843
71.7567
71.0171
70.243
67.7087
62.7708
55.7237
47.8757
40.6646
34.5572
27.8772
18.5759
9.15222
3.64701
2.54287
2.12097
1.788
1.62924
1.89525
1.76877
1.63274
1.19507
1.22008
0.887977
0.968556
0.0033768
0.00209547
0.00234529
0.00227568
0.00182846
0.00167548
0.00183195
0.0247953
0.618807
1.33928
1.95062
2.61625
3.29343
4.0143
4.60199
5.02121
5.43649
7.43522
14.6213
31.6112
192.115
158.965
0.00334321
0.00190353
0.0017666
0.00163814
0.00127917
0.00114894
0.00124595
0.0266329
0.641115
1.38157
1.9977
2.64952
3.30327
4.00179
4.56993
4.97822
5.39472
7.41492
14.7079
31.869
192.926
168.148
0.00353951
0.0020545
0.00167422
0.00143093
0.00108639
0.000948616
0.000969358
0.0277426
0.656641
1.41341
2.03494
2.67361
3.3052
3.98222
4.53357
4.93554
5.3598
7.39773
14.7893
32.1242
192.989
176.913
0.00366973
0.00217617
0.00171048
0.00141203
0.00104584
0.000899414
0.000822115
0.0283364
0.665987
1.43502
2.06218
2.68885
3.30021
3.95707
4.49437
4.89374
5.33113
7.38296
14.8631
32.3753
192.368
185.061
0.00392178
0.00241305
0.00188399
0.00153567
0.00114224
0.00098065
0.000775159
0.0285241
0.669568
1.44659
2.07931
2.69559
3.28925
3.92781
4.45374
4.85341
5.30809
7.37
14.9271
32.621
191.112
193.077
0.00405926
0.00255196
0.00202231
0.00166687
0.00123718
0.00106959
0.000748389
0.0283713
0.667728
1.44836
2.08633
2.69418
3.27323
3.89575
4.41297
4.8151
5.29018
7.3584
14.9787
32.8602
189.257
201.154
0.00433985
0.00282244
0.00225726
0.00187303
0.00141273
0.00123248
0.000800356
0.027918
0.660807
1.44065
2.08336
2.68497
3.25289
3.86211
4.37328
4.77946
5.27704
7.34791
15.0157
33.0922
186.846
209.307
0.00447774
0.00296783
0.00241989
0.00204234
0.00154371
0.00135996
0.000888584
0.0271882
0.649176
1.42388
2.07063
2.66828
3.22886
3.82787
4.33573
4.74719
5.2685
7.33851
15.0362
33.3162
183.925
217.49
0.00478357
0.00326999
0.00269011
0.00228728
0.00176024
0.00156477
0.000989622
0.0262018
0.633257
1.39863
2.04852
2.64439
3.20154
3.79384
4.30128
4.71907
5.26463
7.33047
15.0385
33.5312
180.546
225.651
0.00490798
0.00341099
0.00286064
0.00247277
0.00190902
0.0017123
0.00105437
0.0249805
0.613518
1.36559
2.01747
2.61353
3.17116
3.76052
4.27066
4.6959
5.26573
7.32437
15.0217
33.7359
176.764
233.728
0.00522909
0.00373596
0.00315544
0.00274412
0.00215716
0.00195012
0.00115064
0.0235506
0.590459
1.32556
1.97806
2.5759
3.13772
3.72818
4.24444
4.67852
5.27235
7.3211
14.9854
33.9286
172.634
241.632
0.0053387
0.00386995
0.00332765
0.00293781
0.00231764
0.00211172
0.00123704
0.0219385
0.564595
1.27941
1.93094
2.53166
3.10105
3.69672
4.22288
4.66771
5.28523
7.32187
14.9297
34.1065
168.212
249.254
0.00567194
0.00421509
0.00364389
0.0032317
0.00259576
0.00238096
0.00140106
0.0201716
0.536423
1.22808
1.87683
2.48097
3.06076
3.66579
4.20594
4.66412
5.30527
7.32817
14.8557
34.2664
163.557
256.469
0.00575579
0.0043321
0.003809
0.00342541
0.00276244
0.00255152
0.00160882
0.018273
0.506403
1.1725
1.81648
2.424
3.01639
3.63467
4.1932
4.66819
5.33345
7.3418
14.7651
34.404
158.72
263.147
0.00609208
0.00468793
0.00413733
0.00373286
0.0030634
0.0028453
0.00193813
0.0162694
0.474927
1.11358
1.75072
2.36095
2.96733
3.60241
4.18388
4.68005
5.37074
7.36472
14.6603
34.5144
153.755
269.16
0.00615181
0.00478754
0.00429116
0.00392065
0.00323154
0.00301977
0.00231215
0.0141855
0.442304
1.05214
1.68034
2.29211
2.91301
3.56774
4.1767
4.69941
5.41793
7.39904
14.5446
34.5918
148.706
274.392
0.00648687
0.00514903
0.00462687
0.00423655
0.00355143
0.00333393
0.0027778
0.0120597
0.408744
0.988904
1.60616
2.21782
2.85281
3.52929
4.16999
4.72542
5.47553
7.44689
14.4216
34.6301
143.615
278.742
0.00651811
0.00522657
0.00476376
0.00441227
0.00371649
0.00350778
0.00313628
0.00993452
0.374357
0.924464
1.52893
2.13854
2.78633
3.48552
4.16167
4.75662
5.54355
7.51021
14.2959
34.6227
138.518
282.129
0.00683924
0.00557984
0.00509455
0.00472512
0.0040444
0.00383147
0.00352408
0.0079049
0.339158
0.859233
1.44936
2.05479
2.71319
3.43499
4.14933
4.79085
5.62136
7.59061
14.1723
34.5636
133.446
284.489
0.00685335
0.00564339
0.00521627
0.0048874
0.00420462
0.0040022
0.00376769
0.00609058
0.303091
0.793441
1.36804
1.96719
2.63335
3.37628
4.13033
4.8252
5.7074
7.6891
14.0559
34.4468
128.421
285.776
0.00716044
0.0059865
0.00554036
0.00519494
0.00453796
0.00433238
0.00409179
0.00471356
0.266083
0.727121
1.2854
1.87637
2.54688
3.30831
4.10202
4.85611
5.79911
7.80575
13.9516
34.268
123.464
285.956
0.00715658
0.00603471
0.00564526
0.00534147
0.00469107
0.00449752
0.00428961
0.00397328
0.228124
0.660128
1.20171
1.78298
2.4542
3.23024
4.06183
4.87944
5.8927
7.93939
13.8643
34.0237
118.59
285.001
0.007447
0.00636359
0.00595719
0.0056383
0.00502353
0.00482766
0.00459967
0.00391267
0.189398
0.592175
1.117
1.68758
2.35582
3.14171
4.00758
4.89075
5.9832
8.0872
13.7976
33.7129
113.81
282.891
0.00743058
0.00640028
0.00604776
0.00576985
0.00516944
0.00498657
0.00478656
0.00420981
0.150488
0.52293
1.03102
1.59058
2.25254
3.04276
3.93759
4.88558
6.06446
8.24438
13.7543
33.336
109.131
279.61
0.00770468
0.00671416
0.00634687
0.00605506
0.00549919
0.00531448
0.00509636
0.00467985
0.112622
0.452164
0.943299
1.49217
2.14512
2.93392
3.85088
4.85983
6.12951
8.40385
13.7351
32.8957
104.562
275.145
0.00767682
0.00673948
0.00642307
0.00617118
0.00563694
0.00546597
0.00527714
0.00502284
0.0778165
0.379999
0.853125
1.39217
2.03435
2.81608
3.74725
4.81014
6.17098
8.55618
13.7384
32.3962
100.105
269.49
0.00793387
0.00703661
0.00670737
0.00644261
0.00596032
0.00578742
0.00558318
0.00536827
0.0486193
0.307249
0.759694
1.29
1.92077
2.69046
3.6273
4.73427
6.18174
8.68977
13.7595
31.8425
95.7654
262.65
0.00789967
0.00705449
0.00677188
0.00654509
0.00609065
0.00593219
0.005757
0.00558748
0.0272025
0.235802
0.662326
1.18466
1.80462
2.55837
3.49234
4.63132
6.15563
8.79141
13.7901
31.2395
91.5429
254.642
0.0081418
0.00733622
0.00704248
0.00680361
0.0064073
0.00624657
0.00605736
0.00587694
0.0142552
0.168824
0.56085
1.07472
1.68552
2.42108
3.34429
4.50182
6.08822
8.8473
13.8183
30.5908
87.4379
245.506
0.00810355
0.00734846
0.00709717
0.00689411
0.00653104
0.00638521
0.00622416
0.00607181
0.00831391
0.11052
0.456186
0.958557
1.56246
2.27945
3.18535
4.34765
5.97739
8.84442
13.8285
29.8973
83.4456
235.302
0.00833089
0.00761434
0.00735363
0.00713928
0.00683901
0.00669048
0.0065166
0.0063507
0.00658429
0.0649594
0.351075
0.834707
1.43368
2.13372
3.01773
4.17183
5.82367
8.77219
13.8017
29.1562
79.5582
224.122
0.00829289
0.00762468
0.00740173
0.00722058
0.00695792
0.00682448
0.00667723
0.00653754
0.00639432
0.0341768
0.250652
0.702605
1.29682
1.9832
2.84325
3.97799
5.63015
8.62404
13.7176
28.3606
75.7604
212.086
0.00850669
0.00787558
0.00764496
0.00745333
0.00725664
0.00712007
0.00696111
0.00680852
0.0066311
0.0171221
0.162171
0.563747
1.14923
1.82616
2.66288
3.76996
5.40216
8.39868
13.5557
27.4992
72.0309
199.339
0.00847129
0.00788618
0.00768878
0.00752765
0.00737323
0.007252
0.00711794
0.00698999
0.00685027
0.00976759
0.0930163
0.423149
0.988701
1.65981
2.47639
3.55104
5.14636
8.10055
13.299
26.5577
68.3399
186.057
0.00867235
0.00812263
0.00791925
0.00774848
0.00762156
0.00749913
0.00736071
0.00722678
0.00709277
0.00746942
0.0471621
0.290249
0.814959
1.48071
2.28219
3.32348
4.86984
7.73941
12.936
25.5209
64.6521
172.429
0.00864189
0.00813227
0.00795824
0.00781553
0.007698
0.00759088
0.00747641
0.00736749
0.00725819
0.00705361
0.0224819
0.177473
0.631968
1.28543
2.0772
3.08801
4.57893
7.32892
12.4637
24.3762
60.9278
158.656
0.00883231
0.00834508
0.00816779
0.00801707
0.00790322
0.00779462
0.00767606
0.00756173
0.00745102
0.00720526
0.0120648
0.0952914
0.450382
1.07237
1.85732
2.84357
4.2783
6.88449
11.8889
23.1175
57.1302
144.933
0.00880948
0.0083523
0.00819992
0.00807443
0.0079702
0.00787522
0.00777514
0.00768048
0.00758729
0.00741909
0.00861857
0.0459091
0.287537
0.844626
1.6182
2.58736
3.97026
6.42084
11.2275
21.7485
53.2305
131.446
0.00899033
0.00854808
0.00839347
0.00826064
0.00815862
0.00806172
0.00795731
0.00785649
0.0077594
0.00763229