/*--------------------------------*- C++ -*----------------------------------*\
| =========                 |                                                 |
| \\      /  F ield         | OpenFOAM: The Open Source CFD Toolbox           |
|  \\    /   O peration     | Version:  v1912                                 |
|   \\  /    A nd           | Website:  www.openfoam.com                      |
|    \\/     M anipulation  |                                                 |
\*---------------------------------------------------------------------------*/
FoamFile
{
    version     2.0;
    format      ascii;
    class       volScalarField;
    location    "70";
    object      nut;
}
// * * * * * * * * * * * * * * * * * * * * * * * * * * * * * * * * * * * * * //

dimensions      [0 2 -1 0 0 0 0];


internalField   nonuniform List<scalar> 
12441
(
5.82359e-24
1.79656e-20
8.19851e-20
3.36587e-19
1.08093e-18
3.93296e-18
1.02578e-17
2.53941e-17
6.23156e-17
1.29443e-16
3.10198e-16
7.82856e-16
2.21434e-15
7.51856e-15
1.05263e-13
1.92291e-11
0.000221202
0.00131831
0.0041442
0.00303226
0.00363409
0.00775321
6.34473e-24
3.06391e-20
1.14081e-19
4.33167e-19
1.32978e-18
4.90952e-18
1.25117e-17
3.07936e-17
7.54852e-17
1.58331e-16
3.89201e-16
1.05432e-15
2.89797e-15
9.60875e-15
1.15858e-13
3.99214e-11
6.38113e-05
0.00160129
0.00471132
0.00329464
0.00399383
0.00781733
6.36747e-24
3.64933e-20
1.24029e-19
4.60531e-19
1.41617e-18
5.04966e-18
1.33587e-17
3.31167e-17
8.31637e-17
1.77353e-16
4.31282e-16
1.15278e-15
2.87394e-15
7.91191e-15
5.52306e-14
6.77511e-12
1.18706e-05
0.00115672
0.00183884
0.00309984
0.00414505
0.0078909
6.32191e-24
3.85616e-20
1.22573e-19
4.44223e-19
1.37405e-18
4.89951e-18
1.3062e-17
3.27088e-17
8.18999e-17
1.81123e-16
4.41687e-16
1.20207e-15
2.71906e-15
8.82805e-15
4.00937e-14
1.60449e-12
1.71189e-06
0.000789644
0.00135076
0.00300121
0.00430703
0.0079647
6.28774e-24
4.51613e-20
1.34843e-19
4.76476e-19
1.46258e-18
5.00085e-18
1.37505e-17
3.44539e-17
8.85037e-17
1.96794e-16
4.76356e-16
1.3466e-15
3.16551e-15
4.27049e-14
2.59182e-13
2.40561e-12
1.4673e-07
0.000543039
0.0012942
0.00297185
0.00444857
0.00803394
6.23758e-24
4.27347e-20
1.26092e-19
4.4918e-19
1.41211e-18
4.88375e-18
1.35286e-17
3.43738e-17
8.78954e-17
2.04196e-16
5.05067e-16
1.52943e-15
4.79418e-15
1.40571e-12
1.25776e-11
5.38664e-11
4.84995e-07
0.000473216
0.00130883
0.00301631
0.00457962
0.00809948
6.20252e-24
5.22988e-20
1.44718e-19
4.99916e-19
1.54342e-18
5.09233e-18
1.44989e-17
3.67532e-17
9.66917e-17
2.24962e-16
5.54638e-16
2.12823e-15
2.66317e-14
4.41246e-11
7.00013e-10
9.95874e-09
1.95294e-05
0.000444034
0.00143147
0.00320041
0.00473655
0.00816218
6.15279e-24
4.54465e-20
1.30195e-19
4.65442e-19
1.50117e-18
5.06608e-18
1.45547e-17
3.75328e-17
9.82825e-17
2.40761e-16
6.15234e-16
5.83532e-15
6.54181e-13
2.41635e-09
9.01357e-08
5.20467e-06
0.000190496
0.000458896
0.00183245
0.00359877
0.00495084
0.00822577
6.11983e-24
5.85358e-20
1.54961e-19
5.30105e-19
1.66408e-18
5.34397e-18
1.58067e-17
4.06455e-17
1.10356e-16
2.71182e-16
6.96924e-16
6.6196e-14
2.79562e-11
8.00325e-08
1.08917e-05
0.000148791
0.000729269
0.000755494
0.00269367
0.00429377
0.00526121
0.00829204
6.07303e-24
4.68245e-20
1.33836e-19
4.87372e-19
1.62784e-18
5.38792e-18
1.61063e-17
4.22889e-17
1.14429e-16
2.99962e-16
8.15412e-16
1.82975e-12
1.17753e-09
4.76485e-06
0.000183932
0.000550667
0.00139421
0.00130278
0.00419325
0.00535984
0.00568594
0.00836448
6.04368e-24
6.38881e-20
1.6412e-19
5.62775e-19
1.81304e-18
5.68363e-18
1.75608e-17
4.60648e-17
1.3065e-16
3.47425e-16
9.75882e-16
5.7166e-11
6.01771e-08
8.21742e-05
0.000642433
0.00135482
0.00264189
0.00231407
0.00656545
0.00688123
0.0062398
0.00844366
5.99834e-24
4.75183e-20
1.37429e-19
5.13281e-19
1.78537e-18
5.81678e-18
1.81393e-17
4.87228e-17
1.38639e-16
4.02502e-16
1.27758e-15
1.60376e-09
3.5366e-06
0.000321037
0.00125791
0.00260526
0.00474663
0.00412292
0.0100254
0.00887572
0.00690875
0.00853143
5.97252e-24
6.85551e-20
1.72938e-19
5.97168e-19
1.98955e-18
6.12114e-18
1.98525e-17
5.34594e-17
1.62543e-16
4.92539e-16
1.87544e-15
3.8937e-08
7.39606e-05
0.000907892
0.00266542
0.00494512
0.00831401
0.0071577
0.0145799
0.0112975
0.00767799
0.00862633
5.92863e-24
4.75535e-20
1.4054e-19
5.41297e-19
1.97053e-18
6.34062e-18
2.07253e-17
5.74498e-17
1.78556e-16
6.24088e-16
4.01505e-15
8.85214e-07
0.000324423
0.00205599
0.00511489
0.00872161
0.0137663
0.0117278
0.0199509
0.0139966
0.00850741
0.00872852
5.90604e-24
7.26634e-20
1.8084e-19
6.32492e-19
2.19109e-18
6.62922e-18
2.27013e-17
6.36015e-17
2.19484e-16
8.71444e-16
1.84716e-14
1.66002e-05
0.000958616
0.00422907
0.00902033
0.0141951
0.0211944
0.0177739
0.0255961
0.0168047
0.00936999
0.00883515
5.86244e-24
4.74761e-20
1.43985e-19
5.72581e-19
2.1857e-18
6.9594e-18
2.39449e-17
6.96381e-17
2.5737e-16
1.37083e-15
3.40159e-13
0.000139571
0.00211247
0.00772669
0.014605
0.0213465
0.0302291
0.0247249
0.0309206
0.0195246
0.0102218
0.00894576
5.84312e-24
7.6392e-20
1.89369e-19
6.71683e-19
2.42732e-18
7.25099e-18
2.63394e-17
7.84038e-17
3.48176e-16
2.60285e-15
1.42217e-11
0.000489045
0.0042671
0.0127434
0.021682
0.0298614
0.0399854
0.0316299
0.0354476
0.022033
0.0110437
0.00905718
5.79927e-24
4.72603e-20
1.47526e-19
6.0683e-19
2.43457e-18
7.68425e-18
2.80377e-17
8.79282e-17
4.64619e-16
6.18927e-15
6.21909e-10
0.00113723
0.00768079
0.019267
0.0299861
0.0390705
0.0492114
0.0374952
0.0389899
0.0242289
0.0118042
0.00916919
5.78267e-24
7.97709e-20
1.97768e-19
7.12426e-19
2.69352e-18
7.95565e-18
3.09468e-17
1.01427e-16
7.53251e-16
1.92592e-14
5.00278e-08
0.0024759
0.0125726
0.0268614
0.0388151
0.0480813
0.0566294
0.0417046
0.0415989
0.0261033
0.0125022
0.00927899
5.73825e-24
4.70105e-20
1.50849e-19
6.4196e-19
2.71196e-18
8.50182e-18
3.32706e-17
1.17314e-16
1.23767e-15
8.61593e-14
9.46846e-06
0.00473112
0.0187922
0.0351015
0.0475356
0.0559069
0.0613254
0.0442025
0.0435189
0.027648
0.0131225
0.00938714
5.72494e-24
8.28379e-20
2.05781e-19
7.53001e-19
2.9883e-18
8.76045e-18
3.70043e-17
1.40075e-16
2.51306e-15
8.93616e-13
0.000168501
0.00826099
0.025936
0.0433155
0.055267
0.0617702
0.0630559
0.045435
0.0450183
0.0289167
0.0136803
0.00949146
5.67971e-24
4.65369e-20
1.53332e-19
6.7605e-19
3.01606e-18
9.41979e-18
4.0303e-17
1.68886e-16
5.00024e-15
1.54325e-11
0.000602382
0.013133
0.0334642
0.0510509
0.0614691
0.0652495
0.062287
0.0460406
0.0463466
0.0299355
0.0141736
0.00959327
5.66907e-24
8.56774e-20
2.12776e-19
7.91436e-19
3.30671e-18
9.65901e-18
4.53913e-17
2.11405e-16
1.18312e-14
1.91201e-10
0.0014424
0.019117
0.0408505
0.0577455
0.0656549
0.0664254
0.0599727
0.0465754
0.0476566
0.0307739
0.014631
0.00969106
5.62331e-24
4.61878e-20
1.55186e-19
7.08292e-19
3.3437e-18
1.04378e-17
5.03986e-17
2.68106e-16
2.5945e-14
1.80041e-09
0.00300717
0.0258176
0.0476699
0.0631396
0.0678636
0.065763
0.0571596
0.0473505
0.0490457
0.0314677
0.0150612
0.00978684
5.6162e-24
8.84292e-20
2.19035e-19
8.27351e-19
3.64948e-18
1.06723e-17
5.80671e-17
3.54177e-16
6.52323e-14
1.58877e-08
0.00552714
0.03269
0.0536329
0.0669953
0.0682915
0.0639723
0.0546542
0.0484642
0.0505415
0.0320938
0.0155019
0.00987966
5.56866e-24
4.61339e-20
1.5666e-19
7.38841e-19
3.69714e-18
1.15827e-17
6.644e-17
4.74657e-16
1.51505e-13
3.6688e-07
0.00912314
0.0393165
0.0585686
0.0694056
0.0674781
0.0617459
0.0528775
0.0498814
0.0521536
0.0326969
0.0159687
0.00997203
5.56405e-24
9.10872e-20
2.24532e-19
8.60545e-19
4.01621e-18
1.18397e-17
7.94367e-17
6.65535e-16
4.55578e-13
2.08839e-05
0.0136087
0.0453294
0.0624144
0.0705
0.0658933
0.0596271
0.0519242
0.051528
0.0538593
0.033356
0.0165026
0.0100634
5.51537e-24
4.63131e-20
1.57468e-19
7.66595e-19
4.0743e-18
1.28901e-17
9.4961e-17
9.45783e-16
2.13379e-12
0.000219037
0.0186935
0.050553
0.0651926
0.0706177
0.0640478
0.0579241
0.0517024
0.0533273
0.0556368
0.0341108
0.0171172
0.0101564
5.51413e-24
9.36777e-20
2.28992e-19
8.89979e-19
4.40754e-18
1.31782e-17
1.19406e-16
1.40348e-15
1.49155e-11
0.000679691
0.0239516
0.0548729
0.0670003
0.0700292
0.0622338
0.0567586
0.0520576
0.0552227
0.0574469
0.0350212
0.0178454
0.0102507
5.46321e-24
4.65835e-20
1.5738e-19
7.90849e-19
4.47707e-18
1.43824e-17
1.50949e-16
2.10307e-15
8.66882e-11
0.00128006
0.0290769
0.0582874
0.0679797
0.0690616
0.0606809
0.0561186
0.0528404
0.0571712
0.0592559
0.0360981
0.0186862
0.0103488
5.464e-24
9.61507e-20
2.32754e-19
9.16054e-19
4.82562e-18
1.47456e-17
2.01517e-16
3.28431e-15
4.16496e-10
0.00206888
0.03378
0.0608159
0.0683005
0.06791
0.0594455
0.0559358
0.0539312
0.0591437
0.0610171
0.0373627
0.0196533
0.01045
5.41203e-24
4.68667e-20
1.56299e-19
8.11709e-19
4.9086e-18
1.61097e-17
2.70407e-16
5.15523e-15
1.62642e-09
0.00306561
0.0379101
0.0625417
0.0681303
0.0667661
0.0585643
0.0561195
0.0552413
0.0611139
0.0626911
0.0387865
0.0207225
0.0105565
5.41591e-24
9.85478e-20
2.35556e-19
9.3942e-19
5.27976e-18
1.65783e-17
3.82207e-16
8.29988e-15
5.55461e-09
0.00429508
0.04134
0.0635495
0.067625
0.0657055
0.0579899
0.0565877
0.0567077
0.0630609
0.064228
0.0403549
0.0218843
0.010667
5.36048e-24
4.69254e-20
1.5398e-19
8.29941e-19
5.38139e-18
1.81559e-17
5.3952e-16
1.3292e-14
1.69474e-08
0.00574281
0.0440541
0.0639572
0.0669127
0.0648075
0.0576986
0.0572693
0.058286
0.0649619
0.0655866
0.0420146
0.0230936
0.0107831
5.36631e-24
9.80461e-20
2.3433e-19
9.55927e-19
5.77231e-18
1.8775e-17
7.95127e-16
2.17196e-14
4.99864e-08
0.00737585
0.0460605
0.0638689
0.0660967
0.0640753
0.0576302
0.0581116
0.0599455
0.0667977
0.066718
0.0437406
0.0243274
0.0109032
5.30685e-24
4.60434e-20
1.48077e-19
8.39367e-19
5.88901e-18
2.05474e-17
1.15592e-15
3.52529e-14
2.54744e-07
0.00918522
0.0474499
0.0634013
0.0652509
0.0635351
0.0577612
0.0590745
0.0616658
0.0685488
0.0675851
0.0454843
0.0255344
0.0110282
5.31305e-24
9.44627e-20
2.26931e-19
9.60756e-19
6.29877e-18
2.13004e-17
1.73132e-15
6.75071e-14
1.14907e-05
0.0111873
0.0483176
0.0626475
0.0644288
0.0631641
0.0580471
0.0601335
0.0634359
0.0702015
0.0681466
0.0472405
0.0266958
0.0111563
5.24683e-24
4.6157e-20
1.42075e-19
8.45308e-19
6.45027e-18
2.33881e-17
2.52787e-15
5.48392e-13
0.000156052
0.013463
0.0487981
0.0617014
0.0636622
0.0629734
0.0584796
0.0612735
0.0652532
0.0717448
0.068377
0.0489893
0.0277743
0.0112883
5.24993e-24
5.95316e-20
1.72024e-19
8.89798e-19
6.75505e-18
2.41846e-17
3.76025e-15
2.71832e-11
0.000774166
0.0161207
0.0489977
0.060631
0.0629703
0.0629376
0.0590318
0.0624918
0.0671237
0.073176
0.0682514
0.0507554
0.0287784
0.011422
5.17335e-24
4.79447e-20
1.27496e-19
8.06436e-19
6.98816e-18
2.77346e-17
5.50124e-15
1.21681e-09
0.00230701
0.0192208
0.0490181
0.0595018
0.0623567
0.0630694
0.0597106
0.0637924
0.0690613
0.074495
0.0677649
0.0525362
0.0297062
0.0115584
5.16645e-24
2.14364e-21
1.24386e-20
4.45001e-19
6.38173e-18
2.86492e-17
8.46671e-15
2.10378e-07
0.00511792
0.0227083
0.0489068
0.0583555
0.0618169
0.0633469
0.0604999
0.065189
0.0710873
0.0757086
0.066917
0.0543378
0.0306075
0.0116955
5.07848e-24
1.89242e-20
4.97171e-20
4.63258e-19
6.41686e-18
4.2603e-17
2.12151e-14
3.90426e-05
0.00937818
0.0264723
0.0486923
0.0572342
0.0613334
0.06379
0.0614192
0.0666983
0.0732274
0.0768216
0.0657307
0.0560646
0.0315059
0.0118345
5.03942e-24
7.42098e-22
9.37397e-23
2.61003e-19
5.93898e-18
9.72565e-17
4.36238e-13
0.000451906
0.0151297
0.0303742
0.048356
0.0561606
0.0608821
0.0643737
0.0624539
0.0683461
0.0755115
0.0778391
0.0642328
0.0575009
0.0324056
0.011976
4.83911e-24
2.26194e-19
4.95551e-19
1.1185e-18
8.31431e-18
1.05109e-15
8.29122e-12
0.00181666
0.0223102
0.0343697
0.047949
0.055185
0.0604357
0.0651121
0.0636174
0.0701487
0.0779597
0.0787173
0.0624575
0.0581634
0.0329694
0.0121338
0.00987657
0.0151745
0.00993228
0.00523669
0.00399752
0.00326096
0.00319772
0.002677
0.00241375
0.00267055
0.00426654
0.00648071
0.0109876
0.0173679
0.0243833
0.0291698
0.0306853
0.0293405
0.0255461
0.0203421
0.0175738
0.0171766
0.020122
0.0375217
0.0634992
0.0790359
0.0871178
0.0930286
0.0956853
0.0906003
0.0832586
0.0794872
0.0806758
0.0918316
0.109515
0.00986353
0.0153515
0.00959373
0.0049481
0.00364686
0.00302441
0.00308017
0.00261495
0.00238327
0.00262938
0.0039877
0.00599988
0.0104413
0.0167571
0.0238158
0.0288031
0.030756
0.0298818
0.0262393
0.0207438
0.0177144
0.0172721
0.0201984
0.037576
0.0635606
0.0790571
0.0871252
0.093033
0.0957068
0.0905691
0.0832341
0.0794686
0.0806795
0.0918354
0.109527
0.00983842
0.0154672
0.00921145
0.00438254
0.0031561
0.00271978
0.00284843
0.00257708
0.00249735
0.00281929
0.00393919
0.00539612
0.0092897
0.0150842
0.0213743
0.0255441
0.0273217
0.0270967
0.024678
0.0202119
0.0176836
0.0174833
0.0206906
0.0379419
0.0636419
0.0790179
0.0870639
0.0929731
0.0956961
0.0904586
0.0831443
0.079393
0.0806523
0.091806
0.109514
0.00979929
0.0155324
0.00865251
0.00374313
0.00266172
0.00232206
0.0024872
0.00228193
0.00227908
0.00265579
0.00368692
0.00473079
0.00790446
0.0131354
0.0188534
0.0221066
0.0231952
0.0232027
0.0220485
0.019162
0.0175475
0.0177691
0.0214439
0.0385241
0.0637318
0.0789135
0.0869292
0.0928449
0.0956493
0.0902664
0.0829876
0.0792587
0.0805926
0.0917421
0.109476
0.00974597
0.0154926
0.00792105
0.00313025
0.00223791
0.00198943
0.00213531
0.00193614
0.00194959
0.00227377
0.00313703
0.0039935
0.00653614
0.01127
0.0167849
0.0194924
0.0197804
0.019581
0.019268
0.0179358
0.0173627
0.0180992
0.0223459
0.0392483
0.0638294
0.0787532
0.0867304
0.0926574
0.095573
0.0900004
0.0827712
0.0790727
0.0805073
0.0916522
0.10942
0.00967615
0.0153029
0.00707326
0.00260714
0.00193974
0.00179487
0.00191693
0.00171518
0.00171984
0.00193866
0.00247411
0.00318274
0.00522177
0.00938978
0.0148675
0.0175961
0.0173826
0.0168107
0.0168833
0.0167811
0.0171775
0.0184539
0.0233193
0.0400593
0.0639408
0.078556
0.0864863
0.0924278
0.0954809
0.089675
0.082508
0.0788478
0.0804081
0.0915498
0.109363
0.00959042
0.0149392
0.00618748
0.00220191
0.00176423
0.00171695
0.00183309
0.00163065
0.00162735
0.00176086
0.00195611
0.00241554
0.00398872
0.00741222
0.0126482
0.0158464
0.0156988
0.0149062
0.0150972
0.015837
0.0170252
0.0188206
0.0243135
0.0409193
0.0640776
0.0783465
0.086221
0.0921786
0.0953907
0.089309
0.0822142
0.0786003
0.0803101
0.0914525
0.109321
0.00948687
0.0143872
0.00533761
0.00190725
0.00167067
0.00170165
0.00182642
0.00162449
0.0016195
0.00170736
0.00167561
0.00186271
0.00295095
0.00549688
0.0100362
0.0137318
0.0142199
0.0135777
0.0138571
0.0151364
0.0169175
0.0191894
0.0252975
0.0418052
0.0642544
0.0781517
0.0859614
0.0919345
0.0953222
0.0889237
0.0819083
0.0783489
0.0802306
0.0913803
0.109318
0.00936733
0.0136545
0.00457531
0.0017014
0.00162179
0.00171002
0.00184862
0.00164765
0.00164141
0.00170785
0.00156951
0.00157544
0.00222807
0.00391561
0.00737157
0.0111257
0.012517
0.0124445
0.0129655
0.014629
0.0168435
0.0195496
0.0262538
0.0427049
0.0644866
0.0779982
0.0857342
0.0917205
0.0952957
0.088541
0.08161
0.0781135
0.0801883
0.0913549
0.109374
0.0092307
0.0127544
0.00392804
0.00156479
0.00160262
0.00172739
0.00187874
0.00167788
0.0016672
0.00171833
0.00154285
0.00147727
0.00183315
0.00283299
0.00512257
0.00832151
0.0104084
0.0111708
0.0121699
0.0142079
0.0167705
0.0198858
0.0271724
0.0436137
0.0647887
0.0779094
0.0855638
0.0915599
0.0953302
0.088183
0.0813388
0.0779145
0.0802024
0.0913989
0.109515
0.00908003
0.0117176
0.00340458
0.0014854
0.00161703
0.00175373
0.00191377
0.00170856
0.00169175
0.001726
0.00153946
0.00146737
0.00167532
0.0022321
0.00356689
0.00582453
0.00803851
0.00957096
0.0112326
0.0137383
0.016647
0.0201764
0.0280462
0.0445307
0.0651719
0.0779047
0.0854705
0.0914731
0.0954427
0.0878702
0.0811139
0.0777725
0.0802922
0.0915353
0.109763
0.00891508
0.0105769
0.00300288
0.00145672
0.00167589
0.00179501
0.00195868
0.0017421
0.00171837
0.00173359
0.00154331
0.00148407
0.00164087
0.00197736
0.00269626
0.00401445
0.00579677
0.0076864
0.00999237
0.0130802
0.0164072
0.0203903
0.0288661
0.0454557
0.0656436
0.0779976
0.0854699
0.0914765
0.0956468
0.087621
0.0809534
0.0777069
0.0804766
0.0917867
0.110143
0.00874002
0.0093782
0.0027159
0.00147486
0.00178956
0.00185888
0.00202023
0.00178321
0.00175168
0.00174686
0.00155611
0.00150747
0.00165131
0.00191429
0.00233103
0.00296557
0.00407325
0.00578812
0.0084354
0.0121215
0.0159764
0.0204868
0.0296181
0.0463868
0.0662057
0.0781953
0.0855721
0.0915821
0.0959531
0.0874516
0.0808733
0.0777365
0.0807737
0.0921754
0.110677
0.00855535
0.0081667
0.00253584
0.00153501
0.0019651
0.00195396
0.00210617
0.00183759
0.00179792
0.00177235
0.00158284
0.00153771
0.00167312
0.0019297
0.00226128
0.00252067
0.00302463
0.00422389
0.00673373
0.0108213
0.0152833
0.0204152
0.0302799
0.0473179
0.066855
0.0784996
0.0857819
0.0917979
0.0963685
0.0873755
0.0808886
0.0778786
0.0812007
0.092723
0.111388
0.00836592
0.00699452
0.00245618
0.00162922
0.00220697
0.00209036
0.00222196
0.00191348
0.00186317
0.0018163
0.00162846
0.0015796
0.00170009
0.00196621
0.00232378
0.00245674
0.00256606
0.00320199
0.00518231
0.00925752
0.0142795
0.0201183
0.0308192
0.0482381
0.0675836
0.0789068
0.0861
0.092128
0.096897
0.0874034
0.0810117
0.0781494
0.0817736
0.0934502
0.112296
0.00817267
0.0059085
0.00247295
0.00174688
0.00251794
0.00228112
0.00237592
0.00201952
0.00195511
0.00188588
0.00169848
0.00163833
0.00173521
0.00200535
0.00242279
0.00258205
0.00251056
0.002714
0.00403023
0.00763148
0.0129687
0.0195397
0.0311927
0.0491307
0.0683792
0.0794092
0.0865233
0.0925735
0.0975398
0.087544
0.081254
0.0785639
0.0825078
0.0943772
0.113422
0.00798033
0.00495347
0.00258661
0.00188458
0.00289841
0.00254429
0.0025796
0.00216545
0.00208197
0.00198882
0.00179991
0.00172032
0.00178369
0.00204603
0.00251861
0.002769
0.00267608
0.00262673
0.00335851
0.00619106
0.0114317
0.0186378
0.0313471
0.0499734
0.0692261
0.0799961
0.0870463
0.0931334
0.0982964
0.0878038
0.0816252
0.0791362
0.0834176
0.0955237
0.114783
0.00778933
0.00416558
0.00280221
0.00206686
0.00335452
0.00290471
0.00285143
0.00236497
0.00225539
0.00213547
0.00194261
0.00183404
0.00185198
0.00209153
0.00260184
0.00295254
0.00292603
0.0027827
0.0031039
0.0051109
0.00982356
0.017404
0.0312225
0.0507382
0.0701068
0.0806554
0.0876622
0.0938056
0.0991649
0.0881883
0.082134
0.0798799
0.0845171
0.0969089
0.116399
0.00760307
0.00356658
0.00311926
0.00235823
0.00391999
0.00338678
0.00321404
0.00263648
0.00249018
0.00233943
0.00214106
0.00199196
0.00194958
0.0021469
0.00267492
0.0031102
0.00318052
0.00304867
0.00314377
0.00443854
0.00832661
0.0158806
0.0307595
0.0513923
0.0710028
0.0813743
0.0883643
0.0945877
0.100143
0.0887017
0.0827883
0.0808082
0.0858197
0.0985526
0.118287
0.00742066
0.00315891
0.00351301
0.00282637
0.00464815
0.00401848
0.00369524
0.0030053
0.00280742
0.0026204
0.00241701
0.00221217
0.00209047
0.00221949
0.00274313
0.00324049
0.0034046
0.00333509
0.00335168
0.00412549
0.00708533
0.0141661
0.0299102
0.0519
0.071896
0.0821413
0.0891466
0.0954782
0.101228
0.0893482
0.0835959
0.0819347
0.0873393
0.100475
0.120465
0.00724378
0.00293137
0.00394729
0.00349928
0.00558852
0.00483875
0.00432815
0.00350275
0.0032333
0.00300426
0.0028014
0.00252206
0.00229649
0.00232217
0.00281406
0.00335141
0.00359158
0.00359645
0.0036259
0.00408077
0.00616845
0.0123992
0.0286528
0.0522237
0.0727702
0.0829467
0.0900053
0.0964768
0.102419
0.0901317
0.0845644
0.0832734
0.08909
0.102696
0.12295
0.00707145
0.00287023
0.00442633
0.00436758
0.00678278
0.00589536
0.00515161
0.00416611
0.00380072
0.00352426
0.00333531
0.00296063
0.00260067
0.00247594
0.00289911
0.00345491
0.00374971
0.00381874
0.00390046
0.00420575
0.00557463
0.0107233
0.0270056
0.0523281
0.0736117
0.0837839
0.0909392
0.0975857
0.103715
0.0910571
0.0857021
0.0848394
0.0910863
0.105238
0.125761
0.00690537
0.00295311
0.0049868
0.00545321
0.00827447
0.0072427
0.00620794
0.00503505
0.00454541
0.00421742
0.00406642
0.00357982
0.00305191
0.00271554
0.00301765
0.00356729
0.00389611
0.00400869
0.00414365
0.00441528
0.00525842
0.0092522
0.0250359
0.0521833
0.0744112
0.0846501
0.0919505
0.0988096
0.105118
0.0921296
0.0870174
0.0866489
0.0933438
0.108125
0.128916
0.00674534
0.00316042
0.00570904
0.00682163
0.0101178
0.00894302
0.00754334
0.00615019
0.00550505
0.00512135
0.00504082
0.00443774
0.00371351
0.00309489
0.00320053
0.00370994
0.00405246
0.00418463
0.00434951
0.00464708
0.00515428
0.00805198
0.0228564
0.0517702
0.0751642
0.0855466
0.0930453
0.100157
0.106631
0.0933559
0.08852
0.0887198
0.095879
0.111381
0.132434
0.00659312
0.00348836
0.00671215
0.00857332
0.0123824
0.0110642
0.00920308
0.00754661
0.00671128
0.00626512
0.00628933
0.0055851
0.00465213
0.00369089
0.00349646
0.00391256
0.00424448
0.00437165
0.00453032
0.00486436
0.00519379
0.00714304
0.0206079
0.0510866
0.0758722
0.0864799
0.0942336
0.101637
0.108259
0.0947434
0.0902205
0.0910717
0.0987097
0.115033
0.136334
0.00644962
0.00393556
0.00814225
0.0108274
0.0151467
0.0136676
0.0112221
0.00924608
0.00818356
0.00766117
0.0078135
0.0070428
0.00591088
0.00458878
0.00397508
0.00421495
0.00450031
0.00459638
0.00470888
0.00505198
0.00531689
0.00651143
0.0184317
0.050152
0.0765438
0.0874613
0.0955299
0.103267
0.11001
0.0963012
0.0921304
0.093726
0.101855
0.119111
0.140637
0.00631698
0.00449865
0.010129
0.0137033
0.0184804
0.0167805
0.0136023
0.0112391
0.00991312
0.00929232
0.00957415
0.00878465
0.00748195
0.00584445
0.00472074
0.0046689
0.00485155
0.00488519
0.00491304
0.0052128
0.00547812
0.00612174
0.0164436
0.0490115
0.0771946
0.088507
0.0969526
0.105063
0.111892
0.0980392
0.0942625
0.0967064
0.105335
0.123646
0.145363
0.00619775
0.00517386
0.0127444
0.0172988
0.0224149
0.0203597
0.0162877
0.0134695
0.0118533
0.0111051
0.0114885
0.0107281
0.00929089
0.0074364
0.00579738
0.00533009
0.00533018
0.00526084
0.0051697
0.00536191
0.00564843
0.00592822
0.0147208
0.0477361
0.0778483
0.0896381
0.0985242
0.107047
0.113916
0.0999688
0.0966308
0.100039
0.109172
0.128672
0.150534
0.00609509
0.00595743
0.0159935
0.0216738
0.0269164
0.024264
0.0191448
0.0158225
0.0139095
0.0130062
0.0134364
0.0127428
0.0112055
0.00925267
0.00719681
0.00623687
0.00596283
0.00574072
0.00550136
0.00552292
0.00581422
0.00588466
0.0133039
0.0464196
0.0785361
0.0908798
0.10027
0.109242
0.116096
0.102102
0.0992501
0.10375
0.11339
0.134225
0.156172
0.00601408
0.00685305
0.0198444
0.0268364
0.0318603
0.0282469
0.0219663
0.0181334
0.0159497
0.0148735
0.0152764
0.0146682
0.0130573
0.0111135
0.00880689
0.0073735
0.0067544
0.00632969
0.00592106
0.00572196
0.0059749
0.00595151
0.0122071
0.0451722
0.0792964
0.0922605
0.10222
0.111675
0.118445
0.104452
0.102137
0.107873
0.118014
0.140344
0.1623
0.00596079
0.00787184
0.0242596
0.032707
0.0370061
0.031973
0.0244938
0.0202075
0.0178185
0.0165709
0.016866
0.0163411
0.0146735
0.0128174
0.0104387
0.00864873
0.00767176
0.00701286
0.00642848
0.00598404
0.00614011
0.00610041
0.0114302
0.044111
0.0801733
0.093811
0.104402
0.114373
0.120977
0.107032
0.105309
0.112438
0.123071
0.147074
0.168941
0.00594609
0.00903664
0.0291995
0.0390495
0.0419793
0.0350559
0.0264606
0.0218541
0.0193669
0.0179724
0.0180848
0.0176206
0.015905
0.0141791
0.0118804
0.00990686
0.00863353
0.00774648
0.00700335
0.00632598
0.00632653
0.00631525
0.0109658
0.04335
0.0812144
0.0955625
0.106849
0.117366
0.123709
0.109856
0.108785
0.117484
0.128591
0.15446
0.176122
0.00598322
0.0103734
0.0345727
0.0454073
0.0462853
0.0371188
0.027638
0.0229178
0.0204726
0.0189804
0.018853
0.0184133
0.0166533
0.0150676
0.0129565
0.0109769
0.00952605
0.00846134
0.00760413
0.00675192
0.00655477
0.00659172
0.0108056
0.0429909
0.0824682
0.0975456
0.109591
0.120683
0.126656
0.112939
0.112587
0.123049
0.134608
0.162556
0.183869
0.00609167
0.0119141
0.0401703
0.0511188
0.0493875
0.0378756
0.0278841
0.0233083
0.0210644
0.019543
0.0191445
0.0186855
0.016884
0.015423
0.0135589
0.0117198
0.0102319
0.0090741
0.00817076
0.00724579
0.00684523
0.00693493
0.0109433
0.0431164
0.0839808
0.0997883
0.112657
0.124354
0.129836
0.116297
0.116738
0.129179
0.141159
0.171421
0.192216
0.00628805
0.0136851
0.0456252
0.0554585
0.0508406
0.0372041
0.0271724
0.0230126
0.0211267
0.0196588
0.0189892
0.0184692
0.0166316
0.0152673
0.0136671
0.0120651
0.0106666
0.00951194
0.0086396
0.00777213
0.0072135
0.007357
0.0113774
0.0437882
0.0857921
0.102314
0.116075
0.12841
0.133264
0.119948
0.121267
0.135925
0.148289
0.181123
0.201197
0.00658505
0.0157165
0.0504747
0.0578597
0.0504252
0.0351837
0.0255992
0.0220977
0.0207019
0.0193732
0.0184631
0.01785
0.0159865
0.0146877
0.0133348
0.0120135
0.0107942
0.00972859
0.00895813
0.00827952
0.0076647
0.00787342
0.0121129
0.0450466
0.0879331
0.105142
0.11987
0.13288
0.136959
0.12391
0.126204
0.143349
0.156046
0.191742
0.210856
0.00697682
0.0180124
0.0542713
0.0580831
0.0482079
0.0320697
0.023357
0.0206889
0.0198711
0.0187617
0.0176686
0.0169468
0.0150738
0.0138163
0.0126724
0.0116288
0.0106334
0.00971713
0.009101
0.00871675
0.00818938
0.00849983
0.0131611
0.046914
0.0904242
0.108285
0.124066
0.137798
0.140943
0.128208
0.131588
0.151519
0.164489
0.203371
0.221242
0.00744499
0.0205358
0.0566843
0.0562365
0.0444981
0.0282213
0.0206916
0.0189443
0.018737
0.0179106
0.0167099
0.0158834
0.0140243
0.0127932
0.0118096
0.0110073
0.0102397
0.00950343
0.00907166
0.0090442
0.00876247
0.00924765
0.0145395
0.0493983
0.0932751
0.111751
0.128687
0.143198
0.145237
0.132871
0.137466
0.160519
0.173689
0.216116
0.232417
0.00795396
0.0231039
0.0574946
0.0526535
0.0397292
0.024013
0.0178534
0.0170208
0.0173972
0.016895
0.0156726
0.0147665
0.0129512
0.0117437
0.0108721
0.0102571
0.00969172
0.00913969
0.00890145
0.00924772
0.00934901
0.0101219
0.0162705
0.0524981
0.0964865
0.115547
0.133758
0.149121
0.149869
0.137933
0.14389
0.170448
0.183726
0.230107
0.244452
0.00846726
0.0253623
0.0565619
0.0477405
0.0343336
0.0197703
0.0150613
0.015053
0.0159317
0.0157666
0.01461
0.0136684
0.0119324
0.0107548
0.0099554
0.00947152
0.00906781
0.00868643
0.00863657
0.00933571
0.0099133
0.0111197
0.018381
0.0562102
0.100055
0.11968
0.139311
0.155615
0.154872
0.143441
0.150926
0.181421
0.194694
0.245488
0.25743
0.00894498
0.02675
0.053786
0.0418695
0.0286602
0.0157403
0.0124754
0.0131342
0.0143892
0.0145443
0.013539
0.0126236
0.011007
0.00987448
0.0091222
0.00872235
0.00843731
0.00820436
0.00833066
0.00933883
0.0104304
0.0122349
0.0209039
0.0605387
0.103977
0.124164
0.145389
0.162737
0.160287
0.149447
0.158649
0.193571
0.2067
0.262425
0.271446
0.0093615
0.0266835
0.0491276
0.0353588
0.0229595
0.0120978
0.0101853
0.0113092
0.012787
0.0132171
0.0124434
0.0116309
0.0101768
0.00911043
0.00839776
0.00805044
0.00784786
0.00774153
0.0080322
0.00929683
0.0108929
0.0134636
0.0238828
0.0655083
0.108259
0.129022
0.152044
0.170556
0.166161
0.156018
0.167144
0.207048
0.219864
0.281102
0.286607
0.0096768
0.0246117
0.0426156
0.0285045
0.0174337
0.00896824
0.00820977
0.00957588
0.0111132
0.0117546
0.0112876
0.0106669
0.00941877
0.00844706
0.00778421
0.00747306
0.00732772
0.00733297
0.00778251
0.00925536
0.0113153
0.0148152
0.0273801
0.0711775
0.112921
0.134292
0.159345
0.179152
0.172548
0.163226
0.176504
0.222014
0.234314
0.301717
0.303024
0.00988074
0.020397
0.0344541
0.0215974
0.0122853
0.00638836
0.00646504
0.0078591
0.0093032
0.0100922
0.0100005
0.0096679
0.00867232
0.00783725
0.00725417
0.00697547
0.00687568
0.00698955
0.00760716
0.00925492
0.0117309
0.0163192
0.0314852
0.0776545
0.118
0.140026
0.167368
0.18861
0.17951
0.171155
0.186828
0.238643
0.250184
0.324476
0.320813
4.88386e-24
3.76781e-19
1.10822e-18
4.10147e-18
2.90388e-17
4.00517e-14
1.0654e-10
0.00577852
0.0287465
0.0373397
0.0475662
0.054547
0.0601302
0.0658216
0.0646222
0.0716696
0.0799579
0.0791725
0.0609357
0.0578197
0.0325792
0.0122316
4.99782e-24
8.71019e-20
8.70853e-20
6.12121e-18
7.24372e-17
3.09456e-13
1.09622e-09
0.0103007
0.0330338
0.0391038
0.047242
0.0541941
0.0600182
0.0664374
0.0654327
0.0727719
0.0813591
0.0794451
0.0601216
0.0572121
0.0321287
0.0123441
5.10356e-24
3.19871e-19
9.8675e-19
9.60331e-18
1.48732e-16
1.16531e-12
1.11577e-08
0.015571
0.0368681
0.0405578
0.0469317
0.0539327
0.0600024
0.0671262
0.0663105
0.0738775
0.0827214
0.0796955
0.059618
0.0562595
0.0315624
0.0125598
5.06341e-24
6.62355e-20
2.5159e-20
7.90454e-18
2.49545e-16
2.9532e-12
2.12834e-07
0.0211368
0.0402484
0.0417872
0.0467229
0.0537796
0.060086
0.0678834
0.0672523
0.0749639
0.0840194
0.0799348
0.0594138
0.0550032
0.0309165
0.012875
5.16687e-24
2.53482e-19
7.4706e-19
8.57742e-18
3.81884e-16
4.70872e-12
8.44194e-06
0.0262569
0.0432263
0.0428698
0.0466751
0.0537465
0.0602738
0.0686791
0.0682273
0.0760118
0.0852238
0.080168
0.0594798
0.0535189
0.0302394
0.0132805
5.1152e-24
5.27201e-20
1.43108e-20
5.51461e-18
5.5458e-16
6.48668e-12
2.46038e-05
0.0300815
0.0458645
0.043883
0.0468365
0.0538495
0.0605677
0.0695126
0.0692328
0.0769997
0.0863031
0.0803941
0.0597849
0.0518667
0.0295413
0.0137935
5.2301e-24
2.03094e-19
5.57678e-19
5.52794e-18
7.786e-16
6.66753e-12
4.55179e-05
0.0321848
0.0482311
0.044888
0.047234
0.0540992
0.0609709
0.0703563
0.0702362
0.0779126
0.0872258
0.0806096
0.0602825
0.0501269
0.0288493
0.014428
5.17115e-24
4.33132e-20
9.26071e-21
3.29809e-18
1.0433e-15
5.82511e-12
3.43437e-05
0.0326604
0.0503739
0.0459405
0.0478917
0.0545109
0.0614838
0.0712147
0.0712374
0.0787337
0.0879628
0.080803
0.0609315
0.0483518
0.0281606
0.0152025
5.29856e-24
1.65253e-19
4.30587e-19
3.3732e-18
1.31128e-15
3.76961e-12
3.62229e-05
0.0319101
0.0523238
0.0470768
0.048818
0.0550943
0.0621089
0.0720635
0.0722047
0.0794539
0.0884912
0.0809608
0.0616803
0.0466085
0.0274958
0.0161208
5.22428e-24
3.66052e-20
6.83149e-21
1.9743e-18
1.53085e-15
2.22439e-12
4.67882e-05
0.0302873
0.0540734
0.0483254
0.0500243
0.0558651
0.0628469
0.0729125
0.0731413
0.0800626
0.0887953
0.0810621
0.0624903
0.0449321
0.0268453
0.0171855
5.35814e-24
1.36136e-19
3.42097e-19
2.1415e-18
1.64058e-15
1.10142e-12
5.27283e-05
0.0279658
0.0555853
0.0496926
0.0515092
0.0568337
0.0637029
0.0737425
0.0740187
0.0805563
0.0888694
0.0810871
0.0633149
0.0433718
0.0262258
0.0183806
5.27174e-24
3.17675e-20
5.37146e-21
1.24631e-18
1.62361e-15
5.40224e-13
5.41883e-05
0.0251004
0.0567733
0.0511733
0.0532755
0.058018
0.0646823
0.07457
0.0748458
0.0809292
0.0887158
0.0810104
0.0641248
0.0419446
0.0256233
0.0196881
5.41241e-24