/*--------------------------------*- C++ -*----------------------------------*\
| =========                 |                                                 |
| \\      /  F ield         | OpenFOAM: The Open Source CFD Toolbox           |
|  \\    /   O peration     | Version:  v1912                                 |
|   \\  /    A nd           | Website:  www.openfoam.com                      |
|    \\/     M anipulation  |                                                 |
\*---------------------------------------------------------------------------*/
FoamFile
{
    version     2.0;
    format      ascii;
    class       surfaceScalarField;
    location    "70";
    object      phi;
}
// * * * * * * * * * * * * * * * * * * * * * * * * * * * * * * * * * * * * * //

dimensions      [0 3 -1 0 0 0 0];
oriented        oriented;


internalField   nonuniform List<scalar> 
24588
(
6.82355e-05
-8.91205e-08
6.81038e-05
-1.20587e-07
6.81651e-05
2.63727e-07
6.79419e-05
2.66932e-07
6.77511e-05
7.02813e-08
6.75536e-05
3.21256e-08
6.73889e-05
3.04371e-07
6.70658e-05
3.5254e-07
6.67184e-05
3.38292e-07
6.62453e-05
4.75044e-07
6.56258e-05
6.20792e-07
6.4809e-05
7.82484e-07
6.40596e-05
8.58039e-07
6.29732e-05
9.84895e-07
6.17358e-05
1.25661e-06
5.97615e-05
1.9769e-06
5.73096e-05
2.45364e-06
5.33222e-05
3.98601e-06
4.74491e-05
5.87291e-06
3.67434e-05
1.0706e-05
2.2337e-05
1.44064e-05
2.23369e-05
6.82778e-05
-2.40266e-07
6.8182e-05
-3.65243e-07
6.81015e-05
7.88935e-07
6.78718e-05
5.51723e-07
6.77643e-05
1.62379e-08
6.7606e-05
-2.03267e-08
6.74199e-05
6.69913e-07
6.70684e-05
7.40294e-07
6.66898e-05
7.06083e-07
6.62389e-05
9.28282e-07
6.56318e-05
1.2295e-06
6.48011e-05
1.57418e-06
6.40577e-05
1.71743e-06
6.29417e-05
2.00248e-06
6.17249e-05
2.49381e-06
5.97966e-05
3.9083e-06
5.7288e-05
4.96565e-06
5.32586e-05
8.01324e-06
4.74389e-05
1.16923e-05
3.65974e-05
2.1548e-05
2.22322e-05
2.87715e-05
4.4569e-05
6.82715e-05
-3.83319e-07
6.81817e-05
-6.02016e-07
6.81125e-05
1.2754e-06
6.78816e-05
8.38691e-07
6.7764e-05
-1.94e-08
6.76034e-05
-6.13712e-08
6.74209e-05
1.02234e-06
6.70717e-05
1.12433e-06
6.66936e-05
1.07315e-06
6.62425e-05
1.38161e-06
6.56364e-05
1.8371e-06
6.47984e-05
2.37186e-06
6.40566e-05
2.58752e-06
6.29538e-05
2.98509e-06
6.17348e-05
3.73499e-06
5.98343e-05
5.8113e-06
5.72819e-05
7.52205e-06
5.32604e-05
1.20318e-05
4.73709e-05
1.75812e-05
3.65533e-05
3.23663e-05
2.2204e-05
4.31209e-05
6.67728e-05
6.82744e-05
-5.30392e-07
6.81742e-05
-8.31151e-07
6.80906e-05
1.80651e-06
6.78647e-05
1.1176e-06
6.77572e-05
-7.7427e-08
6.75969e-05
-1.07679e-07
6.74087e-05
1.39196e-06
6.7059e-05
1.50937e-06
6.66812e-05
1.43999e-06
6.62303e-05
1.83493e-06
6.56234e-05
2.44556e-06
6.47952e-05
3.16097e-06
6.40484e-05
3.44801e-06
6.29351e-05
4.00397e-06
6.17135e-05
4.97634e-06
5.98396e-05
7.68797e-06
5.72941e-05
1.00716e-05
5.32608e-05
1.60625e-05
4.73194e-05
2.35221e-05
3.65292e-05
4.31571e-05
2.21954e-05
5.74547e-05
8.8968e-05
6.82653e-05
-6.64395e-07
6.81691e-05
-1.04447e-06
6.80993e-05
2.28799e-06
6.78729e-05
1.39836e-06
6.77526e-05
-1.1156e-07
6.7588e-05
-1.36627e-07
6.74036e-05
1.74576e-06
6.70562e-05
1.89028e-06
6.66788e-05
1.80598e-06
6.62277e-05
2.28816e-06
6.56213e-05
3.05346e-06
6.47823e-05
3.96034e-06
6.40364e-05
4.32574e-06
6.2938e-05
4.9812e-06
6.17139e-05
6.2229e-06
5.98482e-05
9.55613e-06
5.73173e-05
1.26064e-05
5.32487e-05
2.0128e-05
4.73121e-05
2.94579e-05
3.65319e-05
5.3938e-05
2.22069e-05
7.17798e-05
0.000111175
6.82713e-05
-8.06702e-07
6.81628e-05
-1.25471e-06
6.80723e-05
2.83341e-06
6.78513e-05
1.6706e-06
6.77456e-05
-1.77915e-07
6.75825e-05
-1.76053e-07
6.73905e-05
2.12284e-06
6.70419e-05
2.27354e-06
6.66644e-05
2.17225e-06
6.62133e-05
2.74164e-06
6.56057e-05
3.66261e-06
6.47806e-05
4.74688e-06
6.40302e-05
5.18507e-06
6.29182e-05
6.00475e-06
6.16919e-05
7.46837e-06
5.98318e-05
1.14191e-05
5.73286e-05
1.51134e-05
5.32411e-05
2.42128e-05
4.73222e-05
3.53765e-05
3.65591e-05
6.47017e-05
2.22384e-05
8.61005e-05
0.000133413
6.82602e-05
-9.3307e-07
6.8156e-05
-1.44431e-06
6.80818e-05
3.31953e-06
6.78598e-05
1.94604e-06
6.77383e-05
-2.15114e-07
6.75696e-05
-1.92814e-07
6.73827e-05
2.48043e-06
6.70368e-05
2.6516e-06
6.66599e-05
2.53735e-06
6.62088e-05
3.19482e-06
6.56013e-05
4.27168e-06
6.47624e-05
5.5473e-06
6.40158e-05
6.06355e-06
6.29227e-05
6.9732e-06
6.16923e-05
8.72214e-06
5.98253e-05
1.32882e-05
5.73483e-05
1.75936e-05
5.32373e-05
2.83206e-05
4.73399e-05
4.12732e-05
3.66083e-05
7.54339e-05
2.22894e-05
0.000100419
0.000155702
6.82686e-05
-1.07108e-06
6.81521e-05
-1.63675e-06
6.80543e-05
3.87988e-06
6.78382e-05
2.2119e-06
6.77347e-05
-2.90983e-07
6.75692e-05
-2.25839e-07
6.73734e-05
2.86472e-06
6.70256e-05
3.03329e-06
6.66483e-05
2.90328e-06
6.61968e-05
3.64862e-06
6.55881e-05
4.88202e-06
6.47669e-05
6.33037e-06
6.40137e-05
6.91829e-06
6.29016e-05
8.00383e-06
6.16633e-05
9.98027e-06
5.97974e-05
1.51574e-05
5.73603e-05
2.00335e-05
5.32361e-05
3.24427e-05
4.7356e-05
4.71532e-05
3.66752e-05
8.61153e-05
2.23596e-05
0.000114735
0.000178062
6.82554e-05
-1.19038e-06
6.81454e-05
-1.80659e-06
6.80682e-05
4.36636e-06
6.78504e-05
2.48216e-06
6.77278e-05
-3.30428e-07
6.7556e-05
-2.32632e-07
6.73669e-05
3.22439e-06
6.70226e-05
3.40878e-06
6.66461e-05
3.26769e-06
6.61949e-05
4.10178e-06
6.55862e-05
5.49224e-06
6.47454e-05
7.13437e-06
6.39937e-05
7.80598e-06
6.29064e-05
8.9679e-06
6.1651e-05
1.12552e-05
5.97858e-05
1.70239e-05
5.73392e-05
2.24816e-05
5.32313e-05
3.65481e-05
4.73535e-05
5.30305e-05
3.67528e-05
9.67164e-05
2.24481e-05
0.00012904
0.00020051
6.82656e-05
-1.32375e-06
6.81426e-05
-1.9828e-06
6.80394e-05
4.93649e-06
6.78284e-05
2.74146e-06
6.77268e-05
-4.14705e-07
6.75594e-05
-2.59917e-07
6.73605e-05
3.61355e-06
6.70139e-05
3.78873e-06
6.66367e-05
3.63332e-06
6.61849e-05
4.55577e-06
6.5575e-05
6.10391e-06
6.47591e-05
7.91281e-06
6.39981e-05
8.65651e-06
6.28902e-05
1.00047e-05
6.16168e-05
1.25447e-05
5.97561e-05
1.88872e-05
5.72534e-05
2.49859e-05
5.3189e-05
4.06115e-05
4.73205e-05
5.88991e-05
3.68359e-05
0.000107201
2.25546e-05
0.000143321
0.000223064
6.82503e-05
-1.43545e-06
6.81349e-05
-2.13255e-06
6.80557e-05
5.42041e-06
6.78424e-05
3.00654e-06
6.77182e-05
-4.55847e-07
6.75436e-05
-2.56193e-07
6.73531e-05
3.9732e-06
6.70107e-05
4.16123e-06
6.66346e-05
3.99707e-06
6.61834e-05
5.00886e-06
6.55734e-05
6.71552e-06
6.47341e-05
8.71753e-06
6.39598e-05
9.5624e-06
6.28814e-05
1.09784e-05
6.15751e-05
1.38613e-05
5.96865e-05
2.07756e-05
5.71095e-05
2.75634e-05
5.31043e-05
4.46152e-05
4.72653e-05
6.47377e-05
3.69228e-05
0.000117544
2.26782e-05
0.000157566
0.000245742
6.82621e-05
-1.56349e-06
6.81338e-05
-2.29298e-06
6.80269e-05
5.99489e-06
6.78213e-05
3.25911e-06
6.77209e-05
-5.46952e-07
6.7552e-05
-2.77689e-07
6.73507e-05
4.36478e-06
6.70054e-05
4.53931e-06
6.66283e-05
4.36255e-06
6.61763e-05
5.46304e-06
6.55634e-05
7.33015e-06
6.47526e-05
9.49379e-06
6.39596e-05
1.04236e-05
6.28672e-05
1.20289e-05
6.15024e-05
1.52355e-05
5.95809e-05
2.2699e-05
5.69442e-05
3.0201e-05
5.3002e-05
4.85572e-05
4.72041e-05
7.05356e-05
3.70139e-05
0.000127734
2.28181e-05
0.000171761
0.00026856
6.82449e-05
-1.66713e-06
6.81267e-05
-2.4258e-06
6.80487e-05
6.46703e-06
6.78397e-05
3.51895e-06
6.77127e-05
-5.8644e-07
6.75364e-05
-2.65014e-07
6.73455e-05
4.72089e-06
6.70051e-05
4.90886e-06
6.66293e-05
4.72596e-06
6.61777e-05
5.91636e-06
6.55624e-05
7.947e-06
6.47408e-05
1.02853e-05
6.3925e-05
1.13503e-05
6.28434e-05
1.30537e-05
6.14123e-05
1.66693e-05
5.94669e-05
2.46437e-05
5.67936e-05
3.28743e-05
5.29037e-05
5.24463e-05
4.71471e-05
7.62918e-05
3.71091e-05
0.000137773
2.29731e-05
0.000185897
0.000291533
6.82581e-05
-1.78909e-06
6.81258e-05
-2.57129e-06
6.80177e-05
7.03951e-06
6.78177e-05
3.76445e-06
6.77177e-05
-6.82353e-07
6.75478e-05
-2.80914e-07
6.73451e-05
5.11222e-06
6.70014e-05
5.28464e-06
6.66246e-05
5.09122e-06
6.61732e-05
6.36997e-06
6.55505e-05
8.5714e-06
6.47608e-05
1.10477e-05
6.3923e-05
1.22153e-05
6.28019e-05
1.41654e-05
6.13194e-05
1.81565e-05
5.93636e-05
2.66009e-05
5.66704e-05
3.5568e-05
5.28168e-05
5.63e-05
4.70967e-05
8.2012e-05
3.72072e-05
0.000147662
2.31418e-05
0.000199963
0.000314675
6.8239e-05
-1.88394e-06
6.81178e-05
-2.68567e-06
6.80416e-05
7.49804e-06
6.78373e-05
4.01889e-06
6.77072e-05
-7.19616e-07
6.75289e-05
-2.58069e-07
6.73382e-05
5.46331e-06
6.70003e-05
5.65072e-06
6.66252e-05
5.45401e-06
6.6174e-05
6.82289e-06
6.55431e-05
9.2038e-06
6.47549e-05
1.18143e-05
6.38922e-05
1.31395e-05
6.27498e-05
1.52787e-05
6.12362e-05
1.96701e-05
5.92762e-05
2.856e-05
5.65717e-05
3.82724e-05
5.27407e-05
6.01304e-05
4.70515e-05
8.77009e-05
3.7307e-05
0.000157407
2.33226e-05
0.000213947
0.000337997
6.82538e-05
-1.99922e-06
6.81181e-05
-2.81619e-06
6.801e-05
8.06463e-06
6.78157e-05
4.25728e-06
6.77154e-05
-8.18947e-07
6.75447e-05
-2.68093e-07
6.73409e-05
5.85275e-06
6.69989e-05
6.02424e-06
6.66227e-05
5.81884e-06
6.61715e-05
7.27624e-06
6.55312e-05
9.84573e-06
6.47517e-05
1.25769e-05
6.3861e-05
1.40269e-05
6.26948e-05
1.64479e-05
6.11645e-05
2.12032e-05
5.92027e-05
3.05228e-05
5.64902e-05
4.09852e-05
5.26721e-05
6.39486e-05
4.70097e-05
9.33634e-05
3.74076e-05
0.000167009
2.35143e-05
0.00022784
0.000361512
6.82329e-05
-2.085e-06
6.81108e-05
-2.91502e-06
6.80393e-05
8.50164e-06
6.78393e-05
4.50642e-06
6.7705e-05
-8.50775e-07
6.75256e-05
-2.36542e-07
6.73359e-05
6.19619e-06
6.70002e-05
6.38714e-06
6.66261e-05
6.18083e-06
6.61749e-05
7.72898e-06
6.55211e-05
1.05009e-05
6.47411e-05
1.3347e-05
6.38229e-05
1.4982e-05
6.26444e-05
1.76092e-05
6.11034e-05
2.27434e-05
5.91396e-05
3.24858e-05
5.64197e-05
4.3705e-05
5.26082e-05
6.77597e-05
4.69699e-05
9.90015e-05
3.75085e-05
0.000176471
2.37157e-05
0.000241633
0.000385227
6.82491e-05
-2.19317e-06
6.81111e-05
-3.03135e-06
6.80048e-05
9.05795e-06
6.78164e-05
4.73738e-06
6.77154e-05
-9.52048e-07
6.75442e-05
-2.40995e-07
6.73401e-05
6.58192e-06
6.7e-05
6.75811e-06
6.66247e-05
6.54496e-06
6.61744e-05
8.1813e-06
6.55084e-05
1.11686e-05
6.47292e-05
1.41196e-05
6.37879e-05
1.59112e-05
6.25986e-05
1.8805e-05
6.10504e-05
2.42935e-05
5.9084e-05
3.44532e-05
5.63558e-05
4.64333e-05
5.25469e-05
7.15688e-05
4.69313e-05
0.000104617
3.761e-05
0.000185792
2.39261e-05
0.000255317
0.000409153
6.82267e-05
-2.26961e-06
6.81032e-05
-3.11325e-06
6.8036e-05
9.47434e-06
6.78407e-05
4.9811e-06
6.77022e-05
-9.78794e-07
6.75215e-05
-1.99812e-07
6.7333e-05
6.91721e-06
6.70001e-05
7.11736e-06
6.66267e-05
6.90638e-06
6.6177e-05
8.63256e-06
6.54994e-05
1.18473e-05
6.47127e-05
1.49035e-05
6.37546e-05
1.68936e-05
6.25577e-05
1.99891e-05
6.10034e-05
2.58468e-05
5.90331e-05
3.64227e-05
5.62952e-05
4.9171e-05
5.24867e-05
7.5377e-05
4.68938e-05
0.00011021
3.77127e-05
0.000194973
2.41453e-05
0.000268885
0.000433298
6.82444e-05
-2.37047e-06
6.81041e-05
-3.21526e-06
6.8e-05
1.00189e-05
6.78174e-05
5.20476e-06
6.77154e-05
-1.08131e-06
6.75439e-05
-1.98534e-07
6.73394e-05
7.29851e-06
6.70013e-05
7.48572e-06
6.6626e-05
7.27075e-06
6.61725e-05
9.08799e-06
6.54931e-05
1.2528e-05
6.46953e-05
1.56988e-05
6.37247e-05
1.78504e-05
6.25202e-05
2.12007e-05
6.09603e-05
2.74083e-05
5.89849e-05
3.83989e-05
5.62353e-05
5.19208e-05
5.24264e-05
7.91861e-05
4.68577e-05
0.000115779
3.78176e-05
0.000204013
2.43733e-05
0.000282329
0.000457672
6.82205e-05
-2.43762e-06
6.80971e-05
-3.28271e-06
6.8036e-05
1.04097e-05
6.78449e-05
5.44325e-06
6.77015e-05
-1.1006e-06
6.75202e-05
-1.49227e-07
6.73333e-05
7.62428e-06
6.70029e-05
7.84161e-06
6.66298e-05
7.63212e-06
6.61663e-05
9.55294e-06
6.54918e-05
1.3203e-05
6.46774e-05
1.65123e-05
6.3697e-05
1.88502e-05
6.24856e-05
2.24016e-05
6.09199e-05
2.89729e-05
5.89377e-05
4.03805e-05
5.61744e-05
5.4684e-05
5.23655e-05
8.29946e-05
4.68234e-05
0.00012132
3.79262e-05
0.000212911
2.46108e-05
0.000295644
0.000482282
6.82395e-05
-2.53099e-06
6.80977e-05
-3.3711e-06
6.7997e-05
1.094e-05
6.78203e-05
5.65946e-06
6.77169e-05
-1.20329e-06
6.75452e-05
-1.42609e-07
6.7341e-05
7.99989e-06
6.70049e-05
8.20724e-06
6.66307e-05
7.99575e-06
6.61551e-05
1.00302e-05
6.54885e-05
1.38703e-05
6.46603e-05
1.73393e-05
6.36714e-05
1.98257e-05
6.24527e-05
2.36274e-05
6.08807e-05
3.05464e-05
5.88899e-05
4.2372e-05
5.61108e-05
5.74633e-05
5.23035e-05
8.68021e-05
4.67914e-05
0.000126833
3.80399e-05
0.000221662
2.48583e-05
0.000308826
0.000507141
6.82143e-05
-2.58887e-06
6.80902e-05
-3.42274e-06
6.80344e-05
1.13078e-05
6.78477e-05
5.8927e-06
6.76997e-05
-1.21606e-06
6.75175e-05
-8.42244e-08
6.73323e-05
8.3161e-06
6.70045e-05
8.55962e-06
6.66339e-05
8.35499e-06
6.6147e-05
1.05184e-05
6.54827e-05
1.45346e-05
6.46438e-05
1.81779e-05
6.36471e-05
2.08389e-05
6.24211e-05
2.4844e-05
6.08417e-05
3.21247e-05
5.88403e-05
4.43727e-05
5.60436e-05
6.02598e-05
5.22402e-05
9.06051e-05
4.67621e-05
0.00013231
3.81605e-05
0.000230264
2.5117e-05
0.000321869
0.000532258
6.82346e-05
-2.67479e-06
6.80913e-05
-3.49744e-06
6.79939e-05
1.18235e-05
6.78229e-05
6.10171e-06
6.77179e-05
-1.31851e-06
6.75462e-05
-7.22005e-08
6.73422e-05
8.68544e-06
6.70077e-05
8.92306e-06
6.6636e-05
8.71636e-06
6.61398e-05
1.10162e-05
6.54744e-05
1.52005e-05
6.46282e-05
1.90232e-05
6.36239e-05
2.18304e-05
6.23899e-05
2.60849e-05
6.08019e-05
3.3714e-05
5.87875e-05
4.63878e-05
5.59722e-05
6.30754e-05
5.21757e-05
9.44018e-05
4.67359e-05
0.00013775
3.82897e-05
0.00023871
2.53881e-05
0.000334771
0.000557646
6.82082e-05
-2.72357e-06
6.80849e-05
-3.53583e-06
6.80359e-05
1.21638e-05
6.78531e-05
6.33008e-06
6.76996e-05
-1.32216e-06
6.75172e-05
-6.25822e-09
6.73342e-05
8.99019e-06
6.70085e-05
9.27249e-06
6.66408e-05
9.0729e-06
6.61366e-05
1.15217e-05
6.5465e-05
1.58718e-05
6.46131e-05
1.9875e-05
6.36013e-05
2.28571e-05
6.23586e-05
2.73188e-05
6.07603e-05
3.53113e-05
5.87307e-05
4.84168e-05
5.58962e-05
6.59097e-05
5.21101e-05
9.81875e-05
4.67131e-05
0.000143147
3.84292e-05
0.000246994
2.56729e-05
0.000347527
0.000583318
6.82298e-05
-2.80209e-06
6.80855e-05
-3.5977e-06
6.79923e-05
1.26634e-05
6.7827e-05
6.53172e-06
6.77204e-05
-1.42371e-06
6.75488e-05
1.0807e-08
6.73456e-05
9.35219e-06
6.70126e-05
9.6338e-06
6.66431e-05
9.4324e-06
6.61348e-05
1.20314e-05
6.54553e-05
1.65516e-05
6.45986e-05
2.0731e-05
6.3579e-05
2.38645e-05
6.23265e-05
2.8578e-05
6.07162e-05
3.6923e-05
5.86691e-05
5.04646e-05
5.58159e-05
6.87632e-05
5.20437e-05
0.00010196
4.66939e-05
0.000148497
3.85808e-05
0.000255107
2.59731e-05
0.000360135
0.000609291
6.82023e-05
-2.84207e-06
6.80789e-05
-3.62177e-06
6.80355e-05
1.298e-05
6.78568e-05
6.75506e-06
6.76986e-05
-1.41998e-06
6.75155e-05
8.53122e-08
6.73351e-05
9.6459e-06
6.7011e-05
9.98087e-06
6.66432e-05
9.78957e-06
6.61398e-05
1.25354e-05
6.54455e-05
1.72458e-05
6.45843e-05
2.15922e-05
6.35567e-05
2.4906e-05
6.22934e-05
2.98327e-05
6.06689e-05
3.85464e-05
5.86026e-05
5.25302e-05
5.57316e-05
7.16339e-05
5.19767e-05
0.000105714
4.66785e-05
0.000153795
3.87462e-05
0.000263039
2.62901e-05
0.000372591
0.000635581
6.82251e-05
-2.91346e-06
6.80796e-05
-3.67072e-06
6.799e-05
1.34645e-05
6.78303e-05
6.94953e-06
6.77221e-05
-1.52088e-06
6.75503e-05
1.07988e-07
6.73482e-05
1.00003e-05
6.70148e-05
1.0342e-05
6.66414e-05
1.01536e-05
6.6147e-05
1.30307e-05
6.54355e-05
1.79575e-05
6.45703e-05
2.24568e-05
6.35342e-05
2.59303e-05
6.22587e-05
3.1115e-05
6.06181e-05
4.01884e-05
5.8531e-05
5.4618e-05
5.56439e-05
7.45213e-05
5.19095e-05
0.000109449
4.66668e-05
0.000159038
3.89267e-05
0.000270779
2.66255e-05
0.000384892
0.000662207
6.81967e-05
-2.94503e-06
6.80742e-05
-3.6828e-06
6.80374e-05
1.37548e-05
6.78623e-05
7.16829e-06
6.76989e-05
-1.50789e-06
6.75154e-05
1.89687e-07
6.73379e-05
1.02818e-05
6.70141e-05
1.0688e-05
6.66406e-05
1.05169e-05
6.61512e-05
1.35203e-05
6.54255e-05
1.8683e-05
6.45563e-05
2.3326e-05
6.35113e-05
2.69883e-05
6.22222e-05
3.23957e-05
6.05634e-05
4.18459e-05
5.84548e-05
5.67259e-05
5.55533e-05
7.74226e-05
5.18425e-05
0.000113159
4.66589e-05
0.000164221
3.91234e-05
0.000278315
2.69807e-05
0.000397035
0.000689188
6.82206e-05
-3.00948e-06
6.80743e-05
-3.71962e-06
6.79888e-05
1.42237e-05
6.78348e-05
7.35547e-06
6.77249e-05
-1.60783e-06
6.75529e-05
2.17608e-07
6.73519e-05
1.06286e-05
6.70194e-05
1.10475e-05
6.66403e-05
1.08871e-05
6.61509e-05
1.40103e-05
6.54152e-05
1.9419e-05
6.45424e-05
2.41983e-05
6.34878e-05
2.80315e-05
6.21834e-05
3.3707e-05
6.05048e-05
4.35259e-05
5.83742e-05
5.88574e-05
5.54606e-05
8.03365e-05
5.17761e-05
0.000116844
4.66546e-05
0.000169343
3.9337e-05
0.000285633
2.73568e-05
0.000409015
0.000716544
6.81914e-05
-3.03305e-06
6.80687e-05
-3.7184e-06
6.80368e-05
1.44925e-05
6.78658e-05
7.56921e-06
6.76979e-05
-1.58792e-06
6.75137e-05
3.07624e-07
6.73383e-05
1.09e-05
6.70174e-05
1.13899e-05
6.66386e-05
1.12565e-05
6.61474e-05
1.45015e-05
6.54046e-05
2.01616e-05
6.45284e-05
2.50745e-05
6.34636e-05
2.91089e-05
6.21424e-05
3.50197e-05
6.04424e-05
4.52246e-05
5.82897e-05
6.10093e-05
5.53664e-05
8.32596e-05
5.17107e-05
0.000120499
4.66538e-05
0.0001744
3.95674e-05
0.000292719
2.77547e-05
0.000420828
0.000744299
6.82164e-05
-3.09102e-06
6.80691e-05
-3.74343e-06
6.79869e-05
1.49474e-05
6.78382e-05
7.74953e-06
6.77269e-05
-1.68726e-06
6.75546e-05
3.40335e-07
6.73539e-05
1.12405e-05
6.70244e-05
1.17455e-05
6.66379e-05
1.16348e-05
6.61412e-05
1.49986e-05
6.53937e-05
2.09093e-05
6.45143e-05
2.59533e-05
6.34386e-05
3.01734e-05
6.20989e-05
3.63664e-05
6.03763e-05
4.69487e-05
5.82018e-05
6.31846e-05
5.52713e-05
8.61904e-05
5.16468e-05
0.000124124
4.66563e-05
0.00017939
3.98145e-05
0.000299561
2.81748e-05
0.000432467
0.000772474
6.81863e-05
-3.10696e-06
6.80646e-05
-3.73132e-06
6.80386e-05
1.51918e-05
6.78709e-05
7.95903e-06
6.7698e-05
-1.6582e-06
6.75136e-05
4.36799e-07
6.73399e-05
1.15018e-05
6.70235e-05
1.20827e-05
6.66352e-05
1.20141e-05
6.61326e-05
1.5501e-05
6.53823e-05
2.16595e-05
6.45e-05
2.68357e-05
6.34126e-05
3.12733e-05
6.2053e-05
3.77174e-05
6.03066e-05
4.86936e-05
5.8111e-05
6.53794e-05
5.51758e-05
8.91253e-05
5.15847e-05
0.000127715
4.66619e-05
0.000184313
4.00776e-05
0.000306145
2.86173e-05
0.000443928
0.000801091
6.82125e-05
-3.15894e-06
6.80645e-05
-3.7456e-06
6.79856e-05
1.56335e-05
6.78424e-05
8.13245e-06
6.77301e-05
-1.75771e-06
6.75581e-05
4.73202e-07
6.73571e-05
1.18368e-05
6.70326e-05
1.24322e-05
6.66333e-05
1.2406e-05
6.61218e-05
1.60129e-05
6.53706e-05
2.24109e-05
6.44856e-05
2.77201e-05
6.33855e-05
3.23625e-05
6.20044e-05
3.91057e-05
6.02336e-05
5.04661e-05
5.80177e-05
6.75961e-05
5.50805e-05
9.20628e-05
5.15248e-05
0.000131271
4.66705e-05
0.000189167
4.03559e-05
0.00031246
2.90823e-05
0.000455201
0.000830173
6.81819e-05
-3.16825e-06
6.80611e-05
-3.72409e-06
6.804e-05
1.58569e-05
6.78753e-05
8.33818e-06
6.76983e-05
-1.72122e-06
6.75145e-05
5.7423e-07
6.73423e-05
1.20888e-05
6.70329e-05
1.27604e-05
6.66288e-05
1.28018e-05
6.61088e-05
1.65328e-05
6.53584e-05
2.3161e-05
6.44709e-05
2.86077e-05
6.33573e-05
3.34879e-05
6.19534e-05
4.05004e-05
6.01575e-05
5.22606e-05
5.79224e-05
6.98304e-05
5.49859e-05
9.4999e-05
5.14675e-05
0.000134789
4.66822e-05
0.000193952
4.06486e-05
0.000318493
2.95698e-05
0.00046628
0.000859743
6.82089e-05
-3.21472e-06
6.80597e-05
-3.72735e-06
6.7983e-05
1.62886e-05
6.78454e-05
8.50468e-06
6.77329e-05
-1.82285e-06
6.7561e-05
6.14335e-07
6.73593e-05
1.24198e-05
6.70415e-05
1.31018e-05
6.66246e-05
1.32125e-05
6.60935e-05
1.70642e-05
6.53459e-05
2.39088e-05
6.4456e-05
2.94971e-05
6.33279e-05
3.46051e-05
6.18999e-05
4.19357e-05
6.00785e-05
5.40836e-05
5.78255e-05
7.20842e-05
5.48924e-05
9.79323e-05
5.1413e-05
0.000138269
4.66969e-05
0.000198668
4.09552e-05
0.000324235
3.00797e-05
0.000477155
0.000889823
6.81779e-05
-3.21786e-06
6.80566e-05
-3.69487e-06
6.80382e-05
1.64966e-05
6.78772e-05
8.70622e-06
6.76974e-05
-1.78242e-06
6.75138e-05
7.20565e-07
6.73408e-05
1.26669e-05
6.70366e-05
1.34245e-05
6.66218e-05
1.36209e-05
6.60759e-05
1.76099e-05
6.53329e-05
2.46517e-05
6.44407e-05
3.03893e-05
6.32973e-05
3.57603e-05
6.1844e-05
4.33798e-05
5.99969e-05
5.5929e-05
5.77274e-05
7.43529e-05
5.48002e-05
0.000100859
5.13616e-05
0.000141707
4.67146e-05
0.000203315
4.12753e-05
0.000329675
3.06122e-05
0.000487819
0.000920435
6.82058e-05
-3.25945e-06
6.80549e-05
-3.68716e-06
6.79788e-05
1.69218e-05
6.78469e-05
8.86568e-06
6.77352e-05
-1.88882e-06
6.75637e-05
7.636e-07
6.73596e-05
1.29962e-05
6.70322e-05
1.3774e-05
6.66255e-05
1.40257e-05
6.60563e-05
1.81793e-05
6.53196e-05
2.53886e-05
6.44251e-05
3.12833e-05
6.32654e-05
3.69091e-05
6.17856e-05
4.48673e-05
5.9913e-05
5.78034e-05
5.76285e-05
7.66383e-05
5.47097e-05
0.000103778
5.13135e-05
0.000145103
4.67352e-05
0.000207894
4.16089e-05
0.000334801
3.11679e-05
0.00049826
0.000951603
6.81738e-05
-3.25634e-06
6.80515e-05
-3.6428e-06
6.80356e-05
1.71153e-05
6.78779e-05
9.06309e-06
6.76947e-05
-1.84322e-06
6.751e-05
8.77962e-07
6.73397e-05
1.32354e-05
6.70068e-05
1.41227e-05
6.66172e-05
1.4413e-05
6.60352e-05
1.87611e-05
6.53061e-05
2.61175e-05
6.44092e-05
3.21802e-05
6.32322e-05
3.80982e-05
6.1725e-05
4.63652e-05
5.98271e-05
5.96995e-05
5.75292e-05
7.89353e-05
5.46211e-05
0.000106686
5.12688e-05
0.000148455
4.67586e-05
0.000212404
4.19558e-05
0.000339604
3.17471e-05
0.000508468
0.00098335
6.82028e-05
-3.29325e-06
6.80508e-05
-3.62505e-06
6.79761e-05
1.75315e-05
6.78492e-05
9.21621e-06
6.77382e-05
-1.95292e-06
6.75652e-05
9.26073e-07
6.7365e-05
1.35559e-05
6.69958e-05
1.45137e-05
6.6597e-05
1.48123e-05
6.60136e-05
1.93448e-05
6.52925e-05
2.68388e-05
6.43929e-05
3.30794e-05
6.31976e-05
3.9282e-05
6.16623e-05
4.79087e-05
5.97396e-05
6.16242e-05
5.743e-05
8.12459e-05
5.45346e-05
0.000109582
5.12277e-05
0.000151762
4.67841e-05
0.000216847
4.23153e-05
0.000344072
3.235e-05
0.000518433
0.0010157
6.8172e-05
-3.28708e-06
6.80493e-05
-3.57522e-06
6.80332e-05
1.77188e-05
6.78802e-05
9.40815e-06
6.77007e-05
-1.91636e-06
6.75156e-05
1.04042e-06
6.73534e-05
1.37824e-05
6.69833e-05
1.48937e-05
6.65723e-05
1.52218e-05
6.59924e-05
1.99245e-05
6.52789e-05
2.7552e-05
6.4376e-05
3.39823e-05
6.31617e-05
4.05107e-05
6.15978e-05
4.94623e-05
5.96508e-05
6.35689e-05
5.73311e-05
8.35645e-05
5.44502e-05
0.000112462
5.11903e-05
0.000155022
4.68114e-05
0.000221226
4.26853e-05
0.000348199
3.29755e-05
0.000528143
0.00104868
6.81971e-05
-3.31536e-06
6.80461e-05
-3.54549e-06
6.79779e-05
1.81092e-05
6.78535e-05
9.55887e-06
6.77362e-05
-2.01397e-06
6.75603e-05
1.09926e-06
6.73622e-05
1.40908e-05
6.69815e-05
1.52897e-05
6.65474e-05
1.56567e-05
6.5972e-05
2.05002e-05
6.52654e-05
2.82588e-05
6.43589e-05
3.48883e-05
6.31246e-05
4.17325e-05
6.15315e-05
5.10644e-05
5.95611e-05
6.55415e-05
5.72332e-05
8.58935e-05
5.43682e-05
0.000115328
5.11564e-05
0.000158234
4.68395e-05
0.000225543
4.30604e-05
0.000351978
3.36195e-05
0.000537584
0.00108229
6.81671e-05
-3.30213e-06
6.80454e-05
-3.48493e-06
6.80358e-05
1.82727e-05
6.78855e-05
9.74644e-06
6.76997e-05
-1.96315e-06
6.75112e-05
1.22544e-06
6.73345e-05
1.4325e-05
6.69783e-05
1.56433e-05
6.65241e-05
1.61098e-05
6.59529e-05
2.10713e-05
6.5252e-05
2.89594e-05
6.43411e-05
3.57994e-05
6.30862e-05
4.30021e-05
6.1464e-05
5.26762e-05
5.94712e-05
6.75318e-05
5.71366e-05
8.82271e-05
5.42886e-05
0.000118175
5.11263e-05
0.000161396
4.6868e-05
0.000229801
4.34299e-05
0.000355416
3.42726e-05
0.000546742
0.00111657
6.82035e-05
-3.34182e-06
6.80575e-05
-3.46478e-06
6.79759e-05
1.86916e-05
6.78633e-05
9.88728e-06
6.77732e-05
-2.11955e-06
6.76079e-05
1.25908e-06
6.7359e-05
1.46905e-05
6.69718e-05
1.60367e-05
6.65031e-05
1.65793e-05
6.5935e-05
2.16396e-05
6.52389e-05
2.96556e-05
6.43229e-05
3.67149e-05
6.30466e-05
4.42657e-05
6.13956e-05
5.43362e-05
5.93816e-05
6.9548e-05
5.70421e-05
9.05676e-05
5.42112e-05
0.000121007
5.11004e-05
0.000164507
4.68954e-05
0.000234006
4.37881e-05
0.000358523
3.50109e-05
0.000555519
0.00115158
-4.39945e-06
4.39956e-06
-1.16992e-05
7.29964e-06
-2.24662e-05
1.07673e-05
-2.84884e-05
6.02047e-06
-2.66495e-05
-1.84945e-06
-2.12016e-05
-5.44072e-06
-1.4051e-05
-7.14766e-06
-4.94266e-06
-9.1002e-06
4.95775e-06
-9.85397e-06
1.45057e-05
-9.51833e-06
2.27123e-05
-8.14091e-06
2.82562e-05
-5.61947e-06
3.18417e-05
-3.58769e-06
3.44757e-05
-2.63656e-06
3.67075e-05
-2.23325e-06
3.87946e-05
-2.08769e-06
4.08699e-05
-2.07556e-06
4.295e-05
-2.08029e-06
4.49673e-05
-2.01769e-06
4.69003e-05
-1.93303e-06
4.90063e-05
-2.10657e-06
5.25644e-05
-3.55779e-06
5.80114e-05
-5.44703e-06
6.25246e-05
-4.51296e-06
6.44623e-05
-1.93743e-06
6.51939e-05
-7.31839e-07
6.56595e-05
-4.6565e-07
6.60628e-05
-4.03386e-07
6.64252e-05
-3.62416e-07
6.67255e-05
-3.0024e-07
6.6953e-05
-2.27546e-07
6.71278e-05
-1.74789e-07
6.72792e-05
-1.51405e-07
6.74081e-05
-1.28874e-07
-4.99491e-08
-4.34384e-06
8.74354e-06
-1.2085e-05
1.50404e-05
-2.30401e-05
2.1723e-05
-2.87898e-05
1.17663e-05
-2.59104e-05
-4.74933e-06
-2.05142e-05
-1.08228e-05
-1.46828e-05
-1.29728e-05
-6.45721e-06
-1.73096e-05
3.32664e-06
-1.95532e-05
1.30804e-05
-1.92173e-05
2.16245e-05
-1.65871e-05
2.76661e-05
-1.17802e-05
3.16205e-05
-7.54645e-06
3.44055e-05
-5.42663e-06
3.66725e-05
-4.5032e-06
3.87446e-05
-4.16104e-06
4.07849e-05
-4.11647e-06
4.28262e-05
-4.12186e-06
4.48074e-05
-3.99961e-06
4.6711e-05
-3.83677e-06
4.87598e-05
-4.15635e-06
5.21934e-05
-6.99091e-06
5.76334e-05
-1.0887e-05
6.234e-05
-9.21924e-06
6.44185e-05
-4.01534e-06
6.51829e-05
-1.49665e-06
6.56519e-05
-9.34902e-07
6.60562e-05
-8.07662e-07
6.64192e-05
-7.25639e-07
6.67206e-05
-6.01556e-07
6.69497e-05
-4.56567e-07
6.71257e-05
-3.50789e-07
6.72776e-05
-3.03271e-07
6.7407e-05
-2.58303e-07
-1.00519e-07
-4.34228e-06
1.3086e-05
-1.2342e-05
2.30398e-05
-2.31332e-05
3.25148e-05
-2.83722e-05
1.70019e-05
-2.53727e-05
-7.77002e-06
-2.03757e-05
-1.58059e-05
-1.49374e-05
-1.84057e-05
-6.83154e-06
-2.54014e-05
2.85169e-06
-2.91603e-05
1.23801e-05
-2.86961e-05
2.0854e-05
-2.49592e-05
2.71715e-05
-1.823e-05
3.14253e-05
-1.18048e-05
3.43543e-05
-8.36075e-06
3.66546e-05
-6.80645e-06
3.8709e-05
-6.21672e-06
4.07123e-05
-6.12036e-06
4.27143e-05
-6.12417e-06
4.46607e-05
-5.94672e-06
4.6537e-05
-5.71312e-06
4.85402e-05
-6.16049e-06
5.18749e-05
-1.03251e-05
5.7311e-05
-1.63231e-05
6.21763e-05
-1.40843e-05
6.43777e-05
-6.21618e-06
6.51721e-05
-2.29147e-06
6.56447e-05
-1.40762e-06
6.60497e-05
-1.21277e-06
6.64136e-05
-1.0896e-06
6.6716e-05
-9.03898e-07
6.69465e-05
-6.87042e-07
6.71237e-05
-5.27977e-07
6.7276e-05
-4.55557e-07
6.74059e-05
-3.88227e-07
-1.51588e-07
-4.32121e-06
1.74073e-05
-1.24749e-05
3.11931e-05
-2.30006e-05
4.30409e-05
-2.77334e-05
2.17301e-05
-2.45552e-05
-1.09723e-05
-1.98022e-05
-2.05428e-05
-1.4595e-05
-2.36056e-05
-6.54673e-06
-3.34324e-05
3.02068e-06
-3.86455e-05
1.22194e-05
-3.78403e-05
2.03906e-05
-3.30523e-05
2.67763e-05
-2.47303e-05
3.12591e-05
-1.62932e-05
3.43245e-05
-1.14324e-05
3.66571e-05
-9.14258e-06
3.86895e-05
-8.25078e-06
4.065e-05
-8.08161e-06
4.26093e-05
-8.08387e-06
4.45223e-05
-7.86055e-06
4.63768e-05
-7.56778e-06
4.83471e-05
-8.13176e-06
5.16098e-05
-1.35874e-05
5.7043e-05
-2.17562e-05
6.20334e-05
-1.90745e-05
6.43398e-05
-8.522e-06
6.51618e-05
-3.11393e-06
6.56378e-05
-1.8838e-06
6.60437e-05
-1.6187e-06
6.64082e-05
-1.45424e-06
6.67116e-05
-1.20717e-06
6.69435e-05
-9.1893e-07
6.71218e-05
-7.06321e-07
6.72745e-05
-6.08207e-07
6.74048e-05
-5.1857e-07
-2.03055e-07
-4.27741e-06
2.16849e-05
-1.24967e-05
3.94122e-05
-2.26512e-05
5.31961e-05
-2.68075e-05
2.58825e-05
-2.33614e-05
-1.44428e-05
-1.87459e-05
-2.51427e-05
-1.36654e-05
-2.86805e-05
-5.66695e-06
-4.14162e-05
3.74294e-06
-4.79784e-05
1.25401e-05
-4.65843e-05
2.02515e-05
-4.06807e-05
2.65223e-05
-3.11288e-05
3.11405e-05
-2.09173e-05
3.43241e-05
-1.46227e-05
3.66859e-05
-1.15079e-05
3.86921e-05
-1.02585e-05
4.06025e-05
-9.99273e-06
4.2513e-05
-9.99467e-06
4.43926e-05
-9.74105e-06
4.62309e-05
-9.40623e-06
4.81799e-05
-1.00816e-05
5.13945e-05
-1.68015e-05
5.68259e-05
-2.71876e-05
6.19109e-05
-2.41592e-05
6.4305e-05
-1.09155e-05
6.51521e-05
-3.96145e-06
6.56315e-05
-2.36336e-06
6.60381e-05
-2.02538e-06
6.64033e-05
-1.81949e-06
6.67075e-05
-1.51129e-06
6.69407e-05
-1.15219e-06
6.71202e-05
-8.8579e-07
6.72732e-05
-7.61162e-07
6.74038e-05
-6.49246e-07
-2.54818e-07
-4.2094e-06
2.58943e-05
-1.24137e-05
4.7616e-05
-2.2077e-05
6.28597e-05
-2.55488e-05
2.93486e-05
-2.18033e-05
-1.82155e-05
-1.73003e-05
-2.96282e-05
-1.2247e-05
-3.37257e-05
-4.27408e-06
-4.93703e-05
4.97209e-06
-5.71393e-05
1.33513e-05
-5.49017e-05
2.05008e-05
-4.77616e-05
2.6476e-05
-3.72253e-05
3.11031e-05
-2.55521e-05
3.43651e-05
-1.78934e-05
3.67475e-05
-1.38946e-05
3.87239e-05
-1.2237e-05
4.05783e-05
-1.18481e-05
4.24325e-05
-1.18493e-05
4.42764e-05
-1.15861e-05
4.61021e-05
-1.12321e-05
4.80385e-05
-1.2019e-05
5.1224e-05
-1.99866e-05
5.66547e-05
-3.26183e-05
6.1808e-05
-2.93122e-05
6.42733e-05
-1.33804e-05
6.5143e-05
-4.83154e-06
6.56257e-05
-2.84629e-06
6.60331e-05
-2.43278e-06
6.63987e-05
-2.18527e-06
6.67037e-05
-1.81613e-06
6.69382e-05
-1.38676e-06
6.71188e-05
-1.06634e-06
6.7272e-05
-9.14354e-07
6.74029e-05
-7.80167e-07
-3.06767e-07
-4.11638e-06
3.00109e-05
-1.22277e-05
5.57272e-05
-2.12737e-05
7.19064e-05
-2.3972e-05
3.20425e-05
-1.99935e-05
-2.22193e-05
-1.5651e-05
-3.3955e-05
-1.05562e-05
-3.88155e-05
-2.58432e-06
-5.73282e-05
6.53958e-06
-6.61917e-05
1.46061e-05
-6.29126e-05
2.12211e-05
-5.43058e-05
2.67366e-05
-4.28799e-05
3.12017e-05
-3.00261e-05
3.44671e-05
-2.1169e-05
3.68492e-05
-1.62813e-05
3.87912e-05
-1.4181e-05
4.05866e-05
-1.36442e-05
4.23782e-05
-1.36414e-05
4.41817e-05
-1.33907e-05
4.59943e-05
-1.30448e-05
4.79228e-05
-1.39484e-05
5.10934e-05
-2.31567e-05
5.6524e-05
-3.80489e-05
6.17233e-05
-3.45113e-05
6.42451e-05
-1.59016e-05
6.51347e-05
-5.7215e-06
6.56207e-05
-3.33246e-06
6.60287e-05
-2.8408e-06
6.63947e-05
-2.55146e-06
6.67003e-05
-2.12157e-06
6.69361e-05
-1.6226e-06
6.71177e-05
-1.24793e-06
6.72711e-05
-1.06771e-06
6.74022e-05
-9.11234e-07
-3.58796e-07
-3.99774e-06
3.40086e-05
-1.19393e-05
6.36682e-05
-2.02511e-05
8.02183e-05
-2.21349e-05
3.39198e-05
-1.80429e-05
-2.63386e-05
-1.39325e-05
-3.80483e-05
-8.77454e-06
-4.39657e-05
-8.01432e-07
-6.52829e-05
8.23038e-06
-7.51455e-05
1.61426e-05
-7.07637e-05
2.24057e-05
-6.0515e-05
2.74086e-05
-4.80163e-05
3.15222e-05
-3.41516e-05
3.46677e-05
-2.43284e-05
3.70057e-05
-1.86256e-05
3.8901e-05
-1.60789e-05
4.0635e-05
-1.53793e-05
4.23601e-05
-1.53671e-05
4.41171e-05