/*--------------------------------*- C++ -*----------------------------------*\
| =========                 |                                                 |
| \\      /  F ield         | OpenFOAM: The Open Source CFD Toolbox           |
|  \\    /   O peration     | Version:  v1912                                 |
|   \\  /    A nd           | Website:  www.openfoam.com                      |
|    \\/     M anipulation  |                                                 |
\*---------------------------------------------------------------------------*/
FoamFile
{
    version     2.0;
    format      ascii;
    class       volScalarField;
    location    "70";
    object      yPlus;
}
// * * * * * * * * * * * * * * * * * * * * * * * * * * * * * * * * * * * * * //

dimensions      [0 0 0 0 0 0 0];


internalField   uniform 0;

boundaryField
{
    inlet
    {
        type            calculated;
        value           uniform 0;
    }
    outlet
    {
        type            calculated;
        value           uniform 0;
    }
    lowerSymmetry
    {
        type            symmetryPlane;
    }
    obstical
    {
        type            calculated;
        value           nonuniform List<scalar> 
88
(
540.522
541.63
544.805
550.487
558.595
569.006
581.585
596.198
612.708
630.976
650.864
672.235
694.96
718.916
743.992
770.089
797.116
824.998
853.669
883.077
913.178
943.94
975.341
1007.37
1040.01
1073.26
1107.14
1141.66
1176.82
1212.66
1249.18
1286.41
1324.38
1363.11
1402.61
1442.92
1484.05
1526.02
1568.86
1612.6
1657.26
1702.9
1749.85
1802.08
106.306
101.47
99.3718
98.1909
97.7354
97.8644
98.4629
99.4383
100.718
102.244
103.972
105.865
107.893
110.031
112.257
114.551
116.895
119.268
121.646
123.994
126.249
128.325
130.137
131.597
132.603
133.041
132.773
131.646
129.489
126.122
121.359
115.025
106.952
96.9968
85.0434
71.0067
54.7905
36.2655
17.046
26.6914
51.9134
79.0867
108.237
139.828
)
;
    }
    obsticalTop
    {
        type            calculated;
        value           nonuniform List<scalar> 
20
(
51.9232
35.3481
44.6572
51.3049
54.4495
56.33
57.1391
57.084
56.3789
55.1698
53.4561
51.1622
48.2266
44.5221
40.0277
34.1932
28.4968
19.8581
17.9991
11.1189
)
;
    }
    top
    {
        type            calculated;
        value           uniform 0;
    }
    defaultFaces
    {
        type            empty;
    }
}


// ************************************************************************* //
