/*--------------------------------*- C++ -*----------------------------------*\
| =========                 |                                                 |
| \\      /  F ield         | OpenFOAM: The Open Source CFD Toolbox           |
|  \\    /   O peration     | Version:  v1912                                 |
|   \\  /    A nd           | Website:  www.openfoam.com                      |
|    \\/     M anipulation  |                                                 |
\*---------------------------------------------------------------------------*/
FoamFile
{
    version     2.0;
    format      ascii;
    class       volScalarField;
    location    "1000";
    object      yPlus;
}
// * * * * * * * * * * * * * * * * * * * * * * * * * * * * * * * * * * * * * //

dimensions      [0 0 0 0 0 0 0];


internalField   uniform 0;

boundaryField
{
    inlet
    {
        type            calculated;
        value           uniform 0;
    }
    outlet
    {
        type            calculated;
        value           uniform 0;
    }
    top
    {
        type            calculated;
        value           uniform 0;
    }
    plate
    {
        type            calculated;
        value           nonuniform List<scalar> 
80
(
94.2693
81.7775
76.2306
76.7357
77.2365
76.4471
75.3209
74.2584
73.3312
72.5205
71.8018
71.1571
70.5732
70.0407
69.5524
69.1022
68.6852
68.2973
67.935
67.5956
67.2764
66.9754
66.6908
66.421
66.1646
65.9204
65.6875
65.4649
65.2517
65.0473
64.851
64.6623
64.4806
64.3054
64.1363
63.973
63.815
63.6622
63.5141
63.3705
63.2311
63.0958
62.9643
62.8363
62.7119
62.5907
62.4726
62.3574
62.2451
62.1355
62.0285
61.924
61.8219
61.7219
61.6242
61.5286
61.435
61.3433
61.2535
61.1654
61.0791
60.9944
60.9114
60.8298
60.7498
60.6712
60.594
60.5181
60.4434
60.3701
60.2979
60.2268
60.1569
60.0878
60.0204
59.9514
59.8896
59.8113
59.7744
59.6613
)
;
    }
    front
    {
        type            symmetryPlane;
    }
    defaultFaces
    {
        type            empty;
    }
}


// ************************************************************************* //
