# Wall shear stress
# Time        	patch         	min           	max           
0             	upperWall	(0.000000e+00 0.000000e+00 0.000000e+00)	(0.000000e+00 4.211847e-02 0.000000e+00)
0             	lowerWall	(0.000000e+00 -4.211847e-02 0.000000e+00)	(0.000000e+00 0.000000e+00 0.000000e+00)
100           	upperWall	(-4.690404e-01 -4.808125e-02 -3.876108e-17)	(-1.103403e-01 3.817164e-02 2.502036e-17)
100           	lowerWall	(-6.114917e-01 -1.170313e-01 -5.101515e-18)	(1.419567e-01 7.877796e-02 4.341253e-18)
200           	upperWall	(-4.690432e-01 -4.808157e-02 -3.381455e-17)	(-1.104894e-01 3.866623e-02 1.911350e-17)
200           	lowerWall	(-6.114888e-01 -1.171057e-01 -5.606973e-18)	(9.239217e-02 7.878423e-02 4.553336e-18)
280           	upperWall	(-4.690432e-01 -4.808157e-02 -3.084921e-17)	(-1.172559e-01 3.617999e-02 1.908567e-17)
280           	lowerWall	(-6.114888e-01 -1.171504e-01 -5.739544e-18)	(9.092631e-02 7.878407e-02 4.440444e-18)
