/*--------------------------------*- C++ -*----------------------------------*\
| =========                 |                                                 |
| \\      /  F ield         | OpenFOAM: The Open Source CFD Toolbox           |
|  \\    /   O peration     | Version:  v1912                                 |
|   \\  /    A nd           | Website:  www.openfoam.com                      |
|    \\/     M anipulation  |                                                 |
\*---------------------------------------------------------------------------*/
FoamFile
{
    version     2.0;
    format      ascii;
    class       volScalarField;
    location    "700";
    object      p;
}
// * * * * * * * * * * * * * * * * * * * * * * * * * * * * * * * * * * * * * //

dimensions      [0 2 -2 0 0 0 0];


internalField   nonuniform List<scalar> 
10000
(
0.00230335
0.0023063
0.00231432
0.00232659
0.00234315
0.00236442
0.0023908
0.00242288
0.00246127
0.0025072
0.00256159
0.00262709
0.00270411
0.00280148
0.0029131
0.0030766
0.00323834
0.00360968
0.00381907
0.00574943
0.00230335
0.0023063
0.00231432
0.00232659
0.00234315
0.00236442
0.0023908
0.00242288
0.00246126
0.00250719
0.00256159
0.00262709
0.0027041
0.00280146
0.00291309
0.00307654
0.00323832
0.00360933
0.00381904
0.0056689
0.00230334
0.0023063
0.00231431
0.00232658
0.00234314
0.00236441
0.00239079
0.00242287
0.00246125
0.00250718
0.00256157
0.00262707
0.00270408
0.00280143
0.00291305
0.00307646
0.00323826
0.00360882
0.00381853
0.00552829
0.00230334
0.00230629
0.00231431
0.00232658
0.00234313
0.0023644
0.00239078
0.00242286
0.00246124
0.00250717
0.00256155
0.00262704
0.00270405
0.00280138
0.002913
0.00307634
0.00323815
0.00360807
0.00381762
0.00544582
0.00230333
0.00230628
0.00231429
0.00232656
0.00234312
0.00236439
0.00239077
0.00242284
0.00246122
0.00250714
0.00256152
0.002627
0.002704
0.00280131
0.00291291
0.00307615
0.00323798
0.00360702
0.00381655
0.0053914
0.00230331
0.00230626
0.00231428
0.00232655
0.0023431
0.00236437
0.00239075
0.00242281
0.00246119
0.00250711
0.00256148
0.00262695
0.00270394
0.00280122
0.0029128
0.00307591
0.00323775
0.00360564
0.00381536
0.00534239
0.00230329
0.00230624
0.00231426
0.00232653
0.00234308
0.00236434
0.00239072
0.00242278
0.00246115
0.00250706
0.00256143
0.00262688
0.00270386
0.00280109
0.00291265
0.00307559
0.00323744
0.00360392
0.00381394
0.00529261
0.00230327
0.00230621
0.00231423
0.0023265
0.00234305
0.00236431
0.00239068
0.00242274
0.00246111
0.00250701
0.00256136
0.0026268
0.00270375
0.00280094
0.00291246
0.00307519
0.00323705
0.00360181
0.00381223
0.00524181
0.00230324
0.00230618
0.00231419
0.00232646
0.00234301
0.00236427
0.00239064
0.00242269
0.00246105
0.00250694
0.00256128
0.00262669
0.00270363
0.00280074
0.00291223
0.00307469
0.00323656
0.00359927
0.00381015
0.00518954
0.0023032
0.00230614
0.00231415
0.00232642
0.00234297
0.00236422
0.00239058
0.00242263
0.00246098
0.00250685
0.00256118
0.00262656
0.00270347
0.00280051
0.00291194
0.00307408
0.00323595
0.00359626
0.00380765
0.00513576
0.00230316
0.0023061
0.0023141
0.00232637
0.00234292
0.00236416
0.00239052
0.00242255
0.00246089
0.00250675
0.00256106
0.0026264
0.00270328
0.00280022
0.00291159
0.00307336
0.00323521
0.00359273
0.00380463
0.00508015
0.00230311
0.00230604
0.00231404
0.00232631
0.00234285
0.00236409
0.00239044
0.00242246
0.00246079
0.00250663
0.00256091
0.00262621
0.00270305
0.00279987
0.00291117
0.00307249
0.00323432
0.00358864
0.00380104
0.00502287
0.00230304
0.00230597
0.00231397
0.00232624
0.00234277
0.002364
0.00239034
0.00242236
0.00246067
0.00250648
0.00256073
0.00262599
0.00270277
0.00279947
0.00291068
0.00307147
0.00323326
0.00358393
0.0037968
0.00496382
0.00230297
0.00230589
0.00231389
0.00232615
0.00234268
0.0023639
0.00239023
0.00242223
0.00246053
0.00250631
0.00256053
0.00262572
0.00270245
0.00279899
0.00291009
0.00307028
0.00323199
0.00357856
0.00379183
0.00490323
0.00230288
0.0023058
0.00231379
0.00232605
0.00234257
0.00236379
0.0023901
0.00242208
0.00246036
0.00250611
0.00256028
0.00262541
0.00270207
0.00279843
0.00290941
0.0030689
0.00323051
0.00357248
0.00378606
0.00484107
0.00230278
0.00230569
0.00231367
0.00232593
0.00234245
0.00236365
0.00238995
0.00242191
0.00246016
0.00250588
0.00256
0.00262505
0.00270163
0.00279778
0.0029086
0.00306729
0.00322876
0.00356563
0.00377941
0.00477754
0.00230266
0.00230556
0.00231354
0.0023258
0.0023423
0.00236349
0.00238977
0.00242171
0.00245993
0.0025056
0.00255967
0.00262463
0.00270111
0.00279702
0.00290767
0.00306545
0.00322672
0.00355795
0.00377178
0.00471267
0.00230253
0.00230541
0.00231339
0.00232564
0.00234214
0.00236331
0.00238957
0.00242148
0.00245966
0.00250529
0.00255929
0.00262415
0.00270052
0.00279615
0.00290659
0.00306334
0.00322435
0.00354941
0.0037631
0.00464668
0.00230237
0.00230525
0.00231321
0.00232546
0.00234194
0.00236309
0.00238933
0.00242121
0.00245936
0.00250492
0.00255886
0.00262359
0.00269983
0.00279515
0.00290534
0.00306094
0.00322161
0.00353993
0.00375325
0.0045796
0.00230219
0.00230505
0.002313
0.00232525
0.00234172
0.00236285
0.00238906
0.0024209
0.002459
0.0025045
0.00255835
0.00262295
0.00269904
0.002794
0.00290391
0.00305821
0.00321845
0.00352949
0.00374215
0.00451167
0.00230198
0.00230483
0.00231277
0.00232501
0.00234146
0.00236257
0.00238875
0.00242055
0.0024586
0.00250402
0.00255777
0.00262221
0.00269813
0.00279269
0.00290226
0.00305512
0.00321482
0.00351802
0.00372968
0.00444297
0.00230173
0.00230457
0.0023125
0.00232473
0.00234117
0.00236224
0.00238839
0.00242014
0.00245813
0.00250347
0.00255711
0.00262137
0.00269709
0.00279119
0.00290038
0.00305164
0.00321067
0.00350549
0.00371576
0.00437373
0.00230146
0.00230428
0.00231219
0.00232441
0.00234083
0.00236188
0.00238798
0.00241968
0.0024576
0.00250284
0.00255636
0.00262041
0.0026959
0.0027895
0.00289822
0.00304773
0.00320592
0.00349185
0.00370026
0.00430407
0.00230114
0.00230394
0.00231184
0.00232405
0.00234044
0.00236145
0.00238751
0.00241915
0.00245699
0.00250212
0.00255549
0.00261932
0.00269454
0.00278757
0.00289577
0.00304335
0.00320053
0.00347708
0.00368311
0.00423422
0.00230078
0.00230356
0.00231144
0.00232364
0.00234001
0.00236098
0.00238698
0.00241855
0.0024563
0.0025013
0.00255451
0.00261808
0.002693
0.0027854
0.00289299
0.00303846
0.00319441
0.00346112
0.00366419
0.00416431
0.00230037
0.00230313
0.00231098
0.00232317
0.00233951
0.00236043
0.00238637
0.00241786
0.00245552
0.00250037
0.0025534
0.00261668
0.00269125
0.00278295
0.00288983
0.00303301
0.00318751
0.00344396
0.00364343
0.00409457
0.0022999
0.00230264
0.00231047
0.00232264
0.00233894
0.00235981
0.00238569
0.00241709
0.00245463
0.00249932
0.00255213
0.00261509
0.00268927
0.00278019
0.00288626
0.00302697
0.00317973
0.00342557
0.00362074
0.00402512
0.00229937
0.00230209
0.00230988
0.00232204
0.0023383
0.00235911
0.00238491
0.00241621
0.00245362
0.00249813
0.0025507
0.0026133
0.00268703
0.00277709
0.00288223
0.00302028
0.00317101
0.00340593
0.00359608
0.00395617
0.00229876
0.00230146
0.00230922
0.00232135
0.00233757
0.00235832
0.00238403
0.00241522
0.00245248
0.00249678
0.00254909
0.00261128
0.0026845
0.00277361
0.00287769
0.0030129
0.00316127
0.00338502
0.00356939
0.00388784
0.00229808
0.00230075
0.00230848
0.00232058
0.00233675
0.00235742
0.00238303
0.00241409
0.00245119
0.00249526
0.00254726
0.002609
0.00268165
0.00276972
0.0028726
0.00300476
0.00315043
0.00336284
0.00354068
0.00382028
0.0022973
0.00229994
0.00230763
0.0023197
0.00233582
0.0023564
0.00238191
0.00241282
0.00244973
0.00249354
0.00254521
0.00260645
0.00267844
0.00276537
0.0028669
0.00299583
0.00313842
0.00333937
0.00350992
0.00375358
0.00229642
0.00229904
0.00230668
0.00231871
0.00233477
0.00235526
0.00238064
0.00241139
0.00244809
0.00249161
0.0025429
0.00260358
0.00267485
0.00276053
0.00286054
0.00298603
0.00312516
0.00331461
0.00347717
0.00368784
0.00229543
0.00229801
0.00230561
0.0023176
0.00233359
0.00235397
0.00237921
0.00240978
0.00244624
0.00248944
0.0025403
0.00260036
0.00267082
0.00275515
0.00285345
0.00297532
0.00311059
0.00328856
0.00344246
0.00362311
0.00229431
0.00229686
0.00230441
0.00231634
0.00233225
0.00235252
0.0023776
0.00240797
0.00244416
0.002487
0.00253738
0.00259676
0.00266631
0.00274917
0.00284558
0.00296365
0.00309465
0.00326122
0.00340589
0.00355944
0.00229305
0.00229557
0.00230305
0.00231493
0.00233075
0.00235088
0.00237579
0.00240593
0.00244183
0.00248427
0.00253412
0.00259274
0.00266129
0.00274254
0.00283686
0.00295094
0.00307729
0.00323259
0.00336755
0.00349684
0.00229162
0.00229411
0.00230153
0.00231334
0.00232906
0.00234905
0.00237376
0.00240365
0.00243921
0.00248121
0.00253047
0.00258826
0.00265569
0.00273521
0.00282724
0.00293715
0.00305847
0.00320269
0.00332759
0.00343531
0.00229002
0.00229247
0.00229982
0.00231155
0.00232716
0.00234698
0.00237148
0.00240108
0.00243628
0.00247778
0.00252639
0.00258327
0.00264947
0.00272712
0.00281665
0.00292222
0.00303815
0.00317152
0.00328613
0.00337481
0.00228821
0.00229063
0.0022979
0.00230954
0.00232503
0.00234467
0.00236893
0.00239822
0.002433
0.00247396
0.00252184
0.00257772
0.00264258
0.00271822
0.00280504
0.00290609
0.00301633
0.00313912
0.00324334
0.00331534
0.00228619
0.00228856
0.00229576
0.00230729
0.00232264
0.00234208
0.00236607
0.00239501
0.00242934
0.00246969
0.00251678
0.00257157
0.00263495
0.00270844
0.00279234
0.00288873
0.00299298
0.0031055
0.00319938
0.00325683
0.00228391
0.00228625
0.00229335
0.00230477
0.00231996
0.00233918
0.00236287
0.00239142
0.00242525
0.00246494
0.00251115
0.00256475
0.00262653
0.00269772
0.0027785
0.00287008
0.00296813
0.0030707
0.00315441
0.00319926
0.00228136
0.00228365
0.00229066
0.00230195
0.00231697
0.00233593
0.00235929
0.00238742
0.0024207
0.00245966
0.00250491
0.00255722
0.00261726
0.002686
0.00276346
0.00285011
0.00294178
0.00303476
0.0031086
0.00314256
0.00227849
0.00228075
0.00228764
0.00229879
0.00231361
0.00233231
0.0023553
0.00238296
0.00241563
0.0024538
0.002498
0.00254891
0.00260709
0.00267323
0.00274719
0.0028288
0.00291396
0.00299773
0.00306212
0.00308672
0.00227529
0.0022775
0.00228428
0.00229526
0.00230987
0.00232826
0.00235086
0.002378
0.00241
0.0024473
0.00249037
0.00253976
0.00259594
0.00265934
0.00272963
0.00280611
0.00288472
0.00295968
0.00301509
0.00303166
0.0022717
0.00227387
0.00228052
0.00229133
0.00230569
0.00232375
0.00234591
0.00237248
0.00240376
0.00244011
0.00248194
0.00252972
0.00258376
0.00264428
0.00271076
0.00278204
0.00285409
0.00292067
0.00296765
0.00297738
0.0022677
0.00226981
0.00227633
0.00228694
0.00230103
0.00231873
0.00234041
0.00236636
0.00239684
0.00243217
0.00247268
0.00251872
0.00257049
0.002628
0.00269053
0.00275659
0.00282214
0.00288076
0.00291992
0.00292381
0.00226323
0.00226529
0.00227166
0.00228205
0.00229585
0.00231315
0.0023343
0.00235958
0.0023892
0.00242341
0.0024625
0.0025067
0.00255608
0.00261045
0.00266894
0.00272977
0.00278893
0.00284005
0.00287201
0.00287095
0.00225824
0.00226025
0.00226646
0.00227661
0.00229009
0.00230695
0.00232753
0.00235207
0.00238076
0.00241379
0.00245135
0.0024936
0.00254046
0.0025916
0.00264597
0.00270159
0.00275452
0.0027986
0.002824
0.00281876
0.00225269
0.00225464
0.00226068
0.00227056
0.00228369
0.00230008
0.00232004
0.00234379
0.00237147
0.00240322
0.00243917
0.00247935
0.00252361
0.00257142
0.00262162
0.00267208
0.00271899
0.00275649
0.00277596
0.00276721
0.00224651
0.0022484
0.00225426
0.00226385
0.00227659
0.00229247
0.00231176
0.00233465
0.00236126
0.00239165
0.00242589
0.00246392
0.00250546
0.00254987
0.00259588
0.00264129
0.00268242
0.00271381
0.00272794
0.00271626
0.00223965
0.00224147
0.00224714
0.00225642
0.00226873
0.00228405
0.00230262
0.0023246
0.00235006
0.00237901
0.00241145
0.00244723
0.00248597
0.00252694
0.00256878
0.00260925
0.00264487
0.00267063
0.00268001
0.0026659
0.00223204
0.00223379
0.00223924
0.00224819
0.00226004
0.00227476
0.00229256
0.00231357
0.0023378
0.00236523
0.00239579
0.00242924
0.00246513
0.00250263
0.00254033
0.00257602
0.00260643
0.00262703
0.0026322
0.00261609
0.0022236
0.00222528
0.00223051
0.00223909
0.00225045
0.00226453
0.00228151
0.00230147
0.00232442
0.00235026
0.00237885
0.00240991
0.00244291
0.00247693
0.00251056
0.00254166
0.00256717
0.00258306
0.00258453
0.00256681
0.00221427
0.00221586
0.00222086
0.00222905
0.00223988
0.00225328
0.00226938
0.00228825
0.00230984
0.00233402
0.00236059
0.00238921
0.00241928
0.00244985
0.00247952
0.00250622
0.00252717
0.00253879
0.00253703
0.00251801
0.00220396
0.00220547
0.00221021
0.00221799
0.00222826
0.00224093
0.00225611
0.00227383
0.002294
0.00231646
0.00234096
0.0023671
0.00239424
0.00242141
0.00244724
0.00246978
0.0024865
0.00249428
0.00248971
0.00246967
0.00219259
0.00219402
0.00219849
0.00220582
0.0022155
0.00222741
0.00224162
0.00225813
0.00227684
0.00229753
0.00231992
0.00234356
0.00236778
0.00239163
0.00241377
0.00243239
0.00244522
0.00244956
0.00244257
0.00242175
0.00218008
0.00218141
0.0021856
0.00219248
0.00220153
0.00221263
0.00222583
0.0022411
0.00225829
0.00227718
0.00229743
0.00231857
0.00233992
0.00236055
0.00237916
0.00239412
0.00240339
0.00240467
0.00239561
0.00237422
0.00216633
0.00216757
0.00217147
0.00217785
0.00218625
0.00219651
0.00220867
0.00222265
0.00223831
0.00225536
0.00227346
0.00229213
0.00231067
0.00232818
0.00234346
0.00235502
0.00236107
0.00235966
0.00234884
0.00232704
0.00215126
0.00215241
0.00215599
0.00216187
0.00216959
0.00217899
0.00219006
0.00220274
0.00221682
0.00223203
0.002248
0.00226423
0.00228005
0.00229458
0.00230674
0.00231516
0.00231831
0.00231453
0.00230223
0.00228018
0.00213477
0.00213582
0.00213909
0.00214445
0.00215146
0.00215997
0.00216994
0.00218129
0.0021938
0.00220717
0.00222103
0.00223488
0.00224807
0.00225979
0.00226903
0.00227459
0.00227515
0.00226931
0.00225578
0.00223361
0.00211678
0.00211772
0.00212067
0.00212549
0.00213179
0.00213939
0.00214825
0.00215826
0.00216919
0.00218074
0.00219254
0.00220409
0.00221478
0.00222385
0.0022304
0.00223336
0.00223162
0.002224
0.00220947
0.00218728
0.00209719
0.00209803
0.00210065
0.00210493
0.00211049
0.00211718
0.00212492
0.0021336
0.00214297
0.00215274
0.00216253
0.00217187
0.0021802
0.00218681
0.00219088
0.00219152
0.00218774
0.00217861
0.00216328
0.00214117
0.00207592
0.00207665
0.00207894
0.00208267
0.0020875
0.00209327
0.00209991
0.00210726
0.00211511
0.00212314
0.00213101
0.00213826
0.00214437
0.0021487
0.00215053
0.00214908
0.00214354
0.00213313
0.00211718
0.00209522
0.00205289
0.00205351
0.00205547
0.00205865
0.00206275
0.00206762
0.00207316
0.00207922
0.00208558
0.00209196
0.00209799
0.00210328
0.00210732
0.00210957
0.00210938
0.0021061
0.00209904
0.00208756
0.00207114
0.00204941
0.00202801
0.00202853
0.00203016
0.0020328
0.00203618
0.00204016
0.00204463
0.00204945
0.00205439
0.00205918
0.00206349
0.00206694
0.00206909
0.00206945
0.00206747
0.00206258
0.00205423
0.00204188
0.00202513
0.0020037
0.00200123
0.00200165
0.00200295
0.00200506
0.00200775
0.00201087
0.00201431
0.00201793
0.00202152
0.00202482
0.00202752
0.00202929
0.00202972
0.00202839
0.00202483
0.00201855
0.00200911
0.00199607
0.00197912
0.00195803
0.00197248
0.0019728
0.0019738
0.0019754
0.00197741
0.0019797
0.00198217
0.00198466
0.00198698
0.00198889
0.00199011
0.00199034
0.00198923
0.00198641
0.00198147
0.00197402
0.00196368
0.00195012
0.00193307
0.00191238
0.00194172
0.00194195
0.00194265
0.00194376
0.00194514
0.00194665
0.00194819
0.00194963
0.00195077
0.00195141
0.00195129
0.00195014
0.00194766
0.00194353
0.00193741
0.00192898
0.00191793
0.00190398
0.00188694
0.00186669
0.00190892
0.00190906
0.00190948
0.00191014
0.00191091
0.0019117
0.00191239
0.00191285
0.00191292
0.0019124
0.00191108
0.00190871
0.00190504
0.00189979
0.00189268
0.00188344
0.00187183
0.00185764
0.0018407
0.00182092
0.00187405
0.00187411
0.00187427
0.00187451
0.00187473
0.00187485
0.00187476
0.00187434
0.00187344
0.0018719
0.00186951
0.00186608
0.00186138
0.00185519
0.00184726
0.00183739
0.00182538
0.00181105
0.00179429
0.00177503
0.00183712
0.0018371
0.00183703
0.00183688
0.0018366
0.00183611
0.00183532
0.00183412
0.00183237
0.00182992
0.00182662
0.00182228
0.00181672
0.00180975
0.00180117
0.00179082
0.00177853
0.00176418
0.00174767
0.00172896
0.00179813
0.00179804
0.00179776
0.00179726
0.00179654
0.00179552
0.00179411
0.00179222
0.00178973
0.00178652
0.00178243
0.00177734
0.00177107
0.00176347
0.0017544
0.00174371
0.00173128
0.001717
0.00170081
0.00168266
0.00175711
0.00175696
0.0017565
0.0017557
0.00175459
0.0017531
0.00175117
0.00174869
0.00174557
0.00174171
0.00173698
0.00173127
0.00172445
0.00171638
0.00170695
0.00169605
0.00168358
0.00166946
0.00165364
0.0016361
0.0017141
0.0017139
0.00171328
0.00171223
0.00171078
0.00170891
0.00170653
0.00170356
0.00169993
0.00169554
0.0016903
0.00168411
0.00167687
0.00166846
0.00165881
0.00164781
0.00163541
0.00162152
0.00160613
0.00158921
0.00166916
0.00166892
0.00166817
0.0016669
0.00166519
0.00166299
0.00166025
0.00165689
0.00165285
0.00164805
0.00164243
0.00163589
0.00162835
0.00161973
0.00160997
0.00159898
0.00158673
0.00157315
0.00155823
0.00154196
0.00162236
0.00162209
0.00162123
0.0016198
0.00161786
0.00161542
0.00161239
0.00160874
0.00160439
0.00159929
0.00159339
0.00158661
0.0015789
0.00157019
0.00156042
0.00154954
0.00153751
0.0015243
0.0015099
0.00149429
0.00157378
0.00157348
0.00157254
0.00157098
0.00156889
0.00156626
0.00156303
0.00155916
0.0015546
0.0015493
0.00154323
0.00153633
0.00152854
0.00151983
0.00151015
0.00149946
0.00148773
0.00147494
0.00146108
0.00144615
0.00152351
0.0015232
0.0015222
0.00152055
0.00151835
0.00151559
0.00151223
0.00150822
0.00150353
0.00149813
0.00149198
0.00148505
0.00147729
0.00146867
0.00145916
0.00144873
0.00143736
0.00142504
0.00141176
0.00139752
0.00147165
0.00147133
0.0014703
0.0014686
0.00146633
0.0014635
0.00146007
0.001456
0.00145126
0.00144583
0.00143969
0.00143281
0.00142516
0.00141671
0.00140744
0.00139733
0.00138637
0.00137455
0.00136188
0.00134835
0.00141832
0.00141799
0.00141695
0.00141522
0.00141293
0.00141007
0.00140663
0.00140256
0.00139784
0.00139246
0.0013864
0.00137965
0.00137217
0.00136395
0.00135498
0.00134525
0.00133475
0.00132347
0.00131142
0.0012986
0.00136361
0.00136328
0.00136224
0.00136052
0.00135824
0.00135541
0.001352
0.00134798
0.00134334
0.00133807
0.00133216
0.00132558
0.00131834
0.00131042
0.0013018
0.00129249
0.00128248
0.00127176
0.00126034
0.00124824
0.00130763
0.00130731
0.00130629
0.0013046
0.00130236
0.00129959
0.00129625
0.00129233
0.00128782
0.00128271
0.001277
0.00127066
0.00126371
0.00125612
0.0012479
0.00123904
0.00122954
0.0012194
0.00120863
0.00119724
0.00125051
0.00125019
0.0012492
0.00124756
0.00124539
0.00124271
0.00123948
0.0012357
0.00123136
0.00122645
0.00122097
0.00121492
0.00120829
0.00120107
0.00119328
0.00118489
0.00117593
0.00116639
0.00115627
0.0011456
0.00119233
0.00119203
0.00119108
0.00118951
0.00118742
0.00118485
0.00118176
0.00117815
0.00117401
0.00116933
0.00116413
0.00115839
0.00115211
0.0011453
0.00113795
0.00113006
0.00112165
0.00111271
0.00110325
0.00109328
0.00113321
0.00113292
0.00113202
0.00113052
0.00112854
0.0011261
0.00112318
0.00111975
0.00111583
0.00111142
0.00110651
0.00110111
0.00109521
0.00108881
0.00108192
0.00107455
0.00106669
0.00105835
0.00104954
0.00104027
0.00107323
0.00107296
0.00107211
0.0010707
0.00106883
0.00106654
0.00106379
0.00106057
0.0010569
0.00105276
0.00104816
0.00104311
0.0010376
0.00103163
0.00102522
0.00101836
0.00101105
0.00100332
0.00099515
0.000986563
0.00101247
0.00101222
0.00101143
0.00101011
0.00100837
0.00100622
0.00100366
0.00100067
0.000997241
0.000993391
0.000989118
0.000984425
0.000979313
0.000973785
0.000967845
0.000961497
0.000954748
0.000947602
0.000940068
0.000932152
0.000951008
0.000950774
0.000950038
0.00094882
0.000947207
0.000945222
0.00094285
0.00094008
0.000936914
0.000933357
0.000929414
0.000925084
0.000920371
0.000915279
0.000909812
0.000903974
0.00089777
0.000891206
0.00088429
0.000877027
0.000888889
0.000888675
0.000887998
0.000886879
0.000885396
0.000883573
0.000881395
0.000878852
0.000875947
0.000872685
0.00086907
0.000865103
0.000860788
0.000856127
0.000851125
0.000845787
0.000840118
0.000834122
0.000827807
0.000821179
0.000826154
0.000825959
0.000825341
0.000824321
0.00082297
0.000821308
0.000819323
0.000817006
0.000814361
0.000811391
0.000808101
0.000804491
0.000800566
0.000796329
0.000791783
0.000786934
0.000781785
0.000776341
0.000770609
0.000764594
0.00076282
0.000762643
0.000762085
0.000761162
0.00075994
0.000758437
0.000756643
0.000754549
0.000752158
0.000749475
0.000746503
0.000743244
0.0007397
0.000735875
0.000731773
0.000727397
0.000722752
0.000717843
0.000712674
0.00070725
0.000698881
0.000698722
0.000698222
0.000697395
0.000696299
0.000694953
0.000693344
0.000691468
0.000689326
0.000686923
0.00068426
0.000681341
0.000678168
0.000674743
0.000671071
0.000667154
0.000662996
0.000658602
0.000653976
0.000649123
0.000634305
0.000634164
0.00063372
0.000632986
0.000632013
0.000630818
0.00062939
0.000627725
0.000625824
0.00062369
0.000621328
0.000618737
0.000615921
0.000612883
0.000609624
0.000606149
0.00060246
0.000598562
0.000594457
0.000590151
0.000569032
0.000568909
0.000568519
0.000567875
0.000567022
0.000565973
0.000564721
0.00056326
0.000561592
0.000559721
0.000557649
0.000555376
0.000552906
0.000550241
0.000547382
0.000544334
0.000541098
0.000537678
0.000534077
0.000530298
0.000502959
0.000502852
0.000502514
0.000501956
0.000501217
0.000500309
0.000499224
0.000497959
0.000496515
0.000494895
0.0004931
0.000491133
0.000488994
0.000486686
0.000484211
0.000481571
0.000478769
0.000475806
0.000472687
0.000469414
0.00043595
0.00043586
0.000435574
0.000435101
0.000434475
0.000433705
0.000432785
0.000431712
0.000430487
0.000429112
0.00042759
0.00042592
0.000424105
0.000422146
0.000420044
0.000417803
0.000415423
0.000412908
0.000410258
0.000407477
0.00036779
0.000367713
0.000367474
0.000367079
0.000366558
0.000365917
0.000365152
0.000364259
0.000363241
0.000362098
0.000360832
0.000359445
0.000357937
0.000356309
0.000354564
0.000352701
0.000350725
0.000348635
0.000346433
0.000344123
0.000298258
0.0002982
0.000298014
0.000297705
0.000297293
0.000296786
0.000296181
0.000295474
0.000294666
0.000293759
0.000292755
0.000291653
0.000290454
0.00028916
0.000287772
0.000286291
0.000284718
0.000283054
0.000281302
0.000279462
0.000226917
0.000226866
0.000226716
0.000226473
0.000226154
0.000225764
0.000225299
0.000224758
0.000224141
0.000223449
0.000222684
0.000221846
0.000220936
0.000219954
0.000218901
0.000217778
0.000216587
0.000215327
0.000214001
0.000212609
0.000153522
0.000153502
0.000153418
0.00015327
0.000153069
0.00015282
0.00015252
0.00015217
0.000151768
0.000151316
0.000150814
0.000150263
0.000149663
0.000149015
0.00014832
0.000147577
0.000146787
0.000145952
0.000145072
0.000144147
7.70587e-05
7.7021e-05
7.69435e-05
7.68392e-05
7.67135e-05
7.65646e-05
7.63908e-05
7.61919e-05
7.59685e-05
7.57211e-05
7.54497e-05
7.51546e-05
7.48359e-05
7.44939e-05
7.41288e-05
7.3741e-05
7.33308e-05
7.28984e-05
7.24442e-05
7.19685e-05
0.00547117
0.00351459
0.0022244
0.00239763
0.00262186
0.00237443
0.00212278
0.00195327
0.00181645
0.00170057
0.00160228
0.00151716
0.00144088
0.00137256
0.00131048
0.00125357
0.00120088
0.00115192
0.00110615
0.00106313
0.0010225
0.000984049
0.000947537
0.000912755
0.000879525
0.00084774
0.000817265
0.000787993
0.000759818
0.000732674
0.000706482
0.000681171
0.000656676
0.000632964
0.000609976
0.000587673
0.000566008
0.000544951
0.00052447
0.000504534
0.000485112
0.000466182
0.000447722
0.000429708
0.000412119
0.000394941
0.000378155
0.000361746
0.000345699
0.000330002
0.000314644
0.000299612
0.000284897
0.000270491
0.000256387
0.000242576
0.000229054
0.000215817
0.000202861
0.000190186
0.00017779
0.000165675
0.000153846
0.000142309
0.000131074
0.000120152
0.000109565
9.93337e-05
8.95032e-05
8.00937e-05
7.12455e-05
6.28431e-05
5.56064e-05
4.81154e-05
4.52323e-05
3.48467e-05
5.30336e-05
4.10945e-06
0.000154035
-0.000219564
0.00551945
0.00313276
0.00225739
0.00252302
0.00265495
0.00237328
0.00212077
0.0019541
0.00181851
0.00170291
0.00160461
0.00151939
0.00144298
0.00137452
0.0013123
0.00125526
0.00120245
0.00115339
0.00110752
0.00106441
0.00102371
0.00098519
0.000948614
0.000913775
0.000880493
0.00084866
0.000818141
0.000788829
0.000760616
0.000733439
0.000707214
0.000681874
0.000657352
0.000633614
0.000610603
0.000588277
0.000566591
0.000545514
0.000525015
0.000505061
0.000485622
0.000466677
0.000448202
0.000430174
0.000412571
0.00039538
0.000378583
0.000362162
0.000346104
0.000330397
0.000315029
0.000299988
0.000285264
0.000270849
0.000256736
0.000242918
0.000229388
0.000216143
0.00020318
0.000190498
0.000178096
0.000165975
0.000154139
0.000142596
0.000131356
0.000120429
0.000109836
9.95999e-05
8.97646e-05
8.03504e-05
7.14977e-05
6.3091e-05
5.58501e-05
4.83552e-05
4.54682e-05
3.50801e-05
5.32586e-05
4.35569e-06
0.000154244
-0.000219426
0.00545451
0.00309106
0.00233953
0.0025737
0.00266183
0.0023762
0.0021252
0.00195925
0.00182383
0.00170816
0.00160964
0.00152413
0.00144742
0.00137866
0.00131616
0.00125887
0.00120584
0.00115657
0.00111051
0.00106723
0.00102637
0.000987713
0.000951009
0.000916053
0.000882664
0.000850732
0.000820122
0.000790726
0.000762435
0.000735184
0.000708892
0.000683489
0.000658908
0.000635114
0.000612051
0.000589676
0.000567945
0.000546824
0.000526284
0.000506291
0.000486816
0.000467836
0.000449328
0.000431268
0.000413636
0.000396416
0.000379592
0.000363146
0.000347063
0.000331332
0.000315941
0.000300878
0.000286133
0.000271699
0.000257567
0.00024373
0.000230183
0.000216921
0.000203942
0.000191244
0.000178827
0.000166691
0.000154841
0.000143285
0.000132031
0.000121092
0.000110487
0.000100239
9.03919e-05
8.09667e-05
7.21035e-05
6.36864e-05
5.64363e-05
4.89307e-05
4.60383e-05
3.5633e-05
5.38243e-05
4.87185e-06
0.0001549
-0.00021919
0.00540113
0.00313264
0.0023803
0.00257574
0.00265947
0.00238196
0.00213216
0.00196582
0.00183022
0.00171437
0.00161558
0.00152975
0.0014527
0.00138362
0.00132081
0.00126324
0.00120994
0.00116044
0.00111416
0.00107069
0.00102965
0.000990824
0.000953971
0.000918876
0.00088536
0.000853311
0.000822591
0.000793094
0.000764709
0.000737371
0.000710997
0.000685517
0.000660864
0.000637004
0.000613877
0.000591442
0.000569654
0.000548481
0.00052789
0.000507849
0.000488329
0.000469305
0.000450757
0.000432658
0.000414989
0.000397734
0.000380876
0.000364397
0.000348283
0.000332523
0.000317104
0.000302014
0.000287243
0.000272784
0.000258628
0.000244768
0.000231198
0.000217915
0.000204916
0.000192198
0.000179761
0.000167607
0.00015574
0.000144166
0.000132896
0.000121941
0.00011132
0.000101057
9.1196e-05
8.17568e-05
7.28802e-05
6.44499e-05
5.71877e-05
4.96686e-05
4.67678e-05
3.63428e-05
5.45414e-05
5.54193e-06
0.000155746
-0.000218909
0.00535895
0.00315067
0.00239195
0.00257402
0.00265791
0.00238621
0.00213782
0.00197156
0.0018359
0.00171993
0.00162094
0.00153486
0.00145756
0.00138822
0.00132516
0.00126736
0.00121384
0.00116414
0.00111767
0.00107403
0.00103283
0.00099386
0.000956871
0.000921652
0.000888019
0.000855862
0.000825042
0.000795451
0.000766979
0.000739558
0.000713107
0.000687555
0.000662833
0.000638908
0.000615721
0.000593229
0.000571387
0.000550162
0.000529522
0.000509435
0.00048987
0.000470805
0.000452216
0.00043408
0.000416374
0.000399084
0.000382193
0.000365682
0.000349538
0.000333749
0.000318301
0.000303184
0.000288388
0.000273903
0.000259723
0.00024584
0.000232249
0.000218944
0.000205924
0.000193186
0.00018073
0.000168558
0.000156672
0.000145081
0.000133794
0.000122823
0.000112187
0.000101908
9.20324e-05
8.25789e-05
7.36885e-05
6.52447e-05
5.79696e-05
5.04371e-05
4.75246e-05
3.70849e-05
5.52719e-05
6.26309e-06
0.000156609
-0.000218624
0.00531539
0.00315656
0.00240342
0.00257637
0.00265562
0.00238796
0.00214177
0.00197617
0.00184069
0.0017247
0.0016256
0.00153937
0.00146191
0.00139239
0.00132916
0.00127117
0.00121749
0.00116762
0.00112101
0.00107722
0.00103588
0.000996791
0.000959685
0.000924356
0.000890621
0.000858368
0.000827458
0.000797781
0.000769229
0.000741733
0.000715211
0.000689591
0.000664807
0.000640821
0.000617576
0.000595031
0.000573137
0.000551863
0.000531176
0.000511045
0.000491438
0.000472332
0.000453705
0.000435531
0.00041779
0.000400467
0.000383543
0.000367001
0.000350827
0.000335008
0.000319534
0.00030439
0.000289568
0.000275059
0.000260855
0.000246949
0.000233335
0.000220009
0.000206968
0.000194211
0.000181736
0.000169545
0.000157641
0.000146033
0.000134729
0.000123741
0.000113089
0.000102795
9.29044e-05
8.34364e-05
7.45318e-05
6.60742e-05
5.87852e-05
5.12398e-05
4.83119e-05
3.7863e-05
5.60169e-05
7.04413e-06
0.000157471
-0.000218294
0.00526792
0.00316384
0.0024193
0.00257942
0.00265178
0.00238831
0.00214466
0.00197986
0.00184468
0.00172877
0.00162965
0.00154334
0.00146579
0.00139617
0.00133281
0.00127471
0.0012209
0.00117091
0.00112417
0.00108027
0.00103883
0.000999631
0.000962426
0.000927003
0.000893179
0.000860841
0.000829851
0.000800099
0.000771474
0.00074391
0.000717322
0.00069164
0.000666797
0.000642756
0.000619457
0.00059686
0.000574918
0.000553597
0.000532866
0.000512693
0.000493045
0.0004739
0.000455235
0.000437025
0.00041925
0.000401893
0.000384938
0.000368365
0.000352161
0.000336315
0.000320813
0.000305643
0.000290795
0.000276262
0.000262034
0.000248106
0.00023447
0.000221122
0.000208061
0.000195283
0.000182789
0.000170579
0.000158657
0.000147031
0.00013571
0.000124705
0.000114037
0.000103728
9.38218e-05
8.43389e-05
7.54196e-05
6.69478e-05
5.96441e-05
5.20858e-05
4.91384e-05
3.86864e-05
5.67834e-05
7.89716e-06
0.00015832
-0.000217877
0.00521795
0.00317359
0.00243687
0.00258196
0.00264701
0.00238798
0.00214685
0.00198279
0.00184795
0.00173217
0.00163307
0.00154676
0.00146919
0.00139952
0.0013361
0.00127792
0.00122403
0.00117395
0.00112713
0.00108315
0.00104162
0.00100234
0.00096506
0.00092956
0.000895663
0.000863254
0.000832196
0.000802378
0.00077369
0.000746066
0.000719421
0.000693683
0.000668786
0.000644694
0.000621347
0.000598703
0.000576715
0.000555351
0.000534578
0.000514365
0.000494678
0.000475497
0.000456796
0.000438552
0.000420743
0.000403355
0.000386369