/*--------------------------------*- C++ -*----------------------------------*\
| =========                 |                                                 |
| \\      /  F ield         | OpenFOAM: The Open Source CFD Toolbox           |
|  \\    /   O peration     | Version:  v1912                                 |
|   \\  /    A nd           | Website:  www.openfoam.com                      |
|    \\/     M anipulation  |                                                 |
\*---------------------------------------------------------------------------*/
FoamFile
{
    version     2.0;
    format      ascii;
    class       volScalarField;
    location    "330";
    object      nut;
}
// * * * * * * * * * * * * * * * * * * * * * * * * * * * * * * * * * * * * * //

dimensions      [0 2 -1 0 0 0 0];


internalField   nonuniform List<scalar> 
12441
(
5.82196e-24
1.79052e-20
8.10491e-20
3.3254e-19
1.0683e-18
3.88831e-18
1.01056e-17
2.50048e-17
6.13834e-17
1.27528e-16
3.05659e-16
7.71937e-16
2.17617e-15
7.40477e-15
1.03696e-13
1.89507e-11
0.000194958
0.000957728
0.00307771
0.00264197
0.0036462
0.00775321
6.34199e-24
3.03349e-20
1.11731e-19
4.23946e-19
1.30209e-18
4.80729e-18
1.21985e-17
3.00099e-17
7.36094e-17
1.54451e-16
3.79809e-16
1.02992e-15
2.8214e-15
9.37623e-15
1.13107e-13
3.90005e-11
5.79358e-05
0.00116169
0.0035241
0.00287638
0.00400853
0.00781733
6.36475e-24
3.58954e-20
1.20778e-19
4.48129e-19
1.37773e-18
4.90672e-18
1.29289e-17
3.20409e-17
8.05138e-17
1.7177e-16
4.17895e-16
1.11826e-15
2.77766e-15
7.6678e-15
5.35519e-14
6.57457e-12
1.11233e-05
0.000852441
0.00140476
0.00271364
0.0041615
0.0078909
6.31921e-24
3.76916e-20
1.18533e-19
4.29307e-19
1.32534e-18
4.71354e-18
1.25133e-17
3.13267e-17
7.84939e-17
1.73672e-16
4.23765e-16
1.1548e-15
2.60413e-15
8.47496e-15
3.85157e-14
1.54299e-12
1.62687e-06
0.000594575
0.00104759
0.0026365
0.0043241
0.0079647
6.28518e-24
4.3883e-20
1.29778e-19
4.58312e-19
1.40268e-18
4.7793e-18
1.30908e-17
3.27944e-17
8.42972e-17
1.87523e-16
4.54171e-16
1.28556e-15
3.01104e-15
4.07341e-14
2.47347e-13
2.29793e-12
1.39745e-07
0.000419876
0.00102818
0.00262371
0.00446453
0.00803394
6.235e-24
4.12879e-20
1.20539e-19
4.29186e-19
1.34271e-18
4.62204e-18
1.27503e-17
3.23927e-17
8.28935e-17
1.92685e-16
4.76954e-16
1.44654e-15
4.52193e-15
1.32902e-12
1.19004e-11
5.10259e-11
4.58792e-07
0.000386071
0.00109482
0.00268069
0.00459121
0.00809948
6.2001e-24
5.02638e-20
1.37795e-19
4.75766e-19
1.46013e-18
4.79242e-18
1.3593e-17
3.44532e-17
9.07019e-17
2.11123e-16
5.20851e-16
2.00144e-15
2.4957e-14
4.14734e-11
6.58258e-10
9.37296e-09
1.87482e-05
0.000404845
0.00128173
0.00286559
0.00473696
0.00816218
6.15032e-24
4.34521e-20
1.23171e-19
4.40155e-19
1.40815e-18
4.72274e-18
1.35121e-17
3.48445e-17
9.13189e-17
2.23847e-16
5.72521e-16
5.43965e-15
6.08373e-13
2.25367e-09
8.41886e-08
4.97634e-06
0.000195519
0.000465518
0.00173587
0.0032432
0.00492782
0.00822577
6.11754e-24
5.57041e-20
1.4613e-19
4.99674e-19
1.5541e-18
4.9586e-18
1.46116e-17
3.75702e-17
1.02074e-16
2.50945e-16
6.45357e-16
6.13903e-14
2.58349e-11
7.43022e-08
1.04441e-05
0.000154631
0.000804453
0.000832538
0.00267786
0.00388771
0.00519624
0.00829204
6.07068e-24
4.43495e-20
1.25435e-19
4.56628e-19
1.50752e-18
4.95357e-18
1.47473e-17
3.87249e-17
1.04878e-16
2.7512e-16
7.48635e-16
1.68309e-12
1.08084e-09
4.43688e-06
0.000192008
0.00062126
0.00171901
0.00158389
0.00441323
0.00487737
0.00555567
0.00836448
6.04152e-24
6.02601e-20
1.53434e-19
5.25904e-19
1.6727e-18
5.20589e-18
1.60249e-17
4.20341e-17
1.19294e-16
3.17369e-16
8.92088e-16
5.23414e-11
5.48982e-08
8.22846e-05
0.000729068
0.00174211
0.00380298
0.00318004
0.00739377
0.00631249
0.00601932
0.00844366
5.9961e-24
4.46289e-20
1.27736e-19
4.7694e-19
1.63367e-18
5.2809e-18
1.64021e-17
4.40645e-17
1.25499e-16
3.6463e-16
1.15863e-15
1.45765e-09
3.24072e-06
0.00034971
0.00161831
0.00395764
0.00802962
0.00641553
0.0120831
0.00823749
0.00657603
0.00853143
5.9705e-24
6.41495e-20
1.6045e-19
5.53807e-19
1.81494e-18
5.54186e-18
1.79083e-17
4.82214e-17
1.46703e-16
4.44726e-16
1.69457e-15
3.52426e-08
7.25989e-05
0.00110433
0.00404085
0.00886234
0.0161426
0.012385
0.018645
0.0106337
0.00721641
0.00862633
5.92652e-24
4.43253e-20
1.2967e-19
4.99311e-19
1.78318e-18
5.69186e-18
1.85323e-17
5.13832e-17
1.59851e-16
5.59154e-16
3.60141e-15
7.97115e-07
0.000348848
0.00288845
0.00906858
0.0178865
0.0296836
0.0220175
0.0267664
0.0133745
0.00790815
0.00872852
5.90415e-24
6.75158e-20
1.66654e-19
5.82619e-19
1.97798e-18
5.94007e-18
2.02689e-17
5.67819e-17
1.96055e-16
7.78708e-16
1.65172e-14
1.52041e-05
0.00114861
0.00688424
0.0181975
0.0322509
0.0493253
0.0354175
0.0356515
0.0163015
0.00863103
0.00883515
5.86046e-24
4.3959e-20
1.31997e-19
5.24804e-19
1.95778e-18
6.1855e-18
2.1202e-17
6.16785e-17
2.28168e-16
1.21627e-15
3.02162e-13
0.00013801
0.00289175
0.0142829
0.0325628
0.0523328
0.0743049
0.0514115
0.0443259
0.0192149
0.0093484
0.00894576
5.84138e-24
7.05406e-20
1.73504e-19
6.15121e-19
2.17059e-18
6.4395e-18
2.33105e-17
6.93777e-17
3.08233e-16
2.30494e-15
1.26024e-11
0.000529451
0.00666454
0.0261144
0.0521778
0.0774413
0.102165
0.0677652
0.0519336
0.021976
0.0100455
0.00905718
5.79742e-24
4.35024e-20
1.34493e-19
5.53139e-19
2.16066e-18
6.77157e-18
2.46183e-17
7.72296e-17
4.08469e-16
5.44565e-15
5.47986e-10
0.00137043
0.0134595
0.0428418
0.0764988
0.105599
0.129149
0.0819805
0.05804
0.0244626
0.0106951
0.00916919
5.78107e-24
7.32644e-20
1.80289e-19
6.49137e-19
2.38801e-18
7.01166e-18
2.71826e-17
8.90709e-17
6.61732e-16
1.69231e-14
4.40846e-08
0.00336538
0.0242421
0.0637213
0.103552
0.13391
0.151254
0.0923554
0.062602
0.0266429
0.011297
0.00927899
5.73653e-24
4.30536e-20
1.36872e-19
5.8241e-19
2.38689e-18
7.4382e-18
2.90075e-17
1.02317e-16
1.08044e-15
7.52722e-14
8.5543e-06
0.00719977
0.0391829
0.0876779
0.13123
0.15903
0.165477
0.0985171
0.0659118
0.0284878
0.0118371
0.00938714
5.72347e-24
7.57305e-20
1.86805e-19
6.83188e-19
2.62929e-18
7.67312e-18
3.23045e-17
1.22247e-16
2.19379e-15
7.80198e-13
0.000168002
0.0138668
0.0576595
0.11277
0.156576
0.178183
0.170821
0.101341
0.0683377
0.0300348
0.0123288
0.00949146
5.67811e-24
4.24348e-20
1.38574e-19
6.10936e-19
2.63516e-18
8.1934e-18
3.49403e-17
1.46465e-16
4.34022e-15
1.3406e-11
0.000662112
0.0239478
0.0784546
0.13741
0.177516
0.189731
0.168462
0.102227
0.0702446
0.0312972
0.0127696
0.00959327
5.66774e-24
7.8024e-20
1.92473e-19
7.15496e-19
2.88992e-18
8.41844e-18
3.94338e-17
1.83584e-16
1.02759e-14
1.66102e-10
0.00176064
0.0373921
0.10012
0.159635
0.192192
0.193697
0.161094
0.102433
0.0718627
0.0323371
0.0131842
0.00969106
5.62184e-24
4.1965e-20
1.39795e-19
6.38015e-19
2.90266e-18
9.03777e-18
4.35019e-17
2.31495e-16
2.24207e-14
1.55802e-09
0.00407836
0.0536231
0.12129
0.178283
0.200409
0.191418
0.15173
0.102664
0.0733434
0.0331851
0.0135798
0.00978684
5.615e-24
8.0277e-20
1.97582e-19
7.45833e-19
3.17126e-18
9.26756e-18
5.02654e-17
3.06432e-16
5.64414e-14
1.37797e-08
0.0082437
0.0715193
0.140849
0.192316
0.202601
0.185081
0.142691
0.10314
0.0747361
0.0339179
0.0139896
0.00987966
5.5673e-24
4.17929e-20
1.40766e-19
6.63885e-19
3.1921e-18
9.99271e-18
5.71536e-17
4.08466e-16
1.30484e-13
3.18914e-07
0.0147798
0.0900171
0.157981
0.201726
0.200361
0.176868
0.135183
0.103791
0.0760654
0.0345806
0.0144274
0.00997203
5.56297e-24
8.24859e-20
2.02102e-19
7.74037e-19
3.47298e-18
1.02326e-17
6.84621e-17
5.73368e-16
3.92549e-13
1.8716e-05
0.0236941
0.108032
0.172188
0.206727
0.19517
0.168502
0.12948
0.104468
0.0773129
0.035256
0.0149299
0.0100634
5.51414e-24
4.18606e-20
1.41225e-19
6.87543e-19
3.50163e-18
1.10692e-17
8.1331e-17
8.10408e-16
1.82999e-12
0.000211898
0.0347005
0.124856
0.183264
0.208243
0.188662
0.160978
0.125338
0.105035
0.0784663
0.0359861
0.0155097
0.0101564
5.51317e-24
8.46778e-20
2.05803e-19
7.99241e-19
3.79636e-18
1.13446e-17
1.02516e-16
1.20442e-15
1.28017e-11
0.000712221
0.0471299
0.139916
0.191281
0.207077
0.181823
0.154706
0.122356
0.105418
0.0794938
0.0368343
0.016197
0.0102507
5.46208e-24
4.20357e-20
1.40971e-19
7.08438e-19
3.83374e-18
1.23051e-17
1.28832e-16
1.79579e-15
7.40934e-11
0.00144963
0.0604053
0.152939
0.196515
0.204244
0.175426
0.149687
0.120162
0.105581
0.0803777
0.0378122
0.0169917
0.0103488
5.46315e-24
8.68091e-20
2.08984e-19
8.21829e-19
4.14334e-18
1.26536e-17
1.72484e-16
2.80966e-15
3.56409e-10
0.00255697
0.0738813
0.163746
0.19938
0.200394
0.169711
0.145752
0.118481
0.105531
0.0810878
0.0389423
0.0179069
0.01045
5.411e-24
4.22479e-20
1.39904e-19
7.26634e-19
4.191e-18
1.37421e-17
2.30142e-16
4.38975e-15
1.38689e-09
0.00418052
0.0871262
0.172371
0.200342
0.196164
0.164831
0.142667
0.117129
0.105285
0.0816087
0.0401952
0.0189217
0.0105565
5.41517e-24
8.89209e-20
2.11421e-19
8.42412e-19
4.52281e-18
1.41938e-17
3.26411e-16
7.0838e-15
4.74636e-09
0.00651986
0.0997057
0.178902
0.199867
0.191845
0.160683
0.140226
0.115994
0.104875
0.0819151
0.0415574
0.0200281
0.010667
5.35954e-24
4.22804e-20
1.37814e-19
7.42906e-19
4.58512e-18
1.54544e-17
4.58276e-16
1.12962e-14
1.44514e-08
0.00976126
0.111406
0.183565
0.198367
0.187725
0.157217
0.138256
0.115013
0.10433
0.0819956
0.0429775
0.0211855
0.0107831
5.36565e-24
8.84604e-20
2.10346e-19
8.57267e-19
4.93678e-18
1.60486e-17
6.7801e-16
1.85079e-14
4.28006e-08
0.0140896
0.122054
0.186591
0.196191
0.183857
0.154275
0.136631
0.114153
0.103685
0.0818307
0.0444351
0.0223727
0.0109032
5.306e-24
4.14877e-20
1.32581e-19
7.51654e-19
5.01035e-18
1.74636e-17
9.80527e-16
2.99199e-14
2.19647e-07
0.019756
0.131682
0.188283
0.193612
0.18035
0.151793
0.13526
0.113404
0.102969
0.0814146
0.04589
0.023542
0.0110282
5.31248e-24
8.52663e-20
2.03833e-19
8.62101e-19
5.3813e-18
1.81875e-17
1.47478e-15
5.74613e-14
1.13987e-05
0.027099
0.140349
0.188899
0.19084
0.177166
0.14965
0.134085
0.112765
0.102213
0.080736
0.0473492
0.0246745
0.0111563
5.24606e-24
4.16168e-20
1.27331e-19
7.57732e-19
5.48293e-18
1.98582e-17
2.14249e-15
4.65057e-13
0.00021355
0.0366677
0.148248
0.188726
0.188024
0.174356
0.147816
0.133067
0.112245
0.101445
0.0797992
0.0488094
0.0257328
0.0112883
5.24944e-24
5.3792e-20
1.54728e-19
7.99521e-19
5.76911e-18
2.06401e-17
3.2017e-15
2.31299e-11
0.00161643
0.049143
0.155518
0.187985
0.18527
0.171867
0.146211
0.13219
0.111857
0.100695
0.0786068
0.0503166
0.0267203
0.011422
5.17266e-24
4.32825e-20
1.14478e-19
7.24311e-19
5.94067e-18
2.35462e-17
4.66297e-15
1.03288e-09
0.00664079
0.0649736
0.162319
0.186902
0.182642
0.169749
0.144843
0.131447
0.111619
0.0999871
0.0771813
0.051895
0.0276287
0.0115584
5.16602e-24
1.93959e-21
1.12097e-20
4.0067e-19
5.44938e-18
2.44393e-17
7.2076e-15
1.83863e-07
0.0183885
0.0841199
0.168674
0.185638
0.180175
0.167962
0.143665
0.130847
0.11155
0.0993456
0.0755482
0.0535827
0.0284963
0.0116955
5.07788e-24
1.71174e-20
4.47756e-20
4.17406e-19
5.4626e-18
3.62099e-17
1.80073e-14
5.10711e-05
0.0395165
0.10621
0.174576
0.184361
0.177869
0.16658
0.142716
0.130404
0.111664
0.0987835
0.0737584
0.0553237
0.0293373
0.0118345
5.03908e-24
6.72049e-22
8.45964e-23
2.35257e-19
5.06661e-18
8.28229e-17
3.70809e-13
0.00120317
0.0718324
0.130614
0.179877
0.18318
0.175705
0.165565
0.141966
0.130147
0.111979
0.0983083
0.0718685
0.0569488
0.030152
0.011976
4.83837e-24
2.10337e-19
4.58172e-19
1.02962e-18
7.26114e-18
9.13639e-16
7.18252e-12
0.00766652
0.11607
0.156967
0.18471
0.182302
0.17366
0.164987
0.141454
0.130091
0.112491
0.0978613
0.0699489
0.0580275
0.0306356
0.0121338
0.00987657
0.0260728
0.0275969
0.0105148
0.00846367
0.0086113
0.00882034
0.00915957
0.00913332
0.00966399
0.0137501
0.0128689
0.0116923
0.0113246
0.0116469
0.0123297
0.0137544
0.015543
0.0160641
0.0142172
0.0126763
0.0123854
0.0124151
0.0125941
0.0130298
0.0137432
0.0147889
0.0149179
0.0118332
0.0343802
0.111737
0.123979
0.125662
0.136057
0.154265
0.00986353
0.0265195
0.0267671
0.0101732
0.00833215
0.008481
0.00887275
0.00924094
0.00914093
0.00966514
0.0134426
0.0125043
0.0113473
0.0109689
0.0113529
0.0120995
0.0136028
0.0155501
0.0161505
0.0141608
0.0124865
0.0121877
0.0122326
0.0124065
0.0128226
0.0135122
0.0145598
0.0147124
0.0117818
0.0336429
0.111491
0.123879
0.125607
0.136
0.154223
0.00983842
0.0269146
0.0253229
0.00958422
0.00820621
0.0083254
0.00902978
0.00942243
0.00919613
0.00969398
0.0124051
0.0113538
0.0104039
0.010026
0.0101864
0.0106178
0.0118224
0.0136463
0.0145367
0.0130948
0.0118139
0.0116873
0.0118199
0.0120169
0.0124105
0.013059
0.0141043
0.014294
0.011804
0.0331158
0.11097
0.123623
0.125443
0.135832
0.154089
0.00979929
0.0272517
0.0234763
0.00899102
0.00814024
0.00823113
0.00926401
0.0095975
0.00928246
0.00976496
0.011268
0.0100687
0.00931095
0.00904376
0.00903015
0.00905303
0.00971838
0.011109
0.0121132
0.0113961
0.0107284
0.0108816
0.0111687
0.0114254
0.0118043
0.0123988
0.0134304
0.0136717
0.0117692
0.0325618
0.110159
0.12321
0.125171
0.135553
0.153861
0.00974597
0.0274259
0.0213594
0.00839329
0.00805408
0.00813207
0.00946033
0.00967306
0.00931321
0.00978437
0.0102757
0.00894153
0.00836218
0.00828309
0.00818298
0.007838
0.00792351
0.00872173
0.0095755
0.00941347
0.0093209
0.00978075
0.010276
0.0106378
0.0110239
0.0115601
0.0125604
0.0128644
0.0115776
0.0317963
0.109044
0.122653
0.124803
0.135176
0.153553
0.00967615
0.0273463
0.0190823
0.0077534
0.00789139
0.00796716
0.00952878
0.00959765
0.00921905
0.00965559
0.00941064
0.00799027
0.00755834
0.00765613
0.00755101
0.00695553
0.00656428
0.00678922
0.00732543
0.00743245
0.00771637
0.00842315
0.00914986
0.00966526
0.0100935
0.0105794
0.0115282
0.0119006
0.0111616
0.0306894
0.107616
0.121975
0.124358
0.134722
0.153185
0.00959042
0.0269537
0.0167591
0.00707666
0.00765301
0.00772652
0.00943914
0.00936571
0.00897711
0.00933773
0.00859364
0.00713578
0.00678943
0.00697879
0.00692488
0.00622234
0.00552149
0.00530735
0.00550469
0.00565092
0.00607237
0.00689378
0.00782129
0.00852612
0.0090402
0.00949656
0.0103769
0.0108167
0.0104901
0.0291705
0.105865
0.121203
0.123864
0.13422
0.152785
0.00948687
0.0262039
0.0145025
0.00640704
0.00737743
0.00743713
0.00921093
0.00900481
0.00860428
0.00884547
0.00777584
0.00632208
0.00598701
0.00615507
0.00616948
0.0054828
0.00463809
0.00415515
0.00409701
0.00417758
0.00455828
0.00533331
0.00636196
0.00725426
0.00789402
0.00835201
0.0091546
0.00965534
0.00957121
0.0272315
0.103788
0.12037
0.123348
0.133699
0.152383
0.00936733
0.0250912
0.0124058
0.00580043
0.00711353
0.00714043
0.00888941
0.00855808
0.00813778
0.00822612
0.00695568
0.00553911
0.00515849
0.00521293
0.00527572
0.00468628
0.00382991
0.00323261
0.0030386
0.00305234
0.00331638
0.00391843
0.00489671
0.00591168
0.00669307
0.00718562
0.00791101
0.00846285
0.00845385
0.0249254
0.101391
0.119508
0.122842
0.133192
0.152009
0.0092307
0.0236254
0.010536
0.00530457
0.00690504
0.00687767
0.0085279
0.00807354
0.00762305
0.00753842
0.00615668
0.00480393
0.00435528
0.00425018
0.00431951
0.00386838
0.00309731
0.00250591
0.00227986
0.00226917
0.00242416
0.00280642
0.00359001
0.00459911
0.00549089
0.00603891
0.00669479
0.00728625
0.00722261
0.0223574
0.0986912
0.118651
0.122376
0.132733
0.151698
0.00908003
0.0218526
0.00893054
0.00495135
0.00678506
0.00668381
0.00817729
0.00759668
0.00710422
0.00683924
0.00540916
0.00413957
0.00363454
0.00337818
0.00341335
0.00310952
0.00248701
0.00198054
0.00178516
0.00178662
0.00187764
0.00207264
0.00259206
0.00344825
0.00436236
0.00495861
0.00555297
0.00617064
0.00598589
0.0196683
0.0957229
0.117834
0.121981
0.132354
0.151481
0.00891508
0.0198306
0.00760381
0.00475674
0.00677717
0.00658589
0.00788227
0.00716836
0.00662151
0.00617775
0.00474009
0.00356514
0.00303724
0.00267924
0.00266074
0.00248968
0.00203998
0.00164899
0.00150408
0.00153136
0.00160388
0.00168608
0.00196894
0.00258059
0.0033982
0.00399846
0.00453102
0.00515734
0.00485671
0.0170128
0.092547
0.117089
0.121686
0.132087
0.151388
0.00874002
0.0176481
0.00655325
0.00472472
0.00689857
0.00660396
0.0076796
0.00682255
0.00620876
0.00559317
0.0041701
0.00309463
0.00258041
0.00218891
0.00212512
0.00205561
0.00175881
0.00146935
0.00136769
0.00141908
0.0015025
0.00154643
0.00167828
0.00204849
0.00267835
0.00321359
0.00367157
0.00428258
0.00392949
0.0145376
0.0892543
0.116446
0.121517
0.131962
0.151448
0.00855535
0.0153987
0.00576852
0.00485263
0.0071641
0.00675316
0.00759844
0.00658629
0.00589356
0.00511506
0.00371395
0.00273581
0.00226154
0.00189687
0.00181321
0.00180502
0.00160863
0.0013838
0.00131049
0.00138041
0.0014874
0.00154621
0.0016185
0.0018145
0.0022342
0.00264413
0.00300861
0.0035758
0.00325927
0.0123621
0.0859708
0.115935
0.121498
0.132005
0.151688
0.00836592
0.0131923
0.00523728
0.00513658
0.00758984
0.00704725
0.00766147
0.00647957
0.00569635
0.00476349
0.00338244
0.00248932
0.00206457
0.00176458
0.00168755
0.0016994
0.00154074
0.00134331
0.00128691
0.00137248
0.00150507
0.00160531
0.00168883
0.00179264
0.00203543
0.00229624
0.00255717
0.00305612
0.00285243
0.0105654
0.0828553
0.115581
0.121651
0.132241
0.152131
0.00817267
0.0111297
0.0049522
0.00557648
0.00819709
0.00750244
0.00788797
0.00651881
0.005632
0.00455139
0.00318164
0.00235099
0.00196703
0.00174336
0.00169093
0.00168647
0.00151246
0.00131772
0.00127363
0.00137588
0.00153313
0.00168036
0.00181436
0.00189501
0.00201561
0.00213935
0.00230611
0.00272753
0.00267641
0.00918272
0.0800922
0.115411
0.121994
0.132692
0.152798
0.00798033
0.00930443
0.00491701
0.00618024
0.0090132
0.00814691
0.00829907
0.00671916
0.00571158
0.00448581
0.00311302
0.00231277
0.00194585
0.00178798
0.00176663
0.0017176
0.00149494
0.00129374
0.0012631
0.00138605
0.00156877
0.00175851
0.00195292
0.00205236
0.0021039
0.00212317
0.00222312
0.002577
0.00268228
0.00821578
0.0778756
0.115446
0.122543
0.133377
0.153705
0.00778933
0.00778851
0.00515338
0.00697004
0.010076
0.00902236
0.00892266
0.00709939
0.0059461
0.00457139
0.00317626
0.00236618
0.0019821
0.00186204
0.00186632
0.00175532
0.00147318
0.00126835
0.00125558
0.00140459
0.00161663
0.00184334
0.00208984
0.0022213
0.0022428
0.0021976
0.00226858
0.0025788
0.00282412
0.00765326
0.0763882
0.115706
0.12331
0.134313
0.15487
0.00760307
0.0066206
0.00570374
0.00798328
0.0114362
0.0101873
0.00979707
0.00768621
0.00634963
0.00481344
0.00337216
0.00250489
0.00206362
0.00194243
0.00195692
0.00177718
0.00144235
0.001243
0.00125341
0.00143459
0.00168192
0.00194272
0.0022259
0.00238217
0.00239546
0.00232454
0.00240736
0.00270233
0.00306804
0.00748626
0.0757751
0.116208
0.124308
0.135513
0.156304
0.00742066
0.00579509
0.00663774
0.00927007
0.0131579
0.0117164
0.010972
0.00851703
0.00694258
0.00522193
0.00370733
0.00272901
0.00218704
0.00201863
0.00202027
0.00177403
0.00140404
0.00122051
0.00125891
0.00147842
0.00176795
0.00206238
0.00236643
0.00253079
0.00254485
0.00248179
0.00261412
0.0029185
0.003394
0.00771524
0.0761189
0.116964
0.125544
0.136991
0.158018
0.00724378
0.00526731
0.00805644
0.0108949
0.0153166
0.0136957
0.0125061
0.0096388
0.00775229
0.00581299
0.00419643
0.00304736
0.00235883
0.00209325
0.00205341
0.00174757
0.00136285
0.00120386
0.00127375
0.00153773
0.00187612
0.00220418
0.00251538
0.00267017
0.00268831
0.00266112
0.00287354
0.0032032
0.0037954
0.00835324
0.0774266
0.117983
0.127027
0.138757
0.160021
0.00707145
0.00498809
0.0100921
0.0129409
0.018
0.0162179
0.0144631
0.0111042
0.00881191
0.00660887
0.00486287
0.00348006
0.00259663
0.0021789
0.00206322
0.00170556
0.00132466
0.00119615
0.00129961
0.00161316
0.00200613
0.00236657
0.00267349
0.00280525
0.0028312
0.00286373
0.00317774
0.00353885
0.00427798
0.00942796
0.079636
0.11927
0.128762
0.140821
0.16232
0.00690537
0.0049237
0.0129005
0.0155233
0.0213155
0.0193847
0.0169116
0.0129665
0.0101563
0.00763302
0.00573208
0.00405496
0.00292831
0.00229887
0.00206509
0.00165935
0.00129542
0.00120073
0.00133827
0.00170473
0.00215634
0.00254569
0.00283904
0.00294079
0.0029824
0.00309577
0.00352328
0.00391483
0.00485878
0.0109822
0.0826346
0.120825
0.130755
0.14319
0.164921
0.00674534
0.0050616
0.0166464
0.0188092
0.0254033
0.0233156
0.0199284
0.0152765
0.011817
0.00890328
0.00682046
0.00479917
0.00338631
0.00248441
0.00207811
0.00162059
0.001281
0.00122158
0.00139235
0.00181155
0.00232352
0.00273645
0.00300924
0.00308108
0.0031517
0.0033648
0.0039087
0.00432758
0.00556506
0.0130717
0.0862849
0.122646
0.133008
0.145872
0.167827
0.00659312
0.00541092
0.0214715
0.0230349
0.030444
0.0281502
0.0235966
0.0180764
0.0138145
0.0104211
0.00811947
0.00572143
0.0039927
0.00277211
0.00212598
0.00160104
0.00128702
0.00126346
0.00146543
0.00193241
0.00250326
0.00293344
0.00318172
0.00323046
0.00334856
0.00367784
0.00433335
0.00478046
0.00643348
0.0157602
0.0904439
0.124731
0.135526
0.148871
0.171041
0.00644962
0.00600011
0.0274637
0.0285044
0.0366442
0.0340238
0.0279861
0.0213842
0.016144
0.01216
0.00958388
0.00679544
0.00473846
0.00318637
0.00223258
0.00161149
0.00131945
0.00133217
0.00156274
0.00206607
0.00269024
0.00313178
0.00335544
0.00339388
0.00358171
0.00404019
0.00479701
0.00528363
0.0075096
0.0191122
0.0949779
0.127074
0.138309
0.152194
0.174562
0.00631698
0.00686148
0.0346364
0.035558
0.0441927
0.0410075
0.0331077
0.0251631
0.0187549
0.0140523
0.0111242
0.00794859
0.00556864
0.00371672
0.00241734
0.00166283
0.00138484
0.00143461
0.00169103
0.00221273
0.00287936
0.00332786
0.00353131
0.00357717
0.00385887
0.0044551
0.00530045
0.00585373
0.00884748
0.0231836
0.0997701
0.129671
0.141359
0.155841
0.17839
0.00619775
0.00802116
0.0429594
0.0445201
0.0531935
0.0490278
0.0388535
0.0292854
0.0215299
0.0159803
0.0126096
0.00906512
0.00638465
0.00429886
0.00267672
0.0017633
0.00149088
0.00157907
0.0018588
0.00237484
0.00306675
0.00352
0.00371228
0.00378704
0.00418657
0.00492373
0.00584608
0.00651376
0.0105093
0.0280127
0.104725
0.132516
0.144674
0.159817
0.182522
0.00609509
0.00948782
0.0524271
0.0556439
0.0635964
0.057799
0.04495
0.0335075
0.0242727
0.0177765
0.0138781
0.0099995
0.00706222
0.00483055
0.0029741
0.00191499
0.00164534
0.00177459
0.00207542
0.00255856
0.00325136
0.00370891
0.00390325
0.00403081
0.0045699
0.00544567
0.00643901
0.00729284
0.0125648
0.0336118
0.109767
0.135604
0.148254
0.16412
0.186953
0.00601408
0.0112655
0.0631309
0.0690466
0.07513
0.0667965
0.0509477
0.0374743
0.0267191
0.019238
0.0147577
0.0106008
0.00747713
0.00520098
0.00324397
0.00210735
0.00185386
0.00202985
0.00235021
0.00277331
0.0034357
0.00389786
0.00411072
0.00431597
0.00501223
0.00601945
0.00708759
0.00822625
0.0150895
0.0399612
0.114842
0.138928
0.152096
0.168751
0.191678
0.00596079
0.013366
0.0752464
0.0845805
0.0872299
0.075271
0.0562555
0.0407538
0.0285665
0.0201541
0.0150941
0.0107424
0.00753483
0.00532792
0.00342355
0.002319
0.00211605
0.0023498
0.00268959
0.00303142
0.00362681
0.00409278
0.00434245
0.00464957
0.00551505
0.00664349
0.00780411
0.00935551
0.0181628
0.0470078
0.119912
0.142483
0.156199
0.173708
0.196691
0.00594609
0.015836
0.0889366
0.101628
0.0989793
0.0823128
0.0602181
0.0429007
0.0295246
0.0203451
0.0147845
0.0103581
0.00720085
0.00518014
0.00347676
0.0025247
0.00242366
0.00273226
0.00309389
0.00334482
0.00383579
0.00430204
0.00460688
0.00503763
0.00607789
0.00731669
0.0086049
0.0107289
0.0218644
0.054668
0.124955
0.146262
0.160559
0.178992
0.201984
0.00598322
0.0187548
0.104133
0.118908
0.109133
0.0869814
0.0622302
0.0435389
0.0293729
0.0197045
0.0138111
0.00947348
0.00652578
0.00479658
0.00341107
0.00270804
0.00276156
0.00316494
0.00355336
0.00372189
0.00407737
0.00453609
0.00491252
0.00548442
0.00669844
0.00803924
0.00951064
0.0124015
0.0262701
0.0628339
0.129956
0.150261
0.165176
0.184603
0.207552
0.00609167
0.0222409
0.120317
0.134515
0.116306
0.088504
0.0618733
0.0424511
0.0280193
0.0182353
0.0122637
0.00822053
0.00564722
0.00427841
0.00326969
0.00286579
0.00311235
0.00362646
0.00404745
0.00416186
0.00436765
0.00480678
0.00526728
0.00599184
0.00737275
0.00881284
0.0105462
0.0144363
0.0314477
0.0713835
0.134916
0.154476
0.17005
0.190544
0.213391
0.00628805
0.0264159
0.136393
0.14631
0.119315
0.0864862
0.0590317
0.0396445
0.0255353
0.016066
0.0103351
0.00681414
0.00475133
0.00375889
0.00311594
0.00300819
0.00346057
0.0040904
0.00454732
0.00465279
0.00472152
0.00512644
0.00567759
0.00655882
0.00809562
0.00964101
0.011741
0.0169039
0.0374523
0.0801908
0.139839
0.158907
0.175186
0.196824
0.219502
0.00658505
0.0314028
0.150889
0.152575
0.117536
0.0810461
0.0539436
0.03537
0.0221582
0.0134355
0.00828536
0.00548794
0.00400091
0.00334741
0.0030042
0.00314931
0.00379448
0.00453065
0.00502226
0.00517061
0.0051481
0.00550616
0.00614744
0.00718088
0.00886088
0.0105287
0.0131289
0.0198836
0.0443237
0.0891372
0.144739
0.16356
0.180593
0.203456
0.225891
0.00697682
0.0372417
0.162317
0.152524
0.111096
0.0727919
0.0471509
0.0300728
0.0182463
0.0106475
0.00637879
0.00441429
0.00347559
0.00309366
0.00296352
0.00329961
0.00410532
0.00492601
0.00544652
0.00568615
0.00564711
0.00595379
0.00667749
0.00785011
0.00966177
0.0114824
0.0147486
0.0234629
0.0520847
0.0981203
0.149636
0.168447
0.186286
0.210465
0.232571
0.00744499
0.0438328
0.169513
0.146406
0.100784
0.0626535
0.0393694
0.0242962
0.0142078
0.00800926
0.004818
0.00365618
0.0031663
0.00298387
0.00298924
0.00345778
0.00438516
0.00526192
0.00580342
0.00617043
0.00620572
0.00647112
0.00726421
0.00855545
0.0104912
0.0125089
0.0166444
0.0277389
0.0607432
0.107062
0.154559
0.173591
0.19229
0.217884
0.239564
0.00795396
0.0506903
0.171667
0.135197
0.0877721
0.0516448
0.0313278
0.018571
0.0104247
0.005775
0.00369328
0.00317876
0.00301316
0.00296865
0.00305542
0.0036142
0.00462716
0.00553148
0.00608725
0.00660367
0.00680038
0.00705197
0.00789982
0.00928371
0.011342
0.0136163
0.0188663
0.0328176
0.0702953
0.115913
0.159544
0.179022
0.198638
0.225758
0.246903
0.00846726
0.0568616
0.168259
0.120173
0.0732964
0.0406636
0.0236443
0.0133389
0.00720371
0.00409977
0.00297355
0.00290177
0.00294572
0.00298968
0.00312813
0.00375517
0.00482591
0.00573342
0.00630079
0.00697481
0.00740064
0.00768127
0.00857297
0.0100213
0.0122079
0.0148124
0.0214712
0.0388163
0.0807321
0.124659
0.164638
0.184784
0.205372
0.234144
0.25463
0.00894498
0.0608625
0.158954
0.102607
0.0584332
0.0303827
0.0167674
0.00892069
0.00474577
0.00300073
0.00255242
0.00274327
0.00290549
0.00300277
0.00318367
0.00387263
0.00497976
0.00587156
0.0064535
0.00728434
0.00797634
0.0083372
0.0092708
0.0107567
0.0130839
0.0161062
0.0245231
0.0458638
0.0920477
0.133317
0.169895
0.19093
0.212542
0.243109
0.262798
0.0093615
0.0611745
0.143699
0.0836796
0.044041
0.0212522
0.0109902
0.0055249
0.00311161
0.00236067
0.002314
0.00263676
0.00285183
0.00298134
0.00321066
0.00396483
0.00508978
0.00595142
0.00655704
0.00753795
0.00850236
0.00899494
0.00998168
0.0114829
0.0139681
0.0175072
0.0280935
0.0541025
0.104249
0.14194
0.175376
0.197522
0.220208
0.25273
0.271467
0.0096768
0.056499
0.122761
0.0645155
0.0308343
0.0135835
0.00650935
0.00324315
0.00217551
0.00200742
0.00216416
0.00253213
0.00275936
0.00291505
0.00321192
0.00403882
0.00516023
0.00598028
0.00662472
0.00774765
0.0089633
0.00963209
0.0106982
0.0122005
0.014863
0.0190272
0.0322612
0.0636895
0.117363
0.150615
0.18115
0.204627
0.228433
0.263089
0.280702
0.00988074
0.0467276
0.0971044
0.0461588
0.0194284
0.00760013
0.00343604
0.00195443
0.00167389
0.00178515
0.00202431
0.00238758
0.00260738
0.00279498
0.00318908
0.00409753
0.00518938
0.00595973
0.00666744
0.00792616
0.00935336
0.0102307
0.0114184
0.0129185
0.015777
0.0206808
0.0371105
0.0747959
0.131447
0.159455
0.187288
0.212312
0.237279
0.274266
0.290572
4.88254e-24
3.15291e-19
1.14216e-18
4.3152e-18
2.50278e-17
3.15845e-14
9.04814e-11
0.0285311
0.157825
0.177425
0.18786
0.181902
0.172221
0.164904
0.141275
0.130275
0.113098
0.0974236
0.0685205
0.0581911
0.0302518
0.0121423
4.99627e-24
7.3951e-20
8.35502e-20
6.24919e-18
6.25045e-17
2.46283e-13
9.25652e-10
0.0540317
0.186286
0.1898
0.189214
0.181603
0.171376
0.165077
0.141405
0.130599
0.11375
0.0971735
0.0678119
0.0579466
0.0298189
0.0121914
5.10235e-24
2.76631e-19
8.77872e-19
8.90043e-18
1.22264e-16
9.2888e-13
9.33037e-09
0.0844771
0.211747
0.199971
0.190031
0.18133
0.170726
0.165426
0.141756
0.131095
0.114598
0.0970146
0.0674582
0.0573344
0.0292848
0.0123499
5.06212e-24
5.72608e-20
2.1477e-20
6.84931e-18
1.92233e-16
2.27803e-12
1.69598e-07
0.116607
0.233727
0.208227
0.190696
0.181183
0.170338
0.165994
0.142363
0.131746
0.115609
0.0969544
0.067448
0.0563868
0.0286838
0.0126071
5.16595e-24
2.2131e-19
6.32166e-19
7.2287e-18
2.88046e-16
3.60738e-12
6.54669e-06
0.145458
0.252164
0.214871
0.191484
0.181241
0.17027
0.166767
0.143206
0.13254
0.116745
0.0969948
0.0677495
0.0551743
0.0280616
0.0129542
5.11416e-24
4.59244e-20
1.20667e-20
4.6144e-18
4.09546e-16
4.86751e-12
1.8615e-05
0.165628
0.267171
0.220238
0.19262
0.181588
0.170572
0.167796
0.144322
0.133467
0.117965
0.097132
0.0683283
0.0537544
0.0274283
0.0134084
5.22944e-24
1.7869e-19
4.73323e-19
4.63555e-18
5.80027e-16
5.05662e-12
3.44094e-05
0.174508
0.278983
0.224604
0.19423
0.182282
0.171285
0.169067
0.145689
0.134528
0.119233
0.0973625
0.0691319
0.0522088
0.0268095
0.0139834
5.17032e-24
3.80409e-20
7.88019e-21
2.77939e-18
7.71814e-16
4.37244e-12
2.57378e-05
0.172847
0.287793
0.228228
0.196414
0.183388
0.172441
0.170638
0.147353
0.135726
0.120516
0.0976761
0.070114
0.0505927
0.0262031
0.014697
5.29811e-24
1.46658e-19
3.69519e-19
2.86061e-18
9.85351e-16
2.8778e-12
2.73525e-05
0.163377
0.29376
0.231273
0.199195
0.18494
0.174061
0.172493
0.149293
0.137081
0.121796
0.0980649
0.0712169
0.0489788
0.0256281
0.0155527
5.22362e-24
3.24416e-20
5.88725e-21
1.68652e-18
1.14732e-15
1.6876e-12
3.52193e-05
0.148673
0.296891
0.233863
0.202589
0.186982
0.176157
0.174686
0.151558
0.138612
0.123068
0.0985161
0.0723979
0.0474076
0.0250758
0.0165542
5.35788e-24
1.2193e-19
2.97362e-19
1.84174e-18
1.25157e-15
8.51744e-13
4.00576e-05
0.130408
0.297094
0.236014
0.206548
0.189528
0.178737
0.177195
0.154125
0.140349
0.124343
0.0990225
0.0736073
0.0459358
0.0245614
0.017687
5.27124e-24
2.84277e-20
4.69165e-21
1.08035e-18
1.23826e-15
4.16178e-13
4.10287e-05
0.11012
0.294097
0.237686
0.211025
0.192608
0.181802
0.180066
0.157044
0.142321
0.125648
0.0995748
0.0748171
0.0445865
0.0240719
0.0189356
5.41231e-24
1.02864e-19
2.48122e-19
1.26251e-18