/*--------------------------------*- C++ -*----------------------------------*\
| =========                 |                                                 |
| \\      /  F ield         | OpenFOAM: The Open Source CFD Toolbox           |
|  \\    /   O peration     | Version:  v1912                                 |
|   \\  /    A nd           | Website:  www.openfoam.com                      |
|    \\/     M anipulation  |                                                 |
\*---------------------------------------------------------------------------*/
FoamFile
{
    version     2.0;
    format      ascii;
    class       surfaceScalarField;
    location    "330";
    object      phi;
}
// * * * * * * * * * * * * * * * * * * * * * * * * * * * * * * * * * * * * * //

dimensions      [0 3 -1 0 0 0 0];
oriented        oriented;


internalField   nonuniform List<scalar> 
24588
(
6.81685e-05
1.96137e-08
6.81155e-05
5.38915e-08
6.8032e-05
8.30079e-08
6.79182e-05
1.13633e-07
6.77699e-05
1.47665e-07
6.75831e-05
1.86923e-07
6.73512e-05
2.3186e-07
6.70588e-05
2.92498e-07
6.66968e-05
3.62262e-07
6.62424e-05
4.53737e-07
6.56774e-05
5.66056e-07
6.49886e-05
7.08104e-07
6.40511e-05
8.66647e-07
6.29364e-05
1.17924e-06
6.15173e-05
1.44232e-06
5.91808e-05
2.30032e-06
5.62787e-05
2.90404e-06
5.15245e-05
4.75401e-06
4.48686e-05
6.65605e-06
3.36984e-05
1.11702e-05
2.00292e-05
1.36691e-05
2.00293e-05
6.81687e-05
3.9766e-08
6.81153e-05
1.085e-07
6.80318e-05
1.6578e-07
6.79182e-05
2.2701e-07
6.777e-05
2.95087e-07
6.75832e-05
3.73846e-07
6.73514e-05
4.63646e-07
6.7059e-05
5.85016e-07
6.6697e-05
7.24547e-07
6.62427e-05
9.07403e-07
6.56782e-05
1.13183e-06
6.49901e-05
1.41792e-06
6.40369e-05
1.74141e-06
6.29481e-05
2.33021e-06
6.15241e-05
2.89045e-06
5.92362e-05
4.55398e-06
5.62934e-05
5.85019e-06
5.1493e-05
9.55431e-06
4.49134e-05
1.3236e-05
3.36009e-05
2.24828e-05
1.99894e-05
2.72805e-05
4.00188e-05
6.81687e-05
5.99162e-08
6.81153e-05
1.63115e-07
6.80318e-05
2.48594e-07
6.79182e-05
3.4043e-07
6.777e-05
4.42541e-07
6.75832e-05
5.60754e-07
6.73514e-05
6.95394e-07
6.7059e-05
8.77533e-07
6.6697e-05
1.08682e-06
6.62425e-05
1.36128e-06
6.56779e-05
1.69762e-06
6.49904e-05
2.12812e-06
6.40322e-05
2.61722e-06
6.29383e-05
3.50062e-06
6.15174e-05
4.33713e-06
5.9269e-05
6.76136e-06
5.62908e-05
8.83241e-06
5.15137e-05
1.43311e-05
4.48891e-05
1.98613e-05
3.36216e-05
3.37502e-05
2.00096e-05
4.08924e-05
6.00286e-05
6.81687e-05
8.00675e-08
6.81153e-05
2.17669e-07
6.80318e-05
3.31356e-07
6.79183e-05
4.53808e-07
6.77701e-05
5.89943e-07
6.75833e-05
7.47674e-07
6.73514e-05
9.27212e-07
6.7059e-05
1.17007e-06
6.66969e-05
1.44916e-06
6.62425e-05
1.81505e-06
6.56777e-05
2.26368e-06
6.49897e-05
2.83791e-06
6.40385e-05
3.49087e-06
6.29474e-05
4.65107e-06
6.15143e-05
5.79312e-06
5.9285e-05
8.95836e-06
5.63141e-05
1.1807e-05
5.15286e-05
1.91165e-05
4.48781e-05
2.65123e-05
3.36503e-05
4.4978e-05
2.00436e-05
5.44991e-05
8.00723e-05
6.81687e-05
1.00209e-07
6.81153e-05
2.72215e-07
6.80318e-05
4.14163e-07
6.79182e-05
5.67238e-07
6.777e-05
7.37379e-07
6.75833e-05
9.34565e-07
6.73515e-05
1.15896e-06
6.7059e-05
1.46261e-06
6.6697e-05
1.81148e-06
6.62424e-05
2.26898e-06
6.56777e-05
2.82956e-06
6.49903e-05
3.54763e-06
6.40332e-05
4.36525e-06
6.29366e-05
5.82496e-06
6.15093e-05
7.24626e-06
5.92958e-05
1.11306e-05
5.63394e-05
1.47675e-05
5.15305e-05
2.39249e-05
4.48962e-05
3.31472e-05
3.3696e-05
5.61782e-05
2.00922e-05
6.81028e-05
0.000100165
6.81687e-05
1.20357e-07
6.81153e-05
3.26707e-07
6.80319e-05
4.96901e-07
6.79183e-05
6.80606e-07
6.77701e-05
8.84741e-07
6.75833e-05
1.12147e-06
6.73515e-05
1.3908e-06
6.7059e-05
1.75516e-06
6.66969e-05
2.17386e-06
6.62425e-05
2.72275e-06
6.56775e-05
3.39586e-06
6.49891e-05
4.25752e-06
6.40405e-05
5.23865e-06
6.29488e-05
6.9721e-06
6.15089e-05
8.70719e-06
5.92938e-05
1.33149e-05
5.63549e-05
1.77101e-05
5.15408e-05
2.8739e-05
4.49273e-05
3.97613e-05
3.37613e-05
6.73442e-05
2.01574e-05
8.17066e-05
0.000120322
6.81687e-05
1.40493e-07
6.81154e-05
3.81197e-07
6.80319e-05
5.79694e-07
6.79183e-05
7.94043e-07
6.77701e-05
1.03214e-06
6.75833e-05
1.30834e-06
6.73515e-05
1.62254e-06
6.7059e-05
2.0477e-06
6.6697e-05
2.53621e-06
6.62425e-05
3.17664e-06
6.56779e-05
3.96166e-06
6.49902e-05
4.96679e-06
6.40338e-05
6.11289e-06
6.29357e-05
8.1497e-06
6.1503e-05
1.01643e-05
5.92913e-05
1.54868e-05
5.63707e-05
2.0634e-05
5.15607e-05
3.35485e-05
4.49741e-05
4.63484e-05
3.38531e-05
7.84651e-05
2.02421e-05
9.53174e-05
0.000140564
6.81687e-05
1.60639e-07
6.81154e-05
4.35635e-07
6.80319e-05
6.62408e-07
6.79183e-05
9.07397e-07
6.77702e-05
1.17945e-06
6.75834e-05
1.49523e-06
6.73515e-05
1.85439e-06
6.70591e-05
2.34026e-06
6.6697e-05
2.89861e-06
6.62427e-05
3.63035e-06
6.56774e-05
4.52818e-06
6.49883e-05
5.67719e-06
6.40421e-05
6.98758e-06
6.29494e-05
9.29361e-06
6.14944e-05
1.16369e-05
5.92767e-05
1.76766e-05
5.63876e-05
2.35261e-05
5.16052e-05
3.83308e-05
4.50519e-05
5.29022e-05
3.39821e-05
8.9535e-05
2.03501e-05
0.000108949
0.000160915
6.81687e-05
1.8077e-07
6.81154e-05
4.90073e-07
6.80319e-05
7.45192e-07
6.79183e-05
1.02083e-06
6.77701e-05
1.32681e-06
6.75834e-05
1.68207e-06
6.73516e-05
2.08611e-06
6.70591e-05
2.63279e-06
6.66971e-05
3.26098e-06
6.62427e-05
4.08415e-06
6.56783e-05
5.09373e-06
6.49906e-05
6.38555e-06
6.40344e-05
7.86153e-06
6.29308e-05
1.04764e-05
6.146e-05
1.31285e-05
5.92749e-05
1.98338e-05
5.63919e-05
2.64105e-05
5.17011e-05
4.30211e-05
4.51789e-05
5.94246e-05
3.4159e-05
0.000100555
2.04853e-05
0.000122623
0.0001814
6.81687e-05
2.00913e-07
6.81154e-05
5.4446e-07
6.80319e-05
8.27891e-07
6.79184e-05
1.13417e-06
6.77702e-05
1.47408e-06
6.75835e-05
1.86894e-06
6.73516e-05
2.31796e-06
6.70592e-05
2.92533e-06
6.66971e-05
3.62337e-06
6.6243e-05
4.53766e-06
6.56775e-05
5.66049e-06
6.49861e-05
7.09776e-06
6.40382e-05
8.74465e-06
6.29313e-05
1.16302e-05
6.14299e-05
1.46374e-05
5.92954e-05
2.19538e-05
5.63976e-05
2.931e-05
5.18487e-05
4.75702e-05
4.53581e-05
6.59156e-05
3.43874e-05
0.000111526
2.06511e-05
0.000136359
0.000202051
6.81687e-05
2.21037e-07
6.81154e-05
5.98851e-07
6.80319e-05
9.10673e-07
6.79183e-05
1.2476e-06
6.77702e-05
1.6214e-06
6.75835e-05
2.05575e-06
6.73517e-05
2.54967e-06
6.70593e-05
3.21783e-06
6.66972e-05
3.98576e-06
6.6243e-05
4.99121e-06
6.56785e-05
6.22616e-06
6.49886e-05
7.80697e-06
6.40366e-05
9.61909e-06
6.29149e-05
1.28182e-05
6.14032e-05
1.61602e-05
5.93235e-05
2.40219e-05
5.64207e-05
3.2213e-05
5.20219e-05
5.19686e-05
4.55688e-05
7.23688e-05
3.46599e-05
0.000122434
2.08487e-05
0.00015017
0.0002229
6.81687e-05
2.41175e-07
6.81154e-05
6.53188e-07
6.80319e-05
9.93367e-07
6.79184e-05
1.36092e-06
6.77703e-05
1.76863e-06
6.75835e-05
2.2426e-06
6.73517e-05
2.78152e-06
6.70593e-05
3.51032e-06
6.66972e-05
4.34817e-06
6.62435e-05
5.44437e-06
6.56775e-05
6.79341e-06
6.49782e-05
8.5253e-06
6.40345e-05
1.05108e-05
6.29173e-05
1.39641e-05
6.13918e-05
1.76849e-05
5.93493e-05
2.60606e-05
5.64551e-05
3.5108e-05
5.21831e-05
5.62408e-05
4.57828e-05
7.87692e-05
3.49615e-05
0.000133256
2.10769e-05
0.000164055
0.000243977
6.81687e-05
2.61291e-07
6.81154e-05
7.07531e-07
6.80319e-05
1.07616e-06
6.79184e-05
1.47436e-06
6.77702e-05
1.91592e-06
6.75836e-05
2.42937e-06
6.73518e-05
3.0132e-06
6.70594e-05
3.80275e-06
6.66973e-05
4.71058e-06
6.62438e-05
5.89732e-06
6.56764e-05
7.36192e-06
6.49705e-05
9.24798e-06
6.40329e-05
1.13897e-05
6.2916e-05
1.51122e-05
6.13859e-05
1.92215e-05
5.93691e-05
2.80734e-05
5.64895e-05
3.79874e-05
5.23126e-05
6.04175e-05
4.59821e-05
8.50996e-05
3.52771e-05
0.000143961
2.13323e-05
0.000178
0.000265309
6.81687e-05
2.81421e-07
6.81154e-05
7.61818e-07
6.8032e-05
1.15886e-06
6.79184e-05
1.58766e-06
6.77703e-05
2.0631e-06
6.75836e-05
2.61619e-06
6.73518e-05
3.24505e-06
6.70595e-05
4.09516e-06
6.66974e-05
5.07296e-06
6.62444e-05
6.3498e-06
6.56727e-05
7.93474e-06
6.49521e-05
9.9834e-06
6.40359e-05
1.22813e-05
6.29161e-05
1.62381e-05
6.13839e-05
2.07507e-05
5.93821e-05
3.00747e-05
5.65176e-05
4.08524e-05
5.24106e-05
6.45247e-05
4.61603e-05
9.13501e-05
3.55954e-05
0.000154526
2.16109e-05
0.000191984
0.00028692
6.81687e-05
3.01526e-07
6.81154e-05
8.16114e-07
6.8032e-05
1.24167e-06
6.79184e-05
1.70109e-06
6.77703e-05
2.21036e-06
6.75836e-05
2.80292e-06
6.73519e-05
3.47671e-06
6.70596e-05
4.38749e-06
6.66976e-05
5.43529e-06
6.62448e-05
6.80198e-06
6.5669e-05
8.51162e-06
6.49411e-05
1.07232e-05
6.40452e-05
1.31523e-05
6.29142e-05
1.73822e-05
6.13832e-05
2.22857e-05
5.93904e-05
3.20655e-05
5.65387e-05
4.37038e-05
5.24849e-05
6.85783e-05
4.63173e-05
9.75177e-05
3.59094e-05
0.000164933
2.19082e-05
0.000205985
0.000308828
6.81687e-05
3.21647e-07
6.81154e-05
8.70351e-07
6.8032e-05
1.32438e-06
6.79185e-05
1.81437e-06
6.77704e-05
2.35751e-06
6.75837e-05
2.9897e-06
6.73519e-05
3.70856e-06
6.70596e-05
4.67984e-06
6.66977e-05
5.79753e-06
6.62455e-05
7.25365e-06
6.56633e-05
9.09483e-06
6.4938e-05
1.14572e-05
6.40501e-05
1.40359e-05
6.29128e-05
1.85183e-05
6.13832e-05
2.38123e-05
5.93955e-05
3.40536e-05
5.65538e-05
4.65459e-05
5.25425e-05
7.25897e-05
4.64558e-05
0.000103604
3.62159e-05
0.000175173
2.22207e-05
0.00021998
0.000331049
6.81687e-05
3.41739e-07
6.81154e-05
9.24599e-07
6.8032e-05
1.40721e-06
6.79184e-05
1.9278e-06
6.77703e-05
2.50474e-06
6.75837e-05
3.17639e-06
6.7352e-05
3.94018e-06
6.70598e-05
4.97212e-06
6.66979e-05
6.15971e-06
6.62463e-05
7.70467e-06
6.56546e-05
9.68754e-06
6.49425e-05
1.21743e-05
6.4052e-05
1.49156e-05
6.29115e-05
1.96656e-05
6.13836e-05
2.53436e-05
5.93985e-05
3.60375e-05
5.65644e-05
4.93798e-05
5.25891e-05
7.65648e-05
4.65794e-05
0.000109614
3.65137e-05
0.000185239
2.25453e-05
0.000233949
0.000353595
6.81687e-05
3.61849e-07
6.81154e-05
9.78786e-07
6.8032e-05
1.48994e-06
6.79185e-05
2.04107e-06
6.77705e-05
2.65185e-06
6.75838e-05
3.36314e-06
6.7352e-05
4.17201e-06
6.70598e-05
5.2644e-06
6.6698e-05
6.52182e-06
6.6247e-05
8.15512e-06
6.56461e-05
1.02895e-05
6.49476e-05
1.28755e-05
6.40521e-05
1.58124e-05
6.29107e-05
2.08041e-05
6.13841e-05
2.68676e-05
5.94002e-05
3.80218e-05
5.6572e-05
5.22083e-05
5.26288e-05
8.05082e-05
4.66914e-05
0.000115552
3.6803e-05
0.000195127
2.28799e-05
0.000247872
0.000376475
6.81687e-05
3.81927e-07
6.81155e-05
1.03299e-06
6.8032e-05
1.5728e-06
6.79184e-05
2.1545e-06
6.77704e-05
2.79906e-06
6.75838e-05
3.54978e-06
6.73521e-05
4.40358e-06
6.706e-05
5.5566e-06
6.66983e-05
6.88383e-06
6.62469e-05
8.60598e-06
6.56413e-05
1.08958e-05
6.49506e-05
1.35674e-05
6.40518e-05
1.67054e-05
6.29102e-05
2.19507e-05
6.13848e-05
2.83958e-05
5.94013e-05
4.00044e-05
5.65779e-05
5.50315e-05
5.26644e-05
8.44214e-05
4.6795e-05
0.000121421
3.7085e-05
0.000204837
2.32234e-05
0.000261733
0.000399698
6.81687e-05
4.02024e-07
6.81154e-05
1.08712e-06
6.8032e-05
1.65554e-06
6.79185e-05
2.26774e-06
6.77705e-05
2.94614e-06
6.75839e-05
3.73649e-06
6.73522e-05
4.63535e-06
6.70601e-05
5.84881e-06
6.66985e-05
7.24568e-06
6.62429e-05
9.0611e-06
6.56417e-05
1.14977e-05
6.49518e-05
1.4258e-05
6.40516e-05
1.76081e-05
6.291e-05
2.30893e-05
6.13856e-05
2.99178e-05
5.94021e-05
4.19883e-05
5.65829e-05
5.78508e-05
5.26983e-05
8.83063e-05
4.68932e-05
0.000127226
3.73614e-05
0.000214369
2.35749e-05
0.00027552
0.000423273
6.81687e-05
4.22088e-07
6.81155e-05
1.14128e-06
6.8032e-05
1.73844e-06
6.79185e-05
2.38116e-06
6.77704e-05
3.09332e-06
6.75839e-05
3.92308e-06
6.73523e-05
4.86683e-06
6.70602e-05
6.14096e-06
6.66989e-05
7.60727e-06
6.62339e-05
9.52565e-06
6.56468e-05
1.20851e-05
6.49523e-05
1.49529e-05
6.40514e-05
1.85046e-05
6.291e-05
2.42347e-05
6.13866e-05
3.14436e-05
5.9403e-05
4.39712e-05
5.65881e-05
6.06656e-05
5.27319e-05
9.21623e-05
4.69881e-05
0.00013297
3.76344e-05
0.000223723
2.39346e-05
0.000289219
0.000447208
6.81687e-05
4.42171e-07
6.81155e-05
1.19536e-06
6.80321e-05
1.8212e-06
6.79186e-05
2.49438e-06
6.77706e-05
3.24037e-06
6.7584e-05
4.10974e-06
6.73524e-05
5.09852e-06
6.70603e-05
6.43317e-06
6.66993e-05
7.96847e-06
6.6224e-05
1.00005e-05
6.56527e-05
1.26565e-05
6.49525e-05
1.56534e-05
6.40514e-05
1.94082e-05
6.29102e-05
2.5373e-05
6.13881e-05
3.29636e-05
5.94046e-05
4.59551e-05
5.65941e-05
6.34762e-05
5.27667e-05
9.59898e-05
4.70818e-05
0.000138655
3.79059e-05
0.000232899
2.43026e-05
0.000302823
0.00047151
6.81687e-05
4.62219e-07
6.81155e-05
1.24947e-06
6.8032e-05
1.90413e-06
6.79185e-05
2.6078e-06
6.77705e-05
3.38753e-06
6.7584e-05
4.29628e-06
6.73525e-05
5.32988e-06
6.70604e-05
6.72533e-06
6.66998e-05
8.32935e-06
6.6217e-05
1.04829e-05
6.56569e-05
1.32167e-05
6.49527e-05
1.63576e-05
6.40516e-05
2.0306e-05
6.29108e-05
2.65173e-05
6.13899e-05
3.44868e-05
5.94071e-05
4.79373e-05
5.66016e-05
6.62815e-05
5.28034e-05
9.97878e-05
4.71757e-05
0.000144283
3.81782e-05
0.000241896
2.46799e-05
0.000316321
0.00049619
6.81687e-05
4.82289e-07
6.81155e-05
1.30351e-06
6.80321e-05
1.98691e-06
6.79186e-05
2.72099e-06
6.77707e-05
3.53453e-06
6.75841e-05
4.48288e-06
6.73526e-05
5.56148e-06
6.70605e-05
7.01747e-06
6.67001e-05
8.69002e-06
6.62132e-05
1.09694e-05
6.56592e-05
1.37707e-05
6.49531e-05
1.7064e-05
6.4052e-05
2.12095e-05
6.29116e-05
2.76548e-05
6.13923e-05
3.60041e-05
5.94109e-05
4.99191e-05
5.6611e-05
6.90817e-05
5.28423e-05
0.000103557
4.72709e-05
0.000149854
3.84538e-05
0.000250714
2.50674e-05
0.000329707
0.000521258
6.81687e-05
5.02321e-07
6.81155e-05
1.35757e-06
6.80321e-05
2.06988e-06
6.79185e-05
2.8344e-06
6.77706e-05
3.68168e-06
6.75842e-05
4.66935e-06
6.73527e-05
5.79276e-06
6.70608e-05
7.30946e-06
6.67003e-05
9.05079e-06
6.62113e-05
1.1458e-05
6.56606e-05
1.43215e-05
6.49535e-05
1.77711e-05
6.40525e-05
2.21075e-05
6.29128e-05
2.87977e-05
6.13954e-05
3.75237e-05
5.94163e-05
5.18975e-05
5.66226e-05
7.18753e-05
5.28837e-05
0.000107295
4.73682e-05
0.000155369
3.87347e-05
0.000259347
2.54664e-05
0.000342975
0.000546724
6.81687e-05
5.22377e-07
6.81155e-05
1.41155e-06
6.80321e-05
2.15268e-06
6.79187e-05
2.94756e-06
6.77707e-05
3.82865e-06
6.75843e-05
4.85589e-06
6.73528e-05
6.02433e-06
6.7061e-05
7.60127e-06
6.6699e-05
9.41308e-06
6.62113e-05
1.19453e-05
6.56615e-05
1.48713e-05
6.49539e-05
1.84788e-05
6.40532e-05
2.30106e-05
6.29144e-05
2.99338e-05
6.13992e-05
3.90369e-05
5.94235e-05
5.38736e-05
5.66367e-05
7.46623e-05
5.29276e-05
0.000111005
4.74682e-05
0.000160829
3.90232e-05
0.000267792
2.58784e-05
0.00035612
0.000572603
6.81687e-05
5.42393e-07
6.81155e-05
1.46557e-06
6.80321e-05
2.23567e-06
6.79186e-05
3.06096e-06
6.77706e-05
3.97577e-06
6.75843e-05
5.04227e-06
6.73529e-05
6.25559e-06
6.70615e-05
7.89276e-06
6.66938e-05
9.78099e-06
6.62146e-05
1.24242e-05
6.56622e-05
1.54238e-05
6.49545e-05
1.91865e-05
6.40541e-05
2.39083e-05
6.29163e-05
3.10746e-05
6.14039e-05
4.05514e-05
5.94325e-05
5.58443e-05
5.66533e-05
7.74413e-05
5.2974e-05
0.000114684
4.75712e-05
0.000166232
3.93213e-05
0.000276042
2.63049e-05
0.000369137
0.000598907
6.81687e-05
5.62434e-07
6.81155e-05
1.5195e-06
6.80321e-05
2.3185e-06
6.79187e-05
3.1741e-06
6.77708e-05
4.12271e-06
6.75845e-05
5.22871e-06
6.73529e-05
6.48721e-06
6.70619e-05
8.18389e-06
6.66864e-05
1.01567e-05
6.62198e-05
1.28906e-05
6.56629e-05
1.59807e-05
6.49551e-05
1.98944e-05
6.40551e-05
2.48106e-05
6.29187e-05
3.22084e-05
6.14094e-05
4.20587e-05
5.94433e-05
5.78109e-05
5.66726e-05
8.02122e-05
5.30228e-05
0.000118334
4.76774e-05
0.000171577
3.96308e-05
0.000284089
2.67474e-05
0.00038202
0.000625655
6.81687e-05
5.82434e-07
6.81155e-05
1.57347e-06
6.80321e-05
2.40152e-06
6.79186e-05
3.28747e-06
6.77707e-05
4.26982e-06
6.75845e-05
5.41498e-06
6.7353e-05
6.7185e-06
6.70624e-05
8.47461e-06
6.66806e-05
1.05388e-05
6.62239e-05
1.33472e-05
6.56637e-05
1.65409e-05
6.49559e-05
2.06022e-05
6.40564e-05
2.57075e-05
6.29214e-05
3.33464e-05
6.14158e-05
4.35665e-05
5.94557e-05
5.97703e-05
5.66943e-05
8.29734e-05
5.3074e-05
0.000121954
4.77867e-05
0.000176864
3.99529e-05
0.000291922
2.72074e-05
0.000394765
0.000652862
6.81687e-05
6.02461e-07
6.81155e-05
1.62735e-06
6.80322e-05
2.48436e-06
6.79188e-05
3.40058e-06
6.77709e-05
4.41673e-06
6.75846e-05
5.60131e-06
6.73531e-05
6.95013e-06
6.70627e-05
8.76511e-06
6.66768e-05
1.09249e-05
6.62267e-05
1.37972e-05
6.56644e-05
1.71032e-05
6.49567e-05
2.13101e-05
6.40578e-05
2.66086e-05
6.29246e-05
3.44769e-05
6.1423e-05
4.50662e-05
5.94697e-05
6.1724e-05
5.67186e-05
8.57247e-05
5.31277e-05
0.000125545
4.78989e-05
0.000182093
4.02885e-05
0.000299533
2.76861e-05
0.000407368
0.000680548
6.81687e-05
6.22445e-07
6.81156e-05
1.68128e-06
6.80321e-05
2.56741e-06
6.79187e-05
3.51394e-06
6.77708e-05
4.5638e-06
6.75847e-05
5.78749e-06
6.73533e-05
7.18136e-06
6.70631e-05
9.05537e-06
6.66747e-05
1.13135e-05
6.62288e-05
1.42431e-05
6.56652e-05
1.76668e-05
6.49576e-05
2.20178e-05
6.40594e-05
2.75042e-05
6.29282e-05
3.56112e-05
6.14309e-05
4.65656e-05
5.94852e-05
6.36691e-05
5.67455e-05
8.84643e-05
5.3184e-05
0.000129106
4.8014e-05
0.000187263
4.0638e-05
0.000306909
2.81845e-05
0.000419821
0.000708733
6.81687e-05
6.42458e-07
6.81156e-05
1.73511e-06
6.80322e-05
2.65027e-06
6.79188e-05
3.62701e-06
6.7771e-05
4.71067e-06
6.75848e-05
5.97375e-06
6.73534e-05
7.41287e-06
6.70632e-05
9.34563e-06
6.66736e-05
1.17033e-05
6.62306e-05
1.46859e-05
6.56661e-05
1.82313e-05
6.49585e-05
2.27255e-05
6.40612e-05
2.84037e-05
6.29322e-05
3.67374e-05
6.14396e-05
4.80562e-05
5.95021e-05
6.5607e-05
5.67749e-05
9.11916e-05
5.32429e-05
0.000132639
4.81318e-05
0.000192374
4.10013e-05
0.000314039
2.8703e-05
0.00043212
0.000737436
6.81687e-05
6.62426e-07
6.81156e-05
1.789e-06
6.80322e-05
2.73334e-06
6.79187e-05
3.74036e-06
6.77709e-05
4.85771e-06
6.75848e-05
6.15987e-06
6.73536e-05
7.6439e-06
6.70634e-05
9.63586e-06
6.66732e-05
1.20938e-05
6.62323e-05
1.51268e-05
6.5667e-05
1.87966e-05
6.49595e-05
2.34329e-05
6.40631e-05
2.92976e-05
6.29365e-05
3.78672e-05
6.14489e-05
4.9546e-05
5.95203e-05
6.75348e-05
5.68069e-05
9.39049e-05
5.33045e-05
0.000136141
4.82522e-05
0.000197426
4.13781e-05
0.000320913
2.92422e-05
0.000444255
0.000766678
6.81687e-05
6.82426e-07
6.81156e-05
1.84279e-06
6.80322e-05
2.81621e-06
6.79189e-05
3.85339e-06
6.77711e-05
5.00452e-06
6.7585e-05
6.34608e-06
6.73538e-05
7.87516e-06
6.70634e-05
9.92627e-06
6.66731e-05
1.24844e-05
6.62338e-05
1.55661e-05
6.5668e-05
1.93624e-05
6.49607e-05
2.41404e-05
6.40653e-05
3.01951e-05
6.29412e-05
3.89886e-05
6.14588e-05
5.10265e-05
5.95398e-05
6.94542e-05
5.68415e-05
9.66034e-05
5.3369e-05
0.000139614
4.83753e-05
0.00020242
4.1768e-05
0.000327521
2.98021e-05
0.000456221
0.00079648
6.81687e-05
7.02381e-07
6.81156e-05
1.89663e-06
6.80322e-05
2.8993e-06
6.79188e-05
3.96672e-06
6.7771e-05
5.15152e-06
6.7585e-05
6.53215e-06
6.73541e-05
8.10586e-06
6.70636e-05
1.02168e-05
6.66733e-05
1.28749e-05
6.62353e-05
1.6004e-05
6.5669e-05
1.99288e-05
6.49619e-05
2.48475e-05
6.40676e-05
3.10871e-05
6.29461e-05
4.01134e-05
6.14692e-05
5.25055e-05
5.95606e-05
7.13621e-05
5.68786e-05
9.92853e-05
5.34366e-05
0.000143055
4.85013e-05
0.000207355
4.21705e-05
0.000333851
3.03828e-05
0.000468009
0.000826863
6.81687e-05
7.22369e-07
6.81156e-05
1.95038e-06
6.80323e-05
2.98217e-06
6.79189e-05
4.07972e-06
6.77712e-05
5.29826e-06
6.75851e-05
6.71833e-06
6.73543e-05
8.33676e-06
6.70632e-05
1.0508e-05
6.66737e-05
1.32645e-05
6.62368e-05
1.6441e-05
6.567e-05
2.04956e-05
6.49631e-05
2.55544e-05
6.407e-05
3.19822e-05
6.29514e-05
4.12291e-05
6.14802e-05
5.39747e-05
5.95825e-05
7.32602e-05
5.69182e-05
0.00010195
5.35075e-05
0.000146466
4.86306e-05
0.000212232
4.25856e-05
0.000339897
3.09844e-05
0.00047961
0.000857848
6.81687e-05
7.42312e-07
6.81156e-05
2.00419e-06
6.80322e-05
3.06528e-06
6.79188e-05
4.19303e-06
6.77711e-05
5.44519e-06
6.75851e-05
6.90438e-06
6.73547e-05
8.56702e-06
6.70605e-05
1.08022e-05
6.66765e-05
1.36487e-05
6.62382e-05
1.68793e-05
6.56711e-05
2.10627e-05
6.49645e-05
2.6261e-05
6.40726e-05
3.28717e-05
6.2957e-05
4.23482e-05
6.14917e-05
5.54422e-05
5.96056e-05
7.51457e-05
5.69604e-05
0.000104595
5.35818e-05
0.000149845
4.87636e-05
0.00021705
4.30134e-05
0.000345647
3.16075e-05
0.000491016
0.000889455
6.81687e-05
7.6229e-07
6.81156e-05
2.0579e-06
6.80323e-05
3.14815e-06
6.7919e-05
4.30599e-06
6.77714e-05
5.59185e-06
6.75853e-05
7.09052e-06
6.73548e-05
8.79757e-06
6.70512e-05
1.11058e-05
6.66854e-05
1.40145e-05
6.62396e-05
1.73251e-05
6.56722e-05
2.16302e-05
6.49659e-05
2.69674e-05
6.40754e-05
3.37643e-05
6.29628e-05
4.34578e-05
6.15037e-05
5.68991e-05
5.96297e-05
7.70201e-05
5.7005e-05
0.00010722
5.36598e-05
0.00015319
4.89008e-05
0.00022181
4.34544e-05
0.000351093
3.22523e-05
0.000502218
0.000921707
6.81687e-05
7.82217e-07
6.81156e-05
2.11166e-06
6.80323e-05
3.23126e-06
6.79189e-05
4.41928e-06
6.77713e-05
5.73872e-06
6.75853e-05
7.27647e-06
6.73551e-05
9.02764e-06
6.70449e-05
1.14161e-05
6.66922e-05
1.43672e-05
6.62408e-05
1.77765e-05
6.56733e-05
2.21977e-05
6.49673e-05
2.76734e-05
6.40782e-05
3.46511e-05
6.29688e-05
4.45706e-05
6.15162e-05
5.83541e-05
5.9655e-05
7.88807e-05
5.70519e-05
0.000109823
5.37417e-05
0.0001565
4.90423e-05
0.000226509
4.39088e-05
0.000356226
3.29198e-05
0.000513207
0.000954627
6.81687e-05
8.02184e-07
6.81156e-05
2.16532e-06
6.80323e-05
3.31413e-06
6.79191e-05
4.5322e-06
6.77715e-05
5.88534e-06
6.75856e-05
7.46245e-06
6.73551e-05
9.25824e-06
6.70428e-05
1.17284e-05
6.66948e-05
1.47152e-05
6.6242e-05
1.82292e-05
6.56744e-05
2.27653e-05
6.49689e-05
2.8379e-05
6.40812e-05
3.55409e-05
6.29751e-05
4.56734e-05
6.15292e-05
5.97977e-05
5.96813e-05
8.07291e-05
5.71011e-05
0.000112403
5.38279e-05
0.000159773
4.91883e-05
0.000231149
4.43767e-05
0.000361038
3.36102e-05
0.000523974
0.000988237
6.81687e-05
8.22108e-07
6.81156e-05
2.21905e-06
6.80323e-05
3.39724e-06
6.7919e-05
4.64543e-06
6.77714e-05
6.03218e-06
6.75857e-05
7.64812e-06
6.73538e-05
9.48993e-06
6.70428e-05
1.20394e-05
6.66958e-05
1.50623e-05
6.6243e-05
1.8682e-05
6.56756e-05
2.33327e-05
6.49704e-05
2.90841e-05
6.40842e-05
3.64243e-05
6.29816e-05
4.678e-05
6.15427e-05
6.12396e-05
5.97086e-05
8.25624e-05
5.71524e-05
0.000114959
5.39187e-05
0.000163007
4.93386e-05
0.000235729
4.48566e-05
0.00036552
3.4323e-05
0.000534507
0.00102256
6.81687e-05
8.42061e-07
6.81156e-05
2.27267e-06
6.80324e-05
3.48013e-06
6.79192e-05
4.75831e-06
6.77715e-05
6.1789e-06
6.75863e-05
7.83339e-06
6.7344e-05
9.73228e-06
6.70483e-05
1.23351e-05
6.66963e-05
1.54143e-05
6.62439e-05
1.91343e-05
6.56767e-05
2.39e-05
6.4972e-05
2.97889e-05
6.40874e-05
3.73114e-05
6.29884e-05
4.78753e-05
6.15565e-05
6.26689e-05
5.97368e-05
8.43827e-05
5.72056e-05
0.000117491
5.40144e-05
0.000166198
4.94927e-05
0.00024025
4.5344e-05
0.000369669
3.50551e-05
0.000544796
0.00105762
6.81687e-05
8.61964e-07
6.81157e-05
2.32634e-06
6.80323e-05
3.56327e-06
6.79191e-05
4.87148e-06
6.77713e-05
6.32593e-06
6.75866e-05
8.01811e-06
6.73362e-05
9.9825e-06
6.7053e-05
1.26183e-05
6.66966e-05
1.57707e-05
6.62447e-05
1.95862e-05
6.56778e-05
2.44669e-05
6.49737e-05
3.0493e-05
6.40906e-05
3.81915e-05
6.29953e-05
4.89747e-05
6.15709e-05
6.40963e-05
5.97659e-05
8.6187e-05
5.72606e-05
0.000119996
5.41156e-05
0.000169343
4.96504e-05
0.000244716
4.58296e-05
0.00037349
3.57986e-05
0.000554827
0.00109341
6.81686e-05
8.81887e-07
6.81156e-05
2.37995e-06
6.80324e-05
3.6461e-06
6.79193e-05
4.98422e-06
6.77716e-05
6.47252e-06
6.75869e-05
8.20284e-06
6.73339e-05
1.02355e-05
6.70541e-05
1.28982e-05
6.66968e-05
1.6128e-05
6.62454e-05
2.00376e-05
6.56788e-05
2.50335e-05
6.49753e-05
3.11966e-05
6.40938e-05
3.90755e-05
6.30023e-05
5.00626e-05
6.15855e-05
6.55105e-05
5.97957e-05
8.79772e-05
5.73169e-05
0.000122475
5.42232e-05
0.000172437
4.98107e-05
0.000249128
4.631e-05
0.00037699
3.66331e-05
0.000564504
0.00113005
-3.09564e-06
3.0956e-06
-6.41559e-06
3.31994e-06
-7.43859e-06
1.02296e-06
-6.17622e-06
-1.26233e-06
-4.54624e-06
-1.63042e-06
-3.50598e-06
-1.04016e-06
-3.02049e-06
-4.85468e-07
-2.87591e-06
-1.44267e-07
-2.71573e-06
-1.59066e-07
-2.57148e-06
-1.42577e-07
-2.46619e-06
-9.45737e-08
-2.19126e-06
-2.77024e-07
-1.76555e-06
-4.21885e-07
-1.13233e-06
-6.42345e-07
3.09137e-07
-1.45115e-06
3.12711e-06
-2.82111e-06
7.13636e-06
-4.0043e-06
1.15466e-05
-4.40814e-06
1.57065e-05
-4.15248e-06
1.94074e-05
-3.70592e-06
2.278e-05
-3.37451e-06
2.59681e-05
-3.18641e-06
2.90385e-05
-3.07048e-06
3.2024e-05
-2.98551e-06
3.50035e-05
-2.97953e-06
3.81014e-05
-3.09903e-06
4.07868e-05
-2.69057e-06
4.34878e-05
-2.69675e-06
5.30926e-05
-9.60362e-06
6.42653e-05
-1.11722e-05
6.72116e-05
-2.94516e-06
6.73163e-05
-1.05445e-07
6.73759e-05
-5.9571e-08
6.75005e-05
-1.24584e-07
-6.74887e-08
-3.03214e-06
6.12768e-06
-6.32446e-06
6.61225e-06
-7.34006e-06
2.0385e-06
-6.08532e-06
-2.51699e-06
-4.46939e-06
-3.24716e-06
-3.44855e-06
-2.06082e-06
-2.97633e-06
-9.57627e-07
-2.84352e-06
-2.76462e-07
-2.69459e-06
-3.05865e-07
-2.56222e-06
-2.71635e-07
-2.46066e-06
-1.78386e-07
-2.14986e-06
-5.89167e-07
-1.64701e-06
-9.17299e-07
-9.85247e-07
-1.32228e-06
3.55478e-07
-2.81136e-06
3.00258e-06
-5.47457e-06
6.93782e-06
-7.92947e-06
1.13996e-05
-8.86552e-06
1.56408e-05
-8.37943e-06
1.93853e-05
-7.4602e-06
2.27681e-05
-6.76091e-06
2.59377e-05
-6.35295e-06
2.89817e-05
-6.11456e-06
3.19478e-05
-5.95174e-06
3.49157e-05
-5.94743e-06
3.80101e-05
-6.19569e-06
4.07358e-05
-5.42582e-06
4.32828e-05
-5.23576e-06
5.26176e-05
-1.89362e-05
6.39601e-05
-2.25138e-05
6.7196e-05
-6.17899e-06
6.73256e-05
-2.36406e-07
6.73786e-05
-1.12437e-07
6.75015e-05
-2.47553e-07
-1.34913e-07
-2.95888e-06
9.08648e-06
-6.22044e-06
9.8738e-06
-7.21925e-06
3.03724e-06
-5.96028e-06
-3.77589e-06
-4.36327e-06
-4.84496e-06
-3.36643e-06
-3.05748e-06
-2.90925e-06
-1.41476e-06
-2.78865e-06
-3.96529e-07
-2.65175e-06
-4.40824e-07
-2.53522e-06
-3.85225e-07
-2.43165e-06
-2.62865e-07
-2.06457e-06
-9.5898e-07
-1.47847e-06
-1.4958e-06
-8.18853e-07
-2.00023e-06
3.87178e-07
-4.03713e-06
2.87724e-06
-7.9713e-06
6.76599e-06
-1.18076e-05
1.12878e-05
-1.33826e-05
1.56086e-05
-1.26847e-05
1.94015e-05
-1.12634e-05
2.27946e-05
-1.01576e-05
2.59475e-05
-9.50273e-06
2.89646e-05
-9.13156e-06
3.19087e-05
-8.89601e-06
3.48619e-05
-8.90066e-06
3.79498e-05
-9.28583e-06
4.07086e-05
-8.19432e-06
4.31339e-05
-7.65297e-06
5.22095e-05
-2.80098e-05
6.36775e-05
-3.39808e-05
6.71803e-05
-9.67996e-06
6.73345e-05
-3.91825e-07
6.73813e-05
-1.59218e-07
6.75026e-05
-3.68828e-07
-2.0223e-07
-2.87445e-06
1.19609e-05
-6.10304e-06
1.31024e-05
-7.0722e-06
4.00634e-06
-5.79779e-06
-5.05021e-06
-4.22178e-06
-6.42175e-06
-3.2547e-06
-4.02438e-06
-2.81613e-06
-1.85326e-06
-2.70872e-06
-5.03324e-07
-2.58384e-06
-5.63619e-07
-2.48483e-06
-4.80868e-07
-2.37804e-06
-3.52268e-07
-1.9505e-06
-1.38571e-06
-1.28035e-06
-2.15731e-06
-6.2428e-07
-2.678e-06
4.47018e-07
-5.13177e-06
2.77512e-06
-1.03076e-05
6.61038e-06
-1.56293e-05
1.11949e-05
-1.79609e-05
1.56064e-05
-1.70775e-05
1.94578e-05
-1.51271e-05
2.28665e-05
-1.35704e-05
2.60028e-05
-1.26356e-05
2.89905e-05
-1.21193e-05
3.19087e-05
-1.18144e-05
3.48433e-05
-1.18352e-05
3.79206e-05
-1.23657e-05
4.0709e-05
-1.0993e-05
4.30388e-05
-9.97394e-06
5.18654e-05
-3.68343e-05
6.34165e-05
-4.55309e-05
6.71641e-05
-1.34254e-05
6.73431e-05
-5.7215e-07
6.73842e-05
-2.00324e-07
6.75037e-05
-4.88404e-07
-2.6938e-07
-2.77867e-06
1.47395e-05
-5.97086e-06
1.62945e-05
-6.89499e-06
4.93039e-06
-5.59512e-06
-6.35001e-06
-4.0442e-06
-7.97342e-06
-3.11347e-06
-4.95492e-06
-2.69761e-06
-2.26907e-06
-2.60397e-06
-5.96445e-07
-2.49125e-06
-6.74501e-07
-2.40992e-06
-5.59329e-07
-2.2965e-06
-4.47777e-07
-1.80372e-06
-1.8789e-06
-1.04837e-06
-2.90398e-06
-3.95158e-07
-3.35274e-06
5.4582e-07
-6.09538e-06
2.7099e-06
-1.24802e-05
6.48153e-06
-1.93863e-05
1.11293e-05
-2.26017e-05
1.56447e-05
-2.15699e-05
1.95664e-05
-1.90633e-05
2.29944e-05
-1.70027e-05
2.61123e-05
-1.57496e-05
2.90665e-05
-1.50736e-05
3.19533e-05
-1.47014e-05
3.4864e-05
-1.47458e-05
3.79257e-05
-1.54301e-05
4.07396e-05
-1.38175e-05
4.29963e-05
-1.22214e-05
5.15804e-05
-4.54162e-05
6.31752e-05
-5.71247e-05
6.71472e-05
-1.73956e-05
6.73513e-05
-7.7748e-07
6.73872e-05
-2.36229e-07
6.7505e-05
-6.06252e-07
-3.36308e-07
-2.67112e-06
1.74105e-05
-5.82202e-06
1.94454e-05
-6.68276e-06
5.79105e-06
-5.34821e-06
-7.68447e-06
-3.82855e-06
-9.49384e-06
-2.94163e-06
-5.84166e-06
-2.55299e-06
-2.65762e-06
-2.47342e-06
-6.75369e-07
-2.37333e-06
-7.72468e-07
-2.30886e-06
-6.202e-07
-2.18396e-06
-5.55793e-07
-1.62187e-06
-2.43738e-06
-7.81468e-07
-3.73424e-06
-1.27963e-07
-4.03226e-06
6.95319e-07
-6.94583e-06
2.70386e-06
-1.44992e-05
6.40557e-06
-2.30691e-05
1.11147e-05
-2.7301e-05
1.5747e-05
-2.61727e-05
1.975e-05
-2.30849e-05
2.31976e-05
-2.0456e-05
2.62907e-05
-1.88381e-05
2.92038e-05
-1.79868e-05
3.20513e-05
-1.75492e-05
3.4931e-05
-1.76254e-05
3.7971e-05
-1.84732e-05
4.08053e-05
-1.66637e-05
4.30068e-05
-1.44124e-05
5.13502e-05
-5.37574e-05
6.29511e-05
-6.87245e-05
6.71297e-05
-2.15721e-05
6.73591e-05
-1.00823e-06
6.73904e-05
-2.67408e-07
6.75064e-05
-7.22382e-07
-4.02954e-07
-2.5512e-06
1.99616e-05
-5.6541e-06
2.25483e-05
-6.42921e-06
6.56606e-06
-5.05119e-06
-9.06242e-06
-3.57154e-06
-1.09742e-05
-2.73658e-06
-6.67642e-06
-2.38005e-06
-3.01411e-06
-2.31467e-06
-7.40196e-07
-2.22781e-06
-8.57486e-07
-2.17887e-06
-6.66048e-07
-2.03693e-06
-6.80539e-07
-1.40217e-06
-3.06987e-06
-4.76749e-07
-4.64942e-06
1.83918e-07
-4.71925e-06
9.09155e-07
-7.69698e-06
2.78298e-06
-1.63837e-05
6.42085e-06
-2.66877e-05
1.11925e-05
-3.20617e-05
1.59547e-05
-3.08975e-05
2.00481e-05
-2.72022e-05
2.35096e-05
-2.39238e-05
2.65632e-05
-2.18862e-05
2.94206e-05
-2.08441e-05
3.22161e-05
-2.03449e-05
3.50551e-05
-2.04644e-05
3.80653e-05
-2.14867e-05
4.09135e-05
-1.95247e-05
4.30738e-05
-1.65613e-05
5.1173e-05
-6.18543e-05
6.27421e-05
-8.02924e-05
6.71117e-05
-2.594e-05
6.73665e-05
-1.26425e-06
6.73936e-05
-2.94417e-07
6.75079e-05
-8.36766e-07
-4.69264e-07
-2.41817e-06
2.23797e-05
-5.46402e-06
2.55942e-05
-6.1269e-06
7.22883e-06
-4.69742e-06
-1.04918e-05
-3.26943e-06
-1.2403e-05
-2.49478e-06
-7.45086e-06
-2.17536e-06
-3.33343e-06
-2.12398e-06
-7.90833e-07
-2.05075e-06
-9.2843e-07
-2.01543e-06
-6.97258e-07
-1.85012e-06
-8.28686e-07
-1.13873e-06
-3.77461e-06
-1.25406e-07
-5.65045e-06
5.54355e-07
-5.43231e-06
1.20582e-06
-8.38143e-06
2.97615e-06
-1.81673e-05
6.5752e-06
-3.02612e-05
1.14245e-05
-3.6896e-05
1.63348e-05
-3.57592e-05
2.05274e-05
-3.14258e-05
2.39881e-05
-2.73935e-05
2.69729e-05