/*--------------------------------*- C++ -*----------------------------------*\
| =========                 |                                                 |
| \\      /  F ield         | OpenFOAM: The Open Source CFD Toolbox           |
|  \\    /   O peration     | Version:  v1912                                 |
|   \\  /    A nd           | Website:  www.openfoam.com                      |
|    \\/     M anipulation  |                                                 |
\*---------------------------------------------------------------------------*/
FoamFile
{
    version     2.0;
    format      ascii;
    class       volVectorField;
    location    "330";
    object      U;
}
// * * * * * * * * * * * * * * * * * * * * * * * * * * * * * * * * * * * * * //

dimensions      [0 1 -1 0 0 0 0];


internalField   nonuniform List<vector> 
12441
(
(29.9989 1.68471e-05 0)
(29.9856 5.11155e-05 0)
(29.9569 8.8202e-05 0)
(29.9132 0.000135866 0)
(29.8558 0.000198512 0)
(29.7827 0.00028242 0)
(29.6918 0.000393339 0)
(29.5782 0.000557906 0)
(29.4358 0.000776378 0)
(29.2594 0.0010928 0)
(29.0366 0.00153178 0)
(28.7601 0.00215423 0)
(28.4254 0.00296101 0)
(27.9604 0.00452698 0)
(27.4159 0.00620364 0)
(26.6491 0.0111684 0)
(25.5935 0.0149337 0)
(23.9479 0.031084 0)
(21.6298 0.0523818 0)
(17.9706 0.0909996 0)
(12.1916 0.122577 0)
(5.85593 0.197932 0)
(29.9989 5.00934e-05 0)
(29.9855 0.000152917 0)
(29.9568 0.000263111 0)
(29.9131 0.000405198 0)
(29.8558 0.000592069 0)
(29.7827 0.000842693 0)
(29.6918 0.00117525 0)
(29.5782 0.00166734 0)
(29.4358 0.00232133 0)
(29.2596 0.00326971 0)
(29.0366 0.00458619 0)
(28.7597 0.00645691 0)
(28.4239 0.00890015 0)
(27.9607 0.0134819 0)
(27.4204 0.0186621 0)
(26.6509 0.0333638 0)
(25.5924 0.047518 0)
(23.9478 0.0891344 0)
(21.6293 0.13676 0)
(17.9684 0.263303 0)
(12.192 0.360151 0)
(5.85932 0.591098 0)
(29.9989 8.3242e-05 0)
(29.9855 0.000254786 0)
(29.9568 0.000437205 0)
(29.9131 0.000673315 0)
(29.8558 0.000984233 0)
(29.7827 0.00140233 0)
(29.6918 0.0019558 0)
(29.5782 0.00277535 0)
(29.4358 0.00386533 0)
(29.2596 0.00544416 0)
(29.0365 0.00763532 0)
(28.7598 0.0107596 0)
(28.4244 0.0148731 0)
(27.9564 0.0223651 0)
(27.4172 0.0311718 0)
(26.6526 0.054763 0)
(25.5936 0.0807267 0)
(23.9527 0.145383 0)
(21.6324 0.218649 0)
(17.9679 0.433291 0)
(12.1977 0.594241 0)
(5.86722 0.982273 0)
(29.9989 0.000116819 0)
(29.9855 0.000357364 0)
(29.9568 0.000612146 0)
(29.9132 0.000942713 0)
(29.8559 0.00137811 0)
(29.7827 0.00196396 0)
(29.6918 0.00273889 0)
(29.5783 0.00388664 0)
(29.4359 0.0054131 0)
(29.2596 0.00762413 0)
(29.0367 0.0106922 0)
(28.7597 0.015073 0)
(28.4243 0.0208472 0)
(27.962 0.0312875 0)
(27.4211 0.0437102 0)
(26.6506 0.0762248 0)
(25.5949 0.113194 0)
(23.9575 0.204631 0)
(21.6408 0.325277 0)
(17.9722 0.611294 0)
(12.2097 0.832305 0)
(5.87992 1.37511 0)
(29.9989 0.000150454 0)
(29.9855 0.000459795 0)
(29.9568 0.000786891 0)
(29.9131 0.0012119 0)
(29.8559 0.00177163 0)
(29.7827 0.00252502 0)
(29.6918 0.00352128 0)
(29.5783 0.00499712 0)
(29.4359 0.00695979 0)
(29.2597 0.00980291 0)
(29.0366 0.0137475 0)
(28.76 0.0193823 0)
(28.425 0.0268141 0)
(27.9571 0.0402027 0)
(27.4177 0.0562626 0)
(26.6532 0.0974493 0)
(25.5975 0.14516 0)
(23.9622 0.264631 0)
(21.6518 0.414708 0)
(17.9824 0.785483 0)
(12.2296 1.07014 0)
(5.89768 1.76923 0)
(29.9989 0.000184083 0)
(29.9855 0.000562135 0)
(29.9569 0.000961612 0)
(29.9132 0.00148109 0)
(29.8559 0.00216512 0)
(29.7828 0.00308609 0)
(29.6918 0.00430381 0)
(29.5783 0.00610777 0)
(29.4359 0.00850684 0)
(29.2597 0.0119819 0)
(29.0368 0.0168042 0)
(28.7599 0.0236916 0)
(28.4246 0.0327814 0)
(27.9637 0.0491225 0)
(27.423 0.0688398 0)
(26.6515 0.118558 0)
(25.5999 0.176863 0)
(23.9663 0.324077 0)
(21.6645 0.502577 0)
(17.9991 0.958362 0)
(12.2587 1.30766 0)
(5.92089 2.16445 0)
(29.9989 0.000217706 0)
(29.9855 0.00066442 0)
(29.9569 0.00113632 0)
(29.9132 0.0017503 0)
(29.8559 0.00255857 0)
(29.7828 0.00364716 0)
(29.6919 0.00508634 0)
(29.5784 0.00721845 0)
(29.436 0.0100539 0)
(29.2598 0.0141609 0)
(29.0368 0.01986 0)
(28.7604 0.0280009 0)
(28.4254 0.0387481 0)
(27.9576 0.0580096 0)
(27.419 0.0813812 0)
(26.6542 0.139524 0)
(25.6039 0.207878 0)
(23.9707 0.381041 0)
(21.6813 0.592602 0)
(18.0253 1.13135 0)
(12.2995 1.54527 0)
(5.95003 2.56108 0)
(29.9989 0.000251326 0)
(29.9855 0.000766659 0)
(29.9569 0.00131102 0)
(29.9132 0.00201949 0)
(29.8559 0.00295195 0)
(29.7828 0.00420817 0)
(29.6919 0.00586888 0)
(29.5784 0.00832908 0)
(29.436 0.011601 0)
(29.2598 0.0163396 0)
(29.0371 0.0229174 0)
(28.76 0.0323083 0)
(28.4245 0.0447174 0)
(27.9655 0.0669021 0)
(27.4254 0.0938042 0)
(26.6516 0.160114 0)
(25.609 0.240463 0)
(23.9761 0.440002 0)
(21.7099 0.683732 0)
(18.067 1.30383 0)
(12.355 1.78317 0)
(5.98566 2.95957 0)
(29.9989 0.000284942 0)
(29.9855 0.000868847 0)
(29.9569 0.00148569 0)
(29.9132 0.00228867 0)
(29.8559 0.00334528 0)
(29.7828 0.00476917 0)
(29.6919 0.0066514 0)
(29.5784 0.00943975 0)
(29.4361 0.0131482 0)
(29.2599 0.0185182 0)
(29.0371 0.0259728 0)
(28.761 0.0366195 0)
(28.426 0.0506767 0)
(27.959 0.0758554 0)
(27.4218 0.106338 0)
(26.648 0.1811 0)
(25.6163 0.271516 0)
(23.9857 0.498429 0)
(21.7602 0.774553 0)
(18.1312 1.47546 0)
(12.4283 2.02161 0)
(6.02843 3.36043 0)
(29.9989 0.000318556 0)
(29.9855 0.00097099 0)
(29.9569 0.00166036 0)
(29.9132 0.00255784 0)
(29.856 0.00373854 0)
(29.7829 0.00533011 0)
(29.692 0.0074339 0)
(29.5785 0.0105503 0)
(29.4361 0.0146953 0)
(29.26 0.0206963 0)
(29.0374 0.0290295 0)
(28.7602 0.0409284 0)
(28.4235 0.0566529 0)
(27.9673 0.0846251 0)
(27.4278 0.119584 0)
(26.6429 0.202404 0)
(25.628 0.303051 0)
(24.0067 0.554959 0)
(21.8336 0.865045 0)
(18.2202 1.64647 0)
(12.5218 2.26096 0)
(6.07898 3.76424 0)
(29.9989 0.000352165 0)
(29.9855 0.00107309 0)
(29.9569 0.00183502 0)
(29.9132 0.002827 0)
(29.8559 0.00413176 0)
(29.7829 0.00589103 0)
(29.692 0.00821639 0)
(29.5785 0.0116609 0)
(29.4362 0.0162424 0)
(29.26 0.022874 0)
(29.0375 0.0320863 0)
(28.7612 0.0452398 0)
(28.4263 0.0626386 0)
(27.9679 0.093366 0)
(27.4264 0.132164 0)
(26.6392 0.222624 0)
(25.6429 0.335567 0)
(24.0409 0.610786 0)
(21.9174 0.955309 0)
(18.3281 1.81679 0)
(12.6359 2.50152 0)
(6.13792 4.17162 0)
(29.9989 0.000385769 0)
(29.9855 0.00117514 0)
(29.9569 0.00200968 0)
(29.9132 0.00309615 0)
(29.856 0.00452491 0)
(29.7829 0.00645188 0)
(29.692 0.00899886 0)
(29.5785 0.0127714 0)
(29.4363 0.0177897 0)
(29.2601 0.0250502 0)
(29.0379 0.0351462 0)
(28.7602 0.0495496 0)
(28.4224 0.0685406 0)
(27.9763 0.102343 0)
(27.4267 0.145678 0)
(26.6377 0.243162 0)
(25.6573 0.367921 0)
(24.0788 0.664993 0)
(21.9959 1.04461 0)
(18.4444 1.9859 0)
(12.7687 2.74341 0)
(6.20573 4.58317 0)
(29.9989 0.000419365 0)
(29.9855 0.00127714 0)
(29.9569 0.00218434 0)
(29.9132 0.00336529 0)
(29.856 0.00491803 0)
(29.7829 0.00701272 0)
(29.6921 0.00978131 0)
(29.5786 0.0138817 0)
(29.4364 0.0193369 0)
(29.2602 0.0272258 0)
(29.0383 0.0382078 0)
(28.7601 0.0539386 0)
(28.4234 0.0743634 0)
(27.9781 0.111383 0)
(27.4239 0.159493 0)
(26.6381 0.263287 0)
(25.6685 0.399778 0)
(24.1114 0.717354 0)
(22.0616 1.13258 0)
(18.5593 2.15322 0)
(12.9169 2.98647 0)
(6.28264 4.99948 0)
(29.9989 0.000452956 0)
(29.9855 0.0013791 0)
(29.9569 0.00235902 0)
(29.9132 0.00363441 0)
(29.856 0.00531109 0)
(29.783 0.00757348 0)
(29.6921 0.0105637 0)
(29.5786 0.0149919 0)
(29.4364 0.0208841 0)
(29.2602 0.0294008 0)
(29.0388 0.041292 0)
(28.7592 0.0583533 0)
(28.4206 0.0805659 0)
(27.9783 0.120435 0)
(27.4221 0.17288 0)
(26.6392 0.282792 0)
(25.6761 0.43112 0)
(24.136 0.768243 0)
(22.1143 1.21923 0)
(18.667 2.31839 0)
(13.0763 3.23042 0)
(6.36864 5.42104 0)
(29.9989 0.000486537 0)
(29.9856 0.00148101 0)
(29.9569 0.0025337 0)
(29.9132 0.00390353 0)
(29.856 0.00570411 0)
(29.783 0.0081342 0)
(29.6921 0.0113462 0)
(29.5787 0.0161018 0)
(29.4365 0.0224315 0)
(29.2603 0.0315715 0)
(29.0391 0.0444022 0)
(28.7596 0.0626768 0)
(28.4213 0.0866977 0)
(27.9768 0.12931 0)
(27.4208 0.186128 0)
(26.6405 0.302067 0)
(25.6809 0.462195 0)
(24.1536 0.818134 0)
(22.1567 1.30468 0)
(18.765 2.48117 0)
(13.2432 3.47485 0)
(6.46348 5.84828 0)
(29.9989 0.00052011 0)
(29.9856 0.00158288 0)
(29.9569 0.00270841 0)
(29.9133 0.00417263 0)
(29.856 0.00609707 0)
(29.783 0.00869485 0)
(29.6922 0.0121285 0)
(29.5787 0.0172117 0)
(29.4366 0.0239777 0)
(29.2605 0.0337444 0)
(29.0397 0.0475183 0)
(28.7608 0.0671172 0)
(28.4205 0.0928685 0)
(27.9758 0.138035 0)
(27.4202 0.199258 0)
(26.6415 0.321285 0)
(25.6836 0.49314 0)
(24.1661 0.867367 0)
(22.1916 1.38904 0)
(18.853 2.64141 0)
(13.4145 3.71938 0)
(6.56672 6.28152 0)
(29.9989 0.000553673 0)
(29.9856 0.0016847 0)
(29.9569 0.00288313 0)
(29.9132 0.00444173 0)
(29.856 0.00649001 0)
(29.783 0.00925546 0)
(29.6922 0.0129109 0)
(29.5788 0.0183215 0)
(29.4367 0.0255243 0)
(29.2606 0.0359101 0)
(29.0404 0.0506972 0)
(28.7617 0.0715644 0)
(28.4198 0.0989665 0)
(27.9749 0.146768 0)
(27.4198 0.212394 0)
(26.6425 0.340488 0)
(25.685 0.524002 0)
(24.1751 0.916131 0)
(22.2213 1.47238 0)
(18.9322 2.79902 0)
(13.588 3.96361 0)
(6.67787 6.72103 0)
(29.9989 0.000587226 0)
(29.9856 0.00178648 0)
(29.9569 0.00305789 0)
(29.9133 0.0047108 0)
(29.8561 0.0068829 0)
(29.7831 0.00981599 0)
(29.6922 0.0136932 0)
(29.5788 0.019431 0)
(29.4367 0.0270708 0)
(29.2607 0.0380686 0)
(29.041 0.0538928 0)
(28.7618 0.0760234 0)
(28.419 0.105047 0)
(27.9743 0.15548 0)
(27.4196 0.225525 0)
(26.6433 0.359695 0)
(25.6856 0.554806 0)
(24.1817 0.964529 0)
(22.2479 1.55477 0)
(19.004 2.95392 0)
(13.7623 4.20721 0)
(6.7964 7.16702 0)
(29.9989 0.000620768 0)
(29.9856 0.00188821 0)
(29.9569 0.00323266 0)
(29.9133 0.00497987 0)
(29.856 0.00727575 0)
(29.7831 0.0103765 0)
(29.6923 0.0144754 0)
(29.5789 0.0205407 0)
(29.4369 0.0286164 0)
(29.2609 0.0402365 0)
(29.0414 0.057074 0)
(28.7615 0.0803418 0)
(28.4185 0.111124 0)
(27.9739 0.164217 0)
(27.4194 0.238668 0)
(26.644 0.378903 0)
(25.6857 0.585565 0)
(24.1869 1.01262 0)
(22.2726 1.63625 0)
(19.0698 3.10609 0)
(13.9368 4.44987 0)
(6.92183 7.61968 0)
(29.9989 0.0006543 0)
(29.9856 0.0019899 0)
(29.9569 0.00340746 0)
(29.9133 0.00524892 0)
(29.8561 0.00766856 0)
(29.7831 0.0109369 0)
(29.6923 0.0152575 0)
(29.5789 0.02165 0)
(29.4369 0.0301629 0)
(29.2611 0.0424134 0)
(29.0413 0.0603079 0)
(28.7612 0.0845626 0)
(28.4181 0.117224 0)
(27.9737 0.172957 0)
(27.4194 0.251806 0)
(26.6448 0.398118 0)
(25.6855 0.616289 0)
(24.1914 1.06043 0)
(22.2966 1.71687 0)
(19.1312 3.2555 0)
(14.1113 4.69133 0)
(7.05373 8.07916 0)
(29.9989 0.000687818 0)
(29.9856 0.00209153 0)
(29.9569 0.00358228 0)
(29.9133 0.00551796 0)
(29.8561 0.00806134 0)
(29.7831 0.0114972 0)
(29.6924 0.0160396 0)
(29.579 0.022759 0)
(29.437 0.031709 0)
(29.2614 0.0446078 0)
(29.0405 0.0635412 0)
(28.761 0.0887672 0)
(28.4179 0.123332 0)
(27.9736 0.181711 0)
(27.4195 0.264944 0)
(26.6456 0.417341 0)
(25.6855 0.64699 0)
(24.1959 1.10796 0)
(22.3207 1.79664 0)
(19.1895 3.40215 0)
(14.2862 4.93137 0)
(7.19179 8.54563 0)
(29.9989 0.000721327 0)
(29.9856 0.00219313 0)
(29.957 0.00375714 0)
(29.9133 0.00578697 0)
(29.8561 0.00845407 0)
(29.7832 0.0120575 0)
(29.6924 0.0168213 0)
(29.5791 0.0238684 0)
(29.4371 0.0332512 0)
(29.2618 0.0468636 0)
(29.0393 0.0667248 0)
(28.7609 0.0929814 0)
(28.4178 0.129461 0)
(27.9737 0.190465 0)
(27.4197 0.278074 0)
(26.6466 0.436572 0)
(25.6858 0.677673 0)
(24.2007 1.15519 0)
(22.3455 1.87558 0)
(19.2459 3.54603 0)
(14.4622 5.16981 0)
(7.33575 9.01924 0)
(29.9989 0.000754821 0)
(29.9856 0.00229467 0)
(29.957 0.00393202 0)
(29.9133 0.00605597 0)
(29.8561 0.00884676 0)
(29.7832 0.0126177 0)
(29.6924 0.017603 0)
(29.5792 0.0249777 0)
(29.4372 0.0347921 0)
(29.2621 0.0491616 0)
(29.0382 0.0698764 0)
(28.761 0.0972241 0)
(28.4177 0.135595 0)
(27.9738 0.199221 0)
(27.42 0.291198 0)
(26.6479 0.45581 0)
(25.6867 0.708342 0)
(24.2062 1.20207 0)
(22.3712 1.95371 0)
(19.3015 3.68715 0)
(14.64 5.40648 0)
(7.48548 9.50017 0)
(29.9989 0.000788306 0)
(29.9856 0.00239617 0)
(29.957 0.00410693 0)
(29.9133 0.00632495 0)
(29.8562 0.00923942 0)
(29.7832 0.0131778 0)
(29.6925 0.0183845 0)
(29.5792 0.0260869 0)
(29.4373 0.0363304 0)
(29.2623 0.0514868 0)
(29.0376 0.07293 0)
(28.7611 0.101489 0)
(28.4178 0.141738 0)
(27.974 0.207974 0)
(27.4206 0.304314 0)
(26.6494 0.47505 0)
(25.6885 0.738982 0)
(24.2125 1.24858 0)
(22.398 2.03105 0)
(19.3571 3.82549 0)
(14.8208 5.64126 0)
(7.64094 9.9886 0)
(29.9989 0.000821775 0)
(29.9856 0.00249763 0)
(29.957 0.00428186 0)
(29.9133 0.00659391 0)
(29.8561 0.00963204 0)
(29.7832 0.0137378 0)
(29.6925 0.0191657 0)
(29.5793 0.0271962 0)
(29.4374 0.037866 0)
(29.2623 0.0537909 0)
(29.0374 0.0759116 0)
(28.7613 0.105768 0)
(28.4179 0.147883 0)
(27.9744 0.216725 0)
(27.4212 0.317422 0)
(26.6513 0.494284 0)
(25.6913 0.769569 0)
(24.2199 1.29469 0)
(22.426 2.10761 0)
(19.4133 3.961 0)
(15.0057 5.87402 0)
(7.80217 10.4847 0)
(29.9989 0.000855234 0)
(29.9856 0.00259904 0)
(29.957 0.00445683 0)
(29.9133 0.00686285 0)
(29.8562 0.0100246 0)
(29.7833 0.0142977 0)
(29.6926 0.019947 0)
(29.5793 0.0283038 0)
(29.4377 0.0394172 0)
(29.262 0.056074 0)
(29.0374 0.0788617 0)
(28.7616 0.110055 0)
(28.418 0.15403 0)
(27.9748 0.225471 0)
(27.4222 0.330517 0)
(26.6537 0.513498 0)
(25.6951 0.800076 0)
(24.2283 1.34042 0)
(22.4551 2.18339 0)
(19.4707 4.09364 0)
(15.1959 6.10468 0)
(7.96933 10.9889 0)
(29.9989 0.000888678 0)
(29.9856 0.0027004 0)
(29.957 0.00463182 0)
(29.9133 0.00713176 0)
(29.8561 0.0104172 0)
(29.7833 0.0148574 0)
(29.6927 0.0207284 0)
(29.5794 0.0294124 0)
(29.438 0.0409768 0)
(29.2613 0.0584539 0)
(29.0375 0.0818173 0)
(28.7618 0.114348 0)
(28.4183 0.160175 0)
(27.9753 0.234211 0)
(27.4233 0.343593 0)
(26.6565 0.532677 0)
(25.7 0.830486 0)
(24.2378 1.38578 0)
(22.4853 2.25839 0)
(19.5297 4.22331 0)
(15.3928 6.33314 0)
(8.14262 11.5012 0)
(29.9989 0.000922112 0)
(29.9856 0.00280172 0)
(29.957 0.00480684 0)
(29.9134 0.00740065 0)
(29.8562 0.0108097 0)
(29.7834 0.0154171 0)
(29.6927 0.0215094 0)
(29.5794 0.0305199 0)
(29.4384 0.0425463 0)
(29.2605 0.0607935 0)
(29.0376 0.0847967 0)
(28.7621 0.118643 0)
(28.4185 0.16632 0)
(27.9759 0.242945 0)
(27.4247 0.356646 0)
(26.6599 0.551808 0)
(25.706 0.860794 0)
(24.2486 1.43077 0)
(22.5164 2.3326 0)
(19.5904 4.34989 0)
(15.5974 6.55933 0)
(8.32231 12.022 0)
(29.9988 0.00095553 0)
(29.9857 0.002903 0)
(29.957 0.00498189 0)
(29.9133 0.0076695 0)
(29.8562 0.0112022 0)
(29.7833 0.0159765 0)
(29.6928 0.0222911 0)
(29.5794 0.031623 0)
(29.4388 0.0441696 0)
(29.2597 0.0629889 0)
(29.0379 0.0878024 0)
(28.7624 0.122939 0)
(28.4188 0.172462 0)
(27.9767 0.251668 0)
(27.4263 0.36967 0)
(26.6637 0.570879 0)
(25.713 0.890997 0)
(24.2605 1.4754 0)
(22.5484 2.40602 0)
(19.6531 4.47325 0)
(15.8107 6.78315 0)
(8.50873 12.5518 0)
(29.9989 0.000988938 0)
(29.9856 0.00300423 0)
(29.957 0.00515696 0)
(29.9134 0.00793833 0)
(29.8563 0.0115946 0)
(29.7834 0.0165358 0)
(29.6928 0.0230725 0)
(29.5795 0.0327255 0)
(29.4391 0.0458148 0)
(29.2591 0.0651577 0)
(29.0382 0.0908279 0)
(28.7628 0.127236 0)
(28.4192 0.1786 0)
(27.9775 0.260379 0)
(27.4282 0.38266 0)
(26.668 0.589882 0)
(25.7208 0.921091 0)
(24.2738 1.51968 0)
(22.5814 2.47863 0)
(19.7174 4.59322 0)
(16.0336 7.00452 0)
(8.70223 13.0907 0)
(29.9988 0.00102233 0)
(29.9857 0.00310542 0)
(29.957 0.00533205 0)
(29.9134 0.00820713 0)
(29.8562 0.011987 0)
(29.7834 0.017095 0)
(29.6929 0.0238538 0)
(29.5796 0.0338279 0)
(29.4393 0.0474684 0)
(29.2589 0.0673173 0)
(29.0385 0.0938652 0)
(28.7631 0.131533 0)
(28.4196 0.184734 0)
(27.9785 0.269076 0)
(27.4303 0.395611 0)
(26.6727 0.608814 0)
(25.7296 0.951068 0)
(24.2884 1.56359 0)
(22.6152 2.55042 0)
(19.7834 4.70963 0)
(16.2664 7.22334 0)
(8.90318 13.6392 0)
(29.9989 0.00105571 0)
(29.9857 0.00320656 0)
(29.957 0.00550717 0)
(29.9134 0.0084759 0)
(29.8563 0.0123794 0)
(29.7835 0.017654 0)
(29.693 0.0246349 0)
(29.5796 0.0349296 0)
(29.4394 0.04913 0)
(29.259 0.0694555 0)
(29.0389 0.0969094 0)
(28.7635 0.13583 0)
(28.4201 0.190863 0)
(27.9795 0.277757 0)
(27.4327 0.408523 0)
(26.6778 0.627666 0)
(25.7391 0.980916 0)
(24.3044 1.60714 0)
(22.6501 2.62141 0)
(19.8509 4.82231 0)
(16.5093 7.4395 0)
(9.11191 14.1977 0)
(29.9988 0.00108908 0)
(29.9857 0.00330766 0)
(29.957 0.0056823 0)
(29.9134 0.00874464 0)
(29.8563 0.0127717 0)
(29.7835 0.0182129 0)
(29.693 0.0254158 0)
(29.5798 0.0360315 0)
(29.4394 0.0507961 0)
(29.2594 0.0715791 0)
(29.0393 0.0999584 0)
(28.7638 0.140126 0)
(28.4206 0.196986 0)
(27.9807 0.28642 0)
(27.4352 0.421391 0)
(26.6832 0.646435 0)
(25.7494 1.01062 0)
(24.3219 1.65033 0)
(22.6859 2.69158 0)
(19.9196 4.93109 0)
(16.7623 7.65289 0)
(9.32877 14.7666 0)
(29.9989 0.00112244 0)
(29.9857 0.00340872 0)
(29.957 0.00585745 0)
(29.9134 0.00901335 0)
(29.8564 0.0131639 0)
(29.7836 0.0187718 0)
(29.6931 0.0261958 0)
(29.5799 0.0371336 0)
(29.4393 0.0524639 0)
(29.2599 0.0736898 0)
(29.0397 0.103011 0)
(28.7642 0.144421 0)
(28.4212 0.203103 0)
(27.982 0.295063 0)
(27.438 0.434215 0)
(26.689 0.665113 0)
(25.7605 1.04017 0)
(24.3407 1.69316 0)
(22.7229 2.76094 0)
(19.9897 5.0358 0)
(17.0249 7.86337 0)
(9.55403 15.3462 0)
(29.9988 0.00115579 0)
(29.9857 0.00350975 0)
(29.957 0.00603261 0)
(29.9134 0.00928203 0)
(29.8563 0.0135561 0)
(29.7835 0.0193308 0)
(29.6931 0.0269756 0)
(29.5802 0.0382326 0)
(29.4392 0.0541302 0)
(29.2605 0.0757913 0)
(29.0402 0.106067 0)
(28.7647 0.148716 0)
(28.4218 0.209212 0)
(27.9833 0.303687 0)
(27.4409 0.446992 0)
(26.6951 0.683696 0)
(25.7724 1.06955 0)
(24.3611 1.73561 0)
(22.7611 2.8295 0)
(20.061 5.13629 0)
(17.2971 8.07081 0)
(9.78798 15.9371 0)
(29.9989 0.00118913 0)
(29.9857 0.00361073 0)
(29.957 0.0062078 0)
(29.9135 0.00955065 0)
(29.8564 0.0139483 0)
(29.7837 0.019889 0)
(29.6931 0.0277575 0)
(29.5804 0.0393287 0)
(29.4389 0.0557269 0)
(29.2611 0.0778844 0)
(29.0406 0.109126 0)
(28.7651 0.153009 0)
(28.4225 0.215314 0)
(27.9848 0.31229 0)
(27.444 0.459721 0)
(26.7015 0.702175 0)
(25.7849 1.09874 0)
(24.3829 1.77769 0)
(22.8007 2.89724 0)
(20.1338 5.23241 0)
(17.5785 8.27506 0)
(10.0308 16.5396 0)
(29.9988 0.00122245 0)
(29.9857 0.00371168 0)
(29.957 0.00638297 0)
(29.9134 0.00981928 0)
(29.8563 0.0143401 0)
(29.7836 0.0204485 0)
(29.6932 0.0285319 0)
(29.5806 0.0404711 0)
(29.4387 0.0571281 0)
(29.2618 0.0799802 0)
(29.0411 0.112188 0)
(28.7656 0.1573 0)
(28.4232 0.221407 0)
(27.9863 0.32087 0)
(27.4473 0.4724 0)
(26.7082 0.720545 0)
(25.7982 1.12773 0)
(24.4062 1.81938 0)
(22.8419 2.96418 0)
(20.2084 5.32402 0)
(17.8692 8.47597 0)
(10.2828 17.1541 0)
(29.9988 0.00125577 0)
(29.9857 0.0038126 0)
(29.957 0.00655816 0)
(29.9135 0.0100879 0)
(29.8564 0.014732 0)
(29.7838 0.0210066 0)
(29.6932 0.0293135 0)
(29.5807 0.0415822 0)
(29.4386 0.0589413 0)
(29.2624 0.0821079 0)
(29.0416 0.115251 0)
(28.7661 0.16159 0)
(28.4239 0.227491 0)
(27.9879 0.329426 0)
(27.4507 0.485026 0)
(26.7151 0.738801 0)
(25.8121 1.15651 0)
(24.4308 1.86067 0)
(22.8848 3.03031 0)
(20.2847 5.41099 0)
(18.1695 8.6734 0)
(10.5442 17.781 0)
(29.9988 0.00128908 0)
(29.9857 0.00391346 0)
(29.957 0.00673336 0)
(29.9135 0.0103564 0)
(29.8564 0.0151241 0)
(29.7837 0.0215643 0)
(29.6933 0.0300911 0)
(29.5809 0.0427347 0)
(29.4388 0.0607116 0)
(29.2629 0.0842677 0)
(29.0421 0.118315 0)
(28.7665 0.165878 0)
(28.4247 0.233566 0)
(27.9896 0.337958 0)
(27.4542 0.497597 0)
(26.7224 0.756935 0)
(25.8267 1.18506 0)
(24.4569 1.90154 0)
(22.9299 3.09561 0)
(20.363 5.49318 0)
(18.4795 8.86719 0)
(10.8151 18.4208 0)
(29.9988 0.00132238 0)
(29.9857 0.00401429 0)
(29.9571 0.00690853 0)
(29.9135 0.010625 0)
(29.8565 0.0155152 0)
(29.7838 0.0221265 0)
(29.6934 0.0308499 0)
(29.5807 0.0439076 0)
(29.4389 0.0622091 0)
(29.2634 0.0864406 0)
(29.0426 0.12138 0)
(28.7671 0.170163 0)
(28.4255 0.239631 0)
(27.9913 0.346465 0)
(27.4579 0.510111 0)
(26.7299 0.774943 0)
(25.8419 1.21336 0)
(24.4843 1.94196 0)
(22.9773 3.16009 0)
(20.4429 5.57044 0)
(18.7996 9.05717 0)
(11.0959 19.074 0)
(29.9988 0.00135567 0)
(29.9857 0.00411508 0)
(29.9571 0.00708372 0)
(29.9135 0.0108933 0)
(29.8564 0.0159075 0)
(29.7838 0.0226803 0)
(29.6937 0.0316636 0)
(29.5804 0.0448063 0)
(29.4389 0.0636406 0)
(29.2638 0.0886144 0)
(29.043 0.124445 0)
(28.7676 0.174446 0)
(28.4263 0.245685 0)
(27.9931 0.354947 0)
(27.4617 0.52257 0)
(26.7377 0.792819 0)
(25.8576 1.24141 0)
(24.5129 1.98192 0)
(23.0274 3.22375 0)
(20.5239 5.64264 0)
(19.1288 9.24323 0)
(11.3867 19.7408 0)
(29.9988 0.00138895 0)
(29.9857 0.0042159 0)
(29.9571 0.00725896 0)
(29.9135 0.0111617 0)
(29.8566 0.0162991 0)
(29.7838 0.023239 0)
(29.6941 0.0324563 0)
(29.5788 0.0460884 0)
(29.4389 0.0651033 0)
(29.2641 0.0907859 0)
(29.0435 0.127508 0)
(28.7681 0.178726 0)
(28.4272 0.25173 0)
(27.995 0.363401 0)
(27.4657 0.534966 0)
(26.7457 0.810559 0)
(25.874 1.26919 0)
(24.5427 2.02138 0)
(23.0806 3.28658 0)
(20.6054 5.70968 0)
(19.4642 9.42536 0)
(11.6878 20.4226 0)
(29.9988 0.00142205 0)
(29.9858 0.00431665 0)
(29.9571 0.0074343 0)
(29.9135 0.0114302 0)
(29.8565 0.0166911 0)
(29.7837 0.0237959 0)
(29.6945 0.0332604 0)
(29.5776 0.0474724 0)
(29.4389 0.0666041 0)
(29.2644 0.0929573 0)
(29.0439 0.13057 0)
(28.7686 0.183004 0)
(28.4281 0.257763 0)
(27.9969 0.371829 0)
(27.4697 0.547299 0)
(26.754 0.828154 0)
(25.8908 1.29668 0)
(24.5735 2.0603 0)
(23.1374 3.34861 0)
(20.6867 5.77155 0)
(19.7986 9.60326 0)
(11.9987 21.1268 0)
(29.9989 0.00145472 0)
(29.9857 0.00441664 0)
(29.9571 0.00760859 0)
(29.9135 0.0116973 0)
(29.8567 0.0170818 0)
(29.7838 0.0243427 0)
(29.6946 0.034112 0)
(29.5772 0.0485911 0)
(29.4388 0.0681157 0)
(29.2645 0.095124 0)
(29.0443 0.133628 0)
(28.7692 0.187277 0)
(28.429 0.263791 0)
(27.9988 0.380244 0)
(27.4739 0.559569 0)
(26.7625 0.845597 0)
(25.908 1.32388 0)
(24.6052 2.0986 0)
(23.1983 3.40986 0)
(20.7677 5.82833 0)
(20.1207 9.77491 0)
(12.4056 21.8748 0)
(-0.515857 0.03191 0)
(-2.28458 0.0315196 0)
(-3.40729 0.00892422 0)
(-3.12575 -0.0102441 0)
(-2.27281 -0.0121547 0)
(-1.70691 -0.00717187 0)
(-1.36491 -0.00308926 0)
(-1.29055 -0.000854068 0)
(-1.23835 -0.000870712 0)
(-1.14763 -0.000725304 0)
(-1.11443 -0.000388018 0)
(-1.05296 -0.00106557 0)
(-0.866288 -0.00156037 0)
(-0.680439 -0.0024404 0)
(-0.303432 -0.00515035 0)
(0.610637 -0.00902771 0)
(2.20683 -0.0116967 0)
(4.15223 -0.0118945 0)
(6.08562 -0.0103076 0)
(7.80352 -0.00841894 0)
(9.33585 -0.00703348 0)
(10.7674 -0.0061253 0)
(12.139 -0.00545256 0)
(13.4681 -0.00489415 0)
(14.7646 -0.00451306 0)
(16.0913 -0.00433367 0)
(17.4937 -0.00345484 0)
(18.4361 -0.00332475 0)
(19.8912 -0.0106083 0)
(27.118 -0.0111219 0)
(29.5316 -0.002693 0)
(29.6182 -8.78403e-05 0)
(29.6201 -4.93557e-05 0)
(29.6728 -9.2218e-05 0)
(29.7299 -4.59622e-05 0)
(-0.49852 0.0945642 0)
(-2.24859 0.0939313 0)
(-3.36357 0.0267443 0)
(-3.08183 -0.0303742 0)
(-2.23469 -0.0362315 0)
(-1.67901 -0.021316 0)
(-1.34309 -0.00919109 0)
(-1.27402 -0.00250222 0)
(-1.22631 -0.00254686 0)
(-1.14105 -0.00210779 0)
(-1.11473 -0.00129113 0)
(-1.04965 -0.00365116 0)
(-0.828924 -0.00514985 0)
(-0.605117 -0.00703467 0)
(-0.249632 -0.0143729 0)
(0.584026 -0.0258957 0)
(2.11882 -0.0342993 0)
(4.07084 -0.0351378 0)
(6.04208 -0.0306238 0)
(7.78906 -0.0251906 0)
(9.33151 -0.0211153 0)
(10.7597 -0.018364 0)
(12.1195 -0.0163212 0)
(13.4373 -0.0146494 0)
(14.7283 -0.0134975 0)
(16.0501 -0.0129685 0)
(17.4556 -0.0104368 0)
(18.4288 -0.00946206 0)
(19.7123 -0.0316044 0)
(26.8763 -0.0341559 0)
(29.5132 -0.00843588 0)
(29.6242 -0.000282873 0)
(29.622 -0.000139787 0)
(29.6732 -0.000275055 0)
(29.7303 -0.000137867 0)
(-0.474492 0.155817 0)
(-2.20734 0.155695 0)
(-3.31326 0.0442837 0)
(-3.0253 -0.0505472 0)
(-2.1813 -0.0601933 0)
(-1.6396 -0.0351981 0)
(-1.31054 -0.0150902 0)
(-1.24777 -0.00397365 0)
(-1.20444 -0.00406549 0)
(-1.12548 -0.00331393 0)
(-1.10696 -0.00201372 0)
(-1.03165 -0.00642689 0)
(-0.769855 -0.00929763 0)
(-0.514108 -0.0120358 0)
(-0.19576 -0.0230708 0)
(0.553548 -0.0415827 0)
(2.03682 -0.0560783 0)
(4.003 -0.0582862 0)
(6.01327 -0.051023 0)
(7.79055 -0.0419754 0)
(9.34474 -0.0351135 0)
(10.7696 -0.0304333 0)
(12.1178 -0.0270335 0)
(13.4234 -0.0243052 0)
(14.7075 -0.0224365 0)
(16.0233 -0.0215952 0)
(17.4293 -0.0175192 0)
(18.4323 -0.0154032 0)
(19.572 -0.051723 0)
(26.6543 -0.0572352 0)
(29.4946 -0.0147422 0)
(29.63 -0.000533334 0)
(29.6238 -0.000219288 0)
(29.6738 -0.000455139 0)
(29.7308 -0.000229634 0)
(-0.444887 0.215447 0)
(-2.16194 0.216931 0)
(-3.25528 0.0614837 0)
(-2.95286 -0.0709355 0)
(-2.11081 -0.0838254 0)
(-1.58627 -0.0487127 0)
(-1.26593 -0.020778 0)
(-1.21071 -0.00530196 0)
(-1.17133 -0.00545867 0)
(-1.0991 -0.00435874 0)
(-1.08952 -0.002804 0)
(-1.00168 -0.00981885 0)
(-0.697165 -0.0141668 0)
(-0.410566 -0.0169764 0)
(-0.129634 -0.030919 0)
(0.535014 -0.0566879 0)
(1.96293 -0.0781989 0)
(3.94194 -0.0822749 0)
(5.99482 -0.0721375 0)
(7.80791 -0.0591569 0)
(9.37756 -0.0492219 0)
(10.7998 -0.0424705 0)
(12.1358 -0.0376687 0)
(13.4277 -0.0338982 0)
(14.7029 -0.0313322 0)
(16.0113 -0.0302007 0)
(17.4156 -0.0246881 0)
(18.4474 -0.0210189 0)
(19.4686 -0.0713472 0)
(26.4508 -0.0806149 0)
(29.4758 -0.0215292 0)
(29.6354 -0.00082309 0)
(29.6257 -0.000289318 0)
(29.6744 -0.000632776 0)
(29.7312 -0.000321221 0)
(-0.409461 0.273248 0)
(-2.1125 0.277511 0)
(-3.18822 0.0780476 0)
(-2.86245 -0.0916092 0)
(-2.02298 -0.107057 0)
(-1.51867 -0.0617418 0)
(-1.20975 -0.0261948 0)
(-1.16293 -0.00647147 0)
(-1.12708 -0.00672048 0)
(-1.06217 -0.00522526 0)
(-1.06107 -0.00365124 0)
(-0.958091 -0.0137396 0)
(-0.609153 -0.0197168 0)
(-0.292591 -0.0219068 0)
(-0.0475024 -0.037855 0)
(0.534769 -0.0707797 0)
(1.90272 -0.100086 0)
(3.89107 -0.106765 0)
(5.99074 -0.0938344 0)
(7.84662 -0.0766872 0)
(9.4351 -0.0634089 0)
(10.8545 -0.0544352 0)
(12.1768 -0.0481905 0)
(13.4529 -0.0433975 0)
(14.7165 -0.0401653 0)
(16.0155 -0.038774 0)
(17.4159 -0.0319316 0)
(18.4751 -0.0264331 0)
(19.3997 -0.0904439 0)
(26.2642 -0.104114 0)
(29.4567 -0.0287619 0)
(29.6406 -0.00115627 0)
(29.6277 -0.000350617 0)
(29.675 -0.000807872 0)
(29.7317 -0.000412545 0)
(-0.367895 0.328976 0)
(-2.05902 0.33736 0)
(-3.1104 0.0936752 0)
(-2.75143 -0.112737 0)
(-1.9169 -0.129868 0)
(-1.43598 -0.0742136 0)
(-1.14185 -0.0312956 0)
(-1.10392 -0.00747794 0)
(-1.07133 -0.00784852 0)
(-1.01445 -0.00591732 0)
(-1.02034 -0.00458405 0)
(-0.899418 -0.0182179 0)
(-0.505259 -0.025924 0)
(-0.159815 -0.0268062 0)
(0.0534319 -0.04389 0)
(0.560701 -0.0837516 0)
(1.86812 -0.121469 0)
(3.86127 -0.131551 0)
(6.01096 -0.116051 0)
(7.91722 -0.0945778 0)
(9.52676 -0.0776761 0)
(10.9411 -0.0663062 0)
(12.2466 -0.0585747 0)
(13.5033 -0.0527797 0)
(14.7517 -0.0489159 0)
(16.0387 -0.0472971 0)
(17.4323 -0.0392378 0)
(18.5173 -0.0316991 0)
(19.3637 -0.109028 0)
(26.0922 -0.127644 0)
(29.4375 -0.0363993 0)
(29.6454 -0.00153323 0)
(29.6297 -0.000403977 0)
(29.6757 -0.00098042 0)
(29.7322 -0.000503525 0)
(-0.31984 0.382384 0)
(-2.00135 0.396374 0)
(-3.01975 0.108019 0)
(-2.61623 -0.134499 0)
(-1.79104 -0.152179 0)
(-1.33682 -0.0860383 0)
(-1.06135 -0.0360251 0)
(-1.0326 -0.00831869 0)
(-1.00305 -0.00883751 0)
(-0.955002 -0.00644665 0)
(-0.965837 -0.00564648 0)
(-0.824096 -0.0232772 0)
(-0.384611 -0.0327682 0)
(-0.0103431 -0.0317191 0)
(0.177122 -0.0491813 0)
(0.620807 -0.0957465 0)
(1.87437 -0.142313 0)
(3.87111 -0.156546 0)
(6.07354 -0.138792 0)
(8.03808 -0.112873 0)
(9.66905 -0.092024 0)
(11.0723 -0.0780478 0)
(12.3542 -0.0687813 0)
(13.5855 -0.0620105 0)
(14.8138 -0.0575584 0)
(16.0852 -0.0557502 0)
(17.4685 -0.0465921 0)
(18.577 -0.0368527 0)
(19.3606 -0.127082 0)
(25.9332 -0.151145 0)
(29.4182 -0.0444085 0)
(29.6498 -0.00195416 0)
(29.6317 -0.000450222 0)
(29.6765 -0.00115041 0)
(29.7327 -0.000594085 0)
(-0.264938 0.433212 0)
(-1.93922 0.454409 0)
(-2.91377 0.120658 0)
(-2.45272 -0.157043 0)
(-1.64383 -0.173835 0)
(-1.21949 -0.0971006 0)
(-0.966851 -0.0403188 0)
(-0.947366 -0.00899288 0)
(-0.920585 -0.00968011 0)
(-0.882009 -0.00682714 0)
(-0.895411 -0.00689062 0)
(-0.729628 -0.0289492 0)
(-0.24442 -0.0402616 0)
(0.161111 -0.0367299 0)
(0.330498 -0.0539189 0)
(0.724087 -0.106999 0)
(1.9383 -0.162743 0)
(3.94637 -0.181759 0)
(6.20728 -0.162086 0)
(8.23932 -0.131617 0)
(9.89021 -0.106433 0)
(11.2704 -0.0895962 0)
(12.5152 -0.0787434 0)
(13.7101 -0.0710361 0)
(14.9105 -0.0660566 0)
(16.1614 -0.0641075 0)
(17.5298 -0.053976 0)
(18.6584 -0.0419199 0)
(19.393 -0.14459 0)
(25.7861 -0.174545 0)
(29.399 -0.0527613 0)
(29.6539 -0.0024191 0)
(29.6337 -0.00049023 0)
(29.6774 -0.00131784 0)
(29.7332 -0.000684145 0)
(-0.202857 0.481185 0)
(-1.87222 0.511268 0)
(-2.78949 0.13109 0)
(-2.25713 -0.180485 0)
(-1.47426 -0.194631 0)
(-1.08244 -0.107283 0)
(-0.856644 -0.0441123 0)
(-0.846208 -0.00950475 0)
(-0.82169 -0.0103736 0)
(-0.79286 -0.00708068 0)
(-0.805879 -0.00838085 0)
(-0.612027 -0.0352797 0)
(-0.0792651 -0.0484529 0)
(0.363666 -0.0419646 0)
(0.524424 -0.0582906 0)
(0.882861 -0.117761 0)
(2.07973 -0.183021 0)
(4.12012 -0.207381 0)
(6.45302 -0.186062 0)
(8.56518 -0.150869 0)
(10.2349 -0.120848 0)
(11.573 -0.100833 0)
(12.7553 -0.088345 0)
(13.894 -0.0797675 0)
(15.0532 -0.0743546 0)
(16.2763 -0.0723335 0)
(17.6241 -0.0613633 0)
(18.7674 -0.0469214 0)
(19.4669 -0.161525 0)
(25.6512 -0.197759 0)
(29.3799 -0.0614309 0)
(29.6574 -0.0029278 0)
(29.6357 -0.000524949 0)
(29.6783 -0.00148272 0)
(29.7337 -0.000773628 0)
(-0.133309 0.526007 0)
(-1.79983 0.566695 0)
(-2.6436 0.138759 0)
(-2.02754 -0.204896 0)
(-1.2826 -0.214331 0)
(-0.924778 -0.116491 0)
(-0.729066 -0.0473541 0)
(-0.726902 -0.00986813 0)
(-0.70371 -0.0109254 0)
(-0.68415 -0.00724241 0)
(-0.692876 -0.0101953 0)
(-0.465533 -0.0423395 0)
(0.118838 -0.0574428 0)
(0.610259 -0.0476044 0)
(0.774545 -0.0625059 0)
(1.11475 -0.128312 0)
(2.32368 -0.203537 0)
(4.43102 -0.233819 0)
(6.85794 -0.211006 0)
(9.06551 -0.170748 0)
(10.7601 -0.135188 0)
(12.0369 -0.111549 0)
(13.1172 -0.0973831 0)
(14.1639 -0.0880547 0)
(15.2592 -0.0823631 0)
(16.4429 -0.0803775 0)
(17.7624 -0.0687168 0)
(18.9124 -0.0518756 0)
(19.5931 -0.177852 0)
(25.5307 -0.220678 0)
(29.3612 -0.0703882 0)
(29.6604 -0.00347968 0)
(29.6378 -0.0005554 0)
(29.6793 -0.00164507 0)
(29.7343 -0.000862455 0)
(-0.0560784 0.567367 0)
(-1.72135 0.620369 0)
(-2.47248 0.143104 0)
(-1.76537 -0.230262 0)
(-1.07073 -0.232695 0)