/*--------------------------------*- C++ -*----------------------------------*\
| =========                 |                                                 |
| \\      /  F ield         | OpenFOAM: The Open Source CFD Toolbox           |
|  \\    /   O peration     | Version:  v1912                                 |
|   \\  /    A nd           | Website:  www.openfoam.com                      |
|    \\/     M anipulation  |                                                 |
\*---------------------------------------------------------------------------*/
FoamFile
{
    version     2.0;
    format      ascii;
    class       volScalarField;
    location    "330";
    object      yPlus;
}
// * * * * * * * * * * * * * * * * * * * * * * * * * * * * * * * * * * * * * //

dimensions      [0 0 0 0 0 0 0];


internalField   uniform 0;

boundaryField
{
    inlet
    {
        type            calculated;
        value           uniform 0;
    }
    outlet
    {
        type            calculated;
        value           uniform 0;
    }
    lowerSymmetry
    {
        type            symmetryPlane;
    }
    obstical
    {
        type            calculated;
        value           nonuniform List<scalar> 
88
(
482.58
484.77
489.163
495.743
504.442
515.17
527.836
542.349
558.621
576.568
596.111
617.168
639.657
663.484
688.555
714.776
742.057
770.318
799.488
829.509
860.333
891.922
924.25
957.298
991.056
1025.52
1060.7
1096.6
1133.24
1170.64
1208.81
1247.78
1287.57
1328.2
1369.7
1412.08
1455.36
1499.57
1544.74
1590.88
1638.02
1686.22
1735.89
1790.95
56.2187
55.357
54.6259
54.1573
53.9695
54.0859
54.5426
55.393
56.707
58.5661
61.0544
64.2463
68.195
72.9219
78.4111
84.6035
91.3922
98.6113
106.019
113.371
120.486
127.19
133.303
138.635
142.993
146.171
147.959
148.135
146.46
142.688
136.581
127.95
116.698
102.881
86.768
69.0188
51.5129
40.9845
48.9907
70.5667
97.3338
126.899
158.701
193.028
)
;
    }
    obsticalTop
    {
        type            calculated;
        value           nonuniform List<scalar> 
20
(
53.3492
38.7018
47.0926
53.2066
56.0677
57.7175
58.3347
58.0459
57.1151
55.675
53.7024
51.0894
47.7432
43.4799
38.2687
31.4699
25.1138
15.617
14.1143
11.3095
)
;
    }
    top
    {
        type            calculated;
        value           uniform 0;
    }
    defaultFaces
    {
        type            empty;
    }
}


// ************************************************************************* //
