/*--------------------------------*- C++ -*----------------------------------*\
| =========                 |                                                 |
| \\      /  F ield         | OpenFOAM: The Open Source CFD Toolbox           |
|  \\    /   O peration     | Version:  v1912                                 |
|   \\  /    A nd           | Website:  www.openfoam.com                      |
|    \\/     M anipulation  |                                                 |
\*---------------------------------------------------------------------------*/
FoamFile
{
    version     2.0;
    format      ascii;
    class       volScalarField;
    location    "1000";
    object      mag(U);
}
// * * * * * * * * * * * * * * * * * * * * * * * * * * * * * * * * * * * * * //

dimensions      [0 1 -1 0 0 0 0];


internalField   nonuniform List<scalar> 
78750
(
0.0176436
0.0295199
0.032648
0.0353699
0.0386604
0.0415239
0.0438396
0.0456411
0.0471601
0.0486209
0.050192
0.0519941
0.0541039
0.0565108
0.0593716
0.0626826
0.0661459
0.0695359
0.0728024
0.0761521
0.0785687
0.0804308
0.0817666
0.0819961
0.0817418
0.0811684
0.0791734
0.0765705
0.072925
0.0691673
0.0647764
0.0612155
0.0582119
0.0572095
0.0435397
0.0154399
0.0246958
0.0246277
0.0274889
0.0392492
0.0532969
0.0648663
0.0731347
0.0793458
0.0840224
0.0874475
0.0897941
0.0912972
0.0920381
0.0924214
0.0923436
0.0912516
0.0892456
0.0864584
0.0823978
0.0787763
0.0746561
0.0698044
0.0648921
0.0599691
0.0553759
0.0517392
0.0495114
0.0502155
0.0538502
0.0604561
0.0713045
0.0860889
0.0988432
0.086284
0.0105494
0.0288896
0.0498067
0.0711865
0.0883116
0.0995703
0.106201
0.109819
0.111436
0.11169
0.111216
0.109851
0.107919
0.105553
0.102705
0.0995406
0.0965199
0.0926009
0.0879162
0.0822591
0.0756021
0.0685242
0.0614771
0.0544892
0.0480756
0.0425569
0.0376821
0.0354393
0.037117
0.0440121
0.0569765
0.075239
0.0966981
0.109076
0.0915205
0.0114942
0.0411685
0.0715014
0.0952586
0.110142
0.118459
0.122841
0.124832
0.125135
0.124686
0.123469
0.121629
0.11991
0.11726
0.113687
0.109207
0.103261
0.0970332
0.0906076
0.0839067
0.0768069
0.069236
0.0612786
0.0531606
0.0453311
0.0386238
0.0331052
0.0323259
0.0357196
0.0444694
0.0596931
0.0825075
0.108067
0.120021
0.0965542
0.0210016
0.0681984
0.107843
0.133855
0.147977
0.154796
0.157281
0.157236
0.155893
0.152744
0.148085
0.141947
0.133903
0.125586
0.117693
0.110295
0.103239
0.0963253
0.089279
0.0819437
0.0742545
0.0661831
0.0577139
0.0489359
0.0400948
0.0315348
0.0245925
0.0246411
0.0291205
0.0417333
0.0616775
0.0895285
0.118821
0.130869
0.101631
0.0299033
0.0893327
0.131704
0.154303
0.164283
0.16816
0.168721
0.167432
0.164047
0.159003
0.152668
0.144024
0.1342
0.124938
0.116247
0.108028
0.100193
0.092591
0.0850643
0.077449
0.0696074
0.0614229
0.0528192
0.0438372
0.034726
0.0259134
0.0180584
0.0174844
0.0241106
0.0394386
0.0630974
0.0958745
0.12774
0.139206
0.103979
0.0424631
0.115656
0.161022
0.181781
0.189376
0.190955
0.18956
0.185416
0.178815
0.169455
0.157226
0.145059
0.133658
0.122867
0.113375
0.105068
0.0975119
0.0902817
0.0830588
0.0756439
0.0679969
0.0600478
0.0517082
0.0430478
0.0342049
0.025296
0.0165855
0.0136772
0.0197676
0.0357151
0.062045
0.0980428
0.132963
0.144825
0.105842
0.0524846
0.132174
0.175982
0.19385
0.199684
0.200011
0.197056
0.190892
0.181912
0.170362
0.156921
0.142823
0.129035
0.117383
0.107992
0.100226
0.0932142
0.0863427
0.0792411
0.0717627
0.0642811
0.0568144
0.0492984
0.0416349
0.0336746
0.0253002
0.01726
0.0143817
0.0201549
0.0362787
0.0639192
0.103367
0.139679
0.150573
0.106333
0.0607001
0.145659
0.189074
0.205562
0.210514
0.210165
0.206102
0.198827
0.188564
0.175545
0.1602
0.143753
0.12843
0.115432
0.105133
0.0971938
0.0903372
0.0837275
0.076828
0.0694487
0.0620943
0.0548616
0.0477352
0.0406698
0.0335729
0.0263863
0.0195944
0.0165284
0.0210213
0.0366462
0.0653362
0.106217
0.142874
0.152896
0.105881
0.0650442
0.152605
0.196157
0.212205
0.216864
0.216197
0.211698
0.20387
0.193073
0.179729
0.16434
0.147484
0.130288
0.114931
0.102655
0.0929302
0.0852787
0.0786719
0.0720703
0.0651076
0.0581868
0.0514091
0.0447876
0.0383157
0.0319819
0.0258504
0.0203865
0.0186166
0.0236264
0.039716
0.0692661
0.110766
0.146791
0.155647
0.105633
0.0700717
0.160255
0.20356
0.2195
0.223792
0.222962
0.218302
0.21032
0.199438
0.186137
0.17095
0.15438
0.136939
0.11958
0.104139
0.0919839
0.0825895
0.0747213
0.0677874
0.0611318
0.0546236
0.0482535
0.0420366
0.0360056
0.0301885
0.0246746
0.019916
0.0188686
0.0246937
0.0420204
0.0729612
0.11524
0.150509
0.158153
0.105519
0.0719373
0.161036
0.203967
0.220809
0.225805
0.22535
0.221004
0.213487
0.203375
0.191203
0.177446
0.162443
0.146389
0.129496
0.112406
0.0965515
0.08347
0.0733501
0.0650502
0.0575893
0.0509377
0.0447552
0.0388286
0.0330901
0.0275479
0.0223041
0.0179667
0.0180392
0.0257662
0.045555
0.078668
0.121419
0.154683
0.160437
0.104867
0.0720629
0.160898
0.203969
0.22087
0.226858
0.227291
0.224292
0.218497
0.21034
0.200135
0.18815
0.174651
0.15988
0.144004
0.127159
0.10973
0.092761
0.077763
0.065742
0.0563667
0.0485455
0.0418057
0.0358111
0.0301822
0.024736
0.0193199
0.0153187
0.0165075
0.0266986
0.0484753
0.0831173
0.126013
0.157451
0.161673
0.104335
0.0694666
0.156671
0.200973
0.219909
0.227301
0.229403
0.22807
0.223979
0.217582
0.209162
0.198917
0.187053
0.173789
0.159321
0.14378
0.127221
0.109776
0.0919755
0.0749548
0.0601478
0.0485159
0.039818
0.0327818
0.0266595
0.0209492
0.0153943
0.0119989
0.0154993
0.0287875
0.0524542
0.0879546
0.130422
0.16012
0.163088
0.104467
0.0654234
0.149671
0.19561
0.217355
0.227158
0.230924
0.231257
0.228809
0.224019
0.217239
0.208692
0.198549
0.186964
0.174094
0.160098
0.145085
0.129088
0.112103
0.0942669
0.0761305
0.0588587
0.0440494
0.0327197
0.0243423
0.0173373
0.0111281
0.00955206
0.0162431
0.0316002
0.056243
0.0918765
0.133818
0.162572
0.164941
0.105821
0.0619658
0.144942
0.192429
0.216019
0.226753
0.231716
0.233061
0.231874
0.228512
0.223249
0.216272
0.2077
0.197641
0.186205
0.173516
0.159718
0.144962
0.129355
0.112935
0.0957015
0.0778137
0.0598944
0.0432096
0.0290649
0.0178695
0.0104393
0.011218
0.019984
0.0361777
0.0610084
0.0964314
0.137955
0.166403
0.168611
0.108946
0.0594366
0.142583
0.191952
0.217612
0.229882
0.235569
0.237572
0.236995
0.234282
0.229703
0.223462
0.21568
0.206452
0.195873
0.184027
0.170989
0.156865
0.141812
0.126047
0.1097
0.0929281
0.0760096
0.0591173
0.0429327
0.0286667
0.0188705
0.0186601
0.0256451
0.0419422
0.0670361
0.102668
0.144206
0.17223
0.173949
0.112827
0.058637
0.142506
0.194767
0.223027
0.236637
0.243022
0.245442
0.245147
0.242655
0.238197
0.231996
0.224204
0.214931
0.204293
0.192409
0.179386
0.165317
0.150309
0.134602
0.117899
0.100559
0.082761
0.0655243
0.0496845
0.0361603
0.0268665
0.0270499
0.0336452
0.0494523
0.0749689
0.111356
0.152886
0.179653
0.180247
0.116711
0.0599227
0.146928
0.201037
0.230549
0.245176
0.25224
0.255096
0.255058
0.252878
0.248465
0.242147
0.234103
0.224439
0.213244
0.200607
0.186724
0.171609
0.155162
0.137365
0.119289
0.101024
0.0828486
0.0651476
0.0484519
0.0343005
0.0271002
0.0298444
0.0404374
0.0579489
0.0838565
0.120195
0.160867
0.185965
0.18543
0.119206
0.06442
0.156119
0.210899
0.23948
0.253499
0.260323
0.263044
0.262912
0.260564
0.255968
0.249419
0.241083
0.231021
0.219254
0.205784
0.190464
0.173499
0.15566
0.13715
0.118267
0.0994437
0.0809197
0.0627072
0.04479
0.0282565
0.0209587
0.0275379
0.042634
0.0632073
0.0903194
0.126546
0.166655
0.191374
0.190443
0.121957
0.0702728
0.16693
0.222355
0.249492
0.261872
0.267486
0.269326
0.268547
0.265332
0.260021
0.252806
0.243839
0.233226
0.220855
0.206625
0.190677
0.173314
0.154589
0.134889
0.11498
0.0956666
0.0771955
0.0592779
0.0412646
0.0229532
0.0128062
0.022649
0.0417159
0.0651988
0.0944923
0.131688
0.172167
0.197073
0.195687
0.12266
0.0751657
0.1745
0.2294
0.255718
0.267505
0.272615
0.273839
0.272403
0.268518
0.262575
0.254778
0.245277
0.234032
0.221157
0.206681
0.19038
0.171987
0.151874
0.130813
0.109866
0.0900993
0.0717575
0.0544396
0.0373401
0.0196716
0.00620072
0.0190737
0.0403992
0.0663795
0.0984867
0.137947
0.178775
0.201707
0.197857
0.12152
0.079036
0.179844
0.233453
0.258426
0.269607
0.274191
0.275089
0.273287
0.269119
0.262999
0.255054
0.245388
0.234008
0.220799
0.205472
0.187967
0.168654
0.148017
0.126562
0.105263
0.0853558
0.0673758
0.0508262
0.0351303
0.01902
0.0037918
0.0168066
0.0392691
0.0676183
0.102901
0.144384
0.183751
0.202881
0.196505
0.116481
0.0821648
0.182993
0.235235
0.259177
0.26979
0.274298
0.275148
0.273289
0.269088
0.262743
0.254399
0.244171
0.232097
0.218241
0.202747
0.185855
0.167443
0.147322
0.125984
0.10429
0.0833888
0.0642114
0.0473818
0.0322341
0.0172425
0.00467211
0.0175156
0.0397579
0.0690089
0.105824
0.147859
0.18541
0.202275
0.194001
0.112849
0.0825076
0.183167
0.235274
0.259094
0.269645
0.273973
0.274569
0.272357
0.267772
0.261109
0.25257
0.242313
0.230469
0.217111
0.202249
0.185743
0.167472
0.147566
0.126367
0.104601
0.0834281
0.0637293
0.0459678
0.0299209
0.0148634
0.005658
0.0193822
0.0407437
0.0693998
0.106269
0.14855
0.185838
0.202274
0.193977
0.112771
0.0819881
0.182382
0.233965
0.2574
0.267678
0.271894
0.272483
0.270341
0.265916
0.25948
0.251227
0.241332
0.229835
0.216719
0.202021
0.185971
0.168547
0.149847
0.129768
0.108469
0.0866881
0.0656383
0.0463832
0.0292068
0.0133103
0.00693947
0.0215183
0.0426834
0.0707444
0.107334
0.150181
0.188113
0.204041
0.195452
0.113484
0.0801988
0.179818
0.232274
0.256049
0.266491
0.270839
0.27159
0.269654
0.265419
0.259156
0.251049
0.241297
0.2298
0.216689
0.202223
0.186591
0.17003
0.15249
0.133915
0.114086
0.0928858
0.0710697
0.04981
0.030095
0.0122022
0.0088507
0.0244424
0.0462642
0.0748111
0.111799
0.154853
0.192072
0.207025
0.19767
0.1148
0.079652
0.179629
0.232393
0.256421
0.266906
0.271267
0.272061
0.270249
0.266079
0.259868
0.251762
0.241729
0.229914
0.216683
0.202184
0.186576
0.170092
0.152875
0.134972
0.116338
0.0969092
0.0761351
0.0541886
0.0318911
0.0116476
0.0113241
0.0277056
0.0508838
0.0802495
0.117619
0.160546
0.196639
0.210419
0.20016
0.116241
0.0796938
0.181538
0.235737
0.259861
0.270007
0.274012
0.274466
0.272409
0.267901
0.26125
0.252556
0.241727
0.229541
0.215881
0.200968
0.185146
0.168694
0.151739
0.134247
0.11608
0.0970486
0.0769889
0.0557058
0.0332843
0.0120225
0.0134421
0.0327777
0.0576768
0.0879155
0.125453
0.167599
0.201842
0.214384
0.20318
0.117701
0.0821056
0.187894
0.243418
0.267106
0.276415
0.279498
0.27912
0.276083
0.270798
0.263073
0.253012
0.241437
0.228008
0.212972
0.1968
0.180038
0.163107
0.146174
0.129155
0.111809
0.0937932
0.074682
0.0540689
0.0318581
0.0106594
0.015284
0.0376251
0.0636588
0.0943924
0.131773
0.173263
0.206676
0.218896
0.207427
0.120312
0.0867099
0.196503
0.252272
0.27523
0.283885
0.286153
0.284789
0.280368
0.273178
0.263935
0.252954
0.239868
0.224801
0.208145
0.190558
0.172743
0.155191
0.138067
0.121261
0.104498
0.0873505
0.069225
0.0495581
0.0281022
0.00708089
0.0175275
0.041785
0.0693736
0.101358
0.139325
0.180529
0.212748
0.223939
0.210997
0.120925
0.0928803
0.205641
0.25951
0.280234
0.287183
0.288237
0.285964
0.28077
0.273168
0.263274
0.25086
0.236159
0.219601
0.201749
0.183299
0.164965
0.147196
0.130091
0.113505
0.0971399
0.0805651
0.0631865
0.0444487
0.0241163
0.00565713
0.021037
0.0461679
0.0751461
0.108651
0.147185
0.187117
0.216771
0.226379
0.211877
0.119882
0.0979273
0.209679
0.260822
0.280556
0.287285
0.288226
0.285419
0.279329
0.270335
0.258715
0.244726
0.229242
0.212655
0.195132
0.17702
0.158897
0.141325
0.12433
0.107915
0.0918601
0.0758182
0.0593347
0.0419651
0.0228602
0.00923195
0.0245221
0.0492219
0.0784767
0.112653
0.151554
0.190947
0.219419
0.228131
0.211969
0.118041
0.0983337
0.209803
0.260598
0.279295
0.285091
0.285026
0.280953
0.273763
0.264079
0.252585
0.240157
0.22635
0.21082
0.193769
0.17557
0.156727
0.138066
0.120502
0.103906
0.0878647
0.0720529
0.0560433
0.039487
0.0218178
0.0119441
0.0279146
0.0527802
0.0824935
0.117314
0.156642
0.195514
0.222282
0.229562
0.211921
0.116084
0.0970467
0.206428
0.255117
0.273032
0.278666
0.278844
0.275386
0.269297
0.261287
0.251619
0.240018
0.226353
0.21084
0.193832
0.175652
0.156707
0.137533
0.118632
0.100646
0.0840605
0.0682208
0.0524785
0.0363995
0.019692
0.012926
0.030522
0.0561999
0.0869512
0.122693
0.162084
0.199473
0.223829
0.229733
0.210806
0.11417
0.0941597
0.200781
0.249208
0.267674
0.274294
0.275437
0.273184
0.268242
0.260903
0.251314
0.239715
0.226344
0.211398
0.194985
0.177182
0.158166
0.13842
0.11869
0.09955
0.0812572
0.0643075
0.0481853
0.0321106
0.0163661
0.0151594
0.0340493
0.0597886
0.0906689
0.12657
0.165752
0.202091
0.225007
0.230331
0.210962
0.114292
0.0922675
0.198147
0.247001
0.265672
0.272319
0.273543
0.271279
0.266233
0.258846
0.249501
0.238527
0.226109
0.212338
0.197063
0.180203
0.161769
0.141966
0.121301
0.100634
0.0808864
0.0623575
0.0447644
0.0279206
0.0128963
0.0171444
0.0377669
0.0638336
0.094909
0.130992
0.170154
0.205814
0.227557
0.232239
0.212121
0.115264
0.0919258
0.196767
0.245018
0.263505
0.269958
0.270931
0.26846
0.26337
0.256202
0.247353
0.237106
0.225534
0.212502
0.198081
0.182207
0.164816
0.145881
0.125549
0.104317
0.0830175
0.0625298
0.0430807
0.0242826
0.00920824
0.0197677
0.0420439
0.0688074
0.100388
0.136788
0.175572
0.209708
0.229599
0.233357
0.212466
0.115407
0.0904814
0.193476
0.241036
0.259786
0.266689
0.268084
0.266106
0.261574
0.255003
0.246736
0.236921
0.225519
0.212769
0.198761
0.183537
0.167072
0.149282
0.13009
0.109532
0.0879166
0.065876
0.0440406
0.0228201
0.00655641
0.0221292
0.0456883
0.0728571
0.104392
0.140478
0.178676
0.212057
0.231527
0.235313
0.215035
0.117277
0.0875725
0.18817
0.235899
0.255521
0.263263
0.265491
0.264347
0.260568
0.25458
0.246654
0.23701
0.225943
0.213495
0.199797
0.184962
0.169077
0.152126
0.134002
0.114632
0.0939221
0.0718958
0.0487378
0.0248947
0.00476438
0.0229221
0.0481364
0.0761715
0.108018
0.144281
0.182794
0.21638
0.235645
0.239197
0.218302
0.119151
0.0861285
0.185845
0.23356
0.25318
0.261024
0.263539
0.262731
0.259333
0.253745
0.246235
0.237008
0.226203
0.214003
0.200504
0.185841
0.170105
0.153412
0.135786
0.117129
0.0973157
0.0760148
0.0529153
0.0279352
0.00371077
0.0238724
0.0516586
0.0817662
0.115179
0.152244
0.190318
0.222051
0.239238
0.241569
0.219025
0.11888
0.0855734
0.185339
0.233269
0.252902
0.26055
0.262859
0.261903
0.258413
0.252828
0.245412
0.236347
0.22579
0.213847
0.200486
0.185859
0.170148
0.15349
0.135966
0.117544
0.0980662
0.0773806
0.05476
0.0296893
0.00483742
0.0247494
0.0544028
0.0861961
0.120646
0.157747
0.194542
0.224114
0.239823
0.241872
0.219375
0.11906
0.0848497
0.184212
0.232413
0.252358
0.260209
0.262608
0.261718
0.258276
0.252729
0.245311
0.236136
0.22539
0.213195
0.199718
0.185023
0.169252
0.152586
0.135159
0.117013
0.0980309
0.0777931
0.0558576
0.0312436
0.00614607
0.0239263
0.0545268
0.0873111
0.122063
0.159096
0.196075
0.226531
0.243348
0.245719
0.224598
0.123138
0.0847098
0.184202
0.232475
0.252397
0.260239
0.262697
0.261906
0.258537
0.253006
0.245453
0.236223
0.225393
0.212974
0.199074
0.183913
0.167741
0.150808
0.133325
0.115401
0.0969739
0.0776738
0.0566487
0.0329403
0.00783848
0.0218306
0.0541311
0.0887771
0.125195
0.163477
0.201602
0.232907
0.249763
0.251955
0.229208
0.125218
0.0852087
0.185717
0.234367
0.254071
0.261609
0.263789
0.262754
0.259064
0.253147
0.245391
0.235835
0.224549
0.211562
0.196975
0.181042
0.164095
0.146458
0.128382
0.110045
0.0915474
0.0727415
0.0528938
0.0308084
0.00643358
0.0225038
0.0561495
0.093549
0.132561
0.17219
0.2096
0.238306
0.252739
0.253691
0.229352
0.124363
0.0870867
0.189442
0.238185
0.257272
0.264144
0.265713
0.264071
0.25968
0.253128
0.244627
0.23425
0.222066
0.208143
0.192633
0.175858
0.158217
0.140064
0.121643
0.103104
0.0845517
0.0659502
0.0467273
0.0259434
0.00470016
0.0245912
0.0578855
0.0960675
0.136179
0.176032
0.212404
0.239632
0.253336
0.253972
0.229763
0.124432
0.0899811
0.193858
0.241906
0.260197
0.266321
0.267032
0.264711
0.259807
0.25271
0.243435
0.232072
0.218712
0.203501
0.186742
0.168898
0.150485
0.131915
0.113363
0.0948958
0.07661
0.0585813
0.0404072
0.0215894
0.00813562
0.0274073
0.0586679
0.096203
0.136454
0.176792
0.214419
0.243278
0.258067
0.259009
0.233968
0.126178
0.0929789
0.197429
0.243884
0.260755
0.266472
0.26705
0.26442
0.258866
0.25087
0.240622
0.228197
0.21367
0.197232
0.179327
0.160622
0.141757
0.123109
0.104743
0.0866749
0.0689923
0.0519356
0.0352928
0.0191206
0.0117427
0.0304022
0.0605999
0.0979307
0.139566
0.181734
0.219941
0.248028
0.261304
0.261068
0.233879
0.124873
0.094761
0.198336
0.244026
0.260555
0.265683
0.265564
0.262012
0.255578
0.246719
0.235629
0.222393
0.207094
0.189915
0.171316
0.152054
0.132899
0.114319
0.096354
0.0788089
0.061749
0.0456218
0.030563
0.017781
0.016655
0.0346095
0.0632795
0.100299
0.142466
0.185132
0.222747
0.249281
0.261554
0.260908
0.232642
0.122596
0.0948855
0.198111
0.242132
0.257439
0.261925
0.261361
0.257329
0.250552
0.24141
0.230118
0.216771
0.201399
0.184077
0.16516
0.145393
0.125712
0.106837
0.089
0.0720309
0.0557328
0.0405781
0.0270979
0.018316
0.0226119
0.039921
0.0660339
0.100704
0.1423
0.185192
0.222891
0.249406
0.261733
0.261121
0.233714
0.123347
0.0936016
0.195056
0.237695
0.25247
0.25675
0.256202
0.252343
0.245843
0.237085
0.226277
0.213476
0.198624
0.181642
0.162668
0.142316
0.121662
0.101794
0.0833277
0.0662914
0.0505074
0.0363202
0.0244656
0.0191491
0.0272289
0.0454013
0.0702901
0.102373
0.142391
0.185183
0.223241
0.252125
0.266464
0.266353
0.238135
0.125919
0.0918026
0.191987
0.234686
0.24946
0.253757
0.253233
0.249436
0.243035
0.234414
0.223794
0.211247
0.196706
0.180013
0.161128
0.140429
0.118876
0.0977684
0.0781678
0.0604655
0.0446048
0.0308415
0.020416
0.0194105
0.0311879
0.0511281
0.076995
0.10892
0.146776
0.189111
0.229667
0.258481
0.270917
0.269362
0.238976
0.126055
0.0916421
0.191276
0.233325
0.247775
0.251886
0.251159
0.247138
0.240516
0.231714
0.220984
0.208426
0.193982
0.177459
0.158715
0.137944
0.115901
0.0938485
0.0730761
0.0543408
0.0378667
0.0241646
0.0160724
0.0209447
0.0364604
0.0580341
0.0852261
0.118298
0.156898
0.198324
0.236018
0.261344
0.271429
0.268768
0.237035
0.123767
0.0914742
0.189917
0.230908
0.244907
0.248842
0.248079
0.244086
0.237537
0.22884
0.218246
0.205849
0.191578
0.175215
0.156548
0.135659
0.113202
0.0903823
0.0685604
0.0486954
0.0313191
0.0177853
0.0148729
0.026002
0.0433703
0.0653886
0.0926771
0.125676
0.163637
0.203243
0.238243
0.261584
0.271304
0.268363
0.236083
0.122768
0.0905849
0.187813
0.228139
0.2418
0.245586
0.244789
0.240851
0.234443
0.225975
0.215694
0.203684
0.189852
0.173924
0.155574
0.134718
0.11186
0.0882113
0.0652955
0.0443281
0.0261738
0.0135739
0.0167924
0.0314945
0.0501255
0.0724154
0.0992289
0.131301
0.168128
0.206512
0.240315
0.26276
0.271925
0.268847
0.236672
0.123586
0.0898884
0.186037
0.225784
0.239195
0.242874
0.242012
0.238043
0.231638
0.223228
0.213082
0.201311
0.187848
0.172413
0.1546
0.134129
0.111233
0.0869673
0.0629649
0.0407336
0.021506
0.0105863
0.0202984
0.0369884
0.0563666
0.0790544
0.105976
0.137735
0.173864
0.211347
0.244115
0.265604
0.274261
0.270825
0.23807
0.124305
0.0893988
0.184514
0.22357
0.236632
0.240119
0.239117
0.235035
0.228556
0.22013
0.210053
0.198465
0.185327
0.170375
0.153168
0.133281
0.110678
0.0861325
0.0612476
0.0377784
0.0173481
0.00976724
0.0244009
0.0421987
0.0620616
0.0851795
0.112627
0.144719
0.180452
0.216639
0.247457
0.267173
0.274835
0.270785
0.237518
0.123639
0.0882149
0.18217
0.220714
0.233539
0.236916
0.235857
0.231751
0.225293
0.216943
0.207017
0.195672
0.182885
0.16842
0.151844
0.132661
0.110562
0.0858929
0.060076
0.0351181
0.0132967
0.0120765
0.0297946
0.0482966
0.0682055
0.0911984
0.118647
0.150756
0.185885
0.220467
0.2492
0.267458
0.274661
0.270505
0.237077
0.122992
0.0868992
0.180162
0.218402
0.23099
0.234229
0.233055
0.228871
0.222374
0.214039
0.204189
0.192998
0.180464
0.166367
0.150266
0.131611
0.109996
0.0855138
0.0591172
0.0327565
0.0096131
0.0161926
0.0358195
0.0550633
0.0749307
0.0971802
0.123547
0.154599
0.188754
0.222159
0.249822
0.267529
0.274714
0.270611
0.237303
0.123254
0.0862066
0.179125
0.21696
0.229228
0.232221
0.230831
0.226437
0.219764
0.211301
0.201392
0.190231
0.177842
0.164032
0.148377
0.130318
0.109342
0.0853092
0.0588198
0.0315057
0.00790644
0.0198057
0.0409684
0.0612196
0.0813488
0.1029
0.127552
0.1565
0.189195
0.222292
0.250023
0.268472
0.276528
0.273367
0.241635
0.127354
0.0859118
0.178357
0.21555
0.227392
0.230123
0.228532
0.223971
0.217176
0.208651
0.198752
0.187686
0.175489
0.161989
0.146793
0.129328
0.108956
0.0853378
0.0589306
0.0311847
0.00776264
0.022453
0.0450218
0.0664369
0.0872577
0.10881
0.132612
0.15994
0.190914
0.223316
0.252328
0.272559
0.281666
0.279039
0.247688
0.131117
0.085874
0.177895
0.214441
0.225848
0.228301
0.226497
0.221752
0.214812
0.206195
0.196272
0.185263
0.173219
0.159985
0.145184
0.128237
0.108447
0.0853277
0.0591007
0.0311024
0.00763816
0.0245611
0.0485897
0.0713085
0.0931437
0.115334
0.139308
0.166328
0.196833
0.228941
0.257797
0.277495
0.28596
0.282708
0.250037
0.131611
0.0861033
0.177643
0.213381
0.224276
0.22641
0.224345
0.219362
0.212216
0.20344
0.193425
0.182404
0.170447
0.157415
0.142959
0.1265
0.107281
0.0846462
0.0585817
0.0302968
0.00705374
0.0272552
0.0527572
0.0768257
0.0998424
0.12297
0.147536
0.174724
0.204797
0.235752
0.262743
0.280542
0.287721
0.283708
0.249926
0.131006
0.0862878
0.177198
0.21211
0.222505
0.224333
0.22202
0.216817
0.209482
0.200554
0.190439
0.179388
0.167483
0.154611
0.140453
0.124453
0.105815
0.0837247
0.0579004
0.0293252
0.0066315
0.0301289
0.0571373
0.0825988
0.106856
0.130987
0.156203
0.183437
0.212628
0.241701
0.266235
0.282046
0.288199
0.28363
0.249085
0.129928
0.0865306
0.176714
0.210789
0.220704
0.222229
0.219651
0.214199
0.206627
0.197499
0.187239
0.176118
0.164238
0.151502
0.137615
0.122054
0.104011
0.0825529
0.0571127
0.0283581
0.00667832
0.0329663
0.0614247
0.0881783
0.113534
0.138507
0.164212
0.191389
0.219744
0.247125
0.26959
0.283799
0.289043
0.28366
0.248556
0.12948
0.0866194
0.175923
0.209136
0.21861
0.21988
0.217085
0.211435
0.203672
0.194375
0.183989
0.172806
0.160944
0.148328
0.134698
0.119579
0.102197
0.0815275
0.0567069
0.0279689
0.00638308
0.0351954
0.0651377
0.0931571
0.119589
0.145404
0.171609
0.198759
0.226359
0.252239
0.272913
0.285771
0.290269
0.284321
0.248448
0.129103
0.0865572
0.174789
0.207224
0.216314
0.217359
0.214363
0.208521
0.200564
0.191086
0.180556
0.169285
0.157407
0.144866
0.131438
0.116712
0.0999798
0.0801766
0.0561769
0.0277695
0.00528167
0.0369314
0.0684786
0.097861
0.125416
0.152112
0.178874
0.20604
0.232852
0.257115
0.275878
0.287275
0.290909
0.284263
0.247669
0.128182
0.0860781
0.173114
0.204889
0.213685
0.214554
0.211395
0.20537
0.197213
0.187538
0.176841
0.165456
0.153529
0.141021
0.127731
0.113321
0.0971943
0.0783732
0.0555616
0.0279743
0.00346779
0.0372911
0.0708312
0.101911
0.130691
0.158181
0.185303
0.212313
0.238321
0.261163
0.278332
0.2885
0.291325
0.283797
0.24589
0.126638
0.0850589
0.170936
0.202283
0.210897
0.211649
0.208361
0.202171
0.193817
0.183933
0.173043
0.161503
0.149478
0.136942
0.123712
0.109508
0.0938574
0.0759458
0.0545373
0.0284437
0.00215386
0.036406
0.0713751
0.104448
0.134833
0.163202
0.190559
0.217182
0.242227
0.263774
0.279781
0.289209
0.291625
0.283753
0.245302
0.125959
0.0837481
0.168647
0.199676
0.208144
0.208785
0.205364
0.199001
0.190443
0.18034
0.169235
0.157507
0.145332
0.1327
0.119442
0.10531
0.0899143
0.0726183
0.0524664
0.0282722
0.00182943
0.0342587
0.070234
0.104503
0.136652
0.166492
0.194504
0.220958
0.245224
0.265718
0.280769
0.28957
0.291771
0.283836
0.245416
0.126095
0.0823633
0.166417
0.197192
0.20556
0.206117
0.202588
0.196083
0.187349
0.177051
0.165756
0.153862
0.141559
0.128849
0.115586
0.101556
0.0863985
0.0695511
0.0502282
0.0275133
0.00105873
0.0305316
0.0656754
0.101974
0.136302
0.167903
0.196946
0.223785
0.247945
0.268126
0.282934
0.291576
0.29349
0.285296
0.247039
0.127856
0.0814528
0.164689
0.195122
0.203364
0.203829
0.200221
0.193602
0.184726
0.17427
0.162822
0.150799
0.13841
0.12566
0.112437
0.0985631
0.0837267
0.0673882
0.0487558
0.0269314
0.00360142
0.0274002
0.0611796
0.0977626
0.134041
0.168041
0.199069
0.22685
0.251266
0.271589
0.286699
0.295738
0.298007
0.290219
0.252282
0.131899
0.0810283
0.163216
0.193189
0.201277
0.201669
0.197994
0.191286
0.18229
0.171696
0.160118
0.147996
0.135542
0.122772
0.109598
0.0958835
0.0813789
0.0656108
0.047759
0.0267988
0.00492024
0.0266634
0.0597871
0.0960543
0.13284
0.167899
0.199852
0.228794
0.254322
0.275581
0.291481
0.301133
0.30378
0.296068
0.257677
0.134526
0.0805845
0.161369
0.190936
0.198949
0.199338
0.19564
0.188878
0.179777
0.169047
0.157339
0.145111
0.132582
0.119769
0.106603
0.0929733
0.0786893
0.0633711
0.0462507
0.0261937
0.00417481
0.0270217
0.0603574
0.0964623
0.133062
0.168236
0.201024
0.23098
0.257593
0.279741
0.296084
0.305801
0.308365
0.300104
0.259841
0.134544
0.0795348
0.158704
0.18814
0.196236
0.196682
0.192976
0.186127
0.176866
0.165941
0.154041
0.141642
0.128965
0.116026
0.102766
0.0890951
0.0748645
0.0597468
0.043114
0.0239647
0.00208902
0.0277634
0.0613628
0.0977205
0.134662
0.17045
0.20391
0.234251
0.260832
0.282666
0.298479
0.307552
0.30945
0.300313
0.25877
0.132674
0.0772561
0.154961
0.184757
0.193165
0.193737
0.190034
0.18304
0.17353
0.162326
0.150149
0.137482
0.124541
0.111345
0.0978408
0.0839369
0.0694883
0.0542732
0.0379454
0.0198388
0.00265551
0.0285146
0.0613729
0.0976755
0.134601
0.17041
0.204023
0.234843
0.261827
0.283586
0.299036
0.307759
0.309463
0.300106
0.257981
0.131146
0.0740826
0.15094
0.181618
0.190424
0.191096
0.187375
0.180165
0.170329
0.158785
0.146282
0.133297
0.12003
0.106506
0.0926787
0.0784337
0.0635584
0.0479532
0.0316564
0.0146085
0.00600997
0.0283836
0.0578682
0.0935271
0.131592
0.168464
0.202713
0.233946
0.261402
0.28363
0.299176
0.307939
0.309644
0.300401
0.259027
0.132489
0.0707443
0.147598
0.179813
0.189198
0.18975
0.185661
0.177971
0.167716
0.155829
0.143041
0.129781
0.116222
0.102377
0.0882207
0.0736101
0.0582857
0.0421044
0.0255432
0.0111409
0.013183
0.03104
0.0559736
0.0872495
0.124106
0.162568
0.199135
0.232125
0.260997
0.284149
0.301303
0.311373
0.313621
0.304872
0.262896
0.135391
0.0678035
0.146429
0.179253
0.188823
0.189375
0.185195
0.176971
0.166064
0.153614
0.14039
0.126804
0.112966
0.0988191
0.0842597
0.0691114
0.0530951
0.0367768
0.0218507
0.0163574
0.0250859
0.040498
0.0602751
0.0867483
0.119264
0.156606
0.194932
0.230783
0.262423
0.288866
0.307426
0.317123
0.318465
0.309366
0.26712
0.139326
0.0663905
0.147409
0.181359
0.190589
0.190477
0.185399
0.176375
0.164999
0.152244
0.138801
0.125017
0.110968
0.0966002
0.0817696
0.06616
0.0498297
0.0337826
0.0241841
0.0269704
0.0388059
0.0548492
0.072852
0.0932411
0.119605
0.1528
0.189933
0.227937
0.262748
0.290186
0.308608
0.320201
0.325655
0.320646
0.283438
0.152551
0.0675809
0.152943
0.186456
0.194664
0.193636
0.187289
0.177535
0.165723
0.152604
0.139049
0.125335
0.111358
0.0968597
0.0816338
0.0657278
0.0498142
0.0361086
0.0320459
0.0380113
0.0516528
0.0690788
0.0879371
0.10768
0.128953
0.154759
0.189965
0.227973
0.262979
0.291208
0.316913
0.337869
0.347571
0.344288
0.307288
0.167937
0.0752512
0.163737
0.194031
0.200399
0.197985
0.190306
0.179377
0.166659
0.153403
0.139865
0.126171
0.112186
0.0975711
0.0819597
0.065286
0.0484221
0.0356615
0.0361258
0.0460842
0.0631597
0.0832508
0.104289
0.125658
0.147828
0.172352
0.201463
0.238309
0.278454
0.316331
0.344292
0.358898
0.362947
0.354838
0.311359
0.168373
0.0852551
0.173911
0.199361
0.202586
0.199256
0.19114
0.179845
0.166785
0.153165
0.13956
0.125917
0.111692
0.0960223
0.0781475
0.0583081
0.0390258
0.0285824
0.0353186
0.0534354
0.0756013
0.0992878
0.123658
0.148834
0.175906
0.206367
0.241147
0.278521
0.312583
0.338036
0.353567
0.361697
0.36307
0.353003
0.305139
0.159669
0.0938303
0.177842
0.200763
0.203022
0.197865
0.188234
0.175928
0.162458
0.148786
0.135278
0.121728
0.107268
0.0903826
0.0696296
0.0456015
0.0235267
0.0210893
0.0417134
0.0677915
0.0943517
0.120969
0.148104
0.176419
0.206476
0.23817
0.270006
0.299091
0.322303
0.339285
0.351066
0.355375
0.353633
0.33758
0.282432
0.13846
0.0962959
0.178691
0.197664
0.198704
0.192996
0.182672
0.16954
0.155401
0.141338
0.127711
0.114146
0.0994752
0.0818221
0.0598128
0.0349722
0.0148625
0.0269835
0.0569355
0.0855819
0.11317
0.140736
0.168794
0.197485
0.2265
0.254876
0.28097
0.30305
0.320965
0.333256
0.339469
0.341159
0.337462
0.319252
0.261028
0.123163
0.0960434
0.173977
0.19182
0.192457
0.186238
0.175149
0.161226
0.146447
0.131979
0.118171
0.10476
0.0908559
0.0748921
0.0552261
0.0324907
0.0169991
0.0364509
0.0676727
0.0966093
0.12433
0.151831
0.179467
0.207095
0.234158
0.259563
0.282229
0.301428
0.314741
0.323196
0.327126
0.327382
0.321539
0.301126
0.242898
0.113305
0.092275
0.167504
0.184766
0.185334
0.178853
0.167133
0.152376
0.136835
0.121796
0.107629
0.0942258
0.0810751
0.0671443
0.0510834
0.0330543
0.02188
0.0389623
0.0693726
0.0987521
0.126976
0.154668
0.181909
0.208738
0.234719
0.259255
0.279918
0.295668
0.307039
0.314419
0.317681
0.317098
0.310182
0.289611
0.234288
0.110738
0.086769
0.160166
0.178086
0.17885
0.17227
0.160029
0.144428
0.12801
0.112266
0.0975849
0.0838653
0.0708047
0.0579453
0.0445991
0.0308237
0.0223141
0.0348128
0.0629557
0.0933884
0.122978
0.151326
0.178648
0.204822
0.229343
0.251199
0.270189
0.285867
0.298026
0.306626
0.311474
0.312314
0.307085
0.28863
0.234535
0.111698
0.0817651
0.154185
0.17305
0.174088
0.167501
0.154824
0.138394
0.121081
0.104587
0.0893691
0.0752738
0.0619983
0.0492602
0.0367054
0.0244241
0.015514
0.0218837
0.0459686
0.0760287
0.107189
0.137296
0.165883
0.192736
0.217707
0.240525
0.260813
0.278143
0.292279
0.303046
0.31018
0.312333
0.308244
0.291409
0.241056
0.1189
0.0780424
0.150057
0.169908
0.171235
0.164664
0.151591
0.134363
0.116144
0.0989119
0.0832595
0.0689651
0.0556401
0.0429578
0.0307166
0.0190658
0.00969505
0.0115648
0.0288868
0.053934
0.0841581
0.116369
0.147925
0.177648
0.205158
0.230317
0.252921
0.272683
0.289327
0.302524
0.31153
0.316037
0.314435
0.300517
0.253512
0.128001
0.075834
0.147653
0.168243
0.169815