/*--------------------------------*- C++ -*----------------------------------*\
| =========                 |                                                 |
| \\      /  F ield         | OpenFOAM: The Open Source CFD Toolbox           |
|  \\    /   O peration     | Version:  v1912                                 |
|   \\  /    A nd           | Website:  www.openfoam.com                      |
|    \\/     M anipulation  |                                                 |
\*---------------------------------------------------------------------------*/
FoamFile
{
    version     2.0;
    format      ascii;
    class       volScalarField;
    location    "200";
    object      alphat;
}
// * * * * * * * * * * * * * * * * * * * * * * * * * * * * * * * * * * * * * //

dimensions      [0 2 -1 0 0 0 0];


internalField   nonuniform List<scalar> 
4000
(
0.000119266
0.00011755
0.000115601
0.000108413
0.000100507
9.9824e-05
9.89883e-05
0.000105366
6.64962e-05
0.000186899
9.28786e-05
0.000101065
0.000110011
0.000113351
0.000112991
0.000117231
0.000122434
0.000134697
0.000157594
0.000195394
0.000337913
0.000286139
0.000216589
0.00017165
0.000166734
0.00016551
0.000163873
0.000158483
0.000146163
0.000189501
0.000158536
0.000159319
0.000162778
0.000162445
0.000160591
0.000164961
0.000253287
0.000309916
0.000373213
0.000416797
0.000436587
0.000416897
0.000359419
0.000302194
0.000239768
0.000188032
0.000190502
0.000190742
0.000194208
0.000201868
0.000194669
0.000192165
0.000192657
0.000187506
0.000237036
0.000296965
0.000352989
0.000415046
0.00045466
0.000474757
0.000469625
0.000453246
0.000421955
0.000367774
0.000314579
0.000271497
0.000228142
0.000204288
0.000211718
0.000217169
0.00020919
0.000206535
0.00021228
0.000266878
0.000307657
0.000360433
0.000416686
0.000463283
0.000491155
0.000502466
0.000489414
0.000482089
0.000458785
0.000419937
0.000362435
0.000315082
0.000275035
0.000245684
0.000210157
0.000226284
0.000217977
0.000224526
0.000257566
0.000297965
0.000341246
0.000408418
0.000462961
0.000499214
0.000518235
0.000520606
0.000503649
0.000506172
0.000495606
0.000472097
0.000439396
0.000391349
0.000352298
0.000315303
0.000278215
0.000239759
0.000254609
0.000293982
0.000334916
0.000376458
0.000447026
0.000484982
0.000514513
0.000534741
0.000541618
0.000534401
0.000516221
0.000529427
0.000533875
0.000530595
0.000523125
0.000511955
0.000496917
0.000477241
0.000454122
0.000427866
0.000434674
0.000470556
0.000498995
0.000523897
0.000544573
0.000559968
0.000569138
0.000571733
0.000564446
0.000546891
0.000529438
0.000554347
0.000573054
0.0005847
0.000591559
0.000593129
0.000589278
0.000579639
0.000564732
0.000542716
0.000548823
0.000576151
0.000596864
0.0006125
0.00062207
0.000624777
0.000620399
0.000609135
0.000588579
0.000559941
0.000544876
0.000582993
0.000614147
0.000637102
0.000653856
0.000663794
0.000666707
0.000662664
0.00065126
0.000629348
0.000635237
0.000661554
0.000678952
0.000689577
0.00069236
0.00068646
0.000671861
0.000649277
0.000616572
0.000575025
0.000565794
0.00061709
0.00065886
0.000690081
0.000714144
0.000731481
0.000742426
0.000746361
0.000741034
0.00071825
0.000724428
0.000750866
0.000761333
0.000762552
0.000756162
0.000742408
0.000720735
0.000690615
0.000648459
0.000595277
0.00011755
0.000138224
0.000159436
0.000161154
0.000138631
0.000136133
0.000132659
0.000141692
0.000135601
0.000109525
0.000122149
0.000124366
0.000136797
0.000143066
0.000143639
0.000153349
0.000141942
0.000144269
0.000151006
0.000155774
0.000286139
0.00029932
0.000377746
0.000437176
0.000414445
0.00042063
0.000450381
0.000458461
0.000480626
0.000495154
0.000471294
0.000430608
0.000406277
0.000368701
0.000368828
0.000389224
0.000351355
0.00033219
0.000349732
0.000374386
0.000416897
0.000466745
0.000423662
0.000413607
0.000440042
0.000531995
0.000522973
0.000498242
0.00053603
0.000565852
0.00052951
0.000477049
0.000471648
0.000477344
0.00041701
0.000403191
0.000427207
0.000494553
0.000556664
0.000452373
0.000453246
0.00060005
0.000587701
0.000510616
0.000461667
0.000458484
0.000470979
0.00051601
0.000532208
0.000564624
0.000526507
0.000502601
0.00045753
0.000438517
0.000447675
0.000498525
0.000583412
0.000658545
0.000649591
0.000488313
0.000482089
0.00063498
0.000654172
0.000611443
0.000527559
0.000466848
0.000432892
0.000429107
0.000465444
0.000564848
0.000518844
0.000426877
0.000417586
0.000445187
0.000504227
0.000595
0.000679083
0.000710465
0.000680531
0.000515192
0.000506172
0.000666458
0.000698164
0.000674787
0.00061185
0.000520757
0.000457741
0.000416341
0.000396245
0.000411618
0.000403143
0.000399469
0.000434291
0.000496925
0.000598761
0.000702754
0.000756833
0.000765115
0.000717698
0.00053854
0.000529427
0.000707322
0.000758034
0.000765733
0.000741203
0.000673165
0.000570168
0.000493718
0.000439697
0.000409861
0.000416381
0.000461681
0.000533064
0.000652443
0.000778125
0.00084484
0.000859839
0.000833745
0.000763853
0.000561549
0.000554347
0.000746807
0.000819384
0.000863452
0.000890903
0.000888336
0.000847591
0.000759426
0.000657968
0.000569052
0.000585367
0.000700067
0.000835863
0.000943988
0.000999145
0.00100225
0.000964038
0.000901464
0.000808195
0.000586212
0.000582993
0.000764776
0.000861925
0.000935596
0.000991273
0.00101564
0.00099761
0.00093939
0.000853618
0.000767559
0.000776932
0.00088452
0.00100562
0.00109301
0.00112207
0.00109636
0.00102971
0.000939063
0.000821961
0.000614843
0.00061709
0.000675628
0.000725438
0.000764559
0.000796043
0.00081985
0.000835984
0.000843633
0.000840533
0.000819909
0.000826063
0.000850182
0.000858809
0.000856925
0.000845888
0.000826069
0.000797115
0.00075898
0.000708494
0.000647628
0.000115601
0.000159436
0.000167492
0.000156014
0.000152861
0.000155642
0.000148137
0.000139101
0.000136907
0.000128181
0.000129611
0.000151507
0.000157962
0.000153081
0.000150411
0.000151011
0.000127956
0.000162256
0.000146133
0.000131997
0.000216589
0.000377746
0.000466368
0.000468906
0.000459188
0.000481349
0.000507754
0.00052716
0.000561804
0.000583122
0.00054958
0.000492824
0.000453913
0.000414561
0.000408488
0.000412362
0.000385756
0.00036451
0.000336596
0.000313657
0.000359419
0.000423662
0.000441776
0.000472158
0.000528933
0.000593994
0.000576711
0.000574484
0.000616108
0.000652967
0.00060565
0.000536503
0.000516056
0.000513374
0.000480381
0.000450512
0.000444516
0.000468021
0.000490046
0.000410496
0.000421955
0.000587701
0.00058874
0.000547646
0.000529977
0.000545828
0.000575157
0.000608676
0.000616013
0.000654799
0.000608697
0.000566322
0.000538767
0.000517579
0.00051873
0.000550713
0.000610426
0.00067459
0.000654951
0.00045787
0.000458785
0.000654172
0.000703735
0.000668594
0.000600602
0.000552364
0.00053088
0.000541882
0.000598868
0.000674215
0.000627662
0.000540068
0.000513939
0.000533674
0.000586934
0.000666537
0.000749159
0.000767397
0.000704758
0.000493012
0.000495606
0.000698164
0.000763385
0.000754225
0.000686743
0.000603443
0.000541934
0.000507861
0.00050996
0.000570797
0.000533604
0.000497569
0.000522819
0.000587728
0.000684816
0.00079283
0.000849345
0.000842362
0.000757696
0.000528672
0.000533875
0.000758034
0.000852405
0.000876069
0.000835214
0.000733284
0.000626218
0.000540926
0.000481061
0.000461267
0.000461385
0.000504055
0.000593144
0.000721671
0.000864185
0.000975664
0.000996797
0.000946769
0.00082566
0.000566586
0.000573054
0.000819384
0.000965662
0.00105855
0.0010933
0.00104981
0.000942563
0.00081535
0.000687536
0.000586707
0.000601218
0.000739305
0.000916611
0.00109353
0.00123694
0.00126208
0.00120003
0.00107274
0.000893052
0.00060513
0.000614147
0.000861925
0.0010909
0.00129811
0.00145268
0.00153189
0.00152076
0.00142991
0.00128384
0.00110398
0.0011323
0.00133908
0.00153594
0.00166219
0.00168458
0.00160221
0.00142867
0.00119317
0.000933042
0.00064631
0.00065886
0.000725438
0.000782694
0.00082907
0.000867034
0.000896268
0.00091666
0.000927236
0.000925905
0.000904947
0.000911137
0.000935521
0.0009422
0.000937401
0.00092215
0.000897048
0.000861642
0.000816206
0.000758221
0.000689117
0.000108413
0.000161154
0.000156014
0.000156965
0.000158087
0.000157076
0.000150145
0.000145395
0.00014257
0.000132745
0.000113414
0.000115065
0.000138039
0.000154607
0.000154783
0.000157956
0.000154381
0.000126681
0.000144298
0.000119171
0.00017165
0.000437176
0.000468906
0.000471456
0.000479834
0.000511528
0.000531269
0.000567669
0.000616398
0.000643638
0.000603219
0.000531242
0.000477569
0.000444252
0.000424209
0.000423861
0.000403648
0.000389879
0.000356348
0.000247011
0.000302194
0.000413607
0.000472158
0.000528983
0.000580895
0.000612488
0.000594816
0.000619819
0.000672383
0.000715223
0.00066269
0.000578988
0.000536745
0.000525898
0.000509749
0.000485243
0.000459429
0.000445864
0.00042605
0.000349274
0.000367774
0.000510616
0.000547646
0.000554415
0.000568788
0.000597594
0.000626404
0.000649933
0.000675007
0.000722185
0.000672002
0.000608622
0.000580563
0.000563248
0.000557682
0.000566466
0.000588218
0.000607649
0.000575161
0.000409394
0.000419937
0.000611443
0.000668594
0.000653782
0.000620067
0.000596319
0.000592049
0.000617176
0.00067883
0.000746236
0.000700907
0.000616568
0.000581902
0.000588747
0.000623589
0.000676204
0.000729582
0.000741596
0.000667381
0.000454672
0.000472097
0.000674787
0.000754225
0.00075954
0.000709635
0.000650924
0.000604689
0.000583345
0.000605495
0.000696893
0.000653531
0.000589774
0.000602639
0.000656002
0.000731328
0.000808856
0.000857032
0.000839203
0.000741206
0.00050629
0.000530595
0.000765733
0.000876069
0.000909899
0.000877898
0.000804895
0.000717938
0.000639031
0.000582259
0.000575639
0.000577074
0.00061832
0.000715694
0.000836214
0.000951586
0.00102965
0.00104332
0.000985114
0.000843907
0.000562745
0.0005847
0.000863452
0.00105855
0.00118657
0.00124819
0.0012168
0.00111509
0.000977173
0.000824657
0.000696743
0.000715184
0.000893744
0.00110404
0.0012981
0.00143529
0.0014561
0.00135798
0.00118904
0.000949537
0.000615591
0.000637102
0.000935596
0.00129811
0.00166728
0.00194061
0.00205899
0.00203746
0.00191013
0.00169768
0.00141144
0.00142686
0.00173858
0.00198876
0.00216267
0.00222249
0.00210979
0.00182022
0.00142084
0.00101885
0.000668234
0.000690081
0.000764559
0.00082907
0.000882945
0.000927996
0.000963387
0.000989391
0.00100418
0.00100557
0.00098852
0.000994395
0.00101527
0.00101859
0.00100922
0.000988032
0.000956565
0.000913858
0.000860863
0.000795696
0.000718767
0.000100507
0.000138631
0.000152861
0.000158087
0.000158655
0.000148906
0.000146493
0.000152366
0.000158414
0.00015488
0.000136485
0.000130385
0.000136032
0.000148234
0.000157053
0.000157094
0.000153384
0.000147519
0.000145002
0.000117984
0.000166734
0.000414445
0.000459188
0.000479834
0.000506674
0.000525023
0.000552958
0.000604183
0.000671251
0.000708512
0.000656406
0.000569267
0.000507402
0.000472435
0.000451077
0.000434553
0.00043129
0.000424621
0.000394969
0.000159788
0.000239768
0.000440042
0.000528933
0.000580895
0.000607363
0.000600772
0.00061143
0.000655211
0.000727787
0.000781319
0.000722713
0.000625179
0.000563966
0.000538774
0.000527889
0.000513035
0.000489468
0.000456775
0.000406194
0.000293415
0.000314579
0.000461667
0.000529977
0.000568788
0.000601345
0.000628188
0.000648281
0.000671496
0.000722353
0.000783346
0.000731067
0.000646355
0.000604616
0.000588125
0.000580398
0.000574477
0.000566572
0.000549224
0.00049338
0.000354769
0.000362435
0.000527559
0.000600602
0.000620067
0.000620061
0.00062107
0.000633925
0.000668219
0.000728508
0.000805657
0.000760312
0.000672406
0.000630322
0.000624109
0.000636445
0.000657145
0.000672328
0.000656291
0.0005789
0.000398349
0.000439396
0.00061185
0.000686743
0.000709635
0.000696048
0.000668341
0.000644934
0.000641973
0.000686622
0.000800834
0.000760493
0.000673471
0.000666718
0.000697578
0.00074202
0.000782074
0.000797816
0.000771795
0.000679954
0.000475587
0.000523125
0.000741203
0.000835214
0.000877898
0.000884791
0.00085311
0.000797874
0.000738748
0.000698972
0.000720793
0.000731284
0.000754144
0.000837992
0.00093033
0.00100221
0.00103314
0.00101347
0.000949549
0.000821344
0.000553315
0.000591559
0.000890903
0.0010933
0.00124819
0.00133993
0.00133724
0.00125948
0.00113103
0.000973776
0.000834869
0.000861036
0.00105872
0.00127571
0.00145235
0.00155517
0.00155604
0.00144119
0.00123733
0.000982946
0.000619804
0.000653856
0.000991273
0.00145268
0.00194061
0.00226529
0.00237062
0.00236566
0.00224968
0.00201407
0.00169005
0.00169503
0.00204562
0.00231421
0.00246983
0.00251145
0.00242838
0.0021008
0.00158698
0.00108188
0.000682576
0.000714144
0.000796043
0.000867034
0.000927996
0.00098106
0.00102513
0.00105779
0.00107904
0.00108707
0.00108023
0.00108585
0.00109661
0.00109248
0.00107581
0.00104767
0.00100699
0.000955804
0.000895657
0.000824243
0.000740228
9.9824e-05
0.000136133
0.000155642
0.000157076
0.000148906
0.000145949
0.000155536
0.000170396
0.000184145
0.000189294
0.000175993
0.000163733
0.000156081
0.000152812
0.000153361
0.000154261
0.000145012
0.000132605
0.000137319
0.000113161
0.00016551
0.00042063
0.000481349
0.000511528
0.000525023
0.000545582
0.00058326
0.000644422
0.000721844
0.000758665
0.000705455
0.000616045
0.000546742
0.00050473
0.000477271
0.000453302
0.000429583
0.000412925
0.00037351
0.000155275
0.000188032
0.000531995
0.000593994
0.000612488
0.000600772
0.000605369
0.000631452
0.000684228
0.000764891
0.000806009
0.000754489
0.000662643
0.000593207
0.000558853
0.000542267
0.000532072
0.00051882
0.000492987
0.000431572
0.000223845
0.000271497
0.000458484
0.000545828
0.000597594
0.000628188
0.000645164
0.000658012
0.000685452
0.000748065
0.00079762
0.000756873
0.000674644
0.000622789
0.000603548
0.000593041
0.000581515
0.000559936
0.000521717
0.000449763
0.000301501
0.000315082
0.000466848
0.000552364
0.000596319
0.00062107
0.000640918
0.000664452
0.000700674
0.000759982
0.000823197
0.000793409
0.000712325
0.000663621
0.000645409
0.000640605
0.000635149
0.000619907
0.000580104
0.000494691
0.000331413
0.000391349
0.000520757
0.000603443
0.000650924
0.000668341
0.000670059
0.000671374
0.000689623
0.00075267
0.000861781
0.000840946
0.000745872
0.000716455
0.000721094
0.000732628
0.000736602
0.000718085
0.000664014
0.000572195
0.000435487
0.000511955
0.000673165
0.000733284
0.000804895
0.00085311
0.000863206
0.000844019
0.000815653
0.000807906
0.000866876
0.000892262
0.000883123
0.000929994
0.000979998
0.00100514
0.000988801
0.000924655
0.000830412
0.000750726
0.000538325
0.000593129
0.000888336
0.00104981
0.0012168
0.00133724
0.00137334
0.00133445
0.00123238
0.00108612
0.000956599
0.000992604
0.00118257
0.00138066
0.00151901
0.00157407
0.00153678
0.00140014
0.00119557
0.000976248
0.000617597
0.000663794
0.00101564
0.00153189
0.00205899
0.00237062
0.00252648
0.00255046
0.00243317
0.00215776
0.00177853
0.00178186
0.00217382
0.00247701
0.0026281
0.00263463
0.00250043
0.00220151
0.00166152
0.00110418
0.000688638
0.000731481
0.00081985
0.000896268
0.000963387
0.00102513
0.00107611
0.0011162
0.00114534
0.00116295
0.00116941
0.00117526
0.0011723
0.00115762
0.0011317
0.0010951
0.00104709
0.00098677
0.000920459
0.000843947
0.000754046
9.89883e-05
0.000132659
0.000148137
0.000150145
0.000146493
0.000155536
0.000173872
0.00019454
0.000213292
0.00022548
0.000212061
0.000192586
0.000177258
0.000162412
0.000148411
0.000140015
0.000143259
0.000135529
0.000149068
0.00011317
0.000163873
0.000450381
0.000507754
0.000531269
0.000552958
0.00058326
0.000627028
0.000690733
0.000755972
0.000763973
0.000726343
0.0006646
0.000596383
0.000544264
0.000508045
0.000479321
0.00045473
0.000428559
0.000385576
0.000162175
0.000190502
0.000522973
0.000576711
0.000594816
0.00061143
0.000631452
0.000661993
0.000713077
0.000762163
0.000718196
0.00069957
0.000685273
0.000626858
0.000586062
0.000561955
0.000546427
0.000540393
0.000535704
0.000505895
0.000187836
0.000228142
0.000470979
0.000575157
0.000626404
0.000648281
0.000658012
0.000670465
0.000701358
0.000737248
0.000673969
0.000672629
0.000687996
0.000642268
0.000617208
0.000604152
0.000590181
0.000567775
0.000525214
0.000446014
0.000260328
0.000275035
0.000432892
0.00053088
0.000592049
0.000633925
0.000664452
0.000691227
0.000724751
0.000759129
0.000698796
0.000709753
0.00073408
0.000690966
0.000663893
0.000644904
0.000622961
0.000586902
0.000531247
0.00044164
0.000291069
0.000352298
0.000457741
0.000541934
0.000604689
0.000644934
0.000671374
0.000695344
0.000732258
0.000788036
0.000771826
0.000792853
0.000797934
0.000756262
0.000735184
0.000718223
0.000691048
0.000645605
0.000574851
0.000484239
0.000371027
0.000496917
0.000570168
0.000626218
0.000717938
0.000797874
0.000844019
0.000861578
0.000872104
0.000898074
0.000911217
0.000966054
0.000994476
0.000994488
0.000992797
0.000970493
0.000910045
0.000807518
0.000690353
0.00062222
0.000519225
0.000589278
0.000847591
0.000942563
0.00111509
0.00125948
0.00133445
0.00133376
0.0012585
0.00113278
0.00101848
0.00106887
0.0012378
0.00140045
0.00149726
0.00150453
0.00142146
0.00125503
0.00105127
0.000920228
0.000609031
0.000666707
0.00099761
0.00152076
0.00203746
0.00236566
0.00255046
0.00258108
0.00242449
0.002055
0.00155667
0.00158759
0.00206219
0.00244634
0.00262674
0.00262032
0.00245167
0.00213295
0.00163061
0.00107246
0.000686524
0.000742426
0.000835984
0.00091666
0.000989391
0.00105779
0.0011162
0.00116461
0.00120364
0.00123498
0.00126255
0.00126876
0.00124457
0.00121505
0.00117775
0.0011314
0.001075
0.00100789
0.000935792
0.000855253
0.000760833
0.000105366
0.000141692
0.000139101
0.000145395
0.000152366
0.000170396
0.00019454
0.000220587
0.000243787
0.000260255
0.000243312
0.000219175
0.000197522
0.000172997
0.000145402
0.000116348
0.000112425
0.000131778
0.000125902
0.000115894
0.000158483
0.000458461
0.00052716
0.000567669
0.000604183
0.000644422
0.000690733
0.000736355
0.000730871
0.000589884
0.000564577
0.000669009
0.000650941
0.000597967
0.000552061
0.000516061
0.00048585
0.000464842
0.000414504
0.000162191
0.000190742
0.000498242
0.000574484
0.000619819
0.000655211
0.000684228
0.000713077
0.000729059
0.000645469
0.000480583
0.000456254
0.000612769
0.0006585
0.000628172
0.000597789
0.000573018
0.00055047
0.00053033
0.000480003
0.000189764
0.000204288
0.00051601
0.000608676
0.000649933
0.000671496
0.000685452
0.000701358
0.000704067
0.000591221
0.000510959
0.000477839
0.000585133
0.000660245
0.000641909
0.000623237
0.000606731
0.000585776
0.000548799
0.000473771
0.000204308
0.000245684
0.000429107
0.000541882
0.000617176
0.000668219
0.000700674
0.000724751
0.0007291
0.000605444
0.00062966
0.000578558
0.000621316
0.000710623
0.000689676
0.000662227
0.000629415
0.000582113
0.000516575
0.000422101
0.000254756
0.000315303
0.000416341
0.000507861
0.000583345
0.000641973
0.000689623
0.000732258
0.000760755
0.000655107
0.000774254
0.000726408
0.000698904
0.000786395
0.000753971
0.000712472
0.00066134
0.000596776
0.000517585
0.000430724
0.000333548
0.000477241
0.000493718
0.000540926
0.000639031
0.000738748
0.000815653
0.000872104
0.000920228
0.000869088
0.000916542
0.000925976
0.000986459
0.00104273
0.000987769
0.000915973
0.000817722
0.000693084
0.000572967
0.000516552
0.00049593
0.000579639
0.000759426
0.00081535
0.000977173
0.00113103
0.00123238
0.0012585
0.00120999
0.00111098
0.00109282
0.00112564
0.001217
0.00133833
0.00139006
0.00135763
0.00124081
0.00106323
0.000878771
0.000810603
0.000594732
0.000662664
0.00093939
0.00142991
0.00191013
0.00224968
0.00243317
0.00242449
0.00216524
0.00172223
0.00160783
0.00162188
0.00176557
0.00218714
0.00244197
0.00246517
0.00229334
0.00195939
0.00150353
0.000987152
0.000677234
0.000746361
0.000843633
0.000927236
0.00100418
0.00107904
0.00114534
0.00120364
0.00125664
0.00131259
0.00138542
0.00139013
0.00132303
0.0012681
0.00121512
0.00115745
0.00109192
0.00101773
0.000941291
0.000857891
0.000760338
6.64962e-05
0.000135601
0.000136907
0.00014257
0.000158414
0.000184145
0.000213292
0.000243787
0.000265546
0.000276587
0.000255969
0.000237278
0.000215873
0.000185206
0.000149985
0.000110401
0.000111884
0.000130678
0.000136502
0.000128502
0.000146163
0.000480626
0.000561804
0.000616398
0.000671251
0.000721844
0.000755972
0.000730871
0.000569278
0.000689279
0.000639775
0.000521703
0.000667967
0.000666096
0.000621854
0.000576983
0.000526994
0.000498998
0.000441078
0.000162957
0.000194208
0.00053603
0.000616108
0.000672383
0.000727787
0.000764891
0.000762163
0.000645469
0.000481266
0.000915989
0.000841189
0.000435401
0.000612568
0.000686384
0.000667266
0.000634859
0.000591321
0.000551082
0.000493611
0.000193348
0.000211718
0.000532208
0.000616013
0.000675007
0.000722353
0.000748065
0.000737248
0.000591221
0.000551598
0.00127277
0.00117555
0.000491937
0.000584394
0.000686177
0.000673686
0.000647814
0.000613214
0.000575147
0.00051953
0.000209878
0.000210157
0.000465444
0.000598868
0.00067883
0.000728508
0.000759982
0.000759129
0.000605444
0.0007316
0.0016956
0.00157782
0.000632514
0.000619744
0.000730558
0.000708756
0.00067004
0.000616369
0.000544106
0.000435566
0.000220005
0.000278215
0.000396245
0.00050996
0.000605495
0.000686622
0.00075267
0.000788036
0.000655107
0.000896577
0.00208214
0.00194862
0.000796925
0.000696236
0.000793176
0.000741152
0.000669743
0.000587988
0.000497864
0.000401811
0.000302213
0.000454122
0.000439697
0.000481061
0.000582259
0.000698972
0.000807906
0.000898074
0.000869088
0.00106236
0.00232014
0.00219626
0.00103256
0.000981321
0.000984253
0.000869182
0.00073835
0.000603736
0.000492122
0.000451383
0.000469597
0.000564732
0.000657968
0.000687536
0.000824657
0.000973776
0.00108612
0.00113278
0.00111098
0.00126798
0.00241592
0.00232339
0.00127896
0.00121034
0.00122225
0.00115813
0.00102842
0.000863646
0.000715058
0.000683342
0.000575735
0.00065126
0.000853618
0.00128384
0.00169768
0.00201407
0.00215776
0.002055
0.00172223
0.00171515
0.00230515
0.0022562
0.00172024
0.00176473
0.00205694
0.00216219
0.0020273
0.00171772
0.00131286
0.000873571
0.000661387
0.000741034
0.000840533
0.000925905
0.00100557
0.00108707
0.00116295
0.00123498
0.00131259
0.00141426
0.00153856
0.00154392
0.00142235
0.00132326
0.00124492
0.00117254
0.00109674
0.00101551
0.000935803
0.000850356
0.000750896
0.000186899
0.000109525
0.000128181
0.000132745
0.00015488
0.000189294
0.00022548
0.000260255
0.000276587
0.000286769
0.000265663
0.000252581
0.000237292
0.000202291
0.000162082
0.000126209
0.000137527
0.000152544
0.000159188
0.000142602
0.000189501
0.000495154
0.000583122
0.000643638
0.000708512
0.000758665
0.000763973
0.000589884
0.000689279
0.000470395
0.000441459
0.000637593
0.000563036
0.000730109
0.000713976
0.000667651
0.000608477
0.000560784
0.000481431
0.000165857
0.000201868
0.000565852
0.000652967
0.000715223
0.000781319
0.000806009
0.000718196
0.000480583
0.000915989
0.000691363
0.000662294
0.000839979
0.000455367
0.000703686
0.00076143
0.000734086
0.000674325
0.000618291
0.000541321
0.000196738
0.000217169
0.000564624
0.000654799
0.000722185
0.000783346
0.00079762
0.000673969
0.000510959
0.00127277
0.000925356
0.000905313
0.00117202
0.000474621
0.000673765
0.000757253
0.000733449
0.000675943
0.00061561
0.000537266
0.000213431
0.000226284
0.000564848
0.000674215
0.000746236
0.000805657
0.000823197
0.000698796
0.00062966
0.0016956
0.00118862
0.00118853
0.00157135
0.000572114
0.000709143
0.000790903
0.000758269
0.000699536
0.000629859
0.000534121
0.000228753
0.000239759
0.000411618
0.000570797
0.000696893
0.000800834
0.000861781
0.000771826
0.000774254
0.00208214
0.00147428
0.0015041
0.00194053
0.000717847
0.00079049
0.000838353
0.000760735
0.000657438
0.000539693
0.000405829
0.000255157
0.000427866
0.000409861
0.000461267
0.000575639
0.000720793
0.000866876
0.000911217
0.000916542
0.00232014
0.00175321
0.00181959
0.00219081
0.000921552
0.000959881
0.000885486
0.000725461
0.000572488
0.00045644
0.000409866
0.000435225
0.000542716
0.000569052
0.000586707
0.000696743
0.000834869
0.000956599
0.00101848
0.00109282
0.00241592
0.00195757
0.00205474
0.00232206
0.00112262
0.00105801
0.000977549
0.000845443
0.000701747
0.000590384
0.000575024
0.000549376
0.000629348
0.000767559
0.00110398
0.00141144
0.00169005
0.00177853
0.00155667
0.00160783
0.00230515
0.00211406
0.0022105
0.00225762
0.00162459
0.00158544
0.0017755
0.00168713
0.00141727
0.00112068
0.000774826
0.000636052
0.00071825
0.000819909
0.000904947
0.00098852
0.00108023
0.00116941
0.00126255
0.00138542
0.00153856
0.00156713
0.00161758
0.00154381
0.00139057
0.00126951
0.00117614
0.00108692
0.000995695
0.000912632
0.000827344
0.000725353
9.28786e-05
0.000122149
0.000129611
0.000113414
0.000136485
0.000175993
0.000212061
0.000243312
0.000255969
0.000265663
0.000277081
0.000266738
0.00025035
0.00021402
0.000179923
0.000162055
0.000170358
0.000178718
0.000183497
0.000154902
0.000158536
0.000471294
0.00054958
0.000603219
0.000656406
0.000705455
0.000726343
0.000564577
0.000639775
0.000441459
0.000458618
0.000679358
0.000597619
0.000774725
0.000774119
0.000728563
0.000667028
0.000606991
0.000515357
0.000173136
0.000194669
0.00052951
0.00060565
0.00066269
0.000722713
0.000754489
0.00069957
0.000456254
0.000841189
0.000662294
0.000681993
0.000916062
0.000488439
0.000729101
0.000821405
0.00079922
0.000732468
0.000669741
0.000580315
0.000204136
0.00020919
0.000526507
0.000608697
0.000672002
0.000731067
0.000756873
0.000672629
0.000477839
0.00117555
0.000905313
0.000919011
0.00128289
0.000519551
0.000680514
0.000808896
0.000796342
0.00073414
0.0006668
0.000576767
0.000220871
0.000217977
0.000518844
0.000627662
0.000700907
0.000760312
0.000793409
0.000709753
0.000578558
0.00157782
0.00118853
0.00118507
0.00171787
0.000649379
0.000703853
0.000832984
0.00081692
0.000754676
0.000681955
0.000571528
0.000232391
0.000254609
0.000403143
0.000533604
0.000653531
0.000760493
0.000840946
0.000792853
0.000726408
0.00194862
0.0015041
0.00147353
0.00212044
0.000805167
0.00077977
0.000874506
0.000815323
0.000708811
0.00058015
0.000420561
0.000256254
0.000434674
0.000416381
0.000461385
0.000577074
0.000731284
0.000892262
0.000966054
0.000925976
0.00219626
0.00181959
0.001755
0.00237063
0.00094378
0.000915986
0.000874311
0.000727482
0.000580044
0.000462635
0.000409282
0.000431682
0.000548823
0.000585367
0.000601218
0.000715184
0.000861036
0.000992604
0.00106887
0.00112564
0.00232339
0.00205474
0.00196318
0.00246921
0.00111689
0.00102585
0.000964058
0.000841911
0.000700845
0.000587067
0.000566978
0.000545631
0.000635237
0.000776932
0.0011323
0.00142686
0.00169503
0.00178186
0.00158759
0.00162188
0.0022562
0.0022105
0.0021262
0.00234418
0.00163279
0.00156298
0.00178471
0.0017029
0.00142235
0.00111091
0.000771043
0.000632743
0.000724428
0.000826063
0.000911137
0.000994395
0.00108585
0.00117526
0.00126876
0.00139013
0.00154392
0.00161758
0.0015659
0.00154676
0.00139383
0.00126978
0.00117588
0.00108645
0.000994526
0.000910691
0.000824792
0.00072216
0.000101065
0.000124366
0.000151507
0.000115065
0.000130385
0.000163733
0.000192586
0.000219175
0.000237278
0.000252581
0.000266738
0.000256272
0.000236384
0.00020745
0.000186182
0.000180237
0.00018448
0.000188128
0.000196917
0.000156922
0.000159319
0.000430608
0.000492824
0.000531242
0.000569267
0.000616045
0.0006646
0.000669009
0.000521703
0.000637593
0.000679358
0.000580492
0.000744085
0.000773361
0.000743775
0.000696059
0.000643478
0.000590102
0.000508042
0.00017696
0.000192165
0.000477049
0.000536503
0.000578988
0.000625179
0.000662643
0.000685273
0.000612769
0.000435401
0.000839979
0.000916062
0.000492387
0.000660066
0.00078207
0.000789458
0.000748978
0.000689766
0.000631736
0.000549307
0.000201379
0.000206535
0.000502601
0.000566322
0.000608622
0.000646355
0.000674644
0.000687996
0.000585133
0.000491937
0.00117202
0.00128289
0.000567902
0.000600493
0.000750859
0.000766644
0.000737031
0.000686221
0.000625982
0.000542011
0.000216684
0.000224526
0.000426877
0.000540068
0.000616568
0.000672406
0.000712325
0.00073408
0.000621316
0.000632514
0.00157135
0.00171787
0.000758778
0.000614057
0.000768939
0.000774317
0.000742803
0.000692356
0.00061201
0.00047597
0.000215403
0.000293982
0.000399469
0.000497569
0.000589774
0.000673471
0.000745872
0.000797934
0.000698904
0.000796925
0.00194053
0.00212044
0.000942974
0.00066797
0.000799823
0.000765601
0.000696199
0.000610698
0.000511901
0.000400664
0.000295066
0.000470556
0.000461681
0.000504055
0.00061832
0.000754144
0.000883123
0.000994476
0.000986459
0.00103256
0.00219081
0.00237063
0.00110744
0.000874866
0.000902374
0.000811618
0.000702233
0.000585015
0.000482567
0.00044053
0.000458647
0.000576151
0.000700067
0.000739305
0.000893744
0.00105872
0.00118257
0.0012378
0.001217
0.00127896
0.00232206
0.00246921
0.0013091
0.00112106
0.00114192
0.00109716
0.00098584
0.000834781
0.000692575
0.000661152
0.000568149
0.000661554
0.00088452
0.00133908
0.00173858
0.00204562
0.00217382
0.00206219
0.00176557
0.00172024
0.00225762
0.00234418
0.00174964
0.00172955
0.00206008
0.00217414
0.00203564
0.00171918
0.00128977
0.00085978
0.000654678
0.000750866
0.000850182
0.000935521
0.00101527
0.00109661
0.0011723
0.00124457
0.00132303
0.00142235
0.00154381
0.00154676
0.00142325
0.00132038
0.00124186
0.00116957
0.0010935
0.00101171
0.000931229
0.000844942
0.000744497
0.000110011
0.000136797
0.000157962
0.000138039
0.000136032
0.000156081
0.000177258
0.000197522
0.000215873
0.000237292
0.00025035
0.000236384
0.00021576
0.000193521
0.00017965
0.000177547
0.000181961
0.000187565
0.000195053
0.000144557
0.000162778
0.000406277
0.000453913
0.000477569
0.000507402
0.000546742
0.000596383
0.000650941
0.000667967
0.000563036
0.000597619
0.000744085
0.000752511
0.000708956
0.000662185
0.000621132
0.000585008
0.000547861
0.000481258
0.000175792
0.000192657
0.000471648
0.000516056
0.000536745
0.000563966
0.000593207
0.000626858
0.0006585
0.000612568
0.000455367
0.000488439
0.000660066
0.000747058
0.000733938
0.000702459
0.000666488
0.000626102
0.000579728
0.000504953
0.000199187
0.00021228
0.00045753
0.000538767
0.000580563
0.000604616
0.000622789
0.000642268
0.000660245
0.000584394
0.000474621
0.000519551
0.000600493
0.000714116
0.000713869
0.000695551
0.000678349
0.000652038
0.000611477
0.000521869
0.000214904
0.000257566
0.000417586
0.000513939
0.000581902
0.000630322