/*--------------------------------*- C++ -*----------------------------------*\
| =========                 |                                                 |
| \\      /  F ield         | OpenFOAM: The Open Source CFD Toolbox           |
|  \\    /   O peration     | Version:  v1912                                 |
|   \\  /    A nd           | Website:  www.openfoam.com                      |
|    \\/     M anipulation  |                                                 |
\*---------------------------------------------------------------------------*/
FoamFile
{
    version     2.0;
    format      ascii;
    class       volScalarField;
    location    "200";
    object      epsilon;
}
// * * * * * * * * * * * * * * * * * * * * * * * * * * * * * * * * * * * * * //

dimensions      [0 2 -3 0 0 0 0];


internalField   nonuniform List<scalar> 
4000
(
1.99045e-08
1.07184e-08
9.26142e-09
8.40024e-09
7.45354e-09
7.11366e-09
6.66625e-09
6.35301e-09
5.29178e-09
9.63279e-09
6.23716e-09
6.29727e-09
6.56053e-09
6.61389e-09
6.58446e-09
7.09224e-09
7.6959e-09
1.01559e-08
1.58633e-08
2.62681e-08
1.56093e-07
7.86356e-08
3.93572e-08
2.51872e-08
2.33999e-08
2.31919e-08
2.29046e-08
2.22525e-08
2.12704e-08
2.46364e-08
2.2028e-08
2.1748e-08
2.14439e-08
2.05187e-08
1.92101e-08
2.09154e-08
5.98931e-08
1.18865e-07
2.12758e-07
3.13137e-07
4.32809e-07
3.5146e-07
2.13971e-07
1.2564e-07
6.70509e-08
3.67059e-08
3.76684e-08
3.74078e-08
3.88465e-08
4.10692e-08
3.81141e-08
3.7335e-08
3.63617e-08
3.4683e-08
6.27813e-08
1.20278e-07
2.05685e-07
3.45034e-07
4.67566e-07
5.4169e-07
5.58954e-07
5.01744e-07
4.10194e-07
2.73775e-07
1.7398e-07
1.14239e-07
7.0648e-08
4.75465e-08
5.21904e-08
5.4812e-08
5.04005e-08
4.99608e-08
5.76656e-08
1.05542e-07
1.62335e-07
2.57625e-07
3.99968e-07
5.32217e-07
6.21853e-07
6.66028e-07
6.42454e-07
6.15746e-07
5.4108e-07
4.30139e-07
2.92087e-07
1.91212e-07
1.27006e-07
8.9378e-08
5.74842e-08
5.91233e-08
5.17497e-08
7.09997e-08
1.08065e-07
1.71507e-07
2.71647e-07
4.31031e-07
5.74098e-07
6.86892e-07
7.48071e-07
7.54829e-07
7.07083e-07
7.21295e-07
6.89171e-07
6.10925e-07
5.10979e-07
3.835e-07
2.75423e-07
1.91316e-07
1.22259e-07
7.84553e-08
9.05918e-08
1.56682e-07
2.5193e-07
3.81595e-07
5.696e-07
6.93204e-07
7.91633e-07
8.57738e-07
8.67946e-07
8.27473e-07
7.668e-07
8.31945e-07
8.63444e-07
8.59669e-07
8.35074e-07
7.89733e-07
7.25625e-07
6.42633e-07
5.49735e-07
4.45926e-07
4.81804e-07
6.26879e-07
7.57709e-07
8.77665e-07
9.75912e-07
1.04004e-06
1.06556e-06
1.05426e-06
9.94266e-07
8.96485e-07
8.32137e-07
9.59504e-07
1.06878e-06
1.14507e-06
1.19459e-06
1.21092e-06
1.19125e-06
1.13471e-06
1.04762e-06
9.29887e-07
9.67237e-07
1.12996e-06
1.2664e-06
1.37007e-06
1.42546e-06
1.42663e-06
1.37537e-06
1.28024e-06
1.13759e-06
9.7178e-07
9.11187e-07
1.11953e-06
1.31614e-06
1.47802e-06
1.60677e-06
1.68956e-06
1.71824e-06
1.68995e-06
1.60535e-06
1.45399e-06
1.50159e-06
1.70415e-06
1.85229e-06
1.94124e-06
1.95188e-06
1.88288e-06
1.7445e-06
1.55547e-06
1.31743e-06
1.06171e-06
1.02356e-06
1.33117e-06
1.62599e-06
1.87529e-06
2.08633e-06
2.25016e-06
2.36015e-06
2.40445e-06
2.36048e-06
2.16505e-06
2.23267e-06
2.48166e-06
2.58614e-06
2.59381e-06
2.51841e-06
2.36886e-06
2.15179e-06
1.87851e-06
1.54325e-06
1.18668e-06
1.07184e-08
1.55091e-08
2.11884e-08
2.17516e-08
1.69896e-08
1.56304e-08
1.42511e-08
1.37236e-08
1.32485e-08
1.16139e-08
1.12113e-08
1.07832e-08
1.15596e-08
1.25416e-08
1.40195e-08
1.78066e-08
1.51667e-08
1.42299e-08
1.53524e-08
1.51816e-08
7.86356e-08
6.63423e-08
6.20946e-08
4.75276e-08
3.41748e-08
3.32983e-08
2.90426e-08
2.65106e-08
2.41577e-08
2.47735e-08
2.37486e-08
2.45438e-08
2.62644e-08
3.05019e-08
3.18924e-08
5.47845e-08
9.21794e-08
1.18638e-07
1.65711e-07
2.0732e-07
3.5146e-07
3.41857e-07
2.25416e-07
1.62746e-07
1.29783e-07
9.14665e-08
5.16644e-08
4.43485e-08
3.7374e-08
3.85626e-08
3.74524e-08
4.11788e-08
4.80859e-08
8.85976e-08
1.2619e-07
1.60511e-07
2.27392e-07
3.54495e-07
5.02601e-07
4.58714e-07
5.01744e-07
5.4275e-07
4.50351e-07
3.05647e-07
2.10039e-07
1.60899e-07
1.31249e-07
9.26613e-08
5.55779e-08
5.3586e-08
5.30066e-08
7.41284e-08
1.19258e-07
1.47241e-07
1.93851e-07
2.80816e-07
4.20028e-07
5.70645e-07
6.4173e-07
6.11535e-07
6.15746e-07
5.83689e-07
5.26326e-07
4.27304e-07
2.95082e-07
2.04288e-07
1.47361e-07
1.14059e-07
9.25192e-08
8.09572e-08
8.62409e-08
1.03904e-07
1.32865e-07
1.85672e-07
2.72298e-07
4.0468e-07
5.46807e-07
6.36237e-07
6.85933e-07
7.36786e-07
7.21295e-07
6.42267e-07
6.05321e-07
5.40127e-07
4.40305e-07
3.12032e-07
2.22672e-07
1.59528e-07
1.14089e-07
9.40295e-08
9.79079e-08
1.34734e-07
1.99729e-07
2.95924e-07
4.35953e-07
5.8885e-07
6.84999e-07
7.40278e-07
7.64569e-07
8.56202e-07
8.31945e-07
7.50597e-07
7.46165e-07
7.23006e-07
6.80565e-07
5.94949e-07
4.59849e-07
3.60556e-07
2.88207e-07
2.34116e-07
2.50325e-07
3.26325e-07
4.24801e-07
5.78683e-07
7.45676e-07
8.40243e-07
8.91896e-07
9.08785e-07
8.95984e-07
9.82684e-07
9.59504e-07
9.24679e-07
9.74704e-07
1.00263e-06
1.02511e-06
1.01971e-06
9.62583e-07
8.29353e-07
6.79395e-07
5.24452e-07
5.51739e-07
7.40974e-07
9.31853e-07
1.09814e-06
1.18777e-06
1.22073e-06
1.21136e-06
1.17901e-06
1.10395e-06
1.12753e-06
1.11953e-06
1.2418e-06
1.43095e-06
1.58345e-06
1.71503e-06
1.79442e-06
1.78888e-06
1.6995e-06
1.5498e-06
1.32307e-06
1.36236e-06
1.62344e-06
1.85046e-06
2.01892e-06
2.07279e-06
2.01731e-06
1.88301e-06
1.7056e-06
1.47024e-06
1.30921e-06
1.33117e-06
1.74824e-06
2.16915e-06
2.54743e-06
2.88627e-06
3.16583e-06
3.36885e-06
3.47291e-06
3.44585e-06
3.21751e-06
3.30208e-06
3.59968e-06
3.71291e-06
3.68316e-06
3.52732e-06
3.26469e-06
2.91339e-06
2.49836e-06
2.02098e-06
1.53913e-06
9.26142e-09
2.11884e-08
2.70255e-08
2.36351e-08
2.10792e-08
2.06252e-08
1.91772e-08
1.7883e-08
1.70481e-08
1.54468e-08
1.35408e-08
1.32704e-08
1.46828e-08
1.61556e-08
1.72153e-08
1.98456e-08
1.79309e-08
1.78337e-08
1.41359e-08
9.18907e-09
3.93572e-08
6.20946e-08
5.89901e-08
4.25438e-08
3.74235e-08
3.74978e-08
3.18315e-08
2.95918e-08
2.77824e-08
2.81877e-08
2.71744e-08
2.72269e-08
2.90606e-08
3.38932e-08
3.38537e-08
4.88756e-08
8.06463e-08
1.00611e-07
1.18686e-07
1.14331e-07
2.13971e-07
2.25416e-07
1.83164e-07
1.54048e-07
1.33221e-07
9.32574e-08
5.97118e-08
5.10051e-08
4.37609e-08
4.38918e-08
4.30736e-08
4.65688e-08
5.52467e-08
8.79515e-08
1.23455e-07
1.49143e-07
1.9091e-07
2.6159e-07
3.4611e-07
3.28652e-07
4.10194e-07
4.50351e-07
3.71442e-07
2.73796e-07
2.07644e-07
1.71167e-07
1.43557e-07
1.02699e-07
7.03181e-08
6.34266e-08
6.51245e-08
8.65194e-08
1.25882e-07
1.56238e-07
1.96457e-07
2.63275e-07
3.64664e-07
4.9045e-07
5.61366e-07
5.13888e-07
5.4108e-07
5.26326e-07
4.75327e-07
3.83333e-07
2.80128e-07
2.06779e-07
1.59327e-07
1.33114e-07
1.15747e-07
9.93314e-08
1.0608e-07
1.24744e-07
1.48156e-07
1.9263e-07
2.62621e-07
3.63584e-07
4.85687e-07
5.69245e-07
6.24215e-07
6.64258e-07
6.89171e-07
6.05321e-07
5.46324e-07
4.71403e-07
3.69828e-07
2.71707e-07
2.01126e-07
1.52993e-07
1.22735e-07
1.13818e-07
1.15382e-07
1.37621e-07
1.85941e-07
2.59096e-07
3.61774e-07
4.89546e-07
5.93472e-07
6.67856e-07
7.26746e-07
8.32885e-07
8.63444e-07
7.46165e-07
7.11094e-07
6.50091e-07
5.52187e-07
4.32718e-07
3.28022e-07
2.49927e-07
1.93759e-07
1.59211e-07
1.67015e-07
2.16802e-07
2.9429e-07
4.07988e-07
5.47964e-07
7.04551e-07
8.15849e-07
8.71013e-07
8.94052e-07
1.0305e-06
1.06878e-06
9.74704e-07
1.04418e-06
1.05891e-06
9.96294e-07
8.34783e-07
6.96175e-07
5.69425e-07
4.46201e-07
3.33764e-07
3.46112e-07
4.82887e-07
6.43469e-07
8.16033e-07
1.04035e-06
1.23253e-06
1.30775e-06
1.2696e-06
1.16169e-06
1.25956e-06
1.31614e-06
1.43095e-06
1.81412e-06
2.18072e-06
2.47662e-06
2.64025e-06
2.58823e-06
2.32044e-06
1.91729e-06
1.34666e-06
1.38833e-06
1.99423e-06
2.53914e-06
2.92219e-06
3.02351e-06
2.89462e-06
2.57716e-06
2.14959e-06
1.68969e-06
1.53801e-06
1.62599e-06
2.16915e-06
2.72685e-06
3.24765e-06
3.72678e-06
4.13338e-06
4.4394e-06
4.60961e-06
4.60357e-06
4.31998e-06
4.42069e-06
4.78875e-06
4.90042e-06
4.82125e-06
4.57158e-06
4.18433e-06
3.68755e-06
3.11937e-06
2.49205e-06
1.8687e-06
8.40024e-09
2.17516e-08
2.36351e-08
2.28204e-08
2.24699e-08
2.21813e-08
2.13423e-08
2.13402e-08
2.1513e-08
2.01448e-08
1.60467e-08
1.45752e-08
1.5957e-08
1.80292e-08
1.95968e-08
2.11028e-08
2.17748e-08
1.82797e-08
1.54392e-08
6.57311e-09
2.51872e-08
4.75276e-08
4.25438e-08
3.82679e-08
4.16462e-08
3.76745e-08
3.30645e-08
3.18028e-08
3.23841e-08
3.41251e-08
3.26931e-08
3.0774e-08
3.15567e-08
3.43209e-08
3.73296e-08
3.9094e-08
5.76713e-08
7.87205e-08
8.92878e-08
4.81514e-08
1.2564e-07
1.62746e-07
1.54048e-07
1.40156e-07
1.14984e-07
7.90167e-08
6.28425e-08
5.4392e-08
5.06454e-08
5.15097e-08
5.07031e-08
5.17978e-08
6.0149e-08
7.48941e-08
1.03772e-07
1.30455e-07
1.55552e-07
1.90286e-07
2.23291e-07
1.9428e-07
2.73775e-07
3.05647e-07
2.73796e-07
2.26645e-07
1.90015e-07
1.65926e-07
1.34882e-07
1.00105e-07
7.97803e-08
7.37763e-08
7.61945e-08
8.96228e-08
1.17849e-07
1.50524e-07
1.83309e-07
2.28156e-07
2.89002e-07
3.59865e-07
4.05047e-07
3.76573e-07
4.30139e-07
4.27304e-07
3.83333e-07
3.13999e-07
2.46283e-07
1.951e-07
1.60535e-07
1.40049e-07
1.23841e-07
1.09946e-07
1.17182e-07
1.34052e-07
1.54923e-07
1.8823e-07
2.40059e-07
3.11646e-07
3.98399e-07
4.75283e-07
5.2676e-07
5.45635e-07
6.10925e-07
5.40127e-07
4.71403e-07
3.97675e-07
3.13463e-07
2.42119e-07
1.88585e-07
1.52308e-07
1.33183e-07
1.33046e-07
1.34794e-07
1.47001e-07
1.82973e-07
2.38685e-07
3.13659e-07
4.04932e-07
5.0012e-07
5.80445e-07
6.61201e-07
7.57749e-07
8.59669e-07
7.23006e-07
6.50091e-07
5.65561e-07
4.5974e-07
3.68002e-07
2.88851e-07
2.25432e-07
1.77561e-07
1.51613e-07
1.56798e-07
2.0004e-07
2.71545e-07
3.64973e-07
4.74082e-07
5.93912e-07
7.17142e-07
7.99206e-07
8.67555e-07
1.03321e-06
1.14507e-06
1.00263e-06
1.05891e-06
1.05266e-06
9.38144e-07
8.49708e-07
7.49076e-07
6.27657e-07
4.86476e-07
3.44032e-07
3.54039e-07
5.30275e-07
7.25039e-07
9.0707e-07
1.06969e-06
1.19494e-06
1.31905e-06
1.28663e-06
1.18579e-06
1.3468e-06
1.47802e-06
1.58345e-06
2.18072e-06
2.87909e-06
3.46166e-06
3.69736e-06
3.75397e-06
3.55731e-06
3.04927e-06
2.1844e-06
2.22173e-06
3.14797e-06
3.80649e-06
4.14972e-06
4.21003e-06
3.99689e-06
3.35608e-06
2.55704e-06
1.85633e-06
1.71938e-06
1.87529e-06
2.54743e-06
3.24765e-06
3.92606e-06
4.5682e-06
5.12908e-06
5.57481e-06
5.84696e-06
5.88839e-06
5.6145e-06
5.73158e-06
6.10584e-06
6.17979e-06
6.00665e-06
5.62119e-06
5.07799e-06
4.41238e-06
3.67833e-06
2.89933e-06
2.13616e-06
7.45354e-09
1.69896e-08
2.10792e-08
2.24699e-08
2.28192e-08
2.26202e-08
2.38734e-08
2.63906e-08
2.92955e-08
3.06096e-08
2.67787e-08
2.3197e-08
2.13346e-08
2.08363e-08
2.10124e-08
2.10108e-08
2.03945e-08
1.87327e-08
1.54457e-08
6.05962e-09
2.33999e-08
3.41748e-08
3.74235e-08
4.16462e-08
4.04669e-08
3.57639e-08
3.46873e-08
3.62459e-08
4.06153e-08
4.56133e-08
4.25186e-08
3.69173e-08
3.46322e-08
3.48493e-08
3.68043e-08
3.7991e-08
3.80033e-08
4.48411e-08
4.82383e-08
1.96901e-08
6.70509e-08
1.29783e-07
1.33221e-07
1.14984e-07
8.80254e-08
7.02504e-08
6.19031e-08
5.73851e-08
5.85598e-08
6.31235e-08
6.14658e-08
5.83378e-08
6.05539e-08
6.82322e-08
8.31281e-08
1.07089e-07
1.31537e-07
1.50829e-07
1.60091e-07
1.12825e-07
1.7398e-07
2.10039e-07
2.07644e-07
1.90015e-07
1.71503e-07
1.46361e-07
1.16241e-07
9.38195e-08
8.42506e-08
8.46128e-08
8.57735e-08
9.04052e-08
1.06534e-07
1.32707e-07
1.63339e-07
1.93959e-07
2.27114e-07
2.59384e-07
2.71641e-07
2.42705e-07
2.92087e-07
2.95082e-07
2.80128e-07
2.46283e-07
2.08866e-07
1.77563e-07
1.54566e-07
1.37365e-07
1.22955e-07
1.17849e-07
1.23043e-07
1.34944e-07
1.52798e-07
1.77808e-07
2.12103e-07
2.56795e-07
3.07122e-07
3.50706e-07
3.79558e-07
3.97334e-07
5.10979e-07
4.40305e-07
3.69828e-07
3.13463e-07
2.59954e-07
2.12513e-07
1.75224e-07
1.50617e-07
1.40943e-07
1.52173e-07
1.54148e-07
1.55735e-07
1.79485e-07
2.18652e-07
2.70053e-07
3.30277e-07
3.9486e-07
4.67388e-07
5.59568e-07
6.554e-07
8.35074e-07
6.80565e-07
5.52187e-07
4.5974e-07
3.93447e-07
3.3516e-07
2.81378e-07
2.34317e-07
1.97738e-07
1.87091e-07
1.92347e-07
2.25867e-07
2.88908e-07
3.61058e-07
4.34553e-07
5.05174e-07
5.77026e-07
6.7557e-07
8.11425e-07
1.00383e-06
1.19459e-06
1.02511e-06
9.96294e-07
9.38144e-07
9.70401e-07
9.86686e-07
9.48175e-07
8.44031e-07
6.7327e-07
4.81779e-07
4.9403e-07
7.35489e-07
9.74634e-07
1.14491e-06
1.2263e-06
1.21483e-06
1.16209e-06
1.19285e-06
1.19305e-06
1.3934e-06
1.60677e-06
1.71503e-06
2.47662e-06
3.46166e-06
4.32144e-06
5.01781e-06
5.4278e-06
5.36967e-06
4.63596e-06
3.42532e-06
3.44081e-06
4.75847e-06
5.61903e-06
5.83509e-06
5.54585e-06
4.89407e-06
3.96747e-06
2.85847e-06
1.98527e-06
1.85213e-06
2.08633e-06
2.88627e-06
3.72678e-06
4.5682e-06
5.39994e-06
6.17547e-06
6.8043e-06
7.23967e-06
7.42067e-06
7.3017e-06
7.44291e-06
7.67505e-06
7.60184e-06
7.26193e-06
6.69387e-06
5.92737e-06
5.06634e-06
4.16528e-06
3.24346e-06
2.3485e-06
7.11366e-09
1.56304e-08
2.06252e-08
2.21813e-08
2.26202e-08
2.50015e-08
2.94194e-08
3.52716e-08
4.21128e-08
4.76815e-08
4.30398e-08
3.50316e-08
2.91269e-08
2.50799e-08
2.23258e-08
2.03525e-08
1.81823e-08
1.49476e-08
1.15104e-08
5.57316e-09
2.31919e-08
3.32983e-08
3.74978e-08
3.76745e-08
3.57639e-08
3.59335e-08
3.82157e-08
4.30355e-08
5.19647e-08
6.19151e-08
5.54306e-08
4.47946e-08
3.93526e-08
3.69901e-08
3.6326e-08
3.67253e-08
3.71461e-08
3.44503e-08
3.09333e-08
1.82742e-08
3.67059e-08
9.14665e-08
9.32574e-08
7.90167e-08
7.02504e-08
6.38119e-08
5.99588e-08
6.00258e-08
6.65561e-08
7.78527e-08
7.26007e-08
6.34289e-08
6.13094e-08
6.45045e-08
7.14916e-08
8.3583e-08
1.04877e-07
1.25171e-07
1.29314e-07
5.17308e-08
1.14239e-07
1.60899e-07
1.71167e-07
1.65926e-07
1.46361e-07
1.20725e-07
9.9581e-08
8.72647e-08
8.57311e-08
9.7021e-08
9.45983e-08
8.98068e-08
9.70184e-08
1.14159e-07
1.37293e-07
1.63165e-07
1.827e-07
1.9501e-07
1.90903e-07
1.52735e-07
1.91212e-07
2.04288e-07
2.06779e-07
1.951e-07
1.77563e-07
1.59798e-07
1.42696e-07
1.28248e-07
1.1897e-07
1.28425e-07
1.30019e-07
1.30478e-07
1.43071e-07
1.62072e-07
1.85442e-07
2.1031e-07
2.35165e-07
2.53152e-07
2.56522e-07
2.4634e-07
3.835e-07
3.12032e-07
2.71707e-07
2.42119e-07
2.12513e-07
1.8433e-07
1.61514e-07
1.46979e-07
1.45899e-07
1.74917e-07
1.75261e-07
1.61387e-07
1.73924e-07
1.98483e-07
2.30124e-07
2.65976e-07
3.0277e-07
3.42401e-07
4.05109e-07
5.30863e-07
7.89733e-07
5.94949e-07
4.32718e-07
3.68002e-07
3.3516e-07
3.08101e-07
2.80505e-07
2.54324e-07
2.36666e-07
2.56668e-07
2.65993e-07
2.7273e-07
3.15986e-07
3.60192e-07
3.97304e-07
4.25788e-07
4.55155e-07
5.22086e-07
7.15047e-07
9.40245e-07
1.21092e-06
1.01971e-06
8.34783e-07
8.49708e-07
9.86686e-07
1.10308e-06
1.13918e-06
1.06432e-06
8.69453e-07
6.45001e-07
6.63466e-07
9.43156e-07
1.20743e-06
1.34026e-06
1.3318e-06
1.20445e-06
1.02795e-06
9.88217e-07
1.16106e-06
1.39202e-06
1.68956e-06
1.79442e-06
2.64025e-06
3.69736e-06
5.01781e-06
6.18812e-06
6.89027e-06
6.87438e-06
5.86266e-06
4.34024e-06
4.36674e-06
5.92673e-06
7.05199e-06
7.21284e-06
6.64235e-06
5.51339e-06
4.14274e-06
2.97569e-06
2.03758e-06
1.91857e-06
2.25016e-06
3.16583e-06
4.13338e-06
5.12908e-06
6.17547e-06
7.15181e-06
7.99348e-06
8.64883e-06
9.06818e-06
9.24054e-06
9.42435e-06
9.35754e-06
9.02204e-06
8.43976e-06
7.64875e-06
6.6822e-06
5.59847e-06
4.54428e-06
3.50082e-06
2.49537e-06
6.66625e-09
1.42511e-08
1.91772e-08
2.13423e-08
2.38734e-08
2.94194e-08
3.72574e-08
4.71487e-08
5.91503e-08
7.18766e-08
6.36388e-08
4.78037e-08
3.76449e-08
3.01369e-08
2.40632e-08
1.90188e-08
1.56567e-08
1.32322e-08
1.00348e-08
5.67127e-09
2.29046e-08
2.90426e-08
3.18315e-08
3.30645e-08
3.46873e-08
3.82157e-08
4.32329e-08
5.20761e-08
6.9262e-08
9.81794e-08
8.51617e-08
5.76593e-08
4.62453e-08
4.03914e-08
3.68971e-08
3.44688e-08
3.37416e-08
3.34606e-08
3.00672e-08
2.01398e-08
3.76684e-08
5.16644e-08
5.97118e-08
6.28425e-08
6.19031e-08
5.99588e-08
5.97258e-08
6.41624e-08
8.04816e-08
1.18317e-07
1.04397e-07
7.29333e-08
6.34976e-08
6.26034e-08
6.48158e-08
6.87398e-08
7.5035e-08
8.53492e-08
8.10387e-08
3.52745e-08
7.0648e-08
1.31249e-07
1.43557e-07
1.34882e-07
1.16241e-07
9.9581e-08
8.80366e-08
8.38438e-08
9.70688e-08
1.55013e-07
1.38507e-07
9.5421e-08
9.04326e-08
9.93113e-08
1.14034e-07
1.32514e-07
1.50479e-07
1.57029e-07
1.48101e-07
9.82574e-08
1.27006e-07
1.47361e-07
1.59327e-07
1.60535e-07
1.54566e-07
1.42696e-07
1.29179e-07
1.1869e-07
1.26998e-07
2.10956e-07
1.91507e-07
1.3235e-07
1.31815e-07
1.45147e-07
1.61205e-07
1.75627e-07
1.8442e-07
1.86915e-07
1.77466e-07
1.5836e-07
2.75423e-07
2.22672e-07
2.01126e-07
1.88585e-07
1.75224e-07
1.61514e-07
1.49737e-07
1.44052e-07
1.62885e-07
2.91172e-07
2.69407e-07
1.73445e-07
1.67595e-07
1.7999e-07
1.96577e-07
2.13882e-07
2.30051e-07
2.45767e-07
2.75194e-07
3.48508e-07
7.25625e-07
4.59849e-07
3.28022e-07
2.88851e-07
2.81378e-07
2.80505e-07
2.78228e-07
2.76903e-07
2.94436e-07
4.42125e-07
4.45764e-07
3.38189e-07
3.40906e-07
3.51849e-07
3.5481e-07
3.49452e-07
3.47958e-07
3.85809e-07
5.45071e-07
8.47962e-07
1.19125e-06
9.62583e-07
6.96175e-07
7.49076e-07
9.48175e-07
1.13918e-06
1.237e-06
1.18071e-06
9.61334e-07
8.18499e-07
8.42694e-07
1.03738e-06
1.30973e-06
1.40829e-06
1.32415e-06
1.11331e-06
8.69633e-07
7.83535e-07
1.07364e-06
1.34069e-06
1.71824e-06
1.78888e-06
2.58823e-06
3.75397e-06
5.4278e-06
6.89027e-06
7.77115e-06
7.62888e-06
6.03362e-06
4.65598e-06
4.72169e-06
6.04129e-06
7.65814e-06
7.9435e-06
7.1895e-06
5.78664e-06
4.07826e-06
2.85507e-06
1.98247e-06
1.90977e-06
2.36015e-06
3.36885e-06
4.4394e-06
5.57481e-06
6.8043e-06
7.99348e-06
9.08271e-06
1.00342e-05
1.08535e-05
1.16255e-05
1.18708e-05
1.11938e-05
1.04162e-05
9.49656e-06
8.43098e-06
7.24176e-06
5.97763e-06
4.78975e-06
3.65531e-06
2.57124e-06
6.35301e-09
1.37236e-08
1.7883e-08
2.13402e-08
2.63906e-08
3.52716e-08
4.71487e-08
6.26621e-08
8.13042e-08
1.02493e-07
8.75604e-08
6.33122e-08
4.83351e-08
3.66656e-08
2.69941e-08
1.79705e-08
1.20809e-08
1.06558e-08
9.19865e-09
6.24879e-09
2.22525e-08
2.65106e-08
2.95918e-08
3.18028e-08
3.62459e-08
4.30355e-08
5.20761e-08
6.97137e-08
1.07626e-07
1.84784e-07
1.532e-07
8.52106e-08
5.87339e-08
4.62412e-08
3.92666e-08
3.40214e-08
3.06191e-08
2.8527e-08
2.53394e-08
2.09233e-08
3.74078e-08
4.43485e-08
5.10051e-08
5.4392e-08
5.73851e-08
6.00258e-08
6.41624e-08
7.93964e-08
1.32939e-07
3.63912e-07
3.01068e-07
1.07208e-07
7.20161e-08
6.36643e-08
6.17332e-08
6.09967e-08
6.00993e-08
5.51908e-08
4.78273e-08
3.55214e-08
4.75465e-08
9.26613e-08
1.02699e-07
1.00105e-07
9.38195e-08
8.72647e-08
8.38438e-08
9.52889e-08
1.82922e-07
7.15225e-07
5.92906e-07
1.49266e-07
9.3183e-08
9.02287e-08
9.67078e-08
1.06034e-07
1.17334e-07
1.25749e-07
1.20564e-07
4.99667e-08
8.9378e-08
1.14059e-07
1.33114e-07
1.40049e-07
1.37365e-07
1.28248e-07
1.1869e-07
1.24845e-07
2.61097e-07
1.28597e-06
1.05208e-06
2.15592e-07
1.29628e-07
1.31124e-07
1.41732e-07
1.50718e-07
1.52273e-07
1.45479e-07
1.30088e-07
1.02431e-07
1.91316e-07
1.59528e-07
1.52993e-07
1.52308e-07
1.50617e-07
1.46979e-07
1.44052e-07
1.58112e-07
3.47875e-07
1.97923e-06
1.62907e-06
3.01137e-07
1.7158e-07
1.66377e-07
1.71477e-07
1.75586e-07
1.77504e-07
1.78603e-07
1.89418e-07
2.3586e-07
6.42633e-07
3.60556e-07
2.49927e-07
2.25432e-07
2.34317e-07
2.54324e-07
2.76903e-07
3.17245e-07
5.59566e-07
2.41655e-06
2.12929e-06
5.64838e-07
3.75972e-07
3.37344e-07
3.08722e-07
2.78711e-07
2.59941e-07
2.81623e-07
4.07998e-07
7.36555e-07
1.13471e-06
8.29353e-07
5.69425e-07
6.27657e-07
8.44031e-07
1.06432e-06
1.18071e-06
1.11267e-06
1.06692e-06
2.65975e-06
2.47323e-06
1.12305e-06
1.21855e-06
1.29928e-06
1.18428e-06
9.43334e-07
6.95033e-07
6.18785e-07
9.07996e-07
1.24494e-06
1.68995e-06
1.6995e-06
2.32044e-06
3.55731e-06
5.36967e-06
6.87438e-06
7.62888e-06
6.82533e-06
5.21947e-06
7.66316e-06
7.42401e-06
5.41051e-06
6.87871e-06
7.65271e-06
7.02408e-06
5.57008e-06
3.74701e-06
2.48246e-06
1.8246e-06
1.82923e-06
2.40445e-06
3.47291e-06
4.60961e-06
5.84696e-06
7.23967e-06
8.64883e-06
1.00342e-05
1.1427e-05
1.3043e-05
1.53537e-05
1.56296e-05
1.34641e-05
1.18383e-05
1.04142e-05
9.01181e-06
7.58135e-06
6.15204e-06
4.87318e-06
3.68999e-06
2.56804e-06
5.29178e-09
1.32485e-08
1.70481e-08
2.1513e-08
2.92955e-08
4.21128e-08
5.91503e-08
8.13042e-08
1.00021e-07
1.18071e-07
9.88369e-08
7.6927e-08
6.2137e-08
4.5795e-08
3.1985e-08
1.93489e-08
1.27998e-08
1.16267e-08
1.06147e-08
7.2127e-09
2.12704e-08
2.41577e-08
2.77824e-08
3.23841e-08
4.06153e-08
5.19647e-08
6.9262e-08
1.07626e-07
1.97452e-07
1.18422e-06
9.98016e-07
1.53347e-07
8.43406e-08
5.7428e-08
4.47819e-08
3.64061e-08
3.01804e-08
2.71247e-08
2.43514e-08
2.1882e-08
3.88465e-08
3.7374e-08
4.37609e-08
5.06454e-08
5.85598e-08
6.65561e-08
8.04816e-08
1.32939e-07
4.60353e-07
4.40309e-06
3.79428e-06
3.66412e-07
1.06295e-07
7.28215e-08
6.37633e-08
5.85987e-08
5.14936e-08
4.648e-08
4.07262e-08
3.76215e-08
5.21904e-08
5.55779e-08
7.03181e-08
7.97803e-08
8.42506e-08
8.57311e-08
9.70688e-08
1.82922e-07
9.85117e-07
8.9778e-06
7.87231e-06
7.90629e-07
1.47545e-07
9.4523e-08
8.92403e-08
8.98354e-08
8.89014e-08
8.53929e-08
7.01638e-08
5.12807e-08
5.74842e-08
9.25192e-08
1.15747e-07
1.23841e-07
1.22955e-07
1.1897e-07
1.26998e-07
2.61097e-07
1.98774e-06
1.51529e-05
1.3425e-05
1.51554e-06
2.12677e-07
1.30624e-07
1.28836e-07
1.32983e-07
1.31923e-07
1.23291e-07
1.03964e-07
6.53344e-08
1.22259e-07
1.14089e-07
1.22735e-07
1.33183e-07
1.40943e-07
1.45899e-07
1.62885e-07
3.47875e-07
3.02795e-06
2.11862e-05
1.86929e-05
2.35458e-06
2.96964e-07
1.70803e-07
1.58842e-07
1.52952e-07
1.43969e-07
1.33877e-07
1.29894e-07
1.51297e-07
5.49735e-07
2.88207e-07
1.93759e-07
1.77561e-07
1.97738e-07
2.36666e-07
2.94436e-07
5.59566e-07
3.72748e-06
2.44008e-05
2.14326e-05
3.07216e-06
5.60054e-07
3.32761e-07
2.6618e-07
2.18873e-07
1.93339e-07
2.09795e-07
3.16966e-07
6.16058e-07
1.04762e-06
6.79395e-07
4.46201e-07
4.86476e-07
6.7327e-07
8.69453e-07
9.61334e-07
1.06692e-06
3.98465e-06
2.29579e-05
2.03751e-05
3.47801e-06
1.11678e-06
1.0246e-06
9.23268e-07
7.14041e-07
5.13416e-07
4.69838e-07
7.27311e-07
1.11881e-06
1.60535e-06
1.5498e-06
1.91729e-06
3.04927e-06
4.63596e-06
5.86266e-06
6.03362e-06
5.21947e-06
7.59264e-06
1.80352e-05
1.68295e-05
7.33805e-06
5.41341e-06
6.04352e-06
5.91124e-06
4.72825e-06
3.12428e-06
1.97158e-06
1.61364e-06
1.69339e-06
2.36048e-06
3.44585e-06
4.60357e-06
5.88839e-06
7.42067e-06
9.06818e-06
1.08535e-05
1.3043e-05
1.63232e-05
2.0979e-05
2.14138e-05
1.67517e-05
1.3468e-05
1.11968e-05
9.35443e-06
7.66467e-06
6.09222e-06
4.77548e-06
3.58787e-06
2.47207e-06
9.63279e-09
1.16139e-08
1.54468e-08
2.01448e-08
3.06096e-08
4.76815e-08
7.18766e-08
1.02493e-07
1.18071e-07
1.29884e-07
1.09936e-07
9.67442e-08
8.45617e-08
6.00063e-08
3.88865e-08
2.32265e-08
1.66705e-08
1.47826e-08
1.3144e-08
8.34124e-09
2.46364e-08
2.47735e-08
2.81877e-08
3.41251e-08
4.56133e-08
6.19151e-08
9.81794e-08
1.84784e-07
1.18422e-06
1.62734e-06
1.52128e-06
9.99676e-07
1.50637e-07
8.46844e-08
5.5823e-08
4.26594e-08
3.3219e-08
2.80466e-08
2.47369e-08
2.27257e-08
4.10692e-08
3.85626e-08
4.38918e-08
5.15097e-08
6.31235e-08
7.78527e-08
1.18317e-07
3.63912e-07
4.40309e-06
3.54927e-06
3.4467e-06
3.78029e-06
2.96704e-07
1.03545e-07
7.29685e-08
6.17568e-08
5.04722e-08
4.29684e-08
3.78348e-08
3.86767e-08
5.4812e-08
5.3586e-08
6.34266e-08
7.37763e-08
8.46128e-08
9.7021e-08
1.55013e-07
7.15225e-07
8.9778e-06
6.05375e-06
6.14075e-06
7.83472e-06
5.82139e-07
1.36034e-07
9.40078e-08
8.54761e-08
7.5632e-08
6.45032e-08
5.37187e-08
5.14411e-08
5.91233e-08
8.09572e-08
9.93314e-08
1.09946e-07
1.17849e-07
1.28425e-07
2.10956e-07
1.28597e-06
1.51529e-05
9.23609e-06
9.79696e-06
1.33573e-05
1.02915e-06
1.87414e-07
1.28706e-07
1.22021e-07
1.15808e-07
1.04699e-07
8.6378e-08
5.58784e-08
7.84553e-08
9.40295e-08
1.13818e-07
1.33046e-07
1.52173e-07
1.74917e-07
2.91172e-07
1.97923e-06
2.11862e-05
1.28434e-05
1.41648e-05
1.86031e-05
1.5937e-06
2.63807e-07
1.73291e-07
1.52999e-07
1.34068e-07
1.14449e-07
9.67769e-08
8.83768e-08
4.45926e-07
2.34116e-07
1.59211e-07
1.51613e-07
1.87091e-07
2.56668e-07
4.42125e-07
2.41655e-06
2.44008e-05
1.62331e-05
1.85123e-05
2.13672e-05
2.10918e-06
4.41439e-07
2.62848e-07
1.89661e-07
1.5405e-07
1.6345e-07
2.44978e-07
4.76e-07
9.29887e-07
5.24452e-07
3.33764e-07
3.44032e-07
4.81779e-07
6.45001e-07
8.18499e-07
2.65975e-06
2.29579e-05
1.78287e-05
2.08315e-05
2.03567e-05
2.46464e-06
8.36316e-07
6.55187e-07
4.87002e-07
3.48934e-07
3.40864e-07
5.4337e-07
9.64129e-07
1.45399e-06
1.32307e-06
1.34666e-06
2.1844e-06
3.42532e-06
4.34024e-06
4.65598e-06
7.66316e-06
1.80352e-05
1.85429e-05
2.14199e-05
1.68392e-05
7.44925e-06
4.73705e-06
4.36958e-06
3.43828e-06
2.2182e-06
1.38393e-06
1.36501e-06
1.50081e-06
2.16505e-06
3.21751e-06
4.31998e-06
5.6145e-06
7.3017e-06
9.24054e-06
1.16255e-05
1.53537e-05
2.0979e-05
2.203e-05
2.46901e-05
2.14159e-05
1.56417e-05
1.18856e-05
9.43718e-06
7.4523e-06
5.7379e-06
4.42483e-06
3.30352e-06
2.23224e-06
6.23716e-09
1.12113e-08
1.35408e-08
1.60467e-08
2.67787e-08
4.30398e-08
6.36388e-08
8.75604e-08
9.88369e-08
1.09936e-07
1.2297e-07
1.10757e-07
9.55204e-08
6.51873e-08
4.18357e-08
2.74279e-08
2.136e-08
1.89764e-08
1.62822e-08
9.71013e-09
2.2028e-08
2.37486e-08
2.71744e-08
3.26931e-08
4.25186e-08
5.54306e-08
8.51617e-08
1.532e-07
9.98016e-07
1.52128e-06
1.60588e-06
1.16417e-06
1.83258e-07
9.97127e-08
6.37746e-08
4.73028e-08
3.64737e-08
3.09035e-08
2.72165e-08
2.5085e-08
3.81141e-08
3.74524e-08
4.30736e-08
5.07031e-08
6.14658e-08
7.26007e-08
1.04397e-07
3.01068e-07
3.79428e-06
3.4467e-06
3.52379e-06
4.41617e-06
3.66691e-07
1.22248e-07
8.05543e-08
6.4413e-08
5.22659e-08
4.47355e-08
3.98185e-08
4.26011e-08
5.04005e-08
5.30066e-08
6.51245e-08
7.61945e-08
8.57735e-08
9.45983e-08
1.38507e-07
5.92906e-07
7.87231e-06
6.14075e-06
6.02468e-06
9.09851e-06
7.31423e-07
1.61953e-07
1.00061e-07
8.58978e-08
7.42193e-08
6.39657e-08
5.48224e-08
5.69043e-08
5.17497e-08
8.62409e-08
1.0608e-07
1.17182e-07
1.23043e-07
1.30019e-07
1.91507e-07
1.05208e-06
1.3425e-05
9.79696e-06
9.19129e-06
1.54331e-05
1.34687e-06
2.2265e-07
1.31831e-07
1.19312e-07
1.0986e-07
9.90125e-08
8.19377e-08
6.19963e-08
9.05918e-08
9.79079e-08
1.15382e-07
1.34794e-07
1.54148e-07
1.75261e-07
2.69407e-07
1.62907e-06
1.86929e-05
1.41648e-05
1.27709e-05
2.17052e-05
2.09923e-06
3.09467e-07
1.80955e-07
1.5603e-07
1.35293e-07
1.15979e-07
9.77047e-08
8.51737e-08
4.81804e-07
2.50325e-07
1.67015e-07
1.56798e-07
1.92347e-07
2.65993e-07
4.45764e-07
2.12929e-06
2.14326e-05
1.85123e-05
1.61228e-05
2.51222e-05
2.55369e-06
4.60005e-07
2.62969e-07
1.91055e-07
1.54037e-07
1.61139e-07
2.37439e-07
4.5756e-07
9.67237e-07
5.51739e-07
3.46112e-07
3.54039e-07
4.9403e-07
6.63466e-07
8.42694e-07
2.47323e-06
2.03751e-05
2.08315e-05
1.77158e-05
2.3687e-05
2.7923e-06
8.3888e-07
6.57523e-07
4.92035e-07
3.49473e-07
3.35965e-07
5.26855e-07
9.39367e-07
1.50159e-06
1.36236e-06
1.38833e-06
2.22173e-06
3.44081e-06
4.36674e-06
4.72169e-06
7.42401e-06
1.68295e-05
2.14199e-05
1.85216e-05
1.84908e-05
7.8652e-06
4.73386e-06
4.39069e-06
3.47981e-06
2.22151e-06
1.37194e-06
1.34363e-06
1.46957e-06
2.23267e-06
3.30208e-06
4.42069e-06
5.73158e-06
7.44291e-06
9.42435e-06
1.18708e-05
1.56296e-05
2.14138e-05
2.46901e-05
2.21781e-05
2.13718e-05
1.56472e-05
1.18276e-05
9.38896e-06
7.41628e-06
5.70067e-06
4.38353e-06
3.25967e-06
2.19039e-06
6.29727e-09
1.07832e-08
1.32704e-08
1.45752e-08
2.3197e-08
3.50316e-08
4.78037e-08
6.33122e-08
7.6927e-08
9.67442e-08
1.10757e-07
9.23969e-08
7.48332e-08
5.31655e-08
3.76768e-08
2.84603e-08
2.45516e-08
2.23064e-08
1.91357e-08
1.08993e-08
2.1748e-08
2.45438e-08
2.72269e-08
3.0774e-08
3.69173e-08
4.47946e-08
5.76593e-08
8.52106e-08
1.53347e-07
9.99676e-07
1.16417e-06
1.95993e-07
1.10103e-07
7.15093e-08
5.39501e-08
4.31009e-08
3.59092e-08
3.16162e-08
2.8548e-08
2.57054e-08
3.7335e-08
4.11788e-08
4.65688e-08
5.17978e-08
5.83378e-08
6.34289e-08
7.29333e-08
1.07208e-07
3.66412e-07
3.78029e-06
4.41617e-06
4.65039e-07
1.39913e-07
8.42391e-08
6.88008e-08
5.96103e-08
5.17608e-08
4.51846e-08
3.93814e-08
4.14565e-08
4.99608e-08
7.41284e-08
8.65194e-08
8.96228e-08
9.04052e-08
8.98068e-08
9.5421e-08
1.49266e-07
7.90629e-07
7.83472e-06
9.09851e-06
1.01772e-06
1.95517e-07
1.00661e-07
8.70158e-08
8.45413e-08
7.99034e-08
7.1092e-08
5.77517e-08
5.44523e-08
7.09997e-08
1.03904e-07
1.24744e-07
1.34052e-07
1.34944e-07
1.30478e-07
1.3235e-07
2.15592e-07
1.51554e-06
1.33573e-05
1.54331e-05
2.08713e-06
2.82657e-07
1.30553e-07
1.19582e-07
1.23551e-07
1.25138e-07
1.17698e-07
9.46274e-08
5.89552e-08
1.56682e-07
1.34734e-07
1.37621e-07
1.47001e-07
1.55735e-07
1.61387e-07
1.73445e-07
3.01137e-07
2.35458e-06
1.86031e-05
2.17052e-05
3.23922e-06
3.81892e-07
1.70095e-07
1.49246e-07
1.4348e-07
1.35003e-07
1.24787e-07
1.19131e-07
1.3699e-07
6.26879e-07
3.26325e-07
2.16802e-07
2.0004e-07
2.25867e-07
2.7273e-07
3.38189e-07
5.64838e-07
3.07216e-06
2.13672e-05
2.51222e-05
3.98354e-06
5.92918e-07
3.01527e-07
2.41072e-07
2.00964e-07
1.80226e-07
1.96471e-07
2.92684e-07
5.61317e-07
1.12996e-06
7.40974e-07
4.82887e-07
5.30275e-07
7.35489e-07
9.43156e-07
1.03738e-06
1.12305e-06
3.47801e-06
2.03567e-05
2.3687e-05
4.23377e-06
1.09982e-06
9.77945e-07
8.89207e-07
6.91378e-07
4.99078e-07
4.53853e-07
6.91454e-07
1.06058e-06
1.70415e-06
1.62344e-06
1.99423e-06
3.14797e-06
4.75847e-06
5.92673e-06
6.04129e-06
5.41051e-06
7.33805e-06
1.68392e-05
1.84908e-05
7.87262e-06
5.3048e-06
6.07046e-06
5.95073e-06
4.72501e-06
3.11799e-06
1.95553e-06
1.56881e-06
1.62287e-06
2.48166e-06
3.59968e-06
4.78875e-06
6.10584e-06
7.67505e-06
9.35754e-06
1.11938e-05
1.34641e-05
1.67517e-05
2.14159e-05
2.13718e-05
1.66573e-05
1.32852e-05
1.10359e-05
9.21411e-06
7.53661e-06
5.97698e-06
4.66493e-06
3.48599e-06
2.38407e-06
6.56053e-09
1.15596e-08
1.46828e-08
1.5957e-08
2.13346e-08
2.91269e-08
3.76449e-08
4.83351e-08
6.2137e-08
8.45617e-08
9.55204e-08
7.48332e-08
5.72022e-08
4.26666e-08
3.29419e-08
2.76159e-08
2.56325e-08
2.43735e-08
2.13168e-08
1.12991e-08
2.14439e-08
2.62644e-08
2.90606e-08
3.15567e-08
3.46322e-08
3.93526e-08
4.62453e-08
5.87339e-08
8.43406e-08
1.50637e-07
1.83258e-07
1.10103e-07
7.15248e-08
5.30184e-08
4.38744e-08
3.82109e-08
3.51911e-08
3.35696e-08
3.10986e-08
2.50237e-08
3.63617e-08
4.80859e-08
5.52467e-08
6.0149e-08
6.05539e-08
6.13094e-08
6.34976e-08