/*--------------------------------*- C++ -*----------------------------------*\
| =========                 |                                                 |
| \\      /  F ield         | OpenFOAM: The Open Source CFD Toolbox           |
|  \\    /   O peration     | Version:  v1912                                 |
|   \\  /    A nd           | Website:  www.openfoam.com                      |
|    \\/     M anipulation  |                                                 |
\*---------------------------------------------------------------------------*/
FoamFile
{
    version     2.0;
    format      ascii;
    class       volScalarField;
    location    "200";
    object      k;
}
// * * * * * * * * * * * * * * * * * * * * * * * * * * * * * * * * * * * * * //

dimensions      [0 2 -2 0 0 0 0];


internalField   nonuniform List<scalar> 
4000
(
3.39225e-06
3.4288e-06
3.26952e-06
3.01304e-06
2.6347e-06
2.48564e-06
2.38562e-06
2.27459e-06
3.53538e-06
2.6731e-06
2.70655e-06
2.5632e-06
2.5996e-06
2.63306e-06
2.63589e-06
2.80429e-06
3.02721e-06
3.63077e-06
4.91609e-06
6.94233e-06
2.22234e-05
1.4984e-05
9.19652e-06
6.38654e-06
6.05885e-06
6.02145e-06
6.00335e-06
5.93732e-06
6.18683e-06
5.88031e-06
5.79386e-06
5.78981e-06
5.76579e-06
5.62951e-06
5.40821e-06
5.75063e-06
1.19174e-05
1.86382e-05
2.73689e-05
3.51656e-05
4.22452e-05
3.69424e-05
2.67266e-05
1.88367e-05
1.22844e-05
8.13205e-06
8.25792e-06
8.27748e-06
8.5456e-06
8.842e-06
8.38796e-06
8.24411e-06
8.11697e-06
7.8781e-06
1.17653e-05
1.82739e-05
2.60661e-05
3.66569e-05
4.47904e-05
4.92908e-05
4.97495e-05
4.62806e-05
4.03154e-05
3.0665e-05
2.26232e-05
1.70432e-05
1.22349e-05
9.62471e-06
1.02276e-05
1.06675e-05
1.00447e-05
9.89119e-06
1.06175e-05
1.62145e-05
2.15786e-05
2.94098e-05
3.93856e-05
4.80962e-05
5.36393e-05
5.61839e-05
5.44184e-05
5.28559e-05
4.82674e-05
4.10969e-05
3.13866e-05
2.37139e-05
1.80708e-05
1.43486e-05
1.06178e-05
1.13463e-05
1.04925e-05
1.21869e-05
1.61135e-05
2.17756e-05
2.92097e-05
4.03233e-05
4.97718e-05
5.66943e-05
6.03939e-05
6.08448e-05
5.78988e-05
5.86051e-05
5.66303e-05
5.20016e-05
4.58287e-05
3.75366e-05
3.03085e-05
2.40244e-05
1.81587e-05
1.34431e-05
1.50569e-05
2.1202e-05
2.8353e-05
3.66859e-05
4.85994e-05
5.5967e-05
6.16975e-05
6.55753e-05
6.64747e-05
6.45104e-05
6.10313e-05
6.43633e-05
6.5821e-05
6.54584e-05
6.4059e-05
6.16486e-05
5.82402e-05
5.37464e-05
4.85217e-05
4.25167e-05
4.44295e-05
5.27188e-05
5.95896e-05
6.5654e-05
7.05224e-05
7.38202e-05
7.53667e-05
7.51957e-05
7.26133e-05
6.78991e-05
6.43779e-05
7.07297e-05
7.58871e-05
7.93366e-05
8.15101e-05
8.21856e-05
8.12672e-05
7.86859e-05
7.46451e-05
6.89354e-05
7.07051e-05
7.82705e-05
8.42728e-05
8.87275e-05
9.11705e-05
9.14002e-05
8.94486e-05
8.55461e-05
7.93007e-05
7.15082e-05
6.83382e-05
7.83543e-05
8.71935e-05
9.41081e-05
9.94026e-05
0.000102705
0.000103806
0.000102648
9.91895e-05
9.27802e-05
9.47216e-05
0.000102949
0.00010868
0.00011207
0.000112579
0.000110102
0.000104865
9.73646e-05
8.73384e-05
7.57283e-05
7.38114e-05
8.79156e-05
0.000100398
0.000110342
0.000118394
0.000124435
0.000128389
0.000129936
0.000128284
0.000120932
0.000123324
0.000132343
0.000136001
0.000136281
0.000133708
0.000128493
0.000120673
0.000110379
9.69509e-05
8.14538e-05
3.4288e-06
4.39868e-06
5.40582e-06
5.59752e-06
4.84778e-06
4.64662e-06
4.53476e-06
4.1396e-06
3.79636e-06
3.93173e-06
3.73732e-06
3.82132e-06
4.03362e-06
4.16458e-06
4.38123e-06
5.07349e-06
4.60201e-06
4.45355e-06
4.73419e-06
4.7659e-06
1.4984e-05
1.38685e-05
1.47546e-05
1.38748e-05
1.15013e-05
1.15098e-05
1.11446e-05
1.07098e-05
1.04756e-05
1.07757e-05
1.02834e-05
1.00132e-05
1.00543e-05
1.03195e-05
1.05233e-05
1.41645e-05
1.75263e-05
1.9461e-05
2.36985e-05
2.70499e-05
3.69424e-05
3.90823e-05
3.01981e-05
2.53081e-05
2.32112e-05
2.14148e-05
1.59356e-05
1.44192e-05
1.37335e-05
1.43676e-05
1.36957e-05
1.36297e-05
1.45603e-05
2.00656e-05
2.24024e-05
2.49648e-05
3.06726e-05
4.12749e-05
5.19649e-05
4.42579e-05
4.62806e-05
5.55861e-05
5.02068e-05
3.854e-05
3.03378e-05
2.64514e-05
2.41933e-05
2.1261e-05
1.66815e-05
1.69302e-05
1.62558e-05
1.87769e-05
2.28273e-05
2.48509e-05
2.87814e-05
3.65673e-05
4.83866e-05
5.99089e-05
6.29526e-05
5.30416e-05
5.28559e-05
5.925e-05
5.71133e-05
4.96949e-05
3.83307e-05
3.0014e-05
2.45623e-05
2.15134e-05
2.0245e-05
2.08319e-05
2.06972e-05
2.05456e-05
2.29723e-05
2.79774e-05
3.59796e-05
4.76199e-05
5.93237e-05
6.55384e-05
6.65701e-05
5.9757e-05
5.86051e-05
6.36543e-05
6.32272e-05
5.8606e-05
5.01953e-05
3.90327e-05
3.09839e-05
2.50681e-05
2.07352e-05
1.92588e-05
1.93921e-05
2.2634e-05
2.86269e-05
3.70762e-05
4.9126e-05
6.21891e-05
6.99472e-05
7.33034e-05
7.217e-05
6.58271e-05
6.43633e-05
7.08759e-05
7.31187e-05
7.22161e-05
6.87679e-05
6.11038e-05
4.94706e-05
4.08757e-05
3.45472e-05
3.01227e-05
3.13066e-05
3.75945e-05
4.59119e-05
5.89983e-05
7.33679e-05
8.14416e-05
8.50062e-05
8.4722e-05
8.05692e-05
7.19957e-05
7.07297e-05
8.07696e-05
8.68164e-05
9.02992e-05
9.26528e-05
9.21788e-05
8.74168e-05
7.67659e-05
6.47452e-05
5.29975e-05
5.50564e-05
6.95241e-05
8.49548e-05
9.81294e-05
0.00010519
0.000107057
0.000104834
0.000100199
9.18792e-05
7.87842e-05
7.83543e-05
9.46051e-05
0.000107813
0.000118117
0.000126454
0.000130814
0.000129318
0.000122281
0.000111362
9.76364e-05
9.96357e-05
0.000115703
0.000131527
0.000143298
0.000147389
0.00014399
0.000135014
0.000122822
0.000106705
8.69388e-05
8.79156e-05
0.000105432
0.000121693
0.000135384
0.000147037
0.000156272
0.00016278
0.000166033
0.00016508
0.000157535
0.000160183
0.000169629
0.000173097
0.000172171
0.000167385
0.000159141
0.000147688
0.000133461
0.000115976
9.67548e-05
3.26952e-06
5.40582e-06
6.36262e-06
6.06417e-06
5.66237e-06
5.55292e-06
5.26513e-06
4.9594e-06
4.62305e-06
4.44765e-06
4.22321e-06
4.26929e-06
4.55687e-06
4.78164e-06
4.94342e-06
5.44586e-06
6.06654e-06
4.8812e-06
4.40009e-06
3.41103e-06
9.19652e-06
1.47546e-05
1.58955e-05
1.3579e-05
1.26357e-05
1.30127e-05
1.23505e-05
1.2124e-05
1.21141e-05
1.24393e-05
1.18588e-05
1.12304e-05
1.11508e-05
1.149e-05
1.13677e-05
1.37501e-05
1.72644e-05
1.86507e-05
1.95806e-05
1.83704e-05
2.67266e-05
3.01981e-05
2.77836e-05
2.62714e-05
2.57808e-05
2.28728e-05
1.80256e-05
1.66021e-05
1.59309e-05
1.64409e-05
1.56898e-05
1.53503e-05
1.64136e-05
2.0738e-05
2.37687e-05
2.53624e-05
2.86825e-05
3.45548e-05
4.06009e-05
3.5597e-05
4.03154e-05
5.02068e-05
4.57377e-05
3.78532e-05
3.23694e-05
2.97965e-05
2.79844e-05
2.43124e-05
2.02354e-05
1.98287e-05
1.93818e-05
2.15442e-05
2.54573e-05
2.78187e-05
3.12231e-05
3.72939e-05
4.62811e-05
5.64138e-05
5.92449e-05
4.70014e-05
4.82674e-05
5.71133e-05
5.63763e-05
4.93669e-05
3.99826e-05
3.29315e-05
2.83276e-05
2.61486e-05
2.566e-05
2.51959e-05
2.51633e-05
2.53589e-05
2.69543e-05
3.13059e-05
3.83189e-05
4.80594e-05
5.89591e-05
6.45615e-05
6.46333e-05
5.54114e-05
5.66303e-05
6.32272e-05
6.28835e-05
5.80292e-05
4.89367e-05
3.9323e-05
3.20896e-05
2.71303e-05
2.43981e-05
2.49744e-05
2.43166e-05
2.55514e-05
3.03517e-05
3.78743e-05
4.82315e-05
6.05466e-05
6.92226e-05
7.31697e-05
7.22467e-05
6.42515e-05
6.5821e-05
7.31187e-05
7.57772e-05
7.34039e-05
6.5877e-05
5.44834e-05
4.38303e-05
3.56269e-05
2.96521e-05
2.63843e-05
2.69829e-05
3.20284e-05
4.03091e-05
5.22012e-05
6.63871e-05
8.04019e-05
8.78065e-05
8.85009e-05
8.35861e-05
7.40078e-05
7.58871e-05
8.68164e-05
9.76453e-05
0.000102921
0.000101306
9.0599e-05
7.83212e-05
6.58747e-05
5.36133e-05
4.28755e-05
4.41203e-05
5.75878e-05
7.37951e-05
9.08451e-05
0.00010942
0.000120881
0.000121776
0.000113535
9.89588e-05
8.4574e-05
8.71935e-05
0.000107813
0.000136673
0.000163484
0.000184217
0.000195125
0.000192194
0.000176369
0.000152018
0.000117919
0.000121129
0.00015765
0.000190542
0.000212851
0.000218467
0.000208843
0.000186293
0.000155519
0.00012184
9.65948e-05
0.000100398
0.000121693
0.00014173
0.000159189
0.000174383
0.000186714
0.000195689
0.00020056
0.000200288
0.000191814
0.000194695
0.000205277
0.000208326
0.000206053
0.000198987
0.000187767
0.000172762
0.000154652
0.000133224
0.000109968
3.01304e-06
5.59752e-06
6.06417e-06
5.95287e-06
5.89842e-06
5.86119e-06
5.58687e-06
5.4321e-06
5.31157e-06
5.07118e-06
4.62258e-06
4.5513e-06
4.87589e-06
5.19192e-06
5.34121e-06
5.60942e-06
5.67397e-06
5.57653e-06
4.45667e-06
2.76631e-06
6.38654e-06
1.38748e-05
1.3579e-05
1.29055e-05
1.35966e-05
1.34579e-05
1.28542e-05
1.30143e-05
1.36717e-05
1.43585e-05
1.36419e-05
1.24217e-05
1.18831e-05
1.19112e-05
1.2069e-05
1.23357e-05
1.47619e-05
1.71319e-05
1.7415e-05
1.06058e-05
1.88367e-05
2.53081e-05
2.62714e-05
2.64716e-05
2.5082e-05
2.14536e-05
1.87856e-05
1.7814e-05
1.79025e-05
1.86288e-05
1.78122e-05
1.68219e-05
1.74576e-05
1.93256e-05
2.23727e-05
2.45101e-05
2.61544e-05
2.86733e-05
3.03645e-05
2.52036e-05
3.0665e-05
3.854e-05
3.78532e-05
3.46287e-05
3.20645e-05
3.07051e-05
2.82962e-05
2.48045e-05
2.25682e-05
2.24682e-05
2.20436e-05
2.27567e-05
2.55344e-05
2.84642e-05
3.12357e-05
3.51729e-05
4.04191e-05
4.58706e-05
4.71788e-05
3.79185e-05
4.10969e-05
4.96949e-05
4.93669e-05
4.4229e-05
3.81346e-05
3.32609e-05
3.00301e-05
2.8618e-05
2.82351e-05
2.79272e-05
2.79715e-05
2.80811e-05
2.93256e-05
3.2525e-05
3.78298e-05
4.49257e-05
5.27825e-05
5.80179e-05
5.77047e-05
4.81085e-05
5.20016e-05
5.8606e-05
5.80292e-05
5.35535e-05
4.59374e-05
3.86536e-05
3.28783e-05
2.90355e-05
2.77091e-05
2.98155e-05
2.90833e-05
2.8769e-05
3.23784e-05
3.85469e-05
4.66678e-05
5.58523e-05
6.39318e-05
6.80212e-05
6.79686e-05
5.98914e-05
6.54584e-05
7.22161e-05
7.34039e-05
6.98566e-05
6.18139e-05
5.28431e-05
4.4166e-05
3.6831e-05
3.12596e-05
2.87937e-05
2.92844e-05
3.41061e-05
4.26299e-05
5.34206e-05
6.51717e-05
7.61526e-05
8.43261e-05
8.63527e-05
8.30052e-05
7.38099e-05
7.93366e-05
9.02992e-05
0.000102921
0.000108755
0.000105249
9.86928e-05
8.85496e-05
7.58122e-05
6.1331e-05
4.74221e-05
4.86571e-05
6.63862e-05
8.6156e-05
0.000104656
0.00011998
0.0001282
0.000130179
0.00012019
0.000102898
8.81841e-05
9.41081e-05
0.000118117
0.000163484
0.000213003
0.000251886
0.000267982
0.000268249
0.000252762
0.000220492
0.000170004
0.000172348
0.000226586
0.000266184
0.00028979
0.000296486
0.000281862
0.000240059
0.000185036
0.000133325
0.000103834
0.000110342
0.000135384
0.000159189
0.00018063
0.000199753
0.000215658
0.000227854
0.000235104
0.000236103
0.000228595
0.000231622
0.000241516
0.000243288
0.000238686
0.000228429
0.000213624
0.000194632
0.000172469
0.000147201
0.000120072
2.6347e-06
4.84778e-06
5.66237e-06
5.89842e-06
5.98874e-06
5.86141e-06
5.84252e-06
6.08374e-06
6.42777e-06
6.49406e-06
5.83869e-06
5.47822e-06
5.45661e-06
5.54173e-06
5.5814e-06
5.51638e-06
5.41191e-06
5.15852e-06
4.77552e-06
2.70542e-06
6.05885e-06
1.15013e-05
1.26357e-05
1.35966e-05
1.38121e-05
1.32812e-05
1.34255e-05
1.43337e-05
1.59768e-05
1.7403e-05
1.62084e-05
1.4067e-05
1.28209e-05
1.23535e-05
1.23414e-05
1.22692e-05
1.23004e-05
1.33947e-05
1.34906e-05
5.54943e-06
1.22844e-05
2.32112e-05
2.57808e-05
2.5082e-05
2.24814e-05
1.99994e-05
1.8879e-05
1.88183e-05
2.0041e-05
2.15509e-05
2.04746e-05
1.85483e-05
1.79215e-05
1.8591e-05
2.03112e-05
2.2752e-05
2.47202e-05
2.56846e-05
2.50437e-05
1.76503e-05
2.26232e-05
3.03378e-05
3.23694e-05
3.20645e-05
3.13127e-05
2.954e-05
2.66977e-05
2.43961e-05
2.39863e-05
2.50572e-05
2.4393e-05
2.35392e-05
2.47266e-05
2.72504e-05
3.00661e-05
3.2604e-05
3.50995e-05
3.69752e-05
3.57956e-05
2.83674e-05
3.13866e-05
3.83307e-05
3.99826e-05
3.81346e-05
3.51087e-05
3.23624e-05
3.04643e-05
2.9469e-05
2.91308e-05
3.00544e-05
2.98661e-05
2.94089e-05
3.02998e-05
3.25315e-05
3.5911e-05
4.01978e-05
4.44729e-05
4.68556e-05
4.55236e-05
3.83097e-05
4.58287e-05
5.01953e-05
4.89367e-05
4.59374e-05
4.14687e-05
3.67384e-05
3.27562e-05
3.02957e-05
3.03417e-05
3.41276e-05
3.35127e-05
3.16407e-05
3.37567e-05
3.81189e-05
4.3726e-05
4.96621e-05
5.47545e-05
5.83305e-05
5.96158e-05
5.39014e-05
6.4059e-05
6.87679e-05
6.5877e-05
6.18139e-05
5.74809e-05
5.20622e-05
4.6082e-05
4.04458e-05
3.6171e-05
3.57976e-05
3.65159e-05
4.00641e-05
4.77263e-05
5.63078e-05
6.42961e-05
7.04722e-05
7.44234e-05
7.76094e-05
7.88871e-05
7.21205e-05
8.15101e-05
9.26528e-05
0.000101306
0.000105249
0.000111019
0.000111749
0.000106152
9.47864e-05
7.85087e-05
6.14741e-05
6.31041e-05
8.5231e-05
0.0001077
0.000124809
0.000134073
0.000133697
0.000125715
0.000117685
0.000104793
8.99965e-05
9.94026e-05
0.000126454
0.000184217
0.000251886
0.000304004
0.000335053
0.000347949
0.000337375
0.000296512
0.000233292
0.000234129
0.000302494
0.000349462
0.000367814
0.000361709
0.000334252
0.000280203
0.000206524
0.000141885
0.000108909
0.000118394
0.000147037
0.000174383
0.000199753
0.000223327
0.000244139
0.000260329
0.00027123
0.000275639
0.000272576
0.000275843
0.000281439
0.000279498
0.000271022
0.000256737
0.000236841
0.000213297
0.000187201
0.000158457
0.000127763
2.48564e-06
4.64662e-06
5.55292e-06
5.86119e-06
5.86141e-06
5.98903e-06
6.47338e-06
7.31277e-06
8.30142e-06
8.96753e-06
8.21411e-06
7.21946e-06
6.5217e-06
6.04928e-06
5.71052e-06
5.4022e-06
5.00036e-06
4.5646e-06
4.0768e-06
2.61769e-06
6.02145e-06
1.15098e-05
1.30127e-05
1.34579e-05
1.32812e-05
1.35756e-05
1.44646e-05
1.61182e-05
1.87275e-05
2.09497e-05
1.91257e-05
1.60623e-05
1.41565e-05
1.31503e-05
1.2639e-05
1.23631e-05
1.21318e-05
1.15322e-05
1.04454e-05
5.28658e-06
8.13205e-06
2.14148e-05
2.28728e-05
2.14536e-05
1.99994e-05
1.90808e-05
1.88741e-05
1.96603e-05
2.18815e-05
2.42815e-05
2.26934e-05
1.98716e-05
1.84637e-05
1.83635e-05
1.90595e-05
2.04546e-05
2.26885e-05
2.42358e-05
2.30805e-05
1.04828e-05
1.70432e-05
2.64514e-05
2.97965e-05
3.07051e-05
2.954e-05
2.71407e-05
2.48635e-05
2.37483e-05
2.45976e-05
2.70452e-05
2.60398e-05
2.39475e-05
2.39104e-05
2.55423e-05
2.78072e-05
3.00808e-05
3.1252e-05
3.12064e-05
2.86507e-05
2.07834e-05
2.37139e-05
3.0014e-05
3.29315e-05
3.32609e-05
3.23624e-05
3.11485e-05
2.99334e-05
2.91314e-05
2.92493e-05
3.16888e-05
3.13499e-05
2.97462e-05
3.00534e-05
3.15624e-05
3.36632e-05
3.57209e-05
3.73347e-05
3.74276e-05
3.46822e-05
2.78391e-05
3.75366e-05
3.90327e-05
3.9323e-05
3.86536e-05
3.67384e-05
3.42604e-05
3.2084e-05
3.10044e-05
3.22918e-05
3.78833e-05
3.75065e-05
3.38756e-05
3.44483e-05
3.69317e-05
4.01125e-05
4.32276e-05
4.54224e-05
4.62112e-05
4.63514e-05
4.60049e-05
6.16486e-05
6.11038e-05
5.44834e-05
5.28431e-05
5.20622e-05
5.02501e-05
4.73879e-05
4.43238e-05
4.25527e-05
4.59463e-05
4.73799e-05
4.76494e-05
5.26659e-05
5.78344e-05
6.16061e-05
6.31946e-05
6.2916e-05
6.35126e-05
7.05216e-05
6.88602e-05
8.21856e-05
9.21788e-05
9.0599e-05
9.86928e-05
0.000111749
0.000119814
0.000119947
0.000111305
9.43635e-05
7.62108e-05
7.85654e-05
0.000102164
0.00012498
0.000138338
0.000140571
0.000132023
0.00011608
0.000104816
0.00010282
8.98081e-05
0.000102705
0.000130814
0.000195125
0.000267982
0.000335053
0.00038421
0.000407329
0.000397378
0.000345541
0.000269788
0.000270725
0.000348396
0.000405491
0.000422224
0.000405586
0.000359841
0.000292706
0.000215247
0.00014497
0.000111342
0.000124435
0.000156272
0.000186714
0.000215658
0.000244139
0.000269215
0.000289901
0.000305494
0.00031523
0.000319113
0.000322935
0.000321334
0.000313492
0.000299734
0.000280634
0.000256447
0.000227835
0.000198229
0.000166585
0.000132929
2.38562e-06
4.53476e-06
5.26513e-06
5.58687e-06
5.84252e-06
6.47338e-06
7.5766e-06
9.04172e-06
1.06764e-05
1.21477e-05
1.10652e-05
9.15136e-06
7.8055e-06
6.71895e-06
5.83314e-06
5.15758e-06
4.73401e-06
4.33731e-06
3.94195e-06
2.67979e-06
6.00335e-06
1.11446e-05
1.23505e-05
1.28542e-05
1.34255e-05
1.44646e-05
1.59331e-05
1.8331e-05
2.20947e-05
2.6417e-05
2.39699e-05
1.88656e-05
1.59998e-05
1.42759e-05
1.31788e-05
1.23703e-05
1.194e-05
1.15987e-05
1.04505e-05
5.63945e-06
8.25792e-06
1.59356e-05
1.80256e-05
1.87856e-05
1.8879e-05
1.88741e-05
1.92774e-05
2.07259e-05
2.39824e-05
2.81969e-05
2.6141e-05
2.16309e-05
1.92977e-05
1.8518e-05
1.84651e-05
1.87991e-05
1.95944e-05
2.08383e-05
1.97229e-05
7.95938e-06
1.22349e-05
2.41933e-05
2.79844e-05
2.82962e-05
2.66977e-05
2.48635e-05
2.35772e-05
2.35275e-05
2.59607e-05
3.13857e-05
2.96752e-05
2.4906e-05
2.34179e-05
2.40614e-05
2.55422e-05
2.72812e-05
2.85772e-05
2.80976e-05
2.51357e-05
1.55147e-05
1.80708e-05
2.45623e-05
2.83276e-05
3.00301e-05
3.04643e-05
2.99334e-05
2.90234e-05
2.84871e-05
3.01834e-05
3.73752e-05
3.59535e-05
3.03876e-05
2.9405e-05
3.02539e-05
3.14607e-05
3.22959e-05
3.21451e-05
3.07839e-05
2.72917e-05
2.08661e-05
3.03085e-05
3.09839e-05
3.20896e-05
3.28783e-05
3.27562e-05
3.2084e-05
3.14175e-05
3.16045e-05
3.48688e-05
4.61731e-05
4.50695e-05
3.6279e-05
3.47202e-05
3.54949e-05
3.66751e-05
3.75169e-05
3.75455e-05
3.65158e-05
3.54033e-05
3.49859e-05
5.82402e-05
4.94706e-05
4.38303e-05
4.4166e-05
4.6082e-05
4.73879e-05
4.76865e-05
4.7831e-05
5.00224e-05
6.17269e-05
6.36988e-05
5.62637e-05
5.65535e-05
5.7497e-05
5.71078e-05
5.47724e-05
5.1267e-05
4.9708e-05
5.60036e-05
6.42997e-05
8.12672e-05
8.74168e-05
7.83212e-05
8.85496e-05
0.000106152
0.000119947
0.000124998
0.000118573
0.00010142
8.86036e-05
9.18712e-05
0.000109682
0.000131195
0.000140771
0.000136812
0.000121706
0.00010074
8.73054e-05
9.58735e-05
8.75688e-05
0.000103806
0.000129318
0.000192194
0.000268249
0.000347949
0.000407329
0.000435359
0.000418204
0.000342403
0.000261251
0.000265358
0.0003427
0.00042027
0.000443287
0.000420917
0.000364945
0.000285362
0.000208443
0.0001407
0.000110948
0.000128389
0.00016278
0.000195689
0.000227854
0.000260329
0.000289901
0.000315702
0.00033738
0.000355445
0.000371957
0.000376551
0.000362131
0.00034514
0.000324415
0.000299545
0.000270558
0.000237976
0.000205236
0.000171384
0.000135562
2.27459e-06
4.1396e-06
4.9594e-06
5.4321e-06
6.08374e-06
7.31277e-06
9.04172e-06
1.11835e-05
1.34743e-05
1.56836e-05
1.40095e-05
1.12985e-05
9.33785e-06
7.58061e-06
6.03555e-06
4.77909e-06
4.27397e-06
4.13546e-06
3.83789e-06
2.81125e-06
5.93732e-06
1.07098e-05
1.2124e-05
1.30143e-05
1.43337e-05
1.61182e-05
1.8331e-05
2.18641e-05
2.70134e-05
3.16957e-05
2.81864e-05
2.29626e-05
1.88325e-05
1.60342e-05
1.42212e-05
1.28092e-05
1.18066e-05
1.11505e-05
9.93848e-06
5.74615e-06
8.27748e-06
1.44192e-05
1.66021e-05
1.7814e-05
1.88183e-05
1.96603e-05
2.07259e-05
2.32902e-05
2.83111e-05
4.03276e-05
3.57384e-05
2.47773e-05
2.10669e-05
1.9352e-05
1.86103e-05
1.81297e-05
1.76223e-05
1.65326e-05
1.45862e-05
8.02755e-06
9.62471e-06
2.1261e-05
2.43124e-05
2.48045e-05
2.43961e-05
2.37483e-05
2.35275e-05
2.51237e-05
3.18591e-05
5.85504e-05
5.15843e-05
2.86983e-05
2.40934e-05
2.33838e-05
2.38798e-05
2.47094e-05
2.55872e-05
2.56618e-05
2.33276e-05
9.79072e-06
1.43486e-05
2.15134e-05
2.61486e-05
2.8618e-05
2.9469e-05
2.91314e-05
2.84871e-05
2.93011e-05
3.85702e-05
8.71464e-05
7.56624e-05
3.56161e-05
2.95505e-05
2.92941e-05
2.98727e-05
3.00635e-05
2.90781e-05
2.67829e-05
2.28673e-05
1.57346e-05
2.40244e-05
2.50681e-05
2.71303e-05
2.90355e-05
3.02957e-05
3.10044e-05
3.16045e-05
3.37214e-05
4.63556e-05
0.000120055
0.000105361
4.46137e-05
3.57807e-05
3.45345e-05
3.41015e-05
3.32497e-05
3.17453e-05
2.963e-05
2.78308e-05
2.75749e-05
5.37464e-05
4.08757e-05
3.56269e-05
3.6831e-05
4.04458e-05
4.43238e-05
4.7831e-05
5.25584e-05
6.77571e-05
0.000144311
0.000135855
7.22753e-05
6.07264e-05
5.60549e-05
5.16496e-05
4.63087e-05
4.10805e-05
3.88293e-05
4.4403e-05
5.86221e-05
7.86859e-05
7.67659e-05
6.58747e-05
7.58122e-05
9.47864e-05
0.000111305
0.000118573
0.000112853
0.000105772
0.000165208
0.000161321
0.000113099
0.000123659
0.000130171
0.000122717
0.000104499
8.28402e-05
7.09888e-05
8.273e-05
8.34447e-05
0.000102648
0.000122281
0.000176369
0.000252762
0.000337375
0.000397378
0.000418204
0.000373912
0.000291284
0.000340152
0.000335854
0.000299704
0.000376693
0.000419769
0.000403763
0.000346453
0.000262294
0.000186563
0.000129507
0.000107898
0.000129936
0.000166033
0.00020056
0.000235104
0.00027123
0.000305494
0.00033738
0.000367914
0.000401743
0.000447825
0.000452255
0.000409473
0.000375908
0.000345122
0.000313306
0.000279078
0.000242678
0.000207691
0.00017251
0.000135467
3.53538e-06
3.79636e-06
4.62305e-06
5.31157e-06
6.42777e-06
8.30142e-06
1.06764e-05
1.34743e-05
1.5645e-05
1.73926e-05
1.5302e-05
1.29851e-05
1.10737e-05
8.7088e-06
6.51737e-06
4.6997e-06
4.23166e-06
4.30561e-06
4.1127e-06
3.04291e-06
6.18683e-06
1.04756e-05
1.21141e-05
1.36717e-05
1.59768e-05
1.87275e-05
2.20947e-05
2.70134e-05
3.21923e-05
8.70155e-05
7.67643e-05
2.71095e-05
2.28504e-05
1.88829e-05
1.61631e-05
1.4075e-05
1.23391e-05
1.13268e-05
1.00909e-05
5.89873e-06
8.5456e-06
1.37335e-05
1.59309e-05
1.79025e-05
2.0041e-05
2.18815e-05
2.39824e-05
2.83111e-05
4.54081e-05
0.000194227
0.000172454
3.84964e-05
2.46782e-05
2.16504e-05
2.00092e-05
1.87199e-05
1.68987e-05
1.54912e-05
1.37437e-05
8.36105e-06
1.02276e-05
1.66815e-05
2.02354e-05
2.25682e-05
2.39863e-05
2.45976e-05
2.59607e-05
3.18591e-05
7.12781e-05
0.000327872
0.000294745
6.03332e-05
2.85092e-05
2.47534e-05
2.38535e-05
2.34838e-05
2.27284e-05
2.15306e-05
1.84644e-05
1.01524e-05
1.06178e-05
2.0245e-05
2.566e-05
2.82351e-05
2.91308e-05
2.92493e-05
3.01834e-05
3.85702e-05
0.000116814
0.000492231
0.000446512
9.47266e-05
3.53169e-05
3.01031e-05
2.9475e-05
2.91393e-05
2.78602e-05
2.53277e-05
2.08082e-05
1.16127e-05
1.81587e-05
2.07352e-05
2.43981e-05
2.77091e-05
3.03417e-05
3.22918e-05
3.48688e-05
4.63556e-05
0.000159612
0.000644887
0.000585467
0.000132476
4.42053e-05
3.58798e-05
3.3491e-05
3.12701e-05
2.84395e-05
2.52295e-05
2.23126e-05
2.11945e-05
4.85217e-05
3.45472e-05
2.96521e-05
3.12596e-05
3.6171e-05
4.25527e-05
5.00224e-05
6.77571e-05
0.000192795
0.000730111
0.000665145
0.000172037
7.17667e-05
5.55073e-05
4.66978e-05
3.90435e-05
3.31737e-05
3.11853e-05
3.669e-05
5.2214e-05
7.46451e-05
6.47452e-05
5.36133e-05
6.1331e-05
7.85087e-05
9.43635e-05
0.00010142
0.000105772
0.000217787
0.000722099
0.000666505
0.000203759
0.000112471
0.000108321
0.00010006
8.2842e-05
6.4324e-05
5.59949e-05
6.81899e-05
7.7889e-05
9.91895e-05
0.000111362
0.000152018
0.000220492
0.000296512
0.000345541
0.000342403
0.000291284
0.000349751
0.000624902
0.000596575
0.000343767
0.000299718
0.000342374
0.000347105
0.000300371
0.000224555
0.000155492
0.000114765
0.000102636
0.000128284
0.00016508
0.000200288
0.000236103
0.000275639
0.00031523
0.000355445
0.000401743
0.000466551
0.000551754
0.000557902
0.000473572
0.000409573
0.000362242
0.000321333
0.000281299
0.00024131
0.00020507
0.000169408
0.000132118
2.6731e-06
3.93173e-06
4.44765e-06
5.07118e-06
6.49406e-06
8.96753e-06
1.21477e-05
1.56836e-05
1.73926e-05
1.86111e-05
1.64643e-05
1.50209e-05
1.35685e-05
1.04851e-05
7.61801e-06
5.67749e-06
5.14093e-06
4.99321e-06
4.65608e-06
3.30455e-06
5.88031e-06
1.07757e-05
1.24393e-05
1.43585e-05
1.7403e-05
2.09497e-05
2.6417e-05
3.16957e-05
8.70155e-05
8.46019e-05
7.89702e-05
7.66745e-05
2.79855e-05
2.40346e-05
1.93563e-05
1.6407e-05
1.38877e-05
1.221e-05
1.06371e-05
6.05394e-06
8.842e-06
1.43676e-05
1.64409e-05
1.86288e-05
2.15509e-05
2.42815e-05
2.81969e-05
4.03276e-05
0.000194227
0.000151662
0.000145876
0.000171948
3.54612e-05
2.6136e-05
2.28652e-05
2.06558e-05
1.78901e-05
1.58007e-05
1.38988e-05
8.55986e-06
1.06675e-05
1.69302e-05
1.98287e-05
2.24682e-05
2.50572e-05
2.70452e-05
3.13857e-05
5.85504e-05
0.000327872
0.000229402
0.000227939
0.000293528
5.09214e-05
2.94266e-05
2.59563e-05
2.43665e-05
2.19944e-05
1.93656e-05
1.65131e-05
1.02867e-05
1.13463e-05
2.08319e-05
2.51959e-05
2.79272e-05
3.00544e-05
3.16888e-05
3.73752e-05
8.71464e-05
0.000492231
0.000321355
0.000330032
0.000444401
7.43827e-05
3.55314e-05
3.11261e-05
2.96904e-05
2.77711e-05
2.50353e-05
2.10152e-05
1.11227e-05
1.34431e-05
1.92588e-05
2.49744e-05
2.98155e-05
3.41276e-05
3.78833e-05
4.61731e-05
0.000120055
0.000644887
0.000422123
0.000446411
0.000582751
0.000103542
4.45128e-05
3.72213e-05
3.33869e-05
2.90986e-05
2.43741e-05
1.9359e-05
1.49881e-05
4.25167e-05
3.01227e-05
2.63843e-05
2.87937e-05
3.57976e-05
4.59463e-05
6.17269e-05
0.000144311
0.000730111
0.000517487
0.000561258
0.000663165
0.000134852
6.31878e-05
4.69238e-05
3.61263e-05
2.89228e-05
2.6566e-05
3.07536e-05
4.41892e-05
6.89354e-05
5.29975e-05
4.28755e-05
4.74221e-05
6.14741e-05
7.62108e-05
8.86036e-05
0.000165208
0.000722099
0.000572975
0.000632704
0.000665867
0.00016082
9.10911e-05
7.75383e-05
6.21662e-05
4.79296e-05
4.34567e-05
5.4218e-05
7.06436e-05
9.27802e-05
9.76364e-05
0.000117919
0.000170004
0.000233292
0.000269788
0.000261251
0.000340152
0.000624902
0.000607007
0.00066555
0.000596854
0.000336675
0.000265599
0.000270363
0.000233651
0.000171822
0.000120502
9.96452e-05
9.47766e-05
0.000120932
0.000157535
0.000191814
0.000228595
0.000272576
0.000319113
0.000371957
0.000447825
0.000551754
0.000570793
0.000612984
0.000557894
0.000452501
0.0003769
0.000323286
0.000276179
0.00023194
0.000194993
0.000160379
0.000123414
2.70655e-06
3.73732e-06
4.22321e-06
4.62258e-06
5.83869e-06
8.21411e-06
1.10652e-05
1.40095e-05
1.5302e-05
1.64643e-05
1.78497e-05
1.6624e-05
1.49716e-05
1.14924e-05
8.60188e-06
6.82889e-06
6.11777e-06
5.78682e-06
5.29297e-06
3.541e-06
5.79386e-06
1.02834e-05
1.18588e-05
1.36419e-05
1.62084e-05
1.91257e-05
2.39699e-05
2.81864e-05
7.67643e-05
7.89702e-05
8.28989e-05
8.57335e-05
3.19114e-05
2.69055e-05
2.15454e-05
1.80172e-05
1.51366e-05
1.33037e-05
1.15307e-05
6.40681e-06
8.38796e-06
1.36957e-05
1.56898e-05
1.78122e-05
2.04746e-05
2.26934e-05
2.6141e-05
3.57384e-05
0.000172454
0.000145876
0.000149847
0.00019431
4.08443e-05
2.88924e-05
2.49294e-05
2.19805e-05
1.89499e-05
1.6771e-05
1.47563e-05
9.09407e-06
1.00447e-05
1.62558e-05
1.93818e-05
2.20436e-05
2.4393e-05
2.60398e-05
2.96752e-05
5.15843e-05
0.000294745
0.000227939
0.000227679
0.000331008
5.97073e-05
3.22316e-05
2.76452e-05
2.54205e-05
2.26793e-05
2.00476e-05
1.72616e-05
1.09721e-05
1.04925e-05
2.06972e-05
2.51633e-05
2.79715e-05
2.98661e-05
3.13499e-05
3.59535e-05
7.56624e-05
0.000446512
0.000330032
0.000319581
0.000499612
9.05587e-05
3.85375e-05
3.22861e-05
3.04318e-05
2.80537e-05
2.5267e-05
2.10527e-05
1.17937e-05
1.50569e-05
1.93921e-05
2.43166e-05
2.90833e-05
3.35127e-05
3.75065e-05
4.50695e-05
0.000105361
0.000585467
0.000446411
0.000420193
0.000658326
0.000126065
4.78546e-05
3.88035e-05
3.48429e-05
3.03154e-05
2.53967e-05
1.9802e-05
1.44403e-05
4.44295e-05
3.13066e-05
2.69829e-05
2.92844e-05
3.65159e-05
4.73799e-05
6.36988e-05
0.000135855
0.000665145
0.000561258
0.000515248
0.000748511
0.000150554
6.31619e-05
4.67228e-05
3.63454e-05
2.91062e-05
2.65429e-05
3.02425e-05
4.30796e-05
7.07051e-05
5.50564e-05
4.41203e-05
4.86571e-05
6.31041e-05
7.85654e-05
9.18712e-05
0.000161321
0.000666505
0.000632704
0.00057114
0.00074129
0.000171155
9.00616e-05
7.72824e-05
6.24191e-05
4.79568e-05
4.30453e-05
5.30426e-05
6.94747e-05
9.47216e-05
9.96357e-05
0.000121129
0.000172348
0.000234129
0.000270725
0.000265358
0.000335854
0.000596575
0.00066555
0.000607566
0.000637815
0.000347178
0.000263854
0.000271768
0.000236093
0.000172212
0.000119509
9.86586e-05
9.35355e-05
0.000123324
0.000160183
0.000194695
0.000231622
0.000275843
0.000322935
0.000376551
0.000452255
0.000557902
0.000612984
0.00057213
0.000558166
0.000453327
0.000376162
0.000322497
0.000275474
0.000231047
0.00019385
0.000159055
0.000121984
2.5632e-06
3.82132e-06
4.26929e-06
4.5513e-06
5.47822e-06
7.21946e-06
9.15136e-06
1.12985e-05
1.29851e-05
1.50209e-05
1.6624e-05
1.4877e-05
1.28681e-05
1.0204e-05
8.22656e-06
7.05938e-06
6.56763e-06
6.28242e-06
5.7618e-06
3.64257e-06
5.78981e-06
1.00132e-05
1.12304e-05
1.24217e-05
1.4067e-05
1.60623e-05
1.88656e-05
2.29626e-05
2.71095e-05
7.66745e-05
8.57335e-05
3.25155e-05
2.76565e-05
2.27747e-05
1.94159e-05
1.67834e-05
1.47115e-05
1.32323e-05
1.16875e-05
6.44803e-06
8.24411e-06
1.36297e-05
1.53503e-05
1.68219e-05
1.85483e-05
1.98716e-05
2.16309e-05
2.47773e-05
3.84964e-05
0.000171948
0.00019431
4.62003e-05
2.93854e-05
2.48565e-05
2.25863e-05
2.0469e-05
1.82821e-05
1.63381e-05
1.42324e-05
8.84937e-06
9.89119e-06
1.87769e-05
2.15442e-05
2.27567e-05
2.35392e-05
2.39475e-05
2.4906e-05
2.86983e-05
6.03332e-05
0.000293528
0.000331008
7.34595e-05
3.31992e-05
2.66721e-05
2.50719e-05
2.42431e-05
2.27387e-05
2.04671e-05
1.71144e-05
1.05348e-05
1.21869e-05
2.05456e-05
2.53589e-05
2.80811e-05
2.94089e-05
2.97462e-05
3.03876e-05
3.56161e-05
9.47266e-05
0.000444401
0.000499612
0.000121921
4.04174e-05
3.07979e-05
2.95964e-05
2.94838e-05
2.86609e-05
2.61693e-05
2.072e-05
1.09901e-05
2.1202e-05
2.2634e-05
2.55514e-05
2.8769e-05
3.16407e-05
3.38756e-05
3.6279e-05
4.46137e-05
0.000132476
0.000582751
0.000658326
0.000169248
4.9053e-05
3.58981e-05
3.29384e-05
3.08256e-05
2.80119e-05
2.4621e-05
2.12467e-05
1.95962e-05
5.27188e-05
3.75945e-05
3.20284e-05
3.41061e-05
4.00641e-05
4.76494e-05
5.62637e-05
7.22753e-05
0.000172037
0.000663165
0.000748511
0.000203465
7.00236e-05
5.07757e-05
4.30723e-05
3.65667e-05
3.15732e-05
2.99047e-05
3.48457e-05
4.92644e-05
7.82705e-05
6.95241e-05
5.75878e-05
6.63862e-05
8.5231e-05
0.000102164
0.000109682
0.000113099
0.000203759
0.000665867
0.00074129
0.000228102
0.000107923
0.000102765
9.59819e-05
8.01128e-05
6.25483e-05
5.43065e-05
6.55274e-05
7.53404e-05
0.000102949
0.000115703
0.00015765
0.000226586
0.000302494
0.000348396
0.0003427
0.000299704
0.000343767
0.000596854
0.000637815
0.0003596
0.000294102
0.000343734
0.000349462
0.000301055
0.000224512
0.000153939
0.000112479
0.000100004
0.000132343
0.000169629
0.000205277
0.000241516
0.000281439
0.000321334
0.000362131
0.000409473
0.000473572
0.000557894
0.000558166
0.000472638
0.000406535
0.00035933
0.000318611
0.00027859
0.000238606
0.000202215
0.000166492
0.00012924
2.5996e-06
4.03362e-06
4.55687e-06
4.87589e-06
5.45661e-06
6.5217e-06
7.8055e-06
9.33785e-06
1.10737e-05
1.35685e-05
1.49716e-05
1.28681e-05
1.07183e-05
8.77769e-06
7.47575e-06
6.80333e-06
6.59724e-06
6.49388e-06
6.007e-06
3.57437e-06
5.76579e-06
1.00543e-05
1.11508e-05
1.18831e-05
1.28209e-05
1.41565e-05
1.59998e-05
1.88325e-05
2.28504e-05
2.79855e-05
3.19114e-05
2.76565e-05
2.2441e-05
1.87696e-05
1.65063e-05
1.49134e-05
1.38772e-05
1.31248e-05
1.18532e-05
6.3533e-06
8.11697e-06
1.45603e-05
1.64136e-05
1.74576e-05
1.79215e-05
1.84637e-05
1.92977e-05
2.10669e-05
2.46782e-05
3.54612e-05
4.08443e-05