/*--------------------------------*- C++ -*----------------------------------*\
| =========                 |                                                 |
| \\      /  F ield         | OpenFOAM: The Open Source CFD Toolbox           |
|  \\    /   O peration     | Version:  v1912                                 |
|   \\  /    A nd           | Website:  www.openfoam.com                      |
|    \\/     M anipulation  |                                                 |
\*---------------------------------------------------------------------------*/
FoamFile
{
    version     2.0;
    format      ascii;
    class       surfaceScalarField;
    location    "200";
    object      phi;
}
// * * * * * * * * * * * * * * * * * * * * * * * * * * * * * * * * * * * * * //

dimensions      [0 3 -1 0 0 0 0];
oriented        oriented;


internalField   nonuniform List<scalar> 
11200
(
-4.68278e-05
0.00073652
-4.68278e-05
-0.000306279
0.00020594
5.17192e-05
-0.000283483
-8.3291e-05
5.48456e-05
-0.00013306
-0.000185402
3.31533e-05
-1.60464e-05
-0.000141754
2.81034e-05
6.21042e-05
-0.00011174
3.45086e-05
0.000107623
-8.57159e-05
4.009e-05
7.14611e-05
-4.4735e-05
7.10893e-05
0.000425421
-0.00056667
0.000238015
0.000280884
0.000111435
1.19965e-05
0.000362891
-0.00018149
0.000102365
0.000403123
-0.00013284
9.35916e-05
0.000475184
-0.00014746
7.17297e-05
0.000572466
-0.000158356
5.91415e-05
0.000707523
-0.000155993
2.08138e-05
0.000889967
-0.000167052
-1.53405e-05
0.000823221
0.000177869
-0.000109603
0.00047844
0.000514178
-0.0001699
0.000101546
0.000539629
-0.000163182
0.000299113
-0.000188267
0.00120582
-0.00166671
0.00120582
0.00068564
-6.83199e-05
0.000794877
-0.000554412
0.000850722
0.000305185
-0.00148395
0.000831974
-8.73687e-05
-0.00174708
0.000290846
-0.00017234
-0.0014394
-0.000290821
-0.000132945
-0.0010673
-0.000279805
-0.000189842
-0.000592327
-0.000300272
-0.000212261
-0.0004557
-0.000385959
-0.00033194
0.000201742
-0.000247359
-0.000293421
0.000502342
-0.00018927
-0.000297869
0.000955998
-0.000372294
-0.000215821
0.00137486
-0.00041937
-0.000148612
0.00169636
-0.000444009
-3.80513e-05
0.00140847
0.000194143
-6.34371e-05
0.000291055
0.000877395
7.14792e-05
-0.00128488
0.00121584
0.000536047
-0.00217918
0.0004229
0.000986117
-0.0018963
-0.00126921
0.00153023
-0.00347943
0.00190811
0.00202312
-0.00571515
0.00202312
0.00292325
-0.00285521
0.0018863
0.0026434
-0.000345235
0.00147589
0.0012952
0.00119295
0.000987245
-0.000516081
0.00152308
0.000581455
-0.00160571
0.00077637
2.75159e-05
-0.00171823
8.15629e-05
-0.000244406
-0.00119542
-0.000570362
-0.000255357
-0.000632163
-0.000494584
-0.000455035
0.000120722
-0.000419705
-0.000580105
0.000904355
-0.000479093
-0.00049228
0.00153169
-0.000690774
-0.000310848
0.00158769
-0.000234225
-0.000239637
0.00058306
0.000547475
1.44874e-05
-0.00121963
0.00149983
0.000495854
-0.0026998
0.00152849
0.000831232
-0.00332483
0.000587985
0.0012532
-0.00301443
-0.00155109
0.0016651
-0.00182563
-0.00433972
0.00187848
-0.0071823
0.0018789
0.00142998
-0.00857637
0.00142998
0.00259357
-0.00563602
0.00161865
0.00339968
-0.00275733
0.00160547
0.00340405
-0.000203232
0.00139171
0.00264787
0.00119594
0.00108362
0.00121327
0.00147652
0.000732986
-0.000316493
0.0011634
0.000447184
-0.000996495
0.000245286
-0.000137931
-0.000716885
-0.000150222
-0.000624438
0.000187504
-0.000535816
-0.000786119
0.00094703
-0.000555496
-0.000676323
0.00063228
-8.92113e-06
-0.000361038
-0.000713517
0.000854901
0.000258305
-0.00233875
0.00153566
0.000639544
-0.00330475
0.0014921
0.00097262
-0.00360937
0.000534965
0.0013002
-0.00313978
-0.0014327
0.00154897
-0.00224598
-0.00409667
0.00165226
-0.00124479
-0.00691282
0.00157172
-0.00972034
0.00129484
0.000822309
-0.0102205
0.000822309
0.00134663
-0.00744423
0.00128437
0.00189144
-0.00478266
0.00148059
0.00251211
-0.00235972
0.00153723
0.00281839
-0.000523003
0.00141346
0.00253697
0.000539305
0.00121967
0.00193572
0.000798889
0.00096845
0.000911031
0.000682985
0.00058728
0.000178038
0.000482848
0.000101172
0.00018517
4.4598e-05
-0.000585679
-8.36178e-05
8.50175e-05
-0.000366177
-0.00116141
0.000649665
0.000426986
-0.00198103
0.000821121
0.00085517
-0.00244493
0.00077488
0.0012251
-0.00232042
-0.000112711
0.00148131
-0.00182734
-0.00163578
0.00167785
-0.00134341
-0.00358332
0.00167047
-0.00103745
-0.00593092
0.00153108
-0.000707605
-0.00851371
0.00127172
-0.0111597
0.000731077
0.000281597
-0.010783
0.000281597
7.16907e-05
-0.00826193
0.00102569
-9.10048e-05
-0.00603516
0.00141418
-4.14601e-07
-0.00416362
0.00171293
0.000321393
-0.00277005
0.001923
0.000718274
-0.00171511
0.00185554
0.000955139
-0.00104378
0.00160374
0.000865899
-0.000543556
0.00131292
0.000593475
-0.000232762
0.000984627
-5.29408e-05
2.16111e-05
0.000666343
-0.000684207
-3.38197e-05
0.000736945
-0.000756469
-0.000395225
0.00111389
-0.000554258
-0.000855474
0.00147186
-4.66096e-05
-0.001541
0.00180975
0.000397459
-0.00257907
0.00202221
0.000573074
-0.00375022
0.00194074
0.000460601
-0.00518119
0.00171063
0.000115428
-0.00700136
0.00141596
-0.000227627
-0.00918335
0.00101228
-0.0116015
0.000213262
-0.000215167
-0.0103535
-0.000215167
-0.000956884
-0.00825495
0.000732719
-0.00156288
-0.00660318
0.00117353
-0.00182166
-0.00539661
0.00148854
-0.00177588
-0.00455439
0.00173691
-0.00146952
-0.00394361
0.00192234
-0.00101304
-0.00344104
0.00194161
-0.00050411
-0.00290954
0.00185716
-0.000126337
-0.00241472
0.00180505
-4.53089e-05
-0.00190778
0.00184495
0.000116371
-0.0020415
0.00184439
0.000671497
-0.00275336
0.00180337
0.00132736
-0.00337288
0.00186372
0.00188354
-0.0039917
0.00189161
0.00216538
-0.00462138
0.00176046
0.00215487
-0.00532585
0.00158612
0.00179676
-0.00620563
0.00138347
0.00108727
-0.00740452
0.0011122
0.000245957
-0.00903308
0.000690348
-0.0110666
-0.000289384
-0.000722599
-0.0089087
-0.000722599
-0.00185587
-0.00734526
0.000222197
-0.00268177
-0.00632716
0.000549742
-0.00304171
-0.00573256
0.000696247
-0.00297892
-0.00537881
0.000760716
-0.00258792
-0.00515101
0.000816062
-0.00197109
-0.00494485
0.000886748
-0.0012135
-0.00468136
0.00101384
-0.000478428
-0.00436525
0.0012151
5.35019e-05
-0.00396109
0.00152448
0.000622005
-0.00406686
0.0014563
0.00140007
-0.00461277
0.00107913
0.00221358
-0.00501163
0.000823248
0.00289891
-0.00534483
0.000669438
0.0033189
-0.00562192
0.00058127
0.0033548
-0.00590562
0.000545515
0.00292196
-0.00629632
0.000523985
0.00200027
-0.00690755
0.000424202
0.000766549
-0.00793226
0.000132528
-0.00947948
-0.000819967
-0.00145131
-0.00600658
-0.00145131
-0.00294441
-0.00505303
-0.000800527
-0.00389321
-0.00465771
-0.000721222
-0.00427372
-0.0045669
-0.000786062
-0.00415045
-0.00458253
-0.000919588
-0.00362496
-0.00464739
-0.00102802
-0.00279518
-0.00470408
-0.00106908
-0.00175376
-0.00470498
-0.00101599
-0.00068708
-0.00463336
-0.000798282
4.81736e-05
-0.00449014
-0.000207397
0.000836867
-0.00454549
-0.000311108
0.00193798
-0.0047787
-0.000934839
0.00302839
-0.00488831
-0.00121268
0.00392312
-0.0049174
-0.00132129
0.00448941
-0.00489549
-0.00129203
0.00461027
-0.00486193
-0.00116451
0.00418031
-0.00487077
-0.000996354
0.00314374
-0.0049775
-0.000894347
0.00153738
-0.00538791
-0.000938089
-0.00635239
-0.0015887
-0.00300402
-0.00300402
-0.00486746
-0.00319081
-0.0058078
-0.0037186
-0.00612936
-0.00424635
-0.0059063
-0.00480584
-0.00521681
-0.00533615
-0.00411581
-0.00580396
-0.00266966
-0.00615052
-0.00105722
-0.00624589
5.87837e-05
-0.00560579
0.00124208
-0.00572909
0.0028959
-0.00643327
0.00440683
-0.00639931
0.0055837
-0.00609438
0.00632414
-0.0056365
0.0065535
-0.00509199
0.00618694
-0.00450504
0.00515508
-0.00394648
0.00315288
-0.00338632
-0.00320059
5.17192e-05
0.00020594
-0.000306279
9.58893e-05
-7.59305e-05
9.58893e-05
0.000133508
-0.0001621
0.00018147
0.000187197
-0.000203118
0.000178708
0.000221821
-0.000165794
0.000153305
0.000271547
-0.000159841
0.000147586
0.000312086
-0.000164669
0.000156196
0.00031743
-0.000110403
0.000173987
0.000365949
-4.16763e-05
0.000220998
0.000291214
-9.3391e-05
0.000185193
0.000241786
-8.30125e-05
0.000236352
0.000195427
-0.000133235
0.000267519
0.000192393
-0.000173479
0.00024598
0.0002366
-0.000181556
0.000198366
0.000330583
-0.000191003
0.00011826
0.000429928
-0.000158308
4.54539e-05
0.000392762
3.47847e-05
-0.000106227
0.000250308
0.00021431
-0.000240159
0.00011158
0.000316186
-0.000358345
0.000500678
-0.000616531
0.000794877
-6.83199e-05
0.00068564
0.000557384
0.000395851
0.000557384
-0.000165869
0.0006845
0.000176175
-0.000852717
0.000540167
-0.000145872
-0.0011354
0.000160856
-0.000215212
-0.000998381
-0.000288995
-0.000141787
-0.000758692
-0.000433285
-0.000155746
-0.000493902
-0.000417806
-0.0001805
-0.000220145
-0.000396974
-0.000248545
6.36619e-05
-0.000344446
-0.000327476
0.000361094
-0.00039588
-0.000284368
0.000673541
-0.000490998
-0.000171526
0.000943464
-0.000513119
-7.90316e-05
0.00104648
-0.000322994
7.06942e-07
0.000679152
0.00014511
-3.21596e-05
-0.000198403
0.000633332
0.000153615
-0.00122579
0.000959656
0.00063611
-0.00177583
0.000656029
0.00108865
-0.0015273
-0.000103157
0.00170371
-0.00121024
0.00209311
0.0018863
-0.00285521
0.00292325
0.00266509
-0.001161
0.00266509
0.00250318
0.000279616
0.0020423
0.00160342
0.00109172
0.00133542
0.000370642
0.0012094
0.000765827
-0.0006284
0.000626094
0.00010726
-0.000962509
-1.06917e-05
-0.000325071
-0.000743162
-0.000489491
-0.000408276
-0.000391
-0.000613207
-0.000593183
6.40133e-05
-0.000646741
-0.000731142
0.000509342
-0.000686476
-0.000646891
0.000818422
-0.000685216
-0.000423864
0.000505021
-0.000153278
-0.000278419
-0.000516557
0.000549799
0.000162218
-0.00177895
0.00118593
0.000713199
-0.00278
0.0012439
0.00121805
-0.00322284
0.000775162
0.00188063
-0.00292003
-0.000495138
0.00251827
-0.00182105
-0.00228204
0.0029613
-0.00420844
0.00305683
0.00161865
-0.00563602
0.00259357
0.00288349
-0.00369048
0.00288349
0.00364856
-0.00163641
0.00275667
0.00365508
0.000172224
0.00230521
0.00303327
0.00116051
0.00175726
0.00193179
0.00130875
0.0011509
0.000759085
0.00101821
0.000595221
-6.51125e-05
0.000278764
-8.11714e-05
-0.0002473
-0.000352674
-0.000699214
8.3489e-05
-0.00078664
-0.000976802
0.000213663
-0.000636982
-0.00085318
-0.000478275
-1.12035e-05
-0.000345507
-0.00168193
0.000898614
0.000408927
-0.00286334
0.00138723
0.000984728
-0.00369052
0.00142521
0.00156679
-0.00402565
0.000761987
0.00211911
-0.00366019
-0.000653605
0.00261301
-0.00273068
-0.00267591
0.00290583
-0.00150668
-0.00475985
0.0028261
-0.00675833
0.00233784
0.00128437
-0.00744423
0.00134663
0.00221218
-0.00554774
0.00221218
0.00295531
-0.00346395
0.00256381
0.00350942
-0.00138298
0.0025409
0.00361872
0.000215492
0.00224816
0.00319997
0.00106585
0.00188269
0.00250858
0.00121245
0.00146507
0.0015295
0.000941662
0.000903025
0.000641999
0.000479161
0.000155586
-3.14374e-05
-4.49748e-05
-0.000648093
-0.000794092
0.00012004
-0.000365049
-0.0018361
0.000851841
0.00060943
-0.00269168
0.00131425
0.00129567
-0.00329427
0.00139837
0.00182425
-0.00346401
0.000831632
0.0022406
-0.00317992
-0.000435141
0.00259108
-0.00265611
-0.00224367
0.00273726
-0.0020548
-0.00435887
0.00261213
-0.00123097
-0.00643858
0.00212528
-0.00835725
0.00109762
0.00102569
-0.00826193
7.16907e-05
0.00145813
-0.00641612
0.00145813
0.00160681
-0.00440662
0.00220655
0.00176235
-0.00241575
0.00258677
0.00200027
-0.00080074
0.00270262
0.00210689
0.000316174
0.0024973
0.0019111
0.00084923
0.00215962
0.00143685
0.00100523
0.00171948
0.000769247
0.00095424
0.00117437
-8.72523e-05
0.000927963
0.0005405
-0.000893031
0.000929197
0.000738799
-0.00140272
0.00107072
0.0014034
-0.00168703
0.0011092
0.00196163
-0.00168846
0.000781013
0.00241973
-0.00150246
-7.84628e-05
0.00274657
-0.00138679
-0.00142509
0.00281733
-0.00139771
-0.00315166
0.00262864
-0.00137247
-0.00516294
0.00219304
-0.0010122
-0.00716345
0.00137527
-0.00903615
-0.000120992
0.000732719
-0.00825495
-0.000956884
0.000722148
-0.00639721
0.000722148
0.000395984
-0.00459079
0.00168326
0.000139283
-0.00296688
0.00229741
6.3492e-05
-0.00168001
0.0026907
0.000191329
-0.00073752
0.00284594
0.000337449
-0.000101775
0.00274331
0.000324659
0.000368181
0.00250579
0.000182648
0.000660149
0.00224064
-5.81078e-06
0.000942678
0.00202346
-0.000171987
0.000893898
0.00204638
-0.000180013
0.000584234
0.00229467
-2.09944e-05
0.000252163
0.00255677
0.00022238
-0.00031481
0.00274754
0.00029037
-0.00113482
0.00275208
0.000110708
-0.00220689
0.00254827
-0.000253187
-0.00357803
0.00217313
-0.000658312
-0.00522613
0.00157952
-0.000722251
-0.00701787
0.000608259
-0.00891413
-0.00113359
0.000222197
-0.00734526
-0.00185587
-0.000215417
-0.00552063
-0.000215417
-0.000802583
-0.0041486
0.000694425
-0.00116317
-0.00313154
0.00122073
-0.00123629
-0.00238144
0.00153522
-0.00108525
-0.00182781
0.00175807
-0.000777612
-0.00137672
0.00185836
-0.000400234
-0.000928432
0.00193737
-7.80758e-05
-0.000514658
0.00206781
0.000107887
1.957e-05
0.00225926
0.000307066
-6.71262e-05
0.00221448
0.00068007
-0.000656212
0.00194738
0.0010955
-0.00107831
0.00173842
0.00142013
-0.00157468
0.00160521
0.00156593
-0.00210166
0.00140195
0.00143997
-0.00274276
0.00120664
0.0009963
-0.00355536
0.000943586
0.000325435
-0.00460684
0.000474966
-0.00017948
-0.00598758
-0.000391964
-0.00785653
-0.00205589
-0.000800527
-0.00505303
-0.00294441
-0.00175485
-0.00361063
-0.00175485
-0.00249946
-0.00287549
-0.00124966
-0.00287085
-0.00247285
-0.00107368
-0.00285705
-0.00222589
-0.00108878
-0.00253545
-0.00206486
-0.00111129
-0.00201161
-0.00194146
-0.00102625
-0.0013552
-0.00181692
-0.000781751
-0.0005909
-0.00171614
-0.000360125
0.000226932
-0.0014774
0.000471946
0.00100303
-0.00151047
0.00035498
0.00170053
-0.00176679
-0.000521341
0.0023562
-0.00188245
-0.0010641
0.0029076
-0.00203285
-0.00141513
0.0032319
-0.00219735
-0.0015216
0.00321234
-0.00240167
-0.00148742
0.00277691
-0.00268478
-0.00143272
0.00194524
-0.00311356
-0.00155602
0.00089717
-0.00387284
-0.00200268
-0.00535061
-0.00319537
-0.00319081
-0.00486746
-0.0049971
-0.0049971
-0.00597316
-0.00561981
-0.00634714
-0.00634601
-0.00621815
-0.00716055
-0.00564472
-0.00797413
-0.00467092
-0.0087193
-0.00332481
-0.00931415
-0.00169797
-0.00958806
0.000194174
-0.00897448
0.00207225
-0.00911796
0.0037047
-0.0098331
0.00508644
-0.00966439
0.00609829
-0.00914013
0.00668482
-0.00842153
0.00679018
-0.00759985
0.00635477
-0.0067553
0.0052844
-0.00599045
0.00335186
-0.0053272
-0.00520045
5.48456e-05
-8.3291e-05
-0.000283483
0.00018147
-0.0001621
0.000133508
0.000292688
-0.000214943
0.000292688
0.000369147
-0.000222545
0.000324974
0.000408404
-0.000207219
0.000314876
0.000437399
-0.000190239
0.000300167
0.000451643
-0.000162333
0.000300562
0.000429727
-0.000124986
0.00031347
0.000382956
-7.53806e-05
0.000347561
0.000224389
-5.06761e-05
0.000392711
3.79063e-05
-6.03713e-05
0.000478617
-0.000112019
-9.92167e-05
0.000511602
-0.000163736
-0.000152176
0.000448329
-0.000131566
-0.000180908
0.000346476
-4.87679e-05
-0.000206045
0.000237944
4.02039e-05
-0.000180111
0.000133347
0.000108318
-0.000166781
-9.63166e-06
9.03694e-05
7.51854e-05
-0.000288109
8.17586e-05
0.000199142
-0.000522904
0.000426676
-0.000957969
0.000305185
0.000850722
-0.000554412
0.000176175
0.0006845
-0.000165869
-0.000207669
0.000551943
-0.000207669
-0.00058075
0.000289811
-0.000286055
-0.000724523
-4.89833e-05
-0.000228015
-0.000606549
-0.000355248
-0.000102572
-0.000467875
-0.000389328
-6.30345e-05
-0.000304265
-0.000409471
-5.95509e-05
-0.000135354
-0.000386195
-0.000104457
1.00053e-05
-0.000373227
-0.000151166
0.000174049
-0.000411567
-9.97372e-05
0.000352623
-0.000467709
1.6218e-05
0.000492299
-0.00046131
8.85285e-05
0.000555302
-0.000357967
0.000113423
0.000299504
-3.12665e-05
4.40557e-05
-0.00022326
0.000368647
0.000123836
-0.000854539
0.000714968
0.000376942
-0.00119045
0.000808646
0.000689549
-0.00102895
0.000700736
0.00103666
0.00050524
0.000982154
0.00147589
-0.000345235
0.0026434
0.0020423
0.000279616
0.00250318
0.00191838
0.000797203
0.00191838
0.00127867
0.00102432
0.00124041
0.000444442
0.000886507
0.00066528
-0.000255911
0.000356467
9.17271e-05
-0.000540834
-0.000167075
-0.000261549
-0.000432145
-0.000570084
-0.000359765
-0.000249932
-0.00064739
-0.000516239
-5.58533e-06
-0.000724788
-0.000623511
0.000223861
-0.000747126
-0.00053801
0.000332699
-0.000669526
-0.000324966
5.46346e-06
-0.000278207
-0.000133011
-0.000748037
0.000299999
0.00025472
-0.00162797
0.00081422
0.000744509
-0.00236242
0.00100949
0.00131171
-0.00270567
0.000921246
0.00201691
-0.00248135
0.000404895
0.00269894
-0.00161676
-0.000401194
0.00320103
-0.00134032
0.00328574
0.00160547
-0.00275733
0.00339968
0.00275667
-0.00163641
0.00364856
0.00339763
-0.000484429
0.00339763
0.00337509
0.000545853
0.00280619
0.00283532
0.00106707
0.00211711
0.00190849
0.00106079
0.001373
0.000938395
0.000704797
0.000692856
0.000229608
3.61234e-05
2.03327e-05
-4.90281e-05
-0.000552111
-0.000514639
-1.68877e-05
-0.000911451
-0.000821057
-0.000148357
-0.00079364
-0.000672017
-0.000835127
-0.000173207
-0.000155007
-0.00182052
0.000580111
0.000537097
-0.00280847
0.00105819
0.0012147
-0.00353954
0.00118557
0.00192815
-0.00388858
0.000852839
0.00262548
-0.00364622
1.09854e-05
0.00328052
-0.00281097
-0.00125691
0.00373213
-0.00158481
-0.00255206
0.0037503
-0.00383131
0.00324397
0.00148059
-0.00478266
0.00189144
0.00256381
-0.00346395
0.00295531
0.00339859
-0.00215524
0.00339859
0.00387831
-0.000698859
0.00330587
0.00387048
0.000417683
0.00290639
0.00341918
0.000989875
0.00240404
0.00269312
0.00104545
0.00184861
0.0017026
0.00076114
0.00116784
0.000715916
0.000224705
0.000363768
-0.000137855
-0.000311823
-0.000393936
-0.0010622
-0.000111316
-0.000120994
-0.00211892
0.00064591
0.000846485
-0.00302688
0.00112655
0.00165599
-0.00369359
0.001247
0.00230058
-0.00399908
0.000889476
0.00284279
-0.00384785
-2.05355e-06
0.0032936
-0.00331364
-0.00133066
0.00354222
-0.00253102
-0.00285289
0.00342321
-0.00148644
-0.00423535
0.00276165
-0.00567887
0.00145724
0.00141418
-0.00603516
-9.10048e-05
0.00220655
-0.00440662
0.00160681
0.00265173
-0.00304731
0.00265173
0.0029481
-0.00154187
0.00313102
0.00309058
-0.00022936
0.00320514
0.00295562
0.000661509
0.00295965
0.0025375
0.001044
0.00257839
0.00186446
0.00107426
0.00207873
0.000937709
0.000908636
0.00141704
-0.000142885
0.000721513
0.000584966
-0.00117318
0.000807292
0.000847249
-0.00191719
0.00108143
0.00170831
-0.00245588
0.00126349
0.00236419
-0.00275855
0.00109997
0.00287219
-0.0028132
0.000465027
0.00322554
-0.00272741
-0.000637895
0.00336653
-0.00255112
-0.00205356
0.00317287
-0.00218037
-0.00361789
0.00258531
-0.00141812
-0.00504518
0.00142115
-0.00678399
-0.000434527
0.00117353
-0.00660318
-0.00156288
0.00168326
-0.00459079
0.000395984
0.0017619
-0.003206
0.0017619
0.00168584
-0.00179674
0.00262801
0.00158688
-0.000563099
0.00312443
0.00148582
0.000362898
0.00324752
0.00130034
0.000866323
0.0031078
0.000966235
0.00108711
0.00282908
0.000498494
0.00114043
0.00247704
-4.57708e-05
0.00118285
0.00210605
-0.000524486
0.00119024
0.00214268
-0.000858423
0.00116765
0.00254589
-0.00106377
0.00114081
0.00288771
-0.00118588
0.000840765
0.00312977
-0.00132593
0.000152123
0.00320542
-0.00150723
-0.000917945
0.00300889
-0.00165649
-0.00222971
0.00249705
-0.00162576
-0.00368305
0.00161315
-0.00114519
-0.00513004
0.000212496
-0.007241
-0.00182024
0.000549742
-0.00632716
-0.00268177
0.000694425
-0.0041486
-0.000802583
0.000517627
-0.00285227
0.000517627
0.000305088
-0.00176757
0.00140427
0.000213477
-0.000882748
0.00194645
0.000255357
-0.000168975
0.00224808
0.000316339
0.000291749
0.00237257
0.000335285
0.000614685
0.00239143
0.000265311
0.000850336
0.00242658
8.85012e-05
0.00109087
0.00252772
-7.81914e-05
0.00108599
0.00248344
-8.03519e-05
0.000797557
0.0023192
4.65091e-06
0.000588773
0.00220365
0.000120907
0.000222955
0.00210526
0.000139735
-0.000339201
0.00187213
-2.52318e-05
-0.00114049
0.00159157
-0.000309555
-0.00208549
0.0010818
-0.000543995
-0.00321021
0.000235765
-0.000464501
-0.00455154
-0.00104979
-0.00680715
-0.00295467
-0.000721222
-0.00465771
-0.00389321
-0.00124966
-0.00287549
-0.00249946
-0.00166545
-0.00202242
-0.00166545
-0.00184865
-0.00149732
-0.00116272
-0.00176637
-0.00114135
-0.000914103
-0.00146357
-0.000879048
-0.000704954
-0.00101185
-0.000638276
-0.000549003
-0.000504046
-0.000399428
-0.000277352
-3.95243e-06
-0.000213631
0.000201134
0.000217596
0.000324798
0.00101423
0.000445092
0.000310101
0.000901201
0.000943
-0.000217029
-5.92215e-06
0.00146276
-0.000381802
-0.000614868
0.00192488
-0.000648211
-0.00100766
0.00221241
-0.000926892
-0.00122351
0.00224955
-0.00124305
-0.00142362
0.00199777
-0.00164265
-0.00162497
0.00149476
-0.00220178
-0.00206083
0.000858471
-0.00309291
-0.0028233
-0.00493226
-0.00421191
-0.0037186
-0.0058078
-0.00561981
-0.00597316
-0.00663189
-0.00663189
-0.00702018
-0.00745603
-0.00691144
-0.00841102
-0.00635797
-0.00940696
-0.00537918
-0.0103374
-0.00397389
-0.01112
-0.00219373
-0.0115835
0.000207253
-0.0110523
0.00259245
-0.0111943
0.0043891
-0.0118476
0.00583859
-0.0114962
0.00685241
-0.010803
0.00741834
-0.0099151
0.00750304
-0.00892887
0.00705599
-0.00795266
0.00595271
-0.00709042
0.0039197
-0.00638816
-0.00621296
3.31533e-05
-0.000185402
-0.00013306
0.000178708
-0.000203118
0.000187197
0.000324974
-0.000222545
0.000369147
0.000432592
-0.00021773
0.000432592
0.000496811
-0.000191934
0.000441277
0.000536529
-0.000192854
0.000445366
0.000540438
-0.000153918
0.000449679
0.000490934
-0.000123539
0.000485137
0.000366387
-8.31366e-05
0.000553991
0.0001152
-3.75288e-05
0.000678719
-0.000156553
-3.90249e-05
0.000786055
-0.000335079
-7.27939e-05
0.000760766
-0.000400995
-0.000137642
0.000650831
-0.000377498
-0.000194043
0.000515309
-0.000320349
-0.00019768
0.000375868
-0.000211442
-0.000245674
0.00026416
-0.000144027
-0.000166007
7.27772e-05
-5.49318e-05
-0.000127424
-0.000264573
-9.02404e-06
1.15906e-05
-0.000579629
4.44885e-05
-0.0010047
-8.73687e-05
0.000831974
-0.00148395
-0.000145872
0.000540167
-0.000852717
-0.000286055
0.000289811
-0.00058075
-0.000395636
4.77867e-08
-0.000395636
-0.00036376
-0.000274922
-0.000178297
-0.000246002
-0.000416837
-1.94502e-06
-0.0001808
-0.000343915
6.31383e-05
-0.000116216
-0.000363163
0.000115243
-7.78803e-05
-0.000368202
0.000142026
-6.46711e-05
-0.000378837
0.000176079
-3.99378e-05
-0.000406835
0.000243526
1.92471e-05
-0.00043016
0.000313609
8.59791e-05
-0.000433556
0.000316361
0.000128665
-0.000410617
0.000286967
3.72285e-05
-0.000238663
0.000177333
-0.000213161
4.35763e-05
7.78056e-05
-0.000482184
0.000401064
7.63843e-05
-0.000662009
0.000717984
2.53064e-05
-0.000488775
0.00094304
-7.10205e-05
0.00116453
-0.000626501
0.000987245
0.00119295
0.0012952
0.00133542
0.00109172
0.00160342
0.00124041
0.00102432
0.00127867
0.00081205
0.000854247
0.00081205
0.00030406
0.000481656
0.000415062
-8.93637e-05
-6.25503e-06
7.28998e-05
-0.000227424
-0.00038789
-8.22653e-05
-0.000196909
-0.00061117
-0.000146035
-0.000141243
-0.000706008
-0.000236269
-6.98969e-05
-0.000776319
-0.000298885
-2.84325e-05
-0.000790561
-0.00019559
-7.24056e-05
-0.000704904
-2.73909e-06
-0.000283486
-0.000493422
0.000140262
-0.000713981
-7.89529e-05
0.000349366
-0.00126437
0.000363028
0.000691946
-0.00176969
0.000712222
0.00114763
-0.00200552
0.000913767
0.00173807
-0.00183673
0.000948988
0.00229631
-0.00120817
0.000861886
0.00265336
0.000738617
0.00250468
0.00139171
-0.000203232
0.00340405
0.00230521
0.000172224
0.00365508
0.00280619
0.000545853
0.00337509
0.00279182
0.000881654
0.00279182
0.00235117
0.000947462
0.00209278
0.00162241
0.000734407
0.00135913
0.000905537
0.000271663
0.000748602
0.000366859
-0.000297061
0.000244324
6.57553e-05
-0.000777103
-0.000142005
-8.352e-05
-0.00102083
-0.000424594
-0.000346703
-0.000929708
-0.000267536
-0.000916906
-0.000478959
0.000189533
-0.0016865
0.000100609
0.000713516
-0.00247175
0.000597807
0.00132467
-0.00306602
0.000872527
0.00201325
-0.0033528
0.000887342
0.00273558
-0.00318971
0.000612895
0.00341591
-0.00251806
7.9901e-05
0.00392886
-0.00148181
-0.000473411
0.0040486
-0.00112458
0.00362388
0.00153723
-0.00235972
0.00251211
0.0025409
-0.00138298
0.00350942
0.00330587
-0.000698859
0.00387831
0.0037136
6.48355e-05
0.0037136
0.00369534
0.000603276
0.00326725
0.00329853
0.000823642
0.00271004
0.0025873
0.000740658
0.00208963
0.00165095
0.000408926
0.00139739
0.000675215
-0.000120525
0.000683356
-0.000180776
-0.000613725
5.56751e-05
-0.00112095
-0.000408571
0.000300667
-0.00214589
0.000263338
0.00113019
-0.00305054
0.000742303
0.00191841
-0.00368911
0.000922985
0.00261229
-0.00399532
0.000806949
0.0032125
-0.00390346
0.000373286
0.00371344
-0.0034259
-0.000344681
0.00401983
-0.00264665
-0.00123994
0.00396162
-0.00162391
-0.00204563
0.00330932
-0.00328909
0.00199642
0.00171293
-0.00416362
-4.14601e-07
0.00258677
-0.00241575
0.00176235
0.00313102
-0.00154187
0.0029481
0.0034731
-0.000620783
0.0034731
0.00358359
0.000157146
0.00353992
0.00338679
0.000670857
0.00330879
0.00290046
0.000870019
0.00293388
0.00213308
0.000827043
0.00242686
0.00108099
0.00061965
0.00172907
-0.000163396
0.000333613
0.000881693
-0.001348
0.000474153
0.00114934
-0.00226817
0.000825502
0.00206701
-0.0029387
0.00103146
0.00274678
-0.00335825
0.000965761
0.00324931
-0.0035107
0.000598639
0.00358499
-0.00341698
-6.76073e-05
0.00371149
-0.00312883
-0.000951132
0.00348858
-0.00261502
-0.00196113
0.00279066
-0.00172441
-0.00295959
0.00144249
-0.00493682
-0.000511872
0.00148854
-0.00539661
-0.00182166
0.00229741
-0.00296688
0.000139283
0.00262801
-0.00179674
0.00168584
0.00269514
-0.000755276
0.00269514
0.00260698
0.000113331
0.00325614
0.00239749
0.000699856
0.00342814
0.00203999
0.000985366
0.00335029
0.00150732
0.00107419
0.00311499
0.000803338
0.00102418
0.0027761
-7.0575e-05
0.000980527
0.00233355
-0.00084709
0.00102375
0.00237008
-0.00143439
0.00112023
0.00283974
-0.00188126
0.00119479
0.00317254
-0.0022034
0.00103752
0.00338003
-0.00243739
0.000630882
0.00340633
-0.00257959
-8.55556e-05
0.00316719
-0.00254672
-0.00103819
0.00254919
-0.00223022
-0.00214865
0.00148283
-0.00142593
-0.00342833
-0.000122295
-0.00603101
-0.00214941
0.000696247
-0.00573256
-0.00304171
0.00122073
-0.00313154
-0.00116317
0.00140427
-0.00176757
0.000305088
0.00138966
-0.000726879
0.00138966
0.00129651
8.33084e-05
0.00206887
0.00121614
0.000596072
0.00243114
0.00110964
0.000871783
0.00259167
0.000909888
0.00104127
0.00262307
0.000599723
0.0011194
0.00264062
8.69903e-05
0.001348
0.00267182
-0.00040248
0.00137305
0.00262189
-0.000659588
0.0011698
0.00252585
-0.000796827
0.00110603
0.00242836
-0.000878595
0.00090609
0.00231731
-0.000997496
0.000526178
0.00209344
-0.00112964
-8.47218e-05
0.00172022
-0.00117545
-0.000958022
0.00104439
-0.00102379
-0.00204096
-2.57939e-05
-0.000565926
-0.00347533
-0.00146244
-0.00619377
-0.00335877
-0.000786062
-0.0045669
-0.00427372
-0.00107368
-0.00247285
-0.00287085
-0.00116272
-0.00149732
-0.00184865
-0.00108556
-0.000883433
-0.00108556
-0.000857063
-0.0004523
-0.000608871
-0.000555287
-7.66698e-05
-0.000334677
-0.000302971
0.00022141
-0.000150948
-6.05683e-05
0.000485345
3.63191e-05
0.000154845
0.000730429
0.000373735
0.000200813
0.00140538
0.000910373
0.000281218
0.00139074
0.00080258
0.000559914
0.000748431
0.00013628
0.000835871
0.000555465
-0.000341221
0.00110406
0.000275218
-0.00064629
0.00138256
-7.45069e-05
-0.000903414
0.00154724
-0.000497439
-0.00117837
0.00154979
-0.000973726
-0.00161403
0.00137138
-0.00162981
-0.00229322
0.000963892
-0.00265624
-0.00323465
-0.00482725
-0.00461711
-0.00424635
-0.00612936
-0.00634601
-0.00634714
-0.00745603
-0.00702018
-0.00789809
-0.00789809
-0.00783555
-0.0089268
-0.00730188
-0.0100179
-0.00630035
-0.0111182
-0.00480688
-0.0121288
-0.00280131
-0.0128588
0.000206524
-0.0126548
0.00319165
-0.0127888
0.00521811
-0.0131263
0.0067685
-0.0124917
0.0078157
-0.0115756
0.00836428
-0.0105395
0.00841099
-0.00947492
0.00791929
-0.00843607
0.0067228
-0.00752391
0.00448398
-0.00680506
-0.00655575
2.81034e-05
-0.000141754
-1.60464e-05
0.000153305
-0.000165794
0.000221821
0.000314876
-0.000207219
0.000408404
0.000441277
-0.000191934
0.000496811
0.00053654
-0.000192682
0.00053654
0.00058724
-0.000162376
0.000550523
0.00059664
-0.000147106
0.000581863
0.00054666
-0.000154081
0.000685513
0.000379578
-0.000144463
0.000861961
3.10296e-05
-0.000111164
0.0011343
-0.000321744
-9.84747e-05
0.00123471
-0.000508357
-0.000128951
0.00107487
-0.000565928
-0.000165726
0.000872798
-0.000534906
-0.000199823
0.000681353
-0.000459952
-0.000213613
0.00051125
-0.000363188
-0.000201954
0.000364205
-0.000254257
-0.000216605
0.000173613
-0.000170068
-0.000161974
-0.000195466
-7.72669e-05
-0.000176719
-0.000504477
-0.000194946
-0.00088368
-0.00017234
0.000290846
-0.00174708
-0.000215212
0.000160856
-0.0011354
-0.000228015
-4.89833e-05
-0.000724523
-0.000178297
-0.000274922
-0.00036376
-6.48312e-05
-0.000423171
-6.48312e-05
2.79081e-05
-0.000366708
0.000106946
8.05785e-05
-0.000373365
0.000233673
9.39458e-05
-0.000423564
0.000370667
1.8709e-05
-0.000450947
0.000524794
-0.00012938
-0.000472929
0.000686549
-0.000245516
-0.000514674
0.000776102
-0.000282614
-0.00052227
0.000745073
-0.000255704
-0.000484334
0.000608752
-0.000217035
-0.00041969
0.000465671
-0.000188741
-0.000349071
0.000283971
-0.000173651
-0.000204043
6.11375e-05
-0.000163817
4.20454e-05
-0.000198447
-0.000139767
0.000335912
-0.000498127
-4.31773e-05
0.000560452
-0.000908723
0.000750664
-0.00161085
0.000581455
0.00152308
-0.000516081
0.000765827
0.0012094
0.000370642
0.00066528
0.000886507
0.000444442
0.000415062
0.000481656
0.00030406
0.000184662
3.75594e-05
0.000184662
7.93011e-05
-0.000322569
0.000129519
5.43301e-05
-0.00058792
0.000153509
4.28411e-05
-0.000743108
0.000183011
-2.59151e-05
-0.000833146
0.00021332
-0.000140723
-0.000891945
0.000234439
-0.000274783
-0.000912263
0.000337482
-0.00040288
-0.000839725
0.000447266
-0.000516795
-0.000682894
0.000458935
-0.000682453
-0.000422861
0.000519103
-0.000914702
-7.48822e-05
0.00064689
-0.00117148
0.00032579
0.000872527
-0.00130992
0.000720768
0.00119543
-0.0012125
0.00103367
0.00149987
-0.000849258