/*--------------------------------*- C++ -*----------------------------------*\
| =========                 |                                                 |
| \\      /  F ield         | OpenFOAM: The Open Source CFD Toolbox           |
|  \\    /   O peration     | Version:  v1912                                 |
|   \\  /    A nd           | Website:  www.openfoam.com                      |
|    \\/     M anipulation  |                                                 |
\*---------------------------------------------------------------------------*/
FoamFile
{
    version     2.0;
    format      ascii;
    class       volVectorField;
    location    "200";
    object      U;
}
// * * * * * * * * * * * * * * * * * * * * * * * * * * * * * * * * * * * * * //

dimensions      [0 1 -1 0 0 0 0];


internalField   nonuniform List<vector> 
4000
(
(-0.00134664 0.00162449 -0.00134664)
(-0.000717972 -0.00208217 -0.000239459)
(-0.00106351 -0.00189857 -0.000116669)
(-0.000920152 -0.000754 -8.91334e-05)
(-0.000125595 -0.000280526 -7.79879e-05)
(0.000338109 -0.000457554 5.83916e-07)
(0.000730871 -0.000726759 4.80366e-05)
(0.00125492 -0.000616747 9.91891e-05)
(0.000247519 -0.00262171 -0.000336691)
(0.000844062 -1.06142e-05 0.000196002)
(0.00181057 -0.000879453 8.40359e-05)
(0.0013253 -0.000524687 0.000218429)
(0.00160864 -0.000605786 0.000139472)
(0.00198069 -0.000501639 8.59875e-05)
(0.00249694 -0.000215294 -1.10396e-05)
(0.00336331 -0.000587844 -7.17131e-05)
(0.00374708 -0.00118508 -0.000163822)
(0.00288009 -0.000281483 -0.000220012)
(0.000999197 0.00174246 -9.5582e-05)
(-0.000285576 0.00559831 0.000101856)
(0.00350721 0.00314366 0.00350721)
(0.00505618 0.00477649 0.00262091)
(0.00157504 0.00291305 0.00110831)
(-0.00507611 0.000386855 -0.000278463)
(-0.00695819 -0.00120288 -0.000542876)
(-0.00659353 -0.00116885 -0.000565987)
(-0.00506697 -0.0008476 -0.000777125)
(-0.00332555 -0.000902514 -0.000898196)
(-0.00201071 -0.00207217 -0.00139956)
(-0.000670165 -0.000264496 -0.00140713)
(0.00133772 -0.000893138 -0.00128864)
(0.00287548 -0.00116567 -0.000931963)
(0.00472628 -0.00128417 -0.000652642)
(0.00641027 -0.00151088 -0.000313638)
(0.00680673 -0.00145582 -0.000234174)
(0.00495917 0.000268887 1.61303e-05)
(-0.00320028 0.00373279 0.00161058)
(-0.00808868 0.00421468 0.00329688)
(-0.008908 0.00107155 0.00483798)
(-0.00550637 -0.00629941 0.00556493)
(0.00492793 -0.0169315 0.00492793)
(0.01065 -0.0062253 0.00522536)
(0.0123421 0.00305017 0.0044178)
(0.00896741 0.00628367 0.0030371)
(0.00221913 0.00494485 0.00159769)
(-0.00625072 -0.000300619 -0.000293655)
(-0.0071792 -0.00186769 -0.000775039)
(-0.0060784 -0.00188766 -0.000933022)
(-0.00364673 -0.00188734 -0.00158879)
(-0.00129969 -0.00126609 -0.00210086)
(0.00222891 -0.00165174 -0.00173957)
(0.00508892 -0.00231745 -0.00114848)
(0.00670412 -0.00244653 -0.000819571)
(0.00636234 -0.00150495 -0.000404526)
(-0.00161154 0.00425531 0.00124862)
(-0.00868699 0.00664081 0.00248827)
(-0.0130023 0.00548365 0.00373402)
(-0.0136476 -0.00126157 0.00480053)
(-0.00994832 -0.0119226 0.00487558)
(-0.00432739 -0.0229161 0.0044433)
(0.00306876 -0.0298968 0.00306876)
(0.00818506 -0.0179567 0.00382421)
(0.012284 -0.00678091 0.00409335)
(0.0148457 0.00301312 0.00382618)
(0.0128359 0.00699782 0.00301344)
(0.0082278 0.00663266 0.00204434)
(0.00188248 0.00378765 0.00120029)
(-0.00488167 -0.00195795 -0.00108422)
(-0.00375145 -0.0023489 -0.00221413)
(-0.00145512 -0.00195876 -0.00264796)
(0.00269538 -0.0022421 -0.00217462)
(0.00491408 -0.00293726 -0.00148509)
(0.000970704 0.00188689 0.000456774)
(-0.00686678 0.00655478 0.00186739)
(-0.0118429 0.00786118 0.00277801)
(-0.0149873 0.00555936 0.00371652)
(-0.0142333 -0.00163826 0.00427824)
(-0.0106277 -0.0122572 0.0041779)
(-0.00714663 -0.0236443 0.00368198)
(-0.00267566 -0.0350849 0.00275112)
(0.00166715 -0.0387881 0.00166715)
(0.00474061 -0.0272852 0.00286145)
(0.00596413 -0.0159472 0.00349342)
(0.00891188 -0.00570475 0.00400394)
(0.0116356 0.00215129 0.00390853)
(0.0114592 0.00589299 0.00345016)
(0.00898296 0.00614051 0.00281957)
(0.00595872 0.0046711 0.00184419)
(0.00164193 0.00226392 0.000589074)
(3.4898e-05 -0.00162552 -0.00197932)
(0.00146612 -0.00125901 -0.00130172)
(-0.00256473 0.00423441 0.00152104)
(-0.00599087 0.00623677 0.00251817)
(-0.00942801 0.00708134 0.00352772)
(-0.0106968 0.00425848 0.00415088)
(-0.00871673 -0.00218155 0.0046393)
(-0.00633068 -0.0107134 0.00424437)
(-0.00426394 -0.0209946 0.00356434)
(-0.0039907 -0.0319104 0.00283514)
(-0.00149191 -0.0428399 0.00149006)
(0.000521516 -0.0430511 0.000521516)
(0.00143393 -0.0323399 0.00209511)
(-0.000714875 -0.0222989 0.00288322)
(-0.000217994 -0.0133 0.00378787)
(0.000633682 -0.00682985 0.00471039)
(0.00275142 -0.00173622 0.00483538)
(0.0035991 0.000987941 0.00444549)
(0.00366154 0.00245338 0.00391016)
(0.00263422 0.00328858 0.00327952)
(0.000931571 0.00347019 0.00273591)
(-0.00118487 0.003535 0.00306511)
(-0.00223345 0.00320421 0.00341637)
(-0.00267365 0.001743 0.00401344)
(-0.00230916 -0.000758928 0.00451954)
(0.00035373 -0.00599063 0.00500935)
(0.00223522 -0.011157 0.0042644)
(0.00205924 -0.0179012 0.00352884)
(0.00178575 -0.0264745 0.00278145)
(-0.00101191 -0.0363138 0.00204897)
(-0.000482045 -0.046554 0.000392875)
(-0.000608757 -0.0433666 -0.000608757)
(-0.00159502 -0.0338295 0.00104524)
(-0.00576409 -0.0259106 0.00149594)
(-0.00689025 -0.0198123 0.00190566)
(-0.00749606 -0.0154698 0.0022334)
(-0.00659804 -0.012609 0.00259212)
(-0.00502571 -0.0102331 0.00277987)
(-0.00302328 -0.00763709 0.00286053)
(-0.00098335 -0.00529557 0.00320858)
(-4.42324e-05 -0.0028385 0.00424059)
(-0.000254905 -0.00341837 0.00392545)
(0.00132006 -0.00704206 0.00280916)
(0.00398196 -0.00993616 0.00236036)
(0.0065 -0.0127416 0.0020858)
(0.00823272 -0.0153367 0.00170256)
(0.00896655 -0.0189736 0.00154092)
(0.00803171 -0.0235306 0.00143746)
(0.006492 -0.0295606 0.00123255)
(0.00188834 -0.0373016 0.000916551)
(0.000608645 -0.0464742 -0.000764769)
(-0.00208305 -0.0394888 -0.00208305)
(-0.00451927 -0.032256 -0.000789386)
(-0.00989086 -0.026975 -0.00101242)
(-0.0117071 -0.023505 -0.00136033)
(-0.0124301 -0.0212465 -0.00181901)
(-0.0113407 -0.0196519 -0.00224285)
(-0.00925383 -0.0183015 -0.00258814)
(-0.00646567 -0.0168797 -0.00272319)
(-0.00312187 -0.0154734 -0.00243944)
(-0.000655424 -0.0138586 -0.00129175)
(0.0011515 -0.0142658 -0.00166041)
(0.00377641 -0.0165318 -0.00299224)
(0.00727468 -0.0183961 -0.00340511)
(0.0103559 -0.0202427 -0.00330457)
(0.0126598 -0.0220087 -0.00294632)
(0.0137523 -0.0238641 -0.00241376)
(0.0128199 -0.0262756 -0.00181597)
(0.010672 -0.0297875 -0.00133938)
(0.00487056 -0.035053 -0.00100796)
(0.00213965 -0.0421258 -0.00232285)
(-0.00456467 -0.02989 -0.00456467)
(-0.00843371 -0.0253117 -0.00386483)
(-0.0145478 -0.0230202 -0.00469641)
(-0.0166961 -0.0221811 -0.0056046)
(-0.0172831 -0.0219957 -0.00655707)
(-0.0158325 -0.0221406 -0.00742595)
(-0.0130585 -0.0222945 -0.00816725)
(-0.00929264 -0.0221817 -0.00871544)
(-0.00458577 -0.0217104 -0.00880725)
(-0.00117074 -0.0207709 -0.00773724)
(0.00165758 -0.0210682 -0.00801389)
(0.00527154 -0.022416 -0.00921445)
(0.0100886 -0.0230698 -0.00923316)
(0.0141089 -0.023347 -0.00876556)
(0.0171131 -0.0233936 -0.00802447)
(0.018647 -0.0234383 -0.00709344)
(0.0179514 -0.0237789 -0.00605694)
(0.0155407 -0.0247273 -0.00507743)
(0.00899165 -0.0271094 -0.00419433)
(0.0047535 -0.0317204 -0.0049357)
(-0.00932893 -0.0182301 -0.00932893)
(-0.0160749 -0.0146945 -0.0102654)
(-0.0222141 -0.0132562 -0.0121881)
(-0.0242885 -0.01275 -0.014001)
(-0.0245338 -0.0124286 -0.0158677)
(-0.0226038 -0.0120857 -0.0176234)
(-0.0189842 -0.0115365 -0.0191905)
(-0.0138648 -0.0106455 -0.0203822)
(-0.00722961 -0.0094163 -0.0207438)
(-0.00222819 -0.00815262 -0.0185134)
(0.00284778 -0.00837831 -0.01899)
(0.00804508 -0.00995166 -0.0214025)
(0.014882 -0.0112716 -0.0212142)
(0.0202979 -0.0122186 -0.0201289)
(0.0241818 -0.0128418 -0.0185676)
(0.0262307 -0.0132502 -0.0167432)
(0.0259026 -0.0136203 -0.014773)
(0.0235643 -0.0141591 -0.0128532)
(0.0169414 -0.0156485 -0.0108228)
(0.0097096 -0.0192672 -0.00989068)
(-0.000239459 -0.00208217 -0.000717972)
(0.000208758 -0.0027621 0.000208758)
(0.000755562 -0.00126939 0.000495829)
(0.00067515 -0.000500078 0.000562247)
(0.00104677 -0.000283026 0.000487376)
(0.0012463 -0.0005667 0.00046649)
(0.00127609 -0.000768446 0.000350288)
(0.00126766 -0.000571615 0.000388476)
(0.00143925 -0.000369688 0.000257705)
(0.00142091 -0.000536377 0.00106273)
(0.00109023 -0.000441878 0.000874319)
(0.000713224 -0.000558772 0.000970137)
(0.000518234 -0.000676739 0.000850681)
(0.000614462 -0.000603079 0.000706119)
(0.00111977 -0.000354294 0.0003965)
(0.00176281 -0.000552966 0.000130043)
(0.00191271 -0.00140579 -0.000256407)
(0.00130169 -0.00151525 -0.000855556)
(0.00067544 -0.00129026 -0.00104874)
(5.43585e-05 0.00128506 -0.0015264)
(0.00262091 0.00477649 0.00505618)
(0.00369211 0.00280108 0.00369211)
(0.0016837 0.00108015 0.00157492)
(-0.00255495 -0.000431619 -0.000350943)
(-0.00442716 -0.00136685 -0.000777584)
(-0.00443271 -0.00138074 -0.000565559)
(-0.00363884 -0.00131032 -0.000755993)
(-0.00253843 -0.00128846 -0.000886666)
(-0.00142628 -0.00121383 -0.0013588)
(-0.000323338 -0.00112854 -0.00144602)
(0.00085675 -0.00129385 -0.00135133)
(0.00210585 -0.00159058 -0.000840822)
(0.00341372 -0.00164761 -0.000453446)
(0.00415662 -0.0015676 -6.50343e-06)
(0.0040535 -0.00132411 -0.000133372)
(0.00161363 0.000136497 0.000566865)
(-0.00362597 0.00230199 0.00265935)
(-0.00672533 0.00304704 0.00459907)
(-0.00730227 0.00321513 0.00712767)
(-0.00480903 0.00119781 0.0087221)
(0.00522536 -0.0062253 0.01065)
(0.00983708 0.000111192 0.00983708)
(0.0112947 0.00422583 0.00761168)
(0.00883699 0.00497314 0.00503244)
(0.00444272 0.00361962 0.0029783)
(-0.00137446 -0.000161391 0.000455001)
(-0.00397711 -0.00228592 -0.00116026)
(-0.00357769 -0.0022702 -0.00130994)
(-0.00244031 -0.00203506 -0.00219914)
(-0.000760415 -0.00191376 -0.00284641)
(0.00130142 -0.00223588 -0.00248291)
(0.00288991 -0.00265496 -0.00154977)
(0.00355365 -0.00254748 -0.00107017)
(0.000775912 -0.000327477 0.000566409)
(-0.00499146 0.00326343 0.00261803)
(-0.00952736 0.00490299 0.00431562)
(-0.012693 0.00512258 0.00660878)
(-0.0131246 0.00216792 0.00882387)
(-0.0098888 -0.00424243 0.0101426)
(-0.00471564 -0.011485 0.0101962)
(0.00382421 -0.0179567 0.00818506)
(0.00919636 -0.0102773 0.00919636)
(0.013621 -0.00248161 0.0089675)
(0.0155203 0.00373624 0.00757399)
(0.0139845 0.00599442 0.00580033)
(0.0102264 0.00533015 0.00385664)
(0.00545523 0.00307421 0.00218984)
(0.000529276 -0.000881631 -5.49496e-05)
(-0.00137863 -0.00275125 -0.00271384)
(-0.000408927 -0.00315665 -0.00372898)
(0.00106139 -0.00306959 -0.00317404)
(0.000700267 -0.00226573 -0.00132509)
(-0.00426276 0.00228924 0.00145905)
(-0.00931502 0.00519503 0.00330867)
(-0.013578 0.00641487 0.00516656)
(-0.0162058 0.00512672 0.00697882)
(-0.0161282 0.000763075 0.00854138)
(-0.0130202 -0.00683343 0.00934966)
(-0.00866743 -0.014914 0.00900039)
(-0.00352956 -0.023051 0.00742987)
(0.00286145 -0.0272852 0.00474061)
(0.00743269 -0.0195438 0.00743269)
(0.0101934 -0.0111407 0.00846044)
(0.0131988 -0.00302228 0.00838764)
(0.0150857 0.00302139 0.00731184)
(0.014172 0.0053737 0.00617354)
(0.0116272 0.0053247 0.00487938)
(0.00831095 0.00361092 0.00301202)
(0.00406781 0.000778191 0.000476769)
(0.00108151 -0.00262302 -0.00265772)
(-0.00120029 -0.00134429 -0.0014246)
(-0.00527434 0.00302636 0.0021796)
(-0.00913538 0.00554466 0.0043374)
(-0.0124214 0.00642816 0.00605981)
(-0.0142881 0.00496447 0.00738355)
(-0.0138279 0.000433309 0.00872375)
(-0.0117656 -0.00663922 0.00919777)
(-0.00929868 -0.0150348 0.00878368)
(-0.00711929 -0.023451 0.00734121)
(-0.00275845 -0.0312815 0.0041495)
(0.00209511 -0.0323399 0.00143393)
(0.00590705 -0.0248978 0.00590705)
(0.00584399 -0.0166188 0.00812204)
(0.00678853 -0.00819761 0.00933161)
(0.00747554 -0.00151584 0.00982211)
(0.00890436 0.00320637 0.00889918)
(0.00840298 0.00491803 0.00765855)
(0.0068935 0.00483686 0.00616885)
(0.00439944 0.00405667 0.00448095)
(0.00152094 0.00334432 0.00282269)
(-0.00204598 0.00349672 0.00336336)
(-0.00446762 0.00504139 0.00515856)
(-0.00645244 0.00584304 0.00699213)
(-0.00740761 0.00503565 0.00864494)
(-0.00686958 0.00150574 0.0102146)
(-0.00558514 -0.0041852 0.0103271)
(-0.00567761 -0.0114216 0.00958305)
(-0.00529564 -0.0199032 0.00823114)
(-0.00581298 -0.0281513 0.00581765)
(-0.00206605 -0.0356827 0.000966181)
(0.00104524 -0.0338295 -0.00159502)
(0.00429572 -0.0265426 0.00429572)
(0.00176418 -0.0187184 0.00715451)
(0.00115743 -0.0112037 0.0089501)
(0.000180327 -0.00520145 0.010223)
(0.000520776 -0.00117242 0.0110189)
(0.00136799 0.00135172 0.0109173)
(0.00142307 0.00280838 0.010106)
(0.00111069 0.00342042 0.00920042)
(0.000510197 0.00410623 0.00859892)
(-0.000542565 0.0038505 0.00871471)
(-0.000688091 0.00315102 0.00960069)
(-0.000650677 0.00238016 0.0106224)
(0.000126034 0.000461684 0.0111325)
(0.00103208 -0.00277951 0.0106484)
(0.00104332 -0.00748776 0.00979624)
(-0.000427738 -0.0139501 0.00861633)
(-0.00137 -0.0215645 0.00693372)
(-0.00423181 -0.0293432 0.00406111)
(-0.000994581 -0.0367398 -0.00208103)
(-0.000789386 -0.032256 -0.00451927)
(0.00160697 -0.0246556 0.00160697)
(-0.00275575 -0.0179165 0.00428702)
(-0.00394468 -0.0123698 0.00557362)
(-0.00510712 -0.00804428 0.00630341)
(-0.00474181 -0.00480918 0.00684809)
(-0.00379064 -0.00234558 0.00735312)
(-0.00231553 4.37936e-05 0.0081467)
(-0.000782654 0.0018467 0.00905245)
(0.000291301 0.00357746 0.0100953)
(0.000614613 0.00344505 0.00992117)
(0.00183548 0.00141451 0.00864386)
(0.0035225 -0.000536713 0.00743983)
(0.00506822 -0.00309142 0.00648372)
(0.00606448 -0.0060121 0.00582282)
(0.00631296 -0.00979391 0.00529644)
(0.00485342 -0.0144375 0.00473797)
(0.00334114 -0.0201387 0.0036603)
(-0.00136648 -0.0268345 0.00110888)
(0.000910751 -0.0346569 -0.00510308)
(-0.00386483 -0.0253117 -0.00843371)
(-0.00406075 -0.018896 -0.00406075)
(-0.00926946 -0.0152397 -0.00267107)
(-0.0109166 -0.0131442 -0.00244926)
(-0.0118178 -0.0119694 -0.00279165)
(-0.0109784 -0.011381 -0.00308866)
(-0.00924126 -0.0110747 -0.0030893)
(-0.00686492 -0.0108518 -0.00266369)
(-0.00381501 -0.010574 -0.00161249)
(-0.000928369 -0.00928271 0.00105873)
(0.00276441 -0.00956262 0.000541375)
(0.00531012 -0.0109216 -0.00221336)
(0.008222 -0.0111777 -0.00364078)
(0.0106754 -0.0115571 -0.00442108)
(0.0124777 -0.0120759 -0.00453171)
(0.0132485 -0.0129161 -0.00415181)
(0.0121369 -0.0143081 -0.00362805)
(0.0101908 -0.0165631 -0.00364436)
(0.00461288 -0.020357 -0.00482611)
(0.00409376 -0.0269107 -0.00920994)
(-0.0102654 -0.0146945 -0.0160749)
(-0.0165341 -0.00917909 -0.0165341)
(-0.022841 -0.00647185 -0.0188735)
(-0.0250174 -0.00482868 -0.0214588)
(-0.0255914 -0.00350803 -0.0242997)
(-0.0240937 -0.0022321 -0.0270771)
(-0.0209908 -0.000831635 -0.0295999)
(-0.0163813 0.000820733 -0.0315793)
(-0.0100358 0.00264937 -0.0323894)
(-0.00402962 0.00462519 -0.0300525)
(0.00560765 0.00436494 -0.030604)
(0.0115018 0.00221513 -0.0332807)
(0.0179763 0.000373233 -0.0328178)
(0.0227438 -0.00128459 -0.0310607)
(0.0259488 -0.00274234 -0.0286048)
(0.0274245 -0.00408129 -0.0257668)
(0.026666 -0.00545086 -0.0227948)
(0.0241877 -0.00713124 -0.0200609)
(0.0174068 -0.00989925 -0.0175724)
(0.0107126 -0.0155585 -0.0171395)
(-0.000116669 -0.00189857 -0.00106351)
(0.000495829 -0.00126939 0.000755562)
(0.00133252 -0.000797293 0.00133252)
(0.0014381 -0.000553785 0.00135502)
(0.00162868 -0.00050404 0.00119841)
(0.00166138 -0.000677691 0.000974599)
(0.00176892 -0.000610438 0.000821327)
(0.0018013 -0.000451789 0.000827492)
(0.0017729 -0.000329951 0.000931865)
(0.00146746 -0.000347534 0.00108886)
(0.000631873 -0.000568852 0.00160546)
(-0.000410431 -0.000736884 0.00185809)
(-0.000844086 -0.00084596 0.00162898)
(-0.000810035 -0.00082901 0.00122217)
(-0.000433851 -0.0004621 0.000749809)
(0.00033924 -0.000226923 0.000255989)
(0.000520513 -0.00150378 -0.000580885)
(0.000188269 -0.00159167 -0.00110155)
(0.000389116 -0.00168801 -0.00191835)
(0.000160166 -0.000958228 -0.00343138)
(0.00110831 0.00291305 0.00157504)
(0.00157492 0.00108015 0.0016837)
(0.000194746 -0.000154142 0.000194746)
(-0.00185924 -0.00107131 -0.000811707)
(-0.00286084 -0.00154606 -0.000951215)
(-0.00277013 -0.00138997 -0.000526161)
(-0.00224232 -0.00112825 -0.000486254)
(-0.00158361 -0.00119043 -0.000581173)
(-0.000881106 -0.00111448 -0.000846937)
(-0.000263961 -0.0010846 -0.00114463)
(0.00040064 -0.00129105 -0.00104375)
(0.00114741 -0.00145511 -0.000570971)
(0.00183315 -0.00141351 -0.000150565)
(0.00221463 -0.00138758 0.000117422)
(0.00218241 -0.00126847 -6.63201e-05)
(0.000379775 -0.000286365 0.000819565)
(-0.00260449 0.00101745 0.00244828)
(-0.00456834 0.00206561 0.00410787)
(-0.00495208 0.00310632 0.00639744)
(-0.00343385 0.00415297 0.00772898)
(0.0044178 0.00305017 0.0123421)
(0.00761168 0.00422583 0.0112947)
(0.00862373 0.00449955 0.00862373)
(0.00681401 0.00369429 0.00559831)
(0.00369402 0.00189147 0.00310024)
(-0.000111859 -0.000883362 0.000528725)
(-0.00211176 -0.00213626 -0.00131457)
(-0.00209166 -0.00226183 -0.00173053)
(-0.00151246 -0.00204697 -0.00242361)
(-0.000582196 -0.00211417 -0.00295433)
(0.000554779 -0.00231589 -0.00264775)
(0.00137601 -0.00252488 -0.00176312)
(0.00135875 -0.00231722 -0.000972187)
(-0.00113615 -0.00079863 0.000977164)
(-0.00496529 0.00159901 0.0030832)
(-0.00824634 0.00326795 0.00534514)
(-0.0106192 0.00441789 0.00830604)
(-0.0110499 0.00432074 0.0111536)
(-0.0086167 0.00248629 0.013236)
(-0.00464627 -0.000516572 0.0137955)
(0.00409335 -0.00678091 0.012284)
(0.0089675 -0.00248161 0.013621)
(0.0129414 0.00172737 0.0129414)
(0.0142385 0.00448977 0.0107564)
(0.0128948 0.00516127 0.00813986)
(0.0097632 0.00402816 0.00526564)
(0.00570308 0.0016348 0.0026338)
(0.00177803 -0.0016177 -0.000276084)
(-0.00010563 -0.00300392 -0.00258334)
(-0.000189861 -0.00358149 -0.00388972)
(7.4473e-05 -0.00341366 -0.00332738)
(-0.00131012 -0.00222397 -0.00117111)
(-0.00523595 0.000966837 0.00183858)
(-0.00942293 0.00362379 0.00448901)
(-0.0130288 0.00505978 0.00725774)
(-0.0154179 0.004883 0.00991944)
(-0.0157535 0.00290317 0.0123139)
(-0.0133816 -0.00141671 0.0137922)
(-0.00899826 -0.00637569 0.0134551)
(-0.00400883 -0.0112631 0.0110892)
(0.00349342 -0.0159472 0.00596413)
(0.00846044 -0.0111407 0.0101934)
(0.0120218 -0.00609783 0.0120218)
(0.0150056 -0.000556046 0.0119385)
(0.01612 0.0031747 0.0105615)
(0.0150311 0.00448118 0.00877078)
(0.0124748 0.00406181 0.00674221)
(0.0090811 0.0022963 0.00418391)
(0.00462514 -0.000730504 0.000877329)
(0.0011719 -0.00326376 -0.00231901)
(-0.00213737 -0.00232304 -0.00128896)
(-0.00639687 0.00158557 0.00286058)
(-0.0104841 0.00406658 0.00594298)
(-0.0138242 0.0050369 0.00839066)
(-0.0159501 0.00434202 0.0103756)
(-0.0162779 0.00156138 0.0120166)
(-0.0145976 -0.00335675 0.0127942)
(-0.0117801 -0.00913081 0.0121657)
(-0.00851708 -0.0145309 0.00964386)
(-0.00349269 -0.0199294 0.00459613)
(0.00288322 -0.0222989 -0.000714875)
(0.00812204 -0.0166188 0.00584399)
(0.00968208 -0.0112726 0.00968208)
(0.0113322 -0.00522874 0.0115336)
(0.0123193 -2.7337e-05 0.0119436)
(0.0126033 0.00338143 0.0109809)
(0.0113543 0.00455584 0.00948994)
(0.00908141 0.00424603 0.00757093)
(0.00580465 0.00313962 0.00511099)
(0.00189675 0.0017506 0.00209893)
(-0.00301706 0.00239173 0.00313184)
(-0.00623258 0.00425262 0.00612559)
(-0.00905913 0.00540106 0.00858871)
(-0.010886 0.00504688 0.010572)
(-0.011612 0.00263053 0.0120439)
(-0.0111338 -0.00180241 0.0125575)
(-0.0107704 -0.0074534 0.0117355)
(-0.00946203 -0.0137877 0.00954286)
(-0.00819341 -0.019406 0.00533101)
(-0.00283214 -0.0254953 -0.00175546)
(0.00149594 -0.0259106 -0.00576409)
(0.00715451 -0.0187184 0.00176418)
(0.0067037 -0.0131547 0.0067037)
(0.00711232 -0.00722434 0.00988166)
(0.00646951 -0.00209283 0.0118248)
(0.00634501 0.00151444 0.0124253)
(0.00584374 0.00333739 0.0118408)
(0.00470759 0.00389744 0.0107571)
(0.00303468 0.00368937 0.00947396)
(0.00104078 0.00347133 0.0082232)
(-0.00132305 0.00352953 0.00838757)
(-0.00277592 0.00395029 0.00971916)
(-0.0040829 0.00420301 0.0109477)
(-0.00474927 0.00322885 0.0118827)
(-0.0051888 0.000628719 0.012195)
(-0.00559567 -0.00360727 0.0112278)
(-0.00661037 -0.00913319 0.00933675)
(-0.00638761 -0.0152744 0.00618451)
(-0.00707204 -0.0211108 0.0011713)
(-0.00133487 -0.0287749 -0.00663649)
(-0.00101242 -0.026975 -0.00989086)
(0.00428702 -0.0179165 -0.00275575)
(0.0019255 -0.0122196 0.0019255)
(0.00183507 -0.00663317 0.00492057)
(0.000797411 -0.00165434 0.00673752)
(0.000978561 0.00231021 0.00813229)
(0.00126457 0.00455425 0.00873707)
(0.00139574 0.00581785 0.00884329)
(0.00133156 0.00648653 0.00914875)
(0.000878885 0.00714143 0.00970119)
(-0.000156244 0.00710038 0.00951371)
(-0.000420106 0.00641206 0.00866128)
(-0.000229883 0.00597986 0.00806171)
(9.42988e-05 0.00460777 0.00765703)
(0.000566541 0.0017612 0.00641244)
(0.000391753 -0.00278059 0.00524793)
(-0.000940992 -0.00809807 0.00365423)
(-0.0012121 -0.0138873 0.000901318)
(-0.0038619 -0.0198253 -0.00358384)
(0.00124544 -0.0292592 -0.0108543)
(-0.00469641 -0.0230202 -0.0145478)
(-0.00267107 -0.0152397 -0.00926946)
(-0.00656695 -0.0112158 -0.00656695)
(-0.00702328 -0.00871379 -0.00530701)
(-0.0075195 -0.0071978 -0.0050069)
(-0.00660356 -0.00627242 -0.00486805)
(-0.00503984 -0.00559619 -0.00409128)
(-0.00303797 -0.00504663 -0.00233537)
(-0.000872798 -0.00471972 0.000319417)
(0.000532261 -0.00311058 0.00460446)
(0.00120587 -0.00302599 0.00412184)
(0.00270554 -0.00479186 -0.000398213)
(0.00487742 -0.00499473 -0.00353145)
(0.00690671 -0.00571313 -0.00574926)
(0.00839856 -0.0065921 -0.00658111)
(0.00920258 -0.00778817 -0.0067393)
(0.00846414 -0.00953042 -0.00690928)
(0.00769076 -0.0122193 -0.00795116)
(0.00343961 -0.0164461 -0.0104083)
(0.00500711 -0.0244769 -0.0157132)
(-0.0121881 -0.0132562 -0.0222141)
(-0.0188735 -0.00647185 -0.022841)
(-0.0254695 -0.00319016 -0.0254695)
(-0.0276772 -0.00101887 -0.0286562)
(-0.0283309 0.000765449 -0.0322906)
(-0.0269321 0.002474 -0.0360109)
(-0.0238826 0.00426884 -0.0394517)
(-0.0191697 0.00627338 -0.0422528)
(-0.0124697 0.00841447 -0.0437059)
(-0.00552118 0.0106149 -0.0411777)
(0.00717361 0.0103004 -0.0417761)
(0.0140551 0.00800378 -0.0447718)
(0.0209406 0.0058718 -0.0437826)
(0.0258189 0.00389855 -0.0413004)
(0.0289535 0.00206816 -0.0379834)
(0.0303305 0.000305096 -0.034258)
(0.029494 -0.00152388 -0.030509)
(0.0270008 -0.00373168 -0.0271558)
(0.0199256 -0.00708495 -0.0243507)
(0.0127731 -0.0140522 -0.0237147)
(-8.91334e-05 -0.000754 -0.000920152)
(0.000562247 -0.000500078 0.00067515)
(0.00135502 -0.000553785 0.0014381)
(0.0016157 -0.000481728 0.0016157)
(0.00188015 -0.000614586 0.00160281)
(0.00195807 -0.000715005 0.00150743)
(0.00210069 -0.00055562 0.00143497)
(0.00207969 -0.000392066 0.0014498)
(0.00192846 -0.000256762 0.00156118)
(0.0014016 -0.000221728 0.00184414)
(0.00012274 -0.000500945 0.00227332)
(-0.00117982 -0.00076009 0.00239853)
(-0.00177308 -0.000892195 0.00217081)
(-0.0018261 -0.000896754 0.00176182)
(-0.00159802 -0.000587193 0.00126362)
(-0.00108543 -0.000165062 0.000782793)
(-0.000451261 -0.000201376 -9.83086e-05)
(-0.000305753 -0.00106548 -0.00118375)
(-0.000214849 -0.00126705 -0.00228757)
(7.79901e-05 -0.00161104 -0.00414283)
(-0.000278463 0.000386855 -0.00507611)
(-0.000350943 -0.000431619 -0.00255495)
(-0.000811707 -0.00107131 -0.00185924)
(-0.00153297 -0.00153184 -0.00153297)
(-0.00158885 -0.00150406 -0.00084973)
(-0.00129897 -0.0012173 -0.000276045)
(-0.000892664 -0.000938513 -7.78785e-05)
(-0.000611183 -0.000938529 1.84465e-05)
(-0.000387989 -0.000924654 -6.88439e-05)
(-0.000315444 -0.000994383 -0.000133117)
(-0.000245558 -0.00121694 7.38527e-05)
(7.48096e-06 -0.00133618 0.000459022)
(0.000340874 -0.00129705 0.00069479)
(0.000606285 -0.00118696 0.000784464)
(0.000644152 -0.00112453 0.000471167)
(-0.000105675 -0.000975468 0.00041589)
(-0.00165708 -3.58738e-06 0.00117898)
(-0.00267988 0.000968357 0.00188769)
(-0.00267963 0.0020401 0.00255705)
(-0.00142594 0.00298477 0.00128617)
(0.0030371 0.00628367 0.00896741)
(0.00503244 0.00497314 0.00883699)
(0.00559831 0.00369429 0.00681401)
(0.00438487 0.00203592 0.00438487)
(0.0023094 -9.28777e-05 0.002315)
(8.56148e-05 -0.00185318 0.000271803)
(-0.000884157 -0.00207038 -0.000761718)
(-0.000945281 -0.00205394 -0.00112761)
(-0.000782618 -0.00209446 -0.0016577)
(-0.000463129 -0.00222049 -0.00199843)
(-0.000116685 -0.00234096 -0.00162818)
(4.32484e-05 -0.00232128 -0.000780429)
(-0.000391204 -0.00224224 1.30328e-05)
(-0.0017263 -0.00171419 0.00119179)
(-0.00404021 -0.00029934 0.00300424)
(-0.00629596 0.00138173 0.00516092)
(-0.00785053 0.00308449 0.00781663)
(-0.00816282 0.00445084 0.0104719)
(-0.00640923 0.00524877 0.0123843)
(-0.00359138 0.00574754 0.0124641)
(0.00382618 0.00301312 0.0148457)
(0.00757399 0.00373624 0.0155203)
(0.0107564 0.00448977 0.0142385)
(0.0117049 0.00476178 0.0117049)
(0.0106384 0.00403428 0.00875297)
(0.00817126 0.00226038 0.00566433)
(0.00494042 -0.000270429 0.00289931)
(0.00232296 -0.00241056 0.000484179)
(0.000590321 -0.0033913 -0.00141344)
(-4.78723e-05 -0.00381729 -0.00260886)
(-0.000598713 -0.00369209 -0.00198551)
(-0.00221839 -0.00281084 -2.7144e-06)
(-0.00513457 -0.00101916 0.0024295)
(-0.00847624 0.00142164 0.00514865)
(-0.011299 0.00332064 0.00807521)
(-0.0132144 0.00432534 0.0110758)
(-0.0136097 0.00426046 0.013938)
(-0.0119088 0.00310812 0.016036)
(-0.00817845 0.00140179 0.0164258)
(-0.0040861 -0.000496767 0.014628)
(0.00400394 -0.00570475 0.00891188)
(0.00838764 -0.00302228 0.0131988)
(0.0119385 -0.000556046 0.0150056)
(0.0144866 0.0020477 0.0144866)
(0.0152885 0.00341385 0.0127025)
(0.0143733 0.0035348 0.0104698)
(0.0120968 0.00252522 0.00802599)
(0.00868609 0.000429427 0.00516405)
(0.00454261 -0.00233271 0.00201321)
(0.00109507 -0.0040157 -0.000763702)
(-0.00256338 -0.00331717 0.000297453)
(-0.00652393 -0.000457035 0.0038579)
(-0.0106525 0.00210027 0.00720672)
(-0.0138048 0.00342972 0.00996295)
(-0.0158169 0.00360435 0.012375)
(-0.0162739 0.00256481 0.0143794)
(-0.0150416 0.000259036 0.0155464)
(-0.0123642 -0.00300749 0.0150907)
(-0.00889632 -0.00586972 0.0122653)
(-0.00418695 -0.00947782 0.00690606)
(0.00378787 -0.0133 -0.000217994)
(0.00933161 -0.00819761 0.00678853)
(0.0115336 -0.00522874 0.0113322)
(0.0134166 -0.00172885 0.0134166)
(0.0144478 0.00127959 0.0136945)
(0.0143492 0.0030585 0.0126755)
(0.0129397 0.00356658 0.0110957)
(0.0103988 0.00314158 0.00902207)
(0.00670902 0.0019431 0.00625663)
(0.00226435 8.45933e-05 0.00273694)
(-0.00351152 0.00103158 0.00387433)
(-0.00741543 0.00312233 0.00751263)
(-0.0107523 0.00418934 0.0102422)
(-0.0129725 0.00410309 0.0123301)
(-0.014129 0.00280608 0.0137957)
(-0.014118 0.000280475 0.0144285)
(-0.0133316 -0.00319705 0.0135751)
(-0.0116274 -0.0070798 0.010967)
(-0.00955854 -0.0106039 0.00583824)
(-0.00364132 -0.016767 -0.00186995)
(0.00190566 -0.0198123 -0.00689025)
(0.0089501 -0.0112037 0.00115743)
(0.00988166 -0.00722434 0.00711232)
(0.010909 -0.00349509 0.010909)
(0.0107384 -0.00041876 0.0130267)
(0.0102245 0.00184037 0.01347)
(0.00913579 0.00287988 0.0129235)
(0.00733713 0.00296639 0.0118308)
(0.00480567 0.00241188 0.0103996)
(0.00171701 0.00177516 0.00872749)
(-0.00214624 0.00203579 0.00888013)
(-0.00465798 0.00296377 0.0106464)
(-0.00688839 0.00354399 0.012037)
(-0.00840049 0.00307751 0.0130339)
(-0.00947968 0.00148334 0.0134018)
(-0.0101853 -0.00125403 0.0126961)
(-0.0105793 -0.00469025 0.0104251)
(-0.00957561 -0.00876477 0.00647753)
(-0.00879766 -0.0132175 0.000320856)
(-0.00156816 -0.0226805 -0.008063)
(-0.00136033 -0.023505 -0.0117071)
(0.00557362 -0.0123698 -0.00394468)
(0.00492057 -0.00663317 0.00183507)
(0.00587094 -0.00174876 0.00587094)
(0.00539586 0.00234494 0.00843107)
(0.00508572 0.0048018 0.00961436)
(0.00477431 0.00606039 0.0100712)
(0.00417502 0.0067188 0.010094)
(0.00319029 0.00698469 0.0101201)
(0.00162771 0.00741882 0.0103366)
(-0.000884292 0.00741412 0.0101632)
(-0.00226988 0.00714917 0.00970011)
(-0.0030273 0.00717332 0.00934437)
(-0.00344469 0.00643749 0.00899992)
(-0.00381999 0.00479786 0.00828019)
(-0.00431812 0.00179343 0.00706692)
(-0.00496216 -0.00269677 0.00460405)
(-0.00403159 -0.00782363 0.000683701)
(-0.00496267 -0.0139835 -0.00501765)
(0.00172678 -0.0257296 -0.0128948)
(-0.0056046 -0.0221811 -0.0166961)
(-0.00244926 -0.0131442 -0.0109166)
(-0.00530701 -0.00871379 -0.00702328)
(-0.00436683 -0.00589927 -0.00436683)
(-0.00414643 -0.00408185 -0.00284133)
(-0.0026469 -0.00278725 -0.00118423)
(-0.00165962 -0.0021828 -0.000411559)
(-0.000753003 -0.00193051 0.000250709)
(0.000316668 -0.00200358 0.00159843)
(0.000750989 -7.17162e-05 0.00396949)
(0.000903856 0.000154829 0.00353082)
(0.00164717 -0.0016219 0.000698462)
(0.00288174 -0.00143544 -0.00123785)
(0.00385962 -0.00183183 -0.00239604)
(0.00485949 -0.00284215 -0.00351249)
(0.0060826 -0.00442314 -0.00502737)
(0.00602663 -0.00644744 -0.00633448)
(0.00662768 -0.00945941 -0.00869633)
(0.00343447 -0.0141451 -0.012283)
(0.00600238 -0.0235365 -0.0180306)
(-0.014001 -0.01275 -0.0242885)
(-0.0214588 -0.00482868 -0.0250174)
(-0.0286562 -0.00101887 -0.0276772)
(-0.0311027 0.00152334 -0.0311027)
(-0.0319576 0.00357914 -0.0351333)
(-0.0307066 0.00550134 -0.039388)
(-0.0276602 0.00747611 -0.0433528)
(-0.0227669 0.00964845 -0.0467486)
(-0.0155004 0.0120275 -0.0489097)
(-0.00732945 0.0147297 -0.0470892)
(0.00894899 0.014325 -0.0476473)
(0.0170584 0.0115624 -0.0499589)
(0.0245423 0.00920067 -0.0482205)
(0.0296594 0.00709863 -0.0452212)
(0.0328212 0.00514014 -0.0414738)
(0.0340648 0.00318485 -0.0372829)
(0.0330634 0.0010888 -0.0331879)
(0.0303683 -0.00149113 -0.0296114)
(0.0226852 -0.00538129 -0.0267673)
(0.014712 -0.0135123 -0.0259604)
(-7.79879e-05 -0.000280526 -0.000125595)
(0.000487376 -0.000283026 0.00104677)
(0.00119841 -0.00050404 0.00162868)
(0.00160281 -0.000614586 0.00188015)
(0.00191649 -0.00072431 0.00191649)
(0.00213375 -0.000651506 0.00191842)
(0.00227153 -0.000515709 0.00190366)
(0.00229014 -0.0004411 0.00210352)
(0.00206678 -0.000364833 0.00250117)
(0.00116364 -0.000293 0.00313211)