/*--------------------------------*- C++ -*----------------------------------*\
| =========                 |                                                 |
| \\      /  F ield         | OpenFOAM: The Open Source CFD Toolbox           |
|  \\    /   O peration     | Version:  v1912                                 |
|   \\  /    A nd           | Website:  www.openfoam.com                      |
|    \\/     M anipulation  |                                                 |
\*---------------------------------------------------------------------------*/
FoamFile
{
    version     2.0;
    format      ascii;
    class       volScalarField;
    location    "800";
    object      p;
}
// * * * * * * * * * * * * * * * * * * * * * * * * * * * * * * * * * * * * * //

dimensions      [0 2 -2 0 0 0 0];


internalField   nonuniform List<scalar> 
2000
(
-0.0459968
0.0714145
0.125995
0.119106
0.103278
0.0969729
0.0963677
0.0977164
0.0979338
0.0977125
0.0978526
0.0975295
0.0972719
0.0972162
0.0972739
0.0972955
0.0972524
0.0972309
0.0972253
0.0972289
0.0972326
0.0972261
0.0972047
0.0971701
0.0971288
0.0970872
0.0970505
0.09702
0.0969934
0.096968
0.0969419
0.0969143
0.0968856
0.0968559
0.0968256
0.0967954
0.096766
0.0967378
0.0967109
0.096685
0.0966602
0.0966368
0.0966148
0.0965945
0.0965764
0.0965606
0.0965476
0.0965388
0.0965365
0.096541
0.0965432
0.0965012
0.0962971
0.095689
0.0943165
0.0917912
0.0878262
0.0823735
0.0759018
0.0698362
0.0662775
0.0663288
0.0709724
0.0797908
0.0918119
0.106027
0.121592
0.137723
0.153519
0.167908
0.179853
0.188487
0.192972
0.192494
0.186255
0.173582
0.153341
0.125328
0.0838322
0.0415427
0.00725029
0.0924267
0.131245
0.118049
0.100308
0.0961101
0.0996516
0.102092
0.0993373
0.0960935
0.095656
0.0969562
0.0974043
0.0972722
0.0974965
0.0973983
0.0972743
0.0971717
0.0971369
0.0971257
0.0971435
0.0971837
0.0971907
0.0971671
0.097132
0.0970948
0.0970598
0.0970288
0.0970022
0.0969772
0.0969487
0.0969188
0.0968884
0.0968581
0.0968277
0.0967976
0.0967688
0.0967422
0.0967175
0.0966941
0.0966721
0.0966513
0.0966318
0.0966129
0.0965941
0.0965751
0.0965565
0.0965425
0.0965473
0.096595
0.0966901
0.0967464
0.0964846
0.0953492
0.0925717
0.0874932
0.0799631
0.0705854
0.060993
0.0542799
0.054008
0.0593387
0.0678037
0.0786815
0.0914923
0.105875
0.121268
0.136915
0.151918
0.165282
0.176004
0.183111
0.1857
0.183035
0.174445
0.159383
0.136936
0.10727
0.0663877
0.0294366
0.0583181
0.0921161
0.114807
0.11325
0.104052
0.0998772
0.0999154
0.0992781
0.0973721
0.0966874
0.0982775
0.099876
0.0988958
0.0964363
0.0955421
0.096416
0.0973005
0.0974762
0.0973166
0.0972116
0.097153
0.0971164
0.0970975
0.0971096
0.0971174
0.0971067
0.0970768
0.0970325
0.0969971
0.0969628
0.0969363
0.0969113
0.096886
0.0968616
0.0968382
0.0968142
0.096789
0.0967636
0.0967397
0.0967185
0.0967011
0.0966878
0.0966762
0.0966623
0.0966466
0.0966445
0.0966875
0.0968091
0.0970408
0.0973937
0.0978102
0.0980715
0.0977667
0.096282
0.0929498
0.0873604
0.0797462
0.0713127
0.0641017
0.0596766
0.0587195
0.0622221
0.069531
0.0795129
0.0913859
0.104682
0.118838
0.133047
0.146368
0.157824
0.166471
0.171455
0.17206
0.167723
0.157962
0.142431
0.120538
0.0928108
0.0565369
0.0249923
0.0833053
0.0933191
0.105869
0.109948
0.107256
0.104237
0.102576
0.100844
0.0992216
0.0984044
0.0982174
0.0981199
0.0977752
0.0970804
0.0965562
0.0975003
0.0987541
0.0980159
0.0968574
0.0964551
0.0964042
0.0965772
0.0968653
0.0970892
0.0972188
0.0972971
0.0973408
0.0973177
0.0972336
0.097135
0.0970396
0.0969576
0.0968961
0.0968619
0.0968414
0.096822
0.0967979
0.0967755
0.0967572
0.0967442
0.0967382
0.0967395
0.0967427
0.0967388
0.0967282
0.0967385
0.0968287
0.0970316
0.0973916
0.0979055
0.0985359
0.0989363
0.098727
0.0973771
0.0943869
0.0895346
0.0831007
0.0758885
0.0690646
0.0645134
0.0633257
0.0661798
0.0726635
0.0817512
0.0926034
0.104614
0.117129
0.129342
0.140384
0.149416
0.155683
0.158531
0.157423
0.151936
0.141709
0.126516
0.105962
0.0806548
0.0487099
0.0207989
0.095646
0.0992464
0.106766
0.110736
0.109608
0.107279
0.105898
0.104859
0.103557
0.102106
0.100755
0.0996667
0.09894
0.0981025
0.09714
0.0971693
0.0977235
0.0979378
0.0977889
0.0973371
0.0969966
0.0968824
0.0969398
0.0971191
0.0973105
0.097424
0.0973821
0.0972002
0.0970719
0.0969737
0.0968978
0.0968418
0.0968044
0.0968036
0.0968239
0.0968386
0.096843
0.0968317
0.0968107
0.0967906
0.0967764
0.0967682
0.0967586
0.096731
0.0966707
0.0965868
0.0965463
0.0966932
0.0970361
0.0975451
0.0981196
0.0984976
0.098284
0.0970013
0.0942428
0.0898772
0.0842154
0.0780718
0.0726881
0.0694754
0.0692583
0.07225
0.0780931
0.0860671
0.0954453
0.105597
0.115893
0.125649
0.134168
0.140795
0.144947
0.146119
0.143882
0.137882
0.127809
0.113469
0.0945471
0.0716255
0.043214
0.0181776
0.104087
0.105921
0.109874
0.112045
0.11123
0.109622
0.108663
0.107988
0.107029
0.105838
0.104709
0.103719
0.102706
0.101384
0.10001
0.0993022
0.0991721
0.0990422
0.0984767
0.0975922
0.0969756
0.0967713
0.0968593
0.0970655
0.0972348
0.0973279
0.0973678
0.097362
0.0972841
0.0971771
0.0970693
0.0969743
0.0968991
0.0968593
0.0968117
0.0967592
0.0967194
0.0967031
0.0966901
0.0966828
0.0966894
0.0967103
0.0967382
0.0967628
0.0967809
0.0968143
0.096922
0.097178
0.0975835
0.098083
0.0985561
0.0987735
0.0984127
0.0971427
0.0947421
0.0912308
0.0869609
0.082616
0.0790787
0.0772087
0.0775546
0.0802568
0.0850955
0.0915824
0.0991346
0.107193
0.115221
0.122673
0.129003
0.133692
0.136266
0.136298
0.133407
0.127259
0.117545
0.10407
0.0865262
0.0654458
0.0394806
0.0165385
0.110898
0.111721
0.112958
0.113296
0.112509
0.111524
0.110865
0.110326
0.109659
0.108903
0.108179
0.107459
0.106599
0.105491
0.104325
0.10347
0.102956
0.102358
0.101389
0.100289
0.099474
0.0990337
0.0988428
0.0987511
0.0986641
0.0985613
0.0984419
0.0982794
0.0980638
0.0978506
0.0976713
0.0975266
0.0974086
0.0973446
0.0974844
0.0975536
0.0975548
0.0975736
0.0976217
0.097692
0.0977856
0.097903
0.0980393
0.0981887
0.0983518
0.0985447
0.0988001
0.0991513
0.0995929
0.100065
0.100452
0.100574
0.10021
0.0991558
0.0973048
0.0947244
0.0917004
0.0887195
0.0863805
0.0852593
0.0857525
0.0879773
0.0917831
0.0968219
0.102656
0.108842
0.114948
0.120539
0.125174
0.128421
0.129866
0.129123
0.125831
0.119657
0.110287
0.0975078
0.0810037
0.0612503
0.0369389
0.0154993
0.116775
0.11672
0.115805
0.114596
0.113773
0.113256
0.112779
0.112309
0.111866
0.111429
0.110977
0.11048
0.109881
0.109139
0.108334
0.107642
0.107101
0.106473
0.105605
0.104651
0.103851
0.103283
0.102883
0.10257
0.102292
0.102029
0.101769
0.101497
0.101221
0.100975
0.100777
0.100629
0.100536
0.100527
0.100615
0.100672
0.100699
0.100751
0.100844
0.100971
0.101124
0.101304
0.101505
0.101724
0.10196
0.102221
0.102521
0.102871
0.103255
0.103618
0.103862
0.103861
0.103468
0.102562
0.101098
0.0991488
0.0969334
0.0947987
0.0931616
0.0924192
0.0928499
0.0945457
0.097413
0.101216
0.105641
0.110343
0.114971
0.119161
0.122537
0.124722
0.125345
0.124044
0.120474
0.114305
0.105217
0.0929774
0.0772476
0.0584447
0.0352704
0.0148229
0.122179
0.121189
0.118225
0.115682
0.114926
0.114838
0.114504
0.114095
0.113831
0.113613
0.113343
0.113018
0.112629
0.11215
0.111614
0.111123
0.110709
0.110236
0.109602
0.108883
0.108232
0.107725
0.107341
0.107025
0.106742
0.10647
0.106201
0.105933
0.105672
0.105437
0.105241
0.105093
0.105001
0.10497
0.10497
0.105011
0.105065
0.105136
0.105236
0.105363
0.105514
0.105685
0.105871
0.106071
0.106281
0.106504
0.106744
0.107
0.107251
0.107452
0.107531
0.107398
0.106958
0.106137
0.104919
0.103367
0.101648
0.100012
0.0987562
0.0981656
0.0984471
0.0996826
0.10182
0.104696
0.108073
0.111673
0.115198
0.118335
0.12076
0.122135
0.122127
0.1204
0.116624
0.110476
0.101627
0.0898224
0.0746907
0.0565853
0.0342056
0.0143667
0.127409
0.125222
0.120027
0.116383
0.11592
0.116246
0.116018
0.115694
0.115609
0.115578
0.115455
0.115264
0.115022
0.114711
0.114349
0.114011
0.11372
0.113386
0.112933
0.112408
0.111922
0.11154
0.11125
0.111012
0.110794
0.110581
0.110367
0.110153
0.109945
0.109755
0.109594
0.109474
0.109399
0.109369
0.109323
0.109351
0.109404
0.109462
0.109536
0.10963
0.109742
0.109867
0.110003
0.110144
0.11029
0.110439
0.11059
0.110736
0.110858
0.110921
0.110871
0.110641
0.110167
0.109403
0.108343
0.107043
0.105632
0.104296
0.103259
0.102735
0.102884
0.103777
0.105381
0.107573
0.110162
0.11292
0.115591
0.117905
0.119576
0.120309
0.1198
0.117741
0.113817
0.10771
0.099082
0.0876516
0.0730035
0.0554258
0.0335875
0.0140974
0.132647
0.128798
0.121105
0.116714
0.116806
0.117498
0.117326
0.117112
0.117215
0.117352
0.117363
0.117291
0.11717
0.116985
0.11675
0.11652
0.116315
0.116073
0.11574
0.115351
0.114988
0.114704
0.114492
0.11432
0.114162
0.114005
0.113848
0.11369
0.113535
0.113391
0.11327
0.113177
0.113113
0.11307
0.113035
0.113049
0.113086
0.113126
0.113176
0.113241
0.113319
0.113405
0.113495
0.113588
0.113678
0.113765
0.113844
0.113907
0.113937
0.113904
0.113768
0.113479
0.112992
0.112275
0.111331
0.110208
0.109008
0.107876
0.106984
0.106499
0.106545
0.107179
0.108377
0.110041
0.112014
0.114104
0.116091
0.11774
0.118801
0.119013
0.118104
0.115789
0.111767
0.105725
0.0973117
0.0862181
0.0719757
0.0548085
0.0333041
0.0140149
0.138014
0.131845
0.121431
0.116772
0.117638
0.118601
0.118451
0.118375
0.118662
0.118943
0.119072
0.119114
0.119103
0.119029
0.118902
0.118762
0.118628
0.118457
0.118212
0.117918
0.117642
0.117426
0.117265
0.117137
0.11702
0.116905
0.116789
0.116671
0.116554
0.116446
0.116353
0.11628
0.116229
0.116191
0.116169
0.116176
0.116201
0.116232
0.116269
0.116316
0.11637
0.116428
0.116487
0.116543
0.116593
0.116633
0.116659
0.116662
0.116626
0.116528
0.116335
0.11601
0.11552
0.114845
0.113991
0.112999
0.111952
0.110966
0.110176
0.109712
0.109671
0.110099
0.110974
0.112215
0.11369
0.115235
0.11666
0.117761
0.118322
0.118111
0.116883
0.114376
0.110301
0.104345
0.0961439
0.0853599
0.0714654
0.0546277
0.0332813
0.0141336
0.143586
0.134258
0.121039
0.116676
0.118439
0.119556
0.119422
0.11951
0.119965
0.120367
0.1206
0.120744
0.120834
0.120859
0.120826
0.12077
0.120704
0.120599
0.120427
0.120212
0.120004
0.119841
0.119722
0.119628
0.119543
0.119459
0.119373
0.119285
0.119197
0.119115
0.119043
0.118985
0.118942
0.11892
0.118906
0.118908
0.118926
0.118949
0.118976
0.119009
0.119045
0.119082
0.119116
0.119144
0.119161
0.119165
0.11915
0.119106
0.119021
0.118874
0.118641
0.118292
0.117803
0.117162
0.116378
0.115486
0.114553
0.113674
0.112956
0.1125
0.112383
0.112639
0.113247
0.114138
0.115201
0.116293
0.117252
0.117903
0.118055
0.117507
0.116034
0.113393
0.109303
0.103449
0.0954531
0.0849524
0.0713589
0.054795
0.0334624
0.0144577
0.149405
0.135921
0.120026
0.116543
0.119205
0.120364
0.120269
0.120537
0.12114
0.12164
0.121966
0.122202
0.12238
0.122491
0.122542
0.122561
0.122559
0.122515
0.12241
0.122262
0.122115
0.122
0.121918
0.121856
0.1218
0.121743
0.121683
0.121619
0.121556
0.121495
0.12144
0.121397
0.121366
0.12135
0.121339
0.12134
0.121352
0.12137
0.121388
0.121408
0.12143
0.121449
0.121463
0.121467
0.121458
0.121432
0.121382
0.1213
0.121175
0.12099
0.120724
0.120356
0.119868
0.119253
0.118521
0.117703
0.116855
0.116052
0.11538
0.114919
0.114729
0.114833
0.115213
0.11581
0.116527
0.117243
0.117822
0.118109
0.11794
0.117133
0.115483
0.112758
0.108682
0.102937
0.0951324
0.0848853
0.0715509
0.0552253
0.0337985
0.0149686
0.155479
0.136723
0.118539
0.116465
0.119919
0.121037
0.12102
0.121473
0.122198
0.122781
0.12319
0.123508
0.123764
0.123949
0.124073
0.124158
0.124215
0.124227
0.12418
0.124092
0.123998
0.123926
0.123879
0.123846
0.123817
0.123785
0.123748
0.123707
0.123665
0.123623
0.123584
0.123553
0.123531
0.123519
0.123512
0.123513
0.123521
0.123533
0.123544
0.123554
0.123563
0.123567
0.123563
0.123547
0.123514
0.123461
0.123381
0.123266
0.123106
0.122886
0.122591
0.122204
0.121712
0.121113
0.120415
0.119647
0.118855
0.118099
0.117449
0.116968
0.116702
0.116669
0.116852
0.1172
0.117633
0.118049
0.118327
0.118335
0.117925
0.116932
0.115164
0.112395
0.108352
0.102714
0.0950808
0.0850546
0.071941
0.0558334
0.0342454
0.0156222
0.161787
0.136591
0.116754
0.11649
0.120556
0.121597
0.121698
0.122325
0.12315
0.123805
0.124288
0.12468
0.125003
0.125254
0.125441
0.125585
0.125695
0.125756
0.125761
0.125724
0.125677
0.125644
0.125628
0.125622
0.125617
0.125607
0.125592
0.125571
0.125549
0.125523
0.125498
0.125477
0.125463
0.125456
0.125452
0.125453
0.125458
0.125464
0.125467
0.125468
0.125464
0.125453
0.125431
0.125394
0.125338
0.125258
0.125147
0.124999
0.124803
0.124548
0.124221
0.12381
0.123306
0.122708
0.122026
0.121284
0.12052
0.119785
0.119134
0.118618
0.118276
0.118121
0.118139
0.118287
0.118498
0.118684
0.118739
0.118546
0.117968
0.116852
0.115013
0.112229
0.108229
0.102692
0.095206
0.0853684
0.0724403
0.0565397
0.0347651
0.0163638
0.168277
0.135512
0.114851
0.116627
0.121099
0.122067
0.12232
0.123101
0.124005
0.124724
0.125275
0.125731
0.126114
0.126422
0.126665
0.126862
0.127018
0.127124
0.127174
0.127182
0.127175
0.127175
0.127187
0.127204
0.127221
0.127231
0.127233
0.127229
0.127223
0.127211
0.127197
0.127185
0.127176
0.127171
0.127167
0.127164
0.127163
0.12716
0.127153
0.127139
0.127119
0.127089
0.127044
0.126982
0.126898
0.126787
0.126642
0.126456
0.126221
0.125928
0.125566
0.125125
0.1246
0.123991
0.123308
0.122572
0.121816
0.121081
0.120415
0.11986
0.119448
0.119192
0.119081
0.119079
0.119128
0.11915
0.119052
0.118723
0.118038
0.116848
0.114972
0.112194
0.108242
0.102793
0.0954318
0.0857532
0.0729804
0.0572782
0.035324
0.017143
0.174865
0.133509
0.112989
0.116859
0.121538
0.122469
0.122893
0.123803
0.12477
0.125545
0.126156
0.126668
0.127102
0.12746
0.127751
0.127992
0.128188
0.128332
0.12842
0.128465
0.128492
0.128519
0.128553
0.128589
0.128622
0.128646
0.128661
0.128669
0.128675
0.128669
0.128659
0.12865
0.12864
0.128631
0.12862
0.128608
0.128593
0.128575
0.12855
0.128516
0.128473
0.128417
0.128346
0.128254
0.128137
0.127991
0.12781
0.127586
0.127313
0.126982
0.126584
0.126113
0.125564
0.124939
0.124247
0.123507
0.122747
0.122004
0.121317
0.120726
0.120258
0.119927
0.119723
0.119617
0.119556
0.119471
0.119274
0.118863
0.118115
0.116885
0.114998
0.112236
0.108331
0.102959
0.0957025
0.0861575
0.0735146
0.0580004
0.0358932
0.0179198
0.181459
0.13068
0.111281
0.117144
0.121878
0.12282
0.123415
0.124424
0.125439
0.12626
0.126919
0.127474
0.127948
0.128344
0.128671
0.128946
0.129174
0.129346
0.129463
0.129536
0.129586
0.129632
0.12968
0.129727
0.129769
0.129801
0.129822
0.129836
0.12984
0.129831
0.129819
0.129805
0.129788
0.129767
0.129743
0.129715
0.129683
0.129644
0.129598
0.129541
0.129473
0.129391
0.129292
0.129171
0.129025
0.128848
0.128634
0.128379
0.128073
0.127711
0.127285
0.12679
0.126221
0.125581
0.12488
0.124132
0.123366
0.122612
0.121908
0.121289
0.120781
0.120398
0.120133
0.11996
0.11983
0.119679
0.119425
0.118966
0.118186
0.116941
0.115056
0.112318
0.108457
0.103152
0.0959819
0.0865489
0.0740146
0.0586752
0.0364512
0.0186668
0.187968
0.127154
0.109796
0.117432
0.122123
0.123116
0.12386
0.124935
0.125979
0.126831
0.127521
0.128104
0.128603
0.129024
0.129375
0.129671
0.129918
0.130108
0.130242
0.130331
0.130396
0.130451
0.130506
0.130557
0.1306
0.130634
0.130655
0.130666
0.130661
0.130648
0.130631
0.130607
0.130579
0.130546
0.130507
0.130464
0.130415
0.130358
0.130293
0.130217
0.130128
0.130025
0.129904
0.129761
0.129593
0.129393
0.129157
0.128879
0.128552
0.128169
0.127725
0.127213
0.126631
0.125982
0.125273
0.12452
0.123748
0.122986
0.12227
0.121632
0.121098
0.120682
0.120379
0.120165
0.119995
0.119807
0.119522
0.11904
0.118247
0.117
0.115127
0.112414
0.108594
0.103346
0.0962486
0.0869097
0.074467
0.0592864
0.0369839
0.0193694
0.194313
0.12309
0.108574
0.117686
0.122285
0.123339
0.124188
0.125297
0.126353
0.12722
0.127927
0.128525
0.129037
0.12947
0.129834
0.130142
0.130398
0.130597
0.13074
0.130837
0.130908
0.130967
0.131023
0.131074
0.131117
0.131149
0.131168
0.131171
0.131162
0.131146
0.131122
0.13109
0.131053
0.13101
0.130962
0.130907
0.130846
0.130777
0.130699
0.13061
0.130508
0.130392
0.130257
0.130101
0.129918
0.129705
0.129456
0.129165
0.128825
0.128431
0.127977
0.127456
0.126867
0.126213
0.1255
0.124744
0.123968
0.123202
0.122477
0.121827
0.121277
0.120842
0.120517
0.12028
0.120088
0.119882
0.119582
0.119092
0.118297
0.117057
0.115199
0.112511
0.108728
0.103528
0.096492
0.0872325
0.074868
0.0598282
0.037483
0.0200228
0.200496
0.118757
0.107641
0.117878
0.122368
0.123472
0.124381
0.125502
0.126562
0.127436
0.128151
0.128755
0.129273
0.129713
0.130082
0.130395
0.130657
0.13086
0.131006
0.131107
0.131181
0.131242
0.131298
0.131348
0.13139
0.13142
0.131436
0.131438
0.131426
0.131406
0.131377
0.131341
0.131299
0.13125
0.131196
0.131135
0.131067
0.130992
0.130907
0.130811
0.130702
0.130579
0.130437
0.130273
0.130084
0.129864
0.129609
0.129311
0.128966
0.128567
0.128108
0.127583
0.126992
0.126336
0.125622
0.124865
0.124087
0.123317
0.122587
0.12193
0.121371
0.120925
0.120587
0.120338
0.120136
0.119922
0.119617
0.119127
0.118337
0.117107
0.115266
0.112602
0.108851
0.103694
0.0967095
0.0875175
0.0752204
0.0603027
0.0379453
0.0206312
0.20666
0.114669
0.107007
0.117995
0.122385
0.12352
0.12446
0.125588
0.12665
0.127527
0.128246
0.128853
0.129374
0.129816
0.130189
0.130505
0.130768
0.130973
0.131121
0.131224
0.131298
0.13136
0.131416
0.131467
0.131508
0.131536
0.131551
0.131554
0.131541
0.131518
0.131488
0.131449
0.131405
0.131354
0.131297
0.131233
0.131163
0.131084
0.130996
0.130897
0.130786
0.130659
0.130515
0.130349
0.130157
0.129934
0.129676
0.129377
0.12903
0.128629
0.128168
0.127643
0.127052
0.126395
0.125681
0.124924
0.124146
0.123374
0.122642
0.12198
0.121416
0.120963
0.12062
0.120365
0.120159
0.119942
0.119638
0.119151
0.118369
0.11715
0.115326
0.112685
0.108963
0.103844
0.0969055
0.0877722
0.0755355
0.0607231
0.0383768
0.0212137
0.212756
0.111463
0.106611
0.118044
0.122365
0.123514
0.124467
0.125602
0.126668
0.127548
0.128268
0.128878
0.1294
0.129844
0.130217
0.130535
0.130799
0.131005
0.131154
0.131258
0.131333
0.131395
0.131451
0.131501
0.131542
0.13157
0.131586
0.131588
0.131575
0.131552
0.131521
0.131482
0.131437
0.131386
0.131328
0.131264
0.131192
0.131113
0.131024
0.130925
0.130812
0.130685
0.13054
0.130373
0.130181
0.129958
0.1297
0.1294
0.129053
0.128652
0.128192
0.127668
0.127078
0.126422
0.125709
0.124952
0.124173
0.123401
0.122667
0.122003
0.121435
0.120978
0.120632
0.120374
0.120167
0.119951
0.11965
0.11917
0.118396
0.11719
0.115383
0.112764
0.10907
0.103985
0.0970893
0.0880098
0.0758297
0.0611117
0.0387893
0.0218035
0.217483
0.10952
0.106385
0.118071
0.122343
0.123489
0.124451
0.125592
0.126661
0.127542
0.128264
0.128874
0.129398
0.129842
0.130216
0.130534
0.130799
0.131004
0.131154
0.131257
0.131333
0.131395
0.131452
0.131503
0.131544
0.131573
0.131588
0.13159
0.131577
0.131554
0.131523
0.131484
0.131439
0.131388
0.13133
0.131266
0.131195
0.131116
0.131027
0.130928
0.130816
0.130689
0.130544
0.130377
0.130185
0.129963
0.129705
0.129406
0.12906
0.12866
0.128201
0.127678
0.127088
0.126434
0.125722
0.124965
0.124187
0.123414
0.122678
0.122013
0.121443
0.120984
0.120635
0.120377
0.12017
0.119955
0.119658
0.119183
0.118418
0.117224
0.115433
0.112833
0.109164
0.104111
0.0972519
0.0882196
0.0760881
0.0614546
0.0391481
0.0223651
)
;

boundaryField
{
    inlet
    {
        type            zeroGradient;
    }
    outlet
    {
        type            fixedValue;
        value           uniform 0;
    }
    fixedWalls
    {
        type            zeroGradient;
    }
    frontAndBack
    {
        type            empty;
    }
}


// ************************************************************************* //
