/*--------------------------------*- C++ -*----------------------------------*\
| =========                 |                                                 |
| \\      /  F ield         | OpenFOAM: The Open Source CFD Toolbox           |
|  \\    /   O peration     | Version:  v1912                                 |
|   \\  /    A nd           | Website:  www.openfoam.com                      |
|    \\/     M anipulation  |                                                 |
\*---------------------------------------------------------------------------*/
FoamFile
{
    version     2.0;
    format      ascii;
    class       volVectorField;
    location    "800";
    object      U;
}
// * * * * * * * * * * * * * * * * * * * * * * * * * * * * * * * * * * * * * //

dimensions      [0 1 -1 0 0 0 0];


internalField   nonuniform List<vector> 
2000
(
(0.84616 0.187394 0)
(0.515133 0.124089 0)
(0.223448 0.0684415 0)
(0.0598068 0.0174443 6.19506e-20)
(-0.00455617 -0.0232232 1.2068e-17)
(-0.0642033 -0.0384872 1.04232e-17)
(-0.0776008 -0.0372471 0)
(-0.0715949 -0.016659 0)
(-0.0590606 0.0117119 0)
(-0.0421582 0.0254667 2.36689e-17)
(-0.0415844 0.0109779 -1.4501e-17)
(-0.0273672 -0.000621281 -1.36192e-17)
(-0.0163178 -0.00266714 0)
(-0.0200719 -0.00264045 0)
(-0.0219067 -0.00227013 -1.08193e-17)
(-0.016873 0.000848123 0)
(-0.0105736 0.00349386 9.73943e-18)
(-0.00962204 0.00623758 3.09584e-21)
(-0.0106302 0.00612821 9.41508e-18)
(-0.0113964 0.00488885 -4.64696e-18)
(-0.0112579 0.00278246 9.18724e-18)
(-0.0100658 0.000804729 0)
(-0.00791423 -0.000199098 0)
(-0.0053956 -0.0006296 -7.35026e-23)
(-0.0031013 -0.000794733 0)
(-0.00127439 -0.000813723 -4.51701e-18)
(-5.15193e-05 -0.000750745 0)
(0.000645743 -0.000670195 4.52624e-18)
(0.00104402 -0.000655643 0)
(0.00133366 -0.000661159 0)
(0.00160846 -0.000586213 0)
(0.00188361 -0.000474527 1.14948e-18)
(0.00214335 -0.000384218 0)
(0.00237721 -0.000344685 -5.83411e-19)
(0.00257263 -0.000344126 1.9471e-14)
(0.00270534 -0.000361213 1.94574e-14)
(0.00276932 -0.000398262 6.0168e-19)
(0.00270993 -0.000493544 -6.09179e-19)
(0.00252858 -0.000637216 0)
(0.00222423 -0.000796867 2.506e-18)
(0.00177602 -0.000948534 0)
(0.00114861 -0.00107884 -2.5886e-18)
(0.000298514 -0.00117431 0)
(-0.000833455 -0.00121842 -5.35903e-18)
(-0.00230023 -0.00123155 2.72265e-18)
(-0.00414234 -0.00130325 0)
(-0.00644774 -0.00148138 0)
(-0.0093742 -0.00167745 -2.85608e-18)
(-0.0132422 -0.00158352 0)
(-0.0186633 -0.000609379 2.93235e-18)
(-0.0266131 0.00194159 0)
(-0.0383721 0.0063613 5.90923e-18)
(-0.0553225 0.0120976 -5.8578e-18)
(-0.0785959 0.0177549 5.73617e-18)
(-0.108533 0.0214575 -2.73927e-18)
(-0.144235 0.0213629 0)
(-0.183611 0.0162568 2.32946e-18)
(-0.22374 0.00597995 -2.07395e-18)
(-0.260883 -0.00843732 -4.08155e-18)
(-0.290209 -0.0247768 3.30776e-18)
(-0.306848 -0.0397984 -3.26482e-18)
(-0.309266 -0.0502836 3.49279e-18)
(-0.302824 -0.0562957 -3.9851e-18)
(-0.28778 -0.0591886 4.79055e-18)
(-0.265255 -0.0599985 -1.07672e-20)
(-0.236101 -0.0594632 7.17947e-18)
(-0.20074 -0.0577894 0)
(-0.159341 -0.0549687 0)
(-0.112158 -0.0509914 7.56905e-20)
(-0.0599218 -0.0458972 0)
(-0.00388805 -0.0396218 1.98865e-17)
(0.0557399 -0.0318255 0)
(0.119259 -0.0223584 1.98773e-17)
(0.186176 -0.0113735 -4.87931e-19)
(0.25575 0.000888315 1.71618e-17)
(0.329291 0.014125 2.98587e-17)
(0.403301 0.027961 7.34469e-19)
(0.490973 0.0419412 -1.01475e-17)
(0.556921 0.0544088 -6.53013e-18)
(0.713567 0.0651342 0)
(1.0153 0.210384 0)
(0.944633 0.194211 0)
(0.804475 0.179983 -3.52879e-18)
(0.654422 0.152313 7.28795e-18)
(0.509224 0.111169 0)
(0.360042 0.0683704 -7.28878e-18)
(0.216493 0.0293252 0)
(0.0821323 -0.00530895 0)
(-0.0282879 -0.0180399 0)
(-0.0562034 -0.0189155 -1.73093e-17)
(-0.0667324 -0.0249882 1.57468e-17)
(-0.0718834 -0.0159766 1.44439e-17)
(-0.0637615 0.00640375 0)
(-0.0508836 0.0207204 6.323e-18)
(-0.0545097 0.00998941 0)
(-0.0483041 -0.00293929 0)
(-0.0376345 -0.00402706 0)
(-0.0329316 -0.00109697 5.27006e-18)
(-0.0367026 0.000899544 -1.03364e-17)
(-0.0388895 0.000901331 -5.09147e-18)
(-0.0395837 7.12482e-05 0)
(-0.0384919 -0.00112632 0)
(-0.0357737 -0.00235156 0)
(-0.0325288 -0.00294148 -7.41336e-18)
(-0.0293666 -0.00274178 0)
(-0.0265528 -0.00194334 4.95106e-18)
(-0.0243317 -0.00088178 2.48301e-18)
(-0.022871 -1.90932e-06 0)
(-0.0222362 0.000370239 0)
(-0.0222932 0.000402966 0)
(-0.0228639 0.000229155 0)
(-0.0237195 4.18368e-05 -6.32726e-19)
(-0.0246893 -0.000112021 0)
(-0.0257135 -0.000201791 3.20256e-19)
(-0.0268106 -0.000190901 1.61341e-19)
(-0.0280482 -6.26224e-05 0)
(-0.0294683 0.00016522 0)
(-0.0310943 0.000461814 6.62786e-19)
(-0.0329877 0.000809109 0)
(-0.0351663 0.00120578 -1.3527e-18)
(-0.0376461 0.00166016 0)
(-0.0404351 0.00218628 -1.38273e-18)
(-0.0435427 0.00279431 0)
(-0.0469767 0.00347846 1.41363e-18)
(-0.0507323 0.00422589 1.43133e-18)
(-0.0547857 0.00507326 0)
(-0.0591124 0.00620144 0)
(-0.0637086 0.00797873 -2.97127e-18)
(-0.0685647 0.0109179 0)
(-0.0736447 0.0156171 1.41236e-20)
(-0.0789646 0.022604 0)
(-0.084718 0.0320019 0)
(-0.0912588 0.0430994 0)
(-0.0988959 0.0542503 0)
(-0.107356 0.0631378 6.0239e-18)
(-0.115114 0.0673212 0)
(-0.119746 0.0648221 -5.48227e-18)
(-0.119321 0.054749 2.6536e-18)
(-0.11242 0.0380794 -2.31279e-18)
(-0.0951543 0.0176269 -4.88665e-18)
(-0.0632876 -0.0048544 5.03556e-18)
(-0.0451611 -0.0307767 -5.55643e-18)
(-0.019894 -0.0513775 6.50532e-18)
(0.00801696 -0.0660034 0)
(0.0389349 -0.0762599 -1.29524e-17)
(0.0733483 -0.0836178 -9.66242e-18)
(0.112034 -0.0888111 0)
(0.155188 -0.0918486 5.73745e-18)
(0.202451 -0.0924371 1.25535e-17)
(0.25325 -0.0903617 0)
(0.306934 -0.0855231 0)
(0.362924 -0.0778924 0)
(0.420748 -0.067602 0)
(0.48014 -0.0549815 -1.36092e-17)
(0.540851 -0.0405637 5.93283e-18)
(0.603732 -0.0250111 -1.17636e-17)
(0.667203 -0.00926215 1.0157e-17)
(0.739042 0.00564716 -3.46666e-18)
(0.796008 0.0172691 0)
(0.911752 0.0227784 0)
(0.978489 0.201538 0)
(0.978854 0.193006 -2.78556e-18)
(0.969154 0.205111 3.48126e-18)
(0.939083 0.208532 -3.06029e-18)
(0.878034 0.194606 2.88488e-18)
(0.785605 0.168719 2.84293e-18)
(0.669349 0.138081 0)
(0.541012 0.106021 0)
(0.40822 0.0750633 0)
(0.285943 0.0459344 6.86605e-18)
(0.173879 0.0180211 0)
(0.0721777 -0.00640542 0)
(-0.0214749 -0.0141535 0)
(-0.0469109 -0.00385631 -7.18389e-18)
(-0.0508321 -0.0116814 0)
(-0.0586943 -0.0181544 -6.05064e-18)
(-0.0592953 -0.0112551 0)
(-0.0481126 0.00906249 5.8757e-18)
(-0.0464821 0.0164831 2.87256e-18)
(-0.0509058 0.0125881 0)
(-0.0532643 0.00614976 -2.78954e-18)
(-0.0550533 -0.000291864 0)
(-0.0556709 -0.00469758 0)
(-0.0547711 -0.00653224 5.43545e-18)
(-0.0532208 -0.00661 0)
(-0.0520416 -0.00573057 1.35804e-18)
(-0.0518398 -0.00422487 -4.07685e-18)
(-0.0526318 -0.002236 0)
(-0.053988 -0.000223091 0)
(-0.05546 0.0012431 -6.81533e-19)
(-0.0570603 0.00219505 0)
(-0.0587701 0.00272135 1.48569e-22)
(-0.0605139 0.0029657 0)
(-0.0622468 0.0030903 6.90708e-19)
(-0.0639744 0.0032562 8.68802e-20)
(-0.0657687 0.00351655 0)
(-0.0676862 0.00385758 1.76316e-19)
(-0.0697398 0.00424474 -3.55563e-19)
(-0.0719116 0.00467391 -3.58769e-19)
(-0.0741705 0.00514878 -7.24537e-19)
(-0.0764792 0.00567675 7.32161e-19)
(-0.0788003 0.00626852 7.39762e-19)
(-0.0811065 0.00692896 0)
(-0.0833638 0.00764112 1.51715e-18)
(-0.0854687 0.00837494 -3.07758e-18)
(-0.0871688 0.00914718 0)
(-0.0880556 0.0101214 -1.59207e-18)
(-0.0876554 0.0116755 3.24535e-18)
(-0.0854329 0.0142928 0)
(-0.0807298 0.0185506 -1.69686e-18)
(-0.0728373 0.0249343 1.77966e-18)
(-0.0612383 0.0336931 -1.8456e-18)
(-0.0455664 0.0439387 -1.91351e-18)
(-0.0257817 0.0541245 0)
(-0.00209452 0.062038 -3.93988e-18)
(0.0255435 0.0651678 -1.88467e-18)
(0.0570356 0.0612409 1.63665e-18)
(0.0905468 0.0494204 1.53183e-18)
(0.124516 0.0287236 2.57012e-18)
(0.156379 0.00194728 0)
(0.18655 -0.0244051 0)
(0.214265 -0.046363 0)
(0.242458 -0.0645983 -1.31615e-18)
(0.274069 -0.0802234 0)
(0.310049 -0.0937942 3.22626e-18)
(0.349861 -0.105292 0)
(0.392581 -0.114385 -1.98955e-18)
(0.437335 -0.120621 -4.4654e-18)
(0.483327 -0.123583 0)
(0.529889 -0.123023 -2.47451e-18)
(0.576535 -0.118934 2.57817e-18)
(0.623004 -0.11157 0)
(0.669238 -0.101437 0)
(0.715422 -0.0892196 0)
(0.761795 -0.0757506 -5.40693e-18)
(0.80923 -0.0619469 0)
(0.857025 -0.0489945 -1.88439e-18)
(0.91012 -0.0379999 3.36824e-18)
(0.953019 -0.0313485 0)
(1.03535 -0.0304097 3.93189e-19)
(0.970611 0.209117 0)
(0.963917 0.194765 1.52499e-18)
(0.96643 0.198514 0)
(0.977152 0.206407 1.69427e-18)
(0.982034 0.208884 -3.00376e-18)
(0.968293 0.204266 -1.34082e-18)
(0.930748 0.193726 0)
(0.870757 0.177878 0)
(0.79113 0.156581 0)
(0.695411 0.131331 1.3508e-18)
(0.58948 0.10541 1.38258e-18)
(0.48005 0.0807 0)
(0.369265 0.0579965 0)
(0.266647 0.0376064 0)
(0.17965 0.0185392 0)
(0.100391 0.00267206 6.39966e-18)
(0.0300555 -0.0099332 -3.38671e-18)
(-0.0310549 -0.00937992 0)
(-0.0328197 0.00101136 -3.28221e-18)
(-0.0347018 0.00246174 1.61815e-18)
(-0.034642 0.00136529 3.21044e-18)
(-0.0358989 -0.00129477 0)
(-0.0391085 -0.0039759 0)
(-0.0434926 -0.00523488 -3.1195e-18)
(-0.0472073 -0.00435799 0)
(-0.0495028 -0.00166528 -1.54358e-18)
(-0.0511815 0.00172141 1.54314e-18)
(-0.0536837 0.00423517 0)
(-0.0558191 0.00540907 0)
(-0.0580673 0.0059597 7.66852e-19)
(-0.0600162 0.00603554 0)
(-0.0616497 0.00577652 -7.69875e-19)
(-0.06292 0.0053468 0)
(-0.0638109 0.00491365 -1.94727e-19)
(-0.0644515 0.00471328 -9.80934e-20)
(-0.0649299 0.0048277 -2.47427e-20)
(-0.0652542 0.00520001 -2.99809e-19)
(-0.0653194 0.00576437 4.04126e-19)
(-0.0650449 0.00641716 4.0917e-19)
(-0.0643601 0.00709841 1.24486e-18)
(-0.063179 0.00779191 -4.21232e-19)
(-0.0614135 0.00849121 4.28568e-19)
(-0.0590047 0.00917512 0)
(-0.0559073 0.00977211 8.93004e-19)
(-0.0520151 0.0101053 9.13898e-19)
(-0.0470443 0.00987223 0)
(-0.0405606 0.0087142 1.93695e-18)
(-0.0325748 0.00656414 1.00076e-18)
(-0.0224214 0.00408325 0)
(-0.00984613 0.00190776 -3.26309e-18)
(0.00659691 0.000613673 -2.23219e-18)
(0.0279628 0.000781533 1.10715e-18)
(0.0541815 0.00223932 2.16729e-18)
(0.0858433 0.00411659 0)
(0.122963 0.00489809 9.80372e-19)
(0.164694 0.00280275 2.68128e-18)
(0.209748 -0.00371167 1.58602e-18)
(0.25603 -0.0151439 -1.3907e-18)
(0.303032 -0.0303521 -6.42838e-19)
(0.348968 -0.0477423 0)
(0.393322 -0.0665276 0)
(0.436094 -0.0854062 0)
(0.478153 -0.103311 1.71898e-18)
(0.520307 -0.119617 6.47818e-19)
(0.562507 -0.133858 0)
(0.604105 -0.145508 -1.56828e-18)
(0.6444 -0.154017 1.74336e-18)
(0.682894 -0.158952 -1.87641e-18)
(0.719332 -0.160096 -2.0234e-18)
(0.753692 -0.157483 1.26716e-19)
(0.786183 -0.151404 -2.42003e-18)
(0.817215 -0.142375 0)
(0.84734 -0.131078 0)
(0.877229 -0.118296 0)
(0.907489 -0.104884 0)
(0.939032 -0.0917229 0)
(0.971525 -0.0798639 3.67593e-18)
(1.00831 -0.0701531 -1.34521e-18)
(1.03853 -0.0645227 0)
(1.09572 -0.0627898 -4.23935e-19)
(0.972988 0.216082 0)
(0.965831 0.201808 1.87073e-18)
(0.959206 0.1956 2.49228e-19)
(0.961489 0.195546 1.90719e-18)
(0.972668 0.197536 0)
(0.985519 0.199235 -1.60743e-18)
(0.992497 0.199295 0)
(0.988452 0.196253 -3.62527e-19)
(0.970218 0.189033 0)
(0.935631 0.177562 -1.60574e-18)
(0.884731 0.162749 -1.24293e-18)
(0.819618 0.145667 -3.15429e-19)
(0.743324 0.126729 3.13116e-19)
(0.658088 0.106111 0)
(0.569157 0.0852833 3.13171e-19)
(0.47934 0.0662428 0)
(0.393491 0.0502676 2.65426e-18)
(0.3141 0.036341 -3.51311e-19)
(0.247073 0.0242759 0)
(0.192397 0.0147278 -1.8994e-18)
(0.147777 0.00792739 0)
(0.110715 0.00341395 0)
(0.0798824 0.000826809 0)
(0.0539914 -0.000613978 0)
(0.0324763 -0.00158512 -2.2167e-19)
(0.0157009 -0.00203496 0)
(0.00281168 -0.00140264 0)
(-0.00264219 0.000664962 1.15595e-19)
(-0.00512324 0.00208463 0)
(-0.00516567 0.00307926 0)
(-0.00383062 0.00365392 0)
(-0.00157004 0.00392658 -5.87519e-20)
(0.00101915 0.00401255 0)
(0.0044749 0.00383001 -2.6788e-19)
(0.00749311 0.00432376 0)
(0.0111477 0.00517466 3.01049e-20)
(0.0155396 0.00568378 1.51301e-19)
(0.0208484 0.00560426 3.03753e-20)
(0.0272605 0.00522731 -6.09608e-20)
(0.0348441 0.00467353 -4.89104e-19)
(0.0437706 0.00391979 -4.89762e-19)
(0.054255 0.00294302 4.89723e-19)
(0.0664882 0.00173381 -1.22199e-19)
(0.0806607 0.000268457 -9.73724e-19)
(0.0969806 -0.00150721 9.67637e-19)
(0.115437 -0.00366051 -1.20018e-19)
(0.136217 -0.00629704 0)
(0.158888 -0.00950276 -9.40476e-19)
(0.183486 -0.0132442 0)
(0.210124 -0.0173843 9.19191e-19)
(0.238848 -0.0215902 0)
(0.26987 -0.0257303 8.95969e-19)
(0.303496 -0.0297694 0)
(0.340073 -0.0339074 -2.11649e-19)
(0.379812 -0.0386433 -8.04004e-19)
(0.422583 -0.044699 -7.46034e-19)
(0.467789 -0.0528171 1.7339e-19)
(0.514363 -0.0635276 0)
(0.560893 -0.077128 5.43733e-19)
(0.60596 -0.0930789 -1.37385e-19)
(0.648708 -0.11039 0)
(0.688745 -0.127711 1.37327e-19)
(0.725957 -0.143801 -5.35641e-19)
(0.760288 -0.157821 -5.91392e-19)
(0.791568 -0.169212 0)
(0.819584 -0.177536 1.48073e-18)
(0.844261 -0.18247 0)
(0.865767 -0.183867 1.83452e-18)
(0.884511 -0.181798 2.01176e-18)
(0.901097 -0.17654 2.17578e-18)
(0.916266 -0.168549 2.70796e-19)
(0.930837 -0.158414 0)
(0.945628 -0.14681 0)
(0.961431 -0.134454 0)
(0.978861 -0.122083 -2.69561e-19)
(0.998668 -0.110424 0)
(1.02048 -0.100283 -1.67437e-18)
(1.0468 -0.0923119 1.64896e-18)
(1.06877 -0.0877362 1.03942e-19)
(1.11236 -0.0864823 4.50697e-20)
(0.974194 0.218514 -1.23235e-18)
(0.970935 0.206364 1.19276e-18)
(0.965119 0.198172 -2.82023e-19)
(0.961139 0.194112 0)
(0.962197 0.191942 0)
(0.96826 0.190544 0)
(0.977772 0.189885 0)
(0.988502 0.189481 1.25238e-18)
(0.997432 0.188308 0)
(1.00093 0.185358 -1.11968e-18)
(0.995773 0.179955 -1.39576e-18)
(0.979839 0.171905 3.20019e-19)
(0.952675 0.161434 9.66827e-19)
(0.914336 0.148646 0)
(0.865647 0.133742 -1.47555e-18)
(0.80825 0.117845 0)
(0.746068 0.102471 -1.1796e-18)
(0.683644 0.087975 2.95034e-19)
(0.622835 0.0743868 -1.23413e-18)
(0.565747 0.0621138 -9.50349e-19)
(0.513196 0.051355 0)
(0.465535 0.0420969 0)
(0.42294 0.0342208 -6.83112e-19)
(0.385366 0.027619 0)
(0.352676 0.0221563 -5.42384e-19)
(0.324659 0.0176542 0)
(0.30091 0.0138455 0)
(0.281201 0.0104643 -9.55959e-20)
(0.265388 0.007548 0)
(0.25313 0.00510342 0)
(0.244083 0.0030641 0)
(0.237972 0.0013508 5.0535e-20)
(0.234488 -0.000116052 2.04832e-19)
(0.233659 -0.00133248 1.29043e-19)
(0.23526 -0.00274347 0)
(0.239399 -0.00434007 0)
(0.246022 -0.00600129 -2.59502e-20)
(0.254955 -0.00775934 -1.29977e-19)
(0.266168 -0.00970186 5.16465e-20)
(0.279587 -0.0118837 0)
(0.295116 -0.0143383 0)
(0.312668 -0.0170914 -2.04017e-19)
(0.332168 -0.0201655 1.00484e-19)
(0.35354 -0.0235909 -4.01094e-19)
(0.376692 -0.0274135 3.97069e-19)
(0.401489 -0.0316878 9.71817e-20)
(0.427745 -0.0364461 0)
(0.455233 -0.0415947 3.85029e-19)
(0.483778 -0.0470091 0)
(0.513239 -0.0525443 0)
(0.543515 -0.058041 0)
(0.574588 -0.0633981 0)
(0.606525 -0.0686391 0)
(0.639401 -0.0739787 1.77823e-19)
(0.673202 -0.0798366 0)
(0.707715 -0.0867648 6.68928e-19)
(0.74245 -0.0952973 -1.52434e-19)
(0.776645 -0.105762 0)
(0.809372 -0.118096 5.80239e-19)
(0.839717 -0.131712 1.27884e-19)
(0.866966 -0.145709 5.67586e-19)
(0.890674 -0.159107 -1.32589e-19)
(0.910655 -0.171036 0)
(0.926943 -0.18086 -6.63242e-19)
(0.939721 -0.188159 0)
(0.949299 -0.192666 0)
(0.956134 -0.194256 -8.54175e-19)
(0.96085 -0.192963 0)
(0.964206 -0.188979 0)
(0.96703 -0.182642 -1.06373e-18)
(0.970158 -0.174395 -2.95573e-19)
(0.974379 -0.164755 0)
(0.980386 -0.154278 0)
(0.988775 -0.143534 0)
(0.999931 -0.133092 3.01185e-19)
(1.01434 -0.123504 -1.02966e-18)
(1.03145 -0.115352 -2.39982e-19)
(1.05335 -0.109109 -1.88429e-19)
(1.07187 -0.105499 -1.17722e-19)
(1.11025 -0.104626 -2.40528e-19)
(0.974501 0.21901 4.35466e-18)
(0.973757 0.208036 -4.18137e-18)
(0.971714 0.200425 0)
(0.969159 0.196211 -2.53689e-18)
(0.967053 0.192937 0)
(0.966166 0.189312 -2.23691e-18)
(0.967419 0.185818 0)
(0.971669 0.183008 2.97885e-18)
(0.978978 0.18073 -3.69865e-18)
(0.988283 0.178484 1.68881e-18)
(0.99769 0.175773 1.57887e-18)
(1.00497 0.172151 0)
(1.00811 0.167265 -4.27083e-18)
(1.00544 0.160699 -2.72024e-18)
(0.995587 0.15211 3.82347e-18)
(0.977795 0.141797 0)
(0.953045 0.130626 1.17114e-18)
(0.923753 0.119347 0)
(0.891693 0.108147 1.16762e-18)
(0.858157 0.097006 1.16732e-18)
(0.824183 0.0861326 0)
(0.790761 0.0758053 0)
(0.758772 0.0662285 -6.39288e-19)
(0.728889 0.0575078 0)
(0.701557 0.049626 6.20845e-19)
(0.677007 0.0424978 0)
(0.655361 0.0360285 0)
(0.636649 0.0301314 0)
(0.6209 0.0247179 0)
(0.60805 0.0197053 0)
(0.598024 0.0150154 0)
(0.590754 0.010578 0)
(0.586166 0.00632085 1.77009e-19)
(0.584139 0.00217937 -8.58888e-20)
(0.584459 -0.0019906 4.39734e-20)
(0.587218 -0.00622784 0)
(0.592321 -0.0105194 0)
(0.599566 -0.0148678 8.61469e-20)
(0.608796 -0.0193115 -3.51703e-19)
(0.619873 -0.0238875 3.51271e-19)
(0.632643 -0.0286172 0)
(0.646944 -0.0335131 8.71312e-19)
(0.662614 -0.038586 -6.99196e-19)
(0.679484 -0.0438484 -3.57894e-19)
(0.697378 -0.0493145 -3.39255e-19)
(0.716098 -0.054991 0)
(0.735429 -0.0608572 0)
(0.755149 -0.0668433 -1.03479e-18)
(0.775061 -0.0728582 0)
(0.79501 -0.0788062 0)
(0.814897 -0.0846016 0)
(0.834682 -0.09021 7.03402e-19)
(0.854378 -0.0956979 1.4044e-18)
(0.873997 -0.101258 0)
(0.893484 -0.107197 0)
(0.912652 -0.11387 -6.47849e-19)
(0.931137 -0.121578 0)
(0.948409 -0.130447 1.29242e-18)
(0.963841 -0.14034 6.86141e-19)
(0.976829 -0.150838 0)
(0.986926 -0.161333 6.99965e-19)
(0.993931 -0.171152 1.33601e-18)
(0.997916 -0.179674 1.40762e-18)
(0.99918 -0.186415 7.15062e-19)
(0.998187 -0.191064 -1.61761e-18)
(0.995503 -0.193464 1.74797e-18)
(0.991769 -0.193585 2.8343e-18)
(0.987686 -0.191517 0)
(0.98397 -0.187458 0)
(0.98131 -0.181698 1.1953e-18)
(0.980325 -0.17459 0)
(0.981545 -0.166536 2.49844e-18)
(0.985389 -0.157963 2.5309e-18)
(0.992191 -0.149309 0)
(1.00211 -0.141019 2.4008e-18)
(1.01546 -0.133522 -1.0403e-18)
(1.03158 -0.127258 0)
(1.05238 -0.12257 0)
(1.07001 -0.119908 0)
(1.10686 -0.119455 -1.92906e-19)
(0.974733 0.218938 -3.35454e-18)
(0.975458 0.208201 3.21127e-18)
(0.976056 0.201058 -6.23674e-18)
(0.975936 0.197366 2.86923e-18)
(0.974875 0.19446 0)
(0.9732 0.190786 2.52987e-18)
(0.971487 0.186584 -4.84288e-18)
(0.970473 0.182339 -4.49003e-18)
(0.970994 0.17813 -7.92479e-20)
(0.973704 0.17395 0)
(0.978806 0.169868 0)
(0.985964 0.165856 3.59644e-18)
(0.994363 0.161685 3.29166e-18)
(1.00283 0.15694 -3.27748e-18)
(1.00995 0.151228 -8.89769e-18)
(1.01427 0.144451 0)
(1.01489 0.136908 0)
(1.01186 0.128902 0)
(1.00564 0.120422 0)
(0.996716 0.111451 0)
(0.985584 0.102194 0)
(0.972871 0.0929293 0)
(0.959261 0.0838676 1.24003e-18)
(0.945387 0.0751235 -2.58642e-18)
(0.93177 0.0667311 0)
(0.918819 0.0586908 0)
(0.906849 0.0509953 0)
(0.896104 0.043616 0)
(0.886748 0.0364945 0)
(0.878881 0.0295886 -6.62282e-19)
(0.872569 0.0228706 0)
(0.867852 0.0163107 0)
(0.864736 0.00987195 1.25896e-20)
(0.863166 0.00349067 0)
(0.863049 -0.00271269 -4.10199e-20)
(0.864333 -0.00879527 0)
(0.866925 -0.0148411 1.70635e-19)
(0.870695 -0.0208766 0)
(0.87552 -0.0269116 6.7201e-19)
(0.88129 -0.0329565 -3.30374e-19)
(0.887881 -0.0390164 -6.88566e-19)
(0.895167 -0.0450917 -6.64936e-19)
(0.903015 -0.0511814 6.67683e-19)
(0.911292 -0.0572851 6.70884e-19)
(0.91986 -0.0634017 1.40283e-18)
(0.928576 -0.069523 1.41193e-18)
(0.937293 -0.0756241 0)
(0.945875 -0.0816563 -7.4429e-19)
(0.954212 -0.0875557 0)
(0.962238 -0.093261 0)
(0.969934 -0.0987312 -1.479e-18)
(0.977323 -0.103973 -7.22164e-19)
(0.984455 -0.109066 4.82438e-20)
(0.991368 -0.114175 0)
(0.99804 -0.119528 0)
(1.00435 -0.125374 0)
(1.01006 -0.131911 1.49121e-18)
(1.01481 -0.139211 -1.39813e-18)
(1.01821 -0.147171 -1.38857e-18)
(1.01993 -0.155497 0)
(1.01975 -0.163747 -1.42896e-18)
(1.01767 -0.171426 9.45688e-20)
(1.01392 -0.17807 -1.57785e-18)
(1.00885 -0.183323 1.75888e-18)
(1.00297 -0.186957 -4.72002e-20)
(0.996781 -0.188862 -1.98059e-18)
(0.990844 -0.189022 -2.14399e-18)
(0.985682 -0.187503 0)
(0.981788 -0.184442 0)
(0.979597 -0.180045 0)
(0.979473 -0.174571 0)
(0.981712 -0.168325 -2.83539e-18)
(0.986538 -0.161649 -2.8704e-18)
(0.994143 -0.154906 0)
(1.0046 -0.148473 -2.72064e-18)
(1.01816 -0.142715 4.90395e-18)
(1.03422 -0.13799 0)
(1.05463 -0.134539 0)
(1.07189 -0.132684 0)
(1.10772 -0.132445 9.127e-19)
(0.975035 0.218502 8.34013e-18)
(0.977127 0.207476 0)
(0.979623 0.200809 1.42749e-17)
(0.980942 0.19772 0)
(0.980747 0.195178 6.21354e-18)
(0.979838 0.19182 0)
(0.978655 0.187904 5.47274e-18)
(0.977181 0.183662 0)
(0.975604 0.178993 -5.03643e-18)
(0.974439 0.173897 0)
(0.97427 0.168549 8.88058e-18)
(0.975577 0.163112 -4.11094e-18)
(0.978659 0.157621 0)
(0.983537 0.151978 7.30727e-18)
(0.989866 0.146033 -1.87028e-19)
(0.996991 0.139703 -6.68163e-18)
(1.00405 0.133126 6.47579e-18)
(1.01036 0.12639 0)
(1.01555 0.119355 0)
(1.01936 0.111923 6.08608e-18)
(1.02167 0.104163 0)
(1.02251 0.0962148 -2.96078e-18)
(1.02211 0.0881959 0)
(1.02073 0.0801814 2.8043e-18)
(1.01865 0.0722156 0)
(1.01612 0.0643267 2.89627e-18)
(1.01338 0.0565317 0)
(1.01062 0.0488302 0)
(1.00799 0.0412125 1.44725e-18)
(1.00561 0.0336791 6.95627e-19)
(1.00356 0.0262372 0)
(1.00192 0.0188884 0)
(1.00072 0.0116319 -1.08726e-18)
(0.999984 0.00446513 0)
(0.999666 -0.00252072 0)
(0.999737 -0.00938144 0)
(1.00018 -0.0161783 -1.77911e-19)
(1.00094 -0.0229193 0)
(1.00197 -0.0295931 -1.1048e-18)
(1.00322 -0.0361934 -7.5017e-19)
(1.00463 -0.0427163 7.24373e-19)
(1.00614 -0.0491568 0)
(1.0077 -0.0555096 0)
(1.00924 -0.0617704 1.54401e-18)
(1.01072 -0.0679342 -1.49896e-18)
(1.01207 -0.0739919 -1.51556e-18)
(1.01325 -0.0799248 0)
(1.01421 -0.085702 -5.80078e-20)
(1.01494 -0.0912863 1.63418e-18)
(1.01545 -0.0966481 0)
(1.01581 -0.101781 1.62542e-18)
(1.01607 -0.106716 1.70035e-18)
(1.01633 -0.111539 -1.666e-18)
(1.01663 -0.116388 0)
(1.01699 -0.121441 0)
(1.01733 -0.126882 0)
(1.01749 -0.132849 -1.67859e-18)
(1.01725 -0.139386 0)
(1.01634 -0.146408 0)
(1.01458 -0.153696 0)
(1.01186 -0.160924 3.66191e-18)
(1.00822 -0.167723 -1.80482e-18)
(1.00386 -0.173744 0)
(0.999057 -0.178702 -2.00605e-18)
(0.994186 -0.182398 -2.22793e-18)
(0.989618 -0.184712 4.62316e-18)
(0.98572 -0.185594 -4.89763e-18)
(0.982826 -0.185058 -5.17796e-18)
(0.981236 -0.183183 0)
(0.981209 -0.180112 -5.69771e-18)
(0.982964 -0.176048 0)
(0.986688 -0.171249 0)
(0.992547 -0.166018 0)
(1.00071 -0.160692 5.98472e-18)
(1.01128 -0.155624 -5.73095e-18)
(1.02455 -0.151147 -7.99076e-18)
(1.04002 -0.147564 0)
(1.05956 -0.145044 3.60384e-18)
(1.07608 -0.143797 0)
(1.11034 -0.14363 -1.50254e-18)
(0.975434 0.21769 -9.46027e-18)
(0.979143 0.20609 -9.20878e-18)
(0.983423 0.200245 -1.64409e-17)
(0.98558 0.197996 0)
(0.985486 0.195678 -1.41281e-17)
(0.984786 0.192413 -6.73047e-18)
(0.9842 0.188726 0)
(0.983452 0.184719 1.19954e-17)
(0.982353 0.180193 1.11977e-17)
(0.981033 0.175095 0)
(0.979702 0.169516 -1.00434e-17)
(0.978603 0.163553 0)
(0.97805 0.15727 0)
(0.978376 0.150691 8.70848e-18)
(0.979804 0.14382 8.07135e-18)
(0.982396 0.13669 -1.82317e-19)
(0.986006 0.129512 1.84342e-19)
(0.990362 0.12244 0)
(0.995174 0.115376 0)
(1.0001 0.108199 -6.97376e-18)
(1.00479 0.100887 -7.06458e-18)
(1.00904 0.0934782 1.0354e-17)
(1.01274 0.0860171 3.451e-18)
(1.01588 0.0785343 3.42277e-18)
(1.01848 0.0710476 0)
(1.02058 0.0635669 -3.27167e-18)
(1.02225 0.0560972 0)
(1.02353 0.0486398 0)
(1.02447 0.0411955 -3.30561e-18)
(1.02513 0.0337716 0)
(1.02554 0.0263804 0)
(1.02573 0.0190349 0)
(1.02574 0.0117495 8.20143e-19)
(1.02557 0.00455374 -4.27619e-19)
(1.02531 -0.00253366 2.13651e-19)
(1.02493 -0.00951602 0)
(1.02446 -0.0164077 0)
(1.02391 -0.0232088 0)
(1.02329 -0.0299103 8.33592e-19)
(1.02257 -0.0365054 8.38563e-19)
(1.02175 -0.0429904 -1.7499e-18)
(1.02084 -0.0493615 0)
(1.01983 -0.055615 0)
(1.01872 -0.0617479 -3.53247e-18)
(1.01751 -0.0677574 -1.81526e-18)
(1.0162 -0.0736379 0)
(1.01481 -0.079379 0)
(1.01334 -0.084964 1.82545e-18)
(1.01182 -0.0903748 5.6445e-20)
(1.01031 -0.0956019 0)
(1.00887 -0.100655 0)
(1.00757 -0.105572 -1.93407e-18)
(1.00649 -0.11043 0)
(1.00568 -0.115342 0)
(1.00513 -0.120445 0)
(1.00479 -0.125876 0)
(1.00454 -0.131734 0)
(1.00419 -0.138049 -4.16092e-18)
(1.00359 -0.144754 0)
(1.00256 -0.151683 0)
(1.00103 -0.158584 1.66652e-19)
(0.999015 -0.165165 0)
(0.996641 -0.171134 0)
(0.994097 -0.176235 0)
(0.991617 -0.180266 9.99554e-18)
(0.989447 -0.18309 -5.23742e-18)
(0.987819 -0.184628 5.54062e-18)
(0.986948 -0.184861 1.43437e-20)
(0.987029 -0.183834 0)
(0.988239 -0.181659 6.42765e-18)
(0.990749 -0.178515 -6.54505e-18)
(0.994737 -0.174645 0)
(1.00039 -0.170346 0)
(1.00792 -0.165951 -1.45787e-19)
(1.01752 -0.161806 6.47927e-18)
(1.02957 -0.158234 5.97093e-18)
(1.04369 -0.155492 0)
(1.06178 -0.153705 -4.0908e-18)
(1.07716 -0.152902 0)
(1.1096 -0.152815 1.13249e-18)
(0.975986 0.216474 0)
(0.981692 0.204215 2.12134e-17)
(0.987769 0.199647 1.88205e-17)
(0.990441 0.198411 0)
(0.990122 0.196236 8.02897e-18)
(0.989271 0.192974 -7.76963e-18)
(0.988772 0.189389 0)
(0.988281 0.185463 -1.35637e-17)
(0.987611 0.180999 0)
(0.986852 0.175995 0)
(0.98604 0.170512 0)
(0.985145 0.164577 0)
(0.984206 0.1582 0)
(0.983343 0.151386 1.82805e-19)
(0.982702 0.144142 -9.52786e-18)
(0.982426 0.13652 -1.82176e-19)
(0.98266 0.128777 1.83588e-19)
(0.9835 0.121146 0)
(0.984945 0.113609 0)
(0.986875 0.106092 0)
(0.989103 0.0985722 -2.02554e-19)
(0.991463 0.091073 2.06477e-19)
(0.993842 0.0836196 -3.95187e-18)
(0.996166 0.0762221 -3.92072e-18)
(0.99838 0.0688775 0)
(1.00044 0.061577 -3.98524e-18)
(1.00231 0.0543115 3.97275e-18)
(1.00396 0.0470731 0)
(1.00537 0.0398565 1.92509e-18)
(1.00654 0.0326625 1.98323e-18)
(1.00744 0.0254991 0)
(1.00808 0.0183791 0)
(1.00846 0.0113154 1.0021e-18)
(1.00861 0.00434485 -1.4859e-20)
(1.00858 -0.00256726 -4.94678e-19)
(1.00837 -0.009392 0)
(1.00803 -0.0161212 0)
(1.00756 -0.0227594 -1.01096e-18)
(1.00697 -0.0293056 0)
(1.00629 -0.0357555 -1.02111e-18)
(1.00551 -0.0421058 -5.8977e-20)
(1.00465 -0.0483539 0)
(1.00374 -0.0544974 2.08884e-18)
(1.00279 -0.0605341 4.15843e-18)
(1.00181 -0.0664623 2.07179e-18)
(1.00082 -0.072278 0)
(0.999845 -0.0779745 -4.35604e-18)
(0.998898 -0.0835419 0)
(0.998015 -0.0889708 -2.17712e-18)
(0.997238 -0.094259 0)
(0.996619 -0.0994203 0)
(0.996212 -0.104492 0)
(0.996065 -0.109538 0)
(0.996204 -0.114651 0)
(0.996618 -0.119939 -4.7716e-18)
(0.997251 -0.125509 4.80445e-18)
(0.998002 -0.131437 0)
(0.998733 -0.137744 4.72178e-18)
(0.999296 -0.144374 -4.91501e-18)
(0.999562 -0.151191 0)
(0.999454 -0.157986 -4.91455e-18)
(0.998961 -0.164507 0)
(0.998139 -0.170495 0)
(0.997099 -0.175706 0)
(0.995982 -0.17994 -5.68891e-18)
(0.994937 -0.183046 6.02982e-18)
(0.994112 -0.184927 -6.29808e-18)
(0.993653 -0.185545 1.31511e-17)
(0.99371 -0.184932 -6.84411e-18)
(0.994447 -0.183189 0)
(0.996055 -0.180495 7.39064e-18)
(0.998762 -0.1771 -7.44146e-18)
(1.00283 -0.173311 0)
(1.00857 -0.169473 -1.17013e-19)
(1.01627 -0.165936 -7.09922e-18)
(1.02642 -0.163025 0)
(1.03874 -0.160945 0)
(1.05522 -0.159824 -4.5652e-18)
(1.0694 -0.159373 0)
(1.10045 -0.159552 -1.28465e-18)
(0.976761 0.214804 0)
(0.984936 0.20201 -1.22217e-17)
(0.992771 0.199204 -1.07029e-17)
(0.995649 0.198991 0)
(0.994983 0.196871 1.8425e-17)
(0.993957 0.193635 1.73991e-17)
(0.993389 0.19014 0)
(0.992829 0.186205 1.5664e-17)
(0.992161 0.181685 -1.48747e-17)
(0.99156 0.176662 0)
(0.991075 0.171202 0)
(0.990636 0.165313 0)
(0.990183 0.158988 0)
(0.989696 0.15221 -1.13213e-17)
(0.989165 0.144966 -1.11256e-17)
(0.988598 0.137281 1.02265e-17)
(0.988069 0.12939 -3.02723e-17)
(0.9877 0.121541 0)
(0.987573 0.113754 0)
(0.987691 0.10599 9.70098e-18)
(0.988004 0.0982517 1.8973e-17)
(0.98846 0.090569 -9.28968e-18)
(0.989026 0.0829713 0)
(0.989682 0.0754695 0)
(0.990407 0.0680597 -4.65852e-18)
(0.991173 0.0607316 9.17765e-18)
(0.99195 0.0534737 -9.155e-18)
(0.992709 0.0462754 0)
(0.993422 0.0391277 0)
(0.994065 0.0320266 -2.26013e-18)
(0.994616 0.0249753 0)
(0.995062 0.0179805 2.33038e-18)
(0.995396 0.0110549 -1.14196e-18)
(0.995639 0.00419526 -1.44969e-20)
(0.995797 -0.00260976 -7.27221e-21)
(0.995872 -0.00933522 0)
(0.995878 -0.0159728 0)
(0.995828 -0.0225283 -2.90306e-20)
(0.995729 -0.0290032 1.18312e-18)
(0.995589 -0.0353937 3.53896e-18)
(0.995415 -0.0416965 4.72885e-18)
(0.995222 -0.0479096 2.41038e-18)
(0.995021 -0.0540314 -2.37182e-18)
(0.994824 -0.0600602 -2.39319e-18)
(0.994644 -0.0659942 2.47387e-18)
(0.994493 -0.0718303 0)
(0.994383 -0.0775631 4.93862e-18)
(0.994333 -0.0831859 -5.10896e-18)
(0.994365 -0.0886932 0)
(0.994508 -0.0940863 0)
(0.994797 -0.0993797 0)
(0.995267 -0.104607 0)
(0.995947 -0.109825 0)
(0.996846 -0.115109 0)
(0.997945 -0.120548 5.38814e-18)
(0.99919 -0.126229 -1.09735e-17)
(1.00049 -0.132211 -5.59168e-18)
(1.00172 -0.138507 5.63705e-18)
(1.00275 -0.145066 5.54206e-18)
(1.00346 -0.151766 -5.7692e-18)
(1.00375 -0.158422 5.87078e-18)
(1.00357 -0.164807 0)
(1.00292 -0.170674 6.17098e-18)
(1.00184 -0.175791 -6.37244e-18)
(1.00039 -0.179954 0)
(0.998653 -0.183003 -1.36664e-17)
(0.996741 -0.184836 7.10995e-18)
(0.994782 -0.185415 -1.48666e-17)
(0.992951 -0.184775 7.74886e-18)
(0.991471 -0.183034 0)
(0.990622 -0.180393 8.22759e-18)
(0.990743 -0.177125 8.47901e-18)
(0.992212 -0.173558 -8.45172e-18)
(0.99546 -0.170056 -8.45211e-18)
(1.00086 -0.166969 8.14091e-18)
(1.00899 -0.164626 0)
(1.01964 -0.163171 0)
(1.03492 -0.162783 5.25478e-18)
(1.0483 -0.162699 0)
(1.07926 -0.163509 1.48235e-18)
(0.977833 0.212617 1.62061e-17)
(0.988995 0.19965 0)
(0.998472 0.199058 -2.40945e-17)
(1.00125 0.199733 2.18288e-17)
(1.00018 0.19759 -2.08163e-17)
(0.99903 0.194434 1.99656e-17)
(0.998399 0.191033 0)
(0.997724 0.187058 1.60212e-19)
(0.996946 0.182455 1.67935e-17)
(0.996278 0.177367 0)
(0.995792 0.171857 0)
(0.995442 0.165931 0)
(0.995188 0.159586 2.77072e-17)
(0.995003 0.152813 0)
(0.994848 0.145595 2.46903e-17)
(0.994672 0.13794 0)
(0.994465 0.130056 4.61805e-17)
(0.994268 0.122182 0)
(0.994123 0.114345 0)
(0.994033 0.10652 -2.20812e-17)
(0.993975 0.0987122 -1.08145e-17)
(0.993935 0.0909547 0)
(0.993916 0.0832777 0)
(0.993934 0.0756955 0)
(0.994 0.0682093 5.26014e-18)
(0.994117 0.060813 -5.24305e-18)
(0.99428 0.0534987 -1.07971e-19)
(0.994481 0.0462575 0)
(0.994709 0.0390808 5.33902e-18)
(0.994952 0.0319643 0)
(0.995197 0.0249092 0)
(0.995435 0.0179188 -2.63407e-18)